/*--------------------------------*- C++ -*----------------------------------*\
| =========                 |                                                 |
| \\      /  F ield         | OpenFOAM: The Open Source CFD Toolbox           |
|  \\    /   O peration     | Version:  2.3.1                                 |
|   \\  /    A nd           | Web:      www.OpenFOAM.org                      |
|    \\/     M anipulation  |                                                 |
\*---------------------------------------------------------------------------*/
FoamFile
{
    version     2.0;
    format      ascii;
    class       volSymmTensorField;
    location    "4180";
    object      sigma;
}
// * * * * * * * * * * * * * * * * * * * * * * * * * * * * * * * * * * * * * //

dimensions      [1 -1 -2 0 0 0 0];

internalField   nonuniform List<symmTensor> 
11800
(
(152042 75670.4 7.31928e-14 -2791.81 3.87671e-14 37032)
(-75324.8 66659.6 1.1236e-13 -348.228 3.56277e-14 -18776)
(689451 96941.6 -1.86674e-15 1520.12 -8.11625e-14 171444)
(-598535 49528.5 0 -1571.54 0 -148899)
(-78071.7 64333.5 2.09632e-14 -4965.58 -5.92227e-14 -20603.2)
(-374444 100104 8.12325e-14 2218.45 4.26064e-14 -92356.7)
(-69526.4 96059.8 1.53762e-13 -633.708 -3.9981e-14 -17408.1)
(-98020.2 99900.3 -2.28908e-14 891.095 9.20862e-14 -24099.7)
(211733 50460.1 3.04507e-14 463.475 -2.07913e-14 52650.2)
(145027 105079 -7.87512e-14 721.703 -6.63282e-14 36163.3)
(175520 62283.1 -6.10579e-14 1876.3 5.2261e-14 44015.6)
(-868153 35781.6 -7.29097e-14 -6414.47 -3.3077e-14 -216998)
(24230.2 -35200.4 1.31394e-16 -65320.9 1.02115e-16 -10195.5)
(638621 49948.5 6.60928e-14 3930.91 -1.80835e-14 159430)
(-510320 93816.1 -5.51702e-14 6527.96 4.28857e-14 -125001)
(2.35703e+06 -8571.07 0 -7838.03 0 582882)
(-45411.3 75076.7 5.20341e-14 4331.37 4.58789e-15 -10192.8)
(-70110 69217.6 -2.93531e-14 8540.06 1.68558e-13 -15276.8)
(146550 118150 -2.98743e-14 -19146.1 2.12315e-14 31611.6)
(110505 63004.4 -1.04806e-13 -12156.3 -3.38977e-14 24402.3)
(-470125 56210.9 3.26656e-14 -1754.32 3.4232e-14 -117083)
(-759457 88210.8 5.22485e-14 3885.37 -3.03781e-14 -187473)
(-991303 112302 -2.62816e-14 12307.1 1.68967e-14 -242909)
(-909640 64423.9 2.64111e-16 314.168 4.56529e-15 -225622)
(1.92388e+06 83921.9 3.30813e-15 -8484.42 3.80749e-14 475249)
(-1.18361e+06 112069 -2.58115e-14 8398.07 -7.34301e-16 -291594)
(-1.25605e+06 59218 0 11052.1 0 -308910)
(620330 44165.4 -8.67019e-14 -5521.35 -5.23572e-14 152546)
(-1.36748e+06 60466.8 -1.49161e-14 12119.7 -7.17452e-14 -336292)
(-1.47913e+06 60914.5 1.98858e-14 14155.3 -3.09095e-14 -363491)
(406738 46475.6 -1.07464e-13 -2082.07 -1.92579e-13 100403)
(81364.4 60171 -1.72027e-14 2742.71 -1.4212e-14 20868.7)
(1.20821e+06 108112 -4.22047e-15 13952.4 -1.84387e-14 303243)
(-29670.1 79422.3 1.40541e-14 -2042.53 -1.05224e-13 -7868.54)
(20832.5 84124.9 -3.71705e-14 2178.61 -1.59532e-13 5709.52)
(-396913 34768.3 -9.75771e-14 -1268.25 -7.08817e-14 -98796.8)
(22961.6 85314.2 1.32014e-13 1629.11 -1.56982e-13 6101.47)
(1.29511e+06 61924.7 -1.55035e-14 6913.08 -6.62332e-14 323059)
(-47140.5 82840.8 0 -1532.38 0 -12076.7)
(105522 78139.7 -4.54722e-14 6220.63 8.47012e-14 27725.7)
(-1.31969e+06 43812.5 -8.0694e-14 -6663.27 -3.75001e-14 -329096)
(-1.43673e+06 43271.7 5.77971e-14 -7075.89 -3.31617e-14 -358236)
(652069 59346.7 -3.34442e-14 -765.38 -1.11299e-13 161602)
(-1.554e+06 43558.5 -1.09847e-14 -5617.8 -5.86297e-14 -386974)
(427597 58422.6 2.85633e-13 1059.45 -8.909e-14 106358)
(2.20436e+06 53505.5 0 -7783.71 0 545014)
(950721 122952 -1.66105e-14 -3581.45 8.69481e-15 235005)
(1.13225e+06 43720.9 -2.93279e-14 -12385.9 -2.03632e-14 277860)
(-110325 85835.7 -1.13234e-13 580.269 -6.97563e-14 -27229.9)
(253817 82682.9 0 2509.91 0 63600)
(-901463 49525.2 -5.48476e-15 2575.13 5.80722e-14 -223032)
(-631207 46188.1 1.89837e-13 3218 2.22408e-14 -155817)
(-12926.1 83385.9 1.06474e-13 1130.36 6.62851e-14 -2926.77)
(46959.9 134797 -2.30616e-15 8677.46 2.01e-14 13804.8)
(-2.53365e+06 5260.18 -3.53027e-15 -13107.2 -5.54193e-15 -631902)
(1.97905e+06 -90071.2 4.74976e-15 -90605.1 8.37185e-15 468561)
(-67560.7 20626.1 9.16549e-14 1898.58 3.40348e-14 -16292.1)
(-566046 98620.5 6.83556e-15 -6256.41 -5.66996e-14 -142000)
(454395 61945.8 -5.7797e-14 9507.21 8.46469e-14 115103)
(-400364 103853 4.73509e-14 -7633.22 -8.54861e-15 -101232)
(2.04849e+06 21141.1 -4.15701e-14 -15741.1 -1.44081e-14 504367)
(-55103.3 87730.6 4.50658e-14 935.826 -7.33291e-14 -13440.1)
(-445945 80504.1 -2.59867e-14 -2848.9 4.46668e-14 -111355)
(356986 80697.6 7.8899e-14 3483.89 -4.50021e-14 89439.9)
(1.89924e+06 11799.7 4.53876e-15 -928.961 -2.74567e-14 471008)
(-276908 33746.8 -1.2893e-13 2074.84 -1.55793e-13 -68191.7)
(-929656 21096 9.06551e-14 4849.91 3.02218e-14 -229463)
(-657944 24249.5 2.64574e-15 3966.91 -1.59201e-13 -162265)
(-70046.9 22142.3 0 -3611.14 0 -18276.1)
(-1.10343e+06 61367.2 -2.06025e-15 11450.9 6.75159e-14 -270942)
(-23370.1 84716.1 -2.58296e-14 48.0675 5.33175e-14 -5786.68)
(-55004.2 66106.6 -9.95052e-14 -3270.22 1.11302e-13 -14459.1)
(-48242.1 64709.2 6.97875e-14 -1457.03 -4.27071e-14 -12331.4)
(-1.66404e+06 358968 -5.9489e-15 204987 5.36566e-15 -362020)
(2.03155e+06 72461.6 -1.61927e-15 -7129.12 -1.65191e-14 502300)
(-372920 53314.2 -9.58681e-14 3271.2 -6.97196e-14 -91717.3)
(1.99097e+06 12800.2 -3.49611e-14 4073.11 3.11135e-14 495012)
(-268927 20324.7 8.47591e-14 -279.012 -2.78062e-13 -66795.6)
(-199312 43689.3 1.59409e-14 -191.589 -1.52091e-14 -49500.8)
(-188169 57893.4 1.62755e-13 2264.85 1.63177e-13 -46126.6)
(-2.5527e+06 -49373 1.28418e-14 11266.4 6.03065e-14 -630582)
(112224 56909 0 9330.44 0 30160.2)
(59513.4 68543.7 -1.69196e-13 1955.92 -6.66534e-14 15251.8)
(41305.3 73165 5.86614e-14 1093.18 -4.62021e-16 10519.9)
(-88119 65539 4.00908e-14 -9079.78 1.13437e-13 -24117)
(-1.4416e+06 74486.5 -2.2331e-14 -7854.42 1.12499e-13 -359638)
(441532 53075.8 1.36521e-13 4607.42 -4.24544e-14 110696)
(-1.32947e+06 72662.3 0 -7617.93 0 -331760)
(-1.21902e+06 71217.8 -4.69287e-14 -6806.69 -4.80517e-14 -304153)
(655829 50321 6.25313e-14 5765.89 3.82268e-15 164155)
(-13780 82952.1 -2.20596e-13 -3056.85 -1.41453e-13 -4177.56)
(1.42937e+06 99669.6 0 -4547.2 0 353528)
(-117923 72505.5 -4.68021e-14 1881.51 -7.75823e-14 -28792.2)
(73512.8 15837.6 -2.69796e-14 4960.83 -3.91488e-14 19470.9)
(179651 74058.7 2.06897e-13 1497.42 3.70487e-15 44946.7)
(56058.5 -42274.6 -8.36278e-16 -119080 -6.19959e-16 -15637)
(-2971.33 11632.8 2.17796e-17 6987.28 -1.29586e-16 996.439)
(-56618.5 -42032.4 -5.2953e-16 118840 3.52821e-16 15438.4)
(-13813.3 84311.1 -6.8583e-14 272.995 -9.97115e-16 -3359.62)
(-756618 54998.9 -1.68099e-14 -2882.94 6.70044e-14 -188448)
(52517.5 38632.1 3.76913e-14 -60.2433 -1.05409e-13 13015.7)
(825015 62108 -8.14227e-14 -7571.63 -1.126e-13 202824)
(-1.35563e+06 113417 5.43462e-15 -562.303 1.10635e-14 -336498)
(-444010 75827.6 -3.35849e-15 7042.78 1.05955e-14 -108421)
(-1982.79 89911.4 -1.05826e-14 -858.173 -5.26434e-14 -704.9)
(353768 102839 -2.17711e-14 2582.43 -3.76238e-14 88417.8)
(-169225 75110 -6.47566e-14 -799.835 1.42741e-13 -42186.6)
(-118510 78324.5 -2.19481e-13 -779.26 -1.05827e-13 -29598.1)
(2.01972e+06 20489.4 1.22767e-14 5106.17 2.55418e-14 502402)
(1.34127e+06 61703.1 2.00529e-14 4807.42 4.0791e-15 333989)
(1.4547e+06 62967.6 3.84193e-14 5600.46 5.34507e-14 362330)
(1.23019e+06 60893.7 1.40745e-13 4421.49 8.3382e-14 306333)
(-446792 54783.3 6.39646e-14 -4011.42 9.98767e-14 -111854)
(-663260 53901.1 -1.69151e-13 -4704.25 6.08036e-14 -165735)
(240514 67536.8 7.20574e-14 28.8062 -3.77646e-14 59683.7)
(1.81851e+06 35550.7 1.8476e-14 -154.91 1.08879e-14 451170)
(256571 31594.8 -5.27117e-14 -3023.81 -2.0722e-13 62910.2)
(-81370.4 78220 -1.82812e-13 857.082 1.70895e-13 -19977)
(1.7032e+06 77758.2 -2.11563e-14 1133.86 2.63551e-14 422880)
(-146646 108950 -5.91303e-14 -124.018 -1.59109e-14 -36416.5)
(-227323 44103.6 -4.05058e-14 3649.64 -1.70478e-14 -55497.9)
(71346.7 96074.5 1.3083e-13 -2648.35 -1.87258e-13 17045.5)
(101945 102657 -9.11339e-14 -2020.13 6.26713e-14 24793.4)
(-72914.7 78845.2 -2.65306e-14 3991.23 -3.91339e-14 -17101.3)
(-124330 68607 -1.66464e-13 -1252.68 -1.2987e-13 -31159.6)
(-2959.61 82914.8 -1.59995e-13 -2486.28 -1.20362e-13 -1351.24)
(-38213.3 82194.4 -9.59176e-14 -716.147 1.05356e-13 -9659.18)
(-8606.52 84290.6 -6.27045e-14 -2243.69 -5.97458e-14 -2692.16)
(9540.9 57000.7 2.97949e-15 40393.6 1.33459e-13 12389.8)
(-38449.3 5716.08 -4.35223e-16 -8879.73 6.34174e-14 -11743.3)
(-2.13515e+06 -344646 1.91797e-14 88043.6 -9.67852e-15 -507928)
(-1.54466e+06 75200.6 1.38603e-14 -11823.5 -2.11356e-15 -386195)
(482149 48557.8 7.22294e-14 3749.87 -7.04335e-14 120561)
(-1.43775e+06 77414.6 -5.5537e-14 890.909 3.48655e-14 -356514)
(700065 44625.2 -3.25133e-14 4330.31 9.84968e-14 174775)
(-1.32318e+06 74560.7 2.11937e-14 1014.7 2.1294e-14 -328055)
(-1.2114e+06 72513.3 -1.22353e-13 1486.86 9.34674e-14 -300204)
(401341 68630.1 7.0754e-14 -4944.35 1.97117e-13 98354)
(-1.2294e+06 30053.8 7.58805e-14 8387.42 -1.04257e-13 -302958)
(586659 72149 8.77484e-14 -6025.85 -6.98583e-14 144067)
(-1.13217e+06 31171.4 6.28933e-14 7366.25 -1.08235e-13 -279086)
(-1.03704e+06 33040.6 -6.52075e-14 7215.57 -5.87016e-14 -255520)
(-577721 93540.8 4.86682e-15 17799.8 4.88928e-14 -138928)
(177391 78840.5 -3.53274e-14 -5992.59 -2.35198e-13 42527.4)
(253826 76689.2 -5.64394e-14 -7948.79 -1.63013e-13 61007.2)
(-370443 74958.1 -1.69712e-14 11760.4 9.77118e-14 -88996.3)
(1.49718e+06 47715.7 -1.0752e-13 1981.16 -3.6273e-14 371973)
(-1.54373e+06 -20557 1.03364e-13 -12225.1 3.19457e-14 -386063)
(868731 45341.2 7.27614e-14 -2733.51 -6.7765e-14 214871)
(-440342 44846.8 1.61614e-15 7908.69 9.59184e-15 -107295)
(-202204 75074.4 -9.16001e-14 2183.67 -7.56735e-14 -49629.1)
(-211920 62030.1 7.83906e-14 -2814.17 -7.09059e-14 -53280)
(22507.9 83603.9 5.95912e-14 1459.1 1.0882e-13 5946.71)
(-301084 54232.7 -1.34011e-13 -903.657 1.38945e-13 -74929.4)
(259473 65625.3 -7.02372e-14 -4630.98 -7.41976e-14 63231.4)
(176029 74483 -6.43851e-14 2721.93 4.96168e-14 44351.7)
(-561152 61414.4 1.08965e-13 7924.56 -7.33361e-14 -137267)
(-786076 68213.5 3.9574e-14 3339.94 8.66029e-14 -194213)
(1.58948e+06 20388.4 2.43553e-14 1867.73 -3.21512e-16 394846)
(-7336.46 87963.6 3.12828e-14 -679.482 -1.52125e-13 -1988.92)
(2.29884e+06 83288.9 -2.83275e-14 -14043.7 -1.5433e-14 566903)
(-247850 67413.7 -1.15755e-13 1020.15 7.97461e-14 -61243.5)
(2.00412e+06 53434.5 0 -20463.8 0 492186)
(-574439 68507.6 3.39707e-14 -5785.36 1.41839e-13 -143966)
(-626784 68484.8 -3.483e-14 -6557.3 4.13037e-14 -157145)
(-678947 69657.2 -5.64667e-15 -6810.43 1.49266e-13 -170150)
(316875 75920.4 -8.57737e-14 1037.8 2.10917e-14 78880.7)
(215374 77471.6 -9.154e-14 571.657 2.25951e-14 53580.5)
(-2.49942e+06 -20623.1 2.24524e-14 -9526.79 -1.28021e-14 -622520)
(-1.55968e+06 73829.2 -2.31583e-14 -9169.32 4.3635e-14 -389263)
(549553 52287.3 -9.13656e-14 5105 -5.34618e-14 137622)
(763727 49259.6 2.56508e-13 5988.48 -1.37842e-13 190982)
(85392.2 84235.2 5.02352e-14 -8313.8 -1.29856e-13 19124.7)
(-447545 38198.2 0 1694.24 0 -110625)
(-453240 20839.9 1.37403e-13 -2888.7 -6.98404e-14 -113175)
(2.19845e+06 58961.2 3.68291e-14 -15519.9 2.45601e-14 541628)
(2.25004e+06 -14317.5 3.05329e-14 13955.9 2.69689e-14 561744)
(1.18589e+06 24603.8 1.88443e-15 -1151.55 6.46165e-14 293957)
(1.0889e+06 26863.7 1.32448e-14 -730.885 1.56975e-13 269998)
(1.28503e+06 22149.2 3.3363e-14 -2266.93 -4.82303e-14 318279)
(-560132 74053.6 -8.28638e-14 4718.39 7.45451e-14 -137809)
(-371622 69671.2 -8.04111e-14 3563.33 8.8178e-14 -91322.8)
(244114 98815.5 0 2031.63 0 61073.8)
(166631 95438.9 -3.34023e-15 787.167 1.27824e-13 41539.7)
(532213 73810.5 -9.84015e-14 -167.91 8.04482e-14 132011)
(-224545 69733.3 -7.86954e-14 2910.67 1.86538e-13 -54991.9)
(-349406 104689 -1.5552e-14 4335.41 6.87239e-14 -85619)
(108460 76477.1 -2.92936e-13 -857.601 -7.77188e-14 26698.4)
(154592 72962.1 -2.02536e-13 -1082.59 8.47281e-14 38088.8)
(-94621.4 87705.1 -3.95012e-14 2227.86 -5.52458e-16 -22924.7)
(-265849 57570.7 -3.2595e-14 5803.48 -2.0347e-14 -64522.7)
(-244554 58824.3 2.15488e-14 5082.71 -3.67842e-14 -59417.6)
(-246781 42775.2 0 -444.368 0 -61341.7)
(-117768 108225 4.45168e-16 -5366.39 -4.26143e-14 -30552.1)
(-1.14004e+06 2862.03 9.59164e-14 -7166.25 -4.19988e-14 -284645)
(1.43055e+06 57004.8 -1.24545e-13 -6422.43 -1.25498e-14 353355)
(1.74974e+06 179468 7.37703e-15 -299817 3.72681e-15 359756)
(-41681.6 73451.1 2.61593e-14 -3642.27 -5.92833e-14 -11245.8)
(267809 25427.1 9.5461e-14 2367.52 -2.17912e-13 67036.3)
(-2.19081e+06 -273736 1.84312e-14 178105 -1.19056e-14 -499394)
(124665 58420.8 4.08502e-15 3845.74 1.10742e-13 31886.1)
(341849 41221 7.70621e-14 1002.57 -8.84564e-14 85068.4)
(377725 45225.3 1.07603e-13 -5498.56 -4.53943e-14 92356.9)
(-4797.92 86807.4 8.10549e-14 -93.12 -1.20188e-14 -1213.57)
(-5453.75 89814 8.54992e-14 -637.994 7.22877e-15 -1511.48)
(1.03557e+06 33765.8 2.72996e-14 -5310.04 9.07538e-14 255628)
(858460 94798.2 3.46822e-14 7497.02 -8.36156e-15 214861)
(-780958 78513.1 0 7598.02 0 -191886)
(-667538 41753 -8.8316e-14 -10390.6 -5.52354e-14 -168208)
(2.12986e+06 -348188 -7.7358e-15 -90244.9 -5.22056e-15 506071)
(-654912 121177 -7.05649e-15 18057.7 8.21772e-14 -158017)
(-1.04687e+06 40210 4.8484e-14 -2444.59 -2.85683e-14 -260356)
(-2.22029e+06 -894099 -2.08098e-14 465861 8.13645e-15 -435311)
(2.6657e+06 2242.79 0 36438.1 0 670456)
(-1.9444e+06 -828058 -6.77167e-15 219758 2.09456e-15 -427918)
(341923 120573 -4.61941e-14 -48.7215 1.62806e-14 84825.8)
(-76584 70461.4 -8.26748e-15 -1021.49 1.15584e-13 -19255.5)
(-1.00823e+06 88551 4.10606e-14 -8464.12 -4.51461e-14 -252262)
(-922770 88582.1 6.121e-14 -7546.47 -7.64328e-15 -230830)
(-846487 86442.8 -6.98549e-14 -6820.71 2.71495e-15 -211723)
(300972 61620 6.13239e-14 4024.21 -1.71075e-13 75675.7)
(452164 58787.1 -1.53891e-13 5099.44 1.49589e-13 113456)
(44639.8 75912.2 -2.41988e-14 -7938.68 1.13553e-13 9106.29)
(63691.7 71446.2 5.72707e-14 -10780.8 7.33554e-14 13128.3)
(-144814 114540 -6.50728e-14 23729.2 1.76031e-14 -30043.6)
(-92458.9 66668.3 4.86759e-14 16000.7 -6.22481e-14 -18970.9)
(-1.21735e+06 -489933 -5.24522e-15 -30233.6 1.09576e-15 -309551)
(228241 115613 -3.69861e-14 17313.3 -1.31012e-13 60927)
(-113423 68382.4 -1.27874e-13 -9051.06 -5.84466e-14 -30388.2)
(-532667 108816 0 128.358 0 -132134)
(227882 63347.2 9.80439e-14 1370.26 -4.00113e-14 56882.2)
(-112265 93365.6 0 -581.354 0 -27999.4)
(-83890.2 74278.2 -6.22508e-14 -886.36 -9.8584e-14 -21034.8)
(795763 77657.8 8.70422e-14 4547.89 -9.10277e-14 198573)
(817530 48526 1.33274e-13 -24.0561 6.36452e-14 202840)
(2.2179e+06 -893193 -7.78684e-15 -466096 -2.57524e-15 434657)
(1.21577e+06 -489778 9.0964e-15 30105 2.49462e-15 309127)
(-247926 53962.8 1.89763e-14 1928.58 2.69998e-14 -61037)
(-264628 54882.5 -5.76508e-14 -2919.5 -1.17866e-13 -66384)
(-1.41674e+06 242.666 -6.33467e-14 -5450.66 -1.45106e-14 -352874)
(1.14919e+06 52781.5 1.43532e-13 -3993.21 -3.74895e-14 284147)
(371742 70448.8 4.76558e-15 -3074.5 2.61085e-13 91473.8)
(559534 75791.6 8.87024e-14 -3823.3 9.64256e-14 137883)
(-1.28604e+06 22583.2 -2.33414e-15 -966.208 5.4927e-14 -319333)
(-1.18923e+06 26563.6 -5.58981e-14 -871.303 1.84832e-14 -295288)
(-1.09161e+06 28989.5 -3.74762e-15 -967.899 8.68474e-14 -271090)
(-16703.1 89205.7 -1.34949e-13 -913.18 3.90252e-14 -4370.95)
(-1.39347e+06 24633.3 3.62728e-14 -2266.76 3.90048e-14 -346312)
(467219 70899.4 -9.0912e-14 -3144.72 4.45896e-14 115146)
(655704 74883.1 0 -3641.1 0 161790)
(618486 56083.4 3.46229e-14 -4575.78 8.25847e-14 152324)
(119193 74370.2 -1.14047e-13 793.139 -3.01429e-13 29771)
(10313.1 76579 -9.99376e-14 -8989 -3.67459e-14 328.538)
(505340 40447.9 -1.26332e-13 15785.5 2.26187e-14 129302)
(-429939 58333.4 -1.08438e-14 -1278.95 -8.77782e-14 -106994)
(68053.1 78610 1.47284e-15 -16079.4 1.83474e-14 12895.7)
(1.94157e+06 -827852 -7.04604e-15 -220554 -1.77266e-15 427019)
(306219 82212.3 8.99177e-15 -2707.64 -1.66667e-13 75307.4)
(369016 79997.5 7.7603e-14 212.306 2.63898e-14 91612.9)
(-242038 79020.9 0 -471.178 0 -60171.5)
(-287516 88987 2.89829e-14 -7368.23 -8.064e-14 -73166.6)
(849542 86125 0 7903.29 0 212750)
(926063 88465 5.11713e-14 8494.98 4.85366e-14 231883)
(1.00234e+06 92182.3 -1.14466e-13 8829.64 -1.10663e-14 250892)
(-452278 55804.4 1.62441e-13 -5889.34 1.64984e-13 -113681)
(-304379 60456.7 8.53961e-15 -4264.16 -9.87609e-14 -76580.6)
(-16318.2 85032.8 9.61263e-14 -379.839 5.11668e-14 -4143.12)
(2.00036e+06 12472.5 -1.4826e-14 -31546.7 -2.7067e-14 488502)
(-12552.4 99820.6 -1.03831e-13 -6156.47 3.23447e-14 -4642.04)
(26223.2 49457.7 -9.89561e-14 12134.8 -6.15697e-14 9517.41)
(44769.3 80719.6 7.46919e-14 1325.79 -1.73301e-13 11437.1)
(481093 81328.7 7.94473e-14 371.116 8.39256e-14 119461)
(-188166 4306.25 -1.322e-13 -3177.47 6.47649e-15 -47476.2)
(636068 90804.6 0 -3916.75 0 156849)
(2.10204e+06 -90400.5 3.4115e-16 -292968 1.37106e-16 448867)
(478715 21754.3 7.63223e-14 7062.18 1.7352e-13 120531)
(460133 34560.9 3.45892e-14 -6738.29 1.88452e-14 112496)
(-692106 77543.2 1.13601e-14 6402.06 2.39863e-14 -170137)
(-492176 72554.3 -8.85734e-14 5358.62 2.83682e-14 -120789)
(-589707 47640.9 -1.81028e-13 -2735.03 -3.16591e-14 -146997)
(-422669 52502.4 9.14214e-15 -3021.57 -9.61059e-15 -105622)
(1.46172e+06 20250.1 -6.30429e-15 -3839.6 2.07615e-14 361729)
(1.21049e+06 98089.3 2.59675e-15 -393.298 -4.29378e-14 300249)
(349345 89505.4 1.60237e-14 -4197.99 9.47577e-15 85638)
(469848 73979.7 3.00835e-14 -215.876 5.1159e-14 116525)
(257497 88460.7 8.37168e-14 -4382.35 5.96357e-14 62803)
(345137 74265.9 7.50682e-14 -1645.16 -1.1879e-14 85227.4)
(-661217 52094.9 -1.37913e-14 6769.49 3.45849e-14 -162382)
(-870005 82637.1 -3.82439e-14 2414.84 6.8739e-15 -215267)
(-198606 130668 4.24228e-14 -769.618 3.02694e-14 -49469.1)
(1.43175e+06 58271.8 4.73651e-14 5700.22 3.39712e-14 356660)
(1.55242e+06 57986 -1.02579e-14 25252.3 5.09411e-15 391452)
(1.84061e+06 59300.2 8.33066e-15 -2119.46 5.24595e-15 456166)
(128632 83138.7 -1.6294e-13 -221.67 1.9781e-13 31861.2)
(-472413 22814.5 -1.00954e-13 -6459.1 -5.18966e-14 -118818)
(-457013 37510.5 -1.28103e-13 4202.79 8.56664e-14 -112351)
(2.15354e+06 -9075.4 0 13873.8 0 537781)
(2.15952e+06 66264.9 0 1653.11 0 536230)
(1.29234e+06 51584.7 1.97697e-14 -1889.8 9.40705e-14 320187)
(1.28137e+06 7865.08 6.30622e-14 5237.19 -1.77225e-13 319235)
(-1.3311e+06 10683.2 0 -9963.44 0 -332744)
(-1.29805e+06 51952.3 0 8852.6 0 -319875)
(37194.5 80563.4 -2.24533e-14 2476.78 6.42967e-14 9843.25)
(-90651.7 33949.9 2.40283e-13 -5214.4 -1.0168e-13 -23786.3)
(-350448 34921.7 -6.3358e-14 -3571.65 -2.33724e-14 -87839.5)
(2.81205e+06 3776.65 0 56863.1 0 711835)
(-49594.2 70504.6 -1.58456e-13 -1408.98 -3.95214e-15 -12654.9)
(-58877.9 73304.6 -2.28229e-14 -4837.27 -1.26905e-13 -15809)
(310676 96617.5 -8.16918e-14 -7055.37 -5.59743e-14 75334.5)
(-245013 94759.3 -1.70179e-13 -7315.56 7.12499e-14 -62607.8)
(297305 57461.5 4.93838e-14 -8124.86 -5.10668e-14 71751.5)
(-1.13713e+06 48868.3 3.50262e-14 -10345 -7.12857e-14 -284711)
(1.14642e+06 53612.7 -1.45522e-14 -11726 -8.7163e-14 281541)
(-1.92166e+06 81181.2 1.50759e-14 -11895.5 -6.43496e-14 -479755)
(-2.26838e+06 -206808 7.94749e-15 419877 -5.70734e-15 -458651)
(794077 104862 -1.26624e-14 -16579.8 1.57195e-14 192913)
(90687.4 104606 -8.44239e-15 -4914.96 4.75184e-14 21281.9)
(-1.07299e+06 85813.3 -4.22773e-14 -4876.05 -1.18469e-13 -267439)
(902671 27709 -5.50718e-14 11475.5 7.94218e-14 226818)
(-624602 51996.8 6.07171e-14 -10854.2 7.78602e-14 -157670)
(488065 84463.6 9.12783e-14 5995.73 1.60009e-15 122587)
(91272.6 91350.2 2.54808e-14 5388.49 1.19207e-15 23983.6)
(156192 70178.2 -1.07761e-13 -913.132 1.35299e-13 38527.9)
(-309660 60421.3 7.37893e-14 -19699.2 -7.83486e-14 -81720.6)
(-501335 122358 1.20185e-15 8509.46 9.867e-14 -122280)
(-284420 61497.1 1.13853e-14 -18251.3 -7.92931e-14 -75098.9)
(-460251 118333 7.20193e-14 7713.09 -2.63147e-14 -112284)
(114172 49659.2 -4.51256e-14 -3371.55 1.40141e-14 27491.9)
(-53982.1 101254 -1.19829e-15 2699.53 -8.89268e-14 -12724.2)
(-35269.8 99170.9 1.10357e-13 2632.44 8.84948e-14 -8097.98)
(-23622.8 88006.1 5.68089e-14 845.819 -1.23664e-13 -5651.42)
(1.52495e+06 40827 3.25123e-14 4195.14 5.04177e-15 379413)
(-15777.6 101547 -1.24746e-13 -7248.83 -5.54369e-14 -5713.31)
(-60324.4 72870.3 6.16794e-14 -4638.94 -2.06481e-13 -16118.7)
(2.12018e+06 -63431.8 -1.61149e-14 -109408 -1.17453e-14 498912)
(355499 59501.4 6.57238e-14 -5347.72 -8.42995e-14 86879.5)
(-821134 104843 4.37981e-14 14910.1 1.18204e-14 -200041)
(-945135 67124.8 -7.17151e-14 1989.66 -3.13753e-14 -234013)
(-938374 29755.7 0 -11381.1 0 -235654)
(1.18066e+06 17074.7 -6.45473e-14 5817.13 -3.06893e-14 294389)
(1.13099e+06 76048.5 3.94667e-15 9805.23 7.68633e-14 283054)
(-36032.4 60413.3 -7.29582e-14 925.302 5.94561e-14 -8710.78)
(-27430.3 60874.4 5.29263e-14 1645.07 -2.95877e-13 -6397.84)
(-733703 112114 -2.88955e-14 8361.56 -7.07263e-16 -179972)
(-988251 79078.5 0 12414.9 0 -242125)
(697133 48417 1.58092e-14 7723.66 3.88435e-14 174889)
(-1.80103e+06 99879.1 6.91539e-15 -8410.09 -2.18333e-14 -448958)
(63962.9 70000.9 0 16178.4 0 19884.7)
(998480 41710.6 -3.42833e-15 -2767.54 2.3775e-14 247057)
(757461 108924 -1.85423e-15 6712.17 9.00904e-17 189607)
(-478887 89331 1.3561e-13 4715.32 -1.74375e-14 -117652)
(-371841 60222.6 -1.32514e-14 -3275.89 9.55342e-14 -93074)
(-341509 84995.8 2.0988e-14 3801.45 -7.97405e-14 -83792.1)
(-267673 64356.9 -1.18631e-15 -2947.64 4.68474e-15 -67146.6)
(-380416 40211.5 4.90706e-14 183.24 7.24567e-14 -94343.6)
(-320902 45827 -8.58359e-14 2993.41 1.72701e-14 -78879.7)
(-392126 108654 0 1090.36 0 -97023.9)
(-440218 109900 -4.3157e-14 -940.802 3.74849e-14 -109460)
(-478745 113375 -3.52107e-15 -1067.57 -4.01366e-15 -119051)
(130916 70010.1 -2.11277e-13 1325.6 -1.05605e-13 32811.7)
(-26106.9 83722.4 -4.68956e-14 -2370.46 9.33231e-14 -7065.82)
(945935 41850.9 -2.63896e-14 5780.62 7.5201e-14 236140)
(990367 57373.9 3.65497e-14 -6534.37 -7.104e-14 244109)
(163630 73799.6 7.60187e-15 1303.57 -5.2657e-14 40923.5)
(240015 67397.6 0 2812.62 0 60250.5)
(-517545 108535 5.39375e-14 -3138.52 -5.92566e-14 -129192)
(459348 64546.6 -1.03113e-13 4859.68 -1.30655e-15 115179)
(501599 96785 -4.51372e-14 5619.44 -2.79443e-15 125851)
(-184186 80991.3 -8.68218e-14 -698.228 1.24402e-13 -45873.5)
(-157163 84766.6 5.06534e-14 -1836.36 2.97145e-15 -39451)
(-225510 88981.7 8.2057e-14 -1034.72 2.91814e-14 -56210.4)
(-250362 76175.7 0 -2869.38 0 -62831.8)
(-1.08563e+06 43358.7 2.40267e-14 -182.532 -3.6637e-14 -269411)
(504650 78298.9 -3.9756e-14 -1009.67 -1.57111e-13 124964)
(358746 75812.7 -1.82103e-14 -1188.07 -2.6026e-15 88717.4)
(-116939 209358 -1.09775e-14 22553.1 -7.8361e-15 -23419)
(1.3078e+06 34410 -8.33504e-14 -9478.74 -4.99216e-14 322141)
(-1.52633e+06 9511.56 7.21072e-14 2309.81 4.31435e-14 -378140)
(-173876 193538 0 -7457.43 0 -44992.6)
(-180348 78501.3 3.03514e-14 2125.84 9.15993e-14 -44220.5)
(-152263 82947.7 -2.28294e-13 3747.14 -5.79003e-14 -36849.7)
(-263136 77625.3 9.84428e-14 1685.51 1.1008e-15 -64871.1)
(-226598 85355.9 0 3172.8 0 -55436.3)
(514803 62256.8 5.00334e-14 -4445.75 -8.05277e-14 126630)
(590990 88100.4 1.82753e-14 -3630.84 7.74398e-15 145736)
(480470 66423.1 -3.72417e-14 -9170.98 3.56454e-14 116939)
(560220 91038.5 3.97787e-14 -6447.05 1.09835e-13 137402)
(440882 66557.6 3.12186e-14 -8269.79 5.23576e-14 107340)
(513924 89321.4 -6.78083e-14 -5919.21 3.87396e-14 126046)
(404522 39159.3 3.09734e-14 -145.081 1.16931e-13 100334)
(390317 22520.1 9.10736e-14 2235.6 1.94951e-13 97400.3)
(-770591 86640.2 -1.73082e-14 715.306 2.27165e-14 -191022)
(365109 83281.3 -9.43099e-14 -4599.64 -2.29365e-15 89449.7)
(-866043 62078.5 0 7350.26 0 -213059)
(1.49789e+06 92359.5 5.0688e-14 -12727.4 -3.18807e-14 368500)
(-759802 38192.1 9.50162e-14 2879.4 -1.56057e-13 -187808)
(-553165 44114.3 1.14768e-13 915.87 -7.7113e-14 -137024)
(-1.67539e+06 -792021 -6.44588e-15 266371 1.44231e-15 -349605)
(49790.1 78398.9 1.28224e-13 154.752 -3.36618e-14 12392.3)
(1.5889e+06 50346.2 -1.69426e-14 -3699.65 -8.61136e-16 393321)
(-776083 59805.5 -2.65814e-14 2885.33 -7.70777e-14 -191846)
(-557927 57692.8 1.66264e-13 2586.97 8.17996e-14 -137791)
(2.36089e+06 -18517.3 2.75036e-14 -5223.04 1.22436e-14 584489)
(-106664 69679.1 -1.83898e-14 -1687.87 7.37518e-14 -26884.4)
(1.63541e+06 12129.9 4.211e-14 4801.07 -2.61592e-14 406971)
(-384870 60860.9 5.75358e-14 1568 -1.01404e-13 -95105)
(-1.34791e+06 90850.5 3.41312e-14 13819.6 -4.44813e-15 -331015)
(-1.26691e+06 57090.8 -2.08485e-14 -7547.08 -1.58394e-15 -316220)
(1.22818e+06 58655.5 -3.94632e-14 1921.12 2.57923e-14 305214)
(-157260 82201.7 -2.50911e-13 6272.15 -1.14179e-13 -37463.1)
(-3669.73 -42530.7 2.62335e-16 -66683.2 9.32562e-17 -17456)
(-19064.6 74393 0 3064.09 0 -3970.04)
(-2.22358e+06 -710708 1.05876e-14 279675 -2.92043e-15 -482323)
(1.67227e+06 -791797 1.25385e-14 -268791 3.94677e-15 348232)
(-1.07936e+06 95025.5 4.41721e-14 -8992.85 -4.28184e-14 -270043)
(375926 58381.7 1.92208e-14 3577.49 7.41575e-14 94162.4)
(522682 53702.5 -6.17762e-14 4749.42 1.40619e-13 130866)
(150301 77120.1 1.23795e-13 -1272.63 3.68569e-14 36977.1)
(-281095 14785 7.17436e-14 40.0686 -1.10303e-13 -69735.3)
(253990 101434 -5.95825e-14 -1657.94 5.45142e-14 62608.7)
(-128642 61010.9 1.7602e-14 848.735 2.6982e-14 -31708.1)
(-115686 110258 1.25649e-14 4678.7 3.64194e-14 -27543.1)
(-1.82616e+06 896.231 -5.81638e-15 49245.1 1.37739e-14 -440889)
(14903.9 -25310.4 6.88493e-17 -44200.6 4.27354e-17 -7269.11)
(-638275 100944 -2.65106e-16 7933.91 4.98316e-15 -156400)
(502739 55351.4 4.47121e-14 -3269.38 1.38462e-13 123929)
(1.89286e+06 -366612 1.11442e-15 -49905.1 1.4416e-15 457276)
(-57032.9 60563 -1.1482e-14 -9873.29 -8.92425e-14 -16600.8)
(-63931 103819 9.10938e-15 -4472.58 8.7125e-14 -16972.3)
(-36287.2 90439.6 -1.55858e-15 202.725 -1.33396e-13 -8953.29)
(-93599.5 76098.7 -2.46008e-14 3738.54 3.35105e-14 -22296.3)
(42653.8 89083.6 3.993e-14 -1587.42 1.03165e-13 10189.4)
(28088.4 91014 -9.38668e-14 -221.217 -3.06374e-14 6914.41)
(-1.89675e+06 -364377 4.74042e-15 48165 -1.46615e-15 -458670)
(671001 93510.3 -3.63085e-14 2524.9 1.96336e-14 167115)
(-235573 75852 -2.51286e-13 -767.856 -7.12804e-14 -58641)
(794240 79848.8 1.3041e-13 5347.99 -2.20757e-13 198394)
(729802 78763.8 -1.63579e-15 4761.86 -8.47309e-14 182260)
(668362 76312.4 -2.42535e-13 2608.89 3.65765e-14 166481)
(115371 43283.4 -1.228e-13 3988.19 -4.59331e-14 29615.3)
(-1.55547e+06 31399.3 6.55384e-14 -4013.28 -6.35631e-14 -386940)
(493297 60593.1 1.3315e-13 -2816.32 1.43655e-14 121698)
(700853 62966.3 -6.02781e-14 -2828.4 -8.61817e-14 173194)
(-133901 75388.6 -2.12827e-13 -338.205 -3.58746e-14 -33307.5)
(990539 102230 1.38232e-14 -13027.2 1.9934e-14 242541)
(191220 58168.6 -8.61153e-14 344.944 5.83197e-14 47531.1)
(-1.98196e+06 22534.6 -2.21181e-14 -2585.39 -8.17241e-15 -492406)
(57936.7 77261.8 -1.11057e-13 1839.63 -9.34109e-14 14831.7)
(-168297 82785.2 -2.20823e-13 1398.58 1.04252e-13 -41410.9)
(570497 62805.1 1.65785e-13 980.885 -2.38466e-14 141795)
(524188 63242.9 1.55057e-13 670.282 3.77284e-14 130228)
(479557 61783.6 -1.1249e-13 -1292.92 3.09817e-14 118667)
(1.03224e+06 44969.6 1.66288e-14 133.391 3.48631e-14 256154)
(228686 82936 -7.45221e-14 3285.76 -1.59658e-13 57556.8)
(-571494 67771.9 5.05252e-14 -8787.13 1.12785e-15 -143979)
(-445613 123970 3.07518e-14 4072.53 3.42668e-14 -109555)
(-250887 50206.1 0 1895.62 0 -61779.7)
(-796475 92404.9 -6.82033e-14 -9149.13 2.07601e-14 -199892)
(-869406 94816.1 -1.02513e-13 -10119.9 -6.76712e-15 -218228)
(-944310 98352.8 -1.02251e-13 -11436 4.92446e-14 -237140)
(451525 61701.2 2.11473e-15 7346.24 2.62146e-14 113855)
(308394 66748.9 3.31964e-14 5283.85 -4.1552e-14 77830)
(79272.3 6613.32 -9.65082e-14 4024.82 3.48089e-14 20667.7)
(158738 64397.8 0 -1782.82 0 38943.8)
(203793 51806 -1.13015e-13 1887.75 6.74427e-14 51033.5)
(2.29222e+06 -112894 -5.95492e-15 -300526 -2.86961e-15 494179)
(883768 42720.5 1.11012e-13 1436.93 -1.13915e-13 219637)
(-678834 84090.9 0 1336.61 0 -168101)
(-474790 75931.9 -5.50307e-14 9251.72 -2.41555e-15 -115510)
(381952 80094.6 2.94081e-14 -3915.25 -3.63645e-14 93798.7)
(-121703 95121.6 4.9145e-14 -2717.17 4.03122e-14 -30871.2)
(-14966.5 91732.2 1.44987e-13 -3108.33 -1.14218e-13 -4484.74)
(40440.4 65464.5 1.15318e-13 9932.62 -1.82418e-14 12498.6)
(44167 64799.1 -6.02887e-14 10893.6 -5.61228e-14 13661.6)
(-4333.56 117072 -3.01909e-15 -3076.29 -2.47253e-14 -1838.53)
(-10640.5 60715.3 -2.70194e-14 -1001.24 9.08476e-14 -2888.55)
(543.993 70648.7 -1.01268e-13 -51.9746 7.54494e-14 122.08)
(13730.2 73556.1 9.67763e-14 -14317.9 -4.39523e-14 -145.832)
(168829 50834.2 -7.44649e-15 2520.32 -3.50361e-14 42515.3)
(-310208 117817 -1.74886e-15 2052.38 -1.68727e-14 -76459.6)
(100342 73860.5 2.42716e-13 1442.83 -4.77467e-14 25255)
(15217.2 114172 1.00372e-14 -18381.3 1.42889e-14 -785.087)
(-658192 116093 -2.50736e-14 -3019.19 -1.50451e-14 -164060)
(841367 52706.2 8.31623e-14 3903.28 7.41484e-14 209729)
(-361853 85613.7 -9.33928e-14 -403.526 3.05442e-14 -89883.3)
(-1.51754e+06 271776 -4.33189e-15 267487 2.59077e-15 -310163)
(-223689 47999.4 6.65306e-14 -1985.09 7.22295e-14 -55994.4)
(-366578 117678 0 3658.1 0 -90047.9)
(108913 74289.1 1.29527e-13 389.281 -1.7888e-13 27120.2)
(169443 67712.2 6.84877e-15 -414.391 2.22319e-14 41939.6)
(1.6683e+06 -368873 -1.34228e-15 53585.3 2.34682e-16 427235)
(-2.31271e+06 9140.79 -1.8491e-14 13739.9 8.49799e-15 -570421)
(726553 60765 4.08256e-14 4399.75 3.42916e-14 181364)
(791089 60303.1 -4.13268e-14 4660.98 9.0011e-14 197442)
(-239534 82025 -3.07342e-13 1048.99 -1.09714e-13 -59173)
(168525 104352 5.39998e-14 11161.1 1.06396e-13 44583.8)
(-36799.5 70618.5 8.64707e-14 -2947.87 1.31553e-13 -9862.14)
(-945339 -614095 -1.14823e-15 71114.9 4.83423e-16 -216913)
(-2.25449e+06 75724.2 6.05498e-15 1833.04 7.82452e-15 -558930)
(1.9987e+06 37020.2 3.28913e-14 3544.46 -1.61991e-14 496798)
(-2.88975e+06 -50120.4 -8.52451e-15 -7693.11 -3.67018e-15 -718915)
(933454 55114.3 -3.74075e-14 -6796.12 -5.81214e-14 229923)