/*--------------------------------*- C++ -*----------------------------------*\
| =========                 |                                                 |
| \\      /  F ield         | OpenFOAM: The Open Source CFD Toolbox           |
|  \\    /   O peration     | Version:  2.3.1                                 |
|   \\  /    A nd           | Web:      www.OpenFOAM.org                      |
|    \\/     M anipulation  |                                                 |
\*---------------------------------------------------------------------------*/
FoamFile
{
    version     2.0;
    format      ascii;
    class       volScalarField;
    location    "0.14";
    object      nut;
}
// * * * * * * * * * * * * * * * * * * * * * * * * * * * * * * * * * * * * * //

dimensions      [0 2 -1 0 0 0 0];

internalField   nonuniform List<scalar> 
9648
(
0.000273847
0.000271857
0.000271361
0.000270512
0.000269443
0.000268116
0.000266558
0.000264789
0.000262814
0.000260642
0.000258297
0.000255845
0.000253306
0.000250709
0.000248108
0.000245553
0.000243059
0.00024064
0.000238322
0.000236133
0.000234072
0.000232146
0.000230368
0.000228724
0.00022721
0.000225834
0.000224597
0.000223492
0.000222509
0.000221651
0.00022091
0.000220281
0.000219758
0.000219337
0.000219007
0.00021877
0.000218622
0.000218572
0.000218599
0.000218717
0.000218934
0.000219228
0.000219602
0.000220056
0.00022058
0.000221168
0.00022185
0.000222626
0.000223495
0.000224442
0.000225482
0.000226631
0.000227855
0.000229141
0.000230479
0.000231845
0.00023319
0.000234462
0.000235688
0.000236883
0.000238049
0.000454967
0.000457409
0.000460257
0.000464568
0.000473234
0.000485144
0.000499795
0.000517563
0.000538391
0.000562308
0.000589041
0.000618648
0.000650892
0.000685492
0.000722166
0.000760747
0.000800952
0.000842408
0.000884806
0.000928015
0.000971726
0.00101575
0.00105998
0.00110421
0.00114823
0.00119202
0.00123554
0.00127869
0.00132135
0.00136346
0.00140505
0.00144598
0.00148617
0.00152567
0.00156441
0.00160234
0.00163962
0.00167632
0.00171233
0.00174746
0.00178168
0.00181502
0.00184735
0.00187859
0.00190891
0.00193811
0.00196631
0.00199383
0.00202057
0.00204631
0.00207116
0.0020953
0.00211891
0.00214153
0.00216388
0.00218572
0.00220768
0.00222862
0.00224916
0.00226946
0.00228968
0.000883677
0.000912298
0.000941423
0.000979981
0.00102516
0.00107548
0.00112926
0.00118714
0.00124858
0.00131428
0.00138328
0.00145583
0.00153153
0.00160999
0.0016908
0.00177348
0.00185765
0.00194276
0.0020284
0.00211422
0.00219987
0.00228515
0.00236975
0.00245349
0.00253622
0.00261785
0.00269837
0.00277762
0.0028556
0.0029323
0.00300762
0.0030816
0.00315422
0.00322529
0.00329487
0.0033631
0.00342995
0.00349573
0.00356033
0.00362376
0.00368607
0.00374695
0.00380661
0.00386488
0.00392163
0.00397701
0.00403099
0.00408399
0.00413582
0.00418664
0.00423643
0.00428528
0.00433374
0.00438026
0.00442717
0.00447204
0.00451678
0.00455848
0.00460035
0.0046413
0.0046815
0.00145843
0.00152121
0.00158672
0.00166045
0.00174095
0.00182662
0.00191645
0.00201041
0.00210825
0.00221035
0.00231595
0.00242504
0.00253692
0.0026514
0.00276782
0.00288567
0.00300449
0.00312373
0.00324296
0.00336179
0.00347993
0.00359701
0.00371286
0.00382731
0.00394028
0.00405166
0.00416145
0.00426957
0.00437608
0.00448083
0.004584
0.00468556
0.00478537
0.00488371
0.00498042
0.00507554
0.00516925
0.00526121
0.00535178
0.0054411
0.005529
0.00561608
0.00570189
0.0057865
0.00586983
0.00595152
0.00603177
0.0061106
0.00618791
0.0062639
0.00633905
0.00641229
0.00648434
0.00655454
0.00662454
0.00669238
0.00675818
0.00682197
0.0068842
0.0069448
0.00700282
0.00208432
0.00217907
0.00227816
0.00238468
0.00249772
0.00261647
0.00274024
0.00286843
0.00300098
0.00313768
0.00327791
0.0034212
0.00356714
0.00371533
0.00386505
0.00401566
0.00416658
0.00431743
0.00446774
0.00461719
0.00476542
0.00491216
0.00505714
0.00520028
0.00534154
0.00548095
0.00561839
0.00575392
0.00588744
0.00601902
0.00614863
0.00627626
0.00640223
0.0065264
0.00664893
0.0067701
0.00688921
0.00700673
0.00712217
0.00723551
0.0073477
0.00745809
0.00756752
0.00767581
0.00778256
0.00788803
0.00799143
0.00809281
0.00819241
0.00828964
0.0083854
0.00847934
0.00857087
0.00866017
0.00874763
0.0088334
0.00891625
0.00899678
0.00907506
0.00915054
0.00922317
0.00270465
0.00283108
0.00296372
0.00310395
0.00325091
0.00340384
0.0035622
0.00372552
0.00389317
0.0040647
0.0042394
0.00441654
0.00459587
0.00477674
0.00495876
0.00514116
0.005323
0.00550427
0.00568429
0.0058629
0.00603982
0.00621462
0.00638723
0.00655742
0.00672534
0.006891
0.00705447
0.00721562
0.00737449
0.00753093
0.00768516
0.00783722
0.00798699
0.0081349
0.0082808
0.00842452
0.00856723
0.00870723
0.00884542
0.00898191
0.00911475
0.00924622
0.00937519
0.00950193
0.00962804
0.00975224
0.00987522
0.00999513
0.0101123
0.0102269
0.0103387
0.0104483
0.0105552
0.0106591
0.0107606
0.010859
0.0109544
0.0110474
0.0111373
0.0112233
0.0113067
0.00330834
0.00346761
0.00363547
0.00381125
0.00399384
0.00418254
0.00437681
0.00457604
0.00477961
0.00498623
0.00519557
0.00540639
0.0056185
0.00583138
0.00604531
0.00625879
0.00647087
0.00668171
0.00689038
0.00709694
0.00730142
0.00750297
0.00770185
0.00789736
0.00809003
0.00828018
0.00846755
0.00865269
0.0088346
0.00901371
0.00919043
0.00936403
0.00953554
0.00970449
0.00987017
0.010034
0.0101946
0.0103543
0.0105127
0.0106675
0.0108208
0.0109691
0.0111134
0.0112554
0.0113936
0.0115313
0.0116676
0.011801
0.0119317
0.0120584
0.0121819
0.0123022
0.012419
0.0125327
0.0126425
0.0127495
0.0128534
0.0129535
0.0130496
0.0131418
0.0132304
0.00389526
0.00408755
0.00429164
0.00450409
0.00472386
0.00494859
0.00517921
0.00541512
0.00565465
0.00589688
0.00614104
0.00638556
0.00662987
0.00687332
0.00711805
0.00736229
0.00760441
0.00784483
0.00808154
0.00831455
0.00854549
0.00877255
0.00899693
0.00921625
0.00943122
0.0096434
0.00985251
0.0100594
0.0102626
0.010462
0.0106583
0.0108507
0.01104
0.0112271
0.0114107
0.0115892
0.0117662
0.0119403
0.0121119
0.0122846
0.0124525
0.0126161
0.0127737
0.0129245
0.0130723
0.0132172
0.0133605
0.0135013
0.0136391
0.0137729
0.0139021
0.0140272
0.0141497
0.0142679
0.0143813
0.0144908
0.0145966
0.0146995
0.0147976
0.0148901
0.0149781
0.00446573
0.00468642
0.00492681
0.00517237
0.0054317
0.00569004
0.00595513
0.00622919
0.00650166
0.00678
0.00705778
0.00733915
0.0076151
0.00788722
0.00815818
0.00843258
0.00870422
0.00897555
0.00924442
0.0095007
0.00975643
0.0100092
0.0102594
0.0105057
0.0107385
0.01097
0.0111969
0.0114236
0.0116483
0.0118666
0.0120838
0.0122926
0.0124909
0.0126923
0.0128932
0.0130849
0.0132729
0.0134583
0.0136395
0.013823
0.0140064
0.0141867
0.0143508
0.0145125
0.0146718
0.014818
0.0149639
0.0151033
0.0152452
0.0153775
0.0155098
0.0156283
0.0157488
0.0158716
0.0159868
0.0160882
0.0161916
0.0162872
0.0163855
0.0164768
0.0165561
0.000239116
0.000240085
0.000241038
0.000241976
0.000242888
0.000243751
0.000244587
0.000245388
0.000246136
0.000246843
0.000247487
0.000248135
0.000248781
0.000249424
0.0002501
0.000250857
0.000251705
0.000252644
0.000253683
0.000254835
0.000256055
0.000257321
0.000258632
0.00025996
0.000261293
0.000262642
0.000264008
0.000265387
0.000266765
0.000268154
0.000269553
0.000270958
0.000272369
0.000273798
0.000275233
0.000276681
0.000278151
0.000279643
0.000281142
0.000282651
0.000284187
0.000285744
0.000287321
0.000288926
0.000290549
0.000292174
0.000293816
0.000295496
0.000297203
0.000298911
0.000300636
0.000302405
0.000304187
0.000305979
0.00030781
0.000309684
0.000311594
0.000313493
0.000315443
0.000317478
0.000319604
0.00230978
0.00232753
0.0023449
0.00236195
0.00237836
0.00239332
0.00240565
0.00241761
0.00242802
0.00243835
0.00244701
0.00245483
0.00246155
0.00246702
0.00247114
0.00247374
0.00247497
0.00247475
0.00247323
0.0024705
0.00246677
0.00246222
0.00245676
0.00245049
0.00244345
0.00243561
0.002427
0.00241751
0.00240725
0.00239615
0.00238416
0.00237139
0.00235784
0.00234345
0.00232827
0.00231238
0.00229567
0.00227827
0.00226016
0.00224135
0.00222188
0.00220173
0.00218106
0.00215982
0.00213797
0.0021155
0.00209233
0.00206858
0.0020441
0.00201897
0.0019932
0.00196673
0.0019397
0.00191147
0.00188307
0.00185353
0.00182362
0.00179258
0.00176184
0.00173103
0.00170024
0.00471903
0.00475556
0.00478966
0.00482239
0.00485361
0.00488434
0.00491142
0.00493632
0.00495882
0.00498055
0.00500014
0.00501816
0.00503384
0.00504801
0.00506027
0.00507062
0.0050792
0.00508601
0.00509116
0.00509471
0.0050969
0.00509765
0.00509706
0.00509517
0.00509201
0.00508755
0.00508185
0.00507481
0.00506647
0.00505666
0.00504555
0.00503297
0.00501893
0.00500356
0.00498671
0.00496847
0.00494878
0.0049277
0.00490521
0.00488141
0.00485636
0.00483017
0.00480289
0.00477467
0.00474538
0.00471501
0.0046834
0.00465056
0.00461635
0.00458076
0.00454394
0.00450517
0.00446488
0.00442262
0.00437926
0.00433356
0.00428591
0.00423667
0.00418673
0.00413605
0.00408457
0.00705904
0.00711264
0.00716428
0.00721305
0.00725999
0.00730485
0.00734662
0.0073852
0.00742183
0.00745656
0.00748886
0.00751839
0.00754557
0.00757087
0.0075936
0.00761424
0.00763269
0.00764896
0.00766309
0.00767522
0.00768541
0.00769385
0.00770049
0.00770547
0.00770872
0.00771026
0.00771003
0.00770809
0.00770451
0.0076992
0.00769203
0.00768298
0.00767202
0.0076591
0.00764425
0.00762745
0.00760861
0.00758766
0.00756467
0.00753972
0.00751301
0.00748457
0.00745478
0.00742372
0.00739147
0.00735795
0.00732295
0.00728637
0.00724817
0.00720813
0.00716632
0.00712229
0.00707581
0.00702686
0.00697568
0.00692164
0.00686448
0.00680511
0.00674429
0.00668165
0.00661794
0.00929275
0.00936013
0.00942462
0.00948593
0.00954384
0.00959875
0.00965085
0.00970047
0.00974695
0.00979107
0.0098321
0.00987032
0.0099061
0.00993913
0.00996963
0.00999796
0.010023
0.0100455
0.0100653
0.0100825
0.0100973
0.0101098
0.0101203
0.0101288
0.0101351
0.0101393
0.0101415
0.0101418
0.0101403
0.010137
0.0101318
0.0101245
0.0101151
0.0101034
0.0100895
0.0100733
0.0100544
0.0100331
0.010009
0.00998226
0.00995311
0.00992172
0.00988852
0.00985389
0.00981799
0.00978091
0.00974234
0.00970175
0.0096597
0.00961611
0.00957037
0.00952216
0.00947126
0.00941726
0.00936039
0.00929933
0.00923496
0.00916767
0.0090981
0.00902597
0.0089527
0.0113865
0.0114632
0.0115359
0.0116059
0.0116719
0.0117342
0.011793
0.0118487
0.0119015
0.0119508
0.0119975
0.0120409
0.0120813
0.0121187
0.012153
0.0121844
0.0122125
0.0122377
0.0122595
0.0122777
0.0122929
0.0123053
0.0123152
0.0123227
0.0123278
0.0123302
0.0123301
0.0123277
0.0123235
0.0123178
0.0123107
0.0123016
0.0122905
0.0122771
0.0122617
0.0122436
0.0122226
0.0121986
0.0121715
0.0121412
0.0121078
0.0120712
0.0120322
0.0119915
0.0119493
0.0119064
0.0118618
0.0118155
0.0117678
0.0117192
0.0116685
0.0116148
0.0115586
0.0114994
0.0114367
0.0113691
0.0112977
0.0112219
0.0111441
0.0110634
0.0109809
0.0133151
0.0133961
0.0134729
0.0135456
0.0136145
0.0136786
0.0137396
0.0137975
0.0138522
0.013903
0.0139503
0.0139945
0.0140357
0.0140729
0.0141066
0.0141376
0.0141655
0.0141901
0.0142107
0.0142264
0.0142383
0.0142467
0.014252
0.0142547
0.0142546
0.0142511
0.0142443
0.0142341
0.0142217
0.0142081
0.0141942
0.0141787
0.014162
0.0141434
0.0141239
0.014102
0.0140764
0.0140474
0.0140153
0.01398
0.0139412
0.0138983
0.0138517
0.0138028
0.0137523
0.0137018
0.0136486
0.0135943
0.0135383
0.0134833
0.0134264
0.0133659
0.0133035
0.0132381
0.0131701
0.0130956
0.013017
0.0129331
0.0128476
0.0127585
0.0126673
0.0150619
0.0151409
0.0152151
0.0152842
0.015349
0.0154087
0.0154654
0.0155198
0.0155713
0.0156187
0.0156617
0.0157018
0.0157392
0.0157729
0.0158015
0.0158264
0.0158501
0.0158713
0.0158889
0.0159006
0.0159061
0.0159083
0.0159068
0.0159016
0.0158936
0.0158818
0.0158663
0.015845
0.015819
0.015791
0.0157648
0.0157368
0.0157094
0.0156806
0.015654
0.0156269
0.0155946
0.0155572
0.0155172
0.0154757
0.0154314
0.0153827
0.0153284
0.0152707
0.0152115
0.0151531
0.0150899
0.0150262
0.0149596
0.0148962
0.0148326
0.0147631
0.0146928
0.0146209
0.0145479
0.0144669
0.014382
0.0142899
0.0141971
0.0141005
0.0140022
0.0166371
0.0167087
0.0167772
0.0168316
0.0168846
0.0169252
0.0169708
0.017007
0.0170459
0.0170873
0.0171218
0.0171435
0.0171708
0.0171981
0.0172194
0.0172322
0.0172413
0.0172511
0.0172639
0.0172722
0.0172689
0.0172646
0.0172592
0.0172451
0.0172269
0.0172047
0.0171815
0.017154
0.017114
0.0170675
0.0170242
0.0169775
0.0169328
0.0168849
0.0168446
0.0168101
0.01677
0.0167194
0.0166663
0.0166137
0.016561
0.0165116
0.0164502
0.0163837
0.0163201
0.0162547
0.0161861
0.0161129
0.0160371
0.0159631
0.0158918
0.0158109
0.0157276
0.0156496
0.0155687
0.015485
0.0153935
0.0152972
0.0151958
0.0150938
0.0149876
0.000321735
0.000323853
0.000326053
0.000328328
0.000330646
0.000332957
0.000335287
0.000337662
0.000340065
0.000342502
0.000344919
0.000347421
0.000350091
0.000353407
0.0003562
0.000359062
0.000361938
0.000364803
0.000367674
0.000370571
0.000373475
0.000376386
0.000379315
0.000382239
0.000385143
0.000388035
0.000390916
0.000393773
0.000396589
0.000399365
0.000402092
0.000404759
0.000407353
0.000409875
0.000412301
0.000414626
0.000416847
0.00041887
0.000420487
0.00042164
0.000422392
0.000422743
0.000422681
0.000422199
0.000421237
0.000419728
0.000417629
0.000414874
0.00041134
0.000406872
0.000401335
0.000394565
0.000386275
0.00037615
0.000363545
0.000341952
0.000331816
0.000326552
0.000324532
0.000323692
0.000321842
0.00166911
0.00163813
0.00160681
0.00157541
0.00154381
0.00151214
0.00147981
0.00144749
0.00141522
0.00138443
0.00135212
0.00132118
0.00129041
0.00125644
0.0012239
0.00119189
0.00116027
0.00112907
0.00109828
0.00106795
0.00103812
0.00100868
0.000979628
0.000951002
0.000922817
0.000895132
0.00086794
0.000841306
0.000815218
0.000789692
0.000764773
0.000740482
0.000716814
0.000693814
0.000671536
0.000649998
0.000629312
0.000609582
0.000588708
0.000566595
0.00054461
0.000523667
0.000503836
0.00048529
0.000468121
0.000452522
0.000438755
0.000427071
0.000417721
0.000411025
0.00040733
0.000407058
0.000410633
0.000418643
0.000429653
0.000453412
0.000489594
0.000547139
0.000634494
0.000756602
0.000882172
0.00403287
0.0039809
0.0039284
0.00387471
0.00381973
0.00376354
0.00370576
0.00364673
0.00358719
0.00352599
0.00346656
0.00340926
0.00335197
0.0032934
0.00323327
0.00317227
0.00311038
0.00304802
0.0029853
0.00292251
0.00285957
0.00279628
0.00273268
0.00266885
0.00260476
0.00254054
0.00247616
0.0024117
0.00234704
0.00228227
0.00221729
0.00215208
0.00208669
0.00202099
0.00195505
0.00188884
0.00182238
0.00175566
0.00168772
0.00161788
0.00154192
0.00145478
0.001364
0.00127087
0.00117656
0.00108232
0.000989759
0.000900367
0.000816036
0.000738624
0.000669938
0.000611651
0.000564852
0.000530768
0.000509089
0.000503756
0.000517515
0.000555711
0.000627964
0.000746824
0.000912115
0.00655363
0.0064896
0.00642465
0.00635796
0.00628872
0.00621775
0.00614465
0.0060701
0.00599493
0.00591721
0.00584222
0.00576919
0.0056963
0.0056225
0.0055461
0.00546747
0.00538669
0.00530468
0.00522178
0.00513828
0.00505408
0.00496861
0.00488216
0.00479487
0.00470667
0.00461764
0.00452776
0.00443707
0.00434536
0.00425256
0.00415858
0.00406341
0.00396694
0.00386916
0.00377007
0.00366962
0.00356774
0.00346439
0.00335913
0.00325139
0.00313941
0.00302011
0.00288066
0.00272914
0.00256653
0.00239318
0.00221004
0.00201858
0.00182147
0.00162297
0.00142769
0.0012427
0.00107398
0.000927692
0.00080705
0.000716397
0.000658476
0.000633544
0.000644065
0.000697383
0.000802549
0.00887798
0.0088035
0.00872805
0.00865109
0.00857023
0.00848719
0.00840197
0.00831604
0.00822922
0.00814039
0.00805262
0.00796684
0.00788136
0.00779536
0.00770658
0.00761448
0.00751906
0.00742218
0.00732406
0.00722514
0.00712505
0.00702289
0.00691936
0.00681476
0.00670877
0.00660168
0.0064932
0.00638336
0.00627175
0.00615831
0.00604288
0.00592557
0.00580634
0.00568527
0.00556232
0.00543755
0.00531095
0.0051824
0.00505169
0.00491845
0.00478194
0.00464065
0.00449017
0.00431839
0.00413194
0.00392952
0.00370974
0.00347136
0.00321349
0.0029374
0.00264507
0.00234183
0.0020369
0.00174262
0.00147247
0.00123968
0.00105505
0.000920368
0.00083316
0.000792857
0.000803091
0.0108957
0.010811
0.0107256
0.0106389
0.0105474
0.0104532
0.0103563
0.0102598
0.0101628
0.0100645
0.00996534
0.00986794
0.0097709
0.00967413
0.00957393
0.00946997
0.00936182
0.00925263
0.00914203
0.00903066
0.0089177
0.00880162
0.00868439
0.00856645
0.00844683
0.00832594
0.00820319
0.00807865
0.00795149
0.00782187
0.00768957
0.00755511
0.00741851
0.00728009
0.00713969
0.00699755
0.00685359
0.00670785
0.00656016
0.00641036
0.00625795
0.0061023
0.00594144
0.00576939
0.00557833
0.00537204
0.00514761
0.0049035
0.00463662
0.00434428
0.00402476
0.00367722
0.00330427
0.00291456
0.00252105
0.00214458
0.00180679
0.00152193
0.00129532
0.00112753
0.00101781
0.0125716
0.0124767
0.0123819
0.0122866
0.0121845
0.0120794
0.011971
0.0118644
0.0117581
0.0116515
0.0115414
0.0114331
0.0113253
0.0112189
0.0111081
0.0109937
0.010874
0.0107544
0.0106333
0.0105119
0.0103883
0.0102602
0.0101321
0.0100045
0.00987451
0.00974308
0.00960895
0.00947287
0.00933284
0.0091898
0.00904349
0.00889555
0.00874562
0.0085946
0.00844181
0.00828786
0.00813238
0.00797588
0.00781812
0.00765928
0.00749876
0.00733631
0.007171
0.00699996
0.00681492
0.00661492
0.00639873
0.00616438
0.0059092
0.00563026
0.00532381
0.00498614
0.00461511
0.00421003
0.00377657
0.0033272
0.00288192
0.00246353
0.00208955
0.00177114
0.00151466
0.0138969
0.0137915
0.0136877
0.0135843
0.0134729
0.0133575
0.0132381
0.0131214
0.0130069
0.0128928
0.0127728
0.0126543
0.012537
0.0124222
0.012302
0.012178
0.0120485
0.0119198
0.0117902
0.0116609
0.0115283
0.0113897
0.0112538
0.0111202
0.0109823
0.0108422
0.0106984
0.0105526
0.0104007
0.0102456
0.0100869
0.00992886
0.00976906
0.00960979
0.00944881
0.00928781
0.00912548
0.00896417
0.00880287
0.00864258
0.0084816
0.00832033
0.00815762
0.00799194
0.00781933
0.00763046
0.00742673
0.00720704
0.00696988
0.00671305
0.00643392
0.00612843
0.0057918
0.00542021
0.00501181
0.00456903
0.00410143
0.00362403
0.00315605
0.00271565
0.0023193
0.0148781
0.01476
0.0146496
0.014535
0.0144185
0.0142923
0.0141654
0.0140365
0.0139161
0.0137931
0.0136669
0.0135375
0.0134154
0.0132909
0.013165
0.0130298
0.0128955
0.0127564
0.0126212
0.012488
0.012346
0.0122009
0.0120598
0.0119209
0.0117774
0.0116269
0.011476
0.0113192
0.0111561
0.0109885
0.0108208
0.0106563
0.0104897
0.0103257
0.0101604
0.00999637
0.00983177
0.00967395
0.00951732
0.00936559
0.00921127
0.00905938
0.00890604
0.00875026
0.00859025
0.00841861
0.0082295
0.00802439
0.00780634
0.00757847
0.00733182
0.00706788
0.00677504
0.00645514
0.00609819
0.0057078
0.00527729
0.00481856
0.0043355
0.00384344
0.00336263
0.000318069
0.000313816
0.000309302
0.000304564
0.000299842
0.000295236
0.000290871
0.000286869
0.000283318
0.000280256
0.000277684
0.000275614
0.000273977
0.000272695
0.000271724
0.000271015
0.000270493
0.000270105
0.000269832
0.000269671
0.000269597
0.000269601
0.000269686
0.000269831
0.000270028
0.000270284
0.000270595
0.000270953
0.00027134
0.000271756
0.000272185
0.000272613
0.000273029
0.000273421
0.000273767
0.000274058
0.000274287
0.000274436
0.000274487
0.000274437
0.0002743
0.000274072
0.000273765
0.000273412
0.000273023
0.000272622
0.000272257
0.00027197
0.000271773
0.000271663
0.000271658
0.000271771
0.000271953
0.000272194
0.000272477
0.000272784
0.000273067
0.000273284
0.000273459
0.000273595
0.000273687
0.000946868
0.00100086
0.00104353
0.00106933
0.00107925
0.00108016
0.00107093
0.00105242
0.00102754
0.000998797
0.000967671
0.000936428
0.00090675
0.000878087
0.000850539
0.000824842
0.000802691
0.000783494
0.000767314
0.000754327
0.000744491
0.000737555
0.000733108
0.000730735
0.000730035
0.000730664
0.000732311
0.000734655
0.000737428
0.000740375
0.000743152
0.000745442
0.00074691
0.000747213
0.000746069
0.000743212
0.000738384
0.000731394
0.000722034
0.000710142
0.000695601
0.000678372
0.000658525
0.000636231
0.000611834
0.000585914
0.000559293
0.000533041
0.00050834
0.000486392
0.000468176
0.000454279
0.000444791
0.000439332
0.000437248
0.000437598
0.000439448
0.000441969
0.000444725
0.000447556
0.000450986
0.00108347
0.00125373
0.0014175
0.0015749
0.00167702
0.00175949
0.00182227
0.00186117
0.0018783
0.0018791
0.00186465
0.0018389
0.00180571
0.00176683
0.00172277
0.0016764
0.00163302
0.00159303
0.00155734
0.00152796
0.00150585
0.001491
0.00148287
0.00148047
0.00148284
0.00148909
0.00149836
0.00150959
0.00152191
0.00153443
0.00154633
0.00155667
0.00156446
0.00156875
0.00156861
0.0015633
0.00155212
0.00153452
0.00151004
0.00147838
0.00143942
0.00139326
0.00134019
0.00128074
0.00121553
0.00114551
0.00107189
0.000996288
0.000920895
0.000848791
0.000783877
0.000730282
0.000691614
0.000669686
0.000664392
0.000673515
0.000694275
0.000723883
0.000760662
0.000801679
0.00084417
0.000955826
0.00115059
0.00137463
0.0016128
0.00183052
0.00202957
0.00221551
0.00236789
0.00247988
0.00256849
0.00263322
0.00267361
0.00269593
0.00270209
0.00269305
0.00267209
0.00264224
0.0026085
0.00257529
0.00254657
0.00252529
0.00251315
0.00251044
0.00251652
0.0025301
0.00255045
0.00257751
0.0026097
0.002645
0.00268144
0.0027175
0.00275162
0.00278195
0.00280656
0.00282373
0.00283186
0.00282949
0.00281533
0.00278827
0.00274736
0.00269188
0.00262151
0.00253629
0.00243664
0.00232319
0.00219719
0.00206025
0.00191453
0.00176265
0.00160859
0.001458
0.00131884
0.00120154
0.00111739
0.00107443
0.0010723
0.00110573
0.00116402
0.00123379
0.00130998
0.00138684
0.000868016
0.000990954
0.00117232
0.00140529
0.00166757
0.0019402
0.00220982
0.00245983
0.00268186
0.00288326
0.00305879
0.00319087
0.00330129
0.00339254
0.00346276
0.00351717
0.00355759
0.00358515
0.00360298
0.0036162
0.00363017
0.00365003
0.00367861
0.00371672
0.00376342
0.00381696
0.00387504
0.00394073
0.0040122
0.00408624
0.00416048
0.00423259
0.0042999
0.00435957
0.00440899
0.00444568
0.00446734
0.00447191
0.00445738
0.00442195
0.00436403
0.0042827
0.00417732
0.00404777
0.00389412
0.00371745
0.00351903
0.00330093
0.00306586
0.00281769
0.00256238
0.00230942
0.00207342
0.00187537
0.00174022
0.0016724
0.00166798
0.00171498
0.00179307
0.00188741
0.00198675
0.000967624
0.000979022
0.00105516
0.00119842
0.00140467
0.00166327
0.00195752
0.00226457
0.00256399
0.00284581
0.0031026
0.00332892
0.00353649
0.00372469
0.00388162
0.0040283
0.00416645
0.00429208
0.00440745
0.00451403
0.00461461
0.00471322
0.00481361
0.00491818
0.00502744
0.00514069
0.00525662
0.00537397
0.00549587
0.00562078
0.00574535
0.00586654
0.00598115
0.00608554
0.00617644
0.00625055
0.00630497
0.00633673
0.00634312
0.00632137
0.00626904
0.00618445
0.00606629
0.00591369
0.00572592
0.0055038
0.00524801
0.00496026
0.0046428
0.0042993
0.00393532
0.00356017
0.00318956
0.00284941
0.00257184
0.00238285
0.00229579
0.00229928
0.00236478
0.00246518
0.00258171
0.00132401
0.00120115
0.00114759
0.00116514
0.00125493
0.0014163
0.00164425
0.00192619
0.00224247
0.00257078
0.00289087
0.00318913
0.00346408
0.00371731
0.00395342
0.00418947
0.00442517
0.00464943
0.00487592
0.00510188
0.00532519
0.00554357
0.00575624
0.00596463
0.00617023
0.00637318
0.00657324
0.00677015
0.00696187
0.00715212
0.00733911
0.00751908
0.00768886
0.00784431
0.00798191
0.0080979
0.00818895
0.0082512
0.0082815
0.00827597
0.00823162
0.00814569
0.00801668
0.00784274
0.00762239
0.00735568
0.00704306
0.00668562
0.00628568
0.00584643
0.00537331
0.00487526
0.00436788
0.00387879
0.00344687
0.00311998
0.00293114
0.0028765
0.00292064
0.00302411
0.00315827
0.00197949
0.0017058
0.00150399
0.00137761
0.0013281
0.00135599
0.00146083
0.00163967
0.00188496
0.00218215
0.00251061
0.00284839
0.00317983
0.00349498
0.00379393
0.00408629
0.00438126
0.00468587
0.0050146
0.00535266
0.00570207
0.00605516
0.00640086
0.00673726
0.00706582
0.00738547
0.00769529
0.00799546
0.00828398
0.00855694
0.00882032
0.00906934
0.00930215
0.00951439
0.0097031
0.00986402
0.0099946
0.0100892
0.0101452
0.0101566
0.0101216
0.0100347
0.0098957
0.00970094
0.00944893
0.00913756
0.00876891
0.00834158
0.00785953
0.00732523
0.00674512
0.00612769
0.00548932
0.00486078
0.0042872
0.00383196
0.0035456
0.00343385
0.00345649
0.0035639
0.00371672
0.00290695
0.00249776
0.00214887
0.00186856
0.00166591
0.00154398
0.00150428
0.00154533
0.001665
0.00185824
0.00211458
0.00242004
0.00275871
0.00311317
0.00346996
0.00382937
0.00418436
0.00454476
0.0049194
0.0053194
0.00577442
0.00625073
0.00671802
0.00717931
0.00763789
0.00808819
0.00852448
0.00894657
0.00934947
0.00972998
0.0100869
0.0104162
0.0107211
0.010997
0.0112424
0.0114516
0.0116271
0.0117563
0.0118425
0.0118715
0.0118509
0.011763
0.0116182
0.011404
0.0111246
0.0107699
0.0103506
0.00985376
0.00929373
0.00866754
0.00798773
0.00725951
0.00650236
0.00575464
0.0050628
0.00450207
0.00413454
0.00397513
0.00397786
0.00408999
0.00425797
0.00477039
0.0180094
0.0181291
0.00314161
0.00470524
0.00656692
0.001255
0.00978781
0.00126647
0.00330094
0.0140087
0.0142861
0.00125462
0.0142321
0.00614088
0.0191332
0.00125787
0.0112632
0.0130856
0.00126344
0.00404184
0.0141334
0.017765
0.00128464
0.00126013
0.00451436
0.00126207
0.00302878
0.00125496
0.00127497
0.00507696
0.00129532
0.00273276
0.00848725
0.0133644
0.0125921
0.0119961
0.0137303
0.00125004
0.021785
0.00483857
0.0116916
0.00124388
0.0189346
0.00599023
0.00941036
0.00125958
0.00226946
0.00109927
0.014517
0.0113858
0.0154305
0.00124651
0.00133303
0.0016822
0.000358419
0.00127374
0.00451235
0.0130565
0.0176783
0.00453371
0.00131804
0.00720709
0.00348955
0.0187529
0.0174731
0.0133935
0.00693618
0.00152907
0.00124214
0.0379428
0.014011
0.00465973
0.000525342
0.00258811
0.018451
0.0183312
0.0167961
0.00124283
0.0138286
0.00180225
0.022093
0.000568584
0.0183533
0.00124225
0.0117029
0.00126464
0.012409
0.00167593
0.00149727
0.00539817
0.00124256
0.00132256
0.0171147
0.0186368
0.00129443
0.0104332
0.0036681
0.00178185
0.0187602
0.0111594
0.0202078
0.0081368
0.00124253
0.00124406
0.00124534
0.00560777
0.00640281
0.00126947
0.0191441
0.0184926
0.00154333
0.00894562
0.00701489
0.00682939
0.0119527
0.014312
0.00143742
0.00560514
0.00129825
0.00087308
0.0063453
0.00134203
0.0170199
0.0132699
0.00540403
0.00124371
0.0127681
0.0130774
0.00124369
0.00349946
0.00358787
0.00295462
0.00139446
0.0125677
0.00124402
0.00124418
0.013672
0.0159094
0.00124621
0.00296337
0.0189315
0.00407791
0.00872927
0.00890661
0.0221221
0.000600047
0.0103492
0.00239962
0.0165504
0.0223507
0.000396303
0.0141044
0.018282
0.0188901
0.00125501
0.00125023
0.00792757
0.00125339
0.0123236
0.00110542
0.00161803
0.00124534
0.00124438
0.00124286
0.0172203
0.00527076
0.00632505
0.00135625
0.01506
0.00744003
0.0022236
0.0169178
0.00254664
0.00881547
0.0056045
0.0156267
0.00124738
0.00162585
0.00439629
0.0163331
0.0118614
0.0166676
0.00124433
0.00128423
0.0100114
0.00376759
0.0112166
0.00124424
0.00125689
0.00546488
0.00130963
0.0165539
0.0102627
0.00125068
0.00838411
0.00352068
0.0173748
0.001541
0.00946696
0.00124446
0.0012469
0.0152251
0.0154415
0.0161767
0.00155106
0.00126802
0.00196227
0.0156869
0.00838145
0.0105363
0.0174491
0.0337393
0.0183681
0.00369881
0.0188457
0.0179899
0.011226
0.0149841
0.0128241
0.00133614
0.00404323
0.0012456
0.00128052
0.0147932
0.00278723
0.00295661
0.00122037
0.00247413
0.0142486
0.0110729
0.00287082
0.0179972
0.0133254
0.00353144
0.00124509
0.00435735
0.0172397
0.0127737
0.00149128
0.00584873
0.00506231
0.00317167
0.00283034
0.0174479
0.00712266
0.00409222
0.0190307
0.00139211
0.00124372
0.00136605
0.00234581
0.0128582
0.00126126
0.00130826
0.00124853
0.00725574
0.0133813
0.0197615
0.018088
0.0189069
0.0155319
0.0162314
0.00153631
0.0121241
0.0211919
0.00124335
0.0049408
0.00124232
0.00519244
0.00719586
0.0045289
0.0015776
0.00124426
0.015376
0.00302022
0.00124288
0.00124702
0.00124994
0.00125975
0.00950487
0.00638821
0.0173376
0.00170223
0.00124283
0.00124607
0.00124267
0.0187543
0.00375663
0.00143087
0.0124363
0.00571546
0.00143765
0.00124448
0.00765231
0.00124264
0.0020936
0.00396709
0.00805651
0.00251924
0.00129372
0.00160231
0.0164758
0.00489455
0.00265097
0.0161197
0.00129928
0.00124227
0.00124528
0.019011
0.00125694
0.0218969
0.00124404
0.0124201
0.0136656
0.00266123
0.0063503
0.00782307
0.00146314
0.0176588
0.0214416
0.00269202
0.0147213
0.0288083
0.0160143
0.017647
0.0131624
0.0114814
0.0187265
0.00459535
0.00633265
0.0161277
0.017306
0.0170838
0.0135762
0.0015884
0.0165088
0.00623999
0.0181175
0.00349459
0.0013007
0.00124376
0.00127399
0.00373483
0.00992801
0.00505411
0.0057825
0.00125211
0.0191151
0.00124373
0.00641246
0.0139402
0.018809
0.010611
0.0155274
0.00152378
0.0013963
0.00166584
0.008632
0.00207358
0.00590527
0.0103501
0.0151032
0.0179757
0.0176252
0.0204428
0.00127596
0.0171432
0.0185984
0.00278308
0.00124752
0.018711
0.0189848
0.00126053
0.0127965
0.00124801
0.0112033
0.0160464
0.0135318
0.0186506
0.00579045
0.0191576
0.00128164
0.0192024
0.00134039
0.0202539
0.0173398
0.015686
0.0172418
0.0122281
0.00798874
0.0102255
0.00139417
0.00400217
0.00701822
0.00200623
0.00121394
0.0078734
0.00133704
0.0180751
0.00124498
0.00124952
0.00178087
0.00916494
0.00496878
0.0136218
0.00116583
0.0187666
0.00736302
0.0183165
0.00757849
0.0160189
0.0111415
0.00132202
0.0172534
0.0173541
0.00124432
0.0172729
0.0144416
0.00124531
0.00124384
0.0121955
0.00187219
0.00948224
0.00161715
0.00714377
0.00350613
0.00936338
0.0155607
0.0159804
0.0154918
0.0143615
0.0173053
0.00159824
0.00104422
0.0127795
0.00999019
0.0157461
0.0119315
0.0173926
0.00436954
0.018761
0.0187392
0.00630132
0.00302093
0.0155296
0.0144809
0.00143632
0.017805
0.014664
0.00140931
0.0206013
0.0160597
0.0155931
0.00313845
0.00443419
0.0137934
0.00151667
0.0158932
0.00145631
0.00316304
0.00125169
0.0110274
0.00295268
0.00822971
0.00147714
0.00144384
0.00874216
0.00956514
0.010811
0.00302813
0.0115699
0.00278393
0.00115444
0.0153341
0.0102969
0.0123606
0.00800382
0.00368755
0.0160533
0.0158718
0.0176857
0.0189988
0.0386475
0.0166253
0.00601058
0.0151732
0.0190742
0.000430006
0.00678706
0.0115796
0.00131712
0.0034018
0.00703239
0.0180117
0.00275807
0.0151869
0.00416162
0.0103311
0.0061466
0.00168007
0.00124351
0.00256854
0.0213531
0.0159283
0.0122128