/*--------------------------------*- C++ -*----------------------------------*\
| =========                 |                                                 |
| \\      /  F ield         | OpenFOAM: The Open Source CFD Toolbox           |
|  \\    /   O peration     | Version:  2.3.1                                 |
|   \\  /    A nd           | Web:      www.OpenFOAM.org                      |
|    \\/     M anipulation  |                                                 |
\*---------------------------------------------------------------------------*/
FoamFile
{
    version     2.0;
    format      ascii;
    class       volScalarField;
    location    "0.15";
    object      epsilon;
}
// * * * * * * * * * * * * * * * * * * * * * * * * * * * * * * * * * * * * * //

dimensions      [0 2 -3 0 0 0 0];

internalField   nonuniform List<scalar> 
9648
(
2432.72
2409.96
2398.37
2378.84
2354.04
2324.25
2289.12
2248.53
2202.9
2152.93
2099.5
2043.31
1985.58
1927.46
1869.75
1813.24
1758.71
1706.8
1657.81
1611.91
1569.29
1529.99
1493.92
1461.07
1431.35
1404.56
1380.56
1359.19
1340.34
1323.81
1309.5
1297.3
1287.11
1278.83
1272.44
1267.78
1264.76
1263.25
1263.21
1264.59
1267.27
1271.35
1276.88
1283.82
1292.27
1302.28
1313.79
1326.84
1341.52
1357.98
1376.26
1396.32
1418.28
1441.93
1466.91
1492.64
1518.61
1544.4
1569.48
1593.56
1616.49
573.509
560.92
552.459
548.877
547.997
548.912
552.17
557.125
563.356
570.327
577.757
585.06
591.987
598.375
604.129
609.119
613.363
616.972
620.043
622.592
624.756
626.618
628.235
629.714
631.164
632.625
634.126
635.717
637.452
639.366
641.472
643.826
646.467
649.378
652.573
656.046
659.769
663.738
667.964
672.509
677.39
682.595
688.137
693.976
700.069
706.436
713.071
719.937
726.994
734.27
741.706
749.231
756.771
764.339
771.775
779.057
786.045
792.895
799.499
805.818
811.847
239.549
246.897
256.447
267.829
280.92
295.352
311.13
327.762
344.972
362.266
379.423
396.069
411.983
426.985
440.956
453.829
465.587
476.264
485.906
494.576
502.353
509.31
515.543
521.145
526.206
530.799
534.986
538.834
542.395
545.724
548.874
551.896
554.836
557.732
560.597
563.443
566.264
569.036
571.786
574.514
577.267
580.087
582.941
585.839
588.741
591.625
594.489
597.303
600.086
602.823
605.499
608.101
610.587
613.016
615.267
617.456
619.486
621.518
623.384
625.137
626.776
154.353
167.804
182.767
199.22
217.031
235.924
255.621
275.76
296
315.962
335.365
353.928
371.465
387.826
402.928
416.716
429.196
440.402
450.389
459.235
467.017
473.82
479.741
484.877
489.324
493.171
496.499
499.384
501.888
504.073
505.974
507.645
509.135
510.485
511.773
513.012
514.229
515.4
516.45
517.424
518.325
519.2
520.12
521.043
521.99
522.94
523.873
524.788
525.667
526.507
527.292
528.057
528.777
529.469
530.081
530.676
531.253
531.805
532.312
532.785
533.262
128.672
145.076
162.947
182.193
202.584
223.81
245.517
267.34
288.927
309.915
330.023
349.002
366.697
382.997
397.854
411.226
423.145
433.666
442.859
450.824
457.647
463.413
468.232
472.197
475.422
478.009
480.047
481.628
482.809
483.646
484.192
484.475
484.55
484.483
484.304
484.105
483.889
483.607
483.296
482.884
482.413
481.928
481.398
480.89
480.39
479.931
479.532
479.144
478.747
478.332
477.885
477.424
476.964
476.496
476.015
475.522
475.041
474.547
474.027
473.492
472.949
121.808
140.357
160.374
181.656
203.856
226.636
249.602
272.378
294.607
315.919
336.061
354.79
372.009
387.627
401.667
414.068
424.886
434.223
442.147
448.805
454.288
458.665
462.077
464.598
466.376
467.523
468.132
468.305
468.079
467.528
466.702
465.648
464.434
463.082
461.647
460.13
458.591
457.054
455.457
453.923
452.4
450.842
449.308
447.699
446.097
444.576
443.135
441.803
440.493
439.178
437.859
436.535
435.218
433.91
432.601
431.322
430.061
428.792
427.504
426.208
424.891
122.876
143.196
164.936
187.789
211.285
235.101
258.799
282.007
304.405
325.547
345.274
363.293
379.616
394.149
407.057
418.166
427.582
435.475
441.875
447.015
450.997
453.824
455.723
456.695
456.959
456.637
455.8
454.596
453
451.088
448.97
446.646
444.24
441.79
439.211
436.592
433.962
431.194
428.535
425.942
423.45
421.123
418.739
416.325
413.869
411.455
409.192
407.036
404.97
402.935
400.905
398.884
396.886
394.875
392.881
390.925
389.001
387.105
385.187
383.232
381.285
127.626
149.428
172.565
196.631
220.993
245.383
269.387
292.645
314.866
335.467
354.455
371.367
386.468
399.574
411.18
420.803
428.623
434.952
439.631
443.113
445.519
446.676
447.064
446.41
445.129
443.328
441.047
438.53
435.593
432.403
429.073
425.524
421.998
418.451
414.853
411.267
407.646
403.921
400.186
396.59
393.174
389.911
386.843
383.716
380.529
377.41
374.351
371.497
368.728
366.034
363.367
360.726
358.107
355.45
352.831
350.294
347.766
345.325
342.822
340.269
337.796
133.715
156.515
180.815
205.584
230.647
255.187
279.072
302.309
323.973
343.945
361.905
377.626
391.171
402.604
412.801
420.893
427.097
431.771
434.927
436.792
437.434
436.9
435.568
433.451
430.721
427.331
423.721
419.94
415.602
411.211
406.638
402.022
397.593
392.914
388.069
383.66
379.128
374.485
369.937
365.187
360.551
356.043
352.277
348.47
344.598
341.015
337.035
333.524
329.901
326.537
323.015
319.789
316.61
313.264
310.013
307.037
303.806
301.113
297.995
294.761
291.883
1638.58
1659.84
1680.06
1699.32
1717.92
1736.42
1755
1772.56
1788.85
1804.44
1819.04
1833.2
1847.38
1861.94
1877.13
1893.74
1912.39
1933.54
1957.29
1983.65
2011.96
2041.67
2072.53
2104.27
2136.69
2169.8
2203.45
2237.71
2272.5
2307.81
2343.83
2380.44
2417.65
2455.63
2494.38
2533.81
2574.03
2615.18
2657.32
2700.32
2744.2
2789.21
2835.33
2882.41
2930.78
2980.31
3030.88
3082.54
3135.5
3189.81
3245.4
3302.14
3360.57
3420.33
3481.75
3544.64
3609.74
3677.12
3746.8
3818.68
3892.91
817.624
823.543
829.237
834.672
839.905
845.091
850.474
855.626
860.72
865.621
870.565
875.503
880.47
885.489
890.586
895.816
901.183
906.709
912.357
918.076
923.82
929.538
935.226
940.863
946.417
951.839
957.082
962.177
967.105
971.889
976.544
981.046
985.414
989.669
993.806
997.826
1001.75
1005.58
1009.31
1012.94
1016.49
1019.98
1023.38
1026.7
1029.95
1033.13
1036.21
1039.2
1042.12
1044.97
1047.72
1050.38
1052.96
1055.6
1058.07
1060.65
1063.21
1066.01
1068.73
1071.55
1074.57
628.443
630.081
631.744
633.375
634.973
636.435
637.924
639.324
640.681
641.94
643.185
644.414
645.664
646.868
648.041
649.183
650.287
651.345
652.345
653.271
654.112
654.869
655.532
656.099
656.569
656.94
657.199
657.343
657.37
657.287
657.083
656.765
656.334
655.787
655.138
654.384
653.526
652.562
651.493
650.318
649.04
647.667
646.204
644.636
642.975
641.21
639.327
637.321
635.198
632.959
630.579
628.103
625.494
622.782
619.884
616.908
613.851
610.728
607.534
604.312
601.131
533.705
534.129
534.519
534.908
535.249
535.533
535.791
535.993
536.109
536.159
536.153
536.096
535.978
535.788
535.552
535.251
534.886
534.449
533.931
533.326
532.637
531.863
531.008
530.066
529.035
527.913
526.7
525.392
523.988
522.491
520.901
519.208
517.416
515.531
513.561
511.504
509.36
507.128
504.802
502.386
499.886
497.314
494.673
491.97
489.207
486.379
483.468
480.471
477.385
474.227
470.967
467.617
464.189
460.667
457.024
453.266
449.438
445.527
441.568
437.602
433.663
472.395
471.795
471.156
470.475
469.756
468.994
468.233
467.444
466.62
465.734
464.811
463.842
462.812
461.73
460.591
459.389
458.154
456.849
455.473
454.024
452.507
450.928
449.293
447.606
445.859
444.048
442.17
440.224
438.216
436.146
434.008
431.792
429.5
427.135
424.71
422.224
419.673
417.049
414.347
411.571
408.731
405.835
402.899
399.937
396.954
393.952
390.895
387.81
384.66
381.471
378.218
374.892
371.517
368.076
364.547
360.919
357.212
353.417
349.603
345.78
341.974
423.572
422.229
420.867
419.452
418.008
416.525
415.024
413.505
411.946
410.351
408.712
407.047
405.343
403.589
401.793
399.964
398.11
396.195
394.215
392.172
390.076
387.938
385.772
383.587
381.367
379.104
376.799
374.45
372.075
369.674
367.244
364.759
362.223
359.629
357.005
354.344
351.632
348.87
346.038
343.138
340.183
337.18
334.154
331.131
328.128
325.155
322.155
319.167
316.152
313.153
310.118
307.025
303.916
300.747
297.537
294.206
290.814
287.344
283.886
280.39
276.926
379.342
377.395
375.429
373.441
371.407
369.33
367.242
365.156
363.033
360.858
358.668
356.47
354.237
351.979
349.674
347.359
345.045
342.684
340.26
337.764
335.216
332.652
330.077
327.521
324.959
322.364
319.746
317.092
314.451
311.83
309.251
306.638
304.016
301.35
298.695
296.023
293.294
290.535
287.718
284.837
281.9
278.897
275.877
272.871
269.904
267.04
264.15
261.339
258.519
255.808
253.101
250.315
247.546
244.725
241.906
238.914
235.916
232.807
229.791
226.708
223.679
335.309
332.867
330.403
327.966
325.491
323.026
320.526
318.09
315.623
313.046
310.475
307.941
305.366
302.764
300.079
297.426
294.849
292.237
289.567
286.75
283.86
280.997
278.118
275.283
272.508
269.703
266.878
263.959
261.069
258.26
255.631
252.985
250.423
247.833
245.336
242.858
240.248
237.577
234.901
232.219
229.44
226.538
223.616
220.696
217.795
215.11
212.332
209.731
207.107
204.768
202.489
200.058
197.686
195.254
192.887
190.233
187.658
184.914
182.412
179.793
177.282
288.764
285.877
282.827
280.108
277.223
274.752
271.961
269.53
267.068
264.411
261.751
259.314
256.672
254.044
251.106
248.153
245.531
243.009
240.526
237.761
234.596
231.667
228.654
225.613
222.727
219.895
217.196
214.157
210.916
207.851
205.202
202.524
200.092
197.697
195.683
193.735
191.459
188.906
186.449
184.19
181.872
179.189
176.438
173.744
170.963
168.561
165.812
163.436
160.896
159.053
157.308
155.228
153.345
151.379
149.568
147.198
145.066
142.611
140.673
138.55
136.671
3970.58
4051.27
4134.17
4219.2
4306.66
4397.32
4490.46
4585.83
4683.32
4784.22
4886.8
4991.9
5103.37
5253.75
5378.9
5508.49
5640.67
5775.59
5913.35
6053.78
6196.94
6342.8
6491.06
6641.77
6794.63
6948.91
7104.32
7260.6
7417.52
7574.15
7730.41
7885.62
8038.88
8189.54
8337.06
8479.98
8617.35
8744.44
8850.19
8927.29
8977.93
9003.13
9002.41
8973.83
8915.76
8825.73
8699.72
8533.17
8321.87
8061.4
7745.73
7368.29
6924.3
6405.65
5832.13
4827.04
4377.41
4154.56
4069.49
4037.19
3974.35
1077.9
1081.41
1085.21
1089.12
1093.16
1097.44
1102.23
1107.38
1112.83
1118.58
1121.38
1123.1
1126.79
1131.22
1137.63
1143.89
1150.09
1156.41
1162.92
1169.64
1176.55
1183.68
1191.02
1198.57
1206.34
1214.31
1222.53
1231.01
1239.83
1249.04
1258.69
1268.85
1279.66
1291.23
1303.7
1317.31
1332.3
1348.87
1372.16
1404.43
1441.77
1481.8
1524.99
1571.47
1621.92
1676.65
1735.72
1799.39
1867.93
1940.89
2017.35
2095.68
2173.95
2251.71
2321.9
2389.47
2448.64
2537.63
2642.28
2750.12
2733.19
597.972
594.868
591.779
588.705
585.592
582.5
579.475
576.487
573.493
569.614
563.717
558.196
553.524
549.51
546.342
543.197
539.889
536.465
532.987
529.48
525.966
522.438
518.893
515.332
511.76
508.179
504.604
501.045
497.526
494.047
490.634
487.311
484.093
481.028
478.142
475.489
473.115
471.095
469.74
469.391
471.033
477.038
486.307
498.911
515.317
536.179
562.208
594.413
633.765
681.315
738.041
804.694
882.413
971.685
1072.81
1183.53
1293.43
1412.64
1556.31
1737.81
1937.6
429.762
425.918
422.116
418.33
414.506
410.673
406.836
402.964
398.968
393.871
387.866
382.412
377.499
373.132
369.225
365.415
361.529
357.585
353.606
349.621
345.63
341.622
337.602
333.579
329.551
325.533
321.528
317.542
313.579
309.644
305.742
301.879
298.068
294.319
290.644
287.061
283.59
280.247
277.073
274.129
271.55
269.632
269.342
270.536
273.327
278.067
285.225
295.457
309.602
328.67
354.053
387.038
429.247
481.827
545.652
619.129
697.856
782.712
881.259
1006.14
1165.21
338.211
334.551
330.951
327.361
323.71
320.047
316.344
312.6
308.72
303.959
298.74
294.01
289.685
285.786
282.164
278.65
275.105
271.563
268.024
264.508
261.003
257.469
253.936
250.414
246.897
243.4
239.925
236.477
233.05
229.647
226.27
222.924
219.615
216.35
213.14
209.994
206.922
203.935
201.044
198.267
195.638
193.224
191.188
189.973
189.435
189.729
191.079
193.787
198.284
205.106
215.043
229.087
248.419
274.299
307.799
349.169
397
450.609
511.914
585.974
679.55
273.472
270.174
266.943
263.742
260.404
257.062
253.66
250.28
246.801
242.737
238.35
234.376
230.711
227.403
224.251
221.193
218.103
215.074
212.075
209.13
206.205
203.23
200.275
197.352
194.435
191.554
188.694
185.868
183.053
180.258
177.477
174.726
172.003
169.323
166.688
164.11
161.595
159.152
156.782
154.498
152.314
150.253
148.361
146.744
145.625
144.89
144.666
145.076
146.326
148.694
152.545
158.399
166.924
178.884
195.171
216.381
242.651
273.99
310.882
354.753
408.593
220.565
217.672
214.855
212.119
209.121
206.15
203.079
200.15
197.179
193.907
190.276
187.006
183.949
181.249
178.587
176.02
173.373
170.865
168.391
165.992
163.623
161.153
158.749
156.421
154.088
151.81
149.534
147.306
145.061
142.834
140.602
138.409
136.239
134.121
132.039
130.018
128.05
126.149
124.311
122.552
120.873
119.299
117.839
116.535
115.502
114.742
114.255
114.105
114.391
115.246
116.854
119.465
123.395
129.075
136.979
147.61
161.385
178.611
199.699
225.341
256.703
174.502
172.016
169.64
167.447
164.809
162.241
159.502
157.077
154.656
152.196
149.224
146.575
144.025
141.917
139.7
137.629
135.375
133.371
131.377
129.454
127.581
125.523
123.612
121.885
120.097
118.369
116.597
114.917
113.154
111.417
109.635
107.937
106.253
104.654
103.071
101.561
100.076
98.6621
97.3024
96.0315
94.8308
93.7351
92.7477
91.8656
91.1274
90.6443
90.3231
90.1907
90.3106
90.7525
91.6136
93.0137
95.1214
98.1324
102.297
107.902
115.244
124.653
136.476
151.173
169.347
134.208
132.071
130.152
128.587
126.317
124.166
121.726
119.857
117.99
116.334
113.918
111.776
109.564
108.052
106.174
104.615
102.66
101.169
99.5826
97.996
96.5486
94.7659
93.3016
92.2719
90.9402
89.6243
88.2094
87.0425
85.6026
84.2386
82.7284
81.4894
80.2026
79.086
77.9015
76.8302
75.6699
74.6302
73.6586
72.8047
72.0303
71.35
70.7936
70.3219
69.8862
69.594
69.4608
69.4334
69.6166
69.937
70.6327
71.6204
73.105
75.0506
77.67
80.9981
85.3245
90.7412
97.6306
106.242
116.899
3837.07
3687.14
3529.91
3367.04
3208.34
3059.07
2921.21
2796.92
2688.35
2596.27
2520.13
2458.36
2409.34
2371.1
2341.49
2318.66
2301.08
2287.71
2277.69
2270.39
2265.5
2262.75
2261.86
2262.8
2265.51
2269.81
2275.6
2282.79
2291.36
2301.04
2311.65
2322.96
2334.68
2346.43
2357.95
2368.81
2378.62
2387.03
2393.87
2398.85
2401.7
2402.48
2401.35
2398.53
2394.57
2390.18
2385.88
2382.17
2379.72
2379.21
2380.71
2384.01
2389.19
2395.93
2403.51
2411.26
2418.64
2425.5
2430.8
2433.61
2433.49
2531.2
2311.47
2099.54
1893.75
1719.5
1563.67
1425.33
1303.32
1197.19
1106.19
1029.71
966.293
914.011
871.4
837.604
811.286
790.422
773.521
759.449
747.461
737.138
728.19
720.471
713.88
708.349
703.825
700.274
697.717
696.194
695.656
696.006
697.154
699.044
701.594
704.703
708.234
712.024
715.928
719.746
723.242
726.12
728.02
728.517
727.191
723.731
717.918
709.696
699.305
687.31
674.521
661.814
650.025
639.841
631.591
625.019
619.786
614.939
609.559
602.589
593.908
583.871
2030.58
2017.36
1914.03
1728.31
1537.73
1357.94
1189.77
1039.67
910.929
800.315
707.279
630.76
568.603
519.105
480.823
451.608
428.968
410.657
395.658
383.199
372.667
363.647
355.873
349.148
343.296
338.203
333.691
329.667
326.166
323.195
320.687
318.599
316.876
315.447
314.246
313.193
312.211
311.211
310.101
308.769
307.099
304.972
302.273
298.872
294.672
289.579
283.539
276.564
268.788
260.465
252.035
244.128
237.385
232.332
229.151
227.886
228.168
229.493
231.085
232.637
235.104
1331.29
1478.94
1576.84
1597.61
1528.91
1402.19
1237.72
1066.46
914.231
777.923
660.131
564.066
486.39
425.116
377.912
341.648
313.524
291.126
272.912
258.073
245.93
235.95
227.685
220.741
214.823
209.682
205.129
201.078
197.469
194.236
191.341
188.763
186.466
184.388
182.461
180.615
178.781
176.891
174.872
172.646
170.137
167.275
163.994
160.241
155.979
151.195
145.907
140.183
134.152
128.006
122.03
116.628
112.276
109.455
108.504
109.616
112.742
117.707
124.382
132.757
142.66
793.662
925.976
1066.3
1193.82
1278.38
1301.96
1258.9
1159.76
1028.68
883.214
740.148
620.428
519.545
437.523
373.872
324.364
285.864
255.544
231.277
211.897
196.46
184.146
174.261
166.184
159.428
153.642
148.702
144.468
140.723
137.394
134.433
131.819
129.514
127.452
125.566
123.787
122.051
120.295
118.456
116.469
114.271
111.805
109.024
105.893
102.388
98.5109
94.2917
89.7908
85.0957
80.3504
75.7594
71.6162
68.3203
66.3503
66.1986
68.2631
72.9308
80.0924
89.4366
100.728
113.808
475.245
557.638
656.821
769.885
885.933
988.813
1059.23
1081.03
1049.6
971.785
862.67
742.278
622.771
515.584
430.237
361.234
306.695
263.933
229.705
202.608
181.39
164.891
152.076
141.95
133.749
126.934
121.207
116.369
112.288
108.72
105.608
102.924
100.619
98.6158
96.84
95.2216
93.6929
92.1944
90.667
89.0503
87.2849
85.3232
83.1233
80.6563
77.8993
74.8551
71.5485
68.032
64.3686
60.6649
57.0755
53.8304
51.2574
49.8062
50.0507
52.623
57.9395
66.0676
76.7894
89.7994
104.849
295.36
343.365
402.901
475.568
560.896
655.215
749.993
832.27
887.7
904.618
878.831
816.105
728.449
629.431
532.286
442.733
367.343
307.359
257.888
218.499
187.995
164.826
147.428
134.106
123.622
115.11
108.099
102.295
97.4976
93.471
90.0268
87.1195
84.6916
82.6436
80.8886
79.347
77.948
76.6293
75.3344
74.0019
72.5735
71.0072
69.2619
67.3106
65.1257
62.713
60.0914
57.3072
54.4058
51.4775
48.6479
46.1124
44.1602
43.2075
43.8434
46.7586
52.5143
61.3597
73.1642
87.5615
104.205
191.872
219.849
254.716
298.003
351.067
414.418
486.974
564.706
640.631
704.503
745.476
756.014
734.944
685.607
616.714
537.124
456.788
382.136
313.86
257.452
213.198
179.992
155.885
137.886
123.989
112.895
103.911
96.6511
90.8091
85.9693
81.9432
78.6011
75.8825
73.6414
71.7784
70.1937
68.8129
67.5614
66.3915
65.2314
64.0246
62.7301
61.313
59.739
57.9762
56.0323
53.9227
51.6907
49.3713
47.0419
44.8159
42.8672
41.4617
40.9922
42.0399
45.3269
51.5256
61.0456
73.8312
89.4718
107.505
130.231
146.698
167.169
192.824
224.667
263.753
310.648
365.222
425.612
488.379
546.271
593.164
622.381
630.252
614.429
576.535
521.959
455.5
386.968
318.207
256.581
209.831
176.908
152.611
133.699
118.775
106.773
97.3451
89.9697
83.9331
78.9786
74.9015
71.6789
69.053
66.9346
65.1628
63.6865
62.3738
61.2313
60.1293
59.0471
57.912
56.7301
55.4185
53.9722
52.3709
50.6638
48.8557
47.0075
45.1585
43.4434
42.0064
41.1185
41.1463
42.6401
46.3414
52.9668
63.0967
76.6547
93.3498
112.388
0.679135
177.967
158.209
6.23644
0.883558
0.170826
0.000742353
90.5257
0.000765621
0.0142274
129.654
6.34094
0.000741781
257.232
0.138516
127.77
0.000751252
94.6133
154.718
0.000756028
8.6534
249.824
165.254
0.000787596
0.000755686
0.206449
0.000753633
8.35038
0.000747548
0.000777866
2.35601
0.000835059
0.00885662
112.538
3.57353
151.101
115.628
15.1295
0.000735478
43.9744
65.6204
19.0144
0.000739607
95.8643
236.525
0.647428
0.000755947
0.00684374
2.78578
6.60444
376.918
332.393
0.00072774
0.000898902
0.100193
0.0369664
0.000775716
9.46512
99.9111
256.877
141.825
0.00085057
20.9211
0.0219473
179.082
4.72657
77.2379
66.2607
0.00122575
0.000747202
17.362
39.778
56.3056
0.0814062
0.0580591
113.654
198.19
52.6513
0.00072167
4.96541
0.00200892
49.0667
0.118702
104.364
0.000749592
8.29023
0.000763296
61.9673
0.0192894
0.00121482
0.190912
0.000721195
0.000860637
280.586
128.637
0.000810683
1.46154
0.602708
0.00189038
196.914
2.77585
14.84
5.96374
0.000721405
0.000731371
0.000725584
1.41849
0.204567
0.000764233
163.065
212.459
0.0096813
291.327
45.6034
107.468
88.9814
58.8625
0.00104607
0.0943317
0.000850338
0.00152663
252.746
0.00163215
276.43
389.035
33.7594
0.000742872
6.15948
6.05498
0.000740526
0.0297351
0.023776
93.3295
0.00118762
101.356
0.000746757
0.000730259
373.634
322.999
0.00073974
0.222298
137.12
0.231446
0.878223
43.605
101.267
1.93338
46.4215
0.00479898
248.918
16.072
0.0441755
47.7338
102.028
174.695
0.000743434
0.000736976
0.447125
0.000743517
83.2408
2.28329
0.00146802
0.000744682
0.000743683
0.000758473
37.5967
66.6422
34.853
0.000926736
276.166
348.947
401.168
157.945
0.00714656
223.899
85.9488
54.807
0.00073527
0.00150875
200.79
98.2758
19.3921
61.7822
0.000740879
0.000793592
290.838
0.0260661
2.33489
0.000756916
0.000751249
0.163149
0.000826863
300.615
3.36079
0.000738076
0.580189
91.9737
111.902
0.00126126
102.673
0.000742581
0.000741462
72.0972
29.1651
275.751
0.00128199
0.000766887
0.0042208
36.677
130.306
9.629
98.9858
20.9763
222.19
0.881249
80.4222
74.953
16.933
9.84254
65.6652
0.000973397
0.0270108
0.000740029
0.00080001
58.1766
0.00853008
0.0100491
0.00115493
0.00652936
45.6949
248.814
0.0111743
140.6
6.52699
0.860797
0.000733765
0.289064
34.7899
6.30572
0.0011482
3.74294
38.2429
0.958832
2.9725
260.817
7.68203
5.3014
115.322
0.000972147
0.0007314
0.000937347
0.00449926
54.7049
0.000754405
0.00137943
0.000733627
1.73483
39.8249
107.144
75.8326
17.0482
10.3228
305.828
0.0012388
91.2948
97.1738
0.000740438
138.672
0.000749227
364.448
1.73338
97.0885
0.00138848
0.000745944
19.0617
8.19688
0.000759543
0.000739432
0.000743837
0.000752136
1.10124
36.2391
40.3489
0.017815
0.000760364
0.0007313
0.00072118
98.2972
0.430059
0.00106285
15.4013
0.109442
0.185928
0.000724106
0.768974
0.000760121
0.0392171
47.9039
323.617
7.7129
0.000823676
0.00155863
53.2767
0.252152
131.385
306.109
0.000815901
0.000738529
0.000734647
148.662
0.000750492
107.473
0.000748288
18.71
19.3569
0.025449
205.231
269.714
0.00112938
77.5879
52.0206
89.3864
56.2444
13.2966
319.909
63.0779
36.3708
180.067
88.2433
56.4946
0.286919
313.007
267.753
91.1764
56.4245
0.00177099
244.452
190.586
221.392
0.0173951
0.000821026
0.000742243
0.000777782
0.744107
1.4189
2.28494
0.106879
0.000738665
158.575
0.000743389
46.0417
20.1229
183.635
20.0416
16.4691
0.00147422
0.000998087
1.10598
142.891
0.00367962
8.27241
304.876
69.2216
79.1137
158.365
52.4781
0.000779412
271.765
127.481
96.5237
0.000741518
173.058
139.6
0.000757273
51.7272
0.000741963
396.265
162.621
48.9219
75.7298
176.443
139.123
0.000783168
139.436
0.000890449
97.0326
76.8773
54.0604
268.171
3.11684
0.465346
2.47661
0.00099578
453.936
21.2062
0.00276244
0.00702752
310.331
0.000883795
87.4615
0.000741913
0.000741964
0.00190064
31.9192
0.155314
18.69
0.00115252
77.6592
0.265721
187.797
295.045
34.0319
358.143
0.000844425
268.62
39.3685
0.000735188
74.3588
22.3605
0.000725628
0.000732127
156.166
0.00216319
13.085
0.990347
135.162
0.0158711
2.8194
34.6938
87.1629
29.1862
51.3941
62.4483
0.00181922
0.0974092
61.7701
12.6783
315.995
353.462
110.696
0.0710738
114.11
113.088
3.46741
93.5853
39.9552
22.655
0.00108617
79.4751
356.568
0.00101479
93.2525
17.6905
40.507
0.0125682
0.0746263
279.848
0.00145192
312.032
0.00111908
2.01154
0.000740538
7.58307
171.513
0.521513
0.00117647
0.00105071
128.958
44.3733
2.40854
7.30207
323.487
547.247
0.00482419
10.438
45.6934
114.427
42.5135
461.052
54.0042
146.671
48.3491
5.49375
14.0882
290.075
54.8089
334.524
162.904
0.348331
238.862
98.8312
0.000837184
93.6727
51.8744
18.7125
0.0102396
66.3501
45.3305
3.48765
53.7955
0.00162198
0.000745433
0.542762
14.4548
75.8503
116.361
0.000749089
0.00074412
0.000736382
49.407
0.0323994
0.000741296
0.204433
58.472
321.177
0.00373441
0.00384615
0.000729485
0.000739807
0.00143789
29.9176
100.559
12.6135
1.84353
267.4
402.555
0.00155394
37.2081
54.9501
52.2911
70.099
415.696
0.00084404
0.00376999
0.000738862
405.628
0.637234
0.000731675
9.46545
0.301075
286.843
0.000759205
292.993
7.60035
0.0411053
191.841
0.000735767
0.00073333
0.000905391
377.733
49.5761
121.515
359.921
2.92824
60.6056
0.000722397
0.00160345
1.22414
0.038272
0.0146865
175.65
76.4144
0.000740737
25.8932
92.7132
168.604
380.293
0.00242843
384.379
0.00155934
0.0184498
213.343
0.000735772
138.632
0.000758848
0.000760605
0.028793
57.8847
2.73396
317.813
62.349
0.000819491
53.7389
522.774
1.34531
9.60341
9.44263
0.000750567
0.00074253
0.00228741
128.457
5.80138
0.000863065
245.05
302.772
204.141
0.442669
110.839
0.00122291
26.8419
0.290845
0.111859
175.343
65.514
149.07
165.084
0.000772419
0.000723481
0.00363133
62.8776
88.1875
5.10636
0.00555402
0.000744722
0.000735713
0.0028578
0.0683738
0.00180841
125.291
29.3207
0.00519947
43.2844
159.328
0.000754316
63.7079
0.000743029
2.28205
0.000762458
0.0121235
21.068
0.0104961
0.000744089
3.48883
332.683
227.933
0.000745541
0.000732224
1.32767
0.100811
0.000745816
70.0263
0.000841326
71.0934
349.152
27.6952
89.362
290.785
168.201
320.553
0.000736223
0.00254088
0.0204678
316.518
61.3362
177.422
9.05553
5.37425
113.124
232.832
102.789
14.1786
29.6455
0.00074913
1.21324
78.3502
30.9601
345.623
16.8983
0.411719
39.5844
0.202882
0.0923658
77.8105
0.000738183
155.734
0.000817691
2.87563
281.327
192.441
2.50679
0.00230631
7.29637
0.000745256
0.000734933
0.160201
0.0114361
98.6764
0.00693251
52.2939
0.00074957
0.0156807
0.000731327
88.7808
0.00729711
106.12
296.536
0.0119955
165.796
350.756
0.000741527
98.383
280.665
0.000824959
276.206
0.866503
0.0010638
0.000745732
246.822
0.000733055
0.00101389
0.103524
0.217151
418.47
257.545
0.00075127
0.000736323
18.53
24.8119
0.00603838
2.52819
20.4805
0.000744884
0.000883102
0.000772033
160.204
260.714
3.52282
270.82
0.0146502
44.5791
0.000851147
0.0058849
0.0135522
0.0465459
0.000742114
286.412
0.000740935
0.0139475
0.000746741
5.56091
0.0124973
0.120655
1.6565
5.14128
58.395
1.38639
9.03123
55.6747
172.292
0.000799761
199.021
302.367
12.8174
69.8028
0.000766169
293.749
66.2133
0.000740812
392.092
112.51
0.0224263
0.0347311
153.968
154.059
1.02297
296.977
392.656
4.12696
413.023
234.331
122.871
99.2565
11.9982
37.5538
246.054
261.666
0.0120744
278.964
30.3401
434.375
0.000813461
1.5778
1.0414
216.667
150.008
0.0101538
457.578
187.302
8.84239
0.100013
2.90934
57.1645
0.00135278
56.5031
429.132
0.0287839
212.916
10.8863
86.6185
179.803
0.00073962
0.00170966
6.33045
5.38557
0.0164304
0.000746147
0.900095
2.0046
0.00114363
0.000758653
280.004
6.10714
44.3656
10.821
0.00259615
0.000973976
2.33892
119.054
0.000787419
18.8829
52.8858
1.68505
169.079
0.000948509
0.44944
0.000737614
1.374
81.0905
0.00128773
0.171317
77.3768
131.537
0.459736
92.0306
5.30523
0.802402
0.000971758
28.8996
300.104
0.00073951
0.000737229
138.923
0.0133864
0.000758188
66.4043
2.13402
162.546
54.8015
38.5553
0.26081
16.079
242.096
135.959
299.803
0.000749652
310.641
0.000855904
13.1839
0.000959061
0.00196521
84.9854
0.00219875
287.128
0.0119604
0.0274324
46.066
7.97973
5.48918
0.000834447
169.64
0.000829178
0.000730576
316.305
150.006
38.0843
49.7858
0.000773869
0.000724613
17.5334
139.178
0.000724383
183.771
37.8419
0.000742439
161.661
0.000728242
3.67347
6.16339
9.75108
1.21576
76.3706
24.0732
0.000728094
252.745
302.496
0.000737767
0.0192211
56.1179
0.000729594
229.891
155.796
422.144
0.000738971
0.000731467
261.813
0.201178
0.000839273
31.5807
80.5672
308.59
0.000728839
0.000816225
0.013675
0.0116056
0.000743145
0.00213316
118.99
76.9346
0.000740091
10.5657
0.000745095
10.4974
0.00116964
0.000817861
24.2137
0.000731829
0.184971
0.000732498
40.0718
22.3022
16.3031
177.571
381.473
211.34
4.45529
29.5245
0.000758214
4.87601
265.362
533.648
0.134637
0.000792329
120.379
0.000742788
2.19195
0.000730852
425.063
15.4738
3.39875
176.388
52.936
5.29384
74.4489
8.01683
215.438
108.927
0.000751422
0.000812191
0.00249801
0.000845467
0.0124161
77.7646
0.000984855
220.576
0.00157058
0.262313
2.56984
188.828
0.00150364
36.49
0.0204399
38.0499
27.1693
426.312
0.000971151
0.00102656
6.42988
82.6541
61.9691
61.4856
1.55295
14.1856
14.507
0.0621167
5.22333
2.81807
66.634
0.000737426
421.344
1.23172
53.2238
0.000756464
50.5506
16.734
0.00221983
88.6275
15.8526
0.0701711
0.000737983
0.000740071
250.178
46.5153
24.3048
0.000727815
0.00807067
97.33
179.728
4.90944
0.00491355
0.000726992
127.616
119.978
67.9556
32.0305
0.000737285
152.606
413.673
0.000746524
0.000748468
18.8828
0.00153347
0.00332522
0.266808
48.0843
0.00119623
64.8539
325.415
0.000788411
0.000856748
0.000732951
0.000744411
61.1577
537.283
305.981
0.0178972
28.9534
86.293
0.127315
40.1382
0.00107242
69.4903
0.503693
53.6905
5.28638
81.9191
160.616
0.131183
0.000758753
151.434
89.4758
328.97
4.92518
51.7604
0.524739
8.91855
0.00327833
0.00117663
219
133.54
0.105363
2.02739
0.000744341
0.0850158
17.3129
0.0328837
14.0719
11.4669
395.24
63.0807
1.69042
257.123
132.695
83.4624
13.6635
260.995
225.069
3.14127
35.7322
0.0082324
45.5473
42.632
0.000742635
0.000730375
0.182583
0.000740737
0.000825932
84.2179
314.775
0.000740013
116.99
0.000739579
0.000735317
0.000729251
0.000795769
0.00173735
50.3311
32.1101
239.27
0.000742367
0.00111675
5.76893
0.000804284
0.0278438
0.000762708
0.000770959
218.087
0.000920165
0.00403799
189.522
0.00389202
0.000748068
250.349
0.000741212
0.000748109
1.91234
0.000812085
13.4348
0.00145468
0.0197608
0.000743362
0.000758649
287.144
396.158
35.1264
0.0249952
174.358
13.9148
0.00150302
48.1962
336.159
226.149
496.041
0.000754803
13.7314
56.0555
0.225106
56.769
106.472
0.330344
53.4457
0.491595
58.8946
1.48981
6.93659
0.000757488
195.314
0.000912002
59.9886
28.6732
0.00074666
0.854061
0.00206558
0.0694488
0.00074093
3.50774
0.000836952
0.000755048
65.1657
0.0141402
0.14095
221.765
151.174
0.000880792
0.00103118
27.1468
247.192
0.000733662
0.000743921
0.264298
24.5037
139.589
0.00214442
13.8327
0.000739209
0.000781925
0.00072718
0.024256
24.277
0.00423637
271.654
50.986
246.425
159.65
0.000795855
270.344
61.1282
0.000735216
0.000753984
0.000750429
0.00102734
0.000736801
177.586
0.000744723
0.000736615
354.921
1.01215
0.00224526
0.045738
110.475
7.33655
0.0648456
0.000796196
176.372
0.000762631
8.32806
0.000770271
0.000803342
152.287
137.131
0.00279531
0.00102839
18.0819
0.000743138
371.325
0.000765683
130.124
0.0126019
8.80905
0.604775
3.41245
2.09714
30.2691
0.000760612
0.000810003
0.00403121
46.1596
0.185951
288.313
0.000742062
0.00147795
0.00144756
244.537
61.1106
279.156
0.00229607
0.00373382
0.839402
0.000750335
43.16
36.4757
0.0073952
293.457
172.13
64.377
0.00144979
1.2463
175.002
208.641
54.803
0.0104202
186.63
4.23857
116.143
0.12259
1.97679
31.4569
0.000761923
52.5901
0.00106476
0.00427461
0.0192289
0.0390518
0.000842953
10.2376
0.000742579
34.2057
0.122562
0.000777783
2.58216
0.000756619
0.644647
0.185684
69.9742
3.98986
107.112
0.635835
0.000747112
0.000726752
12.9165
0.125328
38.5639
248.53
0.000750599