/*--------------------------------*- C++ -*----------------------------------*\
| =========                 |                                                 |
| \\      /  F ield         | OpenFOAM: The Open Source CFD Toolbox           |
|  \\    /   O peration     | Version:  2.3.1                                 |
|   \\  /    A nd           | Web:      www.OpenFOAM.org                      |
|    \\/     M anipulation  |                                                 |
\*---------------------------------------------------------------------------*/
FoamFile
{
    version     2.0;
    format      ascii;
    class       volVectorField;
    location    "0.15";
    object      U;
}
// * * * * * * * * * * * * * * * * * * * * * * * * * * * * * * * * * * * * * //

dimensions      [0 1 -1 0 0 0 0];

internalField   nonuniform List<vector> 
9648
(
(0.14609 -4.68973 -3.68462e-22)
(0.273261 -4.65652 -8.91716e-24)
(0.399164 -4.64624 0)
(0.523008 -4.6404 0)
(0.650835 -4.64816 1.32102e-20)
(0.784897 -4.6693 2.21778e-20)
(0.925255 -4.70512 -3.87167e-20)
(1.07322 -4.7576 -1.79613e-20)
(1.23078 -4.82832 1.78773e-20)
(1.39988 -4.91834 5.39698e-20)
(1.58266 -5.02779 -5.36149e-20)
(1.78068 -5.15629 -7.60842e-20)
(1.99548 -5.30302 4.02383e-19)
(2.22856 -5.46656 1.02335e-19)
(2.48103 -5.64483 -9.56101e-19)
(2.75352 -5.83549 0)
(3.0466 -6.03596 0)
(3.36056 -6.24358 1.66546e-19)
(3.69557 -6.45533 5.32725e-19)
(4.05121 -6.66824 -1.5191e-18)
(4.4271 -6.87969 -2.51195e-20)
(4.82277 -7.08674 4.12904e-19)
(5.23714 -7.28672 4.81222e-19)
(5.6693 -7.47718 -2.15659e-18)
(6.11812 -7.65582 0)
(6.58247 -7.82044 1.2671e-18)
(7.06091 -7.96897 -1.31812e-18)
(7.55197 -8.09979 0)
(8.05416 -8.2111 0)
(8.56579 -8.30166 -7.84205e-19)
(9.08542 -8.3702 -1.71471e-18)
(9.6113 -8.41563 2.67801e-18)
(10.1419 -8.43717 0)
(10.6756 -8.43393 0)
(11.2104 -8.40545 2.01144e-18)
(11.7446 -8.35102 -2.15066e-18)
(12.2762 -8.27047 0)
(12.8035 -8.1637 4.56523e-18)
(13.3251 -8.03062 1.22107e-18)
(13.8392 -7.87132 -3.612e-18)
(14.3444 -7.68596 6.73845e-20)
(14.84 -7.47547 2.54608e-18)
(15.3247 -7.24001 -3.36811e-18)
(15.7968 -6.98036 6.76927e-19)
(16.2551 -6.69735 0)
(16.6978 -6.3908 0)
(17.1233 -6.06105 5.04286e-18)
(17.5306 -5.7084 7.36828e-19)
(17.9181 -5.33432 -2.26611e-18)
(18.2852 -4.94061 -7.61423e-19)
(18.6307 -4.5284 -7.86663e-19)
(18.9536 -4.0991 7.82412e-19)
(19.2534 -3.65416 4.01688e-19)
(19.5293 -3.19428 -3.99824e-19)
(19.7803 -2.72122 2.03156e-18)
(20.0059 -2.23599 -1.99689e-18)
(20.2052 -1.74008 -2.2065e-20)
(20.3782 -1.23457 0)
(20.5243 -0.72095 -4.02633e-19)
(20.6431 -0.200735 -5.18753e-20)
(20.7342 0.324972 -4.90677e-20)
(-0.0650382 -2.44477 3.59973e-22)
(0.0139647 -2.49063 0)
(0.0963462 -2.55696 0)
(0.183706 -2.64746 7.55685e-21)
(0.280748 -2.75855 -8.63186e-21)
(0.3903 -2.89018 -5.14095e-20)
(0.513163 -3.04356 0)
(0.650192 -3.21698 0)
(0.802604 -3.40955 -6.2061e-20)
(0.971392 -3.61993 0)
(1.15784 -3.84679 -1.45671e-19)
(1.36252 -4.08808 1.13624e-19)
(1.58605 -4.34198 -6.10057e-20)
(1.82909 -4.60632 0)
(2.09211 -4.87877 3.67256e-19)
(2.37518 -5.15695 2.1451e-19)
(2.67839 -5.43842 -2.10882e-19)
(3.00162 -5.72078 2.67914e-19)
(3.34483 -6.00149 -8.13502e-19)
(3.70757 -6.27813 6.38215e-19)
(4.0893 -6.54846 -6.99539e-19)
(4.48955 -6.81013 -3.74822e-19)
(4.90734 -7.06101 -3.81494e-19)
(5.34174 -7.29905 1.2949e-18)
(5.79167 -7.52234 4.458e-19)
(6.25612 -7.72904 5.20607e-19)
(6.73381 -7.91745 -4.63654e-19)
(7.22336 -8.08613 0)
(7.72342 -8.23357 0)
(8.2324 -8.3588 0)
(8.74895 -8.46071 0)
(9.27148 -8.53848 0)
(9.79859 -8.59143 0)
(10.3289 -8.61874 0)
(10.8607 -8.61988 -8.97436e-19)
(11.3925 -8.59413 8.16771e-19)
(11.9222 -8.54138 8.89649e-19)
(12.4481 -8.46182 -4.51385e-18)
(12.9686 -8.35558 -9.49547e-19)
(13.4821 -8.22286 2.91751e-18)
(13.9873 -8.0639 2.03651e-18)
(14.4831 -7.87921 -2.09372e-18)
(14.9684 -7.66874 9.99501e-19)
(15.4418 -7.43339 1.05033e-18)
(15.9015 -7.17394 -1.1076e-18)
(16.346 -6.8904 1.09889e-18)
(16.7734 -6.5834 -2.34185e-18)
(17.1829 -6.25352 0)
(17.574 -5.90225 -5.93305e-19)
(17.9455 -5.53077 1.19109e-18)
(18.2964 -5.13991 -5.97935e-19)
(18.6255 -4.73099 0)
(18.9322 -4.30529 1.22033e-18)
(19.2156 -3.86363 0)
(19.4749 -3.40746 0)
(19.7094 -2.93802 2.86958e-18)
(19.9183 -2.45662 -1.29028e-18)
(20.1012 -1.96506 -3.12826e-19)
(20.2578 -1.46403 3.29764e-19)
(20.3873 -0.955303 0)
(20.4889 -0.440555 8.25472e-20)
(0.0943466 -1.50441 -5.31223e-22)
(0.163999 -1.61386 0)
(0.241422 -1.73968 -1.54163e-22)
(0.327881 -1.88352 -6.40144e-22)
(0.425533 -2.04784 0)
(0.536627 -2.23184 4.36545e-20)
(0.663077 -2.43495 2.95342e-20)
(0.806255 -2.65546 0)
(0.967109 -2.89207 3.30491e-21)
(1.14644 -3.14287 6.22428e-20)
(1.34472 -3.40625 1.22755e-19)
(1.56224 -3.68 -4.22906e-20)
(1.79924 -3.96207 0)
(2.05587 -4.25021 0)
(2.33222 -4.54222 2.79116e-19)
(2.62809 -4.83591 -1.74209e-19)
(2.94332 -5.12908 -1.85524e-19)
(3.27761 -5.41953 0)
(3.63061 -5.70509 6.98927e-19)
(4.00185 -5.98367 -7.2186e-19)
(4.39074 -6.25332 -5.33642e-19)
(4.79661 -6.51209 -5.82035e-19)
(5.21854 -6.75814 0)
(5.65553 -6.98972 -1.02555e-18)
(6.10653 -7.20516 -3.58565e-19)
(6.57045 -7.40287 4.18747e-19)
(7.04614 -7.58135 4.587e-19)
(7.53228 -7.73928 0)
(8.02752 -7.87549 0)
(8.53033 -7.98911 0)
(9.03919 -8.07938 0)
(9.55266 -8.14569 0)
(10.0694 -8.18741 0)
(10.5881 -8.20379 0)
(11.1076 -8.19403 -1.97715e-18)
(11.6263 -8.15752 6.56219e-19)
(12.1428 -8.0943 -7.15445e-19)
(12.6551 -8.00487 3.59608e-18)
(13.1613 -7.88976 0)
(13.6597 -7.74927 1.51581e-18)
(14.1483 -7.58365 1.56041e-18)
(14.6265 -7.39305 7.72276e-19)
(15.0933 -7.17767 -8.75463e-19)
(15.5474 -6.93829 -1.68518e-18)
(15.988 -6.67528 2.61389e-18)
(16.4135 -6.38895 -8.83775e-19)
(16.8223 -6.08022 -1.79225e-18)
(17.2134 -5.75038 0)
(17.5855 -5.4009 0)
(17.9378 -5.03263 -4.83856e-19)
(18.2693 -4.64649 -4.71776e-19)
(18.579 -4.24344 -9.63986e-19)
(18.8667 -3.82451 -1.00603e-18)
(19.1311 -3.39116 0)
(19.372 -2.94416 -9.90062e-19)
(19.5884 -2.48532 -1.02902e-18)
(19.7801 -2.01534 0)
(19.9463 -1.53659 1.65248e-20)
(20.0865 -1.04919 0)
(20.2006 -0.554952 0)
(20.2891 -0.0552484 -6.30354e-20)
(0.115216 -1.10275 1.0474e-21)
(0.196651 -1.24343 -1.44615e-21)
(0.288479 -1.40081 5.06279e-22)
(0.390167 -1.57583 -2.33202e-21)
(0.503871 -1.76905 0)
(0.63154 -1.97977 -1.78844e-20)
(0.774606 -2.20692 -2.52886e-20)
(0.934026 -2.44907 0)
(1.1107 -2.70468 3.87904e-21)
(1.3051 -2.97213 -5.28866e-20)
(1.51765 -3.24954 1.1859e-19)
(1.74842 -3.535 1.41802e-19)
(1.99747 -3.82631 0)
(2.26485 -4.12138 -1.082e-19)
(2.55063 -4.41818 -2.28493e-19)
(2.85447 -4.71473 -1.20888e-19)
(3.17617 -5.00898 4.56522e-19)
(3.5154 -5.29895 -3.27217e-19)
(3.87175 -5.58268 3.63056e-19)
(4.2448 -5.85827 6.11527e-19)
(4.63406 -6.12403 8.77783e-19)
(5.03871 -6.37826 4.89806e-19)
(5.45801 -6.61932 2.35677e-19)
(5.8909 -6.84566 8.42599e-19)
(6.33642 -7.05569 2.76108e-19)
(6.79355 -7.24796 3.1071e-19)
(7.26115 -7.4211 3.60393e-19)
(7.73818 -7.57392 -1.07737e-18)
(8.2233 -7.70552 7.66928e-19)
(8.71519 -7.8152 8.56539e-19)
(9.21258 -7.90224 -1.74604e-18)
(9.71389 -7.96596 8.89242e-19)
(10.2178 -8.00558 -9.42736e-19)
(10.7229 -8.02015 4.68811e-19)
(11.2275 -8.00918 5.10323e-19)
(11.7308 -7.97241 5.59656e-19)
(12.2315 -7.91004 -5.53231e-19)
(12.7291 -7.82291 -5.99543e-19)
(13.2219 -7.71077 -1.78785e-18)
(13.7074 -7.57351 -1.28123e-18)
(14.1841 -7.41157 -2.58781e-18)
(14.6494 -7.22515 -3.33635e-18)
(15.1022 -7.01568 1.3625e-18)
(15.5418 -6.78408 3.05394e-20)
(15.967 -6.53016 -7.55278e-19)
(16.3776 -6.25366 -7.37904e-19)
(16.7728 -5.95467 4.45563e-18)
(17.1515 -5.63453 -7.45975e-19)
(17.5126 -5.29491 0)
(17.8545 -4.93704 0)
(18.1761 -4.56195 -7.41538e-19)
(18.4765 -4.17071 3.28459e-20)
(18.7553 -3.7642 7.90903e-19)
(19.0117 -3.34351 0)
(19.2451 -2.90998 8.37785e-19)
(19.455 -2.46496 0)
(19.6406 -2.00966 0)
(19.8017 -1.54498 6.33502e-19)
(19.9377 -1.07255 2.00836e-19)
(20.0485 -0.593816 -2.04501e-19)
(20.134 -0.110167 1.0443e-19)
(0.231218 -0.922307 7.63101e-23)
(0.31896 -1.07902 1.25508e-21)
(0.419454 -1.25304 -2.18942e-21)
(0.532791 -1.44452 9.53311e-22)
(0.659684 -1.65304 -3.67584e-21)
(0.801595 -1.87743 7.37882e-21)
(0.959305 -2.1164 3.32018e-21)
(1.13338 -2.36828 -1.90404e-20)
(1.3246 -2.63164 5.55575e-20)
(1.5329 -2.90484 -7.99928e-20)
(1.75863 -3.18607 8.99248e-20)
(2.00141 -3.47345 -1.09939e-19)
(2.26134 -3.76487 -6.29603e-20)
(2.53823 -4.05833 0)
(2.83228 -4.35186 1.10567e-19)
(3.14291 -4.6438 1.06467e-19)
(3.46992 -4.93224 0)
(3.81304 -5.2153 2.58272e-19)
(4.17167 -5.49121 0)
(4.5456 -5.75816 -3.33872e-19)
(4.93436 -6.01471 3.60174e-19)
(5.33709 -6.25942 1.09872e-20)
(5.75313 -6.49072 -1.98273e-20)
(6.18135 -6.7073 3.2011e-20)
(6.62088 -6.90753 -9.80529e-19)
(7.07076 -7.0901 -5.54348e-19)
(7.52985 -7.25379 1.13731e-18)
(7.99726 -7.39759 1.22267e-18)
(8.47176 -7.52094 -6.5802e-19)
(8.95217 -7.62295 0)
(9.43752 -7.70279 0)
(9.92656 -7.75965 0)
(10.4177 -7.79244 8.10303e-19)
(10.9095 -7.80092 -3.32284e-18)
(11.4 -7.78517 1.72938e-18)
(11.8873 -7.74539 -8.77529e-19)
(12.3717 -7.68206 -1.87506e-18)
(12.852 -7.5945 1.898e-18)
(13.3277 -7.48163 4.48017e-20)
(13.7984 -7.34289 -1.05932e-18)
(14.261 -7.17879 1.09413e-18)
(14.7138 -6.99157 1.12438e-18)
(15.1544 -6.78351 0)
(15.58 -6.55601 -1.13626e-18)
(15.9902 -6.30821 0)
(16.3841 -6.03841 -1.79155e-18)
(16.7627 -5.74632 5.52689e-19)
(17.1263 -5.43298 0)
(17.4735 -5.10036 -6.4272e-19)
(17.8027 -4.75012 -1.30439e-20)
(18.1123 -4.38324 1.36387e-18)
(18.4011 -4.00082 -6.46503e-19)
(18.6685 -3.60377 -3.56562e-19)
(18.9143 -3.19317 6.5586e-19)
(19.1377 -2.77037 -3.85336e-21)
(19.3382 -2.33638 3.4022e-19)
(19.515 -1.89252 1.63966e-19)
(19.6678 -1.4397 3.44677e-19)
(19.7964 -0.979216 -8.64158e-19)
(19.9006 -0.512573 3.46217e-19)
(19.9801 -0.0412862 -4.42051e-20)
(0.356364 -0.846751 -5.0889e-22)
(0.459228 -1.01508 0)
(0.575189 -1.20036 3.41534e-21)
(0.705023 -1.40239 0)
(0.848441 -1.62012 7.60299e-22)
(1.00689 -1.852 9.93842e-21)
(1.1807 -2.09671 1.18312e-20)
(1.37031 -2.3524 3.69144e-20)
(1.57655 -2.61765 5.00394e-21)
(1.79879 -2.89103 7.73667e-21)
(2.03755 -3.17071 1.88293e-21)
(2.29186 -3.45508 -4.22385e-20)
(2.56206 -3.74201 6.0736e-20)
(2.84731 -4.02953 -1.84898e-19)
(3.14863 -4.31575 1.54459e-19)
(3.46505 -4.59959 -1.01333e-20)
(3.79611 -4.87888 -1.88108e-19)
(4.14195 -5.15202 -2.232e-19)
(4.50155 -5.41743 0)
(4.87494 -5.67321 2.60946e-19)
(5.26201 -5.91827 8.88384e-21)
(5.66141 -6.15143 -6.60958e-19)
(6.07303 -6.3711 -2.60197e-20)
(6.49532 -6.57633 -3.52902e-19)
(6.92752 -6.76536 1.2296e-18)
(7.36884 -6.937 3.74923e-20)
(7.81807 -7.09027 -4.52466e-19)
(8.27479 -7.22419 -4.67825e-20)
(8.7375 -7.33846 0)
(9.20501 -7.43204 0)
(9.67677 -7.50372 0)
(10.1513 -7.55276 0)
(10.628 -7.57836 0)
(11.1057 -7.58043 6.15754e-20)
(11.582 -7.56016 -7.40747e-19)
(12.0551 -7.51805 -3.74848e-20)
(12.5228 -7.45321 3.37428e-20)
(12.9846 -7.36549 7.51035e-19)
(13.4406 -7.25201 1.71266e-18)
(13.89 -7.11202 -2.57432e-18)
(14.3351 -6.9474 1.79143e-18)
(14.773 -6.75989 -9.03453e-19)
(15.2007 -6.55407 0)
(15.6154 -6.33094 9.93551e-19)
(16.0116 -6.08873 0)
(16.3898 -5.82587 1.03351e-18)
(16.7515 -5.54085 -1.05268e-18)
(17.0976 -5.2355 4.93238e-19)
(17.4296 -4.9113 5.25881e-19)
(17.7448 -4.56985 -5.45724e-19)
(18.0415 -4.21236 4.10608e-20)
(18.3181 -3.83994 -9.04816e-21)
(18.5739 -3.45332 1.10404e-18)
(18.8087 -3.0539 -1.13214e-18)
(19.022 -2.64291 -5.5718e-19)
(19.2129 -2.22163 -2.72588e-19)
(19.3807 -1.79085 -8.64053e-19)
(19.5253 -1.35138 0)
(19.6466 -0.904425 5.8073e-19)
(19.7444 -0.451783 -1.48763e-19)
(19.8183 0.00531299 0)
(0.500286 -0.832458 0)
(0.621144 -1.00947 0)
(0.754867 -1.20277 -1.80645e-21)
(0.903482 -1.41187 1.08378e-21)
(1.06451 -1.63531 -2.92691e-21)
(1.24056 -1.87104 -1.61488e-20)
(1.43108 -2.11781 8.57791e-21)
(1.63601 -2.37348 -2.64195e-20)
(1.85769 -2.637 -1.81579e-21)
(2.09332 -2.9071 6.81041e-20)
(2.34518 -3.18201 -1.23257e-19)
(2.61033 -3.46051 0)
(2.89043 -3.74019 0)
(3.18273 -4.01932 2.10947e-19)
(3.4909 -4.29552 1.32429e-19)
(3.81228 -4.56906 -2.8943e-19)
(4.14627 -4.83723 4.66253e-19)
(4.49419 -5.09854 1.91049e-19)
(4.8536 -5.35204 -3.81915e-19)
(5.22524 -5.5951 -2.27635e-19)
(5.61008 -5.82697 2.57867e-19)
(6.00493 -6.0474 -6.91342e-21)
(6.41162 -6.25394 0)
(6.82697 -6.447 6.48986e-19)
(7.25072 -6.624 -1.05772e-18)
(7.68273 -6.78382 3.51715e-19)
(8.12078 -6.92606 7.68174e-19)
(8.56616 -7.04889 -2.11733e-18)
(9.0168 -7.15312 4.30188e-19)
(9.47068 -7.2373 0)
(9.92794 -7.29982 0)
(10.3865 -7.34123 0)
(10.8459 -7.35961 5.69774e-19)
(11.3074 -7.35534 1.7586e-18)
(11.7692 -7.33007 -1.18685e-18)
(12.2275 -7.28373 6.47602e-19)
(12.682 -7.21567 7.03406e-19)
(13.1272 -7.12557 -1.39153e-18)
(13.5608 -7.01151 0)
(13.9879 -6.87283 -1.40586e-18)
(14.4083 -6.70936 7.33408e-19)
(14.8263 -6.52465 3.93887e-20)
(15.2399 -6.32248 -3.26625e-20)
(15.6416 -6.10224 8.10264e-19)
(16.0271 -5.86385 2.81831e-20)
(16.391 -5.60537 -2.53927e-18)
(16.7354 -5.32626 8.57054e-19)
(17.0645 -5.02897 -1.76586e-18)
(17.3791 -4.71344 0)
(17.6788 -4.38179 0)
(17.9613 -4.03397 1.85142e-18)
(18.2245 -3.67218 -4.41877e-19)
(18.4678 -3.29645 -9.55076e-19)
(18.6911 -2.9082 -4.56598e-19)
(18.8937 -2.50958 1.45693e-18)
(19.0744 -2.10151 7.3183e-19)
(19.2327 -1.68427 2.51993e-19)
(19.3682 -1.25898 -5.12806e-21)
(19.4814 -0.825893 -2.51758e-19)
(19.5725 -0.387398 0)
(19.6405 0.0547648 0)
(0.662308 -0.856173 5.5762e-22)
(0.803851 -1.03929 0)
(0.955961 -1.23771 0)
(1.12584 -1.45153 -9.71858e-22)
(1.30438 -1.67829 0)
(1.49869 -1.91512 6.11339e-21)
(1.70581 -2.1613 8.41753e-21)
(1.92462 -2.41413 -1.7484e-20)
(2.16291 -2.67335 0)
(2.41041 -2.93796 -4.07462e-20)
(2.6764 -3.20601 4.83176e-21)
(2.95072 -3.47715 0)
(3.2416 -3.74809 0)
(3.53794 -4.0177 -8.90693e-20)
(3.85331 -4.28107 9.66995e-20)
(4.17955 -4.54335 -1.19017e-19)
(4.51462 -4.79934 -1.35278e-19)
(4.86473 -5.04746 0)
(5.22268 -5.28897 1.70488e-19)
(5.59103 -5.51818 -3.57062e-19)
(5.97445 -5.73557 -3.95459e-19)
(6.36246 -5.94302 -4.57977e-19)
(6.76456 -6.13502 -3.71407e-20)
(7.17204 -6.31616 -5.65397e-19)
(7.58637 -6.48078 5.4554e-19)
(8.00924 -6.62807 6.00169e-19)
(8.43379 -6.75929 -6.7695e-19)
(8.86729 -6.86955 3.63741e-20)
(9.30554 -6.96294 4.49646e-20)
(9.74447 -7.03755 -7.66542e-19)
(10.1882 -7.09022 0)
(10.63 -7.12458 -9.10952e-19)
(11.0705 -7.13647 1.80605e-18)
(11.5133 -7.12516 -5.14376e-20)
(11.9567 -7.09461 1.05045e-18)
(12.3973 -7.0449 -1.04256e-18)
(12.8386 -6.96942 1.13413e-18)
(13.2702 -6.87631 1.16781e-18)
(13.6876 -6.76293 -2.31176e-18)
(14.0911 -6.62463 1.25174e-18)
(14.4859 -6.46651 1.22247e-18)
(14.8791 -6.28661 1.94174e-18)
(15.2692 -6.08936 -6.96411e-19)
(15.6566 -5.87151 0)
(16.0293 -5.63299 3.60349e-20)
(16.3802 -5.37717 7.42267e-19)
(16.7101 -5.10377 -7.18149e-19)
(17.0199 -4.81642 7.67166e-19)
(17.3174 -4.51037 0)
(17.5997 -4.18923 0)
(17.8671 -3.85093 -4.20616e-20)
(18.1156 -3.50086 8.15806e-19)
(18.3448 -3.1355 0)
(18.5559 -2.75835 4.03711e-19)
(18.7475 -2.37346 4.06141e-19)
(18.9175 -1.97967 -8.23838e-19)
(19.0658 -1.57664 -4.03084e-19)
(19.1909 -1.16656 -2.13684e-19)
(19.295 -0.747009 0)
(19.3791 -0.32392 0)
(19.4408 0.101826 2.54155e-20)
(0.84403 -0.900968 -1.57562e-21)
(1.012 -1.08706 3.05441e-21)
(1.18035 -1.2861 -5.33363e-23)
(1.37777 -1.50314 -2.3094e-21)
(1.56852 -1.73051 2.25667e-21)
(1.78065 -1.96855 -1.10886e-21)
(2.00472 -2.21061 0)
(2.23275 -2.45699 1.88009e-21)
(2.49316 -2.71086 -2.07487e-20)
(2.74625 -2.96724 0)
(3.03223 -3.22804 8.2959e-20)
(3.30816 -3.492 -5.10329e-20)
(3.61348 -3.75498 5.20424e-20)
(3.90644 -4.01559 6.54533e-20)
(4.23176 -4.26091 -8.35973e-20)
(4.5627 -4.51344 -1.00359e-19)
(4.89463 -4.75726 3.28526e-19)
(5.25108 -4.98935 -3.40152e-19)
(5.60115 -5.22195 0)
(5.9615 -5.4386 -9.72993e-21)
(6.35021 -5.64064 9.74918e-19)
(6.72343 -5.83736 -3.3512e-20)
(7.12855 -6.01013 -4.4763e-19)
(7.52198 -6.18225 8.60897e-19)
(7.92512 -6.33634 0)
(8.34256 -6.47137 -5.18613e-19)
(8.7473 -6.59309 -5.27953e-19)
(9.16971 -6.68933 1.15947e-18)
(9.59568 -6.77295 -5.05364e-21)
(10.0154 -6.83886 6.77573e-19)
(10.4492 -6.87863 -1.37497e-18)
(10.8725 -6.90843 2.17088e-18)
(11.2935 -6.91493 -1.54777e-18)
(11.7186 -6.8968 -1.61263e-18)
(12.1431 -6.86204 0)
(12.5545 -6.80911 9.14104e-19)
(12.9833 -6.72608 0)
(13.4003 -6.63113 -6.40952e-21)
(13.8063 -6.51474 1.03961e-18)
(14.2006 -6.37244 -1.95472e-18)
(14.5714 -6.21647 -1.10137e-20)
(14.9386 -6.04361 -2.13895e-18)
(15.2929 -5.85908 0)
(15.6528 -5.64557 -6.19914e-19)
(16.0096 -5.40656 2.35789e-18)
(16.3464 -5.15204 -5.98884e-19)
(16.6704 -4.8843 6.26103e-19)
(16.9592 -4.61144 0)
(17.2402 -4.31347 6.35959e-19)
(17.5027 -3.99972 -1.91737e-18)
(17.7555 -3.667 -2.5947e-20)
(17.9881 -3.32855 0)
(18.1998 -2.97711 6.54526e-19)
(18.399 -2.61187 -1.96519e-20)
(18.5808 -2.23851 0)
(18.7374 -1.85686 3.65464e-19)
(18.877 -1.47626 -3.31596e-19)
(18.9893 -1.08322 3.47422e-19)
(19.0826 -0.678658 3.43092e-19)
(19.1627 -0.267526 -1.72309e-19)
(19.2149 0.142785 -6.49685e-20)
(20.7972 0.855518 1.52493e-19)
(20.8327 1.38859 -5.16886e-20)
(20.841 1.92283 0)
(20.8216 2.45673 0)
(20.7748 2.98847 8.1556e-19)
(20.7008 3.5168 1.17183e-18)
(20.5996 4.04005 -1.20286e-18)
(20.4715 4.55722 -3.95213e-19)
(20.3167 5.06738 3.95374e-19)
(20.136 5.569 7.70373e-19)
(19.9298 6.06139 -7.7123e-19)
(19.6986 6.54285 -7.46658e-19)
(19.4441 7.01161 3.71185e-18)
(19.167 7.46681 7.19479e-19)
(18.8675 7.90741 -6.34488e-18)
(18.5463 8.33196 0)
(18.2044 8.7396 0)
(17.843 9.1294 6.54912e-19)
(17.463 9.50087 1.93179e-18)
(17.0651 9.8527 -4.95609e-18)
(16.6509 10.1843 -7.29429e-20)
(16.2212 10.4953 1.13156e-18)
(15.7771 10.7847 1.16182e-18)
(15.3197 11.0522 -4.31568e-18)
(14.8501 11.2979 0)
(14.3689 11.521 2.01452e-18)
(13.8778 11.7199 -1.85929e-18)
(13.3786 11.8943 0)
(12.8724 12.0439 0)
(12.3608 12.1684 -8.4373e-19)
(11.8451 12.268 -1.53089e-18)
(11.3264 12.3422 2.17158e-18)
(10.8062 12.3915 0)
(10.2857 12.4157 0)
(9.76619 12.4148 1.06746e-18)
(9.2489 12.3892 -1.00584e-18)
(8.73513 12.339 0)
(8.22615 12.2647 1.53646e-18)
(7.72297 12.1665 3.09949e-19)
(7.22684 12.0449 -8.45249e-19)
(6.73893 11.9003 3.30626e-20)
(6.26064 11.7334 3.14608e-19)
(5.79273 11.545 -2.79129e-19)
(5.33637 11.3353 4.50964e-20)
(4.8927 11.1055 0)
(4.46242 10.8562 0)
(4.04655 10.588 -3.68239e-19)
(3.64598 10.3019 -6.53808e-20)
(3.26169 9.99891 3.039e-19)
(2.89433 9.6802 1.1936e-19)
(2.54451 9.34656 1.69746e-19)
(2.213 8.99891 -1.71999e-19)
(1.90053 8.63854 -1.09915e-19)
(1.60737 8.26667 1.11439e-19)
(1.3342 7.88423 -6.49806e-19)
(1.08137 7.49268 7.01309e-19)
(0.84929 7.0932 -9.29947e-22)
(0.638211 6.6873 0)
(0.44828 6.27605 1.74035e-19)
(0.279806 5.86055 2.34419e-20)
(0.132836 5.44198 2.46358e-20)
(20.5629 0.0775123 -8.24541e-20)
(20.61 0.597885 0)
(20.6301 1.12035 0)
(20.6231 1.64329 9.41041e-19)
(20.589 2.16469 -6.28224e-19)
(20.5282 2.68344 -2.2089e-18)
(20.4405 3.19853 0)
(20.326 3.7081 0)
(20.1849 4.21151 -1.19463e-18)
(20.018 4.70662 0)
(19.8258 5.19205 -1.74314e-18)
(19.6096 5.66602 1.15492e-18)
(19.3702 6.12841 -5.72957e-19)
(19.1079 6.5785 0)
(18.8229 7.0152 2.25452e-18)
(18.5161 7.43711 1.05239e-18)
(18.1883 7.84312 -1.05502e-18)
(17.8407 8.23208 9.98729e-19)
(17.4741 8.60342 -2.9499e-18)
(17.0894 8.95598 1.98148e-18)
(16.688 9.28871 -1.91976e-18)
(16.2708 9.60117 -9.77947e-19)
(15.8389 9.89222 -8.81743e-19)
(15.3934 10.1613 2.54889e-18)
(14.9352 10.4081 8.15187e-19)
(14.4657 10.6326 7.407e-19)
(13.9863 10.8339 -6.68567e-19)
(13.4983 11.0113 0)
(13.0029 11.1644 0)
(12.5016 11.2928 0)
(11.9954 11.3965 0)
(11.4858 11.4752 0)
(10.9743 11.529 0)
(10.4618 11.5579 0)
(9.94991 11.5618 -4.43673e-19)
(9.43977 11.5409 3.91467e-19)
(8.93273 11.4952 3.04346e-19)
(8.42998 11.4253 -1.46821e-18)
(7.93262 11.3314 -2.19451e-19)
(7.44197 11.2139 6.50975e-19)
(6.95923 11.0732 3.41591e-19)
(6.48573 10.9098 -2.53765e-19)
(6.02233 10.7245 8.41213e-20)
(5.57035 10.5176 4.89829e-20)
(5.13085 10.29 3.66428e-20)
(4.70463 10.0424 -3.70655e-20)
(4.29273 9.77541 1.82841e-19)
(3.89608 9.48997 0)
(3.51571 9.18703 1.01766e-19)
(3.15237 8.86758 -2.25149e-19)
(2.8067 8.53254 1.23683e-19)
(2.47957 8.18281 0)
(2.1718 7.81955 -3.45113e-19)
(1.8836 7.44393 0)
(1.61586 7.05692 0)
(1.36878 6.65995 -1.03272e-18)
(1.14297 6.25424 4.94115e-19)
(0.938591 5.84126 1.34819e-19)
(0.756194 5.42203 -1.40892e-19)
(0.59605 4.99784 0)
(0.458381 4.56991 -3.92796e-20)
(20.3514 0.446702 6.2948e-20)
(20.3866 0.950327 0)
(20.3952 1.45436 -2.50088e-19)
(20.3777 1.95812 -1.64559e-20)
(20.3342 2.46077 0)
(20.2644 2.96212 1.99418e-18)
(20.1685 3.46003 9.70783e-19)
(20.0462 3.95275 0)
(19.8985 4.43798 3.17205e-20)
(19.7266 4.91467 9.34115e-19)
(19.531 5.38133 1.41548e-18)
(19.312 5.8361 -4.6522e-19)
(19.0696 6.27878 0)
(18.8051 6.70871 0)
(18.5191 7.12494 1.70139e-18)
(18.2124 7.52635 -8.36674e-19)
(17.8858 7.91192 -7.82334e-19)
(17.5403 8.2807 0)
(17.1768 8.63195 2.35499e-18)
(16.7963 8.96478 -2.25637e-18)
(16.4 9.27831 -1.43682e-18)
(15.9889 9.57187 -1.38673e-18)
(15.5641 9.84459 0)
(15.1266 10.0957 -1.97129e-18)
(14.6777 10.3247 -6.42006e-19)
(14.2187 10.531 5.82282e-19)
(13.7505 10.7144 5.71157e-19)
(13.2745 10.8746 0)
(12.7917 11.0112 0)
(12.3036 11.124 0)
(11.8113 11.2128 0)
(11.3161 11.2776 0)
(10.8192 11.3183 0)
(10.322 11.3349 0)
(9.82583 11.3275 -9.47842e-19)
(9.33171 11.2961 3.02189e-19)
(8.84095 11.241 -2.33559e-19)
(8.35467 11.1623 1.10355e-18)
(7.874 11.0607 0)
(7.40014 10.9363 2.89664e-19)
(6.93427 10.7897 2.23284e-19)
(6.47757 10.6214 9.09261e-20)
(6.03106 10.4319 -3.89425e-20)
(5.59585 10.2219 -2.48404e-20)
(5.17297 9.99199 -7.43353e-20)
(4.76326 9.7428 3.39186e-20)
(4.36759 9.47513 1.70614e-19)
(3.98689 9.1898 0)
(3.62204 8.88778 0)
(3.27386 8.56993 9.68683e-20)
(2.94304 8.23719 1.12863e-19)
(2.63025 7.89051 2.41148e-19)
(2.3362 7.53085 2.71786e-19)
(2.06129 7.15936 0)
(1.8062 6.77693 3.2819e-19)
(1.57111 6.38504 3.58952e-19)
(1.35651 5.98476 0)
(1.16273 5.5776 -2.15686e-21)
(0.99029 5.1645 0)
(0.839397 4.74678 0)
(0.710321 4.32554 3.00968e-20)
(20.194 0.377798 -1.04269e-19)
(20.2282 0.868287 2.03526e-19)
(20.2364 1.35978 -4.0019e-19)
(20.2183 1.85117 -2.14727e-19)
(20.1736 2.34162 0)
(20.1031 2.82982 -8.28881e-19)
(20.0078 3.3148 -8.20175e-19)
(19.8883 3.79558 0)
(19.7445 4.26925 3.37698e-20)
(19.5765 4.73494 -7.88065e-19)
(19.385 5.19152 1.48527e-18)
(19.1703 5.63809 1.45928e-18)
(18.933 6.07289 0)
(18.674 6.49497 -7.07449e-19)
(18.3941 6.90335 -1.40384e-18)
(18.094 7.2969 -6.91844e-19)
(17.7745 7.67474 2.01857e-18)
(17.4365 8.03602 -1.29465e-18)
(17.0809 8.38003 1.2568e-18)
(16.7089 8.70596 1.81916e-18)
(16.3214 9.01303 2.35719e-18)
(15.9196 9.3005 1.16232e-18)
(15.5044 9.56759 5.34229e-19)
(15.077 9.81362 1.60876e-18)
(14.6383 10.0381 4.91264e-19)
(14.1896 10.2404 4.90298e-19)
(13.732 10.4204 4.40717e-19)
(13.2667 10.5777 -1.28165e-18)
(12.795 10.7119 7.90272e-19)
(12.318 10.8228 7.31808e-19)
(11.837 10.9102 -1.41613e-18)
(11.353 10.9741 6.84208e-19)
(10.8676 11.0145 -5.88337e-19)
(10.3818 11.0314 2.7481e-19)
(9.89708 11.0249 2.6333e-19)
(9.41446 10.9949 2.08337e-19)
(8.93514 10.9416 -2.09761e-19)
(8.46018 10.8654 -1.94773e-19)
(7.99071 10.7667 -4.28151e-19)
(7.52791 10.6458 -2.39239e-19)
(7.07294 10.5032 -3.50242e-19)
(6.62688 10.3395 -2.89269e-19)
(6.19088 10.1553 6.76125e-20)
(5.76595 9.95093 6.19712e-21)
(5.3531 9.72717 2.72228e-20)
(4.95321 9.48455 5.85217e-20)
(4.56695 9.22389 -4.30854e-19)
(4.19532 8.946 8.50716e-20)
(3.83909 8.65187 0)
(3.4992 8.34227 0)
(3.17619 8.01807 1.73475e-19)
(2.87085 7.68038 -3.3056e-23)
(2.58378 7.33 -2.1957e-19)
(2.3154 6.96801 0)
(2.06628 6.59521 -2.66357e-19)
(1.83656 6.21308 0)
(1.62676 5.82278 0)
(1.43706 5.42561 -2.49153e-19)
(1.26826 5.02273 -8.7856e-20)
(1.12031 4.61532 9.11019e-20)
(0.99381 4.20454 -4.81043e-20)
(20.0346 0.433801 1.88607e-21)
(20.064 0.911472 -1.7611e-19)
(20.0681 1.3905 5.15324e-19)
(20.0471 1.8694 3.41106e-19)
(20.0013 2.34668 -5.01706e-19)
(19.9307 2.82029 3.34471e-19)
(19.8355 3.2891 -3.25692e-21)
(19.7162 3.75261 -6.4564e-19)
(19.5733 4.21032 9.793e-19)
(19.4074 4.66048 -1.27469e-18)
(19.2188 5.10198 1.1972e-18)
(19.0078 5.53363 -1.27206e-18)
(18.7751 5.95416 -6.09955e-19)
(18.5215 6.36263 0)
(18.2476 6.75781 6.24018e-19)
(17.9543 7.13858 5.3121e-19)
(17.6422 7.50424 0)
(17.3121 7.85385 1.04317e-18)
(16.965 8.18676 0)
(16.6019 8.50227 -1.02716e-18)
(16.2239 8.79954 9.02954e-19)
(15.8322 9.07784 -4.0784e-20)
(15.4277 9.33631 -4.40517e-20)
(15.0114 9.57425 3.25902e-22)
(14.5842 9.79128 -1.68428e-18)
(14.1473 9.98693 -7.60846e-19)
(13.7018 10.1609 1.48415e-18)
(13.2488 10.3129 1.36441e-18)
(12.7897 10.4426 -6.78455e-19)
(12.3255 10.5496 0)
(11.8575 10.6338 0)
(11.3865 10.6953 0)
(10.9141 10.7341 5.04044e-19)
(10.4414 10.7502 -1.74456e-18)
(9.96985 10.7435 8.02056e-19)
(9.50038 10.714 -3.79981e-19)
(9.03412 10.6619 -5.89598e-19)
(8.57209 10.5875 5.47509e-19)
(8.11528 10.4912 1.96853e-20)
(7.66497 10.3735 -1.54951e-19)
(7.22224 10.2349 1.72606e-19)
(6.78813 10.0758 9.62313e-20)
(6.36385 9.89677 0)
(5.95039 9.6984 5.42298e-21)
(5.5487 9.48124 0)
(5.15972 9.24566 1.44285e-19)
(4.78387 8.99262 -6.13656e-20)
(4.42216 8.72289 0)
(4.07522 8.43746 1.15863e-19)
(3.74432 8.13703 1.89471e-20)
(3.42969 7.82235 -2.91007e-19)
(3.13214 7.49459 1.65724e-19)
(2.85245 7.15452 1.05653e-19)
(2.59074 6.80313 -1.95245e-19)
(2.3479 6.44118 7.6879e-21)
(2.12342 6.06997 -1.1597e-19)
(1.91832 5.69075 -6.18618e-20)
(1.73242 5.30486 -1.36257e-19)
(1.56687 4.9134 3.59235e-19)
(1.42129 4.51755 -1.5185e-19)
(1.29681 4.1184 2.00111e-20)
(19.868 0.465756 3.71434e-20)
(19.8935 0.92842 0)
(19.8946 1.39211 -5.76706e-19)
(19.8714 1.85566 0)
(19.8241 2.31768 2.86194e-19)
(19.753 2.77705 8.33724e-19)
(19.6581 3.23229 5.447e-19)
(19.5398 3.68212 1.10241e-18)
(19.3987 4.1258 8.95602e-21)
(19.2353 4.56226 -8.03639e-21)
(19.0501 4.98994 -6.05702e-20)
(18.8433 5.40791 -5.20827e-19)
(18.6156 5.81508 5.00618e-19)
(18.3676 6.21057 -1.46712e-18)
(18.1002 6.59321 9.92998e-19)
(17.8141 6.96181 -4.76543e-20)
(17.5098 7.31563 -8.96388e-19)
(17.188 7.65381 -9.16362e-19)
(16.8497 7.97588 0)
(16.4959 8.2813 8.16224e-19)
(16.1279 8.56911 -3.78319e-20)
(15.7467 8.83861 -1.59763e-18)
(15.3534 9.08888 -4.43804e-21)
(14.9487 9.31905 -6.58265e-19)
(14.5335 9.52898 1.99659e-18)
(14.1089 9.71821 -3.56938e-20)
(13.6759 9.88646 -6.34542e-19)
(13.2358 10.0336 -6.74853e-20)
(12.7899 10.1592 0)
(12.3392 10.2628 0)
(11.8847 10.3443 0)
(11.4273 10.4039 0)
(10.9685 10.4415 0)
(10.5094 10.4574 5.06961e-20)
(10.0517 10.4512 -3.07934e-19)
(9.59594 10.4228 3.92558e-20)
(9.14335 10.3725 5.07535e-20)
(8.69483 10.3003 1.85605e-19)
(8.25114 10.2071 3.43481e-19)
(7.81371 10.0932 -4.09253e-19)
(7.38367 9.95898 2.29828e-19)
(6.96182 9.80509 -5.72019e-20)
(6.54959 9.63207 0)
(6.14796 9.44041 -4.7308e-21)
(5.75777 9.23073 0)
(5.38023 9.00294 -7.90898e-20)
(5.01497 8.75833 1.1559e-19)
(4.66363 8.49756 -7.17377e-20)
(4.32619 8.22182 -8.62438e-20)
(4.0046 7.93148 1.19397e-19)
(3.6986 7.62724 1.72354e-20)
(3.40903 7.31042 1.47446e-20)
(3.13691 6.98155 -3.13875e-19)
(2.88204 6.64175 3.52262e-19)
(2.64567 6.29138 1.90602e-19)
(2.4265 5.93206 9.91223e-20)
(2.22629 5.56478 3.26963e-19)
(2.04383 5.19109 0)
(1.88148 4.81196 -2.46683e-19)
(1.73803 4.42865 6.52063e-20)
(1.61543 4.04199 0)
(19.6852 0.500078 0)
(19.7064 0.947335 0)
(19.7042 1.39555 2.50357e-19)
(19.6785 1.84336 -4.78313e-19)
(19.6297 2.28974 -2.4588e-19)
(19.5581 2.7336 -1.19139e-18)
(19.4639 3.1732 4.58769e-19)
(19.3468 3.60745 -9.47357e-19)
(19.2076 4.03612 1.58811e-20)
(19.0471 4.45798 1.33728e-18)
(18.8658 4.87108 -1.78089e-18)
(18.6637 5.27463 0)
(18.4413 5.66746 0)
(18.1993 6.04946 1.67623e-18)
(17.9389 6.41916 8.0738e-19)
(17.6608 6.77465 -1.63736e-18)
(17.3648 7.11589 2.33993e-18)
(17.0519 7.44194 7.41173e-19)
(16.7227 7.75249 -1.45235e-18)
(16.3785 8.04739 -7.26686e-19)
(16.021 8.32515 6.67491e-19)
(15.6509 8.58549 -6.97302e-20)
(15.2694 8.8273 0)
(14.8773 9.04908 1.24115e-18)
(14.4747 9.25147 -1.74368e-18)
(14.063 9.43392 5.61018e-19)
(13.6433 9.59601 1.00288e-18)
(13.2165 9.73816 -2.42378e-18)
(12.7847 9.85928 4.7344e-19)
(12.3481 9.95965 0)
(11.9083 10.0379 0)
(11.465 10.0957 0)
(11.0208 10.1321 3.16697e-19)
(10.5759 10.1484 8.89778e-19)
(10.1332 10.1429 -5.18063e-19)
(9.69217 10.1159 2.20888e-19)
(9.25421 10.0677 2.08532e-19)
(8.82037 9.99787 -3.64658e-19)
(8.39052 9.90787 0)
(7.96666 9.79808 -1.77991e-19)
(7.55016 9.66845 9.27312e-20)
(7.14098 9.52002 1.27044e-20)
(6.74123 9.35332 1.02147e-20)
(6.35205 9.16881 -3.32769e-21)
(5.97374 8.96741 -1.09342e-20)
(5.60875 8.74775 2.47543e-19)
(5.25443 8.51233 -9.70655e-20)
(4.9143 8.26097 2.84356e-19)
(4.58639 7.99585 0)
(4.27511 7.71655 0)
(3.97821 7.42341 -4.58612e-19)
(3.69675 7.11845 1.22802e-19)
(3.43315 6.80171 2.78054e-19)
(3.18518 6.47444 1.6023e-19)
(2.95639 6.13632 -5.04466e-19)
(2.7424 5.78957 -2.78728e-19)
(2.54769 5.43481 -1.0164e-19)
(2.36828 5.07427 -1.81688e-21)
(2.20982 4.70839 1.08268e-19)
(2.06805 4.33843 0)
(1.94779 3.96505 0)
(19.4801 0.530848 -2.53909e-20)
(19.4965 0.961681 0)
(19.4907 1.39348 0)
(19.4622 1.82501 2.12342e-19)
(19.4118 2.2548 0)
(19.3399 2.68237 8.12864e-19)
(19.2471 3.10552 3.99135e-19)
(19.1315 3.52301 -7.83869e-19)
(18.9939 3.93654 0)
(18.8367 4.34404 -7.92299e-19)
(18.6608 4.74094 4.36072e-20)
(18.4638 5.12941 0)
(18.2476 5.50666 0)
(18.0118 5.87431 -7.32897e-19)
(17.7588 6.23124 6.75149e-19)
(17.49 6.57242 -6.97982e-19)
(17.203 6.90043 -6.79003e-19)
(16.8994 7.21406 0)
(16.5802 7.51193 6.38631e-19)
(16.2461 7.79586 -1.16113e-18)
(15.9 8.06268 -1.11875e-18)
(15.5416 8.31349 -1.14618e-18)
(15.1723 8.54715 -7.61409e-21)
(14.7945 8.75937 -9.35869e-19)
(14.4048 8.95377 9.95534e-19)
(14.0062 9.12943 8.91734e-19)
(13.601 9.28437 -9.02129e-19)
(13.1877 9.42159 5.72097e-20)
(12.7709 9.53752 -6.49146e-22)
(12.3485 9.63545 -7.44376e-19)
(11.9251 9.70925 0)
(11.4957 9.76617 -5.80543e-19)
(11.0677 9.80042 1.11514e-18)
(10.6368 9.8183 -4.34953e-20)
(10.2113 9.81394 4.66245e-19)
(9.78616 9.78846 -3.71238e-19)
(9.36394 9.74285 3.05739e-19)
(8.94684 9.67507 2.04368e-19)
(8.53155 9.58856 -4.58821e-19)
(8.12182 9.48317 1.81953e-19)
(7.72055 9.35837 9.8165e-20)
(7.32389 9.21553 7.84928e-20)
(6.93668 9.05521 -6.21444e-21)
(6.56097 8.87816 0)
(6.19381 8.68646 8.28749e-21)