/*--------------------------------*- C++ -*----------------------------------*\
| =========                 |                                                 |
| \\      /  F ield         | OpenFOAM: The Open Source CFD Toolbox           |
|  \\    /   O peration     | Version:  2.3.1                                 |
|   \\  /    A nd           | Web:      www.OpenFOAM.org                      |
|    \\/     M anipulation  |                                                 |
\*---------------------------------------------------------------------------*/
FoamFile
{
    version     2.0;
    format      ascii;
    class       volScalarField;
    location    "0.59";
    object      k;
}
// * * * * * * * * * * * * * * * * * * * * * * * * * * * * * * * * * * * * * //

dimensions      [0 2 -2 0 0 0 0];

internalField   nonuniform List<scalar> 
9648
(
2.68512
2.68497
2.68415
2.68055
2.67379
2.66308
2.64824
2.62956
2.60684
2.58005
2.54922
2.5146
2.47665
2.43596
2.39323
2.34923
2.30472
2.26042
2.21694
2.17482
2.13448
2.09623
2.06031
2.02683
1.99587
1.96745
1.94155
1.9181
1.89704
1.87828
1.86172
1.84727
1.83483
1.82431
1.81561
1.80866
1.80336
1.79964
1.79744
1.79669
1.79735
1.79936
1.8027
1.80733
1.81323
1.82038
1.82882
1.83856
1.84961
1.86202
1.87581
1.89105
1.90778
1.92598
1.9457
1.9668
1.98902
2.0119
2.03498
2.05785
2.08016
1.70625
1.69998
1.6936
1.68771
1.68466
1.68657
1.69544
1.71265
1.73795
1.77125
1.81226
1.86031
1.91446
1.97365
2.03684
2.10301
2.17123
2.24068
2.31066
2.38064
2.45015
2.51886
2.58653
2.65301
2.71819
2.78206
2.84466
2.90602
2.96617
3.02521
3.08326
3.14039
3.19666
3.25222
3.30711
3.3614
3.4152
3.4686
3.52159
3.57415
3.62637
3.67836
3.73006
3.78147
3.83267
3.88353
3.93405
3.98435
4.03448
4.08429
4.13369
4.18258
4.23104
4.27869
4.32581
4.37213
4.41785
4.46227
4.50565
4.54801
4.58943
1.4102
1.44734
1.48817
1.53518
1.59111
1.65704
1.73255
1.81721
1.91017
2.01068
2.11738
2.22921
2.34491
2.46324
2.58299
2.70302
2.82242
2.94027
3.05589
3.16873
3.27837
3.38452
3.487
3.58575
3.68082
3.7723
3.86036
3.94512
4.02679
4.10557
4.18164
4.25524
4.32661
4.39585
4.46315
4.52871
4.59263
4.65508
4.71613
4.7759
4.83447
4.89191
4.94834
5.00382
5.05832
5.11183
5.16435
5.21593
5.26645
5.31591
5.36428
5.41163
5.45814
5.50313
5.54754
5.59034
5.63229
5.6723
5.71158
5.74972
5.78679
1.34418
1.42391
1.51051
1.60592
1.71134
1.82711
1.95284
2.08748
2.22959
2.37768
2.52997
2.68495
2.84104
2.99696
3.15137
3.30312
3.45132
3.5952
3.73419
3.86786
3.99595
4.11823
4.23474
4.34556
4.45093
4.55109
4.64635
4.73701
4.82337
4.90573
4.9845
5.05995
5.13241
5.20217
5.26942
5.33444
5.39742
5.45854
5.51796
5.57583
5.63228
5.68746
5.74146
5.79441
5.8463
5.89718
5.9471
5.99607
6.04401
6.09094
6.13698
6.18178
6.22556
6.26814
6.31003
6.35067
6.3901
6.42832
6.4654
6.50137
6.53602
1.38833
1.50525
1.63176
1.76846
1.91573
2.07359
2.24119
2.41689
2.5989
2.78507
2.97335
3.16177
3.34874
3.53284
3.71276
3.88725
4.05548
4.21689
4.371
4.51767
4.65669
4.78799
4.91172
5.0281
5.1376
5.24068
5.33771
5.42917
5.51539
5.59685
5.67398
5.74718
5.81694
5.88353
5.94721
6.00834
6.06718
6.12386
6.17863
6.23164
6.28306
6.33306
6.38182
6.42945
6.47599
6.52148
6.56597
6.60947
6.65206
6.69353
6.73404
6.77346
6.81165
6.84867
6.88466
6.91973
6.95359
6.98632
7.01782
7.04798
7.07684
1.48101
1.63173
1.79429
1.96825
2.15307
2.34827
2.55252
2.76388
2.97995
3.19813
3.41609
3.63147
3.84278
4.04841
4.24746
4.43844
4.62049
4.79344
4.95678
5.11073
5.25529
5.39026
5.51617
5.63312
5.74196
5.84335
5.9378
6.02598
6.1081
6.18479
6.25666
6.32404
6.38766
6.44788
6.50485
6.55904
6.61089
6.6604
6.7079
6.75354
6.79738
6.83978
6.88093
6.92101
6.95998
6.99796
7.03509
7.07113
7.10633
7.14054
7.17369
7.20574
7.23667
7.26632
7.29491
7.32243
7.34897
7.37444
7.39856
7.42111
7.44246
1.60195
1.78406
1.98017
2.18848
2.40733
2.63597
2.87254
3.1148
3.3602
3.60512
3.84758
4.08438
4.31444
4.53599
4.74922
4.95156
5.14241
5.32212
5.48982
5.64646
5.79231
5.92663
6.05078
6.16415
6.26836
6.36439
6.45263
6.53435
6.60917
6.67796
6.74168
6.80024
6.85494
6.90619
6.95374
6.99835
7.0409
7.08081
7.11883
7.15498
7.18909
7.22174
7.25322
7.2838
7.31309
7.34146
7.36907
7.39575
7.42174
7.44672
7.4707
7.49353
7.51528
7.53563
7.55467
7.5729
7.59029
7.60667
7.62149
7.63456
7.64641
1.7394
1.95049
2.17784
2.41779
2.66748
2.92541
3.19016
3.45932
3.72967
3.99691
4.25945
4.51268
4.75652
4.98848
5.21152
5.42099
5.6165
5.79944
5.96725
6.1223
6.26585
6.39554
6.51513
6.62119
6.71695
6.80414
6.88271
6.95525
7.0198
7.07783
7.13104
7.1779
7.22093
7.26066
7.29621
7.32873
7.35946
7.38694
7.41309
7.43762
7.45969
7.48011
7.49954
7.51828
7.53555
7.5522
7.5678
7.58269
7.59696
7.61048
7.62293
7.63423
7.64474
7.65345
7.66084
7.66761
7.67318
7.67879
7.6823
7.68345
7.68394
1.88511
2.12015
2.37603
2.64206
2.92059
3.20275
3.49027
3.78414
4.07329
4.3601
4.63766
4.90562
5.15818
5.39583
5.62315
5.8365
6.03362
6.21655
6.38522
6.53531
6.67176
6.79437
6.90548
7.00468
7.08879
7.16299
7.22962
7.29027
7.34157
7.38667
7.42715
7.46139
7.49054
7.51565
7.53608
7.55478
7.56942
7.58169
7.59373
7.6033
7.61063
7.61505
7.6209
7.62511
7.6278
7.63144
7.63127
7.63185
7.63027
7.62843
7.62479
7.62077
7.61726
7.61186
7.60528
7.5984
7.58819
7.58234
7.57196
7.55782
7.54491
2.1016
2.12204
2.14162
2.1603
2.17813
2.19526
2.21193
2.22852
2.24497
2.26052
2.27487
2.28866
2.302
2.31512
2.32831
2.34219
2.35715
2.37349
2.3915
2.41159
2.43339
2.45647
2.48058
2.50533
2.53043
2.55593
2.58195
2.6082
2.63462
2.66126
2.68823
2.71544
2.74287
2.7707
2.79884
2.82729
2.85613
2.88545
2.9152
2.94531
2.97586
3.00697
3.03861
3.07073
3.10345
3.13659
3.17017
3.20432
3.2391
3.27436
3.31016
3.34657
3.38371
3.42134
3.45979
3.499
3.53926
3.58028
3.6224
3.66577
3.71048
4.62993
4.66835
4.70583
4.74251
4.77813
4.81224
4.84439
4.87525
4.90383
4.93163
4.95768
4.9827
5.00661
5.02948
5.05119
5.07162
5.09088
5.10892
5.12579
5.14146
5.15597
5.16937
5.18153
5.19251
5.20234
5.21096
5.21826
5.22398
5.22821
5.23094
5.23217
5.23193
5.23028
5.22718
5.22268
5.21686
5.20966
5.2012
5.19143
5.18037
5.1681
5.15464
5.14008
5.12437
5.1075
5.08939
5.06993
5.04919
5.02708
5.00364
4.97883
4.95257
4.92502
4.89572
4.86539
4.83343
4.80047
4.76602
4.73116
4.69574
4.65993
5.82217
5.85643
5.88908
5.92079
5.95144
5.98144
6.00951
6.03625
6.06076
6.08394
6.10548
6.12576
6.14462
6.16239
6.17885
6.19394
6.20766
6.22
6.23095
6.24049
6.24869
6.25553
6.26102
6.26515
6.26792
6.26929
6.26931
6.26793
6.26509
6.26074
6.25493
6.24757
6.23869
6.22834
6.21651
6.20323
6.18848
6.17229
6.15466
6.13562
6.11525
6.09364
6.07084
6.0469
6.02177
5.99539
5.96761
5.93838
5.90765
5.8754
5.84162
5.80605
5.7688
5.72971
5.68899
5.64634
5.60197
5.55615
5.50934
5.46164
5.41318
6.56963
6.60192
6.6329
6.66229
6.69043
6.71733
6.74276
6.76653
6.78862
6.80905
6.82785
6.84506
6.86069
6.87482
6.88733
6.89838
6.90792
6.91591
6.92233
6.92718
6.93051
6.9324
6.93286
6.93191
6.9295
6.92559
6.92016
6.91325
6.90487
6.895
6.88358
6.87054
6.85589
6.83964
6.82187
6.80255
6.78166
6.75916
6.73505
6.70939
6.6823
6.65389
6.62436
6.59377
6.56219
6.52954
6.49562
6.46037
6.42371
6.38566
6.34607
6.3048
6.26183
6.21705
6.1704
6.1217
6.07112
6.01896
5.96572
5.91142
5.85651
7.10437
7.1307
7.15555
7.17879
7.20033
7.22026
7.23858
7.25527
7.27056
7.28446
7.29681
7.30763
7.31695
7.32465
7.3308
7.33549
7.33857
7.34004
7.33981
7.3379
7.33442
7.3295
7.32323
7.31566
7.30669
7.29626
7.2844
7.27113
7.25656
7.24069
7.22347
7.2047
7.18436
7.16248
7.13916
7.11435
7.08796
7.05994
7.03018
6.99874
6.96578
6.93145
6.89604
6.85979
6.82284
6.78522
6.74655
6.70684
6.66598
6.62412
6.58087
6.53603
6.48969
6.44158
6.3916
6.33929
6.28509
6.22912
6.17208
6.11392
6.05522
7.46245
7.48108
7.49812
7.51367
7.52747
7.53952
7.54997
7.55863
7.56565
7.57113
7.57521
7.57787
7.57904
7.57861
7.5766
7.57319
7.56831
7.56176
7.55336
7.54307
7.53112
7.51775
7.50313
7.48741
7.4704
7.45196
7.43212
7.41097
7.38881
7.36575
7.3418
7.3165
7.28988
7.26182
7.23264
7.20212
7.17004
7.1364
7.10095
7.06371
7.02482
6.98435
6.94277
6.90054
6.85799
6.81542
6.77201
6.72817
6.6835
6.63859
6.59262
6.54507
6.49643
6.44615
6.39428
6.33966
6.28321
6.2247
6.16559
6.10516
6.04428
7.65701
7.66628
7.67399
7.68009
7.68445
7.68702
7.68779
7.687
7.68456
7.68025
7.67455
7.66769
7.65938
7.64947
7.63786
7.62512
7.61131
7.59582
7.5783
7.55847
7.53674
7.51365
7.48938
7.46435
7.43827
7.41066
7.38162
7.35107
7.31982
7.28824
7.2568
7.22433
7.1912
7.15682
7.12202
7.08622
7.04862
7.00959
6.96884
6.92634
6.88199
6.83559
6.78784
6.73948
6.691
6.64359
6.5952
6.5474
6.49903
6.45198
6.4045
6.35508
6.30522
6.25381
6.20153
6.14549
6.08817
6.02818
5.9688
5.90761
5.84639
7.68299
7.68107
7.67746
7.67266
7.66612
7.65815
7.64805
7.63739
7.62524
7.61043
7.59422
7.5775
7.55923
7.53949
7.51727
7.49417
7.47135
7.44721
7.42104
7.39145
7.3591
7.32586
7.2913
7.2561
7.22076
7.18381
7.14531
7.10405
7.06175
7.0198
6.98019
6.93982
6.90033
6.85996
6.82083
6.78167
6.73944
6.69505
6.64972
6.60371
6.55538
6.5041
6.45099
6.39683
6.34235
6.2908
6.23704
6.18557
6.13325
6.08537
6.03834
5.98798
5.93805
5.88674
5.83588
5.77919
5.72251
5.66182
5.60434
5.5442
5.48507
7.52898
7.51347
7.49481
7.4769
7.4562
7.43765
7.41493
7.3946
7.37417
7.351
7.32576
7.30079
7.27345
7.24602
7.21305
7.17745
7.14536
7.11448
7.08392
7.04851
7.00447
6.96272
6.91928
6.87317
6.82846
6.78338
6.73913
6.68888
6.63258
6.57743
6.52851
6.47872
6.43242
6.38623
6.34644
6.3088
6.26506
6.21474
6.16504
6.11839
6.07044
6.01677
5.95933
5.90137
5.84198
5.78804
5.72801
5.67305
5.6155
5.56941
5.52569
5.47486
5.42669
5.37779
5.33089
5.27413
5.21964
5.15853
5.10513
5.04828
4.99444
3.75652
3.80353
3.85178
3.90129
3.95206
4.00424
4.05775
4.11272
4.16889
4.22622
4.28485
4.3445
4.40506
4.46877
4.54754
4.61942
4.69023
4.76182
4.83421
4.90754
4.98182
5.05709
5.13323
5.21017
5.28772
5.36566
5.44386
5.52213
5.60028
5.67799
5.75516
5.83148
5.90654
5.98015
6.05194
6.12137
6.18798
6.25122
6.30715
6.34815
6.37615
6.39189
6.3953
6.38571
6.36208
6.32298
6.26651
6.19035
6.09175
5.96754
5.8139
5.62635
5.39983
5.12751
4.79608
4.23959
3.98147
3.84804
3.79447
3.7697
3.71994
4.62344
4.58658
4.54891
4.51054
4.4715
4.43245
4.39314
4.35434
4.31555
4.27716
4.23987
4.19752
4.15153
4.10809
4.05946
4.0126
3.96569
3.91866
3.872
3.82597
3.78058
3.73554
3.69076
3.6462
3.60177
3.55749
3.51337
3.4695
3.42592
3.38267
3.33988
3.29767
3.25616
3.21558
3.17617
3.13823
3.10216
3.06857
3.03796
3.01218
2.9885
2.96711
2.94833
2.93275
2.92127
2.91483
2.91444
2.92144
2.93728
2.96327
3.00066
3.05061
3.11437
3.19433
3.27974
3.41119
3.58252
3.84888
4.22765
4.72253
5.06493
5.36418
5.31464
5.26428
5.21281
5.16019
5.10694
5.05335
4.99989
4.94617
4.89212
4.83501
4.76986
4.70505
4.6435
4.58208
4.52139
4.45997
4.39782
4.33532
4.27288
4.21055
4.14806
4.08539
4.0225
3.95931
3.89581
3.83199
3.76784
3.70332
3.63844
3.57315
3.5075
3.44152
3.37525
3.30878
3.24219
3.17561
3.10915
3.04296
2.97728
2.91205
2.8469
2.78231
2.71916
2.65774
2.59863
2.54266
2.49105
2.44541
2.40787
2.3812
2.36891
2.37566
2.40697
2.46566
2.56322
2.70327
2.91624
3.24623
3.74456
4.36221
5.80113
5.74565
5.68946
5.63223
5.57355
5.51421
5.45454
5.39518
5.33552
5.27497
5.20797
5.13492
5.06411
4.99673
4.93051
4.86512
4.79934
4.7333
4.66711
4.60111
4.53517
4.46886
4.40231
4.33558
4.26852
4.2012
4.13357
4.06561
3.9972
3.92833
3.85895
3.78911
3.71883
3.64816
3.57718
3.50597
3.43459
3.3631
3.29151
3.21985
3.14808
3.07614
3.00343
2.92978
2.85588
2.78185
2.70791
2.63449
2.56225
2.49225
2.42589
2.36528
2.31329
2.27363
2.24993
2.24829
2.27687
2.35324
2.50655
2.7796
3.20196
5.99602
5.93712
5.87776
5.81748
5.75526
5.69233
5.62899
5.56632
5.50325
5.439
5.36686
5.29091
5.21794
5.14846
5.08013
5.01266
4.94501
4.87791
4.81113
4.74491
4.67883
4.61209
4.54518
4.4782
4.41088
4.34338
4.27556
4.20742
4.13874
4.06954
3.99977
3.92956
3.85897
3.78813
3.7171
3.64601
3.57494
3.50396
3.43307
3.36229
3.29162
3.22108
3.15056
3.07954
3.00774
2.93532
2.86235
2.7889
2.71512
2.64134
2.56795
2.49554
2.42503
2.3576
2.29472
2.23924
2.19706
2.1789
2.20143
2.28961
2.4738
5.98253
5.92185
5.861
5.7995
5.73512
5.67002
5.60416
5.5397
5.47494
5.4094
5.33526
5.25932
5.18661
5.11782
5.04961
4.98224
4.91458
4.84854
4.78331
4.71914
4.6552
4.59005
4.52506
4.46035
4.39521
4.33003
4.2644
4.19851
4.13183
4.06457
3.99664
3.92842
3.85993
3.79147
3.72301
3.65478
3.58681
3.51924
3.45204
3.3853
3.319
3.25324
3.18799
3.12315
3.05826
2.99282
2.92684
2.8604
2.79355
2.72638
2.65901
2.59146
2.52374
2.45579
2.38744
2.3192
2.25339
2.19525
2.15363
2.1419
2.17887
5.78298
5.72193
5.66109
5.60045
5.53497
5.46902
5.40149
5.33692
5.27225
5.20807
5.1339
5.06002
4.98924
4.92364
4.85742
4.79237
4.72626
4.66329
4.60138
4.54106
4.481
4.41861
4.35734
4.29723
4.23625
4.17544
4.11373
4.05198
3.98886
3.92519
3.86061
3.79625
3.73179
3.66787
3.6041
3.54096
3.47827
3.4164
3.3552
3.29494
3.23547
3.17705
3.1196
3.06308
3.00729
2.95185
2.89598
2.8397
2.78318
2.72657
2.66994
2.61329
2.55643
2.49893
2.44014
2.3794
2.31677
2.25388
2.19444
2.14484
2.11494
5.42075
5.36036
5.30112
5.24397
5.17869
5.11353
5.04514
4.98247
4.91994
4.85998
4.78712
4.71665
4.6488
4.58865
4.52568
4.465
4.4015
4.34346
4.2863
4.23088
4.17579
4.11649
4.06021
4.00728
3.95204
3.89682
3.83975
3.78355
3.7246
3.66539
3.60479
3.54582
3.48679
3.42936
3.37184
3.31559
3.25957
3.20508
3.15159
3.09986
3.04917
3.00018
2.95265
2.90628
2.86096
2.81674
2.77247
2.72774
2.68305
2.63866
2.59489
2.55169
2.50893
2.46607
2.42239
2.37694
2.32893
2.27815
2.22549
2.17321
2.12561
4.93024
4.87026
4.81473
4.76397
4.70054
4.63765
4.56884
4.51083
4.45307
4.39997
4.32958
4.26304
4.19803
4.14548
4.08615
4.03193
3.97148
3.92026
3.86885
3.8178
3.76784
3.71082
3.66069
3.61909
3.57012
3.51941
3.46635
3.4169
3.36118
3.30617
3.24868
3.19709
3.14417
3.09507
3.04433
2.99604
2.94617
2.89997
2.85532
2.81386
2.7734
2.73513
2.69883
2.66368
2.62859
2.59419
2.5602
2.52558
2.49259
2.46017
2.43071
2.40244
2.37601
2.34991
2.32394
2.29672
2.26763
2.23569
2.20087
2.16272
2.12278
3.62788
3.52502
3.41338
3.29414
3.17288
3.05289
2.93685
2.82822
2.73011
2.64458
2.57255
2.51403
2.46815
2.43347
2.40824
2.39068
2.37906
2.37206
2.36863
2.36786
2.36915
2.37204
2.37625
2.3816
2.38801
2.39538
2.40368
2.41286
2.42291
2.4338
2.44544
2.45779
2.47074
2.48414
2.49786
2.51171
2.52547
2.5389
2.55181
2.56398
2.57516
2.58518
2.59391
2.60131
2.60737
2.61225
2.61614
2.61931
2.62206
2.62482
2.62788
2.63149
2.63579
2.64091
2.64672
2.65306
2.65962
2.66626
2.67256
2.67801
2.68225
5.06146
4.99081
4.87174
4.70071
4.51025
4.30262
4.07602
3.83694
3.5937
3.35415
3.12445
2.91099
2.71756
2.5455
2.39513
2.26777
2.16297
2.07841
2.01084
1.9576
1.91615
1.88418
1.85978
1.84157
1.82842
1.81952
1.81447
1.81267
1.81389
1.81785
1.82432
1.83306
1.8438
1.85619
1.86989
1.88454
1.89966
1.91479
1.92933
1.94268
1.95412
1.96286
1.96811
1.96902
1.96495
1.9554
1.94015
1.9195
1.89428
1.86593
1.83625
1.8073
1.78111
1.75924
1.74238
1.73075
1.72356
1.71974
1.71743
1.71499
1.71113
4.86874
5.23157
5.43491
5.45208
5.32285
5.13015
4.87595
4.5831
4.26907
3.94547
3.62413
3.31649
3.03002
2.76988
2.53927
2.33974
2.16996
2.02619
1.9057
1.80776
1.72998
1.66941
1.62297
1.58781
1.56156
1.54241
1.52902
1.52046
1.51594
1.51487
1.51675
1.52117
1.52761
1.53555
1.54448
1.55386
1.56316
1.57185
1.57936
1.58507
1.58835
1.58863
1.58533
1.57789
1.56586
1.54888
1.52678
1.49964
1.46798
1.4328
1.39582
1.35951
1.32684
1.30074
1.28347
1.27667
1.28044
1.29395
1.31541
1.34292
1.37485
3.73287
4.3207
4.88645
5.32727
5.55475
5.60324
5.48787
5.24425
4.93336
4.57626
4.19961
3.82772
3.47279
3.14594
2.85262
2.5932
2.36517
2.16677
1.99709
1.85564
1.74048
1.64931
1.57894
1.52568
1.48596
1.45694
1.43643
1.42291
1.41506
1.41184
1.41251
1.41642
1.42286
1.43107
1.44031
1.4499
1.45911
1.46724
1.47357
1.47733
1.47777
1.47424
1.4661
1.45283
1.43403
1.40956
1.37943
1.34398
1.30377
1.25979
1.21364
1.1678
1.12571
1.09157
1.06977
1.06411
1.07599
1.10479
1.14834
1.20416
1.27002
2.77404
3.20051
3.73934
4.33327
4.88226
5.30695
5.55478
5.59916
5.47434
5.20941
4.85216
4.46255
4.06086
3.67288
3.31457
2.98894
2.69775
2.43928
2.21503
2.02547
1.86848
1.74248
1.64423
1.56919
1.51271
1.47086
1.44076
1.42025
1.4075
1.40095
1.39959
1.40262
1.40916
1.41822
1.42891
1.44036
1.4517
1.46209
1.47066
1.4765
1.47872
1.47651
1.46911
1.45589
1.43631
1.41014
1.37739
1.33836
1.29352
1.24378
1.19061
1.13637
1.0845
1.03972
1.00824
0.996559
1.00847
1.0453
1.10547
1.18539
1.28071
2.28639
2.48816
2.80355
3.23666
3.75984
4.31797
4.83502
5.2287
5.44938
5.48329
5.34347
5.07311
4.70615
4.29877
3.89647
3.50884
3.15303
2.83095
2.54139
2.29025
2.08031
1.91093
1.77837
1.67653
1.59913
1.54077
1.49781
1.46755
1.44759
1.4357
1.43056
1.4312
1.43661
1.44558
1.45703
1.46995
1.48331
1.49616
1.50749
1.51628
1.52148
1.52222
1.5176
1.5069
1.48936
1.46472
1.43283
1.39396
1.34837
1.2969
1.2408
1.18228
1.1246
1.07236
1.03217
1.0122
1.01881
1.0565
1.1259
1.22346
1.34344
2.11851
2.17333
2.30005
2.51867
2.84086
3.26288
3.75716
4.26992
4.73318
5.081
5.26699
5.27989
5.13694
4.87015
4.52432
4.12536
3.72773
3.34775
2.98324
2.65699
2.37824
2.15144
1.97387
1.83673
1.73131
1.65041
1.58954
1.5455
1.51517
1.49527
1.484
1.48019
1.48267
1.48999
1.50086
1.51407
1.52846
1.54293
1.55635
1.56757
1.57544
1.57906
1.57739
1.56969
1.55496
1.53292
1.50329
1.46635
1.42217
1.37158
1.31563
1.25647
1.19717
1.14199
1.09725
1.07152
1.07316
1.10959
1.18442
1.29567
1.43708
2.08968
2.07557
2.09703
2.17086
2.31476
2.54339
2.86288
3.26314
3.71562
4.17145
4.57111
4.8623
5.01538
5.01837
4.88557
4.63994
4.31819
3.94839
3.53269
3.13384
2.77229
2.47204
2.23684
2.05388
1.91156
1.80031
1.71467
1.65101
1.60608
1.57474
1.55455
1.54378
1.54123
1.54508
1.55376
1.56586
1.58002
1.59498
1.60946
1.62219
1.63195
1.63784
1.63873
1.6339
1.62206
1.60297
1.5762
1.54203
1.5004
1.45211
1.39815
1.34056
1.28219
1.22711
1.18124
1.15297
1.15185
1.18753
1.26656
1.38933
1.54965
2.08374
2.05018
2.02986
2.03288
2.07233
2.16288
2.31873
2.54942
2.85484
3.2231
3.62022
4.01011
4.34949
4.60275
4.73935
4.74988
4.63608
4.4041
4.08895
3.68969
3.25502
2.88072
2.58341
2.34662
2.15472
2.00105
1.8799
1.78936
1.72441
1.67677
1.64402
1.62299
1.61261
1.61082
1.61543
1.6248
1.63735
1.65155
1.66597
1.67897
1.68977
1.69702
1.69994
1.69753
1.68857
1.67239
1.64903
1.6179
1.57963
1.53432
1.48368
1.42909
1.37348
1.32091
1.27651
1.24834
1.24666
1.28298
1.36549
1.49793
1.67304
0.291109
6.43292
6.13957
0.217818
0.352064
0.126031
0.00316055
2.37988
0.0033805
0.0233059
3.32168
1.06727
0.00316243
5.88567
0.110502
5.52886
0.00326151
2.48744
3.6207
0.00315512
0.219419
5.73446
6.19038
0.00329861
0.00333437
0.105625
0.00315759
0.499707
0.0032478
0.0034619
0.694561
0.00323838
0.0162719
2.54309
0.779357
3.39717
2.54187
1.57212
0.00316458
2.60144
1.89964
2.0238
0.00320929
4.79778
3.10821
0.279402
0.00361092
0.015209
0.135124
1.0897
6.39757
7.70898
0.00310451
0.00405624
0.0370247
0.00843457
0.00345269
0.677626
2.41498
7.37969
2.4577
0.00369909
0.152521
0.0318384
6.46866
0.453586
1.98554
1.69318
0.00431723
0.00321292
1.19199
2.58454
1.72372
0.0153512
0.0392131
4.06361
6.75013
3.30214
0.00310595
0.926002
0.00711343
2.6175
0.0108124
4.89702
0.00321777
1.07129
0.00336355
2.21286
0.0148395
0.00491924
0.119387
0.0031016
0.00378643
7.54461
5.52309
0.0035975
0.43481
0.296542
0.00603915
6.67346
0.213677
2.48571
0.753654
0.00309758
0.00316457
0.0030938
0.30955
0.124351
0.00324066
6.17935
6.86648
0.00933754
4.44436
1.51156
2.51796
2.74652
1.78763
0.00390428
0.0852336
0.00418921
0.00440662
3.34761
0.00731899
7.43896
7.59365
0.964167
0.00321436
1.02212
1.0258
0.00321004
0.0339684
0.033382
1.69849
0.00569049
3.07417
0.00321976
0.00315978
7.6289
7.72699
0.00322979
0.163023
5.69042
0.105122
0.299422
1.55911
4.79269
0.0385432
1.64751
0.0120907
6.8622
1.21844
0.00872411
2.84102
4.83321
6.35559
0.0033066
0.00326864
0.215439
0.00310931
1.95754
0.0313104
0.00510804
0.0031979
0.00321914
0.00323667
2.8494
1.73541
1.57908
0.00331693
6.56269
4.61766
3.16933
4.87532
0.013921
3.65381
1.71325
1.89648
0.00324127
0.00568856
2.88131
3.07064
2.06423
3.7673
0.0032153
0.00352453
4.75843
0.0359827
0.561099
0.00323749
0.00360728
0.104321
0.00339108
7.62971
0.684703
0.00309856
0.253697
1.78365
5.25368
0.00448753
1.93913
0.0032177
0.00323326
5.03731
2.45613
7.06954
0.0045314
0.00339638
0.00766418
2.79615
2.21928
1.09529
4.92687
1.53335
6.99149
0.188881
4.41022
4.17953
1.93777
1.34958
2.3183
0.00489792
0.0369126
0.00322504
0.00319294
1.82454
0.01817
0.0201624
0.00573956
0.0130671
2.79635
4.57856
0.0188263
5.82343
1.07252
0.409122
0.00318316
0.161231
2.81347
1.03034
0.0041367
1.22754
1.11632
0.177983
0.264146
7.34019
0.797689
0.480169
5.2558
0.00383889
0.00316019
0.00403793
0.0104735
1.75127
0.00336216
0.00653359
0.00316429
0.38743
4.15551
3.9915
2.7432
1.26719
1.42543
7.60949
0.00433832
2.08592
4.51711
0.00320965
2.01107
0.0032172
4.04118
0.385965
1.59832
0.00534151
0.00321982
1.88557
0.492337
0.00323892
0.00323678
0.00325116
0.00324585
0.356052
1.6194
3.04067
0.0147447
0.00324058
0.00316388
0.00309574
4.82987
0.222797
0.00447321
1.69287
0.0875358
0.0406405
0.00308852
0.262885
0.00323971
0.0512719
1.4606
4.53699
0.302856
0.00391612
0.00597383
3.29045
0.140884
1.93659
7.57973
0.0035034
0.00319738
0.00318717
5.92546
0.00331237
4.81441
0.00322134
1.91811
1.2069
0.0269387
2.90003
3.94783
0.0046823
2.72591
2.71189
1.64276
4.78272
1.06777
7.71715
2.45054
4.04531
3.61074
4.59618
1.71438
0.157351
7.67662
7.38642
3.00714
2.13041
0.00394954
6.76255
2.72936
6.96241
0.0275053
0.00358858
0.00321427
0.00342534
0.175329
0.417561
0.698113
0.0920331
0.00317403
6.10481
0.003215
1.46292
1.98077
6.48303
2.57062
1.84855
0.00598294
0.00426003
0.0872572
2.83323
0.010341
0.743767
5.04189
2.05683
4.21836
6.06028
3.30973
0.00346436
7.406
5.498
1.74562
0.00323488
6.35151
5.74475
0.0033339
1.97393
0.00323864
6.60937
5.56218
1.86895
4.26307
2.51398
5.74874
0.00329122
5.75204
0.00386669
3.64416
4.06997
1.90931
7.38475
0.712398
0.211898
0.544394
0.00424385
4.28854
0.150306
0.00814216
0.00507488
4.33233
0.00383404
4.44344
0.0031914
0.0032358
0.00599493
1.84163
0.104971
1.88006
0.00574161
4.32836
0.162702
6.60217
4.34103
2.70709
6.02856
0.00338265
7.39849
2.92491
0.00321186
3.99518
2.10231
0.00309936
0.00316778
3.37272
0.00647471
1.88208
0.0865955
2.39399
0.0267705
0.61183
2.71475
4.85936
2.46383
3.90306
3.76674
0.00394787
0.0217598
1.69166
1.64664
7.59968
6.26519
5.23934
0.065372
5.18778
5.16121
0.504918
1.71361
2.91735
2.11774
0.00347422
4.20458
7.73425
0.00416483
4.42486
1.87252
2.94273
0.02418
0.067685
6.0283
0.00599023
7.59216
0.00462245
0.253815
0.00320396
0.989319
2.29446
0.229544
0.00480281
0.0036997
2.74469
1.60608
0.0853103
0.398832
5.69644
4.09047
0.00449517
1.43953
1.64882
3.28309
1.50232
4.19185
1.95505
5.42133
3.27725
0.476769
0.965646
7.51212
1.9343
7.6577
6.17315
0.0321061
3.32035
2.88989
0.00337633
1.78241
1.60924
1.3299
0.0172933
4.92092
1.45581
0.69835
1.93788
0.00545066
0.0032151
0.0451852
2.30648
4.45456
2.59684
0.00322125
0.00318887
0.00321602
1.71357
0.0275603
0.00321564
0.124228
4.60883
4.81281
0.0105371
0.0107634
0.00315415
0.0032053
0.00601122
1.78414
1.74647
1.62344
0.452793
7.46445
5.69736
0.00525755
3.2625
1.83848
1.93887
4.10414
7.32694
0.00346117
0.0104956
0.00323886
3.8521
0.243799
0.00316896
1.35608
0.161724
7.50071
0.00323854
7.60054
1.14329
0.0475485
6.61195
0.00323272
0.00319626
0.00404936
7.66398
3.2892
5.37441
4.84605
1.07291
1.76616
0.00312496
0.00603415
0.0875507
0.013655
0.0251381
1.9756
2.15105
0.00322498
1.28187
1.84363
6.27253
7.65238
0.00824161
7.62611
0.00592517
0.0303077
3.53926
0.00320247
5.72433
0.00324082
0.00336876
0.0221286
2.1316
0.619328
2.56663
1.89957
0.00366004
1.76646
4.62847
0.0539522
0.216562
0.836254
0.00331645
0.0032683
0.00692966
5.50374
0.530871
0.00335566
7.2665
5.78849
6.77149
0.0336963
2.04496
0.0042073
2.42153
0.162566
0.091052
2.67179
1.67468
1.90609
6.21092
0.00327863
0.0031314
0.0105224
4.14431
4.60607
0.964463
0.013878
0.00333357
0.00324001
0.00884615
0.025415
0.00661589
2.19209
1.7316
0.0115466
1.5612
6.09889
0.00327169
2.38291
0.00321771
0.54155
0.00324484
0.0221696
2.35419
0.0201064
0.00320613
0.757225
7.73206
6.99287
0.0031891
0.00326347
0.388441
0.0263484
0.00321658
4.2603
0.00370393
1.68181
7.74197
2.37892
1.67852
2.45659
3.6757
7.61059
0.00323001
0.0074324
0.0148283
4.22711
1.42289
6.43989
0.665294
0.351817
4.29728
3.56451
5.03311
0.7294
2.69052
0.00322258
0.361389
1.69778
2.52981
3.95924
1.92181
0.219985
2.55405
0.102592
0.00935949
1.76573
0.00324032
5.65854
0.00366433
0.37996
7.46617
2.7122
0.566146
0.00741934
0.773903
0.00330049
0.00319184
0.10689
0.0225142
1.83048
0.0153565
1.74372
0.00322143
0.0279807
0.00316606
4.60875
0.00507755
4.11288
2.52109
0.0219451
1.93009
7.36343
0.00325911
1.71917
4.30972
0.00335698
7.43964
0.0612014
0.00348027
0.00339457
7.10443
0.00317848
0.00429385
0.0868487
0.101026
6.98971
7.30629
0.00322108
0.00327088
1.08863
2.32778
0.0146049
0.255778
2.01621
0.00321795
0.00383724
0.00372739
6.13638
7.34502
0.500248
6.9783
0.0260966
1.59725
0.00332216
0.0147967
0.024897
0.0361359
0.00323039
6.66161
0.00320099
0.0250387
0.00332264
0.246348
0.0224695
0.0156055
0.449616
0.690105
2.28178
0.406057
1.07258
1.82576
5.02557
0.00344003
4.8434
7.6342
1.15197
4.09348
0.00327864
4.33021
3.93819
0.00321629
7.27031
2.32582
0.00826939
0.0113976
5.99053
5.80069
0.0589907
7.57413
7.19317
0.78657
7.18764
7.17837
5.02792
1.94006
1.62223
0.986175
7.24558
7.41311
0.0219134
7.22517
2.58875
4.36897
0.00343313
0.342411
0.393087
6.90146
5.9431
0.020234
4.26744
6.5304
0.455685
0.0333485
0.383946
1.81784
0.00535729
1.8536
6.8195
0.0336883
6.85834
1.38825
4.54044
6.43346
0.00322267
0.00565539
1.05199
0.710543
0.0181634
0.00321854
0.190273
0.255125
0.00451454
0.00323648
4.19063
0.994099
3.14065
1.03039
0.00863529
0.00417624
0.0917999
3.37409
0.00346205
1.89876
1.68192
0.473488
2.29858
0.00397454
0.116323
0.00320237
0.351647
4.40907
0.00439948
0.117915
2.11152
5.64924
0.223649
4.05597
0.602192
0.165917
0.00392819
2.44066
7.61153
0.00321178
0.00328221
5.74716
0.0245222
0.00323562
3.89397
0.240763
1.94044
2.006
1.47593
0.145394
1.71963
3.50648
5.73408
4.25643
0.00327628
5.42466
0.00389318
2.64108
0.00339806
0.00455392
2.11888
0.00655286
3.88147
0.0206787
0.0397454
1.86251
0.731013
0.0628677
0.00367728
6.29852
0.00364643
0.00315249
7.70708
5.94136
2.83849
1.9242
0.00343673
0.00306936
1.86238
5.73503
0.00319957
6.48531
1.69916
0.00324311
6.09728
0.00311435
0.348373
0.907128
1.34642
0.361105
1.58808
1.92426
0.00311015
7.28607
7.23977
0.00321602
0.0167693
1.92734
0.00312957
7.06374
5.44416
4.40131
0.0032182
0.00317062
3.40655
0.0407922
0.0035022
1.86956
1.72077
4.02882
0.00315309
0.00337865
0.0243321
0.0193943
0.00321741
0.00640838
5.2917
2.87745
0.00322282
1.36946
0.00321489
0.701331
0.00421113
0.00358874
2.2843
0.00326592
0.121127
0.00317615
2.99722
0.183526
1.75852
6.37099
4.37867
3.63057
0.817387
1.22092
0.00323548
0.925373
7.3681
4.08226
0.106507
0.00346867
5.35237
0.00321495
0.0314755
0.0031554
7.05698
0.765783
0.362367
6.40856
2.24785
0.477769
4.24086
0.722572
6.88508
4.60946
0.00331147
0.00327272
0.00822288
0.00322645
0.022762
4.36637
0.00377752
7.03082
0.00601929
0.0757742
0.583
4.70824
0.00487365
2.80037
0.0169046
3.05465
2.45186
6.82599
0.00339592
0.00384212
0.254494
3.72083
1.64183
3.72432
0.425177
1.02347
1.6659
0.0504844
1.00587
0.249183
1.69086
0.00328314
4.34433
0.411588
3.16197
0.00336641
3.06941
0.981014
0.00465717
1.63447
1.78386
0.0652729
0.00314745
0.00321845
4.77638
2.83263
1.37561
0.00320814
0.0175844
2.00502
6.41346
0.445957
0.0126188
0.00322378
5.53815
5.34147
2.08352
2.68353
0.00321386
3.5506
7.34609
0.00321108
0.0032178
1.25971
0.00412993
0.00988343
0.0312239
1.96155
0.0041059
2.21254
7.64548
0.00320235
0.00346146
0.00316751
0.0033076
3.81058
4.64719
7.66768
0.028999
2.4378
2.20595
0.0867284
2.97324
0.00347841
1.69599
0.22005
2.07339
0.697893
1.65064
3.12182
0.0270472
0.00323896
5.98541
4.49115
4.5003
0.902332
1.77299
0.176021
1.58909
0.00928524
0.00483994
3.38294
5.62068
0.0217514
0.130202
0.00324574
0.0779444
1.9063
0.0275775
1.04954
0.697285
3.80293
2.14895
0.431656
6.62148
5.55471
2.94903
1.64921
4.1108
3.54292
0.565171
2.6715
0.00623046
2.82315
2.96251
0.00320405
0.00313468
0.121244
0.00322709
0.00332855
3.01288
4.34947
0.0032204
3.23391
0.00321519
0.00319247
0.0032167
0.00326105
0.0059447
1.93192
2.71979
7.1578
0.00315809
0.00392031
0.960913
0.0035572
0.032897
0.00324573
0.00361099
4.32766
0.00391278
0.0109577
2.7881
0.0104863
0.00321981
3.85748
0.00321447
0.0032673
0.25733
0.00360784
0.92132
0.00457514
0.0300447
0.00320428
0.00325377
7.50936
7.5403
2.77309
0.0266452
2.95326
1.59244
0.00473102
1.76427
4.17306
7.01507
4.5839
0.00312049
1.88983
2.59231
0.145946
1.74197
4.48248
0.17247
2.04974
0.212327
1.72092
0.0376603
1.01143
0.00323489
6.71045
0.00328556
1.79922
2.512
0.00321526
0.311076
0.00731668
0.0196688
0.00317553
0.757427
0.00366623
0.00322095
2.52129
0.00910444
0.110046
6.96464
1.92409
0.00345731
0.00387737
2.43084
7.22022
0.00308894
0.00324708
0.0710334
1.3769
5.65844
0.00658396
1.65764
0.00321836
0.00344518
0.003147
0.0348129
0.980683
0.0101141
6.3226
1.8056
7.21699
6.10865
0.00352158
7.14354
3.80047
0.00317923
0.00322626
0.00321814
0.00440168
0.00320282
3.79786
0.00320807
0.00324035
6.53168
0.325211
0.00776389
0.0220337
2.00965
0.925655
0.00822553
0.00346093
6.38269
0.00324544
0.793516
0.00326144
0.0035259
5.98307
5.76494
0.00871662
0.00351003
0.330817
0.00320653
6.59017
0.00325469
5.59275
0.0251403
0.729848
0.0345817
0.365156
0.370286
1.52453
0.00324275
0.00356873
0.0115777
3.28132
0.119955
7.50432
0.00321977
0.00458618
0.00556384
7.19598
2.85121
3.06435
0.00693176
0.00897091
0.213535
0.00322362
1.27293
2.49777
0.016992
5.74673
6.27171
2.04348
0.00534337
0.385253
2.82015
6.8429
1.80251
0.01878
3.09193
0.0608796
5.26965
0.0913376
0.516701
2.64772
0.00324365
1.76289
0.00455729
0.0118713
0.00824761
0.0500254
0.00370505
1.27585
0.00322678
3.05315
0.0952906
0.00361291
0.232236
0.00323205
0.282276
0.117485
2.30927
0.466162
4.67934
0.243469
0.00321709
0.00319134
0.723822
0.0916542
2.91301
7.23074
0.00322419
3.7858
2.73347
0.0232078
2.03881
0.602322
2.34856
2.16866
0.033431
0.00589264
7.05332
1.5334
5.97027
0.00321087
1.64724