/*--------------------------------*- C++ -*----------------------------------*\
| =========                 |                                                 |
| \\      /  F ield         | OpenFOAM: The Open Source CFD Toolbox           |
|  \\    /   O peration     | Version:  2.3.1                                 |
|   \\  /    A nd           | Web:      www.OpenFOAM.org                      |
|    \\/     M anipulation  |                                                 |
\*---------------------------------------------------------------------------*/
FoamFile
{
    version     2.0;
    format      ascii;
    class       volVectorField;
    location    "0.59";
    object      U;
}
// * * * * * * * * * * * * * * * * * * * * * * * * * * * * * * * * * * * * * //

dimensions      [0 1 -1 0 0 0 0];

internalField   nonuniform List<vector> 
9648
(
(0.159421 -4.83093 -2.03816e-22)
(0.283231 -4.79464 -4.4364e-23)
(0.406024 -4.76227 0)
(0.527827 -4.73214 0)
(0.65011 -4.70684 9.03651e-21)
(0.773277 -4.68773 1.40135e-20)
(0.899604 -4.67759 -2.63843e-20)
(1.03175 -4.67972 -1.23805e-20)
(1.17158 -4.69516 1.23513e-20)
(1.31906 -4.72585 3.79805e-20)
(1.47624 -4.77363 -3.7826e-20)
(1.64499 -4.83959 -5.49155e-20)
(1.82734 -4.92438 2.92312e-19)
(2.02536 -5.02792 7.58738e-20)
(2.24077 -5.14942 -7.12385e-19)
(2.47483 -5.28759 0)
(2.7287 -5.4407 0)
(3.00325 -5.60667 1.30087e-19)
(3.29917 -5.78285 4.19444e-19)
(3.61653 -5.96644 -1.20743e-18)
(3.95536 -6.15477 -2.11218e-20)
(4.31552 -6.34476 3.3289e-19)
(4.69625 -6.5335 3.93712e-19)
(5.09688 -6.71817 -1.7902e-18)
(5.51644 -6.89607 0)
(5.95394 -7.06457 1.07228e-18)
(6.40803 -7.22116 -1.12456e-18)
(6.87736 -7.36378 0)
(7.36048 -7.49022 0)
(7.85575 -7.59882 -6.82767e-19)
(8.36169 -7.6879 -1.51064e-18)
(8.87648 -7.75599 2.37221e-18)
(9.39851 -7.80197 0)
(9.92602 -7.82462 0)
(10.4572 -7.82326 1.8176e-18)
(10.9903 -7.79704 -1.95595e-18)
(11.5236 -7.74555 0)
(12.0554 -7.6685 4.1995e-18)
(12.584 -7.5655 1.13269e-18)
(13.1076 -7.43643 -3.35342e-18)
(13.6243 -7.28133 6.31079e-20)
(14.1327 -7.10069 2.38593e-18)
(14.6311 -6.89439 -3.16927e-18)
(15.1177 -6.66297 6.37504e-19)
(15.5914 -6.4072 0)
(16.0507 -6.12721 0)
(16.4941 -5.82372 4.80871e-18)
(16.9203 -5.49752 7.03742e-19)
(17.3287 -5.14952 -2.17463e-18)
(17.7186 -4.77973 -7.32015e-19)
(18.0878 -4.38883 -7.61334e-19)
(18.4347 -3.97918 7.56608e-19)
(18.759 -3.55247 3.90838e-19)
(19.0598 -3.10946 -3.88723e-19)
(19.336 -2.65188 1.98411e-18)
(19.5871 -2.1808 -1.95373e-18)
(19.8123 -1.69767 -2.1661e-20)
(20.0112 -1.20371 0)
(20.1832 -0.700366 -3.9683e-19)
(20.328 -0.189313 -5.13146e-20)
(20.4454 0.328247 -4.8658e-20)
(-0.0690942 -2.53644 2.37861e-22)
(0.00200253 -2.53999 0)
(0.074331 -2.55342 0)
(0.149322 -2.57793 4.08764e-21)
(0.228522 -2.62151 -4.93885e-21)
(0.316514 -2.6877 -3.33804e-20)
(0.415352 -2.77615 0)
(0.526696 -2.88444 0)
(0.652691 -3.01278 -4.21088e-20)
(0.793714 -3.16181 0)
(0.950954 -3.33025 -1.02936e-19)
(1.1252 -3.51654 8.14918e-20)
(1.31736 -3.71933 -4.41499e-20)
(1.5284 -3.9369 0)
(1.75908 -4.16725 2.77449e-19)
(2.00971 -4.40827 1.64631e-19)
(2.28061 -4.65767 -1.61963e-19)
(2.57194 -4.91319 2.10948e-19)
(2.88387 -5.17228 -6.42785e-19)
(3.21618 -5.43246 5.122e-19)
(3.56853 -5.69136 -5.6742e-19)
(3.94066 -5.94644 -3.05822e-19)
(4.33178 -6.19535 -3.13738e-19)
(4.74111 -6.43574 1.07892e-18)
(5.16775 -6.66542 3.736e-19)
(5.61077 -6.88222 4.4429e-19)
(6.06903 -7.08411 -3.93933e-19)
(6.54126 -7.26935 0)
(7.02621 -7.43615 0)
(7.52238 -7.58315 0)
(8.02841 -7.70887 0)
(8.54268 -7.81214 0)
(9.06367 -7.89195 0)
(9.58989 -7.94731 0)
(10.1195 -7.97764 -8.14897e-19)
(10.6511 -7.98216 7.40176e-19)
(11.1829 -7.96061 8.16373e-19)
(11.7133 -7.91267 -4.14711e-18)
(12.2408 -7.83804 -8.80191e-19)
(12.7635 -7.73665 2.7068e-18)
(13.28 -7.60863 1.89931e-18)
(13.7884 -7.45441 -1.96014e-18)
(14.2874 -7.27388 9.36238e-19)
(14.7752 -7.06772 9.87887e-19)
(15.2506 -6.83658 -1.05003e-18)
(15.712 -6.5807 1.0407e-18)
(16.158 -6.30093 -2.2306e-18)
(16.5872 -5.9981 0)
(16.9984 -5.67314 -5.69795e-19)
(17.3909 -5.3262 1.14497e-18)
(17.7638 -4.95801 -5.75332e-19)
(18.1159 -4.57042 0)
(18.4462 -4.1648 1.18244e-18)
(18.7537 -3.74197 0)
(19.0374 -3.30339 0)
(19.2967 -2.85023 2.80231e-18)
(19.5306 -2.3838 -1.26293e-18)
(19.7388 -1.90572 -3.07229e-19)
(19.9208 -1.41685 3.24248e-19)
(20.0759 -0.918925 0)
(20.2039 -0.413186 8.15277e-20)
(0.0471066 -1.48268 -3.8797e-22)
(0.104885 -1.52718 0)
(0.168725 -1.58774 4.55565e-23)
(0.23952 -1.66976 -2.99857e-22)
(0.31792 -1.77153 0)
(0.407653 -1.8915 2.79965e-20)
(0.51009 -2.03182 1.95334e-20)
(0.626528 -2.19159 0)
(0.758382 -2.37045 2.2267e-21)
(0.907537 -2.567 4.36051e-20)
(1.07497 -2.78013 8.78765e-20)
(1.26132 -3.00787 -3.05223e-20)
(1.46715 -3.24839 0)
(1.6928 -3.49957 0)
(1.93855 -3.75928 2.10894e-19)
(2.20434 -4.02536 -1.34536e-19)
(2.49013 -4.29557 -1.44351e-19)
(2.79575 -4.56768 0)
(3.12094 -4.83943 5.5683e-19)
(3.46537 -5.10862 -5.78325e-19)
(3.82857 -5.37315 -4.32605e-19)
(4.20999 -5.6309 -4.76579e-19)
(4.60886 -5.87984 0)
(5.0243 -6.11798 -8.54597e-19)
(5.45538 -6.34339 -3.00529e-19)
(5.90111 -6.55423 3.57287e-19)
(6.36041 -6.74878 3.94565e-19)
(6.83209 -6.9255 0)
(7.31488 -7.08296 0)
(7.80741 -7.2199 0)
(8.30826 -7.33514 0)
(8.81597 -7.42766 0)
(9.32908 -7.49657 0)
(9.84608 -7.54113 0)
(10.3654 -7.56079 -1.78673e-18)
(10.8854 -7.55503 5.93538e-19)
(11.4047 -7.52357 -6.54733e-19)
(11.9216 -7.4662 3.2949e-18)
(12.4346 -7.38274 0)
(12.9422 -7.27326 1.40167e-18)
(13.4427 -7.13797 1.44957e-18)
(13.9345 -6.97716 7.18152e-19)
(14.4163 -6.79097 -8.22561e-19)
(14.8865 -6.57997 -1.58432e-18)
(15.3438 -6.34469 2.46832e-18)
(15.7869 -6.08566 -8.3489e-19)
(16.2145 -5.80366 -1.70297e-18)
(16.6252 -5.49949 0)
(17.018 -5.17418 0)
(17.3917 -4.8287 -4.64737e-19)
(17.7455 -4.46415 -4.54388e-19)
(18.0783 -4.08145 -9.29294e-19)
(18.3895 -3.68166 -9.72622e-19)
(18.6781 -3.26623 0)
(18.9433 -2.83595 -9.61852e-19)
(19.1843 -2.39254 -1.00226e-18)
(19.4008 -1.93674 0)
(19.592 -1.47075 1.62426e-20)
(19.7571 -0.994866 0)
(19.8962 -0.510855 0)
(20.009 -0.0197309 -6.20636e-20)
(0.017026 -0.977357 7.87256e-22)
(0.0764785 -1.05916 -1.19403e-21)
(0.147973 -1.15847 9.13083e-22)
(0.230754 -1.27546 -1.54118e-21)
(0.325536 -1.40982 0)
(0.432467 -1.56151 -1.16469e-20)
(0.552895 -1.73086 -1.68883e-20)
(0.687994 -1.91749 0)
(0.839062 -2.12066 3.10038e-21)
(1.00697 -2.33924 -3.73199e-20)
(1.19255 -2.5718 8.41713e-20)
(1.39617 -2.81662 1.02321e-19)
(1.61819 -3.07168 0)
(1.85882 -3.33492 -8.13093e-20)
(2.11829 -3.60429 -1.72605e-19)
(2.39638 -3.87776 -9.20062e-20)
(2.69297 -4.15321 3.55209e-19)
(3.00782 -4.42854 -2.56831e-19)
(3.34058 -4.70171 2.88137e-19)
(3.69093 -4.97068 4.91074e-19)
(4.05845 -5.23361 7.10902e-19)
(4.44247 -5.48867 4.01025e-19)
(4.84232 -5.73403 1.92941e-19)
(5.2571 -5.96794 7.0125e-19)
(5.68593 -6.18864 2.30348e-19)
(6.12789 -6.39446 2.6205e-19)
(6.58195 -6.58387 3.09257e-19)
(7.04711 -6.75546 -9.25505e-19)
(7.52213 -6.90801 6.64402e-19)
(8.00573 -7.04034 7.50648e-19)
(8.49667 -7.1514 -1.53438e-18)
(8.99349 -7.24028 7.83388e-19)
(9.49487 -7.30612 -8.39239e-19)
(9.99948 -7.34828 4.18286e-19)
(10.5058 -7.36627 4.584e-19)
(11.0123 -7.35963 5.08673e-19)
(11.5177 -7.32805 -5.02192e-19)
(12.0204 -7.27139 -5.47133e-19)
(12.519 -7.18954 -1.64001e-18)
(13.012 -7.08258 -1.18297e-18)
(13.4979 -6.95074 -2.39812e-18)
(13.9752 -6.79423 -3.10632e-18)
(14.4425 -6.61334 1.27341e-18)
(14.8984 -6.40848 2.8735e-20)
(15.3417 -6.1802 -7.12886e-19)
(15.771 -5.92903 -6.99276e-19)
(16.1852 -5.65565 4.22735e-18)
(16.583 -5.36086 -7.08494e-19)
(16.9635 -5.04543 0)
(17.3255 -4.7103 0)
(17.6682 -4.35649 -7.1144e-19)
(17.9906 -3.98518 3.16969e-20)
(18.2921 -3.59737 7.63134e-19)
(18.5716 -3.19422 0)
(18.8285 -2.77698 8.12481e-19)
(19.0621 -2.34698 0)
(19.2716 -1.90539 0)
(19.4566 -1.45316 6.18971e-19)
(19.6167 -0.991836 1.96859e-19)
(19.7516 -0.522874 -2.00581e-19)
(19.8608 -0.0477451 1.02625e-19)
(0.108399 -0.724685 4.34021e-23)
(0.169127 -0.828878 1.04375e-21)
(0.243686 -0.948477 -2.08975e-21)
(0.332613 -1.08443 2.306e-22)
(0.435929 -1.23702 -1.82582e-21)
(0.554261 -1.40607 4.64709e-21)
(0.68808 -1.59137 2.35e-21)
(0.83791 -1.79215 -1.2272e-20)
(1.00464 -2.0076 3.84104e-20)
(1.18839 -2.23651 -5.57296e-20)
(1.38967 -2.47736 6.30256e-20)
(1.60828 -2.72847 -7.8925e-20)
(1.84446 -2.98777 -4.57294e-20)
(2.09806 -3.25329 0)
(2.3694 -3.523 8.46368e-20)
(2.65792 -3.79516 8.128e-20)
(2.96347 -4.06773 0)
(3.2858 -4.33875 2.0144e-19)
(3.62437 -4.60633 0)
(3.97903 -4.86853 -2.67172e-19)
(4.34939 -5.12378 2.91859e-19)
(4.73466 -5.37049 1.02879e-20)
(5.13431 -5.60695 -1.69927e-20)
(5.54729 -5.83172 2.90551e-20)
(5.97283 -6.04302 -8.20279e-19)
(6.41009 -6.23937 -4.70972e-19)
(6.85804 -6.41935 9.69397e-19)
(7.3159 -6.58163 1.05181e-18)
(7.78246 -6.72524 -5.6927e-19)
(8.2565 -6.84904 0)
(8.7369 -6.95208 0)
(9.22221 -7.03357 0)
(9.71127 -7.0926 7.20305e-19)
(10.2029 -7.12862 -2.97483e-18)
(10.6955 -7.14128 1.55657e-18)
(11.1878 -7.13009 -7.91496e-19)
(11.6786 -7.09473 -1.70733e-18)
(12.1663 -7.03521 1.7317e-18)
(12.6496 -6.95136 3.9741e-20)
(13.1272 -6.84332 -9.77484e-19)
(13.5976 -6.71136 1.0096e-18)
(14.0594 -6.55569 1.04386e-18)
(14.5111 -6.37657 0)
(14.9516 -6.17434 -1.05985e-18)
(15.3795 -5.94955 0)
(15.7937 -5.70274 -1.69276e-18)
(16.193 -5.43458 5.23303e-19)
(16.5763 -5.14579 0)
(16.9426 -4.83705 -6.13675e-19)
(17.2908 -4.5094 -1.46736e-20)
(17.6203 -4.16365 1.30695e-18)
(17.9301 -3.80098 -6.21063e-19)
(18.2194 -3.42246 -3.4531e-19)
(18.4876 -3.02921 6.3236e-19)
(18.7338 -2.62259 -4.8177e-21)
(18.9572 -2.20357 3.29676e-19)
(19.1572 -1.77345 1.5925e-19)
(19.3333 -1.33317 3.36045e-19)
(19.4853 -0.883945 -8.44118e-19)
(19.6128 -0.42727 3.38999e-19)
(19.7155 0.0353013 -4.33713e-20)
(0.189703 -0.588569 -3.78154e-22)
(0.262943 -0.708398 0)
(0.351212 -0.842909 3.07452e-21)
(0.455169 -0.992913 0)
(0.57408 -1.15845 8.33916e-23)
(0.708885 -1.33904 5.41367e-21)
(0.859666 -1.53432 7.19989e-21)
(1.02668 -1.74321 2.4036e-20)
(1.21068 -1.96485 3.78318e-21)
(1.41111 -2.19811 5.79395e-21)
(1.62852 -2.44138 1.13401e-21)
(1.86204 -2.69319 -2.99206e-20)
(2.11202 -2.95146 4.45075e-20)
(2.37763 -3.21419 -1.35704e-19)
(2.65991 -3.47944 1.15988e-19)
(2.95785 -3.74603 -8.41348e-21)
(3.27104 -4.01169 -1.44255e-19)
(3.59961 -4.27471 -1.74052e-19)
(3.94258 -4.53338 0)
(4.30004 -4.7857 2.0745e-19)
(4.67191 -5.03043 8.39505e-21)
(5.05692 -5.2663 -5.38141e-19)
(5.4551 -5.4916 -2.31483e-20)
(5.86494 -5.70532 -2.91845e-19)
(6.28577 -5.90551 1.02991e-18)
(6.71692 -6.09083 3.5315e-20)
(7.15728 -6.26003 -3.82958e-19)
(7.6065 -6.4117 -4.07549e-20)
(8.06327 -6.5453 0)
(8.52635 -6.65966 0)
(8.995 -6.75382 0)
(9.4675 -6.82732 0)
(9.94281 -6.87901 0)
(10.4202 -6.90838 5.68478e-20)
(10.898 -6.91536 -6.67289e-19)
(11.3747 -6.89946 -3.89019e-20)
(11.8496 -6.8601 2.88355e-20)
(12.321 -6.79764 6.88695e-19)
(12.7878 -6.7118 1.57361e-18)
(13.2489 -6.6027 -2.3734e-18)
(13.7027 -6.47087 1.6518e-18)
(14.1479 -6.31635 -8.33622e-19)
(14.5829 -6.1395 0)
(15.0068 -5.94035 9.25736e-19)
(15.4185 -5.7196 0)
(15.8166 -5.47781 9.74335e-19)
(16.2002 -5.21541 -9.96912e-19)
(16.5679 -4.93346 4.68284e-19)
(16.9191 -4.63222 5.00128e-19)
(17.2529 -4.31277 -5.21833e-19)
(17.5684 -3.97593 3.72713e-20)
(17.8649 -3.62295 -1.06221e-20)
(18.1416 -3.25457 1.06118e-18)
(18.3979 -2.87221 -1.09202e-18)
(18.6331 -2.47708 -5.38765e-19)
(18.8461 -2.0705 -2.6377e-19)
(19.0362 -1.65324 -8.38931e-19)
(19.2032 -1.22613 0)
(19.3469 -0.790294 5.66588e-19)
(19.4672 -0.347552 -1.45437e-19)
(19.5635 0.100825 0)
(0.292542 -0.520834 0)
(0.379559 -0.65178 0)
(0.48279 -0.797493 -1.58023e-21)
(0.603808 -0.958311 1.62112e-21)
(0.739802 -1.13366 -1.56246e-21)
(0.892672 -1.32241 -8.76899e-21)
(1.06159 -1.52412 4.9322e-21)
(1.24613 -1.73738 -1.66608e-20)
(1.44822 -1.9615 -1.25673e-21)
(1.66509 -2.19542 4.55032e-20)
(1.89893 -2.43758 -8.5356e-20)
(2.1468 -2.68684 0)
(2.41031 -2.94086 0)
(2.68668 -3.19791 1.54437e-19)
(2.97946 -3.45555 9.93118e-20)
(3.28596 -3.71396 -2.19174e-19)
(3.60561 -3.97032 3.55799e-19)
(3.93969 -4.22304 1.49098e-19)
(4.28581 -4.47107 -2.98277e-19)
(4.64478 -4.71163 -1.8085e-19)
(5.01756 -4.94393 2.08174e-19)
(5.401 -5.16757 -5.03505e-21)
(5.79711 -5.38004 0)
(6.20277 -5.58174 5.37023e-19)
(6.61775 -5.76986 -8.84663e-19)
(7.04205 -5.94308 2.94598e-19)
(7.47338 -6.10075 6.51598e-19)
(7.91312 -6.24069 -1.81279e-18)
(8.35926 -6.36347 3.69162e-19)
(8.81016 -6.46775 0)
(9.26636 -6.55215 0)
(9.72503 -6.6173 0)
(10.1854 -6.66124 5.06354e-19)
(10.6476 -6.68317 1.56743e-18)
(11.1098 -6.68399 -1.06006e-18)
(11.5696 -6.6633 5.84994e-19)
(12.0278 -6.61923 6.40941e-19)
(12.4819 -6.55355 -1.27136e-18)
(12.931 -6.46541 0)
(13.3746 -6.35467 -1.30551e-18)
(13.8108 -6.2228 6.77905e-19)
(14.2384 -6.0692 3.50242e-20)
(14.6555 -5.89476 -3.14783e-20)
(15.0619 -5.69847 7.46424e-19)
(15.4563 -5.48165 3.14439e-20)
(15.8372 -5.24513 -2.383e-18)
(16.2042 -4.9885 8.07338e-19)
(16.5554 -4.71359 -1.67676e-18)
(16.8906 -4.41979 0)
(17.2088 -4.10895 0)
(17.5095 -3.781 1.76997e-18)
(17.7916 -3.43817 -4.22809e-19)
(18.0547 -3.08036 -9.16871e-19)
(18.2985 -2.70886 -4.40678e-19)
(18.522 -2.32577 1.40691e-18)
(18.7239 -1.93212 7.09533e-19)
(18.9036 -1.52816 2.45199e-19)
(19.0605 -1.11507 -4.60739e-21)
(19.1952 -0.69295 -2.45285e-19)
(19.3078 -0.264249 0)
(19.3973 0.169175 0)
(0.412236 -0.496496 4.10379e-22)
(0.516582 -0.635397 0)
(0.636143 -0.78913 0)
(0.776976 -0.958204 -1.05654e-21)
(0.930479 -1.14081 0)
(1.10238 -1.33494 2.2692e-21)
(1.28963 -1.54025 4.84329e-21)
(1.49067 -1.75484 -1.00838e-20)
(1.71201 -1.97871 0)
(1.94395 -2.21073 -2.7275e-20)
(2.19516 -2.44934 3.9597e-21)
(2.4558 -2.69414 0)
(2.73362 -2.94208 0)
(3.01778 -3.19192 -6.49278e-20)
(3.32137 -3.43886 7.10821e-20)
(3.63618 -3.68782 -8.95064e-20)
(3.96042 -3.93354 -1.03171e-19)
(4.29999 -4.17439 0)
(4.64789 -4.41143 1.33398e-19)
(5.00684 -4.63899 -2.81818e-19)
(5.38125 -4.85746 -3.15968e-19)
(5.76078 -5.06859 -3.70597e-19)
(6.15513 -5.2667 -3.32335e-20)
(6.55568 -5.45652 -4.71176e-19)
(6.96379 -5.63218 4.51942e-19)
(7.38135 -5.79255 5.04109e-19)
(7.80158 -5.93879 -5.73674e-19)
(8.23148 -6.06565 3.13804e-20)
(8.66665 -6.17727 4.23109e-20)
(9.10346 -6.27153 -6.62017e-19)
(9.54698 -6.34517 0)
(9.99089 -6.40244 -8.05679e-19)
(10.435 -6.43827 1.59799e-18)
(10.8816 -6.45161 -4.45636e-20)
(11.3278 -6.44651 9.37384e-19)
(11.7684 -6.42224 -9.32743e-19)
(12.2099 -6.37216 1.02794e-18)
(12.6457 -6.30338 1.07213e-18)
(13.0754 -6.21288 -2.11915e-18)
(13.5008 -6.09972 1.159e-18)
(13.9179 -5.96825 1.13972e-18)
(14.3276 -5.81519 1.7999e-18)
(14.7251 -5.64357 -6.40508e-19)
(15.1129 -5.44901 0)
(15.4893 -5.23625 3.42043e-20)
(15.8514 -5.00601 6.95338e-19)
(16.2013 -4.75476 -6.75886e-19)
(16.5343 -4.48829 7.27571e-19)
(16.8527 -4.20188 0)
(17.1536 -3.90071 0)
(17.4389 -3.58156 -3.97384e-20)
(17.7056 -3.24993 7.80934e-19)
(17.9538 -2.90203 0)
(18.1843 -2.5412 3.87776e-19)
(18.3957 -2.17132 3.91061e-19)
(18.5859 -1.79169 -7.96467e-19)
(18.7546 -1.40164 -3.90626e-19)
(18.9001 -1.00367 -2.07478e-19)
(19.0247 -0.594804 0)
(19.1294 -0.181205 0)
(19.2115 0.235823 2.48338e-20)
(0.548775 -0.49976 -1.1525e-21)
(0.676995 -0.643167 2.40174e-21)
(0.812624 -0.800205 5.44489e-25)
(0.979653 -0.975243 -2.45847e-21)
(1.14704 -1.16155 3.38185e-21)
(1.3377 -1.36052 -1.8111e-21)
(1.544 -1.56528 0)
(1.75768 -1.77709 1.47638e-21)
(2.00333 -1.9992 -1.25654e-20)
(2.24448 -2.22586 0)
(2.51872 -2.45984 5.61011e-20)
(2.78486 -2.69968 -3.54457e-20)
(3.08041 -2.94173 3.61894e-20)
(3.36494 -3.18463 4.66193e-20)
(3.68202 -3.41527 -6.14954e-20)
(4.00477 -3.65589 -7.54666e-20)
(4.32935 -3.89084 2.49477e-19)
(4.67871 -4.11645 -2.60087e-19)
(5.02179 -4.3452 0)
(5.37589 -4.56123 -9.23878e-21)
(5.75861 -4.76464 7.77129e-19)
(6.12612 -4.96588 -2.95561e-20)
(6.5263 -5.14438 -3.69332e-19)
(6.91559 -5.32549 7.07353e-19)
(7.31486 -5.49106 0)
(7.72893 -5.63863 -4.35432e-19)
(8.13163 -5.77512 -4.46246e-19)
(8.55347 -5.88735 9.89499e-19)
(8.97874 -5.98874 -6.65104e-21)
(9.39718 -6.07455 5.87242e-19)
(9.8307 -6.1347 -1.20057e-18)
(10.2558 -6.18663 1.90877e-18)
(10.6813 -6.21598 -1.36828e-18)
(11.1131 -6.22055 -1.43518e-18)
(11.5459 -6.20882 0)
(11.9625 -6.18168 8.1713e-19)
(12.3928 -6.12286 0)
(12.8066 -6.05411 -3.01131e-21)
(13.2145 -5.96314 9.67751e-19)
(13.6243 -5.84435 -1.80024e-18)
(14.0198 -5.71246 -6.63885e-21)
(14.4127 -5.56004 -1.99025e-18)
(14.7847 -5.39399 0)
(15.1531 -5.20242 -5.69621e-19)
(15.5123 -4.99509 2.18556e-18)
(15.8509 -4.7723 -5.55691e-19)
(16.1876 -4.52586 5.88384e-19)
(16.4985 -4.26896 0)
(16.8018 -3.98895 6.05289e-19)
(17.0831 -3.69658 -1.82644e-18)
(17.3538 -3.3825 -2.5418e-20)
(17.6036 -3.06222 0)
(17.8339 -2.72707 6.27387e-19)
(18.0516 -2.3774 -1.88237e-20)
(18.2521 -2.01831 0)
(18.4277 -1.65123 3.53333e-19)
(18.5873 -1.28275 -3.20761e-19)
(18.7186 -0.902008 3.36336e-19)
(18.8313 -0.507597 3.3352e-19)
(18.931 -0.105471 -1.67442e-19)
(19.0025 0.295797 -6.33571e-20)
(20.5348 0.8514 1.51358e-19)
(20.5956 1.37843 -5.13137e-20)
(20.6284 1.90884 0)
(20.6331 2.44015 0)
(20.6101 2.97061 8.15431e-19)
(20.5596 3.49912 1.17343e-18)
(20.4817 4.02388 -1.20814e-18)
(20.3766 4.54346 -3.98155e-19)
(20.2443 5.05638 3.98097e-19)
(20.0855 5.56157 7.79134e-19)
(19.9005 6.05843 -7.79594e-19)
(19.6893 6.54511 -7.58011e-19)
(19.4535 7.02054 3.7701e-18)
(19.1943 7.48353 7.33286e-19)
(18.9122 7.93263 -6.47109e-18)
(18.6076 8.36633 0)
(18.2815 8.78374 0)
(17.9352 9.18388 6.73147e-19)
(17.5693 9.56622 1.98834e-18)
(17.1848 9.9294 -5.11142e-18)
(16.783 10.2727 -7.46791e-20)
(16.3648 10.5959 1.17174e-18)
(15.9313 10.8975 1.20543e-18)
(15.4836 11.1772 -4.49834e-18)
(15.0232 11.4349 0)
(14.5509 11.6705 2.11303e-18)
(14.0671 11.8836 -1.95824e-18)
(13.5738 12.0722 0)
(13.0726 12.2361 0)
(12.5651 12.375 -8.97382e-19)
(12.0525 12.4889 -1.64091e-18)
(11.536 12.5776 2.339e-18)
(11.0173 12.6411 0)
(10.4974 12.6795 0)
(9.97774 12.6927 1.18105e-18)
(9.45944 12.6811 -1.12287e-18)
(8.94387 12.6445 0)
(8.43233 12.5836 1.77096e-18)
(7.92583 12.4986 3.69208e-19)
(7.42565 12.3898 -1.02168e-18)
(6.933 12.2577 3.54723e-20)
(6.44928 12.103 4.31165e-19)
(5.97527 11.9262 -4.27089e-19)
(5.51219 11.7278 7.48089e-20)
(5.0612 11.5088 0)
(4.62303 11.2698 0)
(4.19872 11.0113 -1.69081e-19)
(3.78921 10.7345 -3.66693e-20)
(3.39549 10.4402 2.19687e-19)
(3.01826 10.1295 9.14804e-20)
(2.65815 9.80335 1.4331e-19)
(2.31598 9.46251 -1.45179e-19)
(1.99251 9.1083 -9.73478e-20)
(1.68804 8.74189 9.86763e-20)
(1.40329 8.36421 -5.89592e-19)
(1.13866 7.97669 6.43372e-19)
(0.894565 7.58046 -1.31218e-21)
(0.671324 7.17702 0)
(0.469104 6.76741 1.63941e-19)
(0.28826 6.35275 2.22726e-20)
(0.128874 5.93426 2.35735e-20)
(20.3041 0.0987392 -8.16048e-20)
(20.3758 0.614797 0)
(20.4198 1.13245 0)
(20.4366 1.65145 9.37023e-19)
(20.4258 2.17044 -6.26528e-19)
(20.388 2.68818 -2.20771e-18)
(20.3232 3.20296 0)
(20.2315 3.71372 0)
(20.1131 4.21884 -1.20217e-18)
(19.9681 4.71688 0)
(19.7969 5.20709 -1.76148e-18)
(19.6001 5.68718 1.16869e-18)
(19.3791 6.15538 -5.80163e-19)
(19.135 6.61146 0)
(18.8679 7.05494 2.29449e-18)
(18.5783 7.4845 1.07478e-18)
(18.2668 7.89895 -1.07692e-18)
(17.9347 8.29711 1.02443e-18)
(17.5827 8.67835 -3.02729e-18)
(17.2118 9.04145 2.03852e-18)
(16.8232 9.38529 -1.97983e-18)
(16.418 9.70943 -1.00933e-18)
(15.9972 10.0127 -9.13066e-19)
(15.562 10.2942 2.6492e-18)
(15.1136 10.5534 8.49143e-19)
(14.6528 10.7901 7.7703e-19)
(14.1807 11.0044 -7.02233e-19)
(13.6992 11.1954 0)
(13.2095 11.3624 0)
(12.7129 11.5047 0)
(12.2107 11.6225 0)
(11.7041 11.7155 0)
(11.1947 11.7834 0)
(10.6835 11.8264 0)
(10.1721 11.8444 -4.90071e-19)
(9.66156 11.8375 4.35146e-19)
(9.15336 11.8057 3.48655e-19)
(8.64864 11.7495 -1.69249e-18)
(8.14853 11.6691 -2.6432e-19)
(7.65436 11.5648 7.8855e-19)
(7.16736 11.437 4.34242e-19)
(6.68889 11.2862 -3.46564e-19)
(6.21981 11.1131 1.28844e-19)
(5.76148 10.9181 9.45613e-20)
(5.31499 10.7019 -8.14919e-21)
(4.88115 10.4653 8.24057e-21)
(4.46103 10.2089 9.1674e-20)
(4.0556 9.93347 0)
(3.66592 9.64004 8.01573e-20)
(3.29277 9.32958 -1.81928e-19)
(2.93682 9.00295 1.0206e-19)
(2.59896 8.66105 0)
(2.28006 8.305 -3.04389e-19)
(1.98036 7.93597 0)
(1.70079 7.55489 0)
(1.44158 7.16316 -9.46568e-19)
(1.20339 6.762 4.56689e-19)
(0.986403 6.3528 1.26246e-19)
(0.7912 5.93657 -1.32108e-19)
(0.618087 5.5146 0)
(0.467302 5.0881 -3.72724e-20)
(20.0953 0.476468 6.21053e-20)
(20.1554 0.97654 0)
(20.1889 1.47706 -2.47771e-19)
(20.1948 1.97794 -1.63037e-20)
(20.1739 2.47781 0)
(20.127 2.97601 1.98777e-18)
(20.0541 3.47172 9.70464e-19)
(19.9548 3.96457 0)
(19.8294 4.45235 3.19911e-20)
(19.6781 4.93283 9.39443e-19)
(19.502 5.4044 1.42699e-18)
(19.3021 5.86565 -4.69086e-19)
(19.079 6.31494 0)
(18.8329 6.75147 0)
(18.5643 7.17477 1.72785e-18)
(18.2742 7.58395 -8.52464e-19)
(17.9634 7.978 -7.98951e-19)
(17.6329 8.35594 0)
(17.2835 8.71701 2.4128e-18)
(16.9163 9.06022 -2.31531e-18)
(16.5325 9.38466 -1.47881e-18)
(16.1329 9.68962 -1.43098e-18)
(15.7187 9.97419 0)
(15.291 10.2377 -2.04451e-18)
(14.851 10.4794 -6.67075e-19)
(14.3998 10.6988 6.09426e-19)
(13.9387 10.8954 5.99795e-19)
(13.4689 11.0689 0)
(12.9915 11.2191 0)
(12.5079 11.3456 0)
(12.0193 11.4481 0)
(11.5268 11.5267 0)
(11.0319 11.5812 0)
(10.5359 11.6117 0)
(10.04 11.618 -1.0479e-18)
(9.54535 11.6003 3.35525e-19)
(9.05331 11.5587 -2.67543e-19)
(8.56499 11.4934 1.27455e-18)
(8.08152 11.4048 0)
(7.60413 11.2933 3.58257e-19)
(7.13399 11.1592 2.92231e-19)
(6.67235 11.0031 1.25165e-19)
(6.2202 10.8256 -7.47602e-20)
(5.77872 10.6271 -9.41685e-20)
(5.34893 10.4082 2.9722e-20)
(4.93172 10.1697 -1.27785e-21)
(4.52798 9.91224 1.01966e-19)
(4.13867 9.63663 0)
(3.76469 9.34381 0)
(3.40691 9.03463 8.01557e-20)
(3.06604 8.71 9.6779e-20)
(2.74278 8.37087 2.08603e-19)
(2.43788 8.01817 2.39053e-19)
(2.15178 7.65304 0)
(1.88518 7.27633 2.97471e-19)
(1.63834 6.88953 3.28325e-19)
(1.41176 6.49366 0)
(1.2058 6.0902 -1.87196e-21)
(1.02101 5.68006 0)
(0.857618 5.26456 0)
(0.71589 4.84478 2.85147e-20)
(19.9443 0.432496 -1.02672e-19)
(20.0021 0.916279 2.00832e-19)
(20.034 1.40307 -3.95998e-19)
(20.0396 1.89087 -2.12906e-19)
(20.019 2.37814 0)
(19.972 2.86372 -8.24586e-19)
(19.8983 3.347 -8.18624e-19)
(19.7991 3.82625 0)
(19.6755 4.30123 3.38715e-20)
(19.5278 4.76989 -7.91092e-19)
(19.3561 5.2301 1.49381e-18)
(19.1607 5.68087 1.47047e-18)
(18.9422 6.12107 0)
(18.701 6.54951 -7.16518e-19)
(18.4381 6.96495 -1.42299e-18)
(18.1541 7.3662 -7.01728e-19)
(17.85 7.75237 2.05521e-18)
(17.5266 8.12261 -1.32049e-18)
(17.1849 8.47615 1.2848e-18)
(16.8258 8.81215 1.86507e-18)
(16.4504 9.12979 2.4215e-18)
(16.0599 9.42827 1.19694e-18)
(15.6552 9.70677 5.51104e-19)
(15.2374 9.96458 1.6654e-18)
(14.8074 10.2012 5.09895e-19)
(14.3665 10.4161 5.10335e-19)
(13.9158 10.6088 4.62419e-19)
(13.4566 10.779 -1.34664e-18)
(12.9902 10.9263 8.35022e-19)
(12.5176 11.0505 7.79189e-19)
(12.0401 11.1512 -1.512e-18)
(11.5589 11.2286 7.32743e-19)
(11.0754 11.2824 -6.37763e-19)
(10.5907 11.3127 2.99433e-19)
(10.1062 11.3195 2.89161e-19)
(9.62313 11.3027 2.34895e-19)
(9.14256 11.2626 -2.36421e-19)
(8.6656 11.1993 -2.2267e-19)
(8.19339 11.1133 -5.09412e-19)
(7.72714 11.0049 -2.95296e-19)
(7.26801 10.8745 -4.61395e-19)
(6.8171 10.7227 -4.28773e-19)
(6.37559 10.55 1.23547e-19)
(5.94452 10.3568 7.07636e-21)
(5.52492 10.1439 -1.48084e-21)
(5.11768 9.9116 3.07895e-20)
(4.72352 9.66083 -2.63983e-19)
(4.34346 9.39237 5.72052e-20)
(3.97829 9.10716 0)
(3.62899 8.80596 0)
(3.29613 8.48962 1.47736e-19)
(2.98055 8.15923 6.72082e-22)
(2.68285 7.81557 -1.93887e-19)
(2.40351 7.45971 0)
(2.14313 7.09244 -2.41035e-19)
(1.90191 6.71523 0)
(1.68041 6.3292 0)
(1.47884 5.93562 -2.31844e-19)
(1.29802 5.53563 -8.25332e-20)
(1.1379 5.13037 8.5773e-20)
(0.999073 4.72103 -4.55185e-20)
(19.7931 0.502627 1.85451e-21)
(19.8455 0.973471 -1.73472e-19)
(19.8726 1.44691 5.08374e-19)
(19.8744 1.92139 3.37254e-19)
(19.8507 2.39572 -4.96761e-19)
(19.8017 2.86862 3.3274e-19)
(19.7281 3.33817 -2.39651e-21)
(19.6299 3.80222 -6.4415e-19)
(19.5069 4.26066 9.80984e-19)
(19.3605 4.71262 -1.27777e-18)
(19.1911 5.15704 1.20257e-18)
(18.9988 5.59244 -1.27823e-18)
(18.7842 6.01774 -6.14113e-19)
(18.5478 6.43188 0)
(18.2905 6.83354 6.32074e-19)
(18.013 7.22148 5.3965e-19)
(17.7158 7.59498 0)
(17.3999 7.95307 1.06271e-18)
(17.0662 8.29506 0)
(16.7157 8.62018 -1.05098e-18)
(16.3496 8.92757 9.28315e-19)
(15.9689 9.21644 -4.01623e-20)
(15.5746 9.48588 -4.49694e-20)
(15.1676 9.73518 1.66728e-21)
(14.7489 9.96391 -1.7467e-18)
(14.3195 10.1716 -7.94403e-19)
(13.8807 10.3578 1.55234e-18)
(13.4337 10.5223 1.43541e-18)
(12.9797 10.6646 -7.1569e-19)
(12.5197 10.7845 0)
(12.0551 10.8816 0)
(11.5868 10.956 0)
(11.1161 11.0077 5.45505e-19)
(10.6445 11.0367 -1.91083e-18)
(10.1732 11.0429 8.86863e-19)
(9.70317 11.0262 -4.22831e-19)
(9.23564 10.9867 -6.76718e-19)
(8.77162 10.9248 6.35376e-19)
(8.31212 10.8408 2.1133e-20)
(7.85841 10.7352 -2.00285e-19)
(7.41159 10.6082 2.19673e-19)
(6.97274 10.4606 1.42884e-19)
(6.54307 10.2928 0)
(6.12361 10.1052 -4.00478e-20)
(5.71532 9.89843 0)
(5.31917 9.67283 7.59656e-20)
(4.93561 9.42933 -3.96568e-20)
(4.56568 9.16866 0)
(4.21002 8.8918 9.34019e-20)
(3.86994 8.59944 1.94207e-20)
(3.54571 8.2923 -2.45298e-19)
(3.23817 7.97152 1.44157e-19)
(2.94811 7.63787 9.50198e-20)
(2.67573 7.29232 -1.74017e-19)
(2.42192 6.93563 8.0505e-21)
(2.18625 6.56911 -1.05643e-19)
(1.96977 6.19396 -5.69429e-20)
(1.77237 5.8115 -1.26664e-19)
(1.59519 5.42279 3.35881e-19)
(1.43784 5.02899 -1.42879e-19)
(1.30143 4.63119 1.89217e-20)
(19.6356 0.553641 3.64576e-20)
(19.6833 1.00974 0)
(19.7065 1.46799 -5.68273e-19)
(19.7052 1.92723 0)
(19.6794 2.38612 2.827e-19)
(19.6294 2.8433 8.27013e-19)
(19.5552 3.29735 5.42428e-19)
(19.4571 3.7477 1.09978e-18)
(19.3354 4.19247 9.58061e-21)
(19.191 4.63077 -6.70108e-21)
(19.0243 5.06118 -5.92162e-20)
(18.8356 5.48271 -5.22759e-19)
(18.6252 5.89432 5.04729e-19)
(18.394 6.29507 -1.47965e-18)
(18.1426 6.68374 1.00373e-18)
(17.8718 7.05907 -4.79979e-20)
(17.582 7.42029 -9.10166e-19)
(17.274 7.7665 -9.32214e-19)
(16.9487 8.0972 0)
(16.6071 8.41177 8.34647e-19)
(16.2506 8.70924 -3.72905e-20)
(15.88 8.98882 -1.64158e-18)
(15.4966 9.24959 -5.69085e-21)
(15.101 9.49063 -6.814e-19)
(14.6939 9.71176 2.07339e-18)
(14.2767 9.91252 -3.43009e-20)
(13.8502 10.0925 -6.61918e-19)
(13.4158 10.2517 -6.95314e-20)
(12.9747 10.3894 0)
(12.5281 10.5053 0)
(12.0769 10.5991 0)
(11.6219 10.6711 0)
(11.1648 10.7212 0)
(10.7066 10.7495 5.31426e-20)
(10.2491 10.7556 -3.43662e-19)
(9.79279 10.7396 3.87384e-20)
(9.3389 10.7014 5.24248e-20)
(8.88839 10.6412 2.20897e-19)
(8.44202 10.5598 4.19612e-19)
(8.00123 10.4575 -5.22779e-19)
(7.56716 10.3345 3.07248e-19)
(7.14065 10.1917 -9.52078e-20)
(6.72315 10.0293 0)
(6.31564 9.84802 3.49006e-20)
(5.91902 9.64831 0)
(5.53448 9.4301 -3.94654e-20)
(5.16171 9.19463 7.609e-20)
(4.80236 8.94253 -5.28845e-20)
(4.45644 8.67499 -6.6895e-20)
(4.1259 8.39236 1.00574e-19)
(3.81055 8.0953 1.88601e-20)
(3.51127 7.78513 1.52106e-20)
(3.22907 7.46234 -2.77324e-19)
(2.96382 7.12805 3.16313e-19)
(2.71674 6.78263 1.73251e-19)
(2.48669 6.42771 9.06019e-20)
(2.27542 6.06427 3.01625e-19)
(2.08186 5.69382 0)
(1.90826 5.31728 -2.30871e-19)
(1.75348 4.93586 6.1341e-20)
(1.61937 4.55044 0)
(19.4634 0.606886 0)
(19.5059 1.04758 0)
(19.5249 1.49038 2.46336e-19)
(19.5203 1.93384 -4.71873e-19)
(19.4922 2.377 -2.43462e-19)
(19.4409 2.81859 -1.182e-18)
(19.3665 3.25692 4.56348e-19)
(19.2688 3.69096 -9.43392e-19)
(19.1485 4.12035 1.52374e-20)
(19.0063 4.5438 1.337e-18)
(18.8429 4.95937 -1.78449e-18)
(18.6581 5.36615 0)
(18.4525 5.7631 0)
(18.2266 6.14995 1.68944e-18)
(17.9816 6.52525 8.16483e-19)
(17.7182 6.88704 -1.65682e-18)
(17.4363 7.23521 2.37222e-18)
(17.1366 7.56884 7.54542e-19)
(16.8199 7.88757 -1.47901e-18)
(16.4876 8.19115 -7.42172e-19)
(16.1411 8.4781 6.84792e-19)
(15.7813 8.74804 -6.98732e-20)
(15.4093 8.99984 0)
(15.026 9.23197 1.28231e-18)
(14.6311 9.44503 -1.80913e-18)
(14.2265 9.63847 5.82821e-19)
(13.813 9.81183 1.04899e-18)
(13.3917 9.96544 -2.54677e-18)
(12.9645 10.0982 4.98362e-19)
(12.5318 10.2103 0)
(12.0951 10.3004 0)
(11.6541 10.3701 0)
(11.2115 10.4183 3.45804e-19)
(10.7674 10.4464 9.78616e-19)
(10.3248 10.4528 -5.77199e-19)
(9.88302 10.4375 2.51825e-19)
(9.4437 10.4009 2.41229e-19)
(9.00782 10.3426 -4.29372e-19)
(8.57529 10.2638 0)
(8.14809 10.165 -2.41255e-19)
(7.72759 10.0461 1.25495e-19)
(7.31382 9.90822 1.39446e-20)
(6.90889 9.75172 9.67046e-21)
(6.51395 9.57709 3.00994e-20)
(6.12936 9.38519 -1.04727e-20)
(5.75754 9.17468 1.47996e-19)
(5.39594 8.94797 -6.35659e-20)
(5.04802 8.70487 2.17996e-19)
(4.71187 8.44754 0)
(4.39189 8.17557 0)
(4.08594 7.88926 -3.93943e-19)
(3.79507 7.59056 1.07189e-19)
(3.52168 7.27953 2.46146e-19)
(3.26365 6.9574 1.45546e-19)
(3.02445 6.62387 -4.58824e-19)
(2.79989 6.28119 -2.56919e-19)
(2.59441 5.93 -9.45922e-20)
(2.4043 5.57248 -2.06976e-21)
(2.23501 5.20899 1.01368e-19)
(2.08237 4.84075 0)
(1.95105 4.46846 0)
(19.2713 0.657427 -2.4859e-20)
(19.308 1.08165 0)
(19.3223 1.50814 0)
(19.3139 1.93515 2.09027e-19)
(19.2832 2.36163 0)
(19.2308 2.7866 8.05099e-19)
(19.1568 3.20836 3.97083e-19)
(19.0598 3.62529 -7.79817e-19)
(18.9402 4.03923 0)
(18.8005 4.44806 -7.91489e-19)
(18.6417 4.84718 4.33982e-20)
(18.4614 5.23845 0)
(18.2612 5.61957 0)
(18.0408 5.99167 -7.37871e-19)
(17.8026 6.35374 6.81399e-19)
(17.5479 6.70079 -7.05676e-19)
(17.2744 7.03523 -6.8801e-19)
(16.9834 7.35594 0)
(16.6762 7.6616 6.50177e-19)
(16.3534 7.95367 -1.18583e-18)
(16.0179 8.22921 -1.14573e-18)
(15.6694 8.48911 -1.17641e-18)
(15.3092 8.73222 -9.35676e-21)
(14.9397 8.95423 -9.71636e-19)
(14.5575 9.15869 1.03036e-18)
(14.1656 9.34476 9.28967e-19)
(13.7663 9.51049 -9.42776e-19)
(13.3582 9.65857 5.88443e-20)
(12.9458 9.78556 1.00193e-21)
(12.5271 9.89462 -7.88533e-19)
(12.1065 9.97972 0)
(11.6793 10.0479 -6.29222e-19)
(11.2527 10.0935 1.21232e-18)
(10.8225 10.1225 -4.55876e-20)
(10.3968 10.1294 5.19192e-19)
(9.97089 10.1151 -4.23109e-19)
(9.54721 10.0805 3.59929e-19)
(9.128 10.0236 2.58604e-19)
(8.71004 9.9477 -5.68483e-19)
(8.29696 9.8527 2.39301e-19)
(7.89167 9.73806 1.53753e-19)
(7.49048 9.60515 1.63676e-19)
(7.09817 9.45446 -3.55542e-20)
(6.71679 9.28675 0)