/*--------------------------------*- C++ -*----------------------------------*\
| =========                 |                                                 |
| \\      /  F ield         | OpenFOAM: The Open Source CFD Toolbox           |
|  \\    /   O peration     | Version:  2.3.1                                 |
|   \\  /    A nd           | Web:      www.OpenFOAM.org                      |
|    \\/     M anipulation  |                                                 |
\*---------------------------------------------------------------------------*/
FoamFile
{
    version     2.0;
    format      ascii;
    class       volScalarField;
    location    "0.27";
    object      k;
}
// * * * * * * * * * * * * * * * * * * * * * * * * * * * * * * * * * * * * * //

dimensions      [0 2 -2 0 0 0 0];

internalField   nonuniform List<scalar> 
15166
(
1.07756
1.31928
1.69894
2.09793
2.40636
2.71406
2.9336
3.06458
3.1096
3.08628
3.00221
2.89067
1.07798
1.29042
1.70243
2.08992
2.39776
2.68447
2.88368
2.99807
3.03274
3.00459
2.92182
2.80149
1.08608
1.25867
1.68682
2.06775
2.37495
2.64517
2.82892
2.93081
2.95837
2.92689
2.84428
2.72071
1.09666
1.23317
1.66507
2.03925
2.34368
2.59991
2.77141
2.86387
2.88638
2.85257
2.76927
2.64087
1.10811
1.21392
1.64184
2.0086
2.30822
2.55195
2.71314
2.79818
2.81697
2.78154
2.69777
2.56869
1.12048
1.19924
1.61825
1.97712
2.27064
2.50297
2.65526
2.73427
2.75021
2.7136
2.6294
2.49908
1.13379
1.18804
1.59493
1.94544
2.23192
2.45389
2.59835
2.67238
2.68605
2.64852
2.5636
2.43031
1.14784
1.17967
1.57239
1.914
2.19286
2.40528
2.54279
2.6126
2.62443
2.58624
2.50106
2.36844
1.16241
1.17365
1.55098
1.88326
2.15404
2.3576
2.48883
2.55499
2.5653
2.52667
2.44154
2.3097
1.17733
1.16952
1.5308
1.85337
2.11585
2.31112
2.43662
2.49955
2.50857
2.46971
2.38514
2.25588
1.19245
1.16694
1.5119
1.82446
2.07851
2.266
2.3862
2.44624
2.45417
2.41532
2.33182
2.20606
1.20767
1.16558
1.49423
1.79659
2.04217
2.22232
2.33761
2.39501
2.40201
2.36343
2.28177
2.16183
1.2229
1.16522
1.47773
1.76974
2.00692
2.18011
2.29079
2.34577
2.352
2.31392
2.23455
2.12051
1.23805
1.1657
1.46235
1.74391
1.9728
2.13937
2.24573
2.29846
2.30403
2.26656
2.18899
2.07539
1.25306
1.16678
1.448
1.71912
1.93981
2.10008
2.20235
2.25299
2.25803
2.22131
2.1459
2.03705
1.26787
1.16838
1.43458
1.69531
1.90797
2.06221
2.16061
2.20929
2.21386
2.17797
2.10482
1.99983
1.28244
1.17034
1.422
1.67245
1.87725
2.02572
2.12043
2.16726
2.17145
2.13646
2.0655
1.96367
1.29674
1.17259
1.41022
1.65052
1.84763
1.99056
2.08175
2.12684
2.1307
2.09664
2.02778
1.92876
1.31071
1.17507
1.39913
1.62946
1.81907
1.95666
2.0445
2.08793
2.09152
2.05841
1.9917
1.89609
1.32434
1.17767
1.38871
1.60924
1.79154
1.92399
2.00862
2.05046
2.05382
2.02169
1.95709
1.86474
1.33759
1.18037
1.37885
1.58981
1.76499
1.89249
1.97402
2.01436
2.01752
1.98634
1.92369
1.83344
1.35048
1.1831
1.36951
1.57116
1.73941
1.86211
1.94067
1.97955
1.98254
1.95227
1.89139
1.80297
1.36296
1.18583
1.36065
1.5532
1.71472
1.8328
1.90849
1.94599
1.94881
1.91941
1.86008
1.77289
1.37502
1.18855
1.35221
1.53593
1.69091
1.80452
1.87744
1.91359
1.91626
1.88767
1.82973
1.74387
1.38666
1.19123
1.34416
1.51933
1.66795
1.77722
1.84746
1.88232
1.88482
1.85698
1.80035
1.71593
1.39785
1.19384
1.33644
1.50334
1.64579
1.75085
1.81851
1.8521
1.85444
1.8273
1.77191
1.68911
1.40862
1.19636
1.32904
1.48791
1.62439
1.72538
1.79053
1.8229
1.82506
1.79857
1.74446
1.66364
1.41895
1.19882
1.32193
1.47303
1.60371
1.70076
1.76348
1.79465
1.79663
1.77077
1.71798
1.63963
1.42882
1.20118
1.31507
1.45868
1.58374
1.67696
1.73731
1.76732
1.76911
1.74387
1.69242
1.61631
1.43826
1.20344
1.30846
1.44481
1.56444
1.65394
1.71199
1.74086
1.74246
1.71783
1.66765
1.59336
1.44724
1.20561
1.30204
1.43141
1.54577
1.63166
1.68749
1.71523
1.71664
1.69259
1.64369
1.57129
1.45576
1.20768
1.29582
1.41843
1.52771
1.6101
1.66375
1.69041
1.69162
1.66813
1.62044
1.54971
1.46383
1.20966
1.28978
1.40589
1.51023
1.58923
1.64076
1.66634
1.66735
1.6444
1.59791
1.52899
1.47149
1.21154
1.28392
1.39373
1.4933
1.569
1.61848
1.64301
1.64381
1.62139
1.57605
1.50876
1.47866
1.21331
1.2782
1.38196
1.47691
1.5494
1.59687
1.62038
1.62098
1.59906
1.55485
1.48926
1.48542
1.21502
1.27265
1.37052
1.46102
1.53041
1.57592
1.59842
1.59881
1.57737
1.53426
1.47023
1.49174
1.21661
1.26723
1.35943
1.44561
1.51198
1.55559
1.57709
1.57727
1.5563
1.51429
1.45211
1.49762
1.21813
1.26194
1.34866
1.43066
1.49411
1.53585
1.55639
1.55635
1.53584
1.49492
1.43465
1.50309
1.21958
1.25678
1.33819
1.41616
1.47676
1.51669
1.53627
1.53602
1.51596
1.4761
1.41735
1.50813
1.22095
1.25174
1.32802
1.40209
1.45993
1.49809
1.51673
1.51626
1.49664
1.45788
1.40114
1.51272
1.22226
1.24681
1.31812
1.38842
1.44358
1.48001
1.49773
1.49705
1.47784
1.43998
1.38357
1.51686
1.22347
1.24198
1.3085
1.37515
1.4277
1.46245
1.47927
1.47836
1.45952
1.42243
1.36636
1.52056
1.22459
1.23727
1.29914
1.36225
1.41227
1.44538
1.46131
1.46017
1.44168
1.40535
1.35055
1.52383
1.2256
1.23266
1.29003
1.34972
1.39727
1.42878
1.44383
1.44246
1.42429
1.3887
1.33491
1.5267
1.22649
1.22815
1.28118
1.33753
1.38268
1.41263
1.42683
1.42522
1.40735
1.37249
1.32006
1.52914
1.22723
1.22374
1.27257
1.32567
1.36849
1.39693
1.41028
1.40843
1.39083
1.35667
1.30509
1.53118
1.22788
1.21945
1.26418
1.31412
1.3547
1.38164
1.39417
1.39207
1.37473
1.3413
1.29122
1.53283
1.22839
1.21524
1.25602
1.30288
1.34128
1.36677
1.37848
1.37612
1.35903
1.32631
1.2773
1.53409
1.22879
1.21111
1.24805
1.29194
1.32822
1.35228
1.36318
1.36056
1.34371
1.3117
1.26412
1.53497
1.2291
1.20706
1.24029
1.28129
1.31549
1.33816
1.34826
1.34538
1.32875
1.29742
1.25076
1.53547
1.22931
1.20308
1.23272
1.27093
1.3031
1.3244
1.33372
1.33057
1.31415
1.28348
1.23804
1.5356
1.22947
1.19917
1.22533
1.26084
1.29103
1.311
1.31954
1.31612
1.29989
1.26989
1.22568
1.53536
1.22954
1.19534
1.21812
1.25101
1.27927
1.29794
1.30572
1.30202
1.28598
1.25659
1.21309
1.53475
1.22955
1.19157
1.21108
1.24143
1.26782
1.28521
1.29224
1.28826
1.2724
1.24363
1.20139
1.53379
1.22948
1.18786
1.20421
1.23209
1.25666
1.27281
1.27909
1.27483
1.25913
1.231
1.1901
1.5325
1.22933
1.18422
1.1975
1.22299
1.24578
1.26071
1.26626
1.26172
1.24618
1.21871
1.17919
1.53085
1.2291
1.18065
1.19094
1.21412
1.23518
1.24891
1.25374
1.24892
1.23354
1.2067
1.16821
1.52887
1.22884
1.17716
1.18454
1.20546
1.22484
1.23741
1.24154
1.23643
1.22121
1.19497
1.15754
1.52655
1.22848
1.17372
1.17829
1.19702
1.21476
1.2262
1.22963
1.22424
1.20916
1.18344
1.14633
1.52389
1.22809
1.17036
1.17219
1.18879
1.20493
1.21526
1.218
1.21234
1.19738
1.17217
1.13593
1.52091
1.22762
1.16707
1.16623
1.18076
1.19534
1.20458
1.20666
1.20071
1.18587
1.16118
1.12614
1.51761
1.22711
1.16384
1.1604
1.17291
1.18599
1.19417
1.19558
1.18936
1.17463
1.15048
1.11665
1.51399
1.22652
1.16068
1.15472
1.16527
1.17687
1.18401
1.18477
1.17828
1.16365
1.14002
1.10707
1.51005
1.22591
1.15759
1.14918
1.15781
1.16797
1.1741
1.17423
1.16746
1.15293
1.1298
1.09772
1.5058
1.22524
1.15458
1.14377
1.15053
1.15929
1.16444
1.16394
1.1569
1.14246
1.11978
1.08831
1.50123
1.22455
1.15164
1.1385
1.14343
1.15083
1.15501
1.1539
1.14659
1.13223
1.10998
1.07925
1.49637
1.22379
1.14876
1.13337
1.13652
1.14257
1.14581
1.14411
1.13652
1.12223
1.10038
1.07019
1.49118
1.22299
1.14597
1.12836
1.12977
1.13452
1.13684
1.13455
1.12669
1.11246
1.09099
1.06155
1.48569
1.22218
1.14326
1.12349
1.1232
1.12668
1.12809
1.12522
1.1171
1.10292
1.08181
1.05304
1.47991
1.22129
1.14063
1.11876
1.11679
1.11903
1.11956
1.11612
1.10773
1.09359
1.07284
1.04484
1.47384
1.22038
1.13807
1.11416
1.11056
1.11157
1.11124
1.10724
1.09859
1.08448
1.06406
1.03659
1.46746
1.21941
1.13559
1.10968
1.10448
1.1043
1.10312
1.09858
1.08966
1.07557
1.05547
1.02865
1.4608
1.21843
1.13319
1.10534
1.09858
1.09721
1.09521
1.09013
1.08094
1.06688
1.04708
1.0209
1.45383
1.21744
1.13089
1.10115
1.09284
1.09032
1.0875
1.08189
1.07244
1.05839
1.03889
1.01324
1.44657
1.21639
1.12865
1.09708
1.08725
1.08361
1.07999
1.07386
1.06415
1.05009
1.03087
1.0058
1.43905
1.2153
1.12651
1.09315
1.08183
1.07708
1.07267
1.06603
1.05606
1.042
1.02302
0.998291
1.43123
1.21414
1.12445
1.08935
1.07658
1.07073
1.06555
1.0584
1.04817
1.03409
1.01533
0.990977
1.42312
1.21298
1.12247
1.0857
1.07148
1.06456
1.05862
1.05097
1.04048
1.02638
1.00781
0.983744
1.41472
1.2118
1.12061
1.08218
1.06656
1.05856
1.05187
1.04374
1.03299
1.01885
1.00045
0.976747
1.40604
1.21057
1.11883
1.07881
1.06179
1.05275
1.04532
1.03669
1.02569
1.01151
0.993261
0.969767
1.39708
1.20932
1.11714
1.07559
1.05719
1.04711
1.03895
1.02984
1.01857
1.00434
0.986232
0.963116
1.38785
1.20801
1.11553
1.0725
1.05275
1.04164
1.03276
1.02317
1.01164
0.997339
0.979361
0.956663
1.37833
1.20667
1.11402
1.06956
1.04848
1.03636
1.02676
1.0167
1.0049
0.990531
0.972677
0.95028
1.36854
1.2053
1.11262
1.06677
1.04437
1.03125
1.02094
1.01042
0.99835
0.983908
0.966158
0.943941
1.35847
1.2039
1.11132
1.06413
1.04044
1.02632
1.01531
1.00432
0.991982
0.977453
0.959794
0.937878
1.34813
1.20245
1.11011
1.06165
1.03668
1.02157
1.00985
0.998399
0.985796
0.97118
0.953593
0.931813
1.33753
1.20093
1.109
1.05933
1.0331
1.017
1.00459
0.992667
0.979791
0.965071
0.947541
0.926091
1.32664
1.19938
1.10799
1.05716
1.02969
1.01262
0.999508
0.987122
0.973972
0.959153
0.941682
0.920393
1.31547
1.19781
1.10708
1.05516
1.02647
1.00843
0.994617
0.981766
0.968337
0.953412
0.935988
0.914891
1.30402
1.1962
1.10629
1.05333
1.02343
1.00442
0.989912
0.976594
0.962884
0.947839
0.930423
0.909221
1.2923
1.19454
1.10559
1.05167
1.02058
1.0006
0.985395
0.971606
0.95761
0.942437
0.925045
0.904356
1.2803
1.19283
1.105
1.05018
1.01792
0.996974
0.981074
0.966814
0.952538
0.937251
0.919912
0.899483
1.26806
1.19104
1.10452
1.04886
1.01546
0.99355
0.97695
0.962217
0.947651
0.932232
0.914917
0.894728
1.25552
1.18923
1.10414
1.04773
1.0132
0.990332
0.973027
0.957815
0.942955
0.927397
0.9101
0.890018
1.24272
1.18734
1.10387
1.04678
1.01115
0.98732
0.969306
0.953613
0.938451
0.922747
0.905443
0.885445
1.22965
1.18537
1.1037
1.04602
1.0093
0.984521
0.965793
0.949612
0.934147
0.918296
0.900971
0.880935
1.21631
1.18334
1.10367
1.04546
1.00768
0.981942
0.962495
0.945819
0.930037
0.914018
0.89664
0.876664
1.20267
1.1813
1.10373
1.0451
1.00629
0.979592
0.959415
0.942233
0.926132
0.909939
0.892511
0.87251
1.18878
1.1791
1.10392
1.04494
1.00513
0.977471
0.95656
0.938863
0.922432
0.906055
0.888551
0.868558
1.1746
1.17687
1.10421
1.04499
1.00421
0.975596
0.953938
0.93572
0.918949
0.90238
0.884804
0.864727
1.16015
1.17456
1.10462
1.04526
1.00354
0.973965
0.951552
0.932799
0.915673
0.898896
0.881223
0.861214
1.14541
1.1722
1.10515
1.04576
1.00313
0.972595
0.949415
0.930111
0.912621
0.89563
0.877859
0.857876
1.1304
1.16977
1.10579
1.04648
1.00299
0.971494
0.94754
0.927676
0.909815
0.892606
0.874737
0.854667
1.11511
1.16722
1.10655
1.04743
1.00312
0.970675
0.945931
0.925492
0.907247
0.889804
0.871833
0.851746
1.09956
1.16453
1.10743
1.04863
1.00354
0.970149
0.944598
0.923567
0.904921
0.887232
0.869147
0.849131
1.08372
1.16179
1.10842
1.05008
1.00426
0.969925
0.943555
0.921916
0.902854
0.88492
0.866727
0.846638
1.0676
1.1589
1.10953
1.05178
1.00529
0.970016
0.942817
0.920551
0.90105
0.882838
0.864489
0.844411
1.05119
1.15593
1.11076
1.05375
1.00665
0.970445
0.9424
0.91949
0.899535
0.881037
0.86253
0.84235
1.03449
1.15293
1.11211
1.05601
1.00835
0.971228
0.942324
0.918745
0.898316
0.879518
0.860835
0.840538
1.01751
1.14972
1.1136
1.05855
1.01041
0.97238
0.942606
0.91833
0.897404
0.878273
0.85937
0.838902
1.00024
1.14643
1.11522
1.06139
1.01286
0.97393
0.943266
0.918274
0.896827
0.877346
0.858226
0.837594
0.982672
1.14306
1.11695
1.06454
1.01569
0.975888
0.944326
0.918595
0.896602
0.876757
0.857418
0.836695
0.964835
1.13942
1.1188
1.068
1.01894
0.978294
0.945812
0.919318
0.896764
0.876553
0.857018
0.836084
0.9467
1.13573
1.12079
1.07179
1.02261
0.981152
0.947746
0.920452
0.897299
0.876668
0.856832
0.835361
0.92827
1.13192
1.12286
1.07593
1.02675
0.984497
0.950145
0.922019
0.898222
0.877125
0.856954
0.835141
0.909562
1.12787
1.1251
1.08041
1.03136
0.988351
0.953046
0.924056
0.899583
0.878008
0.857524
0.835432
0.89054
1.12376
1.12745
1.08528
1.03648
0.992774
0.956495
0.92661
0.901417
0.879317
0.85844
0.836023
0.871225
1.11935
1.12997
1.09053
1.04214
0.997786
0.960541
0.929725
0.903782
0.881131
0.859886
0.837255
0.85161
1.11479
1.13257
1.09619
1.04838
1.00344
0.965224
0.933443
0.90671
0.883484
0.861862
0.839056
0.831722
1.11014
1.13531
1.10226
1.05523
1.00977
0.970596
0.937822
0.910244
0.886408
0.86439
0.841193
0.81153
1.10523
1.1382
1.10879
1.06272
1.01684
0.976695
0.942887
0.914403
0.889854
0.867261
0.843266
0.791023
1.10009
1.14124
1.11579
1.07091
1.02471
0.983598
0.948703
0.919256
0.893938
0.870763
0.846339
0.770224
1.09468
1.14442
1.12329
1.07984
1.03344
0.991383
0.955373
0.924909
0.898791
0.875073
0.850348
0.749142
1.08923
1.14772
1.13133
1.08959
1.0431
1.00015
0.962966
0.931399
0.90438
0.879943
0.854642
0.727736
1.08338
1.15122
1.13996
1.10022
1.05381
1.00997
0.971581
0.938837
0.910826
0.88563
0.85965
0.706025
1.07728
1.15491
1.14924
1.11182
1.06567
1.02098
0.981335
0.947319
0.918195
0.892089
0.865411
0.684024
1.07112
1.15882
1.15923
1.12453
1.07882
1.03334
0.992393
0.957007
0.926664
0.899589
0.872193
0.661679
1.06455
1.16305
1.17006
1.13847
1.09345
1.04722
1.00491
0.968037
0.936352
0.908166
0.87971
0.639007
1.05781
1.16765
1.18186
1.15386
1.10974
1.06282
1.01907
0.980541
0.947337
0.917908
0.888498
0.615949
1.05081
1.17277
1.19495
1.17095
1.12798
1.08039
1.03505
0.994686
0.95973
0.928824
0.89824
0.592508
1.04382
1.17883
1.20964
1.19017
1.14852
1.10021
1.05314
1.0107
0.97376
0.941254
0.909485
0.568565
1.03698
1.18638
1.22663
1.21204
1.17176
1.12263
1.07358
1.02875
0.989524
0.955113
0.921881
0.544052
1.03157
1.19663
1.24688
1.23719
1.19812
1.14787
1.09652
1.049
1.00711
0.97043
0.935271
0.51884
1.03111
1.21283
1.27277
1.26693
1.22845
1.17668
1.12274
1.07203
1.02699
0.987489
0.950072
0.489166
1.03248
1.2279
1.2993
1.29537
1.25753
1.20453
1.14916
1.09534
1.04782
1.00545
0.966302
1.02902
0.00466234
0.341709
0.316879
0.315851
0.285273
0.275921
0.646499
0.820752
0.768129
0.560896
0.00772699
0.0322395
2.9925
0.271096
0.00354459
2.80558
0.10919
0.106267
0.00347866
0.138469
0.174338
0.142805
0.0266582
1.04412
0.340844
0.157762
0.367396
0.59661
0.802966
0.530652
1.16544
0.00418801
0.551486
0.0307846
0.162436
0.388222
0.46393
0.392849
0.00812777
0.0691906
0.00337309
0.0706351
0.520551
0.270254
0.171292
0.0600811
0.0245287
0.273201
0.137942
0.160675
0.634255
0.26475
0.00321462
1.96782
0.0044305
0.0105383
0.00337008
0.464634
0.260535
0.153347
1.19009
0.0032091
0.0166958
0.180376
0.0045154
0.874378
0.25411
1.53107
0.680379
1.86466
0.0529333
0.383164
0.717465
0.0271186
0.00323211
0.787618
0.00309621
0.0693391
0.240724
0.102139
0.00310457
0.40704
0.296992
0.0161768
1.10608
0.870206
0.00319463
0.385587
0.239458
0.353326
0.645043
0.00319822
0.00391125
0.458685
0.00325978
0.354967
0.0125997
0.00317177
0.885179
1.09389
0.199716
0.00334964
0.00432489
0.00312138
0.516569
0.507618
0.690079
0.524829
0.008577
0.0936819
0.00312688
0.201462
0.00371953
0.00318212
0.218054
0.0193473
0.216604
1.08063
0.173765
1.00953
0.0290134
1.68252
0.195921
0.124278
1.27827
0.00403829
1.96261
0.0318282
0.0032001
0.231842
0.00323636
0.233878
0.00433025
0.160488
0.00512468
0.23491
0.588198
0.206997
0.00581947
0.0168596
0.144361
0.270476
0.0246395
0.175663
1.87812
0.299633
0.00452701
0.971611
0.374005
0.0602773
0.212227
0.00309735
0.113285
0.153868
0.00314681
0.247778
0.0032127
1.2656
0.00704416
0.026759
0.00356405
0.126557
0.0131847
0.147154
0.0832161
0.983339
0.293565
0.335228
0.00307972
1.86928
0.747637
1.97258
0.0177481
0.0030761
0.566602
0.00311706
0.307519
0.135624
0.710254
1.00778
0.43302
0.0622142
0.371827
0.00338681
0.262042
0.00317769
0.00315324
0.176445
0.00318552
0.481038
0.00311148
0.936114
0.00474219
0.283451
0.295357
0.27117
0.164031
0.00312691
3.1473
1.00805
0.319187
0.41577
0.216388
0.32521
0.103661
0.0904795
0.225802
0.692603
0.214008
0.289228
0.889291
0.500501
0.398301
0.0031544
0.283934
0.0128671
0.420535
3.22334
0.211876
0.296353
1.00919
0.340477
0.00315594
0.00318688
1.29444
1.10541
0.00326754
4.17543
0.031864
0.312172
0.120049
0.00311779
0.933229
0.407539
0.253842
0.245575
1.06652
0.644709
0.321762
0.152821
0.158925
1.24287
1.66963
0.373975
0.282756
0.228658
0.00350031
1.3822
0.290489
0.642272
0.715336
0.373593
3.93088
0.238474
0.237127
0.205
0.309994
0.570346
0.343222
0.21346
0.258558
0.0155933
0.0889261
0.683185
0.262413
0.911297
0.506609
0.354977
1.48695
0.281559
0.0496673
1.62315
0.20937
0.20864
1.67911
0.244209
0.260566
0.303713
0.205032
0.865921
0.24063
0.373573
0.331867
0.6055
0.272523
0.467573
0.208194
1.10864
0.127224
0.203098
1.65175
0.226432
0.224991
0.284181
0.919214
0.117795
0.206377
0.066836
0.482085
0.182241
0.103125
1.35989
2.03672
0.151696
0.942714
0.325442
0.00318777
0.198054
0.163909
0.208504
0.290533
0.00315702
1.17379
0.321024
0.066408
0.225869
0.752561
0.0031519
0.637221
0.0382608
0.571846
0.41595
4.89928
0.50428
0.748708
0.531232
0.00313844
0.00316519
0.286639
0.439336
0.00312343
0.510288
0.00311588
0.00316397
0.00322333
0.00311717
0.138493
0.00316342
0.0057876
1.02243
0.512065
0.003229
0.334484
0.00976454
0.19614
0.295334
1.27387
4.11373
0.473416
0.00307332
0.00323683
0.0809351
0.131918
0.209011
0.0030775
0.0978008
0.317664
0.868015
0.372464
0.178852
0.275149
1.01452
4.05382
0.154111
0.320597
0.00364428
0.00318505
0.155807
0.251653
0.114845
0.174619
0.50674
2.74153
1.67821
0.141913
0.343133
1.0025
0.00319699
0.41373
0.740677
0.00525011
0.00317271
0.520252
3.80713
0.734607
0.0031065
0.0481777
0.152943
0.0253405
0.00319865
0.823294
0.377131
0.278983
0.283193
0.00374191
3.78347
0.00314217
0.232618
0.536905
0.00644892
0.0110519
0.948286
0.00873286
1.39546
0.765603
1.13843
0.64482
0.173103
0.682207
0.00313925
0.00312317
0.00317201
1.02691
0.0745417
1.26125
2.75263
0.163593
0.591685
0.00317895
0.0103787
0.274634
0.0030855
0.00317083
0.702991
0.00311863
0.22481
0.905554
0.373181
0.00307207
0.00744591
0.109334
0.114591
0.236534
0.143052
0.00310569
3.31663
0.826718
0.10802
0.0122815
0.329318
0.199798
0.00706432
0.279331
0.0068497
0.833447
0.003523
0.249548
0.130862
0.00311634
1.28802
0.237941
0.321747
0.00924522
0.464665
0.143124
0.00514993
0.21771
0.491543
0.347898
1.1082
0.0237954
0.0501344
0.0114328
1.29861
0.667234
0.0619072
0.13578
0.160862
0.334478
0.179912
0.512543
1.10226
0.00307938
2.02869
0.90419
0.225794
0.00309935
0.269408
0.949329
0.0230592
0.437915
0.349614
0.253126
0.125319
0.178292
0.25934
0.00358116
0.0187378
0.865262
0.0386885
0.00439518
0.922388
4.05568
0.0390813
0.201341
0.778293
0.0881042
0.49126
0.260977
0.833582
0.320665
0.292836
0.00323252
0.0839464
0.44936
0.381739
1.31897
0.215738
1.40787
0.936703
3.72255
0.875356
0.306272
0.00316671
1.25143
0.20448
0.791748
0.4098
0.160608
0.0831581
0.419645
0.00322986
0.298142
0.00317768
0.342952
0.414922
0.213447
0.176221
1.25778
0.241386
1.0281
0.63341
1.958
0.00321968
0.121922
0.922298
2.43579
0.194919
0.708304
0.0036105
0.0279275
0.344908
1.8396
0.584192
0.00310313
0.0575305
0.00312266
0.0579441
0.351335
0.0371572
0.834685
0.141022
0.590503
0.15374
0.123192
1.22899
0.708445
0.0031951
0.00319635
0.256827
1.20383
0.277282
0.590725
0.436271
0.658291
0.26839
0.00307231
0.184225
0.25392
0.00484121
1.03782
0.26537
0.177592
0.276007
0.0125925
0.00308056
0.0234499
0.00313878
0.638395
0.807986
0.710336
0.62957
0.00319173
1.46301
0.0886205
0.743107
0.133274
1.71533
0.00808912
0.152733
0.00309069
0.496812
0.715703
0.316703
0.404139
0.00307342
1.28763
0.795947
0.511161
0.00312372
0.0678984
0.803282
0.608832
0.00606467
2.17031
0.00373092
0.791586
0.604075
0.00362349
0.130097
0.0866801
0.199841
0.00310594
0.00319883
1.14443
0.432795
0.322403
0.527025
0.0048602
0.126677
0.0970814
0.759138
0.20733
0.00394411
0.204595
1.20747
0.00308303
0.00814517
0.288181
0.636821
1.10429
0.00315741
0.728953
0.223063
1.2951
0.0293696
0.150882
0.816234
0.00319849
0.199695
0.136139
0.375671
0.377476
0.713351
0.269968
1.20377
1.16458
0.281709
2.69846
0.0032346
0.00315002
1.48171
0.773732
0.00473947
0.00315671
0.466874
0.00320625
0.813719
0.540017
0.244821
0.00312166
0.798057
0.0479944
0.293165
1.20214
0.237063
0.146484
0.14277
1.33281
0.00319208
0.282855
0.970145
0.236236
0.549471
0.00668795
0.526329
0.259477
2.03048
0.00313002
0.146341
0.673569
0.305173
0.00331967
0.0942602
0.344056
0.441069
1.25528
0.0583918
1.85765
0.407248
0.0914922
0.404721
0.00313393
0.00731785
0.355807
0.00307671
0.176516
0.00316507
0.244851
0.0107003
0.829393
0.00322991
0.109226
0.495396
1.5933
0.350747
0.660712
0.161125
2.42504
0.015474
0.0924237
0.563897
0.0031004
0.00320599
0.380094
0.153664
0.248957
0.390364
0.00328327
0.216342
0.218928
0.201254
0.485922
1.13488
0.200405
0.00319664
1.88186
2.41722
0.507117
0.00323832
0.0107166
2.07389
0.262203
0.00311993
1.27992
0.00310162
0.0794402
2.72028
0.00354199
0.290903
0.00314935
0.0557735
0.751462
0.00324368
0.00400727
0.00318306
0.00379337
0.0214748
3.78126
0.795038
0.0925382
0.241774
0.00316393
0.753528
0.00317314
0.244471
0.229536
0.0243686
0.15836
0.013739
1.13781
0.00318406
4.31014
0.212878
0.618915
0.350075
0.161548
0.00309791
0.194742
1.08631
0.128064
0.739505
0.875711
1.67705
0.349304
0.0414992
0.618494
0.0828962
0.0040533
0.105075
2.46266
1.13419
0.118199
0.00780135
0.299172
0.00374769
0.437379
0.861578
1.07496
0.830037
0.885924
0.0367971
0.0058119
0.327943
0.22623
0.0478581
0.271464
0.00316006
0.261361
1.94616
0.00329967
1.67979
0.773163
0.113506
0.100507
1.43604
0.0234334
0.0998904
0.450295
0.306351
0.289992
0.00322322
0.665072
0.0755016
0.271138
0.382661
0.199321
0.216965
0.00682369
0.676191
0.00317331
0.00316029
0.227636
0.103526
0.156833
1.89946
0.00307194
1.1277
0.0637899
0.0570138
0.00339368
1.70451
0.357451
0.088728
0.774732
0.0589496
1.15873
0.152817
0.00314226
1.19321
2.06941
0.00543161
0.00868318
0.20384
1.02652
0.0979304
1.32376
0.0348337
0.230176
0.102584
0.154932
0.671759
0.203493
0.00318768
1.16338
0.33036
0.0149563
0.194362
4.22471
0.277797
0.00317643
0.00309008
0.754396
0.18543
1.00199
0.00307718
0.705771
0.291794
0.409371
0.00376136
0.313621
0.767425
0.00535276
0.260165
0.00321471
1.11125
0.212417
0.347228
0.263819
0.00314565
0.00314542
0.344545
1.39049
0.380546
0.722896
0.00309046
0.0449509
0.00320745
0.00622308
1.14717
0.0731556
0.0956936
0.122859
0.326854
0.305286
0.356051
1.19639
0.00317245
0.306233
0.722497
0.247311
0.00319243
0.931751
0.00320378
0.00316608
0.0872517
0.213536
0.0248875
1.35711
0.204668
2.77629
0.00328235
0.00475058
0.0390685
0.902825
0.301177
0.962296
0.00316766
0.00314767
0.00625953
0.00829953
1.09108
0.795824
0.641099
0.12218
0.044271
0.311003
0.163285
0.577707
0.275211
0.86928
0.312029
0.00308526
0.331589
0.00534805
0.191135
0.878777
0.185711
0.229154
0.131035
0.00380101
1.32914
0.509686
0.478899
0.316434
0.00315891
0.588569
0.752814
0.333618
0.0081215
0.902493
0.480885
0.828376
0.327941
0.336416
0.586322
0.118649
0.860109
0.252077
0.0965408
0.23645
0.00317809
1.20124
0.862287
0.00311849
0.674543
0.00475665
0.539212
0.204873
0.234034
0.268434
0.730387
0.937968
0.261585
0.129139
0.17555
0.218677
0.0124142
0.00310997
1.01699
0.0608357
0.928084
0.549699
0.219203
0.824527
0.546134
0.00314472
0.279562
1.5327
1.05994
0.225963
0.239986
0.562807
1.87823
0.191097
0.231493
0.0246635
0.082556
0.548351
1.18271
0.110238
0.832017
0.809968
0.774296
0.239477
0.227885
0.418824
0.683425
0.0031915
1.92295
0.669872
0.200694
0.00319068
0.581962
0.466033
0.295881
0.0031767
0.591218
0.00317217
0.242422
0.0901606
0.00319333
0.812991
0.348554
0.0031063
0.531466
0.374805
0.600251
0.259215
0.518985
0.27924
0.692574
0.169879
0.15417
0.00312925
0.00468878
0.345394
0.172127
0.0213162
0.00323279
0.355865
0.00600315
0.117953
0.117076
0.439183
0.206235
0.0569073
0.0935326
0.551143
1.62074
0.331249
4.08871
0.859902
0.00311846
0.54068
0.581075
1.66095
0.00312651
0.171604
0.00318785
0.00358516
0.278885
0.285185
0.0386595
0.00340454
0.793596
3.7055
0.00733978
0.00317576
0.128401
0.256873
0.0236787
0.0730059
3.83147
0.138238
0.00338764
0.0031765
0.958214
0.264421
0.133572
0.0585649
0.651579
1.13122
0.392679
0.247467
0.669393
0.00317318
0.494349
0.00315939
0.231225
0.27547
5.3467
0.176899
0.0887328
0.00381859
1.17311
0.00319446
0.00313376
0.00582094
0.271878
0.288904
0.965717
0.00314903
0.499884
0.00317178
0.691264
0.965848
0.00320491
0.726031
0.220621
0.00317274
0.00329952
0.0313814
1.09254
0.378273
0.0261498
0.00317368
0.00313222
0.848193
0.685474
0.326907
0.744344
0.11588
0.438296
0.00314861
0.0102413
0.377335
0.810311
0.747722
0.00880316
0.00317614
0.399417
0.00320067
0.203984
0.805574
0.348006
0.0426053
0.201112
0.498623
0.154473
0.00316947
0.506715
1.31797
0.648537
0.00638938
0.0303187
0.681169
3.68414
0.0540299
0.368565
0.00311066
0.0030983
0.003213
0.0186085
0.403005
1.06315
0.0100877
0.221077
0.625432
1.23307
0.205097
0.0195116
0.00790272
0.00753211
0.155438
0.172164
0.238492
0.00322348
1.3296
0.00314292
0.0135423
0.832248
0.842664
0.0359088
0.36747
0.461575
0.00408851
0.129192
0.249555
0.00315471
0.00377578
1.10939
0.00364981
0.0032248
0.707574
0.237053
2.09179
0.208258
2.39981
0.00355875
0.00312038
3.22996
0.297054
0.222143
0.493016
0.0595592
0.234335
0.193994
1.02019
0.804617
0.588244
0.582056
0.233472
0.110209
0.323502
0.727954
0.0145153
0.352365
0.00391871
0.439633
0.364565
0.105626
0.378445
0.187225
0.408239
0.203328
0.263685
1.10416
0.461278
0.217069
0.318842
0.701349
0.320438
0.00419918
0.00315944
0.10981
2.20651
0.00316165
1.77163
0.00312583
0.00980293
0.339321
0.22172
0.810437
0.677414
0.901614
1.12701
0.513922
0.388252
0.00316637
0.290175
1.04636
0.00323919
1.23417
0.007092
1.70731
0.940058
1.13268
0.274909
0.206544
0.278775
0.0909832
0.285565
1.2226
0.360621
0.771775
0.16828
0.203454
0.0844813
0.231879
0.949322
0.00947379
0.65585
0.00319423
0.00392407
0.300066
1.50226
0.338141
0.274623
0.162459
0.109277
0.119875
0.00348053
0.34063
0.00348116
0.703141
0.00342632
0.0573352
0.942654
0.170212
0.302042
0.333501
0.317194
0.00619574
0.00321327
0.0977879
0.267536
0.113289
0.517771
0.041989
0.366792
0.23477
0.375447
0.790197
0.00358801
0.00314779
1.67111
0.223998
0.170452
0.800433
0.679182
0.807487
0.00978468
1.66788
0.337236
0.213242
0.00347239
0.194214
0.403253
0.205803
0.204911
0.265563
0.00323515
0.466156
0.00313392
0.626979
0.0105941
0.43955
0.116522
0.402973
0.00324326
6.51023
0.00319248
1.49497
0.0251753
0.00317434
0.0143975
0.275283
0.00317072
0.00318034
0.38957
0.0322162
0.327768
0.0563234
0.00332498
0.220592
0.184823
0.446283
0.00333754
0.223983
0.189176
1.35506
0.697545
0.395312
0.417867
0.215732
0.301733
0.777172
0.83104
0.211416
0.00322413
0.142638
0.361974
0.307224
0.00470465
0.00845875
0.236012
1.57245
0.00318406
0.203069
1.22256
0.00307898
0.839516
0.925342
0.356394
0.595571
0.786578
0.259186
0.128458
2.56759
0.405357
0.871608
0.811829
0.22326
0.10588
0.0031662
0.421424
0.00584485
0.00321786
0.00313393
0.301404
0.00316625
0.00373068
0.529913
4.04286
0.402213
0.207693
0.82381
0.239188
0.00318102
0.166644
1.14321
0.0250034
0.162495
1.00696
0.314514
0.123703
0.0308202
0.0031435
0.00316763
0.0269985
0.0442121
0.304737
0.301689
1.22247
0.268336
0.268844
0.003946
0.502095
0.215071
0.0032118
0.34236
3.35177
0.00320748
0.357081
1.01566
0.728933
0.656997
0.187302
1.08859
0.0035569
0.207366
0.00331578
0.00630839
0.0032097
0.823374
0.560688
0.0732031
0.00319324
0.00307947
1.11284
0.386373
0.285168
0.237003
0.34918
0.435281
0.305487
0.344206
0.351696
0.00317717
0.149272
0.121624
0.134531
0.384654
1.04756
0.756421
0.592295
0.364831
1.10422
0.826511
0.948081
0.41798
0.870641
0.0638
0.814995
0.393924
0.027693
1.0104
0.845661
0.440632
0.00312273
0.00320081
0.00360404
0.00442991
0.473977
0.00306974
0.495166
0.165755
0.995447
0.757066
0.00317068
0.467363
0.284374
0.187416
0.275351
0.390062
0.545276
0.00326294
0.00319927
0.00902673
0.0992364
0.00313222
0.638226
0.267086
0.247593
0.749449
0.507265
0.442654
0.532784
0.00316785
0.318695
0.659962
0.00380574
0.0779576
0.411036
0.314775
0.528883
0.192486
0.00325368
0.377413
0.360427
0.00384284
0.0202822
0.00315763
0.17966
0.00439209
0.141565
1.27418
0.110777
0.0726302
0.991011
1.8113
0.00326689
0.6186
0.00309027
0.224123
0.3472
0.249587
0.474812
0.69038
0.667706
0.800588
1.2097
0.735881
0.00317846
0.00314511
0.0525305
0.100259
0.597061
0.171406
0.00319266
1.57231
0.249879
0.00820278
0.777708
0.0578952
0.00810019
0.0397623
0.986826
0.0064247
0.00319376
0.260187
0.206259
0.632221
0.11344
0.227058
0.20191
0.00321203
0.290687
0.0892428
0.059321
0.00337275
0.204012
0.525695
0.172474
1.4346
1.32043
0.316256
0.408681
0.00316322
0.360982
0.0031995
2.70661
0.0102273
0.430315
0.0931766
0.83029
0.0161346
0.00927637
0.242223
0.30334
1.29912
0.00356335
0.208627
0.483282
0.610483
0.183901
0.998338
0.119091
0.0034307
0.00320505
0.47465
0.627058
1.05718
0.28548
0.0836434
0.530757
0.329569
0.807752
0.0453529
0.00316856
0.00318275
0.120533
0.706372
0.681113
0.977881
0.00353126
0.0108785
0.16471
0.454238
0.270293
0.74915
0.351389
0.868947
0.00319885
0.00320823
1.12428
0.275213
0.875079
2.86217
0.361761
0.0243929
1.39713
0.00318398
1.02225
0.027283
0.0303249
0.0031705
0.0411365
0.0833813
0.827253
0.784339
0.00322673
0.758112
0.00315907
0.602446
1.54976
0.00314498
0.154827
0.00322657
0.260612
0.12609
0.172975
0.00309258
0.262248
0.211909
0.256838
1.0114
0.166844
1.2108
0.213058
0.82092
0.238838
1.10534
0.627937
0.00383371
0.00320682
0.376314
0.192101
0.810185
0.00317713
2.09217
0.0031589
0.0047687
0.0339017
0.00315922
1.13479
0.960607
0.00324379
0.656715
0.252957
0.101193
0.700023
0.00605659
0.00312885
0.424857
0.37938
0.00963665
0.766518
6.62607
1.34347
0.152212
1.18382
0.102931
0.00318519
0.00368056
0.0347693
0.13627
0.834093
1.07628
1.30832
0.785301
0.531896
0.50233
0.252014
0.638812
1.92394
0.587259
0.0425546
0.0773203
0.272942
1.49039
0.00337933
0.191781
0.646977
0.332543
0.00317201
0.425907
0.00307279
0.013732
0.843139
0.00339411
0.299186
1.84078
0.00318984
0.351669
0.00352315
0.336247
0.0139211
0.00406199
0.756801
0.25674
0.905147
0.39373
1.10809
1.64488
0.490551
0.174459
0.742591