/*--------------------------------*- C++ -*----------------------------------*\
| =========                 |                                                 |
| \\      /  F ield         | OpenFOAM: The Open Source CFD Toolbox           |
|  \\    /   O peration     | Version:  2.3.1                                 |
|   \\  /    A nd           | Web:      www.OpenFOAM.org                      |
|    \\/     M anipulation  |                                                 |
\*---------------------------------------------------------------------------*/
FoamFile
{
    version     2.0;
    format      ascii;
    class       volScalarField;
    location    "0.27";
    object      nut;
}
// * * * * * * * * * * * * * * * * * * * * * * * * * * * * * * * * * * * * * //

dimensions      [0 2 -1 0 0 0 0];

internalField   nonuniform List<scalar> 
15166
(
9.71828e-05
0.000156674
0.000261059
0.000374613
0.000474224
0.000588243
0.000705794
0.000833379
0.0009524
0.0010748
0.0011909
0.00129049
9.71995e-05
0.000170494
0.000281634
0.000395031
0.000498229
0.000611256
0.000727491
0.00085025
0.000966947
0.00108485
0.00119663
0.00129703
9.7565e-05
0.000181724
0.000297776
0.000411866
0.000517931
0.000630339
0.000745296
0.000864334
0.000978832
0.00109294
0.00120117
0.00130136
9.80404e-05
0.000191779
0.000311532
0.000426373
0.000534477
0.00064633
0.000760026
0.000876088
0.000988468
0.00109931
0.00120455
0.00130458
9.85486e-05
0.000200868
0.000323696
0.000439249
0.000548714
0.000659973
0.000772368
0.000885928
0.00099627
0.00110425
0.00120699
0.00130643
9.90979e-05
0.00020904
0.000334603
0.000450803
0.000561149
0.000671733
0.000782814
0.000894189
0.00100254
0.00110796
0.00120848
0.00130719
9.96832e-05
0.000216381
0.000344508
0.000461265
0.000572087
0.000681956
0.000791723
0.000901111
0.00100755
0.00111064
0.00120916
0.00130758
0.000100303
0.000222977
0.000353616
0.000470797
0.000581804
0.000690903
0.000799366
0.00090692
0.00101151
0.00111248
0.00120937
0.0013081
0.000100936
0.000228891
0.000362075
0.000479588
0.000590526
0.000698794
0.000805961
0.000911806
0.00101461
0.00111364
0.00120912
0.00130778
0.000101581
0.000234163
0.000369974
0.000487733
0.000598424
0.000705817
0.000811689
0.000915898
0.001017
0.00111427
0.00120853
0.00130697
0.000102232
0.000238846
0.000377381
0.000495326
0.000605615
0.000712099
0.000816687
0.000919328
0.00101879
0.00111448
0.00120787
0.00130715
0.000102882
0.000242971
0.000384329
0.000502438
0.000612206
0.00071775
0.000821068
0.0009222
0.0010201
0.00111438
0.00120712
0.0013065
0.000103528
0.000246582
0.000390856
0.000509108
0.000618289
0.000722866
0.000824921
0.000924596
0.00102101
0.00111404
0.00120617
0.00130482
0.000104166
0.000249736
0.000396985
0.000515386
0.000623919
0.000727504
0.000828321
0.000926582
0.0010216
0.00111345
0.00120479
0.00130225
0.000104798
0.000252446
0.000402731
0.000521315
0.000629152
0.000731744
0.00083133
0.000928234
0.00102191
0.00111267
0.00120329
0.00130002
0.000105414
0.000254763
0.000408092
0.000526913
0.000634036
0.000735616
0.000833992
0.000929576
0.001022
0.00111172
0.0012016
0.00129708
0.000106021
0.00025671
0.000413074
0.000532204
0.000638606
0.000739173
0.000836359
0.000930674
0.00102188
0.00111062
0.00119972
0.00129414
0.000106608
0.000258332
0.000417699
0.000537218
0.000642905
0.000742461
0.000838474
0.000931536
0.00102159
0.00110937
0.00119763
0.00129073
0.000107178
0.000259662
0.000421958
0.000541956
0.000646938
0.000745488
0.000840344
0.000932217
0.00102115
0.001108
0.00119542
0.00128738
0.000107734
0.000260716
0.000425872
0.000546432
0.000650748
0.000748293
0.00084202
0.000932722
0.00102058
0.00110652
0.00119312
0.00128405
0.000108275
0.000261535
0.000429433
0.000550656
0.000654331
0.000750895
0.000843507
0.000933073
0.00101988
0.00110493
0.00119064
0.00128024
0.000108797
0.000262129
0.00043265
0.000554644
0.000657724
0.000753306
0.000844825
0.000933288
0.00101909
0.00110325
0.00118801
0.00127633
0.000109293
0.000262537
0.000435542
0.000558383
0.000660922
0.000755554
0.000846003
0.00093339
0.0010182
0.00110147
0.0011853
0.00127321
0.000109781
0.00026277
0.000438108
0.00056189
0.000663943
0.000757651
0.000847052
0.000933392
0.00101723
0.00109959
0.0011825
0.00126955
0.000110242
0.000262844
0.000440356
0.000565179
0.0006668
0.00075961
0.000847979
0.000933288
0.00101617
0.00109764
0.00117968
0.00126649
0.000110688
0.000262791
0.000442298
0.000568242
0.000669499
0.000761433
0.000848794
0.000933102
0.00101504
0.00109563
0.00117683
0.00126296
0.000111116
0.000262611
0.000443943
0.000571072
0.000672045
0.000763139
0.000849514
0.000932834
0.00101385
0.00109357
0.00117402
0.00126019
0.000111523
0.000262339
0.000445319
0.000573683
0.000674435
0.000764726
0.000850147
0.000932493
0.0010126
0.00109149
0.00117132
0.00125762
0.00011191
0.00026197
0.000446413
0.000576088
0.000676683
0.000766208
0.000850685
0.000932093
0.0010113
0.00108938
0.00116859
0.00125423
0.000112277
0.000261505
0.00044726
0.000578269
0.000678792
0.000767585
0.00085115
0.000931624
0.00100996
0.00108726
0.0011659
0.00125141
0.00011262
0.000260992
0.000447847
0.000580239
0.000680755
0.000768869
0.000851541
0.000931109
0.00100858
0.00108513
0.00116317
0.00124797
0.000112953
0.000260406
0.000448216
0.000581991
0.000682584
0.000770056
0.000851869
0.000930536
0.00100718
0.00108298
0.00116046
0.00124507
0.000113273
0.000259768
0.000448353
0.000583551
0.000684282
0.000771159
0.000852125
0.000929925
0.00100574
0.00108083
0.00115772
0.00124147
0.000113562
0.000259097
0.000448298
0.0005849
0.000685842
0.000772171
0.000852327
0.000929274
0.00100429
0.00107866
0.00115498
0.0012384
0.000113839
0.00025839
0.00044804
0.000586063
0.000687272
0.000773096
0.000852471
0.000928584
0.0010028
0.00107649
0.00115221
0.00123477
0.000114108
0.000257656
0.000447616
0.000587014
0.000688567
0.000773943
0.000852566
0.000927858
0.0010013
0.00107431
0.00114948
0.00123198
0.000114343
0.000256893
0.000447011
0.000587786
0.000689735
0.000774705
0.0008526
0.000927092
0.00099978
0.00107214
0.00114683
0.00122946
0.000114573
0.000256115
0.000446253
0.000588365
0.000690768
0.000775392
0.00085259
0.000926303
0.000998248
0.00106996
0.00114417
0.00122616
0.000114781
0.000255324
0.000445353
0.000588766
0.000691678
0.000775991
0.000852532
0.000925488
0.000996709
0.0010678
0.00114151
0.00122296
0.000114969
0.000254526
0.000444323
0.000588995
0.000692466
0.000776525
0.000852428
0.000924642
0.000995155
0.00106564
0.00113885
0.00121959
0.00011515
0.00025371
0.000443171
0.000589048
0.000693123
0.000776973
0.000852278
0.000923779
0.000993593
0.00106346
0.00113607
0.00121571
0.000115304
0.000252814
0.000441885
0.000588938
0.000693652
0.00077735
0.000852084
0.000922887
0.000992022
0.00106127
0.00113329
0.0012129
0.000115451
0.000251888
0.000440504
0.000588672
0.000694061
0.000777648
0.000851847
0.000921981
0.000990443
0.00105907
0.0011305
0.00120951
0.000115572
0.000250898
0.000438981
0.000588242
0.000694344
0.000777868
0.000851568
0.000921047
0.000988849
0.00105687
0.00112774
0.00120675
0.000115677
0.000249904
0.000437296
0.000587663
0.000694509
0.00077801
0.000851246
0.000920092
0.000987247
0.00105466
0.00112499
0.00120329
0.00011577
0.000248947
0.000435486
0.000586913
0.000694546
0.000778081
0.000850888
0.000919119
0.000985638
0.00105245
0.00112228
0.00120074
0.00011585
0.000247937
0.000433585
0.000585958
0.000694439
0.000778074
0.000850483
0.000918126
0.000984016
0.00105024
0.00111957
0.00119736
0.000115905
0.000246959
0.000431591
0.000584866
0.000694199
0.000777979
0.000850032
0.000917113
0.000982388
0.00104803
0.0011169
0.00119474
0.000115951
0.000245984
0.000429558
0.000583606
0.000693821
0.000777807
0.000849542
0.00091607
0.000980752
0.00104583
0.00111424
0.00119152
0.000115984
0.000245014
0.000427417
0.0005822
0.000693317
0.000777537
0.000849004
0.000915013
0.000979101
0.00104362
0.00111161
0.00118892
0.000116005
0.000244088
0.000425219
0.000580656
0.000692687
0.000777196
0.000848418
0.000913933
0.000977451
0.00104142
0.00110893
0.00118533
0.00011601
0.000243123
0.000422968
0.000578957
0.000691917
0.000776755
0.000847783
0.000912825
0.000975789
0.00103923
0.00110627
0.00118198
0.000116
0.000242212
0.000420676
0.000577154
0.000691023
0.000776231
0.000847099
0.000911702
0.000974125
0.00103705
0.00110365
0.00117967
0.000115982
0.000241307
0.000418346
0.000575208
0.000689992
0.000775623
0.000846372
0.000910557
0.000972456
0.00103487
0.00110107
0.00117693
0.000115944
0.00024041
0.000415985
0.000573147
0.000688838
0.00077492
0.000845591
0.000909387
0.000970783
0.0010327
0.00109853
0.00117425
0.000115889
0.000239521
0.000413596
0.000570979
0.000687562
0.00077412
0.000844756
0.000908194
0.000969105
0.00103054
0.00109598
0.00117091
0.000115831
0.000238686
0.000411192
0.000568708
0.000686152
0.000773234
0.000843872
0.000906976
0.000967419
0.0010284
0.00109344
0.00116802
0.000115756
0.000237818
0.000408771
0.000566319
0.000684623
0.000772257
0.000842924
0.000905733
0.000965737
0.00102626
0.00109087
0.00116432
0.000115663
0.000237004
0.000406339
0.00056384
0.000682964
0.00077117
0.000841932
0.00090447
0.00096405
0.00102413
0.00108833
0.00116236
0.000115569
0.000236203
0.000403933
0.000561301
0.000681206
0.000770003
0.000840869
0.000903171
0.000962346
0.00102199
0.00108581
0.00115957
0.000115455
0.000235438
0.000401488
0.000558658
0.000679319
0.000768731
0.000839751
0.000901846
0.000960641
0.00101986
0.00108329
0.00115647
0.000115326
0.00023465
0.000399043
0.000555938
0.000677307
0.000767357
0.000838566
0.000900484
0.000958922
0.00101775
0.00108076
0.00115301
0.000115187
0.000233914
0.000396606
0.000553151
0.000675203
0.000765889
0.000837316
0.000899097
0.000957196
0.00101562
0.00107825
0.00115007
0.00011504
0.00023319
0.000394208
0.00055028
0.000672978
0.000764318
0.000836006
0.000897677
0.000955467
0.00101351
0.0010757
0.00114662
0.000114878
0.00023251
0.000391788
0.000547375
0.000670651
0.000762654
0.000834627
0.000896221
0.000953722
0.00101139
0.00107315
0.00114377
0.000114711
0.000231837
0.00038941
0.000544414
0.000668211
0.000760894
0.000833178
0.000894736
0.00095197
0.00100927
0.00107059
0.00114051
0.000114508
0.000231156
0.00038704
0.000541383
0.000665687
0.00075903
0.000831665
0.000893208
0.000950195
0.00100714
0.00106804
0.00113783
0.000114336
0.00023053
0.000384703
0.000538326
0.000663065
0.000757072
0.000830083
0.00089164
0.000948409
0.00100501
0.00106548
0.00113455
0.000114117
0.000229923
0.000382378
0.000535233
0.000660337
0.000755012
0.000828423
0.000890029
0.000946596
0.00100287
0.00106293
0.00113158
0.000113877
0.000229334
0.000380077
0.000532097
0.000657541
0.000752866
0.000826688
0.000888378
0.000944772
0.00100072
0.00106035
0.00112819
0.000113652
0.000228739
0.000377814
0.000528915
0.000654642
0.00075062
0.000824885
0.000886675
0.000942921
0.000998566
0.00105778
0.00112526
0.000113407
0.000228239
0.000375562
0.000525721
0.000651669
0.000748267
0.000823004
0.000884926
0.000941046
0.000996393
0.00105517
0.00112178
0.000113154
0.000227677
0.000373387
0.000522543
0.000648628
0.000745829
0.000821038
0.00088313
0.00093915
0.000994211
0.00105255
0.00111838
0.000112884
0.000227201
0.000371161
0.000519281
0.000645472
0.000743282
0.000818985
0.000881276
0.000937216
0.000992013
0.00104993
0.00111532
0.000112605
0.000226743
0.000369042
0.000516047
0.000642289
0.000740656
0.00081687
0.000879372
0.000935263
0.000989806
0.00104731
0.00111204
0.000112288
0.000226239
0.000366929
0.000512785
0.000639015
0.000737946
0.000814668
0.000877422
0.000933281
0.000987582
0.0010447
0.00110929
0.000111988
0.000225804
0.000364871
0.000509531
0.000635671
0.000735131
0.000812383
0.000875401
0.000931254
0.00098534
0.00104207
0.00110598
0.000111695
0.000225442
0.000362862
0.000506264
0.000632279
0.000732226
0.000810016
0.000873331
0.000929202
0.000983079
0.00103943
0.00110303
0.00011136
0.000225032
0.000360872
0.000503008
0.000628824
0.000729245
0.000807569
0.000871199
0.000927103
0.000980796
0.00103676
0.00109964
0.000110998
0.000224665
0.000358937
0.000499747
0.000625329
0.000726175
0.000805037
0.000869005
0.000924971
0.000978484
0.00103411
0.00109691
0.000110656
0.000224332
0.000357015
0.000496507
0.000621771
0.000723016
0.000802419
0.000866739
0.000922796
0.000976147
0.00103144
0.00109373
0.00011029
0.000224008
0.000355179
0.000493259
0.000618155
0.000719761
0.000799724
0.000864407
0.00092057
0.000973784
0.00102872
0.00109014
0.000109912
0.000223718
0.000353393
0.000490047
0.000614516
0.000716452
0.000796933
0.000862007
0.000918298
0.000971402
0.001026
0.00108682
0.000109524
0.000223448
0.000351635
0.000486863
0.000610831
0.000713055
0.000794055
0.00085953
0.00091598
0.000968985
0.0010233
0.0010841
0.000109123
0.000223197
0.00034993
0.000483702
0.000607099
0.000709583
0.000791101
0.000856983
0.000913611
0.000966541
0.00102056
0.00108086
0.000108684
0.000222953
0.000348263
0.00048052
0.000603368
0.000706044
0.00078805
0.000854377
0.000911185
0.000964055
0.00101782
0.00107802
0.000108262
0.000222742
0.000346645
0.000477391
0.000599596
0.000702411
0.000784923
0.000851677
0.00090871
0.000961542
0.00101505
0.00107456
0.000107823
0.000222558
0.000345087
0.000474319
0.000595771
0.000698722
0.000781694
0.000848902
0.000906183
0.000959
0.0010123
0.00107175
0.000107371
0.000222404
0.000343582
0.000471268
0.000591963
0.000694953
0.000778376
0.000846048
0.000903588
0.000956424
0.00100956
0.001069
0.000106906
0.000222271
0.000342093
0.000468229
0.000588115
0.000691115
0.000774981
0.000843109
0.000900918
0.000953791
0.00100681
0.00106664
0.000106428
0.000222164
0.000340704
0.000465269
0.00058428
0.000687245
0.000771501
0.000840098
0.0008982
0.000951134
0.00100402
0.00106291
0.000105938
0.000222087
0.000339371
0.000462319
0.000580413
0.000683286
0.000767945
0.000837006
0.000895417
0.000948445
0.00100123
0.00105996
0.000105407
0.000221975
0.000338053
0.00045942
0.000576549
0.000679281
0.000764301
0.000833819
0.000892562
0.000945711
0.000998364
0.00105638
0.000104916
0.000221968
0.000336804
0.000456579
0.000572683
0.000675197
0.000760567
0.000830546
0.000889638
0.000942918
0.000995464
0.00105307
0.000104357
0.000221919
0.00033562
0.000453792
0.000568805
0.000671104
0.00075674
0.000827179
0.000886648
0.000940073
0.000992487
0.00104937
0.000103812
0.000221916
0.000334504
0.000451072
0.000564974
0.000666935
0.00075284
0.000823733
0.000883574
0.000937163
0.000989495
0.0010463
0.000103252
0.000221905
0.000333416
0.00044838
0.00056113
0.000662732
0.000748855
0.000820188
0.000880414
0.000934185
0.000986415
0.00104261
0.000102676
0.00022198
0.000332401
0.000445762
0.00055731
0.00065847
0.000744781
0.000816565
0.000877176
0.000931158
0.000983333
0.00103941
0.000102059
0.000221975
0.000331455
0.000443215
0.000553493
0.000654202
0.000740639
0.000812841
0.000873862
0.000928054
0.000980163
0.00103573
0.000101453
0.000222073
0.000330542
0.000440707
0.00054971
0.000649861
0.00073642
0.000809007
0.000870446
0.000924882
0.000977009
0.00103285
0.000100832
0.000222165
0.00032971
0.000438286
0.000545972
0.000645528
0.000732114
0.000805087
0.000866941
0.000921622
0.000973789
0.00102938
0.000100196
0.000222302
0.000328957
0.000435915
0.000542248
0.000641152
0.000727745
0.000801086
0.00086335
0.000918313
0.000970492
0.00102555
9.95419e-05
0.000222477
0.000328236
0.000433635
0.00053858
0.000636767
0.000723295
0.000796974
0.000859661
0.000914922
0.000967169
0.00102224
9.88728e-05
0.000222644
0.000327602
0.000431448
0.000534938
0.00063235
0.000718788
0.000792772
0.000855869
0.000911441
0.000963816
0.00101914
9.81597e-05
0.000222796
0.000327009
0.000429323
0.00053136
0.000627914
0.00071422
0.000788465
0.00085198
0.000907886
0.000960399
0.00101542
9.7455e-05
0.000223012
0.000326501
0.000427262
0.00052782
0.000623492
0.000709579
0.000784074
0.000847997
0.000904241
0.000956928
0.00101196
9.67055e-05
0.00022321
0.000326036
0.000425314
0.000524365
0.000619087
0.00070487
0.000779575
0.000843897
0.000900501
0.000953326
0.00100794
9.59626e-05
0.000223477
0.00032567
0.000423477
0.000520966
0.000614676
0.000700121
0.000774975
0.000839686
0.000896656
0.000949628
0.00100381
9.52327e-05
0.000223819
0.000325356
0.000421685
0.000517657
0.000610273
0.000695313
0.000770297
0.000835376
0.000892708
0.000945873
0.00100007
9.44305e-05
0.000224081
0.000325101
0.000420053
0.000514419
0.000605908
0.000690461
0.000765535
0.000830947
0.00088865
0.00094197
0.00099586
9.36291e-05
0.000224416
0.000324945
0.00041847
0.000511257
0.000601565
0.000685586
0.000760654
0.000826399
0.00088448
0.000938038
0.000992221
9.28112e-05
0.000224807
0.000324844
0.00041702
0.000508215
0.00059728
0.000680674
0.000755707
0.000821752
0.000880199
0.000934008
0.000988017
9.19454e-05
0.000225138
0.000324843
0.000415672
0.000505257
0.00059301
0.000675751
0.000750674
0.00081699
0.000875833
0.000929913
0.000983725
9.10811e-05
0.000225552
0.000324912
0.000414463
0.000502404
0.000588814
0.00067078
0.000745566
0.000812099
0.000871306
0.000925642
0.000979843
9.01983e-05
0.000226025
0.000325004
0.000413324
0.00049966
0.00058468
0.000665817
0.000740347
0.000807071
0.000866626
0.000921233
0.000975306
8.92935e-05
0.000226466
0.00032526
0.000412345
0.000497075
0.000580648
0.000660856
0.000735081
0.00080195
0.000861843
0.000916759
0.000971168
8.83641e-05
0.000226983
0.000325548
0.000411494
0.000494615
0.000576681
0.00065593
0.000729755
0.000796705
0.000856896
0.000912102
0.000966379
8.73821e-05
0.000227448
0.000325961
0.000410806
0.000492304
0.000572846
0.000651005
0.00072437
0.000791336
0.000851848
0.000907393
0.000961986
8.63689e-05
0.00022798
0.000326407
0.000410216
0.000490147
0.000569126
0.000646153
0.000718967
0.000785888
0.000846655
0.000902532
0.000957076
8.53858e-05
0.000228622
0.000326996
0.000409806
0.000488161
0.000565536
0.000641328
0.000713509
0.000780352
0.000841351
0.000897541
0.000952047
8.4359e-05
0.00022923
0.000327673
0.000409525
0.00048638
0.000562101
0.000636601
0.000708031
0.000774681
0.000835854
0.000892273
0.000947023
8.32693e-05
0.000229852
0.000328448
0.000409438
0.000484763
0.000558836
0.000631969
0.00070257
0.000768921
0.000830212
0.000886883
0.000941596
8.21437e-05
0.000230498
0.000329323
0.000409517
0.00048336
0.000555764
0.000627453
0.000697105
0.000763095
0.000824456
0.00088141
0.000936606
8.10427e-05
0.000231273
0.000330303
0.000409757
0.000482211
0.000552903
0.000623061
0.000691699
0.000757196
0.000818522
0.000875669
0.00093064
7.98671e-05
0.000231999
0.000331403
0.000410221
0.000481279
0.000550286
0.000618867
0.000686335
0.000751251
0.000812476
0.00086975
0.00092478
7.86444e-05
0.000232762
0.000332625
0.000410896
0.000480642
0.000547941
0.000614879
0.000681089
0.00074528
0.000806289
0.000863605
0.000918386
7.74402e-05
0.000233654
0.000333972
0.000411761
0.000480267
0.000545891
0.000611107
0.000675947
0.000739314
0.000799999
0.000857291
0.000911938
7.61566e-05
0.000234504
0.000335462
0.000412897
0.000480214
0.000544177
0.000607637
0.000670978
0.000733367
0.000793589
0.000850776
0.000905157
7.48452e-05
0.000235413
0.000337092
0.000414263
0.000480511
0.000542828
0.000604458
0.000666205
0.000727454
0.000787072
0.000844093
0.000898764
7.34688e-05
0.000236332
0.000338854
0.000415946
0.000481183
0.000541873
0.000601656
0.000661654
0.000721577
0.00078044
0.000837141
0.000891494
7.20619e-05
0.000237302
0.000340829
0.000417919
0.00048228
0.000541385
0.00059922
0.000657358
0.000715796
0.000773729
0.000830019
0.000884374
7.05776e-05
0.000238225
0.000342964
0.000420238
0.000483793
0.000541324
0.000597165
0.000653316
0.000710118
0.000766915
0.000822618
0.00087647
6.90437e-05
0.000239199
0.000345281
0.000422869
0.000485716
0.000541691
0.000595499
0.00064952
0.000704473
0.000759952
0.000814876
0.000868473
6.74366e-05
0.000240057
0.000347706
0.000425829
0.00048798
0.00054242
0.000594203
0.000646083
0.00069904
0.000752957
0.000806903
0.000860345
6.54685e-05
0.000239108
0.000348151
0.000427697
0.000489147
0.0005424
0.00059239
0.000642442
0.000693423
0.000746141
0.000798938
0.000851834
0.000470198
0.00154353
0.00162926
0.00187332
0.00187509
0.000614229
0.000602499
0.000462783
0.00136457
0.00205058
0.00380254
0.00201193
0.00421452
0.00141965
0.000552188
0.00133099
0.00149059
0.0050268
0.00501131
0.00131724
0.000711403
0.000483735
0.00732654
0.00353537
0.000470796
0.00163144
0.00055983
0.000763793
0.00193303
0.00121796
0.00177154
0.0003351
0.00145992
0.00376713
0.00410006
0.00103082
0.000155195
0.00155959
0.000465776
0.00206481
0.00183487
0.00129167
0.00382491
0.00104342
0.000275729
0.000485447
0.00574596
0.00372039
0.00027881
0.000715608
0.00103162
0.000465263
0.000339691
0.00124158
0.00164138
0.00150364
0.00237421
0.00129103
0.00156003
0.000549747
0.000606041
0.000336066
0.00124141
0.0028519
0.00417451
0.0015198
0.000923899
0.000320229
0.000654759
0.00226774
0.00171356
0.00528651
0.000463995
0.00108704
0.00356402
0.00127051
0.00137748
0.00123825
0.00557115
0.000463896
0.00453824
0.00123974
0.000197417
0.000383943
0.0028367
0.00159572
0.000925443
0.00124134
0.00263791
0.000199323
0.000573086
0.00146054
0.00124138
0.00140423
0.000351209
0.00127311
0.00076201
0.00163427
0.00124222
0.000935374
0.000754572
0.00317118
0.00128798
0.00148404
0.00123883
0.000351052
0.000353014
0.000421802
0.00131248
0.000239732
0.00150451
0.00123988
0.000440403
0.00136659
0.00124078
0.000513498
0.00314649
0.00225674
0.00154322
0.00428709
0.000774785
0.0037652
0.0014654
0.00353143
0.00444049
0.00280933
0.00141162
0.000259959
0.00400726
0.00124136
3.92743e-05
0.00124223
5.61266e-05
0.00148434
0.000555018
0.00162803
0.000173885
0.0024099
0.000442147
0.00174571
0.00295786
0.000677074
0.000461177
0.000434441
8.85036e-05
0.00162352
0.000465657
0.00152194
0.00139957
0.000577024
0.00058811
0.000506826
0.00124223
0.00442823
0.00351148
0.00124351
0.000439538
0.00127024
0.00164618
0.00192351
0.00367096
0.00133591
0.00452068
0.00260225
0.000752175
0.00331284
0.000276405
0.000255503
0.00054596
0.00123795
0.00155149
0.00108103
0.00163712
0.00303568
0.00124002
0.00159416
0.00123854
0.000412649
0.00231458
0.00132939
0.00027641
0.00523646
0.004262
0.000469693
0.00129759
0.000457946
0.00125523
0.00124026
9.26918e-05
0.00124087
0.00231196
0.00124544
0.000394911
0.00155767
0.000446951
0.000553041
0.000606791
0.000530009
0.00123979
0.00220483
0.00145629
0.000461248
0.000282482
0.000458053
0.000471368
0.00692516
0.00416483
0.0031652
0.00112012
0.0027164
5.36053e-05
0.00137499
0.000466895
0.000413565
0.00123976
0.000467014
0.00250516
0.00145351
0.00222065
0.000191431
0.000386608
0.00145444
0.000421246
0.00124801
0.00125113
0.0027644
0.00159203
0.00126844
0.00106687
0.00410234
5.24504e-05
0.00445667
0.00124152
0.000896412
0.00148787
0.000472936
0.000460396
0.00147573
0.00110199
0.000453439
0.00423987
0.00588144
0.0043304
0.00267384
6.46431e-05
5.39218e-05
5.65192e-05
0.00131977
0.0038953
0.000465838
0.00220531
0.00108866
0.00232175
0.000349112
0.000233671
0.00283068
0.000970835
0.00045036
0.00206372
0.000427788
0.00271364
0.000471754
0.00293083
0.00416316
7.27737e-05
0.000468386
0.00129922
0.000475245
0.00145066
0.00121165
0.000678282
0.00522599
0.00137679
4.49393e-05
4.57078e-05
0.00138164
0.000177303
5.7634e-05
0.00028309
0.000138385
0.000376727
0.000174515
0.000465815
0.000469752
0.00133035
0.00060477
0.00160663
4.73524e-05
0.00130403
0.00074637
0.000137796
0.00145736
4.63416e-05
4.60322e-05
0.000445568
0.000396567
0.00185872
4.49132e-05
0.0058142
0.000381501
0.00045455
0.000983466
0.000494794
0.00176897
0.00369801
0.00150548
0.000287498
0.00124093
0.005209
0.00472558
0.00564138
0.00018549
0.00124544
0.00128381
0.000460447
0.00429738
4.91604e-05
0.00120225
0.00123979
8.28532e-05
0.00460081
0.00207179
0.00148336
0.000235786
0.000453005
0.00120156
0.00140247
0.00124123
0.00125555
0.000184166
0.00131764
0.00125207
0.00216786
0.00124164
0.00125478
0.00126422
0.0012387
0.00758558
0.00124188
0.00172851
0.000775384
0.000471968
0.00124211
0.000524507
0.00228282
4.5584e-05
5.33892e-05
0.00163963
0.0013982
0.00136736
0.00124125
0.00126779
0.00630321
0.00222922
4.09075e-05
0.0012398
0.00492942
0.000367573
0.001337
0.00235143
0.000103537
0.000268711
0.00131902
0.00148282
0.000830359
0.00190861
0.00135542
0.00124131
0.00140888
0.00140446
0.00499931
9.71919e-05
0.000453146
0.000134083
0.00146922
0.000616765
0.000461766
0.00139213
0.00125268
0.00176441
0.00101179
0.00164746
0.00126106
0.000468242
0.000348211
0.000596998
0.00124804
0.00427185
0.000530538
0.00377317
0.00126059
0.00116441
0.00190895
0.000394694
0.00044581
0.00137383
0.00141505
0.00124378
0.00299405
0.00140291
0.00184657
0.00236813
0.000888275
0.00217077
0.00392081
0.000168395
0.0013859
0.0014597
6.52253e-05
0.000421785
0.00124069
0.00125203
0.0012419
0.00128634
0.00603471
0.000453306
0.000128
0.000529881
0.00052571
0.00125592
0.000233048
0.000466466
0.00123852
0.00124741
0.000455091
0.00125116
0.00271053
0.00136027
0.00044991
0.00124064
0.0019695
0.00424641
0.00504688
0.000457528
0.00462812
0.00123836
0.00123597
0.00115248
0.00129561
0.00252579
0.000290608
4.03336e-05
0.00193676
0.000455937
0.00189696
0.000977089
0.00132621
0.000439667
0.00150516
0.001239
0.00197267
0.000457562
5.425e-05
0.0022062
0.00198133
0.000680748
0.0016323
4.7599e-05
0.000423238
0.00442395
0.000523077
0.00340366
0.00494786
0.00244522
0.0013152
0.00128776
0.00173403
0.00067714
0.00056063
5.89904e-05
0.00359416
0.000282602
9.53539e-05
0.00124205
0.00178262
0.00132518
0.000439677
0.00123882
0.000328854
0.000873591
0.000347098
0.00020379
0.000468188
0.00244539
0.00442207
9.48957e-05
5.02451e-05
0.0013398
0.00309673
0.00123675
0.00418344
0.000915584
0.00031759
0.00137676
0.00422684
0.000159277
0.00106247
0.00116017
0.000468614
0.000225715
0.00121786
0.00047743
0.000313018
0.00127094
0.00340258
0.000401725
0.00070302
0.00136133
0.000191695
0.00184985
0.000448217
0.00127208
0.00093602
0.00335526
0.00124129
0.000655216
4.12829e-05
0.00123857
0.00148849
0.00210432
0.00425967
0.00145295
0.00127415
0.000465838
0.00124133
0.000294715
0.00148337
4.44237e-05
9.48286e-05
0.0018571
4.71906e-05
0.000805438
0.00123774
0.00158438
0.00126886
0.0039925
0.00133804
0.000377275
0.000442087
0.00192707
0.00134379
0.00367446
0.00177
0.00262073
0.0017224
0.001239
0.00464719
0.00123871
0.00568527
0.00055773
0.00450078
0.000965265
0.000633941
0.000433651
0.00488276
0.00313161
0.000454915
6.86506e-05
0.00124139
0.00124142
0.00107977
0.000708519
0.000390261
0.0024269
0.00534314
0.00128431
0.00032979
0.00124083
0.00413554
0.000471858
0.0015787
0.00126892
0.000491133
0.000104959
0.00039018
0.00257663
0.00124284
0.00340015
0.00124274
0.00138668
0.00295326
0.000368814
0.00158709
0.0012539
0.00140176
0.00584733
0.000417771
0.00089407
0.00138314
0.000204615
0.0042305
0.00124321
0.000568664
8.13573e-05
0.000458904
0.00327153
0.00124128
0.0014505
0.00128934
0.000463519
0.00124871
0.000711565
0.00103976
0.00126341
0.00178494
0.00039547
0.0013688
0.000973644
0.00115763
0.00134659
0.0007427
0.00489129
0.00337839
0.00123904
0.00124142
0.00158767
0.000460024
0.000470718
0.000460669
0.00158162
0.000751159
0.00394063
0.00117708
0.000465535
0.00139697
0.00243411
0.000325064
0.00123794
0.00209019
0.000282207
0.000278024
0.00125767
0.00124609
6.87749e-05
0.00018654
0.00132214
0.00394309
0.000811823
0.000413171
0.00125224
3.5351e-05
0.000673936
0.000698995
0.00167343
0.00103251
0.000844014
0.00140294
0.00127749
0.000446884
0.000132605
0.0012622
0.00124193
0.00140325
0.00115667
0.00155994
0.00123992
0.00214098
0.00124132
0.0011637
0.000497733
0.00484658
0.00124724
0.00146151
0.000574317
0.000357771
0.00198896
0.000196419
0.00737128
0.000781833
0.00136274
0.00124096
0.00307935
0.00139851
0.000231802
0.00152504
0.00175155
0.00238142
0.00226764
0.000133144
0.0012398
0.000754766
0.00116291
0.00045568
0.00128692
0.00490477
0.000367208
0.000312523
0.0018667
0.00516123
0.00153707
0.000465592
0.00250824
0.000465695
0.00124059
0.00197564
0.00128805
0.00123809
0.000105224
0.00124149
4.68402e-05
0.00229226
0.00109918
0.00127372
0.00116537
0.000423093
0.00182955
0.00149716
0.00128586
0.00613487
0.00222261
0.00280196
0.00504413
0.00158752
0.00123921
0.00124152
0.000463878
0.0056495
5.88038e-05
0.000527215
0.00127926
4.637e-05
4.07417e-05
4.47765e-05
0.00301796
0.000686643
3.76775e-05
0.00124132
0.000132955
0.000125436
0.000463596
0.0012423
0.00240952
0.00143448
0.000113545
0.00124306
0.00164963
0.0012392
0.00520395
0.00222581
0.00132866
0.000449363
0.00123976
0.00444898
0.000417534
0.00124246
0.00142477
0.0012407
0.0013832
0.00307184
0.00127762
0.00112223
0.00251839
0.000460468
0.00124018
0.00105703
0.00124193
0.000602625
0.00266842
0.00347604
0.000507803
0.00275177
0.00160244
0.00125855
0.000157196
0.000990639
0.00116331
5.32917e-05
0.000489988
0.00123817
0.00013042
0.000593942
0.000740942
0.00101142
0.00119986
0.00138855
0.000473369
0.00432764
0.00122562
0.00360582
0.00143204
0.00344917
0.000133231
0.000756287
0.00122382
0.000201448
0.000387167
0.00137182
0.00187261
0.00129791
0.000600499
0.000980858
0.00118409
0.00411481
0.00173214
0.000295395
0.000187554
0.00427505
0.000154228
0.00124829
5.09897e-05
0.00157964
0.00127922
0.00146048
0.00111853
0.00100509
0.00606599
0.00134324
0.00322919
0.00287206
0.00139117
0.0028818
0.00272688
0.00124195
0.001495
0.00469268
4.41188e-05
0.000467624
4.46642e-05
0.000703696
0.0018881
0.00107361
0.00124069
0.00124162
0.000440093
0.00657425
0.00129788
0.00155435
0.00124047
0.0015999
0.00250065
0.00510058
0.00130679
0.00159576
0.00145241
0.00205393
0.00134981
0.00545305
0.000390083
0.000531157
0.00124062
0.000540046
0.00144322
0.00168078
0.00216069
4.80587e-05
0.00363364
0.00208359
0.000674272
0.00400773
0.00242541
0.00391142
0.00564076
0.00128866
3.94581e-05
0.00124133
0.00128402
0.00044214
0.00279448
0.00270633
0.001083
0.000431122
0.00124159
0.00124344
0.00147076
0.000130855
0.00137008
0.00123913
0.00132825
0.00271583
0.000465169
0.00137743
5.29541e-05
0.00115387
0.0016635
0.000367581
0.00125619
0.0012977
0.000125696
0.000380013
0.000155132
0.00124377
0.00123961
0.00108686
0.00160186
0.00235028
0.00125817
0.0012452
0.00424062
0.00126139
0.00181016
0.00303326
0.00554013
0.00239542
0.00149188
0.000438923
5.52137e-05
0.000458878
0.00199768
0.0012428
0.000284861
0.00126005
0.000264438
0.00124123
0.00180401
0.00125726
0.0012411