/*--------------------------------*- C++ -*----------------------------------*\
| =========                 |                                                 |
| \\      /  F ield         | OpenFOAM: The Open Source CFD Toolbox           |
|  \\    /   O peration     | Version:  2.3.1                                 |
|   \\  /    A nd           | Web:      www.OpenFOAM.org                      |
|    \\/     M anipulation  |                                                 |
\*---------------------------------------------------------------------------*/
FoamFile
{
    version     2.0;
    format      ascii;
    class       volScalarField;
    location    "0.86";
    object      k;
}
// * * * * * * * * * * * * * * * * * * * * * * * * * * * * * * * * * * * * * //

dimensions      [0 2 -2 0 0 0 0];

internalField   nonuniform List<scalar> 
79454
(
1.41333
2.73694
3.6933
4.50424
5.28071
6.0803
6.94167
7.89169
8.89787
9.90022
10.7444
11.3136
1.58604
3.08274
4.09898
4.93792
5.72404
6.51612
7.34975
8.24693
9.20251
10.165
11.0163
11.6328
1.7313
3.38965
4.47424
5.35225
6.16072
6.95936
7.78231
8.64786
9.56206
10.4861
11.328
11.9524
1.85951
3.65682
4.81096
5.73514
6.57563
7.39366
8.2222
9.07792
9.97038
10.8718
11.7072
12.3327
1.97583
3.89621
5.11574
6.0866
6.96389
7.80862
8.65386
9.51491
10.3988
11.2834
12.0999
12.7114
2.08322
4.11699
5.39507
6.41075
7.32516
8.20041
9.0678
9.94313
10.8256
11.6995
12.5029
13.102
2.18278
4.32007
5.65462
6.7123
7.66257
8.56857
9.4597
10.3499
11.2364
12.1015
12.8842
13.4566
2.27573
4.51036
5.89584
6.99397
7.97936
8.91577
9.83195
10.7397
11.6346
12.499
13.2748
13.841
2.36173
4.68876
6.12181
7.25691
8.27685
9.24442
10.1877
11.116
12.0224
12.887
13.6537
14.2177
2.43927
4.85065
6.32955
7.50172
8.55558
9.55587
10.5292
11.4847
12.4138
13.295
14.0761
14.6492
2.5098
4.99847
6.51893
7.7248
8.81109
9.84367
10.8485
11.8338
12.7907
13.6951
14.4945
15.0783
2.57195
5.13163
6.688
7.92365
9.03817
10.0983
11.1298
12.1378
13.112
14.0242
14.8201
15.4074
2.62618
5.24665
6.83551
8.09649
9.23419
10.3162
11.3671
12.3919
13.3772
14.2947
15.0916
15.6808
2.67384
5.34748
6.96266
8.24449
9.40031
10.4981
11.563
12.5982
13.591
14.5117
15.3134
15.923
2.71623
5.43545
7.07286
8.37067
9.53931
10.648
11.7209
12.7614
13.7559
14.6767
15.48
16.0956
2.75428
5.51356
7.16824
8.47836
9.65669
10.7717
11.8482
12.8889
13.8805
14.7959
15.5945
16.2173
2.78743
5.58145
7.25127
8.57036
9.75572
10.8758
11.9543
12.9946
13.9847
14.8992
15.7012
16.3335
2.81721
5.64122
7.32385
8.65066
9.84063
10.9644
12.0454
13.0865
14.0769
14.9934
15.802
16.4562
2.84501
5.69444
7.38768
8.7207
9.91508
11.041
12.1244
13.1685
14.1624
15.0851
15.9044
16.5717
2.86643
5.73967
7.44175
8.7802
9.97803
11.1064
12.1912
13.2371
14.2346
15.1618
15.9873
16.6704
2.88369
5.77757
7.48684
8.8287
10.0287
11.1587
12.2447
13.2917
14.2916
15.2235
16.056
16.7496
2.8977
5.80771
7.52203
8.8663
10.0674
11.1979
12.2849
13.3332
14.336
15.2753
16.1218
16.833
2.90879
5.82948
7.54719
8.89257
10.093
11.2231
12.3092
13.3571
14.3601
15.3017
16.1534
16.8759
2.91561
5.84567
7.56421
8.90785
10.1066
11.2338
12.3168
13.3618
14.3625
15.3037
16.1589
16.8933
2.91667
5.85405
7.57214
8.91358
10.109
11.2322
12.3101
13.3503
14.3468
15.2856
16.143
16.8825
2.91768
5.85722
7.57264
8.91093
10.1021
11.22
12.2922
13.3253
14.3142
15.2442
16.0928
16.8315
2.91313
5.85392
7.5662
8.90042
10.0868
11.1998
12.2669
13.2951
14.2801
15.209
16.0607
16.8035
2.90719
5.84501
7.55276
8.88217
10.0641
11.1724
12.2346
13.2588
14.2412
15.17
16.0267
16.7824
2.89733
5.82975
7.5318
8.85653
10.0335
11.1364
12.1934
13.2129
14.1905
15.1149
15.9683
16.7282
2.88472
5.80924
7.50442
8.82278
9.99387
11.0912
12.1434
13.1584
14.1333
15.0585
15.9166
16.6807
2.86847
5.78233
7.47003
8.78134
9.94551
11.037
12.0835
13.0935
14.0649
14.9883
15.8481
16.6234
2.85067
5.75157
7.42966
8.73269
9.88931
10.9735
12.0131
13.0172
13.9835
14.9021
15.7583
16.5304
2.83129
5.71678
7.38303
8.67683
9.82492
10.9006
11.9326
12.9302
13.8916
14.8091
15.6683
16.4467
2.81049
5.67771
7.33222
8.61507
9.75289
10.8193
11.8419
12.8311
13.7858
14.6979
15.5542
16.3362
2.79042
5.63757
7.27783
8.54867
9.67514
10.7301
11.7422
12.7214
13.6676
14.5734
15.4264
16.2107
2.76806
5.59562
7.22177
8.47943
9.59261
10.6351
11.6354
12.6034
13.5394
14.437
15.2842
16.0646
2.74824
5.55466
7.16534
8.4087
9.50808
10.5368
11.5237
12.4791
13.4042
14.2931
15.1347
15.912
2.72907
5.51481
7.10989
8.33904
9.42392
10.4377
11.4101
12.3518
13.2641
14.1425
14.9775
15.7553
2.71071
5.47746
7.0572
8.27194
9.34239
10.3416
11.299
12.2261
13.1248
13.9911
14.8167
15.5868
2.69444
5.4414
7.00663
8.20787
9.26485
10.2504
11.1935
12.1067
12.992
13.8463
14.6618
15.4284
2.6777
5.4066
6.95769
8.14647
9.19118
10.1643
11.095
11.9963
12.8706
13.7152
14.5236
15.2839
2.65984
5.37107
6.90925
8.0863
9.11997
10.0817
11.0017
11.8925
12.7572
13.5936
14.3961
15.155
2.64111
5.33443
6.85928
8.02555
9.04859
10.0005
10.9107
11.7916
12.6467
13.4741
14.2676
15.0156
2.61959
5.29454
6.80738
7.96273
8.97582
9.91771
10.8184
11.6896
12.5353
13.3527
14.1354
14.8752
2.59801
5.25295
6.7522
7.89657
8.89919
9.83168
10.7228
11.5852
12.4225
13.2329
14.0099
14.7427
2.57548
5.20856
6.69378
7.82657
8.8188
9.74121
10.6225
11.4751
12.3034
13.1052
13.8748
14.6055
2.55155
5.16196
6.63259
7.75346
8.73475
9.64589
10.5168
11.3599
12.1794
12.9747
13.74
14.4659
2.52663
5.11376
6.5697
7.6781
8.64733
9.54697
10.4064
11.2387
12.0476
12.8329
13.5904
14.3133
2.50137
5.06553
6.50598
7.60131
8.55812
9.44588
10.2934
11.1134
11.911
12.685
13.4316
14.1435
2.47721
5.01638
6.44189
7.52428
8.46841
9.34412
10.1798
10.9876
11.7733
12.5361
13.2721
13.9767
2.4529
4.9681
6.37803
7.44743
8.37941
9.24331
10.0673
10.8637
11.6382
12.3904
13.1166
13.8115
2.42855
4.92018
6.31456
7.37103
8.29151
9.14413
9.95704
10.7431
11.5077
12.2513
12.9706
13.6611
2.40591
4.87279
6.25122
7.29518
8.20469
9.04631
9.84869
10.6252
11.3813
12.1177
12.8318
13.5183
2.38079
4.82413
6.18764
7.21972
8.11763
8.94849
9.74095
10.5084
11.256
11.9841
12.6902
13.371
2.35664
4.77565
6.12419
7.14351
8.03021
8.85082
9.63369
10.3921
11.1316
11.853
12.5548
13.2321
2.3319
4.72646
6.05964
7.06673
7.94255
8.75245
9.52524
10.2742
11.0047
11.718
12.4124
13.0842
2.30709
4.67632
5.9941
6.98901
7.85345
8.65274
9.41565
10.1552
10.877
11.5824
12.2707
12.937
2.28204
4.62546
5.92759
6.91001
7.76328
8.55225
9.30514
10.035
10.7473
11.4441
12.1243
12.7854
2.25537
4.57379
5.86039
6.83001
7.67226
8.4507
9.19331
9.91342
10.6165
11.3051
11.978
12.6315
2.22919
4.52122
5.79193
6.74924
7.57993
8.34777
9.08021
9.7904
10.4841
11.1633
11.8273
12.4736
2.20216
4.46727
5.72267
6.66738
7.48688
8.24412
8.96638
9.66674
10.3507
11.02
11.6734
12.3084
2.17585
4.41344
5.6523
6.58429
7.3925
8.13947
8.85193
9.54251
10.2173
10.878
11.5232
12.1501
2.14779
4.35784
5.5805
6.49982
7.29688
8.03341
8.73593
9.4172
10.0835
10.7373
11.3777
12.0018
2.12013
4.30157
5.50797
6.41487
7.20101
7.92685
8.6193
9.29124
9.94872
10.5938
11.2262
11.8439
2.09123
4.24463
5.43469
6.32929
7.10429
7.81987
8.50246
9.16511
9.81342
10.4494
11.0728
11.682
2.06207
4.18666
5.3605
6.24269
7.00671
7.71223
8.38552
9.03889
9.67862
10.3075
10.9252
11.5298
2.03264
4.12748
5.28533
6.15504
6.90829
7.60395
8.2677
8.91185
9.54282
10.163
10.7725
11.3698
2.00123
4.06726
5.20875
6.06597
6.80886
7.49474
8.14896
8.78432
9.40667
10.0183
10.6197
11.2089
1.97059
4.00555
5.13098
5.97617
6.70818
7.38433
8.0293
8.65567
9.26966
9.87349
10.4675
11.0501
1.93882
3.94391
5.05273
5.88542
6.60671
7.27268
7.90796
8.52519
9.13043
9.72569
10.3117
10.8871
1.90871
3.88224
4.97406
5.7944
6.50447
7.15995
7.78544
8.39314
8.98889
9.57509
10.1525
10.7199
1.87913
3.82142
4.89656
5.70389
6.40257
7.04742
7.66272
8.26062
8.84691
9.42445
9.99389
10.5541
1.85062
3.7626
4.8209
5.61529
6.30229
6.93627
7.54114
8.12894
8.70608
9.275
9.83713
10.3918
1.82301
3.70559
4.7476
5.52893
6.20441
6.82738
7.42168
7.99932
8.56642
9.12569
9.67837
10.2244
1.79631
3.65062
4.67648
5.44528
6.10933
6.72156
7.30541
7.87262
8.42967
8.97945
9.5233
10.0604
1.77188
3.59795
4.60832
5.36488
6.01788
6.61948
7.19281
7.74975
8.29677
8.83711
9.3717
9.9007
1.74859
3.54759
4.54302
5.28777
5.9298
6.52083
7.08393
7.631
8.16849
8.69919
9.2248
9.74505
1.72594
3.49958
4.48059
5.21359
5.84504
6.42595
6.97901
7.51631
8.04411
8.56551
9.08237
9.59512
1.70413
3.4535
4.42067
5.14248
5.76374
6.33475
6.87819
7.40588
7.9241
8.43658
8.94486
9.44964
1.68391
3.40922
4.36301
5.07408
5.68559
6.24707
6.78128
7.29966
7.80876
8.31194
8.81116
9.30707
1.6641
3.36686
4.30746
5.00843
5.61062
6.16304
6.68844
7.19803
7.69827
8.19248
8.68258
9.16932
1.64578
3.32563
4.25391
4.94501
5.53816
6.0822
6.59919
7.10051
7.59239
8.07866
8.5611
9.04019
1.62694
3.28599
4.20226
4.88387
5.46852
6.00418
6.51301
7.00633
7.4901
7.96822
8.44249
8.91309
1.60957
3.24775
4.15231
4.82467
5.40107
5.92886
6.42981
6.91535
7.39154
7.8623
8.32962
8.79399
1.59264
3.2103
4.10371
4.76741
5.33577
5.85581
6.3493
6.82727
7.29607
7.75944
8.21923
8.67645
1.57633
3.17459
4.05695
4.712
5.27259
5.78539
6.27159
6.74227
7.20375
7.65984
8.1122
8.56245
1.55996
3.13885
4.01128
4.65807
5.21129
5.71704
6.19644
6.66018
7.11491
7.56436
8.01025
8.45357
1.54449
3.10458
3.96665
4.60573
5.15186
5.65079
6.12356
6.58105
7.02942
7.47253
7.91263
8.351
1.52965
3.07169
3.9235
4.55477
5.09408
5.58641
6.05284
6.50421
6.94661
7.38405
7.81869
8.25136
1.51432
3.0382
3.8809
4.50466
5.03718
5.52337
5.98353
6.4287
6.86534
7.29721
7.72632
8.15407
1.49957
3.00555
3.83869
4.45529
4.98137
5.46136
5.91544
6.35458
6.78512
7.21062
7.63337
8.05444
1.48505
2.97393
3.79748
4.4067
4.92642
5.40045
5.84871
6.28202
6.70672
7.12633
7.54271
7.9572
1.47041
2.94145
3.75628
4.35873
4.87237
5.34064
5.78332
6.21122
6.6305
7.0449
7.45651
7.86696
1.45575
2.90947
3.71531
4.31118
4.81889
5.2815
5.71906
6.14169
6.55577
6.96513
7.37175
7.77705
1.44148
2.87783
3.67466
4.26396
4.76584
5.22317
5.65545
6.07298
6.48213
6.8866
7.28854
7.68941
1.42653
2.84532
3.6339
4.21668
4.71301
5.16505
5.59211
6.00471
6.40901
6.8087
7.20609
7.60254
1.41209
2.81333
3.59321
4.16952
4.6602
5.10691
5.52887
5.93653
6.33576
6.73015
7.12206
7.51286
1.39786
2.78194
3.55297
4.12287
4.60779
5.04925
5.46606
5.86855
6.26263
6.65209
7.03934
7.42581
1.38355
2.75047
3.51285
4.07636
4.55578
4.9919
5.4036
5.80076
6.18946
6.57365
6.95571
7.33693
1.36939
2.7191
3.47306
4.03035
4.50431
4.93502
5.34129
5.73317
6.11636
6.49457
6.87017
7.24411
1.35517
2.68773
3.43397
3.98496
4.4534
4.87892
5.27987
5.66641
6.04422
6.41701
6.78689
7.15548
1.34164
2.65721
3.39532
3.94054
4.40354
4.82386
5.21977
5.60109
5.9737
6.34122
6.70595
7.06951
1.32857
2.6276
3.35798
3.8972
4.35488
4.77008
5.16089
5.5372
5.9046
6.26687
6.62638
6.98488
1.31626
2.59922
3.32163
3.85512
4.30757
4.71774
5.10357
5.47487
5.83723
6.19444
6.5489
6.90206
1.3043
2.5716
3.28663
3.8144
4.26169
4.6669
5.04775
5.41395
5.77125
6.12335
6.47266
6.82093
1.29307
2.54528
3.25268
3.7749
4.21716
4.61747
4.99342
5.35462
5.70683
6.05373
6.39771
6.74014
1.28215
2.51937
3.22033
3.73709
4.17431
4.56975
4.94078
5.29698
5.64406
5.98564
6.32432
6.66178
1.27245
2.49569
3.18945
3.70081
4.13309
4.52369
4.88983
5.24106
5.58296
5.91935
6.25285
6.58474
1.26316
2.47264
3.16008
3.66608
4.09365
4.47943
4.84062
5.1867
5.52337
5.85442
6.1821
6.50841
1.25514
2.45187
3.13255
3.63346
4.05609
4.437
4.79318
5.13411
5.46551
5.79093
6.11259
6.43202
1.24749
2.43183
3.1066
3.60267
4.02044
4.3966
4.74805
5.08403
5.41025
5.73047
6.04702
6.3616
1.24096
2.41388
3.08258
3.5737
3.98681
4.35835
4.70515
5.03637
5.35776
5.67299
5.98459
6.2942
1.23539
2.39791
3.0607
3.54695
3.95549
4.32233
4.66437
4.99081
5.30739
5.61766
5.92405
6.22829
1.23043
2.38318
3.04043
3.52185
3.92601
4.28841
4.62578
4.94747
5.25915
5.56442
5.86566
6.16501
1.22614
2.36962
3.02191
3.49881
3.89844
4.25629
4.5891
4.90607
5.21275
5.51293
5.80912
6.10322
1.22289
2.35797
3.00516
3.47754
3.87277
4.22624
4.55452
4.86671
5.16845
5.46365
5.75477
6.0435
1.2204
2.3481
2.99024
3.45838
3.84934
4.19841
4.52213
4.82963
5.1265
5.41644
5.70202
5.98532
1.21832
2.33953
2.97709
3.44106
3.82796
4.17285
4.49219
4.79521
5.08744
5.37241
5.65251
5.92944
1.21662
2.33177
2.96517
3.42527
3.80827
4.14931
4.4647
4.76351
5.0513
5.33158
5.60672
5.87862
1.2156
2.32548
2.95471
3.41101
3.79039
4.12768
4.43937
4.73422
5.01779
5.29358
5.564
5.83065
1.21495
2.32044
2.94552
3.39808
3.77393
4.10789
4.41604
4.70724
4.98698
5.25879
5.52499
5.78731
1.21429
2.31603
2.93741
3.38653
3.75912
4.08979
4.39461
4.68245
4.95873
5.22705
5.48985
5.7492
1.21364
2.31176
2.92982
3.37593
3.74562
4.07339
4.37525
4.65993
4.93291
5.19776
5.45694
5.71207
1.21336
2.30861
2.92288
3.36611
3.73321
4.05849
4.35779
4.6397
4.90968
5.17141
5.4272
5.6789
1.21271
2.30444
2.91601
3.35691
3.72191
4.04502
4.34209
4.62165
4.88907
5.14789
5.40042
5.6484
1.2131
2.30076
2.90931
3.34804
3.71131
4.03275
4.32807
4.60575
4.87105
5.12739
5.37718
5.6221
1.21204
2.29629
2.90208
3.33929
3.70151
4.02199
4.31608
4.59224
4.85576
5.11005
5.35752
5.60009
1.20876
2.28976
2.89351
3.33024
3.69227
4.01258
4.30617
4.5814
4.84352
5.0959
5.34112
5.58103
1.20293
2.28024
2.88322
3.32043
3.68329
4.00438
4.29831
4.57329
4.83455
5.08569
5.32912
5.56673
1.19323
2.26672
2.86975
3.30903
3.67446
3.99748
4.2926
4.56808
4.82901
5.07909
5.32082
5.55623
1.1776
2.24646
2.85171
3.29566
3.66555
3.99187
4.28924
4.56586
4.82703
5.0765
5.31692
5.55046
1.15293
2.21649
2.82767
3.27957
3.65609
3.9874
4.28814
4.56678
4.8289
5.07828
5.31793
5.55008
1.11498
2.17245
2.79521
3.25952
3.64568
3.9839
4.28926
4.57088
4.8345
5.08433
5.32344
5.5542
1.05945
2.10784
2.75061
3.23387
3.63348
3.98075
4.29225
4.5779
4.8439
5.09481
5.33386
5.56316
0.986969
2.01083
2.68577
3.19887
3.61723
3.97641
4.29596
4.58723
4.85661
5.10947
5.34945
5.57829
3.7149
7.12666
10.2915
13.2113
15.5617
17.5322
19.2012
20.6267
21.7622
22.671
23.4039
23.9909
3.88627
7.50969
10.7607
13.528
15.7855
17.6726
19.2612
20.5891
21.6652
22.5344
23.2404
23.8141
4.07575
7.81896
11.0446
13.7032
15.8899
17.712
19.2348
20.4967
21.527
22.3653
23.0484
23.6036
4.26609
8.09694
11.2375
13.7977
15.9155
17.6784
19.1459
20.3595
21.3552
22.17
22.8378
23.3875
4.44673
8.34084
11.3767
13.8415
15.8892
17.5953
19.0145
20.1892
21.1569
21.9524
22.6068
23.146
4.61579
8.54625
11.4762
13.8486
15.826
17.4772
18.8529
19.9944
20.9383
21.7174
22.3603
22.8904
4.77115
8.71368
11.544
13.8276
15.7359
17.3344
18.6699
19.7817
20.7046
21.4696
22.1036
22.6293
4.91017
8.84692
11.586
13.785
15.6264
17.174
18.4717
19.5562
20.4603
21.2129
21.8391
22.3602
5.03137
8.94943
11.6061
13.7258
15.5029
17.0017
18.2634
19.3223
20.209
20.9506
21.5704
22.0885
5.13474
9.02419
11.6068
13.653
15.3691
16.8212
18.0486
19.0833
19.954
20.6858
21.3011
21.8192
5.22048
9.07433
11.5905
13.5691
15.2278
16.6353
17.83
18.8418
19.6974
20.4206
21.0327
21.5536
5.29016
9.10277
11.5589
13.4756
15.0808
16.4462
17.6096
18.5994
19.4403
20.1543
20.7609
21.2766
5.34465
9.11223
11.5136
13.3739
14.9293
16.255
17.3886
18.3571
19.1835
19.888
20.4879
20.9977
5.38548
9.10538
11.4565
13.2652
14.7746
16.0629
17.1681
18.116
18.9281
19.6231
20.2172
20.724
5.41439
9.08398
11.389
13.1504
14.6173
15.8706
16.9487
17.8768
18.675
19.361
19.95
20.4564
5.43243
9.0504
11.3122
13.0305
14.4581
15.6786
16.731
17.6399
18.4246
19.1013
19.6843
20.1855
5.4412
9.00621
11.2278
12.9063
14.2974
15.4873
16.5153
17.4058
18.1772
18.8449
19.4224
19.9219
5.44114
8.95286
11.1364
12.7783
14.1357
15.2968
16.3017
17.1745
17.9329
18.5914
19.1624
19.6561
5.43411
8.89177
11.0395
12.6473
13.9734
15.1075
16.0905
16.9463
17.6919
18.3413
18.9061
19.3968
5.42068
8.82427
10.9376
12.5136
13.8107
14.9196
15.8818
16.7211
17.4543
18.0943
18.6518
19.1356
5.40201
8.75104
10.8316
12.378
13.6478
14.7331
15.6755
16.4992
17.2202
17.8512
18.4023
18.882
5.37816
8.67314
10.7221
12.2407
13.4852
14.5481
15.4719
16.2805
16.9899
17.6124
18.1582
18.6367
5.35059
8.59147
10.61
12.1022
13.3228
14.3648
15.271
16.0652
16.7634
17.3775
17.9173
18.3908
5.31939
8.50683
10.4956
11.9628
13.1611
14.1833
15.0727
15.8533
16.5407
17.1467
17.6806
18.1504
5.28511
8.4195
10.3796
11.8229
13.0001
14.0037
14.8772
15.6447
16.3218
16.9195
17.4466
17.9098
5.24852
8.33027
10.2621
11.6829
12.84
13.8261
14.6847
15.4397
16.1065
16.6962
17.2174
17.6778
5.20941
8.23965
10.1439
11.5431
12.6814
13.6508
14.495
15.2378
15.8947
16.4765
16.9914
17.4452
5.16891
8.14763
10.0253
11.4039
12.524
13.4775
14.3078
15.0392
15.6869
16.2618
16.7727
17.227
5.12744
8.05468
9.90638
11.2651
12.3679
13.3062
14.1235
14.8439
15.483
16.0518
16.5595
17.0149
5.08506
7.96136
9.78761
11.127
12.2131
13.137
13.9418
14.6518
15.2826
15.8451
16.3479
16.7973
5.04188
7.86807
9.66894
10.9896
12.0598
12.9698
13.7627
14.4629
15.0857
15.6419
16.14
16.5871
4.99797
7.77444
9.55068
10.8531
11.9081
12.8048
13.5863
14.2769
14.8918
15.4415
15.9337
16.3737
4.95344
7.68105
9.43298
10.7177
11.7579
12.6418
13.4125
14.0938
14.701
15.2444
15.7318
16.169
4.90835
7.58767
9.31599
10.5835
11.6094
12.4811
13.2412
13.9136
14.5134
15.0509
15.5338
15.9687
4.86283
7.4949
9.1999
10.4505
11.4625
12.3225
13.0724
13.7363
14.3289
14.8604
15.3383
15.7672
4.81701
7.4026
9.08454
10.3188
11.3175
12.166
12.9063
13.5619
14.1477
14.6741
15.1487
15.5777
4.771
7.31112
8.9702
10.1885
11.1742
12.0118
12.7427
13.3904
13.9699
14.4917
14.9638
15.3941
4.72481
7.22006
8.85694
10.0596
11.0328
11.8597
12.5816
13.2218
13.7951
14.3118
14.7795
15.2034
4.67856
7.12996
8.74486
9.93225
10.8932
11.7099
12.4231
13.0559
13.6232
14.1348
14.598
15.0174
4.63233
7.04067
8.63408
9.80639
10.7555
11.5622
12.267
12.8929
13.4544
13.9614
14.4212
14.8392
4.58616
6.95226
8.52442
9.68221
10.6197
11.4168
12.1135
12.7328
13.289
13.7924
14.2505
14.67
4.54013
6.86483
8.41612
9.55957
10.4858
11.2736
11.9627
12.5756
13.1271
13.6276
14.0856
14.5099
4.49427
6.77862
8.30929
9.43862
10.3539
11.1327
11.8144
12.4213
12.9683
13.4654
13.9206
14.3395
4.44869
6.69344
8.20374
9.31936
10.2239
10.9941
11.6686
12.2699
12.8123
13.306
13.7585
14.1748
4.40337
6.6093
8.09974
9.20184
10.096
10.8577
11.5254
12.1211
12.6593
13.1501
13.6009
14.0178
4.35836
6.52625
7.9971
9.08604
9.97003
10.7236
11.3846
11.9752
12.5095
12.9977
13.4479
13.8672
4.31373
6.44453
7.89609
8.97203
9.84611
10.5918
11.2464
11.8319
12.3625
12.8482
13.2968
13.7152
4.26949
6.36397
7.79658
8.8598
9.72422
10.4622
11.1106
11.6912
12.218
12.7009
13.1471
13.5618
4.2257
6.28474
7.69859
8.74933
9.60427
10.3347
10.9772
11.553
12.0761
12.5562
13.0002
13.4135
4.18233
6.20651
7.60212
8.64057
9.48631
10.2094
10.8461
11.4173
11.9369
12.4145
12.8573
13.2717
4.13944
6.12983
7.5073
8.5337
9.37041
10.0864
10.7173
11.2841
11.8003
12.2755
12.717
13.1308
4.09703
6.05412
7.41398
8.4286
9.25642
9.96544
10.5908
11.1533
11.6661
12.1389
12.5787
12.9908
4.05515
5.97992
7.3222
8.32523
9.14437
9.84659
10.4666
11.0248
11.5345
12.0049
12.4433
12.8553
4.01377
5.90672
7.23193
8.22361
9.03426
9.72985
10.3446
10.8987
11.4052
11.8734
12.3101
12.7208
3.97291
5.83484
7.1433
8.12378
8.92601
9.61512
10.2248
10.7748
11.2783
11.7443
12.1797
12.589
3.93259
5.7643
7.05617
8.0256
8.8197
9.50243
10.107
10.6532
11.1539
11.6183
12.0541
12.4695
3.89279
5.69492
6.97061
7.92922
8.71526
9.39174
9.99145
10.5337
11.0313
11.4931
11.9253
12.3311
3.85353
5.62681
6.88651
7.8345
8.61265
9.283
9.87785
10.4163
10.9107
11.3698
11.7996
12.204
3.81484
5.55994
6.80384
7.74142
8.51184
9.17616
9.76621
10.3009
10.7924
11.2494
11.6783
12.0847
3.77668
5.4941
6.72269
7.65003
8.41281
9.07122
9.65661
10.1876
10.6764
11.1315
11.5594
11.9652
3.73906
5.42951
6.64297
7.56026
8.31558
8.96817
9.54898
10.0765
10.5627
11.0162
11.4435
11.8502
3.70198
5.36613
6.5647
7.47206
8.22004
8.86697
9.44337
9.96751
10.4513
10.9035
11.3309
11.7398
3.66545
5.30393
6.48789
7.38549
8.12627
8.76762
9.33974
9.86062
10.3421
10.7928
11.2191
11.6259
3.62941
5.24276
6.41241
7.30045
8.03418
8.67011
9.23805
9.75578
10.2351
10.6843
11.11
11.5177
3.59387
5.18265
6.33831
7.217
7.9438
8.5744
9.13827
9.65294
10.1301
10.5778
11.0024
11.4081
3.55885
5.12358
6.26557
7.13504
7.85506
8.48048
9.0404
9.55217
10.0273
10.4739
10.8987
11.3073
3.52435
5.06579
6.19417
7.0546
7.76795
8.38835
8.94443
9.45336
9.92659
10.3724
10.7974
11.2076
3.49032
5.00892
6.124
6.97559
7.68249
8.29794
8.85028
9.3565
9.82784
10.2724
10.6964
11.104
3.45678
4.95299
6.05515
6.89813
7.5986
8.20924
8.75796
9.26146
9.73091
10.1744
10.598
11.0069
3.42371
4.89808
5.98765
6.82205
7.5163
8.12223
8.66732
9.16815
9.63568
10.0778
10.5003
10.9074
3.39111
4.84429
5.92131
6.74739
7.43551
8.03681
8.57838
9.07654
9.54208
9.98275
10.4043
10.8116
3.35898
4.79139
5.85617
6.67406
7.35623
7.95297
8.49101
8.98645
9.44992
9.88883
10.3085
10.7123
3.3273
4.73946
5.79224
6.60216
7.27843
7.87064
8.40518
8.89793
9.35926
9.79648
10.2149
10.6189
3.29605
4.68838
5.72955
6.53154
7.20205
7.7898
8.32089
8.81091
9.27011
9.70562
10.1226
10.5247
3.26524
4.63835
5.66792
6.46227
7.12702
7.71038
8.23805
8.72541
9.18254
9.61661
10.033
10.4366
3.23484
4.58913
5.60749
6.39425
7.05339
7.6324
8.1567
8.64141
9.09648
9.52894
9.94389
10.345
3.20486
4.54081
5.54812
6.3274
6.98103
7.55582
8.07679
8.55889
9.01196
9.44298
9.85715
10.2586
3.17528
4.49331
5.48985
6.26179
6.90998
7.4806
7.99828
8.47782
8.929
9.3587
9.77209
10.173
3.14608
4.44672
5.43262
6.19736
6.84023
7.40669
7.92117
8.39823
8.84759
9.27616
9.68931
10.0922
3.11723
4.40082
5.37642
6.13409
6.77167
7.3341
7.84538
8.31999
8.76743
9.19443
9.60596
10.0054
3.08876
4.35575
5.32115
6.07191
6.70433
7.26272
7.77088
8.24296
8.68835
9.1136
9.52351
9.92189
3.06064
4.31142
5.26681
6.01079
6.63813
7.19258
7.69753
8.16702
8.61018
9.03324
9.4405
9.83424
3.03287
4.26789
5.21353
5.95076
6.57306
7.12356
7.62531
8.09214
8.53298
8.95392
9.35924
9.75216
3.00543
4.22513
5.16109
5.89173
6.5091
7.05564
7.55418
8.01834
8.45682
8.87559
9.27884
9.66917
2.97831
4.18307
5.10957
5.83371
6.44616
6.9888
7.48416
7.94559
8.38177
8.79866
9.20066
9.59163
2.95151
4.14164
5.05883
5.77667
6.38426
6.92303
7.41516
7.87393
8.3078
8.72265
9.12267
9.51052
2.925
4.10087
5.00904
5.72058
6.32334
6.85826
7.34725
7.80335
8.23496
8.64797
9.04668
9.43464
2.89877
4.06068
4.96003
5.66533
6.26337
6.79448
7.28034
7.7338
8.16322
8.57442
8.9716
9.35784
2.87279
4.02109
4.91178
5.61097
6.20435
6.7317
7.21446
7.66531
8.09259
8.50204
8.89808
9.28465
2.84708
3.98223
4.86429
5.5575
6.14621
6.66985
7.14949
7.59772
8.02272
8.43013
8.82404
9.20752
2.8216
3.94383
4.8175
5.50479
6.08896
6.60885
7.08537
7.5309
7.95341
8.35827
8.74914
9.12769
2.79635
3.90601
4.77144
5.45285
6.0325
6.54871
7.02205
7.46474
7.88455
8.28673
8.67479
9.05109
2.77132
3.86869
4.72603
5.40171
5.97684
6.48933
6.95946
7.39921
7.81622
8.21534
8.59949
8.96916
2.74649
3.83193
4.68125
5.35127
5.92195
6.43071
6.89759
7.33441
7.7487
8.14551
8.52868
8.90269
2.72185
3.7957
4.63711
5.3015
5.86777
6.37279
6.83639
7.27026
7.68178
8.07595
8.45623
8.82467
2.69739
3.75995
4.59361
5.25241
5.81424
6.31553
6.77586
7.20674
7.61543
8.00685
8.38434
8.75031
2.67308
3.72454
4.55063
5.20397
5.76136
6.25891
6.71595
7.14376
7.54954
7.93805
8.31235
8.67415
2.64892
3.68965
4.50826
5.15609
5.70911
6.20293
6.65661
7.08134
7.48421
7.86991
8.24169
8.60205
2.62487
3.65505
4.46635
5.10879
5.65742
6.14754
6.5979
7.01951
7.41946
7.80235
8.17135
8.52866
2.60091
3.62081
4.42499
5.06203
5.60635
6.09272
6.5397
6.95823
7.35527
7.73538
8.10165
8.45591
2.57701
3.58677
4.38382
5.01572
5.55579
6.03847
6.4821
6.89761
7.29188
7.66952
8.03376
8.38716
2.55327
3.55324
4.3433
4.96996
5.50575
5.98471
6.42511
6.83768
7.22937
7.6048
7.96759
8.32114
2.52961
3.52033
4.3032
4.92455
5.45618
5.93157
6.36873
6.77844
7.16757
7.54077
7.90144
8.2521
2.5059
3.48735
4.26346
4.87976
5.40719
5.87895
6.31298
6.71984
7.10644
7.4774
7.83615
8.18514
2.48223
3.45452
4.22399
4.83524
5.35862
5.82682
6.25772
6.66188
7.046
7.41483
7.77193
8.12033
2.45866
3.42239
4.18495
4.79124
5.31051
5.77523
6.20302
6.60442
6.98606
7.35263
7.70766
8.05396
2.43497
3.39005
4.14623
4.74768
5.26289
5.72413
6.14887
6.54743
6.92644
7.29041
7.64243
7.98423
2.41125
3.35796
4.1078
4.70435
5.21564
5.67341
6.09506
6.49082
6.86713
7.22852
7.57812
7.91857
2.38741
3.32601
4.06968
4.6615
5.16875
5.62311
6.04169
6.4345
6.80806
7.16663
7.51303
7.8488
2.36351
3.29418
4.03162
4.61883
5.12222
5.5732
5.98864
6.37859
6.74936
7.10527
7.44925
7.78357
2.33947
3.26244
3.99396
4.57646
5.07608
5.52365
5.93598
6.32306
6.69114
7.04463
7.38686
7.72114
2.31535
3.23091
3.95641
4.53451
5.03025
5.47438
5.88365
6.26781
6.63308
6.98382
7.32318
7.65327
2.29104
3.19962
3.9193
4.49271
4.98458
5.4254
5.83154
6.21268
6.57502
6.92275
7.25889
7.58587
2.26648
3.16802
3.88212
4.45103
4.93926
5.37667
5.7796
6.15758
6.51666
6.86077
7.19227
7.51183
2.24169
3.13662
3.84513
4.40969
4.89408
5.32809
5.72769
6.10239
6.4581
6.79853
7.12598
7.44164
2.21659
3.10519
3.80803
4.36836
4.84904
5.27954
5.67584
6.04722
6.39942
6.73622
7.06008
7.37254
2.19125
3.07385
3.77128
4.32719
4.80411
5.23121
5.62408
5.99205
6.34084
6.67429
6.99519
7.30604
2.16558
3.04245
3.73445
4.28616
4.75936
5.18286
5.57235
5.93691
6.28229
6.61237
6.92989
7.23702
2.13948
3.01075
3.69753
4.24506
4.71455
5.13468
5.52075
5.88187
6.22382
6.55045
6.86433
7.16701
2.11289
2.97913
3.6608
4.20407
4.66992
5.08653
5.46915
5.82694
6.16565
6.48924
6.80076
7.10285
2.0857
2.94697
3.62384
4.16305
4.62534
5.03849
5.41769
5.77209
6.10755
6.42824
6.73789
7.04108
2.05791
2.91446
3.58667
4.12216
4.5808
4.99041
5.36616
5.71707
6.04886
6.36551
6.66958
6.96136
2.02947
2.88184
3.54945
4.08109
4.53625
4.94241
5.31466
5.6619
5.98977
6.30217
6.6015
6.8889
2.00017
2.84874
3.51227
4.04025
4.49182
4.89448
5.26309
5.60653
5.93048
6.23882
6.5344
6.81979
1.96989
2.81526
3.47479
3.99921
4.44747
4.8466
5.21147
5.55095
5.87075
6.17477
6.46571
6.74526
1.93852
2.78112
3.4374
3.95854
4.40339
4.79894
5.15996
5.49533
5.81085
6.11048
6.39703
6.67264
1.90573
2.74641
3.39982
3.9179
4.35953
4.75144
5.10849
5.43961
5.75079
6.0461
6.32876
6.60184
1.87141
2.71152
3.36253
3.87792
4.31632
4.70447
5.05732
5.38397
5.69047
5.98109
6.25898
6.5264
1.83516
2.67557
3.3254
3.83852
4.2738
4.65803
5.00641
5.32824
5.62979
5.91549
6.18874
6.45235
1.79652
2.63935
3.28921
3.80055
4.23264
4.61256
4.95594
5.27244
5.5685
5.84872
6.11644
6.37385
1.75499
2.60335
3.25474
3.7648
4.19325
4.56824
4.90593
5.21646
5.50652
5.78091
6.04312
6.29581
1.70949
2.56774
3.22328
3.73206
4.15608
4.52502
4.85606
5.15982
5.44334
5.71145
5.96768
6.21427
1.65857
2.53521
3.19687
3.70346
4.12106
4.48235
4.80557
5.10188
5.37844
5.64017
5.89068
6.13281
1.59989
2.51288
3.17873
3.67908
4.08665
4.43833
4.753
5.04175
5.31138
5.56684
5.81128
6.0477
1.52065
2.50357
3.15917
3.65326
4.04748
4.3899
4.69758
4.98027
5.24439
5.49479
5.73164
5.95748
2.01535
3.39858
4.78092
6.1058
7.08645
7.94933
8.68534
9.21566
9.58121
9.81471
9.94016
9.98143
2.067
3.47185
4.90978
6.15631
7.12472
7.95275
8.62947
9.12398
9.46598
9.68351
9.80026
9.83656
2.12179
3.51917
4.96125
6.16012
7.11769
7.91599
8.55214
9.01999
9.34453
9.55114
9.66227
9.69746
2.17481
3.56372
4.9789
6.1398
7.0812
7.85277
8.45931
8.90694
9.21846
9.41747
9.52553
9.56192
2.22445
3.60574
4.98037
6.10664
7.02714
7.77383
8.3568
8.78827
9.08979
9.28365
9.3905
9.42892
2.27227
3.6435
4.97221
6.06495
6.96181
7.68527
8.24841
8.66645
8.9601
9.15058
9.25768
9.29929
2.31865
3.67619
4.95805
6.01723
6.88909
7.59077
8.13668
8.54327
8.8306
9.01897
9.12746
9.17338
2.36367
3.70425
4.94018
5.96576
6.81198
7.493
8.02332
8.41998
8.70225
8.88947
8.99997
9.05012
2.40647
3.7276
4.92004
5.9121
6.73272
7.3938
7.90988
8.29772
8.5757
8.76249
8.87556
8.93085
2.44699
3.74654
4.89798
5.85726
6.65242
7.29451
7.79737
8.1771
8.45152
8.63835
8.75423
8.81434
2.48494
3.7614
4.87459
5.80194
6.57227
7.19608
7.6864
8.05874
8.3301
8.51725
8.63624
8.70169
2.51995
3.77215
4.84984
5.74654
6.49273
7.09899
7.57745
7.9429
8.21148
8.39917
8.52114
8.59113
2.55221
3.7792
4.82384
5.69127
6.41427
7.00362
7.47081
7.82981
8.0958
8.28412
8.4092
8.4842
2.58184
3.78269
4.7967
5.63638
6.33716
6.91029
7.36668
7.71949
7.98316
8.17211
8.30003
8.37923
2.60861
3.783
4.76846
5.58191
6.26148
6.81911
7.26512
7.61208
7.87353
8.06318
8.19407
8.27819
2.63274
3.78043
4.73914
5.52795
6.18736
6.73014
7.16632
7.50767
7.76702
7.95728
8.09069
8.1783
2.65435
3.77507
4.70895
5.47455
6.11483
6.64343
7.07016
7.40609
7.66335
7.85406
7.98972
8.08063
2.67356
3.76727
4.67777
5.42168
6.04385
6.55895
6.9766
7.3073
7.56242
7.75338
7.89098
7.98489
2.69055
3.75724
4.64586
5.36932
5.97435
6.47655
6.88551
7.21112
7.4641
7.65521
7.79468
7.89176
2.70535
3.7453
4.61318
5.31749
5.90638
6.3963
6.79683
7.11747
7.36834
7.55957
7.70092
7.80134
2.71822
3.73152
4.57981
5.26617
5.83977
6.31801
6.7105
7.02632
7.27509
7.46645
7.6096
7.71314
2.72937
3.71602
4.54588
5.21535
5.77451
6.24167
6.62639
6.93757
7.18434
7.37575
7.5207
7.62756
2.73868
3.69927
4.51147
5.16502
5.71064
6.16714
6.5445
6.85119
7.09589
7.28721
7.4334
7.54188
2.74642
3.68111
4.47657
5.11519
5.64794
6.09442
6.46465
6.76698
7.00962
7.20069
7.34793
7.45826
2.75262
3.66192
4.44132
5.06584
5.5864
6.02339
6.38679
6.68491
6.92545
7.11621
7.26439
7.37656
2.7577
3.6417
4.40575
5.01696
5.52605
5.95391
6.31086
6.60484
6.84335
7.03373
7.18284
7.29717
2.76129
3.62064
4.37004
4.96859
5.46682
5.88604
6.23675
6.52673
6.76323
6.95316
7.10314
7.21938
2.76388
3.59885
4.33411
4.92065
5.40863
5.81967
6.16434
6.45048
6.68494
6.87435
7.0249
7.14212
2.76529
3.57641
4.29805
4.87324
5.35146
5.75463
6.09362
6.376
6.60847
6.79733
6.94851
7.06762
2.76569
3.55341
4.26187
4.82626
5.29528
5.69103
6.0245
6.30324
6.53371
6.72192
6.87345
6.99334
2.76535
3.53001
4.22574
4.77981
5.23999
5.62868
5.95688
6.2321
6.46059
6.6481
6.79993
6.92079
2.76404
3.50613
4.1896
4.73377
5.18565
5.56755
5.89068
6.16253
6.3891
6.57596
6.72832
6.85118
2.76196
3.48192
4.15349
4.6883
5.13219
5.50764
5.82592
6.09445
6.31913
6.50529
6.65788
6.78127
2.75923
3.45744
4.11741
4.64329
5.07957
5.44883
5.76249
6.02779
6.25063
6.43609
6.58894
6.7136
2.75587
3.43283
4.08162
4.59871
5.02774
5.39118
5.70031
5.96256
6.18352
6.36821
6.52102
6.64576
2.75175
3.40805
4.04581
4.55465
4.97676
5.3345
5.63939
5.89863
6.11781
6.30176
6.45487
6.58129
2.74721
3.38314
4.01023
4.51108
4.92653
5.27893
5.57964
5.83598
6.05345
6.2367
6.39007
6.51784
2.74219
3.3582
3.97488
4.46799
4.87709
5.22429
5.52107
5.77459
5.9903
6.17268
6.3257