/*--------------------------------*- C++ -*----------------------------------*\
| =========                 |                                                 |
| \\      /  F ield         | OpenFOAM: The Open Source CFD Toolbox           |
|  \\    /   O peration     | Version:  2.3.1                                 |
|   \\  /    A nd           | Web:      www.OpenFOAM.org                      |
|    \\/     M anipulation  |                                                 |
\*---------------------------------------------------------------------------*/
FoamFile
{
    version     2.0;
    format      ascii;
    class       volScalarField;
    location    "0.86";
    object      p;
}
// * * * * * * * * * * * * * * * * * * * * * * * * * * * * * * * * * * * * * //

dimensions      [0 2 -2 0 0 0 0];

internalField   nonuniform List<scalar> 
79454
(
-172.319
-172.493
-172.563
-172.582
-172.548
-172.466
-172.351
-172.211
-171.986
-171.72
-171.38
-171.169
-172.683
-172.609
-172.56
-172.543
-172.517
-172.458
-172.355
-172.204
-171.994
-171.739
-171.413
-170.985
-172.789
-172.641
-172.531
-172.463
-172.408
-172.342
-172.243
-172.099
-171.895
-171.635
-171.306
-170.879
-172.722
-172.552
-172.417
-172.322
-172.252
-172.18
-172.088
-171.954
-171.761
-171.493
-171.128
-170.601
-172.541
-172.368
-172.227
-172.123
-172.046
-171.974
-171.887
-171.764
-171.591
-171.356
-171.056
-170.678
-172.278
-172.106
-171.966
-171.86
-171.782
-171.711
-171.63
-171.518
-171.356
-171.128
-170.815
-170.369
-171.936
-171.772
-171.638
-171.535
-171.459
-171.392
-171.317
-171.215
-171.066
-170.853
-170.567
-170.201
-171.526
-171.368
-171.243
-171.147
-171.073
-171.007
-170.933
-170.834
-170.687
-170.476
-170.188
-169.79
-171.039
-170.892
-170.777
-170.685
-170.613
-170.547
-170.474
-170.375
-170.231
-170.023
-169.735
-169.386
-170.474
-170.343
-170.241
-170.154
-170.081
-170.009
-169.926
-169.813
-169.651
-169.423
-169.078
-168.42
-169.846
-169.731
-169.639
-169.557
-169.482
-169.405
-169.31
-169.185
-169.011
-168.772
-168.425
-167.805
-169.174
-169.064
-168.982
-168.905
-168.829
-168.746
-168.647
-168.519
-168.346
-168.12
-167.844
-167.51
-168.452
-168.347
-168.274
-168.2
-168.124
-168.039
-167.937
-167.803
-167.627
-167.401
-167.121
-166.746
-167.672
-167.583
-167.523
-167.455
-167.382
-167.298
-167.193
-167.062
-166.895
-166.685
-166.43
-166.137
-166.871
-166.787
-166.737
-166.674
-166.605
-166.522
-166.421
-166.294
-166.134
-165.932
-165.673
-165.294
-166.039
-165.96
-165.923
-165.868
-165.802
-165.724
-165.63
-165.512
-165.363
-165.184
-164.973
-164.713
-165.183
-165.111
-165.082
-165.033
-164.973
-164.9
-164.808
-164.695
-164.552
-164.374
-164.157
-163.867
-164.288
-164.234
-164.214
-164.175
-164.12
-164.051
-163.965
-163.858
-163.725
-163.558
-163.36
-163.153
-163.388
-163.344
-163.329
-163.296
-163.246
-163.178
-163.092
-162.983
-162.847
-162.678
-162.457
-162.112
-162.474
-162.433
-162.425
-162.399
-162.354
-162.291
-162.208
-162.101
-161.969
-161.807
-161.611
-161.349
-161.527
-161.503
-161.503
-161.483
-161.443
-161.383
-161.304
-161.201
-161.073
-160.922
-160.749
-160.551
-160.583
-160.564
-160.572
-160.558
-160.521
-160.463
-160.382
-160.28
-160.15
-159.992
-159.799
-159.522
-159.629
-159.616
-159.63
-159.621
-159.587
-159.532
-159.457
-159.357
-159.23
-159.069
-158.864
-158.576
-158.677
-158.668
-158.685
-158.68
-158.651
-158.599
-158.526
-158.431
-158.315
-158.176
-158.017
-157.853
-157.717
-157.712
-157.735
-157.735
-157.709
-157.659
-157.59
-157.5
-157.386
-157.247
-157.078
-156.845
-156.755
-156.757
-156.785
-156.789
-156.766
-156.722
-156.656
-156.57
-156.464
-156.337
-156.191
-156.026
-155.796
-155.803
-155.835
-155.844
-155.824
-155.779
-155.714
-155.628
-155.521
-155.395
-155.248
-155.014
-154.848
-154.855
-154.89
-154.899
-154.88
-154.838
-154.774
-154.687
-154.577
-154.446
-154.277
-153.999
-153.895
-153.909
-153.948
-153.961
-153.944
-153.903
-153.841
-153.759
-153.658
-153.539
-153.406
-153.265
-152.966
-152.978
-153.017
-153.031
-153.015
-152.975
-152.914
-152.833
-152.728
-152.6
-152.455
-152.297
-152.05
-152.059
-152.096
-152.109
-152.094
-152.054
-151.992
-151.91
-151.809
-151.686
-151.543
-151.409
-151.137
-151.149
-151.188
-151.201
-151.186
-151.148
-151.089
-151.011
-150.914
-150.797
-150.672
-150.574
-150.25
-150.259
-150.295
-150.308
-150.293
-150.255
-150.196
-150.12
-150.024
-149.914
-149.788
-149.602
-149.378
-149.385
-149.419
-149.431
-149.416
-149.379
-149.323
-149.248
-149.156
-149.046
-148.908
-148.693
-148.528
-148.53
-148.56
-148.571
-148.558
-148.524
-148.472
-148.402
-148.319
-148.224
-148.112
-147.93
-147.682
-147.687
-147.717
-147.729
-147.718
-147.687
-147.638
-147.575
-147.497
-147.405
-147.297
-147.129
-146.86
-146.863
-146.893
-146.905
-146.897
-146.87
-146.829
-146.773
-146.704
-146.624
-146.538
-146.472
-146.046
-146.051
-146.082
-146.097
-146.091
-146.069
-146.032
-145.984
-145.927
-145.861
-145.795
-145.748
-145.241
-145.251
-145.285
-145.301
-145.298
-145.278
-145.246
-145.202
-145.146
-145.081
-145.009
-144.914
-144.452
-144.461
-144.497
-144.516
-144.515
-144.498
-144.467
-144.425
-144.374
-144.314
-144.248
-144.186
-143.665
-143.677
-143.715
-143.735
-143.735
-143.719
-143.689
-143.645
-143.587
-143.519
-143.44
-143.329
-142.881
-142.897
-142.938
-142.962
-142.963
-142.945
-142.913
-142.867
-142.807
-142.733
-142.643
-142.52
-142.107
-142.126
-142.168
-142.192
-142.193
-142.175
-142.141
-142.09
-142.023
-141.94
-141.819
-141.583
-141.346
-141.363
-141.407
-141.432
-141.433
-141.415
-141.381
-141.33
-141.264
-141.184
-141.09
-140.956
-140.587
-140.61
-140.655
-140.68
-140.682
-140.663
-140.628
-140.578
-140.516
-140.44
-140.35
-140.236
-139.852
-139.872
-139.916
-139.941
-139.942
-139.925
-139.893
-139.845
-139.781
-139.703
-139.617
-139.539
-139.132
-139.149
-139.19
-139.214
-139.217
-139.2
-139.166
-139.119
-139.059
-138.986
-138.906
-138.833
-138.416
-138.435
-138.477
-138.502
-138.504
-138.488
-138.458
-138.414
-138.358
-138.293
-138.22
-138.152
-137.722
-137.739
-137.779
-137.803
-137.806
-137.791
-137.761
-137.718
-137.663
-137.595
-137.508
-137.357
-137.038
-137.054
-137.094
-137.118
-137.122
-137.109
-137.082
-137.042
-136.992
-136.932
-136.866
-136.795
-136.365
-136.382
-136.422
-136.447
-136.451
-136.439
-136.414
-136.376
-136.327
-136.269
-136.209
-136.163
-135.705
-135.723
-135.763
-135.787
-135.792
-135.781
-135.756
-135.72
-135.674
-135.615
-135.549
-135.493
-135.062
-135.079
-135.117
-135.14
-135.146
-135.135
-135.11
-135.074
-135.026
-134.968
-134.897
-134.803
-134.427
-134.443
-134.481
-134.506
-134.511
-134.5
-134.476
-134.441
-134.396
-134.343
-134.281
-134.21
-133.801
-133.819
-133.857
-133.881
-133.885
-133.874
-133.85
-133.816
-133.771
-133.717
-133.652
-133.552
-133.187
-133.206
-133.245
-133.268
-133.273
-133.263
-133.24
-133.207
-133.164
-133.114
-133.056
-132.98
-132.59
-132.607
-132.644
-132.667
-132.671
-132.66
-132.636
-132.6
-132.556
-132.503
-132.433
-132.31
-132.001
-132.017
-132.054
-132.076
-132.08
-132.069
-132.046
-132.013
-131.969
-131.918
-131.862
-131.805
-131.421
-131.439
-131.475
-131.497
-131.501
-131.489
-131.465
-131.43
-131.386
-131.333
-131.278
-131.22
-130.854
-130.872
-130.908
-130.929
-130.932
-130.92
-130.896
-130.86
-130.815
-130.762
-130.699
-130.622
-130.302
-130.318
-130.352
-130.372
-130.374
-130.36
-130.334
-130.297
-130.25
-130.19
-130.107
-129.967
-129.757
-129.775
-129.809
-129.828
-129.83
-129.817
-129.791
-129.756
-129.712
-129.658
-129.599
-129.552
-129.231
-129.246
-129.278
-129.296
-129.296
-129.283
-129.259
-129.226
-129.186
-129.143
-129.111
-129.119
-128.718
-128.731
-128.76
-128.776
-128.775
-128.759
-128.732
-128.695
-128.648
-128.59
-128.511
-128.406
-128.212
-128.225
-128.254
-128.268
-128.266
-128.249
-128.221
-128.185
-128.14
-128.088
-128.032
-127.984
-127.724
-127.734
-127.76
-127.772
-127.767
-127.749
-127.719
-127.68
-127.632
-127.578
-127.523
-127.453
-127.248
-127.256
-127.278
-127.288
-127.28
-127.26
-127.228
-127.186
-127.136
-127.081
-127.018
-126.934
-126.786
-126.792
-126.811
-126.816
-126.806
-126.783
-126.748
-126.702
-126.646
-126.581
-126.498
-126.335
-126.344
-126.343
-126.357
-126.359
-126.346
-126.32
-126.284
-126.238
-126.182
-126.12
-126.049
-125.932
-125.914
-125.909
-125.918
-125.916
-125.9
-125.874
-125.838
-125.791
-125.737
-125.675
-125.601
-125.488
-125.498
-125.49
-125.494
-125.488
-125.471
-125.443
-125.406
-125.363
-125.312
-125.253
-125.186
-125.112
-125.097
-125.085
-125.085
-125.076
-125.057
-125.03
-124.996
-124.956
-124.912
-124.865
-124.83
-124.858
-124.713
-124.696
-124.691
-124.678
-124.657
-124.629
-124.594
-124.554
-124.509
-124.46
-124.408
-124.338
-124.339
-124.318
-124.311
-124.295
-124.272
-124.243
-124.209
-124.17
-124.127
-124.084
-124.037
-123.978
-123.974
-123.951
-123.941
-123.923
-123.898
-123.868
-123.832
-123.792
-123.748
-123.7
-123.642
-123.54
-123.62
-123.595
-123.583
-123.563
-123.536
-123.505
-123.469
-123.43
-123.387
-123.344
-123.3
-123.258
-123.278
-123.25
-123.236
-123.214
-123.186
-123.153
-123.117
-123.076
-123.032
-122.985
-122.936
-122.881
-122.942
-122.912
-122.897
-122.872
-122.843
-122.809
-122.772
-122.733
-122.691
-122.647
-122.605
-122.578
-122.612
-122.583
-122.567
-122.541
-122.51
-122.476
-122.438
-122.396
-122.352
-122.305
-122.255
-122.19
-122.295
-122.261
-122.245
-122.216
-122.184
-122.149
-122.111
-122.069
-122.025
-121.978
-121.928
-121.873
-121.982
-121.946
-121.929
-121.9
-121.867
-121.83
-121.791
-121.748
-121.703
-121.656
-121.609
-121.555
-121.674
-121.639
-121.62
-121.59
-121.556
-121.519
-121.479
-121.436
-121.391
-121.341
-121.286
-121.222
-121.374
-121.338
-121.318
-121.287
-121.252
-121.214
-121.174
-121.131
-121.085
-121.037
-120.982
-120.902
-121.083
-121.045
-121.023
-120.992
-120.956
-120.918
-120.878
-120.836
-120.792
-120.749
-120.705
-120.652
-120.798
-120.76
-120.735
-120.702
-120.666
-120.628
-120.587
-120.544
-120.499
-120.453
-120.4
-120.311
-120.521
-120.479
-120.453
-120.42
-120.383
-120.344
-120.304
-120.262
-120.221
-120.178
-120.139
-120.11
-120.242
-120.204
-120.178
-120.143
-120.106
-120.067
-120.026
-119.983
-119.939
-119.893
-119.843
-119.774
-119.976
-119.937
-119.908
-119.873
-119.834
-119.795
-119.753
-119.711
-119.668
-119.624
-119.58
-119.534
-119.717
-119.674
-119.644
-119.608
-119.569
-119.529
-119.488
-119.445
-119.4
-119.354
-119.309
-119.263
-119.459
-119.416
-119.386
-119.349
-119.309
-119.268
-119.227
-119.184
-119.142
-119.1
-119.058
-119.017
-119.206
-119.163
-119.132
-119.094
-119.054
-119.013
-118.971
-118.928
-118.885
-118.843
-118.797
-118.718
-118.957
-118.914
-118.883
-118.844
-118.804
-118.762
-118.72
-118.677
-118.633
-118.589
-118.542
-118.479
-118.716
-118.672
-118.639
-118.6
-118.559
-118.516
-118.473
-118.43
-118.386
-118.341
-118.295
-118.243
-118.48
-118.435
-118.4
-118.36
-118.318
-118.275
-118.231
-118.187
-118.141
-118.094
-118.047
-118.012
-118.249
-118.201
-118.166
-118.125
-118.081
-118.037
-117.993
-117.949
-117.902
-117.855
-117.811
-117.799
-118.019
-117.973
-117.936
-117.894
-117.85
-117.806
-117.76
-117.715
-117.668
-117.619
-117.572
-117.546
-117.801
-117.751
-117.712
-117.668
-117.623
-117.578
-117.532
-117.486
-117.44
-117.394
-117.351
-117.318
-117.582
-117.533
-117.493
-117.448
-117.402
-117.355
-117.308
-117.262
-117.216
-117.171
-117.128
-117.073
-117.374
-117.322
-117.28
-117.232
-117.185
-117.137
-117.09
-117.041
-116.992
-116.941
-116.882
-116.796
-117.172
-117.116
-117.072
-117.023
-116.974
-116.926
-116.879
-116.832
-116.786
-116.741
-116.697
-116.635
-116.973
-116.915
-116.869
-116.819
-116.769
-116.72
-116.672
-116.625
-116.579
-116.535
-116.493
-116.435
-116.776
-116.719
-116.671
-116.619
-116.568
-116.519
-116.471
-116.424
-116.378
-116.332
-116.284
-116.229
-116.586
-116.528
-116.478
-116.425
-116.373
-116.324
-116.276
-116.23
-116.185
-116.143
-116.105
-116.074
-116.408
-116.343
-116.291
-116.236
-116.183
-116.132
-116.084
-116.037
-115.992
-115.947
-115.902
-115.845
-116.225
-116.162
-116.108
-116.052
-115.998
-115.947
-115.899
-115.853
-115.808
-115.766
-115.727
-115.689
-116.051
-115.985
-115.929
-115.872
-115.817
-115.765
-115.716
-115.669
-115.624
-115.58
-115.537
-115.481
-115.879
-115.812
-115.755
-115.696
-115.641
-115.589
-115.54
-115.494
-115.451
-115.412
-115.378
-115.36
-115.713
-115.644
-115.585
-115.525
-115.468
-115.415
-115.366
-115.319
-115.272
-115.225
-115.17
-115.086
-115.548
-115.479
-115.418
-115.357
-115.3
-115.248
-115.2
-115.155
-115.112
-115.069
-115.023
-114.996
-115.389
-115.317
-115.255
-115.194
-115.137
-115.085
-115.039
-114.996
-114.958
-114.926
-114.908
-114.896
-115.229
-115.157
-115.095
-115.033
-114.976
-114.925
-114.879
-114.837
-114.8
-114.768
-114.748
-114.742
-115.072
-114.999
-114.937
-114.874
-114.818
-114.767
-114.722
-114.68
-114.642
-114.605
-114.568
-114.515
-114.914
-114.841
-114.78
-114.718
-114.662
-114.612
-114.567
-114.527
-114.49
-114.455
-114.418
-114.374
-114.759
-114.684
-114.623
-114.562
-114.508
-114.459
-114.416
-114.377
-114.343
-114.309
-114.275
-114.25
-114.599
-114.527
-114.467
-114.408
-114.354
-114.308
-114.267
-114.233
-114.204
-114.186
-114.189
-114.19
-114.44
-114.368
-114.309
-114.252
-114.2
-114.156
-114.117
-114.084
-114.057
-114.037
-114.028
-114.021
-114.275
-114.205
-114.15
-114.094
-114.045
-114.003
-113.966
-113.934
-113.907
-113.883
-113.861
-113.835
-114.109
-114.04
-113.987
-113.935
-113.888
-113.848
-113.813
-113.783
-113.756
-113.732
-113.707
-113.665
-113.935
-113.87
-113.821
-113.772
-113.728
-113.692
-113.661
-113.634
-113.612
-113.592
-113.574
-113.553
-113.759
-113.696
-113.65
-113.605
-113.566
-113.533
-113.506
-113.484
-113.465
-113.449
-113.434
-113.413
-113.572
-113.515
-113.474
-113.434
-113.4
-113.373
-113.351
-113.334
-113.32
-113.312
-113.311
-113.323
-113.38
-113.327
-113.292
-113.258
-113.23
-113.208
-113.191
-113.18
-113.173
-113.173
-113.181
-113.2
-113.177
-113.131
-113.104
-113.076
-113.054
-113.038
-113.026
-113.019
-113.015
-113.012
-113.007
-112.998
-112.972
-112.924
-112.907
-112.887
-112.872
-112.863
-112.858
-112.858
-112.861
-112.866
-112.872
-112.876
-112.744
-112.706
-112.701
-112.689
-112.683
-112.682
-112.685
-112.692
-112.7
-112.711
-112.722
-112.737
-112.506
-112.481
-112.482
-112.483
-112.487
-112.495
-112.507
-112.522
-112.539
-112.557
-112.579
-112.609
-112.252
-112.241
-112.253
-112.267
-112.282
-112.301
-112.323
-112.347
-112.373
-112.4
-112.433
-112.47
-111.98
-111.986
-112.012
-112.04
-112.069
-112.101
-112.134
-112.169
-112.203
-112.235
-112.267
-112.331
-111.689
-111.713
-111.758
-111.803
-111.848
-111.893
-111.939
-111.985
-112.028
-112.071
-112.115
-112.16
-111.376
-111.424
-111.491
-111.556
-111.619
-111.68
-111.739
-111.796
-111.849
-111.896
-111.933
-111.95
-111.047
-111.124
-111.214
-111.302
-111.385
-111.464
-111.539
-111.609
-111.673
-111.732
-111.786
-111.827
-110.705
-110.816
-110.931
-111.045
-111.151
-111.25
-111.341
-111.425
-111.499
-111.565
-111.627
-111.685
-110.311
-110.476
-110.627
-110.778
-110.916
-111.039
-111.148
-111.245
-111.33
-111.405
-111.47
-111.537
-109.73
-110.05
-110.282
-110.499
-110.685
-110.839
-110.969
-111.077
-111.17
-111.253
-111.323
-111.331
-109.025
-109.716
-110.034
-110.301
-110.52
-110.693
-110.827
-110.938
-111.018
-111.086
-111.174
-111.247
-59.0209
-69.5666
-74.3038
-78.1274
-81.4616
-84.2802
-86.4862
-87.9471
-89.6066
-91.1311
-92.4118
-93.5622
-68.2861
-72.8025
-75.1997
-78.1658
-80.9456
-83.3925
-85.4559
-87.1925
-88.8603
-90.3868
-91.7463
-92.8023
-76.3356
-77.9218
-78.7722
-80.5056
-82.3172
-84.0821
-85.7539
-87.321
-88.775
-90.0881
-91.2567
-92.4251
-80.3584
-81.2463
-81.7506
-82.8504
-84.0467
-85.3007
-86.5644
-87.8005
-88.9798
-90.0815
-91.0892
-91.9294
-82.8691
-83.5114
-83.9764
-84.783
-85.6464
-86.5737
-87.5333
-88.4962
-89.4398
-90.3474
-91.2104
-92.0282
-85.1856
-85.5838
-85.9655
-86.5485
-87.1724
-87.8565
-88.5799
-89.3214
-90.0625
-90.7892
-91.4892
-92.1258
-87.3817
-87.5744
-87.8481
-88.2359
-88.658
-89.1375
-89.6615
-90.2139
-90.7786
-91.3439
-91.8968
-92.41
-89.3433
-89.3876
-89.5697
-89.8053
-90.0653
-90.3759
-90.7317
-91.1207
-91.5301
-91.9492
-92.3692
-92.7843
-91.074
-90.9973
-91.1087
-91.2301
-91.3637
-91.5385
-91.7551
-92.0062
-92.282
-92.573
-92.8749
-93.1997
-92.6044
-92.43
-92.4841
-92.5161
-92.5487
-92.6125
-92.713
-92.8464
-93.0061
-93.184
-93.3727
-93.5972
-93.9754
-93.7161
-93.7172
-93.6737
-93.6227
-93.594
-93.596
-93.6273
-93.6838
-93.7629
-93.8536
-93.8982
-95.2086
-94.8717
-94.8228
-94.7138
-94.5913
-94.4838
-94.4019
-94.346
-94.3135
-94.3027
-94.312
-94.3286
-96.3061
-95.9041
-95.8099
-95.6434
-95.4593
-95.2847
-95.1309
-94.9996
-94.8896
-94.7999
-94.7331
-94.6922
-97.2868
-96.8236
-96.6869
-96.4689
-96.2313
-95.9984
-95.7821
-95.585
-95.4075
-95.2483
-95.1054
-94.9658
-98.1518
-97.6374
-97.4629
-97.1987
-96.9137
-96.6299
-96.3594
-96.1056
-95.8697
-95.6527
-95.4557
-95.2732
-98.9196
-98.3551
-98.1453
-97.8389
-97.5113
-97.1825
-96.8642
-96.5596
-96.2706
-95.9984
-95.7415
-95.4807
-99.5881
-98.9819
-98.7409
-98.3956
-98.0302
-97.6619
-97.3014
-96.9527
-96.6182
-96.3
-96.0017
-95.7253
-100.175
-99.526
-99.2568
-98.8759
-98.4759
-98.0717
-97.6733
-97.2845
-96.9077
-96.5447
-96.1948
-95.8386
-100.675
-99.9919
-99.698
-99.2839
-98.8526
-98.4167
-97.9852
-97.562
-97.1499
-96.7516
-96.3725
-96.0178
-101.105
-100.386
-100.07
-99.6258
-99.1659
-98.7012
-98.2396
-97.7848
-97.3394
-96.9058
-96.4866
-96.0808
-101.461
-100.712
-100.379
-99.9058
-99.4198
-98.9292
-98.4407
-97.9576
-97.4829
-97.0197
-96.5693
-96.1197
-101.759
-100.976
-100.629
-100.128
-99.6185
-99.1045
-98.592
-98.0843
-97.5846
-97.0966
-96.6243
-96.1648
-101.993
-101.183
-100.824
-100.297
-99.7658
-99.2305
-98.696
-98.165
-97.6407
-97.1257
-96.6192
-96.0957
-102.166
-101.331
-100.968
-100.416
-99.8651
-99.3109
-98.7571
-98.2063
-97.6615
-97.1263
-96.6039
-96.0821
-102.295
-101.428
-101.069
-100.488
-99.9201
-99.3491
-98.7778
-98.2081
-97.6432
-97.0859
-96.5356
-95.9622
-102.371
-101.481
-101.13
-100.515
-99.9338
-99.3485
-98.7616
-98.1762
-97.5957
-97.0244
-96.4708
-95.9418
-102.394
-101.495
-101.153
-100.496
-99.9098
-99.3111
-98.7092
-98.1087
-97.5118
-96.9215
-96.3424
-95.7665
-102.383
-101.477
-101.123
-100.45
-99.8496
-99.2392
-98.6253
-98.0126
-97.4039
-96.8031
-96.2251
-95.7081
-102.332
-101.436
-101.03
-100.376
-99.7598
-99.1363
-98.5106
-97.8859
-97.2644
-96.6481
-96.0426
-95.4533
-102.25
-101.359
-100.92
-100.267
-99.6389
-99.0046
-98.3685
-97.7327
-97.0996
-96.4714
-95.8481
-95.204
-102.134
-101.246
-100.785
-100.129
-99.4907
-98.8473
-98.2028
-97.5592
-96.9196
-96.2885
-95.6772
-95.099
-101.982
-101.101
-100.625
-99.9647
-99.317
-98.6653
-98.0123
-97.3597
-96.7099
-96.0655
-95.4295
-94.8034
-101.814
-100.925
-100.44
-99.7754
-99.12
-98.4608
-97.8001
-97.1392
-96.4805
-95.8267
-95.1788
-94.5125
-101.62
-100.728
-100.234
-99.5642
-98.9023
-98.2369
-97.5699
-96.9028
-96.2377
-95.5783
-94.9329
-94.3061
-101.398
-100.505
-100.006
-99.3331
-98.6658
-97.9949
-97.3223
-96.6487
-95.9757
-95.3056
-94.6398
-93.9574
-101.163
-100.266
-99.7604
-99.084
-98.4125
-97.7376
-97.0611
-96.3843
-95.709
-95.039
-94.3869
-93.7724
-100.908
-100.008
-99.4984
-98.8191
-98.144
-97.4655
-96.7855
-96.1051
-95.4259
-94.7493
-94.0783
-93.4102
-100.629
-99.7346
-99.221
-98.5393
-97.8614
-97.1801
-96.4971
-95.8133
-95.1306
-94.4499
-93.771
-93.087
-100.342
-99.4453
-98.9295
-98.2462
-97.5662
-96.8828
-96.1977
-95.5119
-94.8271
-94.1454
-93.467
-92.7806
-100.039
-99.144
-98.6262
-97.9415
-97.26
-96.5752
-95.8889
-95.202
-94.5164
-93.8352
-93.1629
-92.4864
-99.7285
-98.8329
-98.3118
-97.6259
-96.9433
-96.2575
-95.5707
-94.8837
-94.199
-93.5208
-92.8635
-92.2481
-99.4051
-98.5096
-97.9872
-97.3005
-96.6167
-95.9298
-95.2415
-94.5525
-93.8646
-93.1801
-92.5036
-91.818
-99.065
-98.1736
-97.652
-96.9654
-96.2811
-95.5935
-94.9042
-94.2141
-93.5247
-92.8382
-92.1619
-91.5029
-98.7217
-97.8318
-97.3092
-96.6226
-95.9383
-95.2503
-94.5603
-93.8688
-93.1771
-92.4864
-91.7999
-91.1256
-98.3673
-97.4824
-96.9598
-96.2736
-95.5895
-94.9017
-94.2118
-93.5202
-92.8286
-92.1393
-91.4529
-90.753
-98.011
-97.1275
-96.6044
-95.919
-95.2358
-94.5489
-93.86
-93.1698
-92.4804
-91.7965
-91.1246
-90.4401
-97.6446
-96.7647
-96.2434
-95.5593
-94.8773
-94.1915
-93.5038
-92.8149
-92.1268
-91.4435
-90.7759
-90.1237
-97.277
-96.3991
-95.8782
-95.1953
-94.5144
-93.8298
-93.1431
-92.4548
-91.7663
-91.0789
-90.3962
-89.7285
-96.901
-96.0278
-95.5087
-94.8275
-94.1483
-93.4651
-92.7797
-92.0925
-91.4051
-90.7193
-90.0348
-89.3336
-96.525
-95.6551
-95.1364
-94.4569
-93.7796
-93.0986
-92.4154
-91.7311
-91.0477
-90.369
-89.7024
-89.0419
-96.1401
-95.2752
-94.7599
-94.0829
-93.408
-92.7292
-92.0483
-91.3663
-90.685
-90.0065
-89.3337
-88.6667
-95.7545
-94.8964
-94.3818
-93.707
-93.0344
-92.3578
-91.679
-90.9988
-90.3192
-89.6414
-88.9618
-88.2565
-95.3734
-94.5143
-94.002
-93.3295
-92.6593
-91.9851
-91.3088
-90.6313
-89.9548
-89.2824
-88.6138
-87.9121
-94.9829
-94.1318
-93.6209
-92.9507
-92.2828
-91.6112
-90.9377
-90.263
-89.5894
-88.9203
-88.2647
-87.6182
-94.5926
-93.7458
-93.2377
-92.5702
-91.9052
-91.2361
-90.565
-89.8924
-89.2199
-88.5483
-87.8806
-87.2238
-94.2056
-93.3596
-92.8538
-92.1891
-91.5268
-90.8606
-90.1921
-89.5223
-88.8528
-88.1833
-87.5069
-86.79
-93.8108
-92.9721
-92.4689
-91.8071
-91.148
-90.4852
-89.8203
-89.1543
-88.4891
-87.8287
-87.1772
-86.5256
-93.4155
-92.583
-92.0828
-91.4244
-90.7689
-90.1095
-89.4483
-88.786
-88.1243
-87.4674
-86.823
-86.1909
-93.0223
-92.1942
-91.6967
-91.0417
-90.3895
-89.7336
-89.076
-88.4177
-87.7602
-87.1073
-86.4673
-85.8498
-92.6297
-91.8066
-91.311
-90.6588
-90.0098
-89.3571
-88.7028
-88.0476
-87.393
-86.7408
-86.0932
-85.4507
-92.2405
-91.4182
-90.9249
-90.2757
-89.6299
-88.9806
-88.3296
-87.6776
-87.0261
-86.3772
-85.7313
-85.0694
-91.84
-91.0269
-90.5376
-89.892
-89.2499
-88.6044
-87.9575
-87.3103
-86.6647
-86.0248
-85.3988
-84.7873
-91.4497
-90.6371
-90.1501
-89.5078
-88.8692
-88.2274
-87.5842
-86.9404
-86.2975
-85.6583
-85.0252
-84.3817
-91.0512
-90.2464
-89.762
-89.1232
-88.4883
-87.8502
-87.211
-86.5714
-85.9334
-85.3005
-84.6808
-84.0748
-90.649
-89.8536
-89.3727
-88.7379
-88.1068
-87.4725
-86.8369
-86.2006
-85.5652
-84.9335
-84.3088
-83.6672
-90.256
-89.4629
-88.9842
-88.3528
-87.7253
-87.0949
-86.4635
-85.8322
-85.2027
-84.5798
-83.9797
-83.4229
-89.8661
-89.0718
-88.5958
-87.9675
-87.3434
-86.7164
-86.0886
-85.4608
-84.8345
-84.2101
-83.5923
-82.9964
-89.4619
-88.6791
-88.2061
-87.5814
-86.9608
-86.3373
-85.7127
-85.0879
-84.4645
-83.8434
-83.2221
-82.575
-89.0608
-88.2856
-87.8157
-87.1947
-86.578
-85.9583
-85.3377
-84.7174
-84.0992
-83.4863
-82.8828
-82.2819
-88.6706
-87.894
-87.426
-86.8082
-86.195
-85.579
-84.9622
-84.3455
-83.7305
-83.1198
-82.5142
-81.8906
-88.2683
-87.4996
-87.0351
-86.4212
-85.8117
-85.1995
-84.5868
-83.9746
-83.3648
-82.7608
-82.1706
-81.5954
-87.867
-87.1055
-86.6439
-86.0336
-85.4279
-84.8194
-84.2103
-83.6015
-82.9941
-82.3904
-81.7914
-81.1796
-87.4741
-86.7125
-86.2529
-85.6458
-85.0438
-84.4393
-83.8345
-83.2305
-82.6288
-82.0331
-81.4508
-80.8841
-87.0686
-86.3169
-85.8605
-85.2572
-84.6588
-84.0583
-83.4576
-82.8575
-82.2596
-81.6661
-81.0789
-80.478
-86.6724
-85.9208
-85.4669
-84.8675
-84.2731
-83.6768
-83.0806
-82.4857
-81.8937
-81.3082
-80.7373
-80.1833
-86.2629
-85.5223
-85.072
-84.4764
-83.886
-83.2938
-82.7018
-82.1108
-81.5223
-80.9381
-80.3589
-79.7673
-85.8631
-85.1242
-84.6763
-84.0844
-83.4979
-82.9098
-82.3224
-81.7367
-81.1545
-80.5793
-80.0169
-79.4667
-85.4586
-84.7248
-84.2793
-83.6908
-83.1081
-82.524
-81.9407
-81.3592
-80.7811
-80.2094
-79.6462
-79.0707
-85.0525
-84.3227
-83.88
-83.2953
-82.7163
-82.1362
-81.5572
-80.9804
-80.4078
-79.8432
-79.295
-78.7649
-84.6384
-83.9183
-83.4784
-82.8975
-82.3223
-81.7458
-81.1704
-80.597
-80.027
-79.4633
-78.9085
-78.3456
-84.2322
-83.5134
-83.0755
-82.4981
-81.9264
-81.3536
-80.7819
-80.2125
-79.6471
-79.0892
-78.5473
-78.0253
-83.8171
-83.106
-82.671
-82.097
-81.5287
-80.9593
-80.3909
-79.8243
-79.2607
-78.7019
-78.149
-77.5854
-83.4077
-82.6975
-82.2649
-81.6943
-81.1295
-80.5639
-79.9996
-79.4376
-78.8793
-78.3279
-77.7903
-77.2688
-82.9905
-82.2861
-81.8562
-81.2894
-80.7285
-80.1669
-79.6067
-79.0486
-78.4939
-77.9449
-77.4028
-76.8487
-82.5672
-81.8715
-81.4449
-80.8823
-80.3256
-79.7684
-79.213
-78.6603
-78.1119
-77.571
-77.045
-76.5364
-82.147
-81.4558
-81.0316
-80.473
-79.9205
-79.3677
-78.8169
-78.2687
-77.7243
-77.1854
-76.6526
-76.1073
-81.7254
-81.038
-80.6164
-80.0615
-79.5132
-78.965
-78.4193
-77.8771
-77.3401
-76.8113
-76.2967
-75.7971
-81.297
-80.617
-80.1979
-79.647
-79.1028
-78.5591
-78.0182
-77.4811
-76.9494
-76.4254
-75.9108
-75.3907
-80.8702
-80.1931
-79.7761
-79.229
-78.6888
-78.1494
-77.6133
-77.0816
-76.5561
-76.0402
-75.5418
-75.0614
-80.4368
-79.7642
-79.3502
-78.807
-78.2707
-77.7354
-77.2034
-76.6759
-76.1543
-75.6403
-75.1373
-74.6492
-79.9945
-79.3313
-78.9202
-78.3809
-77.8485
-77.3171
-76.789
-76.265
-75.7465
-75.2329
-74.719
-74.1932
-79.5561
-78.8956
-78.4867
-77.9512
-77.4226
-76.8953
-76.3716
-75.8523
-75.3393
-74.8328
-74.3258
-73.7812
-79.1142
-78.4566
-78.0493
-77.5174
-76.9928
-76.47
-75.9513
-75.4375
-74.9308
-74.4354
-73.9573
-73.4714
-78.6595
-78.0105
-77.6065
-77.0787
-76.5582
-76.0399
-75.526
-75.0175
-74.5156
-74.0229
-73.5476
-73.1009
-78.2067
-77.5603
-77.1588
-76.635
-76.1186
-75.6046
-75.0951
-74.5909
-74.0929
-73.6026
-73.1202
-72.6268
-77.7447
-77.1045
-76.7058
-76.1861
-75.6739
-75.1645
-74.66
-74.1614
-73.6701
-73.1888
-72.724
-72.2766
-77.2753
-76.6434
-76.2471
-75.7316
-75.2238
-74.7189
-74.2192
-73.7253
-73.2384
-72.76
-72.2913
-71.8231
-76.8065
-76.1765
-75.7829
-75.2715
-74.768
-74.2679
-73.7733
-73.285
-72.8041
-72.3334
-71.8777
-71.4241
-76.3259
-75.7038
-75.3126
-74.8054
-74.3064
-73.8111
-73.3216
-72.839
-72.3641
-71.8992
-71.451
-71.0201
-75.8427
-75.2244
-74.8352
-74.3324
-73.838
-73.3478
-72.8635
-72.3862
-71.9165
-71.4545
-71.0012
-70.5517
-75.3397
-74.7366
-74.3505
-73.8526
-73.3629
-72.8777
-72.3993
-71.9283
-71.4652
-71.0121
-70.5695
-70.1175
-74.8573
-74.2451
-73.8601
-73.3659
-72.8808
-72.401
-71.9288
-71.465
-71.0109
-70.5698
-70.151
-69.7568
-74.3465
-73.7408
-73.3603
-72.8706
-72.3901
-71.9152
-71.4487
-70.9905
-70.5419
-70.1037
-69.6797
-69.2735
-73.8158
-73.2269
-72.8496
-72.3649
-71.8895
-71.42
-70.9589
-70.5063
-70.0634
-69.6304
-69.2084
-68.7891
-73.2923
-72.7068
-72.3309
-71.8508
-71.3801
-70.916
-70.4608
-70.0144
-69.5784
-69.1551
-68.7476
-68.3355
-72.7678
-72.1762
-71.8028
-71.3271
-70.8611
-70.4024
-69.9536
-69.5143
-69.0856
-68.671
-68.2775
-67.9093
-72.2072
-71.6331
-71.2628
-70.7915
-70.3308
-69.8777
-69.4347
-69.0015
-68.5784
-68.1671
-67.7686
-67.3646
-71.6533
-71.0789
-70.7109
-70.2447
-69.7892
-69.3424
-68.9063
-68.481
-68.0676
-67.6689
-67.2939
-66.9569
-71.0692
-70.5092
-70.145
-69.6847
-69.2352
-68.7947
-68.3651
-67.9466
-67.5393
-67.144
-66.7608
-66.3874
-70.4896
-69.9303
-69.5681
-69.1126
-68.6688
-68.2349
-67.8124
-67.4019
-67.0038
-66.6192
-66.2513
-65.8881
-69.8825
-69.3355
-68.977
-68.5269
-68.0888
-67.6617
-67.2476
-66.8464
-66.4593
-66.0891
-65.7424
-65.4192
-69.2805
-68.7293
-68.3716
-67.926
-67.4938
-67.0735
-66.6671
-66.274
-65.8951
-65.5327
-65.1875
-64.8279
-68.6463
-68.1021
-67.7485
-67.3082
-66.8823
-66.4694
-66.0712
-65.6877
-65.32
-64.9704
-64.6481
-64.358
-67.9874
-67.4567
-67.1062
-66.6718
-66.2526
-65.8472
-65.4572
-65.0827
-64.7238
-64.3813
-64.0561
-63.7325
-67.3237
-66.7925
-66.4441
-66.0163
-65.604
-65.2068
-64.8258
-64.4614
-64.113
-63.782
-63.4719
-63.1828
-66.6181
-66.1042
-65.7614
-65.3404
-64.9358
-64.5473
-64.176
-63.8216
-63.4837
-63.1619
-62.8547
-62.5446
-65.9127
-65.3977
-65.0575
-64.6433
-64.2467
-63.8679
-63.5079
-63.1662
-62.8427
-62.5395
-62.2597
-61.9903
-65.175
-64.6668
-64.3298
-63.9225
-63.535
-63.1668
-62.8192
-62.4915
-62.1832
-61.8961
-61.6351
-61.4004
-64.4136
-63.9091
-63.5759
-63.1762
-62.7978
-62.4411
-62.1064
-61.7927
-61.4988
-61.2245
-60.9688
-60.7129
-63.6064
-63.1152
-62.7895
-62.3996
-62.0329
-61.6895
-61.37
-61.0737
-60.7991
-60.5474
-60.3244
-60.1395
-62.7717
-62.2919
-61.9716
-61.5922
-61.2377
-60.9089
-60.6064
-60.3286
-60.074
-59.8439
-59.6412
-59.4402
-61.9077
-61.4356
-61.1198
-60.751
-60.4101
-60.0978
-59.8135
-59.5555
-59.3216
-59.1096
-58.9145
-58.7205
-61.0107
-60.54
-60.2302
-59.8728
-59.5471
-59.2534
-58.9905
-58.7557
-58.5469
-58.3619
-58.1984
-58.0454
-60.0596
-59.5964
-59.2942
-58.951
-58.6441
-58.3728
-58.1356
-57.9293
-57.7516
-57.602
-57.4853
-57.4046
-59.0384
-58.5957
-58.3061
-57.981
-57.6965
-57.4517
-57.2438
-57.0688
-56.922
-56.8003
-56.6988
-56.5962
-57.9878
-57.5422
-57.2613
-56.957
-56.6995
-56.487
-56.3151
-56.178
-56.0703
-55.9881
-55.9277
-55.8672
-56.8406
-56.4137
-56.1498
-55.8723
-55.6492
-55.4768
-55.3495
-55.2596
-55.2013
-55.1711
-55.1715
-55.2001
-55.6096
-55.1995
-54.9579
-54.7161
-54.5371
-54.4153
-54.3417
-54.3069
-54.3019
-54.3207
-54.3571
-54.3875
-54.2916
-53.8934
-53.6785
-53.4822
-53.3605
-53.303
-53.2971
-53.3301
-53.3923
-53.4769
-53.583
-53.7129
-52.8385
-52.4638
-52.2899
-52.1577
-52.1131
-52.139
-52.2174
-52.3316
-52.4693
-52.6199
-52.7745
-52.9099
-51.2341
-50.8836
-50.7717
-50.7328
-50.7951
-50.9315
-51.1168
-51.3313
-51.5612
-51.7964
-52.0316
-52.2643
-49.4156
-49.1101
-49.1012
-49.2031
-49.4164
-49.6982
-50.0167
-50.3493
-50.682
-51.0051
-51.3068
-51.5702
-47.2974
-47.0843
-47.2579
-47.5818
-48.0083
-48.4784
-48.9572
-49.4249
-49.8724
-50.2934
-50.6801
-51.0261
-44.7367
-44.7583
-45.2703
-45.9394
-46.6511
-47.348
-48.0061
-48.6143
-49.177
-49.6964
-50.169
-50.5979
-41.6073
-42.3704
-43.5039
-44.6431
-45.6497
-46.5365
-47.3458
-48.0674
-48.7045
-49.2848
-49.796
-50.2432
-14.8545
-22.4851
-25.8256
-28.6611
-31.0649
-32.9451
-34.4547
-35.8336
-37.0619
-38.0491
-38.8449
-39.6092
-22.1648
-25.3362
-26.9426
-29.1298
-31.119
-32.7758
-34.2276
-35.543
-36.7074
-37.6918
-38.5224
-39.2201
-28.4557
-29.5076
-29.9876
-31.2524
-32.5247
-33.7455
-34.9017
-35.98
-36.9556
-37.8209
-38.5776
-39.2179
-31.8341
-32.3928