/*--------------------------------*- C++ -*----------------------------------*\
| =========                 |                                                 |
| \\      /  F ield         | OpenFOAM: The Open Source CFD Toolbox           |
|  \\    /   O peration     | Version:  2.3.1                                 |
|   \\  /    A nd           | Web:      www.OpenFOAM.org                      |
|    \\/     M anipulation  |                                                 |
\*---------------------------------------------------------------------------*/
FoamFile
{
    version     2.0;
    format      ascii;
    class       volScalarField;
    location    "0.28";
    object      epsilon;
}
// * * * * * * * * * * * * * * * * * * * * * * * * * * * * * * * * * * * * * //

dimensions      [0 2 -3 0 0 0 0];

internalField   nonuniform List<scalar> 
9648
(
2413.68
2416.25
2412.64
2404.88
2392.11
2374.17
2351.41
2323.39
2290.1
2251.69
2208.5
2160.77
2109.45
2055.54
1999.87
1943.36
1887.06
1831.93
1778.58
1727.5
1679.18
1633.89
1591.76
1552.91
1517.36
1484.98
1455.64
1429.24
1405.64
1384.65
1366.14
1349.99
1336.07
1324.25
1314.46
1306.56
1300.45
1296.08
1293.41
1292.38
1292.88
1294.88
1298.38
1303.26
1309.58
1317.36
1326.6
1337.28
1349.53
1363.49
1379.14
1396.49
1415.74
1436.86
1459.77
1484.21
1509.87
1536.28
1562.67
1588.5
1613.42
592.905
585.548
576.398
567.419
560.404
556.954
556.301
557.368
560.489
565.377
571.772
579.007
586.676
594.425
601.948
608.908
615.162
620.703
625.548
629.66
633.159
636.126
638.625
640.783
642.73
644.526
646.216
647.87
649.56
651.334
653.21
655.25
657.499
659.951
662.642
665.621
668.875
672.426
676.283
680.457
684.948
689.707
694.735
700.046
705.621
711.519
717.748
724.272
731.063
738.087
745.326
752.728
760.239
767.886
775.522
783.12
790.523
797.844
804.946
811.761
818.254
235.753
239.163
244.76
252.43
262.015
273.38
286.549
301.132
317.072
333.909
351.423
369.166
386.808
404.03
420.567
436.207
450.804
464.293
476.637
487.841
497.949
507.012
515.12
522.37
528.862
534.683
539.911
544.631
548.913
552.822
556.424
559.778
562.929
565.923
568.8
571.588
574.339
577.054
579.758
582.478
585.197
587.949
590.706
593.466
596.25
599.038
601.845
604.648
607.44
610.202
612.93
615.61
618.2
620.753
623.153
625.501
627.7
629.892
631.914
633.811
635.577
135.343
145.519
157.381
170.92
186.057
202.724
220.797
240.028
260.144
280.762
301.553
322.141
342.22
361.508
379.787
396.877
412.672
427.116
440.194
451.931
462.369
471.573
479.635
486.655
492.745
498.007
502.536
506.428
509.752
512.591
515.013
517.083
518.876
520.433
521.807
523.051
524.157
525.169
526.085
526.926
527.772
528.597
529.433
530.273
531.091
531.917
532.729
533.528
534.321
535.1
535.85
536.595
537.306
537.994
538.607
539.208
539.793
540.353
540.869
541.348
541.829
101.803
115.021
129.968
146.578
164.759
184.382
205.224
226.993
249.344
271.871
294.206
315.98
336.902
356.722
375.258
392.35
407.929
421.969
434.478
445.512
455.127
463.394
470.421
476.312
481.2
485.202
488.428
490.973
492.918
494.344
495.329
495.953
496.274
496.363
496.269
496.012
495.661
495.172
494.582
493.951
493.245
492.556
491.875
491.204
490.589
489.99
489.419
488.849
488.269
487.703
487.137
486.577
486.03
485.483
484.932
484.377
483.844
483.308
482.756
482.197
481.638
89.5124
104.749
121.871
140.748
161.181
182.971
205.812
229.345
253.171
276.842
299.98
322.203
343.261
362.919
381.068
397.533
412.278
425.332
436.71
446.522
454.842
461.726
467.324
471.723
475.092
477.57
479.258
480.288
480.706
480.622
480.127
479.267
478.154
476.82
475.289
473.66
471.919
470.13
468.3
466.391
464.505
462.565
460.642
458.805
457.004
455.327
453.704
452.122
450.571
449.03
447.526
446.045
444.591
443.161
441.743
440.368
439.026
437.694
436.356
435.022
433.678
86.0377
102.992
121.966
142.748
165.009
188.505
212.843
237.616
262.411
286.683
310.115
332.256
352.953
371.967
389.335
404.775
418.308
430.043
439.958
448.267
455.059
460.331
464.333
467.069
468.793
469.654
469.744
469.233
468.125
466.539
464.597
462.331
459.851
457.203
454.382
451.418
448.493
445.489
442.506
439.634
436.686
433.78
430.882
428.007
425.292
422.678
420.188
417.791
415.441
413.14
410.879
408.659
406.494
404.335
402.208
400.135
398.113
396.14
394.16
392.156
390.173
86.7352
105.251
125.887
148.324
172.078
196.871
222.297
247.914
273.288
297.748
321.094
342.702
362.642
380.592
396.934
411.088
423.155
433.396
441.601
448.208
453.349
456.836
459.202
460.151
460.149
459.355
457.806
455.809
453.174
450.11
446.807
443.143
439.396
435.545
431.486
427.399
423.296
419.113
415.104
411.156
407.328
403.515
399.75
396.107
392.494
389.078
385.776
382.63
379.574
376.584
373.658
370.793
367.982
365.159
362.386
359.711
357.062
354.525
351.945
349.324
346.794
89.3382
109.072
131.167
154.821
179.879
205.554
231.614
257.919
283.414
307.906
330.814
351.778
370.579
387.172
402.286
415.066
425.599
434.209
440.916
445.841
449.109
450.769
451.257
450.595
448.936
446.344
443.284
439.858
435.625
431.149
426.402
421.505
416.731
411.667
406.335
401.296
396.046
390.685
385.569
380.483
375.525
370.555
366.245
361.797
357.322
353.253
349.001
345.203
341.267
337.584
333.774
330.308
326.926
323.384
319.947
316.819
313.435
310.611
307.383
304.035
301.061
1637.57
1660.85
1682.99
1703.99
1724.05
1743.64
1762.89
1782.11
1800.67
1818.24
1834.53
1850.08
1865.15
1880.17
1895.33
1911.31
1928.73
1948.09
1969.76
1994.19
2021.03
2049.72
2079.86
2111.03
2142.92
2175.5
2208.85
2242.68
2276.99
2311.78
2347.23
2383.22
2419.76
2457.02
2494.98
2533.57
2572.89
2613.07
2654.17
2696.06
2738.75
2782.5
2827.27
2872.92
2919.76
2967.67
3016.52
3066.36
3117.39
3169.67
3223.11
3277.6
3333.69
3390.97
3449.82
3510.02
3572.32
3636.71
3703.2
3771.68
3842.28
824.41
830.655
836.71
842.505
848.068
853.525
859.03
864.439
869.877
875.072
880.232
885.299
890.391
895.508
900.653
905.878
911.202
916.669
922.265
927.962
933.716
939.465
945.189
950.865
956.479
962.004
967.368
972.556
977.561
982.408
987.112
991.648
996.036
1000.3
1004.43
1008.42
1012.32
1016.09
1019.75
1023.3
1026.76
1030.13
1033.41
1036.58
1039.67
1042.67
1045.56
1048.34
1051.03
1053.63
1056.12
1058.51
1060.79
1063.13
1065.28
1067.52
1069.72
1072.14
1074.44
1076.81
1079.3
637.315
638.986
640.699
642.379
644.032
645.584
647.201
648.731
650.222
651.576
652.887
654.15
655.438
656.697
657.924
659.116
660.266
661.372
662.422
663.404
664.302
665.118
665.839
666.46
666.979
667.392
667.692
667.876
667.937
667.881
667.697
667.392
666.967
666.419
665.763
664.995
664.118
663.128
662.029
660.816
659.495
658.072
656.552
654.922
653.191
651.35
649.385
647.289
645.069
642.727
640.237
637.645
634.914
632.075
629.043
625.929
622.728
619.452
616.091
612.68
609.283
542.283
542.734
543.152
543.559
543.935
544.28
544.583
544.884
545.094
545.209
545.269
545.287
545.24
545.112
544.933
544.689
544.381
544
543.54
542.991
542.357
541.635
540.83
539.935
538.947
537.859
536.674
535.389
534.004
532.519
530.934
529.242
527.444
525.547
523.56
521.48
519.308
517.044
514.68
512.223
509.676
507.054
504.357
501.596
498.768
495.871
492.886
489.811
486.64
483.392
480.037
476.585
473.05
469.415
465.654
461.773
457.821
453.783
449.687
445.573
441.468
481.082
480.498
479.888
479.248
478.578
477.848
477.071
476.293
475.505
474.663
473.787
472.869
471.89
470.854
469.759
468.6
467.408
466.143
464.808
463.396
461.913
460.366
458.759
457.095
455.367
453.57
451.699
449.755
447.743
445.664
443.512
441.277
438.959
436.563
434.101
431.573
428.975
426.301
423.545
420.71
417.809
414.848
411.844
408.811
405.755
402.676
399.54
396.373
393.137
389.856
386.508
383.082
379.6
376.046
372.398
368.649
364.818
360.9
356.958
353.002
349.05
432.346
431.003
429.652
428.255
426.834
425.377
423.876
422.368
420.821
419.249
417.635
415.999
414.324
412.599
410.83
409.027
407.197
405.305
403.345
401.321
399.239
397.113
394.955
392.774
390.553
388.284
385.966
383.6
381.203
378.775
376.313
373.79
371.21
368.567
365.886
363.165
360.387
357.556
354.65
351.673
348.637
345.551
342.44
339.33
336.239
333.179
330.091
327.014
323.906
320.812
317.679
314.485
311.269
307.988
304.659
301.205
297.687
294.093
290.51
286.887
283.288
388.207
386.249
384.284
382.305
380.288
378.225
376.131
374.043
371.918
369.745
367.559
365.367
363.142
360.892
358.596
356.286
353.976
351.618
349.192
346.694
344.139
341.564
338.977
336.405
333.823
331.202
328.552
325.863
323.183
320.519
317.89
315.224
312.543
309.811
307.083
304.333
301.524
298.679
295.771
292.796
289.758
286.652
283.527
280.416
277.344
274.376
271.387
268.479
265.563
262.752
259.947
257.061
254.187
251.258
248.323
245.212
242.088
238.855
235.714
232.506
229.348
344.264
341.791
339.308
336.865
334.394
331.936
329.402
326.946
324.461
321.864
319.272
316.722
314.129
311.511
308.813
306.146
303.554
300.923
298.227
295.385
292.464
289.566
286.65
283.777
280.964
278.114
275.236
272.262
269.314
266.447
263.754
261.044
258.411
255.748
253.165
250.598
247.897
245.13
242.354
239.565
236.67
233.648
230.602
227.555
224.528
221.719
218.829
216.119
213.398
210.956
208.58
206.055
203.583
201.05
198.576
195.815
193.121
190.258
187.634
184.892
182.251
297.851
294.882
291.75
288.962
286.013
283.49
280.627
278.178
275.698
272.993
270.281
267.821
265.122
262.444
259.475
256.482
253.838
251.291
248.753
245.95
242.73
239.731
236.649
233.535
230.6
227.717
224.938
221.824
218.494
215.356
212.62
209.879
207.367
204.907
202.801
200.764
198.401
195.751
193.191
190.827
188.394
185.582
182.693
179.857
176.926
174.377
171.495
168.99
166.356
164.411
162.575
160.41
158.437
156.378
154.477
152.021
149.791
147.231
145.177
142.94
140.927
3916.08
3992.58
4071.14
4151.77
4234.89
4321.4
4410.71
4502.74
4597.14
4694.16
4794.52
4896.39
5001.03
5111.92
5260.54
5382.79
5509.56
5639.03
5771.01
5905.51
6042.82
6182.95
6325.5
6470.68
6618.22
6767.41
6917.96
7069.61
7222.15
7374.71
7527.18
7678.95
7829.13
7977.11
8122.37
8263.47
8399.28
8527.71
8639.58
8721.67
8777.02
8806.95
8811.26
8788.11
8735.89
8652.07
8532.6
8372.78
8168.28
7914.43
7604.97
7233.03
6793.4
6278.82
5648.27
4711.91
4300.88
4097.44
4018.7
3980.67
3897.91
1082.06
1084.92
1088.01
1091.17
1094.43
1097.94
1101.98
1106.44
1111.36
1116.54
1122.15
1124.67
1126.21
1129.58
1133.52
1139.22
1144.68
1150.05
1155.58
1161.36
1167.41
1173.74
1180.32
1187.17
1194.27
1201.59
1209.18
1217.06
1225.27
1233.87
1242.91
1252.44
1262.59
1273.49
1285.24
1298.08
1312.19
1327.93
1347.59
1377.76
1414.13
1453.03
1495.18
1540.7
1590.24
1644.15
1702.48
1765.51
1833.48
1905.96
1982
2059.99
2138.37
2215.91
2284.97
2350.26
2410.22
2497.7
2603.13
2709.73
2657.58
605.871
602.472
599.048
595.61
592.122
588.664
585.317
582.122
578.968
575.796
571.754
565.761
560.123
555.23
550.878
547.246
543.576
539.753
535.86
531.956
528.079
524.223
520.383
516.559
512.749
508.949
505.171
501.42
497.715
494.054
490.46
486.954
483.549
480.291
477.206
474.345
471.754
469.507
467.787
467.048
467.54
472.537
481.192
493.164
508.926
529.143
554.54
586.148
624.968
672.078
728.487
794.983
872.771
962.159
1062.88
1171.55
1279.57
1397.96
1543.45
1731.68
1917.53
437.373
433.298
429.231
425.154
421.034
416.917
412.849
408.872
404.846
400.722
395.444
389.361
383.793
378.706
374.042
369.759
365.534
361.284
357.012
352.755
348.517
344.281
340.056
335.845
331.645
327.468
323.314
319.186
315.084
311.014
306.976
302.977
299.029
295.142
291.328
287.605
283.994
280.512
277.19
274.088
271.293
269.13
268.362
269.253
271.747
276.192
283.057
293.005
306.887
325.736
350.971
383.922
426.247
479.049
542.934
615.868
693.758
778.21
877.743
1006.18
1165.91
345.123
341.267
337.44
333.596
329.688
325.781
321.889
318.071
314.198
310.204
305.208
299.906
295.062
290.597
286.405
282.461
278.589
274.779
271.005
267.283
263.595
259.892
256.206
252.544
248.896
245.276
241.683
238.12
234.577
231.058
227.562
224.097
220.667
217.282
213.951
210.685
207.495
204.392
201.385
198.494
195.744
193.203
191.012
189.554
188.864
189.008
190.211
192.779
197.15
203.871
213.745
227.787
247.203
273.252
306.931
348.332
396.045
449.622
511.404
587.048
682.725
279.692
276.225
272.796
269.371
265.809
262.253
258.685
255.228
251.724
248.15
243.742
239.28
235.19
231.436
227.835
224.403
221.015
217.753
214.564
211.463
208.404
205.304
202.238
199.213
196.199
193.225
190.27
187.348
184.431
181.532
178.643
175.782
172.949
170.159
167.415
164.73
162.11
159.563
157.092
154.71
152.429
150.272
148.28
146.546
145.314
144.478
144.16
144.486
145.664
147.976
151.796
157.653
166.228
178.293
194.724
216.076
242.466
273.957
311.183
355.823
410.984
226.108
223.071
220.083
217.151
213.963
210.806
207.584
204.558
201.504
198.477
194.697
191.018
187.615
184.568
181.548
178.67
175.768
173.071
170.451
167.94
165.479
162.919
160.437
158.042
155.639
153.289
150.933
148.621
146.283
143.958
141.623
139.328
137.057
134.839
132.659
130.541
128.477
126.484
124.557
122.711
120.95
119.295
117.757
116.37
115.214
114.398
113.856
113.654
113.895
114.715
116.303
118.915
122.874
128.616
136.613
147.362
161.273
178.67
200.016
226.099
258.201
179.355
176.745
174.225
171.862
169.067
166.347
163.465
160.93
158.375
155.97
152.777
149.794
146.979
144.606
142.104
139.787
137.329
135.186
133.094
131.101
129.17
127.049
125.088
123.323
121.486
119.697
117.85
116.091
114.237
112.405
110.525
108.735
106.96
105.274
103.602
102.005
100.433
98.9383
97.5005
96.1572
94.8863
93.7243
92.6729
91.7278
90.9237
90.3706
89.9991
89.8213
89.9024
90.3147
91.1577
92.5546
94.6769
97.7229
101.944
107.627
115.07
124.61
136.613
151.582
170.177
138.345
136.097
134.063
132.352
129.948
127.691
125.103
123.141
121.122
119.371
116.698
114.301
111.927
110.204
108.101
106.361
104.256
102.679
101.048
99.4247
97.9422
96.1111
94.6186
93.5797
92.213
90.8301
89.3375
88.089
86.5591
85.1014
83.5065
82.1962
80.8295
79.6418
78.375
77.2264
75.989
74.886
73.8507
72.9443
72.1139
71.3838
70.7747
70.2514
69.7652
69.3915
69.2048
69.1293
69.2744
69.5658
70.2431
71.2239
72.715
74.6799
77.3332
80.7101
85.103
90.6064
97.615
106.394
117.296
3754.24
3597.05
3429.03
3253.31
3078.84
2910.68
2751.87
2606.45
2477.74
2367.54
2276.08
2202.29
2144.64
2101.09
2069.13
2046.42
2030.97
2021.33
2016.16
2014.35
2015.25
2018.34
2023.16
2029.63
2037.66
2047.05
2057.7
2069.61
2082.81
2097.17
2112.63
2129.12
2146.5
2164.51
2183.01
2201.68
2220.19
2238.23
2255.55
2271.81
2286.56
2299.55
2310.63
2319.61
2326.6
2331.91
2335.7
2338.24
2340.16
2342.25
2344.89
2348.28
2352.98
2359.13
2366.42
2374.54
2383.16
2392.19
2400.56
2407.27
2411.7
2462.58
2256.17
2054.68
1862.98
1695.49
1541.77
1400.59
1272.61
1157.74
1056.61
969.145
894.632
831.942
779.57
737.23
704.051
678.238
657.976
641.894
629.037
618.732
610.448
603.862
598.764
594.967
592.334
590.77
590.262
590.771
592.287
594.818
598.342
602.853
608.314
614.662
621.798
629.613
637.997
646.778
655.742
664.607
673.011
680.503
686.598
690.846
692.811
692.129
688.653
682.53
674.199
664.323
653.755
643.452
634.22
626.421
620.375
615.763
612.206
608.71
604.555
599.286
2000.28
1982.58
1876
1698.65
1517.88
1343.78
1175.57
1024.22
889.649
771.021
669.057
583.021
511.622
453.509
407.74
372.454
344.903
322.893
305.242
291.173
279.925
270.881
263.567
257.627
252.786
248.838
245.651
243.143
241.256
239.95
239.195
238.984
239.293
240.084
241.326
242.979
244.998
247.328
249.91
252.659
255.476
258.245
260.833
263.064
264.762
265.716
265.719
264.593
262.244
258.653
253.96
248.526
242.838
237.489
232.951
229.755
228.089
227.944
229.029
231.024
233.339
1331.3
1476.86
1571.07
1583.98
1511.73
1384.39
1215.33
1046.26
890.926
748.352
624.826
521.668
436.781
368.864
315.587
274.071
241.649
215.855
195.407
179.32
166.717
156.878
149.193
143.139
138.31
134.409
131.243
128.674
126.61
124.98
123.742
122.87
122.331
122.084
122.087
122.298
122.677
123.181
123.761
124.366
124.935
125.412
125.733
125.832
125.648
125.124
124.215
122.892
121.161
119.041
116.601
113.985
111.411
109.15
107.509
106.929
107.764
110.125
114.045
119.54
126.635
799.509
934.776
1077.27
1203.09
1282.67
1298.92
1247.38
1141.12
1004.8
851.294
706.205
581.893
475.33
388.594
319.876
265.497
222.832
189.33
162.99
142.468
126.631
114.554
105.401
98.4239
93.0337
88.7995
85.4404
82.7618
80.6281
78.9311
77.6078
76.6209
75.9291
75.4838
75.239
75.152
75.1815
75.2861
75.4247
75.5523
75.6212
75.5867
75.4057
75.0376
74.4475
73.6106
72.5205
71.1852
69.6217
67.8746
66.016
64.1623
62.4963
61.2488
60.6845
61.1612
63.1518
66.9812
72.8316
80.6397
90.3181
479.698
565.037
667.873
784.108
901.522
1002.39
1066.65
1079.08
1037.67
950.466
834.54
708.971
582.832
473.23
383.745
309.973
251.588
205.346
168.458
139.834
118.069
101.85
89.8948
81.0367
74.3681
69.2559
65.2964
62.2145
59.8132
57.9308
56.4732
55.3863
54.6162
54.1032
53.7948
53.6448
53.6094
53.6492
53.7245
53.7939
53.8146
53.7501
53.5625
53.2208
52.6939
51.966
51.0342
49.9123
48.6148
47.1798
45.6678
44.1798
42.8715
41.9633
41.7663
42.673
45.1269
49.5452
56.2001
65.1328
76.2706
298.048
347.872
409.98
485.823
574.443
671.143
765.969
844.79
893.229
900.774
865.322
794.297
699.875
596.123
494.727
399.288
320.746
256.644
203.292
161.536
129.773
106.49
89.7486
77.6201
68.6851
61.9641
56.8628
52.9792
50.0244
47.7448
45.9983
44.7011
43.7817
43.1614
42.7759
42.5706
42.4975
42.5154
42.5845
42.6645
42.7142
42.7034
42.5951
42.3633
41.9742
41.4194
40.6932
39.8121
38.7817
37.6397
36.4346
35.2569
34.2442
33.594
33.6122
34.6978
37.3301
42.0284
49.2003
58.9847
71.3172
193.36
222.345
258.689
304.002
359.6
425.713
500.618
579.335
653.918
713.573
747.761
750.116
720.862
664.512
589.933
505.38
420.774
341.272
266.931
207.206
160.066
125.77
101.634
84.3935
71.8082
62.4218
55.3818
50.1375
46.249
43.29
41.0461
39.3798
38.1963
37.3833
36.8585
36.552
36.4075
36.3785
36.4237
36.5014
36.5695
36.6048
36.5695
36.4409
36.1788
35.7822
35.2391
34.5709
33.7742
32.8863
31.948
31.0435
30.2958
29.8842
30.0978
31.3343
34.1154
39.0444
46.667
57.226
70.6597
130.995
148.008
169.282
196.078
229.451
270.438
319.43
375.933
437.481
500.025
555.661
598.292
621.539
622.632
599.962
555.729
495.836
424.573
351.278
277.395
209.54
160.532
126.279
101.687
83.4005
69.7746
59.5909
52.157
46.7642
42.7004
39.6608
37.3919
35.7806
34.6543
33.9022
33.4249
33.1547
33.0319
33.0164
33.0552
33.1116
33.1652
33.1794
33.1282
32.9699
32.7029
32.3185
31.8303
31.237
30.5661
29.8637
29.2051
28.7114
28.5452
28.975
30.4058
33.3676
38.5345
46.5366
57.7589
72.0647
1.31691
208.35
186.086
2.421
1.88164
0.197782
0.000725626
96.2653
0.000790646
0.0145337
97.042
6.86292
0.000725882
250.905
0.161579
134.873
0.000755761
97.4062
121.192
0.000729314
2.42193
240.383
196.927
0.000769489
0.000776175
0.210459
0.000728763
8.24305
0.000751621
0.000818484
5.46869
0.00082521
0.00872812
72.3086
3.89843
115.489
76.0052
15.6182
0.000725599
43.485
65.7955
26.841
0.000742146
102.327
184.672
0.704921
0.000880283
0.00833712
1.82014
7.0796
373.458
354.505
0.000715215
0.00104101
0.0678914
0.239537
0.000815241
9.32416
62.8616
281.015
146.107
0.000895382
1.69184
0.0247031
198.535
1.08677
42.5221
68.1122
0.00113718
0.000747366
9.09271
40.6284
56.5845
0.0185144
0.0533056
87.021
225.779
55.0676
0.000711402
5.35952
0.00231067
45.8531
0.0155391
109.744
0.000749677
8.5258
0.000785714
41.067
0.011714
0.00135653
0.223118
0.000709871
0.000927926
304.996
141.864
0.000862907
1.55752
1.50243
0.00183974
206.509
0.392142
29.0096
5.90421
0.000708668
0.000727567
0.000713559
1.41939
0.208702
0.000749996
173.211
222.085
0.00501975
247.563
29.8152
122.143
60.3072
31.3511
0.000981622
0.108478
0.0010972
0.00121572
201.568
0.00265671
287.287
413.251
30.2027
0.000744811
6.97061
6.82657
0.000742837
0.0299465
0.0265735
95.0614
0.00177536
70.4977
0.000747324
0.000725784
394.365
348.305
0.000746287
0.591518
148.282
0.232154
0.899802
29.3161
117.43
0.462617
30.3376
0.0051573
274.467
11.6088
0.215459
48.8066
107.328
187.579
0.000765978
0.000754817
0.504012
0.000817707
45.5285
0.138878
0.00144156
0.000744337
0.00074587
0.000758495
40.022
75.3509
34.7401
0.000788771
287.162
314.334
410.027
166.611
0.00697118
171.776
50.4206
31.116
0.000747234
0.00165764
199.771
70.764
27.5698
70.8541
0.000743025
0.000839873
251.106
0.0292831
2.45063
0.000756766
0.000879407
0.171106
0.000801016
329.332
3.8871
0.000817798
0.665095
94.9774
137.921
0.00120067
57.784
0.00074433
0.000747811
108.792
32.3646
300.321
0.00121765
0.00079551
0.00291264
41.1604
82.1778
9.77624
119.533
13.0314
231.554
0.840382
85.8263
81.6832
25.161
10.519
43.7428
0.00139596
0.0288047
0.000745392
0.000815948
31.4047
0.00988408
0.011525
0.00178361
0.00632845
46.8219
208.158
0.0111043
166.916
7.33618
2.08325
0.000732513
0.470277
38.0111
7.09978
0.00106835
10.9237
38.0549
0.895589
3.02866
270.918
7.57438
5.17436
122.171
0.000955018
0.000728555
0.00101322
0.00429409
31.6926
0.00078448
0.00220279
0.000725476
1.74124
74.5739
82.2783
52.0158
12.7082
11.2072
323.638
0.00114487
52.4068
98.8002
0.000742759
91.9638
0.000749328
330.677
1.74068
59.1529
0.00151479
0.000746983
19.9777
8.03832
0.000759573
0.000747705
0.000752488
0.000751276
1.16658
36.1302
44.1365
0.0114808
0.0007604
0.000725769
0.00070866
103.998
0.964489
0.00117184
18.4912
0.114995
0.103666
0.000711506
0.778419
0.000760143
0.0847347
48.3869
283.796
4.27926
0.000992599
0.00183954
55.791
0.330124
134.302
321.542
0.000832833
0.000739374
0.000733901
156.006
0.000769376
133.927
0.00074864
23.443
13.7381
0.0247359
151.788
241.053
0.0012529
52.8399
48.647
91.4031
93.5782
6.90853
345.901
41.9788
70.1571
144.406
94.4374
56.7921
0.331058
335.449
279.511
65.3364
37.1818
0.00103831
268.17
136.959
229.763
0.0185059
0.000858455
0.000744446
0.000805348
0.713155
1.53301
5.39974
0.122546
0.000728744
169.471
0.000745184
29.9036
23.0832
191.844
38.6674
18.4042
0.00188742
0.00109949
0.498126
95.5375
0.00431082
8.15348
270.025
39.3255
83.3503
189.29
58.7229
0.000819259
282.552
140.834
98.3858
0.000748131
191.137
150.973
0.000776533
33.7929
0.000749091
399.07
173.907
30.9638
80.9637
124.615
148.379
0.000766953
147.734
0.000952385
72.7206
80.582
31.1196
278.852
3.54619
0.486636
2.54425
0.00109572
444.886
1.66769
0.00285081
0.00211489
267.135
0.000941187
91.9427
0.000741769
0.000747942
0.00183519
31.7739
0.184914
21.345
0.0017803
83.0483
0.300964
215.138
283.919
37.8296
345.428
0.000799199
278.869
41.8303
0.00074005
77.9808
25.2437
0.000713745
0.000728771
119.193
0.00206151
24.2714
0.495529
85.8897
0.0172635
3.3297
39.0508
117.541
32.4241
78.8146
68.6267
0.00104164
0.0368248
32.0081
19.8633
330.227
346.157
137.108
0.0822787
122.812
121.725
3.40648
95.3217
45.1604
25.5528
0.000844583
83.6287
381.383
0.00106209
92.0357
18.8075
45.7807
0.0149628
0.0866171
273.279
0.0018905
326.225
0.00123752
1.89561
0.000738166
7.70862
173.149
0.548966
0.001313
0.000911297
84.6951
29.5159
0.110635
5.8179
302.222
547.713
0.00154211
11.4366
29.9804
80.107
28.8417
453.907
31.6365
157.197
51.3307
4.39593
6.49198
301.704
54.7028
352.61
171.146
0.355064
186.005
67.1076
0.00079695
96.5479
32.7788
13.9184
0.00991717
100.202
45.7161
4.01965
53.6518
0.00158534
0.000746222
0.0498999
25.3232
102.656
77.0871
0.000749378
0.000733241
0.00074155
31.0814
0.0290016
0.000744141
0.237995
93.9403
283.59
0.00436139
0.00448327
0.000726201
0.000738597
0.00190064
29.7385
102.739
19.5291
1.87295
294.156
390.349
0.00150775
58.3522
30.7908
31.2942
75.2289
436.76
0.000823568
0.00440927
0.000747952
402.483
0.749913
0.000727769
10.2977
0.345009
300.916
0.000759237
320.94
8.51404
0.0593502
201.037
0.000745323
0.00073392
0.00103706
402.18
52.495
129.468
328.667
8.90575
31.7789
0.000714732
0.00182914
0.499332
0.00767712
0.0160237
180.904
44.5313
0.000745774
25.8619
49.8989
182.729
404.71
0.00286582
408.183
0.00181828
0.0211804
160.844
0.000736713
145.758
0.000758901
0.00078692
0.0223181
38.2028
2.88436
327.796
62.4202
0.000890778
31.4029
503.267
0.0589995
2.33979
7.99742
0.000770534
0.000756169
0.00228383
135.019
5.66127
0.000791136
267.431
285.665
215.113
0.0323298
65.0123
0.00109597
29.5713
0.477229
0.128594
127.319
33.1667
153.63
173.314
0.000762334
0.000716641
0.00471259
76.0191
101.148
5.76081
0.00649535
0.000775749
0.000747068
0.0034011
0.722467
0.00208447
77.8871
23.1829
0.00499769
29.0435
171.132
0.000758836
41.1381
0.000742347
3.07389
0.000762495
0.0129625
34.8888
0.0114276
0.000744296
3.9475
360.503
258.734
0.000733411
0.000750532
1.50975
0.793018
0.000746609
94.7192
0.000898593
35.7032
374.408
29.3302
91.2154
300.151
134.885
335.064
0.000744802
0.00248462
0.0117382
293.392
62.7111
197.508
3.56688
4.58553
100.009
179.579
123.464
2.7635
43.598
0.000749299
1.46173
45.9665
32.6826
311.333
24.8462
0.937912
40.6179
0.20499
0.0124462
46.1466
0.000748001
174.948
0.00089271
2.79496
292.328
191.645
2.92569
0.00246385
7.18079
0.000765309
0.000735745
0.190421
0.0132954
58.7039
0.00844841
31.5903
0.000749739
0.0186167
0.000726629
94.9295
0.00207845
88.0784
306.029
0.013991
170.616
372.5
0.000753616
100.547
235.019
0.000790113
286.827
0.293233
0.000843555
0.000797969
277.65
0.000731835
0.00111607
0.119723
0.21725
432.534
269.363
0.000751295
0.000754045
6.9092
27.3462
0.00701506
2.82141
21.7762
0.000746282
0.000942899
0.000923921
168.197
270.651
3.44856
294.031
0.0169245
29.5185
0.000780468
0.00699826
0.0157707
0.0445602
0.000747508
298.275
0.00074148
0.0156848
0.000771605
0.488348
0.0144863
0.013657
2.31761
5.09781
38.3439
1.99057
9.18424
30.8326
191.468
0.000811899
173.65
323.855
12.735
74.9698
0.000762085
269.34
77.5533
0.00074342
410.388
70.569
0.00312864
0.0168132
161.321
160.474
0.0885957
314.119
409.172
4.34029
431.056
260.425
127.5
55.4757
19.3659
29.9209
262.791
287.519
0.0139935
306.536
39.5418
405.913
0.00081197
1.58068
1.94181
224.916
163.41
0.0115186
448.665
195.283
7.36474
0.0589984
2.82985
31.0904
0.00152277
31.1908
441.691
0.0292728
221.214
13.5589
92.8831
188.844
0.000744337
0.00167109
7.16043
5.31185
0.0138626
0.000747072
0.85775
1.89892
0.00119241
0.000758669
273.889
6.86522
51.43
10.6972
0.0030696
0.00106977
0.168435
89.9908
0.000816972
21.3092
33.5969
1.81333
170.541
0.000992447
0.415316
0.000739655
2.95954
86.4357
0.00126112
0.182099
44.4966
162.25
0.496096
94.7972
5.20092
0.541197
0.000981805
32.5331
328.863
0.000742653
0.000756812
147.23
0.0153464
0.000758199
72.2672
2.54623
166.521
32.459
38.7243
0.303215
16.8851
205.223
159.528
255.01
0.000760077
283.666
0.000979139
34.5945
0.000811276
0.00122866
48.9622
0.00209617
256.274
0.012107
0.0317139
45.865
7.85655
0.829649
0.000887427
183.771
0.000877411
0.000722184
341.667
160.332
40.2536
31.6124
0.000808547
0.000715078
18.7553
147.854
0.000731374
214.594
37.6386
0.000750235
169.039
0.000715605
3.52027
6.32667
10.4806
1.46014
77.8086
21.8774
0.000715399
268.099
326.212
0.000742176
0.0140677
31.8003
0.000717126
238.404
164.223
405.631
0.000743217
0.000728541
211.776
0.104778
0.000835301
31.4587
81.7319
264.727
0.000723711
0.000796373
0.0154207
0.011604
0.000744949
0.00203212
125.297
53.8488
0.000744869
12.823
0.000746047
10.3989
0.00109547
0.000858379
26.7218
0.000751673
0.301633
0.000730829
47.9265
2.69119
19.5494
185.393
362.235
160.034
5.03469
17.2459
0.000758226
5.51377
276.957
533.615
0.15376
0.000819635
128.32
0.000744675
0.135953
0.000723103
441.877
15.638
3.27033
194.388
52.6495
5.16134
79.7266
7.89285
223.677
112.867
0.000769243
0.000763047
0.00304723
0.000778143
0.013899
95.9518
0.000935351
247.056
0.00186093
0.159592
2.94601
161.903
0.00136632
40.9712
0.0143351
53.069
29.9062
438.278
0.000811577
0.000959433
0.57139
84.6547
68.969
64.9928
1.86516
7.65143
18.8931
0.0630598
9.26689
2.982
33.6841
0.000757031
393.405
1.40023
55.3081
0.000786006
52.4187
16.6165
0.00128989
90.6396
16.9672
0.0819929
0.000722074
0.000743862
213.857
47.5603
16.704
0.000736824
0.00940719
55.1674
187.615
4.31011
0.00577489
0.000735519
144.943
129.214
39.0972
35.1789
0.000741297
111.412
434.78
0.000746653
0.000748768
18.6674
0.00105616
0.003763
0.334338
47.8234
0.00105857
39.352
343.14
0.000743158
0.000825018
0.000729953
0.000767034
65.856
518.277
332.375
0.0201542
33.1287
50.998
0.132191
44.0468
0.000843949
35.0173
0.52588
33.4298
5.24173
83.476
112.127
0.821822
0.00075879
159.145
89.6714
289.652
5.57073
33.4367
0.528162
18.353
0.00347464
0.00131607
164.859
142.392
0.0368553
1.65634
0.000751501
0.0977834
19.2159
0.0291461
13.9057
2.22121
392.32
41.273
1.72648
274.236
139.227
59.1887
15.2136
212.53
190.021
3.1473
37.5628
0.00198035
46.7977
44.7535
0.000743048
0.000717948
0.302034
0.000746231
0.000781078
60.198
302.109
0.000743367
86.7535
0.000742786
0.000736265
0.000739636
0.000758317
0.00178583
32.7375
42.7132
249.051
0.000725211
0.000985836
6.50303
0.000847944
0.0282673
0.000762776
0.000879316
177.537
0.000971179
0.00464168
188.966
0.00417622
0.000748483
199.277
0.000744008
0.00075758
3.3331
0.000866535
5.85242
0.00124795
0.0233087
0.000743559
0.000754001
302.553
419.578
42.5885
0.024275
120.952
15.7064
0.00131057
30.4561
309.829
234.497
478.452
0.000753304
24.8496
56.3666
0.255926
31.565
101.383
0.346763
34.9984
2.29253
31.5519
0.441927
7.27479
0.000757498
218.336
0.000793812
31.8148
31.5985
0.000747208
0.906204
0.00240049
0.0138055
0.000729357
3.80652
0.000884111
0.00074348
43.8303
0.244204
0.16058
230.095
154.49
0.00082515
0.000972178
29.8166
259.948
0.000730381
0.000751458
0.209617
24.3136
146.175
0.00208705
15.4466
0.00074371
0.000811564
0.000722316
0.0275417
24.5999
0.00408869
276.087
33.1567
258.292
171.405
0.000836064
297.365
65.7611
0.00073345
0.000753999
0.00075036
0.00116894
0.00073919
134.435
0.000745019
0.000747421
354.617
1.16892
0.00261667
0.017444
66.9083
7.43307
0.0104396
0.000817858
185.002
0.000762689
7.226
0.000756799
0.000837839
162.35
161.265
0.00329601
0.000849449
5.43176
0.00074372
372.235
0.0007545
148.489
0.0222992
8.67132
0.0298844
3.29186
3.05524
30.0806
0.000760737
0.000851528
0.00478323
57.845
0.262197
302.253
0.000745093
0.00125144
0.00163185
256.232
61.825
279.765
0.00224657
0.00352871
0.832775
0.0007504
21.1643
37.3649
0.00863397
276.123
179.672
40.9749
0.00152192
1.40876
177.073
224.021
30.8431
0.0105021
132.803
0.798249
131.656
0.140511
2.22552
40.7929
0.000761951
31.3785
0.00123119
0.00493057
0.00306492
0.0461596
0.000896941
10.6856
0.00074494
47.0357
0.130142
0.000877742
3.05434
0.00075659
0.743774
0.219006
43.4243
3.88894
98.7759
0.771069
0.000747609
0.000730973
2.56681