/*--------------------------------*- C++ -*----------------------------------*\
| =========                 |                                                 |
| \\      /  F ield         | OpenFOAM: The Open Source CFD Toolbox           |
|  \\    /   O peration     | Version:  2.3.1                                 |
|   \\  /    A nd           | Web:      www.OpenFOAM.org                      |
|    \\/     M anipulation  |                                                 |
\*---------------------------------------------------------------------------*/
FoamFile
{
    version     2.0;
    format      ascii;
    class       volScalarField;
    location    "0.28";
    object      p;
}
// * * * * * * * * * * * * * * * * * * * * * * * * * * * * * * * * * * * * * //

dimensions      [0 2 -2 0 0 0 0];

internalField   nonuniform List<scalar> 
9648
(
-0.0237709
-0.302866
-0.638891
-1.04158
-1.52633
-2.10455
-2.78795
-3.58084
-4.49732
-5.55388
-6.76108
-8.13157
-9.67777
-11.4101
-13.3376
-15.4698
-17.8141
-20.3785
-23.1655
-26.1785
-29.4216
-32.8906
-36.5837
-40.4942
-44.6156
-48.9372
-53.4493
-58.1478
-63.0194
-68.0559
-73.2324
-78.5281
-83.9185
-89.3734
-94.8844
-100.433
-106.014
-111.604
-117.182
-122.719
-128.194
-133.594
-138.866
-143.999
-148.997
-153.845
-158.544
-163.076
-167.425
-171.539
-175.397
-178.999
-182.351
-185.426
-188.228
-190.745
-192.963
-194.888
-196.498
-197.805
-198.794
0.536836
0.258344
-0.0719636
-0.470973
-0.944865
-1.50174
-2.15454
-2.91948
-3.80433
-4.8201
-5.97798
-7.28972
-8.76621
-10.4176
-12.2532
-14.2817
-16.5102
-18.9451
-21.5902
-24.449
-27.5234
-30.812
-34.3121
-38.0172
-41.92
-46.0112
-50.2827
-54.7296
-59.3432
-64.113
-69.0178
-74.0357
-79.1397
-84.3029
-89.5106
-94.7549
-100.024
-105.302
-110.57
-115.807
-120.997
-126.108
-131.097
-135.949
-140.66
-145.234
-149.669
-153.935
-158.003
-161.867
-165.504
-168.902
-172.056
-174.956
-177.589
-179.953
-182.029
-183.83
-185.332
-186.537
-187.427
0.362374
0.10877
-0.196792
-0.559657
-0.994738
-1.51574
-2.13039
-2.85115
-3.68864
-4.6561
-5.76387
-7.0237
-8.44606
-10.0406
-11.8165
-13.7818
-15.9438
-18.3081
-20.8788
-23.6591
-26.6505
-29.8522
-33.2608
-36.87
-40.6721
-44.6588
-48.8234
-53.1604
-57.6623
-62.3151
-67.1003
-71.9961
-76.9784
-82.0264
-87.1255
-92.2585
-97.4017
-102.524
-107.616
-112.68
-117.715
-122.705
-127.605
-132.39
-137.046
-141.567
-145.939
-150.128
-154.107
-157.872
-161.416
-164.734
-167.823
-170.657
-173.241
-175.554
-177.607
-179.366
-180.843
-182.033
-182.945
0.593525
0.336876
0.0331754
-0.326691
-0.752542
-1.25554
-1.84664
-2.53734
-3.33927
-4.26482
-5.32571
-6.53319
-7.89756
-9.42825
-11.1349
-13.0247
-15.1049
-17.3811
-19.8569
-22.5354
-25.418
-28.5028
-31.7868
-35.2633
-38.9262
-42.7686
-46.7849
-50.9686
-55.3061
-59.7813
-64.3742
-69.0693
-73.8583
-78.7293
-83.6771
-88.6632
-93.6264
-98.5305
-103.347
-108.122
-112.895
-117.636
-122.339
-126.954
-131.469
-135.885
-140.139
-144.189
-148.004
-151.588
-154.959
-158.12
-161.067
-163.778
-166.242
-168.448
-170.392
-172.061
-173.454
-174.567
-175.401
0.670188
0.44563
0.172897
-0.157089
-0.55232
-1.02275
-1.57862
-2.23068
-2.99118
-3.87111
-4.88302
-6.03674
-7.34278
-8.80948
-10.4473
-12.2624
-14.262
-16.4516
-18.8336
-21.4114
-24.1858
-27.1539
-30.3139
-33.6594
-37.1863
-40.889
-44.7597
-48.7887
-52.962
-57.2596
-61.6671
-66.1716
-70.7596
-75.4405
-80.1981
-84.9946
-89.7957
-94.5229
-99.1944
-103.819
-108.37
-112.853
-117.229
-121.544
-125.864
-130.17
-134.379
-138.356
-142.046
-145.471
-148.674
-151.682
-154.493
-157.088
-159.45
-161.564
-163.42
-165.015
-166.348
-167.413
-168.206
0.770202
0.563841
0.313038
0.0076951
-0.35938
-0.798989
-1.32065
-1.93504
-2.65505
-3.49033
-4.45469
-5.55603
-6.80562
-8.20888
-9.77948
-11.5212
-13.4409
-15.5451
-17.8326
-20.308
-22.9726
-25.8205
-28.856
-32.0698
-35.4607
-39.0201
-42.7337
-46.5966
-50.5897
-54.7114
-58.9472
-63.2713
-67.6682
-72.1032
-76.5759
-81.0855
-85.6299
-90.2634
-94.9234
-99.5753
-104.109
-108.319
-112.284
-116.126
-120.054
-124.186
-128.315
-132.253
-135.864
-139.146
-142.19
-145.034
-147.695
-150.159
-152.405
-154.413
-156.171
-157.68
-158.941
-159.946
-160.69
0.873515
0.6853
0.455217
0.17259
-0.168022
-0.578709
-1.06815
-1.64586
-2.32701
-3.11856
-4.03741
-5.0882
-6.28362
-7.62333
-9.12836
-10.7973
-12.637
-14.6565
-16.8483
-19.2175
-21.7709
-24.4953
-27.4065
-30.4908
-33.7433
-37.157
-40.706
-44.3842
-48.1894
-52.1087
-56.1712
-60.3464
-64.5577
-68.7905
-72.9697
-77.0812
-81.3158
-85.6632
-90.3138
-95.1605
-99.7745
-103.993
-107.571
-110.849
-114.346
-118.089
-122.06
-125.923
-129.454
-132.634
-135.533
-138.223
-140.731
-143.06
-145.185
-147.081
-148.734
-150.145
-151.329
-152.276
-152.969
0.974576
0.80524
0.597839
0.336422
0.0226766
-0.360639
-0.820468
-1.35938
-2.00484
-2.75064
-3.62861
-4.62874
-5.77908
-7.04727
-8.48993
-10.0883
-11.8435
-13.7852
-15.8793
-18.1312
-20.5829
-23.1725
-25.9704
-28.9248
-32.0292
-35.3061
-38.6704
-42.1794
-45.7755
-49.4604
-53.3291
-57.3131
-61.395
-65.5271
-69.5506
-73.382
-77.0983
-81.0129
-85.3103
-90.0359
-94.9764
-99.3468
-102.885
-105.953
-108.947
-112.256
-115.836
-119.428
-122.85
-125.9
-128.704
-131.239
-133.592
-135.801
-137.82
-139.588
-141.136
-142.424
-143.529
-144.431
-145.064
1.07995
0.919244
0.751281
0.494087
0.218762
-0.14903
-0.586086
-1.05735
-1.70035
-2.36485
-3.23984
-4.15704
-5.31926
-6.44742
-7.86964
-9.41656
-11.0434
-12.9523
-14.9266
-17.0269
-19.4625
-21.8359
-24.5863
-27.3835
-30.3116
-33.519
-36.6244
-40.0062
-43.468
-46.8278
-50.5217
-54.2571
-58.1031
-62.2406
-66.3772
-69.9168
-73.4875
-76.7606
-80.1632
-84.5781
-89.4279
-94.1523
-97.9757
-101.19
-104.287
-106.878
-109.782
-112.766
-116.173
-119.067
-121.827
-124.084
-126.311
-128.493
-130.397
-131.978
-133.519
-134.588
-135.688
-136.543
-137.046
-199.444
-199.776
-199.79
-199.476
-198.856
-197.919
-196.667
-195.099
-193.209
-191.024
-188.52
-185.714
-182.644
-179.31
-175.702
-171.837
-167.719
-163.379
-158.807
-154.018
-149.044
-143.872
-138.528
-133.023
-127.385
-121.614
-115.702
-109.686
-103.571
-97.3894
-91.1415
-84.8478
-78.5297
-72.1876
-65.8495
-59.5175
-53.2149
-46.9536
-40.7418
-34.5962
-28.5283
-22.5615
-16.6928
-10.9428
-5.32506
0.157896
5.49043
10.6644
15.6648
20.485
25.1203
29.5598
33.7929
37.8184
41.6257
45.21
48.5665
51.6898
54.5796
57.2318
59.6461
-188.007
-188.269
-188.252
-187.931
-187.313
-186.405
-185.196
-183.689
-181.875
-179.768
-177.365
-174.679
-171.755
-168.58
-165.148
-161.465
-157.544
-153.4
-149.038
-144.47
-139.716
-134.78
-129.675
-124.414
-119.01
-113.48
-107.848
-102.117
-96.296
-90.4026
-84.4493
-78.4513
-72.4237
-66.3784
-60.3316
-54.2925
-48.2774
-42.2997
-36.3711
-30.504
-24.7118
-19.0101
-13.4061
-7.91333
-2.54393
2.69519
7.79283
12.7385
17.5206
22.132
26.566
30.8138
34.8661
38.72
42.3664
45.8008
49.0165
52.0112
54.782
57.3262
59.6427
-183.56
-183.889
-183.886
-183.58
-182.988
-182.12
-180.923
-179.429
-177.614
-175.519
-173.159
-170.533
-167.621
-164.45
-161.035
-157.386
-153.509
-149.418
-145.12
-140.629
-135.957
-131.112
-126.107
-120.952
-115.658
-110.238
-104.71
-99.0862
-93.379
-87.6022
-81.7692
-75.8951
-69.9934
-64.0778
-58.1614
-52.2556
-46.3736
-40.5283
-34.7324
-28.9985
-23.3394
-17.7683
-12.295
-6.93135
-1.68761
3.42775
8.40411
13.2313
17.899
22.4003
26.7268
30.8715
34.8267
38.5879
42.1473
45.4999
48.6405
51.5653
54.272
56.7573
59.0217
-175.95
-176.218
-176.19
-175.869
-175.246
-174.309
-173.117
-171.683
-169.993
-168.026
-165.782
-163.278
-160.508
-157.488
-154.225
-150.728
-147.008
-143.075
-138.94
-134.617
-130.117
-125.452
-120.63
-115.662
-110.561
-105.338
-100.008
-94.5839
-89.0793
-83.5062
-77.8775
-72.2082
-66.5121
-60.803
-55.0918
-49.3906
-43.7111
-38.0653
-32.4667
-26.9272
-21.4594
-16.0759
-10.787
-5.60346
-0.534992
4.4107
9.22235
13.8908
18.405
22.7599
26.946
30.9565
34.7858
38.4277
41.8771
45.1263
48.1726
51.0099
53.637
56.0502
58.2508
-168.725
-168.97
-168.937
-168.628
-168.038
-167.167
-166.029
-164.593
-162.907
-160.971
-158.779
-156.338
-153.65
-150.726
-147.57
-144.191
-140.595
-136.793
-132.797
-128.621
-124.277
-119.774
-115.122
-110.328
-105.406
-100.366
-95.2234
-89.9917
-84.6821
-79.3071
-73.8767
-68.4084
-62.9144
-57.4106
-51.9043
-46.4078
-40.9311
-35.4857
-30.0861
-24.7432
-19.4689
-14.2765
-9.17535
-4.17614
0.711834
5.48401
10.125
14.63
18.9848
23.1874
27.2275
31.0977
34.7944
38.3104
41.6435
44.7835
47.7304
50.4734
53.0159
55.3513
57.4829
-161.17
-161.384
-161.331
-161.01
-160.422
-159.574
-158.461
-157.08
-155.448
-153.571
-151.451
-149.091
-146.493
-143.672
-140.631
-137.374
-133.908
-130.241
-126.387
-122.364
-118.181
-113.85
-109.375
-104.761
-100.024
-95.1731
-90.222
-85.1893
-80.0818
-74.9117
-69.6846
-64.4236
-59.1371
-53.8471
-48.5532
-43.2688
-38.0022
-32.7638
-27.5702
-22.4303
-17.3558
-12.3614
-7.45386
-2.6458
2.05442
6.64881
11.1145
15.4524
19.6409
23.6866
27.575
31.299
34.8589
38.2422
41.4564
44.4822
47.3263
49.9709
52.4269
54.6792
56.7396
-153.408
-153.589
-153.515
-153.181
-152.597
-151.766
-150.679
-149.334
-147.751
-145.937
-143.893
-141.616
-139.111
-136.397
-133.476
-130.346
-127.013
-123.479
-119.769
-115.903
-111.886
-107.733
-103.444
-99.0155
-94.4686
-89.8083
-85.0543
-80.2265
-75.3274
-70.3667
-65.3456
-60.2947
-55.2199
-50.1518
-45.0767
-40.0134
-34.9652
-29.9395
-24.9577
-20.0287
-15.1597
-10.368
-5.65965
-1.04894
3.45744
7.87039
12.1569
16.3258
20.343
24.226
27.9573
31.5305
34.9479
38.1933
41.2862
44.1946
46.9365
49.4787
51.8442
54.0085
55.9957
-145.462
-145.599
-145.506
-145.151
-144.575
-143.763
-142.706
-141.375
-139.828
-138.096
-136.134
-133.937
-131.523
-128.919
-126.133
-123.131
-119.933
-116.527
-112.969
-109.266
-105.415
-101.448
-97.3604
-93.1146
-88.7618
-84.2968
-79.7473
-75.1294
-70.4335
-65.6873
-60.866
-56.0311
-51.1651
-46.3329
-41.4807
-36.6587
-31.8495
-27.0275
-22.2586
-17.5597
-12.891
-8.30205
-3.80623
0.609465
4.9075
9.14449
13.2439
17.2499
21.0813
24.7994
28.3644
31.7739
35.0539
38.1522
41.133
43.9182
46.5646
48.9897
51.2652
53.33
55.248
-137.406
-137.471
-137.37
-136.991
-136.428
-135.605
-134.594
-133.204
-131.739
-130.197
-128.244
-126.131
-123.772
-121.263
-118.711
-115.766
-112.698
-109.489
-106.056
-102.532
-98.7659
-94.9654
-91.1796
-87.0193
-82.8739
-78.6829
-74.2735
-69.9014
-65.3018
-60.8882
-56.142
-51.6474
-46.877
-42.3825
-37.714
-33.1624
-28.6532
-23.9172
-19.3688
-14.9478
-10.3969
-6.06125
-1.8157
2.48516
6.42866
10.6314
14.4065
18.3676
21.8752
25.5034
28.9192
32.0682
35.3282
38.1638
41.1695
43.7041
46.3622
48.5214
50.8333
52.6993
54.6563
61.8241
63.7644
65.4678
66.935
68.1655
69.164
69.9343
70.4814
70.8096
70.9264
70.8606
70.6554
70.2886
69.7154
68.9857
68.0944
66.989
65.6979
64.2434
62.6387
60.895
59.0228
57.0344
54.9411
52.7553
50.4901
48.1589
45.7759
43.3536
40.9076
38.4513
35.9998
33.5685
31.1708
28.8237
26.54
24.3348
22.2236
20.2278
18.3639
16.6547
15.1066
13.7326
12.5524
11.5802
10.8255
10.297
9.99618
9.91658
10.0393
10.3296
10.7328
11.1697
11.5379
11.6976
10.9901
9.48377
7.975
6.75079
5.83697
5.03231
61.7322
63.5954
65.2324
66.6438
67.8299
68.7924
69.5353
70.0627
70.3786
70.4848
70.4034
70.1979
69.8495
69.3018
68.5893
67.7102
66.6348
65.3806
63.967
62.4071
60.7114
58.8908
56.9574
54.9235
52.8008
50.6017
48.3386
46.0244
43.6718
41.2949
38.9069
36.5218
34.1542
31.8177
29.5273
27.2973
25.142
23.072
21.0963
19.2399
17.512
15.95
14.5587
13.3524
12.3431
11.5411
10.9543
10.5845
10.4258
10.4615
10.6597
10.9702
11.3167
11.5978
11.6301
10.9662
9.64125
8.30565
7.26395
6.46889
5.65151
61.0641
62.8865
64.4886
65.872
67.0362
67.9841
68.7189
69.245
69.564
69.6706
69.6057
69.4263
69.0972
68.5743
67.8871
67.0388
66.0092
64.8096
63.4551
61.9579
60.3286
58.5775
56.7167
54.7575
52.7109
50.5893
48.4043
46.1684
43.8941
41.5947
39.2831
36.973
34.6779
32.4115
30.1875
28.0199
25.9217
23.9048
21.9825
20.1758
18.5039
16.9742
15.6046
14.4042
13.3842
12.5538
11.9195
11.4821
11.2354
11.1639
11.2371
11.4084
11.602
11.715
11.5694
10.903
9.74434
8.52883
7.51943
6.68671
5.8624
60.2364
62.01
63.5704
64.9205
66.0584
66.9883
67.711
68.2321
68.5491
68.6548
68.6105
68.4631
68.156
67.6638
67.0065
66.1906
65.2061
64.0623
62.7688
61.3375
59.7783
58.1006
56.3171
54.4381
52.4739
50.4374
48.3392
46.1918
44.0067
41.7971
39.5751
37.3542
35.1469
32.9667
30.8264
28.7394
26.7183
24.7756
22.9246
21.1811
19.5603
18.0727
16.7304
15.5416
14.5161
13.6614
12.9814
12.4748
12.134
11.9435
11.8739
11.8813
11.897
11.8274
11.5358
10.8746
9.86797
8.77103
7.78544
6.92746
6.11497
59.4058
61.1268
62.6414
63.9552
65.0628
65.9717
66.6783
67.191
67.5021
67.6092
67.586
67.4699
67.1843
66.7236
66.0973
65.3164
64.3755
63.2863
62.053
60.6877
59.1995
57.5954
55.8907
54.0941
52.214
50.2653
48.2564
46.2005
44.1068
41.9897
39.8596
37.7302
35.6125
33.5203
31.4648
29.4598
27.5166
25.6477
23.8643
22.1806
20.6086
19.1603
17.8454
16.6709
15.6427
14.7661
14.0433
13.4708
13.0393
12.7328
12.5237
12.3718
12.2192
11.9914
11.5964
10.9511
10.0687
9.08853
8.14626
7.28208
6.46632
58.5951
60.2621
61.7274
63.0048
64.0793
64.9667
65.6553
66.1595
66.4645
66.5787
66.5743
66.4859
66.2217
65.7922
65.1971
64.4537
63.5553
62.5207
61.3464
60.0472
58.6309
57.0998
55.4748
53.7618
51.966
50.107
48.1881
46.2252
44.2235
42.2003
40.1627
38.1258
36.0977
34.0938
32.1228
30.1997
28.3336
26.5373
24.819
23.1926
21.6675
20.2559
18.9651
17.8011
16.7674
15.8664
15.0993
14.4612
13.9417
13.526
13.1884
12.894
12.5965
12.241
11.7673
11.1288
10.331
9.44681
8.5592
7.70918
6.89325
57.7803
59.3919
60.8053
62.0459
63.0859
63.9532
64.6243
65.1204
65.4202
65.5464
65.5587
65.495
65.2527
64.8539
64.2903
63.5859
62.7301
61.7508
60.6341
59.4019
58.0594
56.6016
55.0576
53.4288
51.7171
49.9501
48.1225
46.2544
44.3451
42.4176
40.4736
38.5304
36.5918
34.6763
32.7889
30.9476
29.1585
27.4339
25.7783
24.2071
22.7262
21.3491
20.0805
18.9247
17.8836
16.9574
16.1474
15.4463
14.8437
14.3281
13.8758
13.4586
13.0398
12.581
12.0428
11.3987
10.6493
9.83248
8.99671
8.17227
7.36738
56.9501
58.5116
59.865
61.0741
62.0722
62.9248
63.5749
64.0669
64.3603
64.5078
64.5297
64.4904
64.2671
63.9017
63.3673
62.7051
61.8877
60.9723
59.9045
58.7425
57.479
56.0885
54.6355
53.0906
51.455
49.7876
48.0494
46.2818
44.4606
42.6341
40.7816
38.9362
37.0843
35.2596
33.4508
31.6928
29.9792
28.3285
26.7313
25.215
23.7718
22.4286
21.1794
20.0339
18.9841
18.0319
17.1849
16.4268
15.7474
15.1453
14.5926
14.073
13.5532
13.0111
12.4169
11.7588
11.0316
10.258
9.4595
8.66132
7.87386
56.1439
57.7656
58.9592
60.244
61.0898
62.0063
62.5284
63.1116
63.3186
63.586
63.5153
63.5785
63.2945
63.053
62.4711
61.9245
61.0428
60.2954
59.2259
58.1423
56.9926
55.5631
54.2724
52.8431
51.1962
49.7031
47.984
46.3849
44.5796
42.9141
41.0904
39.3953
37.5824
35.8977
34.1122
32.4765
30.795
29.2556
27.6778
26.2513
24.8042
23.5217
22.2704
21.1457
20.0897
19.0956
18.2278
17.4168
16.6603
16.0012
15.3508
14.7593
14.1445
13.5433
12.8903
12.2226
11.4935
10.7565
9.97429
9.18937
8.42252
4.25133
3.54901
2.89365
2.23514
1.5819
0.971261
0.41307
-0.0848955
-0.50256
-0.833864
-1.07591
-1.23354
-1.30685
-1.29442
-1.22529
-1.12089
-0.995358
-0.869155
-0.755546
-0.661327
-0.588686
-0.531765
-0.486743
-0.448405
-0.413234
-0.376679
-0.334763
-0.28512
-0.223559
-0.149513
-0.059795
0.0461762
0.167496
0.303933
0.451909
0.61144
0.776429
0.942659
1.10629
1.26158
1.40334
1.52698
1.63117
1.7111
1.76374
1.7894
1.78748
1.75961
1.7071
1.63347
1.54307
1.43953
1.32594
1.20798
1.08693
0.965168
0.840963
0.710385
0.565406
0.395966
0.198802
4.83502
4.16988
3.57225
2.95711
2.33174
1.75071
1.22029
0.741989
0.341238
0.0273494
-0.195628
-0.324679
-0.361101
-0.317783
-0.23299
-0.121306
0.00474685
0.127847
0.236107
0.323375
0.389317
0.437998
0.473925
0.501167
0.524593
0.548509
0.576291
0.611477
0.65697
0.715004
0.787803
0.876442
0.980956
1.10045
1.23258
1.3738
1.52157
1.67173
1.81998
1.96216
2.09372
2.20926
2.30484
2.37755
2.42478
2.44558
2.43982
2.40807
2.35185
2.27392
2.17768
2.06683
1.9445
1.81669
1.68441
1.55156
1.4159
1.27731
1.12835
0.961854
0.768845
5.0801
4.41894
3.80575
3.1408
2.46606
1.86761
1.31645
0.802354
0.365665
0.0143059
-0.25145
-0.42994
-0.525028
-0.552947
-0.510137
-0.422951
-0.295312
-0.160083
-0.0419339
0.0526193
0.123722
0.17597
0.215464
0.248449
0.278506
0.309454
0.344684
0.387378
0.440036
0.504584
0.583005
0.676323
0.784379
0.906026
1.03926
1.18129
1.32855
1.47707
1.6226
1.76059
1.88649
1.99615
2.08584
2.15231
2.19315
2.20744
2.19515
2.15768
2.09712
2.01674
1.92026
1.81209
1.69618
1.57621
1.45532
1.33534
1.21388
1.0861
0.943017
0.773488
0.578402
5.35479
4.68091
4.03732
3.3552
2.68095
2.08318
1.51366
0.974766
0.53455
0.18905
-0.0768881
-0.25087
-0.330771
-0.331269
-0.257102
-0.12773
0.0125081
0.127309
0.237306
0.333021
0.408017
0.46353
0.503283
0.532388
0.555056
0.575797
0.598229
0.626395
0.663096
0.710784
0.771699
0.847353
0.93799
1.04249
1.1591
1.28512
1.41736
1.55217
1.68561
1.81345
1.93133
2.03535
2.12189
2.18814
2.23181
2.25206
2.24871
2.22298
2.17655
2.11241
2.03314
1.94241
1.84274
1.73684
1.62509
1.50893
1.38866
1.26397
1.12904
0.981808
0.80794
5.70129
4.9974
4.32196
3.6308
2.95288
2.32776
1.7306
1.18563
0.743559
0.381977
0.0890514
-0.0999034
-0.189534
-0.207382
-0.158063
-0.0623507
0.049441
0.176307
0.286248
0.378407
0.44748
0.498676
0.536466
0.566392
0.590734
0.613804
0.637883
0.667083
0.703412
0.748643
0.805366
0.875223
0.958518
1.05429
1.16109
1.27645
1.3975
1.52101
1.64338
1.76086
1.86924
1.96518
2.045
2.10644
2.14688
2.16573
2.16217
2.13753
2.09253
2.03003
1.95222
1.86269
1.76448
1.66003
1.55418
1.45333
1.35292
1.24802
1.13533
1.00638
0.85399
6.11439
5.37696
4.66926
3.96689
3.28095
2.63264
2.01859
1.45968
0.987718
0.594601
0.287919
0.0934144
-0.0163267
-0.0572573
-0.0154228
0.0822813
0.199333
0.317655
0.423011
0.503219
0.55956
0.601326
0.63115
0.655245
0.67331
0.690637
0.707768
0.7302
0.758979
0.795157
0.84208
0.901422
0.973527
1.05725
1.1515
1.25386
1.36168
1.47211
1.58184
1.68768
1.78536
1.87244
1.9449
2.00157
2.0392
2.05819
2.05693
2.03777
2.00053
1.94868
1.88388
1.81022
1.73118
1.65067
1.56897
1.48181
1.39327
1.30052
1.198
1.07992
0.939178
6.58518
5.82921
5.09643
4.38011
3.6841
3.02314
2.40029
1.83195
1.33389
0.913769
0.583369
0.357023
0.214794
0.163095
0.202426
0.287272
0.393611
0.501113
0.594539
0.661339
0.698891
0.725081
0.741349
0.756957
0.765874
0.775338
0.78294
0.797461
0.817671
0.842862
0.87911
0.927043
0.987684
1.05906
1.14066
1.22992
1.32448
1.42183
1.51906
1.61358
1.70078
1.77923
1.84443
1.89651
1.93112
1.95018
1.95095
1.93695
1.90687
1.86506
1.81193
1.75194
1.68692
1.61906
1.55054
1.48157
1.41043
1.33527
1.25002
1.14931
1.02524
7.09914
6.34117
5.59914
4.87978
4.17782
3.51705
2.89522
2.33292
1.8277
1.39501
1.04606
0.792255
0.607844
0.528278
0.532619
0.583347
0.678743
0.754089
0.814599
0.86316
0.869685
0.872556
0.866803
0.873374
0.867413
0.868723
0.862735
0.869825
0.882666
0.892894
0.917146
0.953991
1.00553
1.06529
1.13557
1.21286
1.29521
1.38061
1.46674
1.55191
1.62946
1.70097
1.75891
1.80779
1.83844
1.85784
1.85903
1.84965
1.82416
1.7903
1.74458
1.69452
1.64117
1.58465
1.52871
1.47395
1.41833
1.36091
1.2936
1.21261
1.10657
7.64703
6.90788
6.16047
5.44489
4.74309
4.10145
3.4938
2.97535
2.47793
2.06348
1.72982
1.49317
1.23212
1.12136
1.09266
1.07373
1.13138
1.05598
1.05544
1.12683
1.06775
1.04685
0.995467
1.0233
0.976889
0.985588
0.939902
0.947056
0.964465
0.949239
0.947292
0.983165
1.03299
1.07757
1.139
1.2063
1.27524
1.35312
1.42964
1.51498
1.57661
1.65303
1.69296
1.75104
1.76588
1.79531
1.78172
1.79074
1.75589
1.73655
1.68576
1.6376
1.59613
1.55083
1.50813
1.46498
1.42151
1.38441
1.33032
1.27689
1.18145
4.7
-4.76748
-6.08167
15.3173
5.58425
19.7158
18.6222
11.1176
11.5325
29.2248
2.04203
24.2125
18.71
2.78081
22.0081
-102.722
20.7681
12.4524
1.85171
18.237
15.5399
3.18946
0.800384
20.5177
11.4298
17.2994
18.2899
9.859
20.5224
6.59301
10.2469
17.986
28.5736
1.73906
23.4873
1.20806
1.02778
57.4596
19.1476
18.0388
7.78772
-3.10993
18.1935
-89.0111
0.351019
31.9887
10.601
2.80308
16.8965
25.8538
-3.94082
-47.2236
18.2138
9.07471
14.3818
18.2549
6.71407
7.92619
1.237
-32.5532
4.27101
15.5792
17.9229
-8.37705
-26.7268
14.2503
1.10495
9.03475
19.2411
18.321
15.5745
59.6148
6.72259
11.6462
13.7376
6.68485
-13.2351
44.9463
18.1717
28.5912
-0.787959
17.0843
17.4757
-36.0355
18.1968
50.2305
12.0185
1.88779
15.8499
1.48241
-14.1565
18.1909
4.99146
-33.089
-38.0651
5.48118
44.5153
9.72877
25.6832
-102.845
13.7346
16.172
24.9797
18.1789
18.5965
18.2832
15.2735
39.9232
20.1583
-78.9438
-110.493
16.4854
0.475503
1.52605
6.32733
2.27295
1.37284
19.8976
-7.5284
10.6324
11.3372
0.0940976
10.8091
-119.453
-27.9061
10.8873
15.3851
-47.2207
-34.7523
17.9929
21.4475
-8.22298
4.78693
10.4649
2.77241
10.6649
18.5188
-54.792
-32.1213
11.6254
9.3309
-53.9799
15.0978
49.1046
1.65119
12.8186
17.4457
1.68615
31.9449
-0.901812
16.3935
17.8418
59.1822
-32.9546
-60.4803
8.42198
8.07043
-27.971
18.7449
1.01119
17.3807
26.6011
17.825
12.5039
14.9865
13.7202
7.35744
9.77488
17.9152
0.130866
-2.03034
1.85311
6.30645
17.7022
1.42344
1.522
1.48534
8.71201
22.5583
2.27194
2.32412
-1.51983
-31.91
9.55971
6.26953
0.76955
-10.7002
52.3052
9.66385
10.7609
25.5125
20.616
-17.8112
-39.6688
18.9951
-31.8169
4.66293
0.150992
21.6149
1.06773
9.70215
15.0562
13.8925
-59.5259
-2.01141
21.16
8.41985
16.6421
-46.3827
1.1724
41.1358
-6.16344
16.5338
-118.625
11.4075
-77.551
-66.315
1.57474
33.8089
1.96653
10.7398
40.2438
11.9706
18.1442
1.37466
-7.86679
-9.45882
11.1184
17.3084
59.8218
1.42387
21.6258
-5.61632
-37.5303
13.3891
19.6209
2.93928
-57.1027
-46.7921
19.6672
13.158
9.02657
11.3121
16.781
-124.99
16.6929
8.71649
-99.1019
24.1702
17.9154
8.8528
23.9529
1.62117
8.04516
10.8496
19.14
25.3318
15.5153
7.01276
2.35643
16.0926
10.0136
-66.322
18.9434
0.981355
13.1133
17.6775
1.1754
17.7415
1.36046
24.0347
1.32811
22.9467
11.3293
53.203
10.3359
14.3335
10.7078
16.065
20.9932
50.4228
9.80127
-72.1127
15.8078
14.9514
19.0929
18.2507
-61.3876
7.76467
7.94737
-26.7365
40.74
14.8969
18.2993
35.0933
17.5868
9.25309
5.25724
-0.905744
16.8461
10.2802
5.21043
49.0113
-4.03215
4.38101
-80.5799
21.9861
18.8825
19.715
-100.673
9.71623
12.2302
11.4126
-12.9485
16.51
14.5719
0.805386
1.60997
7.05782
2.32028
17.024
3.86137
15.8128
14.8971
-27.9338
2.19368
15.7964
1.33161
-91.1374
6.61023
-27.3769
-45.759
-102.306
2.5802
1.75275
17.6018
0.524781
0.901435
-124.599
35.2659
15.0973
14.8446
12.0175
11.9143
49.877
11.0588
-9.23553
19.2507
-72.4086
15.0284
1.53462
-46.1941
-114.65
10.7261
-62.0173
8.32915
2.586
14.9169
1.84937
2.19716
10.472
0.406447
1.34897
-6.00043
0.825062
16.589
6.5763
-115.49
-34.9144
4.10808
16.6914
-27.1406
-50.86
12.6805
1.83291
15.8037
-6.2223
7.50165
1.76386
-73.7046
0.927326
-80.8744
20.6346
-90.4459
11.2847
5.24006
21.5945
1.53941
-118.945
-27.4444
47.4928
50.2074
3.09101
1.08365
18.0418
30.425
17.5664
-0.427427
12.1055
-9.53324
17.716
18.9799
22.2305
21.2989
-7.92103
-47.454
11.3834
-83.134
0.570097
-11.8447
2.37557
-62.7367
-2.18543
19.234
-125.642
10.294
9.19999
23.9199
-53.6504
18.2127
18.6727
1.86041
18.1
9.95135
14.8077
1.31819
36.0307
-26.5999
-52.4981
9.79997
-61.7807
9.29163
-55.2291
17.6214
16.2415
1.25839
3.89427
-96.7376
-1.93352
1.42579
-11.0734
-63.1167
-60.7953
18.37
5.14284
-42.3433
-50.8329
17.8371
3.24015
-33.2344
22.989
13.3444
36.9552
-40.7641
-0.201855
-9.90801
0.483393
8.72629
-92.9601
2.20645
10.8619
20.1913
46.9893
2.91698
44.3143
1.93444
17.9644
1.87624
1.68528
13.1523
12.7308
0.138841
1.65935
17.5723
2.90215
1.67902
2.876
1.63188
2.3599
1.69576
8.53585
5.45618
16.9238
15.669
-112.847
10.0567
-70.1816
-107.947
17.1867
0.527154
2.50301
19.5521
4.27851
1.53567
16.3711
17.3127
15.654
5.62859
-37.9936
10.5112
26.7633
13.6555
12.7815
15.5155
5.48482
1.07127
13.5044
19.6598
9.40837
1.68117
14.288
13.5961
-13.0018
13.0454
-0.390261
-3.55613
-4.37632
17.8856
20.3085
9.03593
22.3398
3.69557
2.66287
48.7728
-22.9544
-5.82812
22.2179
8.34363
1.53274
1.74827
-80.274
-28.6471
21.3002
2.95531
10.302
1.08651
-21.4529
19.1116
12.6013
-27.5146
-82.6442
12.6889
-18.6397
-54.428
4.39472
-106.751
9.19759
9.0239
8.71177
-33.4772
14.5531
-82.072
-2.56546
12.8
1.288
18.1122
-0.426242
15.4278
12.2289
31.9579
3.18179
1.27544
14.9155
7.39756
1.06502
-47.7534
-31.9071
8.16875
-35.4408
4.5305
28.9068
1.66331
9.04495
-95.6933
9.786
8.46872
14.8635
1.63602
52.3677
1.97594
8.21724
8.15988
1.64884
1.52496
13.034
16.1721
16.5678
9.48342
10.188
29.4388
-75.9784
8.68417
18.4019
-33.176
0.605425
-87.8762
12.3771
1.08193
18.1446
-55.1327
4.09693
-21.2115
1.26024
1.15059
3.14604
-107.088
20.8992
18.0933
6.29762
16.5237
-27.7715
-22.082
-6.50282
9.38741
8.96409
4.77669
18.9826
-0.284393
1.0526
16.5335
23.4451
1.61841
-59.4259
21.1482
1.97777
20.8178
-8.62986
17.4238
36.4797
6.69909
29.7229
18.7666
-29.9437
-22.4589
-5.02273
19.5225
9.68847
-32.8246
18.4784
12.5119
4.54861
5.51982
1.08007
-32.1403
41.0425
4.31784
2.36629
1.42369
-92.247
9.45423
23.6016
16.2351
1.34144
5.72747
-23.8663
14.2279
12.7549
6.58728
1.34607
-7.45427
14.8693
2.00896
10.878
-21.4581
1.51415
39.6018
1.28348
-0.0414174
8.12577
57.2922
17.2569
17.4949
1.42936
10.1528
7.3001
8.44661
10.4938
-117.587
2.56814
-35.3292
30.7259
17.5677
8.38249
19.6218
-6.48072
-10.9811
1.47267
3.72565
1.69108
12.8916
-2.50195
19.0262
-89.2613
17.5672
7.14246
2.40195
-3.67836
3.18414
-7.56489
10.5925
3.64027
0.79037
19.6831
-122.453
15.944
17.8189
9.96124
-4.6637
19.2926
3.67879
-21.5112
15.8398
-14.8057
-98.2203
17.6793
8.46856
14.4917
-63.299
-6.60492
16.6716
43.287
12.5848
9.10288
10.7039
-111.877
-127.463
16.6323
-1.57253
-12.0733
1.62952
18.3904
7.05056
-11.5613
14.1491
15.4305
-0.0734422
18.7901
19.805
8.15315
14.1611
-3.24491
11.8996
-5.84046
23.1186
2.00326
-4.69091
42.5841
1.44803
7.21379
22.0969
4.4476
-46.5099
24.4018
-83.9986
21.1967
1.64203
-20.3282
10.0234
-10.4446
1.08366
11.9875
11.1203
-93.5185
-39.4057
13.0126
-66.7939
-9.66896
53.8814
-17.0631
-21.092
22.1452
1.07048
5.8923
12.1897
-56.4991
-23.9173
-4.91331
-4.62954
-6.95546
1.32597
22.8784
19.1597
13.0828
-122.188
-45.5371
27.7046
2.61748
-112.359
11.5178
14.8988
10.6874
1.45686
4.80119
1.52168
-15.9013
21.5743
-121.719
-17.7416
-86.6191
-99.7486
19.0255
25.5813
-43.607
26.1344
14.9814
12.2437
11.4114
10.7493
26.2392
18.1594
2.69677
-51.9304
-31.0672
24.5043
2.24326
3.37351
13.4011
1.88637
12.9547
-54.1944
1.45495
49.4653
4.16133
22.4252
11.9655
18.8013
16.7141
-76.7745
11.4433
44.8513
1.28537
0.750619
32.6104
61.4096
12.8171
12.9339
25.2717
-51.46
-16.4447
17.4137
9.36732
-92.7193
27.6803
17.5962
-64.08
16.4609
3.81771
1.70328
6.45986
-16.6174
54.1073
1.08599
-9.11848
-0.42514
17.9337
0.302649
9.06873
14.7771
17.9777
11.3347
1.2866
17.6788
1.00181
30.3547
0.280863
11.3651
10.5324
17.4246
8.4404
-51.341
9.78772
18.7055
-30.8155
-72.2143
34.6432
1.79325
7.43612
18.6271
34.8673
-85.9016
8.9513
-3.30021
11.1625
16.4282
-88.1319
18.2167
10.163
49.9842
30.3718
-19.955
4.66086
16.3461
18.2124
-69.4041
-4.83791
10.0436
15.3597
1.57685
18.3195
-128.525
7.72423
1.20421
10.4709
19.1907
-0.0450817
15.2074
23.2544
24.7272
4.81006
-0.778237
18.3326
21.0464
17.675
20.5746
10.7153
18.5262
-70.1892
2.88082
18.2677
-26.24
14.151
7.56932
20.002
11.6756
-62.2926
9.82112
4.87513
19.2812
-21.4172
17.4678
-25.3521
-104.277
2.0113
1.31076
-48.008
16.7975
18.7184
-21.1584
-106.052
1.56368
-14.1444
15.9852
-83.8277
13.402
17.3077
18.7922
-19.4811
7.4184
9.938
-29.828
17.2916
8.97513
-85.0762
10.7287
-119.651
47.6886
11.6745
18.7927
6.11011
17.9183
-9.36734
-6.68303
20.4824
-19.27
5.49332
12.5086
-38.5396
4.95208
17.9828
-50.1573
15.362
1.73892
-67.6164
-14.8783
17.9353
19.7246
14.2122
62.2929
9.05755
-1.71387
-24.2997
15.8591
-12.173
15.7079
5.22807
16.9556
1.1166
9.23216
1.04187
-13.7069
59.1977
7.11984
59.541
7.30768
11.3545
4.34395
20.635
-9.67203
18.5118
11.0825
1.5648
59.9244
17.3444
8.80386
-8.66422
0.948199
-109.098
16.9148
-5.79317
9.61504
-22.6932
-63.1535
1.36566
-73.813
9.39095
3.05155
-27.0005
18.6116
15.8645
14.1454
11.1365
21.5948
17.2661
12.7293
18.1176
1.58308
-70.4806
18.3453
20.6427
18.2093
7.79817
-73.0298
1.65245
-25.5844
15.9336
-44.2345
1.21977
25.1228
-68.119
17.7912
1.07038
40.168
1.71956
22.7749
4.41093
1.87076
18.0113
10.3689
-108.113
14.1966
-1.36991
-39.1399
1.60331
16.0346
10.9548
31.1012
2.74174
1.37016
-80.3158
16.4872
17.3066
17.1282
-20.1747
-35.6322
14.4062
12.8175
15.2252
1.55007
1.83064
49.385
0.38952
-65.3028
2.57799
-59.1557
0.58812
1.02523
32.2602
51.3926
11.8523
60.2253
45.9642
18.6088
18.3694
6.07124
14.5716
19.0654
2.71101
2.33169
19.9182
2.17777
10.1746
19.4649
8.76013
19.0513
28.9764
1.73789
-5.87183
-122.163
18.5155
10.9776
-50.9436
7.64668
22.608
14.0838
10.1782
2.36061
17.4725
-2.41405
2.10896
30.5629
12.8162
0.868968
16.903
17.5668
16.7265
5.60186
15.8987
17.5032
-3.80624
18.8072
20.9559
-78.6273
-30.169
-19.1687
15.0813
1.63428
-51.2987
17.5473
1.76159
1.47639
-126.653
1.05866
18.2324
8.64037
31.2084
-0.863034
1.51722
9.63584
46.5029
1.83553
18.0114
1.39184
17.4963
53.9832
14.2579
-21.8893
17.8426
1.28068
-69.8325
15.8007
42.6741
4.17798
12.5099
19.2614
29.9609
11.0077
20.1425
2.28626
18.781
10.99
-123.671
4.5553
19.1239
20.3496
-65.2476
-86.1171
18.4029
18.303
12.9591
11.4513
-59.0795
24.8632
-58.9495
17.9879
11.3435
18.0569
-12.2453
6.12959
17.7977
0.638397
1.63253
-91.3135
-63.4075
8.1939
-3.01563
-74.7293
18.7342
18.7224
18.8451
7.16223
19.1618
2.49688
18.4696
9.45657
-1.96974
-25.5998
2.44062
12.2562
1.56037
36.2571
17.5363
19.775
-105.338
15.6886
16.2574
20.4988
12.5184
-74.7849
-7.46096
1.43361
17.8844
17.819
17.9054
-4.45639
20.6363
-18.5563
8.10244
8.75146
12.4421
9.85518
16.6425
11.0496
10.5436
9.78416
-1.67685
-10.9316
2.55305
-88.7161
11.849
17.2927
0.787509
-92.4309
41.0465
2.61887
23.9658
16.3946
13.3799
11.8092
17.5988
60.91
-8.38528
1.01655
-94.7509
17.347
28.088
-37.4012
4.07556
-52.8466
1.57737
31.105
1.58434
17.4885
-23.7472
-13.5693
-38.2323
-8.94619
18.0468
1.70536
7.42661
22.6789
12.0428
19.7892
8.84961
56.8662
20.7513
17.1771
44.0519
10.0779
17.0892
18.844
20.7508
-10.9184
1.64055
10.1465
12.1597
-16.9777
13.9599
8.93411
15.1486
-3.6131
-68.9391
-89.4456
11.1896
7.14465
-71.6075
8.25833
12.8436
17.1619
2.1297
1.80671
15.9099