/*--------------------------------*- C++ -*----------------------------------*\
| =========                 |                                                 |
| \\      /  F ield         | OpenFOAM: The Open Source CFD Toolbox           |
|  \\    /   O peration     | Version:  2.3.1                                 |
|   \\  /    A nd           | Web:      www.OpenFOAM.org                      |
|    \\/     M anipulation  |                                                 |
\*---------------------------------------------------------------------------*/
FoamFile
{
    version     2.0;
    format      ascii;
    class       surfaceScalarField;
    location    "0.28";
    object      phi;
}
// * * * * * * * * * * * * * * * * * * * * * * * * * * * * * * * * * * * * * //

dimensions      [0 3 -1 0 0 0 0];

internalField   nonuniform List<scalar> 
15416
(
-0.000699747
-3.53669e-06
0.000703952
-0.00069679
-2.95808e-06
-0.000694644
-2.14687e-06
-0.00069369
-9.54832e-07
-0.00069414
4.48476e-07
-0.000696363
2.22102e-06
-0.00070115
4.78542e-06
-0.000708498
7.34664e-06
-0.000718808
1.03079e-05
-0.000732357
1.35476e-05
-0.000749522
1.7163e-05
-0.000770482
2.09579e-05
-0.000795333
2.48481e-05
-0.000824113
2.87781e-05
-0.000856877
3.27611e-05
-0.000893509
3.66277e-05
-0.000933787
4.02728e-05
-0.000977479
4.36848e-05
-0.00102442
4.69363e-05
-0.00107428
4.98494e-05
-0.00112677
5.24926e-05
-0.00118165
5.48806e-05
-0.00123856
5.69111e-05
-0.00129715
5.85755e-05
-0.00135716
6.00013e-05
-0.00141837
6.11883e-05
-0.00148047
6.20834e-05
-0.00154315
6.26733e-05
-0.00160622
6.30612e-05
-0.00166951
6.33031e-05
-0.00173274
6.32816e-05
-0.00179574
6.30714e-05
-0.00185839
6.27656e-05
-0.00192043
6.21833e-05
-0.00198168
6.13521e-05
-0.00204207
6.04342e-05
-0.00210157
5.93428e-05
-0.00215999
5.8108e-05
-0.00221714
5.66842e-05
-0.00227302
5.53696e-05
-0.00232763
5.41961e-05
-0.0023808
5.28613e-05
-0.00243235
5.13958e-05
-0.00248225
4.98943e-05
-0.00253023
4.80367e-05
-0.00257631
4.61576e-05
-0.00262063
4.44093e-05
-0.00266326
4.26652e-05
-0.00270402
4.07557e-05
-0.0027427
3.86304e-05
-0.00277939
3.6636e-05
-0.00281424
3.48024e-05
-0.00284673
3.24685e-05
-0.00287733
3.05944e-05
-0.00290582
2.85041e-05
-0.00293259
2.6775e-05
-0.00295667
2.40892e-05
-0.0029785
2.18319e-05
-0.00299843
1.99335e-05
-0.00301663
1.81999e-05
1.64919e-05
-0.00303312
-0.000401753
-2.71579e-06
0.000400931
-0.000404484
-2.27897e-07
-0.000409649
3.01705e-06
-0.000418497
7.89203e-06
-0.000431673
1.36232e-05
-0.000448626
1.91729e-05
-0.00046949
2.56482e-05
-0.000494308
3.21631e-05
-0.000523523
3.95203e-05
-0.000556677
4.67005e-05
-0.000593945
5.44287e-05
-0.000635162
6.21733e-05
-0.000680207
6.98907e-05
-0.000728938
7.75065e-05
-0.000781042
8.48618e-05
-0.000836373
9.19543e-05
-0.000894659
9.8554e-05
-0.000955683
0.000104702
-0.00101908
0.000110333
-0.00108466
0.000115421
-0.00115219
0.000120025
-0.00122125
0.000123934
-0.00129164
0.000127295
-0.00136316
0.00013008
-0.0014355
0.000132319
-0.00150841
0.000134094
-0.00158156
0.000135258
-0.00165489
0.00013607
-0.00172811
0.000136374
-0.00180093
0.000136182
-0.00187337
0.000135734
-0.00194529
0.000134937
-0.0020163
0.000133696
-0.00208636
0.000132248
-0.00215544
0.000130647
-0.00222315
0.000128537
-0.00228954
0.000126216
-0.00235447
0.000123372
-0.00241798
0.000120203
-0.00247987
0.000116907
-0.00253991
0.000113461
-0.00259842
0.000110388
-0.00265512
0.000107178
-0.00270969
0.000103834
-0.00276226
0.000100414
-0.00281264
9.66847e-05
-0.00286096
9.3007e-05
-0.00290682
8.87585e-05
-0.00295058
8.46322e-05
-0.00299227
8.03544e-05
-0.00303179
7.61321e-05
-0.00306947
7.24475e-05
-0.00310369
6.66488e-05
-0.00313722
6.4108e-05
-0.00316693
5.82081e-05
-0.00319511
5.49514e-05
-0.00321892
4.79096e-05
-0.00324259
4.55008e-05
-0.00326397
4.13233e-05
-0.0032832
3.74262e-05
3.1366e-05
-0.00329807
-0.000261198
5.97415e-06
0.000252506
-0.000273711
1.22842e-05
-0.000290507
1.98123e-05
-0.000311175
2.85583e-05
-0.000335644
3.80913e-05
-0.000364661
4.81886e-05
-0.000397753
5.87379e-05
-0.000435211
6.96198e-05
-0.000476927
8.12348e-05
-0.000522976
9.27481e-05
-0.000573064
0.000104514
-0.000626786
0.000115894
-0.000684266
0.000127368
-0.000745109
0.000138347
-0.00080911
0.000148858
-0.000875979
0.00015882
-0.000945497
0.000168067
-0.00101739
0.000176587
-0.00109132
0.00018427
-0.00116716
0.000191254
-0.00124442
0.000197287
-0.00132304
0.000202551
-0.00140273
0.000206964
-0.00148322
0.000210544
-0.00156423
0.000213303
-0.00164551
0.000215375
-0.00172688
0.000216687
-0.00180807
0.00021738
-0.00188883
0.000217245
-0.00196927
0.000216702
-0.00204893
0.000215392
-0.00212765
0.000213533
-0.00220562
0.000211515
-0.00228234
0.00020889
-0.00235773
0.00020612
-0.00243176
0.000202856
-0.00250428
0.000199071
-0.00257506
0.000194578
-0.00264401
0.000189539
-0.0027111
0.00018416
-0.0027764
0.000178764
-0.00283944
0.000173057
-0.00290058
0.000167731
-0.00295953
0.000162144
-0.00301629
0.000156591
-0.00307088
0.000150981
-0.00312309
0.000145123
-0.00317298
0.000138732
-0.00322025
0.000132062
-0.0032657
0.000125944
-0.00330741
0.000117933
-0.00334652
0.000111593
-0.00338403
0.000104148
-0.00341924
9.93004e-05
-0.0034523
9.12615e-05
-0.00348108
8.37211e-05
-0.00350973
7.6553e-05
-0.00353405
6.98206e-05
-0.00355615
6.34253e-05
-0.00357398
5.5263e-05
4.91162e-05
-0.00359173
-0.000195052
2.32535e-05
0.000177771
-0.000216317
3.35485e-05
-0.00024177
4.5264e-05
-0.000271364
5.81511e-05
-0.000305278
7.20043e-05
-0.000343659
8.65685e-05
-0.000386395
0.000101473
-0.00043384
0.000117063
-0.000485526
0.000132919
-0.000541545
0.000148766
-0.000601435
0.000164402
-0.000665383
0.00017984
-0.000732943
0.000194926
-0.000803684
0.000209084
-0.000877544
0.000222715
-0.000954168
0.00023544
-0.00103327
0.000247166
-0.00111454
0.000257865
-0.00119778
0.000267511
-0.00128256
0.000276039
-0.00136888
0.0002836
-0.00145623
0.000289885
-0.00154453
0.000295234
-0.00163344
0.000299436
-0.0017228
0.000302646
-0.00181215
0.000304749
-0.00190141
0.000305992
-0.00199041
0.000306394
-0.00207901
0.000305864
-0.00216675
0.000304454
-0.0022537
0.000302398
-0.00233971
0.000299668
-0.00242426
0.000296101
-0.00250755
0.000292095
-0.00258949
0.000287651
-0.00267008
0.000282591
-0.00274888
0.000277137
-0.00282606
0.000271325
-0.00290112
0.000265102
-0.00297397
0.000258494
-0.00304439
0.000250707
-0.0031127
0.000242675
-0.0031784
0.000233869
-0.00324194
0.000225282
-0.00330302
0.000217019
-0.00336184
0.000208967
-0.00341824
0.000200956
-0.00347241
0.000192624
-0.00352311
0.000182732
-0.00357115
0.000174121
-0.00361772
0.00016466
-0.00366016
0.00015416
-0.0037004
0.000144452
-0.00373653
0.000135443
-0.00377232
0.000127048
-0.00380397
0.000115361
-0.00383337
0.000105941
-0.00386053
9.69779e-05
-0.0038835
8.6391e-05
-0.00390423
7.59919e-05
6.56634e-05
-0.00392077
-0.000165679
4.72589e-05
0.000141673
-0.00019381
6.16776e-05
-0.000226508
7.79614e-05
-0.00026384
9.54817e-05
-0.000305808
0.000113971
-0.00035261
0.000133369
-0.00040441
0.000153273
-0.00046064
0.000173291
-0.000521541
0.000193819
-0.000586712
0.000213935
-0.000656189
0.000233878
-0.000729652
0.000253301
-0.00080655
0.000271822
-0.00088693
0.00028946
-0.00097058
0.000306362
-0.00105646
0.000321325
-0.00114491
0.000335619
-0.00123548
0.000348441
-0.0013278
0.000359836
-0.00142172
0.000369961
-0.0015169
0.000378762
-0.00161322
0.000386183
-0.00171027
0.000392267
-0.0018078
0.000396952
-0.00190541
0.00040027
-0.00200319
0.000402547
-0.00210065
0.000403428
-0.00219764
0.000403331
-0.00229401
0.000402124
-0.00238963
0.000400025
-0.00248415
0.00039701
-0.00257737
0.000393019
-0.00266918
0.00038817
-0.0027595
0.000382373
-0.00284812
0.000375631
-0.00293502
0.000368402
-0.00302061
0.000361065
-0.00310404
0.000353746
-0.00318524
0.000346315
-0.00326408
0.000338208
-0.00334055
0.00032922
-0.00341425
0.000318308
-0.00348521
0.000306422
-0.00355318
0.000294329
-0.00361862
0.000282509
-0.00368239
0.000272265
-0.00374186
0.000259479
-0.00379946
0.000249358
-0.00385526
0.000238103
-0.00390687
0.000225646
-0.00395604
0.00021396
-0.00400296
0.000201255
-0.00404591
0.000187529
-0.00408663
0.000176231
-0.00412137
0.000161801
-0.00415567
0.000149663
-0.00418775
0.000138013
-0.00421565
0.000124865
-0.00423939
0.000110125
-0.00426288
9.94833e-05
8.49932e-05
-0.00428221
-0.000155058
7.77867e-05
0.000124529
-0.000190252
9.68706e-05
-0.000230178
0.000117887
-0.000275405
0.000140707
-0.000325807
0.000164372
-0.000381174
0.000188735
-0.000441514
0.000213611
-0.000506998
0.000238774
-0.000577071
0.000263891
-0.000651989
0.000288852
-0.000731207
0.000313094
-0.000814259
0.000336351
-0.000901172
0.000358732
-0.000991131
0.000379417
-0.00108394
0.000399168
-0.00117964
0.000417029
-0.00127772
0.00043371
-0.00137802
0.000448747
-0.00147985
0.00046167
-0.00158309
0.000473196
-0.00168769
0.000483338
-0.00179304
0.000491515
-0.00189917
0.000498392
-0.00200568
0.000503476
-0.00211232
0.000506933
-0.0022187
0.000508929
-0.00232476
0.000509487
-0.00243015
0.00050864
-0.00253471
0.000506639
-0.00263835
0.000503497
-0.00274083
0.000499279
-0.00284182
0.000493955
-0.00294142
0.000487712
-0.00303925
0.000480435
-0.00313495
0.000471673
-0.00322877
0.000461993
-0.00332011
0.000452198
-0.00340952
0.000441946
-0.00349704
0.000432371
-0.00358247
0.000422976
-0.0036657
0.000411747
-0.00374588
0.000399499
-0.00382234
0.000384869
-0.00389478
0.000368933
-0.0039642
0.000354282
-0.00403172
0.00034038
-0.00409796
0.000325176
-0.0041606
0.000310955
-0.00421928
0.000295788
-0.00427534
0.000281318
-0.00432718
0.000265745
-0.00437485
0.000249018
-0.00442208
0.000234868
-0.00446351
0.000217744
-0.00450456
0.000202899
-0.0045415
0.00018662
-0.00457229
0.000168807
-0.0046008
0.000153373
-0.00462912
0.00013844
-0.00465139
0.000121741
0.000105063
-0.00467146
-0.000157954
0.000114873
0.000120866
-0.000200426
0.000139341
-0.000248307
0.000165767
-0.000301919
0.000194318
-0.000360792
0.000223244
-0.000425349
0.000253291
-0.00049519
0.000283451
-0.000570049
0.000313633
-0.000650188
0.000344028
-0.000734674
0.000373336
-0.000823933
0.000402352
-0.000917355
0.000429771
-0.00101419
0.000455562
-0.00111421
0.000479433
-0.00121771
0.000502675
-0.00132378
0.000523106
-0.00143186
0.000541794
-0.00154212
0.000559018
-0.0016539
0.000573433
-0.00176721
0.000586487
-0.00188159
0.000597699
-0.00199673
0.000606654
-0.00211259
0.000614284
-0.00222865
0.000619558
-0.0023446
0.000622891
-0.00246031
0.000624624
-0.00257524
0.000624346
-0.00268958
0.00062306
-0.00280296
0.000619987
-0.00291485
0.000615322
-0.00302557
0.000609786
-0.00313498
0.000602693
-0.00324241
0.000594833
-0.00334825
0.000586408
-0.00345212
0.000576215
-0.0035526
0.000564553
-0.00365078
0.000551456
-0.00374585
0.000537685
-0.00383862
0.000524259
-0.00393064
0.000511132
-0.0040207
0.000498775
-0.0041076
0.000483916
-0.00419094
0.00046859
-0.00426882
0.000450995
-0.00434366
0.000432924
-0.00441467
0.00041441
-0.00448288
0.000394085
-0.00454966
0.000376679
-0.00461421
0.000359216
-0.00467274
0.000339036
-0.00472866
0.0003214
-0.00478219
0.000302505
-0.00482991
0.000282628
-0.00487555
0.000263452
-0.00491719
0.000244579
-0.00495461
0.000224079
-0.00499155
0.000205775
-0.0050224
0.00018423
-0.00504928
0.000165321
-0.00507219
0.000144649
0.000125763
-0.0050929
-0.000171944
0.000158746
0.00012807
-0.0002221
0.000189496
-0.000278203
0.000221869
-0.000341055
0.00025717
-0.000409527
0.000291716
-0.000483643
0.000327406
-0.000563532
0.000363338
-0.000648197
0.000398297
-0.000738763
0.000434594
-0.0008338
0.000468371
-0.000934267
0.000502818
-0.0010382
0.000533703
-0.00114666
0.000564022
-0.00125727
0.000590046
-0.00137115
0.000616553
-0.00148846
0.000640419
-0.00160754
0.000660881
-0.00172856
0.000680034
-0.00185158
0.000696434
-0.00197478
0.000709659
-0.00209989
0.000722795
-0.00222509
0.000731877
-0.00235159
0.000740842
-0.00247809
0.000746105
-0.00260391
0.000748711
-0.00272976
0.000750341
-0.00285403
0.000748523
-0.00297783
0.000746729
-0.00310059
0.000742933
-0.003221
0.000736016
-0.00334064
0.000729458
-0.00345838
0.000720344
-0.00357383
0.000709525
-0.0036882
0.000699779
-0.00380058
0.00068875
-0.00390954
0.000674302
-0.00401475
0.000659909
-0.00411606
0.000642324
-0.00421424
0.000623215
-0.00431078
0.000606923
-0.00440809
0.000591011
-0.00450335
0.000574157
-0.00459137
0.000555357
-0.0046771
0.000538342
-0.00475581
0.000516787
-0.00483021
0.000492542
-0.00490515
0.00047018
-0.00497481
0.000445758
-0.00504164
0.00042491
-0.00510533
0.000402195
-0.00516352
0.000379342
-0.00521886
0.000357704
-0.00527019
0.000333903
-0.00531982
0.00031307
-0.00536384
0.000288628
-0.00540514
0.000265403
-0.00544045
0.000241115
-0.00547109
0.000214889
-0.00550005
0.000194289
-0.0055255
0.000170094
0.000146798
-0.00554654
-0.000194795
0.000144952
0.000208586
-0.000253929
0.000248629
-0.000317545
0.000285484
-0.000391189
0.000330812
-0.000469159
0.000369684
-0.000553904
0.000412148
-0.000644706
0.000454139
-0.000738644
0.000492233
-0.000842165
0.000538113
-0.00094665
0.000572855
-0.00106076
0.000616926
-0.00117471
0.000647648
-0.00129816
0.00068747
-0.00141741
0.000709295
-0.00154401
0.000743166
-0.00167403
0.000770435
-0.00180277
0.000789619
-0.00193723
0.000814484
-0.00207153
0.0008307
-0.00220491
0.000843001
-0.00234473
0.000862573
-0.0024785
0.00086567
-0.00261745
0.000879866
-0.00275544
0.00088416
-0.00289135
0.000884642
-0.00302967
0.000888633
-0.0031623
0.000880837
-0.00329663
0.000880628
-0.00343072
0.000876886
-0.00355916
0.000864981
-0.00368895
0.000860345
-0.00381525
0.000847564
-0.00393807
0.00083241
-0.00406041
0.000820514
-0.00418373
0.000808929
-0.00429903
0.000787192
-0.00441512
0.00077658
-0.00452487
0.000756473
-0.00462686
0.000733
-0.00473011
0.000714366
-0.00482911
0.000688169
-0.00493005
0.000669045
-0.00502582
0.000643915
-0.00511603
0.000627422
-0.00520511
0.000608139
-0.00528514
0.000575813
-0.00536267
0.000550183
-0.00543391
0.000518431
-0.00550516
0.00049573
-0.00557061
0.000467094
-0.00563534
0.000443845
-0.00569261
0.000414849
-0.00574677
0.000388035
-0.00579715
0.000363396
-0.00584516
0.000336614
-0.00588531
0.000305556
-0.0059239
0.00027971
-0.00595605
0.000247065
-0.00598558
0.000223844
-0.00601161
0.000196139
-0.00603205
0.000167243
-0.00304602
1.28914e-05
-0.00305715
1.11302e-05
-0.0030666
9.44607e-06
-0.00307417
7.576e-06
-0.00307951
5.33434e-06
-0.00308224
2.72898e-06
-0.00308321
9.80721e-07
-0.0030821
-1.11203e-06
-0.003079
-3.09756e-06
-0.00307349
-5.50569e-06
-0.00306611
-7.38333e-06
-0.00305669
-9.41948e-06
-0.00304525
-1.14324e-05
-0.00303176
-1.34955e-05
-0.0030165
-1.5251e-05
-0.00299941
-1.70867e-05
-0.00298031
-1.91015e-05
-0.00295917
-2.11377e-05
-0.00293634
-2.28301e-05
-0.00291164
-2.46986e-05
-0.00288515
-2.64803e-05
-0.00285706
-2.80927e-05
-0.00282723
-2.98265e-05
-0.00279558
-3.1648e-05
-0.00276233
-3.32508e-05
-0.00272765
-3.46731e-05
-0.00269132
-3.63242e-05
-0.00265335
-3.79691e-05
-0.00261385
-3.94972e-05
-0.00257298
-4.08685e-05
-0.00253063
-4.23494e-05
-0.00248684
-4.3786e-05
-0.00244181
-4.50246e-05
-0.00239548
-4.63298e-05
-0.00234783
-4.76493e-05
-0.00229902
-4.8801e-05
-0.00224913
-4.98858e-05
-0.00219813
-5.10035e-05
-0.00214593
-5.2194e-05
-0.0020927
-5.32205e-05
-0.00203859
-5.4107e-05
-0.00198356
-5.50323e-05
-0.00192761
-5.59439e-05
-0.00187092
-5.66878e-05
-0.00181334
-5.75764e-05
-0.00175496
-5.83784e-05
-0.00169595
-5.90016e-05
-0.00163641
-5.95403e-05
-0.00157621
-6.01986e-05
-0.00151545
-6.07566e-05
-0.00145425
-6.11958e-05
-0.00139273
-6.15212e-05
-0.0013307
-6.20287e-05
-0.00126845
-6.22421e-05
-0.00120598
-6.24695e-05
-0.00114349
-6.24867e-05
-0.00108072
-6.27658e-05
-0.00101791
-6.28092e-05
-0.000955235
-6.26745e-05
-0.000892768
-6.24649e-05
-6.22182e-05
-0.000830548
-0.00331277
2.7585e-05
-0.003323
2.13581e-05
-0.00333119
1.76404e-05
-0.00333718
1.35566e-05
-0.00334305
1.12088e-05
-0.00334476
4.43549e-06
-0.00334491
1.13302e-06
-0.00334126
-4.76321e-06
-0.00333695
-7.40366e-06
-0.00332908
-1.33693e-05
-0.0033194
-1.70637e-05
-0.0033074
-2.14257e-05
-0.00329344
-2.53832e-05
-0.00327759
-2.9349e-05
-0.00325927
-3.35666e-05
-0.00323892
-3.7437e-05
-0.00321644
-4.15732e-05
-0.00319203
-4.55498e-05
-0.0031654
-4.94607e-05
-0.00313684
-5.32537e-05
-0.00310653
-5.67942e-05
-0.00307402
-6.06016e-05
-0.0030396
-6.42441e-05
-0.00300344
-6.78052e-05
-0.00296543
-7.12506e-05
-0.00292563
-7.4478e-05
-0.00288402
-7.79308e-05
-0.00284091
-8.10719e-05
-0.00279614
-8.42654e-05
-0.00274955
-8.7457e-05
-0.00270154
-9.03607e-05
-0.00265214
-9.31782e-05
-0.00260108
-9.60825e-05
-0.0025486
-9.88096e-05
-0.0024949
-0.000101349
-0.00243972
-0.000103983
-0.00238325
-0.000106347
-0.00232554
-0.00010871
-0.00226674
-0.000110995
-0.00220677
-0.000113185
-0.00214552
-0.000115356
-0.00208337
-0.000117182
-0.00202026
-0.000119048
-0.00195609
-0.000120853
-0.00189111
-0.000122561
-0.00182525
-0.000124232
-0.00175865
-0.000125605
-0.00169113
-0.000127057
-0.00162304
-0.000128283
-0.00155437
-0.000129428
-0.00148513
-0.00013043
-0.00141555
-0.000131102
-0.001345
-0.000132572
-0.00127471
-0.000132532
-0.0012035
-0.000133677
-0.00113232
-0.000133668
-0.00106034
-0.000134737
-0.00098899
-0.000134159
-0.0009176
-0.000134063
-0.000846236
-0.000133827
-0.000133993
-0.00077446
-0.0036052
4.10489e-05
-0.00361868
3.48387e-05
-0.00362775
2.67134e-05
-0.00363457
2.03764e-05
-0.00363714
1.37721e-05
-0.00363986
7.15817e-06
-0.00363815
-5.71118e-07
-0.00363439
-8.52322e-06
-0.0036283
-1.34997e-05
-0.00362059
-2.10707e-05
-0.00361042
-2.72327e-05
-0.00359656
-3.52908e-05
-0.00358089
-4.10465e-05
-0.00356266
-4.75774e-05
-0.00354214
-5.40852e-05
-0.00351923
-6.0353e-05
-0.00349415
-6.66482e-05
-0.00346688
-7.2822e-05
-0.00343735
-7.89839e-05
-0.00340587
-8.47302e-05
-0.0033719
-9.07616e-05
-0.00333604
-9.64674e-05
-0.00329814
-0.000102136
-0.00325826
-0.000107689
-0.00321632
-0.000113185
-0.00317239
-0.000118406
-0.00312665
-0.000123668
-0.00307902
-0.000128704
-0.00302943
-0.000133846
-0.00297843
-0.000138463
-0.00292555
-0.000143238
-0.00287088
-0.000147843
-0.00281493
-0.000152034
-0.00275728
-0.00015645
-0.0026981
-0.000160533
-0.00263751
-0.000164569
-0.00257547
-0.00016838
-0.00251203
-0.000172155
-0.00244731
-0.000175713
-0.00238136
-0.000179131
-0.00231435
-0.000182366
-0.00224594
-0.000185581
-0.00217661
-0.000188383
-0.0021062
-0.000191257
-0.00203485
-0.000193909
-0.00196263
-0.000196452
-0.00188949
-0.000198746
-0.00181555
-0.000200989
-0.0017408
-0.000203031
-0.0016657
-0.000204523
-0.00158934
-0.000206795
-0.00151239
-0.000208042
-0.00143533
-0.000209636
-0.00135791
-0.000209952
-0.00128022
-0.000211367
-0.00120163
-0.000212253
-0.00112364
-0.000212724
-0.00104498
-0.000212823
-0.000966355
-0.000212682
-0.000887342
-0.000212839
-0.000212348
-0.000808986
-0.00393709
5.73679e-05
-0.00394928
4.70303e-05
-0.0039592
3.66397e-05
-0.00396488
2.60554e-05
-0.00396838
1.72693e-05
-0.00396935
8.13116e-06
-0.00396619
-3.72862e-06
-0.00396303
-1.16882e-05
-0.00395587
-2.06566e-05
-0.00394662
-3.03228e-05
-0.00393313
-4.07205e-05
-0.00391848
-4.99439e-05
-0.00390129
-5.8229e-05
-0.00388071
-6.81615e-05
-0.00385794
-7.68451e-05
-0.00383265
-8.56438e-05
-0.00380487
-9.44286e-05
-0.00377457
-0.000103122
-0.00374205
-0.0001115
-0.00370687
-0.000119913
-0.00366975
-0.000127875
-0.00363013
-0.00013609
-0.00358843
-0.000143834
-0.00354452
-0.000151599
-0.00349859
-0.000159111
-0.0034503
-0.000166698
-0.00339999
-0.000173973
-0.00334775
-0.000180939
-0.00329372
-0.000187873
-0.00323746
-0.000194726
-0.00317952
-0.000201178
-0.00311994
-0.000207421
-0.00305834
-0.000213633
-0.00299522
-0.00021956
-0.00293052
-0.000225232
-0.00286427
-0.000230821
-0.00279628
-0.000236366
-0.00272692
-0.000241511
-0.00265615
-0.000246484
-0.00258413
-0.00025115
-0.00251063
-0.00025586
-0.00243617
-0.000260041
-0.00236033
-0.000264225
-0.00228349
-0.000268092
-0.00220555
-0.000271851
-0.00212658
-0.000275423
-0.00204666
-0.000278663
-0.00196603
-0.000281613
-0.00188424
-0.000284817
-0.00180175
-0.000287017
-0.00171921
-0.000289333
-0.00163537
-0.000291873
-0.00155119
-0.000293816
-0.00146596
-0.000295177
-0.00138123
-0.000296104
-0.0012957
-0.000297782
-0.00121008
-0.000298335
-0.00112452
-0.000298379
-0.00103848
-0.000298725
-0.000952639
-0.000298679
-0.000298452
-0.000866534
-0.00429733
7.24921e-05
-0.00430828
5.79813e-05
-0.004319
4.73665e-05
-0.00432555
3.2609e-05
-0.0043279
1.9617e-05
-0.00432803
8.26718e-06
-0.00432809
-3.67079e-06
-0.00432182
-1.7954e-05
-0.00431347
-2.90111e-05
-0.00430118
-4.26143e-05
-0.00428681
-5.50835e-05
-0.00427028
-6.64773e-05
-0.00424973
-7.87792e-05
-0.00422772
-9.01659e-05
-0.00420387
-0.000100692
-0.00417502
-0.000114492
-0.00414426
-0.000125186
-0.00411084
-0.00013654
-0.00407475
-0.000147595
-0.00403631
-0.00015835
-0.00399523
-0.000168951
-0.00395206
-0.000179258
-0.00390631
-0.000189584
-0.00385814
-0.000199769
-0.00380741
-0.000209839
-0.00375472
-0.000219392
-0.00369974
-0.000228946
-0.00364246
-0.000238218
-0.00358311
-0.000247223
-0.00352184
-0.000255998
-0.00345844
-0.000264578
-0.00339303
-0.000272828
-0.00332589
-0.000280773
-0.00325699
-0.000288452
-0.00318622
-0.000295998
-0.00311366
-0.000303385
-0.00303971
-0.000310316
-0.00296393
-0.000317287
-0.00288662
-0.000323796
-0.00280772
-0.000330038
-0.00272768
-0.000335899
-0.00264623
-0.000341496
-0.00256365
-0.000346803
-0.00247982
-0.000351918
-0.00239487
-0.000356801
-0.00230919
-0.000361097
-0.00222133
-0.000366522
-0.00213301
-0.000369928
-0.00204448
-0.000373342
-0.00195457
-0.00037693
-0.00186419
-0.000379713
-0.00177347
-0.000382593
-0.00168166
-0.000385616
-0.00158957
-0.00038727
-0.00149586
-0.000389806
-0.00140278
-0.000390869
-0.00130966
-0.00039145
-0.00121609
-0.000391953
-0.00112212
-0.000392691
-0.00102895
-0.00039185
-0.000391888
-0.000935509
-0.00468737
8.83965e-05
-0.00470109
7.17076e-05
-0.00470866
5.49366e-05
-0.00471603
3.99899e-05
-0.00472123
2.48157e-05
-0.0047203
7.33989e-06
-0.00471532
-8.64566e-06
-0.00471006
-2.32128e-05
-0.00469888
-4.01985e-05
-0.00468751
-5.39748e-05
-0.00467212
-7.04725e-05
-0.00465274
-8.58606e-05
-0.00463125
-0.000100263
-0.00460584
-0.000115571
-0.00457644
-0.000130097
-0.00454514
-0.000145787
-0.00451126
-0.000159061
-0.00447491
-0.000172891
-0.00443523
-0.00018727
-0.00439281
-0.000200775
-0.00434792
-0.000213842
-0.00430012
-0.000227052
-0.00424983
-0.000239874
-0.00419705
-0.000252549
-0.00414181
-0.000265071
-0.00408388
-0.000277321
-0.00402376
-0.000289069
-0.00396116
-0.000300813
-0.00389628
-0.000312109
-0.00382934
-0.000322933
-0.00376006
-0.000333854
-0.00368865
-0.000344239
-0.00361533
-0.000354086
-0.00354019
-0.000363595
-0.00346292
-0.000373264
-0.00338399
-0.000382316
-0.00330302
-0.000391279
-0.00322034
-0.000399973
-0.00313609
-0.000408037
-0.00305034
-0.00041579
-0.00296285
-0.000423385
-0.00287413
-0.00043021
-0.00278406
-0.000436878
-0.00269245
-0.00044352
-0.00259994
-0.000449307
-0.0025063
-0.000454735
-0.00241218
-0.000460647
-0.00231638
-0.000465726
-0.00221933
-0.000470393
-0.00212178
-0.00047447
-0.00202304
-0.000478457
-0.00192327
-0.000482357
-0.00182388
-0.000485007
-0.00172292
-0.000488233
-0.0016223
-0.000490425
-0.00152106
-0.000492109
-0.00141854
-0.000493965
-0.0013164
-0.000494092
-0.00121493
-0.000494157
-0.00111286
-0.000493917
-0.000493675
-0.00101108
-0.00510948
0.000104969
-0.00512387
8.6093e-05
-0.00513417
6.52371e-05
-0.00514035
4.61663e-05
-0.00514047
2.4941e-05
-0.00514049
7.36622e-06
-0.00513639
-1.27431e-05
-0.00512819
-3.14171e-05
-0.00511792
-5.04606e-05
-0.00510188
-7.00172e-05
-0.00508381
-8.85371e-05
-0.00506355
-0.000106119
-0.00503741
-0.000126395
-0.00500927
-0.000143708
-0.00497918
-0.000160194
-0.00494512
-0.000179847
-0.00490704
-0.000197139
-0.00486613
-0.000213792
-0.00482207
-0.000231337
-0.00477613
-0.000246713
-0.00472651
-0.000263457
-0.00467439
-0.000279175
-0.00461938
-0.000294875
-0.00456148
-0.000310452
-0.0045008
-0.000325751
-0.00443748
-0.000340638
-0.00437147
-0.000355079
-0.0043032
-0.000369082
-0.00423257
-0.000382732
-0.00415938
-0.000396122
-0.00408375
-0.000409484
-0.00400599
-0.000421994
-0.00392587
-0.000434207
-0.00384394
-0.00044552
-0.00376002
-0.000457186
-0.00367397
-0.00046836
-0.00358593
-0.000479318
-0.00349584
-0.000490066
-0.00340394
-0.000499931
-0.00331028
-0.000509451
-0.0032151
-0.00051856
-0.00311797
-0.000527341
-0.00302005
-0.000534797
-0.00292084
-0.000542725
-0.00282063
-0.000549509
-0.00271845
-0.000556914
-0.00261492
-0.000564174
-0.00251076
-0.000569891
-0.00240636
-0.00057479
-0.00229976
-0.000581067
-0.00219273
-0.000585487
-0.00208553
-0.000589551
-0.0019765
-0.000594036
-0.00186739
-0.000597349
-0.00175717
-0.000600643
-0.0016465
-0.000602775
-0.00153632
-0.000604145
-0.0014255
-0.000604911
-0.00131429
-0.000605368
-0.00120324
-0.000604967
-0.000604473
-0.00109244
-0.00556366
0.00012208
-0.00557645
9.88706e-05
-0.00558544
7.42233e-05
-0.0055921
5.28244e-05
-0.00559498
2.78185e-05
-0.00559205
4.43532e-06
-0.00558713
-1.76636e-05
-0.00557583
-4.27063e-05
-0.00556254
-6.37466e-05
-0.00554588
-8.66806e-05
-0.00552712
-0.000107295
-0.00550244
-0.000130793
-0.00547541
-0.000153418
-0.0054447
-0.000174418
-0.00540867
-0.00019623
-0.005372
-0.00021651
-0.00533145
-0.000237686
-0.00528493
-0.000260314
-0.00523796
-0.000278308
-0.00518606
-0.000298607
-0.00513096
-0.000318554
-0.0050739
-0.000336236
-0.00501407
-0.000354708
-0.00495055
-0.000373972
-0.00488412
-0.000392172
-0.00481475
-0.000410014
-0.00474263
-0.000427189
-0.0046679
-0.000443813
-0.00459064
-0.000459994
-0.00451089
-0.000475868
-0.00442827
-0.000492099
-0.00434366
-0.000506607
-0.0042564
-0.00052146
-0.00416778
-0.00053414
-0.00407649
-0.000548477
-0.003983
-0.00056185
-0.00388741
-0.000574907
-0.00378928
-0.000588192
-0.00368892
-0.000600284
-0.00358711
-0.000611264
-0.00348369
-0.000621973
-0.00337848
-0.000632554
-0.0032711
-0.000642174
-0.00316388
-0.00064994
-0.00305448
-0.000658909
-0.0029429
-0.000668494
-0.00283204
-0.000675029
-0.00271841
-0.000683519
-0.00260456
-0.000688647
-0.00248978
-0.00069584
-0.00237298
-0.000702291
-0.0022564
-0.000706126
-0.00213852
-0.00071191
-0.00202078
-0.000715093
-0.00190064
-0.000720781
-0.00178113
-0.000722285
-0.00166001
-0.000725264
-0.00153962
-0.000725296
-0.00141902
-0.000725969
-0.00129897
-0.000725016
-0.000725198
-0.00117825
-0.00604966
0.00013968
-0.0060621
0.000111307
-0.00607145
8.35595e-05
-0.00607409
5.54567e-05
-0.00607548
2.92002e-05
-0.00607317
2.12729e-06
-0.00606637
-2.44689e-05
-0.0060548
-5.42773e-05
-0.00603806
-8.04806e-05
-0.0060207
-0.000104034
-0.00599729
-0.0001307
-0.00597035
-0.000157729
-0.00594103
-0.000182742
-0.00590487
-0.000210577
-0.0058695
-0.000231599
-0.00582689
-0.000259126
-0.00577995
-0.000284623
-0.0057317
-0.000308561
-0.00567682
-0.000333183
-0.00562101
-0.000354412
-0.0055626
-0.000376968
-0.00549843
-0.000400398
-0.00543431
-0.000418832
-0.00536445
-0.000443831
-0.00529105
-0.000465579
-0.00521609
-0.000484965
-0.00513631
-0.000506971
-0.00505557
-0.000524549
-0.00496935
-0.000546207
-0.00488455
-0.000560667
-0.00479237
-0.000584281
-0.00470181
-0.000597162
-0.00460513
-0.000618137
-0.00451075
-0.000628522
-0.00441199
-0.000647236
-0.00431018
-0.000663661
-0.00420769
-0.000677387
-0.00410022
-0.000695667
-0.00399068
-0.000709819
-0.00388169
-0.000720249
-0.00376733
-0.000736331
-0.00365159
-0.000748298
-0.00353714
-0.000756625
-0.00341785
-0.000769222
-0.00330264
-0.000774122
-0.00317962
-0.000791512
-0.00306038
-0.000794264
-0.00293518
-0.000808721
-0.00281417
-0.000809653
-0.00268984
-0.000820166
-0.00256265
-0.000829479
-0.00243862
-0.000830155
-0.00230927
-0.000841256
-0.0021833
-0.000841067
-0.00205037
-0.000853704
-0.0019225
-0.00085015
-0.00178824
-0.000859527
-0.0016617
-0.000851836
-0.0015281
-0.000859569
-0.00140032
-0.000852788
-0.00126599
-0.000859529
-0.000768147
-6.23995e-05
-0.000706109
-6.20365e-05
-0.000644453
-6.16541e-05
-0.000583222
-6.12302e-05
-0.000522483
-6.07377e-05
-0.000462283
-6.01991e-05
-0.000402891
-5.93918e-05
-0.000344367
-5.85228e-05
-0.000286939
-5.74277e-05
-0.000230761
-5.61773e-05
-0.000175403
-5.53579e-05
-0.000118842
-5.65614e-05
-6.05826e-05
-5.82591e-05
-1.1599e-06
-5.9423e-05
5.68213e-05
-5.79816e-05
0.000111809
-5.49887e-05
0.000164681
-5.28724e-05
0.000215909
-5.12285e-05
0.000265599
-4.96913e-05
0.000313731
-4.81326e-05
0.000360311
-4.65812e-05
0.000405283
-4.49732e-05
0.000448568
-4.32867e-05
0.000490032
-4.14654e-05
0.000529618
-3.95872e-05
0.000567263
-3.76457e-05
0.000602847
-3.55853e-05
0.000636237
-3.33918e-05
0.000667319
-3.10833e-05
0.000696001
-2.86838e-05
0.000722085
-2.6085e-05
0.00074541
-2.33274e-05
0.000765856
-2.0447e-05
0.000783174
-1.73198e-05
0.000797146
-1.39743e-05
0.000807578
-1.04334e-05
0.000814198
-6.62113e-06
0.000816843
-2.64745e-06
0.000816057
7.84694e-07
0.000811756
4.29895e-06
0.000803946
7.80919e-06
0.000792013
1.19308e-05
0.000775435
1.65771e-05
0.000753778
2.16553e-05
0.000726406
2.73701e-05
0.000692691
3.37142e-05
0.000652008
4.06819e-05
0.000603615
4.83912e-05
0.000546655
5.69591e-05
0.000480361
6.62926e-05
0.000404013
7.63471e-05
0.000317052
8.696e-05
0.00021888
9.81708e-05
0.000108564
0.000110315
-1.96981e-05
0.000128262
-0.000159943
0.000140244
-0.000289128
0.000129184
-0.000395764
0.000106635
-0.00047629
8.05253e-05
-0.000536463
6.01725e-05
5.04615e-05
-0.000586925
-0.000703308
-0.000133551
-0.000631865
-0.000133478
-0.000560647
-0.000132871
-0.000489691
-0.000132185
-0.00041935
-0.000131077
-0.000349151
-0.000130397
-0.000279501
-0.000129041
-0.000210271
-0.000127752
-0.0001418
-0.000125899
-7.39291e-05
-0.000124048
-5.3464e-06
-0.00012394
6.35179e-05
-0.000125426
0.000130938
-0.00012568
0.00019714
-0.000125625
0.000262752
-0.000123593
0.000327829
-0.000120066
0.000391736
-0.00011678
0.000454301
-0.000113794
0.000515469
-0.00011086
0.00057526
-0.000107924
0.000633674
-0.000104996
0.000690562
-0.000101862
0.0007459
-9.86254e-05
0.00079968
-9.52466e-05
0.000851796
-9.17043e-05
0.000902186
-8.80371e-05
0.000950717
-8.41179e-05
0.00099741
-8.00853e-05
0.00104211
-7.57888e-05
0.00108465
-7.12248e-05
0.00112505
-6.6484e-05