/*--------------------------------*- C++ -*----------------------------------*\
| =========                 |                                                 |
| \\      /  F ield         | OpenFOAM: The Open Source CFD Toolbox           |
|  \\    /   O peration     | Version:  2.3.1                                 |
|   \\  /    A nd           | Web:      www.OpenFOAM.org                      |
|    \\/     M anipulation  |                                                 |
\*---------------------------------------------------------------------------*/
FoamFile
{
    version     2.0;
    format      ascii;
    class       volVectorField;
    location    "0.28";
    object      U;
}
// * * * * * * * * * * * * * * * * * * * * * * * * * * * * * * * * * * * * * //

dimensions      [0 1 -1 0 0 0 0];

internalField   nonuniform List<vector> 
9648
(
(0.160062 -4.76105 -1.36163e-22)
(0.281103 -4.73391 -6.92242e-23)
(0.401719 -4.70633 0)
(0.52315 -4.68318 0)
(0.64512 -4.66525 1.03615e-20)
(0.769291 -4.65486 1.63729e-20)
(0.898308 -4.65586 -2.94922e-20)
(1.03412 -4.66923 -1.36555e-20)
(1.17698 -4.6966 1.36165e-20)
(1.32817 -4.74013 4.13644e-20)
(1.48994 -4.80121 -4.11737e-20)
(1.66413 -4.88061 -5.92098e-20)
(1.85267 -4.97873 3.14527e-19)
(2.05752 -5.09528 8.11196e-20)
(2.28027 -5.22923 -7.60599e-19)
(2.52207 -5.37911 0)
(2.78396 -5.54298 0)
(3.06667 -5.71864 1.3722e-19)
(3.3708 -5.90336 4.41602e-19)
(3.69631 -6.09426 -1.26846e-18)
(4.04315 -6.28868 -2.19074e-20)
(4.4111 -6.48355 3.48588e-19)
(4.79935 -6.676 4.10954e-19)
(5.20717 -6.86331 -1.86276e-18)
(5.63357 -7.04282 0)
(6.07748 -7.21196 1.11097e-18)
(6.53753 -7.36825 -1.16294e-18)
(7.01229 -7.50968 0)
(7.50036 -7.63414 0)
(8.00012 -7.74012 -7.03252e-19)
(8.51013 -7.82602 -1.55301e-18)
(9.02858 -7.8905 2.43663e-18)
(9.55385 -7.93251 0)
(10.084 -7.95079 0)
(10.6172 -7.94465 1.85994e-18)
(11.1518 -7.91325 -1.99895e-18)
(11.6858 -7.85636 0)
(12.2181 -7.77383 4.28259e-18)
(12.7468 -7.66525 1.15352e-18)
(13.2706 -7.53063 -3.41415e-18)
(13.7875 -7.37001 6.43812e-20)
(14.296 -7.18396 2.42516e-18)
(14.7944 -6.97243 -3.21855e-18)
(15.2804 -6.73568 6.47253e-19)
(15.7526 -6.47439 0)
(16.2098 -6.18871 0)
(16.6507 -5.87951 4.86835e-18)
(17.0743 -5.54776 7.12345e-19)
(17.4803 -5.19422 -2.19987e-18)
(17.8675 -4.81868 -7.40285e-19)
(18.2334 -4.42278 -7.6903e-19)
(18.5769 -4.00843 7.64366e-19)
(18.8976 -3.57723 3.94372e-19)
(19.1946 -3.12993 -3.92294e-19)
(19.4667 -2.66828 2.00055e-18)
(19.7137 -2.19336 -1.96917e-18)
(19.9345 -1.70662 -2.18518e-20)
(20.1289 -1.20926 0)
(20.2963 -0.702754 -3.99408e-19)
(20.4364 -0.188737 -5.16153e-20)
(20.549 0.331598 -4.89163e-20)
(-0.0608442 -2.47499 1.96701e-22)
(0.00715813 -2.48576 0)
(0.0781768 -2.50759 0)
(0.153479 -2.54689 5.59144e-21)
(0.235562 -2.60756 -6.19865e-21)
(0.327413 -2.69066 -3.85564e-20)
(0.430569 -2.79403 0)
(0.547176 -2.91687 0)
(0.678137 -3.06038 -4.67044e-20)
(0.824203 -3.22347 0)
(0.986796 -3.40522 -1.12004e-19)
(1.16673 -3.60404 8.81833e-20)
(1.36488 -3.81855 -4.76255e-20)
(1.58214 -4.04696 0)
(1.81921 -4.28726 2.95269e-19)
(2.07636 -4.53727 1.74449e-19)
(2.35384 -4.7947 -1.71592e-19)
(2.65177 -5.05725 2.22094e-19)
(2.97029 -5.32236 -6.7612e-19)
(3.30911 -5.58756 5.36834e-19)
(3.66788 -5.85049 -5.9329e-19)
(4.04629 -6.10864 -3.1934e-19)
(4.4435 -6.35972 -3.27053e-19)
(4.85871 -6.60144 1.12154e-18)
(5.29098 -6.83163 3.87851e-19)
(5.73933 -7.04815 4.59374e-19)
(6.20258 -7.24898 -4.07599e-19)
(6.67938 -7.43238 0)
(7.1685 -7.59662 0)
(7.6684 -7.74047 0)
(8.17783 -7.86259 0)
(8.69519 -7.96189 0)
(9.21904 -8.03745 0)
(9.74783 -8.08828 0)
(10.2796 -8.11373 -8.32829e-19)
(10.8126 -8.11311 7.57046e-19)
(11.3451 -8.0864 8.32997e-19)
(11.8755 -8.03329 -4.23087e-18)
(12.4025 -7.95352 -8.96551e-19)
(12.9247 -7.84678 2.75688e-18)
(13.4407 -7.71313 1.93279e-18)
(13.9493 -7.55326 -1.99324e-18)
(14.4485 -7.36703 9.51069e-19)
(14.9364 -7.15515 1.00338e-18)
(15.4112 -6.91819 -1.06447e-18)
(15.8712 -6.65643 1.05528e-18)
(16.3151 -6.37093 -2.2598e-18)
(16.7418 -6.06271 0)
(17.1502 -5.73246 -5.766e-19)
(17.54 -5.38015 1.15851e-18)
(17.9101 -5.00698 -5.8206e-19)
(18.2591 -4.61447 0)
(18.5861 -4.20407 1.19474e-18)
(18.89 -3.77663 0)
(19.17 -3.33364 0)
(19.4254 -2.87628 2.82744e-18)
(19.6553 -2.40586 -1.27372e-18)
(19.8592 -1.92403 -3.09666e-19)
(20.0369 -1.43164 3.26763e-19)
(20.1876 -0.930398 0)
(20.3109 -0.421614 8.20958e-20)
(0.0602949 -1.43567 -3.48552e-22)
(0.117787 -1.49107 0)
(0.182104 -1.56835 -2.54964e-22)
(0.253931 -1.66583 -3.69053e-22)
(0.335463 -1.782 0)
(0.428872 -1.91745 3.27428e-20)
(0.535248 -2.07288 2.22483e-20)
(0.656042 -2.24723 0)
(0.793175 -2.43994 2.45627e-21)
(0.947965 -2.64944 4.7709e-20)
(1.12128 -2.87457 9.52261e-20)
(1.3137 -3.11336 -3.2976e-20)
(1.5257 -3.36397 0)
(1.75759 -3.62427 0)
(2.0096 -3.89214 2.24264e-19)
(2.28163 -4.16545 -1.42225e-19)
(2.57361 -4.44197 -1.52276e-19)
(2.88536 -4.71948 0)
(3.21662 -4.99574 5.84261e-19)
(3.56701 -5.26855 -6.06005e-19)
(3.93604 -5.53586 -4.52144e-19)
(4.32313 -5.79558 -4.97051e-19)
(4.72749 -6.04572 0)
(5.14822 -6.28434 -8.88023e-19)
(5.58437 -6.50952 -3.11887e-19)
(6.03494 -6.7194 3.69338e-19)
(6.49877 -6.91226 4.07175e-19)
(6.97459 -7.0866 0)
(7.46106 -7.24108 0)
(7.95683 -7.37461 0)
(8.46053 -7.48605 0)
(8.97085 -7.57445 0)
(9.48653 -7.63883 0)
(10.006 -7.67837 0)
(10.5277 -7.69259 -1.82919e-18)
(11.0496 -7.68136 6.07693e-19)
(11.5699 -7.64494 -6.68696e-19)
(12.0871 -7.58323 3.36461e-18)
(12.5993 -7.49566 0)
(13.1055 -7.38171 1.42686e-18)
(13.6047 -7.24117 1.47389e-18)
(14.0954 -7.0745 7.29276e-19)
(14.5766 -6.88198 -8.36245e-19)
(15.0461 -6.66426 -1.60791e-18)
(15.5027 -6.42209 2.50437e-18)
(15.9448 -6.15623 -8.47404e-19)
(16.3708 -5.86804 -1.7275e-18)
(16.7797 -5.55849 0)
(17.17 -5.22839 0)
(17.5407 -4.87843 -4.70685e-19)
(17.8912 -4.50925 -4.59956e-19)
(18.2206 -4.12181 -9.40541e-19)
(18.5283 -3.71734 -9.8396e-19)
(18.8132 -3.29737 0)
(19.0746 -2.86276 -9.72203e-19)
(19.3116 -2.41525 -1.01264e-18)
(19.524 -1.95558 0)
(19.7109 -1.48596 1.63987e-20)
(19.8717 -1.00667 0)
(20.0063 -0.519468 0)
(20.1146 -0.0253964 -6.25921e-20)
(0.040225 -0.945648 7.18472e-22)
(0.10387 -1.04049 -1.00125e-21)
(0.178425 -1.15362 3.55975e-22)
(0.264407 -1.28456 -1.88716e-21)
(0.361726 -1.43301 0)
(0.471438 -1.59903 -1.35853e-20)
(0.595028 -1.78253 -1.91667e-20)
(0.733722 -1.98284 0)
(0.888864 -2.19896 3.23533e-21)
(1.06121 -2.42964 -4.07151e-20)
(1.25155 -2.67338 9.14308e-20)
(1.46017 -2.92843 1.10382e-19)
(1.68734 -3.19276 0)
(1.93324 -3.46431 -8.65318e-20)
(2.19803 -3.74106 -1.83393e-19)
(2.48144 -4.021 -9.75644e-20)
(2.78333 -4.30204 3.74488e-19)
(3.10344 -4.58211 -2.70196e-19)
(3.4414 -4.85919 3.02361e-19)
(3.79686 -5.13127 5.13982e-19)
(4.16939 -5.39656 7.42745e-19)
(4.55826 -5.65326 4.18045e-19)
(4.96283 -5.89955 2.01127e-19)
(5.38216 -6.13374 7.28539e-19)
(5.81539 -6.35401 2.39175e-19)
(6.26155 -6.55871 2.71481e-19)
(6.71953 -6.74634 3.19277e-19)
(7.18829 -6.91559 -9.55455e-19)
(7.66658 -7.06539 6.84944e-19)
(8.15306 -7.19464 7.72259e-19)
(8.64656 -7.30232 -1.57793e-18)
(9.14559 -7.38733 8.05341e-19)
(9.6488 -7.44875 -8.61262e-19)
(10.1551 -7.48587 4.29079e-19)
(10.6629 -7.49834 4.7006e-19)
(11.1711 -7.48651 5.20817e-19)
(11.6785 -7.45036 -5.14351e-19)
(12.1829 -7.38971 -5.59361e-19)
(12.6829 -7.30416 -1.67397e-18)
(13.1758 -7.19284 -1.20491e-18)
(13.6601 -7.05633 -2.43966e-18)
(14.1351 -6.89502 -3.15648e-18)
(14.5992 -6.70884 1.29289e-18)
(15.0525 -6.49815 3.01546e-20)
(15.4938 -6.26293 -7.24012e-19)
(15.9219 -6.00433 -7.09643e-19)
(16.3355 -5.72415 4.29073e-18)
(16.7325 -5.42364 -7.1929e-19)
(17.1114 -5.10354 0)
(17.471 -4.76423 0)
(17.8105 -4.40619 -7.21149e-19)
(18.1295 -4.03052 3.21362e-20)
(18.4274 -3.63833 7.72623e-19)
(18.7033 -3.23087 0)
(18.9566 -2.80952 8.22002e-19)
(19.1863 -2.37562 0)
(19.3919 -1.93035 0)
(19.5729 -1.47466 6.25478e-19)
(19.7288 -1.01011 1.9881e-19)
(19.8594 -0.538161 -2.02564e-19)
(19.9643 -0.0602805 1.03614e-19)
(0.134823 -0.706205 5.00085e-23)
(0.200571 -0.821438 8.73489e-22)
(0.280119 -0.95341 -1.48388e-21)
(0.373737 -1.10248 7.56162e-22)
(0.481165 -1.26854 -2.73768e-21)
(0.603266 -1.45114 5.48558e-21)
(0.740723 -1.64976 2.50126e-21)
(0.894254 -1.86337 -1.41205e-20)
(1.06486 -2.09097 4.22579e-20)
(1.25265 -2.33121 -6.10395e-20)
(1.45816 -2.58251 6.86845e-20)
(1.68114 -2.84315 -8.52872e-20)
(1.92181 -3.11105 -4.91654e-20)
(2.17996 -3.38426 0)
(2.45589 -3.66075 8.9548e-20)
(2.74901 -3.93883 8.59897e-20)
(3.05913 -4.21648 0)
(3.386 -4.49176 2.12043e-19)
(3.72906 -4.76284 0)
(4.08812 -5.02779 -2.7967e-19)
(4.46279 -5.28512 3.04695e-19)
(4.85224 -5.53324 1.04091e-20)
(5.25595 -5.77046 -1.75848e-20)
(5.67287 -5.99531 2.96581e-20)
(6.10222 -6.20602 -8.50816e-19)
(6.5431 -6.40114 -4.87042e-19)
(6.99441 -6.57937 1.00197e-18)
(7.45538 -6.73945 1.08536e-18)
(7.92479 -6.88047 -5.8683e-19)
(8.40157 -7.00132 0)
(8.88444 -7.10096 0)
(9.37182 -7.17871 0)
(9.86238 -7.23372 7.39305e-19)
(10.3545 -7.2654 -3.0501e-18)
(10.8476 -7.27377 1.59547e-18)
(11.3405 -7.25813 -8.11197e-19)
(11.8329 -7.21805 -1.7462e-18)
(12.3238 -7.15333 1.77083e-18)
(12.8101 -7.06328 3.99076e-20)
(13.29 -6.94928 -9.95496e-19)
(13.761 -6.81251 1.02624e-18)
(14.2203 -6.65362 1.06091e-18)
(14.6681 -6.47213 0)
(15.1033 -6.26616 -1.07352e-18)
(15.5265 -6.03536 0)
(15.9381 -5.7808 -1.71523e-18)
(16.3365 -5.50498 5.29812e-19)
(16.72 -5.20986 0)
(17.0859 -4.89612 -6.2297e-19)
(17.4324 -4.56426 -1.42607e-20)
(17.7591 -4.21442 1.32525e-18)
(18.0655 -3.8476 -6.2955e-19)
(18.3512 -3.46492 -3.49463e-19)
(18.6158 -3.06756 6.40563e-19)
(18.8583 -2.65696 -4.67446e-21)
(19.078 -2.23413 3.33718e-19)
(19.2741 -1.80039 1.61141e-19)
(19.4462 -1.35669 3.39853e-19)
(19.5942 -0.904258 -8.53472e-19)
(19.7175 -0.444611 3.42638e-19)
(19.816 0.0206957 -4.38259e-20)
(0.225944 -0.581965 -3.57931e-22)
(0.305024 -0.711754 0)
(0.39877 -0.857392 2.39666e-21)
(0.507678 -1.01933 0)
(0.630879 -1.19724 5.6067e-22)
(0.769463 -1.39029 7.20946e-21)
(0.923682 -1.59787 8.63197e-21)
(1.094 -1.81866 2.74004e-20)
(1.28135 -2.05157 3.95815e-21)
(1.48518 -2.29537 6.08549e-21)
(1.70613 -2.54838 1.23618e-21)
(1.94327 -2.80907 -3.24434e-20)
(2.19698 -3.07535 4.76318e-20)
(2.46637 -3.34524 -1.45145e-19)
(2.75248 -3.61678 1.23213e-19)
(3.05425 -3.88885 -8.72855e-21)
(3.37127 -4.15918 -1.5235e-19)
(3.70365 -4.4261 -1.83098e-19)
(4.05039 -4.68797 0)
(4.41155 -4.94281 2.17339e-19)
(4.78704 -5.18943 8.47048e-21)
(5.17557 -5.42657 -5.60947e-19)
(5.57718 -5.65248 -2.37047e-20)
(5.99036 -5.86615 -3.03178e-19)
(6.41442 -6.06568 1.06749e-18)
(6.84866 -6.24982 3.58304e-20)
(7.29186 -6.41742 -3.96238e-19)
(7.74362 -6.5671 -4.20073e-20)
(8.20274 -6.69826 0)
(8.66796 -6.80962 0)
(9.13886 -6.9004 0)
(9.61358 -6.97023 0)
(10.0906 -7.01839 0)
(10.5691 -7.04465 5.82952e-20)
(11.0468 -7.04854 -6.82422e-19)
(11.5228 -7.02941 -3.87165e-20)
(11.9975 -6.98536 3.38918e-20)
(12.4693 -6.91604 6.99179e-19)
(12.9391 -6.8221 1.60734e-18)
(13.4041 -6.7045 -2.42671e-18)
(13.8613 -6.56695 1.68682e-18)
(14.3087 -6.41031 -8.52972e-19)
(14.7407 -6.2329 0)
(15.1586 -6.03249 9.37975e-19)
(15.5632 -5.80701 0)
(15.9551 -5.55824 9.87074e-19)
(16.3367 -5.28855 -1.01152e-18)
(16.7045 -4.99998 4.74997e-19)
(17.0562 -4.69356 5.08181e-19)
(17.3893 -4.3697 -5.29743e-19)
(17.7025 -4.02872 3.81264e-20)
(17.9958 -3.67168 -1.02424e-20)
(18.269 -3.29931 1.07585e-18)
(18.5217 -2.91308 -1.10638e-18)
(18.7533 -2.5142 -5.45641e-19)
(18.9626 -2.104 -2.67124e-19)
(19.149 -1.68328 -8.49225e-19)
(19.3121 -1.25289 0)
(19.4519 -0.813977 5.73183e-19)
(19.5681 -0.36838 -1.47099e-19)
(19.6603 0.0826337 0)
(0.336975 -0.525412 0)
(0.431211 -0.665739 0)
(0.540937 -0.821606 -1.28833e-21)
(0.667558 -0.99318 8.39732e-22)
(0.808135 -1.17964 -2.10216e-21)
(0.964803 -1.37963 -1.15614e-20)
(1.13693 -1.59248 6.14278e-21)
(1.3243 -1.81654 -1.93804e-20)
(1.52916 -2.05097 -1.34319e-21)
(1.74875 -2.29458 5.07002e-20)
(1.98539 -2.54572 -9.33673e-20)
(2.23609 -2.80321 0)
(2.50255 -3.06467 0)
(2.78188 -3.32837 1.65184e-19)
(3.0777 -3.59184 1.05432e-19)
(3.38726 -3.85534 -2.32076e-19)
(3.70997 -4.11602 3.7601e-19)
(4.04714 -4.37234 1.56733e-19)
(4.3963 -4.62334 -3.13555e-19)
(4.75827 -4.86624 -1.89383e-19)
(5.13402 -5.10028 2.17219e-19)
(5.52034 -5.32506 -5.43052e-21)
(5.91925 -5.53802 0)
(6.32762 -5.73956 5.57569e-19)
(6.74528 -5.92701 -9.16787e-19)
(7.17217 -6.09913 3.0528e-19)
(7.60594 -6.2554 6.7377e-19)
(8.04785 -6.39358 -1.87056e-18)
(8.49561 -6.51411 3.80744e-19)
(8.94795 -6.61569 0)
(9.40553 -6.69667 0)
(9.8661 -6.75819 0)
(10.3292 -6.79862 5.1946e-19)
(10.7939 -6.81718 1.60735e-18)
(11.2577 -6.81557 -1.0851e-18)
(11.717 -6.7923 5.95354e-19)
(12.1718 -6.74458 6.53898e-19)
(12.623 -6.67369 -1.29539e-18)
(13.0694 -6.57674 0)
(13.5151 -6.45693 -1.33583e-18)
(13.9587 -6.31784 6.95496e-19)
(14.3925 -6.16017 3.16634e-20)
(14.8131 -5.98521 -2.70727e-20)
(15.2158 -5.78718 7.59596e-19)
(15.6009 -5.56654 3.05751e-20)
(15.9736 -5.32517 -2.4069e-18)
(16.3347 -5.06282 8.16041e-19)
(16.6847 -4.78258 -1.70132e-18)
(17.0207 -4.48381 0)
(17.3387 -4.16838 0)
(17.6379 -3.83612 1.79727e-18)
(17.9171 -3.48915 -4.29285e-19)
(18.1768 -3.12742 -9.29992e-19)
(18.4172 -2.75217 -4.46525e-19)
(18.6371 -2.36551 1.42554e-18)
(18.8354 -1.96841 7.18481e-19)
(19.0114 -1.56117 2.48169e-19)
(19.1645 -1.14495 -4.74064e-21)
(19.2954 -0.719905 -2.4828e-19)
(19.404 -0.288491 0)
(19.4895 0.147459 0)
(0.465135 -0.511966 3.94257e-22)
(0.57774 -0.659824 0)
(0.704594 -0.822888 0)
(0.85166 -1.00163 -7.30766e-22)
(1.00999 -1.19416 0)
(1.18572 -1.39826 4.1261e-21)
(1.37597 -1.6135 5.98754e-21)
(1.57937 -1.83775 -1.24044e-20)
(1.80298 -2.07088 0)
(2.03692 -2.3117 -3.03391e-20)
(2.29025 -2.55852 4.02547e-21)
(2.5529 -2.81089 0)
(2.83291 -3.06567 0)
(3.11917 -3.32167 -6.94979e-20)
(3.42505 -3.57397 7.58963e-20)
(3.74214 -3.82766 -9.48971e-20)
(4.06864 -4.07738 -1.08986e-19)
(4.41057 -4.32155 0)
(4.76078 -4.56136 1.40093e-19)
(5.12202 -4.79108 -2.9542e-19)
(5.49881 -5.01112 -3.30317e-19)
(5.88061 -5.22327 -3.86284e-19)
(6.27714 -5.42177 -3.39301e-20)
(6.67976 -5.61141 -4.88331e-19)
(7.08993 -5.78637 4.69001e-19)
(7.50953 -5.94575 5.22025e-19)
(7.9318 -6.0907 -5.93007e-19)
(8.36368 -6.21593 3.21945e-20)
(8.8004 -6.32574 4.2567e-20)
(9.23792 -6.41757 -6.80927e-19)
(9.68182 -6.48821 0)
(10.1265 -6.54175 -8.26882e-19)
(10.5725 -6.57314 1.64023e-18)
(11.0227 -6.5824 -4.45233e-20)
(11.473 -6.57382 9.59345e-19)
(11.9159 -6.54712 -9.54225e-19)
(12.3559 -6.49576 1.04056e-18)
(12.7845 -6.42358 1.08267e-18)
(13.2061 -6.32804 -2.14149e-18)
(13.6282 -6.2065 1.18453e-18)
(14.0492 -6.06522 1.16867e-18)
(14.4695 -5.90708 1.85421e-18)
(14.8753 -5.7307 -6.55739e-19)
(15.2646 -5.53173 0)
(15.6358 -5.31511 3.09584e-20)
(15.9869 -5.08264 7.0228e-19)
(16.328 -4.83021 -6.83115e-19)
(16.6567 -4.56017 7.37904e-19)
(16.9752 -4.26835 0)
(17.2767 -3.9623 0)
(17.5606 -3.63897 -4.04597e-20)
(17.8247 -3.30344 7.92767e-19)
(18.0697 -2.95165 0)
(18.2969 -2.58708 3.93384e-19)
(18.5049 -2.21374 3.96579e-19)
(18.6916 -1.83082 -8.07153e-19)
(18.8566 -1.43767 -3.9575e-19)
(18.9984 -1.03673 -2.10166e-19)
(19.1192 -0.625132 0)
(19.22 -0.209024 0)
(19.2982 0.210382 2.51394e-20)
(0.610888 -0.525601 -1.10747e-21)
(0.748157 -0.677595 2.19499e-21)
(0.891354 -0.843298 -3.32255e-23)
(1.06522 -1.02711 -1.802e-21)
(1.23731 -1.22239 1.95397e-21)
(1.4318 -1.43024 -1.01527e-21)
(1.64089 -1.64371 0)
(1.85634 -1.86417 1.48017e-21)
(2.10393 -2.09446 -1.49397e-20)
(2.34627 -2.32908 0)
(2.62212 -2.57045 6.19266e-20)
(2.88937 -2.81731 -3.86509e-20)
(3.18646 -3.06557 3.94215e-20)
(3.47217 -3.31417 5.0271e-20)
(3.79082 -3.54966 -6.55893e-20)
(4.11508 -3.79467 -7.99836e-20)
(4.44109 -4.03334 2.63766e-19)
(4.79211 -4.26196 -2.7453e-19)
(5.13675 -4.49331 0)
(5.49241 -4.7113 -9.30542e-21)
(5.87692 -4.91607 8.12181e-19)
(6.24616 -5.11822 -3.0174e-20)
(6.64802 -5.29707 -3.83053e-19)
(7.03872 -5.47791 7.3455e-19)
(7.43946 -5.6428 0)
(7.85489 -5.78953 -4.50597e-19)
(8.25873 -5.92479 -4.60901e-19)
(8.68233 -6.03538 1.02046e-18)
(9.10971 -6.13488 -5.83999e-21)
(9.52944 -6.21863 6.0215e-19)
(9.96294 -6.27608 -1.22922e-18)
(10.3871 -6.32436 1.95336e-18)
(10.8119 -6.34951 -1.40261e-18)
(11.2446 -6.34958 -1.47282e-18)
(11.6818 -6.33333 0)
(12.1044 -6.30292 8.35567e-19)
(12.5391 -6.24066 0)
(12.9514 -6.17092 -6.02122e-21)
(13.349 -6.07802 9.76673e-19)
(13.7459 -5.95312 -1.81443e-18)
(14.1377 -5.81438 -6.11142e-21)
(14.5351 -5.65787 -2.04792e-18)
(14.9169 -5.48252 0)
(15.2952 -5.27989 -5.80414e-19)
(15.6567 -5.06301 2.23265e-18)
(15.9887 -4.84499 -5.66388e-19)
(16.3136 -4.6042 5.95006e-19)
(16.6155 -4.34397 0)
(16.916 -4.05682 6.14259e-19)
(17.1985 -3.75865 -1.85537e-18)
(17.4684 -3.44171 -2.57942e-20)
(17.7155 -3.11844 0)
(17.9424 -2.77939 6.36694e-19)
(18.1569 -2.42595 -1.9142e-20)
(18.3542 -2.06354 0)
(18.5264 -1.69323 3.58219e-19)
(18.6822 -1.32192 -3.25277e-19)
(18.81 -0.938277 3.41041e-19)
(18.9189 -0.541342 3.38011e-19)
(19.0148 -0.136992 -1.69762e-19)
(19.0825 0.266582 -6.41993e-20)
(20.6334 0.857373 1.52143e-19)
(20.6893 1.38688 -5.15796e-20)
(20.7173 1.91925 0)
(20.7172 2.45228 0)
(20.6894 2.98424 8.18563e-19)
(20.6341 3.51397 1.17754e-18)
(20.5513 4.0396 -1.21182e-18)
(20.4413 4.55974 -3.99114e-19)
(20.3041 5.07316 3.99101e-19)
(20.1404 5.57869 7.80433e-19)
(19.9506 6.07568 -7.8098e-19)
(19.7347 6.56229 -7.58715e-19)
(19.4943 7.03748 3.77331e-18)
(19.2308 7.49985 7.33429e-19)
(18.9444 7.94812 -6.47145e-18)
(18.6356 8.38083 0)
(18.3054 8.79705 0)
(17.9551 9.19585 6.72207e-19)
(17.5854 9.57669 1.98506e-18)
(17.1971 9.93822 -5.10097e-18)
(16.7917 10.2798 -7.4748e-20)
(16.3702 10.601 1.16839e-18)
(15.9333 10.9006 1.20166e-18)
(15.4826 11.1782 -4.48027e-18)
(15.0191 11.4337 0)
(14.544 11.6672 2.10218e-18)
(14.0575 11.8777 -1.94659e-18)
(13.5618 12.0636 0)
(13.0583 12.2248 0)
(12.5488 12.3609 -8.90514e-19)
(12.0343 12.472 -1.62604e-18)
(11.5163 12.5578 2.31576e-18)
(10.9961 12.6183 0)
(10.4749 12.6538 0)
(9.95407 12.664 1.16358e-18)
(9.43483 12.6493 -1.10462e-18)
(8.91852 12.6097 0)
(8.40641 12.5459 1.73239e-18)
(7.89952 12.4579 3.59166e-19)
(7.39912 12.3462 -9.91392e-19)
(6.90642 12.2112 3.52492e-20)
(6.42282 12.0536 4.10126e-19)
(5.94911 11.874 -4.00008e-19)
(5.48647 11.6729 6.93273e-20)
(5.03609 11.4512 0)
(4.59867 11.2096 0)
(4.17526 10.9487 -2.08798e-19)
(3.76677 10.6694 -4.2436e-20)
(3.37422 10.3728 2.37103e-19)
(2.99828 10.0599 9.73328e-20)
(2.63957 9.73165 1.49121e-19)
(2.29892 9.38883 -1.51078e-19)
(1.97706 9.03274 -1.00252e-19)
(1.67431 8.6646 1.01628e-19)
(1.39136 8.28533 -6.04134e-19)
(1.1286 7.89635 6.578e-19)
(0.886469 7.49883 -1.26556e-21)
(0.665249 7.09425 0)
(0.465108 6.68368 1.66734e-19)
(0.286391 6.26821 2.26129e-20)
(0.129171 5.84907 2.39036e-20)
(20.4062 0.0928692 -8.21427e-20)
(20.4733 0.610936 0)
(20.5127 1.13078 0)
(20.5248 1.65184 9.42127e-19)
(20.5094 2.17268 -6.29768e-19)
(20.467 2.69198 -2.21847e-18)
(20.3976 3.20796 0)
(20.3011 3.7198 0)
(20.1778 4.22571 -1.2064e-18)
(20.028 4.72446 0)
(19.8521 5.21504 -1.76631e-18)
(19.6506 5.69513 1.17157e-18)
(19.4252 6.16304 -5.81538e-19)
(19.1768 6.61895 0)
(18.9054 7.06211 2.2979e-18)
(18.6114 7.49113 1.07561e-18)
(18.2958 7.90484 -1.07789e-18)
(17.9596 8.30206 1.0244e-18)
(17.6037 8.68216 -3.02697e-18)
(17.2289 9.04395 2.03748e-18)
(16.8367 9.3863 -1.97795e-18)
(16.4279 9.70879 -1.0083e-18)
(16.0037 10.0102 -9.11479e-19)
(15.5653 10.2898 2.64287e-18)
(15.1137 10.547 8.46754e-19)
(14.6499 10.7816 7.73815e-19)
(14.175 10.9938 -6.99053e-19)
(13.691 11.1824 0)
(13.1989 11.3469 0)
(12.7001 11.4867 0)
(12.1957 11.6018 0)
(11.6872 11.692 0)
(11.1761 11.7571 0)
(10.6634 11.7973 0)
(10.1506 11.8124 -4.83685e-19)
(9.63893 11.8026 4.28872e-19)
(9.12972 11.7679 3.418e-19)
(8.62419 11.7087 -1.6575e-18)
(8.12345 11.6254 -2.56919e-19)
(7.62882 11.5182 7.65864e-19)
(7.14155 11.3874 4.18479e-19)
(6.66297 11.2338 -3.30304e-19)
(6.19396 11.0579 1.20682e-19)
(5.73587 10.8601 8.61224e-20)
(5.28978 10.6411 6.17696e-22)
(4.85651 10.4018 -6.24687e-22)
(4.43711 10.1427 1.10042e-19)
(4.03255 9.86479 0)
(3.64389 9.56889 8.48715e-20)
(3.2719 9.25604 -1.9149e-19)
(2.91723 8.92711 1.06913e-19)
(2.58079 8.583 0)
(2.26342 8.22484 -3.14275e-19)
(1.96537 7.85382 0)
(1.68755 7.47086 0)
(1.4302 7.07739 -9.69375e-19)
(1.19395 6.67463 4.66881e-19)
(0.978994 6.26397 1.28758e-19)
(0.785905 5.84645 -1.34668e-19)
(0.61498 5.42332 0)
(0.466453 4.99583 -3.79078e-20)
(20.1965 0.473281 6.26144e-20)
(20.2519 0.975209 0)
(20.2805 1.47763 -2.49625e-19)
(20.2816 1.98024 -1.64386e-20)
(20.2561 2.48166 0)
(20.2047 2.98146 2.0008e-18)
(20.127 3.47901 9.76455e-19)
(20.0228 3.97304 0)
(19.8924 4.46165 3.21763e-20)
(19.7363 4.9425 9.44025e-19)
(19.5557 5.41425 1.43343e-18)
(19.3514 5.87541 -4.71207e-19)
(19.1238 6.32422 0)
(18.8731 6.7603 0)
(18.6001 7.18307 1.73331e-18)
(18.3058 7.59156 -8.54696e-19)
(17.9909 7.98472 -8.00605e-19)
(17.6563 8.36159 0)
(17.3031 8.7214 2.41679e-18)
(16.9321 9.06319 -2.31843e-18)
(16.5446 9.38604 -1.47995e-18)
(16.1415 9.68927 -1.43142e-18)
(15.724 9.97196 0)
(15.2932 10.2334 -2.04337e-18)
(14.8501 10.473 -6.66527e-19)
(14.3961 10.6901 6.08098e-19)
(13.9323 10.8842 5.98155e-19)
(13.46 11.0553 0)
(12.9803 11.2029 0)
(12.4945 11.3267 0)
(12.0039 11.4266 0)
(11.5096 11.5024 0)
(11.0131 11.554 0)
(10.5156 11.5816 0)
(10.0184 11.585 -1.03541e-18)
(9.52268 11.5643 3.31269e-19)
(9.02972 11.5197 -2.62684e-19)
(8.54066 11.4514 1.24959e-18)
(8.05664 11.3599 0)
(7.57885 11.2454 3.47091e-19)
(7.10851 11.1084 2.80531e-19)
(6.64683 10.9495 1.19158e-19)
(6.19482 10.7691 -6.82592e-20)
(5.75364 10.5678 -8.09726e-20)
(5.32432 10.3462 9.15532e-21)
(4.90773 10.105 5.70316e-21)
(4.50476 9.84488 1.16478e-19)
(4.11637 9.56672 0)
(3.74345 9.27145 0)
(3.38687 8.9599 8.40848e-20)
(3.04733 8.633 1.00773e-19)
(2.72551 8.29169 2.16733e-19)
(2.42217 7.93691 2.47364e-19)
(2.13773 7.5698 0)
(1.8729 7.19125 3.05977e-19)
(1.62791 6.80272 3.36967e-19)
(1.40326 6.40526 0)
(1.19932 6.00036 -1.88865e-21)
(1.01662 5.58894 0)
(0.855384 5.1723 0)
(0.715885 4.75153 2.90683e-20)
(20.0435 0.422539 -1.03632e-19)
(20.0968 0.908808 2.02635e-19)
(20.1241 1.39767 -3.99365e-19)
(20.1252 1.88725 -2.1468e-19)
(20.0999 2.37606 0)
(20.0479 2.86304 -8.31111e-19)
(19.9694 3.34778 -8.24639e-19)
(19.8659 3.82865 0)
(19.7378 4.30476 3.4153e-20)
(19.5856 4.77394 -7.96076e-19)
(19.4094 5.23444 1.50262e-18)
(19.2095 5.68536 1.47869e-18)
(18.9865 6.12558 0)
(18.741 6.55371 -7.19909e-19)
(18.4738 6.96864 -1.42965e-18)
(18.1857 7.36921 -7.04935e-19)
(17.8776 7.75453 2.06328e-18)
(17.5502 8.12374 -1.32523e-18)
(17.2047 8.47609 1.28891e-18)
(16.8419 8.81073 1.87013e-18)
(16.463 9.12685 2.42724e-18)
(16.069 9.42368 1.19935e-18)
(15.6611 9.70039 5.51951e-19)
(15.2401 9.95628 1.66719e-18)
(14.8072 10.1909 5.10117e-19)
(14.3635 10.4036 5.10365e-19)
(13.9102 10.594 4.61751e-19)
(13.4486 10.7619 -1.34434e-18)
(12.9798 10.9067 8.32712e-19)
(12.5051 11.0283 7.75996e-19)
(12.0257 11.1264 -1.50509e-18)
(11.5427 11.2011 7.29015e-19)
(11.0576 11.2522 -6.33021e-19)
(10.5715 11.2797 2.96895e-19)
(10.0858 11.2837 2.86381e-19)
(9.60159 11.2641 2.31518e-19)
(9.12012 11.2211 -2.33049e-19)
(8.64244 11.155 -2.19047e-19)
(8.16967 11.0661 -4.97289e-19)
(7.70304 10.9548 -2.86626e-19)
(7.2437 10.8217 -4.42956e-19)
(6.79275 10.6671 -4.04334e-19)
(6.35138 10.4916 1.13323e-19)
(5.9206 10.2958 7.06881e-21)
(5.50144 10.0802 4.20255e-21)
(5.09481 9.84532 3.6672e-20)
(4.70141 9.59206 -3.00073e-19)
(4.32224 9.32116 6.33539e-20)
(3.95812 9.03361 0)
(3.61 8.73015 0)
(3.27844 8.41164 1.54442e-19)
(2.96428 8.07916 6.37879e-22)
(2.66811 7.73353 -2.00925e-19)
(2.3904 7.37579 0)
(2.13174 7.00677 -2.48363e-19)
(1.89233 6.62792 0)
(1.6727 6.24038 0)
(1.47308 5.84545 -2.37536e-19)
(1.29429 5.44424 -8.44306e-20)
(1.13626 5.03792 8.76944e-20)
(0.999605 4.62766 -4.64851e-20)
(19.8893 0.490564 1.87546e-21)
(19.9373 0.963813 -1.75198e-19)
(19.9599 1.43941 5.13329e-19)
(19.9572 1.91582 3.40436e-19)
(19.929 2.39188 -5.01349e-19)
(19.8755 2.86614 3.35606e-19)
(19.7972 3.33642 -2.58839e-21)
(19.6943 3.8013 -6.493e-19)
(19.5669 4.26052 9.88212e-19)
(19.4162 4.71313 -1.28709e-18)
(19.2423 5.1579 1.21087e-18)
(19.0457 5.59345 -1.2872e-18)
(18.8267 6.0187 -6.18212e-19)
(18.5861 6.43256 0)
(18.3246 6.83372 6.35722e-19)
(18.043 7.22099 5.4237e-19)
(17.742 7.59363 0)
(17.4222 7.95069 1.06768e-18)
(17.0848 8.29148 0)
(16.7308 8.61525 -1.05523e-18)
(16.3612 8.92112 9.31097e-19)
(15.9771 9.20834 -4.06927e-20)
(15.5796 9.476 -4.5286e-20)
(15.1696 9.7234 1.456e-21)
(14.748 9.95011 -1.74964e-18)
(14.316 10.1557 -7.94701e-19)
(13.8747 10.3396 1.55249e-18)
(13.4253 10.5018 1.43395e-18)
(12.9691 10.6417 -7.14717e-19)
(12.5071 10.759 0)
(12.0406 10.8536 0)
(11.5706 10.9254 0)
(11.0985 10.9744 5.42218e-19)
(10.6255 11.0008 -1.89479e-18)
(10.153 11.0042 8.77917e-19)
(9.68199 10.9847 -4.18092e-19)
(9.21363 10.9425 -6.65285e-19)
(8.74896 10.8778 6.23419e-19)
(8.28896 10.791 2.11875e-20)
(7.83493 10.6827 -1.92925e-19)
(7.38796 10.553 2.12307e-19)
(6.94912 10.4028 1.34787e-19)
(6.51963 10.2323 0)
(6.10049 10.0421 -3.10259e-20)
(5.69269 9.83282 0)
(5.29717 9.60476 9.08546e-20)
(4.91439 9.35888 -4.46822e-20)
(4.54537 9.0959 0)
(4.19077 8.81682 9.89759e-20)
(3.85187 8.52232 1.9525e-20)
(3.52895 8.21314 -2.57064e-19)
(3.22284 7.8904 1.50132e-19)
(2.93431 7.5549 9.81531e-20)
(2.66355 7.2076 -1.80238e-19)
(2.41143 6.84927 8.06389e-21)
(2.17753 6.48123 -1.08884e-19)
(1.96288 6.10469 -5.85786e-20)
(1.76738 5.72096 -1.29993e-19)
(1.59217 5.33115 3.44294e-19)
(1.43685 4.93638 -1.46268e-19)
(1.30254 4.53777 1.93488e-20)
(19.7281 0.537881 3.68565e-20)
(19.7715 0.996217 0)
(19.7904 1.45648 -5.74205e-19)
(19.7847 1.91754 0)
(19.7545 2.37805 2.85593e-19)
(19.7 2.83665 8.35125e-19)
(19.6214 3.29193 5.47244e-19)
(19.5188 3.74299 1.10926e-18)
(19.3928 4.18834 9.54993e-21)
(19.2441 4.62712 -7.02407e-21)
(19.073 5.05782 -6.00634e-20)
(18.88 5.47944 -5.26848e-19)
(18.6655 5.89095 5.08274e-19)
(18.4301 6.2914 -1.49005e-18)
(18.1747 6.67957 1.0105e-18)
(17.8999 7.05422 -4.8438e-20)
(17.6063 7.41458 -9.15566e-19)
(17.2945 7.75976 -9.37552e-19)
(16.9656 8.08926 0)
(16.6205 8.40248 8.38613e-19)
(16.2606 8.69845 -3.78045e-20)
(15.8869 8.9764 -1.64819e-18)
(15.5003 9.23541 -5.53558e-21)
(15.1018 9.47458 -6.83064e-19)
(14.692 9.69373 2.07757e-18)
(14.2722 9.89239 -3.49294e-20)
(13.8433 10.0702 -6.6277e-19)
(13.4066 10.2271 -6.99926e-20)
(12.9635 10.3624 0)
(12.5149 10.476 0)
(12.062 10.5673 0)
(11.6055 10.6367 0)
(11.1469 10.6842 0)
(10.6875 10.71 5.33861e-20)
(10.2289 10.7134 -3.39768e-19)
(9.77171 10.6947 3.9253e-20)
(9.31709 10.6539 5.27808e-20)
(8.866 10.591 2.15691e-19)
(8.41921 10.507 4.08202e-19)
(7.97817 10.402 -5.04555e-19)
(7.54401 10.2765 2.9441e-19)
(7.11758 10.1311 -8.82359e-20)
(6.70031 9.96625 0)
(6.29319 9.7825 2.70639e-20)
(5.8971 9.5804 0)
(5.51322 9.35986 -4.81033e-20)
(5.14126 9.12215 8.51011e-20)
(4.78285 8.86789 -5.74493e-20)
(4.43801 8.59827 -7.16691e-20)
(4.10868 8.31365 1.05614e-19)
(3.79465 8.0147 1.88536e-20)
(3.4968 7.70272 1.52862e-20)
(3.21612 7.37823 -2.88071e-19)
(2.95249 7.04235 3.27352e-19)
(2.70711 6.69544 1.78849e-19)
(2.4788 6.33913 9.34303e-20)
(2.26933 5.97443 3.10337e-19)
(2.0776 5.60285 0)
(1.90591 5.22532 -2.36818e-19)
(1.75309 4.84307 6.28467e-20)
(1.62101 4.45695 0)
(19.5515 0.587486 0)
(19.5899 1.03031 0)
(19.6047 1.475 2.49083e-19)
(19.5958 1.92014 -4.76948e-19)
(19.5634 2.36478 -2.45955e-19)
(19.5077 2.80762 -1.19422e-18)
(19.429 3.24698 4.60685e-19)
(19.327 3.68185 -9.52328e-19)
(19.2023 4.11183 1.55152e-20)
(19.0559 4.53569 1.34887e-18)
(18.8883 4.95148 -1.79978e-18)
(18.6993 5.3583 0)
(18.4896 5.75508 0)
(18.2597 6.14159 1.70248e-18)
(18.0108 6.51636 8.22307e-19)
(17.7436 6.87744 -1.66865e-18)
(17.4579 7.22474 2.3884e-18)
(17.1546 7.55731 7.5911e-19)
(16.8345 7.87483 -1.48798e-18)
(16.4988 8.17705 -7.46343e-19)
(16.1491 8.46249 6.88031e-19)
(15.7862 8.7308 -7.06415e-20)
(15.4112 8.98086 0)
(15.025 9.21115 1.2869e-18)
(14.6276 9.42226 -1.81412e-18)
(14.2205 9.61365 5.84289e-19)
(13.8047 9.78487 1.05019e-18)
(13.3813 9.93625 -2.54765e-18)
(12.9521 10.0667 4.98372e-19)
(12.5177 10.1764 0)
(12.0794 10.2641 0)
(11.6369 10.3314 0)
(11.193 10.3771 3.43382e-19)
(10.7478 10.4028 9.70467e-19)
(10.3043 10.4065 -5.70914e-19)
(9.86174 10.3888 2.48028e-19)
(9.42179 10.3496 2.37045e-19)
(8.98544 10.2887 -4.20489e-19)
(8.5526 10.2075 0)
(8.12523 10.1062 -2.30417e-19)
(7.70472 9.98491 1.1995e-19)
(7.29112 9.84459 1.39175e-20)
(6.88649 9.68574 9.86285e-21)
(6.49201 9.50882 2.336e-20)
(6.10801 9.31469 -1.06567e-20)
(5.73691 9.10202 1.70761e-19)
(5.37615 8.87322 -7.13721e-20)
(5.0292 8.62813 2.3448e-19)
(4.69417 8.36889 0)
(4.37542 8.09509 0)
(4.0708 7.80704 -4.12089e-19)
(3.78137 7.50672 1.11744e-19)
(3.50952 7.19416 2.55689e-19)
(3.25311 6.87061 1.5037e-19)
(3.0156 6.53576 -4.73752e-19)
(2.79276 6.19186 -2.64506e-19)
(2.58906 5.83956 -9.71752e-20)
(2.40072 5.48106 -2.05003e-21)
(2.23328 5.11672 1.04006e-19)
(2.08253 4.74779 0)
(1.95317 4.37494 0)
(19.354 0.634127 -2.51603e-20)
(19.3866 1.06035 0)
(19.3969 1.48859 0)
(19.3843 1.91719 2.1146e-19)
(19.3494 2.345 0)
(19.2928 2.77113 8.14132e-19)
(19.2147 3.19378 4.01044e-19)
(19.1134 3.61144 -7.87696e-19)
(18.9897 4.0259 0)
(18.8459 4.43507 -7.99044e-19)
(18.683 4.83432 4.38856e-20)
(18.4986 5.22557 0)
(18.2945 5.60643 0)
(18.0703 5.97814 -7.44084e-19)
(17.8282 6.33964 6.86824e-19)
(17.5698 6.68595 -7.11152e-19)
(17.2928 7.0195 -6.93097e-19)
(16.9984 7.33914 0)
(16.6878 7.64354 6.5446e-19)
(16.3618 7.93424 -1.19288e-18)
(16.0232 8.20827 -1.15198e-18)
(15.6717 8.46652 -1.18245e-18)
(15.3087 8.70789 -9.13046e-21)
(14.9365 8.92809 -9.74382e-19)
(14.5518 9.13067 1.03401e-18)
(14.1576 9.31473 9.31028e-19)
(13.7561 9.47835 -9.44393e-19)
(13.3461 9.62427 5.92323e-20)
(12.9319 9.74905 6.86972e-22)
(12.5116 9.85582 -7.87742e-19)
(12.0895 9.9386 0)
(11.661 10.0044 -6.25765e-19)
(11.2333 10.0477 1.20494e-18)
(10.8022 10.0744 -4.5739e-20)
(10.3757 10.0789 5.1371e-19)
(9.94918 10.0622 -4.16699e-19)
(9.52502 10.0251 3.52358e-19)
(9.10548 9.96584 2.4987e-19)
(8.68732 9.88759 -5.51356e-19)
(8.27416 9.79029 2.29779e-19)
(7.86898 9.6734 1.43573e-19)
(7.46803 9.53826 1.47306e-19)
(7.07612 9.38541 -2.97147e-20)