/*--------------------------------*- C++ -*----------------------------------*\
| =========                 |                                                 |
| \\      /  F ield         | OpenFOAM: The Open Source CFD Toolbox           |
|  \\    /   O peration     | Version:  2.3.1                                 |
|   \\  /    A nd           | Web:      www.OpenFOAM.org                      |
|    \\/     M anipulation  |                                                 |
\*---------------------------------------------------------------------------*/
FoamFile
{
    version     2.0;
    format      ascii;
    class       volScalarField;
    location    "0.54";
    object      nut;
}
// * * * * * * * * * * * * * * * * * * * * * * * * * * * * * * * * * * * * * //

dimensions      [0 2 -1 0 0 0 0];

internalField   nonuniform List<scalar> 
9648
(
0.000271758
0.000272263
0.000272156
0.000271989
0.000271679
0.000271134
0.000270387
0.000269462
0.000268339
0.000267004
0.000265447
0.00026371
0.000261791
0.000259703
0.000257496
0.000255218
0.000252892
0.00025054
0.000248203
0.000245922
0.000243712
0.000241596
0.000239597
0.000237713
0.000235946
0.000234312
0.000232814
0.000231445
0.000230201
0.000229087
0.000228096
0.000227224
0.000226466
0.000225823
0.000225282
0.000224846
0.000224513
0.000224278
0.000224126
0.000224058
0.000224083
0.000224188
0.000224372
0.000224641
0.000224982
0.000225387
0.000225868
0.000226439
0.000227089
0.000227802
0.000228596
0.000229488
0.000230454
0.000231498
0.000232633
0.000233857
0.000235138
0.000236424
0.000237722
0.000239032
0.000240334
0.000445891
0.000450222
0.000455283
0.000461037
0.000467292
0.000473571
0.000480804
0.000490682
0.000503599
0.00051938
0.000538121
0.000560107
0.000585272
0.000613462
0.000644492
0.000678255
0.000714491
0.000752832
0.000792952
0.000834677
0.00087766
0.00092165
0.000966464
0.00101182
0.00105743
0.00110319
0.00114899
0.00119468
0.00124008
0.0012851
0.00132975
0.0013739
0.00141745
0.00146046
0.00150284
0.00154449
0.00158549
0.00162585
0.00166549
0.00170425
0.00174219
0.0017794
0.00181578
0.00185123
0.00188588
0.00191945
0.00195194
0.00198353
0.00201428
0.00204401
0.00207282
0.00210059
0.00212758
0.00215327
0.00217833
0.00220256
0.00222657
0.00224937
0.00227162
0.0022936
0.00231549
0.000770408
0.000808165
0.000846134
0.000883072
0.000921005
0.000962892
0.00100774
0.00105681
0.00110969
0.00116699
0.00122797
0.00129311
0.00136222
0.00143515
0.00151162
0.00159129
0.00167377
0.0017585
0.001845
0.00193287
0.00202168
0.00211111
0.00220071
0.00229016
0.00237915
0.00246748
0.00255505
0.00264154
0.00272697
0.0028112
0.00289415
0.00297584
0.00305624
0.00313524
0.0032128
0.00328902
0.00336381
0.00343729
0.0035094
0.00358011
0.00364945
0.00371734
0.00378395
0.00384924
0.00391311
0.00397558
0.00403658
0.00409633
0.0041546
0.00421155
0.00426716
0.0043215
0.00437517
0.00442666
0.00447831
0.00452775
0.00457689
0.00462297
0.00466917
0.0047145
0.00475913
0.00123764
0.00131106
0.00138481
0.00145843
0.00153366
0.00161238
0.00169488
0.00178171
0.00187277
0.00196854
0.00206854
0.002173
0.00228151
0.00239404
0.00251003
0.00262903
0.00275049
0.00287378
0.00299838
0.00312381
0.00324969
0.0033755
0.00350088
0.00362545
0.00374898
0.00387125
0.00399209
0.00411144
0.00422917
0.00434523
0.00445972
0.00457251
0.00468363
0.00479306
0.00490072
0.00500672
0.00511107
0.00521388
0.00531509
0.00541474
0.00551283
0.0056094
0.00570441
0.00579801
0.00589009
0.00598065
0.00606974
0.00615741
0.00624344
0.00632791
0.00641128
0.00649246
0.00657224
0.00665002
0.00672752
0.00680277
0.00687589
0.00694694
0.00701634
0.00708404
0.00714906
0.00177872
0.00187861
0.00198116
0.00208559
0.00219285
0.00230445
0.00242106
0.00254278
0.00266984
0.00280226
0.00293966
0.00308178
0.00322834
0.00337899
0.00353305
0.00368974
0.00384831
0.00400821
0.00416885
0.00432984
0.00449071
0.00465096
0.00481008
0.00496779
0.00512388
0.00527824
0.00543078
0.00558129
0.00572992
0.00587659
0.00602124
0.00616398
0.00630467
0.00644335
0.00657993
0.00671463
0.0068475
0.0069785
0.0071077
0.00723504
0.00736058
0.00748428
0.00760628
0.00772652
0.00784499
0.00796164
0.0080764
0.00818932
0.00830058
0.00840952
0.00851677
0.00862193
0.00872443
0.0088245
0.00892259
0.00901886
0.00911204
0.00920273
0.00929095
0.0093761
0.00945812
0.0023273
0.00244511
0.00257133
0.00270379
0.00284203
0.0029865
0.00313764
0.0032955
0.00345974
0.00363004
0.0038058
0.00398633
0.00417133
0.00436012
0.00455215
0.00474639
0.00494167
0.00513769
0.00533371
0.00552946
0.00572451
0.00591813
0.00610999
0.00629951
0.00648689
0.00667208
0.0068549
0.00703561
0.00721371
0.00738953
0.00756304
0.00773386
0.00790251
0.00806868
0.00823241
0.00839385
0.00855324
0.00871053
0.00886557
0.00901836
0.00916871
0.00931685
0.00946279
0.00960657
0.0097481
0.00988742
0.0100248
0.010159
0.010291
0.0104206
0.0105474
0.0106716
0.0107928
0.0109106
0.0110258
0.0111375
0.011246
0.0113517
0.0114539
0.0115518
0.0116466
0.00285819
0.00298988
0.00313912
0.00330026
0.00347088
0.00365013
0.00383784
0.00403366
0.00423689
0.00444642
0.00466171
0.00488143
0.00510511
0.00533205
0.00556228
0.00579403
0.00602593
0.00625792
0.00648894
0.00671885
0.0069476
0.00717391
0.00739756
0.0076179
0.00783523
0.00804995
0.00826205
0.00847133
0.00867784
0.0088812
0.00908156
0.00927876
0.00947284
0.00966454
0.00985317
0.0100389
0.0102225
0.0104033
0.0105816
0.010757
0.0109291
0.0110981
0.0112643
0.0114277
0.011588
0.0117453
0.0119
0.0120513
0.0121998
0.0123448
0.0124865
0.0126247
0.012759
0.0128896
0.0130158
0.0131387
0.0132579
0.0133728
0.0134833
0.0135891
0.0136907
0.00336795
0.00351135
0.00368388
0.0038746
0.0040793
0.00429418
0.00451951
0.00475455
0.0049973
0.00524706
0.00550254
0.00576201
0.0060242
0.0062883
0.00655578
0.00682492
0.00709363
0.00736195
0.00762796
0.00789108
0.00815285
0.00841111
0.00866682
0.00891725
0.00916289
0.00940581
0.00964488
0.00988199
0.0101152
0.0103446
0.0105709
0.0107917
0.0110087
0.0112233
0.0114343
0.0116414
0.0118463
0.012048
0.0122466
0.0124424
0.0126338
0.0128207
0.0130027
0.0131817
0.0133565
0.0135272
0.0136942
0.0138565
0.0140157
0.0141707
0.0143213
0.0144673
0.01461
0.0147478
0.0148801
0.0150077
0.0151306
0.0152501
0.0153641
0.0154716
0.0155735
0.00386317
0.00401373
0.00420871
0.0044253
0.00466515
0.00491344
0.00517429
0.00544924
0.00572798
0.00601781
0.00631165
0.00661346
0.00691316
0.00721279
0.00751227
0.00781788
0.00812279
0.00842776
0.00873324
0.00902634
0.00931893
0.00961005
0.00989849
0.0101839
0.0104546
0.0107236
0.010988
0.0112497
0.0115104
0.0117651
0.0120193
0.0122649
0.0124969
0.0127312
0.012965
0.0131896
0.013411
0.0136317
0.013847
0.0140633
0.0142759
0.0144842
0.0146778
0.0148687
0.0150579
0.0152363
0.0154132
0.0155787
0.015746
0.0159029
0.0160598
0.0162026
0.0163453
0.0164894
0.0166254
0.0167471
0.0168693
0.0169824
0.0170972
0.0172042
0.0172981
0.000241543
0.000242653
0.000243737
0.000244793
0.000245802
0.000246734
0.000247632
0.000248531
0.000249435
0.00025028
0.000251043
0.00025179
0.000252507
0.000253194
0.000253883
0.000254621
0.000255415
0.000256265
0.000257196
0.000258244
0.000259377
0.000260574
0.000261829
0.000263108
0.000264392
0.000265693
0.00026702
0.000268356
0.000269687
0.000271027
0.000272375
0.000273726
0.00027508
0.000276449
0.000277822
0.000279205
0.000280607
0.000282028
0.000283455
0.000284887
0.000286344
0.000287819
0.000289309
0.000290826
0.000292358
0.000293886
0.000295429
0.000297007
0.000298608
0.000300206
0.000301818
0.000303471
0.000305133
0.000306802
0.000308507
0.000310253
0.00031203
0.000313789
0.000315594
0.000317479
0.000319448
0.00233745
0.0023571
0.0023763
0.00239542
0.00241415
0.00243169
0.00244714
0.00246164
0.00247347
0.00248524
0.00249536
0.00250477
0.00251305
0.0025202
0.00252616
0.00253067
0.00253383
0.00253547
0.00253568
0.00253453
0.00253219
0.00252888
0.00252452
0.00251924
0.00251311
0.00250614
0.00249839
0.00248972
0.00248023
0.00246984
0.00245852
0.00244637
0.00243341
0.00241957
0.00240489
0.00238947
0.00237321
0.00235623
0.0023385
0.00232006
0.00230093
0.0022811
0.00226073
0.00223977
0.00221816
0.0021959
0.00217292
0.00214932
0.00212496
0.00209991
0.00207418
0.00204772
0.00202067
0.00199237
0.00196392
0.00193428
0.00190426
0.00187304
0.00184206
0.00181091
0.00177963
0.00480133
0.00484239
0.0048805
0.00491728
0.00495257
0.0049876
0.00501884
0.00504865
0.00507476
0.00509984
0.00512254
0.00514354
0.005162
0.00517888
0.00519379
0.00520668
0.00521765
0.00522667
0.00523383
0.0052392
0.00524302
0.00524522
0.00524593
0.00524518
0.00524298
0.00523933
0.00523435
0.00522795
0.00522016
0.00521082
0.00520008
0.00518779
0.00517396
0.00515872
0.00514193
0.00512369
0.00510394
0.00508277
0.00506015
0.00503618
0.00501095
0.00498455
0.00495704
0.00492859
0.00489906
0.00486842
0.00483653
0.00480339
0.00476884
0.00473288
0.00469566
0.00465644
0.00461568
0.00457293
0.00452913
0.00448299
0.00443495
0.00438531
0.00433491
0.00428366
0.00423133
0.00721232
0.00727285
0.00733103
0.00738599
0.00743869
0.00748914
0.00753676
0.00758132
0.00762275
0.00766191
0.00769831
0.00773171
0.00776246
0.007791
0.00781666
0.00783997
0.00786081
0.0078792
0.00789518
0.0079089
0.00792043
0.00793
0.00793755
0.00794324
0.00794699
0.00794884
0.00794874
0.00794678
0.00794304
0.00793741
0.00792979
0.00792015
0.00790846
0.00789467
0.00787883
0.00786094
0.00784091
0.0078187
0.00779437
0.00776804
0.00773989
0.00771
0.00767874
0.0076462
0.00761248
0.00757748
0.00754102
0.00750299
0.00746331
0.00742175
0.00737841
0.00733283
0.00728477
0.00723422
0.00718147
0.00712596
0.00706739
0.00700669
0.00694452
0.00688043
0.00681501
0.00953683
0.00961306
0.00968606
0.00975553
0.00982112
0.00988377
0.0099434
0.00999844
0.01005
0.0100989
0.0101443
0.0101865
0.0102258
0.010262
0.0102952
0.0103258
0.0103527
0.0103767
0.0103976
0.0104156
0.0104308
0.0104435
0.0104539
0.010462
0.0104676
0.0104709
0.010472
0.0104709
0.0104678
0.0104628
0.0104557
0.0104464
0.0104347
0.0104206
0.0104041
0.0103851
0.0103634
0.0103391
0.0103119
0.0102821
0.0102497
0.010215
0.0101785
0.0101406
0.0101014
0.0100611
0.0100194
0.00997575
0.00993064
0.00988398
0.0098352
0.00978398
0.00973006
0.00967303
0.00961318
0.00954927
0.00948215
0.00941228
0.00934014
0.00926537
0.00918928
0.0117374
0.0118245
0.0119072
0.0119867
0.0120616
0.0121321
0.0121989
0.0122612
0.0123191
0.012373
0.0124236
0.0124704
0.0125137
0.0125534
0.0125895
0.0126222
0.0126509
0.0126763
0.0126978
0.0127153
0.0127292
0.0127401
0.0127481
0.0127533
0.0127558
0.0127553
0.012752
0.0127462
0.0127384
0.0127289
0.0127179
0.0127048
0.0126894
0.0126715
0.0126514
0.0126285
0.0126026
0.0125735
0.0125412
0.0125056
0.0124668
0.0124247
0.0123802
0.0123339
0.0122863
0.012238
0.0121881
0.0121369
0.0120842
0.0120306
0.0119752
0.0119168
0.0118559
0.011792
0.0117248
0.0116529
0.0115773
0.0114976
0.0114158
0.0113312
0.0112446
0.0137877
0.0138803
0.013968
0.0140508
0.014129
0.0142029
0.0142717
0.0143352
0.0143942
0.0144485
0.0144985
0.0145447
0.0145871
0.014625
0.0146586
0.014689
0.0147156
0.0147381
0.014756
0.0147686
0.0147766
0.0147808
0.0147815
0.0147791
0.0147735
0.0147642
0.0147512
0.0147346
0.0147155
0.0146953
0.0146748
0.0146526
0.0146291
0.0146035
0.0145767
0.0145474
0.0145144
0.014478
0.0144384
0.0143956
0.014349
0.0142981
0.0142435
0.0141866
0.0141281
0.0140696
0.0140089
0.0139472
0.0138842
0.0138221
0.0137585
0.0136914
0.0136226
0.0135509
0.0134767
0.0133965
0.0133123
0.013223
0.0131323
0.013038
0.0129414
0.0156706
0.015762
0.0158476
0.0159272
0.0160014
0.0160697
0.0161331
0.0161914
0.0162455
0.0162942
0.0163375
0.0163769
0.0164126
0.0164438
0.0164696
0.016491
0.0165103
0.0165265
0.0165379
0.0165429
0.0165409
0.0165348
0.0165248
0.0165106
0.0164935
0.0164721
0.0164463
0.0164143
0.0163774
0.0163386
0.0163018
0.0162638
0.0162264
0.0161877
0.0161506
0.016113
0.0160703
0.0160229
0.015973
0.0159218
0.0158675
0.0158085
0.0157439
0.0156757
0.015606
0.0155367
0.0154635
0.01539
0.015314
0.0152413
0.0151689
0.015091
0.0150126
0.0149325
0.0148515
0.0147635
0.0146717
0.0145732
0.0144741
0.0143711
0.0142664
0.0173922
0.0174771
0.0175573
0.0176233
0.0176863
0.0177346
0.0177839
0.0178205
0.017859
0.0178984
0.0179295
0.0179465
0.0179675
0.0179867
0.0180003
0.0180053
0.0180064
0.0180075
0.0180096
0.0180064
0.0179909
0.0179729
0.0179532
0.0179248
0.0178933
0.0178575
0.0178189
0.0177754
0.0177188
0.0176549
0.0175948
0.0175342
0.0174754
0.0174144
0.0173595
0.017311
0.0172569
0.017193
0.0171272
0.0170629
0.0169987
0.0169368
0.0168634
0.0167849
0.0167092
0.0166298
0.0165493
0.0164638
0.0163765
0.0162908
0.0162088
0.0161175
0.0160246
0.0159367
0.0158454
0.0157537
0.0156541
0.0155508
0.0154423
0.0153332
0.0152195
0.000321414
0.000323361
0.000325386
0.000327489
0.00032964
0.000331794
0.000333982
0.000336234
0.00033853
0.000340851
0.000343193
0.000345588
0.000347999
0.000350496
0.000353522
0.000356345
0.000359078
0.0003618
0.000364526
0.000367277
0.00037004
0.000372817
0.000375616
0.000378418
0.000381209
0.000383997
0.000386781
0.000389551
0.000392287
0.000394993
0.000397658
0.000400273
0.000402823
0.000405312
0.000407716
0.000410028
0.000412241
0.000414336
0.000416167
0.000417493
0.000418404
0.000418912
0.000419013
0.000418704
0.000417926
0.000416616
0.000414729
0.0004122
0.000408904
0.000404686
0.000399407
0.000392897
0.00038486
0.000374965
0.000362253
0.000340838
0.000330461
0.000324968
0.000322731
0.000321666
0.00031947
0.00174779
0.0017159
0.00168347
0.00165087
0.00161806
0.00158535
0.00155218
0.00151932
0.00148635
0.0014538
0.00142187
0.00138981
0.00135819
0.00132681
0.00129214
0.00125735
0.00122301
0.0011893
0.0011563
0.00112407
0.00109256
0.00106161
0.00103119
0.00100127
0.000971837
0.000942923
0.000914502
0.000886624
0.000859264
0.000832429
0.000806156
0.000780467
0.000755354
0.000730864
0.000707056
0.000683947
0.000661636
0.000640198
0.000619442
0.00059631
0.000572516
0.000549583
0.000527678
0.000506988
0.000487608
0.000469744
0.000453674
0.000439669
0.000428003
0.000419019
0.000413092
0.000410665
0.000412171
0.000418148
0.000427334
0.000449351
0.000483864
0.000539631
0.000625809
0.000750249
0.000870635
0.00417847
0.00412488
0.00407041
0.00401451
0.00395741
0.00389938
0.00384038
0.00378083
0.00372075
0.00366068
0.00359916
0.00353729
0.00347829
0.00341933
0.00335777
0.00329382
0.00322844
0.00316285
0.00309739
0.00303235
0.00296759
0.00290277
0.00283788
0.00277293
0.0027078
0.00264255
0.00257713
0.00251155
0.00244566
0.00237953
0.00231306
0.00224623
0.0021791
0.00211157
0.00204371
0.00197549
0.00190698
0.00183814
0.00176884
0.00169762
0.00162419
0.00153907
0.00144616
0.00135023
0.00125241
0.00115389
0.00105627
0.000961083
0.000870311
0.000785989
0.000710156
0.000644755
0.000591088
0.000550564
0.00052298
0.000512576
0.000522132
0.000556781
0.000626148
0.000744306
0.000907579
0.00674858
0.00668185
0.00661359
0.00654322
0.00647032
0.00639602
0.00632038
0.00624413
0.0061677
0.00609085
0.00601079
0.00593198
0.00585625
0.00578058
0.00570199
0.00562017
0.00553583
0.00545068
0.00536529
0.00528
0.0051946
0.00510831
0.00502135
0.00493375
0.0048453
0.00475599
0.0046657
0.0045744
0.00448183
0.00438791
0.00429257
0.00419582
0.00409759
0.00399791
0.00389681
0.00379427
0.00369024
0.00358472
0.00347752
0.00336803
0.00325542
0.00313638
0.00300291
0.00285189
0.00268906
0.00251462
0.00232931
0.0021343
0.00193195
0.00172626
0.00152176
0.00132575
0.00114471
0.000985665
0.000852679
0.000751116
0.000684277
0.000652293
0.000657294
0.000706854
0.000809479
0.00911141
0.00903307
0.00895298
0.00887083
0.00878473
0.00869667
0.00860716
0.00851783
0.00842821
0.00833823
0.00824418
0.00815211
0.00806277
0.00797387
0.00788218
0.00778696
0.00768856
0.00758942
0.00748985
0.00739032
0.00729024
0.00718846
0.00708567
0.00698198
0.00687684
0.0067704
0.00666225
0.00655235
0.00644025
0.00632594
0.00620928
0.00609047
0.00596952
0.0058466
0.00572167
0.00559486
0.00546615
0.0053355
0.00520272
0.00506751
0.00492932
0.00478682
0.00463675
0.00446992
0.00428435
0.00408247
0.00386269
0.00362354
0.00336382
0.00308432
0.00278645
0.00247495
0.00215866
0.00185009
0.00156364
0.0013142
0.00111432
0.000966698
0.000868978
0.000820577
0.000825131
0.0111552
0.0110656
0.0109744
0.0108812
0.010783
0.0106822
0.0105793
0.0104774
0.0103758
0.0102743
0.0101682
0.0100641
0.00996248
0.00986232
0.00975917
0.0096527
0.00954283
0.00943299
0.0093227
0.00921248
0.00910121
0.00898711
0.00887218
0.00875658
0.00863898
0.00851966
0.00839787
0.0082737
0.00814633
0.00801606
0.00788274
0.00774703
0.00760903
0.00746913
0.00732716
0.00718343
0.00703786
0.00689052
0.00674124
0.00658991
0.00643604
0.00627908
0.00611752
0.00594749
0.00575825
0.0055531
0.00532921
0.00508498
0.00481724
0.0045231
0.00420047
0.00384796
0.00346751
0.00306706
0.00265933
0.00226578
0.00190957
0.00160664
0.00136355
0.00118165
0.00106068
0.0128406
0.01274
0.0126384
0.0125354
0.0124257
0.0123126
0.0121965
0.0120827
0.0119701
0.0118586
0.011741
0.0116257
0.0115131
0.0114034
0.0112905
0.0111749
0.0110556
0.0109375
0.010819
0.0107008
0.0105809
0.0104566
0.0103325
0.0102086
0.0100817
0.00995246
0.00981962
0.00968414
0.00954412
0.00940077
0.00925391
0.00910539
0.00895484
0.00880323
0.00864986
0.00849541
0.00833946
0.00818259
0.0080245
0.00786541
0.00770466
0.00754197
0.00737654
0.00720629
0.00702668
0.00682737
0.00661145
0.00637681
0.00612068
0.00584003
0.00553091
0.00518935
0.00481272
0.00439974
0.00395545
0.003492
0.00302968
0.00259223
0.00219844
0.00186078
0.0015869
0.0141552
0.0140435
0.0139322
0.0138205
0.0137008
0.0135764
0.0134481
0.0133226
0.0132002
0.0130797
0.012952
0.0128264
0.0127045
0.0125872
0.0124668
0.0123438
0.0122175
0.0120929
0.0119684
0.0118446
0.0117174
0.0115845
0.0114541
0.0113251
0.0111909
0.0110531
0.0109105
0.0107653
0.0106139
0.0104591
0.0103011
0.0101437
0.00998467
0.00982635
0.00966662
0.00950709
0.00934642
0.00918692
0.00902757
0.00886932
0.0087104
0.00855101
0.00838996
0.00822596
0.00805586
0.00787156
0.00766991
0.00745121
0.00721406
0.00695627
0.0066751
0.00636633
0.00602494
0.00564671
0.00522932
0.00477482
0.00429251
0.00379751
0.00330956
0.00284772
0.00242971
0.0151043
0.0149799
0.0148612
0.0147383
0.0146138
0.0144774
0.0143414
0.0142014
0.0140722
0.0139417
0.0138082
0.013672
0.0135451
0.0134201
0.0132974
0.0131657
0.013039
0.0129061
0.0127779
0.0126518
0.0125162
0.0123787
0.0122442
0.0121094
0.0119694
0.0118207
0.0116706
0.0115141
0.0113531
0.0111875
0.0110226
0.01086
0.0106965
0.0105353
0.0103749
0.0102155
0.0100563
0.00990319
0.00975193
0.00960515
0.00945679
0.00930948
0.00916055
0.00900889
0.00885293
0.00868785
0.00850386
0.00830265
0.00808739
0.00786093
0.00761401
0.00734825
0.00705188
0.00672633
0.0063613
0.00596055
0.00551664
0.00504155
0.00453886
0.00402475
0.00352
0.000315448
0.000310844
0.000305803
0.000300366
0.000294742
0.000289034
0.00028341
0.000278078
0.000273205
0.000268905
0.000265244
0.000262275
0.000259947
0.00025818
0.000256904
0.000256038
0.00025548
0.000255148
0.000254993
0.000254984
0.000255079
0.000255253
0.000255504
0.000255806
0.000256149
0.000256565
0.000257014
0.000257519
0.000258062
0.00025865
0.000259274
0.000259932
0.000260617
0.000261327
0.000262045
0.000262771
0.000263495
0.000264205
0.000264877
0.000265507
0.000266094
0.00026662
0.000267079
0.00026748
0.00026781
0.000268067
0.000268276
0.000268464
0.000268635
0.00026879
0.000268958
0.000269172
0.000269408
0.000269678
0.000269987
0.000270336
0.000270687
0.000270998
0.000271288
0.000271552
0.000271764
0.000936077
0.000991569
0.00103503
0.00106102
0.00107178
0.00107132
0.0010572
0.00103038
0.000993358
0.000948399
0.000897866
0.000845244
0.000793242
0.00074388
0.000697695
0.000656235
0.000620937
0.000591841
0.000568432
0.000550068
0.000535932
0.000525215
0.000517163
0.000511271
0.000506938
0.000504161
0.00050238
0.000501614
0.000501652
0.000502382
0.000503682
0.000505436
0.00050751
0.000509758
0.000512047
0.000514239
0.000516177
0.00051772
0.00051871
0.000519
0.000518446
0.000516914
0.000514287
0.000510467
0.00050541
0.000499136
0.000491746
0.000483452
0.000474556
0.000465482
0.000456725
0.000448802
0.000442172
0.000437149
0.000433937
0.000432495
0.000432661
0.000434113
0.000436554
0.000439553
0.00044268
0.00107858
0.00125049
0.00141924
0.00156842
0.0016678
0.00174521
0.00179764
0.00182004
0.00181653
0.0017902
0.0017421
0.00167686
0.00159863
0.00151118
0.00141697
0.00132106
0.00122991
0.00114763
0.00107578
0.00101623
0.000969024
0.000933039
0.000906563
0.000887615
0.000874862
0.000866525
0.00086219
0.000860791
0.000861819
0.000864727
0.000869101
0.00087446
0.000880316
0.000886191
0.000891586
0.00089606
0.000899171
0.000900507
0.000899652
0.000896248
0.00089
0.000880727
0.000868327
0.00085285
0.0008344
0.000813279
0.000789888
0.000764805
0.000738735
0.000712662
0.000687834
0.000665671
0.000647781
0.000635536
0.000630088
0.000631898
0.000640933
0.000656657
0.000678283
0.000704813
0.000735355
0.000961857
0.00115784
0.00138573
0.00162291
0.00183861
0.00203323
0.00221186
0.00233892
0.00242605
0.00248261
0.00250507
0.00249655
0.00246156
0.00240192
0.00231965
0.00221838
0.00210262
0.00198424
0.00186939
0.0017644
0.00167376
0.00160033
0.00154426
0.00150391
0.00147681
0.00146061
0.00145356
0.001454
0.0014605
0.0014718
0.00148687
0.0015047
0.0015241
0.0015439
0.00156296
0.00158019
0.0015945
0.00160482
0.00161013
0.00160945
0.00160195
0.00158697
0.00156407
0.00153308
0.00149406
0.00144753
0.00139426
0.00133538
0.00127216
0.00120651
0.00114091
0.00107857
0.0010235
0.000980244
0.000953376
0.000946011
0.000958575
0.000989722
0.00103692
0.00109719
0.00116629
0.000886898
0.00100942
0.0011933
0.00142889
0.00169269
0.00196426
0.00222905
0.00246344
0.00266374
0.0028376
0.00296315
0.00304143
0.00308731
0.00309951
0.00308087
0.00303628
0.00296752
0.00287647
0.00277577
0.00267348
0.00257532
0.0024883
0.00241725
0.00236404
0.00232801
0.00230778
0.00230188
0.00230872
0.00232628
0.00235262
0.00238624
0.00242546
0.00246836
0.0025129
0.00255716
0.00259921
0.00263715
0.00266913
0.00269319
0.00270753
0.00271041
0.00270053
0.00267663
0.00263795
0.00258383
0.00251456
0.00243059
0.00233305
0.00222341
0.00210392
0.00197771
0.00184947
0.00172528
0.00161351
0.0015248
0.00147054
0.00145417
0.00147423
0.00152573
0.00159826
0.00168433
0.0010025
0.0010094
0.00108477
0.00123017
0.00144005
0.0017016
0.00199558
0.0022951
0.0025795
0.00283812
0.00305735
0.00323443
0.00337993
0.00347625
0.00353042
0.00355933
0.00356298
0.00354577
0.00351468
0.00347363
0.00342942
0.00338629
0.00334911
0.00332234
0.00330794
0.00330685
0.00331985
0.00334714
0.00338738
0.00343864
0.00349951
0.00356808
0.00364199
0.00371857
0.00379525
0.00386936
0.00393832
0.00399943
0.00404995
0.00408722
0.00410869
0.00411237
0.00409625
0.00405886
0.00399859
0.00391538
0.00380889
0.00367981
0.00352895
0.00335834
0.00317068
0.00297067
0.00276482
0.00256257
0.00237823
0.00223136
0.00212982
0.0020826
0.00208922
0.00214006
0.00222306
0.00138174
0.00124808
0.00118798
0.00120331
0.00129458
0.00145971
0.00169136
0.0019733
0.00228305
0.00259637
0.00289013
0.00314972
0.00337074
0.0035473
0.00368405
0.00379681
0.00387062
0.00391931
0.00395942
0.00399426
0.00403401
0.00407658
0.00412151
0.00416891
0.00422035
0.00427714
0.00434179
0.00441651
0.00450113
0.00459443
0.00469574
0.00480348
0.00491558
0.00502937
0.00514222
0.00525122
0.0053534
0.00544549
0.00552411
0.00558599
0.00562801
0.00564768
0.00564254
0.00561071
0.00554967
0.00545877
0.0053369
0.00518425
0.00500101
0.00478844
0.00454837
0.0042846
0.00400208
0.0037086
0.00341721
0.00314837
0.00292425
0.00276781
0.00269145
0.00269205
0.0027538
0.00206942
0.00177791
0.0015622
0.00142667
0.00137291
0.00140084
0.00150861
0.00169084
0.00193687
0.00222887
0.00254291
0.00285477
0.00314616
0.00340264
0.00361963
0.00380031
0.003946
0.00406494
0.00417446
0.00426221
0.00436764
0.00448364
0.00461056
0.00474697
0.00489248
0.00504326
0.00519641
0.00535063
0.0055082
0.00566801
0.0058297
0.00599155
0.00615218
0.00631014
0.00646333
0.00660956
0.00674609
0.00686942
0.00697566
0.00706114
0.00712322
0.00715831
0.00716429
0.00713921
0.00707997
0.00698466
0.00685244
0.00668161
0.00647294
0.00622631
0.00594337
0.00562578
0.00527644
0.00490112
0.00450877
0.00411824
0.00376294
0.00348166
0.00330389
0.00323871
0.00326853
0.00303959
0.00260663
0.00223631
0.00193853
0.00172348
0.00159461
0.00155278
0.00159508
0.00171717
0.0019112
0.00216326
0.00245596
0.00276974
0.0030832
0.00337838
0.00364841
0.00387918
0.00407158
0.00422958
0.00436339
0.00452752
0.00468502
0.00485697
0.00505024
0.00527012
0.00550959
0.00576257
0.00602023
0.00627551
0.00652658
0.00677203
0.00700761
0.00723028
0.00744329
0.00764345
0.00783155
0.0080058
0.00816263
0.0082975
0.00840581
0.0084891
0.0085382
0.0085557
0.00853761
0.00848307
0.0083856
0.00824875
0.00806235
0.00783476
0.00755955
0.00724356
0.00688182
0.00647585
0.00603327
0.00555551
0.00505957
0.00458595
0.00418943
0.00391153
0.00377873
0.00377067
0.00520778
0.0183243
0.0187255
0.00181397
0.00526852
0.00708644
0.00125007
0.0058183
0.00129028
0.00336124
0.0104487
0.0147227
0.00124995
0.0128426
0.00665134
0.0201134
0.00126363
0.00622815
0.00986543
0.00125191
0.00181677
0.0127093
0.0177496
0.00127798
0.00127997
0.00478119
0.00125207
0.00304033
0.00126007
0.00131793
0.00652807
0.00126993
0.00274115
0.00892641
0.0139264
0.00915144
0.00797553
0.0137613
0.00124686
0.013569
0.00507996
0.0139084
0.00124678
0.0199194
0.00513127
0.00992875
0.0013497
0.00240066
0.00122457
0.0149118
0.0104012
0.0155931
0.00124108
0.00144336
0.00202209
0.000198447
0.00131524
0.00485924
0.00880627
0.0180441
0.00401667
0.00135775
0.00128313
0.00366823
0.0196544
0.00781795
0.00907294
0.00425822
0.00148753
0.00124254
0.0137417
0.0140492
0.00490458
0.000599946
0.00277858
0.0186134
0.0187494
0.016874
0.00123937
0.0142755
0.00194291
0.0128656
0.000840376
0.0187926
0.00124256
0.011738
0.00128599
0.012026
0.00181596
0.00159247
0.00554172
0.00123831
0.00138176
0.0173785
0.019948
0.00134317
0.0109056
0.00413084
0.0017837
0.0198094
0.00414039
0.0175886
0.00835556
0.0012371
0.00124179
0.0012392
0.00599752
0.00669262
0.00126444
0.020286
0.0195009
0.00166127
0.00772286
0.0077108
0.00522724
0.0125472
0.0100974
0.00140757
0.00594372
0.00142778
0.00113562
0.00545103
0.00153246
0.0177454
0.0130104
0.00307018
0.00124623
0.0128393
0.0133509
0.00124636
0.00351767
0.00375289
0.00293609
0.00154736
0.0133609
0.00124568
0.0012418
0.0137074
0.0159557
0.00125318
0.00303584
0.0201733
0.00433191
0.00904278
0.00821379
0.0170753
0.000443916
0.00883348
0.00250649
0.0158491
0.012359
0.000201247
0.014134
0.0187016
0.0199703
0.00128888
0.00126981
0.00819205
0.00124285
0.00823999
0.000763111
0.00162469
0.0012436
0.00124742
0.00124292
0.0172944
0.00405936
0.00670609
0.00128883
0.0139382
0.00659397
0.00226626
0.0128162
0.00255675
0.00752064
0.0058599
0.0114094
0.00125993
0.00171478
0.003945
0.0123361
0.0141064
0.018267
0.00124778
0.00132853
0.00866401
0.00395947
0.0115536
0.00124469
0.00134939
0.00571908
0.00129892
0.0164515
0.0101203
0.00123937
0.00855566
0.00328241
0.0183154
0.00151843
0.0063214
0.00124757
0.00125362
0.0200563
0.0158531
0.0154383
0.00152687
0.00129563
0.0018596
0.0165464
0.00566386
0.0105826
0.0188136
0.0150491
0.0193477
0.00413128
0.0194787
0.0190793
0.0134817
0.0152662
0.012383
0.00149239
0.00420599
0.00125148
0.00126178
0.0104866
0.0029722
0.00312187
0.00148424
0.00248169
0.0142668
0.00959505
0.00290197
0.0187887
0.0135631
0.00486136
0.00124493
0.00451073
0.0176008
0.0128066
0.00145367
0.00951964
0.00330728
0.00355836
0.00253451
0.0182667
0.00749177
0.00445648
0.0199799
0.00139023
0.00124164
0.00142721
0.00232483
0.00954087
0.00130109
0.00151686
0.00124578
0.00756713
0.0193722
0.0187443
0.0137185
0.0121409
0.0158738
0.0166192
0.00149187
0.00803843
0.0184412
0.00124609
0.00428511
0.00124266
0.00439009
0.00750803
0.00423707
0.00165737
0.00124631
0.0154411
0.00301694
0.00124292
0.00125559
0.0012588
0.00126169
0.00978895
0.00676305
0.0177164
0.00183025
0.00124287
0.00124392
0.00123761
0.0193366
0.00387109
0.00151036
0.0133267
0.0059708
0.00159619
0.00123798
0.00797275
0.00124266
0.00207756
0.0041805
0.00705193
0.00253589
0.00141374
0.00173863
0.0165307
0.00505999
0.00267454
0.0165811
0.0013173
0.00124335
0.00124544
0.0198897
0.00127552
0.0150983
0.00124532
0.0141047
0.0105501
0.0027518
0.00540852
0.00576081
0.00154892
0.0132919
0.0128903
0.00279232
0.0221851
0.010617
0.0160302
0.0140531
0.0195999
0.00818445
0.0196098
0.00483425
0.0065964
0.016342
0.018049
0.0128621
0.0122688
0.00140334
0.0157349
0.00530883
0.0190466
0.00363591
0.00133474
0.00124655
0.00129981
0.00414351
0.0101858
0.00655955
0.00613967
0.00124909
0.0202632
0.00124613
0.00719488
0.0143792
0.0198748
0.0134606
0.0156171
0.00166376
0.00147656
0.00148399
0.0082752
0.00220047
0.00640292
0.00903112
0.0104934
0.0182135
0.0176499
0.0159394
0.00131621
0.0178956
0.0199252
0.00289229
0.00125443
0.0196904
0.0202221
0.00127909
0.0115783
0.00125542
0.0103617
0.0157417
0.0112261
0.0192494
0.00495062
0.0203434
0.00127596
0.0203615
0.00139272
0.0174214
0.0175254
0.0115625
0.0180136
0.0125832
0.0083136
0.0104562
0.00147433
0.00376632
0.00130029
0.00206074
0.00128413
0.00684118
0.00138597
0.0183507
0.00124338
0.00125594
0.00176956
0.00947388
0.00514023
0.0139728
0.0014887
0.0194496
0.0077991
0.0188158
0.00607762
0.0165506
0.0100216
0.00129955
0.0180291
0.0174352
0.00125026
0.0174443
0.0148022
0.0012399
0.0012417
0.00872345
0.00184317
0.0117393
0.00148364
0.00663073
0.00366666
0.00936125
0.0163128
0.017064
0.0158875
0.0161816
0.0183928
0.00140242
0.00127358
0.00887425
0.0121507
0.0161909
0.0107609
0.0182646
0.0045632
0.0200124
0.0200069
0.00662704
0.00298384
0.0165952
0.0148647
0.00132128
0.0180286
0.0146012
0.0014499
0.0193279
0.0161844
0.0167034
0.0034374
0.00463558
0.012442
0.00166532
0.0163688
0.00154205
0.00343439
0.00125181
0.0110788
0.00289344
0.00861725
0.00157176
0.00136786
0.00881151
0.00866512
0.00181525
0.00267576
0.0102265
0.00278913
0.00131725
0.0158013
0.00897449
0.0133436
0.00776858
0.0035311
0.0119122
0.0164571
0.0178033
0.00627055
0.012325
0.0172628
0.00631962
0.015436
0.0201636
0.000385719
0.00578846
0.0124366
0.00129765
0.00321223
0.00800378
0.0122089
0.0027978
0.0218859
0.00439389
0.0101735
0.00646431
0.00168424
0.00124496