/*--------------------------------*- C++ -*----------------------------------*\
| =========                 |                                                 |
| \\      /  F ield         | OpenFOAM: The Open Source CFD Toolbox           |
|  \\    /   O peration     | Version:  2.3.1                                 |
|   \\  /    A nd           | Web:      www.OpenFOAM.org                      |
|    \\/     M anipulation  |                                                 |
\*---------------------------------------------------------------------------*/
FoamFile
{
    version     2.0;
    format      ascii;
    class       volScalarField;
    location    "0.69";
    object      epsilon;
}
// * * * * * * * * * * * * * * * * * * * * * * * * * * * * * * * * * * * * * //

dimensions      [0 2 -3 0 0 0 0];

internalField   nonuniform List<scalar> 
1000
(
0.000942362
0.000975974
0.000976747
0.000976709
0.00097669
0.000976683
0.000976675
0.000976672
0.000976588
0.000973841
0.000976986
0.000983402
0.000983841
0.000983844
0.000983839
0.000983833
0.000983821
0.000983799
0.00098333
0.000975016
0.000979226
0.000985522
0.000986046
0.000986067
0.000986068
0.000986057
0.000986037
0.000986001
0.00098546
0.000976394
0.000980915
0.000987791
0.000988398
0.000988454
0.000988467
0.000988459
0.000988428
0.000988375
0.000987776
0.000978221
0.000983046
0.0009909
0.000991618
0.000991726
0.000991759
0.000991748
0.000991725
0.000991625
0.000990968
0.000980466
0.00097614
0.000981959
0.000982504
0.000982587
0.000982615
0.000982628
0.000982631
0.000982623
0.000982224
0.000975009
0.000982728
0.000639047
0.00062187
0.000621164
0.000621108
0.000621082
0.000621064
0.000621501
0.000637789
0.000981251
0.000984441
0.00061934
0.000600771
0.000600078
0.000600059
0.000600056
0.000600059
0.000600574
0.000618368
0.00098294
0.000986085
0.00061867
0.000600011
0.000599323
0.000599309
0.000599307
0.000599313
0.000599838
0.000617822
0.000984602
0.000988168
0.000619868
0.000601098
0.000600456
0.000600464
0.000600465
0.000600453
0.000600941
0.000619092
0.000986726
0.000978267
0.000983369
0.000983897
0.000983975
0.00098401
0.000984028
0.000984035
0.000984026
0.000983589
0.000975994
0.000983874
0.000621621
0.000603208
0.000602487
0.000602448
0.000602431
0.000602421
0.000602914
0.000620513
0.000982525
0.000985381
0.00060116
0.000581063
0.000580294
0.000580275
0.000580273
0.00058028
0.000580854
0.000600105
0.00098406
0.000986842
0.000600544
0.000580324
0.000579556
0.00057954
0.00057954
0.000579546
0.000580127
0.000599546
0.000985505
0.000988717
0.000601274
0.000580948
0.000580198
0.000580193
0.000580192
0.000580191
0.000580756
0.000600316
0.000987388
0.000979107
0.000984143
0.000984639
0.000984702
0.000984732
0.000984749
0.000984757
0.000984747
0.000984307
0.000976687
0.000984531
0.00061992
0.000601528
0.000600833
0.000600805
0.000600795
0.000600792
0.000601296
0.000619013
0.000983162
0.000985859
0.000600278
0.000580172
0.000579405
0.000579387
0.000579386
0.000579394
0.000579972
0.000599286
0.00098455
0.00098715
0.000599729
0.000579509
0.000578741
0.000578725
0.000578724
0.000578731
0.000579312
0.000598755
0.000985819
0.00098881
0.000600154
0.000579865
0.000579103
0.000579091
0.00057909
0.000579093
0.000579669
0.000599198
0.000987467
0.000979559
0.000984565
0.000985038
0.000985088
0.000985112
0.000985125
0.000985132
0.000985119
0.000984678
0.000977041
0.000984912
0.000618821
0.000600437
0.000599751
0.000599728
0.000599722
0.000599725
0.000600237
0.000618016
0.000983496
0.000986134
0.000600071
0.000580012
0.000579249
0.000579231
0.00057923
0.000579239
0.000579816
0.000599125
0.000984801
0.000987325
0.000599587
0.000579436
0.000578673
0.000578657
0.000578656
0.000578663
0.00057924
0.000598641
0.000985977
0.000988855
0.000599877
0.000579698
0.00057894
0.000578926
0.000578925
0.000578929
0.000579502
0.000598938
0.00098749
0.000979634
0.000984764
0.000985237
0.000985282
0.000985304
0.000985315
0.00098532
0.000985302
0.000984853
0.000977068
0.000985006
0.000618168
0.000599792
0.000599119
0.000599103
0.000599104
0.000599114
0.000599632
0.000617448
0.00098356
0.000986237
0.000599998
0.000579975
0.000579217
0.0005792
0.000579201
0.000579211
0.000579787
0.00059909
0.000984885
0.000987453
0.000599574
0.000579474
0.000578718
0.000578703
0.000578703
0.00057871
0.000579283
0.000598659
0.000986089
0.000989
0.000599837
0.00057974
0.000578989
0.000578976
0.000578976
0.000578979
0.000579546
0.000598922
0.000987618
0.000979367
0.000984804
0.000985294
0.000985337
0.000985355
0.000985362
0.000985364
0.000985341
0.000984873
0.000976769
0.000984836
0.000618145
0.000599786
0.000599114
0.000599098
0.000599099
0.000599109
0.000599626
0.000617442
0.000983361
0.000986201
0.000600099
0.000580102
0.000579349
0.000579332
0.000579333
0.000579342
0.000579915
0.000599205
0.000984821
0.000987587
0.000599745
0.000579673
0.000578922
0.000578908
0.000578909
0.000578914
0.000579481
0.000598836
0.000986194
0.00098932
0.000600117
0.000580059
0.000579318
0.000579308
0.000579309
0.000579307
0.000579862
0.000599201
0.000987905
0.000978745
0.000984467
0.000984972
0.000985016
0.000985031
0.000985038
0.000985036
0.000985008
0.000984521
0.000976129
0.000984357
0.000618922
0.00060065
0.000599984
0.00059997
0.000599971
0.00059998
0.000600493
0.000618238
0.000982856
0.00098594
0.000601162
0.00058128
0.000580539
0.000580525
0.000580527
0.000580533
0.000581096
0.000600287
0.000984533
0.000987593
0.000601078
0.00058115
0.000580418
0.00058041
0.000580412
0.000580412
0.000580962
0.000600189
0.000986166
0.000989679
0.000602057
0.000582217
0.00058152
0.000581524
0.000581526
0.000581509
0.000582023
0.000601163
0.000988227
0.000977726
0.000983271
0.000983744
0.000983785
0.000983799
0.000983803
0.000983798
0.00098377
0.000983308
0.000975083
0.000983209
0.000638784
0.000622031
0.000621454
0.000621452
0.000621458
0.000621461
0.000621913
0.000638293
0.000981615
0.000985017
0.000623583
0.000605509
0.000604889
0.000604898
0.000604903
0.000604895
0.000605371
0.000622937
0.000983502
0.000986972
0.000625591
0.000607658
0.00060709
0.000607119
0.000607127
0.000607095
0.000607516
0.00062494
0.000985425
0.000989546
0.000630876
0.000613451
0.000613021
0.000613098
0.000613104
0.000613023
0.000613309
0.000630248
0.000987964
0.000973953
0.000974137
0.00097416
0.00097417
0.000974174
0.000974177
0.000974174
0.000974166
0.000974078
0.000971159
0.000975355
0.000980974
0.000981484
0.000981529
0.000981542
0.000981545
0.000981535
0.000981503
0.000981021
0.000972635
0.000977069
0.000983165
0.000983765
0.000983837
0.00098386
0.000983866
0.000983843
0.000983783
0.000983216
0.000974347
0.000979339
0.000985509
0.000986173
0.000986279
0.000986318
0.000986322
0.000986281
0.000986179
0.000985532
0.000976604
0.000982832
0.000989177
0.00098995
0.000990104
0.000990158
0.000990158
0.000990097
0.000989925
0.000989171
0.000980126
0.000990864
0.000997711
0.000998677
0.000998879
0.00099893
0.000998928
0.000998862
0.000998643
0.000997665
0.000988259
0.00100627
0.00104267
0.00104592
0.00104504
0.00104453
0.0010445
0.00104496
0.00104578
0.00104358
0.00100442
0.00117769
0.00169425
0.00172956
0.00170425
0.00169504
0.00169461
0.00170256
0.00172736
0.00170797
0.00118518
0.00278319
0.00801621
0.00852276
0.00835666
0.00828866
0.00828381
0.00834007
0.0085018
0.00813615
0.00286842
0.0120707
0.0443114
0.0488464
0.0489225
0.0488392
0.0488139
0.0488424
0.0487537
0.0449043
0.0124508
0.000992835
0.00064228
0.00062602
0.000625829
0.000625961
0.000625965
0.00062583
0.00062589
0.000641757
0.000991268
0.00099724
0.000673751
0.000660597
0.00066101
0.000661181
0.000661182
0.000661013
0.000660519
0.000673692
0.000995812
0.00101999
0.000851242
0.00085066
0.000850544
0.000850416
0.000850385
0.000850417
0.000850621
0.000853954
0.00101955
0.00142325
0.00383943
0.00390055
0.00363444
0.00355675
0.00355458
0.00362584
0.00389172
0.00391556
0.00144393
0.0195838
0.124463
0.135326
0.135106
0.134726
0.134673
0.134947
0.135226
0.126149
0.0203573
0.000991372
0.000603803
0.000584181
0.000583561
0.000583592
0.000583593
0.000583549
0.000583985
0.00060293
0.000989965
0.000994026
0.000606922
0.000587704
0.000587146
0.00058717
0.00058717
0.000587135
0.000587517
0.000606141
0.000992706
0.000999459
0.000653779
0.000639977
0.000640804
0.000641176
0.00064118
0.000640818
0.000639948
0.000653955
0.000998427
0.00124745
0.00303508
0.00319027
0.00318526
0.00318181
0.00318129
0.00318404
0.00319221
0.00307969
0.00125952
0.0208428
0.127551
0.135704
0.13554
0.135312
0.135288
0.135474
0.135776
0.129306
0.0216644
0.000990169
0.000600247
0.000580198
0.000579483
0.000579485
0.000579484
0.000579469
0.000579995
0.000599325
0.000988781
0.000992271
0.000600079
0.00058001
0.000579262
0.000579242
0.00057924
0.000579245
0.000579806
0.000599176
0.000990936
0.00099534
0.000629049
0.000611491
0.000611058
0.000611177
0.000611184
0.000611074
0.000611401
0.00062883
0.000994228
0.00122553
0.00303774
0.00319336
0.00320074
0.00320052
0.00320034
0.00320058
0.00319756
0.00308334
0.00123677
0.0222165
0.138107
0.146471
0.146675
0.146587
0.146577
0.146659
0.146658
0.140108
0.0231311
0.000989491
0.000599694
0.00057957
0.000578834
0.000578829
0.000578828
0.000578821
0.00057937
0.000598772
0.000988116
0.000991389
0.000599314
0.00057913
0.000578356
0.000578332
0.000578331
0.000578341
0.000578928
0.000598398
0.000990046
0.000993865
0.000623328
0.000605394
0.000604923
0.000605021
0.000605029
0.000604939
0.0006053
0.000623025
0.000992701
0.00122293
0.00310372
0.00326086
0.00327228
0.00327421
0.00327423
0.00327288
0.00326674
0.00315225
0.00123426
0.0229032
0.142893
0.151463
0.151874
0.151869
0.151868
0.151887
0.151713
0.145019
0.0238673
0.000989352
0.000599891
0.000579642
0.000578903
0.0005789
0.000578899
0.00057889
0.000579444
0.000598953
0.00098799
0.0009914
0.000599638
0.000579139
0.000578351
0.000578327
0.000578326
0.000578338
0.00057894
0.000598708
0.000990062
0.000994204
0.000625911
0.000608515
0.000608304
0.000608464
0.000608468
0.000608319
0.000608434
0.000625655
0.000993021
0.00134454
0.00412869
0.00442331
0.00450479
0.00453393
0.0045345
0.00450835
0.00443639
0.0042
0.00136247
0.0231125
0.142746
0.151212
0.151641
0.151652
0.151652
0.151667
0.151489
0.144897
0.0241041
0.000989644
0.000600709
0.000580289
0.000579563
0.000579572
0.000579571
0.000579555
0.000580097
0.000599769
0.000988319
0.000992098
0.00060076
0.000579708
0.000578911
0.000578891
0.000578892
0.000578902
0.000579518
0.000599826
0.000990749
0.000996817
0.000640442
0.000624648
0.000625416
0.000625939
0.000625952
0.000625477
0.000624665
0.000640457
0.00099571
0.00156279
0.00509952
0.00553466
0.00573215
0.005807
0.00580879
0.00574102
0.0055576
0.00518328
0.0015914
0.0232185
0.139162
0.147159
0.14755
0.147564
0.147566
0.14759
0.147459
0.14127
0.0242404
0.000990329
0.000602481
0.00058191
0.000581207
0.000581228
0.000581231
0.000581203
0.000581731
0.000601555
0.000989014
0.000992943
0.00060469
0.000583135
0.000582436
0.000582452
0.000582453
0.000582438
0.000582956
0.000603783
0.000991571
0.00100322
0.000662952
0.000648314
0.000650679
0.000651863
0.000651897
0.0006508
0.000648441
0.000663011
0.00100221
0.00175978
0.00364623
0.00395749
0.00414038
0.00421903
0.00422109
0.0041493
0.00397408
0.0036908
0.00179031
0.022735
0.125917
0.132695
0.133215
0.133319
0.133325
0.133275
0.133006
0.127728
0.0237271
0.00099111
0.000620893
0.000601619
0.000600977
0.000600997
0.000600999
0.00060098
0.000601468
0.000620143
0.000989718
0.000992998
0.000633239
0.00061345
0.000613249
0.000613423
0.000613432
0.000613266
0.000613338
0.000632612
0.000991511
0.00101241
0.000716472
0.000701854
0.000703705
0.000704686
0.000704709
0.000703788
0.000701934
0.000716628
0.00101141
0.00135339
0.00248488
0.00262537
0.00266128
0.0026747
0.00267484
0.00266282
0.00263083
0.00251463
0.00136563
0.0186668
0.0847792
0.0887983
0.0894173
0.0896306
0.08964
0.0894778
0.089011
0.0857692
0.0193306
0.000985547
0.00099628
0.00099751
0.00099776
0.000997855
0.000997869
0.00099776
0.000997571
0.000996457
0.000982896
0.000984398
0.000999894
0.00100151
0.00100172
0.00100178
0.00100178
0.00100173
0.00100157
0.00100005
0.000981701
0.00101766
0.00104326
0.00104659
0.00104747
0.00104774
0.00104772
0.00104753
0.00104662
0.00104367
0.00101536
0.00112838
0.00132506
0.00135559
0.00136113
0.00136281
0.00136287
0.00136133
0.00135656
0.00132983
0.00113003
0.00718306
0.0144545
0.0149388
0.0150638
0.015106
0.0151075
0.0150724
0.0149638
0.0145549
0.00730063
)
;

boundaryField
{
    walls
    {
        type            epsilonWallFunction;
        value           nonuniform List<scalar> 
500
(
0.000942362
0.000942362
0.000942362
0.000975974
0.000975974
0.000976747
0.000976747
0.000976709
0.000976709
0.00097669
0.00097669
0.000976683
0.000976683
0.000976675
0.000976675
0.000976672
0.000976672
0.000976588
0.000976588
0.000973841
0.000973841
0.000973841
0.000976986
0.000976986
0.000983402
0.000983841
0.000983844
0.000983839
0.000983833
0.000983821
0.000983799
0.00098333
0.000975016
0.000975016
0.000979226
0.000979226
0.000985522
0.000986046
0.000986067
0.000986068
0.000986057
0.000986037
0.000986001
0.00098546
0.000976394
0.000976394
0.000980915
0.000980915
0.000987791
0.000988398
0.000988454
0.000988467
0.000988459
0.000988428
0.000988375
0.000987776
0.000978221
0.000978221
0.000983046
0.000983046
0.0009909
0.000991618
0.000991726
0.000991759
0.000991748
0.000991725
0.000991625
0.000990968
0.000980466
0.000980466
0.00097614
0.00097614
0.000981959
0.000982504
0.000982587
0.000982615
0.000982628
0.000982631
0.000982623
0.000982224
0.000975009
0.000975009
0.000982728
0.000981251
0.000984441
0.00098294
0.000986085
0.000984602
0.000988168
0.000986726
0.000978267
0.000978267
0.000983369
0.000983897
0.000983975
0.00098401
0.000984028
0.000984035
0.000984026
0.000983589
0.000975994
0.000975994
0.000983874
0.000982525
0.000985381
0.00098406
0.000986842
0.000985505
0.000988717
0.000987388
0.000979107
0.000979107
0.000984143
0.000984639
0.000984702
0.000984732
0.000984749
0.000984757
0.000984747
0.000984307
0.000976687
0.000976687
0.000984531
0.000983162
0.000985859
0.00098455
0.00098715
0.000985819
0.00098881
0.000987467
0.000979559
0.000979559
0.000984565
0.000985038
0.000985088
0.000985112
0.000985125
0.000985132
0.000985119
0.000984678
0.000977041
0.000977041
0.000984912
0.000983496
0.000986134
0.000984801
0.000987325
0.000985977
0.000988855
0.00098749
0.000979634
0.000979634
0.000984764
0.000985237
0.000985282
0.000985304
0.000985315
0.00098532
0.000985302
0.000984853
0.000977068
0.000977068
0.000985006
0.00098356
0.000986237
0.000984885
0.000987453
0.000986089
0.000989
0.000987618
0.000979367
0.000979367
0.000984804
0.000985294
0.000985337
0.000985355
0.000985362
0.000985364
0.000985341
0.000984873
0.000976769
0.000976769
0.000984836
0.000983361
0.000986201
0.000984821
0.000987587
0.000986194
0.00098932
0.000987905
0.000978745
0.000978745
0.000984467
0.000984972
0.000985016
0.000985031
0.000985038
0.000985036
0.000985008
0.000984521
0.000976129
0.000976129
0.000984357
0.000982856
0.00098594
0.000984533
0.000987593
0.000986166
0.000989679
0.000988227
0.000977726
0.000977726
0.000983271
0.000983744
0.000983785
0.000983799
0.000983803
0.000983798
0.00098377
0.000983308
0.000975083
0.000975083
0.000983209
0.000981615
0.000985017
0.000983502
0.000986972
0.000985425
0.000989546
0.000987964
0.000973953
0.000973953
0.000973953
0.000974137
0.000974137
0.00097416
0.00097416
0.00097417
0.00097417
0.000974174
0.000974174
0.000974177
0.000974177
0.000974174
0.000974174
0.000974166
0.000974166
0.000974078
0.000974078
0.000971159
0.000971159
0.000971159
0.000975355
0.000975355
0.000980974
0.000981484
0.000981529
0.000981542
0.000981545
0.000981535
0.000981503
0.000981021
0.000972635
0.000972635
0.000977069
0.000977069
0.000983165
0.000983765
0.000983837
0.00098386
0.000983866
0.000983843
0.000983783
0.000983216
0.000974347
0.000974347
0.000979339
0.000979339
0.000985509
0.000986173
0.000986279
0.000986318
0.000986322
0.000986281
0.000986179
0.000985532
0.000976604
0.000976604
0.000982832
0.000982832
0.000989177
0.00098995
0.000990104
0.000990158
0.000990158
0.000990097
0.000989925
0.000989171
0.000980126
0.000980126
0.000990864
0.000990864
0.000997711
0.000998677
0.000998879
0.00099893
0.000998928
0.000998862
0.000998643
0.000997665
0.000988259
0.000988259
0.00100627
0.00100627
0.00104267
0.00104592
0.00104504
0.00104453
0.0010445
0.00104496
0.00104578
0.00104358
0.00100442
0.00100442
0.00117769
0.00117769
0.00169425
0.00172956
0.00170425
0.00169504
0.00169461
0.00170256
0.00172736
0.00170797
0.00118518
0.00118518
0.00278319
0.00278319
0.00801621
0.00852276
0.00835666
0.00828866
0.00828381
0.00834007
0.0085018
0.00813615
0.00286842
0.00286842
0.0120707
0.0120707
0.0443114
0.0488464
0.0489225
0.0488392
0.0488139
0.0488424
0.0487537
0.0449043
0.0124508
0.0124508
0.000992835
0.000991268
0.00099724
0.000995812
0.00101999
0.00101955
0.00142325
0.00144393
0.0195838
0.0203573
0.000991372
0.000989965
0.000994026
0.000992706
0.000999459
0.000998427
0.00124745
0.00125952
0.0208428
0.0216644
0.000990169
0.000988781
0.000992271
0.000990936
0.00099534
0.000994228
0.00122553
0.00123677
0.0222165
0.0231311
0.000989491
0.000988116
0.000991389
0.000990046
0.000993865
0.000992701
0.00122293
0.00123426
0.0229032
0.0238673
0.000989352
0.00098799
0.0009914
0.000990062
0.000994204
0.000993021
0.00134454
0.00136247
0.0231125
0.0241041
0.000989644
0.000988319
0.000992098
0.000990749
0.000996817
0.00099571
0.00156279
0.0015914
0.0232185
0.0242404
0.000990329
0.000989014
0.000992943
0.000991571
0.00100322
0.00100221
0.00175978
0.00179031
0.022735
0.0237271
0.00099111
0.000989718
0.000992998
0.000991511
0.00101241
0.00101141
0.00135339
0.00136563
0.0186668
0.0193306
0.000985547
0.000985547
0.00099628
0.00099751
0.00099776
0.000997855
0.000997869
0.00099776
0.000997571
0.000996457
0.000982896
0.000982896
0.000984398
0.000984398
0.000999894
0.00100151
0.00100172
0.00100178
0.00100178
0.00100173
0.00100157
0.00100005
0.000981701
0.000981701
0.00101766
0.00101766
0.00104326
0.00104659
0.00104747
0.00104774
0.00104772
0.00104753
0.00104662
0.00104367
0.00101536
0.00101536
0.00112838
0.00112838
0.00132506
0.00135559
0.00136113
0.00136281
0.00136287
0.00136133
0.00135656
0.00132983
0.00113003
0.00113003
0.00718306
0.00718306
0.0144545
0.0149388
0.0150638
0.015106
0.0151075
0.0150724
0.0149638
0.0145549
0.00730063
0.00730063
)
;
        Cmu             0.09;
        kappa           0.41;
        E               9.8;
    }
    lid
    {
        type            epsilonWallFunction;
        value           nonuniform List<scalar> 
100
(
0.0120707
0.0443114
0.0488464
0.0489225
0.0488392
0.0488139
0.0488424
0.0487537
0.0449043
0.0124508
0.0195838
0.124463
0.135326
0.135106
0.134726
0.134673
0.134947
0.135226
0.126149
0.0203573
0.0208428
0.127551
0.135704
0.13554
0.135312
0.135288
0.135474
0.135776
0.129306
0.0216644
0.0222165
0.138107
0.146471
0.146675
0.146587
0.146577
0.146659
0.146658
0.140108
0.0231311
0.0229032
0.142893
0.151463
0.151874
0.151869
0.151868
0.151887
0.151713
0.145019
0.0238673
0.0231125
0.142746
0.151212
0.151641
0.151652
0.151652
0.151667
0.151489
0.144897
0.0241041
0.0232185
0.139162
0.147159
0.14755
0.147564
0.147566
0.14759
0.147459
0.14127
0.0242404
0.022735
0.125917
0.132695
0.133215
0.133319
0.133325
0.133275
0.133006
0.127728
0.0237271
0.0186668
0.0847792
0.0887983
0.0894173
0.0896306
0.08964
0.0894778
0.089011
0.0857692
0.0193306
0.00718306
0.0144545
0.0149388
0.0150638
0.015106
0.0151075
0.0150724
0.0149638
0.0145549
0.00730063
)
;
        Cmu             0.09;
        kappa           0.41;
        E               9.8;
    }
}


// ************************************************************************* //
