/*--------------------------------*- C++ -*----------------------------------*\
| =========                 |                                                 |
| \\      /  F ield         | OpenFOAM: The Open Source CFD Toolbox           |
|  \\    /   O peration     | Version:  2.3.1                                 |
|   \\  /    A nd           | Web:      www.OpenFOAM.org                      |
|    \\/     M anipulation  |                                                 |
\*---------------------------------------------------------------------------*/
FoamFile
{
    version     2.0;
    format      ascii;
    class       volScalarField;
    location    "0.69";
    object      k;
}
// * * * * * * * * * * * * * * * * * * * * * * * * * * * * * * * * * * * * * //

dimensions      [0 2 -2 0 0 0 0];

internalField   nonuniform List<scalar> 
1000
(
0.00239048
0.00244696
0.00244828
0.00244822
0.00244819
0.00244818
0.00244816
0.00244816
0.00244801
0.00244342
0.0024487
0.00245974
0.00246051
0.00246052
0.00246051
0.0024605
0.00246048
0.00246044
0.00245963
0.00244545
0.00245255
0.00246341
0.00246432
0.00246436
0.00246436
0.00246435
0.00246431
0.00246425
0.00246331
0.00244783
0.00245547
0.00246733
0.00246838
0.00246848
0.00246851
0.0024685
0.00246844
0.00246835
0.00246731
0.00245098
0.00245907
0.00247262
0.00247386
0.00247405
0.0024741
0.00247409
0.00247405
0.00247387
0.00247273
0.00245478
0.00244729
0.00245724
0.00245817
0.00245832
0.00245836
0.00245838
0.00245839
0.00245837
0.00245768
0.00244543
0.00245855
0.00275234
0.00277145
0.00277246
0.00277254
0.00277257
0.00277257
0.00277202
0.0027555
0.0024561
0.0024615
0.00277448
0.00279524
0.00279629
0.00279634
0.00279634
0.00279632
0.00279567
0.00277756
0.002459
0.00246433
0.00277683
0.00279772
0.00279878
0.00279883
0.00279883
0.0027988
0.00279813
0.00277983
0.00246186
0.00246786
0.00278075
0.00280216
0.00280342
0.00280356
0.00280356
0.00280347
0.00280261
0.0027838
0.00246547
0.00245092
0.00245967
0.00246057
0.00246071
0.00246076
0.00246079
0.00246081
0.00246079
0.00246003
0.00244713
0.00246053
0.00277158
0.00279217
0.00279323
0.0027933
0.00279332
0.00279333
0.00279271
0.00277482
0.00245829
0.00246312
0.00279466
0.00281722
0.00281837
0.00281842
0.00281842
0.0028184
0.00281768
0.00279804
0.00246093
0.00246563
0.0027968
0.0028195
0.00282067
0.00282073
0.00282073
0.0028207
0.00281995
0.00280012
0.00246341
0.00246883
0.00279871
0.00282167
0.00282294
0.00282303
0.00282303
0.00282297
0.00282212
0.00280203
0.00246662
0.00245236
0.00246099
0.00246185
0.00246195
0.00246201
0.00246203
0.00246205
0.00246203
0.00246127
0.00244832
0.00246166
0.00277343
0.00279399
0.00279502
0.00279508
0.0027951
0.0027951
0.00279447
0.00277648
0.00245938
0.00246394
0.00279572
0.00281828
0.00281943
0.00281948
0.00281948
0.00281946
0.00281874
0.00279904
0.00246177
0.00246616
0.00279764
0.00282035
0.00282151
0.00282157
0.00282157
0.00282154
0.00282078
0.00280094
0.00246394
0.002469
0.00279872
0.00282151
0.00282272
0.00282279
0.00282279
0.00282274
0.00282195
0.002802
0.00246677
0.00245313
0.00246172
0.00246253
0.00246262
0.00246266
0.00246268
0.00246269
0.00246267
0.00246191
0.00244893
0.00246231
0.00277443
0.00279496
0.00279597
0.00279603
0.00279604
0.00279604
0.0027954
0.00277737
0.00245996
0.00246441
0.00279587
0.00281837
0.00281951
0.00281956
0.00281956
0.00281955
0.00281881
0.00279914
0.0024622
0.00246646
0.00279763
0.00282025
0.00282141
0.00282147
0.00282146
0.00282144
0.00282068
0.0028009
0.00246421
0.00246908
0.00279846
0.00282108
0.00282226
0.00282232
0.00282232
0.00282228
0.00282151
0.00280169
0.00246681
0.00245326
0.00246206
0.00246288
0.00246296
0.00246299
0.00246301
0.00246302
0.00246299
0.00246221
0.00244898
0.00246247
0.00277511
0.00279564
0.00279664
0.00279669
0.0027967
0.00279668
0.00279603
0.00277797
0.00246006
0.00246459
0.00279607
0.00281853
0.00281967
0.00281973
0.00281973
0.00281971
0.00281897
0.0027993
0.00246234
0.00246667
0.00279779
0.00282036
0.00282152
0.00282158
0.00282158
0.00282155
0.00282079
0.00280102
0.00246441
0.00246932
0.00279861
0.00282116
0.00282233
0.0028224
0.0028224
0.00282236
0.00282158
0.0028018
0.00246703
0.0024528
0.00246214
0.00246299
0.00246306
0.00246309
0.0024631
0.00246311
0.00246307
0.00246225
0.00244846
0.00246218
0.00277538
0.0027959
0.00279691
0.00279696
0.00279697
0.00279695
0.0027963
0.00277822
0.00245972
0.00246452
0.00279634
0.00281879
0.00281994
0.00281999
0.00282
0.00281998
0.00281923
0.00279955
0.00246223
0.0024669
0.00279817
0.00282073
0.0028219
0.00282197
0.00282197
0.00282194
0.00282116
0.00280137
0.00246458
0.00246987
0.00279922
0.00282178
0.00282298
0.00282305
0.00282305
0.002823
0.00282219
0.00280237
0.00246752
0.00245173
0.00246157
0.00246244
0.00246252
0.00246255
0.00246256
0.00246255
0.0024625
0.00246166
0.00244736
0.00246135
0.00277479
0.00279526
0.00279627
0.00279632
0.00279633
0.00279631
0.00279565
0.00277761
0.00245885
0.00246407
0.00279566
0.00281803
0.00281918
0.00281924
0.00281925
0.00281922
0.00281847
0.00279884
0.00246173
0.0024669
0.00279758
0.00282005
0.00282123
0.0028213
0.0028213
0.00282126
0.00282047
0.00280074
0.00246453
0.00247047
0.00279904
0.00282155
0.00282279
0.00282288
0.00282289
0.00282281
0.00282194
0.00280212
0.00246806
0.00244997
0.00245951
0.00246033
0.0024604
0.00246043
0.00246043
0.00246042
0.00246037
0.00245957
0.00244556
0.00245937
0.00275533
0.00277423
0.00277514
0.00277518
0.00277518
0.00277517
0.00277457
0.00275783
0.00245671
0.00246248
0.002774
0.00279452
0.00279555
0.00279559
0.00279559
0.00279557
0.0027949
0.00277681
0.00245995
0.00246583
0.00277476
0.00279525
0.00279629
0.00279634
0.00279635
0.00279631
0.00279561
0.00277751
0.00246326
0.00247024
0.00277506
0.00279551
0.00279662
0.0027967
0.0027967
0.00279662
0.00279581
0.00277768
0.00246761
0.00244361
0.00244393
0.00244397
0.00244399
0.00244399
0.002444
0.00244399
0.00244398
0.00244383
0.00243894
0.00244603
0.00245562
0.0024565
0.00245657
0.0024566
0.0024566
0.00245658
0.00245653
0.0024557
0.00244148
0.00244898
0.00245939
0.00246042
0.00246054
0.00246058
0.00246059
0.00246055
0.00246045
0.00245947
0.00244444
0.00245289
0.00246342
0.00246457
0.00246475
0.00246482
0.00246482
0.00246475
0.00246458
0.00246346
0.00244833
0.00245891
0.00246975
0.00247108
0.00247135
0.00247144
0.00247144
0.00247134
0.00247104
0.00246974
0.0024544
0.00247266
0.00248465
0.00248635
0.0024867
0.00248678
0.00248678
0.00248667
0.00248629
0.00248459
0.00246834
0.0025002
0.00256777
0.00257393
0.00257219
0.00257123
0.00257117
0.00257203
0.00257367
0.00256948
0.00249728
0.00279858
0.00364425
0.00370193
0.00366256
0.00364813
0.00364745
0.00365992
0.00369855
0.00366539
0.00281177
0.00506456
0.010502
0.010969
0.0108241
0.0107637
0.0107594
0.0108094
0.010951
0.0106086
0.00517023
0.0134767
0.0326399
0.0348997
0.0349392
0.0348975
0.0348854
0.0349009
0.0348568
0.0329333
0.0137611
0.00247596
0.00277282
0.00279276
0.00279386
0.00279392
0.00279392
0.00279385
0.00279301
0.00277528
0.00247336
0.00248356
0.00280555
0.00283011
0.00283242
0.00283257
0.00283256
0.00283243
0.00283048
0.00280877
0.0024812
0.00252364
0.00310524
0.00315772
0.00316352
0.0031644
0.00316438
0.00316341
0.00315845
0.00311252
0.00252306
0.00318737
0.00542479
0.00552634
0.0054037
0.00536718
0.00536585
0.00539905
0.00552237
0.00547608
0.00321955
0.0186362
0.0646494
0.0684464
0.0683876
0.0682631
0.0682456
0.068335
0.0684154
0.0652289
0.0191239
0.00247345
0.00280007
0.00282285
0.00282424
0.00282438
0.00282438
0.00282425
0.00282322
0.00280313
0.00247111
0.00247802
0.00280168
0.00282461
0.00282597
0.00282603
0.00282603
0.00282599
0.002825
0.00280489
0.00247583
0.00248749
0.00289785
0.00293538
0.00294127
0.00294257
0.00294259
0.00294139
0.00293625
0.00290304
0.00248581
0.00290473
0.00493424
0.00508533
0.00509383
0.00509478
0.00509451
0.00509337
0.0050878
0.00496831
0.00292419
0.0194253
0.0657205
0.0685556
0.0685023
0.0684246
0.0684165
0.0684804
0.0685812
0.0663183
0.0199323
0.00247138
0.00279972
0.00282255
0.00282385
0.00282396
0.00282396
0.00282386
0.00282294
0.00280287
0.00246907
0.00247504
0.00279836
0.0028209
0.00282207
0.0028221
0.0028221
0.00282208
0.0028213
0.00280154
0.00247283
0.00248042
0.00284115
0.00286796
0.00287005
0.00287041
0.00287042
0.00287012
0.00286857
0.00284536
0.0024786
0.00286896
0.00480862
0.00494762
0.00495835
0.00495989
0.00495983
0.00495845
0.00495121
0.00484244
0.00288721
0.0202911
0.0693568
0.072189
0.0722606
0.0722317
0.0722286
0.0722555
0.0722517
0.0700207
0.020844
0.00247021
0.00279864
0.00282142
0.00282267
0.00282277
0.00282277
0.00282269
0.00282183
0.00280184
0.00246793
0.00247354
0.00279717
0.00281967
0.00282079
0.00282083
0.00282082
0.0028208
0.00282008
0.00280037
0.00247131
0.00247784
0.00282959
0.00285509
0.00285672
0.00285693
0.00285694
0.00285677
0.00285565
0.00283361
0.00247593
0.00286528
0.00478757
0.0049187
0.00492856
0.00493033
0.00493036
0.00492899
0.00492291
0.00482206
0.00288375
0.0207185
0.0709666
0.0738342
0.0739729
0.0739718
0.0739714
0.0739775
0.0739165
0.0716638
0.0212957
0.00246998
0.00279881
0.00282177
0.00282306
0.00282316
0.00282316
0.00282307
0.0028222
0.00280206
0.00246772
0.00247356
0.00279701
0.00281982
0.00282098
0.00282101
0.00282101
0.00282099
0.00282025
0.00280027
0.00247134
0.00247843
0.00283165
0.00285809
0.00285998
0.00286025
0.00286025
0.00286004
0.00285867
0.00283573
0.00247649
0.00306541
0.00530294
0.00549595
0.00554009
0.00555541
0.00555573
0.00554201
0.00550354
0.00534673
0.00309386
0.0208491
0.0708964
0.073728
0.0738721
0.0738758
0.073876
0.073881
0.0738191
0.0716018
0.021441
0.00247049
0.00280046
0.00282384
0.00282524
0.00282539
0.00282538
0.00282527
0.00282431
0.00280381
0.00246829
0.00247476
0.00279796
0.00282153
0.0028228
0.00282286
0.00282286
0.00282283
0.00282201
0.00280131
0.00247252
0.00248303
0.00285766
0.00288838
0.00289193
0.00289275
0.00289277
0.00289206
0.0028891
0.00286224
0.00248122
0.00340308
0.00587971
0.00615304
0.00625945
0.00629931
0.00630029
0.00626416
0.00616585
0.00592911
0.00344597
0.0209162
0.0696363
0.072329
0.072462
0.072467
0.0724677
0.0724754
0.0724284
0.0703315
0.0215246
0.00247169
0.00280275
0.0028266
0.00282814
0.00282833
0.00282834
0.00282818
0.00282712
0.0028062
0.00246951
0.00247618
0.00280492
0.00283068
0.00283252
0.0028327
0.0028327
0.00283257
0.00283121
0.00280848
0.0024739
0.00249413
0.00293208
0.00297175
0.00297878
0.00298087
0.00298093
0.00297898
0.0029728
0.00293755
0.00249251
0.00367763
0.00526494
0.0055145
0.00562666
0.00567305
0.00567424
0.00563196
0.00552547
0.00529744
0.00372046
0.0205989
0.0649094
0.0672565
0.0674444
0.0674837
0.067486
0.0674656
0.0673621
0.0655219
0.0211901
0.00247307
0.00278784
0.00281036
0.00281183
0.00281201
0.00281201
0.00281189
0.00281087
0.00279105
0.00247076
0.00247619
0.00282176
0.00285167
0.00285511
0.00285584
0.00285586
0.0028552
0.00285235
0.00282561
0.00247373
0.00250964
0.00304706
0.00309408
0.00310322
0.00310614
0.0031062
0.00310347
0.00309529
0.00305272
0.00250802
0.00306448
0.00459409
0.00478475
0.00481127
0.0048192
0.00481922
0.00481225
0.00478959
0.00462173
0.00308355
0.0179595
0.049521
0.051095
0.0513373
0.0514209
0.0514245
0.0513606
0.0511764
0.0499002
0.0183773
0.00246372
0.0024821
0.00248421
0.00248465
0.00248481
0.00248483
0.00248465
0.00248432
0.0024824
0.00245931
0.0024614
0.00248811
0.0024909
0.00249127
0.00249138
0.00249137
0.00249129
0.00249102
0.00248837
0.00245692
0.00251836
0.00256173
0.00256737
0.00256886
0.00256931
0.00256928
0.00256895
0.00256742
0.00256242
0.00251459
0.00270436
0.00302324
0.00307151
0.00308019
0.00308281
0.0030829
0.0030805
0.00307301
0.00303067
0.0027072
0.00940865
0.015079
0.0154205
0.0155085
0.0155381
0.0155391
0.0155145
0.0154378
0.0151487
0.00951038
)
;

boundaryField
{
    walls
    {
        type            kqRWallFunction;
        value           nonuniform List<scalar> 
500
(
0.00239048
0.00239048
0.00239048
0.00244696
0.00244696
0.00244828
0.00244828
0.00244822
0.00244822
0.00244819
0.00244819
0.00244818
0.00244818
0.00244816
0.00244816
0.00244816
0.00244816
0.00244801
0.00244801
0.00244342
0.00244342
0.00244342
0.0024487
0.0024487
0.00245974
0.00246051
0.00246052
0.00246051
0.0024605
0.00246048
0.00246044
0.00245963
0.00244545
0.00244545
0.00245255
0.00245255
0.00246341
0.00246432
0.00246436
0.00246436
0.00246435
0.00246431
0.00246425
0.00246331
0.00244783
0.00244783
0.00245547
0.00245547
0.00246733
0.00246838
0.00246848
0.00246851
0.0024685
0.00246844
0.00246835
0.00246731
0.00245098
0.00245098
0.00245907
0.00245907
0.00247262
0.00247386
0.00247405
0.0024741
0.00247409
0.00247405
0.00247387
0.00247273
0.00245478
0.00245478
0.00244729
0.00244729
0.00245724
0.00245817
0.00245832
0.00245836
0.00245838
0.00245839
0.00245837
0.00245768
0.00244543
0.00244543
0.00245855
0.0024561
0.0024615
0.002459
0.00246433
0.00246186
0.00246786
0.00246547
0.00245092
0.00245092
0.00245967
0.00246057
0.00246071
0.00246076
0.00246079
0.00246081
0.00246079
0.00246003
0.00244713
0.00244713
0.00246053
0.00245829
0.00246312
0.00246093
0.00246563
0.00246341
0.00246883
0.00246662
0.00245236
0.00245236
0.00246099
0.00246185
0.00246195
0.00246201
0.00246203
0.00246205
0.00246203
0.00246127
0.00244832
0.00244832
0.00246166
0.00245938
0.00246394
0.00246177
0.00246616
0.00246394
0.002469
0.00246677
0.00245313
0.00245313
0.00246172
0.00246253
0.00246262
0.00246266
0.00246268
0.00246269
0.00246267
0.00246191
0.00244893
0.00244893
0.00246231
0.00245996
0.00246441
0.0024622
0.00246646
0.00246421
0.00246908
0.00246681
0.00245326
0.00245326
0.00246206
0.00246288
0.00246296
0.00246299
0.00246301
0.00246302
0.00246299
0.00246221
0.00244898
0.00244898
0.00246247
0.00246006
0.00246459
0.00246234
0.00246667
0.00246441
0.00246932
0.00246703
0.0024528
0.0024528
0.00246214
0.00246299
0.00246306
0.00246309
0.0024631
0.00246311
0.00246307
0.00246225
0.00244846
0.00244846
0.00246218
0.00245972
0.00246452
0.00246223
0.0024669
0.00246458
0.00246987
0.00246752
0.00245173
0.00245173
0.00246157
0.00246244
0.00246252
0.00246255
0.00246256
0.00246255
0.0024625
0.00246166
0.00244736
0.00244736
0.00246135
0.00245885
0.00246407
0.00246173
0.0024669
0.00246453
0.00247047
0.00246806
0.00244997
0.00244997
0.00245951
0.00246033
0.0024604
0.00246043
0.00246043
0.00246042
0.00246037
0.00245957
0.00244556
0.00244556
0.00245937
0.00245671
0.00246248
0.00245995
0.00246583
0.00246326
0.00247024
0.00246761
0.00244361
0.00244361
0.00244361
0.00244393
0.00244393
0.00244397
0.00244397
0.00244399
0.00244399
0.00244399
0.00244399
0.002444
0.002444
0.00244399
0.00244399
0.00244398
0.00244398
0.00244383
0.00244383
0.00243894
0.00243894
0.00243894
0.00244603
0.00244603
0.00245562
0.0024565
0.00245657
0.0024566
0.0024566
0.00245658
0.00245653
0.0024557
0.00244148
0.00244148
0.00244898
0.00244898
0.00245939
0.00246042
0.00246054
0.00246058
0.00246059
0.00246055
0.00246045
0.00245947
0.00244444
0.00244444
0.00245289
0.00245289
0.00246342
0.00246457
0.00246475
0.00246482
0.00246482
0.00246475
0.00246458
0.00246346
0.00244833
0.00244833
0.00245891
0.00245891
0.00246975
0.00247108
0.00247135
0.00247144
0.00247144
0.00247134
0.00247104
0.00246974
0.0024544
0.0024544
0.00247266
0.00247266
0.00248465
0.00248635
0.0024867
0.00248678
0.00248678
0.00248667
0.00248629
0.00248459
0.00246834
0.00246834
0.0025002
0.0025002
0.00256777
0.00257393
0.00257219
0.00257123
0.00257117
0.00257203
0.00257367
0.00256948
0.00249728
0.00249728
0.00279858
0.00279858
0.00364425
0.00370193
0.00366256
0.00364813
0.00364745
0.00365992
0.00369855
0.00366539
0.00281177
0.00281177
0.00506456
0.00506456
0.010502
0.010969
0.0108241
0.0107637
0.0107594
0.0108094
0.010951
0.0106086
0.00517023
0.00517023
0.0134767
0.0134767
0.0326399
0.0348997
0.0349392
0.0348975
0.0348854
0.0349009
0.0348568
0.0329333
0.0137611
0.0137611
0.00247596
0.00247336
0.00248356
0.0024812
0.00252364
0.00252306
0.00318737
0.00321955
0.0186362
0.0191239
0.00247345
0.00247111
0.00247802
0.00247583
0.00248749
0.00248581
0.00290473
0.00292419
0.0194253
0.0199323
0.00247138
0.00246907
0.00247504
0.00247283
0.00248042
0.0024786
0.00286896
0.00288721
0.0202911
0.020844
0.00247021
0.00246793
0.00247354
0.00247131
0.00247784
0.00247593
0.00286528
0.00288375
0.0207185
0.0212957
0.00246998
0.00246772
0.00247356
0.00247134
0.00247843
0.00247649
0.00306541
0.00309386
0.0208491
0.021441
0.00247049
0.00246829
0.00247476
0.00247252
0.00248303
0.00248122
0.00340308
0.00344597
0.0209162
0.0215246
0.00247169
0.00246951
0.00247618
0.0024739
0.00249413
0.00249251
0.00367763
0.00372046
0.0205989
0.0211901
0.00247307
0.00247076
0.00247619
0.00247373
0.00250964
0.00250802
0.00306448
0.00308355
0.0179595
0.0183773
0.00246372
0.00246372
0.0024821
0.00248421
0.00248465
0.00248481
0.00248483
0.00248465
0.00248432
0.0024824
0.00245931
0.00245931
0.0024614
0.0024614
0.00248811
0.0024909
0.00249127
0.00249138
0.00249137
0.00249129
0.00249102
0.00248837
0.00245692
0.00245692
0.00251836
0.00251836
0.00256173
0.00256737
0.00256886
0.00256931
0.00256928
0.00256895
0.00256742
0.00256242
0.00251459
0.00251459
0.00270436
0.00270436
0.00302324
0.00307151
0.00308019
0.00308281
0.0030829
0.0030805
0.00307301
0.00303067
0.0027072
0.0027072
0.00940865
0.00940865
0.015079
0.0154205
0.0155085
0.0155381
0.0155391
0.0155145
0.0154378
0.0151487
0.00951038
0.00951038
)
;
    }
    lid
    {
        type            kqRWallFunction;
        value           nonuniform List<scalar> 
100
(
0.0134767
0.0326399
0.0348997
0.0349392
0.0348975
0.0348854
0.0349009
0.0348568
0.0329333
0.0137611
0.0186362
0.0646494
0.0684464
0.0683876
0.0682631
0.0682456
0.068335
0.0684154
0.0652289
0.0191239
0.0194253
0.0657205
0.0685556
0.0685023
0.0684246
0.0684165
0.0684804
0.0685812
0.0663183
0.0199323
0.0202911
0.0693568
0.072189
0.0722606
0.0722317
0.0722286
0.0722555
0.0722517
0.0700207
0.020844
0.0207185
0.0709666
0.0738342
0.0739729
0.0739718
0.0739714
0.0739775
0.0739165
0.0716638
0.0212957
0.0208491
0.0708964
0.073728
0.0738721
0.0738758
0.073876
0.073881
0.0738191
0.0716018
0.021441
0.0209162
0.0696363
0.072329
0.072462
0.072467
0.0724677
0.0724754
0.0724284
0.0703315
0.0215246
0.0205989
0.0649094
0.0672565
0.0674444
0.0674837
0.067486
0.0674656
0.0673621
0.0655219
0.0211901
0.0179595
0.049521
0.051095
0.0513373
0.0514209
0.0514245
0.0513606
0.0511764
0.0499002
0.0183773
0.00940865
0.015079
0.0154205
0.0155085
0.0155381
0.0155391
0.0155145
0.0154378
0.0151487
0.00951038
)
;
    }
}


// ************************************************************************* //
