/*--------------------------------*- C++ -*----------------------------------*\
| =========                 |                                                 |
| \\      /  F ield         | OpenFOAM: The Open Source CFD Toolbox           |
|  \\    /   O peration     | Version:  2.3.1                                 |
|   \\  /    A nd           | Web:      www.OpenFOAM.org                      |
|    \\/     M anipulation  |                                                 |
\*---------------------------------------------------------------------------*/
FoamFile
{
    version     2.0;
    format      ascii;
    class       volScalarField;
    location    "0.69";
    object      nut;
}
// * * * * * * * * * * * * * * * * * * * * * * * * * * * * * * * * * * * * * //

dimensions      [0 2 -1 0 0 0 0];

internalField   nonuniform List<scalar> 
1000
(
0.000545752
0.000552152
0.00055231
0.000552304
0.000552301
0.000552299
0.000552298
0.000552297
0.00055228
0.00055176
0.000552362
0.000553721
0.000553819
0.000553821
0.00055382
0.000553819
0.000553817
0.000553812
0.00055371
0.000552012
0.000552835
0.000554179
0.000554294
0.0005543
0.000554301
0.000554299
0.000554295
0.000554287
0.000554168
0.000552306
0.000553199
0.000554666
0.0005548
0.000554813
0.000554817
0.000554815
0.000554809
0.000554796
0.000554665
0.000552695
0.00055362
0.000555298
0.000555454
0.000555477
0.000555484
0.000555483
0.000555477
0.000555457
0.000555312
0.000553139
0.000552205
0.000553407
0.00055352
0.000553537
0.000553542
0.000553545
0.000553545
0.000553543
0.000553458
0.000552008
0.000553566
0.00106687
0.00111162
0.0011137
0.00111386
0.00111393
0.00111397
0.00111274
0.00107144
0.000553291
0.000553928
0.0011186
0.0011705
0.00117273
0.00117281
0.00117282
0.00117279
0.00117124
0.00112285
0.000553648
0.000554275
0.00112172
0.00117406
0.0011763
0.00117637
0.00117637
0.00117634
0.00117474
0.00112568
0.000553999
0.000554695
0.00112271
0.00117566
0.00117798
0.00117808
0.00117808
0.00117802
0.00117635
0.00112658
0.000554427
0.000552641
0.000553705
0.000553816
0.000553832
0.000553838
0.000553842
0.000553843
0.000553841
0.000553746
0.000552216
0.00055381
0.00111217
0.00116322
0.00116549
0.00116563
0.00116568
0.0011657
0.00116423
0.00111676
0.000553558
0.000554128
0.00116926
0.00122931
0.00123194
0.00123203
0.00123203
0.001232
0.00123015
0.00117415
0.000553883
0.000554435
0.00117225
0.00123287
0.00123553
0.00123561
0.00123561
0.00123557
0.00123368
0.00117699
0.000554186
0.000554821
0.00117243
0.00123344
0.00123614
0.00123624
0.00123623
0.00123618
0.00123424
0.00117709
0.000554574
0.000552815
0.000553867
0.000553972
0.000553985
0.000553991
0.000553994
0.000553995
0.000553993
0.000553898
0.000552362
0.000553948
0.00111671
0.00116799
0.0011702
0.0011703
0.00117034
0.00117034
0.00116884
0.00112081
0.000553692
0.000554228
0.00117187
0.00123212
0.00123476
0.00123485
0.00123485
0.00123482
0.00123295
0.0011766
0.000553985
0.000554498
0.00117455
0.00123534
0.001238
0.00123809
0.00123809
0.00123805
0.00123615
0.00117924
0.000554251
0.000554844
0.00117463
0.00123561
0.00123829
0.00123838
0.00123837
0.00123833
0.00123641
0.00117926
0.000554595
0.000552908
0.000553955
0.000554056
0.000554066
0.000554071
0.000554073
0.000554075
0.000554071
0.000553976
0.000552438
0.000554027
0.0011195
0.00117092
0.00117311
0.0011732
0.00117322
0.00117321
0.00117167
0.00112334
0.000553763
0.000554286
0.0011724
0.00123254
0.00123516
0.00123525
0.00123525
0.00123522
0.00123335
0.001177
0.000554038
0.000554535
0.00117482
0.00123541
0.00123806
0.00123814
0.00123814
0.00123811
0.00123621
0.00117942
0.000554285
0.000554855
0.00117494
0.00123558
0.00123823
0.00123832
0.00123832
0.00123827
0.00123637
0.00117951
0.000554602
0.000552923
0.000553998
0.0005541
0.000554109
0.000554113
0.000554115
0.000554116
0.000554112
0.000554015
0.000552443
0.000554046
0.00112124
0.00117274
0.00117491
0.00117498
0.00117498
0.00117495
0.00117339
0.00112486
0.000553777
0.000554306
0.00117271
0.00123276
0.00123537
0.00123546
0.00123546
0.00123542
0.00123355
0.00117719
0.000554055
0.000554561
0.00117498
0.00123543
0.00123806
0.00123814
0.00123814
0.00123811
0.00123621
0.00117949
0.000554308
0.000554884
0.00117515
0.00123556
0.00123819
0.00123828
0.00123828
0.00123823
0.00123634
0.00117963
0.000554628
0.000552866
0.00055401
0.000554116
0.000554125
0.000554129
0.000554131
0.00055413
0.000554125
0.000554024
0.00055238
0.000554009
0.00112149
0.00117298
0.00117514
0.00117521
0.00117522
0.00117519
0.00117362
0.00112507
0.000553734
0.000554297
0.00117273
0.00123272
0.00123533
0.00123541
0.00123541
0.00123537
0.0012335
0.00117718
0.00055404
0.000554586
0.00117496
0.00123533
0.00123796
0.00123805
0.00123805
0.00123801
0.00123611
0.00117944
0.000554328
0.000554948
0.00117511
0.00123543
0.00123805
0.00123814
0.00123814
0.0012381
0.0012362
0.00117956
0.000554686
0.000552734
0.000553943
0.000554053
0.000554062
0.000554066
0.000554067
0.000554066
0.00055406
0.000553954
0.000552245
0.000553907
0.00111961
0.00117076
0.0011729
0.00117297
0.00117297
0.00117294
0.00117139
0.00112313
0.000553627
0.00055424
0.00117009
0.00122956
0.00123214
0.00123221
0.00123222
0.00123218
0.00123033
0.00117446
0.000553979
0.000554586
0.00117186
0.00123159
0.00123418
0.00123425
0.00123426
0.00123422
0.00123236
0.00117625
0.000554321
0.00055502
0.00117118
0.00123065
0.00123321
0.00123328
0.00123328
0.00123324
0.0012314
0.0011755
0.000554752
0.000552518
0.00055369
0.000553793
0.000553802
0.000553805
0.000553806
0.000553805
0.000553798
0.000553697
0.000552024
0.000553662
0.00106963
0.00111357
0.00111533
0.00111536
0.00111536
0.00111534
0.00111405
0.0010724
0.000553363
0.000554042
0.00111061
0.00116075
0.00116279
0.00116281
0.0011628
0.0011628
0.00116132
0.00111401
0.000553759
0.000554452
0.00110765
0.00115725
0.00115919
0.00115917
0.00115917
0.00115919
0.00115781
0.001111
0.000554163
0.000554989
0.00109861
0.00114652
0.00114824
0.00114816
0.00114815
0.00114824
0.00114704
0.00110178
0.000554695
0.000551782
0.000551823
0.000551828
0.000551831
0.000551831
0.000551832
0.000551831
0.00055183
0.000551811
0.000551258
0.00055208
0.000553231
0.000553339
0.000553349
0.000553352
0.000553352
0.00055335
0.000553343
0.00055324
0.000551569
0.000552443
0.000553693
0.000553821
0.000553836
0.000553841
0.000553843
0.000553838
0.000553824
0.000553703
0.000551933
0.000552924
0.000554191
0.000554332
0.000554355
0.000554364
0.000554365
0.000554355
0.000554333
0.000554195
0.000552413
0.000553665
0.000554976
0.000555141
0.000555176
0.000555187
0.000555187
0.000555174
0.000555137
0.000554975
0.000553161
0.000555339
0.000556889
0.00055711
0.000557154
0.000557164
0.000557163
0.00055715
0.000557103
0.000556886
0.00055486
0.000559084
0.000569126
0.00057008
0.000569793
0.000569641
0.000569633
0.000569767
0.000570042
0.000569386
0.000558806
0.000598535
0.000705475
0.000713124
0.000708401
0.000706647
0.000706562
0.000708081
0.000712727
0.00070795
0.000600366
0.000829435
0.00123829
0.00127056
0.00126181
0.00125801
0.00125774
0.0012609
0.00126952
0.00124491
0.000838724
0.00135419
0.00216383
0.00224416
0.00224574
0.00224421
0.00224381
0.0022445
0.0022429
0.00217382
0.00136884
0.000555716
0.00107736
0.0011213
0.00112253
0.00112234
0.00112233
0.00112252
0.00112173
0.00108016
0.000555426
0.000556664
0.00105143
0.00109122
0.00109232
0.00109215
0.00109215
0.00109232
0.00109163
0.00105394
0.000556404
0.000561952
0.00101948
0.00105496
0.00105898
0.00105973
0.00105975
0.00105906
0.00105549
0.00102102
0.000561935
0.000642432
0.000689831
0.000704679
0.000723081
0.000728922
0.000729007
0.000723551
0.000705266
0.000689268
0.00064608
0.00159609
0.00302226
0.00311576
0.00311548
0.00311289
0.0031125
0.00311433
0.00311522
0.00303555
0.00161687
0.000555407
0.00116865
0.00122764
0.00123015
0.00123021
0.00123021
0.00123019
0.00122837
0.0011729
0.000555147
0.000555975
0.00116399
0.0012218
0.00122414
0.00122415
0.00122415
0.00122418
0.00122253
0.00116816
0.000555731
0.000557186
0.00115601
0.00121173
0.00121503
0.0012154
0.00121541
0.0012151
0.0012125
0.00115984
0.000557007
0.000608735
0.00072196
0.000729547
0.000733138
0.000734208
0.000734248
0.000733287
0.00072981
0.000721361
0.000611013
0.00162938
0.00304762
0.00311699
0.00311592
0.00311408
0.0031139
0.00311545
0.00311767
0.0030612
0.00165048
0.000555151
0.00117528
0.0012358
0.00123846
0.00123856
0.00123856
0.00123851
0.00123658
0.00117974
0.000554895
0.000555619
0.00117446
0.00123476
0.00123738
0.00123745
0.00123745
0.00123742
0.00123554
0.00117892
0.000555372
0.000556315
0.00115491
0.0012106
0.00121321
0.00121329
0.00121328
0.00121325
0.00121129
0.00115873
0.000556121
0.000604461
0.000685068
0.000689901
0.0006913
0.000691778
0.000691799
0.000691362
0.000689994
0.000684462
0.000606609
0.00166794
0.00313477
0.00320209
0.00320398
0.00320334
0.00320327
0.00320388
0.00320356
0.00314943
0.00169048
0.000555009
0.00117546
0.00123615
0.00123882
0.00123892
0.00123892
0.00123887
0.00123694
0.00117996
0.000554754
0.000555438
0.00117497
0.00123556
0.0012382
0.00123828
0.00123828
0.00123824
0.00123635
0.00117946
0.00055519
0.000555982
0.00115604
0.00121184
0.00121416
0.00121415
0.00121414
0.00121418
0.0012125
0.00115989
0.000555776
0.000604192
0.000664646
0.000667747
0.000668085
0.000668169
0.000668175
0.000668079
0.000667684
0.000663874
0.000606393
0.0016868
0.00317205
0.0032393
0.00324268
0.00324268
0.00324268
0.0032428
0.00324117
0.00318726
0.0017101
0.00055498
0.00117521
0.00123631
0.00123901
0.00123911
0.00123911
0.00123906
0.00123711
0.00117979
0.000554728
0.000555443
0.0011742
0.00123567
0.00123837
0.00123845
0.00123845
0.00123841
0.00123648
0.00117877
0.000555197
0.000556058
0.00115295
0.00120816
0.00121018
0.00121008
0.00121008
0.00121019
0.00120881
0.00115674
0.000555849
0.000628993
0.000613004
0.000614585
0.000613199
0.000612633
0.000612626
0.00061314
0.000614465
0.00061259
0.000632292
0.00169266
0.00316904
0.00323535
0.00323883
0.00323892
0.00323892
0.00323904
0.00323742
0.00318442
0.0017165
0.000555045
0.001175
0.00123674
0.00123952
0.00123963
0.00123963
0.00123956
0.00123756
0.00117965
0.0005548
0.000555588
0.0011728
0.00123595
0.00123878
0.00123886
0.00123886
0.00123882
0.00123678
0.00117745
0.000555339
0.00055666
0.00114758
0.00120203
0.00120351
0.00120319
0.00120317
0.0012035
0.0012026
0.00115124
0.00055647
0.000666939
0.000610133
0.000615646
0.000615172
0.000615001
0.000615003
0.000615148
0.000615661
0.000610403
0.00067156
0.0016958
0.00313612
0.00319949
0.00320275
0.0032029
0.00320292
0.00320307
0.00320176
0.00315132
0.00172018
0.000555202
0.00117346
0.00123571
0.00123855
0.00123868
0.00123868
0.0012386
0.00123654
0.00117816
0.000554959
0.000555753
0.00117098
0.00123668
0.00123976
0.00123989
0.00123988
0.00123981
0.00123752
0.00117572
0.000555501
0.000558067
0.00116711
0.00122598
0.00122731
0.0012268
0.00122678
0.00122725
0.0012266
0.00117137
0.000557901
0.000691703
0.000684203
0.000691568
0.000688183
0.000686535
0.000686489
0.000687998
0.000691424
0.000684312
0.000695836
0.00167972
0.00301145
0.003068
0.00307313
0.00307432
0.00307437
0.00307367
0.00307047
0.00302502
0.00170319
0.000555386
0.00112658
0.00118153
0.00118403
0.00118414
0.00118414
0.00118408
0.00118226
0.00113054
0.000555129
0.000555729
0.00113166
0.00119306
0.00119633
0.0011966
0.00119661
0.00119637
0.00119384
0.00113588
0.000555455
0.000559898
0.00116628
0.00122761
0.00123162
0.00123222
0.00123223
0.00123167
0.00122843
0.00117037
0.000559729
0.000624501
0.000764429
0.000784822
0.000782837
0.000781479
0.000781443
0.000782701
0.000784776
0.0007645
0.000626631
0.00155511
0.00260334
0.00264603
0.00265269
0.002655
0.0026551
0.0026533
0.00264813
0.00261285
0.0015724
0.000554305
0.000556543
0.000556804
0.000556859
0.00055688
0.000556883
0.00055686
0.000556817
0.000556578
0.000553813
0.000553908
0.000557221
0.000557572
0.000557619
0.000557633
0.000557633
0.000557623
0.000557587
0.000557255
0.000553408
0.00056089
0.000566131
0.000566813
0.000566995
0.000567052
0.000567049
0.000567006
0.000566822
0.000566212
0.000560477
0.000583332
0.000620802
0.000626351
0.000627331
0.000627626
0.000627633
0.000627364
0.000626514
0.000621618
0.000583708
0.00110914
0.00141574
0.00143259
0.00143697
0.00143843
0.00143847
0.00143725
0.00143342
0.001419
0.00111501
)
;

boundaryField
{
    walls
    {
        type            nutkWallFunction;
        Cmu             0.09;
        kappa           0.41;
        E               9.8;
        value           nonuniform List<scalar> 
500
(
6.64655e-05
6.64655e-05
6.64655e-05
6.72379e-05
6.72379e-05
6.72559e-05
6.72559e-05
6.7255e-05
6.7255e-05
6.72546e-05
6.72546e-05
6.72544e-05
6.72544e-05
6.72543e-05
6.72543e-05
6.72542e-05
6.72542e-05
6.72522e-05
6.72522e-05
6.71898e-05
6.71898e-05
6.71898e-05
6.72615e-05
6.72615e-05
6.74114e-05
6.74217e-05
6.74218e-05
6.74217e-05
6.74216e-05
6.74213e-05
6.74208e-05
6.74098e-05
6.72174e-05
6.72174e-05
6.73138e-05
6.73138e-05
6.7461e-05
6.74734e-05
6.74739e-05
6.74739e-05
6.74737e-05
6.74732e-05
6.74724e-05
6.74597e-05
6.72497e-05
6.72497e-05
6.73535e-05
6.73535e-05
6.7514e-05
6.75283e-05
6.75297e-05
6.753e-05
6.75298e-05
6.75291e-05
6.75278e-05
6.75138e-05
6.72925e-05
6.72925e-05
6.74023e-05
6.74023e-05
6.75855e-05
6.76023e-05
6.76048e-05
6.76056e-05
6.76053e-05
6.76048e-05
6.76025e-05
6.75871e-05
6.7344e-05
6.7344e-05
6.72424e-05
6.72424e-05
6.73774e-05
6.73901e-05
6.7392e-05
6.73926e-05
6.73929e-05
6.7393e-05
6.73928e-05
6.73835e-05
6.72172e-05
6.72172e-05
6.73952e-05
6.73619e-05
6.74352e-05
6.74013e-05
6.74734e-05
6.744e-05
6.75213e-05
6.74888e-05
6.72917e-05
6.72917e-05
6.74103e-05
6.74226e-05
6.74244e-05
6.74252e-05
6.74256e-05
6.74257e-05
6.74255e-05
6.74153e-05
6.72402e-05
6.72402e-05
6.7422e-05
6.73916e-05
6.74571e-05
6.74274e-05
6.7491e-05
6.7461e-05
6.75343e-05
6.75045e-05
6.73112e-05
6.73112e-05
6.74283e-05
6.74399e-05
6.74413e-05
6.7442e-05
6.74424e-05
6.74425e-05
6.74423e-05
6.7432e-05
6.72564e-05
6.72564e-05
6.74373e-05
6.74064e-05
6.74682e-05
6.74388e-05
6.74982e-05
6.74682e-05
6.75366e-05
6.75064e-05
6.73217e-05
6.73217e-05
6.74381e-05
6.74491e-05
6.74503e-05
6.74508e-05
6.74511e-05
6.74513e-05
6.7451e-05
6.74407e-05
6.72647e-05
6.72647e-05
6.74461e-05
6.74142e-05
6.74746e-05
6.74446e-05
6.75022e-05
6.74719e-05
6.75377e-05
6.7507e-05
6.73234e-05
6.73234e-05
6.74428e-05
6.74538e-05
6.74549e-05
6.74554e-05
6.74556e-05
6.74557e-05
6.74553e-05
6.74448e-05
6.72653e-05
6.72653e-05
6.74483e-05
6.74157e-05
6.74769e-05
6.74465e-05
6.75052e-05
6.74745e-05
6.7541e-05
6.751e-05
6.73172e-05
6.73172e-05
6.74438e-05
6.74553e-05
6.74563e-05
6.74567e-05
6.74569e-05
6.74569e-05
6.74564e-05
6.74454e-05
6.72583e-05
6.72583e-05
6.74443e-05
6.74111e-05
6.74761e-05
6.7445e-05
6.75082e-05
6.74769e-05
6.75483e-05
6.75166e-05
6.73026e-05
6.73026e-05
6.74361e-05
6.74479e-05
6.7449e-05
6.74493e-05
6.74495e-05
6.74494e-05
6.74487e-05
6.74373e-05
6.72434e-05
6.72434e-05
6.74331e-05
6.73993e-05
6.74699e-05
6.74383e-05
6.75083e-05
6.74762e-05
6.75566e-05
6.7524e-05
6.72788e-05
6.72788e-05
6.74082e-05
6.74193e-05
6.74203e-05
6.74206e-05
6.74207e-05
6.74206e-05
6.74199e-05
6.7409e-05
6.72189e-05
6.72189e-05
6.74063e-05
6.73703e-05
6.74484e-05
6.74142e-05
6.74938e-05
6.74589e-05
6.75534e-05
6.75178e-05
6.71924e-05
6.71924e-05
6.71924e-05
6.71967e-05
6.71967e-05
6.71973e-05
6.71973e-05
6.71975e-05
6.71975e-05
6.71976e-05
6.71976e-05
6.71977e-05
6.71977e-05
6.71976e-05
6.71976e-05
6.71974e-05
6.71974e-05
6.71954e-05
6.71954e-05
6.71288e-05
6.71288e-05
6.71288e-05
6.72252e-05
6.72252e-05
6.73554e-05
6.73673e-05
6.73684e-05
6.73687e-05
6.73688e-05
6.73685e-05
6.73678e-05
6.73565e-05
6.71634e-05
6.71634e-05
6.72653e-05
6.72653e-05
6.74065e-05
6.74205e-05
6.74222e-05
6.74227e-05
6.74229e-05
6.74223e-05
6.74209e-05
6.74077e-05
6.72036e-05
6.72036e-05
6.73184e-05
6.73184e-05
6.74612e-05
6.74766e-05
6.74791e-05
6.74801e-05
6.74801e-05
6.74792e-05
6.74768e-05
6.74617e-05
6.72565e-05
6.72565e-05
6.74e-05
6.74e-05
6.75468e-05
6.75648e-05
6.75684e-05
6.75697e-05
6.75697e-05
6.75682e-05
6.75642e-05
6.75466e-05
6.73389e-05
6.73389e-05
6.75861e-05
6.75861e-05
6.77479e-05
6.77707e-05
6.77754e-05
6.77766e-05
6.77765e-05
6.7775e-05
6.77699e-05
6.7747e-05
6.75278e-05
6.75278e-05
6.79569e-05
6.79569e-05
6.88574e-05
6.89388e-05
6.89158e-05
6.89031e-05
6.89024e-05
6.89137e-05
6.89353e-05
6.888e-05
6.79177e-05
6.79177e-05
7.18372e-05
7.18372e-05
8.17185e-05
8.23435e-05
8.19175e-05
8.17608e-05
8.17533e-05
8.18889e-05
8.2307e-05
8.19482e-05
7.20032e-05
7.20032e-05
9.57693e-05
9.57693e-05
0.000135296
0.000138084
0.000137226
0.000136867
0.000136841
0.000137139
0.000137978
0.000135938
9.67212e-05
9.67212e-05
0.000152041
0.000152041
0.000229035
0.0002362
0.000236323
0.000236193
0.000236156
0.000236204
0.000236067
0.00022998
0.000153529
0.000153529
6.76307e-05
6.75955e-05
6.77332e-05
6.77014e-05
6.82708e-05
6.82631e-05
7.65612e-05
7.69375e-05
0.000176787
0.000178919
6.75967e-05
6.75652e-05
6.76585e-05
6.7629e-05
6.77861e-05
6.77634e-05
7.31614e-05
7.34013e-05
0.00018022
0.000182385
6.75688e-05
6.75376e-05
6.76182e-05
6.75883e-05
6.76908e-05
6.76663e-05
7.27183e-05
7.29447e-05
0.000183899
0.000186204
6.7553e-05
6.75222e-05
6.7598e-05
6.75679e-05
6.7656e-05
6.76302e-05
7.26724e-05
7.29019e-05
0.000185684
0.000188061
6.75498e-05
6.75193e-05
6.75983e-05
6.75683e-05
6.7664e-05
6.76378e-05
7.51158e-05
7.54558e-05
0.000186225
0.000188654
6.75567e-05
6.7527e-05
6.76144e-05
6.75842e-05
6.7726e-05
6.77017e-05
7.90443e-05
7.95273e-05
0.000186502
0.000188994
6.7573e-05
6.75435e-05
6.76336e-05
6.76029e-05
6.78755e-05
6.78537e-05
8.20809e-05
8.2543e-05
0.000185186
0.000187629
6.75917e-05
6.75605e-05
6.76338e-05
6.76005e-05
6.80835e-05
6.80618e-05
7.51046e-05
7.53328e-05
0.000173779
0.000175644
6.74652e-05
6.74652e-05
6.77134e-05
6.77419e-05
6.77478e-05
6.775e-05
6.77503e-05
6.77478e-05
6.77433e-05
6.77175e-05
6.74055e-05
6.74055e-05
6.74339e-05
6.74339e-05
6.77944e-05
6.7832e-05
6.78369e-05
6.78384e-05
6.78384e-05
6.78373e-05
6.78336e-05
6.7798e-05
6.73731e-05
6.73731e-05
6.82004e-05
6.82004e-05
6.87775e-05
6.88521e-05
6.88718e-05
6.88778e-05
6.88774e-05
6.8873e-05
6.88527e-05
6.87866e-05
6.81499e-05
6.81499e-05
7.06379e-05
7.06379e-05
7.46085e-05
7.51888e-05
7.52926e-05
7.53239e-05
7.5325e-05
7.52962e-05
7.52067e-05
7.46981e-05
7.06745e-05
7.06745e-05
0.000128486
0.000128486
0.000160214
0.000161893
0.000162323
0.000162467
0.000162472
0.000162352
0.000161978
0.000160559
0.000129137
0.000129137
)
;
    }
    lid
    {
        type            nutkWallFunction;
        Cmu             0.09;
        kappa           0.41;
        E               9.8;
        value           nonuniform List<scalar> 
100
(
0.000152041
0.000229035
0.0002362
0.000236323
0.000236193
0.000236156
0.000236204
0.000236067
0.00022998
0.000153529
0.000176787
0.000313388
0.000321678
0.000321551
0.000321283
0.000321246
0.000321438
0.000321611
0.00031467
0.000178919
0.00018022
0.000315753
0.000321912
0.000321798
0.000321631
0.000321613
0.000321751
0.000321967
0.000317064
0.000182385
0.000183899
0.000323627
0.000329604
0.000329754
0.000329693
0.000329687
0.000329743
0.000329735
0.00032504
0.000186204
0.000185684
0.000327041
0.000333017
0.000333303
0.000333301
0.0003333
0.000333312
0.000333187
0.000328506
0.000188061
0.000186225
0.000326892
0.000332798
0.000333095
0.000333103
0.000333103
0.000333114
0.000332986
0.000328376
0.000188654
0.000186502
0.000324223
0.000329896
0.000330173
0.000330184
0.000330185
0.000330201
0.000330103
0.000325699
0.000188994
0.000185186
0.000313965
0.000319108
0.000319515
0.0003196
0.000319605
0.000319561
0.000319337
0.000315316
0.000187629
0.000173779
0.000277372
0.000281379
0.00028199
0.0002822
0.000282209
0.000282048
0.000281584
0.000278343
0.000175644
0.000128486
0.000160214
0.000161893
0.000162323
0.000162467
0.000162472
0.000162352
0.000161978
0.000160559
0.000129137
)
;
    }
}


// ************************************************************************* //
