/*--------------------------------*- C++ -*----------------------------------*\
| =========                 |                                                 |
| \\      /  F ield         | OpenFOAM: The Open Source CFD Toolbox           |
|  \\    /   O peration     | Version:  2.3.1                                 |
|   \\  /    A nd           | Web:      www.OpenFOAM.org                      |
|    \\/     M anipulation  |                                                 |
\*---------------------------------------------------------------------------*/
FoamFile
{
    version     2.0;
    format      ascii;
    class       surfaceScalarField;
    location    "0.69";
    object      phi;
}
// * * * * * * * * * * * * * * * * * * * * * * * * * * * * * * * * * * * * * //

dimensions      [0 3 -1 0 0 0 0];

internalField   nonuniform List<scalar> 
2700
(
3.66984e-06
3.46857e-05
-2.9444e-05
3.11607e-06
3.25536e-05
-3.20089e-05
1.48384e-06
3.30466e-05
-3.14252e-05
8.72041e-07
3.2719e-05
-3.21199e-05
3.30106e-07
3.27865e-05
-3.22581e-05
-1.06173e-07
3.27461e-05
-3.2324e-05
-3.88996e-07
3.2595e-05
-3.23271e-05
-4.60948e-07
3.23642e-05
-3.23072e-05
-2.92903e-07
3.2108e-05
-3.22918e-05
3.19277e-05
-3.22318e-05
9.65282e-07
6.91634e-05
-3.54576e-05
1.23552e-06
6.82772e-05
-3.60099e-05
1.20552e-06
6.90455e-05
-3.59868e-05
7.91946e-07
6.93603e-05
-3.62469e-05
2.60711e-07
6.9639e-05
-3.63413e-05
-2.49619e-07
6.96166e-05
-3.63813e-05
-5.99593e-07
6.92885e-05
-3.63647e-05
-6.46336e-07
6.87154e-05
-3.63266e-05
-3.46839e-07
6.80452e-05
-3.62589e-05
6.73248e-05
-3.576e-05
1.30548e-06
0.000110493
-4.26651e-05
1.69461e-06
0.000111557
-4.37017e-05
1.62708e-06
0.000112939
-4.38608e-05
1.02661e-06
0.000113973
-4.40478e-05
2.25197e-07
0.000114556
-4.41526e-05
-5.68088e-07
0.000114554
-4.41817e-05
-1.14139e-06
0.00011396
-4.41369e-05
-1.25581e-06
0.000112849
-4.40575e-05
-8.05582e-07
0.000111497
-4.39405e-05
0.000109821
-4.33311e-05
2.14252e-06
0.000164565
-5.62726e-05
2.86375e-06
0.000167928
-5.71545e-05
2.5988e-06
0.00017051
-5.73699e-05
1.56795e-06
0.00017251
-5.75737e-05
2.16803e-07
0.000173545
-5.7707e-05
-1.13249e-06
0.000173564
-5.77311e-05
-2.17272e-06
0.000172573
-5.76445e-05
-2.48378e-06
0.000170595
-5.75044e-05
-1.81668e-06
0.000168091
-5.73306e-05
0.000164543
-5.65863e-05
5.40139e-06
-8.07204e-05
0.000239797
6.20588e-06
-8.2334e-05
0.000249372
5.08621e-06
-8.29926e-05
0.000254531
2.85093e-06
-8.34822e-05
0.00025813
2.48419e-07
-8.37651e-05
0.000259812
-2.35281e-06
-8.37925e-05
0.000259853
-4.59215e-06
-8.35646e-05
0.000258277
-5.75949e-06
-8.31352e-05
0.000254802
-5.0887e-06
-8.25343e-05
0.000249867
-8.09858e-05
0.000240384
6.60318e-07
2.85917e-05
-5.87047e-05
7.40518e-07
2.9132e-05
-6.1231e-05
8.60972e-07
2.96634e-05
-6.12201e-05
6.0474e-07
2.97211e-05
-6.15971e-05
2.38159e-07
2.98203e-05
-6.17249e-05
-1.24145e-07
2.98013e-05
-6.17768e-05
-3.83736e-07
2.96658e-05
-6.17476e-05
-4.87021e-07
2.9446e-05
-6.16644e-05
-3.9336e-07
2.91626e-05
-6.1563e-05
2.8519e-05
-6.11543e-05
5.68136e-07
5.96719e-05
-6.71188e-05
8.58182e-07
6.06986e-05
-6.78808e-05
9.73188e-07
6.15125e-05
-6.79664e-05
6.6526e-07
6.19838e-05
-6.82184e-05
2.14325e-07
6.22667e-05
-6.83541e-05
-2.44521e-07
6.22567e-05
-6.83959e-05
-5.76398e-07
6.19541e-05
-6.83395e-05
-6.72496e-07
6.14148e-05
-6.82181e-05
-4.76303e-07
6.0751e-05
-6.80625e-05
5.97194e-05
-6.74504e-05
1.17923e-06
9.59884e-05
-8.0186e-05
1.53374e-06
9.77013e-05
-8.10856e-05
1.45343e-06
9.90808e-05
-8.13771e-05
9.22973e-07
0.000100122
-8.16852e-05
1.98605e-07
0.000100681
-8.18729e-05
-5.31625e-07
0.000100685
-8.19104e-05
-1.08163e-06
0.000100132
-8.17964e-05
-1.26459e-06
9.90851e-05
-8.15771e-05
-9.54737e-07
9.77789e-05
-8.13105e-05
9.59729e-05
-8.05635e-05
2.27922e-06
0.000139668
-0.000102282
2.79087e-06
0.000143441
-0.000103459
2.43442e-06
0.000145999
-0.000103985
1.45207e-06
0.000147938
-0.000104464
1.97667e-07
0.000148921
-0.000104752
-1.06105e-06
0.000148941
-0.00010479
-2.06736e-06
0.000148006
-0.000104574
-2.49012e-06
0.000146118
-0.000104173
-2.06425e-06
0.000143662
-0.000103699
0.000139879
-0.000102599
5.17223e-06
-0.000138906
0.000192608
5.76383e-06
-0.000141067
0.000201507
4.65588e-06
-0.000142311
0.000206345
2.59456e-06
-0.000143329
0.000209757
2.26409e-07
-0.000143896
0.000211328
-2.14242e-06
-0.000143943
0.000211365
-4.21335e-06
-0.000143471
0.000209891
-5.36857e-06
-0.000142549
0.000206601
-4.91831e-06
-0.000141397
0.000201993
-0.000139306
0.000193232
9.95663e-07
2.29248e-05
-8.26339e-05
8.66175e-07
2.29239e-05
-8.40351e-05
7.323e-07
2.31516e-05
-8.42482e-05
4.71539e-07
2.3235e-05
-8.45827e-05
1.78879e-07
2.33093e-05
-8.47533e-05
-1.0327e-07
2.32973e-05
-8.48044e-05
-3.12209e-07
2.31909e-05
-8.47425e-05
-4.07476e-07
2.30143e-05
-8.45966e-05
-3.54951e-07
2.27825e-05
-8.44115e-05
2.22221e-05
-8.37402e-05
7.15669e-07
4.64325e-05
-9.13524e-05
8.29555e-07
4.71265e-05
-9.22085e-05
8.03298e-07
4.76797e-05
-9.24803e-05
5.33543e-07
4.80698e-05
-9.27964e-05
1.70015e-07
4.82919e-05
-9.29864e-05
-1.94918e-07
4.82848e-05
-9.30325e-05
-4.65829e-07
4.80432e-05
-9.29352e-05
-5.61127e-07
4.76096e-05
-9.27326e-05
-4.32581e-07
4.70671e-05
-9.24904e-05
4.61613e-05
-9.18325e-05
1.03607e-06
7.30539e-05
-0.000107861
1.28835e-06
7.45352e-05
-0.000108765
1.17306e-06
7.56261e-05
-0.000109227
7.39264e-07
7.64633e-05
-0.000109665
1.59674e-07
7.6908e-05
-0.00010993
-4.23451e-07
7.69104e-05
-0.000109975
-8.7282e-07
7.647e-05
-0.000109796
-1.04475e-06
7.56306e-05
-0.000109449
-8.29713e-07
7.45623e-05
-0.000109043
7.2996e-05
-0.000108246
1.9251e-06
0.000103233
-0.00013442
2.30055e-06
0.000106428
-0.000135763
1.96879e-06
0.000108513
-0.000136579
1.16615e-06
0.000110056
-0.000137294
1.59411e-07
0.000110832
-0.00013771
-8.51396e-07
0.000110846
-0.000137757
-1.67256e-06
0.000110105
-0.000137431
-2.05563e-06
0.000108605
-0.000136806
-1.75958e-06
0.000106587
-0.000136063
0.00010339
-0.000134781
4.1823e-06
-0.000174436
0.000134525
4.55501e-06
-0.000177003
0.000141937
3.63903e-06
-0.000178681
0.000145743
2.02084e-06
-0.000180045
0.000148324
1.78491e-07
-0.000180793
0.000149501
-1.66443e-06
-0.000180851
0.000149526
-3.2932e-06
-0.000180221
0.000148414
-4.24661e-06
-0.000178974
0.00014592
-3.99672e-06
-0.000177405
0.000142288
-0.000174904
0.000134951
4.76448e-07
1.45029e-05
-9.76216e-05
4.67581e-07
1.46818e-05
-9.87169e-05
4.33612e-07
1.48114e-05
-9.9035e-05
2.95599e-07
1.48896e-05
-9.93442e-05
1.23488e-07
1.49389e-05
-9.95305e-05
-4.58841e-08
1.49314e-05
-9.95773e-05
-1.76239e-07
1.48635e-05
-9.94868e-05
-2.41408e-07
1.47513e-05
-9.9294e-05
-2.18776e-07
1.46077e-05
-9.90534e-05
1.42826e-05
-9.8249e-05
4.11191e-07
2.96258e-05
-0.000106895
5.15324e-07
3.01056e-05
-0.000107745
5.01195e-07
3.04443e-05
-0.000108108
3.41996e-07
3.07034e-05
-0.000108461
1.20452e-07
3.08454e-05
-0.000108682
-1.03806e-07
3.08395e-05
-0.000108727
-2.73465e-07
3.06833e-05
-0.000108596
-3.33122e-07
3.04039e-05
-0.000108337
-2.45552e-07
3.00554e-05
-0.000108037
2.95024e-05
-0.000107305
6.14275e-07
4.60935e-05
-0.000124954
8.10541e-07
4.70194e-05
-0.000125887
7.43661e-07
4.77166e-05
-0.000126445
4.75133e-07
4.82562e-05
-0.000126962
1.13285e-07
4.85406e-05
-0.000127277
-2.52444e-07
4.85397e-05
-0.000127323
-5.3581e-07
4.82544e-05
-0.000127097
-6.40523e-07
4.7712e-05
-0.000126666
-4.90349e-07
4.70214e-05
-0.000126174
4.60616e-05
-0.000125306
1.1873e-06
6.35257e-05
-0.00015306
1.46604e-06
6.54567e-05
-0.000154499
1.26135e-06
6.67901e-05
-0.000155468
7.50807e-07
6.77661e-05
-0.000156316
1.10913e-07
6.82554e-05
-0.000156809
-5.33631e-07
6.82618e-05
-0.00015686
-1.05758e-06
6.7787e-05
-0.000156465
-1.29967e-06
6.6834e-05
-0.00015571
-1.08314e-06
6.55368e-05
-0.000154819
6.36048e-05
-0.000153426
2.54958e-06
-0.000192348
7.88617e-05
2.84279e-06
-0.000194977
8.31094e-05
2.2788e-06
-0.000196787
8.54282e-05
1.26995e-06
-0.000198266
8.69587e-05
1.19347e-07
-0.000199084
8.76582e-05
-1.03177e-06
-0.000199146
8.76671e-05
-2.05206e-06
-0.000198449
8.69972e-05
-2.64469e-06
-0.000197092
8.55113e-05
-2.43775e-06
-0.000195393
8.32827e-05
-0.000192815
7.90588e-05
1.68434e-07
5.61044e-06
-0.000103408
1.56726e-07
5.67165e-06
-0.000104385
1.44078e-07
5.70586e-06
-0.000104736
1.12019e-07
5.72719e-06
-0.000105048
7.5884e-08
5.73907e-06
-0.000105242
3.78227e-08
5.73342e-06
-0.000105282
3.11314e-09
5.70873e-06
-0.00010517
-2.61364e-08
5.66979e-06
-0.000104944
-4.20153e-08
5.61946e-06
-0.000104667
5.50757e-06
-0.000103805
1.38638e-07
1.15095e-05
-0.000112939
1.6624e-07
1.16742e-05
-0.000113783
1.63096e-07
1.17875e-05
-0.000114194
1.25237e-07
1.18734e-05
-0.000114577
7.38458e-08
1.19176e-05
-0.000114817
1.85379e-08
1.19108e-05
-0.000114857
-2.73e-08
1.1851e-05
-0.000114701
-5.33527e-08
1.17485e-05
-0.000114398
-4.72565e-08
1.16189e-05
-0.000114051
1.14209e-05
-0.000113272
2.0221e-07
1.79419e-05
-0.000131596
2.63574e-07
1.8286e-05
-0.000132567
2.43348e-07
1.8553e-05
-0.000133198
1.66646e-07
1.87542e-05
-0.000133774
6.64749e-08
1.88563e-05
-0.000134123
-3.72914e-08
1.88505e-05
-0.000134167
-1.24208e-07
1.87367e-05
-0.000133905
-1.65949e-07
1.85243e-05
-0.000133409
-1.34629e-07
1.82485e-05
-0.000132843
1.78872e-05
-0.000131914
4.21733e-07
2.46144e-05
-0.000160163
5.15112e-07
2.53688e-05
-0.000161683
4.372e-07
2.59175e-05
-0.000162763
2.65678e-07
2.6306e-05
-0.000163704
5.98719e-08
2.6495e-05
-0.000164251
-1.49198e-07
2.64911e-05
-0.000164301
-3.311e-07
2.62972e-05
-0.000163853
-4.27743e-07
2.59059e-05
-0.000163005
-3.69505e-07
2.53624e-05
-0.000162001
2.46029e-05
-0.000160517
9.63319e-07
-0.000198626
2.992e-05
1.06339e-06
-0.000201268
3.15535e-05
8.32522e-07
-0.000203158
3.2514e-05
4.61258e-07
-0.000204717
3.31196e-05
5.65319e-08
-0.000205583
3.33875e-05
-3.50431e-07
-0.000205644
3.33841e-05
-7.26251e-07
-0.000204901
3.31127e-05
-9.73846e-07
-0.00020346
3.25124e-05
-9.1512e-07
-0.000201676
3.15777e-05
-0.000199076
2.99433e-05
-1.07472e-07
-3.56467e-06
-9.97425e-05
-1.639e-07
-3.6845e-06
-0.000100651
-1.46677e-07
-3.75259e-06
-0.000101008
-7.22267e-08
-3.81001e-06
-0.000101319
3.67762e-08
-3.84538e-06
-0.000101512
1.46323e-07
-3.85137e-06
-0.000101547
2.19144e-07
-3.82859e-06
-0.000101421
2.28598e-07
-3.78436e-06
-0.000101176
1.60822e-07
-3.73035e-06
-0.000100876
-3.62969e-06
-0.000100019
-1.38303e-07
-7.15154e-06
-0.00010922
-2.15981e-07
-7.33375e-06
-0.000110062
-1.97905e-07
-7.46632e-06
-0.000110505
-1.02834e-07
-7.58058e-06
-0.000110907
3.33446e-08
-7.6488e-06
-0.000111155
1.69529e-07
-7.65909e-06
-0.000111192
2.60819e-07
-7.61141e-06
-0.000111016
2.69951e-07
-7.51742e-06
-0.000110681
1.78884e-07
-7.4047e-06
-0.000110293
-7.23941e-06
-0.000109487
-2.34561e-07
-1.05448e-05
-0.000127972
-3.39704e-07
-1.07882e-05
-0.000129011
-3.09036e-07
-1.09779e-05
-0.00012972
-1.69886e-07
-1.11446e-05
-0.000130352
2.30087e-08
-1.12408e-05
-0.000130727
2.14889e-07
-1.12537e-05
-0.000130767
3.49398e-07
-1.11821e-05
-0.000130472
3.72878e-07
-1.10403e-05
-0.000129914
2.57624e-07
-1.08722e-05
-0.000129265
-1.06423e-05
-0.000128255
-3.91371e-07
-1.34122e-05
-0.000156902
-5.27401e-07
-1.37228e-05
-0.00015861
-4.70366e-07
-1.39414e-05
-0.000159853
-2.66102e-07
-1.41406e-05
-0.00016091
9.82797e-09
-1.42548e-05
-0.00016151
2.84321e-07
-1.4269e-05
-0.000161558
4.85386e-07
-1.41823e-05
-0.000161053
5.37101e-07
-1.40094e-05
-0.000160085
3.98316e-07
-1.38142e-05
-0.000158919
-1.35147e-05
-0.000157243
-5.94564e-07
-0.000196077
-1.53562e-05
-7.64228e-07
-0.000199104
-1.57064e-05
-6.77437e-07
-0.000201272
-1.59037e-05
-3.86885e-07
-0.000203022
-1.61153e-05
-4.09127e-09
-0.000203972
-1.62369e-05
3.7655e-07
-0.00020403
-1.62525e-05
6.64775e-07
-0.000203199
-1.61605e-05
7.50694e-07
-0.000201567
-1.5977e-05
5.85751e-07
-0.000199508
-1.58056e-05
-0.000196525
-1.54704e-05
-3.68623e-07
-1.27414e-05
-8.66373e-05
-4.95896e-07
-1.30938e-05
-8.74346e-05
-4.46865e-07
-1.32873e-05
-8.77742e-05
-2.61656e-07
-1.34429e-05
-8.8066e-05
2.97353e-09
-1.35346e-05
-8.82467e-05
2.67956e-07
-1.35421e-05
-8.82741e-05
4.55572e-07
-1.34657e-05
-8.81476e-05
5.05085e-07
-1.33247e-05
-8.79054e-05
3.81106e-07
-1.31472e-05
-8.76091e-05
-1.28033e-05
-8.68371e-05
-4.39937e-07
-2.59511e-05
-9.55742e-05
-6.37133e-07
-2.65509e-05
-9.64114e-05
-5.87007e-07
-2.6976e-05
-9.68692e-05
-3.44548e-07
-2.73257e-05
-9.72699e-05
-2.4402e-09
-2.75233e-05
-9.75112e-05
3.39941e-07
-2.75378e-05
-9.75413e-05
5.83682e-07
-2.7369e-05
-9.73592e-05
6.35862e-07
-2.70477e-05
-9.70131e-05
4.43922e-07
-2.66503e-05
-9.66008e-05
-2.60627e-05
-9.57847e-05
-7.46338e-07
-3.94601e-05
-0.000113716
-1.02644e-06
-4.04138e-05
-0.000114868
-9.21135e-07
-4.11453e-05
-0.000115654
-5.36287e-07
-4.17385e-05
-0.000116323
-1.69117e-08
-4.20611e-05
-0.000116706
5.02196e-07
-4.20812e-05
-0.000116741
8.88529e-07
-4.17997e-05
-0.000116426
9.99232e-07
-4.12477e-05
-0.000115822
7.33612e-07
-4.05563e-05
-0.000115091
-3.9619e-05
-0.000113962
-1.37105e-06
-5.22372e-05
-0.000142742
-1.73713e-06
-5.38276e-05
-0.000144817
-1.49779e-06
-5.49402e-05
-0.000146284
-8.55398e-07
-5.58115e-05
-0.000147466
-3.76092e-08
-5.62645e-05
-0.00014811
7.78751e-07
-5.62893e-05
-0.000148152
1.42261e-06
-5.5887e-05
-0.000147594
1.67116e-06
-5.5069e-05
-0.000146498
1.33584e-06
-5.40136e-05
-0.000145111
-5.24446e-05
-0.000143068
-2.45591e-06
-0.000184075
-6.17537e-05
-2.8774e-06
-0.000188141
-6.43414e-05
-2.38181e-06
-0.000190843
-6.58371e-05
-1.326e-06
-0.000192894
-6.69658e-05
-6.37552e-08
-0.000193952
-6.75174e-05
1.19606e-06
-0.000194004
-6.75442e-05
2.25056e-06
-0.00019306
-6.70504e-05
2.75706e-06
-0.000191129
-6.59845e-05
2.39062e-06
-0.000188557
-6.45701e-05
-0.000184541
-6.20151e-05
-6.11553e-07
-2.15269e-05
-6.45012e-05
-8.11562e-07
-2.21874e-05
-6.50493e-05
-7.32366e-07
-2.25389e-05
-6.53164e-05
-4.37828e-07
-2.28133e-05
-6.55487e-05
-2.37429e-08
-2.29691e-05
-6.56929e-05
3.91866e-07
-2.29788e-05
-6.5712e-05
6.9191e-07
-2.28424e-05
-6.5606e-05
7.81136e-07
-2.25875e-05
-6.54082e-05
5.98321e-07
-2.22563e-05
-6.5171e-05
-2.16016e-05
-6.46372e-05
-7.86191e-07
-4.43078e-05
-7.20079e-05
-1.08135e-06
-4.54407e-05
-7.28637e-05
-9.80631e-07
-4.62302e-05
-7.32785e-05
-5.82343e-07
-4.68608e-05
-7.36204e-05
-3.2316e-08
-4.72064e-05
-7.38232e-05
5.19046e-07
-4.72255e-05
-7.38451e-05
9.22948e-07
-4.69191e-05
-7.36856e-05
1.03651e-06
-4.63286e-05
-7.33844e-05
7.63955e-07
-4.55786e-05
-7.30049e-05
-4.44596e-05
-7.21613e-05
-1.39199e-06
-6.87173e-05
-8.79078e-05
-1.80714e-06
-7.06603e-05
-8.92257e-05
-1.58016e-06
-7.20924e-05
-9.00107e-05
-9.16963e-07
-7.32088e-05
-9.06296e-05
-5.15488e-08
-7.37958e-05
-9.09732e-05
8.14205e-07
-7.38241e-05
-9.09995e-05
1.48278e-06
-7.3296e-05
-9.07087e-05
1.72583e-06
-7.22426e-05
-9.01425e-05
1.34872e-06
-7.08762e-05
-8.94068e-05
-6.89576e-05
-8.81049e-05
-2.68328e-06
-9.36797e-05
-0.000115072
-3.20052e-06
-9.72589e-05
-0.000117677
-2.66629e-06
-9.9606e-05
-0.000119278
-1.49946e-06
-0.000101351
-0.000120464
-8.07401e-08
-0.000102219
-0.000121079
1.33613e-06
-0.000102253
-0.000121112
2.5049e-06
-0.000101464
-0.000120568
3.05728e-06
-9.98065e-05
-0.000119458
2.60634e-06
-9.75678e-05
-0.00011794
-9.40301e-05
-0.000115365
-5.11768e-06
-0.000157837
-0.000114754
-5.57411e-06
-0.000163706
-0.000121193
-4.41247e-06
-0.000166961
-0.00012461
-2.38974e-06
-0.000169194
-0.000127025
-1.18419e-07
-0.000170263
-0.000128129
2.14556e-06
-0.000170306
-0.000128169
4.15968e-06
-0.000169333
-0.000127152
5.33032e-06
-0.000167218
-0.000124844
4.98678e-06
-0.000164128
-0.000121608
-0.000158315
-0.000115233
-7.67135e-07
-2.91053e-05
-3.46288e-05
-1.05315e-06
-2.99664e-05
-3.47968e-05
-9.60376e-07
-3.04747e-05
-3.49337e-05
-5.79204e-07
-3.08696e-05
-3.50592e-05
-4.29397e-08
-3.10887e-05
-3.51389e-05
4.96092e-07
-3.11005e-05
-3.51487e-05
8.85478e-07
-3.09051e-05
-3.50883e-05
9.95421e-07
-3.05352e-05
-3.49808e-05
7.37572e-07
-3.00523e-05
-3.48588e-05
-2.91987e-05
-3.46995e-05
-1.03291e-06
-6.07634e-05
-3.93139e-05
-1.45003e-06
-6.23664e-05
-4.00434e-05
-1.31573e-06
-6.35581e-05
-4.03255e-05
-7.82399e-07
-6.44882e-05
-4.05309e-05
-5.34529e-08
-6.49845e-05
-4.06515e-05
6.77402e-07
-6.50083e-05
-4.06632e-05
1.21915e-06
-6.45613e-05
-4.05659e-05
1.37252e-06
-6.36843e-05
-4.03838e-05
9.91514e-07
-6.25474e-05
-4.01234e-05
-6.0964e-05
-3.93986e-05
-1.98629e-06
-9.6747e-05
-4.99244e-05
-2.54884e-06
-9.98432e-05
-5.11728e-05
-2.19689e-06
-0.000102138
-5.17676e-05
-1.26291e-06
-0.000103859
-5.21778e-05
-7.74067e-08
-0.000104732
-5.23956e-05
1.10816e-06
-0.000104767
-5.241e-05
2.04811e-06
-0.000103972
-5.22221e-05
2.42218e-06
-0.000102339
-5.18441e-05
1.91734e-06
-0.000100146
-5.12856e-05
-9.70897e-05
-5.00459e-05
-4.14771e-06
-0.000137598
-7.00376e-05
-4.77542e-06
-0.000144122
-7.27321e-05
-3.86508e-06
-0.000148225
-7.40636e-05
-2.1297e-06
-0.000151104
-7.49163e-05
-1.14861e-07
-0.000152461
-7.53242e-05
1.89537e-06
-0.000152507
-7.5343e-05
3.62755e-06
-0.000151254
-7.49758e-05
4.55573e-06
-0.000148509
-7.41754e-05
4.02766e-06
-0.000144597
-7.29185e-05
-0.000138145
-7.02449e-05
-8.73307e-06
-0.000107465
-0.000179175
-8.86662e-06
-0.000114387
-0.000193252
-6.69433e-06
-0.0001174
-0.000199901
-3.49876e-06
-0.000119144
-0.000204293
-1.63221e-07
-0.000119881
-0.000206119
3.157e-06
-0.000119904
-0.000206167
6.32007e-06
-0.000119224
-0.000204468
8.47092e-06
-0.000117571
-0.000200247
8.52373e-06
-0.00011474
-0.000193977
-0.000107866
-0.000180026
-7.57359e-07
-3.38702e-05
-1.13951e-06
-3.44132e-05
-1.07017e-06
-3.50014e-05
-6.51061e-07
-3.54763e-05
-5.19893e-08
-3.57356e-05
5.50028e-07
-3.57482e-05
9.79097e-07
-3.55147e-05
1.06843e-06
-3.50676e-05
7.19624e-07
-3.45075e-05
-3.39779e-05
-1.0988e-06
-7.20807e-05
-1.6341e-06
-7.39164e-05
-1.50574e-06
-7.54499e-05
-8.95723e-07
-7.66116e-05
-6.35415e-08
-7.72134e-05
7.7068e-07
-7.72395e-05
1.38932e-06
-7.66931e-05
1.53879e-06
-7.55941e-05
1.04633e-06
-7.41314e-05
-7.23246e-05
-2.38942e-06
-0.000119601
-3.05629e-06
-0.000124407
-2.61013e-06
-0.000127648
-1.48329e-06
-0.0001299
-9.02236e-08
-0.000130985
1.30126e-06
-0.000131024
2.43166e-06
-0.000130028
2.8989e-06
-0.000127888
2.30154e-06
-0.000124801
-0.000120054
-5.65467e-06
-0.000183952
-6.14007e-06
-0.000196623
-4.78661e-06
-0.000203035
-2.56478e-06
-0.000207007
-1.31545e-07
-0.00020871
2.29164e-06
-0.000208757
4.49583e-06
-0.000207174
5.84828e-06
-0.000203382
5.49642e-06
-0.000197331
-0.000184779
-1.38087e-05
-0.000277564
-1.24358e-05
-0.000312347
-8.70999e-06
-0.000324122
-4.31699e-06
-0.000330505
-1.84737e-07
-0.000332683
3.91783e-06
-0.000332722
8.23183e-06
-0.000330672
1.18621e-05
-0.000324543
1.35087e-05
-0.000313676
-0.000279112
-3.66349e-05
-0.000424671
0.000183803
-2.61803e-05
-0.000528097
0.000205337
-1.51753e-05
-0.000547982
0.000212891
-6.7328e-06
-0.00055576
0.000216849
-2.30123e-07
-0.000557383
0.00021824
6.19348e-06
-0.000557372
0.000218269
1.4419e-05
-0.000555824
0.000216966
2.50514e-05
-0.000548333
0.000213194
3.6015e-05
-0.000530781
0.000206184
-0.000427855
0.000184799
-7.79624e-05
-0.0006514
0.000304673
-5.37851e-05
-0.000898852
0.000346567
-2.70103e-05
-0.000933319
0.000358541
-1.11678e-05
-0.000935503
0.000363883
-3.19423e-07
-0.000933479
0.000365225
1.03828e-05
-0.000933323
0.000365227
2.56792e-05
-0.000935086
0.000363941
5.16201e-05
-0.000933125
0.000358815
7.67613e-05
-0.000903777
0.00034788
-0.000657296
0.000306177
-0.000217332
-0.00093294
0.000498823
-0.000105692
-0.00164508
0.000634493
-2.75875e-05
-0.00167429
0.000662744
-6.71127e-06
-0.00163082
0.000674332
-3.04564e-08
-0.00161614
0.000675862
6.41486e-06
-0.00161572
0.00067582
2.59422e-05
-0.00162906
0.000674321
0.000101433
-0.00167196
0.000663277
0.000214634
-0.00165477
0.000637657
-0.000945805
0.00050309
-0.000285596
-0.00155785
0.000910352
-0.000121326
-0.00268836
0.000878769
-3.67502e-05
-0.00270896
0.000949935
-1.01344e-05
-0.00263643
0.000978779
-1.44984e-07
-0.00261141
0.000985061
9.6349e-06
-0.00261071
0.000985032
3.49333e-05
-0.00263367
0.000979097
0.000116862
-0.00270531
0.000951208
0.000281517
-0.00269986
0.000880283
-0.00157752
0.000913114
0.000325157
-0.00188318
0.000168293
-0.00253162
5.63493e-05
-0.00259721
1.73518e-05
-0.00259762
2.25567e-07
-0.00259441
-1.65126e-05
-0.00259415
-5.34639e-05
-0.00259689
-0.000161847
-0.0025971
-0.000320644
-0.00254122
-0.00189823
-1.78965e-05
-0.000197634
0.000220201
-1.50005e-05
-0.000225447
0.000234677
-1.02124e-05
-0.00023279
0.000241019
-4.95049e-06
-0.000237735
0.000245074
-1.98749e-07
-0.000239397
0.000246812
4.51099e-06
-0.000239432
0.000246861
9.69294e-06
-0.000237892
0.000245259
1.43638e-05
-0.000233077
0.000241383
1.75665e-05
-0.000226379
0.000235421
-0.000198685
0.000221044
-3.90222e-05
-0.000186254
0.000332317
-3.27683e-05
-0.000248426
0.000363265
-2.13048e-05
-0.000261981
0.000376273
-9.9435e-06
-0.000269578
0.000384344
-3.50194e-07
-0.0002713
0.000387516
9.16765e-06
-0.000271314
0.000387594
2.03102e-05
-0.000269741
0.000384612
3.15315e-05
-0.00026233
0.000376841
3.8286e-05
-0.00024984
0.000364568
-0.000188084
0.000333849
-4.02416e-05
3.16443e-06
0.000349562
-2.41465e-05
-5.78325e-05
0.000427742
-8.66684e-06
-5.37952e-05
0.000438997
-2.97959e-06
-4.53126e-05
0.00044429
-8.1861e-08
-4.35425e-05
0.000445119
2.76034e-06
-4.35516e-05
0.000445106
8.07492e-06
-4.5154e-05
0.000444346
2.31791e-05
-5.34973e-05
0.000439249
3.97058e-05
-5.83532e-05
0.000429581
2.87546e-06
0.00035177
-0.000161197
0.000306469
0.000768083
-0.000113108
-8.81182e-05
0.000860856
-5.77881e-05
-7.13056e-05
0.000911978
-2.36651e-05
-3.84051e-05
0.000937601
-7.08137e-07
-2.73221e-05
0.000945742
2.20277e-05
-2.72508e-05
0.000945843
5.53617e-05
-3.76134e-05
0.000938084
0.000110439
-7.05701e-05
0.000913085
0.000158747
-9.0084e-05
0.000863575
0.000302125
0.000772504
0.000205285
-0.00178209
0.000113171
-0.00252774
4.23826e-05
-0.00259783
1.38372e-05
-0.00260758
2.45995e-07
-0.00260825
-1.3102e-05
-0.00260815
-4.03826e-05
-0.00260734
-0.000109437
-0.00259871
-0.000202895
-0.00253795
-0.00179905
-8.66896e-06
-0.000119868
0.000234011
-8.00309e-06
-0.000129205
0.00024204
-5.94002e-06
-0.000131883
0.000246267
-3.06963e-06
-0.000134075
0.00024928
-1.42182e-07
-0.00013494
0.000250729
2.77133e-06
-0.000134964
0.000250787
5.61582e-06
-0.000134188
0.000249469
7.64658e-06
-0.00013207
0.000246606
8.49233e-06
-0.000129613
0.000242604
-0.000120324
0.000234637
-1.96822e-05
-9.8011e-05
0.000330129
-1.82184e-05
-0.000113295
0.000345902
-1.30855e-05
-0.000115818
0.000355055
-6.54062e-06
-0.000117729
0.00036146
-2.66897e-07
-0.000118116
0.000364427
5.95762e-06
-0.00011814
0.000364525
1.24213e-05
-0.000117826
0.000361795
1.74816e-05
-0.000115979
0.000355671
1.92431e-05
-0.000113765
0.000346947
-9.86148e-05
0.000331367
-1.08065e-05
-1.18302e-05
0.000274141
-6.19981e-06
1.28388e-05
0.000296935
-2.60263e-06
1.87532e-05
0.000300787
-1.07003e-06
2.18238e-05
0.000303145
-4.89388e-08
2.22557e-05
0.000303643
9.64903e-07
2.2252e-05
0.000303645
2.40739e-06
2.17895e-05
0.00030321
5.90311e-06
1.88155e-05
0.000300904
1.07104e-05
1.33939e-05
0.000297556
-1.08179e-05
0.000274633
-6.24332e-05
0.000290527
0.000528046
-4.67212e-05
0.000314074
0.000543806
-2.78043e-05
0.00034629
0.000565405
-1.27565e-05
0.000363904
0.000580348
-5.43524e-07
0.000369655
0.000586001
1.15504e-05
0.000369701
0.000586164
2.62806e-05
0.000364092
0.00058094
4.51111e-05
0.000346482
0.000566481
6.10871e-05
0.00031531
0.000545569
0.000292191
0.000530499
7.98003e-05
-0.00157144
4.15953e-05
-0.00217553
1.543e-05
-0.00222545
4.68449e-06
-0.002233
9.79633e-08
-0.00223408
-4.36034e-06
-0.00223407
-1.46109e-05
-0.00223306
-4.03034e-05
-0.0022266
-7.89682e-05
-0.00218405
-0.00158586
-3.57687e-06
-6.39111e-05
0.000239762
-3.6523e-06
-6.69744e-05
0.000244759
-2.92299e-06
-6.79787e-05
0.000247692
-1.58935e-06
-6.89582e-05
0.000249957
-8.00279e-08
-6.94094e-05
0.000251131
1.42478e-06
-6.94328e-05
0.000251192
2.75497e-06
-6.90383e-05
0.000250145
3.48317e-06
-6.81072e-05
0.000248011
3.4904e-06
-6.719e-05
0.000245228
-6.416e-05
0.000240277
-8.74732e-06
-4.84499e-05
0.000323407
-8.8238e-06
-5.50191e-05
0.000334016
-6.72038e-06
-5.62336e-05
0.00034121
-3.5207e-06
-5.71842e-05
0.000346485
-1.63743e-07
-5.74499e-05
0.000349108
3.17799e-06
-5.747e-05
0.000349218
6.34819e-06
-5.72647e-05
0.000346837
8.43666e-06
-5.63681e-05
0.000341834
8.52096e-06
-5.52945e-05
0.000334961
-4.87867e-05
0.000324504
-2.05947e-06
-3.89818e-05
0.000266688
-1.21188e-06
-3.31619e-05
0.000274206
-7.95409e-07
-3.14744e-05
0.000275574
-4.82095e-07
-3.1256e-05
0.000276862
-3.55177e-08
-3.15977e-05
0.000277303
4.08395e-07
-3.16396e-05
0.00027732
7.19667e-07
-3.1354e-05
0.000276946
1.11869e-06
-3.15902e-05
0.000275688
2.02082e-06
-3.31661e-05
0.000274496
-3.90998e-05
0.000266929
-2.98571e-05
9.93517e-05
0.000419505
-2.22823e-05
9.34586e-05
0.000409538
-1.42137e-05
0.000102837
0.000422956
-6.80114e-06
0.000108079
0.000433529
-3.5204e-07
0.000109879
0.000437998
6.03837e-06
0.000109895
0.000438169
1.33197e-05
0.000108136
0.000434097
2.13596e-05
0.000102856
0.000423939
2.91547e-05
9.37203e-05
0.00041081
9.95733e-05
0.000420933
2.16013e-05
-0.00149374
1.09734e-05
-0.00207148
3.99338e-06
-0.00211567
1.04181e-06
-0.00212201
4.22183e-08
-0.00212323
-9.09626e-07
-0.00212325
-3.69664e-06
-0.00212216
-1.06044e-05
-0.00211688
-2.13896e-05
-0.00207958
-0.00150769
-6.26246e-07
-1.51066e-05
0.000240137
-7.56658e-07
-1.50284e-05
0.000244213
-7.06197e-07
-1.48458e-05
0.000246585
-4.16562e-07
-1.49254e-05
0.000248476
-1.74904e-08
-1.49991e-05
0.000249489
3.81007e-07
-1.50148e-05
0.00024955
6.71601e-07
-1.49717e-05
0.000248661
7.23491e-07
-1.49143e-05
0.000246893
6.05603e-07
-1.51086e-05
0.000244648
-1.52067e-05
0.000240611
-1.33442e-06
-1.71387e-05
0.000326767
-1.71848e-06
-1.74791e-05
0.00033685
-1.55686e-06
-1.74684e-05
0.000343664
-9.05365e-07
-1.7765e-05
0.00034866
-4.93352e-08
-1.793e-05
0.00035117
8.03409e-07
-1.79525e-05
0.000351287
1.4578e-06
-1.78318e-05
0.00034903
1.63129e-06
-1.7577e-05
0.000344313
1.26755e-06
-1.76118e-05
0.000337823
-1.73325e-05
0.000327886
1.08716e-06
-2.04552e-05
0.000268889
7.93494e-07
-1.78879e-05
0.000274893
2.28419e-07
-1.75484e-05
0.000276211
-1.70954e-08
-1.80392e-05
0.000277364
-1.494e-08
-1.84747e-05
0.000277819
-6.20406e-09
-1.85085e-05
0.000277847
-2.3398e-07
-1.81424e-05
0.000277461
-7.96992e-07
-1.76928e-05
0.00027636
-1.09488e-06
-1.80089e-05
0.000275177
-2.06784e-05
0.000269154
-2.72069e-06
-2.56867e-06
0.000404308
-4.02025e-06
-7.22065e-06
0.000400154
-3.82768e-06
-7.62697e-06
0.000412838
-2.27403e-06
-8.2228e-06
0.000422137
-1.7225e-07
-8.51828e-06
0.000425933
1.90884e-06
-8.52325e-06
0.000426091
3.47435e-06
-8.26618e-06
0.000422636
3.76029e-06
-7.74058e-06
0.000413702
2.43917e-06
-7.4036e-06
0.000401506
-2.87659e-06
0.000405554
4.89364e-07
-0.00149684
-8.37805e-07
-0.00207738
-1.23089e-06
-0.00212292
-8.33814e-07
-0.0021306
2.89759e-09
-0.00213257
8.57916e-07
-0.00213261
1.27559e-06
-0.00213081
8.7113e-07
-0.00212423
-4.60946e-07
-0.00208566
-0.00151104
1.62894e-06
3.54237e-05
0.000232988
1.55567e-06
3.88147e-05
0.000237009
1.12253e-06
4.04449e-05
0.000239063
5.78443e-07
4.13761e-05
0.00024073
4.40665e-08
4.17449e-05
0.000241631
-4.90767e-07
4.17404e-05
0.00024169
-1.03388e-06
4.13756e-05
0.000240909
-1.46991e-06
4.04624e-05
0.000239356
-1.58994e-06
3.88985e-05
0.00023742
3.55081e-05
0.00023344
5.72826e-06
1.35833e-05
0.000342849
4.99115e-06
2.08007e-05
0.000355591
3.30815e-06
2.24345e-05
0.000363346
1.58543e-06
2.28995e-05
0.000368831
6.99796e-08
2.28726e-05
0.000371517
-1.43424e-06
2.28546e-05
0.000371644
-3.13035e-06
2.28411e-05
0.000369231
-4.7801e-06
2.2351e-05
0.000364057
-5.63237e-06
2.08548e-05
0.000356718
1.35525e-05
0.000344183
3.99394e-06
1.14167e-05
0.000267089
2.57448e-06
2.22033e-05
0.000274913
1.23788e-06
2.41133e-05
0.000275908
4.53242e-07
2.4021e-05
0.00027699
1.68938e-08
2.36531e-05
0.000277463
-4.16845e-07
2.36206e-05
0.000277504
-1.17641e-06
2.3922e-05
0.000277087
-2.48616e-06
2.40068e-05
0.000276074
-3.96863e-06
2.22809e-05
0.000275227
1.13218e-05
0.000267432
2.75283e-05
-9.44343e-05
0.00048257
1.52498e-05
-8.78509e-05
0.000522569
6.15625e-06
-9.42712e-05
0.000540285
2.06478e-06
-0.000100749
0.000551094
6.42796e-09
-0.0001034
0.000555098
-2.04651e-06
-0.000103457
0.000555227
-5.96897e-06
-0.000100989
0.00055163
-1.48375e-05
-9.47351e-05
0.000541296
-2.75244e-05
-8.83883e-05
0.000524923
-9.5725e-05
0.000485054
-1.61948e-05
-0.00157505
-1.185e-05
-0.00216962
-6.52539e-06
-0.00222243
-2.87037e-06
-0.00223497
-4.07761e-08
-0.00223874
2.79908e-06
-0.00223878
6.34793e-06
-0.00223537
1.15719e-05
-0.00222413
1.61669e-05
-0.00217869
-0.0015906
3.81413e-06
9.64166e-05
0.000211564
3.6317e-06
0.000104924
0.000215332
2.76072e-06
0.000108507
0.000216807
1.47533e-06
0.000110779
0.000218129
1.03694e-07
0.000111731
0.000218854
-1.26652e-06
0.000111746
0.000218907
-2.5559e-06
0.000110841
0.000218285
-3.44042e-06
0.000108642
0.000217054
-3.71485e-06
0.000105249
0.000215688
9.67858e-05
0.000211956
1.50892e-05
6.18421e-05
0.000362345
1.28981e-05
8.61677e-05
0.000376517
8.75389e-06
9.12316e-05
0.000384772
4.27358e-06
9.32816e-05
0.000390728
1.99606e-07
9.36464e-05
0.000393612
-3.84942e-06
9.36336e-05
0.000393746
-8.2624e-06
9.32433e-05
0.000391145
-1.23185e-05
9.12548e-05
0.000385528
-1.47781e-05
8.66727e-05
0.000377729
6.22908e-05
0.000363908
7.70846e-06
7.21672e-05
0.000249004
4.72943e-06
0.000107967
0.000256215
2.34134e-06
0.000114492
0.00025496
9.80438e-07
0.000116208
0.000255472
6.14424e-08
0.000116319
0.000255698
-8.91622e-07
0.00011627
0.000255716
-2.18097e-06
0.000116189
0.000255581
-4.52818e-06
0.000114559
0.000255081
-7.6125e-06
0.000108693
0.000256386
7.28223e-05
0.000249292
8.72765e-05
-0.000215249
0.000682867
4.8193e-05
-0.000131494
0.000801058
2.05177e-05
-0.000141145
0.000823803
7.65544e-06
-0.000157878
0.000838108
1.78207e-07
-0.000164793
0.000843779
-7.12778e-06
-0.000164925
0.000844027
-1.9542e-05
-0.000158559
0.000838769
-4.6531e-05
-0.000142156
0.000825215
-8.64295e-05
-0.000131158
0.000804677
-0.000216508
0.000687996
-4.94858e-05
-0.00174086
-3.35699e-05
-0.00231693
-1.67972e-05
-0.00238032
-6.84037e-06
-0.00240273
-9.19915e-08
-0.00241016
6.52323e-06
-0.00241036
1.615e-05
-0.00240346
3.25808e-05
-0.00238273
4.9068e-05