/*--------------------------------*- C++ -*----------------------------------*\
| =========                 |                                                 |
| \\      /  F ield         | OpenFOAM: The Open Source CFD Toolbox           |
|  \\    /   O peration     | Version:  2.3.1                                 |
|   \\  /    A nd           | Web:      www.OpenFOAM.org                      |
|    \\/     M anipulation  |                                                 |
\*---------------------------------------------------------------------------*/
FoamFile
{
    version     2.0;
    format      ascii;
    class       volScalarField;
    location    "0.83";
    object      epsilon;
}
// * * * * * * * * * * * * * * * * * * * * * * * * * * * * * * * * * * * * * //

dimensions      [0 2 -3 0 0 0 0];

internalField   nonuniform List<scalar> 
1000
(
0.000868914
0.000899425
0.00090035
0.000900328
0.000900313
0.000900307
0.000900299
0.000900294
0.00090019
0.000897613
0.000900739
0.000909532
0.000910242
0.000910271
0.000910272
0.000910268
0.000910254
0.000910215
0.000909506
0.000899305
0.00090377
0.00091269
0.000913535
0.000913591
0.000913603
0.000913595
0.000913569
0.000913507
0.000912663
0.000901242
0.000906322
0.000916122
0.000917101
0.000917211
0.000917245
0.00091724
0.000917195
0.000917094
0.00091614
0.000903897
0.000908457
0.000919839
0.00092098
0.000921135
0.000921184
0.000921178
0.000921141
0.000921002
0.000919934
0.000906132
0.000900025
0.000907279
0.000907999
0.000908094
0.000908122
0.000908135
0.000908137
0.000908119
0.000907542
0.000899229
0.000908274
0.000609862
0.000593141
0.000592387
0.000592342
0.000592319
0.000592302
0.000592823
0.000608827
0.000906955
0.000910659
0.000589955
0.000571443
0.000570656
0.000570637
0.000570634
0.000570638
0.000571266
0.000589117
0.000909311
0.000913017
0.000589205
0.000570487
0.000569695
0.000569679
0.000569678
0.000569686
0.000570333
0.000588471
0.000911681
0.000915389
0.000591939
0.000573084
0.000572403
0.000572445
0.000572448
0.000572406
0.000572954
0.000591278
0.000914087
0.000902636
0.000909244
0.00090997
0.00091006
0.000910094
0.000910111
0.000910116
0.000910095
0.000909452
0.00090059
0.000909916
0.000592724
0.000574482
0.00057368
0.000573646
0.000573631
0.000573622
0.000574222
0.000591783
0.000908691
0.000912016
0.000571855
0.000551516
0.000550623
0.000550601
0.000550599
0.000550608
0.000551327
0.000570939
0.000910832
0.000914052
0.000571234
0.000550673
0.000549776
0.000549758
0.000549758
0.000549766
0.000550495
0.000570366
0.000912856
0.000916426
0.000572712
0.000551982
0.000551132
0.000551142
0.000551143
0.000551127
0.000551813
0.000571884
0.000915237
0.000903729
0.000910298
0.000911001
0.000911077
0.000911108
0.000911124
0.000911129
0.000911105
0.000910456
0.000901553
0.00091082
0.000590645
0.000572342
0.000571557
0.00057153
0.000571521
0.00057152
0.000572138
0.000589871
0.000909582
0.000912682
0.000570733
0.000550347
0.000549451
0.000549429
0.000549428
0.000549439
0.000550165
0.000569873
0.00091151
0.000914461
0.000570228
0.000549655
0.000548758
0.000548741
0.00054874
0.000548749
0.000549477
0.000569382
0.000913271
0.000916698
0.000570948
0.000550237
0.000549352
0.000549342
0.000549342
0.000549342
0.000550061
0.000570117
0.000915499
0.000904322
0.000910875
0.000911559
0.000911624
0.00091165
0.000911663
0.000911666
0.000911639
0.000910986
0.000902054
0.000911344
0.000589202
0.000570862
0.00057008
0.000570054
0.000570049
0.000570057
0.000570688
0.000588515
0.000910064
0.000913063
0.000570404
0.000550062
0.000549169
0.000549146
0.000549146
0.000549159
0.000549885
0.000569585
0.00091187
0.000914703
0.00056999
0.000549508
0.000548618
0.000548601
0.0005486
0.000548609
0.000549331
0.00056917
0.000913497
0.000916822
0.000570411
0.000549859
0.000548973
0.000548956
0.000548956
0.000548961
0.000549682
0.000569596
0.000915603
0.000904411
0.000911183
0.000911879
0.000911942
0.000911967
0.000911977
0.000911978
0.000911944
0.000911272
0.000902099
0.000911468
0.000588329
0.000569968
0.000569193
0.000569172
0.000569173
0.000569187
0.000569827
0.000587714
0.000910161
0.000913196
0.000570292
0.000549984
0.000549098
0.000549076
0.000549076
0.00054909
0.000549815
0.000569507
0.000911985
0.000914867
0.000569954
0.000549539
0.000548658
0.000548642
0.000548642
0.00054865
0.000549367
0.000569161
0.000913647
0.000917012
0.000570332
0.00054991
0.000549036
0.000549021
0.000549021
0.000549025
0.000549734
0.000569539
0.000915777
0.000904029
0.000911344
0.00091208
0.000912147
0.00091217
0.000912178
0.000912173
0.00091213
0.000911417
0.000901689
0.000911208
0.000588323
0.000569976
0.000569203
0.000569183
0.000569184
0.000569198
0.000569836
0.000587721
0.000909874
0.000913114
0.000570473
0.0005502
0.00054932
0.0005493
0.000549301
0.000549312
0.000550031
0.000569701
0.000911876
0.000915017
0.000570231
0.000549858
0.000548987
0.000548973
0.000548974
0.000548978
0.000549686
0.000569444
0.00091377
0.000917403
0.000570862
0.000550514
0.000549666
0.00054966
0.000549661
0.000549654
0.000550337
0.00057007
0.000916139
0.000903159
0.000910971
0.000911745
0.000911817
0.00091184
0.000911846
0.000911836
0.000911784
0.000911033
0.000900803
0.000910519
0.000589443
0.000571235
0.000570475
0.000570458
0.000570459
0.000570471
0.0005711
0.000588862
0.000909159
0.000912721
0.000572062
0.000551986
0.000551131
0.000551118
0.00055112
0.000551125
0.000551823
0.000571313
0.000911455
0.000915
0.000572283
0.000552165
0.000551335
0.000551334
0.000551335
0.000551328
0.000551998
0.000571523
0.000913719
0.000917841
0.000574135
0.000554206
0.00055346
0.000553491
0.000553494
0.000553451
0.000554037
0.00057338
0.00091654
0.000901745
0.000909305
0.000910026
0.000910095
0.000910118
0.000910122
0.000910108
0.000910055
0.000909347
0.000899364
0.000908861
0.000610305
0.000593986
0.000593355
0.000593359
0.000593364
0.000593363
0.00059389
0.000609898
0.0009074
0.000911365
0.000596311
0.000578559
0.000577892
0.000577916
0.000577922
0.000577899
0.000578445
0.000595778
0.000909982
0.000914073
0.000599639
0.000582171
0.000581609
0.000581672
0.00058168
0.000581616
0.000582057
0.00059911
0.00091266
0.000917607
0.000608387
0.000591861
0.000591601
0.000591764
0.000591771
0.000591608
0.000591756
0.000607913
0.00091616
0.000897757
0.000898049
0.000898089
0.000898104
0.00089811
0.000898113
0.000898107
0.000898094
0.00089798
0.000895233
0.000899709
0.00090658
0.000907282
0.000907352
0.000907373
0.000907376
0.000907358
0.000907302
0.000906622
0.000897257
0.000902105
0.000909637
0.000910482
0.000910598
0.000910636
0.000910642
0.000910605
0.000910503
0.000909689
0.000899654
0.000905316
0.000913023
0.000913981
0.000914159
0.000914223
0.000914227
0.00091416
0.000913989
0.000913051
0.000902858
0.000910316
0.000918694
0.000919882
0.000920157
0.000920245
0.000920244
0.00092015
0.000919861
0.000918705
0.000907896
0.000922106
0.000938999
0.000941698
0.000941877
0.000941841
0.000941834
0.000941834
0.000941649
0.000939251
0.000919904
0.000968255
0.00115706
0.00118384
0.00117573
0.00117185
0.00117164
0.00117506
0.00118316
0.00116266
0.000968913
0.00145279
0.00375325
0.00407664
0.00394758
0.00389566
0.00389306
0.0039385
0.00406771
0.00381802
0.00148323
0.00503777
0.0225972
0.0253989
0.0249314
0.0246873
0.0246702
0.024875
0.0253517
0.0229978
0.00524791
0.0208323
0.104192
0.119436
0.120042
0.11978
0.11972
0.119859
0.11932
0.105682
0.0215787
0.000923066
0.00062695
0.000612428
0.000612614
0.000612859
0.000612863
0.000612619
0.000612342
0.000626652
0.000921643
0.000930964
0.00069129
0.000684192
0.00068512
0.00068519
0.000685172
0.000685078
0.000684155
0.000692098
0.000929822
0.000986438
0.00115762
0.00119764
0.00117974
0.00117261
0.0011723
0.00117862
0.00119688
0.00116802
0.000988232
0.00184676
0.0111334
0.0119841
0.0110351
0.0106828
0.0106735
0.0110043
0.0119676
0.01135
0.00189283
0.0343841
0.254738
0.283843
0.284666
0.284139
0.28405
0.284413
0.283856
0.257892
0.0357415
0.000920875
0.000577759
0.000558311
0.000557759
0.000557857
0.000557859
0.000557751
0.000558147
0.000577049
0.000919619
0.000924904
0.000584919
0.000566543
0.000566166
0.000566243
0.000566243
0.000566157
0.000566396
0.000584392
0.000923734
0.000935217
0.000692372
0.000687466
0.000688871
0.000689199
0.000689185
0.000688843
0.00068756
0.000694024
0.00093459
0.00142174
0.00682286
0.00738099
0.00733071
0.00730108
0.0072994
0.00732667
0.00738756
0.00692991
0.00144506
0.0364204
0.263042
0.285178
0.285196
0.284684
0.284644
0.285099
0.285467
0.266339
0.037843
0.000919079
0.00057193
0.000551695
0.000550936
0.000550972
0.000550972
0.000550925
0.000551518
0.000571146
0.000917843
0.00092261
0.000571917
0.000551725
0.000550893
0.000550878
0.000550878
0.000550878
0.000551545
0.000571173
0.000921427
0.000928826
0.000651568
0.000638513
0.000638327
0.000638699
0.000638727
0.000638403
0.000638637
0.000652463
0.000928072
0.00137497
0.00686589
0.00740551
0.00743163
0.00742981
0.00742941
0.0074317
0.00741869
0.00697335
0.00139631
0.0396676
0.288252
0.310976
0.311962
0.311818
0.311806
0.311964
0.311486
0.292004
0.041281
0.000918058
0.000571048
0.000550687
0.000549886
0.000549909
0.000549909
0.000549876
0.000550512
0.00057026
0.000916832
0.000921461
0.000570147
0.000549672
0.000548771
0.000548741
0.000548739
0.000548756
0.000549492
0.000569369
0.000920276
0.00092611
0.000637992
0.000624304
0.000624541
0.000625065
0.000625103
0.000624658
0.000624488
0.000638771
0.000925281
0.0013978
0.00758382
0.00820129
0.0082901
0.00831403
0.00831421
0.00829427
0.00822371
0.00770999
0.00142164
0.0412773
0.297928
0.320968
0.322404
0.32244
0.322441
0.322459
0.321587
0.301871
0.0429877
0.000917863
0.000571586
0.000551041
0.000550242
0.000550272
0.000550272
0.000550234
0.00055087
0.000570787
0.000916651
0.000921549
0.000570743
0.000549646
0.00054871
0.000548678
0.000548677
0.000548698
0.000549467
0.000569945
0.000920372
0.000926886
0.000645977
0.00063509
0.000636487
0.000637208
0.000637224
0.000636575
0.000635282
0.000646899
0.00092607
0.00170954
0.00973428
0.0106586
0.0109812
0.0110943
0.0110969
0.0109952
0.0106993
0.00989303
0.00174917
0.0418454
0.294719
0.317031
0.318436
0.318495
0.318499
0.318519
0.317693
0.298634
0.0436051
0.000918352
0.000573186
0.000552422
0.000551652
0.000551704
0.000551706
0.000551649
0.00055226
0.000572388
0.000917173
0.000922428
0.000572812
0.000550877
0.000549953
0.000549935
0.000549936
0.000549947
0.000550709
0.00057201
0.000921253
0.000932138
0.000670332
0.000662028
0.000666437
0.000668373
0.000668424
0.000666659
0.000662441
0.000671477
0.000931497
0.00214021
0.00912164
0.00999148
0.0106013
0.0108746
0.0108814
0.0106306
0.0100411
0.00923698
0.00219637
0.0419545
0.278955
0.298996
0.300348
0.300465
0.300475
0.300463
0.299673
0.282555
0.0437091
0.000919575
0.00057579
0.000554851
0.000554099
0.000554165
0.00055417
0.000554102
0.000554701
0.000575005
0.000918414
0.000923272
0.00057969
0.000557313
0.000556663
0.000556746
0.00055675
0.000556672
0.00055717
0.000578938
0.000922079
0.00094197
0.00068925
0.000679747
0.000684154
0.000686193
0.000686251
0.000684377
0.000680128
0.000690167
0.000941438
0.00217002
0.0065155
0.00711611
0.00730767
0.00738251
0.00738412
0.00731646
0.00713934
0.00660382
0.0022046
0.039316
0.230593
0.245468
0.247259
0.247755
0.247777
0.247414
0.246062
0.23322
0.0408197
0.000921037
0.000594072
0.000574723
0.000574021
0.000574064
0.000574068
0.000574027
0.000574598
0.000593439
0.000919799
0.000922594
0.000614878
0.000595118
0.000595306
0.000595659
0.000595673
0.000595343
0.000595064
0.000614433
0.0009213
0.000952054
0.000737294
0.000726115
0.000728885
0.000730239
0.000730271
0.000729016
0.000726338
0.000737951
0.000951415
0.00148809
0.00419607
0.00454308
0.00460542
0.00462686
0.00462695
0.0046078
0.0045531
0.00424722
0.00150716
0.0284027
0.137646
0.145381
0.146643
0.147077
0.147095
0.146744
0.145709
0.138934
0.0292234
0.000915103
0.000929579
0.000931368
0.000931757
0.00093191
0.000931924
0.00093177
0.000931447
0.000929788
0.000912751
0.000910798
0.000933624
0.000936277
0.000936658
0.00093677
0.000936777
0.000936694
0.000936384
0.000933879
0.00090842
0.000956061
0.000992295
0.000997162
0.000998462
0.00099888
0.000998875
0.000998529
0.00099726
0.00099283
0.000954092
0.00112474
0.00146106
0.0015188
0.0015285
0.00153131
0.00153134
0.00152878
0.00152023
0.00146804
0.00112837
0.00912012
0.0203945
0.0212835
0.0215234
0.0216009
0.0216034
0.0215368
0.0213222
0.0205344
0.00925692
)
;

boundaryField
{
    walls
    {
        type            epsilonWallFunction;
        value           nonuniform List<scalar> 
500
(
0.000868914
0.000868914
0.000868914
0.000899425
0.000899425
0.00090035
0.00090035
0.000900328
0.000900328
0.000900313
0.000900313
0.000900307
0.000900307
0.000900299
0.000900299
0.000900294
0.000900294
0.00090019
0.00090019
0.000897613
0.000897613
0.000897613
0.000900739
0.000900739
0.000909532
0.000910242
0.000910271
0.000910272
0.000910268
0.000910254
0.000910215
0.000909506
0.000899305
0.000899305
0.00090377
0.00090377
0.00091269
0.000913535
0.000913591
0.000913603
0.000913595
0.000913569
0.000913507
0.000912663
0.000901242
0.000901242
0.000906322
0.000906322
0.000916122
0.000917101
0.000917211
0.000917245
0.00091724
0.000917195
0.000917094
0.00091614
0.000903897
0.000903897
0.000908457
0.000908457
0.000919839
0.00092098
0.000921135
0.000921184
0.000921178
0.000921141
0.000921002
0.000919934
0.000906132
0.000906132
0.000900025
0.000900025
0.000907279
0.000907999
0.000908094
0.000908122
0.000908135
0.000908137
0.000908119
0.000907542
0.000899229
0.000899229
0.000908274
0.000906955
0.000910659
0.000909311
0.000913017
0.000911681
0.000915389
0.000914087
0.000902636
0.000902636
0.000909244
0.00090997
0.00091006
0.000910094
0.000910111
0.000910116
0.000910095
0.000909452
0.00090059
0.00090059
0.000909916
0.000908691
0.000912016
0.000910832
0.000914052
0.000912856
0.000916426
0.000915237
0.000903729
0.000903729
0.000910298
0.000911001
0.000911077
0.000911108
0.000911124
0.000911129
0.000911105
0.000910456
0.000901553
0.000901553
0.00091082
0.000909582
0.000912682
0.00091151
0.000914461
0.000913271
0.000916698
0.000915499
0.000904322
0.000904322
0.000910875
0.000911559
0.000911624
0.00091165
0.000911663
0.000911666
0.000911639
0.000910986
0.000902054
0.000902054
0.000911344
0.000910064
0.000913063
0.00091187
0.000914703
0.000913497
0.000916822
0.000915603
0.000904411
0.000904411
0.000911183
0.000911879
0.000911942
0.000911967
0.000911977
0.000911978
0.000911944
0.000911272
0.000902099
0.000902099
0.000911468
0.000910161
0.000913196
0.000911985
0.000914867
0.000913647
0.000917012
0.000915777
0.000904029
0.000904029
0.000911344
0.00091208
0.000912147
0.00091217
0.000912178
0.000912173
0.00091213
0.000911417
0.000901689
0.000901689
0.000911208
0.000909874
0.000913114
0.000911876
0.000915017
0.00091377
0.000917403
0.000916139
0.000903159
0.000903159
0.000910971
0.000911745
0.000911817
0.00091184
0.000911846
0.000911836
0.000911784
0.000911033
0.000900803
0.000900803
0.000910519
0.000909159
0.000912721
0.000911455
0.000915
0.000913719
0.000917841
0.00091654
0.000901745
0.000901745
0.000909305
0.000910026
0.000910095
0.000910118
0.000910122
0.000910108
0.000910055
0.000909347
0.000899364
0.000899364
0.000908861
0.0009074
0.000911365
0.000909982
0.000914073
0.00091266
0.000917607
0.00091616
0.000897757
0.000897757
0.000897757
0.000898049
0.000898049
0.000898089
0.000898089
0.000898104
0.000898104
0.00089811
0.00089811
0.000898113
0.000898113
0.000898107
0.000898107
0.000898094
0.000898094
0.00089798
0.00089798
0.000895233
0.000895233
0.000895233
0.000899709
0.000899709
0.00090658
0.000907282
0.000907352
0.000907373
0.000907376
0.000907358
0.000907302
0.000906622
0.000897257
0.000897257
0.000902105
0.000902105
0.000909637
0.000910482
0.000910598
0.000910636
0.000910642
0.000910605
0.000910503
0.000909689
0.000899654
0.000899654
0.000905316
0.000905316
0.000913023
0.000913981
0.000914159
0.000914223
0.000914227
0.00091416
0.000913989
0.000913051
0.000902858
0.000902858
0.000910316
0.000910316
0.000918694
0.000919882
0.000920157
0.000920245
0.000920244
0.00092015
0.000919861
0.000918705
0.000907896
0.000907896
0.000922106
0.000922106
0.000938999
0.000941698
0.000941877
0.000941841
0.000941834
0.000941834
0.000941649
0.000939251
0.000919904
0.000919904
0.000968255
0.000968255
0.00115706
0.00118384
0.00117573
0.00117185
0.00117164
0.00117506
0.00118316
0.00116266
0.000968913
0.000968913
0.00145279
0.00145279
0.00375325
0.00407664
0.00394758
0.00389566
0.00389306
0.0039385
0.00406771
0.00381802
0.00148323
0.00148323
0.00503777
0.00503777
0.0225972
0.0253989
0.0249314
0.0246873
0.0246702
0.024875
0.0253517
0.0229978
0.00524791
0.00524791
0.0208323
0.0208323
0.104192
0.119436
0.120042
0.11978
0.11972
0.119859
0.11932
0.105682
0.0215787
0.0215787
0.000923066
0.000921643
0.000930964
0.000929822
0.000986438
0.000988232
0.00184676
0.00189283
0.0343841
0.0357415
0.000920875
0.000919619
0.000924904
0.000923734
0.000935217
0.00093459
0.00142174
0.00144506
0.0364204
0.037843
0.000919079
0.000917843
0.00092261
0.000921427
0.000928826
0.000928072
0.00137497
0.00139631
0.0396676
0.041281
0.000918058
0.000916832
0.000921461
0.000920276
0.00092611
0.000925281
0.0013978
0.00142164
0.0412773
0.0429877
0.000917863
0.000916651
0.000921549
0.000920372
0.000926886
0.00092607
0.00170954
0.00174917
0.0418454
0.0436051
0.000918352
0.000917173
0.000922428
0.000921253
0.000932138
0.000931497
0.00214021
0.00219637
0.0419545
0.0437091
0.000919575
0.000918414
0.000923272
0.000922079
0.00094197
0.000941438
0.00217002
0.0022046
0.039316
0.0408197
0.000921037
0.000919799
0.000922594
0.0009213
0.000952054
0.000951415
0.00148809
0.00150716
0.0284027
0.0292234
0.000915103
0.000915103
0.000929579
0.000931368
0.000931757
0.00093191
0.000931924
0.00093177
0.000931447
0.000929788
0.000912751
0.000912751
0.000910798
0.000910798
0.000933624
0.000936277
0.000936658
0.00093677
0.000936777
0.000936694
0.000936384
0.000933879
0.00090842
0.00090842
0.000956061
0.000956061
0.000992295
0.000997162
0.000998462
0.00099888
0.000998875
0.000998529
0.00099726
0.00099283
0.000954092
0.000954092
0.00112474
0.00112474
0.00146106
0.0015188
0.0015285
0.00153131
0.00153134
0.00152878
0.00152023
0.00146804
0.00112837
0.00112837
0.00912012
0.00912012
0.0203945
0.0212835
0.0215234
0.0216009
0.0216034
0.0215368
0.0213222
0.0205344
0.00925692
0.00925692
)
;
        Cmu             0.09;
        kappa           0.41;
        E               9.8;
    }
    lid
    {
        type            epsilonWallFunction;
        value           nonuniform List<scalar> 
100
(
0.0208323
0.104192
0.119436
0.120042
0.11978
0.11972
0.119859
0.11932
0.105682
0.0215787
0.0343841
0.254738
0.283843
0.284666
0.284139
0.28405
0.284413
0.283856
0.257892
0.0357415
0.0364204
0.263042
0.285178
0.285196
0.284684
0.284644
0.285099
0.285467
0.266339
0.037843
0.0396676
0.288252
0.310976
0.311962
0.311818
0.311806
0.311964
0.311486
0.292004
0.041281
0.0412773
0.297928
0.320968
0.322404
0.32244
0.322441
0.322459
0.321587
0.301871
0.0429877
0.0418454
0.294719
0.317031
0.318436
0.318495
0.318499
0.318519
0.317693
0.298634
0.0436051
0.0419545
0.278955
0.298996
0.300348
0.300465
0.300475
0.300463
0.299673
0.282555
0.0437091
0.039316
0.230593
0.245468
0.247259
0.247755
0.247777
0.247414
0.246062
0.23322
0.0408197
0.0284027
0.137646
0.145381
0.146643
0.147077
0.147095
0.146744
0.145709
0.138934
0.0292234
0.00912012
0.0203945
0.0212835
0.0215234
0.0216009
0.0216034
0.0215368
0.0213222
0.0205344
0.00925692
)
;
        Cmu             0.09;
        kappa           0.41;
        E               9.8;
    }
}


// ************************************************************************* //
