/*--------------------------------*- C++ -*----------------------------------*\
| =========                 |                                                 |
| \\      /  F ield         | OpenFOAM: The Open Source CFD Toolbox           |
|  \\    /   O peration     | Version:  2.3.1                                 |
|   \\  /    A nd           | Web:      www.OpenFOAM.org                      |
|    \\/     M anipulation  |                                                 |
\*---------------------------------------------------------------------------*/
FoamFile
{
    version     2.0;
    format      ascii;
    class       volScalarField;
    location    "0.83";
    object      k;
}
// * * * * * * * * * * * * * * * * * * * * * * * * * * * * * * * * * * * * * //

dimensions      [0 2 -2 0 0 0 0];

internalField   nonuniform List<scalar> 
1000
(
0.00226491
0.00231755
0.00231916
0.00231913
0.0023191
0.00231909
0.00231908
0.00231907
0.00231889
0.00231445
0.00231986
0.00233532
0.00233658
0.00233663
0.00233664
0.00233663
0.00233661
0.00233654
0.00233528
0.00231745
0.00232519
0.0023409
0.00234239
0.00234249
0.00234251
0.0023425
0.00234246
0.00234235
0.00234085
0.00232087
0.00232972
0.00234696
0.00234869
0.00234888
0.00234895
0.00234894
0.00234886
0.00234868
0.00234699
0.00232557
0.00233338
0.00235341
0.00235542
0.0023557
0.00235578
0.00235577
0.00235571
0.00235546
0.00235357
0.0023294
0.00231865
0.00233133
0.00233259
0.00233275
0.0023328
0.00233282
0.00233283
0.0023328
0.00233178
0.00231731
0.00233307
0.00265576
0.00267948
0.00268086
0.00268096
0.00268099
0.00268099
0.00268013
0.00265888
0.00233082
0.00233727
0.00268469
0.00271096
0.00271247
0.00271257
0.00271257
0.00271252
0.00271146
0.00268777
0.00233496
0.00234142
0.00268815
0.00271471
0.00271625
0.00271634
0.00271634
0.00271629
0.00271519
0.00269115
0.00233914
0.00234553
0.00269688
0.00272477
0.00272681
0.00272711
0.00272712
0.00272688
0.00272532
0.00269998
0.00234331
0.00232322
0.00233479
0.00233606
0.00233622
0.00233628
0.0023363
0.00233631
0.00233628
0.00233514
0.00231971
0.00233596
0.00267951
0.00270537
0.00270685
0.00270695
0.00270697
0.00270696
0.00270598
0.00268274
0.00233387
0.00233966
0.00270963
0.00273843
0.00274011
0.00274021
0.00274021
0.00274017
0.00273898
0.00271304
0.00233764
0.00234324
0.002713
0.00274214
0.00274387
0.00274398
0.00274398
0.00274391
0.00274267
0.00271635
0.0023412
0.00234738
0.00271701
0.00274688
0.00274887
0.00274907
0.00274907
0.00274892
0.00274743
0.0027204
0.00234536
0.00232514
0.00233664
0.00233787
0.00233801
0.00233806
0.00233809
0.0023381
0.00233805
0.00233691
0.00232141
0.00233755
0.00268206
0.00270795
0.0027094
0.00270948
0.0027095
0.00270949
0.00270849
0.00268509
0.00233544
0.00234083
0.00271092
0.00273974
0.00274141
0.0027415
0.0027415
0.00274146
0.00274027
0.00271425
0.00233883
0.00234395
0.00271403
0.00274318
0.00274491
0.00274501
0.00274501
0.00274495
0.0027437
0.00271736
0.00234193
0.00234788
0.00271583
0.00274526
0.00274708
0.00274721
0.00274721
0.00274711
0.00274578
0.00271915
0.00234584
0.00232618
0.00233765
0.00233886
0.00233897
0.00233902
0.00233904
0.00233904
0.002339
0.00233785
0.0023223
0.00233848
0.00268355
0.00270943
0.00271087
0.00271095
0.00271096
0.00271094
0.00270993
0.00268646
0.00233629
0.0023415
0.00271106
0.00273978
0.00274144
0.00274153
0.00274153
0.00274149
0.0027403
0.00271433
0.00233947
0.00234438
0.00271391
0.00274291
0.00274462
0.00274473
0.00274473
0.00274467
0.00274342
0.0027172
0.00234233
0.0023481
0.00271508
0.00274414
0.00274588
0.00274599
0.00274599
0.00274592
0.00274464
0.00271833
0.00234603
0.00232634
0.0023382
0.00233943
0.00233954
0.00233958
0.0023396
0.0023396
0.00233954
0.00233835
0.00232238
0.00233869
0.00268465
0.00271056
0.00271199
0.00271206
0.00271207
0.00271204
0.00271101
0.00268747
0.00233646
0.00234173
0.00271133
0.00274002
0.00274168
0.00274177
0.00274177
0.00274172
0.00274053
0.00271457
0.00233967
0.00234467
0.00271409
0.00274301
0.00274473
0.00274483
0.00274484
0.00274477
0.00274352
0.00271734
0.00234259
0.00234844
0.00271534
0.00274426
0.00274599
0.0027461
0.0027461
0.00274602
0.00274475
0.00271855
0.00234634
0.00232566
0.0023385
0.0023398
0.00233991
0.00233996
0.00233997
0.00233996
0.00233988
0.00233862
0.00232165
0.00233824
0.00268511
0.00271105
0.00271249
0.00271256
0.00271257
0.00271253
0.00271149
0.00268791
0.00233596
0.00234159
0.00271175
0.00274044
0.00274212
0.00274221
0.00274221
0.00274216
0.00274095
0.00271496
0.00233948
0.00234493
0.00271464
0.00274357
0.0027453
0.00274541
0.00274542
0.00274534
0.00274407
0.00271786
0.00234281
0.00234912
0.00271649
0.00274548
0.00274728
0.00274742
0.00274742
0.00274731
0.00274596
0.00271966
0.00234697
0.00232413
0.00233785
0.00233922
0.00233935
0.00233939
0.0023394
0.00233938
0.00233929
0.00233796
0.00232009
0.00233702
0.00268419
0.00271002
0.00271147
0.00271154
0.00271155
0.00271151
0.00271046
0.00268696
0.0023347
0.0023409
0.00271059
0.00273912
0.00274079
0.00274089
0.0027409
0.00274084
0.00273962
0.00271376
0.00233874
0.0023449
0.00271349
0.00274223
0.00274397
0.0027441
0.0027441
0.00274402
0.00274272
0.00271665
0.00234272
0.00234989
0.00271638
0.00274533
0.00274725
0.00274744
0.00274745
0.00274728
0.00274579
0.00271947
0.00234767
0.00232163
0.00233492
0.0023362
0.00233632
0.00233636
0.00233637
0.00233634
0.00233625
0.002335
0.00231755
0.0023341
0.00265812
0.00268159
0.00268287
0.00268293
0.00268293
0.00268289
0.00268196
0.00266053
0.0023316
0.00233851
0.00268104
0.00270671
0.00270817
0.00270824
0.00270825
0.0027082
0.00270713
0.00268377
0.00233614
0.00234327
0.00268207
0.00270773
0.00270923
0.00270931
0.00270932
0.00270925
0.00270812
0.00268474
0.00234086
0.00234948
0.00268453
0.0027104
0.00271219
0.00271239
0.00271239
0.0027122
0.00271075
0.00268709
0.00234701
0.00231471
0.00231523
0.0023153
0.00231533
0.00231534
0.00231534
0.00231533
0.00231531
0.00231511
0.00231037
0.00231816
0.00233016
0.0023314
0.00233152
0.00233156
0.00233156
0.00233153
0.00233143
0.00233024
0.00231395
0.00232239
0.00233555
0.00233704
0.00233724
0.00233731
0.00233732
0.00233725
0.00233707
0.00233564
0.00231819
0.00232807
0.00234153
0.00234321
0.00234353
0.00234365
0.00234365
0.00234353
0.00234323
0.00234158
0.00232386
0.0023369
0.00235161
0.00235372
0.00235421
0.00235436
0.00235436
0.00235419
0.00235368
0.00235163
0.00233277
0.00235786
0.00238937
0.00239447
0.00239473
0.00239463
0.00239462
0.00239465
0.00239438
0.00238988
0.00235415
0.00244323
0.00278829
0.00283712
0.00282255
0.00281557
0.0028152
0.00282134
0.00283594
0.00279828
0.00244491
0.00325733
0.00633218
0.00671585
0.00656984
0.00651
0.006507
0.00655945
0.00670604
0.00640724
0.00330578
0.00757351
0.0209389
0.0226912
0.0224184
0.0222716
0.0222613
0.0223847
0.0226643
0.0211868
0.00778608
0.0194118
0.0573912
0.0629628
0.0631898
0.0630982
0.0630771
0.0631265
0.0629251
0.0579365
0.0198761
0.00235914
0.00268662
0.0027123
0.00271416
0.00271429
0.00271428
0.00271414
0.00271258
0.0026891
0.00235672
0.00237341
0.00277492
0.00281329
0.00281715
0.0028171
0.00281705
0.00281707
0.00281371
0.00277928
0.00237152
0.00247388
0.00345133
0.0035624
0.00356061
0.00355687
0.00355654
0.00355955
0.00356256
0.00346633
0.00247736
0.00382123
0.00930837
0.00979167
0.00942688
0.00928823
0.00928394
0.00941352
0.00978565
0.00941808
0.00388657
0.0271109
0.103373
0.111216
0.111453
0.111319
0.111297
0.111389
0.111223
0.104218
0.0278191
0.00235527
0.0027201
0.0027497
0.002752
0.00275234
0.00275234
0.00275203
0.00275015
0.00272319
0.00235314
0.00236239
0.00272474
0.00275496
0.00275728
0.00275741
0.0027574
0.0027573
0.00275543
0.00272809
0.00236041
0.00238091
0.00290589
0.00296307
0.00297311
0.00297515
0.00297516
0.00297324
0.00296421
0.00291257
0.00237992
0.00318593
0.00691285
0.00724174
0.00723796
0.00723001
0.00722925
0.00723647
0.00724625
0.00697137
0.00322187
0.02816
0.10567
0.111611
0.111626
0.111493
0.111483
0.111602
0.111689
0.106545
0.0288877
0.00235211
0.00271966
0.00274931
0.00275142
0.0027517
0.0027517
0.00275146
0.0027498
0.00272286
0.00235001
0.00235836
0.00271603
0.00274496
0.0027467
0.00274676
0.00274676
0.00274672
0.00274543
0.00271926
0.00235636
0.00236955
0.00280426
0.0028416
0.00284518
0.00284594
0.00284597
0.00284532
0.00284245
0.00280917
0.00236831
0.00311261
0.00672347
0.0070216
0.00704285
0.00704472
0.00704459
0.00704316
0.00702879
0.00678016
0.00314584
0.0298383
0.112343
0.118263
0.118526
0.118491
0.118488
0.118527
0.118395
0.113307
0.0306404
0.0023503
0.00271812
0.0027477
0.00274973
0.00274997
0.00274997
0.00274976
0.00274821
0.00272138
0.00234822
0.00235636
0.00271369
0.00274246
0.00274409
0.00274414
0.00274414
0.00274411
0.00274294
0.00271691
0.00235434
0.00236472
0.00278176
0.00281693
0.00281986
0.00282045
0.00282048
0.00282
0.00281773
0.00278639
0.00236336
0.00315382
0.00692074
0.00723086
0.00727086
0.00728118
0.00728128
0.00727266
0.00724123
0.00698281
0.00319104
0.0306491
0.114799
0.120732
0.121104
0.121114
0.121114
0.121118
0.120889
0.115799
0.031488
0.00234996
0.00271905
0.00274905
0.00275116
0.00275144
0.00275144
0.00275121
0.00274959
0.00272238
0.0023479
0.00235651
0.00271314
0.00274265
0.00274435
0.0027444
0.0027444
0.00274438
0.00274316
0.00271643
0.00235451
0.00236617
0.00278845
0.0028265
0.00283038
0.00283112
0.00283114
0.00283051
0.00282734
0.00279324
0.00236482
0.00362714
0.00785065
0.00828294
0.00841912
0.00846677
0.00846786
0.00842494
0.00830062
0.00792411
0.00368478
0.030935
0.113892
0.119651
0.120015
0.12003
0.120031
0.120036
0.119818
0.114887
0.0317934
0.00235082
0.00272281
0.00275362
0.00275595
0.0027563
0.00275631
0.00275601
0.00275421
0.00272626
0.00234882
0.00235804
0.00271511
0.00274631
0.00274833
0.00274843
0.00274844
0.00274838
0.00274688
0.00271855
0.00235604
0.00237555
0.00283645
0.00288115
0.00288851
0.00289052
0.00289058
0.00288877
0.00288227
0.0028419
0.00237452
0.00422163
0.00780278
0.0082592
0.00852871
0.00864592
0.00864882
0.00854132
0.00828231
0.00786166
0.00429623
0.0309725
0.109572
0.114821
0.115195
0.115227
0.11523
0.115225
0.114995
0.110498
0.0318242
0.00235299
0.00272689
0.00275835
0.00276085
0.00276125
0.00276126
0.00276092
0.00275899
0.00273045
0.00235102
0.00235946
0.00273009
0.0027658
0.00276919
0.00276966
0.00276967
0.00276929
0.00276649
0.00273391
0.00235744
0.00239262
0.00294314
0.00299791
0.00300898
0.00301238
0.00301248
0.00300935
0.00299938
0.0029495
0.00239177
0.00421996
0.00670416
0.00708098
0.00719269
0.0072354
0.00723634
0.00719751
0.00709408
0.00675274
0.00426328
0.0295701
0.0960613
0.100187
0.100687
0.100827
0.100833
0.100729
0.100348
0.0967753
0.0303096
0.00235558
0.00270706
0.00273631
0.0027385
0.00273882
0.00273883
0.00273859
0.00273691
0.00271031
0.00235348
0.0023582
0.00276515
0.00280778
0.00281397
0.00281539
0.00281543
0.00281415
0.00280871
0.00276947
0.002356
0.00240972
0.00306761
0.00312845
0.00314036
0.00314405
0.00314414
0.00314073
0.00312994
0.00307378
0.00240868
0.00327352
0.00556583
0.00587896
0.00591803
0.0059287
0.00592866
0.00591922
0.00588578
0.00560181
0.00330184
0.023659
0.0678104
0.0703546
0.0707655
0.0709065
0.0709122
0.0707978
0.0704596
0.0682258
0.024105
0.00234534
0.00237063
0.00237376
0.00237444
0.00237471
0.00237473
0.00237446
0.0023739
0.00237099
0.00234134
0.00233757
0.00237765
0.00238232
0.002383
0.0023832
0.00238321
0.00238306
0.00238251
0.0023781
0.00233352
0.00241617
0.00247853
0.00248686
0.00248908
0.00248979
0.00248979
0.00248919
0.00248703
0.00247944
0.00241287
0.00270152
0.00323302
0.00332055
0.00333505
0.00333922
0.00333926
0.00333545
0.00332267
0.00324347
0.00270755
0.0110148
0.0189194
0.0194751
0.0196238
0.0196717
0.0196732
0.0196321
0.0194988
0.0190057
0.011124
)
;

boundaryField
{
    walls
    {
        type            kqRWallFunction;
        value           nonuniform List<scalar> 
500
(
0.00226491
0.00226491
0.00226491
0.00231755
0.00231755
0.00231916
0.00231916
0.00231913
0.00231913
0.0023191
0.0023191
0.00231909
0.00231909
0.00231908
0.00231908
0.00231907
0.00231907
0.00231889
0.00231889
0.00231445
0.00231445
0.00231445
0.00231986
0.00231986
0.00233532
0.00233658
0.00233663
0.00233664
0.00233663
0.00233661
0.00233654
0.00233528
0.00231745
0.00231745
0.00232519
0.00232519
0.0023409
0.00234239
0.00234249
0.00234251
0.0023425
0.00234246
0.00234235
0.00234085
0.00232087
0.00232087
0.00232972
0.00232972
0.00234696
0.00234869
0.00234888
0.00234895
0.00234894
0.00234886
0.00234868
0.00234699
0.00232557
0.00232557
0.00233338
0.00233338
0.00235341
0.00235542
0.0023557
0.00235578
0.00235577
0.00235571
0.00235546
0.00235357
0.0023294
0.0023294
0.00231865
0.00231865
0.00233133
0.00233259
0.00233275
0.0023328
0.00233282
0.00233283
0.0023328
0.00233178
0.00231731
0.00231731
0.00233307
0.00233082
0.00233727
0.00233496
0.00234142
0.00233914
0.00234553
0.00234331
0.00232322
0.00232322
0.00233479
0.00233606
0.00233622
0.00233628
0.0023363
0.00233631
0.00233628
0.00233514
0.00231971
0.00231971
0.00233596
0.00233387
0.00233966
0.00233764
0.00234324
0.0023412
0.00234738
0.00234536
0.00232514
0.00232514
0.00233664
0.00233787
0.00233801
0.00233806
0.00233809
0.0023381
0.00233805
0.00233691
0.00232141
0.00232141
0.00233755
0.00233544
0.00234083
0.00233883
0.00234395
0.00234193
0.00234788
0.00234584
0.00232618
0.00232618
0.00233765
0.00233886
0.00233897
0.00233902
0.00233904
0.00233904
0.002339
0.00233785
0.0023223
0.0023223
0.00233848
0.00233629
0.0023415
0.00233947
0.00234438
0.00234233
0.0023481
0.00234603
0.00232634
0.00232634
0.0023382
0.00233943
0.00233954
0.00233958
0.0023396
0.0023396
0.00233954
0.00233835
0.00232238
0.00232238
0.00233869
0.00233646
0.00234173
0.00233967
0.00234467
0.00234259
0.00234844
0.00234634
0.00232566
0.00232566
0.0023385
0.0023398
0.00233991
0.00233996
0.00233997
0.00233996
0.00233988
0.00233862
0.00232165
0.00232165
0.00233824
0.00233596
0.00234159
0.00233948
0.00234493
0.00234281
0.00234912
0.00234697
0.00232413
0.00232413
0.00233785
0.00233922
0.00233935
0.00233939
0.0023394
0.00233938
0.00233929
0.00233796
0.00232009
0.00232009
0.00233702
0.0023347
0.0023409
0.00233874
0.0023449
0.00234272
0.00234989
0.00234767
0.00232163
0.00232163
0.00233492
0.0023362
0.00233632
0.00233636
0.00233637
0.00233634
0.00233625
0.002335
0.00231755
0.00231755
0.0023341
0.0023316
0.00233851
0.00233614
0.00234327
0.00234086
0.00234948
0.00234701
0.00231471
0.00231471
0.00231471
0.00231523
0.00231523
0.0023153
0.0023153
0.00231533
0.00231533
0.00231534
0.00231534
0.00231534
0.00231534
0.00231533
0.00231533
0.00231531
0.00231531
0.00231511
0.00231511
0.00231037
0.00231037
0.00231037
0.00231816
0.00231816
0.00233016
0.0023314
0.00233152
0.00233156
0.00233156
0.00233153
0.00233143
0.00233024
0.00231395
0.00231395
0.00232239
0.00232239
0.00233555
0.00233704
0.00233724
0.00233731
0.00233732
0.00233725
0.00233707
0.00233564
0.00231819
0.00231819
0.00232807
0.00232807
0.00234153
0.00234321
0.00234353
0.00234365
0.00234365
0.00234353
0.00234323
0.00234158
0.00232386
0.00232386
0.0023369
0.0023369
0.00235161
0.00235372
0.00235421
0.00235436
0.00235436
0.00235419
0.00235368
0.00235163
0.00233277
0.00233277
0.00235786
0.00235786
0.00238937
0.00239447
0.00239473
0.00239463
0.00239462
0.00239465
0.00239438
0.00238988
0.00235415
0.00235415
0.00244323
0.00244323
0.00278829
0.00283712
0.00282255
0.00281557
0.0028152
0.00282134
0.00283594
0.00279828
0.00244491
0.00244491
0.00325733
0.00325733
0.00633218
0.00671585
0.00656984
0.00651
0.006507
0.00655945
0.00670604
0.00640724
0.00330578
0.00330578
0.00757351
0.00757351
0.0209389
0.0226912
0.0224184
0.0222716
0.0222613
0.0223847
0.0226643
0.0211868
0.00778608
0.00778608
0.0194118
0.0194118
0.0573912
0.0629628
0.0631898
0.0630982
0.0630771
0.0631265
0.0629251
0.0579365
0.0198761
0.0198761
0.00235914
0.00235672
0.00237341
0.00237152
0.00247388
0.00247736
0.00382123
0.00388657
0.0271109
0.0278191
0.00235527
0.00235314
0.00236239
0.00236041
0.00238091
0.00237992
0.00318593
0.00322187
0.02816
0.0288877
0.00235211
0.00235001
0.00235836
0.00235636
0.00236955
0.00236831
0.00311261
0.00314584
0.0298383
0.0306404
0.0023503
0.00234822
0.00235636
0.00235434
0.00236472
0.00236336
0.00315382
0.00319104
0.0306491
0.031488
0.00234996
0.0023479
0.00235651
0.00235451
0.00236617
0.00236482
0.00362714
0.00368478
0.030935
0.0317934
0.00235082
0.00234882
0.00235804
0.00235604
0.00237555
0.00237452
0.00422163
0.00429623
0.0309725
0.0318242
0.00235299
0.00235102
0.00235946
0.00235744
0.00239262
0.00239177
0.00421996
0.00426328
0.0295701
0.0303096
0.00235558
0.00235348
0.0023582
0.002356
0.00240972
0.00240868
0.00327352
0.00330184
0.023659
0.024105
0.00234534
0.00234534
0.00237063
0.00237376
0.00237444
0.00237471
0.00237473
0.00237446
0.0023739
0.00237099
0.00234134
0.00234134
0.00233757
0.00233757
0.00237765
0.00238232
0.002383
0.0023832
0.00238321
0.00238306
0.00238251
0.0023781
0.00233352
0.00233352
0.00241617
0.00241617
0.00247853
0.00248686
0.00248908
0.00248979
0.00248979
0.00248919
0.00248703
0.00247944
0.00241287
0.00241287
0.00270152
0.00270152
0.00323302
0.00332055
0.00333505
0.00333922
0.00333926
0.00333545
0.00332267
0.00324347
0.00270755
0.00270755
0.0110148
0.0110148
0.0189194
0.0194751
0.0196238
0.0196717
0.0196732
0.0196321
0.0194988
0.0190057
0.011124
0.011124
)
;
    }
    lid
    {
        type            kqRWallFunction;
        value           nonuniform List<scalar> 
100
(
0.0194118
0.0573912
0.0629628
0.0631898
0.0630982
0.0630771
0.0631265
0.0629251
0.0579365
0.0198761
0.0271109
0.103373
0.111216
0.111453
0.111319
0.111297
0.111389
0.111223
0.104218
0.0278191
0.02816
0.10567
0.111611
0.111626
0.111493
0.111483
0.111602
0.111689
0.106545
0.0288877
0.0298383
0.112343
0.118263
0.118526
0.118491
0.118488
0.118527
0.118395
0.113307
0.0306404
0.0306491
0.114799
0.120732
0.121104
0.121114
0.121114
0.121118
0.120889
0.115799
0.031488
0.030935
0.113892
0.119651
0.120015
0.12003
0.120031
0.120036
0.119818
0.114887
0.0317934
0.0309725
0.109572
0.114821
0.115195
0.115227
0.11523
0.115225
0.114995
0.110498
0.0318242
0.0295701
0.0960613
0.100187
0.100687
0.100827
0.100833
0.100729
0.100348
0.0967753
0.0303096
0.023659
0.0678104
0.0703546
0.0707655
0.0709065
0.0709122
0.0707978
0.0704596
0.0682258
0.024105
0.0110148
0.0189194
0.0194751
0.0196238
0.0196717
0.0196732
0.0196321
0.0194988
0.0190057
0.011124
)
;
    }
}


// ************************************************************************* //
