/*--------------------------------*- C++ -*----------------------------------*\
| =========                 |                                                 |
| \\      /  F ield         | OpenFOAM: The Open Source CFD Toolbox           |
|  \\    /   O peration     | Version:  2.3.1                                 |
|   \\  /    A nd           | Web:      www.OpenFOAM.org                      |
|    \\/     M anipulation  |                                                 |
\*---------------------------------------------------------------------------*/
FoamFile
{
    version     2.0;
    format      ascii;
    class       volScalarField;
    location    "0.83";
    object      nut;
}
// * * * * * * * * * * * * * * * * * * * * * * * * * * * * * * * * * * * * * //

dimensions      [0 2 -1 0 0 0 0];

internalField   nonuniform List<scalar> 
1000
(
0.000531334
0.000537448
0.000537643
0.00053764
0.000537637
0.000537636
0.000537634
0.000537633
0.000537611
0.000537093
0.000537734
0.000539658
0.000539818
0.000539825
0.000539826
0.000539826
0.000539822
0.000539813
0.000539655
0.000537471
0.000538397
0.00054036
0.000540551
0.000540564
0.000540567
0.000540566
0.00054056
0.000540546
0.000540357
0.0005379
0.000538973
0.000541127
0.000541347
0.000541373
0.000541381
0.00054138
0.00054137
0.000541347
0.000541132
0.000538495
0.000539397
0.000541907
0.000542163
0.000542197
0.000542208
0.000542207
0.000542199
0.000542168
0.000541927
0.00053894
0.000537597
0.000539148
0.000539304
0.000539324
0.00053933
0.000539332
0.000539333
0.000539329
0.000539201
0.000537451
0.000539363
0.00104085
0.0010894
0.00109191
0.00109207
0.00109214
0.00109217
0.00109051
0.00104507
0.000539105
0.000539887
0.00109954
0.00115749
0.00116038
0.0011605
0.00116051
0.00116046
0.00115827
0.00110363
0.000539623
0.00054041
0.00110378
0.00116264
0.00116557
0.00116569
0.00116569
0.00116562
0.00116336
0.00110762
0.000540149
0.000540901
0.00110583
0.00116596
0.0011691
0.00116927
0.00116927
0.00116915
0.0011667
0.00110961
0.000540647
0.000538157
0.00053958
0.000539739
0.000539758
0.000539765
0.000539768
0.000539769
0.000539764
0.000539622
0.000537753
0.000539726
0.00109019
0.00114662
0.00114948
0.00114963
0.00114968
0.00114969
0.00114766
0.00109456
0.000539485
0.000540187
0.00115552
0.00122374
0.00122723
0.00122736
0.00122737
0.00122731
0.00122464
0.00116028
0.000539956
0.000540635
0.00115965
0.00122893
0.0012325
0.00123263
0.00123263
0.00123255
0.0012298
0.00116429
0.000540402
0.000541143
0.00116008
0.00123026
0.00123394
0.0012341
0.0012341
0.001234
0.00123113
0.00116466
0.000540912
0.000538395
0.000539811
0.000539966
0.000539982
0.000539989
0.000539992
0.000539993
0.000539987
0.000539843
0.000537966
0.000539925
0.0010961
0.0011531
0.00115592
0.00115605
0.00115608
0.00115607
0.00115397
0.00110002
0.000539682
0.000540334
0.00115889
0.00122751
0.00123101
0.00123114
0.00123114
0.00123108
0.00122839
0.0011635
0.000540105
0.000540724
0.00116258
0.00123214
0.00123571
0.00123585
0.00123585
0.00123577
0.00123301
0.00116717
0.000540492
0.000541212
0.00116266
0.0012327
0.00123633
0.00123647
0.00123647
0.00123638
0.00123356
0.0011672
0.000540979
0.000538525
0.000539938
0.000540089
0.000540103
0.000540109
0.000540111
0.000540112
0.000540105
0.000539961
0.000538078
0.000540041
0.00110001
0.00115736
0.00116018
0.0011603
0.00116032
0.00116029
0.00115814
0.00110369
0.000539789
0.000540419
0.00115968
0.00122818
0.00123167
0.0012318
0.0012318
0.00123173
0.00122904
0.00116415
0.000540186
0.000540778
0.00116296
0.00123223
0.00123577
0.00123591
0.00123591
0.00123583
0.00123309
0.00116746
0.000540543
0.000541243
0.0011631
0.00123255
0.00123611
0.00123624
0.00123624
0.00123616
0.0012334
0.00116757
0.000541006
0.000538544
0.000540008
0.000540162
0.000540176
0.000540181
0.000540183
0.000540183
0.000540175
0.000540026
0.000538088
0.000540068
0.00110255
0.00116014
0.00116295
0.00116305
0.00116305
0.001163
0.00116081
0.00110602
0.000539811
0.000540448
0.00116014
0.00122857
0.00123204
0.00123217
0.00123217
0.0012321
0.00122941
0.00116451
0.000540211
0.000540814
0.0011632
0.00123225
0.00123577
0.00123591
0.00123591
0.00123583
0.00123309
0.0011676
0.000540576
0.000541285
0.00116349
0.00123254
0.00123606
0.00123619
0.00123619
0.00123611
0.00123337
0.00116787
0.000541045
0.00053846
0.000540049
0.000540214
0.000540229
0.000540234
0.000540235
0.000540234
0.000540224
0.000540065
0.000537998
0.00054001
0.00110294
0.00116054
0.00116335
0.00116345
0.00116346
0.0011634
0.0011612
0.00110637
0.000539748
0.000540429
0.00116013
0.00122847
0.00123194
0.00123207
0.00123207
0.001232
0.0012293
0.00116446
0.000540187
0.000540847
0.0011631
0.00123204
0.00123555
0.00123568
0.00123568
0.00123561
0.00123287
0.00116747
0.000540603
0.000541369
0.00116339
0.00123229
0.0012358
0.00123594
0.00123594
0.00123586
0.00123311
0.00116773
0.000541123
0.000538268
0.000539973
0.000540147
0.000540163
0.000540168
0.00054017
0.000540167
0.000540155
0.000539987
0.000537802
0.000539858
0.00110009
0.00115711
0.00115988
0.00115998
0.00115999
0.00115993
0.00115776
0.00110344
0.000539591
0.000540342
0.00115592
0.00122331
0.00122671
0.00122682
0.00122682
0.00122676
0.00122412
0.00116014
0.000540094
0.000540843
0.00115795
0.00122569
0.0012291
0.00122921
0.00122921
0.00122915
0.0012265
0.00116219
0.000540593
0.000541464
0.00115667
0.00122394
0.0012273
0.00122741
0.00122741
0.00122735
0.00122473
0.00116083
0.00054121
0.000537955
0.000539607
0.000539769
0.000539785
0.00053979
0.000539791
0.000539788
0.000539775
0.000539616
0.000537484
0.000539491
0.00104195
0.00108956
0.00109176
0.0010918
0.00109179
0.00109176
0.00109004
0.00104453
0.000539202
0.000540042
0.00108487
0.00113967
0.00114221
0.00114223
0.00114222
0.00114222
0.00114025
0.00108805
0.000539769
0.000540638
0.00107967
0.00113345
0.0011358
0.00113575
0.00113574
0.0011358
0.001134
0.00108278
0.00054036
0.000541412
0.0010661
0.00111709
0.00111906
0.00111892
0.0011189
0.00111905
0.00111758
0.00106897
0.000541129
0.000537126
0.000537192
0.000537202
0.000537205
0.000537206
0.000537207
0.000537206
0.000537203
0.000537178
0.000536624
0.000537559
0.000539025
0.000539179
0.000539195
0.0005392
0.0005392
0.000539196
0.000539183
0.000539033
0.000537074
0.000538092
0.0005397
0.000539886
0.000539913
0.000539921
0.000539923
0.000539914
0.000539891
0.000539711
0.000537608
0.000538807
0.000540455
0.000540666
0.000540707
0.000540722
0.000540723
0.000540708
0.000540668
0.00054046
0.000538323
0.000539923
0.000541754
0.000542024
0.000542088
0.000542108
0.000542108
0.000542086
0.00054202
0.000541758
0.000539449
0.000542623
0.000547196
0.000547963
0.000547977
0.000547952
0.000547949
0.000547965
0.00054795
0.000547286
0.000542213
0.000554859
0.00060473
0.000611934
0.000609843
0.00060884
0.000608787
0.000609669
0.000611777
0.000606135
0.000555242
0.000657302
0.000961483
0.000995731
0.000984059
0.000979092
0.000978841
0.00098321
0.000995005
0.000967715
0.000663105
0.0010247
0.0017462
0.0018245
0.00181428
0.00180831
0.00180789
0.00181293
0.00182357
0.00175665
0.00103967
0.00162793
0.0028451
0.00298727
0.00299366
0.00299152
0.00299103
0.00299222
0.00298661
0.00285856
0.0016477
0.000542648
0.00103615
0.00108109
0.00108224
0.00108192
0.0010819
0.00108222
0.00108147
0.00103855
0.000542372
0.000544571
0.0010025
0.00104111
0.00104255
0.0010424
0.0010424
0.00104255
0.00104147
0.00100448
0.000544371
0.000558379
0.000926081
0.000953678
0.000967178
0.000971009
0.00097109
0.000967518
0.000954372
0.000925826
0.000558935
0.000711602
0.000700423
0.000720027
0.000724776
0.000726817
0.000726775
0.000724744
0.000720137
0.000703348
0.000718228
0.00192385
0.00377538
0.00392191
0.00392726
0.00392513
0.00392475
0.00392622
0.00392225
0.00379044
0.00194875
0.000542157
0.00115256
0.00121881
0.00122206
0.00122215
0.00122214
0.0012221
0.00121957
0.00115661
0.000541913
0.000543062
0.00114235
0.00120571
0.00120854
0.00120848
0.00120848
0.00120857
0.00120642
0.00114618
0.000542837
0.000545527
0.00109765
0.00114941
0.00115485
0.00115588
0.00115592
0.001155
0.00115014
0.00110007
0.000545437
0.00064253
0.000630363
0.000639461
0.000643174
0.000644367
0.00064438
0.000643264
0.000639688
0.000631177
0.000646505
0.00195958
0.00382051
0.00393137
0.00393217
0.00392985
0.00392969
0.0039318
0.00393288
0.00383593
0.00198464
0.000541757
0.00116393
0.00123308
0.00123668
0.00123684
0.00123684
0.00123673
0.00123391
0.00116828
0.000541517
0.000542558
0.00116086
0.00122912
0.00123253
0.00123262
0.00123262
0.00123258
0.00122993
0.00116513
0.00054233
0.00054405
0.00108622
0.00113815
0.00114135
0.0011413
0.00114127
0.00114132
0.00113861
0.00108853
0.000543923
0.000634161
0.000592561
0.000599182
0.000600697
0.000601163
0.000601173
0.000600743
0.000599345
0.000593309
0.00063787
0.00202001
0.00394058
0.00404778
0.00405292
0.0040524
0.00405236
0.00405299
0.00405012
0.00395699
0.00204683
0.000541526
0.00116442
0.00123389
0.00123751
0.00123768
0.00123768
0.00123757
0.00123474
0.00116882
0.000541288
0.000542309
0.00116246
0.00123146
0.00123495
0.00123506
0.00123506
0.001235
0.00123229
0.00116681
0.00054208
0.000543426
0.0010916
0.00114393
0.00114587
0.00114539
0.00114534
0.00114577
0.00114424
0.00109391
0.000543284
0.00064043
0.000568407
0.000573774
0.000573924
0.000573897
0.000573901
0.00057392
0.00057385
0.00056918
0.000644638
0.00204817
0.00398111
0.00408722
0.00409408
0.00409431
0.00409432
0.00409435
0.00408992
0.00399792
0.00207581
0.000541483
0.00116411
0.00123431
0.001238
0.00123818
0.00123818
0.00123806
0.00123518
0.0011686
0.000541248
0.000542329
0.00116077
0.00123169
0.00123532
0.00123544
0.00123544
0.00123537
0.00123254
0.00116522
0.000542103
0.000543634
0.00108331
0.00113216
0.00113277
0.00113208
0.00113207
0.00113272
0.00113248
0.00108548
0.000543494
0.000692615
0.000569837
0.000579312
0.000580931
0.00058154
0.000581554
0.000580998
0.000579571
0.000571234
0.000698608
0.00205823
0.00396118
0.00406417
0.00407088
0.00407119
0.0040712
0.00407126
0.00406708
0.00397785
0.00208631
0.000541593
0.00116408
0.00123532
0.00123914
0.00123934
0.00123934
0.0012392
0.00123621
0.00116866
0.000541364
0.000542514
0.00115826
0.00123222
0.00123611
0.00123624
0.00123624
0.00123616
0.00123311
0.00116283
0.000542288
0.000544866
0.0010802
0.00112849
0.00112676
0.00112506
0.00112502
0.00112658
0.00112867
0.0010825
0.000544771
0.000749458
0.000600715
0.000614454
0.000617519
0.000618663
0.00061869
0.000617638
0.000614844
0.0006022
0.000756332
0.00205787
0.00387356
0.00396841
0.00397635
0.00397702
0.00397707
0.00397689
0.00397149
0.00388908
0.00208538
0.000541871
0.00116229
0.00123415
0.00123805
0.00123827
0.00123827
0.00123812
0.00123505
0.00116691
0.000541647
0.000542675
0.00115718
0.00123533
0.00123981
0.00124005
0.00124004
0.00123988
0.00123627
0.00116193
0.000542446
0.000546956
0.00113106
0.00118996
0.00119104
0.00119019
0.00119016
0.00119095
0.00119046
0.00113445
0.000546876
0.000738578
0.000620845
0.000634143
0.000637156
0.000638211
0.000638237
0.000637245
0.00063442
0.000621452
0.000741992
0.0020016
0.00360158
0.00368017
0.00369009
0.00369294
0.00369306
0.00369089
0.0036831
0.00361415
0.00202551
0.000542202
0.0011102
0.0011725
0.00117582
0.001176
0.00117601
0.00117588
0.00117327
0.00111405
0.000541962
0.000542491
0.00111915
0.00119224
0.00119713
0.00119762
0.00119763
0.00119721
0.00119314
0.00112347
0.000542243
0.000548927
0.00114869
0.0012131
0.0012177
0.00121831
0.00121832
0.00121777
0.00121388
0.00115229
0.000548822
0.000648103
0.000664445
0.000684688
0.000684427
0.000683716
0.000683692
0.000684349
0.000684767
0.000664959
0.000651021
0.00177368
0.00300658
0.00306421
0.00307344
0.00307659
0.00307671
0.00307414
0.00306645
0.0030153
0.00178948
0.000540986
0.000544105
0.000544495
0.00054458
0.000544614
0.000544617
0.000544584
0.000544512
0.000544148
0.000540529
0.000539946
0.000544962
0.000545557
0.000545644
0.00054567
0.000545672
0.000545653
0.000545581
0.000545019
0.000539483
0.000549555
0.000557173
0.000558187
0.000558455
0.000558542
0.000558542
0.000558468
0.000558209
0.000557281
0.000549188
0.000583991
0.000643858
0.000653374
0.000654911
0.000655345
0.000655347
0.00065495
0.000653592
0.000644946
0.000584718
0.00119728
0.00157959
0.00160383
0.00161028
0.00161232
0.00161239
0.00161062
0.00160481
0.00158317
0.00120309
)
;

boundaryField
{
    walls
    {
        type            nutkWallFunction;
        Cmu             0.09;
        kappa           0.41;
        E               9.8;
        value           nonuniform List<scalar> 
500
(
6.47108e-05
6.47108e-05
6.47108e-05
6.54528e-05
6.54528e-05
6.54754e-05
6.54754e-05
6.54749e-05
6.54749e-05
6.54746e-05
6.54746e-05
6.54744e-05
6.54744e-05
6.54742e-05
6.54742e-05
6.54741e-05
6.54741e-05
6.54716e-05
6.54716e-05
6.54094e-05
6.54094e-05
6.54094e-05
6.54852e-05
6.54852e-05
6.57012e-05
6.57188e-05
6.57195e-05
6.57196e-05
6.57195e-05
6.57191e-05
6.57182e-05
6.57007e-05
6.54514e-05
6.54514e-05
6.55598e-05
6.55598e-05
6.57789e-05
6.57997e-05
6.58011e-05
6.58014e-05
6.58012e-05
6.58006e-05
6.57991e-05
6.57783e-05
6.54993e-05
6.54993e-05
6.5623e-05
6.5623e-05
6.58632e-05
6.58873e-05
6.589e-05
6.58909e-05
6.58908e-05
6.58897e-05
6.58872e-05
6.58637e-05
6.5565e-05
6.5565e-05
6.56741e-05
6.56741e-05
6.59529e-05
6.59809e-05
6.59847e-05
6.59858e-05
6.59857e-05
6.59848e-05
6.59814e-05
6.59552e-05
6.56186e-05
6.56186e-05
6.54682e-05
6.54682e-05
6.56455e-05
6.56631e-05
6.56654e-05
6.56661e-05
6.56664e-05
6.56664e-05
6.5666e-05
6.56518e-05
6.54494e-05
6.54494e-05
6.56698e-05
6.56384e-05
6.57283e-05
6.56962e-05
6.57862e-05
6.57545e-05
6.58434e-05
6.58125e-05
6.55321e-05
6.55321e-05
6.56937e-05
6.57115e-05
6.57137e-05
6.57145e-05
6.57149e-05
6.5715e-05
6.57145e-05
6.56987e-05
6.54831e-05
6.54831e-05
6.57102e-05
6.5681e-05
6.57616e-05
6.57335e-05
6.58115e-05
6.57831e-05
6.58691e-05
6.5841e-05
6.5559e-05
6.5559e-05
6.57196e-05
6.57368e-05
6.57387e-05
6.57394e-05
6.57398e-05
6.57399e-05
6.57393e-05
6.57234e-05
6.55069e-05
6.55069e-05
6.57323e-05
6.57029e-05
6.5778e-05
6.57501e-05
6.58215e-05
6.57932e-05
6.58761e-05
6.58477e-05
6.55736e-05
6.55736e-05
6.57337e-05
6.57505e-05
6.57521e-05
6.57527e-05
6.5753e-05
6.57531e-05
6.57524e-05
6.57364e-05
6.55193e-05
6.55193e-05
6.57452e-05
6.57147e-05
6.57873e-05
6.5759e-05
6.58274e-05
6.57988e-05
6.58792e-05
6.58504e-05
6.55757e-05
6.55757e-05
6.57413e-05
6.57584e-05
6.576e-05
6.57606e-05
6.57608e-05
6.57608e-05
6.576e-05
6.57435e-05
6.55204e-05
6.55204e-05
6.57482e-05
6.57171e-05
6.57906e-05
6.57618e-05
6.58314e-05
6.58025e-05
6.58839e-05
6.58546e-05
6.55663e-05
6.55663e-05
6.57455e-05
6.57636e-05
6.57652e-05
6.57658e-05
6.5766e-05
6.57658e-05
6.57648e-05
6.57472e-05
6.55103e-05
6.55103e-05
6.57419e-05
6.57101e-05
6.57885e-05
6.57591e-05
6.58351e-05
6.58055e-05
6.58934e-05
6.58634e-05
6.55449e-05
6.55449e-05
6.57365e-05
6.57556e-05
6.57574e-05
6.57579e-05
6.57581e-05
6.57578e-05
6.57565e-05
6.5738e-05
6.54884e-05
6.54884e-05
6.57249e-05
6.56925e-05
6.57789e-05
6.57488e-05
6.58347e-05
6.58043e-05
6.5904e-05
6.58732e-05
6.551e-05
6.551e-05
6.56956e-05
6.57134e-05
6.57151e-05
6.57157e-05
6.57158e-05
6.57155e-05
6.57141e-05
6.56967e-05
6.54528e-05
6.54528e-05
6.56842e-05
6.56493e-05
6.57456e-05
6.57126e-05
6.5812e-05
6.57783e-05
6.58983e-05
6.5864e-05
6.5413e-05
6.5413e-05
6.5413e-05
6.54203e-05
6.54203e-05
6.54213e-05
6.54213e-05
6.54217e-05
6.54217e-05
6.54218e-05
6.54218e-05
6.54219e-05
6.54219e-05
6.54217e-05
6.54217e-05
6.54214e-05
6.54214e-05
6.54186e-05
6.54186e-05
6.53522e-05
6.53522e-05
6.53522e-05
6.54613e-05
6.54613e-05
6.56292e-05
6.56465e-05
6.56482e-05
6.56487e-05
6.56488e-05
6.56483e-05
6.56469e-05
6.56302e-05
6.54024e-05
6.54024e-05
6.55206e-05
6.55206e-05
6.57044e-05
6.57251e-05
6.5728e-05
6.57289e-05
6.57291e-05
6.57282e-05
6.57256e-05
6.57056e-05
6.54618e-05
6.54618e-05
6.56e-05
6.56e-05
6.57877e-05
6.58112e-05
6.58156e-05
6.58172e-05
6.58173e-05
6.58156e-05
6.58114e-05
6.57884e-05
6.55411e-05
6.55411e-05
6.57233e-05
6.57233e-05
6.59279e-05
6.59572e-05
6.5964e-05
6.59661e-05
6.59661e-05
6.59638e-05
6.59567e-05
6.59282e-05
6.56656e-05
6.56656e-05
6.60147e-05
6.60147e-05
6.64501e-05
6.65204e-05
6.6524e-05
6.65226e-05
6.65224e-05
6.65229e-05
6.65192e-05
6.64572e-05
6.59633e-05
6.59633e-05
6.71873e-05
6.71873e-05
7.17072e-05
7.23212e-05
7.21386e-05
7.20509e-05
7.20462e-05
7.21234e-05
7.23064e-05
7.18333e-05
6.721e-05
6.721e-05
7.73765e-05
7.73765e-05
0.000106545
0.000109565
0.000108427
0.000107957
0.000107933
0.000108345
0.000109489
0.000107143
7.79354e-05
7.79354e-05
0.000115986
0.000115986
0.000186596
0.000193666
0.000192586
0.000192002
0.000191961
0.000192452
0.00019356
0.000187615
0.000117515
0.000117515
0.000180162
0.000180162
0.000296764
0.000309621
0.000310131
0.000309925
0.000309878
0.000309989
0.000309536
0.000298052
0.000182147
0.000182147
6.60325e-05
6.59989e-05
6.623e-05
6.62038e-05
6.76025e-05
6.76495e-05
8.36189e-05
8.43081e-05
0.000210259
0.000212775
6.59788e-05
6.59492e-05
6.60775e-05
6.605e-05
6.63336e-05
6.63199e-05
7.65443e-05
7.69645e-05
0.000213974
0.000216506
6.59349e-05
6.59056e-05
6.60217e-05
6.59938e-05
6.61766e-05
6.61595e-05
7.56789e-05
7.60725e-05
0.000219761
0.000222464
6.59098e-05
6.58808e-05
6.59938e-05
6.59659e-05
6.61098e-05
6.60909e-05
7.61667e-05
7.66042e-05
0.000222492
0.000225277
6.5905e-05
6.58763e-05
6.5996e-05
6.59683e-05
6.61298e-05
6.61112e-05
8.15321e-05
8.21582e-05
0.000223446
0.000226281
6.5917e-05
6.58891e-05
6.60172e-05
6.59895e-05
6.62595e-05
6.62454e-05
8.77447e-05
8.8489e-05
0.000223571
0.000226382
6.59471e-05
6.59197e-05
6.6037e-05
6.60089e-05
6.64949e-05
6.64832e-05
8.7728e-05
8.81611e-05
0.000218848
0.000221354
6.5983e-05
6.59539e-05
6.60194e-05
6.5989e-05
6.67298e-05
6.67155e-05
7.75638e-05
7.78901e-05
0.000197443
0.000199154
6.58408e-05
6.58408e-05
6.61915e-05
6.62348e-05
6.62442e-05
6.62479e-05
6.62483e-05
6.62446e-05
6.62367e-05
6.61965e-05
6.57851e-05
6.57851e-05
6.57326e-05
6.57326e-05
6.62886e-05
6.63531e-05
6.63624e-05
6.63651e-05
6.63653e-05
6.63633e-05
6.63557e-05
6.62948e-05
6.5676e-05
6.5676e-05
6.6818e-05
6.6818e-05
6.76653e-05
6.77776e-05
6.78075e-05
6.78171e-05
6.7817e-05
6.7809e-05
6.77799e-05
6.76776e-05
6.67729e-05
6.67729e-05
7.06014e-05
7.06014e-05
7.70943e-05
7.81049e-05
7.82709e-05
7.83186e-05
7.83189e-05
7.82755e-05
7.81291e-05
7.72157e-05
7.0679e-05
7.0679e-05
0.000138354
0.000138354
0.000178029
0.000180434
0.000181072
0.000181276
0.000181283
0.000181107
0.000180536
0.000178405
0.000138995
0.000138995
)
;
    }
    lid
    {
        type            nutkWallFunction;
        Cmu             0.09;
        kappa           0.41;
        E               9.8;
        value           nonuniform List<scalar> 
100
(
0.000180162
0.000296764
0.000309621
0.000310131
0.000309925
0.000309878
0.000309989
0.000309536
0.000298052
0.000182147
0.000210259
0.000388337
0.000401512
0.000401902
0.000401683
0.000401645
0.000401797
0.000401525
0.000389783
0.000212775
0.000213974
0.000392252
0.000402163
0.000402187
0.000401969
0.000401952
0.000402148
0.000402291
0.000393729
0.000216506
0.000219761
0.000403363
0.000412923
0.00041334
0.000413285
0.00041328
0.000413343
0.000413131
0.000404938
0.000222464
0.000222492
0.000407361
0.000416831
0.000417416
0.000417431
0.000417432
0.000417438
0.000417077
0.000408977
0.000225277
0.000223446
0.000405891
0.000415124
0.0004157
0.000415724
0.000415726
0.000415733
0.00041539
0.000407505
0.000226281
0.000223571
0.000398795
0.000407397
0.000408002
0.000408054
0.000408058
0.00040805
0.000407679
0.000400328
0.000226382
0.000218848
0.000375552
0.000382829
0.0003837
0.000383944
0.000383955
0.000383774
0.00038311
0.000376824
0.000221354
0.000197443
0.000320307
0.000325748
0.000326616
0.000326914
0.000326926
0.000326685
0.00032597
0.000321203
0.000199154
0.000138354
0.000178029
0.000180434
0.000181072
0.000181276
0.000181283
0.000181107
0.000180536
0.000178405
0.000138995
)
;
    }
}


// ************************************************************************* //
