/*--------------------------------*- C++ -*----------------------------------*\
| =========                 |                                                 |
| \\      /  F ield         | OpenFOAM: The Open Source CFD Toolbox           |
|  \\    /   O peration     | Version:  2.3.1                                 |
|   \\  /    A nd           | Web:      www.OpenFOAM.org                      |
|    \\/     M anipulation  |                                                 |
\*---------------------------------------------------------------------------*/
FoamFile
{
    version     2.0;
    format      ascii;
    class       surfaceScalarField;
    location    "0.83";
    object      phi;
}
// * * * * * * * * * * * * * * * * * * * * * * * * * * * * * * * * * * * * * //

dimensions      [0 3 -1 0 0 0 0];

internalField   nonuniform List<scalar> 
2700
(
2.90949e-06
4.55098e-05
-4.20258e-05
2.47497e-06
4.42465e-05
-4.38074e-05
1.36643e-06
4.46269e-05
-4.35141e-05
8.55943e-07
4.45478e-05
-4.40339e-05
2.56008e-07
4.47155e-05
-4.4114e-05
-2.50892e-07
4.4683e-05
-4.41748e-05
-5.82716e-07
4.44984e-05
-4.41656e-05
-6.37713e-07
4.41988e-05
-4.41419e-05
-3.8952e-07
4.38799e-05
-4.41313e-05
4.36559e-05
-4.40514e-05
8.74208e-07
9.30464e-05
-4.84171e-05
1.32035e-06
9.29135e-05
-4.91179e-05
1.30372e-06
9.38142e-05
-4.91754e-05
8.53262e-07
9.43799e-05
-4.93872e-05
2.11823e-07
9.48127e-05
-4.94614e-05
-4.21255e-07
9.48065e-05
-4.94964e-05
-8.43033e-07
9.43851e-05
-4.94696e-05
-8.51123e-07
9.36288e-05
-4.94284e-05
-4.1522e-07
9.27765e-05
-4.93414e-05
9.18142e-05
-4.85819e-05
1.4383e-06
0.000149192
-5.75926e-05
2.06891e-06
0.000151134
-5.88616e-05
1.9883e-06
0.000152924
-5.90388e-05
1.23793e-06
0.000154352
-5.92301e-05
2.03683e-07
0.000155173
-5.93347e-05
-8.25246e-07
0.000155191
-5.93615e-05
-1.55227e-06
0.000154411
-5.93069e-05
-1.63783e-06
0.000152929
-5.9223e-05
-1.00525e-06
0.000151215
-5.90814e-05
0.00014895
-5.81447e-05
2.11799e-06
0.000220176
-7.30986e-05
3.10034e-06
0.000224151
-7.3995e-05
2.97801e-06
0.000227087
-7.40343e-05
1.82174e-06
0.000229652
-7.41347e-05
2.09654e-07
0.000231023
-7.42247e-05
-1.40664e-06
0.000231067
-7.42469e-05
-2.58148e-06
0.000229792
-7.4195e-05
-2.76489e-06
0.000227273
-7.41515e-05
-1.87396e-06
0.000224464
-7.41298e-05
0.000220406
-7.33137e-05
7.5534e-06
-0.000107472
0.000320146
8.8805e-06
-0.000109751
0.000332628
7.43343e-06
-0.000110548
0.000339142
4.18539e-06
-0.000111123
0.000344089
3.0104e-07
-0.000111465
0.000346442
-3.58147e-06
-0.000111495
0.000346513
-6.83904e-06
-0.000111214
0.00034433
-8.34655e-06
-0.000110704
0.000339548
-7.17716e-06
-0.000109963
0.000333324
-0.000107738
0.000321024
7.19935e-07
3.92958e-05
-8.20439e-05
9.12487e-07
4.02329e-05
-8.42324e-05
9.30509e-07
4.07845e-05
-8.43161e-05
6.28237e-07
4.09636e-05
-8.46952e-05
1.8562e-07
4.11361e-05
-8.48085e-05
-2.61402e-07
4.11255e-05
-8.48549e-05
-5.80503e-07
4.09522e-05
-8.47988e-05
-6.95768e-07
4.06559e-05
-8.46836e-05
-5.58333e-07
4.02742e-05
-8.45481e-05
3.93168e-05
-8.39343e-05
6.96764e-07
8.2101e-05
-9.19245e-05
1.10035e-06
8.36418e-05
-9.29368e-05
1.14745e-06
8.46615e-05
-9.31056e-05
7.52946e-07
8.53522e-05
-9.33869e-05
1.76979e-07
8.57734e-05
-9.35295e-05
-4.09768e-07
8.57779e-05
-9.35669e-05
-8.27301e-07
8.53773e-05
-9.3483e-05
-9.24151e-07
8.46447e-05
-9.33256e-05
-6.39353e-07
8.37596e-05
-9.31217e-05
8.22769e-05
-9.21887e-05
1.47776e-06
0.000131841
-0.000108819
1.96716e-06
0.000134328
-0.000110044
1.84574e-06
0.000136134
-0.000110396
1.14165e-06
0.00013758
-0.00011076
1.81354e-07
0.000138371
-0.000110975
-7.86384e-07
0.000138392
-0.000111012
-1.50355e-06
0.000137649
-0.000110863
-1.70978e-06
0.000136216
-0.000110595
-1.27752e-06
0.000134511
-0.000110271
0.000132027
-0.000109174
2.78428e-06
0.000191789
-0.00013582
3.35029e-06
0.000197058
-0.000137282
2.97227e-06
0.000200206
-0.000137717
1.77041e-06
0.000202827
-0.000138163
1.94131e-07
0.000204185
-0.000138446
-1.38761e-06
0.00020423
-0.000138482
-2.61631e-06
0.000202968
-0.00013827
-3.06695e-06
0.000200428
-0.000137897
-2.59887e-06
0.00019743
-0.000137502
0.000192217
-0.000136084
7.28447e-06
-0.000189403
0.00026648
8.3847e-06
-0.000191972
0.000278229
6.92699e-06
-0.000193444
0.000284616
3.8759e-06
-0.000194726
0.000289543
2.76746e-07
-0.000195454
0.000291844
-3.32236e-06
-0.000195511
0.000291912
-6.38481e-06
-0.000194892
0.000289775
-7.89953e-06
-0.000193722
0.000285019
-6.95894e-06
-0.000192346
0.000278933
-0.000189853
0.000267424
1.03925e-06
3.15949e-05
-0.000114683
1.00596e-06
3.20363e-05
-0.00011624
8.30084e-07
3.23755e-05
-0.00011652
5.12751e-07
3.25423e-05
-0.000116924
1.46278e-07
3.26719e-05
-0.000117118
-2.13449e-07
3.26664e-05
-0.000117166
-4.7852e-07
3.25231e-05
-0.000117061
-5.94578e-07
3.22743e-05
-0.000116846
-5.20335e-07
3.19441e-05
-0.000116575
3.10805e-05
-0.000115544
8.41744e-07
6.48388e-05
-0.000126018
1.04015e-06
6.60524e-05
-0.000127158
9.78822e-07
6.68502e-05
-0.000127525
6.21643e-07
6.74358e-05
-0.000127929
1.44543e-07
6.77763e-05
-0.000128162
-3.34281e-07
6.77795e-05
-0.000128207
-6.85644e-07
6.74459e-05
-0.000128058
-8.00298e-07
6.68287e-05
-0.000127772
-6.15578e-07
6.6061e-05
-0.000127432
6.46848e-05
-0.000126415
1.37421e-06
0.000102555
-0.000147912
1.70877e-06
0.000104863
-0.000149192
1.53835e-06
0.000106412
-0.000149789
9.38902e-07
0.000107637
-0.000150361
1.46287e-07
0.000108294
-0.000150701
-6.47832e-07
0.000108312
-0.000150747
-1.25603e-06
0.000107688
-0.000150497
-1.47649e-06
0.000106479
-0.000150024
-1.18436e-06
0.000104981
-0.000149486
0.000102623
-0.000148295
2.59408e-06
0.000146579
-0.000182429
2.99625e-06
0.000151443
-0.00018425
2.5655e-06
0.000154306
-0.000185163
1.50026e-06
0.000156568
-0.00018601
1.58746e-07
0.000157724
-0.000186506
-1.18811e-06
0.000157757
-0.000186558
-2.26892e-06
0.000156682
-0.000186158
-2.75192e-06
0.000154491
-0.000185409
-2.43301e-06
0.000151746
-0.000184567
0.000146919
-0.000182796
6.30802e-06
-0.000242176
0.00019309
7.01453e-06
-0.000245478
0.000204287
5.68383e-06
-0.000247713
0.000209958
3.15012e-06
-0.000249642
0.000214083
2.19629e-07
-0.000250713
0.000215978
-2.70618e-06
-0.000250787
0.000216032
-5.24981e-06
-0.000249869
0.00021426
-6.61896e-06
-0.000248085
0.000210279
-6.05249e-06
-0.000245984
0.000204868
-0.000242779
0.000193835
5.08214e-07
2.05742e-05
-0.000135774
5.29396e-07
2.09929e-05
-0.000137262
4.79457e-07
2.12131e-05
-0.000137691
3.08071e-07
2.13507e-05
-0.000138111
9.57627e-08
2.14381e-05
-0.000138353
-1.14564e-07
2.14352e-05
-0.000138398
-2.75586e-07
2.13402e-05
-0.000138247
-3.55214e-07
2.11748e-05
-0.000137949
-3.25583e-07
2.09603e-05
-0.000137577
2.04434e-05
-0.000136322
4.75847e-07
4.24537e-05
-0.00014838
6.26066e-07
4.32998e-05
-0.000149622
5.9998e-07
4.38376e-05
-0.00015013
3.87108e-07
4.42489e-05
-0.000150621
9.75878e-08
4.4478e-05
-0.000150919
-1.93534e-07
4.44802e-05
-0.000150966
-4.11806e-07
4.42532e-05
-0.000150759
-4.82579e-07
4.38346e-05
-0.000150367
-3.58748e-07
4.33103e-05
-0.000149915
4.24241e-05
-0.000148759
8.38973e-07
6.6704e-05
-0.000173005
1.09024e-06
6.82757e-05
-0.000174419
9.84663e-07
6.93614e-05
-0.000175206
6.02248e-07
7.02118e-05
-0.00017594
9.90712e-08
7.06634e-05
-0.000176378
-4.07432e-07
7.06724e-05
-0.000176429
-7.99201e-07
7.02434e-05
-0.00017609
-9.41488e-07
6.94076e-05
-0.000175455
-7.3391e-07
6.83552e-05
-0.000174736
6.67765e-05
-0.000173379
1.72967e-06
9.37895e-05
-0.000211228
2.04699e-06
9.71118e-05
-0.000213388
1.73686e-06
9.92177e-05
-0.000214692
1.00883e-06
0.000100814
-0.000215858
1.05703e-07
0.000101617
-0.000216534
-7.97816e-07
0.000101641
-0.000216593
-1.53921e-06
0.000100883
-0.000216035
-1.88297e-06
9.93407e-05
-0.000214977
-1.62655e-06
9.73131e-05
-0.000213763
9.40196e-05
-0.000211651
4.21067e-06
-0.000269987
0.000117421
4.70472e-06
-0.000273929
0.000125108
3.77602e-06
-0.000276676
0.00012916
2.07644e-06
-0.000278998
0.000131922
1.4444e-07
-0.000280277
0.000133182
-1.78727e-06
-0.000280363
0.000133207
-3.49082e-06
-0.00027925
0.000132027
-4.44686e-06
-0.000277095
0.000129353
-4.05214e-06
-0.0002745
0.000125475
-0.000270645
0.000117861
1.45136e-07
8.50643e-06
-0.000144438
1.17839e-07
8.65411e-06
-0.000145902
9.82556e-08
8.72865e-06
-0.000146412
7.00652e-08
8.77347e-06
-0.000146869
4.96043e-08
8.8009e-06
-0.000147145
2.90535e-08
8.79734e-06
-0.000147187
4.95216e-09
8.76252e-06
-0.000146997
-2.77723e-08
8.70277e-06
-0.000146632
-5.56489e-08
8.62267e-06
-0.000146186
8.43547e-06
-0.000144822
1.23542e-07
1.77048e-05
-0.000157712
1.43424e-07
1.80268e-05
-0.000159024
1.35855e-07
1.8238e-05
-0.000159641
9.57724e-08
1.83948e-05
-0.000160211
4.99627e-08
1.84788e-05
-0.00016056
2.87643e-09
1.8476e-05
-0.000160605
-3.96683e-08
1.83855e-05
-0.000160347
-6.71386e-08
1.82191e-05
-0.000159865
-6.18665e-08
1.80057e-05
-0.000159313
1.76632e-05
-0.000158054
2.62255e-07
2.81241e-05
-0.000183687
3.21539e-07
2.87885e-05
-0.000185242
2.80766e-07
2.92751e-05
-0.000186204
1.74382e-07
2.96422e-05
-0.000187081
4.71026e-08
2.98307e-05
-0.000187603
-8.13456e-08
2.98313e-05
-0.000187655
-1.93092e-07
2.96425e-05
-0.000187236
-2.51084e-07
2.92769e-05
-0.000186455
-2.12374e-07
2.87976e-05
-0.000185569
2.81293e-05
-0.000184056
6.60961e-07
3.97743e-05
-0.000223536
7.54187e-07
4.13029e-05
-0.000225984
6.10313e-07
4.23568e-05
-0.000227615
3.46055e-07
4.31121e-05
-0.000229049
4.66941e-08
4.34865e-05
-0.000229869
-2.55125e-07
4.349e-05
-0.000229933
-5.23144e-07
4.31331e-05
-0.000229237
-6.81848e-07
4.23928e-05
-0.000227922
-6.15309e-07
4.13713e-05
-0.000226388
3.98538e-05
-0.000223986
1.81315e-06
-0.000280574
4.85802e-05
1.97256e-06
-0.0002849
5.2143e-05
1.51648e-06
-0.000288006
5.41786e-05
8.12433e-07
-0.000290606
5.54758e-05
5.73086e-08
-0.000292036
5.60454e-05
-6.93278e-07
-0.000292121
5.60553e-05
-1.40012e-06
-0.00029087
5.55002e-05
-1.86391e-06
-0.000288438
5.42424e-05
-1.74889e-06
-0.000285492
5.22754e-05
-0.000281245
4.87221e-05
-2.43829e-07
-4.24175e-06
-0.000139969
-3.58517e-07
-4.4135e-06
-0.000141389
-3.32287e-07
-4.50927e-06
-0.000141946
-1.9508e-07
-4.59248e-06
-0.000142429
7.48751e-09
-4.64223e-06
-0.000142722
2.1302e-07
-4.64751e-06
-0.00014276
3.53045e-07
-4.60977e-06
-0.000142544
3.7808e-07
-4.53924e-06
-0.000142135
2.66909e-07
-4.45453e-06
-0.000141638
-4.29896e-06
-0.000140266
-2.84201e-07
-8.30088e-06
-0.000153381
-4.30491e-07
-8.56331e-06
-0.000154741
-4.0532e-07
-8.74331e-06
-0.000155445
-2.38987e-07
-8.90541e-06
-0.000156079
5.46349e-09
-8.99887e-06
-0.00015646
2.50203e-07
-9.0088e-06
-0.000156503
4.18236e-07
-8.9344e-06
-0.000156205
4.41579e-07
-8.79204e-06
-0.000155651
2.97694e-07
-8.62789e-06
-0.00015501
-8.3772e-06
-0.000153685
-4.15946e-07
-1.17289e-05
-0.000179853
-5.99914e-07
-1.20554e-05
-0.000181574
-5.59157e-07
-1.22856e-05
-0.000182711
-3.29783e-07
-1.25025e-05
-0.000183722
-4.33607e-09
-1.26259e-05
-0.000184311
3.21767e-07
-1.26382e-05
-0.000184362
5.52088e-07
-1.25376e-05
-0.000183872
5.93766e-07
-1.23443e-05
-0.000182955
4.16398e-07
-1.21319e-05
-0.000181894
-1.18137e-05
-0.000180209
-6.14895e-07
-1.38689e-05
-0.00022078
-8.3428e-07
-1.41833e-05
-0.000223639
-7.66456e-07
-1.43357e-05
-0.000225634
-4.51886e-07
-1.45224e-05
-0.000227341
-1.68914e-08
-1.46333e-05
-0.000228296
4.19711e-07
-1.46434e-05
-0.000228359
7.35286e-07
-1.45583e-05
-0.000227532
8.08816e-07
-1.43901e-05
-0.000225945
6.03419e-07
-1.42564e-05
-0.000224059
-1.39509e-05
-0.000221249
-7.8132e-07
-0.000277729
-1.59347e-05
-1.05921e-06
-0.000282767
-1.60257e-05
-9.91986e-07
-0.000286368
-1.60227e-05
-5.90874e-07
-0.000289328
-1.61846e-05
-2.7568e-08
-0.000290917
-1.62824e-05
5.31341e-07
-0.000291004
-1.62982e-05
9.39899e-07
-0.000289587
-1.62213e-05
1.01437e-06
-0.000286802
-1.60832e-05
7.55178e-07
-0.00028337
-1.61051e-05
-0.00027841
-1.60333e-05
-6.45761e-07
-1.71882e-05
-0.000122154
-8.73109e-07
-1.77498e-05
-0.000123433
-7.95707e-07
-1.80553e-05
-0.000123986
-4.81433e-07
-1.83027e-05
-0.000124461
-3.01068e-08
-1.84449e-05
-0.000124746
4.22578e-07
-1.84541e-05
-0.000124779
7.45542e-07
-1.83298e-05
-0.000124557
8.32722e-07
-1.81009e-05
-0.000124143
6.28214e-07
-1.78132e-05
-0.00012364
-1.72594e-05
-0.000122389
-7.63054e-07
-3.48784e-05
-0.000134945
-1.09377e-06
-3.58426e-05
-0.000136336
-1.01544e-06
-3.65029e-05
-0.000137095
-6.10548e-07
-3.70528e-05
-0.000137752
-3.75059e-08
-3.73588e-05
-0.00013814
5.38346e-07
-3.73762e-05
-0.000138177
9.50289e-07
-3.71061e-05
-0.000137863
1.04146e-06
-3.65916e-05
-0.000137274
7.36493e-07
-3.59644e-05
-0.000136572
-3.50121e-05
-0.000135206
-1.25294e-06
-5.26381e-05
-0.000160855
-1.70066e-06
-5.41695e-05
-0.000162821
-1.53482e-06
-5.52706e-05
-0.00016413
-9.06023e-07
-5.61857e-05
-0.000165242
-5.46726e-08
-5.66753e-05
-0.000165869
7.9772e-07
-5.67002e-05
-0.000165914
1.43446e-06
-5.6262e-05
-0.000165379
1.61817e-06
-5.53978e-05
-0.000164353
1.20864e-06
-5.43487e-05
-0.000163122
-5.28369e-05
-0.000161188
-2.23811e-06
-6.88934e-05
-0.00020231
-2.78992e-06
-7.13918e-05
-0.000205883
-2.41797e-06
-7.29767e-05
-0.00020832
-1.39044e-06
-7.42756e-05
-0.0002103
-8.02548e-08
-7.49392e-05
-0.000211363
1.22975e-06
-7.49695e-05
-0.000211422
2.26515e-06
-7.43677e-05
-0.00021048
2.65838e-06
-7.31344e-05
-0.000208622
2.16684e-06
-7.16248e-05
-0.000206305
-6.91553e-05
-0.000202782
-3.88338e-06
-0.000261549
-8.11984e-05
-4.58922e-06
-0.000268389
-8.50788e-05
-3.85528e-06
-0.000272849
-8.72419e-05
-2.16133e-06
-0.000276315
-8.89902e-05
-1.15964e-07
-0.000278083
-8.98323e-05
1.92914e-06
-0.000278159
-8.98635e-05
3.6251e-06
-0.000276561
-8.91032e-05
4.38441e-06
-0.000273269
-8.74269e-05
3.76601e-06
-0.000269014
-8.53782e-05
-0.00026226
-8.15516e-05
-1.04289e-06
-2.97531e-05
-9.13786e-05
-1.38809e-06
-3.08279e-05
-9.22805e-05
-1.25833e-06
-3.14024e-05
-9.27352e-05
-7.61661e-07
-3.18522e-05
-9.3126e-05
-6.28996e-08
-3.21042e-05
-9.33626e-05
6.39816e-07
-3.2117e-05
-9.33864e-05
1.14847e-06
-3.18919e-05
-9.31973e-05
1.30029e-06
-3.14691e-05
-9.28511e-05
9.95742e-07
-3.09221e-05
-9.24342e-05
-2.98534e-05
-9.15493e-05
-1.33822e-06
-6.11266e-05
-0.000102252
-1.82677e-06
-6.29955e-05
-0.000103705
-1.65955e-06
-6.42653e-05
-0.000104423
-9.93535e-07
-6.52926e-05
-0.000105006
-7.42785e-08
-6.58472e-05
-0.000105343
8.4786e-07
-6.58733e-05
-0.000105372
1.52605e-06
-6.53732e-05
-0.000105091
1.71888e-06
-6.4401e-05
-0.000104562
1.27944e-06
-6.31872e-05
-0.000103893
-6.13375e-05
-0.000102456
-2.3453e-06
-9.43963e-05
-0.000125271
-3.00121e-06
-9.76063e-05
-0.000127583
-2.6277e-06
-9.98588e-05
-0.000128944
-1.52885e-06
-0.000101657
-0.000130012
-1.00477e-07
-0.000102588
-0.000130593
1.32922e-06
-0.000102627
-0.000130629
2.43998e-06
-0.000101777
-0.00013012
2.8435e-06
-0.000100067
-0.000129128
2.2584e-06
-9.79085e-05
-0.00012784
-9.47347e-05
-0.000125553
-4.46332e-06
-0.000127645
-0.000164623
-5.23481e-06
-0.00013349
-0.000169269
-4.36702e-06
-0.000137047
-0.000172038
-2.45491e-06
-0.000139806
-0.000174106
-1.40207e-07
-0.000141152
-0.000175156
2.17266e-06
-0.000141199
-0.000175202
4.08913e-06
-0.000139962
-0.000174258
4.98948e-06
-0.000137315
-0.0001723
4.32844e-06
-0.000133923
-0.000169668
-0.000128139
-0.000165069
-8.24938e-06
-0.000225515
-0.000155484
-9.05356e-06
-0.000235743
-0.000165371
-7.25012e-06
-0.000241241
-0.000170501
-3.93773e-06
-0.000245095
-0.000174386
-1.94887e-07
-0.000246898
-0.000176123
3.53475e-06
-0.000246963
-0.000176179
6.84206e-06
-0.000245299
-0.000174565
8.65529e-06
-0.000241619
-0.000170822
8.02876e-06
-0.000236388
-0.000165953
-0.000226242
-0.000156162
-1.31282e-06
-4.07549e-05
-4.93292e-05
-1.79886e-06
-4.2174e-05
-4.96437e-05
-1.64209e-06
-4.3018e-05
-4.9896e-05
-9.95337e-07
-4.36795e-05
-5.01168e-05
-8.69516e-08
-4.40413e-05
-5.02529e-05
8.26141e-07
-4.40579e-05
-5.02657e-05
1.48767e-06
-4.37311e-05
-5.01553e-05
1.6757e-06
-4.31055e-05
-4.99583e-05
1.24575e-06
-4.22993e-05
-4.97263e-05
-4.08914e-05
-4.94233e-05
-1.77238e-06
-8.49827e-05
-5.6279e-05
-2.4559e-06
-8.76784e-05
-5.75433e-05
-2.22946e-06
-8.96345e-05
-5.80629e-05
-1.32808e-06
-9.11863e-05
-5.84313e-05
-1.02054e-07
-9.20019e-05
-5.86406e-05
1.12691e-06
-9.20362e-05
-5.86566e-05
2.04351e-06
-9.12918e-05
-5.84785e-05
2.3034e-06
-8.98182e-05
-5.81433e-05
1.68719e-06
-8.79441e-05
-5.76556e-05
-8.52785e-05
-5.6398e-05
-3.3892e-06
-0.000134846
-7.20409e-05
-4.28022e-06
-0.00014009
-7.43203e-05
-3.68708e-06
-0.000143795
-7.54163e-05
-2.116e-06
-0.000146649
-7.61633e-05
-1.3656e-07
-0.000148073
-7.65473e-05
1.84415e-06
-0.000148122
-7.65668e-05
3.42418e-06
-0.000146814
-7.62274e-05
4.05642e-06
-0.000144083
-7.55266e-05
3.26438e-06
-0.000140538
-7.44912e-05
-0.000135359
-7.22273e-05
-7.02733e-06
-0.000190589
-0.000101915
-7.95477e-06
-0.000201533
-0.000106947
-6.43917e-06
-0.000207996
-0.000109408
-3.53505e-06
-0.000212744
-0.000110973
-1.88558e-07
-0.000214934
-0.000111696
3.14597e-06
-0.000215001
-0.000111725
6.05009e-06
-0.00021296
-0.00011106
7.586e-06
-0.000208396
-0.000109579
6.82484e-06
-0.000202235
-0.000107241
-0.000191398
-0.000102242
-1.42965e-05
-0.000156558
-0.00024529
-1.46064e-05
-0.000170165
-0.000266872
-1.11196e-05
-0.000175772
-0.000277023
-5.80537e-06
-0.000178961
-0.000284269
-2.61959e-07
-0.000180232
-0.000287228
5.26066e-06
-0.000180259
-0.000287297
1.0527e-05
-0.00017908
-0.000284529
1.39843e-05
-0.000176018
-0.000277503
1.39586e-05
-0.000170756
-0.000267912
-0.000157203
-0.000246502
-1.33237e-06
-4.80117e-05
-1.96354e-06
-4.90274e-05
-1.83768e-06
-5.0038e-05
-1.11809e-06
-5.08532e-05
-9.86435e-08
-5.12895e-05
9.2503e-07
-5.13081e-05
1.66159e-06
-5.09101e-05
1.82218e-06
-5.01373e-05
1.25374e-06
-4.91712e-05
-4.81762e-05
-1.95994e-06
-0.000102345
-2.81529e-06
-0.000105736
-2.5776e-06
-0.00010836
-1.52814e-06
-0.000110357
-1.1612e-07
-0.000111366
1.29917e-06
-0.000111404
2.36224e-06
-0.000110478
2.63684e-06
-0.000108575
1.85887e-06
-0.000106067
-0.000102724
-4.27641e-06
-0.000170142
-5.2777e-06
-0.000179083
-4.46055e-06
-0.000184625
-2.51428e-06
-0.000188501
-1.54379e-07
-0.000190306
2.20027e-06
-0.000190364
4.15285e-06
-0.000188686
5.00079e-06
-0.000184981
4.12045e-06
-0.000179697
-0.000170847
-1.01222e-05
-0.000261953
-1.06377e-05
-0.000285559
-8.18341e-06
-0.000296532
-4.32735e-06
-0.000303375
-2.15573e-07
-0.000306167
3.88201e-06
-0.000306228
7.70146e-06
-0.000303618
1.0138e-05
-0.000297021
9.85592e-06
-0.000286701
-0.000263242
-2.49353e-05
-0.000393642
-2.19158e-05
-0.000458798
-1.49458e-05
-0.00047934
-7.2741e-06
-0.000490085
-2.88208e-07
-0.00049345
6.6384e-06
-0.000493498
1.41863e-05
-0.00049029
2.09906e-05
-0.000479923
2.44535e-05
-0.000460948
-0.000396012
-6.59579e-05
-0.000597465
0.000269752
-4.78107e-05
-0.000786986
0.000309924
-2.61956e-05
-0.000824485
0.000323395
-1.13379e-05
-0.000835315
0.000330241
-3.49205e-07
-0.000837053
0.000332467
1.05308e-05
-0.000836994
0.000332507
2.49806e-05
-0.000835284
0.000330394
4.59864e-05
-0.000824861
0.000323838
6.49851e-05
-0.000791353
0.000311302
-0.000602354
0.000271323
-0.000140839
-0.00089766
0.000440834
-9.49167e-05
-0.00135107
0.000518082
-4.30875e-05
-0.00141807
0.000541625
-1.69485e-05
-0.00141368
0.000552087
-4.16234e-07
-0.00140827
0.000554569
1.58683e-05
-0.00140798
0.000554559
4.10623e-05
-0.00141275
0.000552174
9.1515e-05
-0.00141754
0.000542072
0.00013909
-0.00135909
0.000520208
-0.00090663
0.000443275
-0.000336146
-0.0012652
0.00070376
-0.000176764
-0.00236157
0.00085098
-5.1669e-05
-0.00244641
0.0009032
-1.3956e-05
-0.00238024
0.000928777
-1.11037e-07
-0.00235609
0.000933903
1.33537e-05
-0.00235539
0.000933907
4.90136e-05
-0.00237753
0.00092899
0.000170854
-0.00244363
0.000904348
0.000332191
-0.00237503
0.000854447
-0.00128359
0.000709181
-0.000344944
-0.00190097
0.000980546
-0.000139392
-0.00337607
0.000808853
-3.80872e-05
-0.0034458
0.000897977
-8.23251e-06
-0.00336265
0.000952443
-7.66857e-08
-0.00333269
0.000968329
7.83129e-06
-0.00333191
0.000968464
3.64569e-05
-0.00335964
0.000953419
0.00013522
-0.00344261
0.000900053
0.000340511
-0.00338922
0.000808918
-0.00192505
0.000981903
0.000348039
-0.0022491
0.000181731
-0.00320988
5.70311e-05
-0.00332126
1.60499e-05
-0.00332183
1.27351e-07
-0.00331692
-1.5364e-05
-0.0033166
-5.42677e-05
-0.00332087
-0.000175653
-0.00332134
-0.000343416
-0.00322157
-0.00226851
-2.93637e-05
-0.0002598
0.000313552
-2.51869e-05
-0.00030013
0.000338945
-1.70385e-05
-0.000311386
0.000349538
-8.18112e-06
-0.000319469
0.000356503
-3.03934e-07
-0.000322077
0.000359364
7.51058e-06
-0.000322123
0.000359437
1.62343e-05
-0.000319698
0.000356778
2.4227e-05
-0.000311798
0.000350072
2.8853e-05
-0.000301386
0.000340107
-0.000261219
0.000314854
-5.55483e-05
-0.000224816
0.000461357
-4.78786e-05
-0.00029837
0.000508561
-3.15182e-05
-0.000313768
0.000527567
-1.4853e-05
-0.000324
0.00053986
-5.02485e-07
-0.000326527
0.000544572
1.37435e-05
-0.000326559
0.000544672
3.01275e-05
-0.000324229
0.000540231
4.62203e-05
-0.000314192
0.000528324
5.4553e-05
-0.000299975
0.000510381
-0.000226873
0.000463462
-5.4764e-05
1.94243e-05
0.000514122
-4.4528e-05
-8.0008e-05
0.000622344
-2.08888e-05
-7.87638e-05
0.00064449
-8.23937e-06
-6.4795e-05
0.000656848
-2.10271e-07
-6.04074e-05
0.000659692
7.71044e-06
-6.03619e-05
0.000659709
1.9866e-05
-6.44793e-05
0.000657046
4.32409e-05
-7.83714e-05
0.000645061
5.37544e-05
-8.09197e-05
0.000624889
1.86769e-05
0.000517306
-0.000108473
0.000225285
0.000883072
-9.19284e-05
-0.000218228
0.000930506
-5.36958e-05
-0.000207967
0.000988925
-2.45467e-05
-0.000165666
0.00102414
-8.52437e-07
-0.000151117
0.0010353
2.2702e-05
-0.000150912
0.00103543
5.17161e-05
-0.000164897
0.00102478
9.07629e-05
-0.000207476
0.000990142
0.000106584
-0.000220364
0.000932501
0.000219925
0.000887162
0.000229419
-0.00225328
0.000127854
-0.00332657
4.38672e-05
-0.00344528
1.27691e-05
-0.00345644
1.32387e-07
-0.00345546
-1.2144e-05
-0.00345528
-4.18614e-05
-0.00345609
-0.000124026
-0.00344667
-0.000226808
-0.00333921
-0.00227543
-1.43592e-05
-0.00015518
0.000327585
-1.32294e-05
-0.000169323
0.000341749
-9.71064e-06
-0.000173324
0.000348821
-4.93846e-06
-0.000176655
0.000353987
-2.16359e-07
-0.000177892
0.000356387
4.48374e-06
-0.000177924
0.000356474
9.21406e-06
-0.000176802
0.000354267
1.26951e-05
-0.000173559
0.000349322
1.40797e-05
-0.000169865
0.00034262
-0.000155787
0.000328545
-2.7757e-05
-0.000128895
0.000462769
-2.55998e-05
-0.000149084
0.000486161
-1.88e-05
-0.000151755
0.00049919
-9.52004e-06
-0.000154946
0.000508857
-3.90828e-07
-0.000155736
0.000513294
8.68805e-06
-0.000155773
0.000513433
1.7887e-05
-0.000155095
0.00050933
2.46199e-05
-0.000152003
0.000500028
2.71633e-05
-0.000149642
0.000487616
-0.000129676
0.000464475
-2.11621e-05
6.7313e-06
0.000399613
-1.44735e-05
2.63346e-05
0.000440219
-7.80448e-06
3.64254e-05
0.000449626
-3.45764e-06
4.17571e-05
0.000455796
-1.19109e-07
4.30124e-05
0.00045758
3.19727e-06
4.30044e-05
0.00045761
7.38378e-06
4.17637e-05
0.000455978
1.3893e-05
3.65701e-05
0.000449991
2.08179e-05
2.68684e-05
0.00044141
7.60304e-06
0.000400794
-6.78441e-05
0.000309246
0.000648313
-5.25061e-05
0.000309898
0.000631572
-3.33705e-05
0.00034916
0.00065701
-1.6293e-05
0.000370626
0.000678141
-7.18094e-07
0.000376728
0.00068596
1.47614e-05
0.000376724
0.000686169
3.16696e-05
0.000370703
0.000678912
5.08779e-05
0.000349185
0.000658278
6.6357e-05
0.000310816
0.000633004
0.000310619
0.000650439
8.40412e-05
-0.00202811
4.40742e-05
-0.00297672
1.42596e-05
-0.0030663
3.53375e-06
-0.00307509
3.74023e-08
-0.00307525
-3.31459e-06
-0.0030752
-1.35424e-05
-0.00307515
-4.28908e-05
-0.00306813
-8.31433e-05
-0.00298816
-0.00204797
-5.77556e-06
-7.89522e-05
0.000331108
-5.78794e-06
-8.34178e-05
0.000340122
-4.58933e-06
-8.46345e-05
0.000345043
-2.47039e-06
-8.59415e-05
0.000348842
-1.22514e-07
-8.65002e-05
0.000350757
2.2113e-06
-8.65319e-05
0.000350839
4.33427e-06
-8.60277e-05
0.000349114
5.533e-06
-8.47767e-05
0.000345496
5.63982e-06
-8.36648e-05
0.000340817
-7.9233e-05
0.000331866
-1.17253e-05
-6.49856e-05
0.000460536
-1.18295e-05
-7.39778e-05
0.000476853
-9.36864e-06
-7.54653e-05
0.000487597
-5.00543e-06
-7.72095e-05
0.000495826
-2.45255e-07
-7.78068e-05
0.000499877
4.50674e-06
-7.78299e-05
0.000500041
8.85052e-06
-7.73417e-05
0.000496337
1.13185e-05
-7.56638e-05
0.000488488
1.14053e-05
-7.43278e-05
0.000478215
-6.5472e-05
0.000462118
-4.9884e-06
-3.91767e-05
0.000378725
-3.72963e-06
-3.02951e-05
0.000395317
-2.67804e-06
-2.70981e-05
0.000400242
-1.45614e-06
-2.66729e-05
0.000404062
-7.11019e-08
-2.71116e-05
0.00040555
1.30732e-06
-2.71753e-05
0.000405597
2.51787e-06
-2.67789e-05
0.000404254
3.53501e-06
-2.72139e-05
0.000400544
4.86395e-06
-3.0209e-05
0.000395979
-3.92208e-05
0.000379359
-3.5316e-05
8.52202e-05
0.000559248
-2.82331e-05
6.73627e-05
0.000526798
-1.93409e-05
7.72067e-05
0.0005438
-9.69847e-06
8.19396e-05
0.000559899
-5.01795e-07
8.31417e-05
0.000566481
8.64551e-06
8.31428e-05
0.000566713
1.82089e-05
8.18947e-05
0.000560672
2.71841e-05
7.7055e-05
0.000545041
3.43575e-05
6.73863e-05
0.000528165
8.48994e-05
0.000560657
1.90758e-05
-0.00196208
8.33454e-06
-0.00289858
1.40677e-06
-0.00298213
-2.87588e-07
-0.00299148
1.12559e-08
-0.00299241
3.61569e-07
-0.00299243
-1.18307e-06
-0.00299172
-8.07129e-06
-0.00298416
-1.88795e-05
-0.00290993
-0.00198202
-5.96427e-07
-1.04137e-05
0.000326223
-8.48409e-07
-8.92215e-06
0.000333313
-8.90045e-07
-7.90387e-06
0.000337018
-5.48753e-07
-7.58567e-06
0.000339984
-3.83741e-08
-7.50064e-06
0.000341529
4.81367e-07
-7.50896e-06
0.000341614
8.24053e-07
-7.62688e-06
0.000340237
7.95482e-07
-7.94464e-06
0.000337443
5.64287e-07
-8.94308e-06
0.000333924
-1.04672e-05
0.000326889
-1.93476e-07
-1.92328e-05
0.000469526
-9.9656e-07
-1.67816e-05
0.000485594
-1.39822e-06
-1.5938e-05
0.000496112
-9.5765e-07
-1.61505e-05
0.000504028
-7.25907e-08
-1.63521e-05
0.000507954
8.02133e-07
-1.63777e-05
0.000508118
1.27399e-06
-1.6226e-05
0.00050456
9.02869e-07
-1.60555e-05
0.000497027
1.11665e-07
-1.68732e-05
0.000487004
-1.94452e-05
0.000471198
3.44105e-06
-2.06779e-05
0.000376893
2.18804e-06
-9.76151e-06
0.000389546
8.05989e-07
-7.78679e-06
0.000393492
1.60422e-07
-8.05656e-06
0.000396736
-2.91742e-08
-8.6254e-06
0.000398077
-1.79053e-07
-8.65375e-06
0.000398123
-7.96224e-07
-8.20358e-06
0.000396951
-2.15778e-06
-7.94366e-06
0.000393849
-3.44815e-06
-9.79243e-06
0.000390105
-2.09419e-05
0.000377472
6.44488e-06
-2.89283e-05
0.000560748
9.18852e-07
-3.40315e-05
0.000556644
-3.37912e-06
-3.605e-05
0.000576459
-2.87851e-06
-3.93105e-05
0.000590621
-2.54366e-07
-4.06243e-05
0.000595897
2.3749e-06
-4.0642e-05
0.000596125
3.00681e-06
-3.94637e-05
0.000591267
-1.14137e-06
-3.6348e-05
0.000577579
-6.91738e-06
-3.43135e-05
0.000558596
-2.97995e-05
0.000562422
-2.83208e-06
-0.00198813
-4.31699e-06
-0.00293114
-3.40961e-06
-0.00301915
-1.89134e-06
-0.00303231
-2.44291e-08
-0.00303495
1.8471e-06
-0.00303502
3.38741e-06
-0.00303271
4.32674e-06
-0.0030214
2.87706e-06
-0.00294295
-0.00200896
3.07791e-06
6.16374e-05
0.000310115
2.82028e-06
6.9155e-05
0.000316626
1.96131e-06
7.2701e-05
0.000319433
9.71504e-07
7.47632e-05
0.000321768
5.04237e-08
7.55963e-05
0.000323007
-8.72334e-07
7.55994e-05
0.000323083
-1.85166e-06
7.48102e-05
0.000322
-2.71301e-06
7.28043e-05
0.000319805
-3.02421e-06
6.94186e-05
0.000317157
6.19171e-05
0.000310701
1.17916e-05
3.1007e-05
0.000488551
9.73788e-06
5.05726e-05
0.000506273
6.26964e-06
5.54242e-05
0.000516896
2.94783e-06
5.72346e-05
0.000525043
9.58304e-08
5.7472e-05
0.000529049
-2.73286e-06
5.74584e-05
0.000529225
-6.00788e-06
5.71825e-05
0.000525614
-9.3995e-06
5.54115e-05
0.000517881
-1.16342e-05
5.08614e-05
0.000507786
3.11271e-05
0.00049046
1.00402e-05
2.86345e-05
0.000369012
7.06073e-06
6.04944e-05
0.000382631
3.81156e-06
6.73715e-05
0.000384945
1.55589e-06
6.87468e-05
0.000387507
4.94849e-08
6.85292e-05
0.000388656
-1.42454e-06
6.84962e-05
0.000388746
-3.64338e-06
6.86377e-05
0.000387714
-6.90652e-06
6.72667e-05
0.000385231
-9.94859e-06
6.10175e-05
0.000383161
2.88804e-05
0.000369669
6.78659e-05
-0.000143668
0.000665298
3.68135e-05
-8.9375e-05
0.000737626
1.34036e-05
-9.44604e-05
0.000761649
4.14533e-06
-0.000106791
0.00077552
3.86005e-09
-0.000111772
0.000780359
-4.08116e-06
-0.00011192
0.000780505
-1.2917e-05
-0.000107348
0.000776148
-3.57757e-05
-9.51743e-05
0.000763027
-6.77188e-05
-8.93928e-05
0.000740763
-0.000145248
0.000668814
-2.63319e-05
-0.00210552
-1.91793e-05
-0.00302782
-9.81554e-06
-0.00312307
-4.14199e-06
-0.00314491
-7.45673e-08
-0.00315091
3.99536e-06
-0.00315101
9.53593e-06
-0.00314566
1.87327e-05
-0.00312598
2.6245e-05
-0.00303997
-0.00212798
6.22779e-06
0.000148122
0.000273287
5.75747e-06
0.000163649
0.000278626
4.24171e-06
0.000170059
0.000280115
2.20961e-06
0.000174223
0.000281622
1.25735e-07
0.000175944
0.000282441
-1.95236e-06
0.000175981
0.000282505
-3.98435e-06
0.000174371
0.000281807
-5.5172e-06
0.00017036
0.000280398
-6.08681e-06
0.000164239
0.000279026
0.000148826
0.000273731
2.54487e-05
0.000113318
0.000497967
2.12206e-05
0.00016263
0.000511581
1.43538e-05
0.000173472
0.000520491
6.96331e-06
0.000178802
0.000527971
2.72331e-07
0.000180122
0.000531732
-6.35296e-06
0.000180124
0.000531909
-1.36574e-05
0.000178868
0.000528515
-2.04318e-05
0.000173679
0.000521415
-2.49404e-05
0.000163675
0.000512981
0.000114504
0.000499901
1.67669e-05
0.000131033
0.000334617
1.15142e-05
0.000207163
0.000343401
6.53114e-06
0.000222133
0.000341251
2.91011e-06
0.00022867
0.000341403
1.39416e-07
0.000230258
0.000341425
-2.65732e-06
0.000230247
0.000341455
-6.22959e-06
0.000228717
0.00034154
-1.11408e-05
0.000222451
0.00034141
-1.65106e-05
0.000208583
0.000343596
0.000132711
0.000334975
0.000159673
-0.000246131
0.000882707
9.04759e-05
1.51369e-05
0.000998741
3.75552e-05
1.82645e-05
0.0010185
1.36683e-05
-3.58482e-06
0.00103162
2.96936e-07
-1.34717e-05
0.00103734
-1.28116e-05
-1.37639e-05
0.0010376
-3.58762e-05
-4.56812e-06
0.0010324
-8.77577e-05
1.73729e-05
0.0010199
-0.000157679
1.71427e-05
0.00100211
-0.000245318
0.000889132
-7.11761e-05
-0.00228055
-4.74704e-05
-0.00303642
-2.31382e-05
-0.00312927
-9.09715e-06
-0.0031627
-1.5808e-07
-0.00317343
8.63532e-06
-0.0031737
2.22087e-05
-0.00316388
4.61329e-05
-0.0031326
7.02687e-05
-0.00304705
-0.00230307
8.27804e-06