/*--------------------------------*- C++ -*----------------------------------*\
| =========                 |                                                 |
| \\      /  F ield         | OpenFOAM: The Open Source CFD Toolbox           |
|  \\    /   O peration     | Version:  2.3.1                                 |
|   \\  /    A nd           | Web:      www.OpenFOAM.org                      |
|    \\/     M anipulation  |                                                 |
\*---------------------------------------------------------------------------*/
FoamFile
{
    version     2.0;
    format      ascii;
    class       volVectorField;
    location    "0.83";
    object      U;
}
// * * * * * * * * * * * * * * * * * * * * * * * * * * * * * * * * * * * * * //

dimensions      [0 1 -1 0 0 0 0];

internalField   nonuniform List<vector> 
1000
(
(-0.00187177 0.00254924 0.000363095)
(-0.00218506 0.00229346 0.000298091)
(-0.00222707 0.00228187 0.000137155)
(-0.00226621 0.00226216 0.000129206)
(-0.00227436 0.00226646 4.83293e-05)
(-0.0022789 0.00226332 -1.43489e-06)
(-0.00227906 0.00225379 -4.61037e-05)
(-0.00227837 0.00223956 -6.66753e-05)
(-0.00227881 0.00222467 -5.51381e-05)
(-0.00227959 0.00221465 -2.23894e-05)
(-0.00242685 0.00691773 9.30207e-05)
(-0.00254588 0.00678037 0.00010588)
(-0.00256452 0.00684161 0.000132329)
(-0.00258252 0.00685498 0.000118731)
(-0.00258891 0.00688211 5.23177e-05)
(-0.00259179 0.00687906 -1.24327e-05)
(-0.00259095 0.00684941 -6.8326e-05)
(-0.00258931 0.00679883 -9.41513e-05)
(-0.00258355 0.00674339 -6.58707e-05)
(-0.00251745 0.00669244 -2.43478e-05)
(-0.0029763 0.011772 0.000109295)
(-0.00309076 0.0118786 0.000193125)
(-0.00310721 0.0119842 0.000210522)
(-0.00311972 0.0120644 0.000169449)
(-0.00312634 0.0121162 7.3047e-05)
(-0.00312839 0.0121162 -3.35357e-05)
(-0.00312603 0.0120656 -0.000125883)
(-0.0031224 0.0119745 -0.000172855)
(-0.0031133 0.0118767 -0.00013909)
(-0.00302839 0.0117516 -6.16187e-05)
(-0.00385924 0.0198687 0.000128465)
(-0.00395283 0.0202588 0.000288862)
(-0.00395954 0.0206103 0.000319569)
(-0.00396565 0.0208875 0.00025056)
(-0.00397098 0.0210367 0.000103992)
(-0.00397253 0.0210417 -6.29333e-05)
(-0.00397009 0.0209034 -0.000209886)
(-0.00396852 0.0206318 -0.000284471)
(-0.00396515 0.0202943 -0.000256901)
(-0.00388 0.0198858 -0.000106976)
(-0.00576452 0.0192629 0.000521548)
(-0.00595167 0.0195307 0.000889246)
(-0.00599788 0.0196113 0.00084039)
(-0.00602619 0.0197326 0.00059454)
(-0.0060434 0.0197963 0.000226743)
(-0.00604518 0.0197976 -0.000166628)
(-0.00603152 0.019737 -0.00053478)
(-0.00600732 0.0196135 -0.000783269)
(-0.00596518 0.0195367 -0.000840983)
(-0.00578157 0.0192646 -0.00049879)
(-0.00620343 0.00203264 7.47485e-05)
(-0.0064273 0.00208218 8.05909e-05)
(-0.00643316 0.00210786 8.86904e-05)
(-0.00648135 0.0021103 8.99581e-05)
(-0.00649214 0.00211677 3.95595e-05)
(-0.00649825 0.0021153 -4.81032e-06)
(-0.00649539 0.00210636 -4.54086e-05)
(-0.00648885 0.00209186 -6.71344e-05)
(-0.00648196 0.00207114 -7.05061e-05)
(-0.00644559 0.00199429 -3.24183e-05)
(-0.00706032 0.00601661 5.4433e-05)
(-0.00718245 0.00613972 9.29757e-05)
(-0.00719576 0.00621805 0.000117903)
(-0.00722246 0.00625675 0.000102138)
(-0.00723423 0.00628456 4.69486e-05)
(-0.00723842 0.00628366 -1.30264e-05)
(-0.00723325 0.00625569 -6.60535e-05)
(-0.00722366 0.00620633 -9.37128e-05)
(-0.00720736 0.00614518 -8.49434e-05)
(-0.00710054 0.00601864 -3.70479e-05)
(-0.00840899 0.0105198 9.72783e-05)
(-0.00856697 0.0106886 0.000187476)
(-0.00859704 0.0108058 0.000198778)
(-0.00862614 0.0108969 0.000156105)
(-0.00864272 0.0109494 6.75537e-05)
(-0.00864628 0.0109502 -3.21341e-05)
(-0.00863639 0.0108999 -0.000120518)
(-0.00861911 0.0108067 -0.000169619)
(-0.00859323 0.0106996 -0.000163056)
(-0.0084624 0.0105369 -7.75624e-05)
(-0.0106072 0.0172761 0.000169639)
(-0.0107622 0.0176405 0.000346766)
(-0.010789 0.0179608 0.00032727)
(-0.0108164 0.0182203 0.000245964)
(-0.010835 0.0183582 0.000100399)
(-0.0108382 0.018363 -6.20425e-05)
(-0.0108254 0.0182355 -0.000208938)
(-0.0108054 0.0179848 -0.000295084)
(-0.0107822 0.0176793 -0.000322738)
(-0.0106349 0.0173205 -0.000156304)
(-0.0152466 0.0169893 0.00048999)
(-0.0155384 0.0176281 0.000862055)
(-0.0156578 0.0178136 0.00078514)
(-0.0157513 0.0179779 0.000552828)
(-0.0158053 0.0180569 0.000209811)
(-0.0158098 0.0180587 -0.000154458)
(-0.0157646 0.0179838 -0.000498104)
(-0.0156803 0.0178215 -0.000732765)
(-0.0155692 0.0176448 -0.000819635)
(-0.0152844 0.0170055 -0.000471274)
(-0.0100554 0.0016219 8.44779e-05)
(-0.010145 0.00165605 0.000120278)
(-0.0101527 0.00167125 8.57384e-05)
(-0.0101869 0.00167664 7.17511e-05)
(-0.0102017 0.0016819 3.26756e-05)
(-0.0102063 0.00168111 -4.22582e-06)
(-0.0101983 0.00167381 -3.69884e-05)
(-0.0101817 0.00166161 -5.58202e-05)
(-0.010161 0.00164384 -6.36495e-05)
(-0.0100734 0.00157809 -3.10481e-05)
(-0.0110324 0.0047945 6.00329e-05)
(-0.0111218 0.00487579 0.000105203)
(-0.0111471 0.0049302 0.000103769)
(-0.0111802 0.00496425 8.38991e-05)
(-0.0111989 0.00498627 3.88062e-05)
(-0.0112031 0.00498579 -1.05333e-05)
(-0.0111915 0.00496257 -5.41568e-05)
(-0.0111691 0.00492095 -7.84173e-05)
(-0.0111412 0.00486773 -7.8026e-05)
(-0.0110469 0.00475113 -3.65969e-05)
(-0.0129907 0.00829216 8.68161e-05)
(-0.0131071 0.00844153 0.000169837)
(-0.0131546 0.00854386 0.000168218)
(-0.0132015 0.00862483 0.000128606)
(-0.0132294 0.00866983 5.5425e-05)
(-0.0132337 0.00867053 -2.64598e-05)
(-0.0132137 0.00862681 -9.98096e-05)
(-0.0131762 0.00854458 -0.000142881)
(-0.0131321 0.00844558 -0.000146911)
(-0.0130217 0.00828777 -7.21923e-05)
(-0.0161186 0.0131408 0.000158521)
(-0.0162793 0.0134834 0.000316221)
(-0.0163486 0.0137499 0.00028644)
(-0.0164145 0.0139615 0.000209836)
(-0.016454 0.0140728 8.46122e-05)
(-0.0164586 0.0140765 -5.3138e-05)
(-0.0164276 0.0139731 -0.000179473)
(-0.0163703 0.0137687 -0.000259078)
(-0.0163064 0.0135123 -0.000295284)
(-0.0161492 0.0131728 -0.000148249)
(-0.0218894 0.0132444 0.000417099)
(-0.0221743 0.0138433 0.000739275)
(-0.0223635 0.0140541 0.000648757)
(-0.0225275 0.0142159 0.000450975)
(-0.0226192 0.0142923 0.000170101)
(-0.0226259 0.0142937 -0.000125888)
(-0.0225477 0.0142211 -0.000407129)
(-0.0223968 0.0140621 -0.000606457)
(-0.0222193 0.0138601 -0.000705668)
(-0.0219431 0.0132613 -0.00040305)
(-0.0126272 0.00105103 3.74866e-05)
(-0.0127871 0.00108263 5.96273e-05)
(-0.0128251 0.00109295 4.9966e-05)
(-0.0128662 0.00109853 4.1246e-05)
(-0.0128882 0.00110226 2.03128e-05)
(-0.0128929 0.00110182 -1.35991e-06)
(-0.01288 0.00109701 -2.09035e-05)
(-0.0128542 0.00108897 -3.27146e-05)
(-0.0128216 0.00107766 -3.92036e-05)
(-0.012702 0.00103823 -1.96729e-05)
(-0.0138382 0.00313611 3.16332e-05)
(-0.0139722 0.00320081 6.10198e-05)
(-0.0140188 0.0032371 6.38931e-05)
(-0.014064 0.00326263 5.14635e-05)
(-0.0140907 0.00327757 2.47029e-05)
(-0.0140954 0.00327735 -5.35754e-06)
(-0.0140775 0.00326169 -3.21828e-05)
(-0.0140433 0.00323365 -4.73556e-05)
(-0.0140016 0.00319791 -4.62004e-05)
(-0.01388 0.00312486 -2.08336e-05)
(-0.0161828 0.00543646 5.10334e-05)
(-0.0163342 0.00554099 0.00010548)
(-0.0164064 0.00561459 0.000107931)
(-0.0164723 0.00567296 8.22603e-05)
(-0.0165115 0.00570463 3.58705e-05)
(-0.0165165 0.005705 -1.61919e-05)
(-0.0164869 0.00567417 -6.31956e-05)
(-0.016431 0.00561577 -9.13084e-05)
(-0.0163654 0.00554406 -9.22005e-05)
(-0.0162212 0.00543741 -4.34191e-05)
(-0.0198438 0.00837692 0.000103551)
(-0.0200637 0.0086135 0.000211508)
(-0.0201785 0.00879617 0.000195083)
(-0.0202803 0.00893844 0.000141366)
(-0.0203394 0.00901254 5.67881e-05)
(-0.0203451 0.0090148 -3.55156e-05)
(-0.0202968 0.00894539 -0.000120925)
(-0.0202055 0.00880799 -0.000176729)
(-0.020099 0.00863191 -0.000197935)
(-0.0198838 0.00839815 -9.73147e-05)
(-0.0257917 0.00863686 0.000271081)
(-0.026182 0.00905072 0.00049364)
(-0.0264372 0.00922945 0.000433371)
(-0.0266519 0.00935562 0.00029821)
(-0.0267703 0.00941475 0.000112037)
(-0.0267784 0.00941563 -8.31281e-05)
(-0.0266762 0.00935886 -0.000269581)
(-0.0264773 0.00923541 -0.00040557)
(-0.0262367 0.00906297 -0.00047238)
(-0.0258554 0.00864951 -0.000262658)
(-0.0141309 0.000432858 1.13494e-05)
(-0.0142782 0.000444424 1.55773e-05)
(-0.0143249 0.000447735 1.00974e-05)
(-0.0143681 0.000449352 8.77159e-06)
(-0.0143939 0.00045037 6.0256e-06)
(-0.0143983 0.000450031 3.98014e-06)
(-0.0143811 0.000448287 1.62951e-06)
(-0.0143478 0.000445445 -7.37739e-07)
(-0.0143067 0.000441324 -5.53561e-06)
(-0.014171 0.000427068 -3.90182e-06)
(-0.0154282 0.00130547 8.9116e-06)
(-0.015568 0.00132898 1.51916e-05)
(-0.0156261 0.00134224 1.45403e-05)
(-0.015679 0.00135135 1.21094e-05)
(-0.0157113 0.00135645 7.46988e-06)
(-0.0157159 0.00135604 2.66074e-06)
(-0.0156927 0.00135003 -2.1394e-06)
(-0.0156488 0.00133935 -5.77879e-06)
(-0.0155966 0.00132542 -7.45674e-06)
(-0.0154623 0.00129831 -3.81627e-06)
(-0.0179618 0.00228694 1.61689e-05)
(-0.0181261 0.00232954 3.2105e-05)
(-0.0182157 0.00236119 3.12685e-05)
(-0.0182963 0.00238539 2.34715e-05)
(-0.0183443 0.00239802 1.13235e-05)
(-0.0183495 0.00239781 -1.77432e-06)
(-0.0183116 0.00238463 -1.4293e-05)
(-0.0182407 0.00235981 -2.32225e-05)
(-0.0181582 0.00232818 -2.58607e-05)
(-0.0179982 0.0022844 -1.26993e-05)
(-0.021865 0.00352938 3.94285e-05)
(-0.0221128 0.00363469 7.92576e-05)
(-0.0222618 0.00371849 6.99596e-05)
(-0.0223917 0.00378116 4.88245e-05)
(-0.0224665 0.00381319 1.99199e-05)
(-0.0224726 0.00381367 -1.05328e-05)
(-0.02241 0.00378298 -3.98086e-05)
(-0.0222915 0.00372163 -6.18093e-05)
(-0.0221519 0.00364015 -7.33878e-05)
(-0.0219085 0.00353587 -3.66872e-05)
(-0.0276345 0.00369496 0.000114938)
(-0.0280649 0.00389101 0.000209191)
(-0.0283591 0.00399325 0.000177501)
(-0.0286047 0.00406046 0.000117781)
(-0.0287399 0.00409123 4.36858e-05)
(-0.0287486 0.00409123 -3.18112e-05)
(-0.0286306 0.0040609 -0.000105929)
(-0.0284019 0.00399472 -0.000165986)
(-0.0281233 0.00389525 -0.000200497)
(-0.0277009 0.00369922 -0.000111557)
(-0.0143381 -0.000216124 -1.26621e-05)
(-0.0144859 -0.000228786 -3.24283e-05)
(-0.0145393 -0.000234156 -3.62459e-05)
(-0.0145862 -0.000238556 -2.76564e-05)
(-0.0146147 -0.000241222 -9.82976e-06)
(-0.0146187 -0.000241588 1.14694e-05)
(-0.0145982 -0.000239734 2.94469e-05)
(-0.0145593 -0.000236199 3.8119e-05)
(-0.0145119 -0.000231658 3.48116e-05)
(-0.0143702 -0.000219805 1.48776e-05)
(-0.0156785 -0.000622364 -1.4998e-05)
(-0.0158253 -0.000646175 -3.82848e-05)
(-0.0158932 -0.000660231 -4.41276e-05)
(-0.0159535 -0.000672527 -3.38068e-05)
(-0.0159901 -0.000679734 -1.22185e-05)
(-0.0159945 -0.000680542 1.33204e-05)
(-0.0159666 -0.000674997 3.49126e-05)
(-0.0159145 -0.00066445 4.52472e-05)
(-0.0158529 -0.000651889 3.96323e-05)
(-0.01571 -0.000629489 1.64078e-05)
(-0.0183024 -0.000999989 -2.31309e-05)
(-0.0184822 -0.00102819 -5.49378e-05)
(-0.0185891 -0.00104867 -6.09161e-05)
(-0.0186835 -0.00106756 -4.64801e-05)
(-0.018739 -0.00107841 -1.73429e-05)
(-0.0187442 -0.00107957 1.65436e-05)
(-0.0186987 -0.00107089 4.56902e-05)
(-0.0186138 -0.00105424 6.02478e-05)
(-0.0185144 -0.0010355 5.46199e-05)
(-0.0183383 -0.00100832 2.3503e-05)
(-0.0223334 -0.00129561 -3.59203e-05)
(-0.0226144 -0.00132888 -7.95413e-05)
(-0.0227969 -0.00135145 -8.36888e-05)
(-0.0229535 -0.00137418 -6.36232e-05)
(-0.023042 -0.00138733 -2.41784e-05)
(-0.0230484 -0.00138852 2.09535e-05)
(-0.0229724 -0.00137789 6.04454e-05)
(-0.0228279 -0.00135741 8.08185e-05)
(-0.0226556 -0.00133675 7.75989e-05)
(-0.0223791 -0.00130436 3.54876e-05)
(-0.0280026 -0.0014021 -4.89041e-05)
(-0.0284806 -0.00142766 -0.000102134)
(-0.0288148 -0.00142654 -0.000107287)
(-0.0290911 -0.00143464 -8.28998e-05)
(-0.0292416 -0.00143968 -3.18312e-05)
(-0.0292502 -0.00144072 2.61545e-05)
(-0.0291174 -0.0014375 7.73281e-05)
(-0.0288582 -0.00143096 0.000102307)
(-0.0285403 -0.00143365 9.83644e-05)
(-0.0280699 -0.00140848 4.76474e-05)
(-0.0132239 -0.000875759 -3.63816e-05)
(-0.013364 -0.00091701 -8.27131e-05)
(-0.0134201 -0.000933352 -8.6452e-05)
(-0.0134683 -0.000945823 -6.6478e-05)
(-0.0134974 -0.000953064 -2.6418e-05)
(-0.0135009 -0.000953584 2.04776e-05)
(-0.0134788 -0.000947381 6.08881e-05)
(-0.0134371 -0.000935962 8.19447e-05)
(-0.0133864 -0.000920724 7.98939e-05)
(-0.0132495 -0.000879753 3.57872e-05)
(-0.0145464 -0.00258731 -4.26852e-05)
(-0.0146972 -0.00266798 -0.000100035)
(-0.0147727 -0.00271587 -0.000110514)
(-0.014838 -0.00275505 -8.47531e-05)
(-0.0148767 -0.00277718 -3.34904e-05)
(-0.0148807 -0.00277853 2.61589e-05)
(-0.0148498 -0.00275915 7.77763e-05)
(-0.0147919 -0.0027227 0.00010461)
(-0.0147223 -0.00267744 9.6061e-05)
(-0.0145742 -0.00259773 4.14959e-05)
(-0.017178 -0.00436925 -7.21626e-05)
(-0.0173786 -0.00448521 -0.000160648)
(-0.0175037 -0.0045715 -0.000168883)
(-0.0176107 -0.00464397 -0.000126734)
(-0.017672 -0.00468347 -4.9384e-05)
(-0.0176767 -0.00468562 3.85666e-05)
(-0.0176251 -0.00465055 0.000116244)
(-0.0175271 -0.00458244 0.000159622)
(-0.0174096 -0.00450039 0.000154178)
(-0.0172123 -0.00438605 6.99489e-05)
(-0.0213036 -0.00616863 -0.000133385)
(-0.0216411 -0.00636461 -0.00027815)
(-0.0218651 -0.00650833 -0.00026954)
(-0.0220501 -0.00662727 -0.00019678)
(-0.0221515 -0.00669001 -7.50802e-05)
(-0.0221576 -0.00669303 5.91382e-05)
(-0.0220687 -0.00663645 0.0001811)
(-0.0218959 -0.00652384 0.00025503)
(-0.0216833 -0.00638664 0.000267812)
(-0.0213506 -0.00619357 0.000129793)
(-0.027089 -0.00688412 -0.000245459)
(-0.0276882 -0.00719974 -0.000471166)
(-0.0280899 -0.0073416 -0.000434024)
(-0.0284103 -0.00745351 -0.000309286)
(-0.0285783 -0.00750667 -0.000115349)
(-0.0285865 -0.00750873 9.23452e-05)
(-0.0284356 -0.0074605 0.000286264)
(-0.0281328 -0.00735321 0.000411727)
(-0.0277494 -0.0072193 0.000454624)
(-0.0271583 -0.00690477 0.000239695)
(-0.0107931 -0.00151298 -5.92939e-05)
(-0.0109083 -0.00158952 -0.000132659)
(-0.0109598 -0.00161992 -0.000136891)
(-0.0110038 -0.00164237 -0.000104876)
(-0.0110304 -0.00165504 -4.24844e-05)
(-0.0110332 -0.00165574 3.01169e-05)
(-0.0110122 -0.0016445 9.31593e-05)
(-0.0109734 -0.00162351 0.000127018)
(-0.0109262 -0.0015947 0.000125877)
(-0.0108131 -0.00151823 5.69488e-05)
(-0.0119983 -0.0045106 -7.7019e-05)
(-0.0121384 -0.00466221 -0.000171384)
(-0.0122141 -0.00475245 -0.000181724)
(-0.0122773 -0.00482443 -0.000137749)
(-0.0123143 -0.00486396 -5.49632e-05)
(-0.0123175 -0.00486593 4.02982e-05)
(-0.0122871 -0.00483046 0.000123702)
(-0.01223 -0.00476258 0.00016955)
(-0.0121596 -0.00467651 0.000162934)
(-0.0120214 -0.0045261 7.39901e-05)
(-0.01448 -0.00775944 -0.000138939)
(-0.0146907 -0.007992 -0.000292711)
(-0.014827 -0.00816305 -0.000291928)
(-0.0149382 -0.00830207 -0.00021482)
(-0.0149998 -0.00837559 -8.33609e-05)
(-0.0150039 -0.00837887 6.34225e-05)
(-0.0149505 -0.00831216 0.000195399)
(-0.0148475 -0.00818029 0.000274367)
(-0.0147188 -0.0080166 0.000280276)
(-0.0145109 -0.00778695 0.00013447)
(-0.01856 -0.0112053 -0.000273163)
(-0.0189623 -0.0116284 -0.000540622)
(-0.0192258 -0.0119252 -0.000493377)
(-0.0194317 -0.0121604 -0.000350439)
(-0.0195395 -0.0122799 -0.000131689)
(-0.0195448 -0.0122845 0.000103755)
(-0.0194485 -0.012175 0.000322473)
(-0.0192543 -0.0119505 0.000466602)
(-0.0190035 -0.0116663 0.00052137)
(-0.0186062 -0.0112489 0.000266444)
(-0.0245569 -0.0131185 -0.000534279)
(-0.0253822 -0.013916 -0.000973346)
(-0.0258807 -0.0142826 -0.000830293)
(-0.0262504 -0.0145539 -0.000570969)
(-0.0264317 -0.0146753 -0.000207736)
(-0.0264389 -0.0146788 0.000168535)
(-0.0262732 -0.0145661 0.000530705)
(-0.0259211 -0.0143043 0.000789081)
(-0.0254457 -0.0139574 0.000941915)
(-0.0246287 -0.0131631 0.000523624)
(-0.00710422 -0.00206572 -7.38788e-05)
(-0.00716824 -0.00216648 -0.000168756)
(-0.0072044 -0.00221032 -0.000178721)
(-0.00723557 -0.00224299 -0.000136832)
(-0.00725454 -0.00226102 -5.57267e-05)
(-0.00725635 -0.00226189 3.86078e-05)
(-0.00724098 -0.00224568 0.000120523)
(-0.0072132 -0.00221491 0.000164803)
(-0.0071799 -0.00217314 0.000159143)
(-0.00711724 -0.00207267 7.04005e-05)
(-0.00803099 -0.00621978 -0.000101693)
(-0.00819471 -0.00642453 -0.000227985)
(-0.00826169 -0.00655906 -0.000244893)
(-0.00831108 -0.0066657 -0.000184367)
(-0.00833933 -0.00672295 -7.34681e-05)
(-0.00834154 -0.0067255 5.32653e-05)
(-0.00831769 -0.00667352 0.000164919)
(-0.00827273 -0.00657249 0.000227803)
(-0.00820993 -0.00644379 0.000215904)
(-0.00804717 -0.00624099 9.71745e-05)
(-0.0100639 -0.0109327 -0.000202485)
(-0.0103373 -0.0112881 -0.000420065)
(-0.0104715 -0.0115591 -0.000412795)
(-0.0105674 -0.0117737 -0.000298859)
(-0.010618 -0.0118839 -0.000114795)
(-0.0106208 -0.0118881 8.76932e-05)
(-0.0105762 -0.0117873 0.000272093)
(-0.0104866 -0.0115826 0.000387951)
(-0.0103596 -0.0113232 0.000402308)
(-0.010088 -0.0109726 0.000196062)
(-0.0137617 -0.0162402 -0.000437173)
(-0.0143315 -0.0169708 -0.000838677)
(-0.0146201 -0.0174654 -0.000736299)
(-0.0148151 -0.0178402 -0.000509667)
(-0.0149088 -0.0180218 -0.000187824)
(-0.0149127 -0.0180279 0.000149909)
(-0.0148272 -0.0178597 0.000470915)
(-0.0146426 -0.0175005 0.00069741)
(-0.0143684 -0.0170275 0.000809681)
(-0.0138026 -0.0163058 0.000427175)
(-0.0201084 -0.0205817 -0.000945576)
(-0.0215039 -0.0222066 -0.00165064)
(-0.0221217 -0.0229533 -0.00129797)
(-0.0225036 -0.0234846 -0.000857414)
(-0.0226666 -0.0237077 -0.000302689)
(-0.0226712 -0.0237129 0.000250011)
(-0.02252 -0.0235042 0.000801417)
(-0.0221544 -0.02299 0.0012351)
(-0.0215712 -0.022285 0.00160154)
(-0.020183 -0.0206693 0.000929947)
(-0.00256024 -0.00242376 -7.47386e-05)
(-0.00257073 -0.00246964 -0.000174988)
(-0.00258311 -0.0025171 -0.000199713)
(-0.00259448 -0.00255606 -0.000153384)
(-0.00260156 -0.00257733 -6.26813e-05)
(-0.00260225 -0.00257829 4.32023e-05)
(-0.00259655 -0.00255896 0.000134808)
(-0.00258647 -0.00252212 0.000183815)
(-0.00257516 -0.00247682 0.000163819)
(-0.00256531 -0.00243191 7.0513e-05)
(-0.00293835 -0.00739057 -0.000113558)
(-0.00303242 -0.00758297 -0.000253258)
(-0.0030626 -0.00775212 -0.000284106)
(-0.00308247 -0.00788553 -0.000212302)
(-0.00309373 -0.00795521 -8.43233e-05)
(-0.00309461 -0.007958 6.13487e-05)
(-0.00308508 -0.00789436 0.000190003)
(-0.00306708 -0.00776747 0.000264238)
(-0.00303881 -0.00760579 0.000238962)
(-0.00294485 -0.00741675 0.000108128)
(-0.00383076 -0.0134241 -0.000261451)
(-0.00399591 -0.0139684 -0.000519511)
(-0.00406223 -0.0143516 -0.000504948)
(-0.00410444 -0.0146334 -0.000357433)
(-0.0041258 -0.0147712 -0.000135381)
(-0.00412688 -0.014776 0.000104442)
(-0.00410797 -0.0146489 0.000326399)
(-0.00406844 -0.0143798 0.000475004)
(-0.00400586 -0.0140137 0.00049733)
(-0.00384125 -0.0134763 0.000253556)
(-0.00562909 -0.0211993 -0.000655426)
(-0.00598539 -0.0226046 -0.00116494)
(-0.00614228 -0.0233787 -0.000956629)
(-0.00623549 -0.0238968 -0.000634208)
(-0.00627717 -0.024127 -0.000227566)
(-0.00627876 -0.0241333 0.000184237)
(-0.00624027 -0.0239189 0.000588319)
(-0.00615219 -0.0234213 0.000906352)
(-0.00600346 -0.022687 0.00112637)
(-0.00564873 -0.0212936 0.000642962)
(-0.00925891 -0.0315291 -0.00171795)
(-0.0102777 -0.0355535 -0.00272323)
(-0.0106685 -0.0370539 -0.00181789)
(-0.0108727 -0.0379264 -0.00111118)
(-0.0109489 -0.0382382 -0.000372743)
(-0.0109503 -0.0382436 0.000313408)
(-0.0108791 -0.0379493 0.00104352)
(-0.0106835 -0.0371074 0.00172577)
(-0.0103177 -0.035708 0.00264839)
(-0.00930195 -0.0317044 0.00169828)
(-0.0177479 -0.0508102 -0.00477356)
(-0.0209575 -0.0594875 -0.00683784)
(-0.0219861 -0.0621307 -0.00337759)
(-0.0224554 -0.0634584 -0.00183019)
(-0.0225919 -0.0638688 -0.000546944)
(-0.0225935 -0.0638746 0.000475117)
(-0.0224632 -0.0634852 0.00173544)
(-0.0220147 -0.0622018 0.00319197)
(-0.0210614 -0.0597652 0.00667718)
(-0.0178652 -0.0511143 0.00474214)
(-0.0312911 -0.0619064 -0.0108487)
(-0.0374107 -0.0934088 -0.0143845)
(-0.0393392 -0.098629 -0.00576623)
(-0.0401173 -0.099426 -0.00280006)
(-0.0402551 -0.0992398 -0.000764878)
(-0.0402523 -0.0992178 0.000676658)
(-0.0401177 -0.0993736 0.0026704)
(-0.0393694 -0.0986191 0.0054315)
(-0.0375705 -0.0940209 0.0140779)
(-0.031487 -0.0625907 0.0108046)
(-0.0527048 -0.131891 -0.0284969)
(-0.0527203 -0.192429 -0.0304617)
(-0.0567659 -0.201579 -0.00812758)
(-0.0595359 -0.199788 -0.00262198)
(-0.0601908 -0.198945 -0.000466016)
(-0.0601969 -0.19891 0.000441934)
(-0.0595797 -0.199664 0.00251426)
(-0.0568957 -0.201497 0.00758555)
(-0.0528089 -0.193468 0.0298478)
(-0.0530062 -0.133063 0.0283472)
(-0.0168959 -0.0819582 -0.0328553)
(0.0393804 -0.219193 -0.0239904)
(0.0370704 -0.22278 -0.00748964)
(0.032687 -0.211573 -0.00156622)
(0.0312807 -0.207739 -0.000351156)
(0.0312536 -0.207643 0.00033277)
(0.0325518 -0.211183 0.00148653)
(0.0368605 -0.222299 0.00718818)
(0.0399219 -0.220543 0.0235109)
(-0.0161075 -0.0840359 0.0325021)
(0.226385 -0.355345 0.0302409)
(0.30624 -0.543335 0.0313609)
(0.318516 -0.5589 0.00863547)
(0.318963 -0.553574 0.00292974)
(0.318636 -0.551291 0.000522313)
(0.318604 -0.551221 -0.00049611)
(0.318865 -0.55333 -0.00281127)
(0.318528 -0.558757 -0.00804803)
(0.307427 -0.544997 -0.0307312)
(0.228116 -0.358677 -0.0299829)
(-0.0317402 -0.0317955 -0.0020236)
(-0.0355536 -0.0343847 -0.00324202)
(-0.03691 -0.0357585 -0.00203945)
(-0.0376803 -0.036774 -0.00126275)
(-0.0379574 -0.0372013 -0.000414644)
(-0.037963 -0.0372127 0.000352159)
(-0.0377028 -0.0368139 0.00119237)
(-0.0369629 -0.0358307 0.00193998)
(-0.0356965 -0.0345254 0.00316077)
(-0.0319039 -0.031967 0.00200418)
(-0.0492809 -0.0139166 -0.00407018)
(-0.0566357 -0.0185718 -0.00613635)
(-0.0589093 -0.0191261 -0.00377357)
(-0.0600812 -0.0195446 -0.00230199)
(-0.0604329 -0.0195556 -0.000737686)
(-0.0604362 -0.0195506 0.000634669)
(-0.0601011 -0.0195424 0.00218513)
(-0.0589676 -0.0191198 0.00360422)
(-0.056856 -0.0186481 0.00598687)
(-0.0495266 -0.0139915 0.00402749)
(-0.0712162 -0.035144 -0.00469575)
(-0.0931614 -0.0458 -0.00654862)
(-0.097585 -0.0484523 -0.00240527)
(-0.0993311 -0.050201 -0.00138533)
(-0.0996224 -0.0507702 -0.000337865)
(-0.099619 -0.0507868 0.000292686)
(-0.0993347 -0.0502609 0.00133052)
(-0.09766 -0.0485634 0.00226353)
(-0.0936235 -0.0460709 0.0064027)
(-0.0718146 -0.035502 0.00467138)
(-0.141894 0.0390988 -0.0129746)
(-0.158411 0.0301679 -0.0119267)
(-0.169333 0.0326592 -0.00594026)
(-0.174243 0.0371942 -0.00377468)
(-0.175606 0.0386478 -0.00116153)
(-0.175607 0.0386804 0.000990133)
(-0.174288 0.0373307 0.00360057)
(-0.169469 0.032865 0.00575975)
(-0.158816 0.0302439 0.0116996)
(-0.142695 0.0392712 0.0128459)
(0.22412 -0.000740311 0.018863)
(0.338508 -0.0799831 0.0211405)
(0.3512 -0.0802735 0.00675206)
(0.352005 -0.0759063 0.00237191)
(0.35172 -0.0742442 0.000439186)
(0.351693 -0.0742361 -0.000409438)
(0.351938 -0.0758864 -0.00226748)
(0.351283 -0.0803897 -0.00638916)
(0.339763 -0.0805171 -0.0207556)
(0.226395 -0.00191139 -0.0187461)
(-0.032187 -0.0205846 -0.000957517)
(-0.0340639 -0.0217452 -0.0016217)
(-0.0349424 -0.0224627 -0.00113626)
(-0.0355624 -0.0230328 -0.000742726)
(-0.0358361 -0.0232979 -0.000256125)
(-0.0358445 -0.0233071 0.00021251)
(-0.0355914 -0.0230629 0.000696591)
(-0.0349956 -0.022515 0.00107995)
(-0.0341649 -0.0218313 0.00157797)
(-0.0322994 -0.0206912 0.000946399)
(-0.0460624 -0.00624837 -0.00198333)
(-0.0492077 -0.00777698 -0.00309701)
(-0.0508076 -0.00775552 -0.00219728)
(-0.0519502 -0.00775139 -0.00143009)
(-0.0524374 -0.00768225 -0.000488478)
(-0.0524501 -0.00767741 0.000409232)
(-0.0519951 -0.00774261 0.00134539)
(-0.0508904 -0.00773888 0.00209636)
(-0.0493682 -0.00778209 0.00301129)
(-0.046251 -0.00624262 0.00195499)
(-0.0409311 -0.0242207 -0.00155867)
(-0.0459116 -0.0269439 -0.00221851)
(-0.0469961 -0.027577 -0.000898608)
(-0.0478965 -0.0283374 -0.00057034)
(-0.0481597 -0.0286146 -0.000152449)
(-0.0481643 -0.0286293 0.000127642)
(-0.0479236 -0.0283867 0.000542641)
(-0.0470424 -0.0276583 0.000839493)
(-0.0460536 -0.0270716 0.00216306)
(-0.0410833 -0.0244106 0.00154942)
(-0.0633239 0.0270682 -0.00601062)
(-0.064169 0.0350328 -0.00716716)
(-0.0679343 0.0382291 -0.0037589)
(-0.0708981 0.0403443 -0.00251246)
(-0.0719766 0.0409443 -0.000799313)
(-0.0719997 0.0409566 0.000653858)
(-0.0709863 0.0404027 0.00235925)
(-0.0680775 0.0383536 0.00358456)
(-0.0643311 0.0353034 0.00698568)
(-0.0635878 0.0274446 0.00592829)
(0.212875 0.0249507 0.00735284)
(0.308328 0.0163675 0.00741728)
(0.317509 0.0202388 0.00220035)
(0.318171 0.0218801 0.000707952)
(0.31806 0.0223462 9.1283e-05)
(0.31805 0.0223292 -8.27727e-05)
(0.318159 0.0218219 -0.000669215)
(0.317669 0.0200961 -0.00208394)
(0.309486 0.0162403 -0.00729432)
(0.214857 0.0247858 -0.00730783)
(-0.0329697 -0.0108342 -0.000370779)
(-0.0341038 -0.0112874 -0.00067555)
(-0.0346945 -0.0116099 -0.000523324)
(-0.0351392 -0.0118844 -0.000361783)
(-0.0353548 -0.0120206 -0.000130145)
(-0.0353633 -0.0120268 0.000105226)
(-0.035167 -0.0119035 0.000336572)
(-0.0347423 -0.0116423 0.00049619)
(-0.0341813 -0.0113356 0.000655026)
(-0.0330545 -0.0108944 0.000365047)
(-0.04609 -0.00269535 -0.000823066)
(-0.0479531 -0.0030938 -0.00135231)
(-0.0491166 -0.00297331 -0.00106903)
(-0.0500051 -0.00291211 -0.000733075)
(-0.0504307 -0.00286365 -0.000261728)
(-0.0504461 -0.0028611 0.000212856)
(-0.0500547 -0.00290629 0.000682926)
(-0.0492033 -0.00296133 0.0010159)
(-0.0480915 -0.00308469 0.00130809)
(-0.0462524 -0.00267884 0.000806929)
(-0.0381898 -0.0129593 -0.000347521)
(-0.0403899 -0.0145476 -0.000546285)
(-0.0409731 -0.0150408 -0.000267959)
(-0.0414183 -0.0155463 -0.000225949)
(-0.0415723 -0.0157541 -7.16162e-05)
(-0.0415761 -0.0157658 5.66177e-05)
(-0.041437 -0.0155848 0.000212326)
(-0.0410041 -0.0151053 0.000248208)
(-0.0404676 -0.0146429 0.000527565)
(-0.038266 -0.0130949 0.000343147)
(-0.0575142 0.00767598 -0.00279285)
(-0.0529924 0.0108035 -0.00381247)
(-0.0542925 0.0118474 -0.00215247)
(-0.05585 0.0124804 -0.00148077)
(-0.0564924 0.012643 -0.000493644)
(-0.0565152 0.0126489 0.000392077)
(-0.0559269 0.0125057 0.00137481)
(-0.0544111 0.0119021 0.002039)
(-0.0530951 0.0109216 0.00369789)
(-0.0576391 0.00781896 0.00273753)
(0.199485 0.00577783 0.00181402)
(0.294111 -0.000698304 0.00155599)
(0.302783 -3.81142e-05 0.0002973)
(0.303798 7.18392e-05 -3.83955e-06)
(0.303893 8.35707e-05 -4.54301e-05)
(0.303892 7.36493e-05 4.69924e-05)
(0.303816 3.04852e-05 1.64075e-05)
(0.302981 -0.000133862 -0.000267963)
(0.295254 -0.000825306 -0.00152974)
(0.20149 0.0055526 -0.00180282)
(-0.0328932 -0.00184703 -4.06535e-05)
(-0.0336857 -0.00178753 -8.67191e-05)
(-0.0341094 -0.00177376 -9.06392e-05)
(-0.0344428 -0.00179606 -7.68644e-05)
(-0.0346142 -0.00181317 -3.02388e-05)
(-0.0346226 -0.0018155 2.31592e-05)
(-0.0344691 -0.00180283 7.03135e-05)
(-0.0341532 -0.00178394 8.45372e-05)
(-0.0337505 -0.00179952 8.20786e-05)
(-0.0329637 -0.00186405 3.9156e-05)
(-0.0464449 -0.000226144 -1.96046e-05)
(-0.0479973 -6.88917e-05 -5.67899e-05)
(-0.0490384 7.98347e-05 -0.000129665)
(-0.0498354 0.000150233 -0.000128824)
(-0.0502317 0.000180912 -5.34337e-05)
(-0.0502481 0.000181843 3.83203e-05)
(-0.0498876 0.000152663 0.000114956)
(-0.0491286 8.55873e-05 0.000118752)
(-0.0481343 -5.80224e-05 4.58128e-05)
(-0.0466059 -0.000213612 1.36106e-05)
(-0.0376303 -0.00400352 0.000229647)
(-0.0389376 -0.00336678 0.000323617)
(-0.0393528 -0.00326797 0.000145281)
(-0.0396932 -0.00338395 2.922e-05)
(-0.039832 -0.00347239 2.79807e-06)
(-0.0398368 -0.00348106 -6.14887e-06)
(-0.0397135 -0.00340936 -3.04447e-05)
(-0.0393852 -0.00330729 -0.000142115)
(-0.0389956 -0.00339907 -0.000322943)
(-0.0376886 -0.00406945 -0.000231805)
(-0.0555827 0.000311742 0.000419627)
(-0.0529283 0.00085123 0.000457077)
(-0.0546929 0.000982219 -0.000216734)
(-0.0562038 0.00101242 -0.000365599)
(-0.0568008 0.000998822 -0.000159498)
(-0.0568245 0.00100017 0.000109434)
(-0.0562763 0.00101718 0.000319423)
(-0.0548112 0.000996321 0.000195867)
(-0.0530825 0.000878891 -0.000494481)
(-0.0557269 0.00034137 -0.000456718)
(0.196946 -0.00625921 -0.000202321)
(0.290936 -0.00667606 -0.000479457)
(0.299436 -0.00696939 -0.00035941)
(0.300535 -0.00757568 -0.000275178)
(0.300706 -0.00782592 -9.19571e-05)
(0.30071 -0.00783408 8.75978e-05)
(0.300565 -0.00762009 0.000274021)
(0.299645 -0.00705348 0.000356446)
(0.29209 -0.0067605 0.000478409)
(0.198969 -0.00648563 0.000214499)
(-0.0319008 0.00751403 0.000191414)
(-0.0325875 0.00813528 0.000345338)
(-0.0329135 0.00851113 0.000238352)
(-0.0331773 0.00875042 0.000146883)
(-0.033316 0.00885656 5.07453e-05)
(-0.0333241 0.00885821 -4.08732e-05)
(-0.0332016 0.00875697 -0.000136397)
(-0.0329535 0.00852499 -0.00022664)
(-0.0326447 0.00816371 -0.000337136)
(-0.0319633 0.00754625 -0.000188955)
(-0.0478741 0.00236089 0.000790388)
(-0.0495444 0.00298874 0.00124058)
(-0.0505939 0.00318009 0.000793245)
(-0.0513927 0.00327091 0.000457443)
(-0.0517878 0.00329414 0.00014927)
(-0.0518049 0.00329327 -0.00012954)
(-0.051448 0.00327178 -0.000433693)
(-0.0506891 0.0031835 -0.000760051)
(-0.0496904 0.00300001 -0.00121495)
(-0.0480525 0.00236993 -0.000784558)
(-0.0372516 0.00601043 0.000685789)
(-0.0385257 0.0103948 0.00102193)
(-0.038846 0.0114728 0.000499667)
(-0.039136 0.0118584 0.000256385)
(-0.0392603 0.011906 7.20019e-05)
(-0.0392671 0.011902 -6.21273e-05)
(-0.039157 0.0118465 -0.000241871)
(-0.0388784 0.0114655 -0.000478901)
(-0.0385798 0.0104672 -0.001008)
(-0.0373122 0.0060488 -0.000684684)
(-0.0599304 -0.00294523 0.00482928)
(-0.061619 -0.0033303 0.00626917)
(-0.0636868 -0.00360143 0.00207072)
(-0.0651507 -0.00391129 0.000779695)
(-0.065687 -0.00403651 0.00016204)
(-0.0657069 -0.00403942 -0.000160942)
(-0.0652166 -0.00392112 -0.000763815)
(-0.0638093 -0.00361079 -0.00196084)
(-0.0618398 -0.003345 -0.00620165)
(-0.0601576 -0.00297179 -0.00485053)
(0.203446 -0.0203324 -0.00232149)
(0.298293 -0.00836198 -0.00277697)
(0.307556 -0.00855491 -0.00122807)
(0.309265 -0.0101517 -0.000661817)
(0.309683 -0.0108224 -0.000178966)
(0.309691 -0.0108418 0.000165822)
(0.30932 -0.0102319 0.000647111)
(0.307814 -0.00866483 0.00118062)
(0.299521 -0.00831607 0.0027369)
(0.205629 -0.0205494 0.00234162)
(-0.0293833 0.0183774 0.000392301)
(-0.0300117 0.0196968 0.000709815)
(-0.0302355 0.020469 0.000496448)
(-0.0304312 0.0209999 0.000326775)
(-0.0305354 0.0212422 0.000116879)
(-0.0305425 0.0212484 -9.1439e-05)