/*--------------------------------*- C++ -*----------------------------------*\
| =========                 |                                                 |
| \\      /  F ield         | OpenFOAM: The Open Source CFD Toolbox           |
|  \\    /   O peration     | Version:  2.3.1                                 |
|   \\  /    A nd           | Web:      www.OpenFOAM.org                      |
|    \\/     M anipulation  |                                                 |
\*---------------------------------------------------------------------------*/
FoamFile
{
    version     2.0;
    format      ascii;
    class       volScalarField;
    location    "0.34";
    object      epsilon;
}
// * * * * * * * * * * * * * * * * * * * * * * * * * * * * * * * * * * * * * //

dimensions      [0 2 -3 0 0 0 0];

internalField   nonuniform List<scalar> 
15166
(
1077.12
1002.66
999.02
1062.43
1104.78
1133.57
1104.34
1021.23
920.513
803.932
686.949
587.983
1077.71
881.643
929.967
999.935
1044.16
1067.32
1035.34
958.043
862.453
754.921
647.568
549.529
1089.79
787.08
863.613
938.912
985.497
1004.99
972.641
900.665
810.743
711.106
611.356
516.597
1105.67
716.013
804.416
882.215
930.071
946.929
915.454
848.483
764.277
671.561
577.927
485.554
1122.98
662.546
752.818
830.867
878.79
893.496
863.381
801.038
722.283
635.701
547.383
458.747
1141.74
621.44
707.585
784.454
831.607
844.521
815.927
757.821
684.162
603.011
519.358
433.988
1162.09
589.286
667.646
742.347
788.17
799.584
772.56
718.356
649.38
573.06
493.427
410.332
1183.64
563.913
632.26
704.048
748.152
758.304
732.824
682.195
617.509
545.526
469.572
389.567
1206.2
543.823
600.844
669.16
711.268
720.331
696.323
648.954
588.201
520.146
447.591
370.588
1229.44
527.904
572.874
637.307
677.245
685.344
662.717
618.331
561.16
496.688
427.365
353.749
1253.12
515.327
547.903
608.151
645.817
653.052
631.701
590.035
536.147
474.966
408.702
338.26
1277.14
505.45
525.541
581.401
616.745
623.19
603.009
563.824
512.942
454.818
391.593
325.001
1301.32
497.783
505.466
556.793
589.802
595.516
576.406
539.483
491.368
436.1
375.851
313.102
1325.53
491.934
487.401
534.109
564.794
569.824
551.684
516.836
471.26
418.651
361.096
300.512
1349.63
487.591
471.106
513.157
541.544
545.922
528.668
495.71
452.491
402.385
347.452
290.012
1373.6
484.502
456.378
493.765
519.894
523.652
507.201
475.981
434.93
387.168
334.749
280.148
1397.26
482.46
443.038
475.787
499.702
502.863
487.138
457.508
418.472
372.92
322.867
270.72
1420.66
481.296
430.937
459.094
480.843
483.421
468.353
440.195
403.032
359.553
311.726
261.872
1443.68
480.862
419.939
443.568
463.201
465.213
450.742
423.929
388.515
346.989
301.284
253.732
1466.2
481.047
409.931
429.107
446.677
448.135
434.199
408.633
374.845
335.167
291.469
246.049
1488.18
481.742
400.808
415.621
431.179
432.09
418.64
394.225
361.959
324.012
282.192
238.564
1509.66
482.872
392.481
403.027
416.624
416.998
403.986
380.636
349.788
313.473
273.399
231.408
1530.67
484.35
384.869
391.253
402.94
402.784
390.164
367.8
338.283
303.497
265.022
224.298
1550.92
486.136
377.906
380.233
390.061
389.378
377.111
355.66
327.391
294.044
257.054
217.643
1570.63
488.18
371.529
369.911
377.926
376.722
364.773
344.171
317.067
285.064
249.457
211.234
1589.61
490.41
365.683
360.231
366.481
364.762
353.095
333.28
307.271
276.531
242.224
205.254
1607.92
492.806
360.317
351.144
355.676
353.446
342.03
322.948
297.963
268.409
235.336
199.548
1625.6
495.329
355.387
342.607
345.466
342.729
331.533
313.135
289.111
260.675
228.773
194.227
1642.54
497.965
350.859
334.581
335.81
332.569
321.571
303.803
280.684
253.303
222.533
189.251
1658.83
500.711
346.692
327.028
326.67
322.93
312.103
294.927
272.654
246.274
216.568
184.329
1674.44
503.489
342.855
319.913
318.012
313.775
303.098
286.471
264.997
239.56
210.882
179.751
1689.18
506.332
339.319
313.208
309.804
305.076
294.525
278.413
257.688
233.147
205.436
175.256
1703.08
509.215
336.065
306.884
302.018
296.802
286.361
270.724
250.707
227.014
200.236
171.096
1716.52
512.096
333.061
300.917
294.627
288.927
278.577
263.385
244.034
221.148
195.257
167.01
1729.02
514.979
330.298
295.281
287.606
281.426
271.15
256.373
237.654
215.532
190.494
163.2
1740.71
517.872
327.748
289.957
280.933
274.277
264.059
249.67
231.546
210.152
185.924
159.414
1751.89
520.75
325.402
284.921
274.586
267.459
257.285
243.258
225.695
204.991
181.535
155.828
1762.15
523.61
323.24
280.158
268.546
260.951
250.808
237.118
220.086
200.041
177.332
152.513
1771.77
526.452
321.25
275.648
262.795
254.738
244.613
231.236
214.708
195.294
173.298
149.246
1780.72
529.262
319.417
271.378
257.316
248.801
238.684
225.602
209.549
190.736
169.441
146.253
1788.7
532.07
317.728
267.335
252.097
243.129
233.007
220.197
204.596
186.354
165.71
143.064
1796.04
534.981
316.185
263.504
247.121
237.703
227.569
215.012
199.838
182.14
162.093
139.851
1802.48
537.898
314.768
259.873
242.376
232.513
222.355
210.034
195.265
178.084
158.614
137.015
1808.31
540.879
313.504
256.436
237.849
227.545
217.355
205.254
190.868
174.179
155.256
134.167
1813.44
543.776
312.408
253.185
233.528
222.787
212.558
200.662
186.638
170.417
152.025
131.576
1817.74
546.496
311.453
250.121
229.402
218.228
207.953
196.246
182.566
166.792
148.901
128.883
1821.3
549.268
310.618
247.241
225.467
213.861
203.531
192
178.646
163.296
145.897
126.514
1824.31
551.864
309.894
244.518
221.711
209.678
199.283
187.913
174.868
159.925
142.995
124.073
1826.56
554.375
309.239
241.954
218.13
205.668
195.199
183.979
171.224
156.67
140.198
121.854
1828.08
556.812
308.701
239.535
214.715
201.824
191.273
180.188
167.71
153.527
137.487
119.553
1828.89
559.088
308.242
237.252
211.457
198.136
187.497
176.536
164.318
150.49
134.875
117.489
1829.08
561.411
307.86
235.106
208.351
194.6
183.866
173.017
161.046
147.556
132.353
115.482
1828.62
563.548
307.546
233.076
205.387
191.21
180.373
169.625
157.887
144.721
129.904
113.345
1827.42
565.638
307.298
231.17
202.563
187.956
177.012
166.355
154.836
141.98
127.538
111.427
1825.72
567.652
307.11
229.377
199.869
184.837
173.777
163.201
151.889
139.329
125.251
109.593
1823.44
569.587
306.98
227.688
197.3
181.845
170.665
160.159
149.042
136.766
123.048
107.902
1820.4
571.331
306.9
226.102
194.851
178.975
167.668
157.224
146.292
134.286
120.915
106.164
1816.82
573.129
306.875
224.62
192.519
176.222
164.786
154.394
143.634
131.89
118.857
104.563
1812.73
574.731
306.899
223.232
190.298
173.584
162.01
151.662
141.066
129.572
116.848
102.724
1807.85
576.271
306.944
221.923
188.179
171.053
159.339
149.028
138.585
127.328
114.901
101.111
1802.53
577.666
307.06
220.708
186.164
168.626
156.767
146.484
136.185
125.156
113.021
99.644
1796.69
579.082
307.216
219.576
184.249
166.301
154.292
144.03
133.866
123.053
111.209
98.2652
1790.26
580.316
307.41
218.523
182.424
164.072
151.91
141.663
131.625
121.021
109.453
96.8344
1783.19
581.496
307.617
217.555
180.695
161.938
149.619
139.378
129.457
119.052
107.756
95.4925
1775.61
582.526
307.891
216.653
179.054
159.895
147.416
137.175
127.363
117.147
106.107
94.0976
1767.39
583.52
308.175
215.824
177.501
157.94
145.297
135.048
125.337
115.304
104.509
92.8033
1759.03
584.477
308.5
215.074
176.028
156.071
143.259
132.998
123.381
113.518
102.955
91.4664
1749.45
585.265
308.848
214.386
174.636
154.284
141.3
131.02
121.488
111.79
101.451
90.2573
1739.86
585.997
309.241
213.764
173.326
152.578
139.418
129.114
119.661
110.117
99.993
89.0508
1729.94
586.616
309.662
213.209
172.086
150.947
137.611
127.275
117.895
108.499
98.5838
87.9348
1719.12
587.227
310.101
212.725
170.924
149.392
135.875
125.504
116.189
106.933
97.2159
86.7773
1707.9
587.54
310.577
212.294
169.832
147.912
134.209
123.797
114.541
105.417
95.89
85.7195
1696.17
588.004
311.046
211.91
168.807
146.503
132.614
122.154
112.949
103.952
94.6107
84.6904
1684
588.232
311.622
211.617
167.865
145.169
131.087
120.574
111.414
102.535
93.3699
83.6549
1671.33
588.371
312.149
211.365
166.978
143.899
129.623
119.053
109.931
101.163
92.1666
82.6754
1658.63
588.583
312.733
211.18
166.165
142.697
128.224
117.591
108.501
99.8374
90.9987
81.6491
1645.01
588.566
313.327
211.047
165.421
141.563
126.889
116.187
107.124
98.5558
89.865
80.6996
1630.63
588.343
313.933
210.977
164.738
140.496
125.615
114.838
105.796
97.3186
88.7668
79.74
1616.23
588.237
314.593
210.96
164.122
139.49
124.401
113.546
104.519
96.1237
87.7039
78.8541
1601.63
587.964
315.263
211.006
163.566
138.548
123.247
112.308
103.29
94.9716
86.6722
77.9264
1586.1
587.581
315.979
211.104
163.077
137.669
122.152
111.123
102.107
93.8586
85.6748
77.0874
1570.34
587.123
316.676
211.264
162.654
136.855
121.112
109.991
100.97
92.7843
84.7115
76.3101
1554.17
586.54
317.387
211.471
162.288
136.097
120.133
108.911
99.882
91.7511
83.7845
75.527
1537.54
585.874
318.146
211.731
161.989
135.403
119.211
107.885
98.8393
90.7588
82.8873
74.7124
1520.52
585.14
318.923
212.05
161.755
134.77
118.344
106.909
97.841
89.8032
82.022
73.9793
1503.48
584.328
319.729
212.448
161.578
134.197
117.534
105.98
96.8873
88.8875
81.1872
73.2206
1485.63
583.369
320.55
212.892
161.468
133.689
116.779
105.104
95.9765
88.007
80.3825
72.56
1467.44
582.309
321.385
213.382
161.431
133.241
116.083
104.278
95.1098
87.1663
79.6114
71.8605
1448.85
581.146
322.242
213.937
161.45
132.856
115.444
103.503
94.288
86.3631
78.8696
71.1901
1429.87
579.898
323.155
214.567
161.541
132.535
114.859
102.778
93.511
85.5971
78.1515
70.4692
1410.53
578.528
324.036
215.233
161.69
132.269
114.33
102.101
92.775
84.8659
77.47
69.9656
1390.81
577.039
324.933
215.978
161.915
132.074
113.858
101.475
92.086
84.1781
76.8307
69.4093
1371.14
575.558
325.888
216.781
162.206
131.942
113.445
100.902
91.4409
83.5252
76.2215
68.9138
1350.39
573.796
326.845
217.642
162.567
131.881
113.092
100.38
90.8403
82.9116
75.6455
68.4081
1330.04
572.059
327.811
218.565
163.006
131.878
112.799
99.9111
90.2838
82.3363
75.1028
67.949
1309
570.128
328.777
219.544
163.505
131.95
112.566
99.4938
89.7743
81.8025
74.5927
67.4592
1287.64
568.176
329.8
220.609
164.089
132.091
112.396
99.1319
89.3112
81.306
74.1128
67.0473
1265.93
565.986
330.819
221.734
164.749
132.309
112.291
98.8229
88.8951
80.8497
73.667
66.6214
1244.28
563.862
331.85
222.923
165.495
132.594
112.25
98.5717
88.5264
80.4348
73.2561
66.2582
1221.98
561.449
332.913
224.198
166.321
132.967
112.278
98.3813
88.2098
80.0633
72.8795
65.8626
1199.37
558.971
333.973
225.533
167.226
133.41
112.376
98.2488
87.9418
79.7331
72.5353
65.5531
1176.45
556.354
335.031
226.956
168.227
133.939
112.545
98.1756
87.7257
79.4459
72.2328
65.2937
1153.28
553.574
336.126
228.443
169.313
134.553
112.792
98.1704
87.5666
79.209
71.972
65.0202
1129.84
550.711
337.209
229.997
170.499
135.26
113.115
98.2304
87.4645
79.0192
71.7494
64.7782
1106.46
547.771
338.328
231.643
171.777
136.063
113.518
98.3607
87.4195
78.8768
71.5676
64.6221
1082.53
544.63
339.433
233.382
173.164
136.96
114.009
98.562
87.4349
78.789
71.434
64.468
1058.65
541.406
340.568
235.19
174.65
137.955
114.591
98.8412
87.5145
78.7507
71.3403
64.3904
1034.26
537.952
341.675
237.072
176.25
139.061
115.267
99.2021
87.6634
78.7724
71.3002
64.3458
1009.29
534.312
342.803
239.076
177.962
140.284
116.044
99.6461
87.8825
78.8544
71.3086
64.3146
984.668
530.68
343.96
241.136
179.799
141.622
116.928
100.178
88.1767
78.9968
71.3667
64.3404
959.61
526.833
345.094
243.324
181.771
143.091
117.923
100.811
88.553
79.2078
71.4817
64.3811
934.311
522.789
346.237
245.594
183.866
144.688
119.038
101.544
89.0141
79.4925
71.6617
64.5228
909.13
518.668
347.358
247.968
186.107
146.439
120.279
102.387
89.5697
79.858
71.917
64.716
883.528
514.324
348.482
250.43
188.497
148.334
121.662
103.344
90.221
80.3001
72.224
64.8661
857.73
509.778
349.64
253.032
191.046
150.39
123.185
104.428
90.9739
80.8239
72.5971
65.1398
831.803
505.116
350.726
255.718
193.745
152.608
124.863
105.641
91.8363
81.442
73.0551
65.4696
805.72
500.259
351.844
258.528
196.62
155.021
126.705
107
92.8213
82.162
73.5916
65.8938
779.775
495.289
352.934
261.439
199.681
157.621
128.738
108.519
93.9444
82.9956
74.2296
66.3966
753.761
490.081
354.037
264.505
202.942
160.435
130.962
110.208
95.2113
83.956
74.9792
67.0317
727.207
484.607
355.076
267.676
206.409
163.479
133.409
112.091
96.6366
85.0499
75.8453
67.7362
700.722
479.02
356.108
271.005
210.086
166.766
136.081
114.176
98.2357
86.2796
76.8065
68.4377
674.437
473.253
357.128
274.457
214.014
170.321
139.007
116.48
100.024
87.6682
77.904
69.3412
648.173
467.261
358.123
278.063
218.194
174.165
142.215
119.04
102.028
89.2435
79.1706
70.379
621.486
461.032
359.083
281.85
222.642
178.325
145.739
121.874
104.267
91.013
80.5832
71.5529
595.095
454.639
360.036
285.796
227.403
182.838
149.6
125.02
106.771
93.0017
82.187
72.8576
568.816
448.023
360.974
289.943
232.488
187.739
153.846
128.509
109.572
95.2359
83.9859
74.3561
542.22
441.195
361.908
294.331
237.968
193.083
158.536
132.401
112.716
97.7599
86.0341
76.0638
515.927
434.186
362.885
298.977
243.878
198.932
163.717
136.744
116.251
100.615
88.3535
77.963
489.62
427.015
363.943
303.977
250.304
205.361
169.477
141.603
120.226
103.833
90.9713
80.0954
463.465
419.719
365.186
309.424
257.347
212.485
175.894
147.051
124.705
107.461
93.9163
82.5291
437.262
412.428
366.776
315.513
265.19
220.425
183.098
153.189
129.764
111.569
97.2666
85.2873
411.143
405.44
369.117
322.576
274.085
229.387
191.226
160.13
135.483
116.213
101.042
88.4139
384.87
399.558
372.941
331.155
284.358
239.576
200.411
167.967
141.957
121.456
105.283
91.8304
358.434
397.743
380.361
342.555
296.706
251.423
210.97
176.964
149.36
127.436
110.073
95.6432
328.263
400.348
389.286
355.313
309.315
263.366
221.651
186.361
157.128
133.83
115.223
99.912
203.74
0.00127265
6.57593
4.91794
4.88137
11.9829
11.4228
81.1401
44.982
26.3046
7.57041
0.00269098
0.0224792
573.071
12.1332
0.000850952
479.989
0.217193
0.20634
0.000828
2.43112
5.66303
0.254162
0.0182927
209.498
6.5336
4.01196
16.1568
16.8443
48.1935
14.5421
364.537
0.00108471
7.3875
0.0210655
2.32024
87.3314
12.6265
29.7558
0.00290121
0.238086
0.000793833
0.118948
23.815
23.7103
5.44738
0.0573266
0.0147671
23.9633
2.39775
2.26752
77.6747
18.4536
0.000749082
214.783
0.00117957
0.0042657
0.0007928
12.6611
11.2615
3.50275
379.033
0.000746609
0.00891102
0.710852
0.00121239
75.5827
18.0341
321.768
18.6743
184.804
0.0483341
28.4165
43.2564
0.0187776
0.000739167
41.0484
0.000696184
0.0787331
11.2146
0.210257
0.00069936
75.3915
20.5515
0.00841546
69.9043
74.7284
0.000739952
5.16628
25.7739
19.5396
26.0068
0.000741582
0.000983365
53.6839
0.000751669
15.1209
0.00900674
0.000728945
76.4737
144.096
1.14646
0.000784911
0.00113878
0.000707786
68.1504
66.0382
101.352
19.1778
0.0279899
0.526499
0.000709745
8.28848
0.000913039
0.00073449
8.34571
0.0108193
1.91403
68.9782
0.645696
119.678
0.0203896
175.793
0.991089
0.318413
53.1022
0.00104484
1333.17
0.023203
0.000742465
123.076
0.000758846
87.4193
0.0011412
4.18907
0.00145934
28.4438
13.1403
8.71036
0.00175825
0.00874361
2.76443
14.1999
0.127899
31.2956
197.794
17.273
0.00121653
61.4423
21.7674
0.578245
8.00855
0.000693027
0.264768
0.614126
0.000716805
12.5515
0.000727043
88.6968
0.00233671
0.017772
0.000857095
0.324409
0.00606628
2.6013
0.190287
314.812
30.2048
18.4699
0.000687038
204.975
47.1574
216.381
0.00943993
0.000680696
18.4102
0.000705936
20.5036
0.721386
34.5933
330.647
3.27381
0.083038
26.3912
0.000796455
13.4593
0.000723995
0.000721546
30.1414
0.000736008
9.16571
0.000697688
199.468
0.00130384
16.1453
14.1872
10.8705
4.55889
0.000709798
408.594
63.5822
19.7819
54.8668
9.17781
20.124
0.141611
0.180087
1.47774
39.0948
1.54904
139.915
52.3973
48.1796
34.345
0.000722341
15.4757
0.00600238
11.141
425.549
21.0031
20.3216
63.8062
24.6303
0.000718495
0.000730908
55.3401
69.9801
0.000758217
1481.95
0.022703
167.407
0.296004
0.000704591
88.6467
10.2239
12.2146
11.7569
70.2332
34.5473
20.5088
0.504766
0.392014
32.5171
95.0808
195.815
132.959
82.992
0.000836949
44.7205
16.2307
17.1137
42.9273
5.51103
4003.92
21.7877
1.82281
3.9963
19.1668
14.4246
24.6495
1.54272
12.6984
0.00755203
0.173991
577.463
13.1695
58.1882
48.5061
7.97069
164.387
10.6905
0.0430611
174.041
87.6617
85.5782
185.585
30.127
105.976
29.1709
27.2415
178.882
29.7205
26.848
21.0311
25.1495
11.0176
12.4521
82.2889
85.7526
1.95063
26.8431
170.346
99.5202
98.9152
16.2201
191.52
0.676309
85.2074
0.070199
54.5955
6.57735
1.00783
336.723
213.572
0.566852
53.8202
32.9869
0.000737009
0.687486
0.519949
0.705193
40.8193
0.000720382
97.6181
20.0453
0.0936919
93.3728
42.8996
0.000721187
442.349
0.0291211
14.4442
10.6804
9228.05
50.3441
42.4858
18.3843
0.000714286
0.00071726
40.0177
13.4167
0.000686682
10.9974
0.000703598
0.000717341
0.000739921
0.000705927
0.230868
0.000725305
0.00175057
122.662
49.8967
0.000755471
19.134
0.00380492
75.8431
147.254
90.2159
1098.72
14.9928
0.000667933
0.000744192
0.0948079
0.708541
96.1764
0.000682612
0.177343
24.5628
51.3272
5.40821
27.724
25.2176
71.021
1006.27
2.58797
4.94062
0.000882908
0.000735544
1.59536
4.10937
0.241664
28.1535
50.8237
5050.08
174.44
2.94285
22.8979
65.7484
0.000734647
8.88502
49.5825
0.00151216
0.000714569
51.9115
3765.39
81.1298
0.000686597
0.0496957
3.97218
0.015539
0.000730387
52.9777
6.82753
17.6351
16.0988
0.000918736
918.521
0.000714583
1.65821
18.7719
0.00204122
0.00468141
92.3598
0.00318725
45.2877
313.7
85.1303
26.0039
41.2754
99.0566
0.000714941
0.00069099
0.000729226
74.5932
0.0839851
315.387
5348.56
4.53588
59.7776
0.000724115
0.0426877
14.4963
0.000690046
0.000725648
97.564
0.00068405
1.71224
54.9094
27.7233
0.000671465
0.00255225
0.257881
0.238232
10.9828
0.405293
0.000700723
807.802
53.9725
0.812746
0.00543001
33.4165
88.986
0.00233834
15.3688
0.00224572
64.9047
0.00084361
12.7275
1.03006
0.000705382
76.7448
11.1129
172.001
0.0035101
9.98062
2.7018
0.00146785
89.5107
51.1667
2.50497
210.883
0.0151697
0.0464855
0.00486523
116.623
31.5198
0.201696
2.45197
4.16678
170.939
0.825794
83.4245
1148.12
0.000675945
210.276
56.1756
10.4236
0.000697365
19.7422
94.0754
0.146892
84.5516
23.397
2.40568
0.325063
30.0708
120.631
0.000862839
0.0103219
55.0971
0.0326644
0.00189883
240.908
1084.49
0.0329996
22.8088
51.9603
0.624555
46.2506
27.0249
51.9316
19.327
24.5146
0.000738937
0.188528
45.0235
18.605
116.259
21.7448
97.7327
175.946
988.678
74.7183
2.56354
0.000727133
216.318
91.0861
46.0842
10.3331
1.11374
0.148803
11.0984
0.000731388
17.095
0.000732143
35.7449
10.6277
92.201
29.395
77.725
111.066
119.5
29.5694
220.239
0.000734373
0.339253
57.8894
1422.22
7.73
23.8018
0.000874792
0.0193585
6.16306
117.725
18.1182
0.000699159
0.0650717
0.000708426
0.0538979
19.8628
0.0279557
65.8501
2.82686
72.1483
0.443623
0.440749
298.37
658.596
0.000740134
0.000740697
5.49694
185.543
17.6168
13.1607
3.25611
30.7677
19.5376
0.000670058
0.748699
12.2501
0.00134149
77.2237
12.855
26.9624
17.4559
0.00561885
0.000671161
0.0147508
0.000713611
26.8204
20.216
122.841
22.8199
0.0007315
138.922
0.122661
118.727
1.79333
193.462
0.0299197
0.505243
0.000685648
38.9381
566.762
19.5714
4.57511
0.000667485
104.071
44.7553
50.6028
0.000700657
0.611727
56.5441
26.7747
0.00186775
1071.28
0.000917367
58.8319
28.8263
0.000879242
2.05141
0.140486
1.08426
0.000700487
0.000741846
75.2048
36.4939
19.8057
54.1147
0.00135028
1.92137
0.219441
44.5818
8.30587
0.00100657
1.56678
403.405
0.000689106
0.00288246
26.3406
130.972
88.1942
0.000720195
695.923
23.8906
115.387
0.0200707
2.5198
144.897
0.000735606
101.408
2.47672
18.1207
7.80281
45.084
7.92735
94.0242
96.5641
15.9505
4961.18
0.000746506
0.000719159
142.345
47.1228
0.00130165
0.00072331
9.32428
0.000745337
51.7887
52.6092
1.13271
0.00070143
39.7462
0.393119
21.4913
66.3211
25.633
0.265778
2.35471
118.591
0.000738987
2.36067
61.3028
21.5528
18.0957
0.00231847
10.6516
2.72669
2788.84
0.000711211
2.5629
35.5913
18.3553
0.000770903
0.165554
28.8497
55.7989
77.02
0.0604151
204.319
31.9294
0.303049
31.5889
0.000712576
0.00246037
9.03396
0.000684719
26.5671
0.000726275
115.116
0.00453367
56.9651
0.000732526
0.923561
51.992
126.513
7.54012
30.9568
0.386272
240.944
0.00776473
0.154807
18.3104
0.000697661
0.000745102
27.9703
0.381441
94.8482
25.9285
0.000758487
90.8181
105.896
81.3069
7.16618
170.06
95.8502
0.000740883
2398.73
4207.73
49.7977
0.000759723
0.00434197
272.658
54.2885
0.000704603
90.527
0.000698259
0.11093
302.571
0.000851384
16.9144
0.000720036
0.0639089
121.496
0.000762143
0.00101701
0.000734967
0.000937977
0.0136661
1015.72
51.2794
0.308796
11.3978
0.000726473
49.0601
0.000729733
8.97502
1.81332
0.0156943
4.44065
0.00625916
73.6566
0.000724906
10684.2
4.21904
30.0839
207.985
4.79183
0.000697109
26.0739
179.857
1.99025
49.4479
58.1578
184.214
23.1351
0.0363009
28.4799
0.174117
0.00103593
0.291341
4111.93
154.588
1.03149
0.0284968
20.6815
0.000923617
9.35627
52.0783
174.212
64.1373
60.3099
0.0300071
0.00176148
32.5967
24.4394
0.0488801
42.8207
0.000720234
120.831
218.231
0.000766722
175.805
48.6729
1.15395
0.152036
139.633
0.015478
0.315751
13.3378
2.98674
2.82883
0.000752868
27.012
0.110945
150.119
28.1222
79.9346
6.14383
0.00223157
39.0017
0.000730488
0.000724012
10.5841
0.148845
1.71796
211.26
0.00067232
72.4669
0.148149
0.0582972
0.000791207
165.795
8.07168
0.347493
40.5246
0.0582598
309.487
3.96036
0.000716353
236.757
269.846
0.00158993
0.00317239
77.6949
26.4781
0.417535
233.503
0.0276461
2.00727
0.245084
0.38958
31.9267
94.3689
0.000736744
95.877
22.099
0.00731854
1.28376
1494.58
16.0129
0.000731435
0.00068429
35.3033
23.5592
66.7281
0.000683466
34.1865
2.87573
32.2941
0.000925803
167.396
46.4755
0.00156033
16.4669
0.000740827
86.5738
32.2146
28.3938
40.2599
0.000716124
0.00071833
9.82779
109.979
5.64793
37.8459
0.000673013
0.043439
0.000734155
0.0019385
39.6181
0.0882714
0.347064
0.915545
21.79
152.201
24.8123
65.402
0.000728939
29.4735
37.7467
20.6985
0.000738995
43.9383
0.000735187
0.000726952
0.158124
20.791
0.0161287
336.648
35.1508
327.265
0.000762343
0.00131975
0.0370177
110.346
4.57529
145.906
0.000725795
0.000715894
0.0019583
0.00296177
139.287
44.6868
83.1752
0.30715
0.0358535
3.84085
3.79245
57.3368
15.3052
61.0644
18.9532
0.000690262
182.32
0.00155377
1.81797
61.9215
26.2799
1.30567
0.61766
0.000942568
105.928
7.43884
19.9027
28.5607
0.000722573
67.3262
42.8782
171.484
0.00436636
58.924
47.6828
56.4619
190.942
22.0919
55.8056
0.276031
813.635
4.26728
0.187778
121.141
0.000729477
93.7156
173.577
0.000703815
35.6764
0.00130823
102.297
102.36
1.76238
18.8488
106.447
97.0705
13.3891
0.941489
50.2515
9.3549
0.00558184
0.000696509
24.5759
0.0857175
19.4182
58.1814
4.45442
53.7356
105.133
0.00071701
16.0128
461.863
243.636
10.4011
99.8575
18.1295
207.858
97.3642
1.64215
0.0158858
0.220994
68.2001
83.7061
0.221014
53.6749
59.6486
52.7642
11.101
2.05944
10.5834
32.8568
0.000738545
237.978
88.861
1.51275
0.000738418
26.6603
15.4722
17.1915
0.00072012
149.661
0.00072877
12.0574
0.179571
0.000733593
39.2407
81.5342
0.00070106
50.5605
27.9555
24.7402
12.7223
40.4219
15.4452
40.5137
52.8873
1.71326
0.000708652
0.00127976
33.7475
5.62633
0.120187
0.000738503
84.1944
0.00184915
0.975664
0.249437
10.8168
8.67238
0.0642346
0.522872
395.098
172.622
24.3814
1418.16
56.7456
0.000706089
51.5966
17.9516
181.713
0.000709418
5.48022
0.000737103
0.000866068
17.4943
3.97373
0.0325882
0.000802341
56.727
3015.7
0.0024631
0.000728863
1.63794
9.46225
0.015787
0.0867622
3164.11
0.551644
0.000795527
0.000727577
66.6115
20.8124
0.30491
0.0665049
64.2954
193.292
29.5748
103.488
35.1394
0.000730544
16.536
0.000723047
130.385
15.522
2930.04
6.15396
0.145799
0.000950972
97.0327
0.000739877
0.000712106
0.00175792
13.7255
18.5434
61.4544
0.000718993
16.6065
0.0007272
529.261
61.5166
0.000744624
126.264
6.25921
0.00072904
0.000766653
0.0261765
139.232
5.61618
0.017321
0.000727433
0.00070965
134.748
91.5758
20.8942
34.4383
0.473155
34.5192
0.000718428
0.00405426
6.84942
209.987
47.9073
0.00324784
0.000731387
33.3127
0.000727396
87.9566
140.667
7.18813
0.0380302
91.843
16.5251
3.14976
0.000727948
7.40181
94.691
85.2644
0.00216598
0.0220437
31.6893
3011.54
0.0533233
4.53824
0.000703033
0.000690181
0.000740494
0.0102332
32.0323
69.6911
0.0408007
99.6507
22.4667
420.062
8.16216
0.0109364
0.00276015
0.00615662
2.58554
48.0997
20.1902
0.000753059
95.9393
0.000716133
0.00630137
65.3716
49.5308
0.0265465
5.29367
9.77479
0.00104858
0.738865
2.51616
0.000722272
0.000930736
146.472
0.000888335
0.000753606
111.014
25.2813
3162.95
8.83337
1373.46
0.000851645
0.00070035
3515.57
17.3291
1.17245
3.70523
0.0570038
18.5861
1.0187
986.248
46.8651
66.6889
143.498
104.556
1.05608
27.2438
99.4299
0.00691064
80.7409
0.000980453
37.0591
6.31322
0.735066
7.84069
6.98822
3.48195
2.03168
39.2626
60.9206
45.1275
28.7398
50.2578
36.0153
6.23931
0.00109085
0.000724302
0.23578
251.504
0.000725511
79.7841
0.000705538
0.00378016
189.721
112.763
44.8725
74.91
979.291
77.2643
18.9901
40.3425
0.000724321
16.7313
74.229
0.000760093
198.166
0.00253199
719.572
250.317
294.87
14.1747
84.1958
4.50109
0.500427
16.0731
94.0535
20.5503
12.1784
5.38768
77.3353
0.135128
124.356
335.395
0.00366908
34.411
0.000739833
0.000987181
17.5383
132.863
168.814
14.6523
0.609164
0.217429
0.318989
0.000848537
22.8642
0.000848081
154.675
0.000802109
0.120455
258.658
5.55246
2.88148
191.89
157.607
0.00194202
0.000739961
0.193453
13.6424
0.165319
113.017
0.0370276
25.7961
5.09295
27.1386
56.1388
0.00086691
0.000719443
129.969
0.719458
5.57413
56.0825
29.1393
38.6503
0.00387647
164.058
56.1984
90.5032
0.000827879
1.27894
24.7824
79.192
0.997977
14.0432
0.000737568
11.797
0.000710604
221.7
0.00435042
34.7562
0.171785
10.087
0.000761946
1958.28
0.000739092
142.261
0.0159664
0.000727304
0.00675121
14.5872
0.000729271
0.000733359
10.264
0.0267057
20.4894
0.0631447
0.000772168
22.4493
6.44628
39.7455
0.000781954
111.683
4.55797
352.035
37.3567
29.9777
57.5571
93.0129
4.6049
299.148
249.149
98.3563
0.000753326
2.41812
25.633
18.2448
0.00128439
0.0162495
20.6697
482.458
0.000735472
1.65229
104.786
0.000677307
57.6677
66.6102
182.055
73.4424
52.3594
12.325
0.339915
201.695
9.22612
73.4571
51.5923
52.427
0.487841
0.000727252
34.232
0.00182034
0.000750513
0.000711636
178.098
0.000727549
0.000912825
18.2966
9453.81
2.84128
2.57919
52.5557
11.1749
0.000728406
42.3436
223.958
0.0161267
4.73686
55.5633
49.0695
0.28127
0.0207594
0.000717012
0.00072617
0.0172408
0.0414643
25.2919
21.2617
87.8519
14.1589
13.9521
0.000994677
197.759
28.3009
0.000747831
23.1172
824.859
0.000734531
6.91684
119.837
43.5601
91.8157
0.713389
143.521
0.000856213
0.9199
0.000773589
0.00198463
0.000746828
63.1056
18.0587
0.0962338
0.000739344
0.000686857
188.364
28.6619
2.71827
20.0184
6.20531
36.3589
18.4381
24.4115
26.6087
0.000732267
0.479606
0.877536
0.351968
19.0684
76.9336
49.3554
84.1607
27.8663
87.8024
161.667
94.963
46.6329
32.0107
0.131053
56.574
29.6543
0.0201475
79.559
53.7204
10.8705
0.000699582
0.00074273
0.000872886
0.00118147
49.9713
0.000675795
109.778
50.5224
229.971
28.8148
0.000726381
12.4075
15.9159
58.0897
15.3768
29.496
13.6631
0.000754502
0.000742226
0.00344129
0.175086
0.000710737
84.5991
13.9715
1.73436
47.4532
14.9917
39.0808
118.329
0.000728215
19.1071
30.8474
0.000943825
0.0903662
52.8919
168.735
20.1789
4.75428
0.000753736
33.7367
39.6969
0.000958609
0.0115779
0.000722829
39.78
0.00116457
0.51595
112.335
0.762889
0.09942
21.7145
2876.97
0.000757957
30.0632
0.000678138
10.2431
23.0704
22.3275
16.9725
60.8996
31.5867
58.2674
188.522
45.1528
0.0007324
0.000718144
0.0473199
0.205759
53.0121
4.55123
0.000730115
163.872
2.87733
0.00301155
52.1257
0.0543138
0.00286289
0.03211
73.9575
0.0020325
0.000734169
21.3933
83.5039
25.0284
1.60879
53.9853
8.2526
0.000737302
16.8133
0.145424
0.0682308
0.000790836
34.738
19.9459
5.51223
138.664
94.2444
16.4279
2.88642
0.000725713
25.8985
0.000726096
222.488
0.00406016
33.4369
0.157216
53.5021
0.00806444
0.00355805
4.53091
3.71873
386.689
0.000852905
1.8791
46.4433
91.3112
6.40448
114.765
1.32692
0.000811941
0.000744797
58.0879
24.4907
313.027
2.23397
0.16377
54.9728
21.1288
59.2705
0.0665317
0.00072594
0.000734802
1.27279
767.446
18.5128
105.552
0.00084252
0.00452013
1.10592
48.9859
22.867
44.8972
57.9667
60.6408
0.00074192
0.000735416
178.664
135.798
61.3783
426.446
48.133
0.0160436
132.553
0.000724538
226.305
0.0176344
0.0208883
0.000727164
0.0345111
0.172257
53.5023
48.2494
0.000754517
116.367
0.000718937
82.9399
148.002
0.000718101
0.468187
0.0007544
16.5035
0.322362
5.61589
0.000691786
13.2025
90.9574
13.15
44.922
1.23615
60.3583
1.57485
62.3804
33.4225
83.7384
30.6671
0.000954338
0.000736044
27.2552
0.478322
61.3486
0.000731894
122.93
0.000724324
0.00130913
0.239526
0.000720377
273.423
97.262
0.000762186
21.7696
2.55418
0.174264
33.0596
0.00187799
0.000708205
43.0657
9.10138
0.0204745
46.4204
2367.28
107.991
1.62556
182.538
0.224221
0.000735775
0.000899873
0.0275361
1.55141
57.4968
140.301
312.363
52.2205
55.0831
10.5496
1.9702
37.129
153.579
56.0729
0.0350741
0.0850738
13.0181
83.5223
0.000792938
0.997473
17.4419
192.296
0.000726841
49.1606
0.000681291
0.00642115
129.625
0.00079045
65.217
1154.11
0.000738013
175.003
0.000870174
8.89578
0.0064962
0.0010332
47.3416
16.2378
64.414
8.42094
79.2728
350.541
105.581
5.96028
36.5282
20.313
0.00070529
163.059
0.0562507
88.2668
4.02594
10.4771
0.0339932
0.00108735
167.263
116.181
12.651
48.2025
18.1081
0.0102269
0.00069486
0.000744324
1.65388
75.3518
17.1679
0.000703874
1166.1
20.4648
0.00956586
0.141099
20.0966
0.000673429
0.391069
0.000762217
0.000723746
21.4663
29.9127
0.054403
0.0062151
0.000708781
28.9529
1.7615
20.7412
0.00231131
0.0319939
0.00735156
60.9472
103.34
1.23107
0.000729235
159.672
0.000780526
0.0335931
0.00414605
0.00141023
34.8779
64.6189
0.000725146
49.7984
0.000748745
0.000696238
0.000880407
53.2487
15.4477
53.2415
42.4682
19.9861
61.6437
0.0440382
0.000728778
0.00704405
0.00161499
2.87036
0.000713496
61.3428
11.6647
0.032948
100.781
0.352734
22.195
1.8749
0.00183808
125.565
56.5636
20.2307
0.00721822
0.145769
214.103
0.000732765
8.87343
57.5575
0.000724612
0.705509
0.00279049
19.5606
0.000691706
81.5154
37.1112
1.71416
0.429646
94.2425
365.911
4.7166
125.141
0.00104585
18.2955
0.00074224