/*--------------------------------*- C++ -*----------------------------------*\
| =========                 |                                                 |
| \\      /  F ield         | OpenFOAM: The Open Source CFD Toolbox           |
|  \\    /   O peration     | Version:  2.3.1                                 |
|   \\  /    A nd           | Web:      www.OpenFOAM.org                      |
|    \\/     M anipulation  |                                                 |
\*---------------------------------------------------------------------------*/
FoamFile
{
    version     2.0;
    format      ascii;
    class       volScalarField;
    location    "0.34";
    object      k;
}
// * * * * * * * * * * * * * * * * * * * * * * * * * * * * * * * * * * * * * //

dimensions      [0 2 -2 0 0 0 0];

internalField   nonuniform List<scalar> 
15166
(
1.07876
1.32314
1.70535
2.10692
2.41752
2.7274
2.94875
3.08121
3.12723
3.1046
3.02091
2.90941
1.07914
1.29446
1.7091
2.09908
2.40908
2.69784
2.89874
3.01446
3.05006
3.02255
2.94013
2.81982
1.0872
1.26285
1.69366
2.07701
2.38633
2.65848
2.84381
2.94694
2.97537
2.94449
2.86218
2.73862
1.09775
1.23748
1.67201
2.04856
2.35506
2.61313
2.78611
2.87972
2.90307
2.8698
2.78678
2.65838
1.10915
1.21836
1.64887
2.01792
2.31956
2.56503
2.72763
2.81376
2.83333
2.79842
2.71491
2.58581
1.12148
1.20382
1.62536
1.98645
2.28191
2.5159
2.66952
2.74957
2.76625
2.73013
2.64617
2.51584
1.13475
1.19275
1.60209
1.95476
2.24312
2.46666
2.61239
2.68739
2.70177
2.66471
2.58003
2.44671
1.14877
1.18451
1.5796
1.9233
2.20396
2.41788
2.5566
2.62734
2.63985
2.60211
2.51714
2.38451
1.16331
1.17861
1.55823
1.89252
2.16504
2.37003
2.50241
2.56946
2.58041
2.54221
2.4573
2.32545
1.17819
1.17459
1.5381
1.8626
2.12675
2.32338
2.44997
2.51375
2.52339
2.48495
2.40059
2.27133
1.19329
1.17211
1.51924
1.83366
2.0893
2.27809
2.39934
2.46019
2.46871
2.43027
2.34698
2.22123
1.20848
1.17086
1.5016
1.80575
2.05285
2.23425
2.35053
2.40871
2.41629
2.3781
2.29665
2.17675
1.22368
1.1706
1.48514
1.77886
2.0175
2.19188
2.30351
2.35923
2.36601
2.32831
2.24916
2.13517
1.23881
1.17117
1.46979
1.753
1.98327
2.15098
2.25824
2.31169
2.31779
2.28069
2.20333
2.08978
1.25379
1.17234
1.45548
1.72817
1.95019
2.11154
2.21468
2.26599
2.27154
2.23519
2.15999
2.05121
1.26858
1.17401
1.44208
1.70432
1.91824
2.07352
2.17275
2.22208
2.22714
2.19161
2.11868
2.01376
1.28313
1.17604
1.42953
1.68142
1.88742
2.03688
2.13239
2.17984
2.18451
2.14987
2.07912
1.97737
1.2974
1.17836
1.41777
1.65945
1.85772
2.00159
2.09354
2.13922
2.14355
2.10982
2.04119
1.94225
1.31135
1.18089
1.40671
1.63836
1.82906
1.96756
2.05612
2.10012
2.10416
2.07138
2.00489
1.90937
1.32496
1.18354
1.3963
1.6181
1.80145
1.93476
2.02008
2.06247
2.06626
2.03445
1.97008
1.87783
1.33819
1.18629
1.38646
1.59864
1.77482
1.90314
1.98533
2.02619
2.02977
1.9989
1.93648
1.84633
1.35106
1.18905
1.37714
1.57995
1.74915
1.87264
1.95182
1.99122
1.9946
1.96465
1.90399
1.81567
1.36351
1.19182
1.36829
1.56196
1.72439
1.84321
1.91951
1.95749
1.9607
1.9316
1.87248
1.7854
1.37556
1.19457
1.35986
1.54466
1.70051
1.81482
1.88832
1.92494
1.92798
1.89968
1.84196
1.75621
1.38717
1.19727
1.35181
1.52802
1.67747
1.78742
1.85821
1.89351
1.89637
1.86882
1.8124
1.7281
1.39834
1.1999
1.3441
1.512
1.65524
1.76095
1.82913
1.86315
1.86583
1.83897
1.78379
1.70112
1.40908
1.20243
1.33669
1.49654
1.63378
1.73539
1.80103
1.8338
1.8363
1.81008
1.75618
1.67549
1.41939
1.2049
1.32959
1.48163
1.61304
1.71067
1.77387
1.80542
1.80772
1.78213
1.72954
1.65133
1.42923
1.20727
1.32272
1.46725
1.59301
1.68678
1.74759
1.77796
1.78006
1.75508
1.70383
1.62786
1.43864
1.20953
1.31611
1.45335
1.57365
1.66368
1.72216
1.75138
1.75327
1.72889
1.67892
1.60477
1.4476
1.2117
1.30967
1.43991
1.55492
1.64132
1.69755
1.72563
1.72732
1.70352
1.65482
1.58256
1.4561
1.21376
1.30345
1.42691
1.5368
1.61968
1.67372
1.70069
1.70217
1.67892
1.63143
1.56085
1.46414
1.21573
1.29739
1.41433
1.51927
1.59873
1.65063
1.67651
1.67778
1.65506
1.60877
1.54001
1.47178
1.21759
1.29152
1.40214
1.50229
1.57843
1.62825
1.65308
1.65413
1.63193
1.58678
1.51965
1.47892
1.21935
1.28579
1.39034
1.48585
1.55876
1.60656
1.63034
1.63118
1.60947
1.56545
1.50003
1.48565
1.22104
1.28022
1.37888
1.46991
1.5397
1.58552
1.60828
1.6089
1.58767
1.54474
1.48087
1.49194
1.22261
1.27478
1.36776
1.45445
1.52121
1.56511
1.58686
1.58725
1.56648
1.52466
1.46264
1.4978
1.22411
1.26947
1.35695
1.43946
1.50327
1.5453
1.56606
1.56622
1.54591
1.50518
1.44508
1.50324
1.22553
1.26429
1.34646
1.42491
1.48586
1.52606
1.54586
1.5458
1.52593
1.48625
1.42767
1.50826
1.22687
1.25923
1.33625
1.4108
1.46897
1.50738
1.52623
1.52594
1.50651
1.46793
1.41135
1.51281
1.22815
1.25427
1.32633
1.39709
1.45256
1.48924
1.50715
1.50664
1.48761
1.44992
1.39368
1.51693
1.22932
1.24941
1.31668
1.38377
1.43663
1.47161
1.48861
1.48786
1.4692
1.43227
1.37637
1.5206
1.23041
1.24467
1.30728
1.37084
1.42115
1.45447
1.47057
1.46959
1.45126
1.4151
1.36046
1.52386
1.23138
1.24003
1.29814
1.35826
1.4061
1.43781
1.45303
1.4518
1.43378
1.39835
1.34473
1.5267
1.23222
1.23549
1.28926
1.34604
1.39146
1.4216
1.43595
1.43448
1.41675
1.38205
1.32979
1.52912
1.23293
1.23105
1.28062
1.33414
1.37723
1.40584
1.41934
1.41761
1.40015
1.36615
1.31474
1.53114
1.23353
1.22673
1.2722
1.32255
1.36339
1.3905
1.40316
1.40117
1.38397
1.35069
1.30078
1.53276
1.23399
1.22249
1.264
1.31127
1.34992
1.37557
1.38739
1.38514
1.36818
1.33561
1.28678
1.534
1.23434
1.21832
1.25601
1.3003
1.33681
1.36102
1.37203
1.36951
1.35278
1.32092
1.27352
1.53486
1.2346
1.21423
1.24821
1.28962
1.32404
1.34685
1.35706
1.35427
1.33775
1.30656
1.26008
1.53533
1.23477
1.21022
1.24061
1.27922
1.31161
1.33305
1.34246
1.33939
1.32308
1.29256
1.24729
1.53544
1.23487
1.20627
1.23319
1.26909
1.2995
1.3196
1.32823
1.32488
1.30876
1.2789
1.23486
1.53517
1.23488
1.20239
1.22594
1.25922
1.28771
1.30649
1.31435
1.31073
1.29479
1.26553
1.2222
1.53455
1.23484
1.19858
1.21887
1.24961
1.27621
1.29372
1.30082
1.29691
1.28114
1.2525
1.21043
1.53357
1.23472
1.19484
1.21196
1.24024
1.26502
1.28127
1.28762
1.28342
1.26781
1.23981
1.19908
1.53224
1.23452
1.19116
1.20521
1.23111
1.2541
1.26914
1.27475
1.27025
1.2548
1.22745
1.18811
1.53057
1.23423
1.18754
1.19862
1.2222
1.24346
1.2573
1.26218
1.2574
1.2421
1.21537
1.17706
1.52857
1.23391
1.184
1.19219
1.21351
1.23309
1.24576
1.24993
1.24486
1.2297
1.20358
1.16632
1.52622
1.23349
1.18053
1.1859
1.20504
1.22298
1.23451
1.23797
1.23262
1.2176
1.192
1.15506
1.52355
1.23304
1.17712
1.17976
1.19677
1.21311
1.22353
1.22631
1.22067
1.20577
1.18067
1.1446
1.52055
1.23251
1.17379
1.17377
1.18871
1.20349
1.21282
1.21492
1.209
1.19421
1.16963
1.13476
1.51723
1.23194
1.17051
1.16791
1.18082
1.1941
1.20236
1.2038
1.19761
1.18293
1.15888
1.12521
1.5136
1.2313
1.16731
1.16219
1.17314
1.18494
1.19217
1.19297
1.18649
1.17191
1.14838
1.11558
1.50964
1.23062
1.16417
1.15661
1.16565
1.17601
1.18223
1.18239
1.17564
1.16115
1.13811
1.10617
1.50536
1.22989
1.16111
1.15117
1.15834
1.16731
1.17254
1.17207
1.16504
1.15064
1.12804
1.09672
1.50077
1.22914
1.15812
1.14586
1.15122
1.15882
1.16308
1.162
1.15469
1.14037
1.1182
1.08761
1.49588
1.22831
1.15521
1.14069
1.14427
1.15054
1.15386
1.15218
1.14459
1.13032
1.10855
1.07849
1.49067
1.22744
1.15236
1.13565
1.1375
1.14246
1.14486
1.14259
1.13472
1.12051
1.09911
1.06981
1.48515
1.22656
1.14961
1.13075
1.1309
1.13459
1.13609
1.13323
1.1251
1.11093
1.0899
1.06126
1.47935
1.22561
1.14693
1.12598
1.12447
1.12691
1.12753
1.1241
1.1157
1.10158
1.0809
1.05303
1.47325
1.22464
1.14432
1.12134
1.1182
1.11943
1.11918
1.11519
1.10653
1.09244
1.07209
1.04473
1.46685
1.2236
1.14179
1.11683
1.1121
1.11212
1.11103
1.1065
1.09758
1.0835
1.06346
1.03676
1.46018
1.22256
1.13933
1.11245
1.10615
1.10502
1.1031
1.09803
1.08884
1.07478
1.05504
1.02897
1.45319
1.2215
1.13699
1.10822
1.10038
1.0981
1.09537
1.08978
1.08032
1.06627
1.04681
1.02128
1.44591
1.22039
1.1347
1.10411
1.09477
1.09136
1.08784
1.08172
1.072
1.05795
1.03876
1.0138
1.43837
1.21923
1.13251
1.10015
1.08932
1.08481
1.0805
1.07387
1.06389
1.04983
1.03089
1.00626
1.43052
1.21801
1.1304
1.09632
1.08405
1.07844
1.07336
1.06623
1.05598
1.0419
1.02317
0.998912
1.42238
1.21677
1.12836
1.09263
1.07893
1.07225
1.06641
1.05878
1.04827
1.03416
1.01563
0.991649
1.41395
1.21553
1.12645
1.08908
1.07398
1.06624
1.05965
1.05153
1.04076
1.02662
1.00825
0.984623
1.40524
1.21422
1.12461
1.08567
1.06918
1.0604
1.05308
1.04447
1.03345
1.01926
1.00103
0.977618
1.39626
1.2129
1.12287
1.08241
1.06455
1.05474
1.04669
1.0376
1.02632
1.01207
0.993985
0.970943
1.387
1.21153
1.12121
1.07928
1.06009
1.04925
1.04048
1.03092
1.01937
1.00506
0.987096
0.964464
1.37748
1.21012
1.11964
1.0763
1.05578
1.04395
1.03446
1.02444
1.01262
0.998237
0.980395
0.958058
1.36767
1.20868
1.11818
1.07346
1.05165
1.03882
1.02863
1.01814
1.00606
0.991603
0.973861
0.951701
1.35758
1.20722
1.11682
1.07079
1.04769
1.03387
1.02299
1.01203
0.999685
0.985137
0.967483
0.945618
1.34722
1.2057
1.11556
1.06827
1.0439
1.0291
1.01752
1.0061
0.993491
0.978854
0.961271
0.939538
1.33658
1.20411
1.11439
1.06591
1.04029
1.02452
1.01224
1.00036
0.987477
0.972736
0.955207
0.9338
1.32567
1.20249
1.11332
1.0637
1.03686
1.02012
1.00715
0.99481
0.981652
0.966811
0.94934
0.928093
1.31447
1.20084
1.11236
1.06166
1.03362
1.01591
1.00225
0.989448
0.976011
0.961066
0.943639
0.922582
1.30299
1.19916
1.11151
1.0598
1.03056
1.01189
0.997537
0.98427
0.970555
0.955489
0.93807
0.916906
1.29124
1.19743
1.11075
1.05809
1.02768
1.00805
0.993011
0.979277
0.965279
0.950086
0.932689
0.912033
1.27922
1.19565
1.1101
1.05656
1.025
1.00441
0.988682
0.974483
0.960208
0.944903
0.927557
0.907157
1.26696
1.19379
1.10956
1.05521
1.02251
1.00097
0.984551
0.969885
0.955323
0.939886
0.922564
0.902397
1.2544
1.19192
1.10912
1.05403
1.02023
0.99774
0.980622
0.965482
0.950631
0.935057
0.917749
0.897684
1.24158
1.18996
1.10879
1.05304
1.01815
0.994714
0.976896
0.961281
0.946131
0.930412
0.913096
0.893108
1.22849
1.18792
1.10856
1.05223
1.01628
0.991903
0.973379
0.957281
0.941831
0.925966
0.908629
0.888599
1.21512
1.18583
1.10847
1.05164
1.01464
0.989314
0.970077
0.95349
0.937727
0.921695
0.904304
0.884329
1.20146
1.18372
1.10847
1.05124
1.01322
0.986956
0.966997
0.949908
0.933829
0.917626
0.900183
0.88018
1.18755
1.18146
1.1086
1.05104
1.01205
0.984828
0.964144
0.946546
0.930139
0.913753
0.896234
0.876234
1.17334
1.17916
1.10883
1.05106
1.01111
0.982949
0.961525
0.94341
0.926668
0.910093
0.892502
0.872415
1.15887
1.17678
1.10918
1.05129
1.01042
0.981313
0.959142
0.940499
0.923406
0.906624
0.888936
0.868916
1.14411
1.17436
1.10965
1.05175
1.00999
0.979938
0.95701
0.937821
0.92037
0.903376
0.88559
0.865591
1.12907
1.17186
1.11023
1.05243
1.00983
0.978833
0.955139
0.935399
0.91758
0.900373
0.882489
0.862399
1.11377
1.16925
1.11093
1.05334
1.00994
0.978008
0.953538
0.933228
0.915031
0.897593
0.879607
0.8595
1.0982
1.16651
1.11175
1.0545
1.01034
0.977479
0.952212
0.93132
0.912727
0.895045
0.876947
0.856907
1.08234
1.1637
1.11269
1.05591
1.01104
0.977254
0.95118
0.929688
0.910685
0.892762
0.874556
0.85444
1.0662
1.16075
1.11374
1.05757
1.01205
0.977346
0.950455
0.928345
0.908908
0.89071
0.872349
0.852241
1.04978
1.15772
1.11491
1.0595
1.01339
0.977776
0.950054
0.927306
0.907422
0.888942
0.870423
0.850209
1.03307
1.15467
1.11619
1.06172
1.01508
0.978563
0.949993
0.926587
0.906235
0.887458
0.868765
0.848431
1.01608
1.15139
1.11762
1.06421
1.01712
0.979718
0.950294
0.9262
0.905357
0.886251
0.867336
0.846828
0.99879
1.14805
1.11917
1.06702
1.01955
0.981272
0.950973
0.926173
0.904816
0.885362
0.866234
0.845561
0.981213
1.14462
1.12083
1.07012
1.02237
0.983236
0.952054
0.926525
0.90463
0.884817
0.865472
0.844708
0.963367
1.14092
1.12263
1.07354
1.0256
0.985647
0.953561
0.927283
0.904833
0.884662
0.865123
0.844146
0.945223
1.13717
1.12455
1.07728
1.02926
0.988509
0.955519
0.928452
0.905412
0.884826
0.864989
0.843472
0.926789
1.1333
1.12656
1.08137
1.03337
0.991859
0.957941
0.930056
0.906383
0.885337
0.865167
0.843305
0.908077
1.1292
1.12873
1.0858
1.03796
0.995718
0.960868
0.932135
0.907794
0.886277
0.865797
0.843657
0.889055
1.12503
1.13101
1.09061
1.04306
1.00015
0.964345
0.934731
0.909683
0.887646
0.866777
0.844311
0.869743
1.12056
1.13346
1.09581
1.04869
1.00516
0.968419
0.937892
0.912104
0.889525
0.868293
0.845613
0.850133
1.11595
1.13599
1.10142
1.05491
1.01082
0.973133
0.941658
0.915092
0.891946
0.870342
0.84749
0.830251
1.11125
1.13866
1.10744
1.06173
1.01716
0.978536
0.946088
0.918689
0.894943
0.872948
0.849706
0.81007
1.10629
1.14148
1.11391
1.0692
1.02424
0.984668
0.951204
0.922915
0.898463
0.875899
0.851857
0.789576
1.1011
1.14445
1.12085
1.07736
1.03211
0.991603
0.957074
0.927835
0.902626
0.879487
0.855019
0.768795
1.09564
1.14755
1.12828
1.08626
1.04084
0.999421
0.963798
0.933561
0.907564
0.88389
0.859127
0.747737
1.09014
1.15078
1.13626
1.09597
1.0505
1.00821
0.971449
0.940127
0.913241
0.888856
0.863518
0.726359
1.08425
1.15421
1.14482
1.10655
1.06121
1.01807
0.980122
0.947643
0.919781
0.894643
0.868627
0.704682
1.0781
1.15782
1.15402
1.11811
1.07306
1.02911
0.989936
0.956208
0.927246
0.901208
0.874497
0.682721
1.07191
1.16165
1.16393
1.13077
1.0862
1.0415
1.00106
0.965982
0.935818
0.90882
0.881395
0.660421
1.0653
1.16579
1.17468
1.14465
1.10081
1.05541
1.01364
0.977101
0.945613
0.917515
0.889033
0.637803
1.05852
1.17031
1.1864
1.15998
1.11708
1.07103
1.02786
0.989696
0.956708
0.927381
0.897952
0.614806
1.05149
1.17535
1.19939
1.177
1.1353
1.08861
1.0439
1.00393
0.969214
0.938424
0.90783
0.591434
1.04447
1.18132
1.21397
1.19614
1.15579
1.10846
1.06204
1.02003
0.983361
0.950989
0.919221
0.56757
1.03761
1.18878
1.23086
1.21792
1.17899
1.13087
1.08253
1.03818
0.999243
0.964985
0.931767
0.543148
1.03217
1.19894
1.25098
1.24297
1.20528
1.15611
1.10552
1.05851
1.01694
0.980438
0.945302
0.518042
1.03167
1.21502
1.27673
1.27258
1.23553
1.18489
1.13177
1.08162
1.03693
0.997634
0.960257
0.48849
1.03299
1.22995
1.30309
1.30085
1.26449
1.21267
1.15819
1.10498
1.05787
1.01572
0.976642
1.03779
0.00467559
0.345988
0.320575
0.319521
0.287989
0.278468
0.646731
0.82844
0.775569
0.566147
0.0077666
0.0325226
3.01241
0.275575
0.00354866
2.82494
0.110274
0.107319
0.00348223
0.14005
0.175667
0.144319
0.0268464
1.05316
0.345088
0.159445
0.37314
0.602703
0.810485
0.536259
1.16646
0.0041974
0.556659
0.0310514
0.165059
0.387508
0.469132
0.392981
0.00816959
0.0701624
0.00337624
0.0714173
0.528821
0.268887
0.172636
0.0606573
0.0247734
0.271827
0.139504
0.163235
0.634477
0.263426
0.00321463
1.98308
0.00444276
0.0106331
0.0033732
0.469832
0.264962
0.155133
1.19118
0.0032091
0.0168376
0.182796
0.00452842
0.885275
0.25279
1.53188
0.687073
1.87938
0.0534157
0.383326
0.726205
0.0273095
0.00322989
0.795123
0.00309476
0.0699934
0.240969
0.103159
0.00310375
0.406038
0.295713
0.0163201
1.11593
0.880967
0.00319468
0.389685
0.238196
0.353653
0.651637
0.00319825
0.00391932
0.457285
0.00326131
0.360614
0.0127808
0.00317202
0.8956
1.10503
0.202704
0.00335231
0.00433665
0.00312131
0.515233
0.511081
0.689599
0.53108
0.0087521
0.0942765
0.00312698
0.202284
0.00372501
0.00318214
0.219447
0.0194814
0.219144
1.09024
0.175557
1.02077
0.0292631
1.69566
0.198758
0.125324
1.28901
0.00404952
1.96466
0.0322491
0.00320012
0.23172
0.00323636
0.233361
0.00434156
0.162204
0.00514311
0.2337
0.59409
0.207759
0.00584783
0.016982
0.145122
0.269791
0.0252437
0.174866
1.89273
0.299087
0.00453902
0.980281
0.374117
0.0631331
0.213583
0.00309225
0.11438
0.155879
0.00314715
0.248339
0.0032019
1.27651
0.00707534
0.0269738
0.00356799
0.12771
0.0132634
0.149116
0.0841418
0.984322
0.292152
0.33519
0.0030735
1.8837
0.755796
1.98786
0.0178753
0.00306099
0.572615
0.00311684
0.306318
0.137426
0.717347
1.00882
0.436856
0.0627502
0.371346
0.00338945
0.262553
0.00317775
0.00315334
0.175619
0.00318554
0.486026
0.00310661
0.936605
0.00475369
0.283924
0.296212
0.271598
0.164858
0.00312697
3.16888
1.01705
0.318445
0.414402
0.21703
0.324968
0.104678
0.0912826
0.228169
0.700767
0.216239
0.288498
0.897417
0.500525
0.396983
0.00315442
0.283655
0.0129436
0.425709
3.24551
0.210694
0.295076
1.01819
0.339279
0.00315668
0.00318787
1.30534
1.11524
0.00326955
4.1989
0.0322748
0.312408
0.121056
0.00311767
0.943943
0.412533
0.253687
0.246114
1.07595
0.653915
0.322076
0.154298
0.160783
1.25227
1.68285
0.374981
0.282055
0.228156
0.00350451
1.3927
0.290017
0.648666
0.72396
0.377649
3.94686
0.237142
0.239606
0.209108
0.310362
0.576194
0.342076
0.215684
0.258258
0.0157157
0.0897091
0.683728
0.261989
0.919399
0.50685
0.359779
1.49019
0.286478
0.0501334
1.63551
0.209166
0.208421
1.6918
0.242761
0.26049
0.302277
0.203952
0.866089
0.239219
0.372869
0.331656
0.612036
0.272968
0.472781
0.208036
1.11781
0.128245
0.202026
1.66463
0.22635
0.224905
0.283295
0.919658
0.119234
0.206151
0.0675413
0.480763
0.183284
0.105405
1.365
2.05259
0.153649
0.951327
0.323983
0.00318779
0.200618
0.165596
0.210531
0.289304
0.00315749
1.18325
0.320274
0.0671535
0.225827
0.759891
0.00315194
0.638409
0.0387001
0.577703
0.420989
4.92276
0.503551
0.75601
0.537136
0.00313872
0.00316283
0.285426
0.445221
0.00308683
0.515594
0.00311561
0.00316215
0.00322421
0.00311704
0.139924
0.00316364
0.00580265
1.03453
0.512217
0.003229
0.334825
0.00984548
0.195923
0.295567
1.28484
4.1387
0.479192
0.00303294
0.00323821
0.0817034
0.133647
0.208979
0.00306527
0.0986104
0.316281
0.875956
0.376484
0.177945
0.273748
1.02323
4.07883
0.156362
0.324305
0.00364758
0.00318513
0.158267
0.256512
0.116005
0.173748
0.506042
2.74338
1.69131
0.143342
0.343296
1.01133
0.003198
0.418328
0.750397
0.00526557
0.0031629
0.520324
3.82255
0.734838
0.00308325
0.0487436
0.154303
0.0255912
0.00319853
0.83087
0.381319
0.27777
0.282312
0.00374629
3.80702
0.00314267
0.23504
0.542849
0.00648034
0.0111139
0.959142
0.00878144
1.40607
0.766719
1.14806
0.651416
0.172455
0.681718
0.00313946
0.00309778
0.00317221
1.0356
0.0752375
1.26216
2.76021
0.164425
0.591933
0.00317885
0.0107208
0.274398
0.00308107
0.00317159
0.70322
0.00307982
0.227155
0.913757
0.372206
0.00303994
0.0074833
0.110277
0.115699
0.236897
0.144508
0.00310503
3.33709
0.834311
0.109128
0.0123662
0.32785
0.199654
0.00710493
0.279569
0.00689115
0.843062
0.00352693
0.250105
0.132565
0.00311621
1.29924
0.238294
0.322072
0.00928757
0.469672
0.143865
0.00516362
0.217534
0.490427
0.351285
1.1087
0.024
0.0507119
0.0115188
1.30885
0.674134
0.0627657
0.137126
0.162621
0.334808
0.181608
0.511374
1.10313
0.0030517
2.04451
0.912308
0.226418
0.00309808
0.268076
0.959784
0.0246981
0.437004
0.349039
0.255868
0.126373
0.177421
0.259404
0.00358515
0.0188806
0.873073
0.0390426
0.00438231
0.92284
4.08015
0.0394468
0.200247
0.786312
0.0898868
0.491368
0.259643
0.841217
0.321046
0.291429
0.00322985
0.0848781
0.448009
0.382164
1.32951
0.214552
1.41993
0.937357
3.74507
0.885406
0.309509
0.00316686
1.26092
0.204244
0.799223
0.414808
0.162982
0.0841185
0.424818
0.00321537
0.297602
0.00317779
0.341382
0.419955
0.213293
0.175354
1.26881
0.2413
1.03966
0.640424
1.97304
0.00321744
0.123378
0.93055
2.44607
0.195789
0.715312
0.00361553
0.0281702
0.348941
1.8539
0.590259
0.00310236
0.0580584
0.00312256
0.058506
0.351309
0.0374787
0.843806
0.14248
0.589831
0.155336
0.1247
1.22984
0.708888
0.00319514
0.00319639
0.257522
1.21431
0.27604
0.596633
0.440077
0.665196
0.267062
0.00303699
0.186731
0.253768
0.00485477
1.04651
0.265224
0.176674
0.274742
0.0127143
0.00304167
0.0236551
0.00313919
0.64501
0.81545
0.709707
0.636068
0.0031927
1.47456
0.0895724
0.742957
0.134919
1.72823
0.00847685
0.154194
0.00307572
0.497024
0.716453
0.315901
0.408293
0.0030321
1.29833
0.803491
0.510962
0.00311676
0.0701969
0.811302
0.615674
0.00609467
2.17251
0.00373701
0.80183
0.611986
0.00362847
0.131329
0.087477
0.201861
0.00310539
0.00319886
1.15453
0.431967
0.322174
0.526681
0.00487565
0.127704
0.0979835
0.76651
0.208142
0.00395388
0.207951
1.20854
0.00307826
0.00819593
0.286762
0.635549
1.11328
0.00315791
0.729344
0.221791
1.30534
0.0297519
0.151526
0.816403
0.00319953
0.199462
0.137473
0.376081
0.381896
0.722886
0.274938
1.21383
1.17396
0.282187
2.70543
0.00323607
0.00315028
1.49337
0.78117
0.00475394
0.00315674
0.471819
0.00320625
0.821263
0.540306
0.247282
0.00311703
0.805713
0.0516443
0.291836
1.21278
0.235813
0.148025
0.144612
1.34343
0.0031921
0.284912
0.978801
0.234957
0.555369
0.0067238
0.531726
0.26236
2.03143
0.0031301
0.14827
0.681197
0.305617
0.00332045
0.0950438
0.342633
0.439659
1.26628
0.0590491
1.87195
0.406553
0.0925055
0.404885
0.00313414
0.00736109
0.361235
0.00306829
0.175599
0.00316524
0.244741
0.0107595
0.837078
0.00321766
0.11029
0.494295
1.6066
0.355376
0.667625
0.16298
2.44301
0.0155722
0.0932329
0.569886
0.00309927
0.00320601
0.380257
0.155453
0.248881
0.390638
0.00328369
0.216281
0.218791
0.201071
0.490816
1.14494
0.200158
0.00319667
1.88268
2.42303
0.506924
0.00323832
0.0108058
2.0891
0.260865
0.00311962
1.29095
0.00310056
0.0802213
2.73974
0.00354658
0.291365
0.0031494
0.0564126
0.751406
0.00324368
0.00401465
0.00318308
0.00379825
0.0216297
3.80414
0.802616
0.0935686
0.242041
0.00316396
0.762548
0.00317335
0.247154
0.231952
0.0246958
0.159404
0.0138689
1.14786
0.003184
4.32307
0.216948
0.626626
0.351218
0.16265
0.00309674
0.19373
1.09491
0.129015
0.74926
0.883509
1.68975
0.349663
0.0418499
0.625534
0.083795
0.0040626
0.106296
2.46894
1.14527
0.119559
0.00825129
0.297905
0.00375387
0.442163
0.869451
1.08366
0.839738
0.893746
0.0371028
0.00582675
0.326452
0.224934
0.0482405
0.269984
0.00316087
0.261368
1.96109
0.00330183
1.69286
0.780765
0.114274
0.101582
1.44716
0.0236007
0.101036
0.455832
0.309634
0.293122
0.00322322
0.671796
0.0761083
0.271319
0.38299
0.199114
0.221547
0.00684923
0.685781
0.00317336
0.00316049
0.228252
0.104606
0.159329
1.91409
0.00304175
1.13765
0.0644102
0.0576654
0.00338852
1.71812
0.362251
0.0896595
0.782161
0.0595911
1.15973
0.154165
0.00314246
1.19363
2.08462
0.00545585
0.00874366
0.203635
1.03499
0.0990159
1.32443
0.0351576
0.232679
0.103759
0.156489
0.678692
0.203322
0.00318775
1.17277
0.329239
0.015114
0.196425
4.24857
0.276788
0.00317659
0.00307273
0.761754
0.184411
1.01079
0.00306645
0.712817
0.294942
0.408693
0.00376544
0.313906
0.774873
0.00537692
0.25897
0.00321598
1.12041
0.211419
0.345831
0.26271
0.00314599
0.00314547
0.345286
1.40219
0.384647
0.7301
0.00304844
0.0452964
0.00320793
0.00625226
1.15685
0.0739543
0.0967662
0.124383
0.325738
0.305602
0.356351
1.20696
0.00317276
0.304795
0.729677
0.245993
0.00319247
0.940421
0.00320511
0.00316621
0.0882581
0.212374
0.0250955
1.36226
0.20359
2.79614
0.0032845
0.00475747
0.0396077
0.903101
0.304837
0.962577
0.00316812
0.00314829
0.00628386
0.00834438
1.10213
0.803351
0.64081
0.123205
0.0447406
0.314427
0.163968
0.577945
0.275694
0.876997
0.312448
0.00308117
0.332651
0.00536384
0.193759
0.88652
0.184732
0.231108
0.132733
0.00380752
1.34028
0.514753
0.486527
0.314991
0.00315925
0.588593
0.76012
0.334057
0.00821904
0.910475
0.479847
0.836031
0.328568
0.336601
0.589162
0.119716
0.861236
0.25697
0.0976289
0.236303
0.00317874
1.21128
0.862459
0.003118
0.682138
0.00476961
0.538304
0.204684
0.236471
0.267118
0.730608
0.949384
0.262111
0.13081
0.174952
0.219317
0.0125144
0.00310402
1.0253
0.0613996
0.93567
0.549753
0.223285
0.832106
0.545232
0.003145
0.27857
1.53385
1.06077
0.226587
0.239482
0.568762
1.89268
0.19089
0.233893
0.0248668
0.0834604
0.547232
1.19297
0.111299
0.839632
0.818484
0.783037
0.239733
0.230462
0.423834
0.690381
0.00319154
1.93718
0.669872
0.203931
0.00319069
0.589856
0.472352
0.295116
0.00317399
0.591343
0.0031725
0.243002
0.0909658
0.00319426
0.820792
0.347855
0.00310566
0.531745
0.373853
0.60673
0.258902
0.51928
0.279531
0.702608
0.169373
0.156575
0.00312919
0.00470337
0.343896
0.173076
0.0234356
0.00322943
0.355117
0.0060334
0.119324
0.118197
0.444116
0.206983
0.057353
0.0941244
0.549854
1.63311
0.329945
4.11169
0.867621
0.0031184
0.540948
0.587105
1.6735
0.00312658
0.172931
0.00318786
0.00358999
0.277674
0.288638
0.039018
0.00340727
0.802966
3.72127
0.00737937
0.00317636
0.129085
0.261511
0.0239387
0.0737914
3.84789
0.139999
0.00338977
0.00317734
0.966481
0.263064
0.135183
0.0591108
0.651742
1.13149
0.392179
0.24738
0.676987
0.00317321
0.50031
0.00315969
0.231131
0.274525
5.37415
0.17796
0.0895457
0.00382646
1.18258
0.0031945
0.00313395
0.00584831
0.272346
0.287681
0.974319
0.00314925
0.505742
0.00317235
0.692544
0.97445
0.00320493
0.725514
0.223941
0.00317305
0.0033014
0.0318281
1.10367
0.382363
0.0263664
0.0031743
0.00313247
0.848653
0.685741
0.327308
0.751592
0.117289
0.438576
0.00314888
0.0102928
0.381523
0.810655
0.756559
0.00885798
0.00317628
0.39823
0.00319728
0.203733
0.805746
0.352461
0.0430127
0.20093
0.504476
0.156539
0.0031697
0.511755
1.32928
0.648269
0.00642758
0.0305371
0.688086
3.69051
0.0546467
0.372464
0.00311026
0.00308736
0.00321427
0.018737
0.402059
1.07253
0.0104597
0.220989
0.631868
1.23422
0.205932
0.0196643
0.00795073
0.00756718
0.157754
0.171568
0.237207
0.00322348
1.34101
0.00314323
0.0136245
0.841359
0.850454
0.0363189
0.371443
0.466537
0.00409703
0.130049
0.254148
0.00315479
0.00377986
1.12036
0.00365484
0.0032248
0.707301
0.235782
2.09281
0.209001
2.40997
0.00355944
0.00311473
3.24202
0.296291
0.224488
0.497151
0.0601938
0.233055
0.19588
1.02104
0.812173
0.588378
0.582123
0.233389
0.110969
0.322053
0.728342
0.0146168
0.351584
0.0039211
0.439629
0.366161
0.106708
0.382865
0.188215
0.412127
0.206787
0.262541
1.10909
0.460049
0.215967
0.317677
0.708462
0.324753
0.0042098
0.00315952
0.110706
2.22325
0.00316167
1.78485
0.00312455
0.00987439
0.340194
0.221563
0.81807
0.679822
0.902637
1.13686
0.520452
0.38675
0.00316703
0.290651
1.05532
0.00323919
1.24444
0.00712983
1.70895
0.940573
1.13367
0.274351
0.206318
0.282661
0.0916329
0.28478
1.23289
0.3607
0.778235
0.169431
0.203194
0.0851581
0.231812
0.953377
0.0095333
0.663818
0.00319426
0.00393147
0.300155
1.51452
0.338356
0.27405
0.163949
0.110343
0.121291
0.00346927
0.34095
0.00346746
0.705557
0.00341601
0.0578897
0.943193
0.171388
0.305268
0.333997
0.318144
0.00622877
0.0032145
0.0988833
0.26701
0.114445
0.517258
0.0423755
0.366181
0.239011
0.374753
0.791469
0.00359271
0.00314781
1.68486
0.22596
0.171615
0.808434
0.686019
0.815208
0.00985617
1.68118
0.336134
0.213197
0.0034766
0.196265
0.403565
0.205549
0.207055
0.265905
0.00323012
0.47128
0.003134
0.62805
0.0106548
0.43981
0.117683
0.407966
0.00324326
6.53734
0.0031925
1.50684
0.0255219
0.00317501
0.0145456
0.275055
0.00317079
0.00318044
0.395068
0.0326682
0.327546
0.0568262
0.003326
0.219375
0.186058
0.445315
0.0033403
0.224011
0.189733
1.35597
0.704848
0.394806
0.416166
0.215742
0.305413
0.778343
0.831927
0.211295
0.00322413
0.144436
0.36227
0.306507
0.00471441
0.00852667
0.234737
1.57361
0.00318406
0.205487
1.23232
0.00305457
0.847181
0.933276
0.35709
0.59493
0.79437
0.259134
0.129662
2.58539
0.410033
0.881942
0.819362
0.222631
0.107104
0.00316628
0.420693
0.00586708
0.00321787
0.00313415
0.300712
0.00316627
0.00373268
0.535808
4.05481
0.405823
0.211405
0.83139
0.239482
0.00318201
0.16611
1.14372
0.0252
0.163888
1.01614
0.313361
0.125132
0.0311159
0.00314366
0.00316805
0.0272245
0.0447451
0.30329
0.300406
1.23301
0.267635
0.268784
0.00395316
0.503065
0.213975
0.0032118
0.342676
3.3724
0.00320813
0.361321
1.01646
0.736835
0.656388
0.189258
1.09963
0.00356149
0.209539
0.00331815
0.0063298
0.00320971
0.832274
0.566624
0.0739135
0.00319327
0.00307335
1.11314
0.386697
0.288233
0.235723
0.353227
0.435283
0.305924
0.348518
0.350435
0.0031772
0.150716
0.123118
0.135891
0.385105
1.05638
0.764967
0.59116
0.363612
1.11321
0.826516
0.959393
0.416486
0.87887
0.0644865
0.822778
0.393346
0.0280174
1.01208
0.853341
0.445573
0.00311448
0.00320084
0.00360913
0.00443937
0.472641
0.00304873
0.494523
0.165256
0.996129
0.764469
0.00317124
0.472556
0.283597
0.187014
0.275829
0.390256
0.550921
0.00326481
0.00319927
0.00909145
0.100217
0.0031324
0.637673
0.26726
0.251683
0.75768
0.512797
0.441685
0.532244
0.00316787
0.319084
0.666836
0.00381231
0.0786985
0.409649
0.314951
0.535425
0.193072
0.00325548
0.376025
0.358919
0.00385026
0.0204413
0.00315784
0.179003
0.00440322
0.143366
1.28429
0.111394
0.0733009
0.99897
1.81209
0.00326882
0.626354
0.0030595
0.224752
0.346986
0.248237
0.481842
0.690811
0.674624
0.801863
1.22011
0.744087
0.00317859
0.00314516
0.0530196
0.101107
0.604205
0.172075
0.00319336
1.58436
0.252951
0.00824094
0.785817
0.0585036
0.00815181
0.0402369
0.995075
0.00645854
0.0031947
0.258822
0.20603
0.638728
0.117115
0.226423
0.202673
0.00321348
0.291155
0.0900252
0.0598609
0.00337497
0.202943
0.532206
0.173356
1.44574
1.33176
0.316496
0.412289
0.00316336
0.360017
0.00319471
2.72471
0.0103097
0.430598
0.093979
0.837893
0.0163179
0.00932252
0.246834
0.306678
1.3019
0.00356384
0.21126
0.482474
0.609403
0.185125
0.999073
0.120285
0.00343402
0.00320506
0.478029
0.633502
1.06157
0.288496
0.0845773
0.530442
0.328777
0.816257
0.0458504
0.00316906
0.00318277
0.121847
0.707159
0.687804
0.98931
0.00353255
0.0109409
0.167165
0.452825
0.268923
0.756671
0.350266
0.876654
0.00319887
0.00320916
1.13356
0.275241
0.882796
2.87422
0.360414
0.0245755
1.40802
0.00318364
1.02303
0.0276144
0.0307063
0.00317099
0.041638
0.0842855
0.834845
0.791797
0.00322673
0.758303
0.00315981
0.601393
1.56214
0.00314504
0.15674
0.00322657
0.259424
0.127184
0.174266
0.00308787
0.262095
0.211807
0.2572
1.02072
0.169379
1.22144
0.216407
0.830409
0.237719
1.1146
0.635489
0.00384034
0.00320819
0.375654
0.194377
0.820341
0.00317724
2.10716
0.00315893
0.00477869
0.0373698
0.00316
1.14047
0.971132
0.00324379
0.663338
0.255754
0.102208
0.707035
0.00607695
0.00312897
0.423412
0.384324
0.00973505
0.773972
6.65897
1.35472
0.154554
1.194
0.10401
0.00318524
0.00368627
0.03508
0.136864
0.841772
1.0867
1.31383
0.7931
0.531669
0.507531
0.256383
0.648723
1.93909
0.590139
0.0429272
0.0780733
0.277335
1.50279
0.00338157
0.193675
0.653425
0.333247
0.00317266
0.424409
0.00306052
0.0138331
0.843559
0.00338738
0.298371
1.8477
0.00318984
0.352405
0.00351423
0.336993
0.0140686
0.00406562
0.764518
0.255572
0.912971
0.39826
1.11759
1.64605
0.489853
0.175509
0.74981
0.387517
0.00311567
0.578053