/*--------------------------------*- C++ -*----------------------------------*\
| =========                 |                                                 |
| \\      /  F ield         | OpenFOAM: The Open Source CFD Toolbox           |
|  \\    /   O peration     | Version:  2.3.1                                 |
|   \\  /    A nd           | Web:      www.OpenFOAM.org                      |
|    \\/     M anipulation  |                                                 |
\*---------------------------------------------------------------------------*/
FoamFile
{
    version     2.0;
    format      ascii;
    class       volScalarField;
    location    "0.34";
    object      nut;
}
// * * * * * * * * * * * * * * * * * * * * * * * * * * * * * * * * * * * * * //

dimensions      [0 2 -1 0 0 0 0];

internalField   nonuniform List<scalar> 
15166
(
9.72371e-05
0.000157145
0.000261996
0.000376042
0.000476108
0.000590599
0.000708623
0.000836684
0.000956161
0.00107903
0.00119562
0.00129565
9.72516e-05
0.000171051
0.000282691
0.000396579
0.000500241
0.000613732
0.000730429
0.000853644
0.00097079
0.00108915
0.0012014
0.00130225
9.76152e-05
0.000182358
0.000298933
0.000413517
0.000520054
0.000632918
0.000748327
0.000867807
0.000982745
0.0010973
0.00120599
0.00130663
9.80886e-05
0.000192484
0.000312781
0.000428119
0.000536697
0.000649001
0.000763139
0.000879631
0.000992444
0.00110373
0.00120941
0.0013099
9.85947e-05
0.000201642
0.000325031
0.000441083
0.000551021
0.000662726
0.000775553
0.000889534
0.0010003
0.00110871
0.00121189
0.00131178
9.91419e-05
0.000209877
0.000336016
0.000452719
0.000563536
0.000674559
0.000786065
0.000897852
0.00100662
0.00111246
0.00121342
0.00131259
9.97253e-05
0.000217277
0.000345997
0.000463257
0.000574547
0.00068485
0.000795033
0.000904826
0.00101167
0.00111518
0.00121414
0.00131302
0.000100343
0.000223927
0.000355175
0.000472861
0.000584331
0.000693858
0.00080273
0.000910682
0.00101568
0.00111706
0.00121438
0.00131359
0.000100975
0.000229892
0.000363702
0.00048172
0.000593117
0.000701806
0.000809375
0.000915612
0.00101881
0.00111826
0.00121416
0.00131331
0.000101618
0.000235211
0.000371666
0.000489931
0.000601075
0.000708884
0.00081515
0.000919744
0.00102123
0.00111891
0.00121361
0.00131253
0.000102268
0.000239938
0.000379134
0.000497586
0.000608323
0.000715216
0.000820192
0.000923213
0.00102306
0.00111915
0.00121298
0.00131274
0.000102916
0.000244103
0.00038614
0.000504757
0.000614968
0.000720915
0.000824615
0.00092612
0.0010244
0.00111909
0.00121226
0.00131212
0.000103561
0.000247752
0.000392723
0.000511485
0.000621103
0.000726077
0.000828506
0.000928549
0.00102534
0.00111877
0.00121134
0.00131046
0.000104198
0.000250941
0.000398905
0.000517816
0.000626782
0.000730759
0.000831944
0.000930567
0.00102596
0.00111821
0.00120999
0.00130793
0.000104828
0.000253682
0.0004047
0.000523798
0.000632063
0.00073504
0.000834989
0.000932251
0.0010263
0.00111745
0.00120851
0.00130571
0.000105444
0.000256029
0.000410108
0.000529446
0.000636993
0.000738952
0.000837686
0.000933622
0.00102641
0.00111653
0.00120685
0.00130279
0.000106049
0.000258003
0.000415134
0.000534786
0.000641607
0.000742548
0.000840086
0.000934749
0.00102632
0.00111545
0.00120498
0.00129987
0.000106635
0.000259649
0.0004198
0.000539846
0.00064595
0.000745874
0.000842233
0.000935639
0.00102605
0.00111422
0.00120291
0.00129648
0.000107204
0.000261
0.000424098
0.000544627
0.000650024
0.000748937
0.000844135
0.000936347
0.00102563
0.00111288
0.00120073
0.00129315
0.000107759
0.000262074
0.000428047
0.000549146
0.000653874
0.000751778
0.000845842
0.00093688
0.00102509
0.00111142
0.00119844
0.00128983
0.000108299
0.00026291
0.000431641
0.00055341
0.000657496
0.000754415
0.000847358
0.000937256
0.00102442
0.00110985
0.00119598
0.00128604
0.00010882
0.00026352
0.000434888
0.000557436
0.000660927
0.00075686
0.000848707
0.000937497
0.00102365
0.00110819
0.00119337
0.00128215
0.000109315
0.000263942
0.000437807
0.000561211
0.000664162
0.000759141
0.000849913
0.000937624
0.00102278
0.00110643
0.00119068
0.00127906
0.000109802
0.000264186
0.000440398
0.000564753
0.000667219
0.000761271
0.000850991
0.000937651
0.00102183
0.00110457
0.00118789
0.00127541
0.000110262
0.00026427
0.000442669
0.000568074
0.00067011
0.000763262
0.000851945
0.000937571
0.0010208
0.00110264
0.0011851
0.00127238
0.000110707
0.000264225
0.000444631
0.000571168
0.000672843
0.000765116
0.000852788
0.000937409
0.00101969
0.00110064
0.00118226
0.00126888
0.000111135
0.000264052
0.000446295
0.000574026
0.000675421
0.000766852
0.000853535
0.000937165
0.00101851
0.00109861
0.00117948
0.00126613
0.00011154
0.000263786
0.000447687
0.000576664
0.000677842
0.000768469
0.000854195
0.000936847
0.00101728
0.00109654
0.00117679
0.00126358
0.000111926
0.000263421
0.000448796
0.000579094
0.000680119
0.000769981
0.000854759
0.00093647
0.001016
0.00109445
0.00117409
0.0012602
0.000112292
0.000262958
0.000449656
0.000581298
0.000682257
0.000771386
0.000855251
0.000936024
0.00101468
0.00109235
0.00117141
0.0012574
0.000112634
0.000262447
0.000450255
0.000583289
0.000684247
0.000772698
0.000855667
0.000935532
0.00101333
0.00109024
0.0011687
0.00125399
0.000112966
0.000261862
0.000450633
0.000585061
0.000686103
0.000773913
0.00085602
0.000934981
0.00101194
0.00108811
0.00116601
0.00125111
0.000113285
0.000261224
0.000450779
0.000586639
0.000687826
0.000775042
0.000856301
0.000934393
0.00101053
0.00108598
0.00116328
0.00124752
0.000113573
0.000260552
0.000450731
0.000588005
0.00068941
0.000776081
0.000856529
0.000933764
0.00100909
0.00108383
0.00116056
0.00124447
0.000113849
0.000259843
0.000450479
0.000589183
0.000690863
0.000777031
0.000856697
0.000933097
0.00100763
0.00108167
0.00115782
0.00124085
0.000114117
0.000259106
0.00045006
0.000590147
0.00069218
0.000777903
0.000856816
0.000932393
0.00100614
0.00107951
0.0011551
0.00123808
0.000114351
0.00025834
0.00044946
0.000590932
0.000693368
0.000778689
0.000856874
0.000931648
0.00100464
0.00107736
0.00115246
0.00123559
0.000114579
0.000257558
0.000448704
0.000591521
0.000694421
0.000779399
0.000856888
0.000930881
0.00100313
0.0010752
0.00114982
0.0012323
0.000114787
0.000256763
0.000447806
0.000591931
0.000695348
0.00078002
0.000856853
0.000930088
0.00100161
0.00107305
0.00114719
0.00122912
0.000114974
0.00025596
0.000446778
0.000592169
0.000696153
0.000780576
0.000856771
0.000929264
0.00100008
0.00107091
0.00114454
0.00122576
0.000115153
0.000255138
0.000445626
0.000592229
0.000696826
0.000781046
0.000856644
0.000928422
0.000998537
0.00106876
0.00114178
0.0012219
0.000115307
0.000254236
0.000444339
0.000592125
0.000697369
0.000781443
0.000856473
0.000927553
0.000996986
0.00106659
0.00113901
0.00121912
0.000115453
0.000253303
0.000442957
0.000591864
0.000697793
0.000781761
0.000856259
0.000926668
0.000995429
0.00106441
0.00113624
0.00121576
0.000115573
0.000252306
0.00044143
0.000591438
0.000698087
0.000782
0.000856
0.000925756
0.000993855
0.00106222
0.00113351
0.00121302
0.000115677
0.000251304
0.000439742
0.000590861
0.000698264
0.000782159
0.0008557
0.000924823
0.000992272
0.00106003
0.00113078
0.00120958
0.000115769
0.000250339
0.000437929
0.000590112
0.00069831
0.000782248
0.000855363
0.00092387
0.000990683
0.00105783
0.00112808
0.00120705
0.000115848
0.00024932
0.000436025
0.000589157
0.00069821
0.000782258
0.000854976
0.000922897
0.000989078
0.00105564
0.00112539
0.00120369
0.000115903
0.000248333
0.000434026
0.000588065
0.000697978
0.000782178
0.000854546
0.000921902
0.000987469
0.00105345
0.00112274
0.00120109
0.000115947
0.000247348
0.000431989
0.000586805
0.000697607
0.00078202
0.000854073
0.00092088
0.000985852
0.00105127
0.0011201
0.00119789
0.00011598
0.000246369
0.000429842
0.000585398
0.000697109
0.000781763
0.000853553
0.000919842
0.00098422
0.00104908
0.00111749
0.00119531
0.000116
0.000245433
0.000427639
0.000583851
0.000696484
0.000781434
0.000852985
0.000918782
0.000982591
0.00104691
0.00111483
0.00119174
0.000116004
0.000244458
0.000425381
0.00058215
0.000695717
0.000781004
0.000852367
0.000917693
0.000980952
0.00104474
0.00111219
0.0011884
0.000115993
0.000243537
0.000423083
0.000580343
0.000694824
0.000780491
0.000851699
0.000916593
0.000979309
0.00104258
0.00110959
0.00118611
0.000115975
0.00024262
0.000420745
0.000578392
0.000693795
0.000779891
0.000850989
0.000915466
0.000977662
0.00104042
0.00110703
0.0011834
0.000115935
0.000241713
0.000418376
0.000576327
0.000692641
0.000779198
0.000850223
0.000914317
0.000976009
0.00103827
0.00110451
0.00118073
0.000115879
0.000240812
0.00041598
0.000574153
0.000691367
0.000778405
0.000849404
0.000913143
0.00097435
0.00103613
0.00110198
0.0011774
0.00011582
0.000239966
0.000413566
0.000571878
0.000689955
0.000777528
0.000848535
0.000911941
0.000972683
0.001034
0.00109946
0.00117452
0.000115744
0.000239086
0.000411137
0.000569483
0.000688427
0.000776558
0.000847599
0.000910716
0.000971016
0.00103188
0.0010969
0.00117084
0.00011565
0.00023826
0.000408695
0.000567
0.000686767
0.000775477
0.00084662
0.000909468
0.000969347
0.00102977
0.00109438
0.0011689
0.000115556
0.000237448
0.000406282
0.000564456
0.000685007
0.000774313
0.000845566
0.000908182
0.000967661
0.00102765
0.00109188
0.00116614
0.000115441
0.000236673
0.000403829
0.000561807
0.000683117
0.000773042
0.000844456
0.000906872
0.000965974
0.00102554
0.00108939
0.00116305
0.000115312
0.000235874
0.000401374
0.000559082
0.000681098
0.000771669
0.000843279
0.000905524
0.000964277
0.00102345
0.00108688
0.00115961
0.000115172
0.000235127
0.000398929
0.000556287
0.000678989
0.000770201
0.000842036
0.000904155
0.00096257
0.00102135
0.00108438
0.00115668
0.000115025
0.000234393
0.000396521
0.000553408
0.000676758
0.000768629
0.000840738
0.00090275
0.000960864
0.00101925
0.00108185
0.00115324
0.000114862
0.000233702
0.00039409
0.000550495
0.000674426
0.000766968
0.000839366
0.000901313
0.000959138
0.00101716
0.00107932
0.00115041
0.000114694
0.000233017
0.0003917
0.000547527
0.000671981
0.000765208
0.000837927
0.000899842
0.000957402
0.00101505
0.00107677
0.00114716
0.000114489
0.000232322
0.000389319
0.000544486
0.000669453
0.000763345
0.000836422
0.000898326
0.000955643
0.00101294
0.00107424
0.0011445
0.000114315
0.000231683
0.000386969
0.000541423
0.000666825
0.000761388
0.000834847
0.000896771
0.000953871
0.00101082
0.00107169
0.00114123
0.000114095
0.000231062
0.000384632
0.000538322
0.000664094
0.000759328
0.000833192
0.000895171
0.000952074
0.0010087
0.00106916
0.00113829
0.000113854
0.00023046
0.000382319
0.000535178
0.000661292
0.000757179
0.000831461
0.000893528
0.000950265
0.00100658
0.00106661
0.00113492
0.000113629
0.000229854
0.000380045
0.000531989
0.000658384
0.000754929
0.000829658
0.000891835
0.000948431
0.00100444
0.00106406
0.001132
0.000113384
0.000229343
0.000377783
0.000528786
0.000655404
0.000752568
0.000827779
0.000890096
0.000946571
0.00100228
0.00106147
0.00112854
0.000113132
0.000228771
0.000375596
0.000525601
0.000652353
0.000750126
0.000825814
0.000888308
0.000944692
0.00100012
0.00105887
0.00112515
0.000112861
0.000228285
0.000373361
0.000522328
0.000649188
0.000747572
0.000823762
0.000886465
0.000942774
0.000997941
0.00105626
0.00112212
0.000112581
0.000227817
0.00037123
0.000519084
0.000645997
0.00074494
0.00082165
0.00088457
0.000940835
0.000995749
0.00105366
0.00111885
0.000112262
0.000227302
0.000369105
0.000515813
0.000642715
0.000742227
0.000819449
0.000882627
0.000938866
0.00099354
0.00105107
0.00111612
0.00011196
0.000226855
0.000367034
0.000512549
0.000639365
0.000739408
0.000817165
0.000880614
0.000936849
0.000991313
0.00104845
0.00111282
0.000111665
0.000226481
0.00036501
0.000509274
0.000635966
0.0007365
0.000814799
0.000878548
0.000934808
0.000989064
0.00104582
0.0011099
0.000111328
0.000226058
0.000363007
0.000506009
0.000632506
0.000733514
0.00081235
0.000876422
0.000932718
0.000986796
0.00104317
0.00110652
0.000110965
0.000225678
0.000361058
0.00050274
0.000629003
0.000730438
0.000809817
0.000874231
0.000930597
0.000984499
0.00104054
0.00110382
0.000110622
0.000225333
0.000359122
0.00049949
0.000625437
0.000727271
0.000807195
0.000871968
0.000928432
0.000982176
0.00103788
0.00110064
0.000110256
0.000224999
0.000357274
0.000496231
0.000621813
0.000724008
0.000804496
0.00086964
0.000926216
0.000979829
0.00103519
0.00109707
0.000109878
0.000224698
0.000355476
0.00049301
0.000618163
0.000720691
0.0008017
0.000867241
0.000923954
0.00097746
0.00103248
0.00109376
0.00010949
0.000224419
0.000353705
0.000489814
0.000614469
0.000717285
0.000798817
0.000864767
0.000921643
0.000975055
0.00102979
0.00109106
0.000109089
0.000224159
0.000351987
0.000486643
0.000610727
0.000713805
0.000795859
0.00086222
0.000919281
0.000972623
0.00102707
0.00108784
0.000108648
0.000223905
0.000350307
0.00048345
0.000606988
0.000710259
0.000792804
0.000859615
0.00091686
0.000970147
0.00102435
0.00108502
0.000108224
0.000223683
0.000348675
0.00048031
0.000603209
0.00070662
0.000789672
0.000856914
0.00091439
0.000967643
0.00102159
0.00108157
0.000107783
0.000223488
0.000347101
0.000477228
0.000599376
0.000702924
0.000786438
0.000854138
0.000911868
0.00096511
0.00101885
0.00107878
0.000107329
0.000223321
0.000345582
0.000474165
0.000595562
0.000699149
0.000783115
0.000851283
0.000909276
0.000962544
0.00101612
0.00107605
0.000106863
0.000223177
0.000344077
0.000471116
0.000591706
0.000695304
0.000779715
0.000848342
0.00090661
0.000959919
0.00101339
0.00107372
0.000106384
0.000223058
0.000342674
0.000468144
0.000587863
0.000691426
0.000776228
0.000845328
0.000903894
0.000957271
0.00101061
0.00106999
0.000105893
0.000222971
0.000341326
0.000465182
0.000583987
0.00068746
0.000772665
0.000842233
0.000901113
0.000954591
0.00100783
0.00106706
0.000105362
0.000222849
0.000339994
0.000462272
0.000580113
0.000683445
0.000769014
0.000839042
0.000898262
0.000951865
0.00100498
0.00106349
0.000104871
0.000222833
0.000338732
0.000459418
0.000576238
0.000679353
0.000765272
0.000835766
0.000895339
0.00094908
0.00100209
0.00106019
0.00010431
0.000222776
0.000337534
0.000456619
0.00057235
0.000675252
0.000761439
0.000832395
0.00089235
0.000946241
0.000999123
0.0010565
0.000103764
0.000222764
0.000336404
0.000453886
0.00056851
0.000671074
0.000757531
0.000828944
0.000889276
0.000943335
0.000996139
0.00105345
0.000103202
0.000222744
0.000335302
0.000451182
0.000564657
0.000666865
0.00075354
0.000825394
0.000886114
0.000940361
0.000993067
0.00104976
0.000102625
0.000222811
0.000334273
0.000448552
0.000560829
0.000662596
0.000749459
0.000821766
0.000882875
0.000937336
0.000989992
0.00104658
0.000102006
0.000222796
0.000333314
0.000445992
0.000557005
0.000658322
0.000745312
0.000818038
0.00087956
0.000934236
0.000986829
0.0010429
0.000101398
0.000222885
0.000332387
0.000443473
0.000553214
0.000653976
0.000741088
0.000814199
0.000876142
0.000931066
0.000983683
0.00104004
0.000100776
0.000222968
0.000331542
0.00044104
0.000549468
0.000649638
0.000736776
0.000810275
0.000872635
0.000927809
0.00098047
0.00103658
0.000100138
0.000223098
0.000330775
0.000438657
0.000545737
0.000645256
0.000732402
0.000806268
0.000869041
0.000924502
0.000977179
0.00103276
9.94839e-05
0.000223265
0.000330042
0.000436366
0.00054206
0.000640864
0.000727945
0.000802151
0.00086535
0.000921112
0.000973862
0.00102946
9.88134e-05
0.000223426
0.000329396
0.000434167
0.000538411
0.000636441
0.000723432
0.000797944
0.000861554
0.000917632
0.000970514
0.00102637
9.80993e-05
0.000223572
0.000328791
0.000432031
0.000534825
0.000632
0.000718859
0.000793631
0.000857662
0.000914078
0.000967102
0.00102266
9.73935e-05
0.000223782
0.000328273
0.000429959
0.000531277
0.000627573
0.000714213
0.000789236
0.000853677
0.000910434
0.000963635
0.00101921
9.66428e-05
0.000223975
0.000327797
0.000428
0.000527815
0.000623164
0.000709502
0.000784735
0.000849575
0.000906694
0.000960037
0.00101519
9.58986e-05
0.000224237
0.000327421
0.000426152
0.000524409
0.00061875
0.000704751
0.000780131
0.000845363
0.000902849
0.000956341
0.00101105
9.51675e-05
0.000224575
0.000327096
0.00042435
0.000521094
0.000614344
0.000699941
0.000775452
0.000841051
0.000898901
0.000952588
0.00100732
9.4364e-05
0.000224831
0.00032683
0.000422707
0.00051785
0.000609977
0.000695087
0.000770689
0.000836619
0.000894842
0.000948684
0.00100311
9.35613e-05
0.000225161
0.000326663
0.000421113
0.00051468
0.000605632
0.000690212
0.000765806
0.00083207
0.000890669
0.000944752
0.000999479
9.27423e-05
0.000225547
0.000326552
0.000419652
0.000511633
0.000601345
0.000685299
0.000760857
0.00082742
0.000886387
0.000940723
0.000995274
9.18755e-05
0.000225873
0.000326541
0.000418293
0.000508668
0.000597073
0.000680375
0.000755824
0.000822655
0.00088202
0.000936628
0.000990982
9.10102e-05
0.000226283
0.0003266
0.000417073
0.000505809
0.000592875
0.000675405
0.000750714
0.000817763
0.000877491
0.000932356
0.00098711
9.01267e-05
0.000226753
0.000326683
0.000415924
0.000503057
0.00058874
0.000670443
0.000745496
0.000812735
0.00087281
0.000927947
0.000982573
8.92211e-05
0.00022719
0.00032693
0.000414934
0.000500466
0.000584706
0.000665483
0.000740232
0.000807613
0.000868026
0.000923473
0.00097844
8.82908e-05
0.000227705
0.00032721
0.000414073
0.000497999
0.000580737
0.00066056
0.000734908
0.00080237
0.00086308
0.000918816
0.000973649
8.73082e-05
0.000228168
0.000327615
0.000413375
0.00049568
0.000576901
0.000655637
0.000729527
0.000797004
0.000858032
0.000914108
0.000969258
8.62944e-05
0.000228699
0.000328052
0.000412774
0.000493516
0.000573181
0.000650789
0.000724129
0.000791559
0.000852841
0.000909247
0.000964342
8.53106e-05
0.00022934
0.000328634
0.000412353
0.000491523
0.00056959
0.000645969
0.000718678
0.000786028
0.000847539
0.000904255
0.00095931
8.42833e-05
0.000229948
0.000329304
0.000412063
0.000489736
0.000566155
0.000641248
0.000713207
0.000780362
0.000842043
0.000898986
0.000954289
8.31934e-05
0.000230569
0.000330072
0.000411967
0.000488113
0.00056289
0.000636622
0.000707754
0.000774608
0.000836405
0.000893596
0.000948861
8.20677e-05
0.000231216
0.000330942
0.000412037
0.000486703
0.000559818
0.000632112
0.000702298
0.000768791
0.000830654
0.000888127
0.000943874
8.0967e-05
0.000231993
0.000331918
0.000412267
0.000485547
0.000556957
0.000627727
0.000696903
0.000762902
0.000824728
0.000882389
0.000937903
7.97918e-05
0.000232721
0.000333014
0.000412723
0.000484608
0.000554339
0.00062354
0.00069155
0.000756969
0.000818691
0.000876474
0.00093204
7.85699e-05
0.000233487
0.000334233
0.000413391
0.000483965
0.000551994
0.00061956
0.000686317
0.000751013
0.000812516
0.000870335
0.000925641
7.73667e-05
0.000234385
0.000335578
0.000414248
0.000483583
0.000549943
0.000615795
0.00068119
0.000745064
0.00080624
0.000864028
0.00091919
7.60846e-05
0.00023524
0.000337068
0.000415378
0.000483524
0.00054823
0.000612335
0.000676238
0.000739137
0.000799847
0.000857523
0.000912409
7.4775e-05
0.000236156
0.000338697
0.000416737
0.000483814
0.00054688
0.000609165
0.000671482
0.000733245
0.000793349
0.000850853
0.000906026
7.34009e-05
0.000237082
0.00034046
0.000418414
0.00048448
0.000545924
0.000606372
0.00066695
0.000727391
0.000786739
0.000843917
0.000898761
7.19969e-05
0.000238059
0.000342436
0.000420382
0.000485569
0.000545435
0.000603944
0.000662671
0.000721634
0.000780053
0.000836815
0.000891656
7.05162e-05
0.00023899
0.000344573
0.000422695
0.000487074
0.00054537
0.000601894
0.000658646
0.00071598
0.000773265
0.000829437
0.000883764
6.89866e-05
0.000239974
0.000346892
0.000425319
0.000488986
0.000545729
0.000600231
0.000654864
0.000710359
0.000766331
0.00082172
0.000875784
6.73849e-05
0.000240837
0.000349313
0.000428266
0.000491233
0.000546447
0.000598934
0.00065144
0.00070495
0.000759366
0.000813776
0.000867687
6.54234e-05
0.000239883
0.000349743
0.000430112
0.000492374
0.000546403
0.00059711
0.000647805
0.000699355
0.000752586
0.000805849
0.000859204
0.000475755
0.00154599
0.00163835
0.00188069
0.00188235
0.000622924
0.000610969
0.000463931
0.00137317
0.00205803
0.0038105
0.00201741
0.00423479
0.00142515
0.000563311
0.00133188
0.00149634
0.00503895
0.00502361
0.00131803
0.000726114
0.000490424
0.00737531
0.00354599
0.000476487
0.0016404
0.000570304
0.000775584
0.00194087
0.00122672
0.00177977
0.000335926
0.0014618
0.00377506
0.00411939
0.00105679
0.000154751
0.00156874
0.000467103
0.00207044
0.00186087
0.00129235
0.00385916
0.00105684
0.000274438
0.000492396
0.00577634
0.00374039
0.000277511
0.000730487
0.00105759
0.000466439
0.000338437
0.00124158
0.00164787
0.001506
0.00238545
0.0012917
0.00156912
0.000561065
0.000618361
0.000336918
0.00124141
0.00286336
0.00423056
0.00152228
0.000933204
0.00031891
0.000656371
0.00227512
0.00172014
0.00531285
0.000465383
0.00109726
0.00357463
0.00127021
0.00138616
0.00123814
0.00560014
0.000465995
0.00455524
0.0012397
0.000196813
0.000382949
0.00284845
0.00160328
0.000934709
0.00124134
0.0026454
0.000198121
0.000576077
0.00146949
0.00124139
0.00140588
0.000350569
0.00127351
0.000774016
0.00163228
0.00124228
0.000943972
0.00076268
0.00322558
0.00128858
0.00148632
0.00123884
0.000350575
0.000355981
0.000422281
0.00132362
0.000246301
0.00151933
0.00123991
0.000444315
0.00136776
0.00124078
0.000519324
0.00315705
0.00225814
0.00155086
0.00429585
0.000783578
0.00377986
0.00147203
0.0035874
0.00443938
0.00281604
0.00141254
0.000260575
0.00403397
0.00124136
3.9264e-05
0.00124223
5.60649e-05
0.00148653
0.000565261
0.00163132
0.000172812
0.00241736
0.000445992
0.00175045
0.00296844
0.000685651
0.000461329
0.000448417
8.79369e-05
0.00163008
0.000466089
0.00152421
0.00140759
0.000578694
0.000620361
0.000512649
0.00124177
0.00444708
0.00356091
0.00124359
0.000442216
0.00126911
0.00165342
0.00192811
0.00368461
0.00133678
0.00452478
0.00260992
0.000769308
0.00334855
0.000276991
0.000254322
0.000547469
0.00123745
0.00155799
0.00109019
0.00164359
0.00304636
0.00123883
0.00160291
0.00123853
0.000411867
0.00235619
0.00133878
0.000277014
0.00524646
0.00426772
0.000470262
0.00129819
0.00046095
0.00125529
0.00124028
9.20921e-05
0.00124087
0.0023195
0.00124496
0.000395805
0.00155984
0.000449366
0.00055661
0.000610726
0.00053654
0.00123981
0.00221188
0.00146415
0.000461364
0.000281693
0.000461893
0.00047229
0.00696395
0.00416423
0.00317072
0.0011305
0.00271674
5.3538e-05
0.00138332
0.000467983
0.000412973
0.00123976
0.00046792
0.00251206
0.00146401
0.00222771
0.000190224
0.000385615
0.0014623
0.000420615
0.00124819
0.00125136
0.00277107
0.00159959
0.00126889
0.00107073
0.00412939
5.24701e-05
0.00445574
0.00124155
0.000904631
0.00149811
0.000474196
0.000463688
0.00148348
0.00111396
0.000455217
0.00424493
0.00593502
0.00434036
0.00268066
6.46272e-05
5.38505e-05
5.64507e-05
0.00132068
0.00390345
0.000466392
0.00221279
0.00109885
0.00232908
0.000350155
0.000232299
0.00283463
0.000984747
0.000452304
0.00207145
0.000427248
0.00271389
0.000472714
0.00294339
0.00416284
7.28593e-05
0.000469072
0.00130742
0.000476656
0.00146157
0.0012158
0.00069092
0.00525306
0.00138324
4.49175e-05
4.5684e-05
0.00138803
0.000176054
5.76257e-05
0.000281906
0.000137426
0.000377399
0.000173292
0.000466062
0.000470713
0.0013405
0.000608665
0.00161555
4.73345e-05
0.0013114
0.000758843
0.000136843
0.00146402
4.63333e-05
4.60234e-05
0.000445316
0.000397448
0.00189189
4.48888e-05
0.00584858
0.000381019
0.000459664
0.000992147
0.000498006
0.00177543
0.0037483
0.00151341
0.000286383
0.00124093
0.00526887
0.00474659
0.00565675
0.000184538
0.00124556
0.00129082
0.000460548
0.00433189
4.91558e-05
0.00121141
0.0012398
8.29231e-05
0.00462871
0.00207949
0.00149347
0.000236347
0.000453294
0.00121075
0.00141242
0.00124129
0.00125522
0.000183222
0.00132968
0.00124886
0.00217555
0.00124166
0.00125453
0.00126445
0.0012387
0.00763243
0.00124193
0.00173107
0.000785265
0.000473236
0.00124211
0.000527316
0.00229283
4.5551e-05
5.33934e-05
0.00164686
0.00140308
0.00137841
0.00123947
0.00126814
0.00633692
0.0022688
4.08678e-05
0.00123881
0.00493487
0.000366531
0.00134542
0.00235875
0.000102792
0.000267448
0.0013268
0.001488
0.000850245
0.00191588
0.00135624
0.00124133
0.00141308
0.00144106
0.00501168
9.65048e-05
0.000453471
0.000134127
0.00147586
0.000628383
0.000463216
0.00140006
0.00125292
0.00177263
0.00102211
0.00165019
0.00125999
0.000469382
0.000349253
0.000599026
0.00124612
0.00430288
0.000539465
0.00379318
0.00126064
0.00117278
0.0019167
0.000393763
0.000445561
0.00137485
0.00142011
0.0012439
0.00299837
0.00141283
0.00185161
0.00237465
0.000896448
0.0021775
0.00392898
0.000168655
0.00139344
0.00146866
6.48493e-05
0.000422248
0.00124075
0.00124989
0.00124195
0.00129397
0.00606609
0.000454595
0.000128201
0.000536432
0.000527533
0.00125596
0.000242324
0.000467463
0.00123813
0.00124758
0.00045618
0.00124797
0.00271222
0.00136854
0.000449743
0.00123866
0.00197472
0.00424419
0.00505711
0.000459888
0.00463724
0.00123831
0.00124072
0.00116072
0.00131874
0.00253464
0.000289489
4.03159e-05
0.00194292
0.000457699
0.00190314
0.000985566
0.00132707
0.000442328
0.00153546
0.001239
0.00197959
0.000459877
5.42772e-05
0.00221171
0.00198918
0.000689445
0.00163482
4.75799e-05
0.000423061
0.00443364
0.0005246
0.00341734
0.00497903
0.00245446
0.00132202
0.00129763
0.00175788
0.000690192
0.000571208
5.90193e-05
0.00359453
0.000282115
9.53911e-05
0.00123998
0.00178908
0.00133345
0.000442632
0.0012387
0.000327615
0.000881278
0.000373743
0.000203279
0.000468631
0.00244927
0.00442163
9.42127e-05
5.0204e-05
0.00134069
0.00310824
0.00124513
0.00419996
0.000910253
0.000318159
0.00138156
0.00424381
0.000158224
0.00107093
0.0011643
0.000469828
0.000224507
0.00122639
0.000479968
0.000311805
0.00127058
0.0034392
0.000401214
0.0007065
0.00136835
0.000190525
0.00185667
0.000449441
0.00127676
0.000944279
0.00336317
0.00124133
0.000661491
4.12183e-05
0.00124746
0.00149867
0.00214655
0.00427971
0.00146349
0.0012722
0.000466279
0.00124136
0.000293433
0.00149351
4.44077e-05
9.41451e-05
0.00186413
4.71823e-05
0.000814059
0.00124834
0.00159081
0.00126867
0.00403825
0.00134624
0.000378629
0.000446314
0.00193475
0.00134488
0.00368935
0.00177807
0.00262753
0.00173066
0.00123894
0.00466209
0.00123871
0.00571573
0.000559219
0.0045221
0.00097313
0.000646319
0.000433982
0.00489524
0.00317532
0.000456228
6.8672e-05
0.0012414
0.00124142
0.0010858
0.000715251
0.000389279
0.00243432
0.00535305
0.00129433
0.000328545
0.00123885
0.00419149
0.000473126
0.00158122
0.00127639
0.000492488
0.000104191
0.000389179
0.00258928
0.00124062
0.00341412
0.00124284
0.00139608
0.00296034
0.000369027
0.00159564
0.00125413
0.00140863
0.00588688
0.000418429
0.000913544
0.00138948
0.00021615
0.00423522
0.00124175
0.000570982
8.15112e-05
0.000458905
0.00327933
0.00123962
0.00145776
0.00129826
0.000464351
0.0012478
0.000724972
0.00104766
0.00127414
0.00178988
0.000396518
0.00137009
0.000983546
0.00116933
0.00134766
0.000756674
0.00490227
0.00338231
0.00123901
0.00124142
0.00159517
0.000460176
0.000471665
0.000461342
0.00158446
0.000763903
0.00393759
0.0011861
0.000469437
0.0013978
0.00248402
0.000325852
0.00123756
0.00209737
0.00028097
0.000277562
0.00126477
0.00124621
6.87933e-05
0.000185312
0.00132902
0.00396927
0.000820073
0.000413993
0.00125248
3.53094e-05
0.000686757
0.000702472
0.00168221
0.00104318
0.000858191
0.00141033
0.0012845
0.000449304
0.00013278
0.00126254
0.00124199
0.00141005
0.00116547
0.00156262
0.00123993
0.00214872
0.00124132
0.00117212
0.000499413
0.00485856
0.00124664
0.00146997
0.000610608
0.000356662
0.00199597
0.000195245
0.00741987
0.000799311
0.0013697
0.00124096
0.00309477
0.00140654
0.000230523
0.00153402
0.00175497
0.00238893
0.00227197
0.000133175
0.00123983
0.000772004
0.00117339
0.000457969
0.00128717
0.00491077
0.000366235
0.00031178
0.0018737
0.00519426
0.00154356
0.000465893
0.00254135
0.000467058
0.00124064
0.0019821
0.0013
0.00123744
0.000104459
0.00124153
4.68297e-05
0.00229813
0.00110705
0.00127204
0.00118536
0.000422939
0.00183621
0.00150744
0.00129584
0.00618894
0.00222935
0.0028107
0.00505348
0.00159632
0.00123913
0.00124153
0.000465264
0.00570181
5.87755e-05
0.000529679
0.00127943
4.63561e-05
4.06839e-05
4.47521e-05
0.00302547
0.000693748
3.7618e-05
0.00124133
0.000132989
0.000125578
0.00046443
0.0012423
0.0024203
0.00144059
0.000112815
0.00124309
0.00165684
0.0012391
0.00522122
0.00223273
0.00132965
0.000451711
0.00123977
0.0044816
0.000418245
0.00124246
0.00142631
0.00124071
0.00138426
0.00308104
0.00128228
0.00113062
0.00255171
0.000462592
0.00124018
0.00106672
0.00124198
0.000612552
0.00267033
0.0034974
0.000514986
0.00276572
0.00160994
0.00125865
0.00015743
0.00100401
0.00117469
5.33782e-05
0.000496877
0.00123808
0.000129547
0.000599887
0.000752692
0.00102178
0.00120797
0.00139497
0.00047563
0.00434225
0.00123653
0.00362942
0.0014339
0.00349037
0.000133419
0.000763629
0.00124721
0.000215025
0.000386204
0.00137312
0.00188063
0.0013064
0.000606667
0.000989508
0.00119202
0.00412888
0.00173467
0.000294244
0.000186322
0.00428484
0.000153202
0.00124848
5.08825e-05
0.00158607
0.00127971
0.00146708
0.00112719
0.00101848
0.00610848
0.00134985
0.00323876
0.0029097
0.00140206
0.00288896
0.00273358
0.00124195
0.0015037
0.00469891
4.41334e-05
0.000469427
4.46387e-05
0.000719007
0.00189197
0.00108525
0.0012407
0.00124167
0.000443015
0.00661638
0.0013299
0.0015608
0.00123855
0.0016074
0.00252031
0.00513363
0.00130609
0.00160242
0.00146318
0.00208204
0.00135868
0.00548575
0.000391126
0.000540104
0.00124066
0.000541597
0.00144938
0.00168496
0.00216891
4.80347e-05
0.00364109
0.00211329
0.000676094
0.0040239
0.00242745
0.00395348
0.00565737
0.00129848
3.94261e-05
0.00124135
0.00129107
0.000441462
0.00280917
0.00270491
0.00108695
0.000430594
0.00124162
0.0012418
0.0014793
0.000129914
0.00137802
0.00123822
0.00133765
0.00272249
0.000465493
0.00137834
5.2978e-05
0.00116273
0.00166761
0.000366549
0.00125647
0.00130501
0.000124876
0.000379094
0.000154285
0.00124385
0.00123962
0.0010918
0.00160897
0.00235765
0.00126762
0.00124272
0.00425099
0.00126155
0.0018149
0.0030402
0.00557634
0.00242818
0.00152083
0.00043825
5.52253e-05
0.00046061
0.00200465
0.00124287
0.000283678
0.00126948
0.000263118
0.00124124
0.00181152
0.00125756
0.00124113