/*--------------------------------*- C++ -*----------------------------------*\
| =========                 |                                                 |
| \\      /  F ield         | OpenFOAM: The Open Source CFD Toolbox           |
|  \\    /   O peration     | Version:  2.3.1                                 |
|   \\  /    A nd           | Web:      www.OpenFOAM.org                      |
|    \\/     M anipulation  |                                                 |
\*---------------------------------------------------------------------------*/
FoamFile
{
    version     2.0;
    format      ascii;
    class       volVectorField;
    location    "0.34";
    object      U;
}
// * * * * * * * * * * * * * * * * * * * * * * * * * * * * * * * * * * * * * //

dimensions      [0 1 -1 0 0 0 0];

internalField   nonuniform List<vector> 
15166
(
(5.97616 0.560054 3.1819e-19)
(7.18864 1.03464 1.59482e-18)
(8.27053 0.902287 -8.92431e-19)
(9.30218 0.956243 8.00313e-19)
(10.0968 1.02002 8.22708e-19)
(10.873 1.07471 4.33681e-19)
(11.5266 1.17303 -8.58474e-19)
(12.0683 1.2387 8.32017e-19)
(12.4632 1.33292 -4.2209e-19)
(12.7698 1.39231 1.6698e-18)
(12.9955 1.44769 -1.22649e-18)
(13.149 1.5059 1.2207e-18)
(6.66842 1.02659 4.88026e-19)
(7.60414 1.42534 5.245e-20)
(8.55654 1.20956 2.74712e-20)
(9.47792 1.22953 4.55422e-19)
(10.238 1.2493 -3.95368e-19)
(10.9653 1.27568 0)
(11.5822 1.33718 4.24511e-19)
(12.0874 1.38301 1.44291e-21)
(12.4656 1.44333 4.17868e-19)
(12.7588 1.48504 -8.42533e-19)
(12.9749 1.525 1.6551e-18)
(13.1326 1.56386 -1.23315e-18)
(7.2111 1.25776 -4.62386e-19)
(8.0396 1.56868 -2.47388e-18)
(8.90097 1.37662 4.87407e-19)
(9.72315 1.41061 -9.23975e-19)
(10.432 1.41719 -1.66036e-20)
(11.1026 1.43275 8.82922e-19)
(11.675 1.47223 -1.26808e-18)
(12.1414 1.50303 -4.35248e-19)
(12.4964 1.54113 8.3076e-19)
(12.7712 1.56842 6.0011e-21)
(12.9751 1.59458 -1.23675e-18)
(13.1284 1.61929 1.62143e-18)
(7.51733 1.37451 0)
(8.35244 1.62707 -1.08325e-18)
(9.18274 1.47837 2.54063e-18)
(9.948 1.52654 -1.44323e-18)
(10.6206 1.53136 9.2412e-19)
(11.2458 1.54603 1.36423e-18)
(11.7792 1.57461 -4.23444e-19)
(12.2121 1.59653 4.35265e-19)
(12.5445 1.62077 -8.50713e-19)
(12.8011 1.63745 8.40456e-19)
(12.9934 1.65231 4.17049e-19)
(13.142 1.66539 8.26736e-19)
(7.72866 1.44808 -6.24798e-19)
(8.59409 1.66279 -5.79434e-19)
(9.40898 1.55354 -1.57325e-18)
(10.1401 1.6073 1.48419e-18)
(10.7887 1.61247 -4.70156e-19)
(11.3806 1.62856 -4.55511e-19)
(11.8831 1.6513 -4.44311e-19)
(12.2889 1.66787 4.50694e-19)
(12.6016 1.68341 -4.29384e-19)
(12.8422 1.69282 -4.23044e-19)
(13.024 1.70014 -1.262e-18)
(13.1657 1.70647 -4.66719e-21)
(7.91636 1.49953 1.23823e-18)
(8.81099 1.68534 1.17399e-18)
(9.60931 1.60984 -1.09799e-18)
(10.3137 1.66495 2.07363e-18)
(10.9424 1.67172 -1.98226e-18)
(11.5073 1.68937 9.49217e-19)
(11.9844 1.70848 0)
(12.3678 1.72146 9.04306e-19)
(12.6636 1.73129 -1.7612e-18)
(12.8904 1.73557 8.60984e-19)
(13.0624 1.73746 0)
(13.197 1.73854 1.25515e-18)
(8.08918 1.5339 -6.73805e-19)
(9.01216 1.69563 6.20204e-19)
(9.79415 1.64881 0)
(10.4762 1.70376 0)
(11.0863 1.71335 5.18566e-19)
(11.628 1.73261 4.97306e-19)
(12.0832 1.74949 -9.50256e-19)
(12.4474 1.76005 1.38306e-18)
(12.7283 1.766 4.53823e-19)
(12.9432 1.76643 0)
(13.1068 1.76387 4.35308e-19)
(13.2362 1.76068 0)
(8.24377 1.55451 -1.36152e-18)
(9.19547 1.69621 1.25443e-18)
(9.96362 1.67338 5.7419e-19)
(10.6274 1.72728 5.61355e-19)
(11.221 1.74021 -2.61664e-18)
(11.7426 1.76101 5.09199e-19)
(12.1787 1.77669 0)
(12.5265 1.78575 -4.65365e-19)
(12.7945 1.78916 4.64512e-19)
(12.999 1.78695 2.76415e-21)
(13.1552 1.78144 -8.70343e-19)
(13.2783 1.77564 8.5849e-19)
(8.38134 1.56427 1.40104e-18)
(9.3614 1.68954 -1.28985e-18)
(10.1182 1.68676 5.89576e-19)
(10.7673 1.73897 -1.68908e-18)
(11.3463 1.75517 2.1545e-18)
(11.8505 1.77722 -2.06306e-18)
(12.2703 1.79232 9.93249e-19)
(12.6039 1.8005 0)
(12.8607 1.80233 4.72486e-19)
(13.0564 1.79842 0)
(13.206 1.79085 9.00728e-19)
(13.3236 1.7826 -4.36733e-19)
(8.50505 1.56554 1.44074e-18)
(9.51258 1.67733 0)
(10.2598 1.69136 6.2269e-19)
(10.8966 1.74146 5.87581e-19)
(11.4626 1.76059 5.58198e-19)
(11.9519 1.78353 5.33937e-19)
(12.3575 1.79837 0)
(12.679 1.80608 0)
(12.9262 1.80694 -1.42633e-18)
(13.1143 1.80194 2.32943e-18)
(13.2581 1.79309 -9.01794e-19)
(13.3706 1.78466 -1.33885e-18)
(8.61763 1.5601 1.47014e-18)
(9.65154 1.66077 -2.01287e-18)
(10.3907 1.68881 1.89265e-18)
(11.0168 1.73659 -1.77207e-18)
(11.571 1.75822 -5.56223e-19)
(12.0472 1.78171 -5.3262e-19)
(12.4404 1.79645 1.03533e-18)
(12.7513 1.8039 -1.00342e-18)
(12.9902 1.80423 -1.46212e-18)
(13.1718 1.79858 -4.67189e-19)
(13.3106 1.78861 1.85536e-18)
(13.4182 1.77882 -8.93313e-19)
(8.72078 1.54911 -1.50616e-18)
(9.77996 1.64051 -2.04836e-18)
(10.5122 1.68025 -3.17878e-19)
(11.129 1.7256 1.21136e-18)
(11.6723 1.74932 8.56224e-19)
(12.1368 1.7731 -2.19862e-18)
(12.5191 1.78782 2.11402e-18)
(12.8209 1.79516 -3.85435e-21)
(13.0525 1.79527 -1.49001e-18)
(13.2283 1.78951 9.65345e-19)
(13.3623 1.77938 -4.66043e-19)
(13.4653 1.76875 9.04895e-19)
(8.81563 1.53353 -1.14745e-18)
(9.89901 1.61715 -3.53321e-19)
(10.6255 1.66658 3.22338e-19)
(11.2338 1.70948 0)
(11.7672 1.73489 2.89454e-19)
(12.2212 1.75874 -2.82576e-19)
(12.5938 1.77345 0)
(12.8875 1.78075 0)
(13.1126 1.78081 2.54024e-19)
(13.283 1.77512 0)
(13.412 1.7654 0)
(13.5091 1.75489 -9.15326e-19)
(8.90319 1.51408 -3.86577e-19)
(10.0098 1.59109 3.51674e-19)
(10.7314 1.64854 0)
(11.332 1.689 0)
(11.8562 1.71573 1.18678e-18)
(12.3009 1.73944 -8.60069e-19)
(12.6648 1.7541 1.09162e-18)
(12.9512 1.76131 -1.06006e-18)
(13.1707 1.76118 7.67443e-19)
(13.3367 1.75503 -5.6759e-21)
(13.4622 1.74447 -1.93742e-18)
(13.5566 1.73676 1.17872e-18)
(8.98419 1.49133 -1.58873e-18)
(10.1131 1.56266 0)
(10.8308 1.62672 1.34218e-18)
(11.4242 1.66479 -1.59538e-18)
(11.9399 1.6925 0)
(12.3761 1.71592 2.91697e-19)
(12.7322 1.73052 1.10872e-18)
(13.0123 1.73769 -2.41831e-18)
(13.2268 1.73769 2.08085e-18)
(13.389 1.7319 -1.01393e-18)
(13.5113 1.72137 9.80767e-19)
(13.6027 1.70806 -1.19415e-18)
(9.0593 1.46576 3.4808e-21)
(10.2097 1.53214 7.35094e-19)
(10.9241 1.6016 0)
(11.511 1.63734 3.19508e-19)
(12.0188 1.66575 0)
(12.4471 1.68879 8.79175e-19)
(12.7963 1.7033 -7.81665e-21)
(13.0707 1.71045 -8.2352e-19)
(13.2808 1.71058 0)
(13.4393 1.70512 -2.58179e-19)
(13.5582 1.69504 2.51143e-19)
(13.6468 1.68037 0)
(9.1291 1.43778 4.02067e-19)
(10.3001 1.49977 -1.11872e-18)
(11.0119 1.57359 1.03817e-18)
(11.5927 1.60706 -4.57734e-21)
(12.0931 1.63593 3.08924e-19)
(12.5144 1.6585 -2.97651e-19)
(12.8572 1.67288 0)
(13.1265 1.67998 0)
(13.3326 1.68021 1.06696e-18)
(13.4879 1.67496 -7.85577e-19)
(13.6037 1.6654 -5.05744e-19)
(13.689 1.65175 -2.45439e-19)
(9.19398 1.40765 4.11138e-19)
(10.385 1.46566 3.72491e-19)
(11.0948 1.54299 -3.47492e-19)
(11.6698 1.57429 6.59065e-19)
(12.1634 1.60339 -1.57245e-18)
(12.578 1.62543 3.06122e-19)
(12.9151 1.63965 0)
(13.1797 1.64672 5.58087e-19)
(13.3823 1.64707 -5.44834e-19)
(13.5348 1.64204 -7.90046e-19)
(13.6481 1.63291 2.58543e-19)
(13.7311 1.62047 7.43468e-19)
(9.25437 1.37566 0)
(10.4647 1.43 0)
(11.173 1.51012 0)
(11.7426 1.5393 3.36873e-19)
(12.2297 1.56846 0)
(12.6383 1.58991 6.0831e-19)
(12.97 1.60394 -8.85701e-19)
(13.2305 1.61097 0)
(13.4298 1.61152 -5.47395e-19)
(13.5798 1.60682 5.32515e-19)
(13.6909 1.59813 0)
(13.772 1.58597 0)
(9.31065 1.34203 2.12106e-18)
(10.5396 1.3929 -1.53724e-18)
(11.2469 1.47518 7.18169e-19)
(11.8115 1.50232 -1.00996e-18)
(12.2925 1.53138 1.28957e-18)
(12.6954 1.55219 -9.24838e-19)
(13.0223 1.566 8.92482e-19)
(13.2789 1.573 2.82995e-19)
(13.4753 1.57376 -1.1126e-18)
(13.6227 1.56947 8.10874e-19)
(13.7318 1.5614 0)
(13.8108 1.54891 0)
(9.36307 1.30694 -1.71614e-18)
(10.6101 1.35449 0)
(11.3167 1.43839 0)
(11.8765 1.46356 -6.80907e-19)
(12.3518 1.49236 6.54271e-19)
(12.7495 1.51249 -9.32422e-19)
(13.0719 1.52604 5.11694e-21)
(13.3249 1.53296 8.72027e-19)
(13.5186 1.53387 5.60251e-19)
(13.6638 1.52987 -5.48747e-19)
(13.7706 1.52231 -2.66988e-19)
(13.8476 1.50951 0)
(9.41179 1.27056 -1.29902e-18)
(10.6764 1.31488 1.18095e-18)
(11.3828 1.39994 0)
(11.9382 1.42316 -6.87422e-19)
(12.408 1.45159 9.91798e-19)
(12.8008 1.47102 0)
(13.1189 1.48426 0)
(13.3688 1.49104 2.95138e-19)
(13.56 1.49199 5.66239e-19)
(13.7032 1.4881 -5.5475e-19)
(13.8085 1.48069 5.36886e-19)
(13.8843 1.46971 0)
(9.45729 1.23293 -4.25706e-21)
(10.7389 1.27402 -1.18728e-18)
(11.4454 1.35992 0)
(11.9965 1.38127 1.04376e-18)
(12.4612 1.40925 -9.97596e-19)
(12.8493 1.42794 3.20338e-19)
(13.1637 1.44084 3.08487e-19)
(13.4106 1.44749 -8.85419e-19)
(13.5995 1.44856 5.77262e-19)
(13.7411 1.44495 -2.80385e-19)
(13.845 1.43794 2.68812e-21)
(13.9198 1.42815 0)
(9.49909 1.19411 -8.79262e-19)
(10.7975 1.23205 8.01226e-19)
(11.5045 1.31854 0)
(12.0516 1.33804 -3.4941e-19)
(12.5116 1.36548 0)
(12.8954 1.38341 -3.19945e-19)
(13.2062 1.39597 3.09369e-21)
(13.4503 1.40249 3.00868e-19)
(13.6373 1.40366 -2.91538e-19)
(13.7773 1.40028 -2.69515e-21)
(13.88 1.39348 -2.53369e-21)
(13.9538 1.3849 -1.07092e-18)
(9.53784 1.15459 -4.47754e-19)
(10.8526 1.18938 -8.0161e-19)
(11.5604 1.27596 7.514e-19)
(12.1039 1.29361 3.55788e-19)
(12.5592 1.32043 0)
(12.939 1.3376 3.25912e-19)
(13.2464 1.34979 -6.25141e-19)
(13.4881 1.35617 -5.98776e-19)
(13.6732 1.35742 8.8006e-19)
(13.8118 1.3543 -2.58341e-21)
(13.9135 1.34773 -2.47617e-21)
(13.9864 1.3396 2.6889e-19)
(9.57407 1.11416 4.42688e-19)
(10.9045 1.14571 -8.14101e-19)
(11.6133 1.23221 -3.79248e-19)
(12.1533 1.24808 -3.55147e-19)
(12.6043 1.27424 -3.42249e-19)
(12.9802 1.29063 3.25642e-19)
(13.2846 1.30243 -1.26399e-18)
(13.5239 1.30864 2.92276e-21)
(13.7073 1.30997 0)
(13.8447 1.30709 8.57073e-19)
(13.9456 1.30076 -2.83035e-19)
(14.0181 1.29361 -2.71684e-19)
(9.60737 1.07287 -4.54721e-19)
(10.9533 1.10114 0)
(11.6633 1.1874 3.14666e-21)
(12.2 1.20151 3.60978e-19)
(12.6469 1.22696 6.86509e-19)
(13.0192 1.24257 3.25267e-19)
(13.3207 1.25398 -1.27403e-18)
(13.5579 1.26003 3.11897e-19)
(13.7397 1.26148 8.98086e-19)
(13.876 1.25893 0)
(13.9761 1.25298 0)
(14.0482 1.2457 0)
(9.63768 1.03073 1.82457e-18)
(10.999 1.0557 -8.1943e-19)
(11.7105 1.14164 7.71034e-19)
(12.2441 1.15401 -3.6041e-19)
(12.6871 1.17871 6.97158e-19)
(13.056 1.19354 9.91892e-19)
(13.3548 1.20453 -9.62094e-19)
(13.59 1.21041 5.94019e-21)
(13.7704 1.21191 1.20396e-18)
(13.9056 1.20961 -8.79499e-19)
(14.0048 1.20417 2.84892e-19)
(14.0761 1.19771 -5.44743e-19)
(9.66537 0.9881 -4.57526e-19)
(11.0416 1.00975 -4.15055e-19)
(11.755 1.09504 -3.83892e-19)
(12.2857 1.10564 -7.25452e-19)
(12.7251 1.12956 -3.40646e-19)
(13.0907 1.1436 3.36207e-19)
(13.3869 1.15417 3.18347e-19)
(13.6203 1.15985 -9.35204e-19)
(13.7994 1.16136 3.06821e-19)
(13.9337 1.1592 5.88143e-19)
(14.0323 1.15393 -2.85001e-19)
(14.1029 1.14906 -2.79629e-19)
(9.69053 0.944895 -9.20151e-19)
(11.0815 0.963186 1.66866e-18)
(11.7969 1.04768 0)
(12.325 1.05648 0)
(12.7608 1.07961 0)
(13.1234 1.09284 6.73215e-19)
(13.4172 1.10296 6.49604e-19)
(13.6489 1.10845 -3.13186e-19)
(13.8268 1.10999 3.05954e-19)
(13.9604 1.10807 2.05894e-21)
(14.0585 1.10303 -5.73416e-19)
(14.1286 1.09846 5.60695e-19)
(9.7136 0.901353 9.30673e-19)
(11.119 0.916093 -2.07099e-19)
(11.8363 0.999499 -1.95686e-19)
(12.362 1.00658 0)
(12.7944 1.02889 0)
(13.1541 1.04131 -3.37565e-19)
(13.4457 1.051 3.2492e-19)
(13.6758 1.05629 -6.3596e-19)
(13.8526 1.05787 3.04998e-19)
(13.9855 1.05615 -8.9702e-19)
(14.0831 1.0514 0)
(14.153 1.04738 -2.81457e-19)
(9.73404 0.857301 -1.86789e-18)
(11.1536 0.8683 6.36429e-19)
(11.8733 0.950509 1.95476e-19)
(12.3966 0.955952 -5.52313e-19)
(12.826 0.977462 7.11797e-19)
(13.1828 0.989091 0)
(13.4723 0.998344 6.54712e-19)
(13.701 1.00343 -6.40027e-19)
(13.8769 1.00503 0)
(14.0091 1.00357 0)
(14.1062 0.999167 0)
(14.1757 0.994588 5.60331e-19)
(9.75212 0.81325 0)
(11.1856 0.820363 0)
(11.9078 0.900937 -3.92573e-19)
(12.4292 0.904709 1.69556e-21)
(12.8555 0.925402 0)
(13.2097 0.936242 -6.82066e-19)
(13.4972 0.945052 1.48935e-18)
(13.7245 0.949909 -4.8327e-19)
(13.8996 0.951498 -6.18686e-19)
(14.0312 0.950172 1.57675e-19)
(14.128 0.946042 6.05304e-21)
(14.1971 0.941758 5.77199e-19)
(9.76815 0.768805 4.70942e-19)
(11.2152 0.771781 -2.14247e-19)
(11.9401 0.850731 1.98675e-19)
(12.4595 0.852926 -1.86182e-19)
(12.883 0.872778 8.95564e-19)
(13.2347 0.882823 -1.73357e-19)
(13.5204 0.891186 -4.9697e-19)
(13.7465 0.895831 -3.18984e-19)
(13.9208 0.897429 3.14296e-19)
(14.052 0.896305 -3.0403e-19)
(14.1484 0.892561 1.48319e-19)
(14.2173 0.888303 -1.41509e-19)
(9.78214 0.723948 7.11759e-19)
(11.2423 0.722698 -6.42634e-19)
(11.9701 0.799992 -1.98532e-19)
(12.4879 0.800598 1.88563e-19)
(12.9086 0.819624 -5.37514e-19)
(13.258 0.828886 5.19688e-19)
(13.5419 0.836808 -3.2274e-21)
(13.7668 0.841258 -1.63992e-19)
(13.9405 0.842894 -3.12902e-19)
(14.0713 0.841967 4.59853e-19)
(14.1676 0.838565 1.47637e-19)
(14.2364 0.834844 -4.38178e-19)
(9.79358 0.678954 2.39577e-19)
(11.267 0.67338 0)
(11.998 0.748817 -2.00442e-19)
(12.5141 0.747796 9.28397e-22)
(12.9323 0.765979 0)
(13.2794 0.774459 1.74309e-19)
(13.5617 0.781953 0)
(13.7856 0.786231 0)
(13.9585 0.787943 0)
(14.089 0.787331 0)
(14.1851 0.784439 -2.9768e-19)
(14.2542 0.780535 5.80661e-19)
(9.80346 0.63376 -4.80113e-19)
(11.2895 0.623761 0)
(12.0236 0.697226 4.01579e-19)
(12.5384 0.694517 -1.89249e-19)
(12.9542 0.711881 -3.61227e-19)
(13.2991 0.719586 1.76691e-19)
(13.5799 0.726641 -3.35929e-19)
(13.8027 0.730715 3.2876e-19)
(13.975 0.732442 -3.16098e-19)
(14.1051 0.732049 3.16349e-21)
(14.2008 0.72977 1.53765e-19)
(14.2697 0.727056 2.915e-19)
(9.81113 0.588076 0)
(11.3097 0.573583 -2.1686e-19)
(12.0472 0.645167 -2.0116e-19)
(12.5607 0.640774 0)
(12.9742 0.65735 -3.62671e-19)
(13.3171 0.664269 7.01418e-19)
(13.5964 0.670875 -3.40648e-19)
(13.8182 0.674714 0)
(13.99 0.67638 0)
(14.1198 0.675987 -1.55509e-19)
(14.2153 0.673741 -1.50759e-19)
(14.2833 0.673713 0)
(9.81669 0.542421 4.8168e-19)
(11.3275 0.523423 -4.2216e-21)
(12.0687 0.592806 -2.93618e-21)
(12.5811 0.586622 -3.37398e-21)
(12.9925 0.602443 -5.50442e-19)
(13.3334 0.608574 0)
(13.6113 0.614713 0)
(13.8323 0.618303 0)
(14.0037 0.619898 0)
(14.1334 0.619471 1.55586e-19)
(14.2294 0.616673 -1.49769e-19)
(14.2984 0.618503 2.94488e-21)
(9.82046 0.496315 -6.05227e-19)
(11.3433 0.472788 6.55749e-19)
(12.0881 0.540064 4.04277e-19)
(12.5996 0.532074 -3.85291e-19)
(13.009 0.547209 9.12288e-20)
(13.348 0.552562 0)
(13.6246 0.558267 3.39963e-19)
(13.8449 0.561652 -3.30913e-21)
(14.0159 0.563338 -3.23496e-19)
(14.1455 0.563421 0)
(14.2415 0.561379 -2.28508e-19)
(14.3102 0.557957 0)
(9.82227 0.450108 2.05179e-21)
(11.3569 0.422041 4.39577e-19)
(12.1055 0.487006 1.02018e-19)
(12.6161 0.477202 2.86778e-19)
(13.0237 0.491708 -2.77803e-19)
(13.361 0.496268 0)
(13.6364 0.501523 3.41161e-19)
(13.856 0.504668 -3.32569e-21)
(14.0267 0.506277 -2.43828e-19)
(14.1561 0.506404 0)
(14.2519 0.504743 1.53035e-19)
(14.321 0.50484 0)
(9.82277 0.403922 1.21381e-21)
(11.3683 0.371015 3.30298e-19)
(12.1207 0.433482 -1.02006e-19)
(12.6308 0.422078 1.92915e-19)
(13.0367 0.435989 0)
(13.3724 0.439707 0)
(13.6466 0.444509 -8.61093e-20)
(13.8655 0.447403 -8.3525e-20)
(14.036 0.448961 -8.09289e-20)
(14.1654 0.449217 -7.89805e-20)
(14.2614 0.447788 -1.52569e-19)
(14.3307 0.448245 1.48916e-19)
(9.82138 0.357485 -1.2249e-19)
(11.3775 0.319467 -1.09816e-19)
(12.1341 0.379503 2.03952e-19)
(12.6437 0.36672 -4.83549e-19)
(13.0481 0.380045 1.85879e-19)
(13.3821 0.382903 0)
(13.6553 0.38725 8.61235e-20)
(13.8736 0.389894 8.35481e-20)
(14.0439 0.391427 -1.61788e-19)
(14.1734 0.391805 2.38116e-19)
(14.2695 0.39053 1.5352e-19)
(14.339 0.391072 -1.51181e-19)
(9.81829 0.311314 0)
(11.3844 0.268059 0)
(12.1455 0.325183 1.02844e-19)
(12.6549 0.311092 0)
(13.0578 0.323947 -9.28837e-20)
(13.3903 0.325872 8.94786e-20)
(13.6625 0.329768 1.721e-19)
(13.8803 0.332173 -2.5263e-19)
(14.0503 0.333686 0)
(14.1799 0.334257 -7.94708e-20)
(14.2762 0.333366 7.66031e-20)
(14.346 0.333182 -2.25066e-19)
(9.81362 0.264945 6.17219e-20)
(11.3892 0.216262 2.20398e-19)
(12.1547 0.270567 -3.09317e-19)
(12.6643 0.255353 0)
(13.066 0.267656 4.63398e-20)
(13.397 0.268598 8.88329e-20)
(13.6682 0.272082 -3.4675e-19)
(13.8855 0.274245 4.20484e-19)
(14.0554 0.27572 -1.64392e-19)
(14.1851 0.276384 1.1936e-19)
(14.2816 0.275718 0)
(14.3517 0.275366 7.5765e-20)
(9.80714 0.218693 -6.1742e-20)
(11.3923 0.1644 0)
(12.1618 0.215876 -5.10508e-20)
(12.672 0.199679 9.78422e-20)
(13.0725 0.21116 1.39284e-19)
(13.402 0.211046 -9.0205e-20)
(13.6724 0.214218 -4.34739e-20)
(13.8893 0.216172 4.21921e-20)
(14.0591 0.217649 8.15553e-20)
(14.1889 0.218548 -1.20099e-19)
(14.2857 0.218535 -3.89062e-20)
(14.3563 0.217228 -3.75849e-20)
(9.79906 0.1725 -9.22563e-20)
(11.3933 0.112332 1.39233e-19)
(12.167 0.161191 -7.74715e-20)
(12.678 0.144018 1.21537e-19)
(13.0771 0.154314 -2.09999e-19)
(13.4056 0.153309 1.79885e-19)
(13.6751 0.156274 -6.57604e-20)
(13.8916 0.157959 4.18549e-20)
(14.0614 0.159383 -1.64323e-19)
(14.1914 0.160301 6.04035e-20)
(14.2883 0.160484 3.89356e-20)
(14.3591 0.159335 3.81096e-20)
(9.78948 0.126648 -9.27433e-20)
(11.3926 0.0600689 2.80742e-20)
(12.1704 0.106495 2.58519e-20)
(12.6822 0.088206 -2.44e-20)
(13.08 0.0972074 -2.31595e-20)
(13.4076 0.0956984 4.52407e-20)
(13.6763 0.0981989 2.17783e-20)
(13.8925 0.0996351 0)
(14.0623 0.10105 0)
(14.1925 0.10212 2.00218e-20)
(14.2898 0.102838 0)
(14.3612 0.1019 0)
(9.77844 0.0808605 -1.55383e-20)
(11.39 0.00758259 1.38685e-20)
(12.1722 0.0517651 7.13222e-22)
(12.6846 0.032316 -1.26617e-20)
(13.0815 0.03997 0)
(13.4081 0.0380406 0)
(13.6761 0.0400414 1.15352e-20)
(13.892 0.0412277 -2.1176e-20)
(14.0618 0.0426023 1.03519e-20)
(14.1922 0.043718 6.27136e-22)
(14.29 0.044578 0)
(14.3615 0.0441641 0)
(9.76559 0.0352556 4.66875e-20)
(11.3854 -0.0449901 2.77667e-20)
(12.1721 -0.00311345 -1.38476e-20)
(12.6852 -0.0236056 3.8217e-22)
(13.0815 -0.0172747 -1.17045e-20)
(13.407 -0.0196862 1.1278e-20)
(13.6744 -0.018189 -1.16014e-20)
(13.89 -0.0172366 -3.16872e-20)
(14.0599 -0.0159072 -1.00999e-20)
(14.1906 -0.014655 9.51262e-21)
(14.2887 -0.0133197 -9.78306e-21)
(14.3608 -0.0131732 0)
(9.7512 -0.0100668 4.64389e-20)
(11.379 -0.0973407 -8.37356e-20)
(12.1703 -0.0579546 1.31284e-20)
(12.6842 -0.0795873 -2.4273e-20)
(13.0799 -0.0745229 3.55465e-20)
(13.4044 -0.0774397 3.40579e-20)
(13.6712 -0.0764702 1.0918e-20)
(13.8866 -0.0757829 1.06001e-20)
(14.0566 -0.0745789 1.03116e-20)
(14.1876 -0.0734055 3.01326e-20)
(14.2859 -0.0721444 -9.79127e-21)
(14.3577 -0.0711031 5.72882e-20)
(9.73543 -0.0553211 -6.17731e-20)
(11.3706 -0.149669 -8.28157e-20)
(12.1667 -0.112773 1.30155e-19)
(12.6814 -0.135602 -2.44943e-20)
(13.0766 -0.131763 -1.1668e-19)
(13.4004 -0.135217 1.80526e-19)
(13.6666 -0.13477 -4.41184e-20)
(13.8818 -0.134366 0)
(14.052 -0.133311 4.12764e-20)
(14.1834 -0.1322 -2.00938e-20)
(14.2826 -0.131215 1.95788e-20)
(14.3554 -0.128784 -1.9135e-20)
(9.71786 -0.100408 -1.25462e-19)
(11.3605 -0.201858 -5.53386e-22)
(12.1613 -0.167556 0)
(12.6771 -0.191625 -9.76126e-20)
(13.0719 -0.18895 9.41268e-20)
(13.3948 -0.192968 0)
(13.6605 -0.193035 -2.48716e-24)
(13.8757 -0.192879 0)
(14.0461 -0.191867 -4.12786e-20)
(14.1781 -0.190494 0)
(14.2779 -0.189149 0)
(14.352 -0.186351 -7.50575e-20)
(9.69878 -0.14506 6.24729e-20)
(11.3485 -0.253683 5.5214e-20)
(12.1541 -0.222243 -4.15533e-19)
(12.671 -0.247605 3.92242e-19)
(13.0655 -0.246091 -1.88239e-19)
(13.3877 -0.250689 0)
(13.653 -0.25126 -4.36994e-20)
(13.8681 -0.251355 0)
(14.0388 -0.250406 0)
(14.1712 -0.248912 0)
(14.2714 -0.247406 0)
(14.3459 -0.24475 -1.50772e-19)
(9.67837 -0.189465 1.24934e-19)
(11.3348 -0.305361 2.23431e-19)
(12.1452 -0.276872 0)
(12.6633 -0.30353 2.93261e-19)
(13.0576 -0.303152 -9.45335e-20)
(13.3792 -0.308373 0)
(13.6441 -0.309452 -8.65238e-20)
(13.8592 -0.309805 8.65018e-20)
(14.0301 -0.308942 1.65884e-19)
(14.1629 -0.307313 2.40244e-19)
(14.2637 -0.305397 -1.57447e-19)
(14.3387 -0.303172 7.53993e-20)
(9.65664 -0.233595 -5.00007e-19)
(11.3192 -0.356821 -1.1176e-19)
(12.1345 -0.33141 1.03915e-19)
(12.654 -0.359374 -8.19152e-23)
(13.0482 -0.360125 -9.36869e-20)
(13.3692 -0.36599 9.01413e-20)
(13.6338 -0.367577 8.64002e-20)
(13.8489 -0.368197 -2.55189e-19)
(14.0201 -0.367427 0)
(14.1534 -0.365796 -2.40146e-19)
(14.2547 -0.363772 3.13047e-19)
(14.33 -0.361564 -3.06032e-19)
(9.63318 -0.277763 2.50015e-19)
(11.302 -0.408324 2.22743e-19)
(12.122 -0.385808 -2.08595e-19)
(12.6431 -0.415124 -9.80295e-20)
(13.0372 -0.416997 1.86313e-19)
(13.3578 -0.423499 -9.18818e-20)
(13.6221 -0.425571 -8.8139e-20)
(13.8372 -0.426422 8.46471e-20)
(14.0088 -0.425723 0)
(14.1426 -0.423972 0)
(14.2446 -0.421536 0)
(14.3205 -0.419123 7.75662e-22)
(9.60821 -0.321316 -2.49956e-19)
(11.2827 -0.459261 0)
(12.1077 -0.440037 -1.41366e-22)
(12.6304 -0.470754 0)
(13.0248 -0.473725 9.34454e-20)
(13.3449 -0.480848 -3.58409e-19)
(13.6089 -0.48337 2.63082e-19)
(13.8242 -0.484447 -8.46716e-20)
(13.9962 -0.483825 0)
(14.1307 -0.482137 -3.19111e-19)
(14.2335 -0.480043 3.14227e-19)
(14.3103 -0.477787 -7.66999e-20)
(9.58189 -0.364892 -3.74748e-19)
(11.2617 -0.510211 2.22975e-19)
(12.0917 -0.494079 -3.11327e-19)
(12.6161 -0.526212 1.95499e-19)
(13.0107 -0.530284 -2.80139e-19)
(13.3305 -0.538005 0)
(13.5944 -0.540932 0)
(13.8097 -0.542177 3.3637e-19)
(13.9822 -0.541511 -4.94952e-19)
(14.1173 -0.539446 -1.58717e-19)
(14.2211 -0.536456 1.57918e-19)
(14.3002 -0.534842 0)
(9.55378 -0.408076 0)
(11.239 -0.56078 -1.30668e-21)
(12.074 -0.547903 -2.08514e-19)
(12.6003 -0.581497 -1.66634e-21)
(12.9951 -0.586618 -1.88076e-19)
(13.3147 -0.594919 5.36926e-19)
(13.5783 -0.598249 -3.49361e-19)
(13.7937 -0.599697 1.67268e-19)
(13.9666 -0.59912 -1.65778e-19)
(14.1023 -0.597072 1.58207e-19)
(14.2066 -0.593861 -1.57407e-19)
(14.286 -0.590418 2.99476e-19)
(9.52449 -0.450892 7.48283e-19)
(11.2146 -0.610995 2.22969e-19)
(12.0545 -0.601483 0)
(12.5828 -0.636562 3.90447e-19)
(12.978 -0.642733 3.70952e-19)
(13.2973 -0.651616 -1.82932e-19)
(13.5608 -0.655373 -3.48811e-19)
(13.7764 -0.657076 3.52165e-22)
(13.9496 -0.656658 0)
(14.0859 -0.654733 0)
(14.1909 -0.651489 0)
(14.2705 -0.647339 0)
(9.49388 -0.493477 -7.48112e-19)
(11.1884 -0.661027 -2.22197e-19)
(12.0332 -0.654883 0)
(12.5636 -0.691404 -1.95192e-19)
(12.9593 -0.698605 -1.85803e-19)
(13.2786 -0.708092 -1.77536e-19)
(13.5419 -0.712304 3.37276e-21)
(13.7576 -0.714312 8.4127e-19)
(13.9314 -0.714097 -3.29064e-19)
(14.0684 -0.712307 0)
(14.1743 -0.709379 3.09076e-19)
(14.2544 -0.705451 -3.04439e-19)
(9.46151 -0.535857 -2.49357e-19)
(11.1604 -0.710802 1.3116e-21)
(12.0102 -0.707979 2.08162e-19)
(12.5428 -0.74597 0)
(12.9391 -0.7542 1.70093e-21)
(13.2583 -0.764314 3.58576e-19)
(13.5215 -0.769005 -3.44123e-19)
(13.7376 -0.771341 5.05081e-19)
(13.9118 -0.771277 0)
(14.0496 -0.76941 0)
(14.1564 -0.7661 0)
(14.2377 -0.762349 4.47419e-19)
(9.42755 -0.577742 -9.94445e-19)
(11.1306 -0.760047 -6.64364e-19)
(11.9855 -0.760659 6.20345e-19)
(12.5203 -0.800193 0)
(12.9173 -0.809505 -3.70684e-19)
(13.2364 -0.820273 -1.78547e-19)
(13.4998 -0.825478 0)
(13.7161 -0.828148 3.32828e-19)
(13.891 -0.828271 -3.27635e-19)
(14.0295 -0.826484 0)
(14.1372 -0.823283 0)
(14.2192 -0.818851 -1.51029e-19)
(9.3922 -0.6193 9.90472e-19)
(11.0992 -0.808922 -2.23834e-19)
(11.9589 -0.812974 -2.04372e-19)
(12.4961 -0.854079 1.95977e-19)
(12.894 -0.864492 1.85239e-19)
(13.2132 -0.875962 -5.31641e-19)
(13.4766 -0.881682 3.4587e-19)
(13.6933 -0.884668 -3.34104e-19)
(13.8688 -0.884914 -3.23422e-19)
(14.0082 -0.882989 3.18324e-19)
(14.1168 -0.879455 0)
(14.2001 -0.874907 -1.48611e-19)
(9.35538 -0.660361 4.92279e-19)
(11.066 -0.857272 -6.65253e-19)
(11.9306 -0.864896 -2.05768e-19)
(12.4703 -0.907626 1.15754e-18)
(12.8691 -0.919187 -7.41207e-19)
(13.1885 -0.931357 1.77727e-19)
(13.4521 -0.937593 6.83115e-19)
(13.6691 -0.940875 -5.02828e-19)
(13.8452 -0.94121 1.61801e-19)
(13.9855 -0.939257 0)
(14.095 -0.935727 0)
(14.1793 -0.931358 1.49808e-19)
(9.31755 -0.700993 -9.20823e-22)
(11.0311 -0.905135 0)
(11.9006 -0.916482 6.11552e-19)
(12.4428 -0.960853 -9.68943e-19)
(12.8426 -0.973548 -7.32712e-19)
(13.1623 -0.986447 7.11029e-19)
(13.4261 -0.993156 5.1029e-19)
(13.6436 -0.996668 -8.33603e-19)
(13.8203 -0.997088 -1.61886e-19)
(13.9614 -0.994956 -7.83359e-19)
(14.072 -0.990903 4.63743e-19)
(14.1577 -0.987116 0)
(9.2777 -0.741539 -2.47178e-19)
(10.9943 -0.952953 0)
(11.8688 -0.96774 1.01891e-18)
(12.4138 -1.01376 -1.54003e-18)
(12.8146 -1.0276 3.70925e-19)
(13.1347 -1.04116 -3.52055e-19)
(13.3987 -1.04833 1.70917e-19)
(13.6166 -1.05208 4.94333e-19)
(13.794 -1.05261 -6.47547e-19)
(13.936 -1.05057 1.57182e-19)
(14.0475 -1.04656 4.56309e-19)
(14.1338 -1.0436 -5.9769e-19)
(9.2361 -0.781202 4.91041e-19)
(10.9556 -0.999884 4.37692e-19)
(11.8352 -1.01849 8.11955e-19)
(12.3829 -1.06624 -1.53595e-18)
(12.785 -1.08125 1.10162e-18)
(13.1055 -1.09548 -3.47498e-19)
(13.3699 -1.10307 3.44048e-19)
(13.5882 -1.10705 3.30654e-19)
(13.7663 -1.10765 0)
(13.9092 -1.10555 0)
(14.0218 -1.101 -3.01057e-19)
(14.1096 -1.09824 6.30275e-21)
(9.19359 -0.820461 -2.23802e-21)
(10.9154 -1.04636 -1.98775e-21)
(11.7997 -1.06883 0)
(12.3505 -1.11835 -3.80277e-19)
(12.7539 -1.13451 1.09614e-18)
(13.0749 -1.14935 -3.49577e-19)
(13.3396 -1.15735 -6.72541e-19)
(13.5584 -1.1616 3.32826e-19)
(13.7373 -1.16232 3.17249e-19)
(13.881 -1.16038 -9.37077e-19)
(13.9947 -1.15582 0)
(14.083 -1.15394 -2.95369e-19)
(9.14958 -0.859321 -2.36368e-21)
(10.8733 -1.0924 4.32227e-19)
(11.7626 -1.11882 -4.08671e-19)
(12.3163 -1.17003 -1.14192e-18)
(12.7212 -1.18732 -3.57643e-19)
(13.0428 -1.20279 1.39945e-18)
(13.3078 -1.21119 1.64741e-21)
(13.5272 -1.21569 1.59003e-21)
(13.7068 -1.21656 3.19299e-19)
(13.8515 -1.21463 3.11074e-19)
(13.9663 -1.20956 0)
(14.0564 -1.20643 8.74493e-19)
(9.10408 -0.897812 -4.89018e-19)
(10.8297 -1.13805 -4.33317e-19)
(11.7237 -1.16828 -4.04865e-19)
(12.2804 -1.22124 -3.77781e-19)
(12.6869 -1.23965 7.27107e-19)
(13.0091 -1.25578 -1.04068e-18)
(13.2746 -1.26461 3.43433e-19)
(13.4945 -1.26943 6.57102e-19)
(13.6749 -1.2705 0)
(13.8205 -1.2688 3.06577e-19)
(13.9363 -1.26402 -1.20407e-18)
(14.0265 -1.26106 5.91587e-19)
(9.05674 -0.935749 4.83411e-19)
(10.7839 -1.18318 -4.35806e-19)
(11.683 -1.2173 -1.20205e-18)
(12.243 -1.27197 3.48701e-21)
(12.651 -1.29147 0)
(12.974 -1.30825 -3.4535e-19)
(13.24 -1.31758 -3.33741e-19)
(13.4605 -1.32275 3.25569e-19)
(13.6417 -1.32407 0)
(13.7884 -1.32248 3.08443e-19)
(13.9054 -1.31783 5.96499e-19)
(13.9973 -1.31444 -6.41269e-21)
(9.00762 -0.972852 4.85929e-19)
(10.7365 -1.22733 0)
(11.6402 -1.2655 8.00386e-19)
(12.2036 -1.322 -3.79595e-19)
(12.6134 -1.34273 -3.58106e-19)
(12.9373 -1.36021 1.03224e-18)
(13.2039 -1.37007 -9.98531e-19)
(13.4251 -1.37559 9.7196e-19)
(13.6072 -1.37708 0)
(13.755 -1.37544 -3.03878e-19)
(13.8733 -1.37053 8.97167e-19)
(13.9666 -1.36682 2.88745e-19)
(8.9577 -1.00937 -9.64908e-19)
(10.6876 -1.27081 4.28138e-19)
(11.5959 -1.31306 -3.57569e-21)
(12.1626 -1.37146 -7.54211e-19)
(12.5743 -1.39345 7.14883e-19)
(12.8991 -1.41167 0)
(13.1664 -1.42208 -3.30516e-19)
(13.3883 -1.42796 -3.22521e-19)
(13.5713 -1.42964 0)
(13.7202 -1.4281 3.00464e-19)
(13.8397 -1.42339 -8.94198e-19)
(13.9343 -1.41983 -2.90089e-19)
(8.90652 -1.04549 0)
(10.6367 -1.31381 2.72342e-21)
(11.5498 -1.36008 1.18977e-18)
(12.1199 -1.42034 -6.56968e-21)
(12.5335 -1.44364 -1.78019e-18)
(12.8594 -1.46263 1.36608e-18)
(13.1274 -1.47356 -1.31753e-18)
(13.3501 -1.47976 6.43102e-19)
(13.5341 -1.48158 0)
(13.6841 -1.47994 0)
(13.805 -1.47481 -2.93244e-19)
(13.9016 -1.47103 5.72248e-19)
(8.85339 -1.08097 0)
(10.5841 -1.35609 2.85383e-21)
(11.5018 -1.40646 -1.18133e-18)
(12.0754 -1.46862 7.47608e-19)
(12.4911 -1.49323 0)
(12.8181 -1.51305 6.76437e-19)
(13.0869 -1.52449 -3.30239e-19)
(13.3104 -1.53099 0)
(13.4953 -1.53301 -6.15668e-19)
(13.6465 -1.53154 6.05717e-19)
(13.7687 -1.52677 -2.94566e-19)
(13.8663 -1.52338 0)
(8.79866 -1.11588 9.52738e-19)
(10.5298 -1.3978 4.25088e-19)
(11.452 -1.45213 7.86936e-19)
(12.0292 -1.5163 0)
(12.4471 -1.54223 7.01302e-19)
(12.7752 -1.56284 -3.43243e-19)
(13.0449 -1.5748 -6.55889e-19)
(13.2693 -1.5816 0)
(13.4553 -1.58377 3.06521e-19)
(13.6077 -1.58226 0)
(13.7314 -1.57716 0)
(13.8311 -1.57326 0)
(8.74222 -1.14994 4.71759e-19)
(10.4733 -1.43868 -8.47016e-19)
(11.4003 -1.49718 -3.92901e-19)
(11.9812 -1.56335 0)
(12.4014 -1.59062 6.97566e-19)
(12.7308 -1.61201 -3.38054e-19)
(13.0015 -1.62443 -6.45614e-19)
(13.2268 -1.63154 9.456e-19)
(13.4138 -1.63389 -9.15236e-19)
(13.5675 -1.63257 8.95217e-19)
(13.6925 -1.62783 -8.66357e-19)
(13.7933 -1.62447 6.33752e-21)
(8.68446 -1.18319 1.88279e-18)
(10.4152 -1.47862 -4.24679e-19)
(11.3467 -1.5415 0)
(11.9314 -1.60972 1.09418e-18)
(12.354 -1.63837 -6.27464e-21)
(12.6849 -1.66047 -6.71443e-19)
(12.9565 -1.67338 -3.21164e-19)
(13.1827 -1.6808 -2.38996e-21)
(13.3709 -1.68328 6.04597e-19)
(13.5258 -1.6819 -5.97016e-19)
(13.6524 -1.6767 1.14992e-18)
(13.7557 -1.67318 -1.11451e-18)
(8.62538 -1.2159 -9.38353e-19)
(10.3554 -1.5179 -4.18687e-19)
(11.2912 -1.58514 -3.8553e-19)
(11.8798 -1.6554 -2.91585e-21)
(12.305 -1.68541 -3.44958e-19)
(12.6374 -1.70824 -6.61049e-19)
(12.91 -1.72164 6.46372e-19)
(13.1372 -1.72942 -2.47936e-21)
(13.3264 -1.73214 0)
(13.4826 -1.73096 -8.79753e-19)
(13.6104 -1.72574 5.73412e-19)
(13.7145 -1.72149 0)
(8.56471 -1.24794 4.72675e-19)
(10.2937 -1.55652 8.32945e-19)
(11.2339 -1.62806 1.15261e-18)
(11.8265 -1.70036 -1.09078e-18)
(12.2542 -1.73172 -3.39618e-19)
(12.5882 -1.75533 9.91289e-19)
(12.8621 -1.76927 3.19521e-19)
(13.0903 -1.77742 -3.09695e-19)
(13.2806 -1.78048 -1.19299e-18)
(13.4381 -1.77967 1.17322e-18)
(13.5674 -1.77503 -2.85415e-19)
(13.6723 -1.7708 -1.10815e-18)
(8.50231 -1.27924 -9.23865e-19)
(10.2301 -1.59434 1.64954e-18)
(11.1747 -1.67019 -3.86466e-19)
(11.7713 -1.74454 3.58002e-19)
(12.2018 -1.77729 3.40392e-19)
(12.5375 -1.80166 -2.83745e-21)
(12.8126 -1.81617 9.43507e-19)
(13.042 -1.82468 -1.23109e-18)
(13.2336 -1.82801 0)
(13.3926 -1.82733 2.8845e-19)
(13.5237 -1.82295 0)
(13.631 -1.81906 2.74638e-19)
(8.43819 -1.30969 -1.83644e-18)
(10.1646 -1.63119 1.64512e-18)
(11.1135 -1.71142 -3.816e-19)
(11.7142 -1.78785 -3.58802e-19)