/*--------------------------------*- C++ -*----------------------------------*\
| =========                 |                                                 |
| \\      /  F ield         | OpenFOAM: The Open Source CFD Toolbox           |
|  \\    /   O peration     | Version:  2.3.1                                 |
|   \\  /    A nd           | Web:      www.OpenFOAM.org                      |
|    \\/     M anipulation  |                                                 |
\*---------------------------------------------------------------------------*/
FoamFile
{
    version     2.0;
    format      ascii;
    class       volScalarField;
    location    "0.26";
    object      nut;
}
// * * * * * * * * * * * * * * * * * * * * * * * * * * * * * * * * * * * * * //

dimensions      [0 2 -1 0 0 0 0];

internalField   nonuniform List<scalar> 
15166
(
9.71671e-05
0.000156534
0.000260784
0.000374199
0.000473683
0.000587567
0.000704976
0.000832418
0.000951306
0.00107356
0.00118953
0.00128899
9.71836e-05
0.000170329
0.000281326
0.000394583
0.000497649
0.000610543
0.000726644
0.000849265
0.00096583
0.0010836
0.00119525
0.00129551
9.755e-05
0.000181537
0.000297439
0.000411388
0.000517319
0.000629596
0.000744422
0.000863328
0.000977694
0.00109167
0.00119977
0.00129983
9.8026e-05
0.000191572
0.000311169
0.000425869
0.000533838
0.000645562
0.000759128
0.000875062
0.000987313
0.00109803
0.00120314
0.00130304
9.85351e-05
0.000200643
0.00032331
0.00043872
0.00054805
0.000659181
0.000771449
0.000884883
0.000995099
0.00110295
0.00120556
0.00130487
9.90851e-05
0.000208797
0.000334194
0.000450251
0.000560462
0.00067092
0.000781875
0.000893127
0.00100136
0.00110665
0.00120705
0.00130562
9.9671e-05
0.000216122
0.000344079
0.000460691
0.00057138
0.000681123
0.000790767
0.000900034
0.00100635
0.00110932
0.00120771
0.00130599
0.000100291
0.000222702
0.000353166
0.000470202
0.000581077
0.000690052
0.000798393
0.000905829
0.0010103
0.00111115
0.00120791
0.0013065
0.000100925
0.000228601
0.000361606
0.000478974
0.00058978
0.000697925
0.000804974
0.000910703
0.00101339
0.0011123
0.00120765
0.00130618
0.00010157
0.00023386
0.000369487
0.000487101
0.000597661
0.000704933
0.000810688
0.000914782
0.00101577
0.00111292
0.00120706
0.00130535
0.000102222
0.000238531
0.000376876
0.000494676
0.000604836
0.0007112
0.000815673
0.000918202
0.00101755
0.00111312
0.00120638
0.00130552
0.000102872
0.000242644
0.000383807
0.000501771
0.000611411
0.000716836
0.000820042
0.000921063
0.00101885
0.00111302
0.00120562
0.00130487
0.000103518
0.000246244
0.000390319
0.000508425
0.000617479
0.000721939
0.000823882
0.000923448
0.00101975
0.00111266
0.00120467
0.00130318
0.000104156
0.000249389
0.000396432
0.000514686
0.000623094
0.000726564
0.00082727
0.000925424
0.00102033
0.00111207
0.00120328
0.0013006
0.000104788
0.00025209
0.000402164
0.0005206
0.000628313
0.00073079
0.000830268
0.000927067
0.00102064
0.00111128
0.00120177
0.00129836
0.000105405
0.000254399
0.000407511
0.000526183
0.000633182
0.00073465
0.00083292
0.000928399
0.00102071
0.00111032
0.00120008
0.00129541
0.000106011
0.000256338
0.000412481
0.000531461
0.000637739
0.000738195
0.000835276
0.000929488
0.00102059
0.00110921
0.00119818
0.00129247
0.000106599
0.000257953
0.000417094
0.00053646
0.000642025
0.000741471
0.000837381
0.000930341
0.00102029
0.00110795
0.00119609
0.00128905
0.000107169
0.000259277
0.000421342
0.000541185
0.000646045
0.000744487
0.000839242
0.000931014
0.00101984
0.00110658
0.00119388
0.0012857
0.000107726
0.000260326
0.000425245
0.000545648
0.000649842
0.000747281
0.000840908
0.000931511
0.00101926
0.00110509
0.00119156
0.00128236
0.000108267
0.00026114
0.000428796
0.00054986
0.000653414
0.000749872
0.000842385
0.000931854
0.00101856
0.0011035
0.00118908
0.00127854
0.000108789
0.000261729
0.000432004
0.000553836
0.000656795
0.000752273
0.000843695
0.000932061
0.00101776
0.00110181
0.00118644
0.00127463
0.000109285
0.000262134
0.000434888
0.000557564
0.000659981
0.00075451
0.000844863
0.000932155
0.00101687
0.00110002
0.00118373
0.0012715
0.000109773
0.000262363
0.000437445
0.00056106
0.000662992
0.000756598
0.000845904
0.000932149
0.00101589
0.00109814
0.00118092
0.00126783
0.000110235
0.000262434
0.000439687
0.000564339
0.000665838
0.000758547
0.000846822
0.000932038
0.00101482
0.00109618
0.0011781
0.00126476
0.000110681
0.000262378
0.000441622
0.000567393
0.000668527
0.00076036
0.000847629
0.000931844
0.00101369
0.00109416
0.00117524
0.00126123
0.00011111
0.000262196
0.000443261
0.000570213
0.000671063
0.000762056
0.00084834
0.000931569
0.00101249
0.0010921
0.00117243
0.00125845
0.000111517
0.000261922
0.000444632
0.000572816
0.000673443
0.000763634
0.000848965
0.000931221
0.00101123
0.00109001
0.00116971
0.00125587
0.000111904
0.000261552
0.000445721
0.000575213
0.000675681
0.000765108
0.000849495
0.000930813
0.00100992
0.0010879
0.00116698
0.00125247
0.000112271
0.000261086
0.000446564
0.000577387
0.000677781
0.000766476
0.000849952
0.000930337
0.00100858
0.00108577
0.00116428
0.00124964
0.000112615
0.000260572
0.000447148
0.00057935
0.000679736
0.000767751
0.000850335
0.000929815
0.00100719
0.00108363
0.00116154
0.0012462
0.000112948
0.000259985
0.000447513
0.000581096
0.000681558
0.00076893
0.000850655
0.000929235
0.00100578
0.00108148
0.00115883
0.0012433
0.000113269
0.000259347
0.000447648
0.000582651
0.000683248
0.000770024
0.000850903
0.000928617
0.00100434
0.00107932
0.00115608
0.00123969
0.000113558
0.000258677
0.00044759
0.000583995
0.0006848
0.000771029
0.000851099
0.000927959
0.00100288
0.00107715
0.00115334
0.00123661
0.000113835
0.00025797
0.00044733
0.000585154
0.000686224
0.000771946
0.000851235
0.000927262
0.00100139
0.00107497
0.00115056
0.00123297
0.000114104
0.000257237
0.000446905
0.0005861
0.000687513
0.000772786
0.000851323
0.00092653
0.000999879
0.00107278
0.00114783
0.00123017
0.00011434
0.000256475
0.000446299
0.000586869
0.000688674
0.000773541
0.000851349
0.000925757
0.000998352
0.0010706
0.00114516
0.00122765
0.000114569
0.000255698
0.00044554
0.000587445
0.000689703
0.000774221
0.000851332
0.000924961
0.000996813
0.00106842
0.0011425
0.00122434
0.000114778
0.000254908
0.00044464
0.000587843
0.000690607
0.000774813
0.000851267
0.000924139
0.000995268
0.00106625
0.00113984
0.00122114
0.000114967
0.000254112
0.00044361
0.00058807
0.00069139
0.000775341
0.000851156
0.000923287
0.000993708
0.00106408
0.00113717
0.00121776
0.000115148
0.000253297
0.000442457
0.000588121
0.000692042
0.000775783
0.000850999
0.000922417
0.00099214
0.0010619
0.00113439
0.00121388
0.000115303
0.000252402
0.000441172
0.00058801
0.000692567
0.000776154
0.000850799
0.000921519
0.000990563
0.00105971
0.00113159
0.00121105
0.00011545
0.000251479
0.000439791
0.000587742
0.000692973
0.000776447
0.000850556
0.000920606
0.000988978
0.0010575
0.0011288
0.00120766
0.000115571
0.00025049
0.000438269
0.000587311
0.000693253
0.000776662
0.000850271
0.000919666
0.000987378
0.00105529
0.00112604
0.00120489
0.000115675
0.000249498
0.000436586
0.000586731
0.000693414
0.000776798
0.000849943
0.000918706
0.00098577
0.00105308
0.00112328
0.00120142
0.000115769
0.000248544
0.000434776
0.000585982
0.000693449
0.000776864
0.00084958
0.000917726
0.000984155
0.00105086
0.00112056
0.00119886
0.000115849
0.000247536
0.000432877
0.000585027
0.00069334
0.000776853
0.000849168
0.000916727
0.000982527
0.00104864
0.00111785
0.00119548
0.000115905
0.000246561
0.000430884
0.000583935
0.000693097
0.000776754
0.000848712
0.000915707
0.000980893
0.00104643
0.00111517
0.00119285
0.00011595
0.000245589
0.000428853
0.000582675
0.000692718
0.000776577
0.000848216
0.000914659
0.00097925
0.00104422
0.0011125
0.00118962
0.000115984
0.000244622
0.000426713
0.000581271
0.000692212
0.000776304
0.000847672
0.000913595
0.000977593
0.00104201
0.00110987
0.00118702
0.000116005
0.000243699
0.000424518
0.000579727
0.000691581
0.000775959
0.000847082
0.000912509
0.000975936
0.0010398
0.00110718
0.00118342
0.00011601
0.000242737
0.000422269
0.00057803
0.000690811
0.000775515
0.000846441
0.000911395
0.000974269
0.00103761
0.00110451
0.00118006
0.000116001
0.00024183
0.00041998
0.000576228
0.000689917
0.000774988
0.000845753
0.000910266
0.000972598
0.00103542
0.00110188
0.00117774
0.000115983
0.000240927
0.000417652
0.000574284
0.000688885
0.000774378
0.00084502
0.000909115
0.000970923
0.00103323
0.00109929
0.001175
0.000115945
0.000240034
0.000415293
0.000572224
0.000687732
0.000773672
0.000844235
0.00090794
0.000969243
0.00103106
0.00109675
0.00117231
0.000115891
0.000239148
0.000412907
0.000570058
0.000686455
0.00077287
0.000843395
0.000906741
0.00096756
0.00102889
0.0010942
0.00116897
0.000115833
0.000238317
0.000410506
0.000567789
0.000685045
0.000771981
0.000842507
0.000905518
0.000965868
0.00102675
0.00109165
0.00116607
0.000115758
0.000237453
0.000408088
0.000565401
0.000683517
0.000771002
0.000841556
0.00090427
0.000964181
0.0010246
0.00108907
0.00116238
0.000115665
0.000236642
0.000405658
0.000562924
0.000681858
0.000769915
0.00084056
0.000903003
0.000962488
0.00102246
0.00108653
0.0011604
0.000115571
0.000235845
0.000403256
0.000560388
0.000680101
0.000768746
0.000839495
0.000901698
0.000960778
0.00102032
0.001084
0.00115761
0.000115457
0.000235084
0.000400813
0.000557747
0.000678216
0.000767474
0.000838374
0.000900369
0.000959067
0.00101818
0.00108148
0.0011545
0.000115328
0.000234299
0.000398371
0.000555029
0.000676205
0.000766099
0.000837186
0.000899003
0.00095734
0.00101605
0.00107894
0.00115104
0.000115189
0.000233566
0.000395937
0.000552245
0.000674104
0.000764631
0.000835933
0.000897609
0.000955608
0.00101392
0.00107642
0.00114809
0.000115043
0.000232847
0.000393543
0.000549376
0.000671879
0.000763059
0.000834619
0.000896183
0.000953872
0.0010118
0.00107386
0.00114463
0.000114882
0.000232171
0.000391126
0.000546474
0.000669555
0.000761394
0.000833237
0.000894722
0.000952121
0.00100968
0.00107131
0.00114178
0.000114715
0.000231502
0.000388752
0.000543516
0.000667116
0.000759634
0.000831785
0.000893233
0.000950365
0.00100755
0.00106874
0.00113851
0.000114513
0.000230825
0.000386387
0.000540488
0.000664593
0.00075777
0.00083027
0.000891702
0.000948585
0.00100542
0.00106619
0.00113583
0.000114341
0.000230202
0.000384054
0.000537433
0.000661972
0.000755812
0.000828686
0.00089013
0.000946794
0.00100328
0.00106362
0.00113254
0.000114122
0.000229599
0.000381732
0.000534342
0.000659247
0.000753752
0.000827025
0.000888517
0.000944977
0.00100114
0.00106106
0.00112957
0.000113882
0.000229013
0.000379434
0.000531208
0.000656452
0.000751608
0.00082529
0.000886862
0.000943147
0.000998985
0.00105848
0.00112617
0.000113656
0.000228421
0.000377174
0.000528028
0.000653556
0.000749364
0.000823486
0.000885156
0.000941291
0.000996821
0.0010559
0.00112323
0.000113412
0.000227924
0.000374925
0.000524836
0.000650585
0.000747012
0.000821605
0.000883404
0.000939411
0.000994641
0.00105329
0.00111975
0.000113159
0.000227364
0.000372752
0.000521661
0.000647547
0.000744577
0.000819638
0.000881605
0.00093751
0.000992454
0.00105066
0.00111634
0.000112889
0.000226891
0.00037053
0.000518402
0.000644393
0.00074203
0.000817584
0.000879748
0.000935573
0.000990253
0.00104804
0.00111328
0.000112612
0.000226437
0.000368415
0.00051517
0.000641212
0.000739404
0.000815469
0.000877841
0.000933616
0.00098804
0.00104542
0.00111
0.000112295
0.000225937
0.000366307
0.000511911
0.00063794
0.000736695
0.000813265
0.000875889
0.00093163
0.000985812
0.0010428
0.00110723
0.000111996
0.000225506
0.000364254
0.00050866
0.000634597
0.000733881
0.00081098
0.000873866
0.0009296
0.000983566
0.00104016
0.00110392
0.000111703
0.000225149
0.000362249
0.000505396
0.000631207
0.000730977
0.000808613
0.000871795
0.000927544
0.000981299
0.00103752
0.00110097
0.000111368
0.000224743
0.000360264
0.000502144
0.000627755
0.000727998
0.000806166
0.000869661
0.000925441
0.000979012
0.00103484
0.00109757
0.000111006
0.000224379
0.000358332
0.000498886
0.000624262
0.00072493
0.000803636
0.000867466
0.000923306
0.000976695
0.00103219
0.00109484
0.000110663
0.000224048
0.000356413
0.000495648
0.000620706
0.000721773
0.000801018
0.000865198
0.000921127
0.000974352
0.00102951
0.00109164
0.000110297
0.000223727
0.000354579
0.000492402
0.000617093
0.00071852
0.000798324
0.000862864
0.000918898
0.000971985
0.00102679
0.00108805
0.00010992
0.000223438
0.000352797
0.000489192
0.000613456
0.000715213
0.000795533
0.000860463
0.000916623
0.000969599
0.00102406
0.00108473
0.000109533
0.000223172
0.000351042
0.000486011
0.000609773
0.000711818
0.000792655
0.000857986
0.000914302
0.000967177
0.00102135
0.001082
0.000109133
0.000222924
0.000349341
0.000482852
0.000606042
0.000708347
0.000789702
0.000855437
0.000911931
0.00096473
0.00101861
0.00107876
0.000108694
0.000222683
0.000347678
0.000479673
0.000602313
0.000704808
0.000786651
0.00085283
0.000909502
0.00096224
0.00101587
0.00107591
0.000108272
0.000222476
0.000346065
0.000476548
0.000598542
0.000701177
0.000783525
0.000850129
0.000907025
0.000959723
0.0010131
0.00107244
0.000107834
0.000222295
0.00034451
0.000473478
0.00059472
0.000697489
0.000780296
0.000847355
0.000904497
0.000957177
0.00101034
0.00106963
0.000107381
0.000222143
0.000343009
0.00047043
0.000590914
0.000693722
0.000776981
0.0008445
0.000901899
0.000954597
0.00100759
0.00106687
0.000106917
0.000222013
0.000341522
0.000467393
0.000587068
0.000689886
0.000773587
0.000841561
0.000899228
0.00095196
0.00100483
0.0010645
0.000106438
0.000221907
0.000340137
0.000464435
0.000583235
0.000686018
0.000770108
0.00083855
0.000896507
0.000949301
0.00100204
0.00106076
0.000105948
0.000221833
0.000338806
0.000461488
0.000579369
0.000682062
0.000766553
0.000835458
0.000893722
0.000946608
0.000999244
0.00105781
0.000105418
0.000221723
0.000337492
0.000458591
0.000575507
0.000678057
0.00076291
0.000832271
0.000890867
0.000943871
0.000996375
0.00105422
0.000104928
0.000221718
0.000336246
0.000455753
0.000571643
0.000673975
0.000759177
0.000828999
0.000887941
0.000941076
0.000993472
0.00105091
0.000104369
0.000221672
0.000335065
0.000452969
0.000567766
0.000669883
0.000755351
0.000825632
0.00088495
0.000938229
0.000990492
0.00104721
0.000103825
0.000221671
0.000333953
0.000450251
0.000563937
0.000665714
0.000751452
0.000822187
0.000881876
0.000935317
0.000987496
0.00104414
0.000103265
0.000221663
0.000332869
0.000447563
0.000560095
0.000661513
0.000747468
0.000818642
0.000878715
0.000932337
0.000984414
0.00104044
0.00010269
0.00022174
0.000331857
0.000444948
0.000556277
0.000657253
0.000743396
0.00081502
0.000875477
0.000929308
0.000981328
0.00103724
0.000102073
0.000221737
0.000330915
0.000442403
0.000552462
0.000652986
0.000739255
0.000811297
0.000872163
0.000926202
0.000978155
0.00103355
0.000101466
0.000221836
0.000330005
0.000439899
0.000548682
0.000648647
0.000735038
0.000807464
0.000868747
0.000923028
0.000974998
0.00103066
0.000100846
0.000221931
0.000329177
0.000437481
0.000544945
0.000644316
0.000730734
0.000803545
0.000865242
0.000919768
0.000971775
0.00102719
0.00010021
0.000222069
0.000328426
0.000435113
0.000541224
0.000639942
0.000726366
0.000799545
0.000861651
0.000916458
0.000968476
0.00102336
9.95569e-05
0.000222246
0.00032771
0.000432836
0.000537557
0.000635558
0.000721917
0.000795435
0.000857963
0.000913066
0.000965151
0.00102005
9.88882e-05
0.000222416
0.000327079
0.000430653
0.000533918
0.000631142
0.000717411
0.000791234
0.000854171
0.000909585
0.000961796
0.00101695
9.81756e-05
0.000222571
0.000326489
0.000428531
0.000530342
0.000626707
0.000712844
0.000786927
0.000850283
0.000906029
0.000958378
0.00101322
9.74715e-05
0.000222789
0.000325986
0.000426474
0.000526804
0.000622286
0.000708204
0.000782538
0.000846301
0.000902384
0.000954905
0.00100976
9.67224e-05
0.000222989
0.000325525
0.000424529
0.000523351
0.000617883
0.000703497
0.000778041
0.000842202
0.000898644
0.000951304
0.00100574
9.59797e-05
0.000223257
0.000325162
0.000422696
0.000519955
0.000613474
0.00069875
0.000773442
0.000837993
0.0008948
0.000947605
0.00100161
9.525e-05
0.000223602
0.000324852
0.000420908
0.000516649
0.000609073
0.000693944
0.000768766
0.000833684
0.000890853
0.00094385
0.000997864
9.44481e-05
0.000223865
0.0003246
0.00041928
0.000513414
0.000604709
0.000689092
0.000764006
0.000829256
0.000886796
0.000939947
0.000993659
9.36469e-05
0.000224202
0.000324447
0.0004177
0.000510254
0.000600368
0.000684219
0.000759126
0.00082471
0.000882626
0.000936015
0.000990018
9.28293e-05
0.000224594
0.00032435
0.000416254
0.000507215
0.000596085
0.000679308
0.00075418
0.000820064
0.000878347
0.000931987
0.000985815
9.19639e-05
0.000224926
0.000324352
0.00041491
0.00050426
0.000591816
0.000674385
0.000749148
0.000815303
0.000873982
0.000927892
0.000981524
9.10999e-05
0.000225342
0.000324425
0.000413705
0.00050141
0.000587622
0.000669416
0.00074404
0.000810413
0.000869456
0.000923622
0.00097764
9.02175e-05
0.000225816
0.00032452
0.00041257
0.000498669
0.000583489
0.000664454
0.000738823
0.000805387
0.000864778
0.000919214
0.000973104
8.93131e-05
0.000226257
0.000324779
0.000411595
0.000496087
0.000579459
0.000659493
0.000733557
0.000800267
0.000859997
0.000914741
0.000968965
8.83839e-05
0.000226775
0.000325069
0.000410747
0.00049363
0.000575493
0.000654568
0.000728232
0.000795023
0.000855051
0.000910085
0.000964178
8.74021e-05
0.000227241
0.000325485
0.000410063
0.000491321
0.000571659
0.000649643
0.000722847
0.000789655
0.000850004
0.000905378
0.000959785
8.63891e-05
0.000227773
0.000325932
0.000409475
0.000489166
0.000567941
0.000644791
0.000717444
0.000784207
0.000844812
0.000900518
0.000954878
8.54061e-05
0.000228414
0.000326523
0.000409068
0.000487182
0.000564351
0.000639965
0.000711985
0.000778671
0.000839508
0.000895528
0.000949851
8.43793e-05
0.000229023
0.000327201
0.00040879
0.000485404
0.000560917
0.000635238
0.000706506
0.000772999
0.000834011
0.000890261
0.000944827
8.32897e-05
0.000229644
0.000327977
0.000408705
0.000483789
0.000557652
0.000630605
0.000701044
0.000767237
0.000828369
0.000884871
0.000939402
8.2164e-05
0.00023029
0.000328853
0.000408787
0.000482388
0.000554581
0.000626088
0.000695577
0.00076141
0.000822612
0.000879398
0.000934411
8.10631e-05
0.000231064
0.000329835
0.000409028
0.000481241
0.000551721
0.000621695
0.000690169
0.000755509
0.000816677
0.000873658
0.000928449
7.98873e-05
0.000231789
0.000330936
0.000409494
0.000480311
0.000549103
0.000617499
0.000684801
0.000749561
0.000810629
0.000867739
0.000922591
7.86644e-05
0.00023255
0.000332158
0.000410172
0.000479675
0.000546759
0.000613509
0.000679552
0.000743586
0.00080444
0.000861594
0.0009162
7.74599e-05
0.000233441
0.000333505
0.000411039
0.000479302
0.000544708
0.000609734
0.000674406
0.000737616
0.000798147
0.000855279
0.000909755
7.61759e-05
0.00023429
0.000334996
0.000412176
0.000479251
0.000542995
0.000606263
0.000669433
0.000731665
0.000791733
0.000848762
0.000902976
7.4864e-05
0.000235197
0.000336625
0.000413543
0.00047955
0.000541646
0.000603082
0.000664655
0.000725747
0.000785212
0.000842077
0.000896582
7.34869e-05
0.000236113
0.000338387
0.000415227
0.000480223
0.000540691
0.000600277
0.000660101
0.000719864
0.000778575
0.000835122
0.000889312
7.20791e-05
0.000237081
0.000340361
0.000417202
0.000481322
0.000540204
0.000597839
0.000655799
0.000714077
0.000771858
0.000827996
0.00088219
7.05938e-05
0.000238001
0.000342495
0.000419522
0.000482837
0.000540144
0.000595782
0.000651753
0.000708393
0.000765037
0.000820591
0.000874286
6.90586e-05
0.000238973
0.000344812
0.000422155
0.000484763
0.000540512
0.000594115
0.000647953
0.000702741
0.000758067
0.000812843
0.000866285
6.745e-05
0.000239829
0.000347238
0.000425118
0.00048703
0.000541245
0.00059282
0.000644512
0.000697301
0.000751065
0.000804863
0.000858151
6.548e-05
0.000238882
0.000347687
0.000426992
0.000488206
0.00054123
0.00059101
0.00064087
0.000691679
0.000744239
0.000796889
0.000849634
0.000468553
0.00154283
0.00162634
0.00187093
0.00187274
0.000611638
0.000599975
0.000462442
0.00136196
0.00204837
0.00380016
0.00201034
0.00420849
0.00141806
0.00054875
0.00133074
0.00148892
0.00502312
0.0050076
0.00131703
0.000707103
0.000481748
0.0073118
0.0035322
0.000469115
0.00162857
0.000556731
0.000760041
0.00193068
0.00121526
0.00176905
0.000334862
0.00145939
0.00376476
0.00409431
0.00102313
0.000155318
0.00155676
0.000465378
0.00206318
0.00182662
0.00129148
0.00381507
0.00103914
0.000276108
0.000483386
0.00573683
0.00371456
0.00027919
0.000711263
0.00102394
0.000464914
0.000340064
0.00124158
0.00163949
0.00150298
0.00237101
0.00129084
0.00155723
0.000546246
0.000602402
0.000335821
0.00124141
0.00284865
0.00415782
0.00151909
0.00092106
0.000320624
0.000654299
0.00226554
0.00171165
0.00527856
0.000463579
0.00108385
0.00356085
0.00127071
0.00137485
0.00123831
0.00556234
0.000463261
0.00453339
0.00123978
0.000197585
0.000384233
0.00283335
0.00159348
0.000922614
0.00124133
0.00263562
0.000199677
0.000572225
0.00145782
0.00124138
0.00140376
0.000351386
0.00127305
0.000758181
0.00163492
0.00124221
0.000932758
0.000752164
0.00315498
0.00128782
0.00148339
0.00123884
0.000351181
0.000352138
0.000421654
0.00130899
0.000237795
0.00150034
0.00123988
0.000439248
0.00136626
0.00124078
0.000511754
0.0031434
0.00225602
0.00154095
0.00428439
0.000772152
0.00376094
0.00146346
0.00351477
0.00444046
0.00280736
0.00141147
0.000259784
0.00399956
0.00124136
3.92775e-05
0.00124223
5.61463e-05
0.00148372
0.000551984
0.0016271
0.0001742
0.00240767
0.000441024
0.00174436
0.00295479
0.00067464
0.000461132
0.000430795
8.8675e-05
0.00162161
0.000465519
0.00152128
0.00139715
0.000576535
0.000580221
0.000505083
0.00124241
0.00442287
0.00349684
0.00124349
0.000438748
0.00127055
0.00164405
0.00192218
0.00366697
0.00133567
0.00451919
0.00260001
0.000747123
0.00330258
0.000276235
0.000255845
0.000545516
0.0012381
0.00154959
0.00107819
0.00163523
0.00303258
0.00124028
0.00159149
0.00123855
0.000412875
0.00230235
0.0013265
0.000276235
0.00523349
0.00426007
0.000469513
0.00129744
0.000457078
0.00125526
0.00124025
9.2872e-05
0.00124087
0.00230968
0.00124564
0.000394649
0.00155708
0.000446243
0.000551974
0.000605664
0.000528142
0.00123979
0.00220281
0.00145394
0.000461204
0.000282703
0.000456945
0.000471083
0.00691336
0.00416467
0.00316339
0.00111687
0.002716
5.36266e-05
0.00137247
0.000466568
0.000413729
0.00123976
0.000466734
0.00250313
0.0014502
0.00221863
0.000191796
0.000386897
0.00145209
0.000421424
0.00124797
0.00125107
0.00276244
0.0015898
0.00126833
0.00106576
0.00409453
5.24443e-05
0.00445658
0.00124154
0.000893931
0.00148464
0.000472553
0.000459447
0.00147341
0.0010982
0.000452909
0.00423816
0.00586542
0.00432752
0.00267185
6.46467e-05
5.39444e-05
5.65409e-05
0.00131952
0.00389293
0.000465663
0.00220308
0.00108548
0.00231948
0.00034884
0.000234093
0.00282929
0.000966253
0.000449784
0.00206139
0.000427938
0.00271327
0.000471463
0.00292717
0.00416293
7.27481e-05
0.000468177
0.00129673
0.000474826
0.00144715
0.00121048
0.00067427
0.00521788
0.00137489
4.49459e-05
4.5715e-05
0.00137977
0.000177689
5.76361e-05
0.000283433
0.00013867
0.000376528
0.000174893
0.00046573
0.000469457
0.00132719
0.000603654
0.00160388
4.73578e-05
0.00130181
0.000742812
0.00013808
0.00145541
4.63439e-05
4.60346e-05
0.000445638
0.000396308
0.00184908
4.49209e-05
0.00580402
0.000381631
0.000453037
0.000980567
0.000493856
0.00176709
0.00368311
0.00150311
0.00028782
0.00124093
0.00519108
0.00471963
0.00563688
0.000185765
0.00124542
0.0012817
0.000460406
0.00428743
4.91615e-05
0.00119941
0.00123978
8.28331e-05
0.00459267
0.00206948
0.00148018
0.000235628
0.000452909
0.00119871
0.00139939
0.00124121
0.00125575
0.000184438
0.0013138
0.00125248
0.00216553
0.00124167
0.00125494
0.00126419
0.00123871
0.00757135
0.00124186
0.00172781
0.000772408
0.00047159
0.00124211
0.000523698
0.00227997
4.55944e-05
5.33875e-05
0.00163751
0.0013968
0.00136389
0.00124135
0.00126773
0.00629298
0.0022176
4.0919e-05
0.00124004
0.00492754
0.000367875
0.00133445
0.00234917
0.000103765
0.00026908
0.00131667
0.00148134
0.000824481
0.00190626
0.00135528
0.00124131
0.00140737
0.00139355
0.00499558
9.74007e-05
0.000453039
0.000134068
0.00146728
0.000613376
0.00046133
0.00138975
0.00125262
0.00176187
0.00100858
0.00164667
0.00126138
0.0004679
0.000347927
0.000596414
0.00124833
0.00426291
0.000527921
0.00376733
0.00126064
0.00116184
0.00190654
0.000394969
0.000445878
0.00137364
0.00141359
0.00124376
0.00299256
0.00139984
0.00184513
0.00236623
0.00088581
0.00216882
0.00391843
0.000168319
0.00138364
0.00145697
6.53388e-05
0.000421641
0.00124068
0.00125232
0.00124189
0.00128404
0.00602519
0.000452937
0.000127937
0.000528009
0.000525179
0.00125596
0.000230373
0.000466159
0.00123866
0.00124737
0.000454769
0.00125154
0.00270975
0.00135778
0.000449948
0.00124087
0.00196799
0.0042467
0.00504372
0.000456817
0.00462529
0.00123839
0.0012346
0.00114994
0.001289
0.00252326
0.000290929
4.03394e-05
0.00193499
0.000455406
0.0018952
0.0009745
0.00132597
0.000438882
0.0014963
0.00123901
0.00197064
0.000456864
5.42417e-05
0.00220462
0.00197893
0.000678282
0.0016316
4.76045e-05
0.000423279
0.00442105
0.00052264
0.00339975
0.00493877
0.00244259
0.00131316
0.00128469
0.00172645
0.000673355
0.000557497
5.89815e-05
0.00359373
0.000282734
9.5343e-05
0.00124235
0.00178074
0.00132268
0.000438799
0.00123888
0.000329221
0.000871285
0.000340817
0.000203931
0.000468045
0.002444
0.00442185
9.5104e-05
5.02564e-05
0.00133956
0.0030934
0.00123419
0.00417865
0.000916416
0.000317423
0.00137538
0.00422196
0.000159595
0.00105987
0.00115867
0.000468251
0.000226068
0.00121524
0.000476696
0.000313371
0.00127117
0.00339204
0.000401864
0.000702021
0.00135925
0.000192046
0.00184785
0.00044786
0.00127074
0.000933513
0.00335284
0.00124128
0.000653374
4.13025e-05
0.00123583
0.00148528
0.00209181
0.00425399
0.00144963
0.00127467
0.000465696
0.00124133
0.000295116
0.00148018
4.44285e-05
9.50372e-05
0.00185503
4.71928e-05
0.000802861
0.00123443
0.0015825
0.00126903
0.00397903
0.00133556
0.000376892
0.000440841
0.00192479
0.00134348
0.00367018
0.00176742
0.00261876
0.0017199
0.00123904
0.00464278
0.00123872
0.00567613
0.000557293
0.00449439
0.000962873
0.00063033
0.000433544
0.00487902
0.0031188
0.000454539
6.86434e-05
0.00124139
0.00124141
0.00107802
0.000706532
0.000390553
0.00242468
0.0053402
0.00128119
0.000330158
0.00124102
0.00411886
0.000471472
0.00157799
0.00126666
0.000490725
0.000105193
0.000390479
0.00257304
0.00124302
0.00339617
0.00124272
0.0013838
0.00295116
0.000368744
0.0015845
0.00125385
0.00139974
0.00583562
0.000417573
0.000888384
0.00138128
0.000201011
0.00422888
0.00124354
0.000567995
8.13123e-05
0.000458894
0.00326916
0.00124135
0.00144835
0.00128661
0.000463266
0.00124902
0.000707687
0.00103734
0.00126005
0.00178353
0.000395172
0.00136844
0.000970588
0.00115392
0.00134629
0.000738676
0.00488791
0.003377
0.00123907
0.00124141
0.00158546
0.000459967
0.000470426
0.000460461
0.00158082
0.000747524
0.00394119
0.00117429
0.000464364
0.00139685
0.00241925
0.000324837
0.00123808
0.00208812
0.000282568
0.000278181
0.00125553
0.00124606
6.87685e-05
0.000186917
0.00132009
0.00393554
0.000809484
0.000412927
0.00125218
3.53636e-05
0.000670219
0.000697996
0.00167066
0.00102918
0.00083942
0.00140074
0.00127539
0.000446174
0.000132569
0.00126211
0.00124191
0.00140124
0.00115395
0.00155917
0.00123992
0.00213863
0.00124132
0.0011611
0.00049724
0.00484302
0.00124749
0.00145896
0.000566536
0.000358094
0.00198689
0.000196765
0.00735659
0.000776693
0.00136067
0.00124096
0.00307503
0.00139609
0.000232183
0.0015223
0.00175058
0.00237916
0.00226611
0.000133134
0.0012398
0.000749688
0.00115964
0.000455009
0.00128693
0.00490274
0.000367487
0.00031273
0.00186464
0.00515158
0.00153517
0.000465492
0.00249874
0.000465286
0.00124058
0.00197379
0.00128417
0.00123827
0.000105456
0.00124148
4.6843e-05
0.00229054
0.00109677
0.00127421
0.00115966
0.000423126
0.0018276
0.00149386
0.00128276
0.00611868
0.00222067
0.0027994
0.00504116
0.00158484
0.00123927
0.00124152
0.000463462
0.00563389
5.88116e-05
0.000526503
0.00127929
4.63739e-05
4.07584e-05
4.47838e-05
0.00301569
0.000684544
3.76954e-05
0.00124132
0.000132945
0.00012538
0.000463342
0.0012423
0.00240644
0.0014327
0.000113772
0.0012431
0.00164751
0.00123926
0.00519889
0.00222381
0.00132838
0.000448675
0.00123976
0.00443956
0.00041732
0.00124246
0.00142433
0.0012407
0.00138292
0.00306909
0.00127628
0.00111965
0.00250883
0.000459826
0.00124018
0.00105402
0.00124192
0.000599668
0.00266758
0.00347
0.000505725
0.00274776
0.00160022
0.0012586
0.000157131
0.000986231
0.00115973
5.3267e-05
0.000487982
0.00123822
0.000130681
0.000592188
0.000737599
0.0010082
0.00119738
0.00138666
0.000472711
0.00432332
0.0012222
0.00359914
0.00143151
0.00343718
0.000133188
0.00075411
0.00121707
0.000197404
0.000387447
0.00137145
0.00187015
0.00129532
0.000598679
0.000978213
0.00118168
0.00411066
0.00173147
0.000295727
0.000187933
0.004272
0.000154547
0.00124824
5.10199e-05
0.00157777
0.00127909
0.00145855
0.00111585
0.0010013
0.00605335
0.00134127
0.00322633
0.00286118
0.00138775
0.00287958
0.00272476
0.00124195
0.00149237
0.00469058
4.41143e-05
0.000467092
4.46723e-05
0.000698843
0.00188698
0.00106995
0.00124069
0.00124161
0.000439225
0.00656165
0.00128841
0.00155246
0.00124072
0.00159769
0.00249514
0.00509094
0.00130714
0.00159381
0.00144895
0.00204592
0.00134711
0.00544344
0.000389782
0.000528536
0.00124061
0.000539602
0.00144143
0.00167959
0.00215833
4.80664e-05
0.00363145
0.00207506
0.000673753
0.00400309
0.00242452
0.00389915
0.00563591
0.00128561
3.9468e-05
0.00124133
0.0012819
0.000442358
0.0027903
0.00270642
0.00108187
0.000431287
0.00124158
0.00124377
0.00146818
0.000131142
0.00136769
0.00123936
0.00132536
0.00271373
0.000465061
0.00137721
5.29467e-05
0.00115114
0.00166234
0.000367893
0.00125611
0.0012955
0.000125937
0.000380275
0.000155377
0.00124375
0.00123961
0.00108544
0.00159977
0.00234801
0.00125524
0.00124536
0.00423743
0.0012614
0.0018088
0.00303123
0.00552949
0.002386
0.00148345
0.000439138
5.52098e-05
0.000458364
0.00199563
0.00124278
0.000285204
0.00125713
0.000264831
0.00124123
0.00180179