/*--------------------------------*- C++ -*----------------------------------*\
| =========                 |                                                 |
| \\      /  F ield         | OpenFOAM: The Open Source CFD Toolbox           |
|  \\    /   O peration     | Version:  2.3.1                                 |
|   \\  /    A nd           | Web:      www.OpenFOAM.org                      |
|    \\/     M anipulation  |                                                 |
\*---------------------------------------------------------------------------*/
FoamFile
{
    version     2.0;
    format      ascii;
    class       surfaceScalarField;
    location    "0.26";
    object      phi;
}
// * * * * * * * * * * * * * * * * * * * * * * * * * * * * * * * * * * * * * //

dimensions      [0 3 -1 0 0 0 0];

internalField   nonuniform List<scalar> 
23326
(
-1.2437e-05
0.00011167
-9.92339e-05
-2.13513e-05
0.000127095
-0.000118179
-2.69841e-05
0.000141452
-0.000135819
-3.06223e-05
0.000156983
-0.000153343
-3.37382e-05
0.000169572
-0.000166458
-3.59429e-05
0.000181841
-0.00017964
-3.74542e-05
0.000192408
-0.000190898
-3.82244e-05
0.00020104
-0.000200269
-3.86172e-05
0.000207566
-0.000207173
-3.86788e-05
0.0002126
-0.000212538
-3.85933e-05
0.00021636
-0.000216446
0.000219085
-3.84332e-05
-0.000219245
-6.92299e-06
0.000118594
-1.36847e-05
0.000133856
-1.97225e-05
0.000147491
-2.42045e-05
0.000161466
-2.78812e-05
0.000173249
-3.05986e-05
0.000184557
-3.25015e-05
0.000194308
-3.37579e-05
0.000202296
-3.45486e-05
0.000208357
-3.50064e-05
0.000213058
-3.5231e-05
0.000216584
0.000219182
-3.5328e-05
-5.58878e-06
0.000124183
-1.08897e-05
0.000139157
-1.58979e-05
0.000152499
-2.00036e-05
0.000165573
-2.35433e-05
0.000176789
-2.63128e-05
0.000187325
-2.83707e-05
0.000196364
-2.98339e-05
0.000203759
-3.09012e-05
0.000209425
-3.16346e-05
0.000213792
-3.21082e-05
0.000217058
0.000219552
-3.24785e-05
-4.7064e-06
0.000128889
-9.27872e-06
0.000143729
-1.3562e-05
0.000156784
-1.71779e-05
0.000169189
-2.03746e-05
0.000179986
-2.29752e-05
0.000189924
-2.50403e-05
0.000198428
-2.65846e-05
0.000205303
-2.77562e-05
0.000210597
-2.86597e-05
0.000214695
-2.93342e-05
0.000217732
0.00022012
-2.99018e-05
-3.85284e-06
0.000132741
-7.89084e-06
0.000147768
-1.1693e-05
0.000160587
-1.49655e-05
0.000172463
-1.78587e-05
0.000182879
-2.03078e-05
0.000192373
-2.22671e-05
0.000200387
-2.38121e-05
0.000206848
-2.50685e-05
0.000211854
-2.6013e-05
0.00021564
-2.68282e-05
0.000218547
0.00022077
-2.74785e-05
-3.20758e-06
0.000135948
-6.77017e-06
0.00015133
-1.01602e-05
0.000163977
-1.31364e-05
0.00017544
-1.58257e-05
0.000185568
-1.80618e-05
0.000194608
-1.99272e-05
0.000202252
-2.1467e-05
0.000208388
-2.26865e-05
0.000213074
-2.37082e-05
0.000216662
-2.45623e-05
0.000219401
0.000221505
-2.52976e-05
-2.7598e-06
0.000138707
-5.9217e-06
0.000154492
-8.95382e-06
0.00016701
-1.16762e-05
0.000178163
-1.4097e-05
0.000187989
-1.61992e-05
0.00019671
-1.79611e-05
0.000204014
-1.94106e-05
0.000209838
-2.06439e-05
0.000214308
-2.16886e-05
0.000217707
-2.26006e-05
0.000220313
0.00022232
-2.34158e-05
-2.42541e-06
0.000141132
-5.26395e-06
0.000157331
-7.99002e-06
0.000169737
-1.04337e-05
0.000180607
-1.26696e-05
0.000190225
-1.46165e-05
0.000198656
-1.62774e-05
0.000205675
-1.7657e-05
0.000211218
-1.88695e-05
0.00021552
-1.99189e-05
0.000218756
-2.08259e-05
0.00022122
0.000223122
-2.16276e-05
-2.15944e-06
0.000143292
-4.7331e-06
0.000159905
-7.20397e-06
0.000172208
-9.45833e-06
0.000182862
-1.14932e-05
0.000192259
-1.32701e-05
0.000200433
-1.48256e-05
0.00020723
-1.61761e-05
0.000212569
-1.73237e-05
0.000216668
-1.8339e-05
0.000219772
-1.92453e-05
0.000222126
0.000223994
-2.01173e-05
-1.93517e-06
0.000145227
-4.27654e-06
0.000162246
-6.53566e-06
0.000174467
-8.59822e-06
0.000184924
-1.04923e-05
0.000194153
-1.21443e-05
0.000202084
-1.35794e-05
0.000208665
-1.48311e-05
0.00021382
-1.59628e-05
0.0002178
-1.69573e-05
0.000220766
-1.78596e-05
0.000223028
0.000224811
-1.86771e-05
-1.74886e-06
0.000146976
-3.89956e-06
0.000164397
-5.96955e-06
0.000176538
-7.87208e-06
0.000186827
-9.60567e-06
0.000195886
-1.11385e-05
0.000203617
-1.24883e-05
0.000210014
-1.36757e-05
0.000215008
-1.47411e-05
0.000218866
-1.57042e-05
0.00022173
-1.66208e-05
0.000223945
0.000225603
-1.74121e-05
-1.58465e-06
0.00014856
-3.55953e-06
0.000166372
-5.46592e-06
0.000178444
-7.2523e-06
0.000188613
-8.83426e-06
0.000197468
-1.0267e-05
0.000205049
-1.15311e-05
0.000211279
-1.26563e-05
0.000216133
-1.36717e-05
0.000219882
-1.46028e-05
0.000222661
-1.5427e-05
0.000224769
0.0002264
-1.62238e-05
-1.44636e-06
0.000150007
-3.26607e-06
0.000168192
-5.03936e-06
0.000180218
-6.68072e-06
0.000190254
-8.1791e-06
0.000198966
-9.51532e-06
0.000206385
-1.06794e-05
0.000212443
-1.17488e-05
0.000217203
-1.26944e-05
0.000220827
-1.35784e-05
0.000223545
-1.43876e-05
0.000225578
0.000227081
-1.50691e-05
-1.32715e-06
0.000151335
-3.03244e-06
0.000169898
-4.6665e-06
0.000181852
-6.17978e-06
0.000191767
-7.57584e-06
0.000200361
-8.80373e-06
0.000207613
-9.92873e-06
0.000213568
-1.09163e-05
0.000218191
-1.18468e-05
0.000221758
-1.27206e-05
0.000224419
-1.35287e-05
0.000226386
0.000227913
-1.43609e-05
-1.21662e-06
0.000152552
-2.78754e-06
0.000171469
-4.33564e-06
0.0001834
-5.75152e-06
0.000193183
-7.03583e-06
0.000201645
-8.21348e-06
0.00020879
-9.24797e-06
0.000214602
-1.02156e-05
0.000219159
-1.10527e-05
0.000222595
-1.18544e-05
0.000225221
-1.26228e-05
0.000227155
0.000228585
-1.32941e-05
-1.12049e-06
0.000153673
-2.58963e-06
0.000172939
-4.02264e-06
0.000184833
-5.34375e-06
0.000194503
-6.55149e-06
0.000202853
-7.63528e-06
0.000209874
-8.61507e-06
0.000215582
-9.50156e-06
0.000220045
-1.03552e-05
0.000223449
-1.11528e-05
0.000226018
-1.18783e-05
0.00022788
0.000229252
-1.25455e-05
-1.03472e-06
0.000154708
-2.39223e-06
0.000174296
-3.73154e-06
0.000186172
-4.97931e-06
0.000195751
-6.11136e-06
0.000203984
-7.13262e-06
0.000210895
-8.05645e-06
0.000216506
-8.93225e-06
0.000220922
-9.71639e-06
0.000224234
-1.04341e-05
0.000226736
-1.11344e-05
0.00022858
0.000229915
-1.17975e-05
-9.45316e-07
0.000155654
-2.22694e-06
0.000175578
-3.49401e-06
0.000187439
-4.66684e-06
0.000196923
-5.73384e-06
0.000205051
-6.70175e-06
0.000211863
-7.57403e-06
0.000217379
-8.3264e-06
0.000221674
-9.08178e-06
0.000224989
-9.7929e-06
0.000227447
-1.04695e-05
0.000229257
0.000230561
-1.1116e-05
-8.77814e-07
0.000156532
-2.08156e-06
0.000176782
-3.25109e-06
0.000188608
-4.3572e-06
0.000198029
-5.33904e-06
0.000206032
-6.25017e-06
0.000212774
-7.05691e-06
0.000218185
-7.84914e-06
0.000222467
-8.53994e-06
0.00022568
-9.21958e-06
0.000228127
-9.84252e-06
0.00022988
0.000231182
-1.04636e-05
-8.16225e-07
0.000157349
-1.92668e-06
0.000177893
-3.05228e-06
0.000189733
-4.07406e-06
0.00019905
-5.02841e-06
0.000206986
-5.8658e-06
0.000213611
-6.65323e-06
0.000218973
-7.35534e-06
0.000223169
-8.03958e-06
0.000226365
-8.63329e-06
0.000228721
-9.24786e-06
0.000230494
0.000231734
-9.80016e-06
-7.60055e-07
0.000158109
-1.80377e-06
0.000178937
-2.84567e-06
0.000190775
-3.81406e-06
0.000200018
-4.68645e-06
0.000207858
-5.50388e-06
0.000214428
-6.22566e-06
0.000219695
-6.89606e-06
0.00022384
-7.5226e-06
0.000226991
-8.14345e-06
0.000229342
-8.70585e-06
0.000231057
0.000232295
-9.26631e-06
-6.838e-07
0.000158794
-1.66775e-06
0.000179921
-2.65594e-06
0.000191763
-3.59076e-06
0.000200952
-4.41958e-06
0.000208687
-5.14733e-06
0.000215156
-5.8328e-06
0.000220381
-6.46891e-06
0.000224476
-7.09617e-06
0.000227619
-7.66986e-06
0.000229915
-8.22675e-06
0.000231614
0.000232821
-8.75285e-06
-6.42237e-07
0.000159437
-1.56641e-06
0.000180845
-2.49903e-06
0.000192696
-3.34e-06
0.000201793
-4.12729e-06
0.000209474
-4.83598e-06
0.000215865
-5.49064e-06
0.000221035
-6.09437e-06
0.00022508
-6.66796e-06
0.000228192
-7.21874e-06
0.000230466
-7.74172e-06
0.000232137
0.000233329
-8.24955e-06
-5.81632e-07
0.000160019
-1.45004e-06
0.000181714
-2.33211e-06
0.000193577
-3.12771e-06
0.000202588
-3.87117e-06
0.000210217
-4.54661e-06
0.00021654
-5.16639e-06
0.000221655
-5.74472e-06
0.000225658
-6.26833e-06
0.000228716
-6.76379e-06
0.000230962
-7.27763e-06
0.000232651
0.000233829
-7.77847e-06
-5.37038e-07
0.000160556
-1.33724e-06
0.000182514
-2.17361e-06
0.000194414
-2.95171e-06
0.000203366
-3.63223e-06
0.000210897
-4.27359e-06
0.000217181
-4.83651e-06
0.000222218
-5.36348e-06
0.000226185
-5.88483e-06
0.000229237
-6.39184e-06
0.000231469
-6.8505e-06
0.000233109
0.00023431
-7.33117e-06
-5.04911e-07
0.000161061
-1.25545e-06
0.000183265
-2.02522e-06
0.000195183
-2.76376e-06
0.000204104
-3.40841e-06
0.000211542
-3.99151e-06
0.000217765
-4.52564e-06
0.000222752
-5.04876e-06
0.000226708
-5.52515e-06
0.000229714
-5.97942e-06
0.000231923
-6.45793e-06
0.000233587
0.000234752
-6.90017e-06
-4.48111e-07
0.00016151
-1.15415e-06
0.000183971
-1.88218e-06
0.000195911
-2.55809e-06
0.00020478
-3.19373e-06
0.000212178
-3.74633e-06
0.000218317
-4.25329e-06
0.00022326
-4.72719e-06
0.000227182
-5.17764e-06
0.000230164
-5.63868e-06
0.000232384
-6.02951e-06
0.000233978
0.000235165
-6.44221e-06
-3.98398e-07
0.000161908
-1.08468e-06
0.000184657
-1.77158e-06
0.000196598
-2.39025e-06
0.000205399
-2.96593e-06
0.000212753
-3.49163e-06
0.000218843
-3.99684e-06
0.000223765
-4.41995e-06
0.000227606
-4.84901e-06
0.000230593
-5.26373e-06
0.000232798
-5.69514e-06
0.00023441
0.000235523
-6.05303e-06
-3.72156e-07
0.00016228
-9.90597e-07
0.000185275
-1.62081e-06
0.000197228
-2.25045e-06
0.000206028
-2.77526e-06
0.000213278
-3.2692e-06
0.000219337
-3.69867e-06
0.000224195
-4.15648e-06
0.000228063
-4.53595e-06
0.000230973
-4.93601e-06
0.000233198
-5.29867e-06
0.000234772
0.000235945
-5.72056e-06
-3.15509e-07
0.000162596
-8.81947e-07
0.000185842
-1.52039e-06
0.000197866
-2.07132e-06
0.000206579
-2.59048e-06
0.000213797
-3.0344e-06
0.000219781
-3.46735e-06
0.000224628
-3.84473e-06
0.000228441
-4.23677e-06
0.000231365
-4.58533e-06
0.000233547
-4.98365e-06
0.000235171
0.000236281
-5.31993e-06
-2.92075e-07
0.000162888
-8.41639e-07
0.000186391
-1.37812e-06
0.000198403
-1.92326e-06
0.000207124
-2.38724e-06
0.000214261
-2.83257e-06
0.000220227
-3.21808e-06
0.000225013
-3.60445e-06
0.000228828
-3.94552e-06
0.000231706
-4.30701e-06
0.000233908
-4.60948e-06
0.000235473
0.000236634
-4.96261e-06
-2.58686e-07
0.000163146
-7.42074e-07
0.000186874
-1.29068e-06
0.000198951
-1.75607e-06
0.00020759
-2.22103e-06
0.000214726
-2.61585e-06
0.000220622
-3.00235e-06
0.0002254
-3.31396e-06
0.000229139
-3.66835e-06
0.00023206
-3.98376e-06
0.000234224
-4.31677e-06
0.000235806
0.000236901
-4.5841e-06
-2.2987e-07
0.000163376
-6.636e-07
0.000187308
-1.15732e-06
0.000199445
-1.64444e-06
0.000208077
-2.05851e-06
0.000215141
-2.43042e-06
0.000220994
-2.74397e-06
0.000225714
-3.0915e-06
0.000229487
-3.39729e-06
0.000232366
-3.69853e-06
0.000234525
-3.99781e-06
0.000236105
0.000237201
-4.29756e-06
-1.70301e-07
0.000163546
-6.12618e-07
0.000187751
-1.077e-06
0.000199909
-1.48755e-06
0.000208487
-1.87683e-06
0.00021553
-2.22612e-06
0.000221343
-2.54643e-06
0.000226034
-2.84622e-06
0.000229786
-3.13673e-06
0.000232656
-3.39339e-06
0.000234781
-3.674e-06
0.000236385
0.000237504
-3.97683e-06
-1.78651e-07
0.000163725
-5.41554e-07
0.000188113
-9.5162e-07
0.000200319
-1.38559e-06
0.000208921
-1.724e-06
0.000215868
-2.02513e-06
0.000221644
-2.32531e-06
0.000226334
-2.60959e-06
0.000230071
-2.85263e-06
0.000232899
-3.1209e-06
0.000235049
-3.39018e-06
0.000236655
0.000237749
-3.63553e-06
-1.1527e-07
0.00016384
-4.72619e-07
0.000188471
-8.77664e-07
0.000200724
-1.21068e-06
0.000209254
-1.55301e-06
0.00021621
-1.85935e-06
0.00022195
-2.13821e-06
0.000226613
-2.37433e-06
0.000230307
-2.6003e-06
0.000233125
-2.84787e-06
0.000235297
-3.05971e-06
0.000236866
0.000237996
-3.3064e-06
-9.80693e-08
0.000163939
-4.01883e-07
0.000188775
-7.58312e-07
0.000201081
-1.11598e-06
0.000209611
-1.41054e-06
0.000216505
-1.66974e-06
0.000222209
-1.90353e-06
0.000226847
-2.11971e-06
0.000230523
-2.35767e-06
0.000233363
-2.58778e-06
0.000235527
-2.78733e-06
0.000237066
0.000238179
-2.97024e-06
-6.81923e-08
0.000164007
-3.39836e-07
0.000189046
-6.65948e-07
0.000201407
-9.75353e-07
0.000209921
-1.2479e-06
0.000216777
-1.51254e-06
0.000222474
-1.72979e-06
0.000227064
-1.93134e-06
0.000230725
-2.12407e-06
0.000233556
-2.31593e-06
0.000235719
-2.50775e-06
0.000237258
0.000238369
-2.69841e-06
-3.02011e-08
0.000164037
-2.75437e-07
0.000189291
-5.77426e-07
0.000201708
-8.63468e-07
0.000210207
-1.11511e-06
0.000217029
-1.30842e-06
0.000222668
-1.53274e-06
0.000227289
-1.71868e-06
0.000230911
-1.89965e-06
0.000233737
-2.05433e-06
0.000235874
-2.25292e-06
0.000237456
0.000238602
-2.48581e-06
-3.44965e-09
0.00016404
-2.17599e-07
0.000189505
-4.92785e-07
0.000201983
-7.54286e-07
0.000210468
-9.85364e-07
0.00021726
-1.18677e-06
0.00022287
-1.34026e-06
0.000227443
-1.4814e-06
0.000231053
-1.64327e-06
0.000233899
-1.80041e-06
0.000236031
-1.93965e-06
0.000237595
0.000238713
-2.05087e-06
6.74418e-09
0.000164033
-1.60553e-07
0.000189672
-4.08272e-07
0.000202231
-6.22251e-07
0.000210682
-8.32397e-07
0.000217471
-9.871e-07
0.000223025
-1.15023e-06
0.000227606
-1.30281e-06
0.000231206
-1.42353e-06
0.00023402
-1.57466e-06
0.000236182
-1.70814e-06
0.000237729
0.000238892
-1.88657e-06
3.87525e-08
0.000163994
-9.77095e-08
0.000189809
-2.97035e-07
0.00020243
-5.1645e-07
0.000210902
-6.80575e-07
0.000217635
-8.46112e-07
0.00022319
-9.64718e-07
0.000227725
-1.07346e-06
0.000231314
-1.20848e-06
0.000234155
-1.31361e-06
0.000236287
-1.44835e-06
0.000237863
0.000238999
-1.55538e-06
6.27953e-08
0.000163931
-6.53428e-08
0.000189937
-2.42464e-07
0.000202608
-4.12777e-07
0.000211072
-5.58952e-07
0.000217781
-6.78812e-07
0.00022331
-7.82186e-07
0.000227829
-9.0438e-07
0.000231436
-9.95054e-07
0.000234246
-1.08746e-06
0.000236379
-1.18532e-06
0.000237961
0.000239104
-1.29093e-06
9.64439e-08
0.000163835
1.55299e-08
0.000190018
-1.32598e-07
0.000202756
-2.83614e-07
0.000211223
-4.1217e-07
0.00021791
-5.15079e-07
0.000223413
-6.02309e-07
0.000227916
-6.81278e-07
0.000231515
-7.57884e-07
0.000234322
-8.35592e-07
0.000236457
-9.12974e-07
0.000238038
0.000239177
-9.85943e-07
1.20303e-07
0.000163715
6.77853e-08
0.00019007
-5.35096e-08
0.000202877
-1.83808e-07
0.000211353
-2.9502e-07
0.000218021
-3.55258e-07
0.000223473
-4.26028e-07
0.000227986
-4.89923e-07
0.000231579
-5.52589e-07
0.000234384
-6.17853e-07
0.000236522
-6.9223e-07
0.000238113
0.000239272
-7.87508e-07
1.26233e-07
0.000163588
1.1762e-07
0.000190079
1.9146e-08
0.000202976
-6.67199e-08
0.000211439
-1.5662e-07
0.00021811
-2.24443e-07
0.000223541
-2.79716e-07
0.000228041
-3.0069e-07
0.0002316
-3.47903e-07
0.000234431
-3.68973e-07
0.000236543
-4.15872e-07
0.000238159
0.00023928
-4.23274e-07
1.73583e-07
0.000163415
1.647e-07
0.000190088
1.16175e-07
0.000203024
2.47924e-08
0.00021153
-1.42437e-08
0.000218149
-6.7794e-08
0.000223594
-8.05595e-08
0.000228054
-1.14534e-07
0.000231634
-1.2038e-07
0.000234437
-1.58665e-07
0.000236581
-1.79347e-07
0.00023818
0.00023935
-2.49549e-07
1.83354e-07
0.000163232
2.21478e-07
0.00019005
1.65012e-07
0.000203081
1.21214e-07
0.000211574
9.3119e-08
0.000218177
8.41687e-08
0.000223603
6.02978e-08
0.000228078
6.92157e-08
0.000231625
7.75687e-08
0.000234429
8.28766e-08
0.000236575
5.75743e-08
0.000238205
0.000239338
6.92704e-08
2.07457e-07
0.000163024
2.44499e-07
0.000190013
2.5903e-07
0.000203066
2.36662e-07
0.000211596
2.01345e-07
0.000218212
2.0839e-07
0.000223596
2.54501e-07
0.000228032
2.50144e-07
0.000231629
2.7281e-07
0.000234406
2.90757e-07
0.000236557
2.98817e-07
0.000238197
0.000239352
2.85105e-07
2.3228e-07
0.000162792
3.19156e-07
0.000189926
3.30098e-07
0.000203055
3.26297e-07
0.0002116
3.60596e-07
0.000218178
3.57307e-07
0.000223599
3.91435e-07
0.000227998
4.57156e-07
0.000231563
4.94173e-07
0.000234369
4.99447e-07
0.000236553
5.6123e-07
0.000238135
0.000239307
6.06427e-07
2.39291e-07
0.000162552
3.68314e-07
0.000189797
3.99591e-07
0.000203024
4.14881e-07
0.000211585
4.39214e-07
0.000218153
5.04969e-07
0.000223533
5.53442e-07
0.000227949
6.05092e-07
0.000231512
6.8253e-07
0.000234292
7.5397e-07
0.000236482
7.86901e-07
0.000238103
0.000239282
8.11858e-07
2.84644e-07
0.000162268
4.15945e-07
0.000189665
4.93317e-07
0.000202946
5.28172e-07
0.00021155
5.96177e-07
0.000218086
6.5107e-07
0.000223478
7.41941e-07
0.000227859
8.0693e-07
0.000231448
8.67707e-07
0.000234232
9.19481e-07
0.00023643
9.83608e-07
0.000238039
0.000239278
9.87965e-07
2.88683e-07
0.000161979
4.63385e-07
0.00018949
5.37421e-07
0.000202872
6.15813e-07
0.000211471
7.00489e-07
0.000218001
7.97922e-07
0.000223381
8.75597e-07
0.000227781
9.83038e-07
0.000231341
1.05904e-06
0.000234157
1.15739e-06
0.000236332
1.25159e-06
0.000237945
0.000239182
1.34667e-06
3.15463e-07
0.000161663
5.11961e-07
0.000189294
6.30834e-07
0.000202753
7.28407e-07
0.000211373
8.038e-07
0.000217926
9.16639e-07
0.000223269
1.03722e-06
0.000227662
1.15931e-06
0.000231219
1.27719e-06
0.000234039
1.38858e-06
0.000236221
1.4609e-06
0.000237872
0.000239101
1.54218e-06
3.39925e-07
0.000161323
5.58939e-07
0.000189075
6.99754e-07
0.000202612
8.15415e-07
0.000211258
9.33933e-07
0.000217807
1.06304e-06
0.00022314
1.19834e-06
0.000227527
1.33368e-06
0.000231084
1.46574e-06
0.000233907
1.58875e-06
0.000236097
1.70592e-06
0.000237755
0.000238978
1.82878e-06
3.65625e-07
0.000160957
6.07132e-07
0.000188833
7.67836e-07
0.000202451
9.02361e-07
0.000211123
1.06426e-06
0.000217646
1.20798e-06
0.000222997
1.35773e-06
0.000227377
1.50712e-06
0.000230935
1.67794e-06
0.000233736
1.8121e-06
0.000235963
1.93309e-06
0.000237633
0.000238876
2.0341e-06
3.6881e-07
0.000160588
6.53711e-07
0.000188548
8.35888e-07
0.000202269
1.01507e-06
0.000210945
1.16689e-06
0.000217494
1.32642e-06
0.000222837
1.51789e-06
0.000227186
1.70836e-06
0.000230744
1.83697e-06
0.000233607
2.01246e-06
0.000235786
2.15325e-06
0.000237491
0.000238695
2.33461e-06
4.15856e-07
0.000160172
7.00746e-07
0.000188263
9.28856e-07
0.000202042
1.10195e-06
0.000210772
1.27139e-06
0.000217325
1.50025e-06
0.000222609
1.67881e-06
0.000227007
1.8544e-06
0.000230568
2.05135e-06
0.000233409
2.20788e-06
0.000235629
2.3958e-06
0.000237303
0.000238624
2.46717e-06
4.20184e-07
0.000159752
7.50325e-07
0.000187933
9.98874e-07
0.000201793
1.21477e-06
0.000210556
1.42767e-06
0.000217112
1.5919e-06
0.000222444
1.81161e-06
0.000226787
2.03191e-06
0.000230347
2.24457e-06
0.000233195
2.45217e-06
0.000235421
2.63265e-06
0.000237122
0.000238404
2.85288e-06
4.46052e-07
0.000159306
7.75236e-07
0.000187605
1.04314e-06
0.000201526
1.2776e-06
0.000210322
1.50624e-06
0.000216883
1.76582e-06
0.000222184
2.00199e-06
0.00022655
2.23567e-06
0.000230112
2.46612e-06
0.000232965
2.68474e-06
0.000235202
2.88966e-06
0.000236918
0.000238216
3.07785e-06
4.58425e-07
0.000158848
8.48716e-07
0.000187215
1.13796e-06
0.000201237
1.39101e-06
0.000210068
1.63783e-06
0.000216635
1.88482e-06
0.000221936
2.13504e-06
0.000226299
2.38358e-06
0.000229864
2.652e-06
0.000232697
2.88404e-06
0.000234971
3.10477e-06
0.000236698
0.000237994
3.32734e-06
5.00955e-07
0.000158348
8.96974e-07
0.000186819
1.20772e-06
0.000200925
1.50496e-06
0.00020977
1.76599e-06
0.000216373
2.02977e-06
0.000221671
2.32243e-06
0.000226006
2.58447e-06
0.000229602
2.81115e-06
0.000232472
3.08142e-06
0.000234702
3.30469e-06
0.000236476
0.000237772
3.52721e-06
5.07043e-07
0.000157841
9.45256e-07
0.000186381
1.27518e-06
0.000200595
1.56589e-06
0.000209478
1.87083e-06
0.000216067
2.17733e-06
0.000221365
2.45585e-06
0.000225728
2.76019e-06
0.0002293
3.05618e-06
0.000232177
3.28542e-06
0.000234474
3.56294e-06
0.000236199
0.000237517
3.81752e-06
5.33355e-07
0.000157308
9.694e-07
0.000185945
1.37117e-06
0.000200192
1.67985e-06
0.000209169
2.00307e-06
0.000215744
2.29734e-06
0.000221071
2.62174e-06
0.000225406
2.91234e-06
0.00022901
3.21926e-06
0.000231871
3.51386e-06
0.00023418
3.78748e-06
0.000235925
0.000237306
3.99764e-06
5.42492e-07
0.000156765
1.04269e-06
0.000185444
1.41595e-06
0.000199818
1.76982e-06
0.000208815
2.1105e-06
0.000215404
2.44943e-06
0.000220734
2.7873e-06
0.000225069
3.1179e-06
0.00022868
3.41441e-06
0.000231575
3.75032e-06
0.000233843
4.0235e-06
0.000235651
0.00023698
4.3485e-06
5.71155e-07
0.000156194
1.07142e-06
0.000184943
1.48724e-06
0.000199402
1.88822e-06
0.000208414
2.2192e-06
0.000215074
2.60261e-06
0.000220351
2.92652e-06
0.000224746
3.26713e-06
0.00022834
3.6441e-06
0.000231196
3.93393e-06
0.000233552
4.25817e-06
0.000235325
0.000236747
4.49111e-06
6.06322e-07
0.000155586
1.12323e-06
0.000184425
1.58145e-06
0.000198944
1.9625e-06
0.000208034
2.35855e-06
0.000214679
2.72187e-06
0.000219989
3.1038e-06
0.000224364
3.49144e-06
0.000227952
3.82022e-06
0.000230866
4.1766e-06
0.000233194
4.50383e-06
0.000234997
0.000236387
4.86349e-06
6.14065e-07
0.000154971
1.16168e-06
0.000183877
1.64245e-06
0.000198463
2.05946e-06
0.000207618
2.47251e-06
0.000214267
2.85714e-06
0.000219605
3.26468e-06
0.000223956
3.63719e-06
0.000227578
4.0262e-06
0.000230476
4.40168e-06
0.000232818
4.72706e-06
0.000234672
0.000236078
5.03623e-06
6.37605e-07
0.000154333
1.22249e-06
0.000183292
1.70842e-06
0.000197978
2.18646e-06
0.000207141
2.59989e-06
0.000213853
3.02278e-06
0.000219181
3.4228e-06
0.000223555
3.86003e-06
0.00022714
4.20895e-06
0.000230127
4.60121e-06
0.000232426
4.98229e-06
0.000234292
0.000235691
5.37083e-06
6.59863e-07
0.000153673
1.27031e-06
0.000182682
1.79566e-06
0.000197454
2.24886e-06
0.000206687
2.69805e-06
0.000213404
3.16696e-06
0.000218711
3.57683e-06
0.000223144
4.00724e-06
0.000226709
4.42606e-06
0.000229709
4.83185e-06
0.000232021
5.21138e-06
0.000233913
0.000235371
5.53199e-06
6.99723e-07
0.000152974
1.31105e-06
0.000182072
1.88473e-06
0.00019688
2.37918e-06
0.000206193
2.82448e-06
0.000212957
3.28397e-06
0.00021825
3.76094e-06
0.000222666
4.20687e-06
0.000226263
4.64138e-06
0.000229275
5.06363e-06
0.0002316
5.47517e-06
0.000233503
0.000234953
5.89356e-06
6.80906e-07
0.000152294
1.3768e-06
0.000181377
1.94803e-06
0.00019631
2.4629e-06
0.000205677
2.97533e-06
0.000212443
3.42548e-06
0.000217798
3.9211e-06
0.00022217
4.38226e-06
0.000225803
4.85634e-06
0.000228802
5.26404e-06
0.000231193
5.7048e-06
0.000233062
0.000234571
6.08647e-06
7.52175e-07
0.000151544
1.39028e-06
0.00018074
1.98528e-06
0.000195714
2.54527e-06
0.000205116
3.077e-06
0.00021191
3.59604e-06
0.000217278
4.08124e-06
0.000221685
4.55648e-06
0.000225328
5.04559e-06
0.000228313
5.51575e-06
0.000230723
5.93839e-06
0.000232639
0.000234173
6.33574e-06
7.40457e-07
0.000150804
1.50607e-06
0.000179975
2.12373e-06
0.000195096
2.70596e-06
0.000204533
3.2323e-06
0.000211383
3.76975e-06
0.000216741
4.27138e-06
0.000221184
4.78914e-06
0.000224811
5.26613e-06
0.000227837
5.75432e-06
0.000230235
6.20047e-06
0.000232192
0.000233678
6.69505e-06
7.6279e-07
0.000150041
1.50099e-06
0.000179236
2.16043e-06
0.000194436
2.73741e-06
0.000203956
3.3362e-06
0.000210785
3.86482e-06
0.000216213
4.4352e-06
0.000220614
4.94107e-06
0.000224305
5.45892e-06
0.000227318
5.93123e-06
0.000229762
6.4056e-06
0.000231717
0.000233251
6.83264e-06
8.21058e-07
0.000149219
1.56903e-06
0.000178487
2.25371e-06
0.000193751
2.87768e-06
0.000203333
3.43949e-06
0.000210225
4.0419e-06
0.000215612
4.57597e-06
0.00022008
5.12373e-06
0.000223757
5.68423e-06
0.000226757
6.20164e-06
0.000229244
6.73639e-06
0.000231182
0.000232773
7.21516e-06
8.19761e-07
0.000148398
1.60748e-06
0.000177698
2.31619e-06
0.000193043
2.99238e-06
0.000202658
3.60316e-06
0.000209616
4.18982e-06
0.000215027
4.79795e-06
0.000219472
5.36161e-06
0.000223193
5.88241e-06
0.000226236
6.41075e-06
0.000228715
6.91249e-06
0.000230681
0.000232295
7.39082e-06
8.14732e-07
0.000147582
1.65375e-06
0.000176858
2.40872e-06
0.000192288
3.07844e-06
0.000201989
3.73381e-06
0.000208961
4.34864e-06
0.000214412
4.93706e-06
0.000218884
5.51665e-06
0.000222613
6.11275e-06
0.000225639
6.68588e-06
0.000228142
7.21693e-06
0.00023015
0.000231761
7.75076e-06
8.78559e-07
0.000146702
1.72116e-06
0.000176015
2.47984e-06
0.00019153
3.19584e-06
0.000201274
3.84591e-06
0.000208311
4.49879e-06
0.000213759
5.10957e-06
0.000218272
5.76527e-06
0.000221956
6.3132e-06
0.000225091
6.90649e-06
0.000227549
7.46552e-06
0.000229591
0.000231287
7.93991e-06
8.90975e-07
0.000145811
1.76353e-06
0.000175143
2.57703e-06
0.000190717
3.28213e-06
0.000200569
3.98551e-06
0.000207608
4.65672e-06
0.000213086
5.28488e-06
0.000217643
5.92594e-06
0.000221315
6.58463e-06
0.000224433
7.1596e-06
0.000226975
7.72862e-06
0.000229023
0.000230663
8.35265e-06
9.09118e-07
0.000144902
1.8455e-06
0.000174208
2.64234e-06
0.000189921
3.41128e-06
0.000199801
4.12696e-06
0.000206891
4.81702e-06
0.000212395
5.48886e-06
0.00021697
6.12042e-06
0.000220683
6.78879e-06
0.000223765
7.41845e-06
0.000226346
8.01855e-06
0.000228424
0.000230138
8.54413e-06
9.40913e-07
0.000143963
1.86351e-06
0.000173286
2.74977e-06
0.000189035
3.53297e-06
0.000199017
4.29466e-06
0.000206128
4.94326e-06
0.000211745
5.66857e-06
0.000216244
6.34211e-06
0.000220009
6.9968e-06
0.000223111
7.62828e-06
0.000225715
8.23026e-06
0.000227822
0.000229508
8.86093e-06
9.60241e-07
0.000143003
1.91173e-06
0.000172335
2.81332e-06
0.000188134
3.62004e-06
0.000198209
4.37893e-06
0.000205369
5.1436e-06
0.00021098
5.85229e-06
0.000215535
6.56878e-06
0.000219293
7.21275e-06
0.000222467
7.88709e-06
0.000225041
8.50761e-06
0.000227202
0.000228931
9.08446e-06
9.864e-07
0.000142017
1.98252e-06
0.000171339
2.88861e-06
0.000187227
3.74359e-06
0.000197354
4.53805e-06
0.000204574
5.31303e-06
0.000210205
6.0668e-06
0.000214781
6.7762e-06
0.000218583
7.49271e-06
0.00022175
8.13613e-06
0.000224397
8.85472e-06
0.000226483
0.000228283
9.5026e-06
1.01474e-06
0.000141002
2.03405e-06
0.00017032
2.96604e-06
0.000186295
3.88309e-06
0.000196437
4.67521e-06
0.000203783
5.44667e-06
0.000209434
6.25856e-06
0.000213969
6.9859e-06
0.000217856
7.69229e-06
0.000221043
8.42813e-06
0.000223661
9.0793e-06
0.000225832
0.000227694
9.66913e-06
1.04734e-06
0.000139954
2.0928e-06
0.000169273
3.10493e-06
0.000185283
3.95068e-06
0.000195593
4.80249e-06
0.000202932
5.65897e-06
0.000208578
6.38741e-06
0.000213241
7.2242e-06
0.000217018
7.97464e-06
0.000220292
8.71608e-06
0.000222919
9.38762e-06
0.00022516
0.000226973
1.01088e-05
1.06606e-06
0.000138887
2.14857e-06
0.00016819
3.17159e-06
0.00018426
4.08022e-06
0.000194685
4.99596e-06
0.000202017
5.79553e-06
0.000207779
6.64808e-06
0.000212388
7.4125e-06
0.000216253
8.17866e-06
0.000219525
8.91948e-06
0.000222178
9.62153e-06
0.000224458
0.000226301
1.02942e-05
1.09106e-06
0.000137795
2.20121e-06
0.00016708
3.23109e-06
0.000183231
4.25184e-06
0.000193665
5.11282e-06
0.000201157
6.01448e-06
0.000206877
6.84767e-06
0.000211554
7.61592e-06
0.000215484
8.44306e-06
0.000218698
9.20537e-06
0.000221416
9.98402e-06
0.00022368
0.000225634
1.06515e-05
1.11566e-06
0.000136679
2.259e-06
0.000165937
3.33736e-06
0.000182153
4.32379e-06
0.000192679
5.28916e-06
0.000200191
6.19739e-06
0.000205968
7.05176e-06
0.000210699
7.881e-06
0.000214654
8.68837e-06
0.00021789
9.49805e-06
0.000220606
1.02538e-05
0.000222925
0.000224888
1.10003e-05
1.14297e-06
0.000135537
2.35388e-06
0.000164727
3.45764e-06
0.00018105
4.47827e-06
0.000191658
5.45222e-06
0.000199216
6.35855e-06
0.000205061
7.2588e-06
0.000209798
8.15105e-06
0.000213762
9.00211e-06
0.000217039
9.80171e-06
0.000219808
1.06023e-05
0.000222125
0.000224118
1.13732e-05
1.1693e-06
0.000134368
2.37535e-06
0.000163522
3.51224e-06
0.000179914
4.57574e-06
0.000190595
5.5508e-06
0.00019824
6.54746e-06
0.000204063
7.4433e-06
0.000208901
8.33622e-06
0.000212868
9.2017e-06
0.000216174
1.00073e-05
0.000219002
1.07868e-05
0.000221347
0.00022343
1.1475e-05
1.19286e-06
0.000133177
2.43339e-06
0.000162282
3.64602e-06
0.000178702
4.73611e-06
0.000189504
5.76164e-06
0.000197214
6.71629e-06
0.000203107
7.65951e-06
0.000207957
8.6e-06
0.000211928
9.50793e-06
0.000215267
1.03707e-05
0.00021814
1.11931e-05
0.000220525
0.000222552
1.2072e-05
1.2541e-06
0.000131923
2.52713e-06
0.00016101
3.73677e-06
0.000177492
4.85682e-06
0.000188383
5.90968e-06
0.00019616
6.91426e-06
0.000202103
7.90618e-06
0.000206965
8.86448e-06
0.00021097
9.72959e-06
0.000214402
1.06553e-05
0.000217215
1.1496e-05
0.000219684
0.00022173
1.23171e-05
1.23644e-06
0.000130687
2.58417e-06
0.000159662
3.82708e-06
0.000176249
4.98684e-06
0.000187223
6.13001e-06
0.000195017
7.11536e-06
0.000201117
8.12845e-06
0.000205952
9.11345e-06
0.000209985
1.00428e-05
0.000213472
1.09417e-05
0.000216315
1.18375e-05
0.000218788
0.000220858
1.27093e-05
1.30107e-06
0.000129386
2.64073e-06
0.000158322
3.92182e-06
0.000174968
5.15728e-06
0.000185988
6.21679e-06
0.000193958
7.34309e-06
0.000199991
8.38363e-06
0.000204912
9.3414e-06
0.000209027
1.03161e-05
0.000212497
1.1259e-05
0.000215372
1.21551e-05
0.000217891
0.000220033
1.29799e-05
1.31627e-06
0.00012807
2.6963e-06
0.000156942
4.01312e-06
0.000173651
5.24188e-06
0.00018476
6.44721e-06
0.000192753
7.52964e-06
0.00019891
8.59527e-06
0.000203847
9.6263e-06
0.000207996
1.06477e-05
0.000211475
1.15917e-05
0.000214427
1.25392e-05
0.000216943
0.000219076
1.34968e-05
1.36844e-06
0.000126701
2.79083e-06
0.000155519
4.15059e-06
0.000172291
5.41866e-06
0.000183492
6.60774e-06
0.000191565
7.74433e-06
0.000197773
8.85971e-06
0.000202731
9.91372e-06
0.000206942
1.0934e-05
0.000210455
1.19189e-05
0.000213442
1.28582e-05
0.000216004
0.000218247
1.36871e-05
1.36234e-06
0.000125338
2.85201e-06
0.000154029
4.24718e-06
0.000170896
5.55274e-06
0.000182187
6.82521e-06
0.000190292
7.98759e-06
0.000196611
9.05722e-06
0.000201661
1.01848e-05
0.000205814
1.12034e-05
0.000209436
1.22127e-05
0.000212433
1.31935e-05
0.000215024
0.000217216
1.42249e-05
1.45539e-06
0.000123883
2.91089e-06
0.000152574
4.34612e-06
0.000169461
5.7373e-06
0.000180796
6.95141e-06
0.000189078
8.19435e-06
0.000195368
9.33368e-06
0.000200522
1.04382e-05
0.000204709
1.15301e-05
0.000208344
1.26099e-05
0.000211354
1.35925e-05
0.000214041
0.00021635
1.44586e-05
1.44154e-06
0.000122441
3.01128e-06
0.000151005
4.49026e-06
0.000167983
5.87465e-06
0.000179411
7.22036e-06
0.000187732
8.40585e-06
0.000194181
9.6426e-06
0.000199284
1.07738e-05