/*--------------------------------*- C++ -*----------------------------------*\
| =========                 |                                                 |
| \\      /  F ield         | OpenFOAM: The Open Source CFD Toolbox           |
|  \\    /   O peration     | Version:  2.3.1                                 |
|   \\  /    A nd           | Web:      www.OpenFOAM.org                      |
|    \\/     M anipulation  |                                                 |
\*---------------------------------------------------------------------------*/
FoamFile
{
    version     2.0;
    format      ascii;
    class       volSymmTensorField;
    location    "1140";
    object      sigma;
}
// * * * * * * * * * * * * * * * * * * * * * * * * * * * * * * * * * * * * * //

dimensions      [1 -1 -2 0 0 0 0];

internalField   nonuniform List<symmTensor> 
11800
(
(70707.4 54426.8 3.46767e-14 -2052.02 1.84244e-14 17034.8)
(-38580.5 53727.7 5.32309e-14 -3369.49 1.69483e-14 -10408.7)
(298063 59555.5 -7.85501e-16 806.429 -3.95404e-14 74155.6)
(-264094 40070.4 0 2992.8 0 -64784.4)
(-39367.9 51526 9.93299e-15 -7737.06 -2.81526e-14 -11687.7)
(-166916 64018.7 3.90517e-14 3241.43 2.05447e-14 -40611)
(-30531.5 62992 7.29606e-14 -764.655 -1.90234e-14 -7765.21)
(-42192.5 61859.7 -1.09089e-14 1572.12 4.40533e-14 -10078.7)
(96344 48504.2 1.5503e-14 362.883 -1.06731e-14 23994.9)
(61089.5 64666.2 -3.81701e-14 1886.15 -3.22523e-14 15625.5)
(82095.2 48615.9 -2.89306e-14 -522.009 2.48384e-14 20240)
(-383024 32465.1 -3.52781e-14 -3193.56 -1.60702e-14 -95828.3)
(13046.9 -18990.4 7.08274e-17 -35229.9 5.50339e-17 -5504.05)
(276986 39908.1 3.21294e-14 2372.05 -8.84659e-15 69314.5)
(-225338 59670 -2.64865e-14 6976.9 2.06654e-14 -54179.9)
(1.15258e+06 5769.58 0 -2379.19 0 285388)
(-20245.1 54111.2 2.46888e-14 1062.89 2.18623e-15 -4759.51)
(-30645.7 49059.3 -1.39863e-14 3047.17 8.06569e-14 -6847.75)
(64456 81433.5 -1.52093e-14 -10195.3 1.08906e-14 13463.2)
(46009.4 46059 -5.08142e-14 -3406.14 -1.64733e-14 10570.7)
(-209480 44290.1 1.57141e-14 2005.74 1.6508e-14 -51478.6)
(-334198 56358.6 2.52108e-14 1386.64 -1.46992e-14 -82577.2)
(-509900 80548.2 -1.37771e-14 6598.27 8.99075e-15 -124879)
(-468226 55406.8 1.44579e-16 254.194 2.43385e-15 -116113)
(930137 55101.4 1.50767e-15 -4108.72 1.97251e-14 229767)
(-597785 78434.2 -1.34595e-14 3563.61 -4.16932e-16 -147438)
(-564697 41439.1 0 4416.97 0 -139017)
(275371 34123.6 -4.12029e-14 -5418.53 -2.49482e-14 66980.6)
(-627206 43347.4 -7.64063e-15 5664.35 -3.59084e-14 -154217)
(-693823 44795.6 9.92772e-15 5000.21 -1.56307e-14 -170911)
(187701 37836.3 -5.09236e-14 -1032.88 -9.15498e-14 46316.2)
(36508.8 57393.9 -9.02762e-15 1452.49 -7.62209e-15 9418.98)
(594680 74073.7 -2.13043e-15 6752.89 -9.65868e-15 149228)
(-17114.5 61182.9 6.6668e-15 24.0547 -5.00303e-14 -4240.49)
(10372.1 62563.9 -1.76029e-14 4581.4 -7.5841e-14 3710.27)
(-186281 31178.4 -4.6244e-14 4918.93 -3.36614e-14 -44999.5)
(10404.2 62295.7 6.25449e-14 3035.2 -7.46433e-14 3334.58)
(637704 52224.2 -7.81378e-15 3131.52 -3.46763e-14 159004)
(-22032.5 58346.4 0 -4208.74 0 -6510.99)
(44023.9 53873.8 -2.20019e-14 2693.8 4.10847e-14 11591.6)
(-593494 35447.8 -3.98572e-14 -2471.36 -1.86119e-14 -147871)
(-658863 36518.3 2.86819e-14 -2326.35 -1.65257e-14 -164055)
(288494 42333.7 -1.58319e-14 -3785.19 -5.3061e-14 70642)
(-729148 38339.4 -5.72531e-15 -5012.49 -2.9701e-14 -182160)
(196813 44078.1 1.35426e-13 2381.82 -4.23873e-14 49424.3)
(1.07445e+06 37290.2 0 -4328.97 0 265520)
(476827 85080.8 -8.72837e-15 -2368.03 4.64089e-15 117723)
(570986 44736.1 -1.53044e-14 -6071.99 -1.07872e-14 140167)
(-48577.2 59346.1 -5.37097e-14 -2185.19 -3.32008e-14 -12595.2)
(110195 55350.5 0 1632.59 0 27746.6)
(-392660 32782.2 -2.54547e-15 2445.15 2.77607e-14 -96820.2)
(-278380 33214.1 9.01841e-14 5396.64 1.0605e-14 -67732.6)
(-5859.51 61924.6 5.04255e-14 -1163.94 3.1514e-14 -1742.66)
(18809.5 95727.9 -1.23316e-15 4466.86 1.0798e-14 5775.34)
(-1.23516e+06 7298.88 -1.9729e-15 -6573.17 -2.88563e-15 -308100)
(1.04117e+06 -29260.6 2.48389e-15 -48135.7 4.64904e-15 246393)
(-34816.5 24643.6 4.34809e-14 1678.5 1.61819e-14 -8222.21)
(-251783 62807.6 3.27055e-15 -2285.11 -2.76688e-14 -63039.4)
(198046 46578.1 -2.78031e-14 4188.37 4.078e-14 50178.5)
(-181846 63004.8 2.3062e-14 -5007.99 -4.1646e-15 -46362.2)
(1.0574e+06 28326.5 -2.20418e-14 -7900.33 -7.65961e-15 260403)
(-24620.8 64026.6 2.13372e-14 279.014 -3.48531e-14 -6039.7)
(-199558 54676.4 -1.26055e-14 -2543.68 2.1791e-14 -50145.5)
(154887 54942.1 3.78973e-14 -9.91906 -2.16818e-14 38428.2)
(921586 21381.2 2.47199e-15 1283.42 -1.42489e-14 228983)
(-129614 33455.3 -6.1122e-14 2706.78 -7.406e-14 -31488.2)
(-406659 20640.8 4.32995e-14 1234.02 1.4492e-14 -100594)
(-291508 22694.9 1.15614e-15 4188.85 -7.5778e-14 -71289.8)
(-35506.1 26505.9 0 -2021.87 0 -9311.46)
(-557588 52232.9 -9.38743e-16 4965.43 3.55892e-14 -137117)
(-15005 63974.6 -1.22385e-14 625.009 2.53497e-14 -3567.96)
(-27448 52800.4 -4.71557e-14 -3089.12 5.29255e-14 -7576.88)
(-24671.5 51030.3 3.30745e-14 -4467.86 -2.03008e-14 -7230.07)
(-892591 217183 -3.20369e-15 124637 3.02309e-15 -190545)
(1.04522e+06 53323.4 -7.42322e-16 -4463.87 -8.93705e-15 258234)
(-175653 40683.3 -4.54259e-14 7405.2 -3.31072e-14 -41745.7)
(950443 19655.6 -1.80122e-14 2765.07 1.6037e-14 236510)
(-126811 25487.5 4.01877e-14 1233.88 -1.32195e-13 -31158.3)
(-94482.8 41427.8 7.55163e-15 4431.03 -7.23108e-15 -22343.7)
(-92006.8 48367 7.70662e-14 3925.04 7.75338e-14 -21854.9)
(-1.25037e+06 -17222.4 6.97618e-15 3683.42 3.12801e-14 -309328)
(47885.7 45060.8 0 4936.23 0 13106.2)
(29406.8 52477.9 -8.01571e-14 -11.2167 -3.16862e-14 7293.64)
(19959.1 55814.9 2.77882e-14 2990.7 -2.23694e-16 5694.3)
(-39531.1 49146.4 1.93426e-14 -4042.25 5.48961e-14 -10811.4)
(-671679 54584.4 -1.08731e-14 -4159.06 5.67561e-14 -167689)
(198629 42760.2 6.47541e-14 1828.09 -2.02075e-14 49737.6)
(-606277 49796 0 -2665.65 0 -151091)
(-547146 48305.2 -2.31734e-14 -2561.43 -2.37264e-14 -136394)
(287092 39731.8 2.97599e-14 2771.2 1.80716e-15 71920.9)
(-7084.61 59918.8 -1.04463e-13 -1820.95 -6.72175e-14 -2209.65)
(705443 69405.6 0 -2227.79 0 174482)
(-55969.9 54607.3 -2.21603e-14 1742.68 -3.68578e-14 -13454.9)
(41904.2 22852.2 -1.28075e-14 3146.91 -1.86209e-14 11178.1)
(78084.4 49455.4 9.91035e-14 -571.372 1.76912e-15 19232.6)
(30209.3 -22804.4 -4.50945e-16 -64219 -3.34277e-16 -8438.51)
(-1596.32 6236.75 1.16833e-17 3741.76 -6.94716e-17 532.328)
(-30331.8 -22535.8 -2.83891e-16 63716 1.89164e-16 8283.28)
(-7007.33 61396.4 -3.2479e-14 -1667.22 -4.77252e-16 -2152.33)
(-332582 40586.5 -8.03394e-15 -1686.31 3.24453e-14 -82938.7)
(28548.4 36763.7 1.78611e-14 -440.137 -5.01327e-14 6974.23)
(357892 44627.6 -3.90196e-14 -4128.54 -5.43075e-14 87775.9)
(-667244 75224 2.83214e-15 1446.85 5.75248e-15 -165198)
(-225792 62419.1 -1.73286e-15 3972.87 5.54279e-15 -55037.8)
(1651.65 64631.5 -5.01666e-15 -221.67 -2.50265e-14 354.808)
(164279 73411.4 -1.1024e-14 1733.83 -1.9261e-14 41191.1)
(-72831.7 51256.3 -3.08726e-14 1146.44 6.83249e-14 -17786.6)
(-51573 55034.5 -1.04183e-13 -587.239 -5.03959e-14 -12942)
(1.02378e+06 25004.3 6.32755e-15 2089.7 1.35827e-14 254539)
(600851 45992.2 9.94137e-15 1431.32 2.01151e-15 149438)
(667203 48263.9 1.90913e-14 2245.91 2.69197e-14 166104)
(543323 43517.3 6.89235e-14 2615.63 4.09703e-14 135458)
(-202912 43248.2 3.0376e-14 -4284.07 4.75346e-14 -51409.6)
(-293368 40564.7 -8.04738e-14 -3284.53 2.89739e-14 -73605.5)
(101688 47554.2 3.49928e-14 364.941 -1.8403e-14 25321.5)
(923198 36537.5 9.67768e-15 -124.581 5.76967e-15 229033)
(124822 28439.8 -2.50117e-14 -3448.76 -9.84563e-14 30115.2)
(-37130.6 58424.3 -8.65788e-14 1751.22 8.12291e-14 -8778.35)
(864145 57305.3 -1.13015e-14 15.5347 1.413e-14 214416)
(-65918 66683.4 -2.86691e-14 1095.89 -7.73832e-15 -16083.7)
(-115408 45239.9 -2.06138e-14 709.222 -8.75492e-15 -28459)
(31598.9 63203.4 6.20871e-14 -3438.29 -8.91205e-14 6987.21)
(43610.9 62417.2 -4.34895e-14 -701.942 2.99806e-14 10646.6)
(-30091.6 53474.6 -1.26089e-14 -1418.42 -1.86451e-14 -7818.27)
(-58189.8 52282.5 -7.88368e-14 1206.98 -6.16991e-14 -14138.6)
(-2352.82 61390.8 -7.57638e-14 -2551.75 -5.72113e-14 -1216.92)
(-20210.2 61360.5 -4.54332e-14 -5432.79 5.00738e-14 -6362.54)
(-2779.72 60797.7 -2.97072e-14 -1024.27 -2.84011e-14 -943.847)
(5771.24 48501.1 1.42172e-15 27377.3 6.36379e-14 8224.83)
(-25617.5 14272 -2.57716e-16 -5849.32 3.03679e-14 -7807.55)
(-1.14841e+06 -178877 1.03552e-14 50267.2 -5.34176e-15 -272473)
(-786299 55942.6 7.26444e-15 -5793.42 -1.10187e-15 -196534)
(218426 38392.5 3.42877e-14 4419.63 -3.35142e-14 55292.6)
(-665161 53969.1 -2.76995e-14 3099.87 1.74816e-14 -164271)
(306752 34747.8 -1.55805e-14 5586.77 4.70559e-14 77497.5)
(-597779 48584.3 1.05521e-14 3441.98 1.05927e-14 -147467)
(-539421 46342.6 -5.97578e-14 3302.33 4.58506e-14 -133022)
(181506 48983.2 3.3499e-14 -7.78579 9.37423e-14 45033.4)
(-570688 33429.9 3.77119e-14 5733.35 -5.23893e-14 -140177)
(257274 48044.4 4.18533e-14 748.147 -3.33936e-14 64020.5)
(-513821 30276.4 3.08811e-14 4643.96 -5.37302e-14 -126337)
(-463955 30178.8 -3.20689e-14 4769.1 -2.89038e-14 -113933)
(-284032 68260.5 2.52325e-15 7282.56 2.51397e-14 -68667.2)
(77328.2 55903.1 -1.67069e-14 -5093.33 -1.11882e-13 17922.9)
(108695 51342.6 -2.6836e-14 -4128.6 -7.79069e-14 25945.1)
(-162506 50124 -8.15201e-15 5595.57 4.74466e-14 -38932.7)
(648457 32352.2 -5.18808e-14 633.698 -1.74689e-14 161052)
(-680103 1422.58 5.0061e-14 -6442.04 1.55748e-14 -170346)
(375987 37304.3 3.51099e-14 -3162.99 -3.27389e-14 92505.2)
(-223762 46462 8.38263e-16 3911.2 5.01207e-15 -54549.4)
(-96631.3 54604.6 -4.33704e-14 3479.17 -3.59394e-14 -23112.9)
(-100931 49324.1 3.71205e-14 355.226 -3.36899e-14 -24954.8)
(9367.43 61427.4 2.8219e-14 2423.78 5.17225e-14 2925.64)
(-141720 42433.9 -6.34841e-14 2529.5 6.60166e-14 -34536.1)
(112076 47142 -3.33909e-14 -4133.12 -3.53987e-14 26782.9)
(74713.4 56898.7 -3.05165e-14 531.06 2.35985e-14 18669.7)
(-249565 43935.4 5.17282e-14 5519.62 -3.49165e-14 -60552.7)
(-344321 46556.7 1.90085e-14 1468.48 4.15189e-14 -85068.7)
(749092 27723.8 1.23622e-14 1204.96 -1.98406e-16 186164)
(-2725.69 62967.2 1.48122e-14 832.974 -7.22949e-14 -469.622)
(1.16229e+06 55764.4 -1.48579e-14 -8546.9 -8.14458e-15 286266)
(-116981 49354.3 -5.48356e-14 1918.09 3.78923e-14 -28549.5)
(952669 37669.8 0 -11349.8 0 233560)
(-259886 49923.8 1.67817e-14 -806.828 6.97985e-14 -64683.2)
(-287641 51460.4 -1.71924e-14 -1640 2.05259e-14 -71776.6)
(-318689 55500.3 -2.65285e-15 -1917.01 7.51423e-14 -79549)
(136005 52189.6 -4.08399e-14 137.638 1.00827e-14 33779.9)
(92213.3 56732.1 -4.33914e-14 -895.159 1.0752e-14 22657.9)
(-1.29334e+06 289.217 1.1874e-14 -6314.31 -6.8196e-15 -322472)
(-746613 54324.6 -1.16328e-14 -4077.87 2.22827e-14 -186262)
(241923 42122.7 -4.33561e-14 3537.21 -2.54438e-14 60903.6)
(329176 37710.6 1.22684e-13 1746.1 -6.61114e-14 82108.5)
(40648 57888.2 2.38372e-14 -5381.89 -6.1816e-14 8750.23)
(-206878 30768.5 0 1848.43 0 -50872)
(-212419 22601.2 6.51421e-14 1980.61 -3.3193e-14 -52214.1)
(1.06382e+06 39224.3 1.88674e-14 -8176.91 1.2651e-14 261927)
(1.09223e+06 3982.63 1.55866e-14 7850.13 1.39082e-14 272951)
(533762 29580.6 7.5181e-16 371.664 3.22513e-14 132530)
(482798 28452.5 6.12856e-15 1656.27 7.74586e-14 120203)
(592440 29466 1.69108e-14 -292.719 -2.44053e-14 146924)
(-247068 48467.3 -3.93905e-14 2545.36 3.5546e-14 -60671)
(-168361 50074.2 -3.81234e-14 685.363 4.19427e-14 -41603.7)
(105979 61198.5 0 1191.92 0 26591.4)
(69990.9 65131.5 -1.61888e-15 960.147 6.07857e-14 17604.4)
(231835 50951.3 -4.76026e-14 -692.906 3.90104e-14 57350.9)
(-100438 49075.1 -3.8031e-14 513.484 9.05844e-14 -24793.4)
(-173613 74152.1 -7.90719e-15 1351.98 3.53314e-14 -42741.5)
(48388.7 55794.3 -1.3888e-13 -855.635 -3.69679e-14 11793.9)
(67419.3 50335.2 -9.6543e-14 159.931 4.05154e-14 16767.8)
(-47625.3 59937.5 -1.87055e-14 1550.85 -2.60787e-16 -11432)
(-128675 50765.6 -1.62484e-14 2184.43 -1.02084e-14 -31384.8)
(-115705 48084 1.06183e-14 1205.27 -1.82275e-14 -28409.7)
(-119526 40581.3 0 -994.607 0 -29903.6)
(-63601.7 77961.1 2.41758e-16 -3054.6 -2.23633e-14 -16538.8)
(-494070 12383.6 4.59689e-14 -5583.98 -2.01389e-14 -123974)
(626296 36235.2 -6.06659e-14 -2506.22 -6.00137e-15 154775)
(926214 120825 3.93798e-15 -174056 2.01366e-15 186626)
(-22360.2 57272.9 1.2398e-14 -1517.59 -2.81907e-14 -5924.57)
(131008 25305.4 4.52247e-14 522.241 -1.03519e-13 32635.3)
(-1.17356e+06 -132086 9.89917e-15 101866 -6.64893e-15 -265909)
(60333.1 47351.7 1.93808e-15 3462.17 5.26465e-14 15828.9)
(157900 32620.7 3.65504e-14 3073.53 -4.20409e-14 39940.7)
(173418 34523.8 5.10257e-14 -3144.01 -2.15749e-14 42248.4)
(-2430.14 63576.4 3.83968e-14 40.2477 -5.71478e-15 -592.981)
(-3008.29 64892.4 4.05063e-14 -509.073 3.43746e-15 -872.728)
(453895 30614.8 1.31122e-14 -4665.04 4.43468e-14 111463)
(375345 58946.9 1.69168e-14 247.476 -4.10309e-15 93192)
(-339134 49836.1 0 1478.15 0 -83779.3)
(-291106 35478.7 -4.24014e-14 -5851.18 -2.65977e-14 -73681.1)
(1.13828e+06 -180051 -4.13486e-15 -51554.5 -2.89597e-15 269638)
(-325597 82327.6 -3.54693e-15 8249.92 4.26922e-14 -78740.1)
(-531111 43271.1 2.5211e-14 -2301.36 -1.50358e-14 -132350)
(-1.19358e+06 -479279 -1.12085e-14 257612 4.43028e-15 -232232)
(1.32588e+06 5179.51 0 18441.4 0 333553)
(-1.04593e+06 -444786 -3.65116e-15 122824 1.13894e-15 -229041)
(166623 85946.9 -2.40846e-14 261.366 8.62449e-15 41407.3)
(-38098.6 53963.2 -3.91944e-15 -3371.42 5.49398e-14 -10289.6)
(-471333 63084 2.05268e-14 -3422.85 -2.27713e-14 -117797)
(-422039 59367.1 3.0379e-14 -2295.93 -3.77609e-15 -105286)
(-381025 56922.1 -3.43286e-14 -2244.3 1.30396e-15 -95096.8)
(136453 48633.6 2.91049e-14 2528.75 -8.13753e-14 34484.2)
(198488 44315.4 -7.32955e-14 2557.28 7.14083e-14 49883.4)
(20311.5 53427.5 -1.14806e-14 -5270.01 5.40291e-14 3732.11)
(27675.9 48293.4 2.72988e-14 -5841.29 3.50654e-14 5417.6)
(-75366.4 78753.2 -3.31889e-14 10220.4 9.04006e-15 -16164)
(-42118.9 47562.2 2.35633e-14 7645.74 -3.02396e-14 -8553.5)
(-657090 -264626 -2.83571e-15 -16103.8 5.91955e-16 -167033)
(103085 78473.9 -1.86424e-14 7811.26 -6.68747e-14 27515.6)
(-50288.5 48682.9 -6.10781e-14 -4886.9 -2.8006e-14 -13690.1)
(-235268 65925 0 291.209 0 -58302.4)
(103364 53544.1 4.97328e-14 935.632 -2.04668e-14 25878.9)
(-49576.1 59668.1 0 117.261 0 -12271.7)
(-39978.3 54704.5 -2.94813e-14 484.853 -4.68395e-14 -9799.11)
(343995 49517.2 4.22002e-14 2568.71 -4.41428e-14 85989.5)
(354015 37587.9 6.42909e-14 -813.073 3.07744e-14 87636.6)
(1.18454e+06 -475835 -4.16938e-15 -256245 -1.38903e-15 230329)
(652428 -263017 4.88574e-15 15991 1.34206e-15 165848)
(-119164 42406.8 8.98926e-15 504.066 1.28277e-14 -29441.9)
(-128103 44431.7 -2.72979e-14 -1871.76 -5.59995e-14 -32249.4)
(-625900 12587.2 -3.08363e-14 -3863.75 -7.1331e-15 -156257)
(499179 37404.7 6.90642e-14 -3243.36 -1.81506e-14 123052)
(167864 51763.7 2.19064e-15 -660.619 1.24185e-13 41486.5)
(245180 51166.9 4.21431e-14 -1907.39 4.59888e-14 60360.8)
(-602452 30921.8 -1.03054e-15 -1859.59 2.77593e-14 -149942)
(-545325 30273.4 -2.77242e-14 55.1356 9.18018e-15 -135293)
(-492053 30571.2 -1.66513e-15 -191.158 4.28694e-14 -122136)
(-6546.06 63907.7 -6.39144e-14 -1166.03 1.85452e-14 -1913.52)
(-671117 30825.9 1.85488e-14 -2026.35 2.00059e-14 -167021)
(205236 49235.7 -4.31868e-14 -924.104 2.12461e-14 50693.9)
(281097 48536.3 0 -2677.79 0 69081.5)
(267796 43242.2 1.66143e-14 -1610.44 3.99824e-14 66046)
(53289.3 52498.4 -5.39911e-14 2984.83 -1.43196e-13 13962.7)
(3121.05 59569.2 -4.73413e-14 -6310.15 -1.74779e-14 -791.279)
(249462 45695.7 -6.58324e-14 8689.89 1.20485e-14 64052.7)
(-194417 43049.1 -5.33333e-15 -963.192 -4.28739e-14 -48477.7)
(29903.2 67029.5 7.54891e-16 -7316.93 9.90596e-15 5604.12)
(1.03788e+06 -442101 -3.77906e-15 -122506 -9.55631e-16 227123)
(132003 55210.6 4.48155e-15 -2702.16 -8.12839e-14 32082.3)
(160185 54836.3 3.77142e-14 -893.252 1.286e-14 39523.6)
(-109130 55432.8 0 2013.21 0 -26577.9)
(-129298 59668.5 1.38918e-14 -2229.58 -3.88475e-14 -32634.7)
(373472 55915.8 0 5038.62 0 93916.2)
(413815 59433.1 2.52942e-14 3921.82 2.41604e-14 103649)
(458369 63576.6 -5.74451e-14 3706.82 -5.48509e-15 114650)
(-202319 41939.2 7.73646e-14 -3533.65 7.87508e-14 -51076.2)
(-141113 46486.1 4.03933e-15 -2714.33 -4.69784e-14 -35686.4)
(-9876.35 63144 4.55191e-14 2244 2.43136e-14 -1893.74)
(1.03846e+06 24668.9 -7.73486e-15 -15753.4 -1.46934e-14 253753)
(-7743.85 62012.9 -4.93939e-14 -3680.23 1.54261e-14 -2834.55)
(7868.17 47030.1 -4.96747e-14 5994.53 -3.11257e-14 3439.62)
(20075.3 61006.4 3.53811e-14 150.154 -8.23872e-14 5018.34)
(210265 54212.3 3.83147e-14 -1330.05 4.06577e-14 51840.9)
(-93228.2 13537.4 -6.27071e-14 -2720.78 3.09562e-15 -23806.9)
(274926 60769.7 0 -1756.2 0 67779)
(1.11508e+06 -28543.2 1.82304e-16 -169943 7.38098e-17 234508)
(220165 21528.2 3.61545e-14 2587.25 8.2428e-14 55269.3)
(209586 28266.5 1.63953e-14 -3845.71 8.9507e-15 51048.3)
(-303226 49292.3 5.44615e-15 3357.45 1.14827e-14 -74403.5)
(-216845 48988.2 -4.20487e-14 1494.56 1.34876e-14 -53432.9)
(-259162 38340.8 -8.64413e-14 1314.87 -1.51885e-14 -63977)
(-186237 41667.7 4.33687e-15 -832.3 -4.57577e-15 -46415.6)
(692756 28773.2 -3.28039e-15 -1333.28 1.06399e-14 171556)
(570934 67501.4 1.4544e-15 507.407 -2.19812e-14 141786)
(150903 57665.2 7.66107e-15 -799.834 4.54289e-15 37243.5)
(204102 51344.6 1.43547e-14 982.708 2.45414e-14 50885.6)
(110761 58220.4 3.97645e-14 -3448.86 2.84163e-14 26626.4)
(151511 51379 3.56819e-14 -4037.83 -5.66443e-15 36591)
(-316772 47386.5 -6.92152e-15 2246.76 1.75674e-14 -78040.2)
(-413608 61267.7 -1.92928e-14 -120.225 3.46608e-15 -102654)
(-102639 88030.5 2.18591e-14 -658.486 1.57489e-14 -25630.2)
(711980 47799.7 2.45746e-14 3068.4 1.78222e-14 177418)
(773308 49114.7 -5.37173e-15 12579.3 2.70348e-15 194995)
(926651 47950.5 4.34693e-15 -2375.09 2.7681e-15 229332)
(58449.4 57396.1 -7.71978e-14 3489.28 9.39968e-14 15368.2)
(-217565 22928.6 -4.78814e-14 -199.717 -2.46581e-14 -54031.9)
(-208098 29893.4 -6.07335e-14 5957.46 4.07135e-14 -50155.2)
(1.04099e+06 6466.71 0 9614.13 0 260676)
(1.04073e+06 43202.5 0 705.872 0 258401)
(558563 36369 9.31959e-15 -2120.85 4.55542e-14 138065)
(557417 17667.3 3.08655e-14 3056.9 -8.58802e-14 139065)
(-587156 17061.7 0 -5806 0 -147126)
(-570737 34902.5 0 4180.55 0 -140574)
(18039.7 59258.8 -1.06353e-14 3613.07 3.05599e-14 5372.49)
(-49088.1 36326.2 1.13936e-13 -4290.8 -4.83683e-14 -13244.4)
(-168185 29779.2 -3.00274e-14 -3193.29 -1.11035e-14 -42522.5)
(1.43473e+06 5574.22 0 29730.1 0 363362)
(-26059.2 55471.9 -7.50867e-14 -5952.82 -1.90034e-15 -7942.82)
(-28607.8 58254.1 -1.08151e-14 -5969.39 -6.03602e-14 -8579.31)
(133588 60029.9 -3.90497e-14 -2312.28 -2.68302e-14 32572.2)
(-108971 61498 -8.16587e-14 -1967.84 3.4297e-14 -27526.2)
(128223 44847.3 2.40563e-14 -5472.45 -2.49446e-14 30456.9)
(-500259 35312.7 1.67862e-14 -3548.9 -3.44946e-14 -125005)
(496731 36955 -6.84171e-15 -4347.18 -4.22288e-14 122170)
(-935807 53869.3 7.48184e-15 -5533.6 -3.32296e-14 -233566)
(-1.21566e+06 -97354.5 4.27984e-15 243466 -3.20473e-15 -241220)
(403161 79554.3 -6.71038e-15 -8404.24 8.47158e-15 97947.1)
(36854.6 64618.1 -4.11108e-15 -2469.84 2.31339e-14 8531.56)
(-472688 54835.7 -2.07521e-14 -4603.91 -5.77005e-14 -118426)
(391121 29899.6 -2.66018e-14 2311.64 3.83394e-14 97618.5)
(-280472 39148.1 2.9639e-14 -5793.86 3.80497e-14 -71028.4)
(211455 52843.1 4.38013e-14 2323.25 7.46362e-16 53042.6)
(36727.6 65765.5 1.20716e-14 310.439 5.66964e-16 9189.88)
(70663.5 55914.9 -5.10648e-14 -1486.02 6.43479e-14 17164.3)
(-145291 51325.4 3.66283e-14 -9300.01 -3.9149e-14 -38357.1)
(-232626 79492.5 6.84011e-16 3048.94 4.92979e-14 -56962.6)
(-130794 49299.5 5.566e-15 -9023.56 -3.91833e-14 -34691.7)
(-209932 74971 3.54119e-14 1959.28 -1.29751e-14 -51602.2)
(49616.6 48436.9 -2.29333e-14 -1843.03 7.18936e-15 11853.6)
(-22881.1 62906.2 -5.80018e-16 1845.71 -4.25603e-14 -5219.32)
(-15070.6 65050.6 5.23731e-14 1137.03 4.21288e-14 -3457.21)
(-10973.9 63848 2.69094e-14 -337.043 -5.87929e-14 -2806.49)
(768033 39195.1 1.7037e-14 1195.03 2.62208e-15 190861)
(-8274.79 65039.4 -5.99145e-14 -3505.08 -2.6712e-14 -2922.83)
(-30647.8 56847.8 2.92214e-14 -7652.91 -9.81672e-14 -9503.18)
(1.11444e+06 -15868.1 -8.5677e-15 -59441.3 -6.4379e-15 261767)
(154774 44478.2 3.1287e-14 -4237.89 -4.02058e-14 37351.2)
(-386034 71108.5 2.20477e-14 6751.73 6.00743e-15 -94107.6)
(-410281 42384.1 -3.45114e-14 1656.07 -1.51441e-14 -101388)
(-409113 27602.2 0 -3166.94 0 -102295)
(515812 21892.8 -3.13205e-14 5125.95 -1.49138e-14 129255)
(491793 48945.5 1.73481e-15 6540.55 3.748e-14 123647)
(-19856.1 49261.8 -3.45831e-14 2598.29 2.82797e-14 -4282)
(-15087.6 49478.8 2.51059e-14 1999.41 -1.40707e-13 -3247.44)
(-365124 77196.1 -1.4896e-14 3004.31 -3.85937e-16 -89849.3)
(-490134 60753.5 0 5399.38 0 -120272)
(353146 49783.3 8.23378e-15 3749.12 2.08444e-14 88552.8)
(-929592 69389.1 3.57857e-15 -2373.12 -1.17029e-14 -231240)
(24862.8 48323.5 0 4619.38 0 7315.14)
(471431 42306.2 -1.80102e-15 1081.52 1.21707e-14 117240)
(355263 74596.7 -9.42085e-16 5695.33 4.77548e-17 89561.1)
(-210256 56775.9 6.4743e-14 5558.22 -8.33466e-15 -50789.6)
(-164127 44682.1 -6.28886e-15 3595.74 4.57486e-14 -39831.1)
(-149440 55517 9.93759e-15 2735.09 -3.79731e-14 -36400.4)
(-115298 46341.5 -5.61851e-16 651.743 2.23133e-15 -28446.2)
(-179205 33842 2.32574e-14 2788.83 3.44226e-14 -43772.3)
(-148962 37867 -4.06811e-14 7001.75 8.21859e-15 -35223.3)
(-176846 65977.3 0 1678.45 0 -43462.7)
(-202815 70651.6 -2.12796e-14 772.037 1.85751e-14 -50131)
(-225448 75834.1 -1.75954e-15 1355.1 -2.01423e-15 -55601.9)
(57344.1 49227.5 -1.00101e-13 1627.59 -5.01622e-14 14632.1)
(-12285.3 61061.2 -2.22106e-14 -2467.22 4.43577e-14 -3660.41)
(409726 32022 -1.28942e-14 3229.51 3.64589e-14 102463)
(427937 40214.1 1.7797e-14 -3962.01 -3.44387e-14 105197)
(73241.7 55022.7 3.61097e-15 -2655.09 -2.50623e-14 17514)
(103168 48370.2 0 966.186 0 25837.9)
(-254288 76176.9 2.74117e-14 -2707.5 -3.03764e-14 -63765.8)
(212945 53975 -5.22997e-14 3381.98 -6.10312e-16 53675.1)
(232446 69490.7 -2.28857e-14 4022.71 -1.39948e-15 58672.7)
(-79433.5 54634.4 -4.12038e-14 -3375.58 5.92419e-14 -20546.6)
(-66397.3 55830 2.40614e-14 -2721.24 1.42276e-15 -17149.7)
(-100352 57979.3 3.91937e-14 1774.89 1.39773e-14 -24459)
(-111748 52769.6 0 744.972 0 -27542.1)
(-525519 42438.5 1.21571e-14 -20.6194 -1.87683e-14 -130397)
(216167 52444.4 -1.88393e-14 877.205 -7.51731e-14 53853.2)
(158132 53846.2 -8.64037e-15 -198.737 -1.23628e-15 39186.5)
(-67892 135913 -5.81885e-15 10820.4 -4.30584e-15 -14160.6)
(567344 29592.8 -4.00103e-14 -5012.93 -2.40318e-14 139526)
(-675633 17511.9 3.51153e-14 2276.44 2.10633e-14 -167073)
(-97984.6 127791 0 -5288.65 0 -25624.2)
(-84994.5 55825 1.43877e-14 2623.09 4.35588e-14 -20438)
(-73020.7 58128.8 -1.08224e-13 4286.08 -2.75178e-14 -17054.4)
(-120551 50005.1 4.68491e-14 1079.84 5.29495e-16 -29643.1)
(-104107 53164.2 0 2803.04 0 -25135.5)
(233588 50055.5 2.52551e-14 -1038.42 -4.07205e-14 57700.2)
(268438 62632.2 9.1633e-15 -2292.69 3.90021e-15 66036)
(213321 51174.9 -1.85427e-14 -2601.86 1.7812e-14 52283.8)
(249606 62182.7 1.95839e-14 -2342.2 5.47515e-14 61351.2)
(191709 48245.4 1.52843e-14 -1066.72 2.5822e-14 47302.1)
(224300 58247.4 -3.33725e-14 -1520.61 1.91393e-14 55276)
(185474 31697.8 1.46608e-14 1660.99 5.55571e-14 46431.9)
(179059 24009.7 4.31364e-14 5451.47 9.26187e-14 45780.7)
(-391571 66715.3 -8.992e-15 -376.429 1.19762e-14 -97250.2)
(159685 55759.3 -4.48346e-14 -2676.35 -1.08054e-15 38956.9)
(-408153 51887.6 0 3062.51 0 -100511)
(703146 62497.5 2.58463e-14 -6779.03 -1.63368e-14 172783)
(-333051 33705.1 4.52491e-14 1247.93 -7.47671e-14 -82327.1)
(-247047 35384.9 5.44831e-14 -122.996 -3.67051e-14 -61327.8)
(-901903 -426166 -3.48255e-15 147969 7.82308e-16 -187066)
(26879.2 58307.2 6.0723e-14 878.118 -1.59973e-14 6887.17)
(750494 43364 -8.60579e-15 -2080.44 -4.16733e-16 185697)
(-339678 43786.1 -1.27806e-14 768.329 -3.69387e-14 -84090.3)
(-248553 43493.6 7.90196e-14 -44.1158 3.90018e-14 -61681.9)
(1.18663e+06 1730.29 1.43743e-14 -2234.71 6.41059e-15 293872)
(-50599.7 53156.5 -8.71102e-15 426.851 3.50478e-14 -12448.9)
(783236 22650.7 2.16486e-14 2750.79 -1.35325e-14 195019)
(-177503 44474.2 2.72623e-14 1694.43 -4.81996e-14 -43621.8)
(-673839 65878.3 1.76901e-14 7112.4 -2.29187e-15 -165428)
(-634004 48354.9 -1.08111e-14 -4626.05 -8.50334e-16 -158457)
(603462 49620.4 -2.05434e-14 -23.5122 1.35508e-14 149725)
(-71565.5 56717.8 -1.20519e-13 3511.94 -5.50331e-14 -16885.5)
(-2005.19 -22945.4 1.41552e-16 -35966.9 5.033e-17 -9421.65)
(-11738.3 57266 0 2981.14 0 -2172.82)
(-1.19559e+06 -379442 5.70907e-15 157703 -1.58243e-15 -257521)
(894780 -423626 6.72733e-15 -148314 2.13475e-15 185213)
(-518539 66677.5 2.23582e-14 -5573.01 -2.18668e-14 -130043)
(168177 45897.2 9.101e-15 282.018 3.53127e-14 41798.2)
(225373 40751.9 -2.9606e-14 -85.0823 6.73409e-14 55898.6)
(72927.2 55607.1 5.86677e-14 -1873.78 1.7528e-14 17629.8)
(-132215 20852.1 3.40189e-14 932.569 -5.24271e-14 -32573.7)
(107572 63579.2 -2.87159e-14 -584.542 2.63365e-14 26545.7)
(-56813.4 47441.5 8.48113e-15 1241.87 1.30422e-14 -13788.4)
(-62908.2 79634.3 6.48718e-15 2442.61 1.90486e-14 -15002.7)
(-964032 18741.3 -3.06109e-15 26359.6 7.56297e-15 -232655)
(8023.29 -13649.5 3.71136e-17 -23836.3 2.30361e-17 -3923.53)
(-284947 62253.2 -1.237e-16 3288.75 2.43288e-15 -69885)
(219007 42075.6 2.13426e-14 -639.216 6.66276e-14 54181.4)
(1.01448e+06 -195284 5.83994e-16 -28556.4 7.97588e-16 244629)
(-25691.3 46791.8 -5.53692e-15 -3147.68 -4.31585e-14 -7155.54)
(-29594.2 65456.8 4.39523e-15 -455.198 4.21499e-14 -7455.86)
(-17695.9 58472 -7.53225e-16 1401.63 -6.4914e-14 -4042.93)
(-50416.2 61236.2 -1.25153e-14 1060.73 1.71823e-14 -12246.1)
(18823.2 57450.8 1.90477e-14 -455.62 4.93637e-14 4557.38)
(13104.2 61337.2 -4.45403e-14 -1129.99 -1.45865e-14 2971.05)
(-1.0225e+06 -195027 2.57368e-15 27790.4 -7.91731e-16 -246809)
(325738 68889.2 -1.88002e-14 670.165 1.02729e-14 80988.5)
(-111917 54650.3 -1.19093e-13 2234.29 -3.38707e-14 -27214.6)
(355810 58478 6.54017e-14 5618.77 -1.10609e-13 89677.9)
(320682 54857.8 -6.47602e-16 5034.37 -4.19114e-14 80816.8)
(289857 51436.1 -1.18445e-13 2452.93 1.80545e-14 72527.9)
(53528.4 39498.9 -5.8186e-14 4477.59 -2.18223e-14 14392.5)
(-751136 32423.6 3.32465e-14 -2838.47 -3.25606e-14 -187076)
(218778 43231.9 6.31975e-14 -1063.36 6.81319e-15 54019.3)
(302340 42651.6 -2.86712e-14 -1063.32 -4.1199e-14 74752.9)
(-64383.2 55614 -1.00817e-13 -593.252 -1.70513e-14 -16122)
(505764 76278.5 7.24126e-15 -6363.98 1.07218e-14 123911)
(89053.5 45748.6 -4.08039e-14 -2073.86 2.77117e-14 21581.4)
(-1.02587e+06 28858.5 -1.17384e-14 -1452.55 -4.43601e-15 -254898)
(27075 56972 -5.26019e-14 2102.47 -4.4389e-14 7239.52)
(-81680.4 57773.4 -1.04673e-13 3040.08 4.95883e-14 -19512.2)
(254581 51086.9 8.25741e-14 3038.25 -1.20517e-14 63920.6)
(228992 48394.8 7.63376e-14 2170.14 1.85815e-14 57356)
(207119 45341.6 -5.49401e-14 414.033 1.52246e-14 51493.2)
(528898 47511.6 8.67515e-15 663.071 1.87888e-14 131395)
(97950.9 54919.2 -3.53618e-14 1599.64 -7.60792e-14 24700.5)
(-273276 54508.8 2.54681e-14 -3773.84 5.8756e-16 -68741.8)
(-225492 85554.5 1.58977e-14 2317.27 1.78901e-14 -55374.1)
(-118578 43417.5 0 566.182 0 -29281.1)
(-358095 60207 -3.34031e-14 -3628.59 1.01816e-14 -89751.1)
(-396139 62899.4 -5.07579e-14 -3825.97 -3.41899e-15 -99239.5)
(-439858 68423.9 -5.10848e-14 -4627.22 2.47254e-14 -110286)
(196573 45709.8 9.9107e-16 2754.76 1.25153e-14 49457.2)
(136939 51195.2 1.57453e-14 1150.41 -1.97628e-14 34262.7)
(47231.2 15991.1 -4.58035e-14 1980.86 1.65501e-14 12210.5)
(74017 46567 0 -1976.18 0 17874.8)
(97106.1 40097.4 -5.35591e-14 -926.652 3.20387e-14 23864.1)
(1.21863e+06 -43382.6 -3.18059e-15 -176187 -1.56389e-15 258651)
(387604 36213.9 5.42549e-14 -1528.15 -5.57212e-14 95793.4)
(-294724 53803.1 0 -490.931 0 -73248.9)
(-213545 52032.8 -2.67705e-14 3674.33 -1.19468e-15 -52073.2)
(165438 55169.5 1.41338e-14 -2230.56 -1.75126e-14 40495.1)
(-53874 58292.7 2.35395e-14 -1217.83 1.93538e-14 -13669.4)
(-10753.6 64190 6.87223e-14 -263.834 -5.43292e-14 -2733.64)
(13824.2 48645.3 5.6692e-14 4833.27 -9.01449e-15 4629.31)
(15741.9 51361.8 -2.99175e-14 5203.85 -2.80087e-14 5197.06)
(-6898.28 78330.6 -1.51234e-15 -3545.21 -1.25115e-14 -2591.24)
(-4183.88 43909 -1.2942e-14 -411.258 4.36503e-14 -1140.15)
(-2339.75 48910.1 -4.81663e-14 -3708.49 3.59734e-14 -1500.69)
(5759.55 58189.6 4.58488e-14 -10235.7 -2.08937e-14 -1110.64)
(78094.2 49439.6 -3.81104e-15 2056.83 -1.8273e-14 19887.1)
(-165607 87030.8 -9.15385e-16 1568.04 -9.1029e-15 -40701.5)
(44648.3 55825.6 1.15243e-13 -630.032 -2.27512e-14 10921.8)
(2184.77 85044 5.27601e-15 -9221.61 7.69887e-15 -1745.98)
(-333012 81274.1 -1.30389e-14 -2469.87 -7.91935e-15 -83239.8)
(386643 46215.8 4.1655e-14 4390.97 3.74451e-14 97023.5)
(-162320 53493.3 -4.44081e-14 207.057 1.45513e-14 -40223.6)
(-813732 170602 -2.32879e-15 154785 1.43224e-15 -163498)
(-109159 43530.8 3.15049e-14 -2514.01 3.4329e-14 -27708.4)
(-181723 80558.9 0 870.915 0 -44873.2)
(49044 53913.2 6.14653e-14 -3026.19 -8.51402e-14 11417.9)
(73180.4 47345.3 3.26153e-15 41.3709 1.06352e-14 18167.8)
(895956 -197657 -7.25912e-16 28190.6 1.31326e-16 229300)
(-1.17094e+06 17386.1 -9.66004e-15 6265.45 4.45433e-15 -288980)
(318827 46411.5 2.00268e-14 6762.71 1.69117e-14 80785.5)
(354176 49370.5 -2.07405e-14 6522.51 4.50401e-14 89496.7)
(-113258 57744.9 -1.45687e-13 4558.76 -5.21392e-14 -26970.4)
(71076.3 66517.3 2.62031e-14 3924.2 5.18941e-14 18609.1)
(-19211.2 54629.1 4.0974e-14 -5066.41 6.25633e-14 -6023.78)
(-510284 -331760 -6.1977e-16 38745.3 2.61774e-16 -116998)
(-1.11901e+06 48701.4 3.19257e-15 2043.69 4.10266e-15 -277142)
(1.00641e+06 33087.4 1.73945e-14 227.202 -8.66814e-15 249767)
(-1.49402e+06 -19853.8 -4.58753e-15 -5082.05 -2.00372e-15 -371959)
(404057 39471.4 -1.79665e-14 -2412.16 -2.81294e-14 99656.3)
(280237 38274.5 -2.99053e-14 -1315.65 1.0973e-13 69206.1)
(-370802 58136.7 0 7680.06 0 -90097.9)
(45905.8 45226.8 -5.51591e-14 -5128.02 2.6348e-14 10117.8)
(-33392 63113.9 -4.38988e-14 2377.57 2.33004e-14 -7695.32)