/*--------------------------------*- C++ -*----------------------------------*\
| =========                 |                                                 |
| \\      /  F ield         | OpenFOAM: The Open Source CFD Toolbox           |
|  \\    /   O peration     | Version:  2.3.1                                 |
|   \\  /    A nd           | Web:      www.OpenFOAM.org                      |
|    \\/     M anipulation  |                                                 |
\*---------------------------------------------------------------------------*/
FoamFile
{
    version     2.0;
    format      ascii;
    class       surfaceVectorField;
    location    "0.6";
    object      Uf;
}
// * * * * * * * * * * * * * * * * * * * * * * * * * * * * * * * * * * * * * //

dimensions      [0 1 -1 0 0 0 0];

internalField   nonuniform List<vector> 
5856
(
(0.0628285 -0.117683 2.71892e-19)
(0.0788939 -0.115045 4.04037e-19)
(0.0554416 -0.11135 1.37093e-19)
(0.0795946 -0.10644 2.69938e-19)
(0.0453798 -0.103659 -6.42218e-19)
(0.0712887 -0.0998621 -2.84971e-19)
(0.0333502 -0.0995387 -3.92794e-19)
(0.0564883 -0.0978224 -5.93695e-19)
(0.0211859 -0.100658 2.56694e-19)
(0.0390877 -0.0999354 3.61966e-19)
(0.0101147 -0.106212 -6.53133e-20)
(0.0233198 -0.105461 2.33455e-19)
(0.00097445 -0.115246 -1.28499e-19)
(0.00956334 -0.114797 -2.40465e-19)
(-0.00659959 -0.125799 0)
(-0.000760738 -0.126763 0)
(-0.013372 -0.135374 1.70296e-20)
(-0.00751151 -0.139542 0)
(-0.0195344 -0.141548 6.40139e-20)
(-0.0113533 -0.15039 1.73462e-20)
(-0.0254643 -0.143683 -1.08909e-19)
(-0.0150901 -0.157867 4.78712e-20)
(-0.0235629 -0.162964 -2.60092e-19)
(-0.0331142 -0.143868 -3.49754e-20)
(0.0928516 -0.10792 3.98426e-19)
(0.0980862 -0.120635 2.55992e-19)
(0.0899828 -0.0968579 -1.65196e-19)
(0.100557 -0.106576 3.46104e-19)
(0.0772328 -0.0941072 -2.29741e-19)
(0.0888628 -0.104168 -5.15249e-19)
(0.0588279 -0.0978616 1.64108e-19)
(0.0689102 -0.109825 -2.07598e-19)
(0.038412 -0.104845 3.37024e-19)
(0.046771 -0.119059 4.32753e-19)
(0.0189221 -0.116158 5.53087e-20)
(0.0216958 -0.131185 2.22665e-19)
(0.00203357 -0.129735 -1.11654e-19)
(-7.28725e-06 -0.143645 -2.15742e-19)
(-0.00970862 -0.144005 0)
(-0.0164566 -0.15616 0)
(-0.014497 -0.156721 0)
(-0.0248693 -0.168291 0)
(-0.0147861 -0.166659 0)
(-0.0266712 -0.180041 0)
(-0.0192055 -0.175513 -1.00074e-19)
(-0.0311519 -0.19227 0)
(-0.0467399 -0.205479 -1.92848e-19)
(-0.0325433 -0.185534 3.83253e-20)
(0.109251 -0.113194 1.92437e-19)
(0.119814 -0.127919 3.10309e-19)
(0.104416 -0.107315 8.60214e-21)
(0.120147 -0.11872 -3.53287e-20)
(0.086094 -0.114402 -5.03002e-19)
(0.10393 -0.127862 -2.07802e-19)
(0.0609825 -0.127482 5.24624e-20)
(0.0796645 -0.143504 -2.12206e-19)
(0.0344509 -0.143688 3.20899e-19)
(0.0509942 -0.160544 3.64183e-19)
(0.00994302 -0.159339 -5.36728e-20)
(0.0213633 -0.176658 9.91273e-20)
(-0.0102531 -0.173215 -1.0396e-19)
(-0.00431493 -0.190434 -1.45566e-19)
(-0.0235616 -0.184387 0)
(-0.0234715 -0.201468 0)
(-0.0297325 -0.193779 0)
(-0.0344817 -0.211385 -1.68985e-20)
(-0.0364361 -0.205236 0)
(-0.0428275 -0.223559 -8.10456e-21)
(-0.0527694 -0.221623 -9.51348e-20)
(-0.0591378 -0.239515 1.48252e-20)
(-0.0866164 -0.258244 -1.50713e-19)
(-0.0798251 -0.241143 -6.13246e-20)
(0.127143 -0.12659 1.00559e-19)
(0.13496 -0.141358 3.62146e-19)
(0.11832 -0.134625 -2.46168e-19)
(0.1318 -0.145442 -2.61045e-19)
(0.096269 -0.153049 9.33363e-20)
(0.113544 -0.166522 -5.27603e-20)
(0.0685372 -0.17391 9.31879e-20)
(0.0871165 -0.189924 -1.56477e-19)
(0.03771 -0.193846 1.3973e-19)
(0.0562526 -0.211077 1.63959e-19)
(0.0081553 -0.210597 5.89801e-21)
(0.0241577 -0.228388 -2.30017e-20)
(-0.0155048 -0.223262 -4.06441e-20)
(-0.0041098 -0.24162 2.94179e-20)
(-0.031997 -0.232751 -1.71592e-20)
(-0.0261091 -0.251098 3.48286e-20)
(-0.0454205 -0.242854 -2.53888e-20)
(-0.0431199 -0.259896 -1.59074e-20)
(-0.0643067 -0.257433 6.72656e-21)
(-0.0619303 -0.271402 4.81483e-21)
(-0.0933959 -0.276021 -3.9914e-20)
(-0.0891942 -0.285411 8.86708e-21)
(-0.124013 -0.299656 -5.57332e-20)
(-0.129438 -0.295432 -2.63615e-21)
(0.133933 -0.152524 4.04263e-20)
(0.13922 -0.160744 2.85677e-19)
(0.123439 -0.173426 -5.47027e-20)
(0.134286 -0.181011 9.65976e-20)
(0.101408 -0.199861 -3.08163e-19)
(0.116418 -0.210044 -2.67926e-19)
(0.0725963 -0.225186 -9.15583e-20)
(0.0910312 -0.237631 -1.60725e-19)
(0.0410549 -0.246748 1.36834e-21)
(0.060516 -0.261155 7.34829e-20)
(0.0106353 -0.262625 1.24518e-21)
(0.0287296 -0.278658 -7.2097e-20)
(-0.0155969 -0.273223 1.08112e-19)
(-0.000577296 -0.289907 9.14139e-20)
(-0.0377758 -0.281018 3.67208e-20)
(-0.0256986 -0.296541 1.38862e-20)
(-0.0601788 -0.289465 1.48218e-20)
(-0.0487325 -0.301537 1.41849e-21)
(-0.0879122 -0.299746 7.055e-21)
(-0.0745101 -0.306502 1.35162e-20)
(-0.121695 -0.309667 -6.28977e-21)
(-0.105764 -0.310193 -6.37057e-21)
(-0.139584 -0.310745 0)
(-0.156379 -0.316532 0)
(0.13345 -0.184709 3.61233e-19)
(0.132783 -0.184371 3.42893e-19)
(0.122704 -0.214863 -9.55984e-20)
(0.128409 -0.217484 2.83978e-20)
(0.102122 -0.245691 -1.18045e-19)
(0.113369 -0.250614 -2.09918e-19)
(0.075132 -0.273287 0)
(0.0906347 -0.28057 1.65472e-19)
(0.0450148 -0.294802 0)
(0.0628988 -0.304581 -4.18114e-21)
(0.0150025 -0.30882 2.20929e-20)
(0.0336133 -0.320611 4.68336e-21)
(-0.0128784 -0.31609 -3.243e-21)
(0.00547283 -0.32849 2.23564e-20)
(-0.0389458 -0.318984 -2.36886e-20)
(-0.0205297 -0.329906 -2.39711e-20)
(-0.0656844 -0.319598 0)
(-0.0458086 -0.327004 0)
(-0.0952509 -0.317914 0)
(-0.0728003 -0.320569 3.00712e-21)
(-0.126441 -0.31232 0)
(-0.101993 -0.30989 -3.02976e-21)
(-0.129907 -0.294482 7.635e-21)
(-0.153823 -0.301825 0)
(0.125273 -0.216748 -6.9203e-22)
(0.120468 -0.207668 6.08144e-20)
(0.114766 -0.251466 -8.12205e-20)
(0.116069 -0.248108 -5.5361e-20)
(0.0974084 -0.284243 6.95985e-20)
(0.103415 -0.281775 2.63843e-20)
(0.0742675 -0.31193 1.63238e-19)
(0.0847264 -0.311746 9.1396e-20)
(0.047858 -0.331862 2.14611e-22)
(0.0618239 -0.334624 -6.82439e-20)
(0.0207753 -0.342672 4.73989e-21)
(0.0374916 -0.348107 1.20957e-20)
(-0.00548368 -0.344755 0)
(0.0135696 -0.351724 0)
(-0.0309388 -0.339785 0)
(-0.00952032 -0.3467 0)
(-0.0566588 -0.329355 3.04341e-21)
(-0.0326367 -0.33484 0)
(-0.0831739 -0.313923 -2.60236e-22)
(-0.0567397 -0.317327 3.53075e-21)
(-0.108622 -0.293269 4.66083e-21)
(-0.0812082 -0.294605 -3.7637e-22)
(-0.102666 -0.267446 1.51739e-20)
(-0.128204 -0.268027 2.28157e-20)
(0.113958 -0.242579 2.98028e-21)
(0.10855 -0.226542 1.70916e-19)
(0.102402 -0.276537 4.83363e-20)
(0.101462 -0.269016 -2.00773e-19)
(0.0875861 -0.307827 4.68458e-20)
(0.0885187 -0.2992 7.00363e-20)
(0.0690369 -0.33384 -1.34983e-19)
(0.0730149 -0.326654 9.08337e-21)
(0.0484551 -0.351531 -5.68537e-20)
(0.0556636 -0.34697 5.78015e-20)
(0.0274911 -0.358968 3.98034e-21)
(0.0383614 -0.357411 -1.93928e-20)
(0.00677907 -0.355981 0)
(0.021724 -0.357005 0)
(-0.0139729 -0.343895 0)
(0.00509914 -0.346698 0)
(-0.035274 -0.324624 4.58568e-22)
(-0.0127269 -0.328516 -3.54697e-21)
(-0.0568179 -0.299661 3.21329e-21)
(-0.0321896 -0.304421 -3.47193e-21)
(-0.076593 -0.270046 1.08415e-20)
(-0.0520739 -0.275826 1.78118e-21)
(-0.0690324 -0.244148 4.74414e-21)
(-0.0908208 -0.237213 -1.87723e-20)
(0.102799 -0.259581 -5.67607e-20)
(0.102717 -0.238435 1.00629e-19)
(0.0873683 -0.288887 -1.9421e-19)
(0.0890718 -0.279882 -1.35837e-19)
(0.0730308 -0.315499 2.46672e-20)
(0.0725225 -0.303255 -5.43068e-20)
(0.058293 -0.337713 2.03887e-19)
(0.0579187 -0.325959 5.59831e-20)
(0.0443234 -0.352322 9.71769e-20)
(0.0451144 -0.342472 6.10032e-20)
(0.03158 -0.356797 -2.36614e-20)
(0.0353231 -0.349454 -5.72149e-21)
(0.0192003 -0.350379 0)
(0.0276596 -0.345458 7.79525e-22)
(0.00570262 -0.33411 -3.58435e-21)
(0.019764 -0.331526 1.7777e-20)
(-0.00973622 -0.310502 -8.2358e-21)
(0.00882438 -0.310271 6.77726e-22)
(-0.0266044 -0.281971 -5.27641e-21)
(-0.00576269 -0.284115 -1.4098e-21)
(-0.0427826 -0.250554 -5.67028e-21)
(-0.0224901 -0.255038 -2.25908e-21)
(-0.0377412 -0.224715 -4.41397e-21)
(-0.0550145 -0.218139 -8.18015e-21)
(0.0972194 -0.268344 -2.67198e-20)
(0.105139 -0.243172 1.92084e-20)
(0.0744495 -0.291007 4.68883e-21)
(0.0808677 -0.279669 2.43554e-20)
(0.0569919 -0.31046 -3.0651e-20)
(0.0587219 -0.294452 0)
(0.0438163 -0.327394 -8.32953e-20)
(0.0413069 -0.310063 1.60929e-20)
(0.0356111 -0.3383 -4.38914e-20)
(0.03061 -0.320701 -8.90277e-20)
(0.0315251 -0.339899 1.91396e-20)
(0.0274095 -0.32192 1.85224e-20)
(0.0286696 -0.330732 2.45754e-20)
(0.029483 -0.312869 -3.21893e-20)
(0.0236019 -0.311584 2.25668e-20)
(0.0321112 -0.295894 1.81197e-20)
(0.0140424 -0.286155 7.91395e-21)
(0.0289888 -0.274244 9.27811e-21)
(0.000159166 -0.257625 1.22616e-21)
(0.0190173 -0.249864 2.53267e-21)
(-0.0151214 -0.228549 -1.40611e-21)
(0.00400956 -0.224558 -1.41914e-21)
(-0.0115247 -0.199733 2.72515e-22)
(-0.0282678 -0.200657 3.52853e-21)
(0.09563 -0.267644 4.13433e-20)
(0.125126 -0.249122 3.21246e-20)
(0.0637794 -0.280285 1.98067e-20)
(0.083473 -0.275651 2.06095e-21)
(0.041861 -0.289737 4.91705e-20)
(0.0511812 -0.277068 -7.08053e-21)
(0.0274186 -0.298273 3.02724e-20)
(0.0262349 -0.278981 7.08786e-20)
(0.0237287 -0.302001 -3.07377e-20)
(0.0140952 -0.278435 -4.79508e-20)
(0.0287153 -0.297534 -3.58041e-20)
(0.0157394 -0.269494 2.58964e-20)
(0.0363843 -0.283678 -3.58041e-20)
(0.0273609 -0.25262 -5.3122e-20)
(0.0403018 -0.263331 4.66504e-21)
(0.0398282 -0.233041 5.18407e-21)
(0.0362265 -0.239737 4.49415e-21)
(0.0444378 -0.214233 -2.94997e-21)
(0.0244472 -0.216311 -1.70887e-22)
(0.0381645 -0.196504 -3.58725e-22)
(0.00884202 -0.19427 2.75065e-22)
(0.0242412 -0.179641 0)
(0.00816608 -0.163725 2.7748e-22)
(-0.00615815 -0.174214 -1.51563e-21)
(0.127814 -0.267896 -5.29295e-20)
(0.0977795 -0.189872 -7.15506e-20)
(0.069864 -0.269507 -3.1603e-20)
(0.0762138 -0.219453 -8.20708e-21)
(0.0324687 -0.261505 2.16218e-21)
(0.0484514 -0.230298 -1.44214e-20)
(0.011057 -0.253604 1.36867e-20)
(0.0179857 -0.228235 2.16439e-20)
(0.00712634 -0.242684 7.12572e-21)
(0.00228459 -0.216535 -3.18639e-20)
(0.0178422 -0.226654 1.14785e-20)
(0.00586908 -0.196116 6.87168e-21)
(0.0348814 -0.207218 -9.41733e-21)
(0.0231953 -0.171702 2.08398e-20)
(0.047626 -0.188304 -6.22989e-21)
(0.041985 -0.151665 -1.61466e-20)
(0.0491876 -0.17217 -9.18464e-21)
(0.0516017 -0.139476 -9.07168e-21)
(0.0400601 -0.159 -1.87988e-22)
(0.0481819 -0.132562 -9.11868e-23)
(0.025127 -0.147617 0)
(0.0356822 -0.127396 7.60958e-23)
(0.00956802 -0.137266 -3.32508e-21)
(0.0201116 -0.122121 0)
(-0.0438509 -0.143786 1.23071e-19)
(-0.036897 -0.168285 2.63318e-19)
(-0.0563325 -0.144578 -5.72415e-20)
(-0.0537066 -0.174182 4.17989e-20)
(-0.0679687 -0.146638 -3.2618e-19)
(-0.0714947 -0.180356 1.39746e-19)
(-0.0774343 -0.148635 -5.72839e-20)
(-0.0871405 -0.186477 -2.45549e-19)
(-0.0849761 -0.148333 2.09722e-19)
(-0.0990293 -0.190326 2.37619e-20)
(-0.0911003 -0.144089 0)
(-0.106834 -0.189189 0)
(-0.0955118 -0.134892 0)
(-0.109704 -0.182504 -6.44502e-20)
(-0.0976134 -0.120872 3.15894e-19)
(-0.107473 -0.169878 1.25252e-19)
(-0.0991434 -0.104628 1.27361e-19)
(-0.104432 -0.149823 3.65158e-19)
(-0.10276 -0.0891074 -1.40985e-19)
(-0.103261 -0.12457 -3.24219e-19)
(-0.108584 -0.0786159 1.35703e-19)
(-0.10637 -0.0993482 1.15993e-19)
(-0.109669 -0.0858318 3.80659e-21)
(-0.052183 -0.197131 1.83163e-19)
(-0.0705661 -0.220806 1.81085e-19)
(-0.0750444 -0.209131 2.44396e-19)
(-0.0977107 -0.236761 7.50106e-20)
(-0.0975852 -0.219846 2.29699e-19)
(-0.123224 -0.251345 1.16458e-19)
(-0.115896 -0.227625 -1.59771e-19)
(-0.142095 -0.263362 4.79902e-22)
(-0.127393 -0.230628 -1.87326e-19)
(-0.15166 -0.271041 -1.90459e-19)
(-0.13107 -0.227107 -6.56714e-20)
(-0.152158 -0.272762 0)
(-0.127696 -0.215596 6.16112e-20)
(-0.144684 -0.268346 -1.18897e-19)
(-0.120782 -0.195441 1.86014e-19)
(-0.132733 -0.255824 1.29759e-19)
(-0.11414 -0.166195 -7.68228e-20)
(-0.120575 -0.231829 5.93649e-20)
(-0.110845 -0.13242 -6.58441e-20)
(-0.112811 -0.193083 -1.37167e-19)
(-0.111664 -0.105355 -1.05317e-20)
(-0.112846 -0.142106 7.08562e-20)
(-0.118127 -0.100117 -8.09298e-20)
(-0.112656 -0.261621 6.38743e-20)
(-0.120551 -0.278031 8.64672e-20)
(-0.144476 -0.280862 -6.24258e-20)
(-0.1535 -0.296383 7.49472e-20)
(-0.168457 -0.296707 -1.20687e-19)
(-0.178094 -0.311311 -1.37332e-19)
(-0.180334 -0.308049 -2.90478e-20)
(-0.189866 -0.321963 -2.94891e-20)
(-0.179655 -0.31444 0)
(-0.188594 -0.32818 0)
(-0.168859 -0.314785 -4.84725e-20)
(-0.176803 -0.330523 0)
(-0.152803 -0.308477 -4.84725e-20)
(-0.160062 -0.328987 -8.59327e-20)
(-0.135547 -0.291826 0)
(-0.140993 -0.323893 6.82721e-20)
(-0.120889 -0.258925 0)
(-0.122723 -0.310604 -6.82584e-20)
(-0.113022 -0.20484 -6.76122e-21)
(-0.109626 -0.28001 0)
(-0.115841 -0.139247 -6.76122e-21)
(-0.109767 -0.218983 -4.66882e-20)
(-0.126309 -0.128936 -4.31693e-20)
(-0.164655 -0.312899 9.80595e-20)
(-0.159665 -0.311774 5.28536e-20)
(-0.190735 -0.326684 9.65334e-22)
(-0.187417 -0.320152 7.79685e-20)
(-0.202336 -0.336297 -4.49838e-20)
(-0.200585 -0.324472 2.76479e-20)
(-0.19918 -0.342265 0)
(-0.197603 -0.325536 -1.52741e-19)
(-0.185281 -0.345467 0)
(-0.182098 -0.324756 1.18796e-19)
(-0.165975 -0.346872 -3.72903e-20)
(-0.160156 -0.324151 7.59886e-20)
(-0.145533 -0.34759 3.2035e-20)
(-0.139702 -0.324778 -1.45261e-19)
(-0.126426 -0.34595 -2.52741e-21)
(-0.121571 -0.327771 1.25302e-20)
(-0.111143 -0.334073 -6.93114e-20)
(-0.106312 -0.331392 -7.02763e-20)
(-0.104388 -0.29394 -4.09896e-20)
(-0.0943868 -0.327912 4.54311e-20)
(-0.114615 -0.205658 -8.48248e-20)
(-0.095098 -0.29537 3.30634e-21)
(-0.12933 -0.19165 -7.42437e-20)
(-0.183722 -0.319013 3.18406e-20)
(-0.16859 -0.307232 0)
(-0.196669 -0.317436 1.06133e-19)
(-0.18458 -0.300207 2.86234e-20)
(-0.193023 -0.313291 -7.69089e-20)
(-0.183109 -0.291429 4.5373e-20)
(-0.176236 -0.308408 -3.69857e-20)
(-0.166003 -0.282969 -1.56888e-19)
(-0.153132 -0.304709 1.97534e-19)
(-0.140613 -0.27669 8.14731e-20)
(-0.13068 -0.30403 -2.89222e-20)
(-0.115516 -0.274377 1.19225e-20)
(-0.112346 -0.307296 -1.61994e-19)
(-0.0971405 -0.276536 3.34773e-20)
(-0.0984789 -0.316005 -5.85757e-20)
(-0.0852265 -0.282934 5.80804e-21)
(-0.0884055 -0.328802 4.60725e-20)
(-0.0786335 -0.294325 -3.73837e-20)
(-0.0851757 -0.330533 9.15725e-20)
(-0.0743024 -0.310024 4.31787e-20)
(-0.10092 -0.273661 1.4607e-20)
(-0.0748593 -0.318922 -2.87513e-20)
(-0.120348 -0.261427 -3.12898e-20)
(-0.170033 -0.287381 -3.30675e-21)
(-0.149809 -0.275383 1.49086e-20)
(-0.17 -0.271748 -3.05594e-20)
(-0.155135 -0.255272 1.87443e-20)
(-0.154205 -0.258176 -3.02622e-20)
(-0.143811 -0.237553 -1.05394e-19)
(-0.12883 -0.248866 -4.09151e-20)
(-0.120113 -0.22496 5.36364e-20)
(-0.103601 -0.245706 -1.07905e-19)
(-0.0947337 -0.218222 1.27001e-20)
(-0.0840726 -0.246543 7.23489e-20)
(-0.0725389 -0.219204 -7.24424e-20)
(-0.0718664 -0.251232 1.95613e-19)
(-0.0595852 -0.225179 1.78357e-20)
(-0.0664598 -0.260296 2.32905e-20)
(-0.0545244 -0.234784 9.97615e-20)
(-0.0652918 -0.276664 -4.53864e-20)
(-0.0556711 -0.247642 6.05512e-21)
(-0.0658461 -0.302743 -1.01757e-19)
(-0.0605236 -0.265812 -7.6059e-21)
(-0.0819546 -0.298758 -8.16594e-20)
(-0.0614752 -0.292081 -8.26332e-20)
(-0.106752 -0.296957 -2.66889e-20)
(-0.136168 -0.240816 3.74456e-20)
(-0.115582 -0.238052 -1.2683e-20)
(-0.129495 -0.215899 -4.77777e-20)
(-0.115247 -0.210336 8.80892e-21)
(-0.110567 -0.197988 -3.45321e-20)
(-0.101936 -0.188394 -6.28045e-20)
(-0.0868024 -0.190013 1.0904e-19)
(-0.0812159 -0.174909 8.86302e-20)
(-0.0659974 -0.19049 4.91355e-20)
(-0.0614574 -0.170452 4.92319e-20)
(-0.0524244 -0.197097 -1.29444e-19)
(-0.0462235 -0.174785 -1.22976e-21)
(-0.0465223 -0.207449 -7.62868e-20)
(-0.0396574 -0.184431 -1.09548e-19)
(-0.047426 -0.220392 7.48966e-20)
(-0.0406142 -0.197351 3.87551e-20)
(-0.0535992 -0.235644 3.65681e-20)
(-0.0469756 -0.212454 3.6975e-20)
(-0.0601933 -0.258807 0)
(-0.0575166 -0.23116 0)
(-0.0749407 -0.282443 -2.70111e-20)
(-0.0633805 -0.255579 3.89044e-21)
(-0.103107 -0.293385 -3.11656e-20)
(-0.0953561 -0.204532 -4.09496e-20)
(-0.0789712 -0.211791 -3.10484e-20)
(-0.0888049 -0.177065 -4.36707e-21)
(-0.0790105 -0.182528 -1.40977e-20)
(-0.0742478 -0.158985 4.79872e-20)
(-0.0698862 -0.160328 1.40097e-20)
(-0.0576604 -0.151721 3.01712e-20)
(-0.0563131 -0.147671 3.4478e-20)
(-0.04414 -0.153236 -2.62986e-21)
(-0.0439411 -0.1445 -3.19378e-20)
(-0.037129 -0.161611 5.27762e-21)
(-0.0360527 -0.149062 1.39929e-20)
(-0.0372078 -0.173826 4.65791e-21)
(-0.0348675 -0.158575 2.44074e-20)
(-0.0434948 -0.188692 0)
(-0.0400961 -0.170934 -6.69847e-21)
(-0.0542694 -0.206475 0)
(-0.0503033 -0.185332 1.64571e-20)
(-0.0668992 -0.228925 3.93422e-21)
(-0.0646406 -0.203574 0)
(-0.0837465 -0.257066 2.35145e-20)
(-0.0776964 -0.226898 1.97734e-20)
(-0.112328 -0.269463 -1.97744e-20)
(-0.0604498 -0.187537 -3.80908e-21)
(-0.0481012 -0.195308 -2.31732e-21)
(-0.0583908 -0.162514 0)
(-0.0516262 -0.169564 0)
(-0.0511345 -0.146162 0)
(-0.0489285 -0.150308 0)
(-0.0427048 -0.139141 -2.44322e-20)
(-0.0430516 -0.139205 -8.99947e-21)
(-0.0366092 -0.13988 -1.60332e-20)
(-0.0376377 -0.135836 -1.04702e-20)
(-0.0351545 -0.146269 2.98475e-20)
(-0.0353413 -0.138689 8.48142e-21)
(-0.0391797 -0.155963 1.12837e-20)
(-0.0378275 -0.145587 2.22425e-20)
(-0.0485576 -0.167852 7.45983e-21)
(-0.045578 -0.154816 8.45423e-21)
(-0.0628013 -0.182327 1.66305e-20)
(-0.0581985 -0.165663 2.46925e-21)
(-0.0805755 -0.202811 1.59647e-20)
(-0.0760041 -0.179404 0)
(-0.102626 -0.230623 -1.15537e-20)
(-0.0955149 -0.19939 1.61214e-20)
(-0.130172 -0.235295 -1.61604e-20)
(-0.0367489 -0.175634 3.52853e-21)
(-0.0239063 -0.176799 3.29205e-21)
(-0.0399215 -0.15554 0)
(-0.0313845 -0.157251 7.77425e-22)
(-0.0391501 -0.14205 -9.08868e-21)
(-0.0341974 -0.142563 -1.21541e-21)
(-0.0369586 -0.135485 3.97498e-21)
(-0.0341682 -0.133575 -9.9517e-21)
(-0.035921 -0.134817 1.43426e-20)
(-0.0338332 -0.13014 9.32579e-21)
(-0.0380702 -0.138504 2.15975e-21)
(-0.0354278 -0.131242 -8.58738e-21)
(-0.044594 -0.144892 1.84631e-20)
(-0.0405468 -0.135439 5.21063e-21)
(-0.0560295 -0.153029 -6.00905e-22)
(-0.0502349 -0.14147 -1.88979e-22)
(-0.0728297 -0.162931 -1.60422e-20)
(-0.0648636 -0.148574 -1.61909e-20)
(-0.0950744 -0.177365 0)
(-0.08597 -0.157256 0)
(-0.125234 -0.20019 0)
(-0.111331 -0.169331 0)
(-0.152985 -0.1912 -1.14789e-19)
(-0.0176665 -0.15678 5.13002e-22)
(-0.0058543 -0.149224 -3.56996e-21)
(-0.0248243 -0.142802 7.94892e-22)
(-0.0159 -0.136869 1.63496e-21)
(-0.0284911 -0.133052 -2.01285e-21)
(-0.0219998 -0.12744 6.00415e-22)
(-0.0305482 -0.12777 -6.40821e-21)
(-0.0254912 -0.121457 -1.97965e-22)
(-0.0330868 -0.126482 -1.45947e-20)
(-0.0283148 -0.118917 -1.34149e-20)
(-0.0379074 -0.128273 -5.71489e-21)
(-0.0323886 -0.11928 -9.95776e-21)
(-0.0464018 -0.132045 -1.35206e-20)
(-0.0392719 -0.121665 1.01907e-20)
(-0.0596847 -0.136944 -1.65798e-20)
(-0.0503422 -0.12517 -1.67254e-20)
(-0.0792699 -0.142461 0)
(-0.0665036 -0.128853 -4.62919e-20)
(-0.106496 -0.150326 0)
(-0.090645 -0.13276 -3.801e-20)
(-0.146878 -0.163371 -1.15863e-19)
(-0.121623 -0.135322 3.93339e-20)
(-0.183917 -0.136893 -5.15656e-20)
(-0.00333946 -0.128016 -2.47424e-21)
(0.00590552 -0.11643 7.0578e-22)
(-0.012531 -0.120416 2.04852e-21)
(-0.00491245 -0.110878 2.56072e-21)
(-0.0185795 -0.115038 2.75836e-21)
(-0.0122353 -0.106272 -2.52621e-21)
(-0.0229637 -0.112127 -7.08513e-21)
(-0.0171449 -0.103235 7.32911e-22)
(-0.0274487 -0.111482 -9.20517e-21)
(-0.0212812 -0.101971 1.64836e-22)
(-0.033696 -0.112567 5.80833e-21)
(-0.0263646 -0.102256 -1.40481e-21)
(-0.0431858 -0.11464 7.16758e-21)
(-0.0339115 -0.103538 7.22736e-21)
(-0.0573128 -0.116845 -4.6702e-20)
(-0.0453282 -0.105068 0)
(-0.0786418 -0.118009 -8.50487e-20)
(-0.0617658 -0.105407 -6.3146e-22)
(-0.111921 -0.117576 -9.00257e-21)
(-0.0865909 -0.102589 1.88945e-20)
(-0.174652 -0.109745 1.46324e-19)
(-0.119675 -0.0889533 4.00133e-20)
(-0.191567 -0.044586 6.73381e-20)
(-0.117699 -0.062819 -2.59935e-19)
(-0.115053 -0.0788814 1.83376e-20)
(-0.111375 -0.055439 3.95234e-19)
(-0.106459 -0.0795826 -3.95044e-19)
(-0.103686 -0.0453813 1.42608e-19)
(-0.0998806 -0.0712883 3.11728e-19)
(-0.0995698 -0.0333509 -4.50271e-19)
(-0.0978429 -0.0564903 -1.11161e-19)
(-0.100697 -0.0211852 3.14816e-20)
(-0.0999631 -0.0390827 -7.22176e-20)
(-0.106258 -0.0101143 -3.33054e-20)
(-0.105496 -0.023317 3.26947e-19)
(-0.115296 -0.000976911 -1.91936e-19)
(-0.114843 -0.00956293 -2.7519e-19)
(-0.125849 0.00659541 3.22634e-20)
(-0.126818 0.000753916 0)
(-0.135419 0.0133702 6.26552e-22)
(-0.139599 0.00749845 3.28633e-20)
(-0.141584 0.0195367 -3.14315e-20)
(-0.150438 0.0113372 -4.576e-20)
(-0.143709 0.0254691 -2.99924e-20)
(-0.157897 0.0150758 6.24628e-20)
(-0.162972 0.0235448 -5.15665e-20)
(-0.143883 0.0331162 5.75218e-22)
(-0.107938 -0.0928344 -1.0064e-19)
(-0.120644 -0.0980655 -6.14391e-20)
(-0.0968724 -0.0899704 -4.99245e-19)
(-0.106587 -0.100541 -6.40534e-20)
(-0.0941198 -0.0772259 4.97556e-20)
(-0.104172 -0.088853 -2.64957e-19)
(-0.0978791 -0.0588216 2.78247e-19)
(-0.109829 -0.0688965 1.19902e-19)
(-0.104868 -0.038401 2.24648e-19)
(-0.119071 -0.046754 1.6462e-19)
(-0.116199 -0.0189097 8.28557e-20)
(-0.131212 -0.021664 1.23549e-19)
(-0.129791 -0.00202724 -8.35569e-20)
(-0.143689 3.44847e-05 -8.49542e-20)
(-0.144069 0.00969984 0)
(-0.156217 0.0164654 0)
(-0.156778 0.0144694 -1.38764e-20)
(-0.168353 0.024847 -1.10204e-20)
(-0.166697 0.0147473 4.96639e-20)
(-0.180094 0.0266235 7.33204e-21)
(-0.175524 0.0191591 4.09171e-20)
(-0.192301 0.031094 6.47106e-20)
(-0.205484 0.0466675 -2.43846e-20)
(-0.185514 0.0324776 -2.39836e-20)
(-0.113201 -0.109235 -2.16684e-20)
(-0.127923 -0.119795 -3.90276e-19)
(-0.107309 -0.104404 1.93443e-19)
(-0.118717 -0.120139 2.95451e-19)
(-0.114391 -0.0860794 -2.04394e-19)
(-0.127847 -0.103921 -8.50298e-21)
(-0.12748 -0.0609549 -5.19283e-21)
(-0.143491 -0.0796379 -1.32002e-20)
(-0.143705 -0.0344128 5.54265e-20)
(-0.160545 -0.0509521 1.12906e-19)
(-0.159376 -0.00990498 -5.3031e-20)
(-0.17668 -0.0213017 -5.78807e-20)
(-0.173267 0.0102787 0)
(-0.190476 0.00436783 0)
(-0.184444 0.0235567 -1.12078e-20)
(-0.201523 0.0234929 0)
(-0.19383 0.0296918 1.10271e-20)
(-0.21145 0.0344545 -5.44269e-20)
(-0.205276 0.0363705 2.18051e-20)
(-0.223629 0.0427641 3.00738e-20)
(-0.221646 0.0526848 0)
(-0.23958 0.059054 7.79432e-21)
(-0.2583 0.0865143 5.4088e-20)
(-0.241143 0.0797223 0)
(-0.126583 -0.127137 -8.67078e-20)
(-0.141354 -0.134951 -5.00558e-19)
(-0.134602 -0.118315 9.3274e-20)
(-0.145426 -0.131805 2.88452e-19)
(-0.153023 -0.0962494 1.89397e-19)
(-0.166495 -0.113541 1.00798e-19)
(-0.1739 -0.0684891 1.06814e-19)
(-0.189904 -0.0870817 -1.27834e-19)
(-0.193862 -0.0376389 -1.35483e-21)
(-0.211073 -0.0561836 2.38458e-21)
(-0.210634 -0.00808146 -4.10638e-21)
(-0.228403 -0.0240671 -1.48622e-19)
(-0.223316 0.0155544 0)
(-0.241657 0.00419149 6.44913e-20)
(-0.232815 0.0320014 -4.41685e-20)
(-0.251152 0.026153 -6.31237e-20)
(-0.24293 0.0453798 -3.59974e-20)
(-0.259972 0.0431124 -2.98433e-20)
(-0.257522 0.0642365 1.58759e-20)
(-0.2715 0.0618838 9.03079e-21)
(-0.276116 0.0933057 6.28371e-20)
(-0.285528 0.0891197 8.02475e-21)
(-0.299782 0.123912 1.66086e-20)
(-0.295523 0.12933 2.63539e-21)
(-0.152507 -0.133938 -1.46217e-19)
(-0.160729 -0.139221 -4.01402e-19)
(-0.173394 -0.123442 3.10656e-19)
(-0.180984 -0.134305 2.96282e-19)
(-0.199829 -0.101387 -2.12866e-19)
(-0.210006 -0.116423 6.39467e-21)
(-0.225168 -0.0725389 -2.28476e-19)
(-0.2376 -0.0909932 -9.75435e-20)
(-0.246751 -0.0409649 -1.43849e-19)
(-0.261138 -0.0604315 -5.78045e-20)
(-0.262648 -0.0105358 -7.84475e-20)
(-0.278659 -0.0286143 -1.37927e-19)
(-0.273265 0.0156737 -9.753e-22)
(-0.289926 0.000690527 1.9392e-20)
(-0.281082 0.0378088 -4.89752e-20)
(-0.296582 0.0257781 -6.48372e-20)
(-0.289558 0.0601674 1.59022e-20)
(-0.301607 0.0487651 1.52329e-20)
(-0.299869 0.0878652 8.62507e-22)
(-0.306604 0.0744995 8.73587e-22)
(-0.30981 0.121616 -3.96302e-20)
(-0.310322 0.105713 0)
(-0.31089 0.13949 -4.01393e-20)
(-0.316682 0.156267 -3.02123e-22)
(-0.18468 -0.133467 1.74157e-20)
(-0.184346 -0.132796 -5.41645e-20)
(-0.214817 -0.122718 0)
(-0.217449 -0.128444 -9.11421e-20)
(-0.245647 -0.102107 1.31855e-19)
(-0.250569 -0.113387 1.77468e-19)
(-0.273255 -0.0750696 7.73467e-20)
(-0.280534 -0.0906026 9.98683e-20)
(-0.294787 -0.0449109 -5.48893e-20)
(-0.304559 -0.0628096 -1.62766e-20)
(-0.308822 -0.0148807 -4.37215e-20)
(-0.320604 -0.0334836 -9.01422e-22)
(-0.31611 0.0129871 -4.74595e-20)
(-0.328498 -0.00533467 -4.78543e-22)
(-0.319029 0.0390184 0)
(-0.329933 0.0206446 0)
(-0.319673 0.0657119 0)
(-0.327055 0.045881 0)
(-0.318018 0.0952313 0)
(-0.320644 0.072823 0)
(-0.312447 0.126371 0)
(-0.309985 0.101961 0)
(-0.294594 0.129816 1.86451e-20)
(-0.301965 0.153703 0)
(-0.216716 -0.125304 -1.66945e-19)
(-0.20764 -0.120489 -2.71246e-21)
(-0.251421 -0.114796 8.04409e-20)
(-0.24807 -0.116116 -8.49906e-20)
(-0.284202 -0.0974058 1.47767e-19)
(-0.281737 -0.103448 1.18523e-19)
(-0.311903 -0.0742102 5.32876e-21)
(-0.311725 -0.0847091 1.7173e-20)
(-0.331851 -0.0477486 3.9047e-20)
(-0.334622 -0.0617442 4.39811e-20)
(-0.342675 -0.0206363 3.90663e-20)
(-0.348121 -0.0373623 -4.3262e-20)
(-0.34477 0.00562068 4.38068e-20)
(-0.351748 -0.0134212 4.42943e-20)
(-0.339815 0.0310461 0)
(-0.346733 0.00965405 0)
(-0.329402 0.0567185 0)
(-0.33488 0.0327307 0)
(-0.313985 0.0831757 0)
(-0.317374 0.0567789 0)
(-0.293346 0.10856 1.88701e-20)
(-0.294662 0.0811849 2.71875e-21)
(-0.267517 0.10258 3.49227e-20)
(-0.26812 0.128083 -1.10929e-21)
(-0.242551 -0.113995 8.51319e-20)
(-0.226512 -0.108573 8.2501e-20)
(-0.276505 -0.102443 -5.00085e-20)
(-0.268978 -0.101509 1.04703e-20)
(-0.30781 -0.0875965 -7.40226e-21)
(-0.299168 -0.0885552 -1.10006e-19)
(-0.333845 -0.0689909 5.63936e-20)
(-0.326649 -0.0730056 4.84348e-20)
(-0.351557 -0.0483514 -3.54929e-20)
(-0.346995 -0.0555925 0)
(-0.359006 -0.0273506 -3.54929e-20)
(-0.357457 -0.0382391 -5.57265e-20)
(-0.356023 -0.00663351 0)
(-0.357062 -0.0215793 -2.30946e-20)
(-0.343936 0.0140928 0)
(-0.346755 -0.00496587 0)
(-0.324663 0.0353462 0)
(-0.328567 0.012821 -6.89007e-21)
(-0.299699 0.0568297 2.74935e-21)
(-0.304466 0.0322289 0)
(-0.270092 0.076541 1.87703e-20)
(-0.275871 0.0520531 2.9432e-22)
(-0.244203 0.0689552 1.27699e-20)
(-0.237277 0.0907122 4.52795e-21)
(-0.259547 -0.102835 -1.27515e-20)
(-0.2384 -0.102745 7.76936e-20)
(-0.288851 -0.0874076 -4.02093e-20)
(-0.279831 -0.0891107 -5.7244e-20)
(-0.315483 -0.0730423 -6.02828e-20)
(-0.303211 -0.0725457 1.38879e-20)
(-0.337729 -0.0582523 -8.52872e-21)
(-0.325949 -0.0578979 -7.18012e-20)
(-0.352367 -0.044228 -2.00727e-20)
(-0.342499 -0.0450354 -1.59649e-20)
(-0.356861 -0.0314482 -4.47806e-20)
(-0.349509 -0.0351948 5.19364e-21)
(-0.350452 -0.0190623 -2.3338e-20)
(-0.345526 -0.0275116 -2.35671e-20)
(-0.334178 -0.00558874 -6.96269e-21)
(-0.331592 -0.0196333 -1.55223e-20)
(-0.310558 0.00980421 -6.96269e-21)
(-0.310326 -0.00873764 -3.49277e-22)
(-0.282018 0.0266167 -2.79497e-21)
(-0.284157 0.00579378 -1.91786e-22)
(-0.250601 0.0427406 -7.15514e-21)
(-0.255074 0.022466 -4.05641e-21)
(-0.224757 0.037672 -6.31469e-21)
(-0.218201 0.0549286 -4.36017e-21)
(-0.268301 -0.0972498 -1.65569e-20)
(-0.24314 -0.105187 9.62192e-20)
(-0.290952 -0.0744733 -8.66091e-21)
(-0.2796 -0.0809084 -8.26082e-20)
(-0.310424 -0.0569844 4.15119e-21)
(-0.29439 -0.0587328 6.15282e-20)
(-0.327391 -0.043757 -8.80677e-20)
(-0.310037 -0.0412698 -6.44066e-20)
(-0.338329 -0.0354989 7.60998e-21)
(-0.320714 -0.0305153 1.16394e-20)
(-0.33995 -0.0313802 2.52223e-20)
(-0.321961 -0.027266 1.04564e-19)
(-0.330793 -0.0285262 -1.56762e-20)
(-0.312916 -0.0293227 -1.72272e-20)
(-0.311641 -0.0234922 -8.65839e-21)
(-0.295932 -0.0319764 -2.0125e-21)
(-0.286198 -0.0139857 6.82413e-21)
(-0.274262 -0.0289086 7.08287e-21)
(-0.257654 -0.000157999 -1.43993e-21)
(-0.249865 -0.0189974 1.79918e-22)
(-0.228574 0.0150769 -3.17692e-21)
(-0.224549 -0.00404165 -6.65105e-22)
(-0.199727 0.0114568 -1.94857e-21)
(-0.200693 0.0281916 -1.75039e-21)
(-0.267597 -0.0956822 -3.24798e-20)
(-0.249069 -0.125167 2.86057e-20)
(-0.28022 -0.0638097 -1.84458e-20)
(-0.275557 -0.083523 -2.40058e-20)
(-0.289694 -0.0418481 0)
(-0.276998 -0.0511862 -6.99691e-21)
(-0.298258 -0.0273469 3.09589e-20)
(-0.278951 -0.0261933 5.95169e-21)
(-0.302009 -0.0235992 1.15125e-19)
(-0.278444 -0.0139967 4.54819e-20)
(-0.297555 -0.0285517 6.15893e-20)
(-0.26952 -0.015589 8.73758e-20)
(-0.283705 -0.0362317 -1.7692e-21)
(-0.252639 -0.0271883 -3.57592e-21)
(-0.263338 -0.0401984 1.56192e-20)
(-0.233031 -0.0396981 1.44519e-20)
(-0.23972 -0.0361866 4.24774e-22)
(-0.214191 -0.0443694 1.36606e-21)
(-0.216273 -0.0244637 1.51854e-21)
(-0.19644 -0.0381603 -1.18736e-21)
(-0.194227 -0.00889865 1.09377e-21)
(-0.179567 -0.0242841 1.10337e-21)
(-0.163654 -0.00823734 1.26942e-21)
(-0.17418 0.00607756 0)
(-0.267808 -0.127851 -3.51058e-20)
(-0.189775 -0.0978381 1.04485e-19)
(-0.269426 -0.069883 -1.25048e-20)
(-0.219373 -0.0762742 7.04904e-21)
(-0.261465 -0.0324464 -1.31725e-20)
(-0.230245 -0.0484487 1.48813e-22)
(-0.253595 -0.0109843 9.1555e-21)
(-0.228219 -0.0179424 -1.9835e-20)
(-0.242691 -0.00700323 1.21579e-20)
(-0.216551 -0.00219016 1.03949e-20)
(-0.22665 -0.017692 1.18693e-20)
(-0.196136 -0.00573142 -2.16729e-20)
(-0.207202 -0.0347429 7.13403e-21)
(-0.171702 -0.0230289 1.42063e-20)
(-0.188253 -0.0475332 6.22333e-23)
(-0.151613 -0.0418717 -2.03321e-20)
(-0.172089 -0.0491592 -8.19528e-22)
(-0.139386 -0.0515501 5.43633e-21)
(-0.158902 -0.0400864 -1.75353e-21)
(-0.132452 -0.0481903 -2.92287e-21)
(-0.147516 -0.0251885 1.28067e-21)
(-0.127281 -0.0357313 1.50783e-22)
(-0.137174 -0.00964766 -1.16932e-21)
(-0.122012 -0.0201826 -1.71677e-21)
(-0.143786 0.0438423 -2.66204e-20)
(-0.168271 0.0368636 3.1136e-20)
(-0.144558 0.0563132 -5.7188e-20)
(-0.174146 0.0536579 -7.39896e-21)
(-0.146599 0.067949 -2.14144e-19)
(-0.180297 0.0714422 1.59218e-19)
(-0.148585 0.0774254 1.51913e-19)
(-0.1864 0.0870988 -3.37241e-19)
(-0.148286 0.0849809 -8.54934e-20)
(-0.190239 0.0990057 3.70906e-19)
(-0.144056 0.0911147 -2.99973e-19)
(-0.189108 0.106823 -4.57e-19)
(-0.134893 0.095545 1.4747e-19)
(-0.18242 0.109731 9.11913e-20)
(-0.120899 0.0976582 -1.83045e-19)
(-0.169834 0.107502 0)
(-0.104672 0.0991876 1.03437e-19)
(-0.14982 0.104458 -3.10858e-19)
(-0.0891526 0.102787 -4.45346e-20)