/*--------------------------------*- C++ -*----------------------------------*\
| =========                 |                                                 |
| \\      /  F ield         | OpenFOAM: The Open Source CFD Toolbox           |
|  \\    /   O peration     | Version:  2.3.1                                 |
|   \\  /    A nd           | Web:      www.OpenFOAM.org                      |
|    \\/     M anipulation  |                                                 |
\*---------------------------------------------------------------------------*/
FoamFile
{
    version     2.0;
    format      ascii;
    class       volScalarField;
    location    "0.77";
    object      epsilon;
}
// * * * * * * * * * * * * * * * * * * * * * * * * * * * * * * * * * * * * * //

dimensions      [0 2 -3 0 0 0 0];

internalField   nonuniform List<scalar> 
9648
(
2397.37
2392.68
2390.35
2383.42
2371.85
2355.11
2333.51
2306.79
2274.88
2237.88
2196.01
2149.43
2099.03
2045.78
1990.5
1934.15
1877.84
1822.55
1768.99
1717.65
1669.06
1623.52
1581.15
1542.11
1506.41
1473.92
1444.55
1418.17
1394.68
1373.9
1355.7
1339.92
1326.44
1315.09
1305.8
1298.42
1292.83
1288.95
1286.76
1286.16
1287.05
1289.41
1293.21
1298.38
1304.97
1313
1322.44
1333.28
1345.58
1359.49
1375
1392.09
1410.99
1431.66
1454.1
1478.12
1503.54
1529.99
1556.75
1583.2
1608.91
593.679
584.989
575.365
564.848
555.605
549.899
547.265
546.842
548.317
551.827
557.121
563.534
570.639
578.055
585.442
592.431
598.845
604.652
609.843
614.355
618.291
621.711
624.665
627.269
629.648
631.86
633.955
636.007
638.096
640.27
642.55
644.991
647.635
650.476
653.548
656.88
660.461
664.29
668.384
672.77
677.44
682.38
687.6
693.109
698.891
704.976
711.359
718.01
724.909
732.055
739.402
746.923
754.565
762.364
770.179
777.991
785.646
793.254
800.672
807.822
814.658
236.771
239.093
242.722
248.448
256.258
265.828
277.289
290.301
304.787
320.386
336.89
353.855
370.942
387.814
404.184
419.816
434.541
448.27
460.945
472.549
483.106
492.649
501.251
508.992
515.965
522.25
527.928
533.085
537.791
542.117
546.124
549.869
553.399
556.758
559.983
563.101
566.144
569.126
572.067
574.985
577.894
580.811
583.734
586.674
589.634
592.605
595.587
598.559
601.518
604.442
607.326
610.168
612.926
615.656
618.241
620.783
623.182
625.578
627.806
629.91
631.881
134.24
143.609
154.195
166.258
179.848
194.913
211.415
229.167
247.949
267.425
287.286
307.165
326.747
345.735
363.891
381.012
396.969
411.684
425.122
437.286
448.201
457.912
466.497
474.039
480.638
486.391
491.391
495.729
499.482
502.734
505.555
508.01
510.163
512.058
513.74
515.25
516.62
517.874
519.036
520.128
521.167
522.171
523.156
524.127
525.09
526.048
526.999
527.94
528.873
529.79
530.671
531.543
532.38
533.194
533.935
534.664
535.377
536.064
536.706
537.31
537.915
99.4165
111.944
125.864
141.224
158.018
176.183
195.577
215.978
237.101
258.583
280.079
301.228
321.732
341.327
359.808
376.995
392.794
407.156
420.069
431.569
441.694
450.498
458.074
464.509
469.926
474.435
478.138
481.136
483.506
485.337
486.711
487.694
488.36
488.759
488.931
488.925
488.777
488.51
488.152
487.725
487.243
486.733
486.211
485.691
485.174
484.667
484.175
483.695
483.223
482.764
482.301
481.836
481.378
480.918
480.452
479.982
479.534
479.084
478.617
478.145
477.674
86.0128
100.635
116.867
134.638
153.821
174.288
195.812
218.103
240.821
263.561
285.969
307.671
328.409
347.932
366.107
382.742
397.774
411.208
423.04
433.359
442.222
449.672
455.839
460.799
464.709
467.699
469.872
471.352
472.196
472.504
472.372
471.854
471.046
469.998
468.738
467.324
465.808
464.191
462.514
460.794
459.04
457.286
455.55
453.85
452.179
450.548
448.958
447.423
445.93
444.467
443.034
441.618
440.225
438.852
437.49
436.172
434.888
433.614
432.338
431.068
429.792
81.4774
97.8711
116.064
135.872
157.029
179.352
202.523
226.202
250.027
273.501
296.325
318.062
338.543
357.517
374.993
390.676
404.56
416.729
427.144
435.995
443.357
449.213
453.796
457.098
459.363
460.736
461.302
461.239
460.542
459.336
457.743
455.774
453.574
451.183
448.59
445.884
443.146
440.325
437.496
434.662
431.814
429.008
426.26
423.592
420.972
418.422
415.949
413.55
411.229
408.966
406.751
404.571
402.444
400.323
398.233
396.198
394.217
392.288
390.358
388.407
386.481
81.1362
99.1415
119.102
140.708
163.526
187.322
211.757
236.448
261.005
284.815
307.685
329.016
348.85
366.859
383.383
397.844
410.32
421.039
429.782
436.957
442.681
446.76
449.706
451.216
451.746
451.447
450.361
448.783
446.542
443.841
440.858
437.486
433.978
430.328
426.477
422.57
418.696
414.717
410.82
406.965
403.1
399.31
395.66
392.124
388.644
385.297
382.023
378.874
375.814
372.847
369.946
367.102
364.313
361.515
358.77
356.124
353.507
351.01
348.477
345.907
343.432
82.7529
102.044
123.569
146.56
170.858
195.735
220.998
246.558
271.399
295.4
317.959
338.784
357.596
374.359
389.715
402.846
413.832
422.953
430.228
435.736
439.582
441.831
442.889
442.78
441.632
439.515
436.879
433.832
429.952
425.807
421.371
416.752
412.2
407.298
402.084
397.157
392.059
386.902
382.037
377.041
372.062
367.052
362.671
358.293
353.907
349.957
345.766
341.979
338.024
334.346
330.564
327.11
323.744
320.226
316.818
313.72
310.372
307.586
304.417
301.129
298.216
1633.98
1658.25
1681.42
1703.45
1724.54
1745.1
1765.27
1785.32
1805.17
1824.05
1841.63
1858.46
1874.82
1891.09
1907.48
1924.69
1943.29
1963.79
1986.51
2011.86
2039.5
2068.91
2099.7
2131.5
2163.99
2197.12
2231.08
2265.48
2300.34
2335.65
2371.61
2408.08
2445.08
2482.77
2521.14
2560.11
2599.78
2640.28
2681.68
2723.83
2766.75
2810.69
2855.63
2901.4
2948.32
2996.26
3045.09
3094.87
3145.79
3197.9
3251.12
3305.32
3361.07
3417.95
3476.33
3536
3597.69
3661.4
3727.13
3794.76
3864.44
821.155
827.726
834.122
840.26
846.167
851.965
857.805
863.531
869.354
874.929
880.466
885.899
891.348
896.829
902.336
907.915
913.583
919.381
925.294
931.294
937.34
943.372
949.372
955.321
961.206
967.007
972.652
978.113
983.386
988.494
993.455
998.242
1002.87
1007.37
1011.73
1015.95
1020.06
1024.05
1027.91
1031.65
1035.29
1038.84
1042.28
1045.61
1048.85
1051.98
1054.99
1057.88
1060.67
1063.36
1065.93
1068.37
1070.71
1073.09
1075.26
1077.51
1079.71
1082.11
1084.37
1086.69
1089.12
633.82
635.677
637.582
639.455
641.299
643.044
644.866
646.593
648.306
649.876
651.398
652.869
654.36
655.823
657.26
658.659
660.015
661.325
662.576
663.758
664.856
665.87
666.789
667.609
668.325
668.933
669.428
669.807
670.06
670.193
670.197
670.075
669.832
669.461
668.98
668.382
667.671
666.843
665.901
664.841
663.669
662.389
661.007
659.509
657.906
656.185
654.335
652.347
650.229
647.981
645.577
643.066
640.408
637.634
634.66
631.597
628.439
625.199
621.863
618.468
615.076
538.493
539.071
539.618
540.153
540.657
541.132
541.571
541.999
542.364
542.631
542.839
543.008
543.118
543.147
543.125
543.04
542.892
542.673
542.375
541.992
541.524
540.97
540.333
539.61
538.793
537.876
536.861
535.746
534.53
533.213
531.795
530.267
528.632
526.896
525.065
523.14
521.12
519.003
516.785
514.468
512.058
509.568
506.999
504.36
501.651
498.868
495.991
493.02
489.946
486.789
483.519
480.146
476.683
473.115
469.413
465.586
461.681
457.683
453.621
449.532
445.441
477.208
476.719
476.208
475.67
475.107
474.487
473.816
473.142
472.469
471.748
470.997
470.207
469.361
468.462
467.505
466.487
465.439
464.322
463.135
461.875
460.546
459.154
457.704
456.2
454.632
452.994
451.283
449.498
447.646
445.724
443.729
441.649
439.484
437.238
434.923
432.54
430.085
427.55
424.929
422.226
419.451
416.613
413.727
410.807
407.859
404.886
401.85
398.777
395.631
392.434
389.164
385.81
382.395
378.901
375.307
371.606
367.818
363.936
360.025
356.092
352.155
428.531
427.264
425.994
424.683
423.353
421.994
420.599
419.193
417.749
416.286
414.79
413.275
411.727
410.132
408.498
406.832
405.144
403.396
401.584
399.709
397.779
395.805
393.802
391.776
389.712
387.599
385.438
383.227
380.983
378.708
376.396
374.021
371.588
369.088
366.548
363.965
361.321
358.62
355.842
352.987
350.069
347.095
344.091
341.084
338.09
335.123
332.125
329.132
326.104
323.084
320.021
316.89
313.732
310.502
307.218
303.803
300.319
296.753
293.193
289.588
285.999
384.578
382.69
380.801
378.905
376.978
375.014
373.024
371.039
369.022
366.963
364.896
362.829
360.733
358.616
356.458
354.289
352.125
349.914
347.639
345.292
342.89
340.469
338.036
335.619
333.192
330.726
328.228
325.69
323.158
320.639
318.154
315.628
313.083
310.486
307.888
305.266
302.58
299.855
297.062
294.197
291.265
288.258
285.227
282.203
279.214
276.323
273.409
270.571
267.72
264.97
262.222
259.388
256.561
253.672
250.771
247.688
244.586
241.371
238.243
235.042
231.888
340.963
338.558
336.151
333.792
331.414
329.058
326.635
324.289
321.919
319.443
316.977
314.559
312.101
309.624
307.07
304.546
302.102
299.622
297.078
294.392
291.626
288.881
286.118
283.396
280.733
278.033
275.301
272.473
269.666
266.935
264.371
261.786
259.274
256.729
254.26
251.805
249.212
246.548
243.868
241.172
238.366
235.428
232.458
229.479
226.514
223.764
220.928
218.269
215.596
213.197
210.863
208.376
205.937
203.433
200.981
198.236
195.551
192.692
190.069
187.323
184.676
295.079
292.181
289.132
286.423
283.563
281.131
278.374
276.033
273.67
271.091
268.505
266.177
263.616
261.087
258.269
255.419
252.91
250.504
248.109
245.462
242.395
239.543
236.613
233.641
230.842
228.092
225.442
222.465
219.266
216.257
213.634
210.995
208.577
206.211
204.191
202.242
199.969
197.401
194.913
192.617
190.249
187.505
184.673
181.882
178.989
176.477
173.625
171.146
168.543
166.621
164.809
162.67
160.714
158.671
156.784
154.332
152.1
149.531
147.467
145.216
143.187
3937.24
4012.66
4090.07
4169.5
4251.39
4336.65
4424.72
4515.53
4608.81
4704.74
4803.78
4904.74
5008.04
5117.8
5256.02
5380.79
5505.52
5632.85
5762.69
5894.99
6030.09
6168.02
6308.38
6451.38
6596.8
6743.93
6892.48
7042.2
7192.89
7343.69
7494.51
7644.73
7793.49
7940.2
8084.33
8224.48
8359.51
8488.02
8601.79
8685.56
8742.55
8774.31
8780.66
8759.78
8710.06
8629.01
8512.56
8356.02
8155.03
7904.91
7599.34
7231.42
6795.85
6285.02
5667.87
4720.78
4302.54
4093.49
4011.18
3971.69
3889.49
1091.79
1094.55
1097.52
1100.54
1103.65
1107
1110.88
1115.15
1119.88
1124.9
1130.39
1133.63
1134.98
1137.93
1141.47
1146.47
1151.57
1156.61
1161.78
1167.2
1172.89
1178.89
1185.14
1191.66
1198.44
1205.44
1212.71
1220.25
1228.13
1236.38
1245.06
1254.22
1263.99
1274.48
1285.8
1298.18
1311.8
1327.03
1345.18
1374.43
1409.83
1448.22
1489.8
1534.69
1583.6
1636.87
1694.56
1756.98
1824.38
1896.34
1971.97
2049.65
2127.81
2205.38
2274.91
2340.42
2399.67
2486.57
2591.55
2700.28
2655.96
611.658
608.241
604.787
601.312
597.779
594.268
590.864
587.608
584.41
581.171
577.426
571.766
565.871
560.773
556.182
552.218
548.327
544.329
540.27
536.203
532.167
528.159
524.173
520.208
516.26
512.324
508.411
504.523
500.681
496.881
493.144
489.491
485.935
482.521
479.274
476.246
473.482
471.055
469.102
468.127
468.32
472.731
480.94
492.452
507.726
527.421
552.257
583.266
621.453
667.904
723.638
789.45
866.534
955.227
1055.35
1163.62
1271.05
1388.57
1532.81
1719.94
1908.68
441.352
437.27
433.186
429.084
424.934
420.781
416.674
412.66
408.616
404.467
399.488
393.506
387.734
382.487
377.627
373.12
368.714
364.318
359.916
355.537
351.181
346.831
342.495
338.177
333.872
329.591
325.334
321.102
316.896
312.721
308.576
304.47
300.412
296.416
292.491
288.657
284.934
281.34
277.902
274.683
271.764
269.45
268.425
269.114
271.392
275.599
282.197
291.84
305.37
323.815
348.587
381.02
422.781
475
538.34
610.828
688.282
772.162
870.83
998.121
1157.46
348.234
344.373
340.529
336.662
332.726
328.787
324.861
321.013
317.128
313.123
308.325
303.041
298.043
293.439
289.083
284.962
280.937
276.999
273.113
269.287
265.5
261.701
257.921
254.167
250.428
246.718
243.034
239.379
235.743
232.13
228.539
224.978
221.452
217.971
214.545
211.185
207.901
204.705
201.607
198.625
195.785
193.15
190.852
189.244
188.441
188.463
189.531
191.947
196.143
202.659
212.287
226.036
245.107
270.766
304.036
345.053
392.412
445.624
506.95
581.977
677.035
282.406
278.932
275.484
272.033
268.442
264.854
261.254
257.766
254.245
250.653
246.354
241.869
237.654
233.777
230.038
226.463
222.944
219.572
216.284
213.093
209.949
206.764
203.615
200.509
197.412
194.354
191.314
188.305
185.299
182.309
179.329
176.376
173.451
170.571
167.737
164.963
162.255
159.623
157.068
154.604
152.241
150.004
147.931
146.112
144.788
143.861
143.452
143.682
144.757
146.953
150.638
156.337
164.721
176.561
192.735
213.812
239.923
271.134
308.062
352.358
407.133
228.646
225.596
222.586
219.624
216.404
213.213
209.957
206.898
203.817
200.76
197.022
193.294
189.782
186.63
183.494
180.499
177.489
174.699
171.995
169.409
166.874
164.238
161.683
159.216
156.736
154.307
151.87
149.473
147.048
144.634
142.209
139.825
137.464
135.159
132.892
130.688
128.539
126.464
124.455
122.53
120.691
118.96
117.347
115.883
114.633
113.745
113.13
112.854
113.018
113.757
115.258
117.772
121.619
127.229
135.074
145.648
159.367
176.557
197.684
223.53
255.375
181.771
179.145
176.599
174.203
171.372
168.612
165.694
163.124
160.533
158.091
154.89
151.839
148.931
146.472
143.879
141.47
138.924
136.706
134.548
132.493
130.501
128.313
126.289
124.462
122.554
120.69
118.765
116.925
114.987
113.069
111.102
109.229
107.37
105.602
103.847
102.167
100.513
98.9391
97.4242
96.0059
94.6606
93.4255
92.3014
91.2834
90.4027
89.7587
89.319
89.0717
89.0827
89.4239
90.1946
91.5161
93.5577
96.5152
100.637
106.208
113.524
122.922
134.767
149.564
167.97
140.585
138.317
136.258
134.513
132.069
129.768
127.136
125.147
123.083
121.295
118.575
116.107
113.656
111.87
109.704
107.895
105.718
104.085
102.407
100.737
99.2028
97.316
95.7716
94.6802
93.2481
91.7942
90.2318
88.9093
87.3
85.7623
84.0921
82.7096
81.2693
80.0089
78.6637
77.4362
76.1248
74.9533
73.8502
72.8785
71.9772
71.1794
70.5001
69.9045
69.3467
68.8992
68.6315
68.4791
68.55
68.7712
69.3792
70.2914
71.7101
73.6017
76.177
79.469
83.7691
89.1713
96.0671
104.719
115.481
3744.83
3586.14
3416.03
3237.37
3059.18
2886.8
2723.57
2573.84
2441.3
2327.97
2234.25
2159.08
2100.86
2057.42
2026.07
2004.3
1989.95
1981.46
1977.42
1976.62
1978.39
1982.16
1987.51
1994.31
2002.51
2011.95
2022.49
2034.16
2047.03
2060.95
2075.88
2091.78
2108.52
2125.87
2143.72
2161.77
2179.71
2197.24
2214.17
2230.19
2244.85
2257.94
2269.35
2278.86
2286.62
2292.9
2297.86
2301.76
2305.18
2308.87
2313.15
2318.21
2324.53
2332.25
2341
2350.47
2360.32
2370.5
2379.97
2387.72
2393.18
2464
2259.89
2060.24
1869.25
1701.77
1547.2
1404.42
1274.27
1156.94
1053.28
963.38
886.722
822.373
768.734
725.475
691.775
665.935
646.053
630.614
618.535
609.065
601.613
595.804
591.423
588.224
586.163
585.098
585.01
585.868
587.66
590.397
594.056
598.63
604.08
610.349
617.367
625.022
633.181
641.665
650.263
658.685
666.584
673.55
679.133
682.925
684.543
683.684
680.256
674.441
666.689
657.641
648.101
638.959
630.95
624.34
619.374
615.681
612.851
609.826
605.791
600.261
1995.55
1982.74
1881.16
1707.11
1527.76
1353.94
1184.87
1031.77
894.954
773.838
669.366
581.006
507.589
447.813
400.656
364.4
336.537
314.468
296.979
283.244
272.449
263.919
257.13
251.698
247.344
243.837
241.06
238.918
237.357
236.337
235.832
235.836
236.331
237.283
238.667
240.44
242.56
244.981
247.645
250.469
253.354
256.187
258.834
261.117
262.87
263.889
263.979
262.973
260.787
257.409
252.976
247.84
242.478
237.474
233.284
230.412
229.017
229.06
230.197
232.066
234.407
1323.45
1471.04
1568.84
1586.29
1517.8
1392.98
1224.77
1054.9
897.941
753.189
627.214
521.69
434.633
364.841
310.061
267.478
234.379
208.229
187.658
171.646
159.261
149.73
142.403
136.729
132.283
128.75
125.919
123.659
121.871
120.484
119.459
118.771
118.39
118.282
118.408
118.731
119.215
119.822
120.507
121.224
121.915
122.529
123.002
123.274
123.284
122.977
122.304
121.236
119.767
117.904
115.698
113.28
110.864
108.739
107.243
106.808
107.773
110.252
114.18
119.425
126.068
793.355
928.608
1071.95
1199.78
1282.18
1301.51
1252.61
1147.87
1011.87
857.497
710.586
584.252
475.561
386.801
316.392
260.67
216.985
182.791
156.066
135.396
119.582
107.657
98.7406
92.0523
86.9738
83.0548
79.997
77.5989
75.7189
74.2473
73.1208
72.3028
71.7545
71.4315
71.2921
71.298
71.4125
71.5988
71.82
72.0351
72.2006
72.2752
72.2182
71.9915
71.5615
70.9032
70.0078
68.8792
67.5269
65.9852
64.3135
62.6147
61.0612
59.883
59.3967
59.9013
61.8598
65.5827
71.2209
78.8911
88.3416
475.438
560.416
663.099
779.616
897.884
1000.23
1066.43
1080.91
1041.28
955.189
839.452
713.232
585.61
474.087
382.813
307.41
247.687
200.44
162.823
133.73
111.734
95.48
83.6318
74.9726
68.5565
63.7216
60.0423
57.2286
55.0742
53.4133
52.1502
51.2298
50.6001
50.2048
49.9954
49.93
49.9692
50.0777
50.2199
50.3582
50.4538
50.4728
50.3799
50.1457
49.7405
49.1478
48.3625
47.3947
46.2529
44.9669
43.5867
42.2009
40.9506
40.0406
39.7705
40.5278
42.8002
47.0136
53.4681
62.2392
73.1628
294.944
344.474
406.309
481.965
570.567
667.515
762.942
842.751
892.522
901.581
867.52
797.451
703.279
599.019
496.553
399.569
319.556
254.184
199.633
156.931
124.509
100.864
84.0081
71.9374
63.1674
56.6727
51.8254
48.1991
45.4876
43.4307
41.8821
40.7555
39.9795
39.4783
39.1915
39.0686
39.0656
39.1454
39.2716
39.408
39.5169
39.5705
39.5343
39.3838
39.0868
38.6341
38.0183
37.2523
36.3368
35.3024
34.1875
33.0704
32.0725
31.3693
31.2375
32.0952
34.4213
38.7713
45.6088
55.1105
67.1646
190.949
219.713
255.825
300.907
356.295
422.252
497.103
575.942
650.903
711.273
746.497
750.076
721.946
666.382
592.088
507.32
422.146
341.791
265.989
204.857
156.44
121.246
96.6169
79.1839
66.602
57.345
50.5084
45.4989
41.8468
39.1132
37.0746
35.5881
34.5561
33.8693
33.4481
33.2271
33.1534
33.1844
33.2818
33.408
33.5244
33.6099
33.6287
33.5603
33.3661
33.0448
32.5825
31.9981
31.283
30.4691
29.5868
28.7088
27.941
27.439
27.4605
28.4075
30.7778
35.2124
42.3287
52.444
65.4992
129.024
145.865
166.951
193.545
226.703
267.469
316.242
372.555
433.989
496.564
552.478
595.659
619.662
621.611
599.775
556.282
497.031
426.157
352.734
277.846
208.144
157.615
122.376
97.2188
78.6431
64.9483
54.852
47.5972
42.42
38.5767
35.7482
33.6733
32.225
31.2373
30.5983
30.2153
30.0209
29.9624
29.9978
30.0816
30.179
30.2726
30.3255
30.317
30.2055
29.9908
29.6603
29.2285
28.6859
28.0585
27.3799
26.7153
26.1684
25.8764
26.0778
27.1565
29.6241
34.1682
41.5094
52.1208
65.9516
1.5017
210.426
187.79
2.34745
2.17803
0.202724
0.00071995
90.1157
0.000796374
0.0146338
94.8779
6.99126
0.000720865
247.38
0.165948
135.109
0.000757414
91.7405
119.442
0.000716123
2.35401
236.409
200.514
0.000767078
0.000781109
0.209836
0.000717265
7.7358
0.00075318
0.000820174
6.53041
0.000741821
0.00874818
64.2678
3.96175
113.226
72.6636
15.9561
0.000723309
44.3676
64.2647
27.7893
0.000743312
102.775
175.395
0.713881
0.000868342
0.00863626
1.3272
7.20085
365.637
351.684
0.0006982
0.00103014
0.0630878
0.035138
0.000817254
8.81417
59.4468
279.746
137.989
0.000905817
1.54548
0.0248989
197.885
2.37973
39.0245
62.8839
0.00113149
0.000747672
9.71761
41.5541
55.0228
0.0385937
0.0507614
79.7198
226.191
56.4913
0.000699997
5.44859
0.00234117
47.2165
0.0127377
111.478
0.00074993
8.698
0.000791063
36.8183
0.0110983
0.00136762
0.230185
0.000698275
0.00093412
303.326
141.375
0.000867567
1.57652
1.8702
0.00184549
204.843
1.02007
31.7267
5.95565
0.000696643
0.000725973
0.00069389
1.41349
0.209346
0.0007481
172.105
220.166
0.00478009
237.717
26.5902
112.745
53.9891
28.4105
0.000977291
0.110352
0.00110567
0.00165396
191.851
0.00308272
284.644
408.518
28.2035
0.000746016
7.21471
7.04009
0.000743928
0.0298032
0.0267592
90.1181
0.00187175
63.4024
0.000748831
0.000723823
390.552
345.835
0.000748809
0.765914
147.565
0.229021
0.903782
26.6992
120.361
0.304795
27.7094
0.00525209
275.56
11.0935
0.0378139
49.8465
109.088
186.402
0.000766413
0.00075735
0.512257
0.000694841
41.7576
0.114527
0.00144795
0.000740458
0.000747475
0.000758567
41.1184
69.2526
33.7227
0.000768468
285.982
302.32
404.735
166.742
0.00688922
161.317
43.8915
28.3497
0.000750106
0.00169554
191.896
68.6674
28.5714
71.2276
0.000745346
0.000842344
241.871
0.0294702
2.47829
0.000757792
0.000866177
0.172531
0.000797886
327.781
4.05449
0.000690616
0.679576
89.202
140.744
0.00119711
53.2878
0.000746608
0.00075019
109.394
33.2049
300.331
0.00121403
0.000800697
0.00285922
41.9081
77.7183
9.97246
120.931
14.3023
229.537
0.790623
87.2924
82.1105
26.3593
10.7318
39.2234
0.00144285
0.0292797
0.00074766
0.00072528
28.5056
0.00999768
0.0117178
0.00198012
0.00625333
47.8736
198.853
0.0110853
168.592
7.56418
2.92171
0.000732482
0.522585
39.1589
7.34252
0.00106277
13.2383
35.25
0.832469
2.48402
268.432
7.49503
4.85615
122.634
0.000955075
0.000724059
0.00102667
0.00427373
28.8805
0.000784992
0.00249441
0.000723701
1.76014
76.885
76.5171
49.4518
12.0856
11.469
321.108
0.00113927
48.5977
99.1503
0.000743903
84.5974
0.000749602
331.979
1.75906
52.826
0.00154685
0.000748478
20.4408
7.56516
0.000759622
0.000750552
0.000755339
0.000751538
1.18011
35.1198
45.3851
0.010878
0.000760433
0.000724456
0.000695739
105.528
1.1625
0.00119032
19.0794
0.116147
0.0964758
0.000691887
0.784381
0.000760154
0.110095
46.6131
273.046
3.20488
0.000978249
0.00184976
57.2146
0.350285
128.363
318.779
0.000838075
0.000739917
0.000734
156.426
0.000773594
137.101
0.000749826
23.9447
12.4003
0.0240169
142.588
241.622
0.00127181
50.34
50.4514
88.1733
91.29
9.65687
343.546
38.6882
72.3153
142.772
95.2169
55.2218
0.338432
333.034
277.012
63.1991
33.5108
0.00100214
269.241
127.855
228.41
0.0187712
0.0008673
0.000745759
0.000811591
0.675249
1.55715
6.49256
0.124555
0.000726375
168.501
0.000746371
26.5986
23.8322
190.551
42.9753
19.0946
0.0019311
0.0011068
0.47125
85.9391
0.00436922
7.84772
261.17
36.2102
85.1609
193.067
61.1924
0.000821674
279.936
140.368
95.8603
0.000750461
190.453
150.217
0.00078142
30.482
0.000751593
390.797
174.117
28.1224
82.4514
116.011
147.723
0.000764778
147.066
0.000964753
68.7949
82.3763
28.3701
276.278
3.64314
0.491098
2.57081
0.00110074
441.179
1.49133
0.00290015
0.00182501
256.539
0.000953165
93.8352
0.000737611
0.000750005
0.00183487
31.6164
0.191905
22.0462
0.00198063
84.3385
0.307239
215.813
279.892
38.7615
337.514
0.000793907
276.335
42.9545
0.000742283
79.7539
26.0233
0.000696304
0.000727461
116.981
0.0020577
27.1157
0.467513
76.4116
0.0176428
3.48546
39.8834
122.244
33.3108
84.4156
69.1406
0.00100191
0.0341837
28.9239
21.09
327.303
339.246
140.149
0.0842321
122.429
121.324
3.3855
90.2637
45.8284
26.3209
0.000822434
85.4715
377.976
0.00107569
90.85
19.2741
46.4215
0.0153034
0.0888724
269.439
0.0019336
323.359
0.00124699
1.77482
0.000738064
7.84833
166.311
0.554446
0.00132161
0.000902515
75.7593
26.8686
0.366365
5.54426
294.799
544.578
0.00139376
11.7301
27.3341
72.2081
26.1864
450.08
28.8933
156.334
52.6887
3.46559
7.13414
298.965
53.4606
349.603
170.272
0.241402
176.404
60.1376
0.000792051
90.9345
28.9585
13.1387
0.00972895
97.5612
44.0811
4.19049
52.4402
0.00159105
0.000747162
0.156612
28.3998
107.328
73.8188
0.000750194
0.00073136
0.000743875
28.393
0.0276139
0.000745717
0.245557
96.3531
273.58
0.0044023
0.00453046
0.000721429
0.000738771
0.00194285
29.6158
99.9989
20.6576
1.88455
293.01
378.555
0.00150897
62.7744
28.0003
28.5385
76.6597
430.481
0.000821866
0.00446521
0.000750891
396.746
0.780087
0.000726932
10.5355
0.352211
298.512
0.000759329
319.522
8.8297
0.0658239
199.435
0.000748106
0.000736523
0.00102819
398.089
53.8735
129.087
316.634
10.9776
28.7555
0.000708699
0.00184609
0.473395
0.0152725
0.0163194
177.19
41.2607
0.000747828
24.9144
45.5829
181.774
400.423
0.00294475
403.815
0.00182847
0.0217599
150.236
0.000739303
146.333
0.000759559
0.000791608
0.0210928
34.3345
2.92027
323.283
60.9271
0.000886868
28.6155
503.181
0.209655
2.27523
7.40107
0.000774765
0.000759625
0.00230552
136.197
5.3396
0.000783508
266.18
279.51
213.411
0.111875
60.4952
0.00108953
30.5388
0.533351
0.130833
123.916
29.894
149.054
172.372
0.000761134
0.000711524
0.00495241
73.0037
101.38
5.91947
0.00658093
0.000772899
0.000749953
0.00344487
0.125853
0.00211399
73.4157
21.4284
0.00497142
26.3524
170.113
0.00076054
38.3408
0.000742636
3.24828
0.00076249
0.0132009
37.9021
0.0116298
0.00074459
4.05392
358.016
259.78
0.000731132
0.000748399
1.5575
0.136102
0.000747723
98.8643
0.000905486
32.156
371.226
30.132
86.244
295.562
133.053
332.166
0.0007476
0.00249756
0.0111226
293.66
59.1205
196.988
5.41358
4.38035
100.789
169.371
124.696
4.86695
45.8805
0.000750518
1.5335
39.9466
33.5698
312.508
25.9507
1.14419
41.5424
0.203505
0.00983135
40.1467
0.000751002
177.123
0.000887976
2.65173
289.671
184.181
3.05393
0.00250832
7.11148
0.000768811
0.000736243
0.197645
0.0134812
51.3412
0.00875503
28.8378
0.000750505
0.0190183
0.000725507
95.6577
0.00181792
86.671
301.159
0.014266
166.946
369.113
0.000756991
97.6758
225.135
0.000785702
284.197
0.276147
0.000825009
0.000791364
278.596
0.000731631
0.00111941
0.121937
0.214419
424.398
267.018
0.000751492
0.000754962
9.08431
28.2561
0.00709197
2.34464
22.3506
0.000747652
0.00095385
0.000912207
167.514
268.198
3.40395
294.142
0.0171402
26.5625
0.000772144
0.00717535
0.0159984
0.0429086
0.000749648
296.794
0.000741925
0.0160496
0.000772162
1.31924
0.0147631
0.0400729
2.45997
5.13919
34.9961
2.1215
9.37297
28.0185
189.804
0.000816276
166.676
321.642
12.8064
76.2786
0.00076183
268.613
77.9029
0.000745617
404.408
66.7804
0.00627246
0.0249418
161.859
162.07
0.21948
311.74
402.872
4.40147
423.953
259.808
129.6
51.0849
20.823
28.1586
260.972
286.421
0.0142335
306.409
40.3525
407.284
0.000813435
1.58858
2.7551
223.531
162.663
0.0118178
445.202
194.857
6.94716
0.054874
2.68958
28.2269
0.00154694
28.3657
432.709
0.0292338
219.991
14.0229
93.463
187.428
0.000746042
0.00167775
7.40051
5.35617
0.0132411
0.000748282
0.806324
1.7723
0.00120805
0.000758693
268.122
7.12058
51.997
10.7392
0.00314471
0.00107586
0.41168
88.224
0.00082386
22.0298
29.7337
1.84106
163.601
0.00100488
0.386588
0.000740597
1.77959
87.8141
0.0016575
0.184647
41.1805
166.355
0.501658
96.5722
5.05402
0.893447
0.000987549
33.3442
327.323
0.000744055
0.000756062
146.644
0.0157721
0.000758242
72.7469
2.11813
163.617
29.7174
37.4104
0.312853
17.2747
205.127
160.559
244.63
0.000763199
275.76
0.000969979
38.2521
0.000796917
0.00147286
45.4051
0.00209235
256.993
0.0121673
0.0322768
44.7799
7.57021
0.568148
0.000897158
182.814
0.000886694
0.000719284
339.387
159.431
41.3583
28.7061
0.000813837
0.000682951
19.2358
147.195
0.000732706
216.822
36.6598
0.000752863
169.52
0.000702448
3.30712
6.4355
10.7016
1.52998
75.1578
21.2183
0.000700634
266.087
325.095
0.000744491
0.0133195
29.0185
0.000708924
236.767
163.287
404.871
0.00074552
0.000727879
201.854
0.0977727
0.000836827
31.4276
79.5626
253.594
0.000720918
0.000794022
0.0157489
0.0115861
0.000746797
0.00202726
126.558
51.0137
0.000746641
13.3445
0.000747027
9.80536
0.00109035
0.000866911
27.6139
0.000748457
0.34031
0.000730537
48.5244
2.09003
20.1406
185.244
362.313
149.428
5.21886
14.9363
0.000758248
5.66855
274.506
530.235
0.156129
0.000826528
128.021
0.000746063
0.115133
0.000720644
434.005
14.7209
3.06781
193.652
52.025
4.84851
81.0989
7.58053
222.661
114.98
0.000773749
0.000756247
0.00309197
0.000736486
0.0140292
97.2412
0.000931932
246.791
0.00186916
0.294828
3.05948
154.451
0.00135831
41.7936
0.0135813
55.1784
30.8893
429.302
0.000795899
0.000954775
1.42173
86.158
63.4136
66.5899
1.95757
7.93336
19.4245
0.0623596
10.1465
1.76964
30.354
0.000756923
394.904
1.43043
56.6407
0.00078827
53.6753
15.8342
0.00188413
87.3639
17.378
0.0841775
0.000715182
0.000745995
205.198
48.5918
15.0365
0.000737988
0.00952965
50.993
187.341
3.42645
0.00584893
0.000735692
144.927
128.791
36.0471
36.2669
0.000743621
102.174
428.5
0.000746909
0.000749282
18.2516
0.00127235
0.00386477
0.228766
46.7984
0.00105157
36.5373
340.301
0.000731863
0.000821604
0.000727463
0.000770079
67.2998
518.038
330.394
0.0205592
33.9109
47.5508
0.132805
44.9904
0.00082417
31.5488
0.531524
30.568
5.27914
80.9524
102.04
0.144889
0.000759127
158.734
85.0979
278.546
5.74409
29.7946
0.525958
20.9809
0.0035302
0.00133416
154.558
141.813
0.0341483
1.23428
0.000753958
0.0993162
19.8612
0.0277635
13.5358
4.32207
386.325
36.8493
1.73761
274.282
140.535
56.8998
15.7601
202.529
189.81
3.19168
38.5717
0.00367681
47.8683
45.9524
0.00074345
0.000711052
0.344144
0.000748427
0.000775481
57.8899
298.28
0.000744611
84.542
0.000744922
0.000736801
0.000740955
0.000752928
0.00181301
29.5741
43.7279
246.833
0.000718836
0.00106621
6.74472
0.000855106
0.0282322
0.000762781
0.000865967
168.111
0.000982896
0.00466344
181.307
0.00425279
0.000749432
189.124
0.000745356
0.000760496
1.47982
0.000870942
6.52732
0.00123819
0.0239314
0.000743838
0.000753584
300.099
414.486
43.2034
0.0235805
110.334
16.2983
0.00130083
27.7305
311.023
233.033
478.288
0.000700038
27.5552
56.5706
0.261067
28.6936
101.957
0.350373
31.6066
1.03676
28.6005
0.292006
7.41734
0.000757615
218.012
0.000756824
28.8314
32.6182
0.000747857
0.915049
0.00245447
0.0291037
0.000726564
3.86606
0.000893618
0.000741958
40.3239
0.0353846
0.16461
228.845
151.756
0.000819132
0.000967963
30.7687
257.752
0.000689733
0.000753936
0.193707
23.6179
147.488
0.00209349
16.0105
0.000745419
0.000818141
0.000718443
0.0278314
23.2505
0.0040764
273.973
29.6468
256.101
170.4
0.000843066
297.63
67.1572
0.000732736
0.000754062
0.000750338
0.00116045
0.000740208
124.689
0.000745386
0.00075039
348.546
1.21283
0.00267509
0.0345367
58.7972
7.5736
0.00780109
0.000823888
183.673
0.00076269
6.74097
0.000755057
0.00084547
161.424
162.358
0.00334303
0.000835241
3.94343
0.000744247
365.317
0.000753104
148.567
0.0272093
8.26976
0.118413
3.08243
1.96983
29.2483
0.000760943
0.000859887
0.00488966
58.648
0.284096
299.879
0.000747029
0.00124194
0.00164103
254.029
62.42
271.418
0.00225718
0.00349778
0.814675
0.000751296
19.4639
38.2308
0.00875295
270.217
179.937
42.3634
0.00154547
1.4448
168.416
222.603
28.0408
0.0105517
122.201
0.538526
131.602
0.143764
2.28031
41.6114
0.000761952
28.6178
0.00122495
0.00508358
0.00633886
0.0476746
0.000906913
10.914
0.000745961
46.1823
0.131931
0.000867511
1.59687
0.000756578
0.761516
0.226681
40.5755
3.70022
92.8799
0.807827
0.000748377
0.000732398
4.66625
0.15796
43.4268
259.011