/*--------------------------------*- C++ -*----------------------------------*\
| =========                 |                                                 |
| \\      /  F ield         | OpenFOAM: The Open Source CFD Toolbox           |
|  \\    /   O peration     | Version:  2.3.1                                 |
|   \\  /    A nd           | Web:      www.OpenFOAM.org                      |
|    \\/     M anipulation  |                                                 |
\*---------------------------------------------------------------------------*/
FoamFile
{
    version     2.0;
    format      ascii;
    class       volScalarField;
    location    "0.77";
    object      k;
}
// * * * * * * * * * * * * * * * * * * * * * * * * * * * * * * * * * * * * * //

dimensions      [0 2 -2 0 0 0 0];

internalField   nonuniform List<scalar> 
9648
(
2.69131
2.68766
2.68585
2.6808
2.67231
2.65969
2.64334
2.62315
2.59898
2.57075
2.53853
2.50259
2.46338
2.4215
2.37767
2.33266
2.28724
2.24213
2.19796
2.15526
2.11444
2.07582
2.03961
2.00593
1.97484
1.94636
1.92045
1.89704
1.87605
1.85739
1.84096
1.82666
1.81437
1.80402
1.79549
1.78871
1.78358
1.78004
1.77801
1.77742
1.77825
1.78042
1.78392
1.78871
1.79476
1.80207
1.81066
1.82056
1.83178
1.84434
1.8583
1.8737
1.89059
1.90897
1.92884
1.95007
1.97239
1.99531
2.01839
2.04123
2.06348
1.73569
1.72912
1.72136
1.71332
1.70749
1.70625
1.71187
1.72546
1.74703
1.77663
1.81402
1.85857
1.90939
1.96543
2.02566
2.08908
2.15477
2.2219
2.2898
2.3579
2.42574
2.49298
2.55937
2.62473
2.68895
2.75201
2.81392
2.8747
2.93437
2.99301
3.05073
3.10759
3.16364
3.21902
3.27378
3.32796
3.38166
3.43498
3.48792
3.54043
3.59261
3.64455
3.69622
3.74758
3.79875
3.84957
3.90006
3.95033
4.00042
4.0502
4.09954
4.14837
4.19678
4.24437
4.29143
4.33768
4.38333
4.42768
4.47099
4.51329
4.55465
1.44587
1.48761
1.53077
1.57836
1.63314
1.69623
1.76751
1.84706
1.93437
2.02902
2.12986
2.23599
2.34625
2.45946
2.57444
2.6901
2.80549
2.91973
3.03211
3.14208
3.24919
3.35314
3.45371
3.55082
3.6445
3.7348
3.82188
3.90583
3.98683
4.06507
4.14071
4.21398
4.28508
4.35412
4.42126
4.48671
4.55055
4.61296
4.67398
4.73373
4.7923
4.84974
4.90618
4.96165
5.01615
5.06967
5.12217
5.17374
5.22422
5.27366
5.32201
5.36932
5.4158
5.46076
5.50513
5.54791
5.58982
5.6298
5.66906
5.70719
5.74423
1.3799
1.46822
1.56075
1.65928
1.76507
1.8787
2.0002
2.12907
2.2644
2.4052
2.55004
2.69769
2.84671
2.99596
3.14415
3.29019
3.4332
3.5724
3.70721
3.83719
3.96206
4.08154
4.19565
4.30443
4.40808
4.50682
4.6009
4.69061
4.77621
4.85798
4.93629
5.01142
5.08364
5.15325
5.22042
5.2854
5.34839
5.40955
5.46904
5.527
5.58356
5.63886
5.69297
5.74602
5.79803
5.84902
5.89903
5.94808
5.99612
6.04313
6.08924
6.13411
6.17796
6.2206
6.26254
6.30324
6.34274
6.38102
6.41816
6.4542
6.48893
1.42187
1.55034
1.68574
1.82809
1.97754
2.13433
2.29805
2.46775
2.6423
2.82018
2.99982
3.17959
3.35818
3.53432
3.70681
3.87447
4.03648
4.19231
4.34145
4.48374
4.61894
4.74694
4.86786
4.98188
5.0894
5.19085
5.28657
5.37698
5.46239
5.54323
5.61992
5.69283
5.76241
5.82891
5.89259
5.95379
6.01274
6.06957
6.12452
6.17773
6.22937
6.27959
6.32858
6.37643
6.42318
6.46889
6.51358
6.55727
6.60004
6.64169
6.68236
6.72193
6.76028
6.79744
6.83358
6.86879
6.90278
6.93564
6.96728
6.99758
7.02658
1.51254
1.6769
1.85067
2.03242
2.22112
2.41635
2.61725
2.82259
3.03078
3.2399
3.44826
3.65391
3.8557
4.05226
4.2428
4.42595
4.60086
4.76741
4.92505
5.07399
5.21418
5.34539
5.46811
5.58238
5.68901
5.78859
5.88159
5.96862
6.04988
6.12594
6.19737
6.26449
6.32798
6.38819
6.44524
6.49959
6.55165
6.60142
6.64921
6.69516
6.73934
6.78208
6.82357
6.86398
6.90328
6.94158
6.97903
7.01536
7.05085
7.08533
7.11874
7.15104
7.18222
7.2121
7.24093
7.26869
7.29545
7.32114
7.34548
7.36825
7.38982
1.63196
1.82922
2.03836
2.25624
2.48046
2.71019
2.944
3.1804
3.41767
3.65299
3.88507
4.11125
4.33083
4.54233
4.74608
4.93967
5.12255
5.2951
5.45642
5.60745
5.74839
5.87851
5.99908
6.10946
6.2112
6.30523
6.39187
6.47235
6.54624
6.61436
6.67764
6.73596
6.79057
6.84186
6.88957
6.93443
6.97728
7.01756
7.05597
7.09254
7.1271
7.1602
7.19213
7.22316
7.2529
7.28171
7.30974
7.33683
7.36321
7.38856
7.41291
7.43609
7.45819
7.47889
7.49827
7.51683
7.53455
7.55126
7.56641
7.57981
7.59199
1.7684
1.99577
2.23757
2.48858
2.74494
3.005
3.26764
3.5312
3.79336
4.05066
4.30224
4.54414
4.77669
4.99774
5.21043
5.41029
5.59704
5.77208
5.93286
6.08171
6.2198
6.34482
6.46041
6.56315
6.65618
6.74113
6.81793
6.88906
6.95258
7.00987
7.06258
7.10918
7.15215
7.19196
7.22771
7.26054
7.29165
7.3196
7.34625
7.37128
7.3939
7.41488
7.43486
7.45416
7.47198
7.48918
7.50532
7.52074
7.53552
7.54953
7.56245
7.57422
7.5852
7.59438
7.60223
7.60946
7.61549
7.62156
7.62554
7.62716
7.62813
1.91313
2.16536
2.43698
2.71543
3.00197
3.28735
3.57352
3.8623
4.14335
4.42012
4.68628
4.9424
5.18303
5.40911
5.62525
5.82808
6.01564
6.18995
6.35092
6.49423
6.62462
6.742
6.84859
6.94407
7.02516
7.0968
7.1614
7.22043
7.27049
7.31474
7.35459
7.38846
7.41751
7.44267
7.46331
7.48235
7.49743
7.51024
7.52286
7.53301
7.54097
7.54603
7.55251
7.55734
7.5607
7.56497
7.56546
7.56669
7.56576
7.56453
7.56153
7.55808
7.55513
7.55037
7.54443
7.53811
7.5285
7.52324
7.51351
7.50006
7.48781
2.08485
2.10523
2.12474
2.14337
2.16117
2.17828
2.19496
2.21157
2.22797
2.24349
2.25782
2.27161
2.28496
2.2981
2.31133
2.32525
2.34026
2.35666
2.37475
2.39491
2.41678
2.43994
2.46413
2.48896
2.51415
2.53973
2.56585
2.59219
2.6187
2.64545
2.67253
2.69985
2.7274
2.75535
2.78363
2.8122
2.84119
2.87065
2.90055
2.93081
2.96152
2.9928
3.0246
3.05689
3.08979
3.12311
3.15688
3.19123
3.22621
3.26167
3.29768
3.3343
3.37166
3.40951
3.44819
3.48763
3.52814
3.56941
3.61179
3.65543
3.70041
4.59511
4.6335
4.67096
4.70762
4.74321
4.77731
4.80945
4.84031
4.86892
4.89676
4.92286
4.94795
4.97193
4.99488
5.01668
5.0372
5.05656
5.07472
5.09171
5.1075
5.12215
5.13569
5.148
5.15914
5.16913
5.17794
5.18541
5.19132
5.19575
5.19868
5.20012
5.2001
5.19868
5.19582
5.19157
5.186
5.17906
5.17086
5.16137
5.15059
5.1386
5.12543
5.11117
5.09576
5.07919
5.06139
5.04225
5.02182
5.00003
4.97692
4.95242
4.92649
4.89926
4.87028
4.84027
4.80863
4.77599
4.74187
4.70733
4.67225
4.6368
5.77962
5.81389
5.84658
5.87833
5.90903
5.93908
5.96722
5.99399
6.01857
6.04184
6.06348
6.08387
6.10285
6.12076
6.13737
6.1526
6.16649
6.179
6.19013
6.19986
6.20826
6.21531
6.22101
6.22536
6.22835
6.22997
6.23024
6.22911
6.22654
6.22247
6.21693
6.20987
6.20129
6.19125
6.17974
6.16679
6.15238
6.13654
6.11925
6.10057
6.08057
6.05933
6.03691
6.01335
5.9886
5.96261
5.93521
5.90638
5.87605
5.8442
5.81082
5.77565
5.7388
5.70011
5.65978
5.61751
5.57353
5.5281
5.48169
5.43439
5.38634
6.52262
6.55499
6.58606
6.61555
6.64381
6.67086
6.69643
6.72029
6.74252
6.7631
6.78207
6.79946
6.81528
6.8296
6.84233
6.8536
6.86337
6.87161
6.87827
6.88338
6.88698
6.88914
6.88988
6.88922
6.88711
6.88349
6.87837
6.87178
6.86373
6.85419
6.8431
6.83041
6.81612
6.80024
6.78283
6.7639
6.7434
6.7213
6.69759
6.67234
6.64567
6.61768
6.58857
6.55842
6.52727
6.49506
6.46158
6.42677
6.39056
6.35296
6.31382
6.273
6.23048
6.18614
6.13994
6.09166
6.04151
5.98978
5.93696
5.88311
5.82864
7.05425
7.08072
7.10572
7.12912
7.15081
7.1709
7.18941
7.20633
7.22186
7.236
7.24859
7.25968
7.26926
7.27724
7.28368
7.28868
7.29207
7.29386
7.29396
7.29239
7.28927
7.2847
7.2788
7.2716
7.263
7.25294
7.24146
7.22858
7.2144
7.19893
7.18211
7.16374
7.14383
7.12236
7.09947
7.07511
7.04916
7.02159
6.99228
6.96131
6.92883
6.89497
6.86004
6.82427
6.7878
6.75067
6.71248
6.67326
6.63289
6.59151
6.54876
6.50441
6.45856
6.41094
6.36144
6.30959
6.25585
6.20033
6.14374
6.08604
6.0278
7.41003
7.4289
7.44617
7.46196
7.476
7.48832
7.49905
7.508
7.51534
7.52115
7.52558
7.5286
7.53013
7.53008
7.52845
7.52544
7.52097
7.51483
7.50687
7.49702
7.48552
7.4726
7.45844
7.44319
7.42664
7.40866
7.3893
7.36861
7.34693
7.32434
7.30085
7.27602
7.24988
7.2223
7.19361
7.16359
7.13201
7.09888
7.06394
7.02722
6.98885
6.94891
6.90786
6.86617
6.82415
6.78211
6.73922
6.69591
6.65176
6.60737
6.56192
6.5149
6.4668
6.41704
6.36568
6.31155
6.25558
6.19754
6.13889
6.07893
6.01852
7.60293
7.61253
7.62058
7.62702
7.63173
7.63466
7.6358
7.63542
7.6334
7.62954
7.6243
7.61791
7.61009
7.60068
7.58957
7.57734
7.56404
7.54908
7.5321
7.51282
7.49166
7.46914
7.44544
7.42099
7.39547
7.36844
7.33998
7.31001
7.27933
7.24832
7.21743
7.1855
7.1529
7.11907
7.08482
7.04958
7.01255
6.97408
6.93391
6.89198
6.84821
6.8024
6.75524
6.70746
6.65958
6.61274
6.56492
6.51768
6.46986
6.42337
6.37644
6.32757
6.27827
6.22742
6.17568
6.12015
6.06333
6.0038
5.9449
5.88417
5.82342
7.62767
7.62623
7.62311
7.61879
7.61275
7.60527
7.59566
7.58553
7.57393
7.5597
7.5441
7.52799
7.51035
7.49125
7.46967
7.44721
7.42502
7.40151
7.376
7.3471
7.31546
7.28294
7.24908
7.21459
7.17993
7.14367
7.10588
7.06534
7.02376
6.9825
6.94356
6.90381
6.86493
6.82516
6.78664
6.7481
6.70651
6.66275
6.61806
6.57267
6.52498
6.47435
6.42189
6.36838
6.31456
6.26365
6.21051
6.15964
6.10789
6.06058
6.01412
5.96433
5.91498
5.86425
5.81396
5.75779
5.7016
5.64139
5.58437
5.52469
5.46602
7.47259
7.45773
7.4398
7.42256
7.40257
7.38472
7.36276
7.34309
7.3233
7.30089
7.27644
7.25221
7.22572
7.19915
7.167
7.13223
7.10088
7.0707
7.04094
7.00633
6.96316
6.92231
6.87976
6.83453
6.7906
6.7463
6.70291
6.65353
6.59815
6.54392
6.49587
6.44678
6.40117
6.3556
6.31649
6.27951
6.23649
6.18688
6.13789
6.0919
6.04461
5.99166
5.93494
5.87769
5.819
5.76581
5.70643
5.65212
5.59514
5.54962
5.50645
5.45621
5.4086
5.36031
5.31402
5.25777
5.20376
5.14309
5.09013
5.03371
4.98034
3.74674
3.79404
3.84259
3.89238
3.94345
3.99593
4.04972
4.10496
4.16138
4.21896
4.27785
4.33767
4.39844
4.46237
4.54228
4.61397
4.68511
4.75702
4.82972
4.90337
4.97797
5.05357
5.13003
5.2073
5.28519
5.36345
5.44196
5.52056
5.59903
5.67705
5.75452
5.83113
5.90649
5.98037
6.05243
6.12212
6.18896
6.25231
6.308
6.34877
6.37654
6.39199
6.39506
6.38506
6.36094
6.32127
6.26414
6.1872
6.08772
5.96249
5.8077
5.61884
5.39085
5.11708
4.77631
4.22831
3.9748
3.84472
3.7928
3.76794
3.71614
4.60066
4.56416
4.52685
4.48885
4.45015
4.41143
4.37245
4.33395
4.29542
4.25726
4.22023
4.17769
4.1319
4.08875
4.04008
3.99359
3.9469
3.90008
3.85362
3.80778
3.76254
3.71766
3.67302
3.62858
3.58427
3.54011
3.4961
3.45236
3.4089
3.3658
3.32316
3.28111
3.23978
3.19939
3.1602
3.1225
3.08671
3.05341
3.0232
2.99774
2.97442
2.95344
2.93514
2.92011
2.90928
2.90356
2.904
2.91193
2.92881
2.95596
2.99461
3.04592
3.11118
3.19242
3.27996
3.41342
3.58822
3.85847
4.24231
4.7411
5.06724
5.33776
5.28865
5.23872
5.18767
5.13547
5.08262
5.02942
4.97631
4.92289
4.86912
4.8119
4.74677
4.68236
4.6211
4.55995
4.4996
4.43843
4.3765
4.31419
4.25194
4.18977
4.12743
4.06488
4.00212
3.93902
3.87563
3.8119
3.74785
3.68343
3.61864
3.55346
3.48792
3.42206
3.35591
3.28956
3.22311
3.15666
3.09034
3.0243
2.95877
2.89369
2.8287
2.76433
2.70141
2.64027
2.58148
2.5259
2.47476
2.42971
2.3929
2.36713
2.35598
2.36417
2.39713
2.45794
2.55791
2.70114
2.91832
3.25421
3.76057
4.37739
5.77371
5.7187
5.66299
5.60623
5.54801
5.48911
5.42985
5.37088
5.31154
5.25127
5.18409
5.11119
5.04083
4.97378
4.9079
4.84285
4.77735
4.71154
4.64556
4.57973
4.51395
4.44778
4.38136
4.31474
4.24779
4.18056
4.11302
4.04515
3.97685
3.90808
3.83881
3.76908
3.69891
3.62837
3.55751
3.48642
3.41517
3.3438
3.27233
3.20079
3.12914
3.0573
2.98466
2.91111
2.83732
2.7634
2.68959
2.61631
2.54426
2.4745
2.40847
2.34831
2.29693
2.25809
2.2355
2.23538
2.26607
2.34532
2.50267
2.78149
3.20889
5.96907
5.91066
5.85179
5.792
5.73026
5.66779
5.60488
5.54261
5.47986
5.4159
5.34364
5.26789
5.19534
5.1262
5.05822
4.99107
4.92369
4.8568
4.79021
4.72414
4.65819
4.59156
4.52475
4.45785
4.3906
4.32317
4.25542
4.18736
4.11876
4.04964
3.97996
3.90985
3.83936
3.76863
3.6977
3.62672
3.55575
3.48487
3.41407
3.34339
3.27281
3.20236
3.13191
3.06093
2.98918
2.91681
2.84389
2.77048
2.69675
2.62303
2.54971
2.47741
2.40705
2.33984
2.27733
2.22246
2.1813
2.16465
2.18937
2.28073
2.46887
5.95723
5.89704
5.83669
5.77569
5.71179
5.64715
5.58171
5.51765
5.45322
5.38796
5.31379
5.23807
5.16573
5.09726
5.02935
4.96226
4.89483
4.82896
4.76386
4.6998
4.63594
4.57085
4.5059
4.44122
4.3761
4.31095
4.24535
4.17949
4.11285
4.04564
3.97777
3.90962
3.8412
3.7728
3.70441
3.63624
3.56833
3.50082
3.43368
3.36698
3.30073
3.23502
3.16982
3.105
3.04012
2.97468
2.9087
2.84225
2.7754
2.70822
2.64083
2.57328
2.50553
2.43759
2.36926
2.30115
2.23565
2.1781
2.13744
2.12721
2.1663
5.76047
5.6999
5.63955
5.57941
5.51439
5.44888
5.38176
5.31756
5.25321
5.18933
5.11518
5.04153
4.97108
4.90574
4.83976
4.7749
4.70893
4.64606
4.58421
4.52393
4.46388
4.40149
4.34018
4.28002
4.219
4.15815
4.09641
4.03464
3.97151
3.90784
3.84327
3.77891
3.71446
3.65055
3.58678
3.52364
3.46095
3.39908
3.33787
3.2776
3.21812
3.15968
3.10221
3.04567
2.98985
2.93435
2.87843
2.82211
2.76554
2.70888
2.6522
2.59548
2.53855
2.48097
2.42208
2.36127
2.29863
2.23584
2.1767
2.12764
2.09866
5.40214
5.34219
5.28342
5.22676
5.16192
5.09717
5.02916
4.96681
4.90458
4.8449
4.77212
4.70188
4.63429
4.57433
4.51148
4.45089
4.38743
4.32938
4.2722
4.21674
4.16158
4.10219
4.04579
3.99271
3.93733
3.882
3.82483
3.76854
3.70951
3.65022
3.58955
3.53051
3.4714
3.41389
3.35629
3.29995
3.24384
3.18927
3.13569
3.08387
3.03307
2.98397
2.93634
2.88985
2.84443
2.80014
2.75574
2.71092
2.66613
2.62165
2.57778
2.53448
2.49159
2.4486
2.40478
2.35918
2.31103
2.26016
2.20747
2.15527
2.10793
4.91653
4.85694
4.80185
4.75155
4.68851
4.62601
4.55754
4.49977
4.44225
4.38939
4.31911
4.2528
4.18801
4.13553
4.07616
4.0219
3.96137
3.91004
3.85851
3.80735
3.75724
3.70003
3.64968
3.60782
3.55861
3.5077
3.45447
3.40485
3.34894
3.29376
3.2361
3.18435
3.13125
3.08197
3.03102
2.98253
2.93247
2.88609
2.84124
2.79957
2.75887
2.72038
2.68385
2.64848
2.61318
2.5786
2.54446
2.50969
2.47654
2.44398
2.41435
2.38591
2.35928
2.333
2.30682
2.2794
2.25009
2.21797
2.18299
2.14472
2.10474
3.6234
3.51995
3.40765
3.28794
3.16638
3.04623
2.9302
2.82182
2.72415
2.63921
2.56783
2.50997
2.4647
2.43056
2.40577
2.38856
2.3772
2.37042
2.36714
2.36651
2.36791
2.37091
2.3752
2.38063
2.38713
2.39461
2.40299
2.41226
2.42242
2.43339
2.44514
2.45759
2.47067
2.4842
2.49804
2.51202
2.5259
2.53946
2.55247
2.56471
2.57594
2.58595
2.59465
2.60195
2.60788
2.6126
2.61631
2.61932
2.62198
2.62473
2.62793
2.63183
2.6366
2.64237
2.64896
2.65618
2.66363
2.67108
2.67803
2.68388
2.68822
5.0605
4.98775
4.8657
4.69287
4.50074
4.29143
4.06307
3.82276
3.57883
3.33916
3.10986
2.89725
2.70494
2.53408
2.38501
2.25895
2.15533
2.07167
2.00482
1.95215
1.91119
1.87965
1.85565
1.83782
1.82491
1.81653
1.81173
1.81033
1.81193
1.81628
1.82318
1.83238
1.8436
1.85652
1.87079
1.88604
1.9018
1.91759
1.93281
1.94684
1.95893
1.96825
1.97395
1.97513
1.97106
1.9612
1.94529
1.92363
1.89714
1.86739
1.83645
1.80665
1.78036
1.75938
1.74458
1.73621
1.73327
1.73431
1.73687
1.73866
1.73818
4.88133
5.2403
5.43857
5.44835
5.31576
5.11999
4.86242
4.56742
4.2518
3.92732
3.60595
3.29894
3.01367
2.75508
2.52625
2.32855
2.16046
2.01806
1.89876
1.80181
1.72483
1.66494
1.61908
1.58443
1.5587
1.53993
1.52705
1.5189
1.51484
1.51421
1.51656
1.52145
1.52838
1.53682
1.54627
1.55618
1.56604
1.57529
1.58338
1.58965
1.59348
1.59428
1.59144
1.58438
1.57259
1.55567
1.53337
1.50572
1.47317
1.43669
1.39805
1.35987
1.32542
1.29808
1.28067
1.27529
1.28237
1.30109
1.32927
1.36436
1.404
3.74393
4.33407
4.89959
5.33495
5.55682
5.59996
5.47853
5.23069
4.9169
4.5575
4.18021
3.8085
3.45457
3.12946
2.83815
2.58082
2.35471
2.15821
1.99022
1.85016
1.73614
1.64594
1.57638
1.52379
1.48466
1.45614
1.43613
1.42307
1.41567
1.41288
1.41398
1.41832
1.42519
1.43383
1.44351
1.45354
1.46319
1.47177
1.47854
1.48273
1.48361
1.48047
1.4727
1.45974
1.44117
1.41681
1.38664
1.35094
1.3102
1.26533
1.21783
1.17009
1.12557
1.08869
1.06444
1.05761
1.07056
1.10335
1.15387
1.21909
1.29565
2.7737
3.20499
3.74807
4.34354
4.89146
5.31268
5.55538
5.59367
5.46378
5.19373
4.83427
4.44364
4.04181
3.65522
3.29873
2.97526
2.68643
2.4302
2.20811
2.02033
1.86488
1.74017
1.64297
1.56879
1.51302
1.47176
1.44217
1.42212
1.4098
1.40364
1.40267
1.40607
1.41296
1.42237
1.43341
1.4452
1.45689
1.46763
1.47654
1.48272
1.48527
1.48337
1.47626
1.46329
1.44391
1.41786
1.38512
1.34595
1.30076
1.25041
1.19621
1.14037
1.08619
1.03834
1.00334
0.988578
0.999188
1.03806
1.10439
1.19423
1.30188
2.27668
2.48204
2.80162
3.23875
3.76506
4.32457
4.84073
5.23112
5.44725
5.47611
5.33164
5.05794
4.68809
4.28107
3.87978
3.49378
3.14052
2.82093
2.53373
2.28489
2.07697
1.90929
1.77809
1.67732
1.60075
1.54306
1.50065
1.47085
1.45129
1.43977
1.43495
1.43591
1.44161
1.45086
1.46259
1.47578
1.48941
1.50253
1.51413
1.52318
1.52864
1.52963
1.52523
1.51473
1.49735
1.47282
1.44094
1.40198
1.35614
1.3042
1.24728
1.18746
1.1278
1.07275
1.02893
1.00507
1.00887
1.04679
1.12102
1.22814
1.36113
2.10361
2.16037
2.28969
2.51145
2.83706
3.26232
3.75899
4.2726
4.73487
5.08005
5.26226
5.27123
5.12481
4.8557
4.50884
4.1094
3.71396
3.33608
2.97425
2.65073
2.37452
2.14994
1.97412
1.83833
1.73393
1.65382
1.59354
1.54998
1.52004
1.50047
1.4895
1.48594
1.48867
1.49622
1.50731
1.52073
1.53533
1.55001
1.56364
1.57507
1.58315
1.58696
1.58547
1.57793
1.56332
1.54136
1.51173
1.4747
1.43031
1.3793
1.32266
1.26239
1.20139
1.14373
1.09559
1.06586
1.06399
1.09937
1.17771
1.29779
1.45237
2.07251
2.05923
2.08195
2.15753
2.30367
2.53491
2.85712
3.25979
3.7139
4.17015
4.56887
4.85796
5.00837
5.00872
4.87382
4.6269
4.30494
3.93534
3.52178
3.12571
2.767
2.46974
2.23693
2.05579
1.91481
1.80453
1.71962
1.65648
1.61194
1.58092
1.56098
1.55043
1.54808
1.55211
1.56097
1.57324
1.58756
1.60269
1.61734
1.63024
1.64016
1.64619
1.64723
1.64252
1.63077
1.61172
1.58493
1.55067
1.50882
1.46014
1.40555
1.34696
1.28708
1.22977
1.1808
1.14869
1.14382
1.1777
1.25917
1.38999
1.56336
2.06577
2.03243
2.01258
2.01637
2.05695
2.14902
2.30672
2.53946
2.84686
3.21674
3.61477
4.0047
4.34332
4.59527
4.73037
4.73957
4.62486
4.39246
4.07769
3.67969
3.24693
2.87668
2.5825
2.34813
2.15804
2.00571
1.8855
1.79563
1.73113
1.68381
1.6513
1.63044
1.62022
1.61856
1.62331
1.63282
1.6455
1.65983
1.67438
1.68752
1.69845
1.70582
1.70884
1.70652
1.69761
1.68145
1.65804
1.6268
1.58829
1.54259
1.49136
1.43582
1.3788
1.32419
1.27693
1.24512
1.23967
1.27373
1.35786
1.49751
1.68537
0.283398
6.38223
6.07827
0.220547
0.34273
0.126033
0.00316248
2.42792
0.00337817
0.0233
3.33674
1.07489
0.00316419
5.98369
0.110462
5.49028
0.00326081
2.53987
3.63639
0.00315855
0.222103
5.83184
6.18325
0.00329957
0.00333242
0.105725
0.00316073
0.497252
0.00324717
0.00346066
0.694413
0.00324776
0.0162735
2.54604
0.784649
3.41083
2.55122
1.58213
0.00316541
2.58665
1.88096
1.97793
0.00320894
4.76136
3.19254
0.280142
0.00360879
0.015133
0.141185
1.09825
6.44215
7.62675
0.00310782
0.00405587
0.0369752
0.00882934
0.00345129
0.668848
2.42518
7.29299
2.45876
0.00369487
0.151241
0.0317222
6.382
0.430567
1.99503
1.72847
0.00431863
0.00321284
1.20978
2.58788
1.70547
0.0143344
0.0391509
4.05371
6.67329
3.30583
0.00310853
0.933324
0.00709687
2.59904
0.0108111
4.88052
0.0032177
1.07826
0.00336143
2.21743
0.0148305
0.00491165
0.119049
0.00310406
0.00378291
7.4592
5.45027
0.00359482
0.436815
0.295597
0.00603703
6.61127
0.199486
2.50992
0.753768
0.0030999
0.00316504
0.00309714
0.308944
0.124515
0.00324141
6.11472
6.80441
0.0093319
4.54593
1.51504
2.55486
2.74605
1.79691
0.00390575
0.0852043
0.00418158
0.00435744
3.43633
0.00727102
7.37396
7.52459
0.983416
0.00321406
1.02725
1.03153
0.00320973
0.0339937
0.0332575
1.68328
0.0056687
3.07178
0.00321942
0.00316037
7.55217
7.64574
0.00322903
0.162186
5.62253
0.1051
0.301079
1.56696
4.80663
0.0394012
1.65635
0.0120729
6.88643
1.25276
0.00920892
2.84255
4.81766
6.28162
0.00330649
0.00326714
0.215825
0.00311496
1.96648
0.0311742
0.005106
0.0031988
0.00321875
0.00323665
2.85595
1.75986
1.5634
0.00332151
6.63268
4.68386
3.1596
4.90598
0.0139219
3.72535
1.70705
1.90642
0.00323998
0.00567647
2.87403
3.0845
2.01652
3.71419
0.00321463
0.00352266
4.8613
0.0358669
0.564652
0.00323729
0.003605
0.104524
0.00339234
7.55934
0.686109
0.00310358
0.254331
1.77712
5.20763
0.00448856
1.9459
0.00321708
0.00323254
5.03688
2.44323
7.08542
0.00453234
0.00339392
0.00765888
2.77075
2.22388
1.09906
4.85467
1.56779
6.93086
0.187567
4.39192
4.13966
1.89302
1.36019
2.3221
0.00488217
0.0368883
0.00322438
0.00320154
1.83402
0.0181123
0.0200935
0.00570625
0.0130668
2.79879
4.66551
0.0188274
5.75941
1.07845
0.40212
0.0031831
0.158117
2.81207
1.03527
0.00413832
1.22727
1.13667
0.176369
0.277032
7.27802
0.793914
0.474095
5.22009
0.00383894
0.0031615
0.00403189
0.0104759
1.76049
0.00336194
0.0064945
0.0031649
0.388459
4.14554
3.98611
2.75451
1.30341
1.43485
7.52952
0.00433955
2.09491
4.52349
0.00320932
2.03763
0.00321714
4.03091
0.386863
1.59664
0.00533087
0.00321948
1.89688
0.490405
0.0032389
0.00323584
0.00325021
0.00324563
0.358179
1.60351
3.03353
0.0147376
0.00324057
0.00316429
0.00309828
4.81073
0.218544
0.00446507
1.67547
0.0875925
0.0406486
0.00309168
0.264034
0.0032397
0.0508125
1.44283
4.62706
0.314131
0.00391475
0.00596385
3.29362
0.139793
1.91821
7.5042
0.0035013
0.00319722
0.00318707
5.8883
0.00331057
4.83617
0.00322108
1.8851
1.24113
0.0269341
2.96844
3.94668
0.00467367
2.73787
2.69351
1.62366
4.76069
1.07754
7.63805
2.45932
4.02873
3.62173
4.56553
1.69609
0.15744
7.59268
7.31708
3.02016
2.13716
0.00395489
6.79839
2.78743
6.91213
0.0274845
0.00358498
0.00321394
0.00342276
0.174293
0.419982
0.700797
0.0919991
0.0031749
6.03826
0.0032147
1.46497
1.96826
6.43115
2.59326
1.8515
0.00596671
0.00425529
0.087788
2.8469
0.010306
0.736352
5.14591
2.06712
4.21137
6.05886
3.29909
0.00346266
7.34071
5.42449
1.72645
0.00323413
6.26641
5.67508
0.00333203
1.98164
0.00323785
6.62493
5.63905
1.87827
4.24682
2.56489
5.69076
0.00329208
5.69843
0.0038613
3.64613
4.06505
1.91929
7.32007
0.71691
0.212592
0.548568
0.00423985
4.27823
0.148664
0.00813351
0.00509388
4.42567
0.00382892
4.43404
0.00319243
0.00323507
0.00599435
1.83102
0.104474
1.8698
0.00570595
4.30779
0.162848
6.52612
4.34752
2.69002
6.10019
0.00338454
7.33623
2.93095
0.00321097
3.99114
2.09104
0.0031026
0.00316814
3.38457
0.00647331
1.88242
0.0870183
2.40343
0.0267317
0.611115
2.69223
4.9184
2.45154
3.93394
3.7296
0.00395401
0.0217767
1.70028
1.60869
7.52847
6.33435
5.20269
0.0651313
5.13221
5.10513
0.504016
1.6989
2.88729
2.1058
0.00347888
4.19787
7.65649
0.00416
4.42794
1.88451
2.91134
0.0241212
0.0673979
6.12572
0.00597411
7.5201
0.004616
0.251148
0.00320391
0.995294
2.27759
0.229988
0.00479623
0.00370158
2.75264
1.61426
0.0811202
0.40211
5.79437
4.08258
0.00450589
1.44804
1.65752
3.28104
1.5091
4.18151
1.96518
5.47637
3.28011
0.493627
0.972605
7.44521
1.91655
7.5801
6.12183
0.0339588
3.40561
2.88899
0.00337816
1.77403
1.61094
1.36871
0.0173013
4.89953
1.43845
0.699598
1.92045
0.00544886
0.00321489
0.0415329
2.33308
4.45563
2.60639
0.00322107
0.00318956
0.00321517
1.72281
0.0275462
0.00321524
0.123855
4.62088
4.90955
0.0105065
0.0107333
0.00315557
0.00320516
0.00599508
1.77472
1.72727
1.5845
0.455883
7.38274
5.71595
0.00525698
3.26808
1.84812
1.94889
4.08739
7.26173
0.00346192
0.0104599
0.00323784
3.84039
0.243686
0.00316919
1.36558
0.161813
7.42575
0.00323851
7.52617
1.14762
0.0470511
6.55183
0.0032316
0.00319486
0.00404882
7.58934
3.29203
5.3237
4.9075
1.06983
1.77528
0.00312666
0.00602222
0.0881625
0.0133892
0.0251062
1.95787
2.16146
0.00322437
1.267
1.85098
6.19475
7.57894
0.00821801
7.5518
0.00591487
0.0302517
3.60253
0.0032012
5.6901
0.00324069
0.00336653
0.022116
2.13748
0.623305
2.55434
1.88124
0.00366049
1.77579
4.61838
0.0510985
0.218993
0.866028
0.0033146
0.00326693
0.00692574
5.47574
0.524016
0.00335784
7.17945
5.88803
6.70332
0.0313569
2.05131
0.00420841
2.4226
0.159247
0.0909223
2.67223
1.68305
1.88764
6.15898
0.00327907
0.00313292
0.0104713
4.13978
4.53685
0.97051
0.0138371
0.00333452
0.00323876
0.00881892
0.0263025
0.00660072
2.19728
1.7571
0.0115496
1.56857
6.02816
0.00327095
2.39371
0.00321751
0.535385
0.00324483
0.0221426
2.33306
0.0200801
0.00320605
0.762
7.6602
6.95308
0.00318996
0.00326463
0.389402
0.0273017
0.00321634
4.24539
0.0037002
1.68996
7.66391
2.38932
1.66441
2.44371
3.69027
7.5389
0.00322896
0.00742782
0.0148174
4.22425
1.40373
6.35365
0.667793
0.353361
4.31047
3.64357
4.95766
0.711599
2.64529
0.00322232
0.361031
1.692
2.5397
3.94957
1.87672
0.2167
2.55603
0.102687
0.00937731
1.76103
0.00323922
5.73895
0.00366499
0.376291
7.40092
2.7035
0.567007
0.00740792
0.770752
0.00329872
0.00319164
0.106342
0.0224554
1.82653
0.0152794
1.75303
0.00322126
0.0279152
0.00316639
4.57768
0.00509257
4.12023
2.50781
0.0218457
1.9122
7.35523
0.00325786
1.69972
4.40934
0.00335866
7.37588
0.0615617
0.00348414
0.00339526
7.07925
0.00317848
0.00429017
0.0867207
0.101057
6.95578
7.23677
0.00322104
0.00327052
1.09757
2.32857
0.0145622
0.268795
2.02762
0.00321764
0.00383229
0.00372471
6.08771
7.28387
0.498784
7.00359
0.0260225
1.60358
0.00332452
0.0147576
0.0248259
0.036107
0.00322977
6.72472
0.00320087
0.0249969
0.00332233
0.234146
0.0223658
0.0146274
0.443506
0.690037
2.29022
0.400154
1.07723
1.83532
5.06435
0.00343826
4.90621
7.54977
1.14908
4.07459
0.00327864
4.33255
3.87439
0.00321568
7.24533
2.3339
0.00808477
0.0106731
5.95497
5.77485
0.0575604
7.4943
7.17428
0.792858
7.14515
7.09447
5.01305
1.94724
1.59106
1.00897
7.1632
7.32957
0.0218192
7.21877
2.53576
4.35819
0.00343253
0.342499
0.386354
6.85154
5.86803
0.0201937
4.25706
6.48646
0.458952
0.0333267
0.380413
1.8273
0.0053461
1.86327
6.77922
0.033707
6.8093
1.37057
4.50679
6.37393
0.00322207
0.00565306
1.05758
0.711234
0.018163
0.00321827
0.188831
0.252413
0.00450883
0.00323647
4.19895
0.997912
3.09737
1.02832
0.00860959
0.00417208
0.0894029
3.38963
0.00345919
1.89131
1.68443
0.475826
2.28183
0.00396997
0.115553
0.00320207
0.351538
4.39059
0.00435034
0.118023
2.12167
5.63841
0.224037
4.04962
0.598141
0.163695
0.00392579
2.42293
7.54472
0.00321138
0.00328292
5.69436
0.0244728
0.00323561
3.85933
0.253908
1.92283
2.0163
1.45886
0.145107
1.73119
3.50372
5.65722
4.35332
0.00327515
5.52688
0.00389315
2.6309
0.0034013
0.00452165
2.12852
0.00655121
3.87714
0.0206772
0.0396852
1.84585
0.724158
0.0632013
0.00367299
6.22141
0.00364236
0.00315349
7.62585
5.87771
2.84605
1.93348
0.00343406
0.00307236
1.87388
5.67994
0.00319883
6.44636
1.6836
0.00324225
6.06198
0.00311732
0.344726
0.913706
1.35652
0.36064
1.56903
1.97209
0.00311328
7.2069
7.24417
0.0032153
0.0167629
1.93737
0.00313188
7.01064
5.50784
4.3918
0.00321754
0.00317077
3.49537
0.040827
0.00350157
1.86047
1.70168
4.113
0.00315397
0.0033796
0.0242906
0.0193925
0.00321694
0.0064075
5.26668
2.88723
0.00322224
1.35796
0.00321467
0.692279
0.00421266
0.00358505
2.28473
0.00326703
0.1189
0.00317618
2.9495
0.181181
1.73879
6.33011
4.3712
3.69204
0.820671
1.23873
0.00323547
0.930718
7.29942
4.07391
0.106517
0.00346596
5.30281
0.00321462
0.0313797
0.00315624
7.00699
0.757339
0.358003
6.32362
2.23253
0.471706
4.22181
0.715299
6.83748
4.59923
0.00330974
0.00327489
0.00819775
0.00323381
0.0226869
4.2948
0.00377888
6.94736
0.00600938
0.0743382
0.584627
4.75881
0.00487462
2.77585
0.0168963
3.0038
2.45089
6.78918
0.00339937
0.00384369
0.243919
3.71535
1.66771
3.72281
0.4249
1.03874
1.63629
0.0505019
0.979749
0.261795
1.69929
0.00328363
4.33376
0.413394
3.16431
0.003365
3.07254
0.968676
0.00459726
1.61529
1.795
0.0650063
0.00314961
0.00321787
4.86664
2.83554
1.40979
0.00320712
0.0175296
2.013
6.37128
0.465523
0.0125796
0.00322464
5.4568
5.28186
2.09397
2.67845
0.00321305
3.56741
7.28183
0.00321102
0.00321768
1.24989
0.00410223
0.00985943
0.033125
1.945
0.00410711
2.22358
7.56765
0.00320548
0.00346283
0.00316822
0.00330586
3.79805
4.63711
7.58787
0.0289537
2.41614
2.21597
0.0868951
2.9558
0.00348253
1.70432
0.220877
2.08338
0.697551
1.63154
3.14585
0.0281455
0.00323889
5.93959
4.48352
4.58459
0.907315
1.77768
0.176046
1.5976
0.00927302
0.00483104
3.45278
5.56536
0.0217662
0.136661
0.00324494
0.0778325
1.91262
0.0275566
1.04085
0.674769
3.7914
2.15282
0.434575
6.68203
5.52806
2.9609
1.65389
4.20466
3.54373
0.567515
2.67962
0.00610061
2.82643
2.96908
0.00320394
0.00313674
0.119031
0.00322646
0.00333049
3.02419
4.35126
0.0032199
3.24888
0.00321458
0.00319226
0.00321564
0.00326293
0.00593966
1.9401
2.66323
7.09634
0.00316019
0.00390519
0.964855
0.00355373
0.0329182
0.00324572
0.0036112
4.39602
0.00390821
0.0109272
2.78195
0.0104706
0.0032196
3.9462
0.0032141
0.00326628
0.261156
0.00360527
0.923248
0.00457613
0.0298924
0.0032042
0.00325385
7.43253
7.47095
2.72819
0.026646
2.98655
1.58902
0.00473204
1.77355
4.16674
6.96422
4.574
0.0031263
1.88141
2.58066
0.146028
1.75103
4.49295
0.172847
2.0574
0.215501
1.72978
0.0387336
1.01907
0.00323486
6.6241
0.00329311
1.80853
2.50892
0.0032151
0.31219
0.00729717
0.0192558
0.00317657
0.762871
0.00366206
0.00322153
2.52916
0.00946027
0.110013
6.91534
1.90625
0.00345937
0.0038789
2.42954
7.14674
0.00309329
0.00324622
0.0707586
1.36417
5.63158
0.00658169
1.66178
0.00321782
0.00344243
0.00314821
0.0347125
0.968847
0.0101089
6.40692
1.81115
7.14563
6.03892
0.00351828
7.14357
3.78775
0.00317938
0.00322624
0.00321814
0.00439955
0.00320249
3.83277
0.00320798
0.00323915
6.58773
0.325493
0.0077429
0.0216102
2.00919
0.928413
0.00827071
0.00345855
6.3262
0.00324544
0.821317
0.00326212
0.00352266
5.92016
5.69066
0.00869026
0.00351308
0.335369
0.00320639
6.63168
0.00325522
5.51033
0.0248922
0.721254
0.0323778
0.360763
0.369299
1.51025
0.00324271
0.00356512
0.011545
3.21934
0.118345
7.43082
0.00321928
0.00458688
0.00555477
7.12552
2.84139
3.05065
0.00692801
0.00896834
0.212832
0.00322343
1.25908
2.50323
0.0169419
5.84792
6.23409
2.02112
0.00533545
0.386689
2.82022
6.76163
1.81197
0.0187789
3.13537
0.0616827
5.19177
0.0910569
0.519386
2.59467
0.00324365
1.77224
0.0045539
0.0118396
0.00803534
0.0499351
0.0037006
1.28545
0.00322631
3.0625
0.0953413
0.00361309
0.243482
0.00323205
0.282651
0.117053
2.32058
0.461526
4.66839
0.243053
0.00321692
0.00319024
0.704072
0.0910717
2.8971
7.15809
0.00322399
3.83979
2.72759
0.0231525
2.02198
0.600743
2.35747
2.17138
0.0334863
0.00588081
7.00048
1.51487
5.93797
0.00321073
1.65318
0.00321533
1.27149
2.41669
7.57004
1.70198