/*--------------------------------*- C++ -*----------------------------------*\
| =========                 |                                                 |
| \\      /  F ield         | OpenFOAM: The Open Source CFD Toolbox           |
|  \\    /   O peration     | Version:  2.3.1                                 |
|   \\  /    A nd           | Web:      www.OpenFOAM.org                      |
|    \\/     M anipulation  |                                                 |
\*---------------------------------------------------------------------------*/
FoamFile
{
    version     2.0;
    format      ascii;
    class       volScalarField;
    location    "0.77";
    object      nut;
}
// * * * * * * * * * * * * * * * * * * * * * * * * * * * * * * * * * * * * * //

dimensions      [0 2 -1 0 0 0 0];

internalField   nonuniform List<scalar> 
9648
(
0.000271915
0.00027171
0.000271609
0.000271376
0.000270976
0.00027033
0.000269487
0.000268461
0.000267232
0.000265782
0.000264104
0.000262239
0.000260187
0.000257961
0.000255613
0.000253195
0.000250731
0.000248247
0.000245786
0.000243392
0.00024108
0.000238871
0.000236789
0.000234833
0.000233005
0.000231321
0.000229782
0.000228385
0.00022712
0.000225993
0.000224994
0.000224119
0.000223362
0.000222725
0.000222194
0.000221772
0.000221456
0.00022124
0.000221111
0.000221069
0.000221122
0.000221258
0.000221474
0.000221778
0.000222156
0.000222599
0.000223121
0.000223734
0.000224429
0.00022519
0.000226031
0.000226973
0.00022799
0.000229086
0.000230272
0.000231544
0.00023287
0.000234193
0.000235524
0.000236859
0.000238182
0.000456702
0.000459986
0.00046349
0.000467722
0.00047227
0.00047648
0.000481931
0.000489996
0.000500967
0.000514792
0.000531591
0.000551674
0.000575
0.000601433
0.000630799
0.000663002
0.000697797
0.000734831
0.000773782
0.000814465
0.000856521
0.000899685
0.000943758
0.000988458
0.0010335
0.00107875
0.00112411
0.0011694
0.00121446
0.0012592
0.0013036
0.00134752
0.00139087
0.0014337
0.00147592
0.00151744
0.00155832
0.00159858
0.00163813
0.00167682
0.00171471
0.00175188
0.00178822
0.00182366
0.00185829
0.00189188
0.0019244
0.00195604
0.00198688
0.00201675
0.00204565
0.00207359
0.00210077
0.00212671
0.00215206
0.00217662
0.00220102
0.00222425
0.00224696
0.00226942
0.0022918
0.000794639
0.000833018
0.000868868
0.000902444
0.000936729
0.000974113
0.00101399
0.00105768
0.00110491
0.0011565
0.00121187
0.00127162
0.00133563
0.00140377
0.00147581
0.00155138
0.00163015
0.00171155
0.00179508
0.00188032
0.00196675
0.00205403
0.0021417
0.00222941
0.00231685
0.00240381
0.00249014
0.00257556
0.00266002
0.00274338
0.00282554
0.00290648
0.00298622
0.00306462
0.00314167
0.00321746
0.00329188
0.00336506
0.00343692
0.00350746
0.0035767
0.00364455
0.0037112
0.00377658
0.00384062
0.00390334
0.00396465
0.0040248
0.00408355
0.00414106
0.00419731
0.00425238
0.00430685
0.00435924
0.00441184
0.00446232
0.00451256
0.00455981
0.00460722
0.0046538
0.00469971
0.0012766
0.00135095
0.0014218
0.0014904
0.00155905
0.00162974
0.00170315
0.0017802
0.00186117
0.00194689
0.00203715
0.00213233
0.00223212
0.00233652
0.00244499
0.00255709
0.00267229
0.00278996
0.00290953
0.00303043
0.00315218
0.00327423
0.00339619
0.00351771
0.00363852
0.00375835
0.00387705
0.00399445
0.00411045
0.00422489
0.00433787
0.0044493
0.00455915
0.00466752
0.00477429
0.00487956
0.0049833
0.00508559
0.00518642
0.00528582
0.00538379
0.00548039
0.00557556
0.00566945
0.00576194
0.00585306
0.00594283
0.00603131
0.00611831
0.00620387
0.00628845
0.00637099
0.00645224
0.00653164
0.00661082
0.00668789
0.00676295
0.00683605
0.0069076
0.00697754
0.00704491
0.00183023
0.0019324
0.00203201
0.00212974
0.00222734
0.00232703
0.00243022
0.00253767
0.00265017
0.0027682
0.00289169
0.00302059
0.00315469
0.0032937
0.00343695
0.00358369
0.00373322
0.00388497
0.00403823
0.0041925
0.00434715
0.00450171
0.00465569
0.00480877
0.00496074
0.00511144
0.00526062
0.00540818
0.00555401
0.00569804
0.00584026
0.00598069
0.00611942
0.00625638
0.00639157
0.0065251
0.00665697
0.00678712
0.00691562
0.00704249
0.00716778
0.00729145
0.00741361
0.00753422
0.00765325
0.00777068
0.00788641
0.0080005
0.00811313
0.00822364
0.00833266
0.0084398
0.00854448
0.00864693
0.0087476
0.00884662
0.00894276
0.00903658
0.00912812
0.00921677
0.00930248
0.00239382
0.00251482
0.0026376
0.00276124
0.0028865
0.00301506
0.00314843
0.00328759
0.00343286
0.00358447
0.00374216
0.00390545
0.00407413
0.00424758
0.00442527
0.00460627
0.00478945
0.00497446
0.0051604
0.0053468
0.00553318
0.00571882
0.00590343
0.00608653
0.00626808
0.00644794
0.006626
0.00680215
0.00697613
0.00714795
0.00731769
0.00748525
0.00765085
0.00781451
0.0079761
0.00813572
0.00829349
0.00844929
0.00860315
0.00875504
0.00890485
0.00905275
0.00919877
0.00934292
0.00948511
0.0096254
0.00976398
0.00989976
0.0100336
0.0101654
0.0102947
0.0104216
0.0105459
0.0106671
0.0107861
0.0109018
0.0110146
0.0111249
0.0112321
0.0113351
0.0114354
0.00294188
0.00307696
0.00322187
0.00337196
0.00352636
0.00368583
0.00385162
0.00402448
0.00420451
0.00439118
0.00458429
0.00478277
0.00498622
0.005194
0.00540617
0.00562111
0.00583757
0.00605532
0.00627312
0.00649069
0.00670783
0.00692348
0.00713759
0.00734917
0.00755854
0.00776591
0.00797101
0.00817411
0.00837446
0.00857211
0.00876733
0.00895966
0.0091497
0.00933767
0.00952307
0.00970605
0.00988709
0.0100656
0.0102419
0.0104158
0.010587
0.0107554
0.0109215
0.0110853
0.0112464
0.011405
0.0115613
0.0117147
0.0118657
0.0120136
0.0121588
0.0123009
0.0124395
0.012575
0.0127065
0.0128351
0.0129605
0.0130821
0.0131996
0.0133129
0.0134223
0.00346886
0.00361582
0.00378335
0.00396118
0.0041469
0.00433851
0.00453809
0.00474627
0.00496183
0.00518478
0.00541411
0.00564844
0.00588653
0.00612762
0.00637318
0.00662171
0.00687126
0.00712171
0.00737094
0.00761825
0.00786512
0.00810973
0.00835283
0.00859176
0.00882669
0.00905942
0.00928937
0.00951757
0.00974253
0.00996404
0.0101829
0.0103972
0.0106083
0.0108178
0.0110242
0.0112275
0.0114287
0.011627
0.0118228
0.0120163
0.0122061
0.012392
0.0125738
0.0127531
0.0129289
0.0131013
0.0132706
0.0134359
0.0135987
0.0137579
0.0139133
0.0140648
0.0142135
0.0143582
0.014498
0.0146335
0.0147652
0.014894
0.0150179
0.0151359
0.0152489
0.00398058
0.0041354
0.0043255
0.004528
0.00474699
0.00496896
0.00520052
0.00544522
0.00569296
0.00595251
0.00621624
0.00648926
0.00676109
0.00703404
0.00730768
0.00758848
0.00787014
0.00815313
0.00843756
0.00871113
0.00898513
0.00925899
0.00953127
0.00980128
0.0100576
0.0103132
0.0105652
0.0108155
0.011065
0.0113091
0.011553
0.0117889
0.012013
0.0122402
0.0124678
0.0126869
0.0129037
0.0131204
0.0133322
0.0135454
0.0137557
0.0139621
0.0141551
0.0143463
0.0145371
0.0147178
0.0148981
0.015068
0.0152405
0.0154032
0.015567
0.015717
0.0158681
0.0160222
0.0161691
0.0163014
0.0164353
0.016561
0.0166901
0.016812
0.0169208
0.000239412
0.000240542
0.000241645
0.000242722
0.000243752
0.000244709
0.000245632
0.000246561
0.000247482
0.000248345
0.000249127
0.000249894
0.000250634
0.000251345
0.00025206
0.000252826
0.00025365
0.000254532
0.000255498
0.00025658
0.000257747
0.000258977
0.000260263
0.000261573
0.000262887
0.000264218
0.000265576
0.000266941
0.000268301
0.00026967
0.000271047
0.000272427
0.000273809
0.000275208
0.000276609
0.000278021
0.000279451
0.000280901
0.000282355
0.000283816
0.0002853
0.000286803
0.000288321
0.000289865
0.000291424
0.00029298
0.000294549
0.000296153
0.000297781
0.000299404
0.000301041
0.000302718
0.000304405
0.000306098
0.000307826
0.000309594
0.000311393
0.000313176
0.000315003
0.000316909
0.000318901
0.00231424
0.00233439
0.0023541
0.00237373
0.00239294
0.00241095
0.00242686
0.00244181
0.00245421
0.00246654
0.00247723
0.00248719
0.00249601
0.00250371
0.0025102
0.00251522
0.00251887
0.00252099
0.00252168
0.002521
0.00251913
0.00251627
0.00251237
0.00250754
0.00250185
0.00249532
0.00248801
0.00247975
0.00247067
0.00246068
0.00244975
0.00243798
0.00242539
0.00241191
0.00239759
0.0023825
0.00236657
0.0023499
0.00233248
0.00231433
0.00229548
0.00227591
0.0022558
0.00223508
0.00221371
0.00219167
0.0021689
0.0021455
0.00212132
0.00209644
0.00207086
0.00204453
0.00201759
0.00198937
0.00196097
0.00193136
0.00190136
0.00187013
0.00183914
0.00180797
0.00177666
0.00474323
0.00478563
0.00482514
0.0048634
0.0049002
0.00493675
0.00496955
0.00500085
0.00502862
0.00505534
0.00507972
0.00510242
0.00512261
0.00514123
0.00515787
0.00517249
0.00518519
0.00519594
0.00520482
0.00521189
0.00521741
0.00522129
0.00522367
0.00522456
0.00522398
0.00522193
0.00521853
0.00521369
0.00520742
0.00519957
0.0051903
0.00517945
0.00516703
0.00515317
0.00513772
0.00512078
0.0051023
0.00508236
0.00506092
0.00503809
0.00501395
0.0049886
0.0049621
0.00493462
0.00490602
0.00487627
0.00484523
0.0048129
0.00477911
0.00474385
0.00470727
0.00466863
0.00462837
0.00458603
0.00454256
0.00449667
0.00444878
0.00439923
0.00434887
0.0042976
0.00424523
0.00711061
0.00717366
0.00723448
0.00729219
0.00734777
0.00740122
0.00745201
0.00749929
0.00754389
0.00758628
0.00762599
0.00766275
0.00769689
0.00772887
0.007758
0.00778481
0.00780916
0.00783107
0.00785056
0.00786779
0.00788282
0.00789586
0.00790686
0.00791596
0.00792308
0.00792826
0.00793144
0.00793271
0.00793214
0.00792964
0.00792509
0.00791847
0.00790976
0.00789889
0.0078859
0.0078708
0.00785349
0.00783391
0.00781213
0.00778826
0.00776248
0.00773487
0.0077058
0.00767538
0.0076437
0.00761067
0.0075761
0.00753987
0.00750191
0.00746197
0.00742016
0.00737598
0.00732919
0.00727975
0.00722796
0.00717322
0.00711527
0.00705504
0.00699324
0.0069294
0.00686414
0.00938506
0.00946532
0.0095425
0.00961631
0.00968638
0.00975362
0.00981792
0.00987823
0.00993499
0.00998917
0.0100399
0.0100876
0.0101325
0.0101742
0.0102131
0.0102494
0.0102821
0.0103119
0.0103386
0.0103623
0.0103833
0.0104018
0.0104178
0.0104315
0.0104427
0.0104515
0.0104579
0.0104621
0.0104643
0.0104644
0.0104623
0.0104579
0.0104511
0.0104417
0.0104299
0.0104155
0.0103983
0.0103783
0.0103553
0.0103295
0.010301
0.0102701
0.0102372
0.0102028
0.0101669
0.0101299
0.0100913
0.0100505
0.0100082
0.00996429
0.00991808
0.00986926
0.00981754
0.00976248
0.00970436
0.00964189
0.00957597
0.00950707
0.00943573
0.00936158
0.00928596
0.0115319
0.0116251
0.011714
0.0118
0.0118817
0.0119593
0.0120334
0.0121026
0.0121681
0.0122298
0.0122884
0.0123433
0.0123948
0.0124428
0.0124872
0.0125283
0.0125655
0.0125994
0.0126294
0.0126554
0.0126778
0.0126971
0.0127134
0.0127269
0.0127375
0.012745
0.0127495
0.0127514
0.0127511
0.012749
0.0127452
0.012739
0.0127304
0.0127193
0.0127059
0.0126895
0.0126699
0.012647
0.0126206
0.0125907
0.0125574
0.0125207
0.0124812
0.0124397
0.0123967
0.0123528
0.0123073
0.01226
0.0122112
0.0121614
0.0121095
0.0120545
0.0119967
0.0119357
0.0118709
0.0118011
0.0117272
0.0116489
0.0115683
0.0114846
0.0113987
0.0135276
0.0136287
0.0137253
0.0138173
0.013905
0.0139886
0.0140674
0.0141413
0.014211
0.0142763
0.0143375
0.014395
0.014449
0.0144983
0.0145435
0.0145854
0.0146236
0.0146578
0.0146874
0.0147117
0.0147314
0.0147471
0.0147591
0.0147679
0.0147734
0.0147749
0.0147726
0.0147664
0.0147574
0.0147469
0.0147357
0.0147225
0.0147078
0.0146908
0.0146726
0.0146518
0.0146269
0.0145984
0.0145664
0.0145309
0.0144914
0.0144472
0.014399
0.0143482
0.0142955
0.0142426
0.0141869
0.0141302
0.0140719
0.0140143
0.013955
0.0138921
0.0138271
0.013759
0.0136878
0.0136101
0.013528
0.0134403
0.0133509
0.0132577
0.013162
0.0153574
0.0154607
0.0155587
0.0156509
0.0157382
0.0158197
0.0158968
0.0159692
0.0160376
0.0161012
0.0161596
0.0162143
0.0162655
0.0163123
0.0163534
0.0163899
0.0164242
0.0164554
0.0164822
0.0165025
0.0165158
0.0165248
0.0165297
0.01653
0.0165268
0.0165192
0.0165071
0.0164886
0.0164648
0.0164384
0.0164132
0.016386
0.016359
0.0163303
0.0163033
0.0162758
0.016243
0.0162049
0.016164
0.0161213
0.0160752
0.0160242
0.015967
0.0159059
0.0158428
0.01578
0.0157125
0.0156445
0.0155734
0.0155056
0.0154379
0.0153645
0.0152902
0.0152141
0.0151367
0.0150513
0.0149616
0.0148645
0.0147666
0.0146645
0.0145605
0.0170313
0.0171318
0.0172294
0.0173118
0.0173924
0.0174583
0.0175265
0.0175808
0.0176372
0.0176962
0.0177471
0.0177833
0.0178251
0.0178657
0.0178996
0.0179243
0.0179432
0.017962
0.017983
0.0179986
0.0180024
0.0180037
0.0180032
0.0179933
0.0179781
0.0179582
0.0179364
0.0179096
0.0178696
0.0178217
0.0177765
0.0177278
0.0176805
0.0176297
0.0175856
0.0175478
0.0175049
0.0174516
0.0173956
0.0173402
0.0172845
0.0172315
0.0171661
0.0170949
0.017026
0.0169541
0.0168795
0.0167996
0.0167169
0.0166356
0.0165579
0.0164709
0.0163817
0.0162976
0.0162101
0.0161209
0.0160232
0.0159206
0.0158127
0.0157038
0.0155904
0.00032089
0.000322859
0.000324907
0.000327031
0.000329203
0.000331377
0.000333585
0.000335855
0.000338166
0.0003405
0.000342855
0.000345255
0.000347674
0.000350179
0.000353291
0.000356079
0.000358826
0.000361562
0.000364302
0.000367069
0.000369849
0.000372643
0.000375461
0.000378282
0.000381092
0.000383899
0.000386704
0.000389493
0.000392251
0.000394978
0.000397665
0.000400301
0.000402873
0.000405385
0.00040781
0.000410145
0.00041238
0.000414493
0.000416329
0.000417661
0.000418576
0.000419084
0.000419184
0.00041887
0.000418085
0.000416764
0.000414863
0.000412317
0.000409003
0.000404764
0.000399462
0.000392928
0.000384869
0.000374956
0.00036225
0.00034085
0.000330482
0.000324995
0.000322767
0.000321718
0.000319546
0.00174479
0.00171289
0.00168044
0.00164781
0.00161495
0.00158218
0.00154891
0.00151592
0.0014828
0.00145007
0.00141803
0.00138562
0.00135379
0.00132224
0.00128694
0.00125201
0.00121749
0.0011836
0.00115042
0.00111799
0.00108629
0.00105514
0.00102451
0.000994399
0.000964777
0.000935686
0.000907101
0.000879076
0.000851586
0.000824641
0.000798278
0.00077252
0.00074736
0.000722845
0.000699034
0.000675946
0.000653679
0.000632312
0.0006115
0.000588447
0.000564784
0.00054208
0.000520442
0.000500057
0.000481023
0.000463544
0.000447897
0.000434348
0.000423166
0.000414688
0.000409282
0.00040738
0.00040941
0.00041591
0.000425612
0.000448052
0.000482892
0.000538856
0.00062501
0.000749189
0.00087009
0.00419229
0.00413862
0.00408404
0.00402799
0.00397066
0.00391233
0.00385293
0.00379289
0.0037322
0.00367147
0.00360894
0.00354667
0.00348702
0.00342725
0.0033647
0.00329974
0.00323342
0.0031669
0.00310049
0.0030345
0.00296876
0.00290293
0.00283703
0.00277105
0.0027049
0.00263865
0.00257223
0.00250568
0.00243885
0.00237181
0.00230448
0.00223682
0.00216889
0.00210062
0.00203205
0.00196318
0.00189407
0.00182467
0.00175479
0.00168307
0.00160918
0.00152336
0.00142998
0.00133371
0.00123569
0.00113716
0.00103976
0.000945021
0.000854953
0.000771576
0.000696894
0.000632793
0.000580514
0.000541401
0.000515215
0.00050606
0.000516624
0.000552002
0.00062179
0.000740011
0.000903524
0.00679779
0.00673111
0.00666284
0.00659237
0.00651921
0.00644451
0.00636829
0.0062913
0.00621395
0.00613605
0.00605458
0.00597497
0.00589811
0.00582102
0.00574078
0.00565714
0.00557092
0.00548387
0.00539655
0.0053093
0.00522186
0.00513347
0.00504436
0.00495459
0.00486393
0.0047724
0.00467989
0.00458638
0.00449162
0.00439554
0.00429807
0.00419923
0.00409895
0.00399728
0.00389425
0.00378984
0.00368402
0.00357677
0.00346789
0.0033568
0.00324265
0.00312206
0.00298682
0.00283415
0.0026697
0.00249374
0.00230707
0.00211095
0.00190783
0.00170185
0.00149766
0.00130258
0.00112311
0.000966118
0.00083548
0.000736254
0.000671462
0.000641118
0.000647317
0.000697614
0.000800657
0.00920841
0.00913031
0.00905037
0.00896822
0.00888189
0.00879337
0.00870316
0.0086129
0.00852212
0.00843079
0.00833507
0.00824166
0.00815063
0.00805965
0.00796555
0.00786761
0.0077663
0.00766416
0.00756152
0.00745885
0.0073555
0.00725033
0.00714404
0.00703678
0.00692799
0.00681784
0.00670594
0.00659229
0.00647642
0.00635834
0.00623792
0.00611538
0.00599075
0.0058642
0.00573571
0.00560541
0.0054733
0.00533933
0.00520334
0.00506503
0.00492385
0.00477847
0.00462556
0.00445582
0.00426747
0.00406288
0.00384051
0.00359891
0.00333695
0.00305551
0.00275613
0.00244376
0.00212743
0.00181979
0.00153521
0.00128833
0.00109127
0.000946342
0.000850969
0.000804423
0.000810266
0.0113099
0.0112205
0.0111296
0.0110364
0.010938
0.0108366
0.0107328
0.0106298
0.0105268
0.0104236
0.0103155
0.0102095
0.0101056
0.0100026
0.00989617
0.009786
0.00967211
0.00955812
0.00944355
0.00932893
0.00921306
0.00909413
0.0089742
0.00885348
0.00873059
0.00860586
0.00847859
0.00834888
0.0082159
0.00807997
0.00794096
0.00779958
0.00765594
0.00751044
0.00736294
0.00721373
0.00706277
0.00691016
0.00675574
0.00659941
0.00644069
0.00627904
0.00611295
0.00593854
0.00574501
0.00553578
0.00530801
0.00506017
0.00478909
0.00449194
0.00416668
0.00381201
0.00343
0.00302878
0.00262124
0.00222894
0.00187489
0.00157475
0.00133472
0.00115578
0.0010374
0.0130616
0.0129612
0.0128598
0.0127567
0.0126465
0.0125327
0.0124154
0.0123002
0.0121858
0.0120722
0.0119523
0.0118345
0.0117189
0.0116057
0.0114886
0.0113683
0.0112438
0.0111204
0.0109965
0.0108727
0.0107468
0.0106162
0.0104856
0.010355
0.010221
0.0100846
0.00994438
0.00980143
0.00965376
0.00950264
0.00934795
0.00919162
0.00903325
0.00887386
0.00871268
0.00855045
0.00838681
0.0082224
0.00805692
0.00789059
0.00772274
0.00755312
0.00738096
0.0072042
0.0070183
0.00681297
0.00659137
0.00635146
0.00609051
0.00580555
0.00549268
0.00514798
0.00476887
0.00435412
0.00390886
0.00344533
0.00298387
0.00254823
0.00215709
0.00182265
0.0015522
0.0144494
0.0143376
0.0142261
0.0141141
0.0139935
0.0138679
0.0137381
0.0136107
0.013486
0.013363
0.0132325
0.0131039
0.0129785
0.0128571
0.0127316
0.012603
0.0124706
0.0123397
0.0122087
0.0120782
0.0119439
0.0118033
0.0116649
0.0115277
0.0113847
0.0112378
0.0110861
0.0109315
0.0107703
0.0106057
0.0104376
0.0102702
0.0101011
0.00993274
0.00976269
0.00959284
0.00942195
0.00925247
0.00908326
0.00891529
0.0087466
0.00857761
0.0084071
0.00823384
0.00805477
0.00786187
0.00765203
0.00742566
0.00718145
0.00691733
0.00663061
0.00631717
0.00597197
0.00559093
0.00517171
0.00471635
0.00423413
0.00374017
0.00325422
0.00279524
0.0023808
0.0154747
0.0153494
0.0152299
0.015106
0.01498
0.0148418
0.014704
0.0145614
0.0144294
0.0142958
0.0141592
0.0140195
0.0138888
0.0137591
0.0136308
0.0134929
0.0133594
0.0132195
0.0130844
0.012951
0.0128073
0.012661
0.0125174
0.0123729
0.0122226
0.0120634
0.0119027
0.0117352
0.0115623
0.011385
0.0112081
0.0110338
0.0108581
0.0106847
0.010511
0.0103388
0.0101668
0.0100016
0.00983798
0.00967893
0.00951722
0.00935726
0.0091954
0.00903091
0.00886249
0.00868549
0.00849001
0.00827798
0.00805238
0.00781681
0.00756159
0.0072887
0.0069859
0.00665554
0.00628706
0.00588417
0.00543949
0.0049651
0.00446447
0.00395328
0.00345247
0.000315533
0.000310947
0.000305936
0.000300538
0.00029496
0.000289302
0.000283725
0.000278431
0.00027358
0.000269285
0.000265609
0.00026261
0.000260239
0.000258423
0.000257097
0.000256184
0.000255584
0.000255215
0.00025503
0.000254996
0.00025507
0.00025523
0.000255467
0.000255762
0.000256105
0.000256504
0.000256956
0.000257457
0.000257998
0.000258584
0.000259207
0.000259864
0.000260551
0.000261263
0.000261984
0.000262711
0.000263438
0.000264148
0.00026482
0.000265446
0.000266028
0.000266545
0.000266992
0.000267377
0.000267685
0.000267918
0.000268101
0.000268262
0.000268408
0.000268543
0.000268699
0.000268909
0.000269151
0.000269436
0.000269769
0.000270147
0.000270531
0.000270879
0.000271207
0.000271509
0.000271766
0.000935382
0.000990749
0.00103423
0.00106036
0.00107129
0.00107128
0.00105793
0.00103213
0.000996349
0.000952734
0.000903499
0.000851977
0.000800738
0.000751807
0.000705665
0.00066388
0.000627826
0.000597881
0.000573625
0.000554505
0.000539745
0.000528542
0.000520153
0.000513983
0.000509547
0.000506652
0.000504897
0.000504189
0.00050434
0.000505222
0.000506709
0.000508681
0.000510997
0.000513508
0.000516077
0.000518563
0.000520809
0.000522671
0.00052398
0.000524583
0.000524325
0.000523056
0.000520647
0.000516984
0.000512
0.000505691
0.000498144
0.000489568
0.000480281
0.000470751
0.000461542
0.000453261
0.000446461
0.000441537
0.000438737
0.000438018
0.000439155
0.000441711
0.000445216
0.000449106
0.000452993
0.00107462
0.00124649
0.0014151
0.00156498
0.00166463
0.00174253
0.00179588
0.0018197
0.00181797
0.00179384
0.00174831
0.00168582
0.00161035
0.00152551
0.00143358
0.00133917
0.00124825
0.00116556
0.00109259
0.00103157
0.00098277
0.000945302
0.000917549
0.000897656
0.000884028
0.000875278
0.000870608
0.000869067
0.000870105
0.000873137
0.000877729
0.000883377
0.000889575
0.000895824
0.000901611
0.00090648
0.00090997
0.00091166
0.000911129
0.000908011
0.000902006
0.000892927
0.000880653
0.000865218
0.000846706
0.000825386
0.000801619
0.000775927
0.000748963
0.000721682
0.000695358
0.00067153
0.000652042
0.000638604
0.000632749
0.000635265
0.000646249
0.000665126
0.000690826
0.000721925
0.000756841
0.000953211
0.00114924
0.00137716
0.00161481
0.00183097
0.00202613
0.00220555
0.00233426
0.00242313
0.00248194
0.00250739
0.00250229
0.0024712
0.00241589
0.00233812
0.00224114
0.0021291
0.00201321
0.00189967
0.00179485
0.00170335
0.0016284
0.00157053
0.00152838
0.00149966
0.00148219
0.00147414
0.00147391
0.00148001
0.00149116
0.0015063
0.00152435
0.00154409
0.0015643
0.00158382
0.00160151
0.00161627
0.001627
0.00163265
0.00163223
0.00162488
0.00160993
0.00158692
0.00155568
0.00151623
0.00146906
0.00141491
0.00135483
0.00128998
0.00122215
0.00115368
0.00108775
0.00102848
0.000980986
0.000950865
0.000942517
0.000957098
0.000993763
0.00104947
0.00112001
0.00119844
0.000872761
0.000995551
0.00117946
0.00141523
0.00167946
0.00195173
0.00221745
0.00245325
0.00265524
0.00283119
0.00295997
0.00304173
0.00309164
0.00310871
0.00309535
0.00305634
0.0029934
0.00290785
0.00281175
0.00271318
0.00261744
0.00253153
0.0024604
0.00240624
0.00236888
0.00234719
0.00233992
0.00234564
0.00236238
0.00238823
0.00242164
0.00246092
0.0025041
0.00254906
0.00259384
0.00263647
0.00267499
0.00270751
0.00273205
0.00274675
0.00274986
0.00274002
0.00271595
0.00267686
0.00262205
0.00255178
0.00246644
0.00236709
0.00225509
0.00213255
0.00200241
0.0018692
0.00173897
0.00162039
0.00152538
0.00146834
0.00145254
0.00147876
0.00154128
0.00162701
0.0017267
0.000981185
0.000989349
0.00106532
0.00121092
0.00142091
0.0016828
0.00197758
0.00227846
0.00256467
0.00282552
0.00304768
0.0032282
0.00337773
0.00347928
0.00353891
0.00357369
0.00358378
0.00357307
0.00354853
0.00351352
0.00347471
0.00343615
0.00340233
0.00337731
0.0033639
0.00336297
0.00337553
0.00340226
0.00344196
0.00349283
0.00355355
0.0036222
0.00369645
0.00377355
0.00385089
0.00392574
0.00399549
0.00405737
0.00410859
0.00414643
0.00416829
0.00417211
0.00415584
0.00411795
0.00405678
0.00397224
0.00386391
0.00373245
0.0035786
0.00340435
0.0032123
0.00300716
0.00279542
0.00258667
0.00239581
0.00224329
0.00214025
0.00209769
0.0021153
0.00218109
0.00227905
0.00135031
0.00121939
0.00116129
0.00117782
0.00126962
0.00143495
0.00166684
0.00194952
0.00226068
0.00257616
0.00287282
0.00313591
0.00336101
0.00354246
0.00368474
0.00380372
0.00388482
0.00394065
0.00398807
0.00402964
0.00407562
0.00412437
0.00417512
0.004228
0.00428366
0.00434352
0.00440986
0.00448598
0.00457151
0.00466553
0.00476752
0.00487597
0.00498887
0.00510357
0.00521739
0.00532742
0.00543063
0.00552371
0.00560321
0.00566577
0.00570822
0.00572796
0.00572249
0.00568982
0.00562738
0.00553449
0.00541
0.0052541
0.00506703
0.00485014
0.00460545
0.00433704
0.00405024
0.00375304
0.00345832
0.00318569
0.00295998
0.00280558
0.00273696
0.00275054
0.00282655
0.0020245
0.00173699
0.00152489
0.00139227
0.00134052
0.0013696
0.00147793
0.00166052
0.00190716
0.00220044
0.0025167
0.00283169
0.00312702
0.00338824
0.00361073
0.00379788
0.00395107
0.00407798
0.00419665
0.0042923
0.00440467
0.00452771
0.00466117
0.00480355
0.00495459
0.00511065
0.00526917
0.00542765
0.00558827
0.00575091
0.00591508
0.00607912
0.00624172
0.00640147
0.00655631
0.00670406
0.00684192
0.0069664
0.00707358
0.00715967
0.00722193
0.00725669
0.00726172
0.007235
0.00717336
0.00707486
0.0069387
0.00676327
0.00654949
0.00629754
0.00600952
0.00568775
0.00533598
0.00496047
0.00456972
0.00418036
0.00382577
0.00354497
0.00337116
0.00331567
0.00335833
0.00297671
0.00254873
0.00218354
0.00189061
0.0016797
0.001554
0.00151431
0.00155788
0.00168072
0.00187542
0.00212858
0.00242318
0.00273988
0.00305735
0.00335772
0.00363434
0.00387308
0.00407463
0.00424253
0.00438591
0.00455853
0.00472527
0.00490486
0.00510432
0.00532969
0.00557458
0.00583316
0.00609669
0.00635818
0.00661462
0.00686497
0.007105
0.00733156
0.00754791
0.00775085
0.00794132
0.00811737
0.00827546
0.00841129
0.00851997
0.00860288
0.00865082
0.00866638
0.00864532
0.00858685
0.00848439
0.0083418
0.00814896
0.00791466
0.00763271
0.00731096
0.00694516
0.00653837
0.00609876
0.00562742
0.00513799
0.00466885
0.00427341
0.00399765
0.0038723
0.00387622
0.00481341
0.0174216
0.0177064
0.00186487
0.00485382
0.00705188
0.00125025
0.00588722
0.0012897
0.00333885
0.0105614
0.0148737
0.00125001
0.0130261
0.00661748
0.0200792
0.00126346
0.00632854
0.00996385
0.00125381
0.00188602
0.0129476
0.0171606
0.00127737
0.00127953
0.00479419
0.00125354
0.00287667
0.00125995
0.00131418
0.00664565
0.00127971
0.00272452
0.00907775
0.0139864
0.00924738
0.00806163
0.0141188
0.00124674
0.0135722
0.00495482
0.0126703
0.00124679
0.0198527
0.00522995
0.00989406
0.00134982
0.00238655
0.00135171
0.015075
0.0102154
0.0148857
0.00124501
0.00143719
0.00195037
0.000199674
0.00131174
0.0045679
0.00890435
0.0171116
0.00394305
0.00135644
0.00133204
0.00363738
0.0185244
0.00701127
0.00917922
0.00427592
0.00148349
0.00124254
0.0135549
0.014505
0.0047576
0.000479163
0.00271764
0.0185516
0.0177193
0.0174109
0.00124239
0.0143888
0.00193617
0.0128758
0.000825832
0.0192302
0.00124255
0.01203
0.00128552
0.0120193
0.0017836
0.00158756
0.00554141
0.00124187
0.00137877
0.0165089
0.0189106
0.00134058
0.0108927
0.00420488
0.00177737
0.019204
0.00351105
0.0178705
0.00858596
0.00124145
0.00124188
0.00124415
0.0060773
0.00666538
0.00126401
0.0195525
0.0189267
0.00163963
0.00782398
0.00776908
0.00521051
0.0125705
0.0102286
0.00140484
0.00592088
0.00142331
0.00103319
0.00553948
0.00154347
0.0171927
0.0124738
0.00308613
0.00124624
0.0131637
0.0136028
0.00124637
0.0034896
0.00372004
0.00282971
0.00154512
0.0133943
0.0012457
0.0012419
0.0131434
0.0152129
0.00125318
0.00309095
0.0192806
0.0043408
0.00902691
0.00827674
0.0172758
0.00045841
0.00891089
0.00249768
0.0154887
0.0127323
0.000201841
0.014589
0.0191487
0.0190518
0.00128385
0.00126848
0.00818388
0.00125679
0.00833467
0.000763704
0.00162051
0.0012437
0.00124744
0.00124291
0.0178528
0.00402497
0.00652322
0.00129208
0.0138447
0.00653106
0.00221991
0.0129911
0.00253202
0.0077428
0.00597525
0.011538
0.00125952
0.00171038
0.00387401
0.0124699
0.012809
0.017431
0.0012478
0.00132585
0.00879353
0.00392868
0.0115785
0.00124467
0.00135035
0.00569906
0.00129807
0.0156901
0.0104494
0.00125525
0.00856652
0.00318641
0.0173418
0.00151469
0.00639523
0.0012476
0.0012536
0.0208724
0.0161796
0.0150443
0.00152285
0.00129473
0.0018464
0.0164869
0.00572718
0.0109014
0.0175398
0.0154673
0.0188349
0.00400486
0.0198872
0.0187833
0.0122354
0.0155156
0.0123725
0.00148678
0.00418267
0.0012515
0.00127191
0.0106198
0.00295318
0.00310103
0.00147997
0.00245738
0.014726
0.00985168
0.0028779
0.0177076
0.0138381
0.004981
0.00124494
0.00430566
0.0181745
0.0131372
0.00145027
0.0102398
0.00329876
0.00336295
0.00278067
0.0177597
0.00756861
0.00416564
0.0199981
0.00138876
0.00124238
0.00142504
0.00231111
0.00965839
0.00129585
0.00152183
0.00124567
0.00771587
0.020117
0.0186888
0.0138086
0.0126513
0.0161559
0.0158901
0.00148766
0.00812748
0.0185735
0.0012461
0.00441708
0.00124266
0.00440492
0.00765732
0.00434319
0.00165345
0.00124633
0.0158425
0.00286111
0.00124291
0.00125555
0.00125871
0.00126151
0.00978405
0.0065892
0.0182484
0.00179699
0.00124286
0.00124389
0.00124176
0.0197378
0.00369767
0.00150743
0.0132419
0.00594521
0.0015414
0.00124336
0.00799901
0.00124266
0.00211064
0.00401944
0.00705695
0.0027711
0.00140994
0.00173053
0.017064
0.005021
0.00257986
0.0158987
0.00131649
0.00124338
0.00124546
0.0199486
0.00127507
0.0153535
0.00124533
0.0133567
0.0111801
0.0027185
0.00556183
0.00580189
0.00154574
0.0134015
0.0129421
0.00269088
0.022344
0.0108211
0.0152835
0.01407
0.0201999
0.00826859
0.019702
0.00468845
0.00659181
0.0155792
0.0173948
0.0129895
0.0122668
0.0014047
0.0154494
0.00546934
0.0188257
0.00362181
0.00133367
0.00124658
0.00129915
0.00404892
0.0101947
0.00680786
0.00611572
0.00124894
0.0194744
0.00124615
0.00726177
0.0146299
0.0195348
0.0140837
0.0161576
0.00165924
0.00147242
0.00147184
0.0084878
0.00218786
0.00621827
0.00912523
0.0106204
0.0187434
0.0171126
0.0160079
0.0013133
0.0173245
0.0188665
0.00279842
0.00125438
0.0185563
0.019296
0.00127872
0.0115944
0.00125538
0.0101077
0.0164366
0.0112903
0.0196866
0.00510366
0.0197303
0.0012754
0.0198719
0.00139089
0.0173921
0.0180539
0.011686
0.0174553
0.0126969
0.00828262
0.010535
0.0014698
0.00373384
0.00133376
0.00205295
0.00127961
0.00687142
0.00138429
0.0188572
0.00124353
0.00125587
0.00176247
0.00954371
0.00511884
0.0142725
0.00147943
0.0198028
0.00776839
0.0177613
0.00607764
0.0168017
0.00992287
0.00129859
0.0175288
0.0179991
0.0012501
0.0179757
0.0151218
0.00124421
0.00124177
0.00881321
0.00183279
0.0117613
0.0014577
0.00680371
0.00364527
0.00964336
0.0163559
0.01781
0.016238
0.0164997
0.0181065
0.0014044
0.00124855
0.00899546
0.0110436
0.015585
0.0106447
0.0173824
0.00453257
0.0193628
0.0193335
0.00675319
0.00287784
0.0163715
0.0151627
0.0013244
0.0185558
0.0139585
0.00144791
0.0194232
0.0165831
0.0164327
0.00342178
0.00460012
0.0125342
0.0016612
0.01574
0.00153784
0.0031985
0.00125173
0.0113597
0.00280719
0.00858605
0.00156654
0.00136635
0.0090013
0.0087286
0.00161654
0.00262475
0.0102501
0.00275456
0.00131104
0.016088
0.00904593
0.0134178
0.00782714
0.00349639
0.0120295
0.0172653
0.0183781
0.00632795
0.0119337
0.0166869
0.00618368
0.0147917
0.019809
0.000429939
0.0059173
0.0124908
0.00129673
0.00311484
0.0080654
0.0128327
0.00276907
0.0221449
0.00422452
0.0105118
0.00632974
0.00167946
0.00124497
0.000991294
0.0172499
0.0166475