/*--------------------------------*- C++ -*----------------------------------*\
| =========                 |                                                 |
| \\      /  F ield         | OpenFOAM: The Open Source CFD Toolbox           |
|  \\    /   O peration     | Version:  2.3.1                                 |
|   \\  /    A nd           | Web:      www.OpenFOAM.org                      |
|    \\/     M anipulation  |                                                 |
\*---------------------------------------------------------------------------*/
FoamFile
{
    version     2.0;
    format      ascii;
    class       volScalarField;
    location    "0.77";
    object      p;
}
// * * * * * * * * * * * * * * * * * * * * * * * * * * * * * * * * * * * * * //

dimensions      [0 2 -2 0 0 0 0];

internalField   nonuniform List<scalar> 
9648
(
0.0628705
-0.184972
-0.487673
-0.859039
-1.30903
-1.84791
-2.48741
-3.23714
-4.10328
-5.10415
-6.25097
-7.55663
-9.03366
-10.6926
-12.5427
-14.5939
-16.8539
-19.3312
-22.0291
-24.9517
-28.1038
-31.4817
-35.085
-38.9089
-42.9487
-47.1947
-51.6361
-56.264
-61.0605
-66.0167
-71.1118
-76.3306
-81.6574
-87.0675
-92.5497
-98.0758
-103.633
-109.2
-114.753
-120.272
-125.733
-131.129
-136.421
-141.599
-146.654
-151.552
-156.281
-160.826
-165.19
-169.34
-173.242
-176.899
-180.316
-183.46
-186.334
-188.924
-191.216
-193.218
-194.904
-196.29
-197.362
0.651608
0.398163
0.0920727
-0.27524
-0.719173
-1.2417
-1.85526
-2.57412
-3.41131
-4.3753
-5.47712
-6.7285
-8.14044
-9.72322
-11.4865
-13.4391
-15.5886
-17.9418
-20.5032
-23.2768
-26.2653
-29.4679
-32.8831
-36.5066
-40.333
-44.3541
-48.5605
-52.9415
-57.4838
-62.175
-66.9985
-71.9386
-76.9794
-82.1012
-87.2877
-92.5184
-97.7766
-103.043
-108.296
-113.516
-118.684
-123.783
-128.788
-133.684
-138.455
-143.077
-147.537
-151.816
-155.902
-159.791
-163.47
-166.922
-170.137
-173.102
-175.803
-178.238
-180.387
-182.261
-183.837
-185.119
-186.09
0.468361
0.233304
-0.0474293
-0.386414
-0.788902
-1.27447
-1.85037
-2.5283
-3.31872
-4.23482
-5.28704
-6.48723
-7.84597
-9.37303
-11.078
-12.969
-15.0538
-17.3382
-19.8267
-22.5233
-25.4301
-28.5469
-31.8722
-35.4015
-39.1292
-43.0475
-47.1472
-51.418
-55.8474
-60.4224
-65.1276
-69.9472
-74.8653
-79.8642
-84.9263
-90.033
-95.1668
-100.309
-105.44
-110.54
-115.591
-120.574
-125.468
-130.257
-134.924
-139.45
-143.819
-148.015
-152.023
-155.83
-159.427
-162.801
-165.947
-168.842
-171.49
-173.871
-175.992
-177.822
-179.37
-180.634
-181.618
0.707376
0.471014
0.189208
-0.146453
-0.544244
-1.01528
-1.57037
-2.221
-2.97861
-3.8555
-4.86346
-6.01383
-7.31707
-8.78289
-10.4212
-12.2397
-14.2455
-16.4446
-18.8408
-21.4379
-24.2382
-27.2411
-30.4453
-33.846
-37.4374
-41.2118
-45.1602
-49.273
-53.538
-57.9421
-62.4712
-67.1093
-71.8409
-76.6502
-81.5191
-86.4299
-91.3662
-96.3091
-101.241
-106.143
-110.996
-115.783
-120.483
-125.081
-129.56
-133.901
-138.09
-142.111
-145.953
-149.601
-153.045
-156.275
-159.282
-162.051
-164.576
-166.846
-168.856
-170.594
-172.058
-173.244
-174.15
0.77357
0.569515
0.319491
0.0147211
-0.352509
-0.791628
-1.31247
-1.92564
-2.64323
-3.47616
-4.43694
-5.53552
-6.78254
-8.18672
-9.75877
-11.5052
-13.4331
-15.5481
-17.8527
-20.3513
-23.0464
-25.9367
-29.0218
-32.2954
-35.7522
-39.3845
-43.1829
-47.1396
-51.2419
-55.4775
-59.8332
-64.2918
-68.8397
-73.4625
-78.1415
-82.8597
-87.6027
-92.3507
-97.0877
-101.797
-106.46
-111.058
-115.571
-119.986
-124.285
-128.45
-132.469
-136.326
-140.009
-143.506
-146.806
-149.9
-152.781
-155.437
-157.857
-160.031
-161.95
-163.61
-165.011
-166.145
-167.009
0.873574
0.686237
0.456782
0.175496
-0.164571
-0.573877
-1.0617
-1.63854
-2.3171
-3.10708
-4.0221
-5.07031
-6.26304
-7.60627
-9.11371
-10.7894
-12.6401
-14.6717
-16.8842
-19.2835
-21.873
-24.6488
-27.6144
-30.7593
-34.0791
-37.5663
-41.2098
-45.0067
-48.9415
-53.0027
-57.1798
-61.4521
-65.8082
-70.2374
-74.7185
-79.2347
-83.7758
-88.3191
-92.8516
-97.3597
-101.822
-106.221
-110.537
-114.758
-118.866
-122.845
-126.684
-130.363
-133.876
-137.209
-140.356
-143.304
-146.048
-148.581
-150.888
-152.956
-154.775
-156.346
-157.671
-158.742
-159.553
0.977862
0.808477
0.599123
0.339836
0.0253863
-0.355863
-0.812562
-1.3541
-1.99529
-2.74328
-3.61461
-4.61438
-5.75517
-7.03753
-8.48206
-10.0876
-11.8608
-13.8101
-15.9297
-18.2271
-20.7107
-23.3692
-26.2155
-29.231
-32.411
-35.751
-39.2338
-42.8675
-46.6311
-50.5116
-54.5081
-58.5894
-62.7443
-66.9742
-71.254
-75.5594
-79.892
-84.2235
-88.5423
-92.8432
-97.1002
-101.296
-105.405
-109.423
-113.335
-117.12
-120.772
-124.266
-127.601
-130.764
-133.751
-136.544
-139.144
-141.55
-143.741
-145.7
-147.413
-148.885
-150.129
-151.138
-151.896
1.08071
0.930415
0.743703
0.505462
0.217432
-0.136979
-0.564887
-1.06902
-1.67576
-2.3799
-3.21192
-4.1633
-5.26094
-6.47495
-7.85945
-9.39732
-11.089
-12.9631
-14.9892
-17.1744
-19.5612
-22.0903
-24.8256
-27.7136
-30.7446
-33.9451
-37.2504
-40.7199
-44.3155
-48.0002
-51.8273
-55.7161
-59.6451
-63.6754
-67.7687
-71.8345
-75.9586
-80.0759
-84.1619
-88.2619
-92.303
-96.3056
-100.183
-103.989
-107.716
-111.291
-114.764
-118.054
-121.214
-124.184
-127.02
-129.636
-132.075
-134.359
-136.448
-138.28
-139.89
-141.237
-142.401
-143.363
-144.056
1.18846
1.04779
0.899981
0.667001
0.416698
0.0782448
-0.327165
-0.766506
-1.36998
-1.99655
-2.82501
-3.69781
-4.80647
-5.88691
-7.25105
-8.73979
-10.3087
-12.152
-14.0649
-16.1054
-18.4747
-20.7923
-23.4804
-26.2169
-29.077
-32.214
-35.2607
-38.5987
-42.0639
-45.4772
-49.2036
-52.8713
-56.5355
-60.4171
-64.3704
-68.0258
-72.0464
-75.9465
-79.7447
-83.7017
-87.452
-91.3315
-94.8983
-98.5642
-102.157
-105.409
-108.807
-111.785
-114.834
-117.501
-120.25
-122.588
-124.892
-127.133
-129.099
-130.742
-132.344
-133.472
-134.63
-135.546
-136.105
-198.097
-198.512
-198.609
-198.379
-197.843
-196.991
-195.826
-194.347
-192.544
-190.447
-188.03
-185.309
-182.319
-179.065
-175.536
-171.748
-167.706
-163.438
-158.937
-154.216
-149.308
-144.199
-138.915
-133.466
-127.881
-122.165
-116.303
-110.333
-104.26
-98.1175
-91.9058
-85.6452
-79.3572
-73.0419
-66.7276
-60.4163
-54.1312
-47.8844
-41.6839
-35.5466
-29.4841
-23.5196
-17.6505
-11.8972
-6.27361
-0.782114
4.56148
9.74893
14.7651
19.6033
24.2587
28.7204
32.9774
37.0286
40.8634
44.4768
47.8636
51.0187
53.9414
56.6273
59.0762
-186.753
-187.086
-187.149
-186.908
-186.37
-185.541
-184.414
-182.991
-181.263
-179.24
-176.919
-174.313
-171.461
-168.362
-165.006
-161.397
-157.549
-153.474
-149.179
-144.678
-139.986
-135.11
-130.063
-124.857
-119.506
-114.021
-108.436
-102.748
-96.968
-91.1123
-85.1936
-79.2273
-73.2284
-67.2088
-61.1847
-55.1655
-49.1671
-43.2033
-37.2856
-31.4264
-25.6393
-19.94
-14.3356
-8.83979
-3.46479
1.78244
6.89061
11.8491
16.6463
21.2748
25.728
29.9968
34.072
37.9506
41.6232
45.0853
48.33
51.355
54.1573
56.7337
59.0834
-182.307
-182.723
-182.8
-182.572
-182.056
-181.266
-180.155
-178.75
-177.023
-175.005
-172.722
-170.173
-167.345
-164.25
-160.908
-157.33
-153.523
-149.499
-145.267
-140.839
-136.228
-131.441
-126.492
-121.391
-116.15
-110.777
-105.294
-99.7124
-94.0448
-88.3048
-82.5057
-76.6627
-70.7891
-64.8987
-59.0046
-53.1182
-47.2528
-41.4212
-35.6361
-29.9101
-24.2562
-18.6875
-13.214
-7.84753
-2.59848
2.52465
7.51113
12.3507
17.033
21.5509
25.8959
30.061
34.0384
37.8235
41.4083
44.7878
47.9565
50.9108
53.648
56.1647
58.4613
-174.771
-175.118
-175.167
-174.925
-174.386
-173.533
-172.399
-171.041
-169.426
-167.542
-165.375
-162.948
-160.255
-157.308
-154.117
-150.69
-147.038
-143.171
-139.1
-134.838
-130.398
-125.79
-121.022
-116.107
-111.055
-105.878
-100.592
-95.2091
-89.7428
-84.2054
-78.6095
-72.9703
-67.3013
-61.6167
-55.9271
-50.2447
-44.5814
-38.9489
-33.3608
-27.829
-22.3663
-16.9852
-11.6961
-6.50994
-1.43641
3.51674
8.33813
13.0185
17.5467
21.9176
26.1216
30.1517
34.0023
37.6672
41.1412
44.4163
47.4898
50.3555
53.0121
55.4556
57.6873
-167.599
-167.917
-167.958
-167.723
-167.208
-166.414
-165.371
-163.999
-162.383
-160.521
-158.403
-156.035
-153.42
-150.567
-147.481
-144.169
-140.638
-136.9
-132.966
-128.851
-124.564
-120.116
-115.517
-110.774
-105.899
-100.904
-95.8039
-90.612
-85.3397
-79.9993
-74.6008
-69.1616
-63.6941
-58.214
-52.7289
-47.2508
-41.7899
-36.3576
-30.9684
-25.6332
-20.3639
-15.174
-10.0728
-5.07122
-0.178536
4.60071
9.25099
13.7674
18.1356
22.3535
26.4106
30.2996
34.0168
37.5547
40.9113
44.0762
47.0492
49.8196
52.3904
54.755
56.9167
-160.103
-160.388
-160.405
-160.157
-159.641
-158.864
-157.823
-156.52
-154.961
-153.156
-151.108
-148.817
-146.289
-143.536
-140.562
-137.37
-133.967
-130.361
-126.567
-122.602
-118.474
-114.196
-109.772
-105.207
-100.516
-95.7084
-90.7983
-85.8041
-80.7325
-75.5957
-70.3993
-65.1664
-59.9054
-54.6383
-49.3649
-44.0985
-38.8473
-33.6217
-28.4383
-23.3059
-18.2363
-13.2444
-8.33705
-3.52682
1.17776
5.77888
10.2534
14.6022
18.8034
22.8637
26.7684
30.5103
34.0897
37.4939
40.7305
43.78
46.6492
49.3199
51.8031
54.0834
56.1727
-152.4
-152.649
-152.643
-152.379
-151.865
-151.104
-150.086
-148.813
-147.3
-145.556
-143.581
-141.372
-138.933
-136.284
-133.427
-130.359
-127.086
-123.611
-119.959
-116.147
-112.184
-108.083
-103.842
-99.46
-94.9573
-90.3389
-85.6242
-80.8333
-75.9686
-71.0399
-66.0482
-61.0242
-55.9737
-50.9278
-45.8724
-40.8265
-35.7933
-30.78
-25.8082
-20.8864
-16.0221
-11.2329
-6.52484
-1.91211
2.59828
7.0177
11.3125
15.492
19.5212
23.4182
27.1649
30.7549
34.1909
37.4561
40.5704
43.5013
46.2671
48.8341
51.2257
53.4167
55.4316
-144.516
-144.716
-144.689
-144.4
-143.892
-143.146
-142.156
-140.894
-139.414
-137.748
-135.852
-133.72
-131.369
-128.827
-126.102
-123.159
-120.019
-116.67
-113.166
-109.515
-105.715
-101.797
-97.7567
-93.5551
-89.2446
-84.8195
-80.3071
-75.7248
-71.0614
-66.346
-61.5525
-56.7436
-51.9003
-47.0895
-42.256
-37.4508
-32.6561
-27.8458
-23.0868
-18.3948
-13.7302
-9.14412
-4.64854
-0.230825
4.0707
8.31416
12.4212
16.4376
20.2802
24.0117
27.5912
31.0165
34.3143
37.431
40.4325
43.2387
45.908
48.3563
50.6569
52.7468
54.6914
-136.524
-136.647
-136.61
-136.291
-135.793
-135.031
-134.086
-132.761
-131.361
-129.883
-127.993
-125.939
-123.641
-121.192
-118.699
-115.81
-112.797
-109.641
-106.262
-102.787
-99.0671
-95.3142
-91.5739
-87.454
-83.3482
-79.1947
-74.8218
-70.4842
-65.9139
-61.5302
-56.8094
-52.3406
-47.5902
-43.1164
-38.4654
-33.9309
-29.4364
-24.7092
-20.1706
-15.757
-11.2086
-6.87621
-2.63133
1.67266
5.61779
9.82884
13.6093
17.5826
21.0993
24.7412
28.1704
31.3328
34.6111
37.4628
40.4902
43.0428
45.7245
47.9034
50.2411
52.1288
54.1127
61.2894
63.2654
65.0048
66.5083
67.7754
68.8104
69.6172
70.2007
70.5652
70.7172
70.6797
70.4953
70.1553
69.6185
68.9146
68.0482
66.9797
65.722
64.2971
62.7205
61.0037
59.1574
57.1938
55.1238
52.9599
50.7148
48.4019
46.0355
43.6277
41.1944
38.7488
36.3058
33.881
31.4877
29.1429
26.8595
24.6527
22.5366
20.5342
18.6601
16.9403
15.3788
13.9893
12.7918
11.8007
11.0255
10.4757
10.1529
10.0516
10.1536
10.4252
10.8127
11.238
11.5993
11.7702
11.0791
9.57427
8.05726
6.81845
5.89087
5.07232
61.2066
63.1039
64.7754
66.2215
67.4425
68.4401
69.2182
69.7805
70.1313
70.2729
70.2204
70.0328
69.7084
69.1956
68.5107
67.6581
66.6162
65.3941
64.0097
62.4772
60.8079
59.0125
57.1028
55.0913
52.9896
50.8099
48.5645
46.2663
43.928
41.5635
39.1859
36.8094
34.4483
32.1163
29.8286
27.5991
25.4425
23.3703
21.3889
19.5255
17.7886
16.2119
14.806
13.5837
12.5567
11.7355
11.1286
10.7382
10.559
10.5749
10.7553
11.0506
11.3859
11.6618
11.7014
11.0502
9.72687
8.38269
7.32748
6.52385
5.69588
60.5365
62.3922
64.0279
65.4451
66.6433
67.6253
68.3941
68.9541
69.3074
69.4509
69.4096
69.2467
68.9452
68.4551
67.7957
66.9739
65.9753
64.8064
63.4804
62.0101
60.4066
58.6801
56.8426
54.9053
52.8793
50.7768
48.6093
46.3893
44.1291
41.8419
39.5408
37.2394
34.9509
32.6894
30.4684
28.3018
26.2028
24.1834
22.2559
20.4417
18.7581
17.2192
15.8367
14.6215
13.5851
12.7371
12.0843
11.628
11.3625
11.2728
11.3296
11.4871
11.6709
11.7796
11.6383
10.98
9.82257
8.59986
7.5791
6.73786
5.90181
59.7047
61.5106
63.1035
64.4864
65.6573
66.6202
67.3759
67.9301
68.2808
68.4235
68.3986
68.2656
67.9886
67.5278
66.8983
66.1095
65.1542
64.0394
62.7736
61.3686
59.8345
58.1808
56.42
54.5625
52.6183
50.6004
48.5193
46.3874
44.216
42.0185
39.8069
37.5945
35.394
33.2187
31.0815
28.9959
26.9743
25.0292
23.1736
21.4235
19.7936
18.2967
16.943
15.7408
14.7005
13.83
13.1335
12.6099
12.2523
12.0456
11.9614
11.9565
11.9634
11.8896
11.5994
10.9423
9.93582
8.833
7.83775
6.97008
6.14522
58.8702
60.6223
62.1683
63.5138
64.6533
65.5941
66.3327
66.8774
67.2217
67.3645
67.3577
67.2546
67.0002
66.5697
65.9712
65.2173
64.3041
63.2426
62.0358
60.696
59.2322
57.6514
55.9688
54.193
52.3324
50.4019
48.4095
46.3687
44.2885
42.1833
40.0634
37.9426
35.8317
33.7447
31.6926
29.6893
27.746
25.8752
24.0881
22.3986
20.8192
19.3622
18.0369
16.8505
15.8091
14.9185
14.181
13.5934
13.1471
12.8264
12.6044
12.4415
12.2807
12.0482
11.652
11.0072
10.1234
9.13788
8.18699
7.31268
6.48428
58.0576
59.7545
61.25
62.5578
63.6629
64.5811
65.3005
65.8357
66.1727
66.3207
66.3309
66.2554
66.0218
65.6216
65.0537
64.3368
63.4649
62.4566
61.3077
60.033
58.6402
57.1315
55.5279
53.8351
52.058
50.2167
48.3138
46.3657
44.377
42.3656
40.338
38.3097
36.2885
34.29
32.3226
30.4015
28.5358
26.7382
25.0168
23.3857
21.8542
20.4348
19.1348
17.9603
16.9153
16.0018
15.2217
14.5702
14.0377
13.6095
13.2603
12.9561
12.6507
12.2896
11.8126
11.1719
10.3709
9.48087
8.58494
7.72456
6.89588
57.2442
58.8846
60.3267
61.5965
62.6657
63.5626
64.263
64.7887
65.1193
65.2766
65.3029
65.2527
65.0397
64.6691
64.1316
63.4529
62.6224
61.6681
60.5754
59.3665
58.0466
56.6102
55.0869
53.4774
51.7837
50.0337
48.2216
46.3678
44.4712
42.5552
40.6209
38.6861
36.7544
34.8445
32.9609
31.122
29.3336
27.6082
25.9502
24.3752
22.8888
21.5049
20.2283
19.0633
18.0122
17.0751
16.2537
15.541
14.9268
14.4001
13.9373
13.5109
13.0843
12.6193
12.0762
11.4278
10.6733
9.84985
9.00535
8.17027
7.35225
56.4198
58.009
59.3895
60.6267
61.6522
62.5332
63.2109
63.7309
64.0534
64.2286
64.2643
64.2408
64.0452
63.7065
63.1965
62.5587
61.7651
60.8735
59.8282
58.6882
57.4463
56.076
54.6429
53.1167
51.498
49.847
48.1235
46.3698
44.5606
42.7453
40.902
39.065
37.2197
35.4008
33.5957
31.8406
30.1277
28.4768
26.8776
25.3584
23.9104
22.5616
21.3053
20.1517
19.0932
18.1315
17.2746
16.5063
15.8166
15.2046
14.6423
14.1141
13.5863
13.0373
12.437
11.773
11.0393
10.258
9.45015
8.64059
7.83997
55.6233
57.2734
58.4907
59.8041
60.6735
61.6188
62.1654
62.7759
63.0084
63.302
63.2437
63.3274
63.0681
62.8519
62.2912
61.7684
60.908
60.184
59.1349
58.0718
56.9434
55.5314
54.2603
52.8495
51.2169
49.7406
48.0344
46.4499
44.6547
43.0009
41.1848
39.4987
37.6913
36.0131
34.2305
32.5985
30.9171
29.3786
27.7986
26.3705
24.9185
23.632
22.3741
21.2424
20.1792
19.1761
18.3003
17.4806
16.7142
16.0468
15.3871
14.7877
14.1644
13.5564
12.8959
12.2218
11.4846
10.7391
9.94697
9.14966
8.36982
4.27219
3.54688
2.86517
2.17591
1.48783
0.840229
0.244716
-0.28941
-0.74062
-1.10192
-1.36978
-1.54959
-1.64381
-1.64711
-1.58827
-1.49141
-1.3711
-1.2464
-1.1323
-1.0363
-0.961411
-0.902619
-0.856957
-0.819443
-0.783876
-0.748946
-0.711365
-0.664395
-0.605516
-0.533879
-0.447249
-0.345332
-0.228283
-0.0954979
0.0499465
0.206739
0.370636
0.53867
0.706896
0.869451
1.02208
1.16002
1.28107
1.38064
1.45552
1.50578
1.5303
1.53024
1.50623
1.46127
1.39914
1.32299
1.23545
1.14191
1.04327
0.942034
0.837073
0.726178
0.605378
0.467935
0.296825
4.86004
4.17337
3.55183
2.90847
2.25028
1.63427
1.06837
0.555545
0.122758
-0.21984
-0.467945
-0.618317
-0.671944
-0.643751
-0.56529
-0.459288
-0.337665
-0.216435
-0.108428
-0.0202706
0.0472015
0.0971483
0.133686
0.159674
0.186719
0.206366
0.231887
0.264966
0.30852
0.364789
0.434918
0.519872
0.620243
0.735675
0.864565
1.00474
1.15309
1.30544
1.45815
1.60744
1.74858
1.87651
1.98775
2.07892
2.1471
2.191
2.21007
2.20441
2.17499
2.12406
2.05454
1.96968
1.87225
1.7679
1.65732
1.54441
1.42749
1.30765
1.17906
1.0342
0.860968
5.10168
4.42021
3.78439
3.09149
2.38315
1.74935
1.1622
0.612664
0.142968
-0.237978
-0.529613
-0.73011
-0.842516
-0.883019
-0.852798
-0.774305
-0.653584
-0.517597
-0.397436
-0.300375
-0.226633
-0.172343
-0.132038
-0.0991697
-0.0731457
-0.0419546
-0.0099604
0.0303169
0.0815044
0.144557
0.220734
0.311072
0.415916
0.534628
0.665591
0.806541
0.954542
1.10605
1.25703
1.40313
1.54002
1.66351
1.76983
1.85566
1.9184
1.95683
1.97056
1.96045
1.92803
1.87596
1.80732
1.72601
1.63554
1.53921
1.43936
1.33784
1.23336
1.12276
1.00009
0.854863
0.675232
5.36825
4.67468
4.00871
3.29895
2.59179
1.95933
1.35436
0.780447
0.307955
-0.0659386
-0.356631
-0.551392
-0.647913
-0.661225
-0.596779
-0.470481
-0.327037
-0.213399
-0.103839
-0.00714624
0.0697195
0.127005
0.168375
0.198606
0.220756
0.239639
0.261165
0.287819
0.32354
0.369995
0.428776
0.501605
0.589171
0.690951
0.805544
0.93094
1.06424
1.20225
1.34107
1.4768
1.60519
1.72247
1.82493
1.9096
1.97392
2.01673
2.03744
2.03676
2.01577
1.9769
1.92214
1.85475
1.77707
1.69173
1.59922
1.50133
1.3998
1.29464
1.1808
1.04862
0.896971
5.70296
4.97958
4.28154
3.56321
2.8536
2.19464
1.56284
0.983851
0.510741
0.121656
-0.195384
-0.404687
-0.510445
-0.541242
-0.501559
-0.411718
-0.303772
-0.178103
-0.0679742
0.0261735
0.0967623
0.149366
0.188468
0.21932
0.243727
0.265734
0.289891
0.319269
0.356181
0.401579
0.45786
0.526604
0.608665
0.703331
0.809826
0.925928
1.04949
1.1773
1.306
1.43196
1.55132
1.66074
1.7565
1.83614
1.89684
1.93771
1.95762
1.95752
1.93769
1.9006
1.84806
1.78349
1.71001
1.63007
1.54543
1.46232
1.37773
1.28643
1.18505
1.0728
0.938259
6.10095
5.34421
4.61389
3.88493
3.1686
2.48765
1.84012
1.24851
0.746284
0.326315
-0.00388918
-0.217608
-0.34323
-0.397057
-0.364858
-0.272761
-0.15839
-0.0404212
0.0666557
0.146912
0.204543
0.247107
0.278566
0.30387
0.322486
0.339784
0.357537
0.381011
0.41066
0.447584
0.494462
0.553548
0.625198
0.708986
0.80384
0.908291
1.01948
1.13517
1.25177
1.3666
1.47556
1.57634
1.66477
1.73949
1.79709
1.83762
1.85926
1.86393
1.85109
1.82371
1.78309
1.73286
1.67593
1.61575
1.55547
1.48716
1.41581
1.33924
1.25202
1.14971
1.02533
6.55427
5.77933
5.02433
4.28234
3.55722
2.86504
2.21025
1.61055
1.08329
0.636754
0.283806
0.0380708
-0.120395
-0.185578
-0.155323
-0.0760277
0.0275829
0.134877
0.22919
0.298429
0.336075
0.363474
0.380795
0.397662
0.407304
0.417852
0.426987
0.443108
0.465297
0.491651
0.528892
0.577163
0.638442
0.710763
0.79449
0.886487
0.985892
1.08908
1.19388
1.29761
1.39655
1.4888
1.5701
1.64014
1.69446
1.73462
1.75777
1.76703
1.76061
1.74254
1.71279
1.67563
1.63242
1.58506
1.53523
1.48587
1.43243
1.37381
1.30462
1.21986
1.11229
7.04948
6.27309
5.50989
4.76576
4.03633
3.34603
2.6939
2.10186
1.56826
1.11015
0.738807
0.465509
0.264576
0.172304
0.167356
0.211909
0.303152
0.378274
0.441993
0.491664
0.499814
0.501517
0.496259
0.503672
0.499479
0.502318
0.497861
0.507158
0.52203
0.534643
0.560439
0.598964
0.651975
0.713762
0.786469
0.868215
0.955892
1.04833
1.14261
1.2379
1.3275
1.4132
1.48745
1.55437
1.60463
1.64485
1.66815
1.68167
1.67948
1.66882
1.64617
1.6187
1.58729
1.55149
1.51531
1.47919
1.44104
1.39988
1.34879
1.28403
1.19498
7.57842
6.82157
6.055
5.31515
4.58811
3.91837
3.28271
2.73537
2.211
1.77064
1.41552
1.15949
0.884645
0.760945
0.725755
0.701696
0.754525
0.677578
0.678384
0.752527
0.689725
0.665469
0.612613
0.641224
0.598329
0.608038
0.563356
0.572941
0.592764
0.580637
0.58233
0.619955
0.67183
0.718459
0.783395
0.855277
0.93143
1.01709
1.10292
1.199
1.27361
1.36419
1.42132
1.49771
1.53274
1.58277
1.59136
1.6234
1.61167
1.61594
1.58762
1.56248
1.54324
1.51798
1.49553
1.47132
1.44538
1.42392
1.38666
1.34951
1.27213
4.82856
-4.24526
-5.56942
14.7848
5.70043
19.394
17.9346
10.7865
11.4847
29.0308
1.5267
23.7492
18.0444
2.97257
21.6884
-102.364
20.4968
12.1204
1.33207
17.3805
15.0154
3.33654
1.10213
20.0665
11.3899
17.0477
17.4445
9.42077
20.2465
6.79165
10.3642
16.6076
28.366
1.76295
23.0334
0.753985
0.670812
57.2792
18.5863
17.4461
7.66396
-2.854
17.9709
-88.3626
0.555987
31.6221
11.5254
2.96465
16.124
25.3872
-3.42134
-46.0149
17.0189
9.45675
13.8913
16.1477
6.89937
7.36398
0.840663
-31.4545
3.75704
15.4544
17.0508
-8.22762
-25.8517
14.8059
0.723074
8.71191
18.7979
18.029
15.3203
59.4528
6.50637
13.3519
13.2773
6.26747
-12.5197
44.3814
17.0685
28.1324
-0.806658
16.4269
16.6551
-36.6967
17.92
50.1817
11.9557
1.7965
15.2801
1.54017
-13.9304
17.0573
5.07861
-31.9193
-37.2284
5.57947
44.1867
9.89291
25.4081
-101.785
14.4349
16.0748
24.9605
16.9425
18.0366
16.9136
15.0682
39.6478
19.6945
-78.2459
-109.392
15.8764
0.743892
1.50487
5.83718
2.18165
1.01958
19.4544
-7.70697
11.2423
12.8348
0.322735
11.2241
-118.152
-26.7669
10.5817
15.254
-47.2169
-34.9747
17.776
21.1966
-8.06159
5.93484
10.9116
2.61589
10.7207
17.9412
-53.443
-30.9918
11.613
9.50527
-53.1262
14.7686
48.9686
1.55303
12.416
16.5703
1.54008
31.7303
-0.47149
16.147
16.1727
59.0031
-33.6215
-59.4936
8.81002
8.22336
-27.9511
16.5228
0.627894
16.5943
26.3297
17.3161
12.4623
14.8624
13.1025
6.89255
9.62287
17.0557
0.519772
-1.66473
1.50901
5.7252
17.3385
1.60515
1.56925
1.16689
8.80562
22.3712
2.18053
1.80319
-1.2981
-31.1633
9.67214
6.40321
1.03711
-10.5568
52.0814
9.77748
11.8236
25.3734
20.1666
-16.9543
-39.3207
16.5309
-31.7635
4.1841
0.475081
21.2445
0.683927
9.80035
14.9336
13.264
-58.9349
-1.5359
20.7755
8.43373
16.0275
-45.6643
0.786297
41.1424
-5.70539
16.2755
-117.621
10.9507
-77.7398
-65.534
1.71395
33.3347
1.86096
11.3113
40.0723
11.9436
16.6446
1.02258
-7.77205
-9.32929
11.6637
16.9277
59.63
1.6272
21.3579
-5.13587
-37.7261
13.5489
19.2146
3.08775
-57.3059
-46.7513
19.2288
13.2569
8.70581
10.8535
15.883
-123.849
16.5936
8.24457
-98.7299
23.8592
17.1859
8.79078
23.6767
1.34745
8.3825
11.2801
18.5868
25.2624
15.1038
6.57005
1.92224
15.5989
9.50401
-64.9724
18.4847
0.598091
12.7447
17.4697
1.28833
17.4931
0.981912
23.9551
1.40351
22.756
11.3462
52.8348
9.90188
14.2376
10.7151
15.9238
20.6476
50.2489
9.66278
-72.0583
15.2476
14.8293
18.5563
16.9729
-61.8213
7.89555
7.87492
-26.178
40.474
14.3766
16.907
35.0291
17.3392
9.45713
4.80555
-0.577853
16.2883
10.8896
5.41454
48.4996
-3.83332
5.99045
-79.2012
21.7609
18.5736
19.3245
-100.695
9.71815
11.8646
11.4327
-12.5217
16.3837
14.1362
0.987227
1.36398
6.99443
1.87559
16.3737
3.49784
15.1715
14.9242
-26.8837
1.90533
15.3806
0.921535
-90.6624
6.38027
-27.2779
-44.6903
-101.615
2.07219
1.61839
16.7915
0.88689
1.06717
-124.241
35.0369
14.982
14.7305
11.9491
11.463
49.7033
11.1814
-9.38765
18.7064
-71.012
14.9074
1.52326
-45.5432
-113.995
10.5936
-61.9567
8.60559
2.67741
14.4164
1.91396
2.35275
10.125
0.705463
0.947204
-6.72043
1.10556
15.9866
6.72535
-114.215
-34.0836
3.80109
16.5348
-26.251
-49.8496
12.6078
1.7071
15.6714
-5.62979
7.29293
1.58683
-73.9336
1.07913
-80.0546
20.1929
-89.4797
11.2032
4.79352
20.8875
1.23328
-117.693
-27.6947
47.3524
50.1158
3.20503
0.789349
17.1577
30.2011
16.6852
-0.133121
12.0074
-10.2647
17.2123
18.7488
21.8968
21.3337
-7.71874
-46.8503
11.9857
-83.0857
0.284286
-11.1757
1.97324
-62.0875
-1.72462
18.7052
-124.454
9.66368
9.34823
23.2239
-53.0319
16.9947
18.1321
1.43451
17.6719
9.8956
14.3025
1.41255
35.8541
-26.1974
-51.7711
9.50781
-61.2126
9.08259
-54.5159
16.7754
15.6241
0.907324
3.96282
-93.7581
-1.49528
1.7129
-10.8935
-62.286
-59.886
18.253
6.34496
-41.5987
-50.1914
17.0025
2.52181
-32.1596
22.7878
12.9486
36.45
-40.021
-0.329883
-9.70692
0.815459
9.02919
-90.4077
2.26586
10.3982
19.8017
46.9566
4.43201
44.0384
2.01711
17.3571
1.9096
1.57726
13.6731
12.3406
0.475776
1.30161
16.74
2.41061
1.54359
2.73019
1.55794
2.0474
1.38711
8.17354
4.81066
15.7378
15.6133
-111.272
9.97661
-68.2017
-107.167
16.1285
0.739499
2.42568
19.0445
3.86847
1.52538
16.2491
16.9547
15.0027
5.18516
-37.635
10.4393
26.4943
13.5834
13.8917
15.481
5.50778
0.701986
13.4429
19.1604
9.53351
1.48943
13.8255
13.5244
-12.7718
12.5328
-0.0729265
-3.4392
-4.31018
17.1089
19.9333
9.35954
22.3765
3.36633
2.77434
48.6631
-22.0435
-5.28388
21.8722
8.21105
1.21818
1.47741
-80.3458
-27.4618
20.8915
3.11769
10.3185
0.815238
-21.1608
18.6113
12.0933
-27.4063
-82.8539
12.658
-17.777
-54.237
4.55727
-105.69
9.27943
9.41794
9.05616
-32.3643
13.9092
-81.1073
-2.16979
12.9565
0.925782
17.2057
-0.358961
14.8901
12.7455
31.724
2.85416
0.867231
14.8007
7.02661
0.687809
-46.8392
-30.7352
8.04613
-34.3024
4.71194
28.6486
1.82051
9.3801
-95.743
9.88943
8.49551
14.3623
1.53023
52.1239
1.655
8.09358
8.49153
1.3833
1.16781
13.555
15.5878
15.9102
9.49856
10.1988
29.2031
-76.347
8.07537
17.767
-32.146
0.927368
-87.3991
13.5977
0.693194
17.6307
-55.3177
4.23103
-21.1061
0.864306
0.787325
2.81066
-106.274
20.4886
17.2635
6.51256
15.9727
-27.0013
-22.4211
-6.45724
9.98061
9.04688
4.94996
16.238
-0.29228
0.66487
16.1549
23.1807
1.53647
-58.5844
20.8697
1.61179
20.4607
-8.34569
17.1867
36.3039
6.6807
29.4971
18.4408
-30.1653
-21.5194
-4.46332
19.0039
10.5485
-32.5276
16.0415
12.4795
4.6114
5.55838
0.712778
-31.0115
40.5084
4.55067
2.03685
0.956967
-89.9503
9.52525
23.3037
15.6437
1.0931
5.00292
-23.039
14.3905
12.3488
6.06108
1.52815
-6.95434
15.1661
2.12916
10.9227
-21.1127
1.55936
39.0507
0.899086
0.138834
8.27056
57.1771
16.9918
16.6612
1.47085
10.1892
7.12775
8.80904
9.93717
-116.217
2.8051
-34.9888
30.5096
17.4749
8.45315
19.2762
-6.27998
-10.949
1.53343
3.8924
1.45671
12.8486
-2.62634
18.5071
-88.7576
16.7089
6.66823
2.06645
-3.53098
2.8451
-6.91091
10.5926
3.2838
1.03748
19.178
-121.177
15.3408
17.0347
10.7552
-4.1013
18.8401
3.80313
-21.4191
15.5246
-13.9675
-97.8577
17.4283
8.86258
14.5002
-63.3259
-6.54553
15.7382
42.8039
12.5468
9.04631
11.5375
-111.246
-126.394
16.4788
-1.12006
-11.9938
1.56875
17.7336
6.89774
-11.4956
13.7116
15.3011
0.326893
18.4745
19.575
8.4968
14.8012
-3.08778
13.3011
-5.58778
23.0793
1.75565
-4.46002
42.5827
1.12521
6.66022
21.8602
4.38885
-45.482
24.409
-83.8913
20.8289
1.34343
-19.6774
10.1071
-9.72
0.730708
12.8489
13.089
-93.6879
-40.1155
13.4436
-65.4222
-8.96273
53.6265
-16.181
-20.2401
21.3898
0.689448
5.91763
11.8765
-55.8154
-22.9938
-4.76879
-4.06155
-6.58075
0.949075
22.5666
19.0347
13.2885
-121.809
-44.6347
27.4783
2.30994
-112.274
11.1626
14.3864
10.1462
1.11544
4.74971
1.17999
-15.0258
21.3444
-121.405
-17.2837
-86
-98.7167
18.7825
25.2999
-43.721
26.11
14.4956
12.2214
10.9737
10.2934
26.0164
17.8682
2.29173
-51.7073
-30.3554
24.5002
2.19466
3.47653
13.7475
1.36516
12.8688
-53.6494
1.4383
49.1939
6.11645
22.2332
11.5053
18.537
15.6542
-76.9195
13.1129
44.6959
0.884267
1.01728
32.2603
61.0438
12.583
13.177
25.0149
-50.76
-15.6049
17.2234
10.0052
-91.7803
27.4369
17.3474
-63.3019
15.6828
3.60072
1.38453
6.13532
-16.3725
53.7547
0.674253
-8.54915
-0.125141
17.7577
0.623466
9.50332
14.7706
17.2325
12.1904
0.892134
17.2455
0.596042
30.1694
0.0989845
11.2924
10.2361
16.6151
8.40446
-50.1288
9.73847
18.0727
-29.6917
-71.0709
34.0583
1.60984
7.47426
16.6978
34.3624
-84.9102
9.46274
-2.81217
11.0642
16.2748
-88.3834
17.1562
9.70201
49.9231
29.8918
-19.605
4.24262
15.7893
17.0968
-67.0235
-4.25557
10.1126
14.8368
1.23738
17.4597
-127.978
7.42622
0.871672
10.5196
18.6981
0.191127
14.6737
22.9482
24.779
4.5088
-0.486743
17.7024
20.6236
17.4465
20.2843
10.7614
18.1115
-70.5696
2.46511
18.0506
-25.7214
14.0585
7.13635
19.5813
11.6064
-62.2822
10.751
5.02387
18.8193
-20.813
16.6762
-24.7885
-104.292
1.7515
1.48499
-47.7912
16.1522
18.3574
-21.4628
-104.991
1.21002
-14.2837
15.8523
-82.8894
13.3463
16.5493
18.1891
-18.5023
6.96072
9.47732
-28.8846
17.3296
8.50843
-85.0842
10.3553
-119.467
47.0784
11.6289
18.1781
6.32905
16.7531
-9.23519
-6.24144
20.0541
-18.4572
5.70573
12.7956
-38.2485
4.82398
17.5015
-49.4312
14.8309
1.88804
-67.5711
-14.0306
17.155
19.2652
14.6959
62.0633
8.62405
-2.37645
-23.936
15.582
-11.7776
15.3654
5.31038
15.4621
0.749876
9.84176
0.665301
-13.9993
58.8461
7.30975
59.2101
6.4032
12.7703
3.9741
20.1055
-9.49325
17.7655
11.0914
1.78012
59.7057
16.7955
9.10847
-8.57846
0.578103
-109.045
15.81
-5.71634
10.5119
-21.9092
-62.1018
0.962997
-73.6304
9.51591
3.0137
-25.8519
18.2956
15.7088
14.0514
12.2956
21.3883
16.1552
12.6885
17.5844
1.17843
-68.6628
17.5692
20.2008
17.6242
7.92578
-73.1673
1.28804
-24.6063
15.6997
-43.5485
0.824654
24.9692
-67.527
16.9812
0.701896
40.0902
1.45667
22.7277
4.03565
1.95539
15.9377
10.4444
-107.576
13.6466
-1.02263
-39.2676
1.5581
15.7939
10.9179
30.888
2.73527
1.54412
-79.4475
15.8461
16.432
16.959
-20.1363
-35.9903
13.9396
12.669
15.0759
1.30221
1.74505
49.2591
0.739441
-65.793
2.10557
-59.1583
0.840232
0.745389
32.2461
50.9378
12.9736
59.9911
45.4326
18.3015
17.5508
6.22021
14.4683
18.5077
2.23332
1.93025
19.6389
1.6448
10.2414
19.1306
8.99751
18.4651
28.7432
1.60948
-5.50765
-121.116
17.8041
12.0605
-50.7538
7.65459
22.3873
13.9977
10.9212
2.4988
17.324
-2.29377
1.94188
30.3522
12.7738
1.08536
16.7261
17.4001
15.5715
5.71954
15.4871
16.9538
-3.64492
18.4697
20.575
-76.8851
-28.9703
-18.6074
14.6603
1.75568
-50.8129
17.0219
1.58308
1.1461
-126.232
0.705895
16.6902
8.61703
31.3078
-1.12805
1.21171
9.15493
46.3453
1.696
16.0861
1.05976
16.5806
53.8575
14.1648
-21.076
16.7643
0.920367
-69.6819
15.6504
42.3476
4.09814
13.0016
18.7028
29.5187
10.9396
19.6791
1.99983
16.1202
10.6629
-123.374
4.34883
18.5948
19.9219
-65.1781
-82.7479
16.7301
18.1089
12.4924
11.3122
-59.6117
24.5801
-58.9421
17.7914
11.2807
17.2779
-12.1432
5.7698
17.415
0.974261
1.56997
-89.7705
-62.5655
8.19066
-2.51217
-74.8265
18.2242
18.3642
18.4118
7.43164
18.8933
2.50804
18.1764
9.51974
-1.51909
-25.2666
2.37028
12.6781
1.63615
36.2664
16.6728
19.59
-104.402
15.538
15.4934
20.0534
12.4355
-73.9464
-6.92297
1.58177
17.1676
17.0203
17.6572
-3.90551
20.2061
-17.849
8.31829
8.06544
13.4943
9.40348
15.5616
10.9236
10.6085
9.73369
-1.74673
-10.4589
2.70778
-87.1801
11.8459
16.7315
0.885896
-91.6797
41.1193
2.96716
23.6709
15.9332
12.9943
11.8151
16.6235
60.7273
-8.34079
1.31211
-94.9289
16.7827
27.8663
-37.2521
3.56073
-51.9922
1.27248
30.9179
1.7266
16.6491
-22.9794
-13.3571
-38.242
-8.53398
17.7664
1.45978
7.69319
22.4668
13.2208
19.515
8.80815
56.693
20.4433
16.6045
43.8835
10.725
15.5955
18.4096
20.3938
-10.7008
1.21086
9.58855
11.5983
-16.6892
13.8719