/*--------------------------------*- C++ -*----------------------------------*\
| =========                 |                                                 |
| \\      /  F ield         | OpenFOAM: The Open Source CFD Toolbox           |
|  \\    /   O peration     | Version:  2.3.1                                 |
|   \\  /    A nd           | Web:      www.OpenFOAM.org                      |
|    \\/     M anipulation  |                                                 |
\*---------------------------------------------------------------------------*/
FoamFile
{
    version     2.0;
    format      ascii;
    class       volVectorField;
    location    "0.77";
    object      U;
}
// * * * * * * * * * * * * * * * * * * * * * * * * * * * * * * * * * * * * * //

dimensions      [0 1 -1 0 0 0 0];

internalField   nonuniform List<vector> 
9648
(
(0.156795 -4.83515 -2.63462e-22)
(0.282574 -4.79771 -2.58098e-23)
(0.406823 -4.76849 0)
(0.529437 -4.74131 0)
(0.652451 -4.71931 8.86979e-21)
(0.776695 -4.70332 1.37926e-20)
(0.904668 -4.69707 -2.63321e-20)
(1.03852 -4.70258 -1.23981e-20)
(1.17969 -4.72109 1.23678e-20)
(1.32856 -4.7546 3.81415e-20)
(1.48722 -4.80483 -3.79839e-20)
(1.65751 -4.87287 -5.5212e-20)
(1.84145 -4.95937 2.93921e-19)
(2.04104 -5.0643 7.63136e-20)
(2.25801 -5.18686 -7.16456e-19)
(2.49358 -5.32581 0)
(2.74893 -5.47942 0)
(3.02489 -5.64564 1.3082e-19)
(3.32216 -5.82186 4.2178e-19)
(3.64079 -6.00529 -1.21392e-18)
(3.98082 -6.1933 -2.13145e-20)
(4.3421 -6.3828 3.34555e-19)
(4.72387 -6.5709 3.95693e-19)
(5.12544 -6.75482 -1.79862e-18)
(5.54587 -6.93186 0)
(5.98414 -7.09941 1.07697e-18)
(6.43891 -7.25496 -1.12919e-18)
(6.90883 -7.39646 0)
(7.39244 -7.52173 0)
(7.88812 -7.62911 -6.85334e-19)
(8.39437 -7.71692 -1.51586e-18)
(8.90938 -7.7837 2.38011e-18)
(9.43154 -7.82835 0)
(9.95909 -7.84965 0)
(10.4902 -7.84694 1.82265e-18)
(11.0232 -7.81936 -1.96119e-18)
(11.5563 -7.7665 0)
(12.0878 -7.68809 4.20951e-18)
(12.6161 -7.58375 1.13517e-18)
(13.1392 -7.45335 -3.36064e-18)
(13.6554 -7.29695 6.33249e-20)
(14.1632 -7.11504 2.39042e-18)
(14.661 -6.90749 -3.17495e-18)
(15.1469 -6.67486 6.38633e-19)
(15.6199 -6.41791 0)
(16.0784 -6.13679 0)
(16.521 -5.8322 4.81544e-18)
(16.9464 -5.50494 7.04716e-19)
(17.3541 -5.15586 -2.17739e-18)
(17.7431 -4.78494 -7.32902e-19)
(18.1113 -4.39312 -7.62105e-19)
(18.4572 -3.98263 7.57397e-19)
(18.7806 -3.55516 3.91176e-19)
(19.0804 -3.11145 -3.8907e-19)
(19.3556 -2.65322 1.98563e-18)
(19.6058 -2.18155 -1.9551e-18)
(19.83 -1.69788 -2.16957e-20)
(20.0279 -1.20342 0)
(20.1989 -0.699637 -3.97028e-19)
(20.3427 -0.188183 -5.13366e-20)
(20.4592 0.329739 -4.86731e-20)
(-0.0697436 -2.54256 2.76917e-22)
(0.00370825 -2.54954 0)
(0.078058 -2.56639 0)
(0.153944 -2.59587 3.71415e-21)
(0.234385 -2.64512 -4.7407e-21)
(0.324023 -2.71709 -3.2841e-20)
(0.424351 -2.80948 0)
(0.537167 -2.92106 0)
(0.66437 -3.05243 -4.20544e-20)
(0.806516 -3.20376 0)
(0.964889 -3.37403 -1.03215e-19)
(1.1403 -3.56173 8.17938e-20)
(1.33364 -3.76558 -4.43316e-20)
(1.54587 -3.98389 0)
(1.77774 -4.21473 2.78952e-19)
(2.02954 -4.45599 1.65509e-19)
(2.30159 -4.70543 -1.62844e-19)
(2.59404 -4.96078 2.12099e-19)
(2.90705 -5.21955 -6.4635e-19)
(3.24038 -5.47924 5.15091e-19)
(3.59371 -5.73753 -5.70579e-19)
(3.96677 -5.99187 -3.07566e-19)
(4.35875 -6.23992 -3.15403e-19)
(4.76888 -6.47937 1.08458e-18)
(5.19624 -6.70801 3.75489e-19)
(5.63991 -6.92369 4.46382e-19)
(6.09875 -7.12439 -3.95778e-19)
(6.57147 -7.30839 0)
(7.05684 -7.4739 0)
(7.55335 -7.61956 0)
(8.05965 -7.74392 0)
(8.5741 -7.8458 0)
(9.09521 -7.92419 0)
(9.62145 -7.97812 0)
(10.151 -8.00701 -8.17667e-19)
(10.6825 -8.01009 7.42696e-19)
(11.2141 -7.98711 8.18901e-19)
(11.7443 -7.93775 -4.15998e-18)
(12.2714 -7.8617 -8.82695e-19)
(12.7938 -7.75892 2.71454e-18)
(13.3097 -7.62953 1.9045e-18)
(13.8177 -7.47397 -1.96526e-18)
(14.3161 -7.29213 9.38677e-19)
(14.8033 -7.0847 9.90281e-19)
(15.278 -6.85234 -1.05233e-18)
(15.7387 -6.59528 1.04301e-18)
(16.1839 -6.31437 -2.23528e-18)
(16.6123 -6.01044 0)
(17.0227 -5.68438 -5.70834e-19)
(17.4144 -5.33633 1.14703e-18)
(17.7865 -4.96716 -5.76353e-19)
(18.1378 -4.57863 0)
(18.4672 -4.17215 1.18432e-18)
(18.7738 -3.7485 0)
(19.0566 -3.30915 0)
(19.315 -2.85528 2.80616e-18)
(19.5481 -2.38818 -1.26457e-18)
(19.7553 -1.90949 -3.07606e-19)
(19.9364 -1.42007 3.24634e-19)
(20.0906 -0.921627 0)
(20.2177 -0.415433 8.16145e-20)
(0.0495542 -1.49742 -4.28739e-22)
(0.109511 -1.54618 0)
(0.175355 -1.61177 1.88804e-22)
(0.24736 -1.69797 -3.20354e-22)
(0.327094 -1.80335 0)
(0.41806 -1.92694 2.72659e-20)
(0.521526 -2.07046 1.9219e-20)
(0.639008 -2.23294 0)
(0.772089 -2.41403 2.28989e-21)
(0.922487 -2.61233 4.35492e-20)
(1.09116 -2.82677 8.80472e-20)
(1.27875 -3.05547 -3.0595e-20)
(1.48579 -3.29664 0)
(1.71265 -3.54819 0)
(1.95958 -3.80802 2.11942e-19)
(2.22651 -4.07401 -1.35294e-19)
(2.51341 -4.34394 -1.45161e-19)
(2.82009 -4.6156 0)
(3.14631 -4.88676 5.60244e-19)
(3.4917 -5.15522 -5.81898e-19)
(3.8558 -5.41889 -4.35264e-19)
(4.23806 -5.67569 -4.79493e-19)
(4.6377 -5.92357 0)
(5.05385 -6.16058 -8.59705e-19)
(5.48555 -6.38477 -3.02331e-19)
(5.93184 -6.59432 3.59309e-19)
(6.39162 -6.78753 3.96709e-19)
(6.86369 -6.96286 0)
(7.34679 -7.1189 0)
(7.83956 -7.25439 0)
(8.34057 -7.36816 0)
(8.84835 -7.45919 0)
(9.36146 -7.5266 0)
(9.87839 -7.56966 0)
(10.3975 -7.58782 -1.79448e-18)
(10.9174 -7.58055 5.96115e-19)
(11.4363 -7.54761 -6.57366e-19)
(11.9529 -7.48876 3.30793e-18)
(12.4655 -7.40386 0)
(12.9725 -7.29296 1.40681e-18)
(13.4725 -7.15628 1.4547e-18)
(13.9637 -6.99411 7.2064e-19)
(14.4448 -6.80661 -8.25182e-19)
(14.9143 -6.59432 -1.58936e-18)
(15.3709 -6.35781 2.47587e-18)
(15.8132 -6.09758 -8.37443e-19)
(16.2399 -5.81444 -1.70785e-18)
(16.6499 -5.50919 0)
(17.0418 -5.18285 0)
(17.4146 -4.83643 -4.65919e-19)
(17.7674 -4.47097 -4.55478e-19)
(18.0993 -4.0874 -9.3152e-19)
(18.4096 -3.6868 -9.74871e-19)
(18.6972 -3.27061 0)
(18.9614 -2.83962 -9.63927e-19)
(19.2015 -2.39557 -1.00435e-18)
(19.4171 -1.93918 0)
(19.6072 -1.47264 1.62739e-20)
(19.7715 -0.996266 0)
(19.9096 -0.511811 0)
(20.0214 -0.0202963 -6.21726e-20)
(0.0232778 -0.995604 8.60911e-22)
(0.0859954 -1.08158 -1.3353e-21)
(0.159916 -1.18473 1.16898e-21)
(0.244228 -1.30527 -1.42629e-21)
(0.339719 -1.44296 0)
(0.447002 -1.59778 -1.12909e-20)
(0.567709 -1.76999 -1.65934e-20)
(0.703176 -1.95912 0)
(0.854769 -2.16437 3.15887e-21)
(1.02334 -2.38462 -3.72479e-20)
(1.20971 -2.61846 8.40763e-20)
(1.4142 -2.86422 1.02419e-19)
(1.63714 -3.11991 0)
(1.87873 -3.3835 -8.16581e-20)
(2.13918 -3.65299 -1.73447e-19)
(2.41824 -3.92637 -9.24972e-20)
(2.71578 -4.20152 3.57347e-19)
(3.03155 -4.47641 -2.58419e-19)
(3.36519 -4.74898 2.8998e-19)
(3.71637 -5.01721 4.94282e-19)
(4.08468 -5.27929 7.15597e-19)
(4.46941 -5.5334 4.03706e-19)
(4.86993 -5.7777 1.94205e-19)
(5.2853 -6.01049 7.05861e-19)
(5.71466 -6.22999 2.31831e-19)
(6.15707 -6.43455 2.63726e-19)
(6.61151 -6.62265 3.11131e-19)
(7.07697 -6.79289 -9.3109e-19)
(7.55223 -6.94406 6.68284e-19)
(8.03599 -7.07499 7.54861e-19)
(8.52702 -7.18463 -1.54291e-18)
(9.02386 -7.27207 7.87696e-19)
(9.52518 -7.33647 -8.43632e-19)
(10.0297 -7.37718 4.2045e-19)
(10.5358 -7.39372 4.60705e-19)
(11.042 -7.38565 5.11059e-19)
(11.5471 -7.35264 -5.04561e-19)
(12.0494 -7.29459 -5.49668e-19)
(12.5475 -7.21137 -1.64714e-18)
(13.04 -7.10307 -1.18797e-18)
(13.5254 -6.96991 -2.40787e-18)
(14.0021 -6.81213 -3.11848e-18)
(14.4687 -6.63 1.27824e-18)
(14.924 -6.42394 2.88871e-20)
(15.3665 -6.19449 -7.1542e-19)
(15.7951 -5.9422 -7.01635e-19)
(16.2085 -5.66775 4.24145e-18)
(16.6055 -5.37192 -7.10817e-19)
(16.9851 -5.05551 0)
(17.3462 -4.71947 0)
(17.6881 -4.3648 -7.13484e-19)
(18.0096 -3.99267 3.1816e-20)
(18.3102 -3.6041 7.65222e-19)
(18.5888 -3.20023 0)
(18.8449 -2.78233 8.14601e-19)
(19.0775 -2.35173 0)
(19.2861 -1.90959 0)
(19.4703 -1.45685 6.20433e-19)
(19.6295 -0.99508 1.973e-19)
(19.7635 -0.525718 -2.01026e-19)
(19.8719 -0.0502395 1.02848e-19)
(0.115215 -0.743559 4.69217e-23)
(0.179112 -0.851088 1.16637e-21)
(0.256313 -0.973955 -2.45333e-21)
(0.347048 -1.11314 3.91272e-24)
(0.451403 -1.26889 -1.50004e-21)
(0.570246 -1.44093 4.46594e-21)
(0.704325 -1.62898 2.36614e-21)
(0.854383 -1.83221 -1.19425e-20)
(1.02143 -2.04974 3.81284e-20)
(1.2056 -2.28035 -5.54077e-20)
(1.40744 -2.52256 6.27309e-20)
(1.6267 -2.77467 -7.89251e-20)
(1.86361 -3.03468 -4.57871e-20)
(2.118 -3.30063 0)
(2.39014 -3.5705 8.51156e-20)
(2.67949 -3.84262 8.16567e-20)
(2.98585 -4.11494 0)
(3.30897 -4.38555 2.02626e-19)
(3.64831 -4.65256 0)
(4.0037 -4.91405 -2.6897e-19)
(4.37473 -5.16847 2.93743e-19)
(4.76063 -5.41425 1.03082e-20)
(5.16085 -5.64968 -1.71652e-20)
(5.57434 -5.87334 2.92439e-20)
(6.00031 -6.08346 -8.25825e-19)
(6.43795 -6.27857 -4.74029e-19)
(6.88621 -6.45727 9.75664e-19)
(7.34431 -6.61822 1.0584e-18)
(7.81103 -6.76048 -5.72819e-19)
(8.28518 -6.88291 0)
(8.76562 -6.98455 0)
(9.25089 -7.06463 0)
(9.73985 -7.12224 7.24348e-19)
(10.2313 -7.15684 -2.99091e-18)
(10.7237 -7.16809 1.56478e-18)
(11.2157 -7.15551 -7.95614e-19)
(11.7061 -7.11877 -1.71568e-18)
(12.1934 -7.0579 1.74005e-18)
(12.6762 -6.97273 3.99661e-20)
(13.1533 -6.86339 -9.818e-19)
(13.6232 -6.73017 1.0141e-18)
(14.0843 -6.57326 1.04828e-18)
(14.5354 -6.39294 0)
(14.9751 -6.18953 -1.06404e-18)
(15.4024 -5.96362 0)
(15.8158 -5.71573 -1.699e-18)
(16.2143 -5.44653 5.252e-19)
(16.5968 -5.15675 0)
(16.9622 -4.84707 -6.15713e-19)
(17.3097 -4.51853 -1.46532e-20)
(17.6383 -4.17195 1.31112e-18)
(17.9472 -3.8085 -6.22972e-19)
(18.2357 -3.42925 -3.46299e-19)
(18.503 -3.03532 6.34222e-19)
(18.7483 -2.62806 -4.80129e-21)
(18.9709 -2.20846 3.30596e-19)
(19.17 -1.77781 1.59679e-19)
(19.3452 -1.33704 3.36918e-19)
(19.4964 -0.887379 -8.46259e-19)
(19.6231 -0.430319 3.39833e-19)
(19.7249 0.0325886 -4.34755e-20)
(0.199626 -0.607203 -4.10296e-22)
(0.27587 -0.729824 0)
(0.366517 -0.867122 3.52852e-21)
(0.472016 -1.01995 0)
(0.59171 -1.18832 -1.17991e-22)
(0.726771 -1.37167 4.83637e-21)
(0.87754 -1.56956 6.84238e-21)
(1.04448 -1.78084 2.34347e-20)
(1.2285 -2.00457 3.82175e-21)
(1.42906 -2.2396 5.83087e-21)
(1.64676 -2.48431 1.06481e-21)
(1.88069 -2.73724 -2.98282e-20)
(2.13118 -2.99632 4.45493e-20)
(2.39737 -3.25959 -1.35902e-19)
(2.68027 -3.52511 1.16434e-19)
(2.97886 -3.79174 -8.55173e-21)
(3.29271 -4.05724 -1.4495e-19)
(3.62194 -4.31991 -1.75091e-19)
(3.96554 -4.57808 0)
(4.32361 -4.82975 2.08744e-19)
(4.69604 -5.07372 8.40503e-21)
(5.08158 -5.30871 -5.41835e-19)
(5.48023 -5.53304 -2.3323e-20)
(5.89048 -5.74569 -2.93727e-19)
(6.31166 -5.94476 1.03677e-18)
(6.74311 -6.1289 3.54833e-20)
(7.18369 -6.29686 -3.85513e-19)
(7.63309 -6.44726 -4.11325e-20)
(8.08997 -6.57956 0)
(8.55309 -6.6926 0)
(9.02172 -6.78542 0)
(9.49413 -6.85755 0)
(9.96929 -6.90788 0)
(10.4464 -6.93589 5.72522e-20)
(10.924 -6.94152 -6.70859e-19)
(11.4003 -6.92428 -3.898e-20)
(11.8748 -6.88362 2.91287e-20)
(12.3459 -6.81989 6.92019e-19)
(12.8122 -6.73279 1.58111e-18)
(13.2727 -6.62246 -2.38441e-18)
(13.7259 -6.48942 1.65933e-18)
(14.1705 -6.33372 -8.37259e-19)
(14.6048 -6.15572 0)
(15.0281 -5.95546 9.29558e-19)
(15.439 -5.73365 0)
(15.8364 -5.49082 9.78111e-19)
(16.2192 -5.22745 -1.00066e-18)
(16.5862 -4.94455 4.69997e-19)
(16.9366 -4.64244 5.01913e-19)
(17.2696 -4.32214 -5.23581e-19)
(17.5843 -3.98453 3.7475e-20)
(17.8799 -3.63081 -1.06024e-20)
(18.1558 -3.26174 1.06451e-18)
(18.4113 -2.87874 -1.09533e-18)
(18.6457 -2.48303 -5.40347e-19)
(18.8578 -2.07591 -2.64533e-19)
(19.0471 -1.65815 -8.41283e-19)
(19.2133 -1.23059 0)
(19.3562 -0.794356 5.68089e-19)
(19.4757 -0.351263 -1.45814e-19)
(19.5712 0.0974197 0)
(0.304752 -0.538925 0)
(0.394833 -0.672269 0)
(0.50042 -0.820341 -1.78406e-21)
(0.6229 -0.983555 2.01058e-21)
(0.75952 -1.16134 -1.38833e-21)
(0.91244 -1.35255 -7.90252e-21)
(1.0811 -1.55667 4.58501e-21)
(1.26527 -1.77219 -1.6063e-20)
(1.46707 -1.99837 -1.24614e-21)
(1.68377 -2.23408 4.47639e-20)
(1.9176 -2.47775 -8.46528e-20)
(2.16561 -2.72823 0)
(2.42938 -2.98318 0)
(2.70609 -3.24088 1.54525e-19)
(2.99927 -3.49891 9.9569e-20)
(3.30623 -3.75746 -2.20029e-19)
(3.62638 -4.01376 3.5733e-19)
(3.96096 -4.26623 1.49877e-19)
(4.30758 -4.51384 -2.99902e-19)
(4.66703 -4.75385 -1.81986e-19)
(5.04024 -4.98547 2.09486e-19)
(5.42409 -5.2083 -5.19033e-21)
(5.82056 -5.41988 0)
(6.22654 -5.62059 5.40673e-19)
(6.64179 -5.80765 -8.90601e-19)
(7.0663 -5.97977 2.9657e-19)
(7.49779 -6.13626 6.55799e-19)
(7.93763 -6.27501 -1.82446e-18)
(8.38382 -6.39655 3.71539e-19)
(8.83472 -6.49957 0)
(9.29084 -6.58269 0)
(9.74938 -6.64655 0)
(10.2095 -6.68919 5.09269e-19)
(10.6715 -6.70983 1.57629e-18)
(11.1334 -6.70938 -1.06584e-18)
(11.5928 -6.68743 5.8806e-19)
(12.0506 -6.64214 6.44257e-19)
(12.5043 -6.57526 -1.27778e-18)
(12.9528 -6.48593 0)
(13.3959 -6.37403 -1.31161e-18)
(13.8315 -6.241 6.81073e-19)
(14.2585 -6.08628 3.52021e-20)
(14.675 -5.91075 -3.15746e-20)
(15.0807 -5.71342 7.49613e-19)
(15.4744 -5.4956 3.15342e-20)
(15.8545 -5.25811 -2.39239e-18)
(16.2208 -5.00055 8.10472e-19)
(16.5713 -4.72476 -1.68296e-18)
(16.9057 -4.43013 0)
(17.2231 -4.11851 0)
(17.5231 -3.78982 1.77595e-18)
(17.8044 -3.44631 -4.24208e-19)
(18.0667 -3.08786 -9.19818e-19)
(18.3097 -2.71577 -4.42014e-19)
(18.5324 -2.33214 1.41115e-18)
(18.7335 -1.93798 7.11584e-19)
(18.9124 -1.53357 2.45882e-19)
(19.0686 -1.12006 -4.63128e-21)
(19.2026 -0.69757 -2.45952e-19)
(19.3144 -0.268552 0)
(19.4032 0.165149 0)
(0.42657 -0.51399 4.36863e-22)
(0.533968 -0.654958 0)
(0.655832 -0.810651 0)
(0.798085 -0.981708 -1.23003e-21)
(0.952101 -1.16636 0)
(1.1239 -1.36259 1.62515e-21)
(1.31071 -1.57004 4.53523e-21)
(1.51111 -1.78672 -9.48031e-21)
(1.73189 -2.01254 0)
(1.96336 -2.24633 -2.68325e-20)
(2.21428 -2.48647 4.03689e-21)
(2.47476 -2.73255 0)
(2.75258 -2.9815 0)
(3.03681 -3.23211 -6.4903e-20)
(3.34056 -3.47955 7.10782e-20)
(3.65562 -3.72877 -8.97567e-20)
(3.98016 -3.97453 -1.03569e-19)
(4.32006 -4.21523 0)
(4.66831 -4.45195 1.34106e-19)
(5.02757 -4.67906 -2.8327e-19)
(5.40229 -4.89694 -3.17721e-19)
(5.78211 -5.10736 -3.72942e-19)
(6.17671 -5.30467 -3.3506e-20)
(6.57749 -5.49359 -4.74084e-19)
(6.98577 -5.66828 4.54874e-19)
(7.40346 -5.82763 5.07284e-19)
(7.82377 -5.97278 -5.7742e-19)
(8.2537 -6.09852 3.17078e-20)
(8.68886 -6.20897 4.25897e-20)
(9.12562 -6.30203 -6.66183e-19)
(9.56901 -6.37449 0)
(10.0127 -6.43054 -8.10437e-19)
(10.4566 -6.46518 1.60734e-18)
(10.9029 -6.47732 -4.49391e-20)
(11.3488 -6.47103 9.42607e-19)
(11.789 -6.44559 -9.37693e-19)
(12.23 -6.39438 1.03319e-18)
(12.6654 -6.32444 1.07739e-18)
(13.0946 -6.23281 -2.12966e-18)
(13.5194 -6.11855 1.1646e-18)
(13.9359 -5.98599 1.14505e-18)
(14.345 -5.83188 1.80809e-18)
(14.7419 -5.65924 -6.43344e-19)
(15.129 -5.4637 0)
(15.5047 -5.25001 3.4377e-20)
(15.8661 -5.01887 6.98134e-19)
(16.2153 -4.76677 -6.78488e-19)
(16.5476 -4.49947 7.30314e-19)
(16.8652 -4.21229 0)
(17.1655 -3.9104 0)
(17.45 -3.59058 -3.98932e-20)
(17.716 -3.25833 7.83547e-19)
(17.9634 -2.90984 0)
(18.1931 -2.54846 3.89019e-19)
(18.4039 -2.17808 3.9228e-19)
(18.5934 -1.79799 -7.98852e-19)
(18.7613 -1.40752 -3.91763e-19)
(18.9061 -1.00917 -2.0807e-19)
(19.03 -0.599973 0)
(19.134 -0.186099 0)
(19.2154 0.231171 2.48995e-20)
(0.565164 -0.516584 -1.22248e-21)
(0.696336 -0.661852 2.57188e-21)
(0.834092 -0.820518 1.2364e-24)
(1.0025 -0.997225 -2.76067e-21)
(1.17026 -1.18521 3.97671e-21)
(1.36071 -1.38597 -2.10747e-21)
(1.56644 -1.59256 0)
(1.77923 -1.80624 1.50108e-21)
(2.02413 -2.03012 -1.20357e-20)
(2.2645 -2.25846 0)
(2.53821 -2.49392 5.53087e-20)
(2.80388 -2.73506 -3.51462e-20)
(3.09917 -2.97813 3.58964e-20)
(3.38349 -3.22186 4.63899e-20)
(3.70048 -3.4531 -6.14772e-20)
(4.02325 -3.69407 -7.55579e-20)
(4.3479 -3.92915 2.50043e-19)
(4.6974 -4.15473 -2.6083e-19)
(5.04065 -4.38328 0)
(5.39491 -4.59894 -9.21607e-21)
(5.77777 -4.8019 7.81175e-19)
(6.14548 -5.00246 -2.98016e-20)
(6.54577 -5.18035 -3.71636e-19)
(6.93516 -5.36064 7.1177e-19)
(7.33452 -5.52531 0)
(7.74864 -5.672 -4.38257e-19)
(8.15136 -5.80747 -4.49008e-19)
(8.57314 -5.91868 9.95749e-19)
(8.99833 -6.01897 -6.61186e-21)
(9.41667 -6.10363 5.90953e-19)
(9.85002 -6.16275 -1.20808e-18)
(10.2749 -6.21358 1.92032e-18)
(10.7001 -6.24181 -1.37642e-18)
(11.1316 -6.24526 -1.44347e-18)
(11.564 -6.23245 0)
(11.9802 -6.20421 8.21637e-19)
(12.41 -6.14437 0)
(12.8234 -6.0745 -3.08746e-21)
(13.2308 -5.98242 9.72652e-19)
(13.64 -5.86263 -1.80944e-18)
(14.0349 -5.72968 -6.75809e-21)
(14.4272 -5.57631 -1.9999e-18)
(14.7985 -5.40931 0)
(15.1662 -5.21682 -5.72065e-19)
(15.5248 -5.00867 2.19505e-18)
(15.8628 -4.78503 -5.58022e-19)
(16.1987 -4.53782 5.90792e-19)
(16.5089 -4.28013 0)
(16.8116 -3.99943 6.07572e-19)
(17.0922 -3.70634 -1.83316e-18)
(17.3621 -3.39169 -2.54867e-20)
(17.6114 -3.07084 0)
(17.8409 -2.73514 6.29503e-19)
(18.0579 -2.38496 -1.88897e-20)
(18.2578 -2.02546 0)
(18.4327 -1.65796 3.54434e-19)
(18.5916 -1.28912 -3.21764e-19)
(18.7223 -0.908013 3.37357e-19)
(18.8343 -0.513299 3.34501e-19)
(18.9334 -0.110957 -1.6794e-19)
(19.0043 0.290531 -6.35362e-20)
(20.5476 0.853225 1.51407e-19)
(20.6075 1.38056 -5.1331e-20)
(20.6394 1.91118 0)
(20.6432 2.44265 0)
(20.6193 2.97324 8.1556e-19)
(20.568 3.50184 1.17354e-18)
(20.4892 4.02662 -1.20821e-18)
(20.3833 4.54618 -3.98143e-19)
(20.2502 5.05906 3.98091e-19)
(20.0907 5.56419 7.79035e-19)
(19.9049 6.06096 -7.79507e-19)
(19.693 6.54752 -7.57843e-19)
(19.4565 7.02281 3.76923e-18)
(19.1967 7.48561 7.33054e-19)
(18.9139 7.93449 -6.46889e-18)
(18.6088 8.36795 0)
(18.2821 8.78509 0)
(17.9352 9.18495 6.72796e-19)
(17.5688 9.56698 1.98724e-18)
(17.1837 9.92984 -5.10828e-18)
(16.7815 10.2728 -7.47019e-20)
(16.3629 10.5956 1.17087e-18)
(15.929 10.8969 1.20452e-18)
(15.4809 11.1762 -4.49438e-18)
(15.0201 11.4335 0)
(14.5475 11.6688 2.11087e-18)
(14.0634 11.8814 -1.95598e-18)
(13.5698 12.0696 0)
(13.0683 12.2331 0)
(12.5606 12.3715 -8.96145e-19)
(12.0478 12.485 -1.63832e-18)
(11.5312 12.5732 2.33501e-18)
(11.0124 12.6363 0)
(10.4923 12.6742 0)
(9.97259 12.687 1.17818e-18)
(9.45423 12.6749 -1.11994e-18)
(8.93864 12.6378 0)
(8.42709 12.5765 1.76488e-18)
(7.92062 12.4911 3.67653e-19)
(7.42048 12.3819 -1.01699e-18)
(6.92789 12.2494 3.5452e-20)
(6.44427 12.0942 4.27963e-19)
(5.97038 11.9171 -4.2302e-19)
(5.50743 11.7183 7.39876e-20)
(5.0566 11.4988 0)
(4.61861 11.2595 0)
(4.1945 11.0007 -1.74906e-19)
(3.7852 10.7235 -3.75106e-20)
(3.39171 10.4289 2.22209e-19)
(3.01473 10.1179 9.23247e-20)
(2.65488 9.79147 1.4414e-19)
(2.31298 9.45036 -1.46022e-19)
(1.98979 9.09589 -9.7759e-20)
(1.68562 8.72925 9.90941e-20)
(1.40118 8.35136 -5.91635e-19)
(1.13686 7.96365 6.45397e-19)
(0.893096 7.56725 -1.30782e-21)
(0.670188 7.16367 0)
(0.468308 6.75396 1.64327e-19)
(0.287809 6.33922 2.2319e-20)
(0.128771 5.92067 2.36185e-20)
(20.3169 0.0968462 -8.16869e-20)
(20.3878 0.613147 0)
(20.4309 1.13109 0)
(20.4469 1.65035 9.37797e-19)
(20.4353 2.16957 -6.27015e-19)
(20.3967 2.68749 -2.20938e-18)
(20.3311 3.20236 0)
(20.2386 3.71323 0)
(20.1195 4.21839 -1.20283e-18)
(19.9737 4.71646 0)
(19.8018 5.20665 -1.76224e-18)
(19.6043 5.68668 1.16914e-18)
(19.3826 6.15477 -5.80378e-19)
(19.1379 6.61075 0)
(18.8702 7.05412 2.2951e-18)
(18.5799 7.48353 1.07494e-18)
(18.2679 7.89781 -1.0771e-18)
(17.9353 8.29578 1.02447e-18)
(17.5827 8.67679 -3.02737e-18)
(17.2113 9.03964 2.03848e-18)
(16.8223 9.38322 -1.97967e-18)
(16.4166 9.70707 -1.00925e-18)
(15.9954 10.01 -9.12868e-19)
(15.5598 10.2912 2.64842e-18)
(15.111 10.5501 8.48826e-19)
(14.6498 10.7864 7.76594e-19)
(14.1774 11.0004 -7.01771e-19)
(13.6957 11.191 0)
(13.2057 11.3576 0)
(12.7089 11.4996 0)
(12.2064 11.617 0)
(11.6996 11.7095 0)
(11.19 11.777 0)
(10.6787 11.8197 0)
(10.1672 11.8373 -4.89169e-19)
(9.6566 11.8299 4.34234e-19)
(9.14833 11.7977 3.47656e-19)
(8.64358 11.7411 -1.6874e-18)
(8.14346 11.6603 -2.63234e-19)
(7.64931 11.5555 7.85237e-19)
(7.16235 11.4273 4.3194e-19)
(6.68394 11.2762 -3.44183e-19)
(6.21495 11.1027 1.27635e-19)
(5.75673 10.9073 9.33121e-20)
(5.31038 10.6908 -6.84781e-21)
(4.8767 10.4538 6.92466e-21)
(4.45676 10.197 9.43897e-20)
(4.05153 9.92128 0)
(3.66206 9.62753 8.08607e-20)
(3.28915 9.31675 -1.83354e-19)
(2.93344 8.98983 1.02784e-19)
(2.59585 8.64764 0)
(2.27723 8.29131 -3.05871e-19)
(1.97783 7.92202 0)
(1.69856 7.5407 0)
(1.43968 7.14875 -9.49988e-19)
(1.20181 6.74739 4.58217e-19)
(0.985164 6.33802 1.26625e-19)
(0.790313 5.92164 -1.32491e-19)
(0.617561 5.49954 0)
(0.467146 5.07294 -3.73675e-20)
(20.1069 0.476195 6.22109e-20)
(20.1662 0.976431 0)
(20.1987 1.47712 -2.48161e-19)
(20.2037 1.97814 -1.63302e-20)
(20.182 2.47811 0)
(20.1344 2.97642 1.99059e-18)
(20.0607 3.4723 9.71782e-19)
(19.9605 3.96523 0)
(19.8343 4.45304 3.20321e-20)
(19.6822 4.93347 9.4051e-19)
(19.5054 5.40495 1.42853e-18)
(19.3049 5.86607 -4.69594e-19)
(19.0811 6.31517 0)
(18.8344 6.75152 0)
(18.5652 7.17463 1.72933e-18)
(18.2744 7.58359 -8.53136e-19)
(17.9631 7.9774 -7.99496e-19)
(17.6321 8.35508 0)
(17.2822 8.71585 2.4143e-18)
(16.9145 9.05876 -2.31663e-18)
(16.5302 9.38287 -1.47951e-18)
(16.1302 9.68749 -1.43156e-18)
(15.7157 9.97171 0)
(15.2876 10.2348 -2.04505e-18)
(14.8473 10.4762 -6.67227e-19)
(14.3957 10.6952 6.09443e-19)
(13.9343 10.8913 5.99751e-19)
(13.4643 11.0644 0)
(12.9867 11.2142 0)
(12.5029 11.3402 0)
(12.0141 11.4424 0)
(11.5215 11.5205 0)
(11.0265 11.5746 0)
(10.5304 11.6046 0)
(10.0344 11.6105 -1.04635e-18)
(9.53972 11.5923 3.34989e-19)
(9.04767 11.5502 -2.66898e-19)
(8.55936 11.4845 1.27118e-18)
(8.07592 11.3955 0)
(7.59858 11.2836 3.56685e-19)
(7.12853 11.1491 2.90561e-19)
(6.66699 10.9926 1.24297e-19)
(6.21498 10.8147 -7.38147e-20)
(5.77364 10.6158 -9.22244e-20)
(5.34403 10.3966 2.66674e-20)
(4.92702 10.1577 -2.40838e-22)
(4.52348 9.89991 1.04149e-19)
(4.1344 9.62396 0)
(3.76067 9.33083 0)
(3.40316 9.02135 8.07555e-20)
(3.06257 8.69644 9.73928e-20)
(2.7396 8.35704 2.09851e-19)
(2.43501 8.00408 2.40328e-19)
(2.14923 7.6387 0)
(1.88296 7.26177 2.98786e-19)
(1.63645 6.87475 3.2966e-19)
(1.41021 6.4787 0)
(1.2046 6.07508 -1.87327e-21)
(1.02017 5.66482 0)
(0.857146 5.2492 0)
(0.715793 4.82934 2.86007e-20)
(19.9545 0.430316 -1.0289e-19)
(20.0115 0.914398 2.01242e-19)
(20.0425 1.40141 -3.96768e-19)
(20.0473 1.88937 -2.13321e-19)
(20.026 2.37676 0)
(19.9781 2.86244 -8.26104e-19)
(19.9036 3.34588 -8.20052e-19)
(19.8037 3.8252 0)
(19.6795 4.30026 3.39452e-20)
(19.5311 4.76889 -7.92317e-19)
(19.3587 5.22904 1.496e-18)
(19.1627 5.67973 1.47254e-18)
(18.9435 6.11983 0)
(18.7018 6.54812 -7.17427e-19)
(18.4382 6.96339 -1.42478e-18)
(18.1538 7.36443 -7.02582e-19)
(17.8491 7.75039 2.05753e-18)
(17.5252 8.12039 -1.32189e-18)
(17.183 8.47367 1.28608e-18)
(16.8235 8.80939 1.86679e-18)
(16.4477 9.12672 2.42358e-18)
(16.0568 9.4249 1.1979e-18)
(15.6517 9.70306 5.51495e-19)
(15.2336 9.96053 1.66646e-18)
(14.8033 10.1968 5.10164e-19)
(14.3621 10.4113 5.10571e-19)
(13.9112 10.6037 4.6253e-19)
(13.4518 10.7735 -1.34689e-18)
(12.9851 10.9204 8.35039e-19)
(12.5124 11.0442 7.79046e-19)
(12.0347 11.1445 -1.5116e-18)
(11.5534 11.2214 7.32482e-19)
(11.0698 11.2748 -6.37309e-19)
(10.585 11.3047 2.99169e-19)
(10.1005 11.3111 2.88855e-19)
(9.61739 11.2939 2.34479e-19)
(9.13683 11.2534 -2.36002e-19)
(8.65989 11.1897 -2.22214e-19)
(8.18773 11.1033 -5.07775e-19)
(7.72155 10.9945 -2.94106e-19)
(7.26251 10.8637 -4.58797e-19)
(6.81172 10.7116 -4.25265e-19)
(6.37035 10.5385 1.22059e-19)
(5.93945 10.345 7.08269e-21)
(5.52002 10.1317 -6.38493e-22)
(5.11299 9.89907 3.16754e-20)
(4.71905 9.64799 -2.6943e-19)
(4.33922 9.37923 5.81361e-20)
(3.97431 9.09374 0)
(3.62528 8.79227 0)
(3.29271 8.47568 1.48768e-19)
(2.97743 8.14504 6.68225e-22)
(2.68005 7.80117 -1.94973e-19)
(2.40102 7.44508 0)
(2.14097 7.07762 -2.42167e-19)
(1.90009 6.70023 0)
(1.67892 6.31405 0)
(1.4777 5.92034 -2.32725e-19)
(1.29722 5.52024 -8.28266e-20)
(1.13746 5.1149 8.60696e-20)
(0.999005 4.70551 -4.56675e-20)
(19.8017 0.500212 1.85929e-21)
(19.8533 0.971327 -1.73868e-19)
(19.8796 1.44499 5.09509e-19)
(19.8806 1.91965 3.37987e-19)
(19.8562 2.39413 -4.97816e-19)
(19.8064 2.86712 3.33416e-19)
(19.7322 3.33665 -2.42374e-21)
(19.6332 3.8007 -6.45364e-19)
(19.5095 4.2591 9.82728e-19)
(19.3626 4.71102 -1.28001e-18)
(19.1925 5.15536 1.20459e-18)
(18.9996 5.59066 -1.28037e-18)
(18.7844 6.01582 -6.15105e-19)
(18.5474 6.4298 0)
(18.2896 6.83126 6.32997e-19)
(18.0116 7.21899 5.40377e-19)
(17.7139 7.59226 0)
(17.3976 7.95009 1.06405e-18)
(17.0634 8.2918 0)
(16.7126 8.61664 -1.05219e-18)
(16.3461 8.92371 9.29233e-19)
(15.965 9.21226 -4.02556e-20)
(15.5703 9.48137 -4.50367e-20)
(15.1631 9.73032 1.6378e-21)
(14.7441 9.95869 -1.74799e-18)
(14.3145 10.166 -7.94832e-19)
(13.8755 10.3518 1.55309e-18)
(13.4283 10.5159 1.43586e-18)
(12.9741 10.6579 -7.15866e-19)
(12.514 10.7773 0)
(12.0493 10.874 0)
(11.5808 10.948 0)
(11.1102 10.9993 5.45235e-19)
(10.6384 11.028 -1.9092e-18)
(10.1671 11.0337 8.85866e-19)
(9.69713 11.0166 -4.22279e-19)
(9.22963 10.9768 -6.75257e-19)
(8.76567 10.9144 6.33812e-19)
(8.30623 10.8301 2.11468e-20)
(7.85262 10.7241 -1.99251e-19)
(7.40592 10.5968 2.18639e-19)
(6.96721 10.4488 1.41719e-19)
(6.53771 10.2807 0)
(6.11842 10.0927 -3.87154e-20)
(5.71033 9.88567 0)
(5.3144 9.65977 7.82009e-20)
(4.93109 9.41599 -4.04124e-20)
(4.56141 9.15505 0)
(4.20602 8.87794 9.42507e-20)
(3.86622 8.58534 1.94401e-20)
(3.54229 8.27798 -2.47094e-19)
(3.23507 7.95699 1.45067e-19)
(2.94534 7.62315 9.54999e-20)
(2.67329 7.27742 -1.74961e-19)
(2.41981 6.92057 8.05377e-21)
(2.18447 6.5539 -1.06135e-19)
(1.96833 6.17863 -5.71898e-20)
(1.77127 5.79606 -1.27168e-19)
(1.59443 5.40729 3.3715e-19)
(1.43743 5.01343 -1.43389e-19)
(1.30138 4.6156 1.89858e-20)
(19.6425 0.550501 3.65475e-20)
(19.6895 1.00683 0)
(19.7119 1.46526 -5.69605e-19)
(19.7099 1.92465 0)
(19.6834 2.38366 2.83342e-19)
(19.6327 2.8409 8.28824e-19)
(19.5578 3.29497 5.43539e-19)
(19.459 3.74534 1.10195e-18)
(19.3368 4.19007 9.58391e-21)
(19.1918 4.62831 -6.74815e-21)
(19.0245 5.05863 -5.93697e-20)
(18.8352 5.48003 -5.23692e-19)
(18.6243 5.8915 5.05568e-19)
(18.3925 6.29208 -1.48208e-18)
(18.1407 6.68055 1.00532e-18)
(17.8694 7.05566 -4.80869e-20)
(17.5791 7.41664 -9.11478e-19)
(17.2707 7.7626 -9.33515e-19)
(16.945 8.09302 0)
(16.6031 8.40729 8.35674e-19)
(16.2462 8.70445 -3.738e-20)
(15.8753 8.98371 -1.64337e-18)
(15.4916 9.24414 -5.67184e-21)
(15.0957 9.48483 -6.81979e-19)
(14.6884 9.70561 2.07497e-18)
(14.271 9.906 -3.44038e-20)
(13.8443 10.0857 -6.62328e-19)
(13.4098 10.2444 -6.96145e-20)
(12.9686 10.3817 0)
(12.5218 10.4973 0)
(12.0706 10.5907 0)
(11.6156 10.6623 0)
(11.1584 10.712 0)
(10.7002 10.74 5.31839e-20)
(10.2427 10.7457 -3.43197e-19)
(9.78642 10.7292 3.8825e-20)
(9.3326 10.6907 5.24813e-20)
(8.88216 10.6301 2.20197e-19)
(8.43589 10.5484 4.18027e-19)
(7.99523 10.4457 -5.20207e-19)
(7.5613 10.3224 3.05411e-19)
(7.13495 10.1792 -9.41978e-20)
(6.71763 10.0166 0)
(6.31033 9.83495 3.37413e-20)
(5.91393 9.63496 0)
(5.52962 9.41648 -4.07556e-20)
(5.15711 9.18076 7.74394e-20)
(4.79803 8.92843 -5.35619e-20)
(4.45239 8.66067 -6.7609e-20)
(4.12215 8.37783 1.01329e-19)
(3.80712 8.08059 1.88512e-20)
(3.50816 7.77024 1.52229e-20)
(3.2263 7.4473 -2.78917e-19)
(2.96139 7.11287 3.17946e-19)
(2.71466 6.76733 1.74073e-19)
(2.48495 6.41229 9.10141e-20)
(2.27401 6.04876 3.02898e-19)
(2.08077 5.67824 0)
(1.90752 5.30166 -2.31732e-19)
(1.75308 4.92023 6.15583e-20)
(1.61932 4.5348 0)
(19.4686 0.603097 0)
(19.5104 1.044 0)
(19.5287 1.48695 2.46931e-19)
(19.5234 1.93053 -4.72976e-19)
(19.4947 2.37379 -2.44009e-19)
(19.4427 2.81543 -1.18464e-18)
(19.3677 3.25377 4.57299e-19)
(19.2694 3.68779 -9.45329e-19)
(19.1484 4.11712 1.52845e-20)
(19.0057 4.54049 1.33959e-18)
(18.8418 4.95595 -1.78784e-18)
(18.6564 5.3626 0)
(18.4503 5.75939 0)
(18.2239 6.14606 1.69231e-18)
(17.9786 6.52115 8.17791e-19)
(17.7147 6.88272 -1.65943e-18)
(17.4323 7.23064 2.37583e-18)
(17.1323 7.564 7.55596e-19)
(16.8153 7.88245 -1.48105e-18)
(16.4826 8.18573 -7.43135e-19)
(16.1358 8.47236 6.85586e-19)
(15.7758 8.74197 -7.00021e-20)
(15.4035 8.99344 0)
(15.0199 9.22522 1.28351e-18)
(14.6249 9.43793 -1.81058e-18)
(14.2201 9.63101 5.83259e-19)
(13.8065 9.804 1.04957e-18)
(13.3851 9.95724 -2.5478e-18)
(12.9578 10.0896 4.98528e-19)
(12.525 10.2013 0)
(12.0883 10.291 0)
(11.6473 10.3604 0)
(11.2046 10.4082 3.45541e-19)
(10.7606 10.436 9.77666e-19)
(10.318 10.4419 -5.76421e-19)
(9.8763 10.4264 2.51321e-19)
(9.43707 10.3894 2.40652e-19)
(9.00129 10.3307 -4.28132e-19)
(8.5689 10.2516 0)
(8.14185 10.1525 -2.3971e-19)
(7.72151 10.0333 1.24693e-19)
(7.30793 9.89509 1.39309e-20)
(6.9032 9.7383 9.70594e-21)
(6.50849 9.5634 2.91096e-20)
(6.12414 9.37126 -1.05072e-20)
(5.75257 9.16051 1.51336e-19)
(5.39124 8.93358 -6.47122e-20)
(5.0436 8.69028 2.20408e-19)
(4.70775 8.43276 0)
(4.38809 8.16063 0)
(4.08246 7.87416 -3.96561e-19)
(3.79193 7.57533 1.07834e-19)
(3.51889 7.26419 2.47511e-19)
(3.26121 6.94196 1.4622e-19)
(3.02237 6.60834 -4.60924e-19)
(2.79815 6.26558 -2.57974e-19)
(2.59301 5.91434 -9.495e-20)
(2.40321 5.55678 -2.06402e-21)
(2.23426 5.19328 1.01728e-19)
(2.08195 4.82506 0)
(1.95097 4.45281 0)
(19.2745 0.652974 -2.49233e-20)
(19.3106 1.07737 0)
(19.3243 1.50398 0)
(19.3153 1.9311 2.09533e-19)
(19.284 2.35763 0)
(19.231 2.78263 8.06964e-19)
(19.1564 3.20438 3.9792e-19)
(19.0588 3.62127 -7.81457e-19)
(18.9387 4.03514 0)
(18.7985 4.44387 -7.93059e-19)
(18.6392 4.84288 4.34868e-20)
(18.4584 5.234 0)
(18.2578 5.61494 0)
(18.037 5.98685 -7.39157e-19)
(17.7983 6.3487 6.82539e-19)
(17.5433 6.69553 -7.06811e-19)
(17.2694 7.02971 -6.89069e-19)
(16.9781 7.35015 0)
(16.6706 7.65552 6.51079e-19)
(16.3475 7.94728 -1.18737e-18)
(16.0117 8.22249 -1.14711e-18)
(15.6629 8.48206 -1.17773e-18)
(15.3025 8.72483 -9.3211e-21)
(14.9329 8.9465 -9.72392e-19)
(14.5505 9.15062 1.03122e-18)
(14.1584 9.33633 9.29565e-19)
(13.759 9.5017 -9.4327e-19)
(13.3509 9.64942 5.88898e-20)
(12.9384 9.77605 9.43173e-22)
(12.5197 9.88473 -7.88585e-19)
(12.0991 9.96946 0)
(11.6719 10.0373 -6.28828e-19)
(11.2453 10.0825 1.21144e-18)
(10.8152 10.1112 -4.55873e-20)
(10.3896 10.1178 5.18441e-19)
(9.9638 10.1031 -4.22231e-19)
(9.54025 10.0682 3.58853e-19)
(9.12117 10.0109 2.57363e-19)
(8.70337 9.93476 -5.66019e-19)
(8.29047 9.83947 2.37902e-19)
(7.88538 9.72455 1.52287e-19)
(7.48439 9.59137 1.61301e-19)