/*--------------------------------*- C++ -*----------------------------------*\
| =========                 |                                                 |
| \\      /  F ield         | OpenFOAM: The Open Source CFD Toolbox           |
|  \\    /   O peration     | Version:  2.4.0                                 |
|   \\  /    A nd           | Web:      www.OpenFOAM.org                      |
|    \\/     M anipulation  |                                                 |
\*---------------------------------------------------------------------------*/
FoamFile
{
    version     2.0;
    format      ascii;
    class       volScalarField;
    location    "0.99";
    object      nut;
}
// * * * * * * * * * * * * * * * * * * * * * * * * * * * * * * * * * * * * * //

dimensions      [0 2 -1 0 0 0 0];

internalField   nonuniform List<scalar> 
121060
(
2.75152e-05
0.000126986
0.000167125
0.000175078
0.000164685
0.000141865
0.000112448
8.34955e-05
5.90542e-05
4.52311e-05
3.68084e-05
3.13042e-05
4.2786e-05
0.000137623
0.000175231
0.000180093
0.000167248
0.000142815
0.000112348
8.28989e-05
5.87169e-05
4.49268e-05
3.66166e-05
3.12828e-05
5.94474e-05
0.000146705
0.000182492
0.000185021
0.000170033
0.000144009
0.000112505
8.25079e-05
5.84832e-05
4.47032e-05
3.64697e-05
3.12484e-05
7.53323e-05
0.000154889
0.000189237
0.000189887
0.00017299
0.000145446
0.000112912
8.23548e-05
5.83528e-05
4.4539e-05
3.63609e-05
3.12013e-05
8.91605e-05
0.000162372
0.000195638
0.000194745
0.000176099
0.000147087
0.000113482
8.23244e-05
5.82911e-05
4.44193e-05
3.62805e-05
3.11828e-05
0.000101098
0.000169345
0.000201772
0.000199604
0.000179372
0.000148884
0.000114215
8.24475e-05
5.83048e-05
4.43611e-05
3.6228e-05
3.11529e-05
0.000111318
0.00017591
0.000207695
0.000204455
0.000182731
0.00015085
0.000115114
8.2711e-05
5.83718e-05
4.43275e-05
3.61978e-05
3.11483e-05
0.000120173
0.000182093
0.000213451
0.000209324
0.000186195
0.000152947
0.000116162
8.30654e-05
5.85056e-05
4.43414e-05
3.61882e-05
3.11298e-05
0.000127722
0.000187884
0.000219065
0.000214188
0.000189774
0.000155135
0.000117318
8.3526e-05
5.8674e-05
4.43827e-05
3.61986e-05
3.11322e-05
0.000134373
0.000193399
0.000224555
0.00021907
0.000193456
0.000157479
0.000118584
8.40543e-05
5.88983e-05
4.44423e-05
3.62189e-05
3.11237e-05
0.000140313
0.00019861
0.00022993
0.000223942
0.000197164
0.000159945
0.000119933
8.46691e-05
5.91533e-05
4.45294e-05
3.6249e-05
3.11305e-05
0.000145554
0.000203577
0.000235197
0.000228844
0.000201015
0.000162492
0.000121371
8.53379e-05
5.9452e-05
4.46447e-05
3.6298e-05
3.11368e-05
0.000150351
0.000208263
0.000240365
0.000233722
0.000204912
0.0001651
0.000122933
8.60844e-05
5.97702e-05
4.47699e-05
3.63486e-05
3.11592e-05
0.000154809
0.000212708
0.000245439
0.000238628
0.000208862
0.000167839
0.000124536
8.68872e-05
6.01505e-05
4.49207e-05
3.64178e-05
3.11697e-05
0.000158887
0.00021702
0.000250416
0.000243503
0.000212896
0.000170691
0.000126267
8.77508e-05
6.05339e-05
4.50817e-05
3.64889e-05
3.11918e-05
0.000162634
0.000221075
0.000255305
0.000248386
0.000216974
0.000173589
0.000128027
8.86848e-05
6.09719e-05
4.52598e-05
3.65708e-05
3.12233e-05
0.000166154
0.000225006
0.000260103
0.000253249
0.000221132
0.000176568
0.000129914
8.96574e-05
6.14115e-05
4.54563e-05
3.66563e-05
3.12574e-05
0.0001695
0.000228754
0.000264812
0.000258126
0.000225371
0.000179695
0.000131856
9.06985e-05
6.18993e-05
4.56639e-05
3.67516e-05
3.13002e-05
0.000172678
0.000232326
0.000269436
0.000262969
0.000229623
0.000182891
0.000133856
9.17643e-05
6.2409e-05
4.58862e-05
3.68549e-05
3.13389e-05
0.000175582
0.000235748
0.00027398
0.000267813
0.000233923
0.000186127
0.000135996
9.29116e-05
6.29491e-05
4.61257e-05
3.69611e-05
3.13818e-05
0.000178347
0.000239085
0.000278433
0.000272612
0.000238322
0.000189473
0.000138143
9.41156e-05
6.35057e-05
4.63713e-05
3.70748e-05
3.14208e-05
0.000181043
0.000242243
0.000282809
0.000277414
0.000242691
0.000192908
0.000140422
9.53558e-05
6.40984e-05
4.66339e-05
3.71949e-05
3.14661e-05
0.000183609
0.000245351
0.0002871
0.000282213
0.000247186
0.000196415
0.000142756
9.66667e-05
6.47274e-05
4.68994e-05
3.73155e-05
3.15129e-05
0.000186032
0.000248291
0.000291317
0.000286969
0.000251677
0.000200009
0.000145192
9.80508e-05
6.53886e-05
4.71932e-05
3.74512e-05
3.15627e-05
0.000188348
0.000251152
0.000295457
0.000291704
0.00025618
0.000203648
0.000147681
9.94623e-05
6.60666e-05
4.74927e-05
3.75809e-05
3.16097e-05
0.000190532
0.000253954
0.000299522
0.0002964
0.000260798
0.000207386
0.000150258
0.000100949
6.67842e-05
4.7799e-05
3.77241e-05
3.16679e-05
0.000192678
0.000256631
0.000303514
0.000301086
0.000265353
0.000211224
0.000152945
0.000102477
6.75144e-05
4.81307e-05
3.78683e-05
3.17211e-05
0.000194678
0.000259198
0.000307436
0.000305715
0.000270018
0.000215113
0.000155672
0.000104109
6.82927e-05
4.84688e-05
3.80198e-05
3.17745e-05
0.000196642
0.000261717
0.000311286
0.000310335
0.000274685
0.000219173
0.000158519
0.000105785
6.91021e-05
4.88217e-05
3.8178e-05
3.18341e-05
0.000198506
0.00026413
0.000315068
0.000314931
0.000279387
0.000223173
0.000161469
0.000107507
6.99555e-05
4.91824e-05
3.83447e-05
3.18944e-05
0.000200357
0.000266464
0.00031879
0.000319513
0.000284075
0.000227358
0.000164471
0.000109344
7.08329e-05
4.9575e-05
3.85104e-05
3.19614e-05
0.000202144
0.000268777
0.000322446
0.000324031
0.000288832
0.000231567
0.000167589
0.000111218
7.17576e-05
4.99724e-05
3.86856e-05
3.20272e-05
0.000203778
0.000271043
0.000326037
0.000328504
0.000293602
0.000235866
0.000170817
0.00011319
7.27237e-05
5.03891e-05
3.88699e-05
3.20981e-05
0.000205392
0.000273162
0.000329573
0.000332987
0.000298363
0.000240191
0.000174154
0.000115204
7.37393e-05
5.08133e-05
3.90593e-05
3.21636e-05
0.000206906
0.000275265
0.000333047
0.000337415
0.000303219
0.000244617
0.00017754
0.000117312
7.47795e-05
5.12715e-05
3.92506e-05
3.22399e-05
0.000208318
0.000277342
0.000336458
0.000341821
0.000307985
0.00024913
0.000181043
0.000119514
7.5874e-05
5.17384e-05
3.94515e-05
3.23169e-05
0.000209719
0.000279343
0.000339821
0.000346172
0.000312847
0.000253736
0.000184602
0.000121812
7.70251e-05
5.22286e-05
3.96614e-05
3.23965e-05
0.000211151
0.000281271
0.000343129
0.000350501
0.000317675
0.000258356
0.000188346
0.000124215
7.82353e-05
5.27285e-05
3.9881e-05
3.24814e-05
0.000212408
0.000283129
0.000346381
0.000354811
0.000322533
0.000263064
0.00019214
0.000126673
7.94776e-05
5.32677e-05
4.01103e-05
3.25701e-05
0.000213623
0.000284975
0.000349589
0.000359063
0.000327355
0.000267853
0.000196059
0.00012924
8.07838e-05
5.38182e-05
4.0342e-05
3.26632e-05
0.000214845
0.000286746
0.000352743
0.000363295
0.000332265
0.000272655
0.000200024
0.000131914
8.2158e-05
5.43964e-05
4.05927e-05
3.27559e-05
0.000215905
0.000288514
0.000355841
0.000367505
0.000337133
0.000277539
0.000204184
0.000134654
8.36017e-05
5.50044e-05
4.08462e-05
3.28527e-05
0.000216943
0.000290142
0.000358905
0.000371687
0.000342023
0.000282503
0.000208391
0.000137565
8.51203e-05
5.56435e-05
4.1111e-05
3.29624e-05
0.000218056
0.00029187
0.00036192
0.000375814
0.000346871
0.000287541
0.000212727
0.000140541
8.66834e-05
5.63147e-05
4.1389e-05
3.30711e-05
0.000218987
0.000293463
0.000364889
0.000379921
0.000351742
0.000292652
0.00021719
0.000143644
8.83266e-05
5.70025e-05
4.16786e-05
3.31871e-05
0.000219858
0.000295038
0.000367803
0.000384008
0.000356633
0.000297753
0.000221696
0.00014687
9.00561e-05
5.77452e-05
4.19743e-05
3.33055e-05
0.000220798
0.000296556
0.00037069
0.000388066
0.000361543
0.00030293
0.000226408
0.000150174
9.18744e-05
5.85084e-05
4.2283e-05
3.34294e-05
0.000221586
0.000298033
0.000373535
0.000392075
0.000366463
0.00030818
0.000231161
0.000153674
9.37887e-05
5.93132e-05
4.26176e-05
3.35653e-05
0.000222359
0.000299527
0.000376357
0.000396059
0.000371334
0.000313415
0.000236033
0.000157251
9.57635e-05
6.0161e-05
4.2958e-05
3.37041e-05
0.00022303
0.000300944
0.000379109
0.000400023
0.000376222
0.000318797
0.000240951
0.000160967
9.7884e-05
6.10376e-05
4.3316e-05
3.38549e-05
0.000223724
0.000302294
0.000381841
0.00040394
0.000381118
0.000324161
0.000246078
0.000164834
0.000100074
6.19842e-05
4.36924e-05
3.40066e-05
0.000224391
0.000303603
0.000384531
0.000407839
0.000386019
0.000329592
0.000251238
0.000168848
0.000102379
6.29629e-05
4.40883e-05
3.41622e-05
0.000224969
0.000304938
0.000387175
0.000411716
0.00039087
0.000335075
0.00025652
0.000172941
0.000104802
6.40123e-05
4.4501e-05
3.43352e-05
0.00022547
0.000306227
0.000389809
0.000415568
0.000395734
0.000340531
0.000261919
0.000177223
0.000107376
6.51259e-05
4.49323e-05
3.4525e-05
0.000225962
0.000307453
0.000392402
0.000419395
0.000400612
0.000346125
0.000267427
0.000181619
0.000110018
6.62711e-05
4.53939e-05
3.47124e-05
0.000226414
0.000308708
0.000394953
0.000423183
0.000405493
0.000351687
0.000272977
0.000186179
0.000112821
6.75596e-05
4.58902e-05
3.49238e-05
0.000226798
0.00030991
0.000397466
0.000426953
0.000410376
0.000357283
0.000278591
0.000190808
0.000115789
6.88921e-05
4.6424e-05
3.51338e-05
0.000227202
0.000311061
0.000399975
0.000430699
0.000415206
0.000362863
0.000284299
0.000195705
0.000118933
7.03875e-05
4.69733e-05
3.53606e-05
0.000227585
0.000312181
0.000402448
0.000434417
0.000420028
0.000368448
0.00029002
0.000200665
0.000122162
7.19336e-05
4.75931e-05
3.56163e-05
0.000227895
0.00031334
0.000404882
0.000438105
0.000424811
0.000374049
0.000295915
0.000205789
0.00012567
7.36014e-05
4.82614e-05
3.58809e-05
0.000228154
0.000314407
0.000407229
0.000441749
0.000429567
0.000379672
0.000301812
0.000211078
0.000129267
7.53968e-05
4.89523e-05
3.61604e-05
0.000228341
0.000315445
0.00040961
0.000445341
0.000434312
0.000385311
0.000307877
0.000216429
0.000133056
7.72619e-05
4.96991e-05
3.64495e-05
0.00022846
0.000316519
0.000412007
0.000448926
0.000439009
0.000390912
0.000313925
0.000222042
0.00013714
7.93442e-05
5.05404e-05
3.67745e-05
0.000228552
0.000317518
0.000414251
0.000452457
0.000443691
0.000396529
0.000319971
0.000227812
0.000141323
8.15819e-05
5.14172e-05
3.71303e-05
0.000228701
0.000318593
0.00041655
0.000455941
0.000448347
0.000402152
0.000326176
0.000233634
0.000145708
8.39091e-05
5.23685e-05
3.75094e-05
0.000228784
0.00031955
0.000418797
0.000459418
0.000452968
0.000407786
0.000332447
0.000239611
0.000150195
8.64854e-05
5.34039e-05
3.79002e-05
0.000228785
0.000320526
0.000420977
0.000462813
0.000457562
0.000413428
0.000338697
0.000245729
0.000155001
8.91637e-05
5.45255e-05
3.83439e-05
0.000228777
0.000321455
0.000423111
0.000466205
0.000462129
0.000419073
0.00034501
0.000251992
0.000160012
9.20344e-05
5.57449e-05
3.88188e-05
0.000228694
0.000322349
0.000425295
0.000469552
0.000466673
0.000424674
0.000351379
0.000258396
0.000165123
9.51037e-05
5.70711e-05
3.93174e-05
0.000228616
0.000323294
0.000427419
0.000472863
0.000471185
0.000430279
0.000357805
0.000264831
0.000170447
9.8383e-05
5.84667e-05
3.98534e-05
0.000228563
0.000324226
0.000429486
0.000476129
0.000475675
0.000435888
0.000364277
0.000271502
0.000176097
0.000101879
6.00372e-05
4.04666e-05
0.000228455
0.000325092
0.00043151
0.000479396
0.000480137
0.000441498
0.0003708
0.000278202
0.000181843
0.000105601
6.17478e-05
4.11068e-05
0.000228261
0.000325912
0.000433568
0.00048258
0.000484572
0.00044711
0.000377291
0.000285124
0.000187807
0.000109556
6.35537e-05
4.18135e-05
0.000227982
0.000326669
0.000435473
0.000485768
0.000488979
0.000452717
0.000383905
0.000292062
0.000193981
0.000113746
6.55798e-05
4.26084e-05
0.000227664
0.000327442
0.000437427
0.000488923
0.000493366
0.000458287
0.00039048
0.000299113
0.000200364
0.000118085
6.7719e-05
4.34509e-05
0.000227353
0.000328191
0.000439347
0.000492077
0.00049772
0.000463891
0.000397098
0.000306275
0.000206839
0.000122771
7.00475e-05
4.43814e-05
0.000226999
0.000328917
0.000441309
0.000495146
0.000502056
0.000469455
0.000403752
0.000313536
0.000213639
0.000127612
7.26425e-05
4.53967e-05
0.000226524
0.000329536
0.000443102
0.000498224
0.000506365
0.000475016
0.000410441
0.000320808
0.00022063
0.000132826
7.53864e-05
4.65165e-05
0.000226037
0.000330207
0.000444956
0.000501248
0.000510643
0.000480574
0.000417157
0.000328281
0.000227712
0.00013819
7.83582e-05
4.77409e-05
0.00022556
0.000330845
0.000446757
0.000504242
0.000514915
0.000486095
0.000423837
0.000335742
0.000234987
0.000143824
8.15733e-05
4.9097e-05
0.000225022
0.000331426
0.000448498
0.000507194
0.000519146
0.000491641
0.000430614
0.000343391
0.000242571
0.000149844
8.50523e-05
5.05866e-05
0.000224426
0.000331958
0.000450189
0.000510103
0.000523356
0.000497155
0.000437355
0.000351032
0.000250226
0.000156021
8.88815e-05
5.22378e-05
0.000223752
0.000332472
0.000451952
0.000513037
0.000527547
0.000502688
0.000444125
0.000358757
0.000258063
0.000162482
9.28244e-05
5.40574e-05
0.000223047
0.00033299
0.00045355
0.000515927
0.000531714
0.000508187
0.000450978
0.000366567
0.000266079
0.000169214
9.71536e-05
5.60797e-05
0.000222358
0.000333494
0.000455193
0.000518724
0.000535854
0.000513683
0.00045779
0.000374451
0.000274268
0.000176224
0.000101786
5.83035e-05
0.000221598
0.000333917
0.000456792
0.000521595
0.000539969
0.000519174
0.00046457
0.000382406
0.000282625
0.000183407
0.000106734
6.07486e-05
0.00022074
0.000334275
0.000458339
0.000524356
0.000544056
0.000524652
0.000471434
0.000390437
0.000291136
0.000190993
0.000112011
6.34456e-05
0.0002199
0.000334738
0.000459938
0.000527092
0.000548137
0.000530103
0.000478316
0.000398534
0.000299701
0.000198849
0.000117621
6.63456e-05
0.000218968
0.000335058
0.000461485
0.000529842
0.000552169
0.000535568
0.000485167
0.000406606
0.000308529
0.000206981
0.000123468
6.95995e-05
0.000217942
0.000335401
0.000462973
0.000532548
0.000556199
0.000541003
0.000492085
0.000414833
0.000317403
0.000215258
0.000129764
7.31658e-05
0.000216966
0.000335798
0.000464398
0.000535209
0.0005602
0.000546433
0.000498972
0.000423033
0.000326518
0.000223933
0.000136411
7.70014e-05
0.000215922
0.000336006
0.000465758
0.000537821
0.000564172
0.000551853
0.000505876
0.000431302
0.000335668
0.000232756
0.000143305
8.12443e-05
0.000214703
0.000336111
0.000467056
0.000540388
0.000568113
0.000557263
0.000512797
0.00043963
0.000344953
0.000241848
0.000150681
8.58664e-05
0.000213437
0.000336281
0.000468429
0.00054299
0.000572048
0.000562662
0.000519732
0.000448014
0.000354371
0.000251317
0.000158322
9.07863e-05
0.000212159
0.000336428
0.000469754
0.000545536
0.000575934
0.000568039
0.000526679
0.000456452
0.000364016
0.000260913
0.000166321
9.61995e-05
0.000210916
0.000336654
0.000470996
0.000547974
0.000579811
0.000573416
0.0005336
0.000464944
0.000373577
0.000270746
0.000174809
0.000101944
0.000209593
0.000336695
0.000472201
0.000550509
0.000583662
0.00057877
0.000540576
0.000473478
0.000383361
0.000280834
0.000183551
0.000108205
0.00020817
0.000336782
0.000473456
0.000552918
0.00058748
0.000584115
0.000547525
0.000481992
0.000393251
0.000291152
0.000192674
0.000114796
0.000206721
0.000336847
0.00047463
0.000555281
0.000591265
0.000589445
0.000554482
0.000490625
0.00040325
0.000301692
0.000202167
0.000121839
0.000205204
0.000336831
0.00047564
0.000557662
0.000595019
0.00059476
0.000561455
0.000499236
0.000413258
0.000312441
0.000212029
0.000129444
0.000203563
0.000336755
0.000476839
0.000560002
0.00059877
0.00060006
0.000568434
0.00050789
0.000423463
0.0003234
0.000222265
0.000137408
0.000201862
0.000336705
0.000477827
0.000562288
0.000602487
0.000605343
0.000575418
0.000516593
0.000433677
0.000334454
0.000232849
0.000145825
0.000200154
0.000336583
0.000478752
0.000564524
0.000606161
0.000610606
0.000582409
0.000525335
0.000444067
0.000345828
0.000243802
0.00015472
0.00019838
0.000336428
0.000479757
0.000566781
0.000609801
0.000615857
0.000589375
0.000534119
0.000454466
0.000357287
0.000255099
0.000164188
0.000196474
0.000336188
0.000480668
0.000568895
0.000613402
0.000621083
0.000596375
0.000542938
0.000464956
0.000369038
0.000266755
0.000174014
0.000194506
0.000335978
0.0004815
0.00057104
0.000616999
0.000626291
0.000603353
0.000551736
0.000475536
0.000380862
0.000278634
0.000184323
0.000192514
0.000335738
0.000482384
0.000573113
0.00062052
0.00063148
0.000610329
0.000560623
0.000486201
0.000392863
0.000290966
0.000195131
0.000190413
0.000335377
0.000483055
0.000575122
0.000624033
0.000636637
0.00061731
0.000569492
0.000496871
0.000405035
0.000303511
0.000206415
0.000188206
0.000334971
0.000483802
0.000577153
0.000627504
0.000641776
0.000624287
0.000578389
0.000507699
0.000417373
0.000316481
0.000218071
0.000185865
0.000334486
0.000484482
0.000579124
0.000630968
0.000646892
0.000631242
0.000587318
0.000518533
0.000429874
0.000329642
0.000230334
0.000183414
0.000334024
0.000485151
0.00058094
0.000634328
0.000651971
0.000638208
0.000596273
0.000529513
0.000442528
0.000343209
0.000243059
0.000180919
0.000333489
0.000485632
0.000582851
0.000637682
0.00065702
0.000645151
0.000605254
0.000540493
0.000455325
0.000356952
0.00025622
0.000178412
0.000333005
0.000486159
0.000584585
0.000640927
0.000662034
0.000652082
0.00061425
0.000551544
0.000468173
0.000370966
0.000269737
0.00017577
0.000332328
0.000486576
0.000586269
0.000644214
0.000667027
0.000659004
0.000623226
0.000562649
0.000481244
0.00038524
0.00028383
0.000173006
0.000331737
0.000487031
0.00058796
0.000647376
0.000671955
0.000665907
0.000632224
0.00057382
0.000494361
0.000399773
0.000298178
0.000170132
0.000331006
0.000487258
0.000589544
0.000650477
0.000676854
0.000672784
0.000641268
0.000584994
0.00050761
0.00041446
0.000312929
0.000167184
0.000330295
0.000487537
0.000591122
0.000653575
0.000681729
0.000679636
0.000650279
0.000596277
0.000521048
0.000429485
0.000328226
0.000164083
0.000329379
0.000487694
0.000592519
0.000656582
0.000686526
0.000686465
0.000659274
0.000607557
0.00053445
0.000444721
0.000343715
0.000160798
0.000328446
0.000487738
0.000593904
0.000659498
0.000691264
0.000693255
0.000668296
0.000618925
0.000548057
0.000460075
0.000359619
0.000157365
0.000327422
0.000487794
0.000595196
0.000662381
0.000695963
0.000700011
0.000677295
0.00063028
0.000561751
0.000475646
0.000375817
0.000153852
0.000326459
0.000487712
0.000596363
0.000665113
0.000700581
0.000706717
0.000686306
0.000641678
0.000575529
0.000491397
0.000392221
0.000150255
0.000325417
0.00048753
0.000597493
0.000667802
0.000705126
0.000713379
0.00069528
0.00065307
0.000589336
0.000507409
0.00040902
0.000146454
0.000324271
0.000487302
0.000598404
0.000670375
0.000709609
0.000719981
0.000704228
0.000664528
0.000603261
0.000523441
0.000426048
0.000142387
0.000322944
0.000486783
0.000599248
0.000672829
0.000713985
0.000726521
0.000713138
0.000675963
0.000617253
0.000539736
0.000443567
0.000138115
0.00032157
0.00048626
0.000600024
0.000675182
0.000718214
0.000732972
0.00072202
0.000687447
0.000631329
0.000556175
0.000461598
0.00013365
0.000320137
0.000485656
0.000600537
0.000677377
0.000722375
0.000739336
0.000730844
0.000698895
0.000645472
0.000572714
0.000479747
0.00012886
0.000318468
0.000484699
0.000600919
0.000679379
0.000726348
0.000745598
0.00073961
0.000710315
0.000659663
0.000589476
0.000497942
0.000123774
0.000316749
0.000483633
0.000601046
0.000681166
0.000730177
0.000751725
0.00074829
0.00072175
0.000673865
0.000606271
0.000516546
0.000118365
0.000314877
0.000482412
0.000600974
0.000682752
0.000733785
0.000757687
0.000756873
0.000733118
0.000688096
0.000623175
0.000535192
0.000112547
0.000312819
0.000480683
0.000600507
0.000683986
0.000737109
0.000763448
0.000765314
0.000744446
0.000702353
0.00064018
0.000554191
0.0001061
0.000310272
0.000478565
0.000599517
0.000684754
0.000740078
0.000768962
0.000773588
0.000755666
0.000716604
0.00065723
0.000573326
9.87382e-05
0.000307257
0.000475648
0.000597794
0.000684953
0.0007426
0.000774118
0.000781629
0.000766764
0.000730821
0.000674454
0.000593282
9.01369e-05
0.000303321
0.000471581
0.000595014
0.000684223
0.00074442
0.00077878
0.000789355
0.000777675
0.000744956
0.000691703
0.000613518
7.93468e-05
0.000297362
0.000465451
0.000590467
0.000682159
0.000745277
0.000782776
0.000796629
0.000788314
0.000758957
0.00070894
0.000633679
6.01492e-05
0.000289166
0.000457184
0.000584419
0.000678906
0.0007452
0.000785979
0.000803141
0.000798191
0.000772216
0.000725511
0.000652961
1.97711e-05
8.45118e-05
0.000109606
0.000106956
8.95666e-05
7.224e-05
5.75225e-05
4.33775e-05
3.5496e-05
2.97515e-05
2.70216e-05
2.57941e-05
2.90825e-05
8.99253e-05
0.000112445
0.000107473
8.91777e-05
7.12707e-05
5.61647e-05
4.26586e-05
3.48675e-05
2.94987e-05
2.69144e-05
2.57261e-05
4.05849e-05
9.45115e-05
0.000114919
0.000108093
8.8946e-05
7.04719e-05
5.50626e-05
4.20196e-05
3.43402e-05
2.92785e-05
2.68174e-05
2.5663e-05
5.35811e-05
9.8687e-05
0.000117147
0.000108762
8.88206e-05
6.98048e-05
5.41439e-05
4.14493e-05
3.38903e-05
2.90844e-05
2.67297e-05
2.5612e-05
6.73704e-05
0.000102635
0.000119214
0.000109474
8.87774e-05
6.92397e-05
5.33604e-05
4.09377e-05
3.3502e-05
2.89116e-05
2.66484e-05
2.5555e-05
8.13984e-05
0.000106475
0.000121169
0.000110214
8.88007e-05
6.87589e-05
5.26809e-05
4.04755e-05
3.31618e-05
2.87558e-05
2.65732e-05
2.55075e-05
9.51313e-05
0.000110292
0.000123039
0.000110975
8.88723e-05
6.8344e-05
5.20848e-05
4.00548e-05
3.28594e-05
2.86142e-05
2.65021e-05
2.54565e-05
0.000108156
0.000114125
0.000124846
0.000111743
8.89777e-05
6.79814e-05
5.1551e-05
3.96677e-05
3.25879e-05
2.84839e-05
2.64349e-05
2.54129e-05
0.000120219
0.000117994
0.000126606
0.000112514
8.91078e-05
6.76569e-05
5.10669e-05
3.93097e-05
3.23411e-05
2.83622e-05
2.63694e-05
2.53624e-05
0.000131224
0.000121891
0.000128332
0.000113276
8.92531e-05
6.73626e-05
5.06212e-05
3.89739e-05
3.21131e-05
2.82477e-05
2.6306e-05
2.53177e-05
0.000141193
0.0001258
0.000130032
0.000114032
8.94043e-05
6.70906e-05
5.02058e-05
3.8658e-05
3.19014e-05
2.81388e-05
2.62446e-05
2.52764e-05
0.000150213
0.000129703
0.000131712
0.000114777
8.9558e-05
6.6834e-05
4.98139e-05
3.83576e-05
3.17022e-05
2.80346e-05
2.61839e-05
2.52331e-05
0.000158404
0.000133579
0.000133378
0.000115508
8.97068e-05
6.65874e-05
4.94401e-05
3.80703e-05
3.15134e-05
2.79332e-05
2.6123e-05
2.51864e-05
0.000165884
0.000137412
0.00013503
0.000116224
8.98493e-05
6.63444e-05
4.90799e-05
3.77923e-05
3.13326e-05
2.78348e-05
2.60627e-05
2.51428e-05
0.00017277
0.000141187
0.000136671
0.000116922
8.99823e-05
6.61056e-05
4.87303e-05
3.75234e-05
3.11585e-05
2.77382e-05
2.60025e-05
2.50985e-05
0.000179173
0.000144894
0.000138299
0.000117604
9.01033e-05
6.58662e-05
4.83887e-05
3.72614e-05
3.09903e-05
2.76435e-05
2.59428e-05
2.50577e-05
0.000185182
0.000148528
0.000139916
0.000118265
9.02075e-05
6.56219e-05
4.8054e-05
3.70056e-05
3.08269e-05
2.755e-05
2.58837e-05
2.50194e-05
0.000190866
0.000152084
0.000141518
0.000118912
9.02992e-05
6.5375e-05
4.77231e-05
3.67543e-05
3.0667e-05
2.74575e-05
2.58244e-05
2.49748e-05
0.000196292
0.000155561
0.000143105
0.000119536
9.03716e-05
6.51218e-05
4.73946e-05
3.65072e-05
3.05102e-05
2.73658e-05
2.57657e-05
2.49407e-05
0.000201503
0.00015896
0.000144681
0.000120142
9.04295e-05
6.48616e-05
4.70689e-05
3.62631e-05
3.03562e-05
2.72749e-05
2.5708e-05
2.49028e-05
0.000206529
0.000162281
0.00014624
0.000120727
9.04669e-05
6.45939e-05
4.67442e-05
3.60224e-05
3.02048e-05
2.71849e-05
2.56525e-05
2.48787e-05
0.000211415
0.000165529
0.000147781
0.000121298
9.04903e-05
6.43207e-05
4.64204e-05
3.57843e-05
3.00555e-05
2.70963e-05
2.55961e-05
2.48289e-05
0.000216179
0.000168706
0.00014931
0.000121851
9.04974e-05
6.40383e-05
4.60985e-05
3.55495e-05
2.99085e-05
2.70083e-05
2.55408e-05
2.48038e-05
0.000220842
0.000171818
0.000150821
0.000122386
9.04857e-05
6.3753e-05
4.57787e-05
3.53178e-05
2.97638e-05
2.69212e-05
2.54851e-05
2.47586e-05
0.000225407
0.000174865
0.000152318
0.000122908
9.04623e-05
6.34589e-05
4.54597e-05
3.50886e-05
2.96214e-05
2.68355e-05
2.54315e-05
2.47395e-05
0.000229902
0.000177857
0.000153801
0.000123414
9.04254e-05
6.31614e-05
4.51418e-05
3.48632e-05
2.94811e-05
2.67505e-05
2.53779e-05
2.47011e-05
0.000234328
0.000180797
0.000155268
0.000123912
9.03797e-05
6.2859e-05
4.48267e-05
3.46403e-05
2.93429e-05
2.66667e-05
2.53253e-05
2.46656e-05
0.000238691
0.00018369
0.000156728
0.000124396
9.03238e-05
6.25552e-05
4.4515e-05
3.44205e-05
2.92072e-05
2.65845e-05
2.52754e-05
2.46562e-05
0.000242988
0.000186536
0.000158178
0.000124878
9.026e-05
6.22497e-05
4.42063e-05
3.42054e-05
2.90739e-05
2.65038e-05
2.52262e-05
2.4625e-05
0.000247233
0.000189344
0.000159617
0.000125355
9.01915e-05
6.19461e-05
4.3904e-05
3.39943e-05
2.89437e-05
2.64248e-05
2.51782e-05
2.45961e-05
0.00025143
0.000192118
0.000161053
0.00012583
9.01212e-05
6.16442e-05
4.36055e-05
3.37888e-05
2.88168e-05
2.63482e-05
2.51336e-05
2.45906e-05
0.000255562
0.000194862
0.000162493
0.000126308
9.00549e-05
6.13483e-05
4.33154e-05
3.35881e-05
2.86933e-05
2.62736e-05
2.50897e-05
2.45659e-05
0.000259652
0.000197579
0.000163931
0.000126797
8.99963e-05
6.10584e-05
4.30322e-05
3.33934e-05
2.85737e-05
2.62015e-05
2.50481e-05
2.45442e-05
0.000263678
0.000200278
0.00016538
0.000127291
8.99453e-05
6.07789e-05
4.27584e-05
3.32057e-05
2.84578e-05
2.61317e-05
2.50093e-05
2.45314e-05
0.000267645
0.000202955
0.000166836
0.000127805
8.99058e-05
6.05101e-05
4.2495e-05
3.30244e-05
2.83463e-05
2.60652e-05
2.49732e-05
2.45248e-05
0.000271542
0.000205618
0.000168311
0.000128338
8.98824e-05
6.02586e-05
4.22432e-05
3.28506e-05
2.82392e-05
2.60017e-05
2.49376e-05
2.45033e-05
0.000275368
0.00020827
0.000169807
0.0001289
8.98854e-05
6.00206e-05
4.20032e-05
3.2685e-05
2.81371e-05
2.59413e-05
2.49049e-05
2.4506e-05
0.000279128
0.000210914
0.000171328
0.000129487
8.99092e-05
5.98054e-05
4.17784e-05
3.25285e-05
2.80401e-05
2.5884e-05
2.48733e-05
2.45011e-05
0.000282802
0.000213554
0.00017288
0.000130115
8.99652e-05
5.96112e-05
4.15678e-05
3.23805e-05
2.79485e-05
2.58299e-05
2.48444e-05
2.44964e-05
0.000286389
0.000216191
0.000174467
0.000130787
9.00581e-05
5.94428e-05
4.13737e-05
3.22421e-05
2.78621e-05
2.57781e-05
2.48184e-05
2.44873e-05
0.000289876
0.000218823
0.000176095
0.000131507
9.01894e-05
5.93031e-05
4.11974e-05
3.21146e-05
2.77819e-05
2.57311e-05
2.47938e-05
2.44764e-05
0.000293265
0.000221461
0.000177771
0.000132279
9.03671e-05
5.91929e-05
4.10401e-05
3.19972e-05
2.77076e-05
2.56874e-05
2.47698e-05
2.44564e-05
0.00029655
0.000224102
0.000179503
0.000133109
9.05924e-05
5.91169e-05
4.09029e-05
3.18914e-05
2.76395e-05
2.56459e-05
2.4745e-05
2.44412e-05
0.000299714
0.000226746
0.000181293
0.000134009
9.08734e-05
5.90775e-05
4.07868e-05
3.17971e-05
2.75775e-05
2.56086e-05
2.47199e-05
2.44223e-05
0.000302745
0.000229392
0.000183145
0.000134979
9.12109e-05
5.9075e-05
4.06914e-05
3.17139e-05
2.75221e-05
2.55732e-05
2.46937e-05
2.44181e-05
0.000305642
0.000232035
0.000185061
0.000136025
9.16128e-05
5.91138e-05
4.06199e-05
3.16431e-05
2.74725e-05
2.55406e-05
2.46677e-05
2.44006e-05
0.000308401
0.000234685
0.000187048
0.000137155
9.20798e-05
5.91963e-05
4.05709e-05
3.15846e-05
2.74293e-05
2.55122e-05
2.4644e-05
2.43861e-05
0.000311014
0.000237334
0.000189114
0.000138376
9.26201e-05
5.93248e-05
4.05476e-05
3.15391e-05
2.73929e-05
2.54861e-05
2.46255e-05
2.43883e-05
0.000313474
0.000239981
0.000191256
0.000139682
9.32371e-05
5.95014e-05
4.05485e-05
3.15059e-05
2.7363e-05
2.54633e-05
2.46082e-05
2.43739e-05
0.000315768
0.000242622
0.000193477
0.000141088
9.39305e-05
5.97257e-05
4.05762e-05
3.14859e-05
2.73393e-05
2.54438e-05
2.45938e-05
2.43742e-05
0.000317889
0.000245252
0.000195776
0.000142595
9.47074e-05
6.00016e-05
4.0629e-05
3.14782e-05
2.73222e-05
2.54276e-05
2.45802e-05
2.43591e-05
0.000319842
0.000247869
0.000198156
0.000144203
9.55668e-05
6.03305e-05
4.07084e-05
3.14839e-05
2.73114e-05
2.54146e-05
2.45695e-05
2.43611e-05
0.000321629
0.000250468
0.000200621
0.000145913
9.65149e-05
6.07117e-05
4.0816e-05
3.15024e-05
2.73071e-05
2.54058e-05
2.45598e-05
2.43474e-05
0.000323229
0.000253044
0.000203165
0.000147734
9.75542e-05
6.11511e-05
4.09497e-05
3.15337e-05
2.73089e-05
2.53981e-05
2.45523e-05
2.43509e-05
0.000324664
0.000255592
0.000205784
0.000149659
9.86824e-05
6.16452e-05
4.1111e-05
3.15777e-05
2.73168e-05
2.53945e-05
2.45464e-05
2.4351e-05
0.000325923
0.000258106
0.000208477
0.000151691
9.99008e-05
6.21949e-05
4.13001e-05
3.16343e-05
2.73307e-05
2.53939e-05
2.45422e-05
2.43546e-05
0.000327019
0.000260576
0.000211238
0.000153834
0.000101215
6.28061e-05
4.15171e-05
3.17035e-05
2.73506e-05
2.53961e-05
2.45391e-05
2.4356e-05
0.000327945
0.000263006
0.000214071
0.000156083
0.000102626
6.34751e-05
4.1761e-05
3.17856e-05
2.73763e-05
2.54012e-05
2.45373e-05
2.43594e-05
0.000328703
0.0002654
0.000216967
0.000158437
0.000104131
6.4205e-05
4.20345e-05
3.18794e-05
2.74076e-05
2.54081e-05
2.45365e-05
2.43617e-05
0.000329297
0.000267721
0.000219929
0.000160921
0.000105735
6.49974e-05
4.23364e-05
3.1986e-05
2.74444e-05
2.54186e-05
2.45366e-05
2.43643e-05
0.000329735
0.000269965
0.000222914
0.000163507
0.000107471
6.58704e-05
4.26662e-05
3.21042e-05
2.74869e-05
2.54317e-05
2.45375e-05
2.43662e-05
0.000330036
0.000272127
0.000225916
0.00016618
0.000109311
6.68329e-05
4.30485e-05
3.22428e-05
2.75376e-05
2.54475e-05
2.45389e-05
2.43677e-05
0.000330208
0.000274209
0.000228923
0.000168933
0.000111262
6.78789e-05
4.3478e-05
3.24041e-05
2.75976e-05
2.54682e-05
2.45438e-05
2.43686e-05
0.000330255
0.000276209
0.00023194
0.000171762
0.000113313
6.90078e-05
4.39525e-05
3.25841e-05
2.76676e-05
2.54938e-05
2.455e-05
2.43698e-05
0.000330188
0.000278128
0.000234952
0.000174669
0.000115463
7.02249e-05
4.44749e-05
3.27868e-05
2.77472e-05
2.55235e-05
2.45589e-05
2.43684e-05
0.00033001
0.00027996
0.000237959
0.000177635
0.000117708
7.15301e-05
4.50436e-05
3.3011e-05
2.78356e-05
2.5558e-05
2.457e-05
2.4362e-05
0.000329745
0.00028171
0.000240954
0.000180661
0.000120052
7.29179e-05
4.56617e-05
3.32556e-05
2.79342e-05
2.55965e-05
2.45833e-05
2.43541e-05
0.000329396
0.000283379
0.000243935
0.000183744
0.000122486
7.43881e-05
4.63302e-05
3.35224e-05
2.80416e-05
2.56398e-05
2.45986e-05
2.43422e-05
0.00032897
0.000284973
0.000246897
0.000186884
0.000125
7.59407e-05
4.70466e-05
3.38116e-05
2.81586e-05
2.56875e-05
2.4616e-05
2.43314e-05