/*--------------------------------*- C++ -*----------------------------------*\
| =========                 |                                                 |
| \\      /  F ield         | OpenFOAM: The Open Source CFD Toolbox           |
|  \\    /   O peration     | Version:  2.3.1                                 |
|   \\  /    A nd           | Web:      www.OpenFOAM.org                      |
|    \\/     M anipulation  |                                                 |
\*---------------------------------------------------------------------------*/
FoamFile
{
    version     2.0;
    format      ascii;
    class       volScalarField;
    location    "0.55";
    object      p;
}
// * * * * * * * * * * * * * * * * * * * * * * * * * * * * * * * * * * * * * //

dimensions      [0 2 -2 0 0 0 0];

internalField   nonuniform List<scalar> 
15166
(
-17.3006
-22.3281
-25.0977
-27.3081
-29.1869
-30.785
-32.2174
-33.4748
-34.5618
-35.3684
-36.1105
-36.6836
-22.0175
-24.5295
-25.8904
-27.5574
-29.1312
-30.5567
-31.861
-33.0399
-34.0716
-34.901
-35.6422
-36.2355
-27.2036
-28.0917
-28.367
-29.3023
-30.3001
-31.3153
-32.3143
-33.2463
-34.0955
-34.8212
-35.4663
-36.0036
-30.1793
-30.5914
-30.5862
-31.1467
-31.7381
-32.4066
-33.1109
-33.7985
-34.4491
-35.0278
-35.5471
-35.9757
-32.0475
-32.3021
-32.2764
-32.6762
-33.053
-33.5074
-34.0014
-34.4987
-34.9815
-35.4233
-35.8262
-36.1751
-33.6953
-33.8148
-33.7572
-34.0315
-34.2674
-34.5763
-34.9176
-35.2677
-35.6136
-35.936
-36.2324
-36.4947
-35.2855
-35.2855
-35.1785
-35.3315
-35.4486
-35.6362
-35.8508
-36.0775
-36.3058
-36.5207
-36.716
-36.8785
-36.7583
-36.6708
-36.5261
-36.5783
-36.5981
-36.6818
-36.7882
-36.909
-37.0351
-37.1555
-37.2636
-37.3503
-38.0958
-37.9423
-37.7742
-37.7494
-37.6946
-37.6942
-37.7115
-37.7433
-37.7825
-37.8211
-37.8537
-37.8711
-39.3183
-39.1116
-38.9278
-38.8427
-38.7306
-38.6627
-38.6075
-38.5658
-38.5319
-38.5003
-38.465
-38.4178
-40.4479
-40.1978
-40.0018
-39.8672
-39.7093
-39.5861
-39.4714
-39.3683
-39.2726
-39.1814
-39.0894
-38.9787
-41.5016
-41.2144
-41.0081
-40.8316
-40.6356
-40.466
-40.3015
-40.1466
-39.9985
-39.8561
-39.7187
-39.5753
-42.4867
-42.1684
-41.9535
-41.7412
-41.5134
-41.3041
-41.0974
-40.8983
-40.705
-40.5171
-40.3355
-40.1608
-43.4107
-43.0655
-42.8434
-42.6005
-42.3456
-42.1025
-41.8595
-41.6217
-41.3879
-41.1563
-40.9186
-40.6618
-44.2801
-43.9116
-43.683
-43.4135
-43.1354
-42.8633
-42.5893
-42.3187
-42.0514
-41.7898
-41.5367
-41.2737
-45.0999
-44.711
-44.4767
-44.1841
-43.886
-43.5889
-43.2884
-42.9899
-42.6936
-42.4017
-42.1189
-41.8425
-45.8745
-45.4679
-45.2284
-44.9154
-44.5999
-44.2808
-43.9572
-43.634
-43.3121
-42.9927
-42.679
-42.3771
-46.6087
-46.1857
-45.941
-45.6099
-45.2789
-44.9405
-44.5967
-44.252
-43.9081
-43.5661
-43.2276
-42.8988
-47.3042
-46.867
-46.6176
-46.2704
-45.9258
-45.5704
-45.2087
-44.845
-44.4815
-44.1205
-43.7637
-43.4144
-47.9646
-47.5145
-47.2607
-46.8988
-46.542
-46.1712
-45.7935
-45.4128
-45.0317
-44.653
-44.2798
-43.92
-48.592
-48.1301
-47.872
-47.4972
-47.1292
-46.7446
-46.3524
-45.9561
-45.5586
-45.1623
-44.7699
-44.3927
-49.1878
-48.7156
-48.4538
-48.0669
-47.6887
-47.2917
-46.8865
-46.476
-46.0633
-45.6505
-45.2372
-44.8317
-49.7574
-49.2738
-49.0076
-48.6097
-48.2225
-47.8142
-47.3972
-46.9742
-46.5487
-46.1236
-45.7
-45.2842
-50.298
-49.8043
-49.5348
-49.127
-48.7313
-48.3129
-47.8854
-47.4513
-47.0145
-46.5778
-46.1414
-45.7067
-50.8064
-50.3078
-50.036
-49.6194
-49.2162
-48.7887
-48.3519
-47.9079
-47.4606
-47.0131
-46.5668
-46.1207
-51.2963
-50.7888
-50.5132
-50.0882
-49.6783
-49.2425
-48.7973
-48.3442
-47.8875
-47.4303
-46.9737
-46.5153
-51.7616
-51.2461
-50.9678
-50.5349
-50.1186
-49.6752
-49.2222
-48.7609
-48.2958
-47.8306
-47.3683
-46.9037
-52.2043
-51.6805
-51.3997
-50.9597
-50.5377
-50.0873
-49.627
-49.1581
-48.685
-48.2107
-47.7383
-47.2692
-52.6202
-52.0924
-51.8101
-51.3634
-50.936
-50.4792
-50.0124
-49.5365
-49.0559
-48.5735
-48.0902
-47.6024
-53.0166
-52.4831
-52.1997
-51.7467
-51.3146
-50.8519
-50.3791
-49.8968
-49.4098
-48.9211
-48.4334
-47.9397
-53.3928
-52.8563
-52.5697
-52.1107
-51.6741
-51.206
-50.7277
-50.2396
-49.7466
-49.2519
-48.7581
-48.2578
-53.7527
-53.2111
-52.9211
-52.4559
-52.015
-51.5418
-51.0584
-50.565
-50.0666
-49.5662
-49.068
-48.5664
-54.0831
-53.5433
-53.252
-52.7818
-52.3371
-51.8594
-51.3715
-50.8733
-50.3697
-49.8634
-49.3577
-48.848
-54.4026
-53.8584
-53.5637
-53.0891
-52.6412
-52.1594
-51.6674
-51.1649
-50.657
-50.1466
-49.6375
-49.1278
-54.703
-54.1543
-53.858
-53.3786
-52.9275
-52.442
-51.9463
-51.4401
-50.9285
-50.4146
-49.9015
-49.3864
-54.9805
-54.4312
-54.134
-53.6505
-53.1966
-52.7075
-52.2083
-51.6985
-51.1835
-50.6669
-50.1531
-49.6393
-55.2422
-54.6906
-54.3929
-53.9048
-53.4483
-52.9559
-52.4533
-51.94
-51.4211
-50.8994
-50.379
-49.8644
-55.4918
-54.934
-54.6352
-54.1422
-53.6832
-53.1875
-52.6816
-52.1646
-51.6416
-51.1148
-50.5847
-50.0483
-55.7146
-55.1578
-54.8602
-54.3625
-53.9014
-53.4028
-52.8939
-52.3737
-51.8475
-51.3176
-50.7833
-50.224
-55.9293
-55.3662
-55.0689
-54.5659
-54.103
-53.6019
-53.0908
-52.5685
-52.0405
-51.5114
-50.9902
-50.4646
-56.121
-55.5566
-55.2605
-54.7523
-54.2886
-53.7852
-53.2721
-52.7475
-52.2168
-51.682
-51.1465
-50.6108
-56.2976
-55.7333
-55.4343
-54.9217
-54.4579
-53.9525
-53.4374
-52.9107
-52.3778
-51.8413
-51.305
-50.7626
-56.4627
-55.8948
-55.5922
-55.0756
-54.6116
-54.1042
-53.5873
-53.0588
-52.5241
-51.9861
-51.4482
-50.9008
-56.6026
-56.0383
-55.7358
-55.2127
-54.7502
-54.2408
-53.7224
-53.1922
-52.6558
-52.1161
-51.5783
-51.0373
-56.7343
-56.1669
-55.862
-55.3357
-54.8745
-54.3624
-53.8424
-53.3106
-52.7725
-52.2306
-51.689
-51.1428
-56.8436
-56.2774
-55.9708
-55.4439
-54.985
-54.4687
-53.9473
-53.4141
-52.8748
-52.3322
-51.7922
-51.2583
-56.9393
-56.3737
-56.0634
-55.5395
-55.0791
-54.5581
-54.037
-53.5028
-52.962
-52.4171
-51.8711
-51.3264
-57.0177
-56.4564
-56.1383
-55.6215
-55.1521
-54.6346
-54.1125
-53.5768
-53.035
-52.4896
-51.9449
-51.4088
-57.0839
-56.5232
-56.2
-55.6869
-55.2132
-54.6962
-54.173
-53.6364
-53.0936
-52.5471
-51.9991
-51.4535
-57.1337
-56.5752
-56.247
-55.7357
-55.2604
-54.7433
-54.2189
-53.6816
-53.138
-52.5909
-52.0439
-51.5062
-57.1641
-56.6092
-56.2797
-55.7692
-55.2926
-54.7755
-54.2503
-53.7123
-53.1679
-52.619
-52.0665
-51.5133
-57.1836
-56.6292
-56.2982
-55.7882
-55.3105
-54.7934
-54.2679
-53.7296
-53.1847
-52.6354
-52.0825
-51.5209
-57.1867
-56.6337
-56.3018
-55.792
-55.3137
-54.7971
-54.2715
-53.7336
-53.1895
-52.6425
-52.0972
-51.5502
-57.1708
-56.6231
-56.2904
-55.7813
-55.3027
-54.7863
-54.261
-53.7235
-53.1798
-52.6325
-52.0853
-51.5333
-57.1438
-56.5986
-56.2643
-55.7559
-55.2771
-54.7612
-54.236
-53.6988
-53.155
-52.6071
-52.0598
-51.5149
-57.1011
-56.5591
-56.2236
-55.716
-55.2372
-54.7218
-54.197
-53.66
-53.1164
-52.5683
-52.0185
-51.4667
-57.0482
-56.5043
-56.1683
-55.6616
-55.1829
-54.6682
-54.144
-53.6079
-53.0652
-52.5183
-51.9712
-51.4295
-56.9709
-56.4348
-56.0983
-55.5927
-55.1143
-54.6005
-54.0772
-53.5422
-53.0006
-52.4547
-51.906
-51.3484
-56.8881
-56.3503
-56.0136
-55.5093
-55.0315
-54.5187
-53.9964
-53.4628
-52.923
-52.3807
-51.8438
-51.3224
-56.7843
-56.2505
-55.9141
-55.411
-54.934
-54.4224
-53.9013
-53.3687
-52.8298
-52.2866
-51.7419
-51.2048
-56.6666
-56.1364
-55.8004
-55.2988
-54.8224
-54.3118
-53.7914
-53.2595
-52.7209
-52.1778
-51.6313
-51.0868
-56.5388
-56.0104
-55.6732
-55.1727
-54.697
-54.1874
-53.668
-53.137
-52.5991
-52.057
-51.5114
-50.9589
-56.3954
-55.868
-55.5313
-55.0321
-54.5574
-54.0492
-53.5312
-53.0018
-52.4657
-51.9259
-51.3866
-50.8517
-56.233
-55.7101
-55.3746
-54.8773
-54.4038
-53.8972
-53.3809
-52.8532
-52.3189
-51.7803
-51.2388
-50.6931
-56.0587
-55.5381
-55.2033
-54.7081
-54.2361
-53.7314
-53.2169
-52.6913
-52.1592
-51.6233
-51.0879
-50.5552
-55.8679
-55.3518
-55.0181
-54.5249
-54.0545
-53.5516
-53.0391
-52.5156
-51.9856
-51.4517
-50.9164
-50.3779
-55.6643
-55.1526
-54.8191
-54.3279
-53.859
-53.358
-52.8475
-52.3261
-51.7982
-51.2671
-50.7373
-50.2157
-55.4525
-54.9391
-54.6058
-54.1166
-53.6494
-53.1503
-52.6417
-52.1225
-51.5967
-51.0668
-50.5348
-50.004
-55.2133
-54.7079
-54.3771
-53.8909
-53.4256
-52.9288
-52.4224
-51.9054
-51.3821
-50.8551
-50.3288
-49.8177
-54.9653
-54.4638
-54.1347
-53.6508
-53.1877
-52.6932
-52.1892
-51.6745
-51.1538
-50.6291
-50.1021
-49.5826
-54.7052
-54.2075
-53.8786
-53.3975
-52.9361
-52.4438
-51.9423
-51.43
-50.9119
-50.3901
-49.8678
-49.3655
-54.431
-53.9352
-53.6083
-53.13
-52.671
-52.1808
-51.6814
-51.1718
-50.656
-50.1361
-49.6117
-49.0924
-54.1429
-53.6506
-53.3238
-52.8482
-52.3915
-51.9041
-51.4073
-50.9002
-50.387
-49.87
-49.3494
-48.8349
-53.833
-53.348
-53.0249
-52.5528
-52.0986
-51.6141
-51.1202
-50.6162
-50.1064
-49.5937
-49.08
-48.5781
-53.5114
-53.0318
-52.7112
-52.2427
-51.7915
-51.3101
-50.8194
-50.3187
-49.8122
-49.3024
-48.7893
-48.2798
-53.184
-52.7065
-52.3857
-51.9197
-51.4709
-50.9927
-50.5051
-50.0077
-49.5048
-48.9992
-48.4934
-48.003
-52.8369
-52.3641
-52.0454
-51.583
-51.1371
-50.6616
-50.1774
-49.6834
-49.1836
-48.6805
-48.1734
-47.669
-52.4757
-52.0061
-51.6901
-51.2315
-50.7889
-50.3169
-49.8358
-49.3455
-48.8496
-48.3511
-47.8518
-47.3683
-52.0992
-51.6352
-51.3211
-50.8661
-50.4267
-49.9582
-49.4809
-48.9942
-48.5022
-48.0076
-47.5098
-47.014
-51.7044
-51.248
-50.9371
-50.4866
-50.0505
-49.5858
-49.1122
-48.6292
-48.1417
-47.6517
-47.1632
-46.6924
-51.3007
-50.8486
-50.5398
-50.0933
-49.6607
-49.1998
-48.7299
-48.2506
-47.7665
-47.2792
-46.7883
-46.3099
-50.8841
-50.436
-50.1294
-49.6868
-49.2576
-48.8004
-48.334
-47.8585
-47.3779
-46.8936
-46.4036
-45.9147
-50.452
-50.0086
-49.7043
-49.2662
-48.8407
-48.3876
-47.9252
-47.4544
-46.9787
-46.5007
-46.021
-45.545
-50.0043
-49.5666
-49.2652
-48.8318
-48.4101
-47.9614
-47.5037
-47.0379
-46.5679
-46.0965
-45.6272
-45.1741
-49.5415
-49.1101
-48.8119
-48.3833
-47.9659
-47.5213
-47.0683
-46.6072
-46.1417
-45.6737
-45.2026
-44.737
-49.0634
-48.64
-48.3453
-47.9215
-47.5079
-47.0677
-46.6188
-46.1626
-45.7021
-45.2393
-44.7763
-44.3333
-48.5796
-48.1582
-47.8653
-47.4463
-47.0367
-46.6004
-46.1563
-45.7046
-45.2493
-44.7913
-44.3287
-43.8638
-48.0758
-47.6606
-47.371
-46.9573
-46.5516
-46.1202
-45.6803
-45.2342
-44.7848
-44.3344
-43.8854
-43.4527
-47.5561
-47.1478
-46.862
-46.4538
-46.0532
-45.626
-45.1915
-44.7506
-44.307
-43.8632
-43.4198
-42.9997
-47.0224
-46.6212
-46.3398
-45.9373
-45.541
-45.1189
-44.6887
-44.2529
-43.8148
-43.3755
-42.9348
-42.5179
-46.4759
-46.0809
-45.8032
-45.4065
-45.0152
-44.5979
-44.1727
-43.7416
-43.3088
-42.8748
-42.4331
-41.9907
-45.916
-45.5272
-45.2536
-44.8631
-44.4768
-44.0645
-43.6444
-43.2193
-42.7947
-42.3717
-41.9527
-41.5679
-45.3432
-44.9613
-44.6908
-44.3062
-43.925
-43.5182
-43.1036
-42.685
-42.2657
-41.8491
-41.4278
-41.0155
-44.7583
-44.3803
-44.1136
-43.7355
-43.3598
-42.9587
-42.5499
-42.1358
-41.7233
-41.3106
-40.8971
-40.504
-44.1527
-43.7844
-43.5224
-43.1504
-42.7804
-42.3857
-41.9823
-41.5752
-41.1669
-40.7612
-40.3525
-39.9463
-43.5424
-43.1773
-42.9172
-42.5511
-42.1873
-41.7992
-41.403
-41.0017
-40.6008
-40.2024
-39.8077
-39.4359
-42.917
-42.5564
-42.2992
-41.9384
-41.5807
-41.1999
-40.811
-40.4168
-40.0214
-39.6282
-39.2327
-38.8374
-42.2679
-41.9176
-41.6652
-41.3112
-40.9605
-40.5878
-40.2064
-39.8196
-39.4314
-39.0454
-38.6623
-38.3013
-41.6165
-41.2699
-41.0189
-40.6705
-40.3266
-39.9623
-39.5895
-39.2105
-38.8294
-38.4508
-38.0713
-37.6944
-40.9479
-40.6079
-40.3597
-40.0171
-39.6802
-39.3239
-38.9597
-38.5887
-38.2159
-37.8449
-37.4794
-37.1381
-40.2687
-39.9327
-39.687
-39.3502
-39.0195
-38.6718
-38.3161
-37.954
-37.5883
-37.223
-36.8556
-36.5
-39.5689
-39.2421
-39.0007
-38.6707
-38.347
-38.0069
-37.6601
-37.3065
-36.9495
-36.5925
-36.2342
-35.8847
-38.8594
-38.5392
-38.3031
-37.9801
-37.6626
-37.3309
-36.993
-36.6488
-36.3012
-35.9557
-35.614
-35.2884
-38.1396
-37.8261
-37.5937
-37.2778
-36.9672
-36.6427
-36.3139
-35.9788
-35.6408
-35.3033
-34.9686
-34.6557
-37.4031
-37.098
-36.8718
-36.563
-36.2591
-35.9425
-35.6216
-35.2957
-34.9664
-34.6363
-34.3041
-33.9815
-36.653
-36.3556
-36.1353
-35.8349
-35.5385
-35.2295
-34.9169
-34.6005
-34.2813
-33.9623
-33.6461
-33.3584
-35.8875
-35.6
-35.3855
-35.0941
-34.805
-34.5043
-34.2006
-33.8935
-33.584
-33.2737
-32.9607
-32.6534
-35.1137
-34.8322
-34.6235
-34.3407
-34.06
-33.7677
-33.473
-33.176
-32.8762
-32.5769
-32.2773
-31.9925
-34.3262
-34.0515
-33.8491
-33.5759
-33.3036
-33.0201
-32.7348
-32.4477
-32.1595
-31.8722
-31.5884
-31.3254
-33.5226
-33.2578
-33.0619
-32.798
-32.535
-32.2615
-31.9857
-31.7088
-31.4307
-31.154
-30.8761
-30.6042
-32.7104
-32.4527
-32.2631
-32.0091
-31.7555
-31.492
-31.2266
-30.9598
-30.6932
-30.4284
-30.1675
-29.9283
-31.8852
-31.636
-31.4529
-31.2085
-30.9646
-30.7117
-30.457
-30.2014
-29.9467
-29.6936
-29.4406
-29.2022
-31.0544
-30.8112
-30.6328
-30.3977
-30.1639
-29.9214
-29.678
-29.4341
-29.1918
-28.9543
-28.7214
-28.5237
-30.2113
-29.9748
-29.8012
-29.5759
-29.3521
-29.1214
-28.8887
-28.6563
-28.4258
-28.2002
-27.9792
-27.768
-29.3545
-29.1271
-28.9602
-28.7445
-28.5308
-28.3108
-28.0901
-27.8683
-27.6476
-27.4294
-27.2105
-26.9925
-28.4944
-28.2706
-28.1085
-27.9021
-27.6988
-27.4909
-27.2821
-27.0732
-26.8652
-26.6609
-26.4637
-26.2945
-27.6172
-27.4028
-27.2474
-27.0514
-26.8587
-26.6627
-26.4675
-26.2721
-26.0783
-25.888
-25.6993
-25.5164
-26.7344
-26.5273
-26.3775
-26.1914
-26.0101
-25.8275
-25.6459
-25.4659
-25.2871
-25.1127
-24.9447
-24.7998
-25.8425
-25.6448
-25.5011
-25.325
-25.1548
-24.9847
-24.8177
-24.6532
-24.4913
-24.3333
-24.1792
-24.0442
-24.9481
-24.7547
-24.6167
-24.4511
-24.2928
-24.1364
-23.984
-23.835
-23.69
-23.5499
-23.4164
-23.3194
-24.0433
-23.857
-23.7261
-23.5707
-23.4243
-23.2814
-23.1443
-23.0115
-22.8821
-22.7577
-22.6363
-22.5192
-23.1284
-22.9517
-22.8282
-22.6849
-22.5505
-22.422
-22.3003
-22.1837
-22.0708
-21.961
-21.8526
-21.7469
-22.2128
-22.0434
-21.9263
-21.7943
-21.6737
-21.5599
-21.4549
-21.3569
-21.2639
-21.1771
-21.101
-21.0633
-21.2947
-21.1307
-21.0209
-20.9009
-20.7939
-20.6965
-20.609
-20.5302
-20.4576
-20.39
-20.3244
-20.2678
-20.3688
-20.2135
-20.1117
-20.005
-19.9129
-19.8325
-19.7641
-19.7054
-19.654
-19.6083
-19.5678
-19.5573
-19.443
-19.295
-19.2007
-19.107
-19.0313
-18.9699
-18.9218
-18.8851
-18.8567
-18.834
-18.8122
-18.7972
-18.5175
-18.3752
-18.2894
-18.2103
-18.1521
-18.1116
-18.0862
-18.0736
-18.0707
-18.075
-18.0839
-18.1069
-17.5889
-17.4544
-17.3776
-17.3145
-17.2762
-17.2587
-17.2589
-17.2734
-17.2984
-17.3322
-17.3728
-17.4278
-16.6637
-16.535
-16.4682
-16.4229
-16.4069
-16.4157
-16.4444
-16.4879
-16.5424
-16.6049
-16.6748
-16.7637
-15.7377
-15.6172
-15.5619
-15.5375
-15.5482
-15.587
-15.6478
-15.7236
-15.8085
-15.8982
-15.9869
-16.0795
-14.816
-14.7017
-14.6614
-14.6629
-14.706
-14.7813
-14.8791
-14.9914
-15.1108
-15.2327
-15.3551
-15.4931
-13.8939
-13.7889
-13.7697
-13.8074
-13.8928
-14.0121
-14.1529
-14.3044
-14.46
-14.6146
-14.7629
-14.9116
-12.9677
-12.8765
-12.8943
-12.9857
-13.1275
-13.2995
-13.4877
-13.6814
-13.8729
-14.0582
-14.233
-14.4034
-12.0301
-11.9717
-12.0583
-12.2328
-12.4479
-12.6795
-12.9147
-13.1446
-13.3689
-13.5817
-13.7731
-13.9316
-11.0589
-11.1447
-11.3812
-11.6837
-11.98
-12.259
-12.5296
-12.7867
-13.0289
-13.27
-13.4686
-13.6511
-1.51139
9.70876
-10.3087
-19.2167
-19.857
-7.19982
-4.75732
32.75
-44.7909
-39.9602
-35.0474
-14.8551
16.5882
-41.246
1.38593
-6.75741
-41.2713
-30.5994
-30.0395
-6.48888
27.983
26.3248
17.7849
-16.1202
-0.857496
-10.8526
24.3649
0.646072
-42.5142
-37.8068
-42.4769
30.9145
9.58126
-34.656
16.7938
18.0435
33.6642
-30.8181
33.2344
-14.7596
2.3228
-1.99095
24.6823
-0.41996
33.4336
26.1242
19.0532
19.9917
33.3649
27.9716
18.7595
32.5677
30.9378
1.4909
-36.9589
9.41828
12.904
-2.36882
-31.574
0.921431
24.1693
30.3291
1.53636
-3.96683
17.5255
9.71184
-13.6888
30.4922
16.3351
-39.415
-37.0557
13.9388
33.1334
-13.2569
-15.493
2.61658
-44.3284
-1.67795
10.0152
28.8019
2.66435
-1.93251
33.914
32.5579
1.96514
-44.3985
-13.7145
0.9196
-39.5742
33.5431
27.987
-41.322
-0.226473
7.82808
34.3248
-4.18772
0.51624
-1.90759
-0.642119
-13.3461
-15.8567
14.5775
5.57204
8.91224
-1.70936
33.9714
1.83118
33.2503
-13.6621
0.35053
17.9789
-2.06976
30.5197
-7.73164
1.6869
15.6666
-19.9036
-6.20104
-45.7005
-33.3361
-10.6052
-21.5298
-42.0203
15.4072
-18.1224
-40.3271
-1.92276
11.6047
19.3705
1.03078
31.5958
1.40013
21.4163
8.8474
23.5182
10.7801
34.0285
-39.3997
31.5452
10.3897
-19.15
28.7193
27.1229
0.53822
30.8963
-37.1302
31.6715
-10.6841
-47.923
3.35601
0.321634
16.647
-1.66773
4.76342
22.1789
3.22724
31.8296
-1.35026
-41.7127
-14.5819
-22.0911
-6.3261
-30.1841
-15.0633
24.1412
26.3774
31.5947
34.3122
10.9011
1.48675
-38.1099
-18.0644
-36.9182
-19.2511
-1.10231
-41.2491
1.95427
32.391
25.2139
-36.982
31.0681
-32.2835
-7.56603
33.4017
6.30577
31.4887
3.49404
-1.70588
31.7775
1.62158
-40.3788
-1.74516
31.9151
-5.90097
32.0477
8.06047
26.9526
30.4002
2.3818
-61.4227
-47.5676
32.4142
34.3551
31.1708
32.8672
14.1223
-7.97472
-36.2495
-13.828
-15.9305
4.30738
-46.9818
33.4128
34.2282
1.93905
31.1852
-11.191
-13.1309
-63.532
30.5448
32.4364
-47.8291
33.5687
-3.23905
-3.26709
-39.9205
-44.807
-2.07338
-56.4295
20.0277
33.7385
-17.1119
-2.30154
-13.0084
-13.3752
27.4041
31.2411
-47.3668
-1.80726
32.8943
-33.3321
19.455
-40.7466
-45.9349
33.071
2.45066
19.8826
6.01825
-42.4815
31.3423
-40.1267
-13.3929
-40.3666
-71.5382
28.2598
-31.6904
0.094861
32.6677
-42.1992
33.4
-15.2349
27.0937
17.3274
-8.60969
-14.3258
27.5834
-46.58
32.7187
-3.68259
6.48094
0.177229
18.6138
-45.2877
33.0931
32.8854
-44.4151
21.8576
34.4528
34.2539
32.6633
32.6386
23.365
33.6995
33.1971
-25.4649
27.4654
-33.066
33.228
-50.0976
29.5071
32.6455
-42.3227
34.9562
34.9491
30.4558
32.0087
28.0431
30.7006
23.9776
34.247
29.0809
-0.74123
-10.8256
-37.566
22.3455
-46.5052
34.4992
1.55035
14.3868
16.6655
-27.9374
34.7071
3.44694
-50.9241
32.5037
24.3755
34.9042
-31.4227
2.01232
27.8128
22.046
-41.8218
-15.3305
69.7061
34.239
-30.7847
-26.2034
-2.31633
2.57497
34.7398
-4.08396
0.640551
-41.827
-2.27031
2.63709
4.24887
-1.70756
14.9906
2.15797
6.52431
-0.323101
33.0154
0.121616
29.3957
12.9122
31.6243
33.6237
-42.1354
-60.7299
-12.6695
-0.170172
-4.06268
13.8574
26.0112
34.797
-1.17879
-25.346
33.5388
-46.1392
-40.0124
30.1011
33.7028
-49.0018
-61.3693
21.2619
-21.6338
-3.18216
0.324702
-1.55285
0.707371
-29.7904
30.2467
33.9941
-33.1982
-41.7284
28.7305
33.1788
-48.2768
3.57207
-35.8023
-11.0464
-11.0819
-1.39275
33.1491
-67.0636
28.0378
-0.864911
21.7732
28.6232
19.7466
3.50477
-37.2322
-35.6887
30.765
30.2909
-3.02424
-55.7611
-2.80583
-33.8538
-26.8305
13.1528
-14.3694
-12.9807
14.1073
-43.4328
30.9288
-48.7961
-41.2344
31.3149
33.3119
-2.21853
-0.821433
1.55667
-49.2655
12.7162
28.7866
-62.5216
30.4042
30.6389
3.41163
0.202447
30.6394
1.69704
-3.00134
32.5318
0.583861
-21.6434
-47.3119
33.9102
0.580302
-14.0846
-11.2363
-31.4656
29.4253
-32.5514
1.96325
-41.4943
-37.3271
28.6094
-6.84192
34.5697
33.2528
12.9851
32.0709
8.54983
-14.4617
-6.82793
31.8917
27.0096
2.12663
-37.5277
29.7144
33.4661
10.746
-41.8303
28.3663
9.66306
34.798
34.233
-32.433
28.6086
-10.4219
22.8583
-4.52621
-50.1397
-28.1426
2.28269
29.3302
22.8505
33.354
-25.8524
33.6562
19.1353
0.823499
-38.0164
-46.7776
30.8413
1.99119
31.8788
-13.1549
0.11575
33.5103
33.2828
-23.2125
-20.629
30.208
34.1742
-6.22576
-19.4049
-42.8953
-22.353
0.9449
32.4125
-57.7275
-17.2724
30.5445
-23.7883
-1.02663
33.1338
33.928
-40.5084
31.0784
33.6241
2.4538
26.293
34.3916
22.9636
-48.3238
31.0994
-37.674
31.7015
-49.5385
-13.7814
-36.8351
2.00607
-15.7093
31.4397
-37.6454
-13.979
21.4094
15.8633
-12.5257
1.31243
31.5561
-0.69415
3.77199
-14.8049
33.681
30.2585
-38.9827
34.9539
-15.2388
-17.459
-37.282
-2.15894
25.9695
-47.4008
-36.3907
30.3884
-42.5659
-7.71212
-17.8141
-21.4707
-48.2459
-43.3064
-1.8293
-26.3766
1.95676
19.6123
9.06671
13.8134
-17.3914
28.4737
33.6715
-30.3884
26.2231
29.0596
-13.8717
0.00803956
-0.106169
16.6569
-13.4332
30.6453
-39.1193
-31.53
-25.9526
31.7888
0.499676
16.9993
27.6795
10.862
-49.676
24.3569
30.0031
30.3205
12.4573
0.449971
-9.38816
-2.67428
-36.0463
-36.1246
33.0709
-43.7469
4.2655
-45.8301
25.0433
33.0045
27.553
-43.9616
0.130175
-32.4616
1.30783
28.5277
-13.3958
32.2827
-36.7079
-0.087969
-46.0913
-40.8496
33.4608
1.83866
-0.660902
-26.66
-17.3393
11.7117
11.9938
8.30441
-12.797
-6.26469
7.62103
29.7406
-29.2461
-33.8717
-1.86129
0.820951
-44.4464
34.1617
32.6956
33.5987
10.7179
29.3629
-6.83688
-30.6926
25.676
-1.78595
11.3482
30.2423
1.56014
14.4133
33.874
-50.3703
-50.7112
3.39486
-13.0619
29.1766
-49.737
19.3728
25.1678
32.2124
-2.12204
31.985
29.4067
23.5546
-22.1533
-9.39014
-0.321488
-48.2333
-50.9601
32.2003
-60.8102
4.45214
2.76266
-45.9054
-31.0122
10.4447
1.96409
-41.9242
-1.12057
-36.2997
31.7157
-31.2637
2.02349
-45.9067
-0.0556893
32.8856
-37.7954
33.5812
17.0764
25.4816
-48.4529
-1.14369
19.0926
-48.1164
31.7541
-36.8398
-3.98174
-40.3367
-17.9674
1.34484
2.35868
24.1739
-15.0296
32.2644
4.06473
-25.4103
34.2336
34.3041
-38.7187
23.5397
-38.4756
33.8133
27.4067
33.082
-2.17946
13.5333
-1.13199
1.50346
30.1589
2.13796
34.8894
-10.6979
-35.4079
1.4586
28.6793
34.1123
-37.1413
-5.31344
-26.7284
18.8935
-52.8008
-17.355
-28.6039
-40.6108
-1.86532
0.845036
33.2053
20.6278
34.3399
29.6526
3.82773
34.8362
34.9155
32.8925
-37.0522
-16.6339
32.8878
-0.533027
4.46274
-56.5858
33.4981
1.26157
15.1421
-38.4376
6.44654
-2.37119
-41.5413
2.05415
-26.6077
-57.9187
6.3501
32.1525
-1.61947
23.0341
32.7934
1.41697
-8.69821
-1.28429
7.34556
-9.47243
-52.4274
-32.0864
27.6011
29.3695
1.92138
-13.8775
-0.634754
-0.648474
-21.2374
14.8983
30.6167
16.5075
-43.6549
-2.86912
-109.938
-0.506627
-10.2911
33.0056
30.1056
-1.66017
31.6938
-17.4866
29.2847
-10.485
-42.7111
-43.9299
31.3883
-24.7436
-15.0095
17.3423
8.05726
27.3584
-58.0202
-13.3501
29.0358
0.119401
32.5601
-8.11893
-39.5387
-44.9466
-16.1661
-13.9821
-43.1439
-23.8662
6.08247
34.3736
29.1905
-12.408
7.35055
-3.33209
33.8417
-37.4053
-5.30667
-42.2568
-28.3796
25.943
24.2429
-48.3397
-11.1444
27.6852
-12.2069
-38.9231
-38.7164
0.209615
-43.2188
-15.7618
34.1372
32.4846
30.5674
0.113558
-10.7378
-2.82265
1.74866
2.38274
31.0467
23.1994
20.4824
-37.8737
0.66565
-43.7976
15.57
23.5982
1.95705
-38.5738
-4.19196
26.4399
-42.6961
23.7774
30.6365
28.5198
-2.12413
26.3505
-38.1645
10.2427
14.1346
31.9725
-39.9684
28.0088
16.0804
-15.3867
-13.9889
26.9793
-26.9054
-28.8921
30.875
0.417522
-50.6026
15.3055
12.6142
-9.05586
-58.3954
26.869
-0.42495
1.19824
-45.3469
29.9378
-48.6151
1.38823
-36.3589
-38.1921
33.7616
6.52059
33.5865
-29.9285
6.5618
29.328
-2.04942
-50.3317
34.0857
34.0222
34.6386
3.19284
1.99481
15.4298
-41.3326
-40.5931
-32.0411
0.323132
-14.3857
3.88939
12.7773
-39.7162
25.044
27.7165
28.0079
16.8942
33.3537
32.6238
-37.5234
0.00677735
34.2918
-32.3084
31.6937
1.15137
-41.6912
-4.33769
1.98093
4.47976
29.8319
-20.8228
-10.8186
26.3729
-54.7534
-4.7033
3.80047
16.3249
23.1412
-11.7449
27.9147
2.61427
-3.12749
-13.7405
13.9226
-12.9848
-40.9045
33.2475
-16.5741
22.2405
-35.6764
28.3166
30.4536
32.3705
-40.4959
31.8766
1.66871
32.8128
-10.5735
-2.26254
-41.3849
30.0153
21.1453
25.7234
-8.22028
-44.0122
-35.8614
-0.414617
34.1246
2.7392
33.19
-31.5344
33.2043
-2.0355
-45.3647
34.2538
-35.5546
33.1189
32.9915
-15.115
-29.5383
23.7313
0.626442
15.0992
34.9205
-1.37922
-48.2953
32.2826
-2.32816
-15.4475
10.6853
33.2677
33.6728
-31.4993
31.4343
32.6517
-10.2922
31.5617
27.0204
30.5855
31.2982
1.56161
-1.61599
-40.262
-6.00699
-38.8832
32.9995
-0.80838
-36.8727
33.2249
-2.27766
30.064
25.2497
31.1485
31.0625
18.4322
-41.1715
-38.1738
30.802
-33.1004
-21.2882
26.1204
33.8681
-45.5452
-30.7042
-38.5898
-21.5075
-15.8924
28.5316
-9.88269
-18.2689
-31.1188
-0.441733
-40.5814
33.0398
12.659
1.70923
-3.20559
-3.20672
31.5026
-2.11194
32.6855
-0.164253
31.7906
-7.4011
3.34942
-46.3819
33.7314
1.88261
31.4899
33.7561
-25.0792
27.0593
-17.8704
32.2716
-1.61898
30.3539
21.4524
2.92915
10.3907
34.4824
30.9577
-0.140357
2.31268
33.7329
2.32829
28.6956
-31.3627
-31.5378
31.335
-19.2652
18.8107
-100.842
-44.9355
33.5162
-53.7456
-41.4545
2.31053
31.1343
-43.0735
-44.4746
2.46811
26.4051
-1.20397
-7.25334
30.6221
-10.4833
-17.3585
6.32748
-13.8789
-62.0421
13.9523
-1.15862
25.0341
0.472779
10.4802
24.7294
-64.6493
24.6571
5.48183
-3.1569
-47.6632
26.8693
4.72173
7.88319
27.8752
24.5468
33.6665
34.7277
-15.0225
-1.39813
-13.6568
2.63323
39.3292
26.719
-87.8059
29.5237
-29.8724
1.10465
-50.7342
-0.330232
2.74623
11.6268
30.7687
31.6866
-48.1351
2.64202
-16.9665
-1.91355
27.2525
-48.2247
0.94942
32.9991
1.38635
1.10938
5.79053
16.4226
-13.2176
-40.6069
-22.1804
2.97837
-2.63348
31.3929
32.4265
32.1379
-44.8417
27.6006
31.3206
2.88154
11.4046
-35.2479
32.4821
-14.2188
14.104
1.29034
34.1249
-2.04982
31.9498
32.1904
-7.64906
-12.1771
33.2151
-16.4529
21.8003
1.67021
-35.9986
-40.7804
33.1618
-2.86254
-17.8751
-35.3425
-20.3007
23.3233
-38.7322
1.9566
1.53405
0.316501
-19.6484
33.9727
-47.0196
0.244665
34.861
-43.5485
29.7671
25.6963
-19.0921
14.1025
1.71593
20.504
30.4623
31.2485
-1.03901
-40.5276
-2.35406
-16.8487
-17.0922
-44.2259
21.6103
-39.8733
-41.5206
8.90323
14.5459
2.25747
-1.66521
6.32619
-12.6585
-7.3519
0.963856
-44.0438
33.3934
-0.583267
31.4929
-34.9022
3.53396
1.8954
-62.3626
31.4389
-35.7658
-20.8098
23.5532
30.2917
-27.0115
20.2103
-40.0723
33.0508
32.6474
34.7959
25.8432
33.7724
31.8041
-18.4933
33.7086
3.71746
33.3286
15.4463
28.4473
-22.903
29.3645
-32.9963
11.3403
34.4982
23.0345
34.2955
33.3732
34.6
-28.121
-3.82824
8.57863
2.09862
-20.3499
-39.3712
1.93389
-45.0928
2.5958
15.4198
32.8995
30.9633
-43.4651
-22.724
22.8401
-46.3383
-7.21142
34.5395
-2.81396
32.3633
-49.2544
0.775828
-15.9541
-4.19048
21.4195
32.2062
30.8649
25.3503
31.5584
-1.80277
21.1879
30.5593
-46.7156
5.89944
14.3472
29.3262
31.4847
-19.031
32.0481
-16.8396
-7.39606
-12.5814
1.21846
-8.95115
32.4807
-41.576
33.3065
29.7228
-26.7538
-30.0124
25.8106
1.44964
32.8997
1.24005
1.62775
-0.748825
16.037
32.1447
28.6414
-38.4427
33.0747
32.6658
6.31788
3.49975
26.5306
26.6301
19.8716
33.1018
-22.4576
33.5615
-0.838796
33.714
7.68996
7.34191
1.93172
-37.5707
-19.1511
28.7868
-26.2814
-42.051
-46.0021
2.01511
-40.1617
34.5441
33.833
-0.335556
-9.59837
28.0763
32.7309
-35.1129
31.8977
-1.74657
-37.1832
3.08951
32.3482
-16.321
31.1438
13.6595
-12.3287
-0.662333
43.5756
-0.893741
-45.0975
18.2032
3.31352
16.3238
30.7051
-1.39554
-0.602068
-1.90004
16.0585
32.9163
-25.9225
-3.49839
31.6103
25.0825
34.0989
1.85162
34.4752
25.9102
27.8125
-21.8929
33.673
-16.016
34.8269
-11.036
30.8283
32.2957
33.9252
-0.742672
26.0027
32.585
31.903
7.62458
0.81093
31.3788
23.9708
1.73463
-4.78638
-50.7258
0.913555
-37.1464
-45.3322
32.9798
33.5741
-27.2276
24.6969
-31.7016
-52.1811
-25.8374
-13.3712
-35.9554
34.7806
28.4327
-1.48648
33.8316
-5.61126
-0.816361
2.92487
-0.217514
1.89897
4.17681
-25.6963
-100.28
-31.4018
8.13071
-37.8194
29.118
-3.71379
30.9831
28.4089
-21.3938
27.1204
-43.4178
34.6849
24.7251
20.2514
-2.00246
2.23406
16.4976
21.3968
33.6455
32.8214
-44.0833
27.9063
30.9254
-9.00742
32.8817
33.3688
-1.13716
32.8032
-42.4151
4.05542
-18.5834
14.8397
-18.3168
33.0215
-32.1609
-15.9461
7.04737
-33.0325
5.31209
-10.4807
1.19719
-18.6879
-40.3559
-25.6269
-0.642043
-1.44468
25.6429
32.4812
-38.2125
31.237
-24.473
33.3051
32.1832
2.02428
33.6204
-1.26769
-33.1774
27.9864
-31.7773
24.2365
-49.5413
-16.0632
33.5936
33.8505
-50.5663
32.4906
-14.2881
34.6228
-38.7951
22.851
-31.6171
33.922
12.0564
5.4308
-41.0612
-32.2186
1.70964
-0.12251
-6.96312
-5.50424
34.4047
-0.920227
33.0507
30.2894
31.8843
-43.202
2.92393
-33.8317
30.4092
34.1806
32.1973
32.9079
-42.3676
-5.05128
1.62493
3.4362
-28.8581
2.90973
33.5274
31.342
5.20224
-17.6163
-35.9838
34.0544
33.0435
1.87952
31.2076
-27.0662
8.71782
11.5491
34.254
33.5293
-9.8534
26.5605
-1.45939
2.72856
34.64
7.32477
-19.6831
2.4618
32.5992
-9.88171
23.7489
-50.1422
16.226
-28.0632
-40.5659
6.4339
3.43943
-9.85563
0.808754
30.7838
33.4184
32.4242
-1.11692
22.8855
-27.9191
8.40291
-13.1705
-16.8179
-0.31487
2.12634
14.6183
-11.7768
0.710559
28.8858
4.03747
-46.0714
-5.95241
-7.49422
-22.5219
23.2174
13.9086
21.3906
-48.2612
12.3565
-1.91948
32.4547
30.9389
-40.3042
0.0218065
34.791
31.3383
-4.36345
32.1845
-28.2125
-26.5699
5.69201
26.4902
-9.29212
30.9012
-48.046
-40.1181
11.0574
-30.3664
-1.51734
33.5408
-1.83129
-23.4763
14.6269
31.2216
-27.8326
-38.2345
16.6819
-13.893
-0.801665
-32.9514
-10.6318
3.23256
-3.68605
34.1155
33.6553
25.1475
14.008
29.398
-6.39465
1.55665
2.42132
-40.4554
-15.2273
-36.2062
26.4183
33.6577
32.813
-21.2146
17.2454
2.79975
-1.24182
29.4113
-26.6826
-38.898
-14.5221
4.11056
-16.1146
20.4285
34.354
33.1889
-25.6309
34.4217
-40.6
-0.705288
4.19888
-17.5067
33.8109
-41.0118
32.8587
34.6816
8.05271
-48.85
-2.71047
31.6805
19.7981
20.005
-1.62023
21.5042
17.712
-37.6551
-32.9017
-1.00721
32.3836
-3.22189
33.5526
-42.977
-1.68167
21.155
-0.385514
29.3471
-26.3674
26.8762
-1.6443
29.5019
33.7635
31.6136
-38.4752
19.8947
-36.9303
3.58802
-14.4831
34.3239
-49.8685
-12.4295
-8.48703
-4.31649
33.6314
6.55467
-13.5649
1.34118
-24.4651
1.91261
7.58921
-0.0297975
-3.16346
-16.5778
-13.265
1.19632
-43.683
-17.3045
-26.1684
-38.023
-8.68096
-2.54004
34.3583
-6.49565
0.908966
-29.543
-11.0299
-43.9481
21.8634
-12.2811
10.523
-0.948521
-7.58367
-22.7076
20.4098
-36.066
-12.5891
-11.2207
-26.8768
33.6662
-41.0272
3.47624
-0.306998
-43.1531
-11.8299
12.1332
18.4378
1.48554
-40.527
5.66859
-30.6959
-40.4946
33.0124
-2.41887
34.4472
1.24172
-14.1451
31.3034
1.81778
34.4982
-30.0489
1.68795
32.8313
1.5784
13.663
15.0689
3.99188
-23.8247
29.111
-43.8129
-27.6027
-48.2652
11.8317
32.9906
29.8039
-42.3063
-17.0629
2.04831
-58.2852
23.7718
-43.6512
13.0173
-18.5111
0.253237
-2.66254
31.289
-14.6355
31.1362
-28.5351
31.318
-2.60097
1.9569
4.33093
22.5607
12.0505
-23.1008
-1.87961
-30.4943
32.0929
18.3101
-16.1677
-38.4872
0.220795
27.8973
0.856321
1.87358
30.9267
-41.2348
-25.5345
16.3905
-2.14361
-34.9916
-7.76315