/*--------------------------------*- C++ -*----------------------------------*\
| =========                 |                                                 |
| \\      /  F ield         | OpenFOAM: The Open Source CFD Toolbox           |
|  \\    /   O peration     | Version:  2.3.1                                 |
|   \\  /    A nd           | Web:      www.OpenFOAM.org                      |
|    \\/     M anipulation  |                                                 |
\*---------------------------------------------------------------------------*/
FoamFile
{
    version     2.0;
    format      ascii;
    class       surfaceScalarField;
    location    "0.55";
    object      phi;
}
// * * * * * * * * * * * * * * * * * * * * * * * * * * * * * * * * * * * * * //

dimensions      [0 3 -1 0 0 0 0];

internalField   nonuniform List<scalar> 
23326
(
-1.24121e-05
0.000111474
-9.9062e-05
-2.13163e-05
0.000126927
-0.000118023
-2.6946e-05
0.000141323
-0.000135693
-3.05846e-05
0.00015689
-0.000153251
-3.36998e-05
0.000169519
-0.000166404
-3.59011e-05
0.000181829
-0.000179627
-3.74097e-05
0.000192434
-0.000190925
-3.81787e-05
0.000201103
-0.000200334
-3.85689e-05
0.000207665
-0.000207274
-3.86262e-05
0.00021273
-0.000212673
-3.85352e-05
0.000216517
-0.000216608
0.000219262
-3.837e-05
-0.000219427
-6.91241e-06
0.000118386
-1.36665e-05
0.000133681
-1.96991e-05
0.000147356
-2.41778e-05
0.000161368
-2.78518e-05
0.000173193
-3.05645e-05
0.000184541
-3.24625e-05
0.000194332
-3.37159e-05
0.000202356
-3.45033e-05
0.000208452
-3.4957e-05
0.000213184
-3.51765e-05
0.000216736
0.000219355
-3.52692e-05
-5.58111e-06
0.000123968
-1.08776e-05
0.000138977
-1.58817e-05
0.00015236
-1.99842e-05
0.000165471
-2.35204e-05
0.00017673
-2.62846e-05
0.000187306
-2.8337e-05
0.000196384
-2.97958e-05
0.000203815
-3.08594e-05
0.000209516
-3.15885e-05
0.000213913
-3.20572e-05
0.000217205
0.000219721
-3.24228e-05
-4.70023e-06
0.000128668
-9.26895e-06
0.000143546
-1.35493e-05
0.00015664
-1.71624e-05
0.000169084
-2.03555e-05
0.000179923
-2.2951e-05
0.000189901
-2.50107e-05
0.000198444
-2.65504e-05
0.000205355
-2.77179e-05
0.000210683
-2.8617e-05
0.000214812
-2.92867e-05
0.000217874
0.000220284
-2.98499e-05
-3.84814e-06
0.000132516
-7.88319e-06
0.000147581
-1.16825e-05
0.000160439
-1.49526e-05
0.000172354
-1.78419e-05
0.000182812
-2.02862e-05
0.000192345
-2.22405e-05
0.000200398
-2.3781e-05
0.000206896
-2.50333e-05
0.000211935
-2.59731e-05
0.000215752
-2.67835e-05
0.000218685
0.000220929
-2.7429e-05
-3.20417e-06
0.00013572
-6.76428e-06
0.000151141
-1.01517e-05
0.000163827
-1.31254e-05
0.000175328
-1.58109e-05
0.000185498
-1.80421e-05
0.000194577
-1.99027e-05
0.000202259
-2.14383e-05
0.000208431
-2.26537e-05
0.000213151
-2.36708e-05
0.000216769
-2.452e-05
0.000219534
0.00022166
-2.52505e-05
-2.75735e-06
0.000138477
-5.91718e-06
0.000154301
-8.94691e-06
0.000166857
-1.16667e-05
0.000178048
-1.40836e-05
0.000187914
-1.61811e-05
0.000196674
-1.79384e-05
0.000204016
-1.93839e-05
0.000209877
-2.0613e-05
0.00021438
-2.16532e-05
0.000217809
-2.25605e-05
0.000220441
0.000222471
-2.33715e-05
-2.42375e-06
0.000140901
-5.26053e-06
0.000157138
-7.98432e-06
0.00016958
-1.04253e-05
0.000180489
-1.26574e-05
0.000190146
-1.45997e-05
0.000198617
-1.62563e-05
0.000205673
-1.76318e-05
0.000211252
-1.88402e-05
0.000215588
-1.98851e-05
0.000218854
-2.07875e-05
0.000221344
0.000223268
-2.15843e-05
-2.15844e-06
0.00014306
-4.73055e-06
0.00015971
-7.1992e-06
0.000172049
-9.45086e-06
0.00018274
-1.14819e-05
0.000192177
-1.32545e-05
0.000200389
-1.48057e-05
0.000207224
-1.61521e-05
0.000212599
-1.72957e-05
0.000216732
-1.83067e-05
0.000219865
-1.92085e-05
0.000222246
0.000224135
-2.00763e-05
-1.93472e-06
0.000144994
-4.27473e-06
0.00016205
-6.53168e-06
0.000174306
-8.59147e-06
0.0001848
-1.04817e-05
0.000194068
-1.21296e-05
0.000202037
-1.35605e-05
0.000208655
-1.48082e-05
0.000213846
-1.59359e-05
0.00021786
-1.69262e-05
0.000220856
-1.78243e-05
0.000223144
0.000224949
-1.86377e-05
-1.74889e-06
0.000146743
-3.89832e-06
0.0001642
-5.96616e-06
0.000176374
-7.8659e-06
0.0001867
-9.59572e-06
0.000195798
-1.11245e-05
0.000203566
-1.24702e-05
0.000210001
-1.36536e-05
0.00021503
-1.47151e-05
0.000218921
-1.5674e-05
0.000221814
-1.65863e-05
0.000224056
0.000225736
-1.73734e-05
-1.58505e-06
0.000148328
-3.55878e-06
0.000166173
-5.46303e-06
0.000178278
-7.24644e-06
0.000188483
-8.82474e-06
0.000197376
-1.02534e-05
0.000204994
-1.15136e-05
0.000211261
-1.26349e-05
0.000216151
-1.36464e-05
0.000219933
-1.45734e-05
0.000222741
-1.53932e-05
0.000224876
0.000226528
-1.61858e-05
-1.4471e-06
0.000149775
-3.26571e-06
0.000167992
-5.0368e-06
0.000180049
-6.67516e-06
0.000190122
-8.16979e-06
0.00019887
-9.5021e-06
0.000206327
-1.06623e-05
0.000212421
-1.1728e-05
0.000217217
-1.26697e-05
0.000220874
-1.35496e-05
0.000223621
-1.43545e-05
0.000225681
0.000227206
-1.50316e-05
-1.32815e-06
0.000151104
-3.03237e-06
0.000169696
-4.66421e-06
0.000181681
-6.17436e-06
0.000191632
-7.5667e-06
0.000200263
-8.79076e-06
0.000207551
-9.91203e-06
0.000213542
-1.0896e-05
0.000218201
-1.18227e-05
0.000221801
-1.26925e-05
0.000224491
-1.34965e-05
0.000226485
0.000228034
-1.43251e-05
-1.21785e-06
0.000152321
-2.78773e-06
0.000171266
-4.3335e-06
0.000183227
-5.74622e-06
0.000193045
-7.02681e-06
0.000201543
-8.20071e-06
0.000208725
-9.2316e-06
0.000214573
-1.01957e-05
0.000219165
-1.10291e-05
0.000222634
-1.1827e-05
0.000225289
-1.25913e-05
0.000227249
0.000228701
-1.32582e-05
-1.12188e-06
0.000153443
-2.58997e-06
0.000172734
-4.02064e-06
0.000184657
-5.33853e-06
0.000194363
-6.54259e-06
0.000202747
-7.62271e-06
0.000209805
-8.59899e-06
0.000215549
-9.48198e-06
0.000220048
-1.03319e-05
0.000223484
-1.11257e-05
0.000226083
-1.18471e-05
0.00022797
0.000229364
-1.25102e-05
-1.03622e-06
0.000154479
-2.39269e-06
0.000174091
-3.72963e-06
0.000185994
-4.97416e-06
0.000195607
-6.10257e-06
0.000203876
-7.12025e-06
0.000210823
-8.04061e-06
0.00021647
-8.91297e-06
0.00022092
-9.69344e-06
0.000224265
-1.04073e-05
0.000226797
-1.11036e-05
0.000228667
0.000230023
-1.17626e-05
-9.46917e-07
0.000155426
-2.22747e-06
0.000175371
-3.49215e-06
0.000187259
-4.66174e-06
0.000196777
-5.72516e-06
0.000204939
-6.68953e-06
0.000211787
-7.55839e-06
0.000217339
-8.30733e-06
0.000221669
-9.05911e-06
0.000225017
-9.76649e-06
0.000227504
-1.04393e-05
0.00022934
0.000230666
-1.10821e-05
-8.79466e-07
0.000156306
-2.08216e-06
0.000176574
-3.24929e-06
0.000188426
-4.35217e-06
0.00019788
-5.33046e-06
0.000205918
-6.23806e-06
0.000212694
-7.04141e-06
0.000218142
-7.83019e-06
0.000222458
-8.51744e-06
0.000225704
-9.19333e-06
0.00022818
-9.81243e-06
0.000229959
0.000231283
-1.04297e-05
-8.17938e-07
0.000157124
-1.92733e-06
0.000177683
-3.05053e-06
0.000189549
-4.06907e-06
0.000198898
-5.01989e-06
0.000206868
-5.85377e-06
0.000213528
-6.63778e-06
0.000218926
-7.33647e-06
0.000223156
-8.01713e-06
0.000226384
-8.60711e-06
0.00022877
-9.21781e-06
0.000230569
0.000231831
-9.76599e-06
-7.61798e-07
0.000157886
-1.80448e-06
0.000178726
-2.84394e-06
0.000190589
-3.80914e-06
0.000199863
-4.67797e-06
0.000207737
-5.4919e-06
0.000214342
-6.21025e-06
0.000219644
-6.87723e-06
0.000223823
-7.5002e-06
0.000227007
-8.1174e-06
0.000229387
-8.67612e-06
0.000231128
0.000232388
-9.23317e-06
-6.85607e-07
0.000158571
-1.66847e-06
0.000179709
-2.65425e-06
0.000191575
-3.58581e-06
0.000200795
-4.41114e-06
0.000208563
-5.13539e-06
0.000215067
-5.81745e-06
0.000220326
-6.4501e-06
0.000224456
-7.07384e-06
0.000227631
-7.64385e-06
0.000229957
-8.197e-06
0.000231681
0.000232911
-8.71945e-06
-6.44012e-07
0.000159215
-1.56713e-06
0.000180632
-2.49726e-06
0.000192505
-3.33508e-06
0.000201633
-4.11887e-06
0.000209346
-4.82409e-06
0.000215772
-5.47532e-06
0.000220978
-6.07561e-06
0.000225056
-6.64564e-06
0.000228201
-7.19276e-06
0.000230504
-7.71202e-06
0.000232201
0.000233415
-8.21617e-06
-5.83387e-07
0.000159799
-1.45066e-06
0.000181499
-2.33031e-06
0.000193384
-3.12273e-06
0.000202425
-3.86278e-06
0.000210086
-4.53477e-06
0.000216444
-5.15115e-06
0.000221594
-5.72602e-06
0.000225631
-6.24608e-06
0.000228721
-6.73789e-06
0.000230996
-7.24812e-06
0.000232711
0.000233913
-7.74572e-06
-5.38717e-07
0.000160337
-1.33778e-06
0.000182298
-2.17166e-06
0.000194218
-2.94666e-06
0.0002032
-3.62382e-06
0.000210764
-4.26181e-06
0.000217082
-4.82135e-06
0.000222153
-5.34484e-06
0.000226155
-5.86261e-06
0.000229239
-6.36598e-06
0.000231499
-6.82101e-06
0.000233166
0.00023439
-7.29799e-06
-5.06469e-07
0.000160844
-1.25581e-06
0.000183047
-2.02316e-06
0.000194986
-2.7586e-06
0.000203936
-3.4e-06
0.000211405
-3.97977e-06
0.000217662
-4.51051e-06
0.000222684
-5.03013e-06
0.000226674
-5.50291e-06
0.000229712
-5.95353e-06
0.00023195
-6.4285e-06
0.000233641
0.000234829
-6.86756e-06
-4.49596e-07
0.000161293
-1.15439e-06
0.000183752
-1.87995e-06
0.000195711
-2.55286e-06
0.000204608
-3.18526e-06
0.000212037
-3.73454e-06
0.000218211
-4.23814e-06
0.000223188
-4.70849e-06
0.000227145
-5.15533e-06
0.000230159
-5.61274e-06
0.000232407
-6.00003e-06
0.000234028
0.000235238
-6.40945e-06
-3.9981e-07
0.000161693
-1.08474e-06
0.000184437
-1.7692e-06
0.000196396
-2.3849e-06
0.000205224
-2.95735e-06
0.00021261
-3.4798e-06
0.000218733
-3.98155e-06
0.00022369
-4.40117e-06
0.000227564
-4.82656e-06
0.000230584
-5.23761e-06
0.000232818
-5.66534e-06
0.000234456
0.000235592
-6.01945e-06
-3.73447e-07
0.000162067
-9.90534e-07
0.000185054
-1.61828e-06
0.000197023
-2.24492e-06
0.000205851
-2.76659e-06
0.000213132
-3.25721e-06
0.000219224
-3.68334e-06
0.000224116
-4.13758e-06
0.000228019
-4.51345e-06
0.00023096
-4.90986e-06
0.000233215
-5.26895e-06
0.000234815
0.000236011
-5.68759e-06
-3.16891e-07
0.000162383
-8.81753e-07
0.000185619
-1.51769e-06
0.000197659
-2.0657e-06
0.000206399
-2.58168e-06
0.000213648
-3.02238e-06
0.000219665
-3.45189e-06
0.000224545
-3.8258e-06
0.000228392
-4.21423e-06
0.000231348
-4.55916e-06
0.00023356
-4.95394e-06
0.00023521
0.000236343
-5.2866e-06
-2.92922e-07
0.000162676
-8.41193e-07
0.000186167
-1.37529e-06
0.000198193
-1.91755e-06
0.000206941
-2.37843e-06
0.000214108
-2.82046e-06
0.000220107
-3.20261e-06
0.000224927
-3.58544e-06
0.000228775
-3.9229e-06
0.000231686
-4.2808e-06
0.000233918
-4.57975e-06
0.000235509
0.000236693
-4.92971e-06
-2.59615e-07
0.000162936
-7.41583e-07
0.000186649
-1.28779e-06
0.00019874
-1.75036e-06
0.000207404
-2.21218e-06
0.00021457
-2.60373e-06
0.000220498
-2.98678e-06
0.00022531
-3.29484e-06
0.000229083
-3.6456e-06
0.000232036
-3.95737e-06
0.000234229
-4.28681e-06
0.000235838
0.000236957
-4.55047e-06
-2.30761e-07
0.000163167
-6.63108e-07
0.000187082
-1.15446e-06
0.000199231
-1.63871e-06
0.000207888
-2.04965e-06
0.000214981
-2.41822e-06
0.000220867
-2.72829e-06
0.000225621
-3.07222e-06
0.000229427
-3.37435e-06
0.000232339
-3.67193e-06
0.000234527
-3.96768e-06
0.000236134
0.000237254
-4.26432e-06
-1.71208e-07
0.000163338
-6.12116e-07
0.000187523
-1.0741e-06
0.000199693
-1.48181e-06
0.000208296
-1.86791e-06
0.000215367
-2.2138e-06
0.000221213
-2.53058e-06
0.000225937
-2.82673e-06
0.000229723
-3.11356e-06
0.000232625
-3.36659e-06
0.00023478
-3.64366e-06
0.000236411
0.000237553
-3.94295e-06
-1.79515e-07
0.000163518
-5.41018e-07
0.000187884
-9.48721e-07
0.000200101
-1.3797e-06
0.000208727
-1.71491e-06
0.000215703
-2.01262e-06
0.00022151
-2.30922e-06
0.000226234
-2.58989e-06
0.000230004
-2.82927e-06
0.000232865
-3.09395e-06
0.000235045
-3.35982e-06
0.000236677
0.000237795
-3.60221e-06
-1.16088e-07
0.000163634
-4.72078e-07
0.00018824
-8.74569e-07
0.000200503
-1.20465e-06
0.000209057
-1.54368e-06
0.000216042
-1.84654e-06
0.000221813
-2.1219e-06
0.000226509
-2.35441e-06
0.000230237
-2.57679e-06
0.000233087
-2.82079e-06
0.000235289
-3.02921e-06
0.000236885
0.000238039
-3.27277e-06
-9.88063e-08
0.000163733
-4.01177e-07
0.000188543
-7.55042e-07
0.000200857
-1.10964e-06
0.000209411
-1.40089e-06
0.000216333
-1.65668e-06
0.000222069
-1.887e-06
0.00022674
-2.09965e-06
0.000230449
-2.33402e-06
0.000233322
-2.56052e-06
0.000235515
-2.75647e-06
0.000237081
0.000238218
-2.93573e-06
-6.88258e-08
0.000163801
-3.38931e-07
0.000188813
-6.62396e-07
0.00020118
-9.68711e-07
0.000209717
-1.23797e-06
0.000216602
-1.49923e-06
0.00022233
-1.71311e-06
0.000226954
-1.91118e-06
0.000230647
-2.10035e-06
0.000233511
-2.28857e-06
0.000235704
-2.4768e-06
0.000237269
0.000238406
-2.66408e-06
-3.07257e-08
0.000163832
-2.74283e-07
0.000189056
-5.73605e-07
0.00020148
-8.56535e-07
0.00021
-1.10492e-06
0.00021685
-1.29501e-06
0.00022252
-1.51595e-06
0.000227174
-1.69847e-06
0.00023083
-1.87584e-06
0.000233688
-2.02683e-06
0.000235855
-2.22171e-06
0.000237464
0.000238635
-2.45115e-06
-3.80035e-09
0.000163836
-2.16285e-07
0.000189269
-4.88707e-07
0.000201752
-7.47156e-07
0.000210259
-9.75035e-07
0.000217078
-1.17324e-06
0.000222718
-1.32342e-06
0.000227325
-1.46107e-06
0.000230968
-1.61924e-06
0.000233846
-1.77256e-06
0.000236008
-1.90803e-06
0.0002376
0.000238742
-2.01518e-06
6.5004e-09
0.00016383
-1.59111e-07
0.000189434
-4.04138e-07
0.000201997
-6.15029e-07
0.00021047
-8.22093e-07
0.000217285
-9.7353e-07
0.00022287
-1.13331e-06
0.000227484
-1.28231e-06
0.000231117
-1.39923e-06
0.000233963
-1.5465e-06
0.000236155
-1.67632e-06
0.00023773
0.000238918
-1.8521e-06
3.85556e-08
0.000163791
-9.62758e-08
0.000189569
-2.92896e-07
0.000202194
-5.09319e-07
0.000210686
-6.70267e-07
0.000217446
-8.32543e-07
0.000223032
-9.4766e-07
0.000227599
-1.05271e-06
0.000231222
-1.1839e-06
0.000234095
-1.28518e-06
0.000236256
-1.41633e-06
0.000237861
0.000239021
-1.5199e-06
6.25628e-08
0.000163729
-6.39174e-08
0.000189696
-2.38452e-07
0.000202368
-4.05672e-07
0.000210853
-5.48708e-07
0.000217589
-6.65167e-07
0.000223148
-7.64928e-07
0.000227699
-8.83328e-07
0.00023134
-9.70102e-07
0.000234181
-1.05874e-06
0.000236345
-1.15302e-06
0.000237955
0.000239124
-1.25551e-06
9.62183e-08
0.000163632
1.68205e-08
0.000189775
-1.28411e-07
0.000202514
-2.76577e-07
0.000211001
-4.01919e-07
0.000217714
-5.01324e-07
0.000223248
-5.84811e-07
0.000227783
-6.59886e-07
0.000231415
-7.32625e-07
0.000234254
-8.06533e-07
0.000236419
-8.80338e-07
0.000238029
0.000239193
-9.49711e-07
1.1998e-07
0.000163513
6.88627e-08
0.000189826
-4.99185e-08
0.000202632
-1.76918e-07
0.000211128
-2.84768e-07
0.000217822
-3.41366e-07
0.000223304
-4.08273e-07
0.00022785
-4.68254e-07
0.000231475
-5.27036e-07
0.000234313
-5.88562e-07
0.000236481
-6.59388e-07
0.0002381
0.000239285
-7.51611e-07
1.25904e-07
0.000163387
1.18622e-07
0.000189834
2.2898e-08
0.000202728
-6.02764e-08
0.000211212
-1.46297e-07
0.000217908
-2.10323e-07
0.000223368
-2.61702e-07
0.000227901
-2.78764e-07
0.000231492
-3.22113e-07
0.000234356
-3.39424e-07
0.000236498
-3.8267e-07
0.000238143
0.000239289
-3.86462e-07
1.73335e-07
0.000163213
1.65862e-07
0.000189841
1.19778e-07
0.000202774
3.18478e-08
0.000211299
-3.64367e-09
0.000217944
-5.34677e-08
0.000223418
-6.23042e-08
0.00022791
-9.23509e-08
0.000231522
-9.43501e-08
0.000234358
-1.28807e-07
0.000236532
-1.45861e-07
0.00023816
0.000239356
-2.12744e-07
1.83228e-07
0.00016303
2.2303e-07
0.000189801
1.69134e-07
0.000202828
1.28774e-07
0.00021134
1.03999e-07
0.000217968
9.88697e-08
0.000223423
7.88724e-08
0.00022793
9.16467e-08
0.000231509
1.03934e-07
0.000234346
1.1309e-07
0.000236523
9.17314e-08
0.000238181
0.000239341
1.06981e-07
2.07517e-07
0.000162823
2.46255e-07
0.000189763
2.63527e-07
0.000202811
2.44377e-07
0.000211359
2.12717e-07
0.000218
2.23494e-07
0.000223413
2.73389e-07
0.00022788
2.72932e-07
0.00023151
2.99404e-07
0.00023432
3.21181e-07
0.000236502
3.32841e-07
0.00023817
0.000239351
3.2238e-07
2.32409e-07
0.00016259
3.21081e-07
0.000189674
3.34785e-07
0.000202797
3.34461e-07
0.000211359
3.72275e-07
0.000217962
3.72793e-07
0.000223412
4.10704e-07
0.000227842
4.80193e-07
0.00023144
5.21045e-07
0.000234279
5.30046e-07
0.000236493
5.95504e-07
0.000238104
0.000239302
6.44517e-07
2.39586e-07
0.000162351
3.70378e-07
0.000189543
4.04637e-07
0.000202763
4.23289e-07
0.000211341
4.51351e-07
0.000217934
5.20753e-07
0.000223343
5.7304e-07
0.00022779
6.28375e-07
0.000231385
7.09534e-07
0.000234198
7.84604e-07
0.000236418
8.21098e-07
0.000238068
0.000239274
8.49402e-07
2.85008e-07
0.000162066
4.18258e-07
0.00018941
4.985e-07
0.000202683
5.36918e-07
0.000211302
6.08446e-07
0.000217863
6.6721e-07
0.000223284
7.61632e-07
0.000227695
8.30387e-07
0.000231316
8.94779e-07
0.000234133
9.50235e-07
0.000236362
1.01809e-06
0.000238
0.000239266
1.02628e-06
2.89273e-07
0.000161776
4.65766e-07
0.000189234
5.42891e-07
0.000202606
6.2461e-07
0.00021122
7.13058e-07
0.000217774
8.14014e-07
0.000223183
8.95483e-07
0.000227614
1.00645e-06
0.000231205
1.08618e-06
0.000234053
1.1884e-06
0.00023626
1.28651e-06
0.000237902
0.000239167
1.3855e-06
3.15989e-07
0.000161461
5.14489e-07
0.000189035
6.36263e-07
0.000202484
7.37397e-07
0.000211119
8.16245e-07
0.000217695
9.32864e-07
0.000223066
1.0569e-06
0.00022749
1.18265e-06
0.000231079
1.30439e-06
0.000233932
1.4197e-06
0.000236145
1.49607e-06
0.000237826
0.000239082
1.58109e-06
3.40532e-07
0.00016112
5.61458e-07
0.000188814
7.05363e-07
0.00020234
8.24269e-07
0.000211
9.46465e-07
0.000217573
1.07896e-06
0.000222934
1.21787e-06
0.000227351
1.35696e-06
0.00023094
1.49298e-06
0.000233796
1.62047e-06
0.000236017
1.74182e-06
0.000237704
0.000238955
1.86897e-06
3.66358e-07
0.000160754
6.09861e-07
0.000188571
7.73377e-07
0.000202176
9.11332e-07
0.000210862
1.07652e-06
0.000217408
1.22376e-06
0.000222786
1.37713e-06
0.000227197
1.53038e-06
0.000230787
1.70569e-06
0.00023362
1.84438e-06
0.000235879
1.96986e-06
0.000237579
0.00023885
2.07458e-06
3.69566e-07
0.000160384
6.56382e-07
0.000188284
8.41507e-07
0.000201991
1.02383e-06
0.00021068
1.17904e-06
0.000217253
1.34212e-06
0.000222623
1.53729e-06
0.000227002
1.7321e-06
0.000230592
1.86527e-06
0.000233487
2.04564e-06
0.000235698
2.19096e-06
0.000237433
0.000238664
2.37633e-06
4.16711e-07
0.000159967
7.03478e-07
0.000187997
9.343e-07
0.00020176
1.11056e-06
0.000210504
1.28353e-06
0.00021708
1.51596e-06
0.000222391
1.69877e-06
0.000226819
1.87877e-06
0.000230412
2.08058e-06
0.000233286
2.24183e-06
0.000235537
2.4339e-06
0.000237241
0.00023859
2.50777e-06
4.20927e-07
0.000159546
7.52816e-07
0.000187665
1.00408e-06
0.000201509
1.22332e-06
0.000210285
1.43983e-06
0.000216863
1.6083e-06
0.000222222
1.83233e-06
0.000226595
2.05741e-06
0.000230187
2.2748e-06
0.000233068
2.48684e-06
0.000235325
2.67134e-06
0.000237057
0.000238367
2.89489e-06
4.46707e-07
0.0001591
7.7754e-07
0.000187334
1.0482e-06
0.000201239
1.28626e-06
0.000210047
1.51902e-06
0.00021663
1.78305e-06
0.000221958
2.02386e-06
0.000226354
2.26222e-06
0.000229949
2.49714e-06
0.000232833
2.71982e-06
0.000235103
2.92831e-06
0.000236848
0.000238175
3.11976e-06
4.58846e-07
0.000158641
8.50803e-07
0.000186942
1.14297e-06
0.000200946
1.40012e-06
0.00020979
1.65153e-06
0.000216379
1.90313e-06
0.000221706
2.15809e-06
0.000226099
2.41086e-06
0.000229696
2.6834e-06
0.000232561
2.91896e-06
0.000234867
3.14306e-06
0.000236624
0.000237949
3.36932e-06
5.01452e-07
0.000158139
8.98932e-07
0.000186545
1.2133e-06
0.000200632
1.51484e-06
0.000209488
1.78068e-06
0.000216113
2.04927e-06
0.000221438
2.34589e-06
0.000225802
2.61211e-06
0.00022943
2.84225e-06
0.000232331
3.1161e-06
0.000234593
3.3429e-06
0.000236397
0.000237722
3.56958e-06
5.07504e-07
0.000157632
9.47797e-07
0.000186105
1.2814e-06
0.000200299
1.57687e-06
0.000209193
1.88661e-06
0.000215803
2.19711e-06
0.000221127
2.4796e-06
0.00022552
2.78721e-06
0.000229122
3.08686e-06
0.000232031
3.31989e-06
0.00023436
3.60143e-06
0.000236116
0.000237463
3.86073e-06
5.34084e-07
0.000157098
9.72557e-07
0.000185666
1.37837e-06
0.000199893
1.69176e-06
0.000208879
2.01911e-06
0.000215476
2.31732e-06
0.000220829
2.64467e-06
0.000225192
2.93873e-06
0.000228828
3.24946e-06
0.000231721
3.54836e-06
0.000234062
3.82661e-06
0.000235838
0.000237248
4.04147e-06
5.43731e-07
0.000156554
1.04665e-06
0.000185163
1.42399e-06
0.000199516
1.78214e-06
0.000208521
2.12666e-06
0.000215132
2.46857e-06
0.000220487
2.80955e-06
0.000224851
3.14373e-06
0.000228494
3.44454e-06
0.00023142
3.78559e-06
0.000233721
4.06369e-06
0.00023556
0.000236918
4.39333e-06
5.72799e-07
0.000155981
1.07602e-06
0.00018466
1.49585e-06
0.000199096
1.90045e-06
0.000208117
2.23471e-06
0.000214797
2.62106e-06
0.0002201
2.94829e-06
0.000224524
3.29289e-06
0.000228149
3.67506e-06
0.000231038
3.9703e-06
0.000233426
4.29966e-06
0.00023523
0.000236681
4.53646e-06
6.08399e-07
0.000155373
1.12833e-06
0.00018414
1.58991e-06
0.000198634
1.97437e-06
0.000207732
2.37337e-06
0.000214398
2.73989e-06
0.000219734
3.12555e-06
0.000224138
3.51811e-06
0.000227757
3.85234e-06
0.000230704
4.21441e-06
0.000233064
4.54668e-06
0.000234898
0.000236317
4.9104e-06
6.16406e-07
0.000154756
1.16667e-06
0.00018359
1.65058e-06
0.00019815
2.07065e-06
0.000207312
2.48684e-06
0.000213982
2.87526e-06
0.000219345
3.28737e-06
0.000223726
3.66512e-06
0.000227379
4.05982e-06
0.000230309
4.44063e-06
0.000232683
4.77044e-06
0.000234568
0.000236005
5.08273e-06
6.3975e-07
0.000154117
1.22699e-06
0.000183003
1.71573e-06
0.000197662
2.19679e-06
0.000206831
2.61418e-06
0.000213564
3.04148e-06
0.000218917
3.44676e-06
0.00022332
3.88952e-06
0.000226936
4.24381e-06
0.000229955
4.64076e-06
0.000232286
5.02578e-06
0.000234183
0.000235613
5.41764e-06
6.61795e-07
0.000153455
1.2741e-06
0.000182391
1.80192e-06
0.000197134
2.25891e-06
0.000206374
2.71241e-06
0.00021311
3.18664e-06
0.000218443
3.60212e-06
0.000222905
4.03789e-06
0.000226501
4.46165e-06
0.000229532
4.87156e-06
0.000231877
5.25461e-06
0.0002338
0.000235289
5.57849e-06
7.01082e-07
0.000152754
1.31402e-06
0.000181778
1.89061e-06
0.000196557
2.38887e-06
0.000205875
2.8395e-06
0.000212659
3.30455e-06
0.000217978
3.78699e-06
0.000222422
4.23814e-06
0.00022605
4.67707e-06
0.000229093
5.10335e-06
0.000231451
5.51868e-06
0.000233385
0.000234865
5.94166e-06
6.82078e-07
0.000152073
1.37968e-06
0.000181081
1.95375e-06
0.000195983
2.47331e-06
0.000205355
2.99089e-06
0.000212141
3.4466e-06
0.000217521
3.94753e-06
0.000221921
4.41338e-06
0.000225584
4.89189e-06
0.000228615
5.30384e-06
0.000231039
5.74874e-06
0.00023294
0.000234479
6.13467e-06
7.53337e-07
0.00015132
1.39348e-06
0.000180441
1.99213e-06
0.000195385
2.55654e-06
0.00020479
3.09325e-06
0.000211604
3.61733e-06
0.000216997
4.10727e-06
0.000221431
4.58725e-06
0.000225105
5.08105e-06
0.000228122
5.55592e-06
0.000230564
5.98337e-06
0.000232512
0.000234077
6.38555e-06
7.42032e-07
0.000150578
1.51035e-06
0.000179673
2.1318e-06
0.000194763
2.71828e-06
0.000204203
3.24902e-06
0.000211072
3.79065e-06
0.000216455
4.29684e-06
0.000220925
4.81948e-06
0.000224583
5.30169e-06
0.00022764
5.7953e-06
0.000230071
6.24647e-06
0.000232061
0.000233578
6.74538e-06
7.65241e-07
0.000149814
1.50682e-06
0.000178932
2.17013e-06
0.0001941
2.751e-06
0.000203622
3.353e-06
0.000210469
3.88544e-06
0.000215922
4.46018e-06
0.00022035
4.97132e-06
0.000224072
5.4951e-06
0.000227117
5.97311e-06
0.000229593
6.45261e-06
0.000231581
0.000233146
6.88379e-06
8.24204e-07
0.00014899
1.57611e-06
0.000178181
2.26479e-06
0.000193411
2.89161e-06
0.000202994
3.45641e-06
0.000209903
4.06206e-06
0.000215316
4.60082e-06
0.000219812
5.15445e-06
0.000223519
5.72115e-06
0.000226551
6.24456e-06
0.00022907
6.78436e-06
0.000231041
0.000232663
7.2675e-06
8.2366e-07
0.000148167
1.61558e-06
0.000177389
2.32767e-06
0.000192699
3.00658e-06
0.000202314
3.6197e-06
0.000209289
4.21e-06
0.000214725
4.82317e-06
0.000219199
5.39303e-06
0.00022295
5.92034e-06
0.000226025
6.45446e-06
0.000228537
6.96101e-06
0.000230535
0.00023218
7.44304e-06
8.18985e-07
0.000147349
1.66186e-06
0.000176547
2.42014e-06
0.00019194
3.0922e-06
0.000201641
3.75033e-06
0.00020863
4.36915e-06
0.000214105
4.9632e-06
0.000218605
5.54925e-06
0.000222364
6.15165e-06
0.000225423
6.73028e-06
0.000227958
7.26604e-06
0.000229999
0.000231642
7.80418e-06
8.82536e-07
0.000146468
1.72878e-06
0.000175701
2.49043e-06
0.000191179
3.2091e-06
0.000200922
3.86251e-06
0.000207975
4.52005e-06
0.000213447
5.13679e-06
0.000217988
5.79894e-06
0.000221703
6.35301e-06
0.00022487
6.95146e-06
0.00022736
7.51484e-06
0.000229435
0.000231163
7.99302e-06
8.9465e-07
0.000145574
1.77034e-06
0.000174826
2.58667e-06
0.000190362
3.29508e-06
0.000200213
4.00237e-06
0.000207267
4.67877e-06
0.00021277
5.31319e-06
0.000217354
5.96055e-06
0.000221056
6.62512e-06
0.000224206
7.20513e-06
0.000226781
7.77857e-06
0.000228862
0.000230535
8.40677e-06
9.1224e-07
0.000144663
1.85142e-06
0.000173888
2.65156e-06
0.000189562
3.42404e-06
0.000199439
4.14426e-06
0.000206545
4.8398e-06
0.000212073
5.51771e-06
0.000216676
6.15567e-06
0.000220419
6.82976e-06
0.000223533
7.46444e-06
0.000226146
8.06898e-06
0.000228257
0.000230004
8.59903e-06
9.43793e-07
0.00014372
1.86936e-06
0.000172963
2.75884e-06
0.000188672
3.54613e-06
0.000198651
4.31241e-06
0.000205778
4.96641e-06
0.000211418
5.69774e-06
0.000215945
6.37748e-06
0.00021974
7.0381e-06
0.000222873
7.6749e-06
0.00022551
8.28154e-06
0.00022765
0.000229369
8.91654e-06
9.63202e-07
0.000142758
1.91786e-06
0.000172009
2.82315e-06
0.000187767
3.63395e-06
0.000197839
4.39711e-06
0.000205013
5.16684e-06
0.000210648
5.88127e-06
0.00021523
6.60409e-06
0.000219018
7.25443e-06
0.000222224
7.93432e-06
0.000224831
8.55982e-06
0.000227025
0.000228787
9.14087e-06
9.89692e-07
0.00014177
1.98951e-06
0.00017101
2.89954e-06
0.000186857
3.75809e-06
0.000196979
4.55659e-06
0.000204213
5.33596e-06
0.000209868
6.09553e-06
0.000214471
6.81158e-06
0.000218303
7.53466e-06
0.000221502
8.18421e-06
0.000224182
8.9077e-06
0.000226301
0.000228135
9.55974e-06
1.01875e-06
0.000140752
2.04215e-06
0.000169988
2.97789e-06
0.000185921
3.89837e-06
0.000196057
4.69355e-06
0.000203416
5.46959e-06
0.000209091
6.28714e-06
0.000213654
7.02138e-06
0.00021757
7.73495e-06
0.00022079
8.47695e-06
0.00022344
9.13324e-06
0.000225645
0.00022754
9.72705e-06
1.05183e-06
0.000139702
2.10172e-06
0.000168939
3.11761e-06
0.000184905
3.96597e-06
0.000195207
4.82102e-06
0.00020256
5.68146e-06
0.000208229
6.41625e-06
0.00021292
7.26038e-06
0.000216728
8.018e-06
0.000220033
8.7659e-06
0.000222693
9.44274e-06
0.000224968
0.000226814
1.01685e-05
1.07115e-06
0.000138632
2.15811e-06
0.000167853
3.18429e-06
0.000183878
4.09564e-06
0.000194294
5.01379e-06
0.00020164
5.81831e-06
0.000207425
6.67739e-06
0.000212061
7.44967e-06
0.000215957
8.22329e-06
0.000219261
8.97031e-06
0.000221946
9.6771e-06
0.00022426
0.000226137
1.0353e-05
1.09631e-06
0.000137538
2.21083e-06
0.000166739
3.24375e-06
0.000182844
4.26637e-06
0.000193269
5.13067e-06
0.000200774
6.03716e-06
0.000206517
6.87804e-06
0.000211222
7.65455e-06
0.000215182
8.48918e-06
0.000218427
9.25738e-06
0.000221178
1.00402e-05
0.000223477
0.000225465
1.07109e-05
1.12105e-06
0.000136419
2.26842e-06
0.000165593
3.34947e-06
0.000181762
4.338e-06
0.000192279
5.30633e-06
0.000199802
6.22057e-06
0.000205603
7.08291e-06
0.000210361
7.92111e-06
0.000214347
8.73624e-06
0.000217614
9.55139e-06
0.000220363
1.03109e-05
0.000222716
0.000224714
1.106e-05
1.14833e-06
0.000135273
2.36323e-06
0.000164379
3.46927e-06
0.000180655
4.49192e-06
0.000191253
5.46926e-06
0.000198823
6.38155e-06
0.00020469
7.29074e-06
0.000209454
8.1922e-06
0.000213448
9.05131e-06
0.000216757
9.85661e-06
0.000219558
1.06606e-05
0.00022191
0.000223937
1.14334e-05
1.1748e-06
0.000134101
2.3848e-06
0.00016317
3.52428e-06
0.000179514
4.58941e-06
0.000190184
5.56762e-06
0.000197841
6.57041e-06
0.000203686
7.47513e-06
0.000208552
8.37811e-06
0.00021255
9.25235e-06
0.000215887
1.00638e-05
0.000218747
1.08461e-05
0.000221125
0.000223243
1.15364e-05
1.19861e-06
0.000132906
2.44361e-06
0.000161927
3.65855e-06
0.000178298
4.75024e-06
0.000189088
5.77824e-06
0.000196809
6.73864e-06
0.000202725
7.691e-06
0.000207602
8.64232e-06
0.000211603
9.55897e-06
0.000214973
1.04286e-05
0.000217879
1.12541e-05
0.000220296
0.000222357
1.21353e-05
1.2602e-06
0.000131649
2.53824e-06
0.000160651
3.75066e-06
0.000177084
4.87172e-06
0.000187962
5.9264e-06
0.000195749
6.93595e-06
0.000201714
7.93738e-06
0.000206604
8.90546e-06
0.000210639
9.78153e-06
0.000214102
1.07133e-05
0.000216947
1.15575e-05
0.000219449
0.000221531
1.23798e-05
1.24314e-06
0.000130409
2.59625e-06
0.0001593
3.84243e-06
0.000175837
5.00279e-06
0.000186797
6.14669e-06
0.0001946
7.13698e-06
0.000200722
8.15773e-06
0.000205585
9.15469e-06
0.000209648
1.00932e-05
0.000213166
1.10006e-05
0.000216042
1.18999e-05
0.000218547
0.000220652
1.27734e-05
1.30788e-06
0.000129105
2.65402e-06
0.000157956
3.93816e-06
0.000174551
5.17415e-06
0.000185557
6.23421e-06
0.000193535
7.36385e-06
0.00019959
8.41299e-06
0.000204539
9.38054e-06
0.000208684
1.03671e-05
0.000212186
1.13179e-05
0.000215093
1.22181e-05
0.000217645
0.000219822
1.30438e-05
1.32327e-06
0.000127785
2.70939e-06
0.000156572
4.03038e-06
0.00017323
5.2594e-06
0.000184323
6.46526e-06
0.000192325
7.55106e-06
0.000198502
8.62373e-06
0.000203467
9.66583e-06
0.000207647
1.0698e-05
0.000211158
1.16514e-05
0.000214143
1.26033e-05
0.000216692
0.000218859
1.35629e-05
1.37467e-06
0.000126412
2.8038e-06
0.000155145
4.16711e-06
0.000171866
5.4369e-06
0.000183051
6.62688e-06
0.000191131
7.7667e-06
0.00019736
8.88889e-06
0.000202345
9.95288e-06
0.000206586
1.09846e-05
0.000210131
1.19787e-05
0.000213152
1.29227e-05
0.000215747
0.000218025
1.37532e-05
1.36785e-06
0.000125046
2.86303e-06
0.000153651
4.26312e-06
0.000170466
5.57139e-06
0.00018174
6.84581e-06
0.000189853
8.0115e-06
0.000196191
9.0876e-06
0.000201269
1.02245e-05
0.000205452
1.12541e-05
0.000209106
1.22728e-05
0.000212136
1.32586e-05
0.00021476
0.000216987
1.42925e-05
1.45904e-06
0.000123586
2.9202e-06
0.000152192
4.3606e-06
0.000169027
5.75626e-06
0.000180345
6.9739e-06
0.000188633
8.22038e-06
0.000194942
9.36549e-06
0.000200122
1.0478e-05
0.00020434
1.1581e-05
0.000208008
1.26695e-05
0.00021105
1.36572e-05
0.000213771
0.000216116
1.45254e-05
1.44381e-06
0.000122141
3.01791e-06
0.000150618
4.50303e-06
0.000167544
5.89395e-06
0.000178956
7.24435e-06
0.000187282
8.43404e-06
0.000193749
9.67537e-06
0.000198878
1.08145e-05
0.000203202
1.19171e-05
0.000206907
1.2986e-05