/*--------------------------------*- C++ -*----------------------------------*\
| =========                 |                                                 |
| \\      /  F ield         | OpenFOAM: The Open Source CFD Toolbox           |
|  \\    /   O peration     | Version:  2.3.1                                 |
|   \\  /    A nd           | Web:      www.OpenFOAM.org                      |
|    \\/     M anipulation  |                                                 |
\*---------------------------------------------------------------------------*/
FoamFile
{
    version     2.0;
    format      ascii;
    class       volVectorField;
    location    "3860";
    object      D;
}
// * * * * * * * * * * * * * * * * * * * * * * * * * * * * * * * * * * * * * //

dimensions      [0 1 0 0 0 0 0];

internalField   nonuniform List<vector> 
11800
(
(9.8443e-06 0.000279281 0)
(-1.24244e-05 0.000311257 0)
(6.90503e-06 9.35326e-05 0)
(-7.87633e-06 0.000127437 0)
(-1.13505e-05 0.000310729 0)
(-5.10211e-06 0.000127688 0)
(-1.87832e-06 0.000209388 0)
(-1.78635e-06 0.000161208 0)
(8.22848e-07 2.45013e-05 0)
(1.50814e-06 9.70328e-05 0)
(1.09297e-05 0.000278619 0)
(-9.8117e-06 0.000108538 0)
(-9.49498e-09 -7.5602e-09 0)
(6.13755e-06 9.29649e-05 0)
(-6.98583e-06 0.000127976 0)
(6.68647e-06 1.50056e-05 0)
(-1.04956e-06 0.000208775 0)
(-1.016e-06 0.000160627 0)
(4.65788e-07 2.47738e-05 0)
(9.33546e-07 9.65496e-05 0)
(-6.00495e-06 0.000127215 0)
(-8.9904e-06 0.000108971 0)
(-1.46391e-06 5.2823e-06 0)
(-1.56267e-06 5.50155e-06 0)
(5.96904e-06 1.71479e-05 0)
(-2.34416e-06 8.77405e-06 0)
(-9.59474e-06 6.46067e-05 0)
(1.40068e-05 0.000187582 0)
(-8.53779e-06 4.89467e-05 0)
(-7.38054e-06 3.51464e-05 0)
(1.48406e-05 0.00023738 0)
(6.21551e-08 4.10943e-06 0)
(3.05848e-06 1.12898e-05 0)
(-7.55274e-06 0.000319427 0)
(6.13569e-06 0.000317985 0)
(-1.68966e-05 0.000253567 0)
(5.7161e-06 0.000319085 0)
(3.01041e-06 1.16083e-05 0)
(-1.83656e-06 0.000221203 0)
(1.51262e-06 0.000106607 0)
(-9.43447e-06 6.53339e-05 0)
(-8.40378e-06 4.95942e-05 0)
(1.36835e-05 0.000186504 0)
(-7.27341e-06 3.5713e-05 0)
(1.45114e-05 0.000236246 0)
(6.37862e-06 1.51252e-05 0)
(1.68697e-06 6.25858e-06 0)
(1.88044e-06 6.15863e-06 0)
(-2.88665e-06 0.000221393 0)
(2.35316e-06 0.000106758 0)
(-1.60458e-05 0.000163357 0)
(-1.71499e-05 0.000211552 0)
(-1.5742e-06 0.000276291 0)
(8.65036e-08 3.89916e-06 0)
(-8.19628e-06 1.78824e-05 0)
(1.10972e-06 9.17238e-07 0)
(-2.10864e-05 0.000323816 0)
(-5.28405e-06 9.00306e-05 0)
(6.05566e-06 0.000131469 0)
(-3.83853e-06 8.64736e-05 0)
(2.21795e-06 2.92935e-06 0)
(-2.7126e-06 0.000276499 0)
(-4.59426e-06 8.98263e-05 0)
(5.28095e-06 0.000131713 0)
(5.591e-06 1.68846e-05 0)
(-2.01322e-05 0.00028618 0)
(-1.66461e-05 0.00016264 0)
(-1.78524e-05 0.000210765 0)
(-2.00282e-05 0.000323293 0)
(-2.46013e-06 9.05985e-06 0)
(-6.7325e-06 0.000320325 0)
(-1.18878e-05 0.000318588 0)
(-1.22335e-05 0.000317454 0)
(-1.04633e-07 1.16432e-07 0)
(2.36847e-06 3.05553e-06 0)
(-1.59158e-05 0.000254279 0)
(7.33368e-06 2.37179e-05 0)
(-2.04589e-05 0.000287252 0)
(-1.62912e-05 0.000289684 0)
(-1.52202e-05 0.000290655 0)
(-7.81319e-06 1.76367e-05 0)
(1.20725e-06 0.000110715 0)
(1.12173e-05 0.000316089 0)
(1.00131e-05 0.000316285 0)
(-1.44155e-06 0.000113799 0)
(-7.09616e-06 3.95948e-05 0)
(1.34159e-05 0.000228737 0)
(-8.11438e-06 5.40293e-05 0)
(-9.04994e-06 7.02938e-05 0)
(1.26147e-05 0.000179395 0)
(-3.60986e-07 0.000270303 0)
(3.2505e-06 1.07306e-05 0)
(-1.0118e-05 0.000291556 0)
(2.09315e-05 0.0003263 0)
(3.31885e-06 0.000140465 0)
(-2.52966e-09 -1.92444e-09 0)
(6.54013e-11 -4.08902e-10 0)
(2.53088e-09 -1.92574e-09 0)
(-2.1337e-07 0.000279695 0)
(-9.31563e-06 0.000110948 0)
(1.80171e-05 0.000325131 0)
(1.08798e-05 0.000121944 0)
(-3.9425e-06 1.56961e-05 0)
(-8.87854e-07 1.21062e-05 0)
(-5.82374e-07 0.000309333 0)
(1.0877e-06 2.56333e-05 0)
(-2.29401e-06 0.000158841 0)
(-2.38597e-06 0.000206764 0)
(3.4466e-06 5.84895e-06 0)
(8.1857e-06 5.40058e-05 0)
(7.15918e-06 3.95738e-05 0)
(9.12955e-06 7.02672e-05 0)
(-1.35945e-05 0.000228765 0)
(-1.27846e-05 0.000179434 0)
(1.94645e-06 9.5049e-05 0)
(2.72751e-06 5.33171e-06 0)
(1.99659e-05 0.000287352 0)
(-8.16148e-06 0.000294977 0)
(2.77722e-06 5.13676e-06 0)
(-1.35865e-06 9.82443e-05 0)
(-8.11177e-07 2.38527e-05 0)
(1.828e-06 0.000210931 0)
(1.73481e-06 0.00016259 0)
(-2.51624e-06 0.000202254 0)
(-1.01841e-05 0.000292657 0)
(-8.87923e-07 0.000278821 0)
(-6.5411e-06 0.000309456 0)
(-1.51855e-06 0.000308613 0)
(-2.26287e-05 0.000334558 0)
(-2.34372e-05 0.000333748 0)
(-6.49736e-07 2.91929e-07 0)
(-2.95297e-06 6.91622e-06 0)
(1.37626e-05 0.000221922 0)
(-7.61977e-06 4.33034e-05 0)
(1.28923e-05 0.000172998 0)
(-8.6478e-06 5.82458e-05 0)
(-9.59138e-06 7.49769e-05 0)
(1.26989e-05 0.000222124 0)
(-7.02175e-06 4.31739e-05 0)
(1.18971e-05 0.000173185 0)
(-7.97105e-06 5.8102e-05 0)
(-8.84243e-06 7.48202e-05 0)
(-1.84823e-06 2.20881e-05 0)
(4.46137e-06 0.000214983 0)
(4.16159e-06 0.000166493 0)
(-3.52197e-06 0.000101461 0)
(1.71073e-05 0.000111411 0)
(-1.69946e-05 0.000108972 0)
(1.07024e-05 0.000122832 0)
(-1.24447e-06 1.28487e-05 0)
(-1.12634e-05 0.000269054 0)
(-1.1166e-05 0.000270482 0)
(5.50218e-06 0.000315548 0)
(-1.25968e-05 0.00025392 0)
(5.05223e-06 0.000179305 0)
(5.48255e-06 0.000228616 0)
(-1.40295e-05 0.000201377 0)
(-1.3009e-05 0.000153833 0)
(6.5664e-06 2.82594e-05 0)
(-1.02892e-06 0.000271318 0)
(3.74677e-06 5.95325e-06 0)
(-1.1512e-05 0.000254172 0)
(7.67655e-06 2.4062e-05 0)
(-5.12729e-06 7.31727e-05 0)
(-4.61313e-06 5.6608e-05 0)
(-4.05334e-06 4.18472e-05 0)
(7.02067e-06 0.000175251 0)
(7.48529e-06 0.000224337 0)
(-3.30472e-06 4.08556e-06 0)
(-6.01879e-06 2.71826e-05 0)
(1.30969e-05 0.000203613 0)
(1.21362e-05 0.00015593 0)
(2.92532e-06 0.000206536 0)
(-1.92487e-05 0.000252384 0)
(-1.94429e-05 0.0002539 0)
(6.87256e-06 1.71783e-05 0)
(6.88205e-06 1.76529e-05 0)
(7.57473e-06 5.24394e-05 0)
(8.46697e-06 6.85224e-05 0)
(6.60506e-06 3.81976e-05 0)
(-1.20242e-05 0.000181858 0)
(-1.27704e-05 0.00023136 0)
(5.1393e-06 0.000178179 0)
(5.51279e-06 0.000227457 0)
(5.58344e-06 0.000108532 0)
(-2.66565e-06 0.000101232 0)
(-1.4058e-06 2.22022e-05 0)
(3.37646e-06 0.000214694 0)
(3.14851e-06 0.000166223 0)
(-4.39017e-06 0.00026537 0)
(-1.47988e-06 4.63865e-05 0)
(-1.67039e-06 6.17491e-05 0)
(-1.65658e-05 0.000283975 0)
(-4.51895e-07 1.05398e-05 0)
(-1.59806e-05 0.000133604 0)
(1.37817e-05 8.84819e-05 0)
(1.59064e-07 1.51742e-07 0)
(-9.91483e-06 0.000319937 0)
(1.98266e-05 0.000288511 0)
(-5.66898e-07 3.38256e-07 0)
(1.30604e-05 0.000302415 0)
(1.63139e-05 0.000258386 0)
(1.74968e-05 0.000258598 0)
(-5.11183e-07 0.000310902 0)
(-1.32752e-06 0.0003119 0)
(9.21591e-06 8.63359e-05 0)
(8.14085e-06 8.67188e-05 0)
(-1.09018e-05 0.000135882 0)
(-9.60489e-06 0.000135404 0)
(6.40446e-07 2.87742e-07 0)
(-1.80245e-06 1.5421e-05 0)
(-2.02931e-06 8.58633e-06 0)
(-4.7412e-08 1.78279e-08 0)
(6.17929e-06 1.01792e-05 0)
(-1.47488e-07 4.68352e-08 0)
(8.02761e-07 8.43294e-06 0)
(-1.12458e-05 0.000309265 0)
(-5.4241e-06 3.86429e-05 0)
(-6.19883e-06 5.2963e-05 0)
(-6.9239e-06 6.91119e-05 0)
(1.03435e-05 0.000230436 0)
(9.76219e-06 0.000181009 0)
(6.68487e-07 0.000214296 0)
(6.21593e-07 0.000165847 0)
(-2.88054e-07 2.23612e-05 0)
(-5.48058e-07 0.000100929 0)
(-2.16373e-07 3.59295e-08 0)
(8.44536e-07 2.79696e-05 0)
(-1.69493e-06 0.000154123 0)
(-5.08621e-06 9.74791e-05 0)
(1.17808e-06 2.75582e-05 0)
(-2.38533e-06 0.000154941 0)
(-7.68626e-06 0.000292618 0)
(9.51155e-06 0.000109329 0)
(8.86131e-06 0.000108488 0)
(4.72062e-08 1.77501e-08 0)
(2.16021e-07 3.58569e-08 0)
(-1.49045e-05 0.000272323 0)
(-1.43384e-05 0.000273479 0)
(-1.40614e-05 9.25576e-05 0)
(1.58401e-05 0.000128833 0)
(1.26887e-05 0.000231261 0)
(1.19446e-05 0.000181771 0)
(-6.59544e-06 3.82536e-05 0)
(-7.56569e-06 5.24992e-05 0)
(-8.45628e-06 6.85893e-05 0)
(-4.57401e-07 0.000277703 0)
(-5.56144e-06 2.60039e-05 0)
(1.23818e-05 0.000206164 0)
(1.14914e-05 0.000158295 0)
(7.59711e-06 0.000110473 0)
(6.41566e-06 0.000261858 0)
(1.00747e-05 0.000326692 0)
(1.02719e-06 8.31059e-06 0)
(-3.72809e-06 8.73632e-05 0)
(-9.63933e-09 3.06856e-06 0)
(1.47066e-07 4.67021e-08 0)
(3.59353e-06 9.21909e-05 0)
(3.09246e-06 9.12267e-05 0)
(-3.89953e-06 0.000129069 0)
(-3.34093e-06 0.000130024 0)
(6.91971e-06 6.90914e-05 0)
(6.19505e-06 5.29446e-05 0)
(5.40755e-06 3.86335e-05 0)
(-9.78495e-06 0.00018101 0)
(-1.03976e-05 0.000230466 0)
(-5.50713e-06 0.000320033 0)
(1.86767e-06 2.26594e-06 0)
(2.05425e-09 0.000183832 0)
(-1.66332e-08 3.69905e-05 0)
(7.32559e-06 0.000308784 0)
(5.96786e-06 0.000107745 0)
(-2.32068e-05 0.000305118 0)
(6.85903e-06 0.000111272 0)
(2.66172e-07 1.94353e-07 0)
(1.90951e-05 0.000249259 0)
(1.92053e-05 0.000247856 0)
(-1.16716e-05 0.000158497 0)
(-1.25752e-05 0.000206375 0)
(-1.04269e-05 0.000158097 0)
(-1.12373e-05 0.000205947 0)
(5.61081e-06 2.59085e-05 0)
(5.03073e-06 2.60799e-05 0)
(5.6813e-06 0.000145564 0)
(6.7577e-06 0.000145395 0)
(6.16578e-06 0.000192416 0)
(7.3368e-06 0.00019223 0)
(-3.12606e-06 3.25256e-05 0)
(-3.72365e-06 3.26316e-05 0)
(-6.5434e-07 1.4614e-05 0)
(3.30553e-06 9.31685e-06 0)
(3.09448e-06 8.99414e-06 0)
(3.15719e-06 6.80528e-06 0)
(5.48606e-06 0.000262986 0)
(-1.89391e-05 0.000249719 0)
(-1.90403e-05 0.000248261 0)
(7.10072e-06 1.91891e-05 0)
(6.96058e-06 1.86414e-05 0)
(1.50106e-05 0.000111434 0)
(1.52133e-05 0.000112687 0)
(-1.48993e-05 0.000108885 0)
(-1.49775e-05 0.000107653 0)
(6.78744e-06 0.000315337 0)
(-1.85858e-05 0.000319456 0)
(-1.78658e-05 0.000268823 0)
(4.17329e-06 4.69773e-06 0)
(-1.0916e-05 0.00031544 0)
(-9.74731e-06 0.000314357 0)
(4.62263e-06 0.000147233 0)
(-2.86185e-06 0.000132283 0)
(2.54668e-06 8.93402e-05 0)
(-1.27794e-05 0.000111851 0)
(1.25211e-05 0.000108361 0)
(-6.03614e-06 1.88555e-05 0)
(-1.76601e-07 1.11786e-07 0)
(9.51901e-07 3.86219e-06 0)
(1.14657e-06 9.53509e-05 0)
(-1.07553e-05 9.60298e-05 0)
(1.15875e-05 0.000124689 0)
(-6.19119e-06 8.73988e-05 0)
(7.37223e-06 0.000134605 0)
(3.73725e-06 0.000234873 0)
(5.1562e-06 0.000234367 0)
(-2.19285e-06 5.02789e-05 0)
(-3.02781e-06 5.05829e-05 0)
(-2.45923e-06 6.61211e-05 0)
(-3.39405e-06 6.64602e-05 0)
(5.85523e-07 2.54576e-05 0)
(-1.25251e-06 0.000159198 0)
(-1.26916e-06 0.00020717 0)
(-2.05499e-06 0.000303638 0)
(2.88755e-06 6.76167e-06 0)
(-5.76543e-07 0.000128879 0)
(-8.82286e-06 0.000311272 0)
(1.19581e-06 9.51662e-07 0)
(7.89115e-06 0.000184714 0)
(-4.25887e-06 3.65834e-05 0)
(-1.33244e-05 0.000130249 0)
(-1.2514e-05 0.000129597 0)
(1.1644e-05 9.12493e-05 0)
(1.09764e-05 9.18051e-05 0)
(-1.32154e-05 0.00032463 0)
(-1.3361e-05 0.000323234 0)
(-2.16534e-06 1.47059e-05 0)
(-2.56777e-06 1.46502e-05 0)
(1.04218e-06 4.04824e-06 0)
(-2.46657e-06 4.20182e-06 0)
(6.24344e-07 0.000135259 0)
(3.80736e-06 2.63806e-05 0)
(3.20176e-06 2.65488e-05 0)
(-7.84456e-06 0.000157403 0)
(-6.57668e-06 0.00015703 0)
(-8.45665e-06 0.00020521 0)
(-7.09144e-06 0.00020481 0)
(-1.71425e-05 0.000260135 0)
(-1.58632e-05 0.000260239 0)
(-3.74782e-06 7.81692e-05 0)
(-3.46237e-06 6.11005e-05 0)
(-3.06474e-06 4.58132e-05 0)
(5.42529e-06 0.000242682 0)
(-9.2541e-07 0.000275 0)
(1.12657e-05 0.000108256 0)
(1.06672e-05 0.0001092 0)
(5.00386e-06 0.000209838 0)
(4.7834e-06 0.00016164 0)
(-2.23872e-06 2.43129e-05 0)
(2.10872e-06 2.72311e-05 0)
(1.73527e-06 2.77629e-05 0)
(-3.8835e-06 0.000202214 0)
(-4.62081e-06 0.000203261 0)
(-4.27816e-06 0.000155614 0)
(-3.48619e-06 0.000154546 0)
(-4.45396e-06 2.49574e-05 0)
(9.40918e-06 0.000160393 0)
(1.01245e-05 0.000208427 0)
(-1.20195e-07 1.14103e-06 0)
(1.67546e-05 0.000123594 0)
(-1.53788e-05 9.73219e-05 0)
(-6.74303e-08 1.06139e-06 0)
(-5.05512e-06 0.000231214 0)
(-5.92878e-06 0.00023249 0)
(-4.63602e-06 0.000181816 0)
(-5.42938e-06 0.000183025 0)
(2.94403e-06 3.74784e-05 0)
(2.53622e-06 3.81387e-05 0)
(3.48272e-06 5.16952e-05 0)
(2.98932e-06 5.24493e-05 0)
(3.8973e-06 6.77034e-05 0)
(3.34138e-06 6.85466e-05 0)
(1.89094e-05 0.000260641 0)
(1.92616e-05 0.000261971 0)
(-1.7617e-06 8.65665e-06 0)
(7.09623e-06 0.000185638 0)
(-3.80241e-06 3.60766e-05 0)
(6.17651e-06 2.8503e-05 0)
(-1.21776e-05 0.000153321 0)
(-1.31642e-05 0.000200795 0)
(-1.71942e-07 5.21682e-08 0)
(2.46023e-06 0.000271677 0)
(6.09823e-06 2.71884e-05 0)
(-1.23478e-05 0.000155924 0)
(-1.33376e-05 0.000203563 0)
(4.62025e-06 7.90605e-06 0)
(-9.32996e-06 0.000294551 0)
(5.84897e-06 2.16848e-05 0)
(-1.47339e-05 0.000241631 0)
(-3.1222e-06 1.16357e-05 0)
(-3.33121e-06 1.2064e-05 0)
(3.27041e-06 1.19379e-05 0)
(-1.58801e-06 0.000128678 0)
(-1.21264e-08 -8.92505e-09 0)
(-9.90756e-06 0.000322847 0)
(-1.54174e-07 6.12161e-08 0)
(1.71373e-07 5.19938e-08 0)
(-4.5729e-06 2.63333e-05 0)
(1.0104e-05 0.000205362 0)
(9.37254e-06 0.000157546 0)
(7.78673e-06 0.000272106 0)
(-2.23445e-05 0.00029202 0)
(2.8656e-06 0.000120405 0)
(-1.83779e-06 0.000117241 0)
(-5.00671e-07 1.21768e-05 0)
(-1.40666e-06 1.46499e-06 0)
(-8.75423e-09 -7.88356e-09 0)
(-5.55339e-06 8.8219e-05 0)
(6.60936e-06 0.000133657 0)
(4.77903e-07 1.67218e-07 0)
(-7.37484e-07 0.000115506 0)
(-6.95562e-07 0.000114384 0)
(-1.50108e-08 9.68791e-05 0)
(-1.30145e-07 2.46238e-05 0)
(2.52674e-07 0.000160941 0)
(2.2721e-07 0.000209191 0)
(-4.80059e-07 1.68009e-07 0)
(1.98011e-06 1.31749e-05 0)
(-7.70931e-06 0.000237678 0)
(4.39746e-06 4.86793e-05 0)
(4.94396e-06 6.43227e-05 0)
(5.44161e-06 8.16989e-05 0)
(1.62173e-05 0.000309847 0)
(-5.92542e-06 2.35493e-05 0)
(1.39056e-05 0.000211808 0)
(1.29498e-05 0.000163548 0)
(-9.18661e-06 0.000285729 0)
(1.32911e-06 3.37567e-06 0)
(1.23981e-05 0.000280402 0)
(-2.63358e-06 4.1384e-06 0)
(8.68887e-06 0.000311084 0)
(-6.64508e-06 0.000237704 0)
(3.78629e-06 4.8658e-05 0)
(4.25702e-06 6.43003e-05 0)
(4.68864e-06 8.16699e-05 0)
(1.16107e-06 3.19864e-06 0)
(5.72609e-06 0.000190365 0)
(-2.9543e-06 3.35722e-05 0)
(-9.98535e-07 1.31196e-05 0)
(-1.62635e-05 0.000281404 0)
(-6.02733e-06 7.34452e-05 0)
(-5.4246e-06 5.68551e-05 0)
(-4.76826e-06 4.20667e-05 0)
(8.19385e-06 0.000174963 0)
(8.73727e-06 0.000224028 0)
(2.23472e-05 0.000328449 0)
(1.30136e-05 0.00028811 0)
(1.44275e-05 0.000287613 0)
(1.79843e-07 1.2538e-07 0)
(8.07065e-06 8.7724e-05 0)
(-9.4524e-06 0.000134206 0)
(-4.10266e-06 8.89823e-05 0)
(4.81171e-06 0.0001328 0)
(-1.38154e-06 0.000143099 0)
(-1.04913e-06 0.00023273 0)
(6.72826e-07 6.75272e-05 0)
(6.01134e-07 5.15348e-05 0)
(3.77614e-08 3.62252e-05 0)
(-2.24665e-07 0.000139039 0)
(-9.77732e-08 0.000185295 0)
(1.02327e-05 0.000328005 0)
(5.77676e-07 1.35142e-05 0)
(-2.48369e-07 3.11385e-06 0)
(1.9652e-06 0.00019677 0)
(9.85855e-08 3.22061e-06 0)
(-1.49833e-06 1.00866e-05 0)
(3.77007e-06 3.61372e-05 0)
(-7.13486e-06 0.000185516 0)
(-1.40335e-07 1.53857e-07 0)
(-1.50632e-05 0.000281272 0)
(-1.24549e-06 2.41519e-05 0)
(2.68172e-06 0.000210312 0)
(2.65853e-06 0.000161956 0)
(3.36092e-07 8.05416e-08 0)
(-4.42771e-06 8.03621e-06 0)
(4.92328e-06 6.59229e-05 0)
(4.38901e-06 5.01059e-05 0)
(-7.58158e-06 0.000235214 0)
(1.46886e-06 9.17363e-05 0)
(-1.01889e-05 0.000318678 0)
(-1.68785e-07 2.36326e-08 0)
(-5.80093e-06 1.25845e-05 0)
(3.75813e-06 6.92025e-06 0)
(-3.78092e-06 4.13697e-06 0)
(1.13427e-05 0.000110248 0)
(8.63092e-06 0.000134232 0)
(-7.39156e-06 8.76935e-05 0)
(5.31974e-07 3.58541e-05 0)
(-1.22761e-06 0.000139569 0)
(-1.02714e-06 0.000185988 0)
(1.08459e-05 0.000277206 0)
(1.00831e-05 0.000120804 0)
(5.26001e-06 0.000321148 0)
(5.06752e-06 0.000322351 0)
(1.47174e-06 0.000133603 0)
(2.00363e-06 9.1046e-05 0)
(1.68499e-07 2.35822e-08 0)
(-1.45579e-05 0.000251262 0)
(5.25774e-06 1.79845e-05 0)
(1.82499e-08 2.4601e-07 0)
(2.79356e-06 0.000179216 0)
(3.64892e-06 0.00017984 0)
(4.92475e-09 2.1379e-08 0)
(-2.75543e-06 6.69429e-06 0)
(6.89174e-06 6.70316e-05 0)
(6.15321e-06 5.11011e-05 0)
(5.35404e-06 3.69657e-05 0)
(-9.91045e-06 0.000183844 0)
(-1.05149e-05 0.000233569 0)
(9.16631e-06 0.000114949 0)
(1.34791e-06 0.000271969 0)
(-5.92711e-06 0.000306811 0)
(-5.6114e-06 0.000308434 0)
(-5.67618e-07 0.000236514 0)
(-4.85926e-07 0.000237819 0)
(4.06799e-07 4.85476e-05 0)
(3.7135e-07 4.92684e-05 0)
(4.57356e-07 6.41805e-05 0)
(4.17001e-07 6.49896e-05 0)
(3.02909e-07 8.15407e-05 0)
(3.61473e-07 8.24066e-05 0)
(7.27581e-07 0.000134051 0)
(1.33095e-06 0.000136212 0)
(2.31105e-06 0.000207857 0)
(-5.79554e-07 0.000142747 0)
(-3.36726e-07 8.07216e-08 0)
(-3.76085e-07 2.96932e-06 0)
(5.04422e-06 0.00018935 0)
(-2.62589e-06 3.40943e-05 0)
(1.32276e-06 4.12569e-06 0)
(1.9683e-05 0.000311375 0)
(-1.49416e-06 0.00023886 0)
(9.30097e-07 4.79995e-05 0)
(1.04671e-06 6.35645e-05 0)
(1.03321e-06 8.08252e-05 0)
(-1.50315e-05 0.000261485 0)
(5.17851e-06 9.32286e-05 0)
(7.68093e-06 0.000330561 0)
(8.68528e-06 0.000329823 0)
(-1.48928e-06 1.04013e-05 0)
(-9.4997e-07 0.000182863 0)
(5.0256e-07 3.752e-05 0)
(2.21004e-07 2.24257e-07 0)
(1.93138e-05 0.000320184 0)
(-2.60895e-07 5.25248e-06 0)
(-3.6151e-06 5.4498e-05 0)
(-4.02942e-06 7.08292e-05 0)
(-4.8225e-06 7.15759e-05 0)
(-4.33068e-06 5.51704e-05 0)
(-3.12812e-06 3.99754e-05 0)
(-3.78474e-06 4.05821e-05 0)
(6.39075e-06 0.000177447 0)
(6.80881e-06 0.000226686 0)
(2.75256e-06 3.74399e-06 0)
(-1.76712e-07 1.07099e-07 0)
(-1.6652e-05 0.000216288 0)
(-1.73499e-05 0.000319529 0)
(5.66471e-06 0.000136105 0)
(-4.81102e-07 5.37505e-06 0)
(-9.00452e-06 0.000177124 0)
(-9.58783e-06 0.00022633 0)
(5.12667e-06 4.083e-05 0)
(5.84624e-06 5.54474e-05 0)
(6.50759e-06 7.18801e-05 0)
(8.36697e-06 0.000273012 0)
(1.89916e-05 0.000321325 0)
(-1.02019e-05 0.000111242 0)
(4.19857e-06 3.65737e-05 0)
(-7.9124e-06 0.000184707 0)
(5.42061e-06 0.000137168 0)
(-2.04854e-06 9.7639e-05 0)
(5.45224e-06 6.64868e-05 0)
(4.86437e-06 5.06106e-05 0)
(-8.3575e-06 0.000234364 0)
(-1.51697e-05 0.000112526 0)
(1.48057e-05 0.000107875 0)
(1.48058e-05 0.000109083 0)
(-1.497e-05 0.000111243 0)
(-6.97371e-06 1.86305e-05 0)
(-7.17837e-06 1.92115e-05 0)
(-7.03361e-06 0.000109065 0)
(-3.56349e-06 4.23604e-06 0)
(-1.13827e-05 0.000109905 0)
(-1.65988e-06 0.000263006 0)
(-1.45695e-06 1.73942e-06 0)
(1.14294e-05 6.39866e-05 0)
(1.01619e-05 4.84025e-05 0)
(-1.61427e-05 0.000164786 0)
(2.60703e-06 6.65276e-05 0)
(2.32614e-06 5.06424e-05 0)
(-4.00913e-06 0.000234258 0)
(5.33595e-06 1.6064e-05 0)
(8.92701e-06 0.000133141 0)
(-7.69873e-06 8.8639e-05 0)
(-4.20516e-06 4.71883e-06 0)
(4.59291e-06 0.000208691 0)
(4.38755e-06 0.000160616 0)
(-2.07703e-06 2.47939e-05 0)
(1.3305e-05 0.000197029 0)
(-6.47731e-06 3.03212e-05 0)
(1.22777e-05 0.000149841 0)
(-7.37689e-06 1.83827e-05 0)
(9.38069e-06 0.000307429 0)
(1.07578e-05 0.000306979 0)
(1.03633e-05 0.000233577 0)
(9.81957e-06 0.000183864 0)
(-5.3332e-06 3.70711e-05 0)
(-6.09889e-06 5.10949e-05 0)
(-6.83104e-06 6.7025e-05 0)
(-1.53451e-06 1.50783e-06 0)
(-8.22046e-06 0.000285437 0)
(8.98792e-06 0.000181817 0)
(-4.95739e-06 3.8186e-05 0)
(-9.32544e-07 1.15758e-06 0)
(7.685e-06 0.000310881 0)
(1.85391e-06 1.51866e-06 0)
(1.53754e-06 1.1514e-06 0)
(3.8998e-06 5.53763e-06 0)
(9.28953e-06 0.000249742 0)
(-1.57089e-05 0.000256636 0)
(2.09299e-05 0.000311773 0)
(3.9498e-06 5.82151e-06 0)
(9.18211e-06 0.000120767 0)
(1.26048e-05 0.000264845 0)
(-2.02299e-05 0.000250389 0)
(7.38931e-06 1.84237e-05 0)
(-4.63859e-06 0.000266513 0)
(1.89019e-06 6.67349e-05 0)
(1.68703e-06 5.0827e-05 0)
(-2.9101e-06 0.000233937 0)
(-6.93477e-07 3.32703e-06 0)
(5.37079e-06 0.000143632 0)
(1.52741e-07 6.06626e-08 0)
(-6.13263e-06 1.2463e-05 0)
(-1.08535e-06 0.000117973 0)
(-2.74634e-06 2.26485e-05 0)
(-3.19674e-06 2.27983e-05 0)
(6.11005e-06 0.000165283 0)
(7.09213e-06 0.000164975 0)
(7.60927e-06 0.000213352 0)
(6.55452e-06 0.000213684 0)
(1.8045e-07 6.68433e-07 0)
(-4.47863e-08 8.39507e-06 0)
(-1.09593e-05 0.000148443 0)
(-1.18877e-05 0.000195518 0)
(5.83619e-06 3.10397e-05 0)
(-3.42588e-06 1.84574e-05 0)
(-2.05049e-06 0.000201051 0)
(-3.10027e-06 7.89416e-06 0)
(6.4292e-06 0.000307922 0)
(-5.15983e-06 0.000100419 0)
(-5.97941e-06 0.000100165 0)
(1.76255e-07 1.77495e-07 0)
(-3.41705e-06 0.000103871 0)
(-1.72585e-06 2.08321e-05 0)
(4.01048e-06 0.000169348 0)
(4.29162e-06 0.000218039 0)
(-4.80201e-06 0.000201084 0)
(-4.22355e-06 0.00015351 0)
(2.12643e-06 2.82935e-05 0)
(2.82109e-06 1.06e-05 0)
(2.62014e-06 1.02141e-05 0)
(1.38108e-06 0.000100125 0)
(-1.78472e-06 0.000213273 0)
(-1.67162e-06 0.000164872 0)
(7.39634e-07 2.28032e-05 0)
(-1.63262e-06 3.93403e-05 0)
(-2.91958e-06 8.11491e-06 0)
(1.19702e-05 0.000315177 0)
(-1.16611e-05 0.000188196 0)
(8.97755e-06 8.82878e-05 0)
(-1.04695e-05 0.000133572 0)
(1.27588e-05 0.000266044 0)
(-1.16806e-05 8.11244e-05 0)
(-1.06275e-05 6.37954e-05 0)
(1.43204e-05 0.000142218 0)
(-9.44589e-06 4.82289e-05 0)
(-8.1646e-06 3.45461e-05 0)
(1.5646e-05 0.000188786 0)
(1.65438e-05 0.000238714 0)
(-4.2875e-06 0.000228394 0)
(-4.03227e-06 0.000179059 0)
(2.57331e-06 5.4145e-05 0)
(2.25183e-06 3.96798e-05 0)
(2.86944e-06 7.04377e-05 0)
(2.46132e-06 5.49265e-05 0)
(-4.07195e-06 0.00022711 0)
(2.74154e-06 7.13078e-05 0)
(2.15699e-06 4.03649e-05 0)
(-3.82706e-06 0.000177851 0)
(-2.25916e-06 0.000289936 0)
(-4.54751e-06 5.94129e-06 0)
(-4.94909e-06 2.80255e-05 0)
(1.05869e-05 0.000201718 0)
(9.79853e-06 0.000154169 0)
(-3.11113e-06 3.77771e-05 0)
(5.70366e-06 0.000182517 0)
(1.57042e-05 0.000226303 0)
(1.47471e-05 0.000177112 0)
(-8.44487e-06 4.09386e-05 0)
(-9.62915e-06 5.55536e-05 0)
(-1.0717e-05 7.19838e-05 0)
(1.65473e-05 0.000247068 0)
(1.80597e-05 0.000246753 0)
(4.02868e-07 7.16124e-06 0)
(-1.65903e-06 0.000116034 0)
(-4.41004e-06 1.21478e-05 0)
(2.25323e-07 4.16383e-07 0)
(-4.34331e-06 1.54386e-05 0)
(-6.92945e-07 0.000263532 0)
(1.82297e-07 6.8526e-06 0)
(-3.61925e-06 0.000124381 0)
(1.49925e-05 0.000164884 0)
(-6.76107e-06 2.29917e-05 0)
(1.60852e-05 0.000213235 0)
(-1.48605e-08 -1.02997e-08 0)
(1.00893e-06 0.000196959 0)
(2.82712e-07 1.18684e-07 0)
(1.92987e-07 1.41581e-07 0)
(2.66642e-06 0.000141318 0)
(-3.22712e-07 2.59539e-07 0)
(1.2233e-05 0.000317541 0)
(9.19868e-07 0.000179789 0)
(-4.81002e-07 3.92204e-05 0)
(2.6502e-06 1.57156e-05 0)
(1.68966e-06 0.000179227 0)
(-9.37607e-07 3.95081e-05 0)
(-1.57958e-07 3.46527e-06 0)
(-1.14126e-05 6.39536e-05 0)
(-1.0146e-05 4.83734e-05 0)
(-8.77104e-06 3.46812e-05 0)
(-7.28424e-06 2.30479e-05 0)
(1.6138e-05 0.000164822 0)
(1.67794e-05 0.000188579 0)
(1.73146e-05 0.000213164 0)
(1.77488e-05 0.000238497 0)
(-7.84674e-06 0.000257397 0)
(-6.97137e-06 0.000306213 0)
(-2.25465e-05 0.000252679 0)
(8.05837e-06 1.76423e-05 0)
(5.15705e-06 0.000324692 0)
(5.99738e-06 0.000323289 0)
(1.60805e-06 0.00017524 0)
(1.74404e-06 0.000224354 0)
(-1.22587e-06 7.32585e-05 0)
(-1.10298e-06 5.66809e-05 0)
(-9.69172e-07 4.19064e-05 0)
(-6.40305e-06 1.84309e-05 0)
(2.33327e-06 1.32013e-05 0)
(-8.70844e-06 7.67657e-05 0)
(1.15584e-05 0.000170542 0)
(-7.86733e-06 5.98589e-05 0)
(-6.95045e-06 4.47252e-05 0)
(1.23576e-05 0.000219303 0)
(-4.86634e-06 2.04315e-05 0)
(1.25147e-05 0.000244839 0)
(2.10757e-06 0.000111115 0)
(-1.30387e-06 0.00027361 0)
(1.27345e-06 6.34113e-07 0)
(-9.53263e-07 0.000240129 0)
(6.18152e-07 4.72813e-05 0)
(6.96388e-07 6.27571e-05 0)
(6.48603e-07 7.9934e-05 0)
(3.92279e-06 0.0002835 0)
(-5.27715e-07 3.32901e-07 0)
(1.98522e-05 0.000278944 0)
(-2.97011e-06 0.000117803 0)
(-8.89201e-08 1.89519e-07 0)
(7.10206e-06 0.000167875 0)
(-3.10018e-06 2.1502e-05 0)
(7.60606e-06 0.000216459 0)
(1.53966e-07 1.1938e-07 0)
(-4.16517e-06 2.59603e-05 0)
(8.60295e-06 0.000158285 0)
(9.26988e-06 0.00020616 0)
(1.43997e-06 1.87642e-06 0)
(-6.02225e-06 0.000102648 0)
(1.28172e-06 0.000109792 0)
(-1.37337e-05 0.000298193 0)
(1.27277e-06 0.000176199 0)
(1.35699e-06 0.000225353 0)
(-1.03447e-06 7.25495e-05 0)
(-8.14523e-07 4.13476e-05 0)
(-9.29949e-07 5.60423e-05 0)
(2.04155e-06 0.000111941 0)
(-2.82568e-07 1.06884e-06 0)
(-2.49766e-07 3.64738e-06 0)
(6.11232e-07 0.000263101 0)
(1.35128e-05 0.000120409 0)
(-1.26585e-05 0.000100175 0)
(-9.63663e-06 0.000333802 0)
(-2.18821e-05 0.00021779 0)
(-2.04533e-05 0.000169153 0)
(-2.12317e-05 0.000193061 0)
(-1.95435e-05 0.00014621 0)
(1.06746e-05 3.24846e-05 0)
(1.2423e-05 4.5805e-05 0)
(1.40338e-05 6.10441e-05 0)
(1.55107e-05 7.80465e-05 0)
(2.18557e-05 0.000217787 0)
(2.12052e-05 0.000193061 0)
(-1.06888e-05 3.24854e-05 0)
(-1.24389e-05 4.58064e-05 0)
(2.04259e-05 0.000169153 0)
(-1.40524e-05 6.10452e-05 0)
(1.95187e-05 0.000146209 0)
(-1.55314e-05 7.80477e-05 0)
(-6.16237e-06 1.7914e-05 0)
(-3.38596e-06 0.000273025 0)
(-2.41231e-06 0.000272764 0)
(-3.00397e-06 0.000309353 0)
(5.00091e-06 0.000187005 0)
(-2.65442e-06 3.53292e-05 0)
(-9.47837e-07 1.38994e-06 0)
(-3.88919e-06 0.000327008 0)
(-4.25471e-06 6.98896e-05 0)
(-5.21321e-06 6.96254e-05 0)
(-3.81283e-06 5.36548e-05 0)
(-4.67026e-06 5.34195e-05 0)
(6.33599e-06 0.000229616 0)
(7.60908e-06 0.000229724 0)
(1.67151e-05 0.000225712 0)
(1.56913e-05 0.000176561 0)
(-9.02474e-06 4.12773e-05 0)
(-1.02832e-05 5.59354e-05 0)
(-1.1439e-05 7.24053e-05 0)
(-1.00999e-05 0.000148969 0)
(-1.09515e-05 0.00019609 0)
(5.34867e-06 3.07421e-05 0)
(-3.17e-06 0.000133344 0)
(2.69557e-06 8.84352e-05 0)
(3.30363e-06 0.000236142 0)
(-1.91652e-06 4.94603e-05 0)
(-2.15215e-06 6.5204e-05 0)
(-2.33332e-06 8.24962e-05 0)
(6.23194e-06 8.73767e-05 0)
(5.28146e-06 8.76011e-05 0)
(-7.32195e-06 0.000134572 0)
(-6.19891e-06 0.000134294 0)
(-7.37996e-06 0.000324552 0)
(4.91832e-07 1.33429e-06 0)
(1.22927e-05 0.000279249 0)
(4.4209e-06 9.71035e-05 0)
(1.20461e-05 0.000192856 0)
(-6.07626e-06 3.23761e-05 0)
(1.10854e-05 0.00014599 0)
(-1.02941e-05 0.000116536 0)
(2.488e-06 2.44848e-05 0)
(-5.75223e-06 0.000209391 0)
(-5.35068e-06 0.000161284 0)
(7.20208e-07 0.000101054 0)
(-8.85693e-07 0.000165977 0)
(-9.42935e-07 0.000214453 0)
(3.81132e-07 2.23025e-05 0)
(6.93868e-06 9.14763e-05 0)
(-7.9161e-06 0.000129827 0)
(-3.79051e-06 0.000289931 0)
(-1.75778e-05 0.000287149 0)
(3.14373e-06 0.000123818 0)
(7.88632e-06 0.000124209 0)
(-6.34512e-06 2.37939e-05 0)
(1.48155e-05 0.000211281 0)
(1.3793e-05 0.00016306 0)
(-7.0021e-07 2.95718e-06 0)
(-2.37316e-06 0.000241804 0)
(1.3199e-06 4.63282e-05 0)
(1.48959e-06 6.16835e-05 0)
(1.63339e-06 7.87611e-05 0)
(-3.62468e-06 0.000117224 0)
(-1.6293e-05 0.000287246 0)
(-4.66469e-06 4.63848e-05 0)
(-5.26463e-06 6.1741e-05 0)
(-5.79469e-06 7.88558e-05 0)
(8.31387e-06 0.000241719 0)
(1.49079e-08 1.92709e-08 0)
(1.02046e-05 0.000115598 0)
(1.31009e-07 8.95091e-06 0)
(-4.78686e-07 8.28554e-07 0)
(-9.95517e-07 3.82937e-06 0)
(-4.78524e-06 1.6468e-05 0)
(-4.88466e-07 1.79336e-07 0)
(2.00664e-06 5.23942e-05 0)
(1.7582e-06 3.81212e-05 0)
(2.24307e-06 6.84864e-05 0)
(-3.40394e-06 0.000231293 0)
(-3.22195e-06 0.000181833 0)
(-9.89968e-06 9.58213e-05 0)
(1.07498e-05 0.00012496 0)
(-9.68566e-07 5.67708e-07 0)
(1.30694e-05 0.000307534 0)
(9.42845e-06 0.000275031 0)
(-2.00641e-05 0.000258818 0)
(7.42723e-06 0.000123245 0)
(2.68206e-06 0.000133911 0)
(-5.04653e-06 0.00032686 0)
(-1.40395e-05 0.000140328 0)
(-1.3354e-05 0.000139706 0)
(1.98222e-05 0.000326762 0)
(-1.58056e-06 0.000291382 0)
(-4.43294e-06 8.80767e-05 0)
(5.34468e-06 0.000133884 0)
(1.62225e-07 9.2658e-06 0)
(2.42783e-06 3.2657e-06 0)
(4.85454e-07 1.78183e-07 0)
(4.72638e-06 0.00014269 0)
(1.74707e-05 0.000333489 0)
(-9.56558e-06 0.000231333 0)
(-8.99897e-06 0.000181828 0)
(4.93797e-06 3.81681e-05 0)
(6.33695e-06 6.85032e-05 0)
(5.66894e-06 5.24162e-05 0)
(-1.77955e-07 1.23834e-07 0)
(-7.12442e-07 0.000303325 0)
(8.94201e-06 0.000124577 0)
(-8.12114e-06 9.63104e-05 0)
(-1.43349e-05 0.000295946 0)
(-2.14035e-05 0.000218909 0)
(-2.07718e-05 0.000194142 0)
(-2.00193e-05 0.000170197 0)
(-1.91354e-05 0.000147208 0)
(1.03489e-05 3.19256e-05 0)
(1.20633e-05 4.5158e-05 0)
(1.36431e-05 6.03155e-05 0)
(1.5092e-05 7.72432e-05 0)
(2.13752e-05 0.000218901 0)
(2.07454e-05 0.000194142 0)
(-1.03623e-05 3.19284e-05 0)
(-1.2078e-05 4.51611e-05 0)
(1.99895e-05 0.000170193 0)
(-1.36602e-05 6.03185e-05 0)
(1.91089e-05 0.000147203 0)
(-1.5111e-05 7.72465e-05 0)
(-3.09039e-06 4.13046e-06 0)
(1.21508e-06 1.13522e-06 0)
(-1.62641e-06 2.96105e-06 0)
(7.9613e-06 0.000122224 0)
(-8.73164e-06 0.000125869 0)
(1.55093e-06 1.8563e-06 0)
(-2.40023e-07 4.0045e-08 0)
(-1.92938e-05 0.000259444 0)
(1.1053e-05 0.000330116 0)
(1.24037e-05 0.000330741 0)
(2.39701e-07 3.99791e-08 0)
(3.49533e-06 4.6364e-06 0)
(1.7308e-05 0.000300431 0)
(-6.56514e-06 0.000139209 0)
(-4.25709e-07 3.70415e-07 0)
(-9.64339e-07 1.488e-06 0)
(-1.50466e-07 3.84166e-08 0)
(2.82222e-07 2.17945e-07 0)
(1.78549e-05 0.000110849 0)
(-1.78075e-05 0.000109561 0)
(5.47174e-06 8.34966e-05 0)
(-6.72875e-06 0.000136652 0)
(5.68189e-06 8.56493e-05 0)
(-2.90661e-07 4.94362e-06 0)
(-4.1475e-06 0.000218863 0)
(3.2826e-06 0.00010456 0)
(-2.31309e-06 0.000216479 0)
(-2.21176e-06 0.000167766 0)
(9.50258e-07 2.15129e-05 0)
(1.80543e-06 0.000102656 0)
(-7.3224e-06 0.000138496 0)
(3.72525e-06 4.91289e-06 0)
(6.1289e-06 8.41296e-05 0)
(2.28302e-06 0.000124008 0)
(1.73939e-05 0.000310287 0)
(-5.28554e-06 0.000125035 0)
(-6.07778e-06 0.000125888 0)
(-4.89542e-06 1.04233e-05 0)
(-5.89452e-06 0.000129902 0)
(-5.04041e-06 0.000128998 0)
(5.24638e-06 9.13252e-05 0)
(4.60903e-06 9.2229e-05 0)
(-5.50086e-06 2.54142e-05 0)
(1.15136e-05 0.000159516 0)
(1.23958e-05 0.000207478 0)
(-1.5128e-06 1.67511e-06 0)
(-7.33583e-06 0.000137381 0)
(6.17186e-06 8.50718e-05 0)
(-4.6779e-06 0.000176934 0)
(-4.98105e-06 0.000226134 0)
(2.65991e-06 4.08957e-05 0)
(3.37497e-06 7.19778e-05 0)
(3.03248e-06 5.55297e-05 0)
(-2.41622e-06 1.1259e-05 0)
(-1.53414e-05 0.000186628 0)
(-1.45377e-05 0.000186036 0)
(8.08516e-06 3.56696e-05 0)
(7.69125e-06 3.598e-05 0)
(1.01108e-05 0.000148008 0)
(1.11156e-05 0.000147276 0)
(-5.43342e-06 3.12574e-05 0)
(-6.01659e-06 3.16725e-05 0)
(1.09713e-05 0.000195049 0)
(1.20679e-05 0.000194253 0)
(-4.41007e-06 0.000288864 0)
(8.81438e-06 0.000263706 0)
(8.94121e-06 0.000262471 0)
(-6.50244e-06 8.56572e-05 0)
(7.65189e-06 0.000136618 0)
(-2.31096e-05 0.000321947 0)
(-6.6507e-06 0.00025666 0)
(-6.38687e-06 0.000255453 0)
(2.20723e-06 1.63754e-05 0)
(2.26833e-06 1.59574e-05 0)
(1.99564e-05 0.000259524 0)
(-8.80818e-06 0.000110004 0)
(-7.5615e-06 0.000110042 0)
(1.97443e-05 0.000293132 0)
(-1.99599e-05 0.000309062 0)
(-1.99341e-05 0.000310538 0)