/*--------------------------------*- C++ -*----------------------------------*\
| =========                 |                                                 |
| \\      /  F ield         | OpenFOAM: The Open Source CFD Toolbox           |
|  \\    /   O peration     | Version:  2.3.1                                 |
|   \\  /    A nd           | Web:      www.OpenFOAM.org                      |
|    \\/     M anipulation  |                                                 |
\*---------------------------------------------------------------------------*/
FoamFile
{
    version     2.0;
    format      ascii;
    class       volScalarField;
    location    "0.005";
    object      phi;
}
// * * * * * * * * * * * * * * * * * * * * * * * * * * * * * * * * * * * * * //

dimensions      [1 2 -3 0 0 -1 0];

internalField   nonuniform List<scalar> 
9100
(
44296.8
43196.7
42256.4
41432.7
40697.5
40031.9
39422.3
38858.7
38333.7
37841.4
37377
36936.9
36517.9
36117.7
35734
35365
35009.2
34665.3
34332
34008.5
33693.7
33387
33087.6
32794.8
32508.1
32227
31951
31679.6
31412.5
31149.2
30889.5
30633
30379.4
30128.4
29879.7
29633.1
29388.4
29145.2
28903.4
28662.8
28423
28184
27945.5
27707.3
27469.2
27231
26992.6
26753.6
26513.9
26273.4
26031.8
25789
25544.6
25298.6
25050.7
24800.8
24548.5
24293.8
24036.4
23776.2
44296.8
43196.6
42256.3
41432.5
40697.3
40031.6
39422
38858.3
38333.2
37840.8
37376.3
36936.1
36517
36116.6
35732.7
35363.6
35007.6
34663.4
34330
34006.2
33691.1
33384.1
33084.3
32791.2
32504.2
32222.6
31946.1
31674.3
31406.6
31142.8
30882.5
30625.4
30371.1
30119.3
29869.9
29622.4
29376.8
29132.6
28889.8
28648.1
28407.1
28166.9
27927
27687.3
27447.7
27207.9
26967.6
26726.8
26485.1
26242.5
25998.6
25753.3
25506.4
25257.7
25006.9
24753.8
24498.3
24240
23978.9
23714.6
44296.8
43196.6
42256.2
41432.4
40697.1
40031.4
39421.6
38858
38332.8
37840.2
37375.6
36935.3
36516.1
36115.5
35731.5
35362.1
35005.9
34661.6
34327.9
34003.8
33688.6
33381.2
33081.1
32787.7
32500.2
32218.3
31941.4
31669
31400.9
31136.5
30875.6
30617.8
30362.8
30110.3
29860.1
29611.8
29365.2
29120.1
28876.3
28633.4
28391.3
28149.8
27908.6
27667.5
27426.3
27184.8
26942.8
26700.1
26456.5
26211.7
25965.6
25717.9
25468.4
25217
24963.3
24707.2
24448.3
24186.6
23921.7
23653.4
44296.8
43196.5
42256.1
41432.3
40696.9
40031.1
39421.3
38857.6
38332.3
37839.6
37374.9
36934.5
36515.1
36114.4
35730.2
35360.7
35004.3
34659.8
34325.8
34001.5
33686
33378.4
33077.9
32784.1
32496.3
32213.9
31936.6
31663.8
31395.1
31130.2
30868.7
30610.3
30354.6
30101.4
29850.4
29601.3
29353.8
29107.7
28862.8
28618.9
28375.6
28132.8
27890.3
27647.7
27405
27161.9
26918.2
26673.7
26428.1
26181.2
25932.9
25682.8
25430.8
25176.6
24920.1
24660.9
24398.8
24133.7
23865.1
23592.8
44296.8
43196.4
42256
41432.1
40696.7
40030.9
39421
38857.2
38331.8
37839.1
37374.3
36933.7
36514.2
36113.4
35729
35359.3
35002.8
34658
34323.8
33999.3
33683.4
33375.5
33074.8
32780.6
32492.4
32209.7
31931.9
31658.6
31389.4
31124
30861.9
30602.8
30346.5
30092.6
29840.8
29590.8
29342.5
29095.5
28849.6
28604.5
28360.1
28116
27872.2
27628.2
27384
27139.3
26893.9
26647.5
26400
26151
25900.5
25648.1
25393.6
25136.8
24877.4
24615.2
24349.9
24081.3
23809.2
23533.1
44296.7
43196.4
42255.9
41432
40696.5
40030.6
39420.7
38856.8
38331.3
37838.5
37373.6
36932.9
36513.3
36112.3
35727.8
35357.9
35001.2
34656.2
34321.8
33997
33680.9
33372.7
33071.7
32777.2
32488.6
32205.4
31927.2
31653.5
31383.8
31117.8
30855.2
30595.5
30338.5
30083.8
29831.3
29580.5
29331.3
29083.3
28836.4
28590.3
28344.7
28099.5
27854.3
27609
27363.3
27117
26869.9
26621.7
26372.2
26121.3
25868.5
25613.8
25356.9
25097.5
24835.3
24570.2
24301.8
24029.8
23754.1
23474.2
44296.7
43196.3
42255.8
41431.8
40696.3
40030.4
39420.4
38856.4
38330.9
37837.9
37372.9
36932.1
36512.4
36111.3
35726.6
35356.6
34999.6
34654.5
34319.9
33994.8
33678.5
33370
33068.6
32773.8
32484.8
32201.3
31922.6
31648.4
31378.3
31111.8
30848.5
30588.3
30330.6
30075.3
29821.9
29570.4
29320.3
29071.4
28823.5
28576.3
28329.6
28083.2
27836.7
27590
27342.9
27095
26846.3
26596.3
26345
26092
25837.1
25580.2
25320.8
25058.8
24793.9
24525.9
24254.4
23979.2
23700
23416.5
44296.7
43196.3
42255.7
41431.7
40696.2
40030.1
39420.1
38856
38330.4
37837.4
37372.3
36931.4
36511.5
36110.3
35725.5
35355.3
34998.1
34652.7
34317.9
33992.6
33676
33367.2
33065.6
32770.4
32481.1
32197.2
31918.1
31643.5
31372.9
31105.8
30842
30581.2
30322.9
30066.8
29812.8
29560.4
29309.5
29059.7
28810.9
28562.6
28314.8
28067.2
27819.5
27571.5
27322.9
27073.5
26823.1
26571.4
26318.2
26063.3
25806.4
25547.2
25285.5
25021
24753.4
24482.5
24208
23929.6
23647
23359.9
44296.7
43196.2
42255.7
41431.6
40696
40029.9
39419.8
38855.7
38330
37836.9
37371.7
36930.6
36510.7
36109.3
35724.3
35354
34996.6
34651.1
34316
33990.5
33673.7
33364.6
33062.6
32767.1
32477.5
32193.2
31913.7
31638.7
31367.6
31100
30835.7
30574.2
30315.3
30058.6
29803.8
29550.7
29298.9
29048.3
28798.5
28549.2
28300.4
28051.6
27802.6
27553.3
27303.3
27052.4
26800.5
26547.1
26292.1
26035.3
25776.3
25514.9
25250.9
24984
24713.8
24440.2
24162.8
23881.3
23595.3
23304.7
44296.7
43196.2
42255.6
41431.4
40695.8
40029.7
39419.5
38855.3
38329.6
37836.3
37371
36929.9
36509.8
36108.3
35723.2
35352.7
34995.2
34649.4
34314.2
33988.5
33671.3
33362
33059.8
32764
32474
32189.3
31909.5
31634
31362.4
31094.4
30829.5
30567.5
30307.9
30050.6
29795.1
29541.2
29288.6
29037.1
28786.4
28536.2
28286.3
28036.3
27786.2
27535.6
27284.2
27031.9
26778.4
26523.4
26266.7
26008
25747
25483.5
25217.3
24948
24675.3
24399
24118.7
23834.2
23545
23251
44296.6
43196.1
42255.5
41431.3
40695.6
40029.4
39419.2
38855
38329.1
37835.8
37370.4
36929.2
36509
36107.4
35722.1
35351.4
34993.8
34647.8
34312.4
33986.4
33669.1
33359.5
33057
32760.9
32470.6
32185.5
31905.3
31629.4
31357.4
31088.8
30823.5
30560.9
30300.7
30042.7
29786.6
29532
29278.6
29026.3
28774.7
28523.5
28272.5
28021.5
27770.2
27518.4
27265.7
27012
26757
26500.4
26242
25981.5
25718.6
25453.1
25184.6
24913
24637.9
24359
24075.9
23788.5
23496.3
23199
44296.6
43196.1
42255.4
41431.2
40695.5
40029.2
39418.9
38854.6
38328.7
37835.4
37369.9
36928.5
36508.2
36106.5
35721.1
35350.2
34992.4
34646.3
34310.7
33984.5
33666.9
33357.1
33054.3
32757.9
32467.2
32181.9
31901.3
31624.9
31352.5
31083.5
30817.6
30554.5
30293.8
30035.2
29778.4
29523.1
29269
29015.8
28763.3
28511.2
28259.3
28007.2
27754.8
27501.8
27247.8
26992.7
26736.3
26478.1
26218.1
25955.8
25691.1
25423.6
25153.1
24879.2
24601.7
24320.3
24034.6
23744.3
23449.1
23148.6
44296.6
43196
42255.3
41431.1
40695.3
40029
39418.7
38854.3
38328.3
37834.9
37369.3
36927.9
36507.5
36105.6
35720.1
35349.1
34991.1
34644.8
34309
33982.6
33664.8
33354.7
33051.7
32755
32464
32178.3
31897.4
31620.7
31347.8
31078.4
30812
30548.4
30287.1
30027.9
29770.5
29514.5
29259.6
29005.7
28752.4
28499.4
28246.5
27993.4
27739.9
27485.7
27230.6
26974.2
26716.3
26456.7
26195
25931.1
25664.6
25395.2
25122.7
24846.7
24566.9
24283.1
23994.8
23701.8
23403.7
23100.2
44296.6
43196
42255.2
41430.9
40695.2
40028.8
39418.4
38854
38328
37834.4
37368.8
36927.2
36506.7
36104.7
35719.1
35348
34989.9
34643.4
34307.4
33980.8
33662.8
33352.5
33049.2
32752.2
32461
32174.9
31893.6
31616.6
31343.3
31073.4
30806.6
30542.5
30280.7
30020.9
29762.8
29506.2
29250.7
28996
28741.9
28488
28234.2
27980.2
27725.6
27470.3
27214
26956.3
26697.1
26436.1
26172.9
25907.4
25639.2
25368
25093.5
24815.4
24533.5
24247.4
23956.7
23661.1
23360.2
23053.8
44296.6
43195.9
42255.2
41430.8
40695
40028.6
39418.2
38853.7
38327.6
37834
37368.3
36926.6
36506
36103.9
35718.2
35346.9
34988.7
34642
34305.8
33979.1
33660.8
33350.3
33046.8
32749.5
32458
32171.7
31890.1
31612.6
31339
31068.7
30801.5
30536.8
30274.5
30014.2
29755.6
29498.3
29242.1
28986.7
28731.8
28477.2
28222.5
27967.5
27712
27455.6
27198.1
26939.3
26678.8
26416.4
26151.8
25884.7
25614.9
25341.9
25065.6
24785.6
24501.6
24213.3
23920.2
23622.2
23318.7
23009.5
44296.6
43195.9
42255.1
41430.7
40694.9
40028.5
39418
38853.4
38327.2
37833.6
37367.8
36926.1
36505.4
36103.2
35717.3
35345.9
34987.5
34640.7
34304.4
33977.4
33659
33348.3
33044.5
32747
32455.2
32168.6
31886.7
31608.9
31334.9
31064.2
30796.5
30531.5
30268.7
30007.9
29748.7
29490.8
29233.9
28977.9
28722.3
28466.8
28211.3
27955.5
27699
27441.6
27183.1
26923.1
26661.4
26397.7
26131.7
25863.2
25591.8
25317.2
25039.1
24757.3
24471.3
24180.9
23885.6
23585.2
23279.3
22967.4
44296.5
43195.8
42255
41430.6
40694.7
40028.3
39417.7
38853.1
38326.9
37833.2
37367.3
36925.5
36504.7
36102.4
35716.4
35345
34986.4
34639.5
34303
33975.9
33657.3
33346.3
33042.3
32744.6
32452.6
32165.7
31883.4
31605.3
31331
31060
30791.9
30526.4
30263.2
30001.8
29742.1
29483.7
29226.2
28969.5
28713.2
28457.1
28200.8
27944.1
27686.7
27428.4
27168.8
26907.8
26644.9
26380
26112.8
25842.8
25570
25293.8
25014.1
24730.5
24442.7
24150.2
23852.9
23550.3
23242
22927.6
44296.5
43195.8
42254.9
41430.5
40694.6
40028.1
39417.5
38852.9
38326.6
37832.8
37366.9
36925
36504.1
36101.7
35715.6
35344.1
34985.4
34638.3
34301.7
33974.4
33655.6
33344.5
33040.3
32742.4
32450.1
32162.9
31880.4
31602
31327.3
31056
30787.5
30521.6
30258
29996.2
29736
29477
29219
28961.7
28704.7
28447.9
28190.9
27933.4
27675.2
27416
27155.5
26893.4
26629.5
26363.4
26094.9
25823.7
25549.5
25271.9
24990.6
24705.3
24415.8
24121.5
23822.2
23517.5
23207
22890.3
44296.5
43195.7
42254.9
41430.5
40694.5
40028
39417.3
38852.7
38326.3
37832.5
37366.5
36924.5
36503.6
36101.1
35714.9
35343.2
34984.4
34637.3
34300.5
33973.1
33654.1
33342.8
33038.4
32740.3
32447.8
32160.4
31877.6
31598.9
31323.9
31052.2
30783.4
30517.2
30253.1
29990.9
29730.2
29470.8
29212.2
28954.3
28696.8
28439.3
28181.6
27923.4
27664.4
27404.3
27143
26880
26615
26347.9
26078.3
25805.9
25530.3
25251.4
24968.7
24681.9
24390.7
24094.7
23793.5
23486.9
23174.3
22855.5
44296.5
43195.7
42254.8
41430.4
40694.4
40027.8
39417.2
38852.4
38326.1
37832.2
37366.1
36924.1
36503.1
36100.5
35714.2
35342.4
34983.6
34636.3
34299.3
33971.8
33652.7
33341.2
33036.7
32738.3
32445.6
32158
31875
31596
31320.8
31048.8
30779.7
30513.1
30248.6
29986
29724.9
29465
29206
28947.5
28689.4
28431.4
28173
27914.1
27654.4
27393.6
27131.4
26867.5
26601.7
26333.5
26062.9
25789.3
25512.6
25232.4
24948.3
24660.1
24367.4
24069.8
23767
23458.6
23144.1
22823.3
44296.5
43195.7
42254.8
41430.3
40694.3
40027.7
39417
38852.2
38325.8
37831.9
37365.8
36923.7
36502.6
36100
35713.6
35341.7
34982.7
34635.3
34298.3
33970.6
33651.4
33339.8
33035
32736.5
32443.6
32155.8
31872.6
31593.4
31317.9
31045.6
30776.2
30509.3
30244.5
29981.5
29720
29459.7
29200.2
28941.3
28682.7
28424.1
28165.1
27905.6
27645.3
27383.7
27120.8
26856.1
26589.4
26320.4
26048.7
25774.2
25496.4
25215
24929.7
24640.2
24346.1
24047.1
23742.7
23432.6
23116.4
22793.7
44296.5
43195.7
42254.7
41430.2
40694.2
40027.6
39416.9
38852.1
38325.6
37831.6
37365.4
36923.3
36502.2
36099.5
35713
35341.1
34982
34634.5
34297.4
33969.6
33650.2
33338.5
33033.6
32734.9
32441.8
32153.8
31870.4
31591
31315.3
31042.7
30773
30505.8
30240.7
29977.4
29715.6
29454.9
29195
28935.7
28676.6
28417.4
28158
27897.9
27636.9
27374.8
27111.1
26845.7
26578.3
26308.4
26035.9
25760.4
25481.6
25199.2
24912.8
24622.1
24326.8
24026.4
23720.6
23409.1
23091.3
22766.9
44296.5
43195.6
42254.7
41430.2
40694.1
40027.5
39416.7
38851.9
38325.4
37831.4
37365.2
36923
36501.8
36099
35712.5
35340.5
34981.3
34633.8
34296.5
33968.6
33649.2
33337.3
33032.3
32733.5
32440.2
32152.1
31868.4
31588.9
31312.9
31040.2
30770.2
30502.8
30237.4
29973.8
29711.6
29450.5
29190.3
28930.6
28671.1
28411.5
28151.6
27891
27629.5
27366.8
27102.5
26836.4
26568.3
26297.7
26024.4
25748.1
25468.4
25185.1
24897.7
24605.9
24309.5
24007.9
23700.9
23388
23068.8
22742.9
44296.5
43195.6
42254.6
41430.1
40694
40027.4
39416.6
38851.7
38325.2
37831.2
37364.9
36922.7
36501.5
36098.6
35712.1
35340
34980.8
34633.1
34295.8
33967.8
33648.2
33336.2
33031.1
32732.2
32438.8
32150.5
31866.7
31587
31310.8
31037.9
30767.7
30500
30234.4
29970.5
29708.1
29446.7
29186.2
28926.1
28666.3
28406.3
28145.9
27884.9
27622.9
27359.7
27094.9
26828.3
26559.5
26288.3
26014.3
25737.2
25456.8
25172.6
24884.4
24591.7
24294.2
23991.6
23683.5
23369.4
23049
22721.8
44296.4
43195.6
42254.6
41430.1
40694
40027.3
39416.5
38851.6
38325.1
37831
37364.7
36922.5
36501.2
36098.3
35711.7
35339.5
34980.3
34632.5
34295.1
33967.1
33647.4
33335.3
33030.1
32731.1
32437.6
32149.2
31865.2
31585.3
31309
31035.9
30765.6
30497.7
30231.9
29967.8
29705.1
29443.5
29182.6
28922.3
28662.1
28401.8
28141.1
27879.7
27617.3
27353.6
27088.4
26821.2
26551.9
26280.1
26005.6
25727.9
25446.8
25161.9
24872.9
24579.4
24281.1
23977.6
23668.5
23353.4
23032
22703.6
44296.4
43195.6
42254.6
41430
40693.9
40027.2
39416.4
38851.5
38325
37830.8
37364.5
36922.2
36500.9
36098
35711.4
35339.2
34979.8
34632.1
34294.6
33966.5
33646.7
33334.6
33029.3
32730.1
32436.6
32148
31864
31584
31307.5
31034.3
30763.8
30495.7
30229.7
29965.4
29702.5
29440.7
29179.7
28919
28658.6
28398
28137
27875.3
27612.6
27348.5
27082.9
26815.3
26545.6
26273.3
25998.3
25720.1
25438.4
25152.9
24863.3
24569.1
24270.1
23965.9
23656
23340
23017.7
22688.4
44296.4
43195.5
42254.6
41430
40693.9
40027.2
39416.4
38851.4
38324.8
37830.7
37364.4
36922.1
36500.7
36097.8
35711.1
35338.9
34979.5
34631.7
34294.2
33966
33646.2
33334
33028.6
32729.4
32435.8
32147.1
31863
31582.9
31306.3
31033
30762.4
30494.2
30228
29963.6
29700.5
29438.5
29177.3
28916.5
28655.8
28395
28133.7
27871.8
27608.8
27344.4
27078.5
26810.6
26540.5
26267.9
25992.4
25713.8
25431.6
25145.7
24855.5
24560.9
24261.3
23956.4
23645.9
23329.3
23006.2
22676.2
44296.4
43195.5
42254.5
41430
40693.8
40027.1
39416.3
38851.4
38324.8
37830.6
37364.3
36921.9
36500.6
36097.6
35710.9
35338.6
34979.3
34631.4
34293.9
33965.6
33645.8
33333.5
33028.1
32728.8
32435.1
32146.4
31862.2
31582
31305.4
31032
30761.3
30493
30226.7
29962.2
29699
29436.9
29175.5
28914.5
28653.7
28392.7
28131.3
27869.1
27605.9
27341.3
27075.1
26807
26536.7
26263.8
25988
25709
25426.6
25140.2
24849.7
24554.6
24254.6
23949.3
23638.3
23321.2
22997.6
22667
44296.4
43195.5
42254.5
41429.9
40693.8
40027.1
39416.3
38851.3
38324.7
37830.6
37364.2
36921.9
36500.5
36097.5
35710.8
35338.5
34979.1
34631.2
34293.6
33965.4
33645.5
33333.2
33027.8
32728.5
32434.7
32146
31861.7
31581.5
31304.8
31031.3
30760.5
30492.2
30225.9
29961.2
29698
29435.7
29174.3
28913.2
28652.3
28391.2
28129.6
27867.3
27604
27339.3
27072.9
26804.6
26534.1
26261
25985
25705.9
25423.2
25136.6
24845.8
24550.5
24250.2
23944.6
23633.3
23315.8
22991.8
22660.9
44296.4
43195.5
42254.5
41429.9
40693.8
40027.1
39416.2
38851.3
38324.7
37830.5
37364.2
36921.8
36500.4
36097.4
35710.7
35338.4
34979
34631.1
34293.5
33965.3
33645.4
33333.1
33027.6
32728.3
32434.5
32145.8
31861.5
31581.2
31304.5
31031
30760.2
30491.8
30225.4
29960.8
29697.5
29435.2
29173.7
28912.6
28651.6
28390.4
28128.8
27866.4
27603
27338.2
27071.8
26803.5
26532.8
26259.6
25983.6
25704.3
25421.5
25134.8
24843.9
24548.4
24248
23942.2
23630.7
23313.1
22988.9
22657.8
44297.3
43197.8
42258.4
41435.5
40701.4
40036.9
39428.6
38866.5
38343.2
37852.7
37390.4
36952.7
36536.4
36139
35758.5
35393
35041
34701.3
34372.6
34054.1
33744.8
33444
33150.9
32865.1
32585.9
32312.9
32045.6
31783.7
31526.8
31274.5
31026.6
30782.7
30542.7
30306.3
30073.4
29843.6
29616.9
29393.1
29172
28953.4
28737.4
28523.7
28312.3
28103.1
27896
27690.9
27487.7
27286.5
27087.1
26889.6
26694
26500.1
26308.1
26118
25929.8
25743.5
25559.2
25377
25196.9
25019.2
44297.3
43197.8
42258.4
41435.5
40701.3
40036.9
39428.6
38866.5
38343.2
37852.7
37390.4
36952.6
36536.3
36138.9
35758.4
35392.9
35040.9
34701.2
34372.5
34054
33744.6
33443.8
33150.8
32864.9
32585.7
32312.7
32045.4
31783.4
31526.5
31274.1
31026.2
30782.3
30542.3
30305.9
30072.8
29843
29616.3
29392.4
29171.2
28952.7
28736.6
28522.8
28311.4
28102
27894.8
27689.6
27486.4
27285
27085.6
26888
26692.2
26498.2
26306.1
26115.8
25927.4
25740.9
25556.4
25374
25193.7
25015.8
44297.3
43197.8
42258.4
41435.5
40701.3
40036.8
39428.5
38866.5
38343.1
37852.6
37390.3
36952.6
36536.2
36138.8
35758.3
35392.8
35040.8
34701
34372.3
34053.7
33744.4
33443.5
33150.4
32864.5
32585.3
32312.2
32044.9
31782.9
31525.9
31273.5
31025.5
30781.5
30541.4
30304.9
30071.8
29841.9
29615.1
29391.1
29169.8
28951.1
28734.9
28521
28309.4
28099.9
27892.5
27687.1
27483.7
27282.2
27082.5
26884.6
26688.6
26494.3
26301.9
26111.3
25922.6
25735.7
25550.9
25368.1
25187.4
25008.9
44297.3
43197.8
42258.4
41435.5
40701.3
40036.8
39428.5
38866.4
38343.1
37852.5
37390.2
36952.4
36536.1
36138.7
35758.1
35392.5
35040.5
34700.7
34372
34053.4
33744
33443
33149.9
32864
32584.7
32311.5
32044.1
31782
31524.9
31272.5
31024.4
30780.3
30540.1
30303.5
30070.3
29840.2
29613.2
29389.1
29167.6
28948.8
28732.4
28518.3
28306.4
28096.7
27889.1
27683.4
27479.7
27277.9
27077.8
26879.6
26683.2
26488.6
26295.7
26104.7
25915.4
25728.1
25542.6
25359.2
25177.8
24998.7
44297.3
43197.8
42258.3
41435.5
40701.3
40036.8
39428.4
38866.3
38343
37852.4
37390.1
36952.3
36535.9
36138.4
35757.8
35392.2
35040.2
34700.3
34371.6
34052.9
33743.4
33442.4
33149.2
32863.2
32583.8
32310.6
32043.1
31780.9
31523.7
31271.1
31022.9
30778.7
30538.4
30301.6
30068.2
29838
29610.8
29386.4
29164.8
28945.7
28729
28514.6
28302.5
28092.5
27884.5
27678.5
27474.4
27272.1
27071.7
26873
26676.1
26480.9
26287.5
26095.8
25905.9
25717.8
25531.6
25347.4
25165.2
24985.1
44297.3
43197.8
42258.3
41435.4
40701.2
40036.7
39428.3
38866.2
38342.8
37852.3
37389.9
36952.1
36535.6
36138.2
35757.5
35391.9
35039.8
34699.8
34371
34052.3
33742.8
33441.7
33148.4
32862.3
32582.8
32309.5
32041.9
31779.6
31522.2
31269.5
31021.1
30776.7
30536.2
30299.2
30065.6
29835.2
29607.8
29383.1
29161.2
28941.8
28724.8
28510.1
28297.6
28087.2
27878.8
27672.4
27467.8
27265
27064
26864.8
26667.2
26471.4
26277.2
26084.8
25894.1
25705.1
25518
25332.7
25149.4
24968.2
44297.3
43197.8
42258.3
41435.4
40701.2
40036.6
39428.2
38866.1
38342.7
37852.1
37389.7
36951.8
36535.4
36137.8
35757.1
35391.4
35039.2
34699.3
34370.4
34051.6
33741.9
33440.8
33147.4
32861.2
32581.6
32308.1
32040.4
31777.9
31520.4
31267.5
31018.9
30774.4
30533.6
30296.4
30062.6
29831.9
29604.1
29379.2
29156.9
28937.2
28719.8
28504.7
28291.8
28080.9
27872
27665
27459.9
27256.5
27054.9
26854.9
26656.6
26460
26265
26071.6
25879.9
25689.9
25501.7
25315.2
25130.7
24948.1
44297.2
43197.8
42258.3
41435.3
40701.1
40036.5
39428.1
38866
38342.5
37851.9
37389.5
36951.5
36535
36137.4
35756.7
35390.9
35038.7
34698.6
34369.6
34050.7
33741
33439.7
33146.2
32859.9
32580.2
32306.6
32038.6
31776
31518.3
31265.2
31016.4
30771.6
30530.6
30293.1
30059
29828
29599.9
29374.7
29152
28931.8
28714
28498.5
28285
28073.6
27864.2
27656.6
27450.7
27246.7
27044.3
26843.5
26644.3
26446.8
26250.8
26056.4
25863.5
25672.3
25482.8
25295
25108.9
24924.7
44297.2
43197.7
42258.2
41435.3
40701
40036.4
39428
38865.8
38342.3
37851.6
37389.2
36951.2
36534.6
36137
35756.2
35390.3
35038
34697.9
34368.8
34049.8
33740
33438.6
33144.9
32858.4
32578.5
32304.8
32036.7
31773.8
31515.9
31262.6
31013.5
30768.5
30527.2
30289.4
30055
29823.6
29595.2
29369.5
29146.4
28925.8
28707.5
28491.4
28277.4
28065.3
27855.2
27646.9
27440.4
27235.5
27032.2
26830.5
26630.4
26431.8
26234.7
26039.1
25845
25652.4
25461.4
25272
25084.2
24898.2
44297.2
43197.7
42258.2
41435.2
40700.9
40036.3
39427.9
38865.6
38342.1
37851.4
37388.9
36950.8
36534.2
36136.5
35755.6
35389.7
35037.3
34697
34367.8
34048.7
33738.8
33437.2
33143.5
32856.8
32576.7
32302.8
32034.5
31771.4
31513.3
31259.7
31010.4
30765
30523.4
30285.3
30050.5
29818.7
29589.9
29363.7
29140.1
28919
28700.1
28483.5
28268.8
28056.1
27845.3
27636.2
27428.8
27223
27018.8
26816.1
26614.9
26415.1
26216.7
26019.8
25824.3
25630.2
25437.5
25246.4
25056.7
24868.7
44297.2
43197.7
42258.1
41435.1
40700.8
40036.2
39427.7
38865.4
38341.9
37851.1
37388.5
36950.4
36533.7
36136
35755
35389
35036.5
34696.1
34366.8
34047.6
33737.5
33435.8
33141.8
32855
32574.8
32300.6
32032
31768.8
31510.3
31256.5
31006.9
30761.2
30519.2
30280.7
30045.5
29813.3
29584
29357.4
29133.3
28911.5
28692.1
28474.7
28259.4
28045.9
27834.3
27624.3
27416
27209.3
27004
26800.2
26597.8
26396.7
26197
25998.6
25801.5
25605.7
25411.3
25218.2
25026.5
24836.3
44297.2
43197.7
42258.1
41435.1
40700.7
40036
39427.5
38865.2
38341.6
37850.8
37388.2
36950
36533.2
36135.4
35754.3
35388.2
35035.6
34695.1
34365.7
34046.3
33736
33434.2
33140.1
32853.1
32572.6
32298.2
32029.4
31765.9
31507.2
31253
31003
30757
30514.7
30275.8
30040.1
29807.5
29577.6
29350.4
29125.8
28903.4
28683.3
28465.2
28249.1
28034.9
27822.3
27611.5
27402.2
27194.3
26987.9
26782.9
26579.2
26376.7
26175.5
25975.5
25776.7
25579.1
25382.7
25187.5
24993.6
24801
44297.2
43197.6
42258
41435
40700.6
40035.9
39427.3
38865
38341.3
37850.4
37387.7
36949.5
36532.7
36134.7
35753.5
35387.4
35034.6
34694
34364.5
34044.9
33734.5
33432.5
33138.2
32850.9
32570.3
32295.6
32026.6
31762.7
31503.7
31249.2
30998.9
30752.5
30509.8
30270.4
30034.3
29801.1
29570.7
29343
29117.7
28894.7
28673.8
28455
28238.1
28022.9
27809.5
27597.6
27387.2
27178.2
26970.6
26764.3
26559.1
26355.2
26152.3
25950.6
25750
25550.4
25351.9
25154.5
24958.2
24763
44297.2
43197.6
42258
41434.9
40700.5
40035.7
39427.1
38864.7
38341
37850.1
37387.3
36949
36532.1
36134
35752.8
35386.5
35033.6
34692.9
34363.2
34043.4
33732.9
33430.7
33136.1
32848.7
32567.7
32292.8
32023.5
31759.4
31500.1
31245.2
30994.5
30747.7
30504.5
30264.7
30028
29794.3
29563.4
29335
29109
28885.3
28663.7
28444
28226.2
28010.1
27795.7
27582.7
27371.2
27161
26952.1
26744.3
26537.7
26332.1
26127.6
25924
25721.4
25519.7
25319
25119.2
24920.3
24722.4
44297.2
43197.5
42257.9
41434.8
40700.3
40035.6
39426.9
38864.5
38340.7
37849.7
37386.9
36948.5
36531.5
36133.3
35751.9
35385.5
35032.5
34691.6
34361.8
34041.9
33731.1
33428.7
33134
32846.3
32565.1
32289.9
32020.3
31755.8
31496.1
31240.9
30989.8
30742.6
30498.9
30258.6
30021.4
29787.1
29555.6
29326.5
29099.8
28875.3
28652.9
28432.4
28213.7
27996.6
27781
27566.9
27354.2
27142.7
26932.4
26723.1
26514.9
26307.6
26101.3
25895.8
25691.1
25487.2
25284.1
25081.7
24880.1
24679.3
44297.2
43197.5
42257.8
41434.7
40700.2
40035.4
39426.7
38864.2
38340.3
37849.3
37386.4
36947.9
36530.8
36132.5
35751
35384.5
35031.4
34690.3
34360.3
34040.2
33729.3
33426.7
33131.7
32843.7
32562.3
32286.8
32016.9
31752.1
31492
31236.4
30984.9
30737.2
30493
30252.2
30014.4
29779.5
29547.3
29317.5
29090.1
28864.8
28641.5
28420.1
28200.4
27982.2
27765.6
27550.3
27336.2
27123.4
26911.5
26700.7
26490.8
26281.8
26073.5
25865.9
25659.1
25452.8
25247.2
25042.2
24837.7
24633.8
44297.1
43197.5
42257.7
41434.6
40700.1
40035.2
39426.5
38863.9
38340
37848.8
37385.9
36947.3
36530.1
36131.7
35750.1
35383.4
35030.2
34689
34358.8
34038.5
33727.4
33424.5
33129.3
32841.1
32559.3
32283.5
32013.3
31748.1
31487.7
31231.6
30979.7
30731.5
30486.8
30245.4
30007.1
29771.5
29538.6
29308.1
29079.9
28853.8
28629.6
28407.2
28186.4
27967.2
27749.3
27532.8
27317.4
27103.1
26889.7
26677.2
26465.6
26254.6
26044.3
25834.6
25625.5
25416.8
25208.6
25000.7
24793.3
24586.2
44297.1
43197.4
42257.7
41434.5
40699.9
40035
39426.2
38863.6
38339.6
37848.4
37385.3
36946.7
36529.4
36130.9
35749.1
35382.3
35028.9
34687.5
34357.2
34036.7
33725.3
33422.2
33126.8
32838.3
32556.2
32280.1
32009.5
31744
31483.1
31226.7
30974.2
30725.5
30480.3
30238.3
29999.4
29763.2
29529.5
29298.3
29069.2
28842.2
28617.1
28393.7
28171.8
27951.4
27732.4
27514.5
27297.7
27081.8
26866.9
26652.7
26439.2
26226.3
26013.9
25802
25590.4
25379.2
25168.2
24957.5
24746.9
24536.5
44297.1
43197.4
42257.6
41434.3
40699.7
40034.8
39425.9
38863.3
38339.2
37847.9
37384.8
36946
36528.6
36130
35748.1
35381.2
35027.6
34686.1
34355.5
34034.8
33723.2
33419.9
33124.2
32835.4
32553
32276.6
32005.6
31739.7
31478.4
31221.5
30968.6
30719.3
30473.6
30231
29991.4
29754.5
29520.1
29288
29058.1
28830.2
28604.1
28379.6
28156.7
27935.1
27714.7
27495.5
27277.2
27059.8
26843.2
26627.2
26411.8
26196.8
25982.3
25768
25554
25340.1
25126.3
24912.5
24698.7
24484.8
44297.1
43197.3
42257.5
41434.2
40699.6
40034.6
39425.7
38862.9
38338.8
37847.4
37384.2
36945.3
36527.8
36129.1
35747.1
35380
35026.2
34684.5
34353.7
34032.9
33721
33417.5
33121.4
32832.4
32549.7
32272.9
32001.6
31735.2
31473.5
31216.1
30962.7
30712.9
30466.6
30223.4
29983.1
29745.4
29510.3
29277.4
29046.6
28817.8
28590.6
28365.1
28140.9
27918.1
27696.4
27475.8
27256
27037
26818.6
26600.8
26383.4
26166.4
25949.5
25732.9
25516.3
25299.7
25082.9
24866
24648.9
24431.5
44297.1
43197.3
42257.4
41434.1
40699.4
40034.3
39425.4
38862.6
38338.4
37846.9
37383.6
36944.6
36527
36128.2
35746
35378.7
35024.8
34682.9
34351.9
34030.9
33718.8
33414.9
33118.6
32829.3
32546.3
32269.1
31997.4
31730.6
31468.5
31210.6
30956.6
30706.3
30459.4
30215.5
29974.5
29736.1
29500.2
29266.5
29034.8
28804.9
28576.7
28350
28124.7
27900.6
27677.6
27455.4
27234.1
27013.4
26793.3
26573.5
26354.1
26134.9
25915.8
25696.7
25477.4
25258
25038.2
24818.1
24597.6
24376.5
44297
43197.2
42257.3
41434
40699.2
40034.1
39425.1
38862.2
38338
37846.4
37383
36943.9
36526.2
36127.2
35744.9
35377.4
35023.4
34681.3
34350.1
34028.8
33716.5
33412.3
33115.8
32826.1
32542.7
32265.2
31993.1
31725.9
31463.3
31204.9
30950.4
30699.5
30451.9
30207.4
29965.7
29726.6
29489.8
29255.2
29022.6
28791.7
28562.4
28334.6
28108.1
27882.6
27658.2
27434.5
27211.6
26989.2
26767.2
26545.5
26324.1
26102.6
25881.1
25659.4
25437.5
25215.2
24992.4
24769
24544.9
24320.1
44297
43197.2
42257.2
41433.8
40699.1
40033.9
39424.8
38861.9
38337.5
37845.9
37382.4
36943.2
36525.3
36126.2
35743.7
35376.1
35021.9
34679.6
34348.2
34026.7
33714.1
33409.7
33112.8
32822.8
32539.1
32261.2
31988.6
31721
31457.9
31199
30944
30692.5
30444.3
30199.1
29956.7
29716.8
29479.2
29243.7
29010
28778.2
28547.8
28318.8
28091
27864.2
27638.3
27413.1
27188.5
26964.4
26740.6
26516.9
26293.3
26069.5
25845.6
25621.4
25396.7
25171.4
24945.4
24718.7
24491.1
24262.4
44297
43197.1
42257.1
41433.7
40698.9
40033.6
39424.5
38861.5
38337.1
37845.3
37381.7
36942.4
36524.4
36125.2
35742.6
35374.8
35020.4
34677.9
34346.3
34024.5
33711.6
33407
33109.8
32819.4
32535.4
32257.1
31984.1
31716.1
31452.5
31193.1
30937.5
30685.4
30436.5
30190.6
29947.5
29706.7
29468.3
29231.9
28997.3
28764.3
28532.8
28302.6
28073.5
27845.4
27618
27391.3
27165
26939.1
26713.3
26487.6
26261.8
26035.8
25809.4
25582.5
25355
25126.8
24897.6
24667.4
24436.2
24203.6
44297
43197
42257
41433.6
40698.7
40033.4
39424.2
38861.1
38336.6
37844.8
37381.1
36941.7
36523.5
36124.1
35741.4
35373.4
35018.8
34676.1
34344.3
34022.3
33709.2
33404.2
33106.7
32816
32531.6
32252.9
31979.5
31711
31447
31187
30930.8
30678.1
30428.6
30182
29938.1
29696.5
29457.2
29219.9
28984.3
28750.3
28517.6
28286.2
28055.8
27826.2
27597.4
27369
27141.1
26913.3
26685.7
26457.9
26229.9
26001.5
25772.6
25543
25312.7
25081.4
24849
24615.4
24380.4
24143.9
44297
43197
42256.9
41433.4
40698.5
40033.2
39423.9
38860.7
38336.1
37844.2
37380.4
36940.9
36522.6
36123.1
35740.2
35372.1
35017.2
34674.4
34342.3
34020
33706.6
33401.4
33103.6
32812.6
32527.8
32248.7
31974.9
31705.9
31441.3
31180.8
30924.1
30670.8
30420.6
30173.3
29928.5
29686.2
29446
29207.7
28971.1
28736
28502.2
28269.5
28037.8
27806.8
27576.4
27346.5
27116.8
26887.2
26657.6
26427.7
26197.5
25966.7
25735.3
25503
25269.8
25035.4
24799.7
24562.6
24323.9
24083.5
44296.9
43196.9
42256.8
41433.3
40698.3
40032.9
39423.6
38860.3
38335.7
37843.7
37379.7
36940.1
36521.7
36122
35738.9
35370.7
35015.7
34672.6
34340.3
34017.7
33704.1
33398.6
33100.4
32809.1
32523.9
32244.4
31970.2
31700.7
31435.6
31174.6
30917.3
30663.3
30412.4
30164.4
29918.9
29675.7
29434.6
29195.3
28957.7
28721.5
28486.5
28252.6
28019.5
27787.1
27555.2
27323.7
27092.2
26860.8
26629.2
26397.2
26164.7
25931.5
25697.5
25462.5
25226.4
24988.9
24749.9
24509.3
24266.9
24022.4
44296.9
43196.9
42256.7
41433.1
40698.1
40032.6
39423.2
38859.9
38335.2
37843.1
37379
36939.3
36520.8
36120.9
35737.7
35369.3
35014
34670.8
34338.2
34015.4
33701.5
33395.7
33097.2
32805.5
32520
32240.1
31965.4
31695.5
31429.9
31168.3
30910.4
30655.8
30404.2
30155.4
29909.2
29665.1
29423.1
29182.9
28944.2
28706.9
28470.8
28235.6
28001.2
27767.3
27533.9
27300.7
27067.5
26834.1
26600.5
26366.4
26131.7
25896.1
25659.5
25421.7
25182.7
24942.1
24699.8
24455.7
24209.5
23961
44296.9
43196.8
42256.6
41433
40697.9
40032.4
39422.9
38859.5
38334.7
37842.5
37378.4
36938.5
36519.8
36119.9
35736.5
35367.8
35012.4
34668.9
34336.2
34013.1
33698.9
33392.8
33094
32802
32516
32235.7
31960.6
31690.2
31424.1
31161.9
30903.4
30648.2
30396
30146.4
29899.4
29654.5
29411.6
29170.4
28930.7
28692.2
28454.9
28218.4
27982.7
27747.4
27512.4
27277.5
27042.6
26807.4
26571.7
26335.5
26098.4
25860.4
25621.3
25380.8
25138.7
24895
24649.4
24401.8
24151.8
23899.4
44296.9
43196.7
42256.5
41432.8
40697.7
40032.1
39422.6
38859.1
38334.2
37841.9
37377.7
36937.7
36518.9
36118.8
35735.2
35366.4
35010.8
34667.1
34334.1
34010.8
33696.3
33389.9
33090.8
32798.4
32512.1
32231.4
31955.8
31684.9
31418.3
31155.6
30896.5
30640.6
30387.7
30137.4
29889.5
29643.8
29400
29157.8
28917
28677.5
28439
28201.2
27964.1
27727.4
27490.8
27254.3
27017.6
26780.5
26542.8
26304.4
26065.1
25824.7
25582.9
25339.7
25094.7
24847.9
24599
24347.8
24094.1
23837.8
24880.1
24776.4
24675.4
24576.8
24480.7
24387.1
24295.8
24206.8
24120.1
24035.7
23953.5
23873.4
23795.6
23719.8
23646.2
23574.7
23505.2
23437.8
23372.4
23309
23247.7
23188.3
23130.9
23075.5
23022.1
22970.6
22921.1
22873.5
22827.9
22784.3
22742.6
22702.9
22665.1
22629.3
22595.4
22563.5
22533.6
22505.7
22479.8
22455.9
22434
22414.1
22396.3
22380.5
22366.8
22355.2
22345.7
22338.4
22333.4
22330.8
24876.5
24772.9
24671.9
24573.3
24477.2
24383.6
24292.3
24203.3
24116.6
24032.2
23949.9
23869.9
23792
23716.3
23642.6
23571.1
23501.6
23434.2
23368.8
23305.4
23244
23184.6
23127.2
23071.8
23018.3
22966.9
22917.3
22869.8
22824.2
22780.5
22738.8
22699.1
22661.3
22625.5
22591.6
22559.7
22529.8
22501.9
22476
22452.1
22430.2
22410.3
22392.5
22376.7
22363
22351.4
22341.9
22334.6
22329.6
22327.1
24869.5
24765.9
24664.8
24566.3
24470.2
24376.6
24285.3
24196.3
24109.6
24025.1
23942.9
23862.8
23784.9
23709.2
23635.5
23563.9
23494.4
23426.9
23361.5
23298.1
23236.7
23177.3
23119.8
23064.4
23010.9
22959.4
22909.9
22862.3
22816.6
22773
22731.2
22691.5
22653.7