/*--------------------------------*- C++ -*----------------------------------*\
| =========                 |                                                 |
| \\      /  F ield         | OpenFOAM: The Open Source CFD Toolbox           |
|  \\    /   O peration     | Version:  2.3.1                                 |
|   \\  /    A nd           | Web:      www.OpenFOAM.org                      |
|    \\/     M anipulation  |                                                 |
\*---------------------------------------------------------------------------*/
FoamFile
{
    version     2.0;
    format      ascii;
    class       volScalarField;
    location    "3540";
    object      sigmaEq;
}
// * * * * * * * * * * * * * * * * * * * * * * * * * * * * * * * * * * * * * //

dimensions      [1 -1 -2 0 0 0 0];

internalField   nonuniform List<scalar> 
11800
(
182292
129597
602575
511750
125541
358986
170101
185236
198633
212023
181200
731513
94025.6
542862
463061
2.0086e+06
132490
132892
240322
146517
407542
660747
874417
783418
1.64593e+06
1.03096e+06
1.07482e+06
533715
1.17095e+06
1.26818e+06
354853
122934
1.03305e+06
136106
142334
341298
144355
1.10118e+06
143893
155199
1.11398e+06
1.21374e+06
560745
1.3154e+06
374350
1.88072e+06
837355
975840
171162
253032
767557
541522
140655
227776
2.1434e+06
1.76117e+06
69397
501448
390969
374830
1.75833e+06
154659
398204
327761
1.61406e+06
243467
789380
560641
69222.9
953510
144071
120330
116366
1.68214e+06
1.74128e+06
331482
1.6868e+06
230834
185271
189336
2.17897e+06
130153
125610
127911
129326
1.2224e+06
380947
1.12652e+06
1.03298e+06
556340
139450
1.22999e+06
158705
66098.7
194656
160362
20789.5
160346
141991
643744
80307
709579
1.16749e+06
404093
150739
343820
189576
164502
1.71683e+06
1.1356e+06
1.23233e+06
1.0413e+06
386290
564369
231930
1.55027e+06
226851
148838
1.45574e+06
218578
210298
171620
190909
146247
155924
139356
141827
141462
101160
29544.7
1.97192e+06
1.31348e+06
413291
1.22556e+06
592705
1.12723e+06
1.03239e+06
361666
1.04905e+06
513796
964945
883990
527561
203045
254271
344698
1.26489e+06
1.29586e+06
739395
388519
214319
206572
141541
270859
248141
192947
491067
675947
1.34707e+06
147529
1.97261e+06
239477
1.71749e+06
495463
538531
582765
295222
223194
2.1246e+06
1.32302e+06
468984
645681
161140
385877
384179
1.88093e+06
1.90138e+06
1.00485e+06
921891
1.09068e+06
492322
337744
261999
211968
466082
224399
347476
158106
179025
167913
249830
233194
221789
205352
957118
1.21646e+06
1.7428e+06
128348
230191
2.05209e+06
142847
296914
332681
145814
150693
880542
736769
677258
560733
1.9701e+06
604771
892549
2.68183e+06
2.24155e+06
2.27463e+06
353551
134995
861364
789797
725577
272427
391008
134340
134090
237245
143159
1.29844e+06
264057
145167
484779
219744
181429
143380
680666
694992
2.67831e+06
1.29678e+06
230608
241254
1.1932e+06
977136
338005
491867
1.09013e+06
1.00746e+06
924137
150099
1.1823e+06
414192
569629
533739
159664
130234
424267
375770
150402
2.27206e+06
294078
338636
243420
280303
726162
790786
856180
389615
274397
143641
1.72905e+06
165495
85761.4
140836
428041
157931
560425
2.01724e+06
402179
398679
603054
436684
502894
365925
1.24322e+06
1.03974e+06
332733
415484
265147
318172
572914
752587
275289
1.21789e+06
1.30641e+06
1.57178e+06
176387
397694
395290
1.81886e+06
1.83584e+06
1.09562e+06
1.0782e+06
1.11763e+06
1.10629e+06
138533
94535.2
300742
2.3552e+06
125951
132341
311333
256043
274351
956878
980109
1.62981e+06
2.2763e+06
710573
190508
914034
755571
527716
431078
169713
178182
268827
476238
250396
440961
130435
174251
168004
149078
1.29721e+06
168606
131940
1.89212e+06
320156
728145
807102
786096
993237
956150
107214
106106
657270
859785
594151
1.53862e+06
124388
851669
662529
434231
328200
323744
248579
330106
285330
377932
414428
446959
160373
141991
797406
846089
185358
230093
473508
400805
450848
205322
192516
240766
245297
924900
445862
329367
367054
1.11237e+06
1.29177e+06
352551
202924
191609
258446
240271
451152
523853
427385
501589
393990
462502
348828
330857
672804
341167
747074
1.28837e+06
647098
474208
2.08458e+06
138454
1.35298e+06
665082
483252
2.01355e+06
147558
1.38486e+06
342752
1.16688e+06
1.07699e+06
1.0475e+06
194244
88510.9
126867
2.4082e+06
2.08288e+06
923584
330479
447108
182445
239954
273046
149988
210882
1.59491e+06
64266.1
570288
436780
1.75998e+06
109967
179386
153134
152604
152487
153632
1.76134e+06
589463
236613
680881
626839
576418
120294
1.31915e+06
431026
602673
170011
870509
189474
1.68863e+06
138289
199871
492932
454592
418518
883108
235324
492222
434675
230592
684600
745587
808934
390073
280552
66703
173601
192691
2.18789e+06
749129
590707
427346
351561
186894
153812
112869
112971
194584
101935
117969
126492
166003
331815
149939
193513
590984
715212
337064
1.56212e+06
205668
370331
154968
182531
1.51384e+06
1.9794e+06
618751
673133
246099
218850
122626
1.32549e+06
1.92307e+06
1.70027e+06
2.45977e+06
798079
557443
731562
123974
187082
171934
191493
725959
146775
144829
126297
181998
1.32408e+06
294997
1.33986e+06
796942
172290
220653
1.09495e+06
1.38383e+06
721515
785867
848809
385279
272083
656973
144334
145564
142092
162733
129649
190556
98629.8
184007
97993
181445
86888.4
176864
162179
169007
116205
1.51575e+06
234224
250796
559165
889464
123086
153570
132883
129952
115667
292561
423175
131206
130332
580620
122607
182569
1.64625e+06
81841.2
165025
516422
475227
497848
539766
553937
584382
273241
205355
1.90386e+06
2.35518e+06
488756
87585.1
347582
338333
372546
264995
794776
734222
674295
172961
85561.2
768287
718533
320121
355346
179093
613893
667233
232062
1.0818e+06
1.09594e+06
1.10873e+06
1.09865e+06
1.86767e+06
1.8275e+06
573912
2.23693e+06
807124
139694
1.56232e+06
1.36941e+06
1.49144e+06
760404
308153
333590
186506
1.59271e+06
524584
662396
2.36744e+06
211651
260273
519263
503472
1.32169e+06
684995
1.97299e+06
138227
135505
270470
386258
857740
787772
723512
1.80864e+06
152668
394036
846960
1.2874e+06
135414
2.12109e+06
1.98408e+06
2.05388e+06
238505
323371
123812
2.10003e+06
601386
243454
413594
1.96868e+06
148345
245879
261227
143716
483189
296082
2.40727e+06
2.10518e+06
204551
595846
761884
291938
344570
257365
227127
641601
193933
591130
437076
1.12179e+06
981815
171666
1.28549e+06
142885
403647
496279
1.71934e+06
325597
441800
247108
203890
187907
219653
418152
977280
1.07683e+06
143056
138190
139310
184706
348850
1.30343e+06
116741
448003
809071
630019
226656
1.07328e+06
1.1891e+06
770463
1.29528e+06
1.40508e+06
580612
380985
162322
192697
362299
386310
336575
371670
193924
342972
400566
235509
143211
2.44419e+06
1.04671e+06
393073
530846
488797
237588
423055
617590
1.33226e+06
1.22672e+06
1.12383e+06
345721
408331
202177
216453
1.52352e+06
1.12413e+06
1.29771e+06
154182
202937
286973
675697
1.50064e+06
478742
95501.3
155577
2.22305e+06
2.0894e+06
250011
1.91358e+06
114753
163690
122151
726493
130254
226241
252013
1.3478e+06
1.46823e+06
1.59159e+06
1.7191e+06
774741
659235
548029
432416
194929
137049
424696
2.1056e+06
145801
142469
156128
148841
155309
161594
167419
1.63059e+06
823700
839833
493671
916305
996447
349211
1.16711e+06
279488
231974
152346
2.19799e+06
143462
171370
164844
171935
143263
2.0001e+06
281220
278449
1.07894e+06
352009
742360
265664
2.03638e+06
891344
444204
332054
1.37599e+06
492349
190482
160243
143057
138174
238735
263545
251869
182317
495924
159152
140068
868578
970528
122061
615725
885292
750971
1.01847e+06
1.90845e+06
1.76362e+06
1.62041e+06
1.47796e+06
615515
750236
1.91171e+06
1.76661e+06
884605
1.62341e+06
1.01835e+06
1.48085e+06
1.70934e+06
159451
137687
150374
249437
541298
1.19053e+06
143865
450456
615391
487609
669758
198588
255499
446429
652055
1.39774e+06
1.28685e+06
1.17859e+06
559133
415095
1.04795e+06
213511
269951
171437
348397
323518
294124
600314
469355
482406
358583
135761
726552
200141
367561
452455
1.12296e+06
607935
710873
577362
210939
273231
191112
168558
160141
183789
632454
534687
146380
219874
239774
491662
1.47013e+06
480052
672856
511736
163136
229309
215515
198740
270214
195469
651424
599657
547304
214722
1.59104e+06
739689
223428
977056
657737
1.41046e+06
1.92359e+06
237276
264854
223047
152616
161976
784971
668414
2.0033e+06
135297
189818
367770
542835
236409
144719
792495
784105
62521.3
141580
381566
310221
93248.7
1.75191e+06
1.92284e+06
315557
125432
285718
401648
857424
724280
789251
2.19545e+06
139644
621214
699575
170624
639579
781172
922079
1.06047e+06
1.99855e+06
1.84764e+06
1.69789e+06
1.54945e+06
639099
780245
2.00065e+06
1.84909e+06
920161
1.69957e+06
1.05964e+06
1.55085e+06
1.86855e+06
1.60938e+06
1.2137e+06
510521
582573
1.60897e+06
1.1991e+06
353276
124364
119203
1.1977e+06
2.12289e+06
160855
438383
1.75269e+06
1.19666e+06
1.92411e+06
1.96287e+06
1.25435e+06
1.25775e+06
576093
457606
597356
256684
188945
318241
163445
197327
239298
202874
436565
2.05617e+06
596593
203970
123770
383416
411496
1.86786e+06
389027
351660
444696
472259
1.21089e+06
570492
412613
1.56169e+06
441334
573304
208326
172979
398595
344176
371643
924225
596853
579167
1.40592e+06
1.3448e+06
572413
604086
1.06065e+06
1.13944e+06
426886
447246
141820
191606
200582
582290
453177
79203.7
170416
195243
680274
647890
349932
679648
525973
209274
129277
129616
540778
1.2987e+06
129486
1.92214e+06
277507
773728
710495
220819
275852
461597
154123
132625
1.63599e+06
411711
1.06094e+06
978679
898264
329523
478314
171526
1.48678e+06
1.95315e+06
180815
150746
1.07322e+06
391653
533787
922455
1.00498e+06
1.10146e+06
333356
482340
64300.2
786473
407126
1.9459e+06
330756
1.12135e+06
925489
1.03818e+06
145334
148334
150784
160640
161121
142083
1.61721e+06
499595
188290
219421
242254
272633
338394
375459
770227
745857
710858
686142
631093
652733
1.13235e+06
172585
143871
140081
188647
215357
153436
173131
1.34602e+06
276317
502423
425730
1.09756e+06
575764
203316
212261
474242
367786
653628
534911
1.31766e+06
1.15433e+06
1.06378e+06
975056
542224
1.51914e+06
748061
1.51851e+06
268034
223805
288974
281546
196919
180159
194832
1.54009e+06
2.00798e+06
356455
119903
265064
597060
463127
131437
158144
261827
247624
255951
238167
313567
295117
222972
505763
561383
546702
606870
463598
515412
572514
135988
1.24576e+06
987230
523388
1.25797e+06
1.18198e+06
690258
2.00728e+06
378182
359354
407495
437021
201583
166960
180221
381510
150318
1.67512e+06
219644
146441
830794
61609.2
121601
1.66963e+06
191722
429362
1.36874e+06
628703
1.26097e+06
1.15547e+06
1.50556e+06
1.00075e+06
163768
632468
506055
213833
1.4192e+06
646905
217012
1.18176e+06
1.0767e+06
1.28667e+06
141236
143827
165344
2.42593e+06
289785
451020
550659
251299
145675
143834
434277
469707
185473
1.6713e+06
439259
1.68246e+06
257049
833652
143441
664964
795782
1.05767e+06
424043
569992
683041
277707
2.37301e+06
171850
122136
147515
2.02807e+06
1.33306e+06
333627
489919
1.11205e+06
1.02927e+06
944628
2.08763e+06
634325
514155
2.09202e+06
2.36184e+06
1.62587e+06
86697
559330
1.37946e+06
1.03452e+06
562369
419321
1.0364e+06
924474
427029
1.41171e+06
340889
281496
528959
465560
355413
1.64322e+06
2.49305e+06
129796
142774
168527
2.38442e+06
165646
192465
732537
562261
2.11287e+06
2.21306e+06
141348
627299
219171
208189
519045
224094
135664
560699
133295
150969
2.5059e+06
1.08748e+06
602956
450985
406038
291692
825023
761021
697733
217218
2.23887e+06
440162
397748
449992
1.87553e+06
762362
1.11802e+06
155070
242263
182905
839860
511321
681062
130223
292440
398082
844427
298207
192291
165010
324675
2.08788e+06
301545
406387
836858
1.34968e+06
1.90716e+06
1.28315e+06
879386
689699
816199
85819.4
241846
334592
714371
658689
605728
1.9062e+06
151446
195243
209411
209019
209618
204214
299703
142509
143667
683146
1.72294e+06
485639
1.07636e+06
992110
910600
334639
1.94726e+06
619908
706077
844723
728216
1.19108e+06
1.90454e+06
574026
152912
741901
122171
892021
535326
973605
1.05909e+06
380872
1.23306e+06
304623
2.58372e+06
884244
145270
1.77463e+06
2.59045e+06
2.23029e+06
525687
140207
996553
171978
160945
120324
281452
154728
158359
137196
143033
1.60944e+06
1.68938e+06
144161
1.11325e+06
180896
171704
142263
233969
1.15178e+06
1.15787e+06
264879
1.17238e+06
1.17554e+06
1.52025e+06
500373
188604
234676
319248
639636
694799
237034
62910.3
164524
763311
360343
878399
988845
1.08109e+06
1.17608e+06
603821
426605
316188
177405
153898
1.9354e+06
1.06614e+06
133571
222369
948816
738524
400887
434550
201067
178364
329612
291672
119383
223490
155039
1.62288e+06
628398
1.52951e+06
146503
137271
2.5917e+06
138807
2.01009e+06
1.98251e+06
144418
920970
462772
1.59166e+06
157971
869305
997316
2.1729e+06
242528
154388
131742
492216
233281
316736
638986
584994
537420
159333
130794
181861
172901
1.12564e+06
1.24047e+06
847194
1.45003e+06
1.33127e+06
1.54172e+06
2.20534e+06
276082
703358
2.10047e+06
622277
1.97778e+06
936020
1.01984e+06
1.10707e+06
489725
333524
413292
485990
1.83088e+06
168134
195513
286578
271377
252923
186871
377367
348106
325825
803514
824753
2.44097e+06
268205
127949
177299
1.9326e+06
554118
298804
288279
1.88645e+06
973841
672366
111037
203706
131846
959633
1.22422e+06
311294
1.38701e+06
190783
185247
2.51631e+06
1.65045e+06
2.02021e+06
391009
517639
908598
287326
714044
2.0958e+06
2.22178e+06
187890
216087
362305
296510
1.03989e+06
1.16138e+06
793985
894456
2.32734e+06
2.15119e+06
275825
185162
110492
1.53248e+06
127492
2.02122e+06
404733
304919
1.08529e+06
345936
144807
1.88011e+06
215484
278008
110611
131457
1.40096e+06
479935
148331
759571
360413
200685
150698
133545
698633
134710
1.9175e+06
1.73019e+06
315446
852198
483932
146604
162914
1.4853e+06
181117
998208
256626
549507
1.14774e+06
1.31115e+06
1.83079e+06
198139
314881
2.00128e+06
251250
159860
148469
174344
135606
2.05289e+06
1.59737e+06
366599
503137
874635
872552
1.14614e+06
402709
552037
399283
578543
1.23594e+06
1.1387e+06
1.04342e+06
1.63947e+06
768170
549095
1.58898e+06
552647
1.7285e+06
644588
711574
1.9053e+06
2.5877e+06
2.21315e+06
432113
424370
1.18627e+06
562940
409362
139963
358697
1.83482e+06
156222
181495
2.3358e+06
1.74447e+06
2.01473e+06
924568
1.1468e+06
1.15672e+06
998406
129792
121808
183045
124360
716346
779687
847806
394634
278045
612099
2.04253e+06
156068
208303
175060
162616
1.04521e+06
944790
194218
1.81647e+06
2.05749e+06
1.20774e+06
985666
1.65382e+06
1.90518e+06
124841
913552
580895
1.2646e+06
169724
269397
288340
1.62279e+06
1.61649e+06
748991
374781
119382
142865
236995
497381
1.70019e+06
226794
1.30369e+06
156876
377278
257663
340682
584993
301377
463846
45067.2
13022.4
463214
2.42208e+06
210571
174123
176238
138805
128759
187540
194072
141585
143635
537910
140104
152692
187616
1.00683e+06
1.24214e+06
893168
1.69725e+06
2.15559e+06
151366
208279
392877
173069
1.53522e+06
219088
2.25885e+06
242523
314542
607702
449490
240138
247644
574977
135261
158500
198777
128082
190981
125429
1.99907e+06
112708
161920
291311
127649
97243.7
1.92148e+06
213647
1.6616e+06
1.76491e+06
640545
415764
333787
484135
1.08992e+06
1.01553e+06
932071
137621
1.20575e+06
628437
134577
2.05344e+06
142375
148873
379841
1.12687e+06
896355
995027
1.37261e+06
198446
151763
425029
628662
1.37595e+06
730674
1.48881e+06
526678
1.2673e+06
1.16146e+06
419671
1.47772e+06
520488
1.36042e+06
617861
1.25362e+06
1.14882e+06
720411
1.4964e+06
189633
617992
481477
155842
196634
1.67256e+06
1.03754e+06
1.4065e+06
1.30811e+06
1.14145e+06
1.41414e+06
1.0424e+06
397284
435660
644161
1.55763e+06
153116
2.31569e+06
187343
152566
1.74805e+06
206702
325618
642177
638155
1.89591e+06
117281
1.20062e+06
1.10765e+06
1.01558e+06
370038
542621
2.32526e+06
390239
299558
694046
182091
726394
335308
355733
129397
207185
216065
187341
552926
128003
680550
365187
277793
925322
1.23357e+06
1.23949e+06
924870
453283
2.19292e+06
141305
142302
1.96103e+06
1.77419e+06
1.07657e+06
2.57859e+06
1.15047e+06
991687
1.02928e+06
2.29196e+06
1.13758e+06
909257
2.03549e+06
437781
460356
679746
1.79194e+06
114911
1.52981e+06
183023
267649
414704
695189
757835
822874
403209
288757
466509
78629
84226.1
153158
162375
221879
183748
147480
201157
1.13754e+06
2.08467e+06
249410
186280
1.92054e+06
1.38833e+06
547383
742097
152932
160509
1.66993e+06
1.10622e+06
237593
879212
824171
1.10471e+06
135902
152811
158928
137239
1.30324e+06
2.11224e+06
2.06573e+06
1.40131e+06
2.23826e+06
283952
127366
365880
1.11178e+06
1.01946e+06
1.20671e+06
548329
372883
2.35394e+06
515504
649503
849519
277151
236461
983101
348761
179903
744026
284159
367191
2.18555e+06
375517
332423
1.16624e+06
1.07614e+06
988006
497068
1.49039e+06
1.4029e+06
1.84002e+06
573809
593775
756006
1.5667e+06
742547
532944
1.39255e+06
269216
2.58893e+06
173150
1.97613e+06
526638
602473
143273
640771
1.22767e+06
150299
176002
171673
2.28573e+06
669718
613512
724674
358169
259436
329684
650441
1.49497e+06
656973
1.28127e+06
1.51387e+06
1.3971e+06
438692
1.41708e+06
1.07627e+06
1.13976e+06
1.34945e+06
1.41924e+06
1.07733e+06
1.14971e+06
1.35826e+06
784565
659082
50878.3
316506
195007
449832
663123
551943
768692
1.551e+06
1.43531e+06
1.3217e+06
1.21103e+06
445314
1.23921e+06
611642
171241
119040
124782
213443
114077
528650
1.25272e+06
1.28087e+06
456145
2.12344e+06
176217
157755
1.65546e+06
2.0539e+06
102626
1.30731e+06
515932
698123
975015
546298
348940
156552
516841
740348
70321.8
144860
2.14974e+06
285100
214999
519176
477476
562695
362648
142522
148311
369737
1.29462e+06
2.00771e+06
2.32455e+06
356635
396298
1.6692e+06
1.50474e+06
1.96063e+06
122532
1.09403e+06
1.9091e+06
2.33833e+06
2.41241e+06
2.35572e+06
612292
1.06536e+06
458531
2.21727e+06
1.67241e+06
683852
1.44512e+06
161716
144768
1.72035e+06
1.72214e+06
146018
464747
2.14317e+06
1.79753e+06
1.7083e+06
1.76794e+06
2.42234e+06
1.64358e+06
2.12894e+06
1.84256e+06
162842
291831
1.35549e+06
648697
1.11164e+06
234410
155291
196508
181373
166636
218975
195630
460568
2.13414e+06
1.29685e+06
454590
627797
1.3879e+06
182661
643864
450299
2.47834e+06
345412
334417
618191
352298
573073
253590
198840
2.01716e+06
16560.5
161752
161492
33282.8
498213
537086
192669
211195
224948
157669
572704
561267
139369
2.15196e+06
1.83755e+06
657185
1.3843e+06
472917
134136
1.61546e+06
357089
2.13813e+06
588779
719846
851107
980996
1.86458e+06
1.72522e+06
1.58562e+06
1.44939e+06
587879
718164
1.86475e+06
1.72452e+06
848458
1.5853e+06
978691
1.44838e+06
325769
250294
607396
657980
580592
275538
226221
193390
156297
146372
165428
140637
147530
248956
997238
1.07085e+06
957274
536222
1.04288e+06
1.14928e+06
1.78352e+06
753664
607389
1.90337e+06
635571
218175
135279
187176
154645
300658
276329
280540
150592
406237
319920
412615
845497
149796
222014
1.00814e+06
162033
119325
148191
127231
1.5025e+06
178827
211141
706615
563680
276871
705948
228264
137437
125195
2.25953e+06
2.32546e+06
1.40463e+06
1.14985e+06
1.12119e+06
1.4283e+06
2.27772e+06
1.17723e+06
138171
759495
422261
323466
466019
223678
2.16374e+06
236520
1.27192e+06
1.17485e+06
1.07759e+06
566688
384597
666981
389502
297359
2.18629e+06
251246
138330
717238
716272
325495
204952
249298
419877
863705
1.63787e+06
683760
545630
1.01656e+06
1.33244e+06
362441
527835
1.14804e+06
1.05733e+06
969351
546224
588337
954535
784877
1.10379e+06
585862
1.2135e+06
1.32142e+06
382999
1.43305e+06
2.57345e+06
1.81572e+06
122651
869396
949157
1.03247e+06
317509
216239
1.56122e+06
270571
355477
441821
484650
207019
263618
213439
169130
1.48552e+06
1.1405e+06
1.19668e+06
1.43369e+06
334219
1.81763e+06
2.25347e+06
831991
147844
853602
931001
1.01308e+06
952823
1.1083e+06
309935
1.77215e+06
776040
717820
657501
778366
281833
391183
226716
210736
488901
576565
531018
609729
665100
722112
441249
437686
629074
631975
1.28194e+06
1.27552e+06
1.07947e+06
1.17902e+06
1.07364e+06
1.17294e+06
638654
694902
248766
156852
178041
211070
1.28207e+06
817695
145752
1.30059e+06
1.07872e+06
1.03376e+06
1.33937e+06
214147
466582
1.67896e+06
707617
1.54837e+06
1.42075e+06
116298
278459
1.1595e+06
684465
484548
1.53782e+06
539480
75234.2
1.17598e+06
1.07877e+06
1.27686e+06
571277
386778
1.57978e+06
608174
492234
2.09854e+06
610418
863215
207423
152888
352698
329493
301609
1.78733e+06
442654
298072
505723
465152
545687
274850
209915
1.18292e+06
1.32841e+06
213770
758454
161370
1.01997e+06
2.0441e+06
1.28361e+06
626636
469494
1.1211e+06
572160
510029
421066
276482
173634
425222
210118
517258
208919
354352
149914
167831
2.14017e+06
430899
1.82245e+06
1.0436e+06
1.12329e+06
606725
453597
1.08148e+06
1.9496e+06
127048
154323
157714
149384
386585
37417.6
12377.8
386053
811507
150349
857711
381537
265287
179044
570511
796712
1.66913e+06
136891
108755
178372
207328
446433
287723
1.12758e+06
1.00553e+06
243966
159736
128321
2.17008e+06
811585
138557
316105
155780
2.47828e+06
2.0161e+06
315305
236456
881316
425249
603138
1.18959e+06
1.00065e+06
1.09354e+06
2.33257e+06
1.85621e+06
153711
1.74015e+06
2.34672e+06
1.83268e+06
2.03747e+06
880497
180722
1.18444e+06
290206
181138
222507
434983
473455
347427
346142
786697
257191
175633
133184
1.14575e+06
1.40014e+06
1.52496e+06
1.65285e+06
1.76958e+06
790775
674498
556754
438241
277037
128952
546435
25340.4
267790
267408
13758.7
589744
295498
232738
94394.7
370620
420212
144043
378405
1.13781e+06
887379
612145
433230
494707
2.14682e+06
1.64259e+06
218832
704385
143476
154317
602258
709769
734286
1.45806e+06
424588
463537
149452
1.93983e+06
159106
339582
395769
368924
1.40644e+06
1.53141e+06
794222
851762
850621
601705
772650
1.44831e+06
1.37885e+06
1.37668e+06
474454
657250
121105
132910
125279
294857
139893
637732
1.33684e+06
1.1869e+06
1.45446e+06
1.06169e+06
1.46468e+06
1.06044e+06
721678
481287
1.28236e+06
938909
1.28389e+06
942099
309641
1.4163e+06
1.1878e+06
1.04086e+06
1.35575e+06
1.20014e+06
1.48003e+06
1.07605e+06
1.47979e+06
1.07532e+06
1.34209e+06
2.48242e+06
541037
759000
1.60903e+06
591010
147739
157481
248857
24629.9
248493
21776
144507
457649
1.42009e+06
1.30226e+06
1.54119e+06
683167
473456
2.19933e+06
75014.9
138182
277580
951358
314031
866076
426008
2.23627e+06
2.25609e+06
1.351e+06
161724
295545
1.52451e+06
809162
648689
440762
803412
736391
871127
304706
426309
2.29621e+06
539424
2.04376e+06
146675
143676
138094
145203
98715.1
2.01871e+06
164684
1.48458e+06
96287.1
1.08522e+06
1.38133e+06
165442
146735
211135
621134
221234
523859
481663
353864
383189
414654
177437
381564
514662
637227
428432
1.44773e+06
1.33638e+06
1.22547e+06
1.51155e+06
2.02086e+06
2.23e+06
133354
130865
132201
144280
295575
174080
319789
2.23932e+06
2.28528e+06
2.28854e+06
1.75029e+06
69159.8
1.20751e+06
2.08877e+06
1.42304e+06
1.12235e+06
1.14559e+06
1.4043e+06
690236
613331
1.23769e+06
814070
1.46252e+06
108857
263892
337090
648680
267473
263478
300396
202934
233623
171307
199086
454106
456808
495664
493786
535151
535212
628266
619717
149640
147456
590425
381327
115793
222914
871018
1.46489e+06
150123
878517
1.89924e+06
586213
1.80638e+06
826095
229942
1.68286e+06
891224
749268
1.18744e+06
2.02398e+06
2.41546e+06
948165
403435
2.03379e+06
291464
213917
183248
452153
100069
856248
1.49584e+06
387622
586628
237644
143454
254053
2.18797e+06
391893
457313
441745
326409
933400
293248
232404
926710
204538
1.98786e+06
158024
1.17599e+06
435401
472942
1.84418e+06
1.56549e+06
946570
1.70774e+06
1.85317e+06
811062
2.00007e+06
676967
540677
1.56563e+06
1.7074e+06
2.00256e+06
1.85318e+06
542498
814031
950006
679072
2.0218e+06
201042
1.58723e+06
173772
120553
152908
9115.19
69382.9
867907
93865.4
1.52647e+06
315002
235467
591784
639542
544176
456997
298279
1.32753e+06
296907
319096
1.20081e+06
103522
469287
434787
431390
1.36464e+06
1.25176e+06
1.48052e+06
648649
552729
233864
399479
783106
1.5246e+06
76345.3
388235
231008
149130
503358
1.61187e+06
909304
780871
1.69916e+06
193397
930666
1.98573e+06
1.00397e+06
1.85535e+06
166426
2.09007e+06
249316
1.39701e+06
499203
616144
147074
16025.3
160686
160392
27399.1
267027
1.42694e+06
203411
1.74801e+06
793835
287654
1.35225e+06
1.29837e+06
1.47703e+06
1.41843e+06
1.60453e+06
1.54129e+06
746131
721454
509086
493188
565450
381961
1.27888e+06
1.18159e+06
1.08356e+06
341929
399766
369362
184223
1.20036e+06
1.04811e+06
97817.8
205968
154021
175015
185063
2.02588e+06
1.69521e+06
442628
1.45502e+06
1.33556e+06
1.5762e+06
130159
748817
1.37137e+06
1.42881e+06
146931
137650
1.64082e+06
522347
178775
300723
350312
325229
189215
563693
520533
481324
1.89099e+06
2.47785e+06
1.82393e+06
1.29567e+06
633283
457089
194838
212250
317736
228984
146382
130611
239646
690971
551467
144668
1.49974e+06
1.73715e+06
719474
628302
184384
177412
158002
167801
485883
1.63895e+06
1.27412e+06
982047
1.01151e+06
1.20621e+06
140215
156414
233352
141044
143770
315633
2.56132e+06
2.03296e+06
157357
195771
864177
745627
518432
1.61041e+06
1.7377e+06
1.35772e+06
1.48231e+06
879598
456267
390943
423821
197995
247296
1.87626e+06
500503
1.19508e+06
89253.2
1.73869e+06
159490
683195
792947
2.55854e+06
142013
704201
169322
659202
179858
416075
1.27005e+06
580340
1.45863e+06
946417
1.59443e+06
1.73291e+06
818382
1.87365e+06
688663
560376
689924
560899
267245
817887
924244
1.20856e+06
148136
239939
1.48915e+06
645792
2.34748e+06
1.90853e+06
2.1391e+06
385871
1.6736e+06
786010
607912
297561
227510
2.29105e+06
1.18821e+06
140940
2.48754e+06
2.09785e+06
72313
726432
594135
91822.2
964021
774334
116195
196215
1.60999e+06
2.39001e+06
146809
840545
862500
1.73092e+06
1.67658e+06
610435
625633
611020
625839
151844
152862
152124
143304
114901
2.46216e+06
1.91462e+06
1.72934e+06
2.18179e+06
822871
439160
1.7781e+06
995035
1.08732e+06
1.18276e+06
80613.2
1.8262e+06
318106
1.36834e+06
1.95615e+06
579844
406731
2.48773e+06
664046
697192
488182
514993
1.31646e+06
1.27227e+06
221887
218415
121913
144499
427941
1.5564e+06
1.43532e+06
1.3172e+06
650527
2.45876e+06
150445
296657
134173
1.30129e+06
1.42097e+06
829964
1.54307e+06
709391
1.68157e+06
600156
1.59245e+06
1.34264e+06
1.46591e+06
1.71919e+06
481672
853583
736143
601844
141758
197705
210697
272063
508189
429940
467229
2.02856e+06
939582
1.14638e+06
1.87389e+06
220322
335930
144348
527644
736448
254138
353606
1.89672e+06
202604
139088
142083
144858
139861
90630.2
223219
171663
185554
1.63009e+06
1.9266e+06
169528
147016
186994
323726
704697
2.08373e+06
1.94105e+06
865348
148691
210635
1.65724e+06
150542
151686
2.52878e+06
977046
1.90797e+06
535620
1.29253e+06
816059
799406
222215
908332
1.36627e+06
658117
473495
187891
428595
146252
112461
131834
2.0518e+06
1.20639e+06
1.22996e+06
2.02321e+06
316924
340065
177383
641853
158914
143797
154969
404208
319772
32552.9
319348
22296.8
143356
1.26819e+06
381552
552646
1.17145e+06
1.07896e+06
988461
199348
2.32709e+06
767965
442736
1.99997e+06
1.19042e+06
1.23817e+06
205378
20170.3
205050
21225.6
1.76954e+06
438392
737008
873839
805527
164362
1.90076e+06
444479
319174
1.02165e+06
784846
138526
43429.8
1.39459e+06
289175
1.39396e+06
354588
470953
867893
967716
812203
176722
711612
292668
376490
181643
195139
676309
704996
234354
425867
149544
150738
1.12931e+06
565170
414892
159803
601838
15580.4
58304.4
601029
750198
606295
897467
1.06552e+06
124570
2.31998e+06
2.41667e+06
303383
146535
162165
252277
278106
28749.9
277742
24785.2
1.21759e+06
416137
577414
2.25188e+06
2.28542e+06
1.93888e+06
1.76058e+06
1.04714e+06
927935
887983
788078
1.90776e+06
275205
544197
196609
128781
143403
391842
549181
786032
2.20863e+06
2.22997e+06
280048
145436
730556
794669
267525
1.2085e+06
495179
405993
1.7697e+06
175815
161653
216269
1.17912e+06
1.18599e+06
1.25425e+06
795434
398573
556927
97062.6
98568
1.36597e+06
142646
1.2104e+06
156072
594289
966075
846679
1.4144e+06
1.65439e+06
148915
194499
448977
1.96411e+06
9485.63
117443
34836.1
117983
316686
291755
96899.6
2.13276e+06
38034.1
2.02078e+06
526151
50961.8
16436.8
525443
344033
170970
19679.1
170816
437746
1.90572e+06
440421
2.10227e+06
2.41711e+06
70120.1
692534
820275
756373
980776
470309
342506
1.05462e+06
667026
116334
259373
411097
294681
732350
968736
271186
272298
2.3236e+06
835307
969400
903816
1.04315e+06
1.47307e+06
135411
147184
1.23265e+06
1.50025e+06
504810
284661
327669
169272
338801
497555
153267
262925
380106
150735
105396
1.34687e+06
1.57457e+06
304282
673537
525491
537028
1.66647e+06
757259
328354
254238
642336
532653
132948
384938
1.50161e+06
1.91882e+06
512012
356926
902015
1.06888e+06
984551
91908.8
144477
371941
264717
1.42702e+06
517569
114820
55932.9
86645
499459
350467
872831
1.0341e+06
952755
148916
2.07486e+06
2.36883e+06
163881
163697
155516
151497
2.07505e+06
412258
305397
881947
2.5642e+06
2.06181e+06
583838
204619
539673
497555
304223
283910
324085
180925
159048
159444
440581
2.01905e+06
119675
1.11543e+06
1.20816e+06
1.9106e+06
1.37739e+06
1.34422e+06
513824
506565
691457
702394
322312
360618
311053
143376
141258
814332
263995
1.87653e+06
1.2976e+06
328722
140173
802997
2.39974e+06
138305
1.27789e+06
1.06284e+06
1.00972e+06
1.31979e+06
907044
389635
542309
1.20446e+06
211146
879075
380391
425408
218510
447417
270240
351371
964805
477988
203859
176927
234817
1.23547e+06
1.01446e+06
221616
211324
199105
228410
146111
652409
501860
130654
475420
149680
272277
440101
2.19492e+06
1.93263e+06
1.31451e+06
382211
271573
854852
791282
727044
344614
344600
165447
1.18865e+06
163171
669023
871848
254909
223639
1.95863e+06
111897
388476
362090
174620
2.06527e+06
108997
143657
580243
684328
207002
196167
217722
157550
150109
1.31301e+06
119458
161631
20089.8
161434
1.31131e+06
1.24659e+06
2.35948e+06
1.41341e+06
1.77857e+06
149181
1.83709e+06
1.25406e+06
18173.4
131904
310541
235400
529261
575239
621213
813975
456192
1.90467e+06
1.11605e+06
1.21187e+06
193756
129292
125882
145822
159372
166792
258453
1.0959e+06
132025
2.37032e+06
581382
234748
1.22626e+06
802821
408000
568599
262340
227380
323536
487849
314671
649837
590808
233893
150610
837973
1.16766e+06
102802
111310
201982
119343
122651
1.77983e+06
469711
345040
1.00011e+06
1.72431e+06
470822
339396
844433
717972
778270
658867
380383
274111
153426
10689.5
84596.5
807075
664518
947877
1.97783e+06
1.6769e+06
1.826e+06
664806
805581
1.98203e+06
1.82933e+06
946774
1.68003e+06
216721
443833
368945
365704
137161
245006
217454
645324
311592
240348
295540
520847
1.4437e+06
716963
153298
258898
142494
155427
277697
431595
135628