/*--------------------------------*- C++ -*----------------------------------*\
| =========                 |                                                 |
| \\      /  F ield         | OpenFOAM: The Open Source CFD Toolbox           |
|  \\    /   O peration     | Version:  2.3.1                                 |
|   \\  /    A nd           | Web:      www.OpenFOAM.org                      |
|    \\/     M anipulation  |                                                 |
\*---------------------------------------------------------------------------*/
FoamFile
{
    version     2.0;
    format      ascii;
    class       volScalarField;
    location    "0.56";
    object      k;
}
// * * * * * * * * * * * * * * * * * * * * * * * * * * * * * * * * * * * * * //

dimensions      [0 2 -2 0 0 0 0];

internalField   nonuniform List<scalar> 
1000
(
0.00251896
0.00257738
0.00257838
0.00257829
0.00257826
0.00257824
0.00257823
0.00257822
0.00257811
0.0025733
0.00257865
0.00258608
0.00258649
0.00258647
0.00258645
0.00258644
0.00258642
0.0025864
0.0025859
0.00257464
0.00258132
0.00258838
0.00258888
0.00258887
0.00258886
0.00258884
0.00258881
0.00258878
0.00258823
0.00257624
0.00258321
0.00259088
0.00259147
0.00259151
0.00259151
0.00259149
0.00259146
0.00259141
0.00259081
0.0025784
0.00258601
0.00259471
0.00259544
0.00259556
0.0025956
0.00259557
0.00259556
0.00259543
0.00259479
0.00258141
0.00257719
0.00258453
0.00258521
0.00258533
0.00258537
0.00258539
0.0025854
0.00258539
0.00258496
0.00257471
0.00258552
0.00284504
0.00285989
0.00286061
0.00286068
0.0028607
0.0028607
0.00286038
0.0028482
0.00258287
0.00258754
0.00286162
0.00287748
0.00287818
0.00287821
0.00287821
0.0028782
0.00287783
0.00286468
0.00258486
0.00258949
0.00286311
0.00287898
0.00287969
0.00287972
0.00287971
0.0028797
0.00287932
0.00286608
0.00258684
0.00259215
0.00286474
0.00288076
0.00288153
0.00288158
0.00288158
0.00288155
0.00288112
0.00286774
0.00258959
0.00257999
0.00258619
0.00258682
0.00258694
0.00258699
0.00258702
0.00258704
0.00258703
0.00258657
0.00257591
0.00258682
0.00286004
0.00287585
0.00287658
0.00287664
0.00287665
0.00287666
0.00287631
0.00286325
0.00258442
0.00258861
0.00287729
0.00289435
0.00289511
0.00289515
0.00289515
0.00289514
0.00289473
0.00288061
0.00258624
0.00259038
0.00287862
0.00289572
0.0028965
0.00289653
0.00289652
0.00289651
0.00289609
0.00288188
0.00258798
0.00259271
0.00287952
0.00289668
0.00289748
0.00289752
0.00289752
0.0028975
0.00289705
0.00288277
0.00259033
0.00258109
0.00258715
0.00258772
0.00258781
0.00258786
0.00258789
0.0025879
0.0025879
0.00258743
0.00257674
0.00258763
0.00286135
0.00287709
0.0028778
0.00287785
0.00287786
0.00287787
0.0028775
0.00286439
0.00258519
0.0025892
0.0028781
0.00289515
0.00289592
0.00289595
0.00289595
0.00289595
0.00289553
0.00288138
0.00258685
0.00259078
0.00287931
0.00289642
0.00289718
0.00289722
0.00289721
0.0028972
0.00289678
0.00288256
0.00258838
0.00259281
0.00287991
0.00289703
0.00289781
0.00289784
0.00289784
0.00289782
0.00289738
0.00288313
0.0025904
0.00258168
0.00258768
0.0025882
0.00258827
0.00258831
0.00258833
0.00258834
0.00258834
0.00258787
0.00257717
0.00258811
0.002862
0.0028777
0.0028784
0.00287844
0.00287845
0.00287845
0.00287808
0.00286495
0.00258559
0.00258954
0.00287824
0.00289525
0.00289601
0.00289604
0.00289604
0.00289604
0.00289562
0.00288147
0.00258715
0.00259099
0.00287936
0.00289642
0.00289719
0.00289722
0.00289722
0.00289721
0.00289678
0.00288258
0.00258858
0.00259286
0.00287985
0.00289689
0.00289767
0.0028977
0.0028977
0.00289768
0.00289724
0.00288304
0.00259041
0.00258179
0.0025879
0.00258841
0.00258847
0.0025885
0.00258852
0.00258853
0.00258852
0.00258804
0.0025772
0.00258824
0.00286243
0.00287811
0.0028788
0.00287883
0.00287883
0.00287883
0.00287846
0.00286531
0.00258566
0.00258969
0.00287838
0.00289536
0.00289613
0.00289616
0.00289616
0.00289616
0.00289573
0.00288158
0.00258726
0.00259118
0.00287949
0.00289652
0.00289729
0.00289733
0.00289733
0.00289732
0.00289689
0.00288269
0.00258873
0.00259307
0.00287999
0.00289699
0.00289776
0.0028978
0.0028978
0.00289778
0.00289734
0.00288315
0.00259059
0.00258149
0.00258788
0.00258839
0.00258844
0.00258847
0.00258848
0.00258849
0.00258847
0.00258798
0.00257684
0.00258807
0.0028626
0.00287827
0.00287896
0.00287899
0.00287899
0.00287899
0.00287861
0.00286545
0.00258544
0.00258969
0.00287857
0.00289555
0.00289631
0.00289635
0.00289635
0.00289634
0.00289592
0.00288176
0.00258722
0.0025914
0.00287978
0.0028968
0.00289757
0.00289761
0.00289761
0.0028976
0.00289716
0.00288295
0.00258891
0.00259353
0.00288039
0.00289739
0.00289817
0.00289821
0.00289821
0.00289818
0.00289772
0.00288351
0.002591
0.00258075
0.0025874
0.00258793
0.00258798
0.002588
0.00258801
0.00258801
0.00258798
0.00258748
0.00257607
0.00258752
0.00286226
0.00287791
0.0028786
0.00287863
0.00287863
0.00287863
0.00287825
0.00286511
0.00258486
0.00258942
0.00287824
0.00289517
0.00289594
0.00289598
0.00289598
0.00289598
0.00289554
0.00288141
0.00258691
0.00259146
0.00287953
0.00289651
0.00289729
0.00289733
0.00289734
0.00289732
0.00289687
0.00288268
0.00258891
0.00259404
0.00288033
0.00289729
0.00289808
0.00289812
0.00289813
0.00289809
0.00289761
0.00288339
0.00259144
0.00257953
0.00258599
0.00258649
0.00258653
0.00258655
0.00258656
0.00258656
0.00258653
0.00258605
0.0025748
0.00258623
0.00284838
0.00286305
0.00286368
0.00286371
0.00286371
0.00286371
0.00286335
0.00285096
0.00258342
0.00258841
0.00286305
0.00287887
0.00287957
0.0028796
0.0028796
0.00287959
0.00287919
0.00286592
0.00258573
0.00259081
0.00286371
0.0028795
0.00288021
0.00288023
0.00288025
0.00288022
0.00287981
0.00286652
0.00258808
0.00259397
0.00286351
0.00287918
0.00287988
0.00287991
0.00287992
0.00287988
0.00287944
0.00286618
0.00259117
0.00257346
0.00257365
0.00257367
0.00257368
0.00257369
0.00257369
0.00257369
0.00257368
0.00257357
0.00256846
0.00257516
0.00258257
0.00258318
0.00258323
0.00258324
0.00258325
0.00258324
0.00258321
0.00258266
0.00257028
0.00257724
0.00258522
0.00258591
0.00258599
0.00258602
0.00258603
0.002586
0.00258594
0.00258531
0.00257236
0.00257997
0.00258799
0.00258876
0.00258886
0.00258891
0.00258891
0.00258887
0.00258876
0.00258803
0.00257507
0.0025841
0.00259219
0.00259305
0.00259319
0.00259325
0.00259325
0.00259318
0.002593
0.00259217
0.00257923
0.00259471
0.00260163
0.00260255
0.00260273
0.00260278
0.00260278
0.0026027
0.00260249
0.00260147
0.00258999
0.00260765
0.00262386
0.00262516
0.0026251
0.00262497
0.00262496
0.00262511
0.00262506
0.00262413
0.00260345
0.00271945
0.00292431
0.00292942
0.00292179
0.00291905
0.00291898
0.00292129
0.00292876
0.00292958
0.00272066
0.00385013
0.00584297
0.00592409
0.00587049
0.00585052
0.0058491
0.00586574
0.00591706
0.00588444
0.00390257
0.00976081
0.0185469
0.0193401
0.0193568
0.0193495
0.0193439
0.0193382
0.0193112
0.0186826
0.00993728
0.00259724
0.00286024
0.00287545
0.00287612
0.00287614
0.00287613
0.00287611
0.00287565
0.00286274
0.00259447
0.0026024
0.00287337
0.00289047
0.00289165
0.00289172
0.00289173
0.00289166
0.00289077
0.00287625
0.00259982
0.00262138
0.00302032
0.00305198
0.00305696
0.00305815
0.00305818
0.00305703
0.00305275
0.00302526
0.00261956
0.00294376
0.00396497
0.00401852
0.00401889
0.00401827
0.00401795
0.00401823
0.00401863
0.00398903
0.00295953
0.0131322
0.0377758
0.0392911
0.0391838
0.0391185
0.0391084
0.0391521
0.039258
0.0381323
0.0134685
0.00259544
0.00288002
0.00289703
0.00289786
0.00289791
0.00289791
0.00289786
0.00289732
0.00288303
0.00259291
0.00259841
0.00288124
0.00289839
0.00289925
0.00289929
0.00289929
0.00289926
0.00289872
0.00288439
0.00259604
0.00260364
0.00292934
0.00295357
0.00295647
0.00295709
0.00295711
0.00295654
0.00295419
0.00293366
0.00260155
0.0028204
0.00395792
0.00403826
0.00404652
0.00404829
0.00404819
0.00404644
0.00404
0.00397924
0.00283115
0.0136603
0.0384847
0.0396791
0.0396434
0.0396088
0.0396038
0.0396296
0.0396848
0.0388559
0.0140138
0.00259398
0.00287983
0.00289691
0.00289771
0.00289775
0.00289775
0.00289771
0.00289723
0.00288292
0.00259148
0.00259607
0.00287957
0.0028966
0.00289737
0.0028974
0.00289739
0.00289738
0.00289693
0.00288272
0.00259366
0.00259895
0.00289786
0.0029168
0.00291796
0.00291811
0.00291811
0.002918
0.00291724
0.00290159
0.00259675
0.00280182
0.00386278
0.00393276
0.00393844
0.0039395
0.00393948
0.00393851
0.00393476
0.00388378
0.00281183
0.0140782
0.0400817
0.0412917
0.0413095
0.0412951
0.0412931
0.041305
0.041319
0.0404907
0.0144576
0.00259311
0.00287917
0.00289626
0.00289704
0.00289707
0.00289707
0.00289704
0.00289658
0.00288231
0.00259064
0.00259494
0.00287884
0.00289586
0.00289661
0.00289663
0.00289662
0.00289661
0.00289619
0.002882
0.00259251
0.0025975
0.00289257
0.00291077
0.00291167
0.00291174
0.00291174
0.0029117
0.00291117
0.00289618
0.00259524
0.00279859
0.00383325
0.00389766
0.00390186
0.00390253
0.00390255
0.00390201
0.00389972
0.00385403
0.00280849
0.0142704
0.0407871
0.042021
0.0420678
0.0420652
0.0420649
0.0420688
0.0420596
0.0412147
0.0146625
0.0025929
0.00287908
0.00289624
0.00289703
0.00289706
0.00289706
0.00289703
0.00289658
0.00288227
0.00259045
0.00259489
0.00287883
0.00289597
0.00289674
0.00289677
0.00289676
0.00289675
0.00289633
0.00288205
0.00259248
0.00259788
0.0028934
0.00291193
0.00291293
0.00291302
0.00291302
0.00291296
0.00291237
0.00289705
0.00259558
0.00286876
0.00401027
0.00409485
0.0041089
0.00411355
0.00411368
0.00410959
0.00409819
0.00403495
0.0028825
0.0143233
0.0408479
0.0420782
0.042131
0.0421318
0.0421318
0.0421343
0.0421216
0.0412819
0.0147231
0.00259319
0.00287959
0.00289693
0.00289776
0.00289781
0.0028978
0.00289777
0.0028973
0.00288285
0.00259081
0.00259574
0.00287948
0.00289695
0.00289778
0.00289781
0.00289782
0.0028978
0.00289735
0.00288276
0.0025933
0.00260017
0.00290399
0.00292446
0.00292609
0.00292639
0.00292639
0.00292615
0.00292492
0.0029079
0.00259791
0.00302397
0.00435513
0.00448341
0.00451914
0.00453217
0.00453254
0.00452082
0.00448926
0.00438585
0.00304544
0.0143278
0.0404831
0.0416767
0.0417258
0.0417269
0.0417269
0.0417313
0.0417247
0.0409192
0.0147396
0.00259382
0.00288045
0.00289802
0.00289894
0.00289901
0.00289901
0.00289896
0.00289844
0.0028838
0.00259146
0.00259692
0.00288248
0.00290086
0.0029019
0.00290198
0.00290197
0.00290193
0.00290126
0.00288587
0.00259445
0.00260614
0.00294599
0.00297257
0.00297619
0.00297717
0.0029772
0.00297625
0.00297325
0.00295054
0.00260391
0.00324531
0.00448243
0.00465838
0.00473377
0.0047618
0.0047625
0.00473718
0.00466678
0.00450752
0.0032738
0.0142333
0.0390877
0.0401854
0.0402339
0.0402385
0.0402391
0.0402425
0.04024
0.0395058
0.0146566
0.0025944
0.00286919
0.00288598
0.0028869
0.00288698
0.00288698
0.00288695
0.0028864
0.00287236
0.00259192
0.00259773
0.00288701
0.00290739
0.00290912
0.00290944
0.00290946
0.00290915
0.00290787
0.00289049
0.00259506
0.00261742
0.00303169
0.00306541
0.00307135
0.0030732
0.00307322
0.00307147
0.00306628
0.00303659
0.00261533
0.00299722
0.00393781
0.00405009
0.00406526
0.00406958
0.00406957
0.00406581
0.00405307
0.00395795
0.00300817
0.0132236
0.0328276
0.0336872
0.0338023
0.0338409
0.0338428
0.0338157
0.0337394
0.0331212
0.0135725
0.00258593
0.00259874
0.0026001
0.00260034
0.00260042
0.00260045
0.00260032
0.00260018
0.00259899
0.00258116
0.00258795
0.00260511
0.00260679
0.00260699
0.00260706
0.00260704
0.002607
0.00260685
0.00260524
0.00258311
0.00262425
0.0026538
0.00265744
0.00265832
0.00265855
0.00265851
0.00265839
0.0026574
0.0026543
0.00262001
0.00274301
0.00292044
0.00294599
0.00295082
0.00295229
0.0029524
0.00295102
0.002947
0.00292544
0.00274333
0.00794598
0.0118057
0.0120112
0.0120594
0.0120759
0.0120765
0.0120634
0.0120231
0.0118601
0.00803792
)
;

boundaryField
{
    walls
    {
        type            kqRWallFunction;
        value           nonuniform List<scalar> 
500
(
0.00251896
0.00251896
0.00251896
0.00257738
0.00257738
0.00257838
0.00257838
0.00257829
0.00257829
0.00257826
0.00257826
0.00257824
0.00257824
0.00257823
0.00257823
0.00257822
0.00257822
0.00257811
0.00257811
0.0025733
0.0025733
0.0025733
0.00257865
0.00257865
0.00258608
0.00258649
0.00258647
0.00258645
0.00258644
0.00258642
0.0025864
0.0025859
0.00257464
0.00257464
0.00258132
0.00258132
0.00258838
0.00258888
0.00258887
0.00258886
0.00258884
0.00258881
0.00258878
0.00258823
0.00257624
0.00257624
0.00258321
0.00258321
0.00259088
0.00259147
0.00259151
0.00259151
0.00259149
0.00259146
0.00259141
0.00259081
0.0025784
0.0025784
0.00258601
0.00258601
0.00259471
0.00259544
0.00259556
0.0025956
0.00259557
0.00259556
0.00259543
0.00259479
0.00258141
0.00258141
0.00257719
0.00257719
0.00258453
0.00258521
0.00258533
0.00258537
0.00258539
0.0025854
0.00258539
0.00258496
0.00257471
0.00257471
0.00258552
0.00258287
0.00258754
0.00258486
0.00258949
0.00258684
0.00259215
0.00258959
0.00257999
0.00257999
0.00258619
0.00258682
0.00258694
0.00258699
0.00258702
0.00258704
0.00258703
0.00258657
0.00257591
0.00257591
0.00258682
0.00258442
0.00258861
0.00258624
0.00259038
0.00258798
0.00259271
0.00259033
0.00258109
0.00258109
0.00258715
0.00258772
0.00258781
0.00258786
0.00258789
0.0025879
0.0025879
0.00258743
0.00257674
0.00257674
0.00258763
0.00258519
0.0025892
0.00258685
0.00259078
0.00258838
0.00259281
0.0025904
0.00258168
0.00258168
0.00258768
0.0025882
0.00258827
0.00258831
0.00258833
0.00258834
0.00258834
0.00258787
0.00257717
0.00257717
0.00258811
0.00258559
0.00258954
0.00258715
0.00259099
0.00258858
0.00259286
0.00259041
0.00258179
0.00258179
0.0025879
0.00258841
0.00258847
0.0025885
0.00258852
0.00258853
0.00258852
0.00258804
0.0025772
0.0025772
0.00258824
0.00258566
0.00258969
0.00258726
0.00259118
0.00258873
0.00259307
0.00259059
0.00258149
0.00258149
0.00258788
0.00258839
0.00258844
0.00258847
0.00258848
0.00258849
0.00258847
0.00258798
0.00257684
0.00257684
0.00258807
0.00258544
0.00258969
0.00258722
0.0025914
0.00258891
0.00259353
0.002591
0.00258075
0.00258075
0.0025874
0.00258793
0.00258798
0.002588
0.00258801
0.00258801
0.00258798
0.00258748
0.00257607
0.00257607
0.00258752
0.00258486
0.00258942
0.00258691
0.00259146
0.00258891
0.00259404
0.00259144
0.00257953
0.00257953
0.00258599
0.00258649
0.00258653
0.00258655
0.00258656
0.00258656
0.00258653
0.00258605
0.0025748
0.0025748
0.00258623
0.00258342
0.00258841
0.00258573
0.00259081
0.00258808
0.00259397
0.00259117
0.00257346
0.00257346
0.00257346
0.00257365
0.00257365
0.00257367
0.00257367
0.00257368
0.00257368
0.00257369
0.00257369
0.00257369
0.00257369
0.00257369
0.00257369
0.00257368
0.00257368
0.00257357
0.00257357
0.00256846
0.00256846
0.00256846
0.00257516
0.00257516
0.00258257
0.00258318
0.00258323
0.00258324
0.00258325
0.00258324
0.00258321
0.00258266
0.00257028
0.00257028
0.00257724
0.00257724
0.00258522
0.00258591
0.00258599
0.00258602
0.00258603
0.002586
0.00258594
0.00258531
0.00257236
0.00257236
0.00257997
0.00257997
0.00258799
0.00258876
0.00258886
0.00258891
0.00258891
0.00258887
0.00258876
0.00258803
0.00257507
0.00257507
0.0025841
0.0025841
0.00259219
0.00259305
0.00259319
0.00259325
0.00259325
0.00259318
0.002593
0.00259217
0.00257923
0.00257923
0.00259471
0.00259471
0.00260163
0.00260255
0.00260273
0.00260278
0.00260278
0.0026027
0.00260249
0.00260147
0.00258999
0.00258999
0.00260765
0.00260765
0.00262386
0.00262516
0.0026251
0.00262497
0.00262496
0.00262511
0.00262506
0.00262413
0.00260345
0.00260345
0.00271945
0.00271945
0.00292431
0.00292942
0.00292179
0.00291905
0.00291898
0.00292129
0.00292876
0.00292958
0.00272066
0.00272066
0.00385013
0.00385013
0.00584297
0.00592409
0.00587049
0.00585052
0.0058491
0.00586574
0.00591706
0.00588444
0.00390257
0.00390257
0.00976081
0.00976081
0.0185469
0.0193401
0.0193568
0.0193495
0.0193439
0.0193382
0.0193112
0.0186826
0.00993728
0.00993728
0.00259724
0.00259447
0.0026024
0.00259982
0.00262138
0.00261956
0.00294376
0.00295953
0.0131322
0.0134685
0.00259544
0.00259291
0.00259841
0.00259604
0.00260364
0.00260155
0.0028204
0.00283115
0.0136603
0.0140138
0.00259398
0.00259148
0.00259607
0.00259366
0.00259895
0.00259675
0.00280182
0.00281183
0.0140782
0.0144576
0.00259311
0.00259064
0.00259494
0.00259251
0.0025975
0.00259524
0.00279859
0.00280849
0.0142704
0.0146625
0.0025929
0.00259045
0.00259489
0.00259248
0.00259788
0.00259558
0.00286876
0.0028825
0.0143233
0.0147231
0.00259319
0.00259081
0.00259574
0.0025933
0.00260017
0.00259791
0.00302397
0.00304544
0.0143278
0.0147396
0.00259382
0.00259146
0.00259692
0.00259445
0.00260614
0.00260391
0.00324531
0.0032738
0.0142333
0.0146566
0.0025944
0.00259192
0.00259773
0.00259506
0.00261742
0.00261533
0.00299722
0.00300817
0.0132236
0.0135725
0.00258593
0.00258593
0.00259874
0.0026001
0.00260034
0.00260042
0.00260045
0.00260032
0.00260018
0.00259899
0.00258116
0.00258116
0.00258795
0.00258795
0.00260511
0.00260679
0.00260699
0.00260706
0.00260704
0.002607
0.00260685
0.00260524
0.00258311
0.00258311
0.00262425
0.00262425
0.0026538
0.00265744
0.00265832
0.00265855
0.00265851
0.00265839
0.0026574
0.0026543
0.00262001
0.00262001
0.00274301
0.00274301
0.00292044
0.00294599
0.00295082
0.00295229
0.0029524
0.00295102
0.002947
0.00292544
0.00274333
0.00274333
0.00794598
0.00794598
0.0118057
0.0120112
0.0120594
0.0120759
0.0120765
0.0120634
0.0120231
0.0118601
0.00803792
0.00803792
)
;
    }
    lid
    {
        type            kqRWallFunction;
        value           nonuniform List<scalar> 
100
(
0.00976081
0.0185469
0.0193401
0.0193568
0.0193495
0.0193439
0.0193382
0.0193112
0.0186826
0.00993728
0.0131322
0.0377758
0.0392911
0.0391838
0.0391185
0.0391084
0.0391521
0.039258
0.0381323
0.0134685
0.0136603
0.0384847
0.0396791
0.0396434
0.0396088
0.0396038
0.0396296
0.0396848
0.0388559
0.0140138
0.0140782
0.0400817
0.0412917
0.0413095
0.0412951
0.0412931
0.041305
0.041319
0.0404907
0.0144576
0.0142704
0.0407871
0.042021
0.0420678
0.0420652
0.0420649
0.0420688
0.0420596
0.0412147
0.0146625
0.0143233
0.0408479
0.0420782
0.042131
0.0421318
0.0421318
0.0421343
0.0421216
0.0412819
0.0147231
0.0143278
0.0404831
0.0416767
0.0417258
0.0417269
0.0417269
0.0417313
0.0417247
0.0409192
0.0147396
0.0142333
0.0390877
0.0401854
0.0402339
0.0402385
0.0402391
0.0402425
0.04024
0.0395058
0.0146566
0.0132236
0.0328276
0.0336872
0.0338023
0.0338409
0.0338428
0.0338157
0.0337394
0.0331212
0.0135725
0.00794598
0.0118057
0.0120112
0.0120594
0.0120759
0.0120765
0.0120634
0.0120231
0.0118601
0.00803792
)
;
    }
}


// ************************************************************************* //
