/*--------------------------------*- C++ -*----------------------------------*\
| =========                 |                                                 |
| \\      /  F ield         | OpenFOAM: The Open Source CFD Toolbox           |
|  \\    /   O peration     | Version:  2.3.1                                 |
|   \\  /    A nd           | Web:      www.OpenFOAM.org                      |
|    \\/     M anipulation  |                                                 |
\*---------------------------------------------------------------------------*/
FoamFile
{
    version     2.0;
    format      ascii;
    class       volScalarField;
    location    "0.84";
    object      epsilon;
}
// * * * * * * * * * * * * * * * * * * * * * * * * * * * * * * * * * * * * * //

dimensions      [0 2 -3 0 0 0 0];

internalField   nonuniform List<scalar> 
9648
(
2387.44
2394.78
2392.69
2387.09
2377.18
2362.13
2341.94
2316.58
2285.98
2250.29
2209.73
2164.5
2115.48
2063.65
2009.84
1954.97
1900.14
1846.32
1794.16
1744.18
1696.87
1652.52
1611.26
1573.24
1538.47
1506.86
1478.27
1452.63
1429.82
1409.67
1392.05
1376.84
1363.89
1353.05
1344.25
1337.35
1332.23
1328.82
1327.08
1326.93
1328.26
1331.06
1335.3
1340.89
1347.89
1356.33
1366.18
1377.39
1390.05
1404.31
1420.15
1437.53
1456.71
1477.65
1500.35
1524.67
1550.45
1577.37
1604.71
1631.84
1658.3
584.009
576.784
568.2
558.893
550.722
546.006
544.707
545.68
548.482
553.246
559.709
567.198
575.292
583.621
591.854
599.632
606.785
613.285
619.13
624.259
628.774
632.74
636.206
639.291
642.121
644.755
647.247
649.673
652.115
654.623
657.219
659.962
662.893
666.009
669.346
672.932
676.758
680.824
685.145
689.753
694.638
699.786
705.207
710.913
716.885
723.157
729.722
736.551
743.625
750.95
758.472
766.169
773.991
781.977
789.987
798.003
805.871
813.703
821.352
828.734
835.799
230.169
232.146
235.821
241.925
250.442
260.891
273.381
287.469
303.02
319.643
337.115
354.983
372.907
390.557
407.647
423.946
439.29
453.592
466.8
478.898
489.914
499.881
508.876
516.982
524.293
530.893
536.863
542.294
547.255
551.821
556.054
560.012
563.745
567.295
570.703
573.995
577.205
580.347
583.442
586.508
589.56
592.616
595.674
598.747
601.836
604.936
608.046
611.145
614.231
617.281
620.291
623.258
626.142
629
631.71
634.379
636.905
639.428
641.78
644.003
646.089
130.256
138.677
148.79
160.786
174.638
190.21
207.404
225.961
245.597
265.936
286.642
307.327
327.672
347.375
366.196
383.934
400.461
415.703
429.624
442.233
453.555
463.64
472.565
480.419
487.304
493.319
498.56
503.121
507.08
510.523
513.521
516.141
518.449
520.49
522.31
523.949
525.442
526.812
528.085
529.282
530.422
531.524
532.602
533.665
534.717
535.761
536.797
537.822
538.836
539.832
540.791
541.74
542.651
543.538
544.349
545.146
545.925
546.678
547.382
548.044
548.706
97.0997
108.534
121.699
136.654
153.369
171.741
191.574
212.576
234.4
256.631
278.888
300.784
322.005
342.277
361.393
379.167
395.506
410.365
423.731
435.643
446.143
455.286
463.167
469.879
475.545
480.28
484.188
487.372
489.912
491.898
493.414
494.528
495.314
495.825
496.101
496.191
496.133
495.95
495.672
495.318
494.906
494.462
494.003
493.542
493.083
492.631
492.193
491.765
491.343
490.932
490.515
490.093
489.677
489.257
488.829
488.396
487.983
487.568
487.135
486.695
486.258
84.8421
98.3212
113.628
130.76
149.617
170.059
191.819
214.549
237.844
261.246
284.352
306.756
328.179
348.356
367.145
384.349
399.903
413.814
426.079
436.791
446.007
453.773
460.223
465.434
469.57
472.761
475.115
476.756
477.745
478.184
478.169
477.757
477.046
476.086
474.906
473.565
472.115
470.559
468.937
467.267
465.558
463.846
462.149
460.486
458.848
457.248
455.687
454.179
452.713
451.274
449.864
448.469
447.095
445.741
444.396
443.094
441.826
440.571
439.312
438.06
436.802
81.117
96.3692
113.54
132.548
153.19
175.298
198.535
222.509
246.802
270.856
294.322
316.723
337.864
357.474
375.55
391.791
406.186
418.819
429.654
438.884
446.585
452.743
457.592
461.131
463.605
465.163
465.892
465.975
465.406
464.313
462.821
460.942
458.823
456.503
453.973
451.322
448.633
445.856
443.063
440.262
437.44
434.658
431.93
429.281
426.676
424.139
421.677
419.288
416.975
414.721
412.513
410.339
408.217
406.1
404.015
401.984
400.008
398.086
396.165
394.223
392.308
81.3684
98.26
117.147
137.841
159.997
183.421
207.768
232.623
257.541
281.85
305.304
327.261
347.728
366.354
383.469
398.481
411.459
422.636
431.79
439.335
445.393
449.765
452.971
454.707
455.435
455.314
454.381
452.942
450.82
448.222
445.332
442.04
438.603
435.016
431.218
427.358
423.525
419.578
415.708
411.874
408.023
404.244
400.603
397.073
393.598
390.254
386.979
383.828
380.765
377.796
374.894
372.047
369.255
366.455
363.709
361.062
358.445
355.951
353.423
350.858
348.39
83.4455
101.661
122.09
144.087
167.606
191.969
217.005
242.596
267.692
292.1
315.187
336.585
355.998
373.346
389.283
402.971
414.457
424.032
431.706
437.574
441.76
444.304
445.624
445.729
444.77
442.831
440.349
437.441
433.686
429.645
425.299
420.752
416.269
411.436
406.273
401.387
396.338
391.221
386.384
381.411
376.446
371.442
367.06
362.688
358.304
354.355
350.165
346.374
342.416
338.732
334.945
331.484
328.117
324.601
321.194
318.098
314.75
311.971
308.816
305.534
302.629
1684.15
1709.2
1733.15
1755.95
1777.78
1799.07
1819.94
1840.7
1861.34
1880.99
1899.32
1916.91
1934.02
1951.06
1968.25
1986.3
2005.8
2027.24
2050.93
2077.23
2105.72
2135.89
2167.39
2199.87
2233
2266.76
2301.33
2336.32
2371.74
2407.59
2444.07
2481.04
2518.52
2556.65
2595.46
2634.83
2674.87
2715.72
2757.44
2799.89
2843.07
2887.24
2932.38
2978.32
3025.38
3073.42
3122.31
3172.09
3222.99
3275.02
3328.11
3382.13
3437.65
3494.24
3552.28
3611.53
3672.77
3735.95
3801.1
3868.09
3937.08
842.512
849.3
855.91
862.259
868.37
874.371
880.417
886.345
892.388
898.173
903.92
909.561
915.215
920.904
926.619
932.407
938.282
944.283
950.393
956.581
962.803
969.001
975.16
981.26
987.29
993.23
999.006
1004.59
1009.98
1015.19
1020.25
1025.13
1029.85
1034.42
1038.85
1043.13
1047.29
1051.31
1055.21
1058.98
1062.63
1066.19
1069.63
1072.95
1076.16
1079.26
1082.24
1085.07
1087.8
1090.41
1092.89
1095.24
1097.46
1099.72
1101.75
1103.86
1105.9
1108.13
1110.22
1112.35
1114.59
648.14
650.101
652.111
654.087
656.031
657.872
659.795
661.623
663.441
665.112
666.734
668.302
669.891
671.451
672.982
674.475
675.923
677.323
678.662
679.927
681.105
682.197
683.191
684.083
684.868
685.542
686.099
686.536
686.843
687.026
687.075
686.994
686.787
686.448
685.993
685.417
684.723
683.908
682.973
681.915
680.739
679.451
678.055
676.538
674.91
673.159
671.272
669.24
667.071
664.767
662.299
659.717
656.982
654.124
651.058
647.898
644.637
641.288
637.838
634.322
630.806
549.338
549.971
550.573
551.162
551.718
552.244
552.74
553.217
553.637
553.959
554.221
554.446
554.612
554.696
554.731
554.701
554.608
554.443
554.2
553.87
553.455
552.953
552.368
551.695
550.929
550.06
549.092
548.022
546.848
545.57
544.189
542.696
541.092
539.383
537.577
535.673
533.669
531.567
529.358
527.046
524.638
522.144
519.569
516.919
514.194
511.392
508.49
505.489
502.38
499.183
495.867
492.442
488.922
485.291
481.52
477.62
473.636
469.554
465.403
461.219
457.031
485.824
485.368
484.891
484.388
483.861
483.277
482.64
482.004
481.367
480.685
479.973
479.223
478.418
477.561
476.647
475.672
474.668
473.595
472.453
471.238
469.954
468.607
467.203
465.745
464.223
462.631
460.965
459.223
457.412
455.53
453.573
451.529
449.397
447.182
444.895
442.536
440.103
437.585
434.978
432.285
429.517
426.68
423.791
420.865
417.908
414.921
411.868
408.775
405.603
402.375
399.069
395.674
392.212
388.668
385.018
381.256
377.402
373.449
369.462
365.45
361.429
435.562
434.316
433.07
431.786
430.483
429.153
427.788
426.409
424.998
423.568
422.107
420.628
419.118
417.564
415.97
414.347
412.703
410.999
409.231
407.401
405.516
403.587
401.63
399.652
397.636
395.57
393.455
391.289
389.089
386.856
384.585
382.25
379.853
377.388
374.879
372.324
369.706
367.026
364.265
361.423
358.514
355.544
352.539
349.527
346.526
343.548
340.534
337.524
334.474
331.428
328.334
325.168
321.97
318.695
315.361
311.892
308.349
304.719
301.091
297.413
293.749
390.419
388.548
386.68
384.808
382.908
380.974
379.016
377.064
375.082
373.06
371.031
369.004
366.949
364.876
362.763
360.64
358.524
356.362
354.136
351.838
349.483
347.108
344.723
342.355
339.977
337.559
335.107
332.614
330.125
327.647
325.202
322.714
320.207
317.644
315.077
312.484
309.822
307.116
304.339
301.486
298.562
295.557
292.522
289.49
286.488
283.584
280.651
277.793
274.918
272.142
269.364
266.496
263.63
260.698
257.749
254.613
251.454
248.177
244.984
241.715
238.489
345.93
343.538
341.148
338.812
336.462
334.14
331.754
329.447
327.119
324.686
322.264
319.893
317.483
315.054
312.548
310.073
307.681
305.255
302.766
300.133
297.416
294.718
292.002
289.327
286.711
284.057
281.367
278.579
275.807
273.109
270.577
268.023
265.54
263.023
260.579
258.148
255.574
252.922
250.249
247.558
244.754
241.811
238.829
235.832
232.846
230.074
227.21
224.524
221.82
219.391
217.024
214.5
212.021
209.471
206.971
204.17
201.427
198.507
195.821
193.008
190.292
299.502
296.615
293.578
290.884
288.041
285.635
282.908
280.603
278.284
275.75
273.206
270.926
268.413
265.938
263.171
260.361
257.896
255.541
253.198
250.607
247.586
244.778
241.896
238.962
236.199
233.487
230.869
227.924
224.746
221.756
219.149
216.523
214.116
211.763
209.757
207.821
205.557
202.986
200.49
198.187
195.81
193.052
190.196
187.374
184.448
181.902
179.01
176.491
173.848
171.892
170.045
167.864
165.863
163.772
161.835
159.325
157.035
154.403
152.278
149.963
147.869
4009.16
4083.79
4160.35
4238.87
4319.79
4404.02
4490.99
4580.65
4672.71
4767.4
4865.16
4965.08
5067.35
5175.93
5311.31
5434.6
5557.33
5682.71
5810.59
5940.92
6074
6209.88
6348.14
6488.98
6632.19
6777.09
6923.38
7070.79
7219.16
7367.62
7516.09
7663.96
7810.37
7954.74
8096.57
8234.44
8367.23
8493.71
8605.95
8688.47
8744.45
8775.42
8781.16
8759.8
8709.69
8628.3
8511.49
8354.52
8152.96
7902.04
7595.35
7225.87
6788.18
6274.84
5642.62
4705.76
4293.98
4089.53
4009.29
3969.15
3883.43
1117.06
1119.62
1122.38
1125.18
1128.07
1131.18
1134.81
1138.83
1143.3
1148.06
1153.31
1156.45
1157.58
1160.27
1163.52
1168.18
1172.98
1177.73
1182.61
1187.74
1193.14
1198.84
1204.8
1211.03
1217.5
1224.18
1231.13
1238.35
1245.89
1253.8
1262.12
1270.91
1280.3
1290.39
1301.3
1313.25
1326.43
1341.2
1358.69
1387.4
1422.22
1460.09
1501.12
1545.46
1593.81
1646.51
1703.62
1765.44
1832.21
1903.49
1978.38
2055.23
2132.52
2208.99
2277.04
2340.83
2399.3
2485.34
2590.29
2697.35
2644.49
627.259
623.711
620.122
616.51
612.835
609.179
605.625
602.215
598.863
595.461
591.609
585.854
579.767
574.487
569.708
565.547
561.473
557.299
553.066
548.827
544.621
540.444
536.29
532.156
528.039
523.934
519.85
515.791
511.775
507.8
503.888
500.059
496.325
492.732
489.307
486.1
483.158
480.555
478.421
477.277
477.312
481.557
489.608
500.961
516.078
535.621
560.319
591.212
629.313
675.72
731.455
797.31
874.469
963.184
1063.08
1170.58
1277.11
1393.94
1538.15
1725.86
1910.16
452.84
448.654
444.462
440.251
435.988
431.719
427.491
423.354
419.186
414.906
409.846
403.75
397.81
392.401
387.378
382.706
378.142
373.594
369.043
364.516
360.014
355.518
351.036
346.573
342.124
337.697
333.295
328.918
324.568
320.247
315.957
311.706
307.506
303.367
299.301
295.329
291.471
287.745
284.178
280.836
277.802
275.385
274.278
274.903
277.13
281.304
287.892
297.55
311.131
329.67
354.593
387.244
429.296
481.855
545.486
618.055
695.397
779.158
877.974
1005.86
1164.8
357.42
353.469
349.533
345.571
341.538
337.5
333.471
329.516
325.523
321.407
316.527
311.13
305.988
301.239
296.737
292.472
288.306
284.233
280.213
276.257
272.339
268.409
264.5
260.617
256.749
252.909
249.096
245.312
241.548
237.806
234.088
230.4
226.749
223.145
219.597
216.118
212.718
209.411
206.204
203.118
200.179
197.453
195.076
193.407
192.558
192.549
193.607
196.038
200.277
206.873
216.629
230.561
249.881
275.85
309.461
350.782
398.371
451.78
513.382
588.891
684.426
290.077
286.52
282.988
279.453
275.775
272.098
268.406
264.823
261.206
257.513
253.132
248.54
244.198
240.194
236.325
232.622
228.979
225.486
222.081
218.774
215.514
212.213
208.948
205.727
202.514
199.341
196.184
193.06
189.939
186.833
183.738
180.672
177.636
174.646
171.705
168.827
166.017
163.286
160.636
158.081
155.631
153.313
151.166
149.282
147.908
146.943
146.511
146.736
147.827
150.066
153.828
159.643
168.191
180.246
196.679
218.038
244.427
275.914
313.146
357.833
413.092
235.172
232.045
228.956
225.914
222.614
219.341
216.001
212.857
209.688
206.54
202.721
198.894
195.271
192.008
188.759
185.653
182.534
179.64
176.835
174.148
171.512
168.774
166.118
163.55
160.968
158.437
155.896
153.397
150.868
148.352
145.824
143.339
140.88
138.479
136.117
133.821
131.582
129.42
127.327
125.323
123.407
121.604
119.923
118.399
117.098
116.168
115.521
115.225
115.385
116.138
117.676
120.254
124.197
129.939
137.954
148.729
162.673
180.106
201.499
227.657
259.878
187.314
184.615
181.993
179.521
176.612
173.777
170.78
168.135
165.465
162.942
159.663
156.523
153.517
150.965
148.276
145.775
143.137
140.834
138.591
136.451
134.374
132.098
129.988
128.077
126.082
124.13
122.116
120.188
118.16
116.152
114.097
112.137
110.194
108.344
106.508
104.749
103.018
101.369
99.7822
98.2952
96.884
95.5865
94.4036
93.3307
92.4008
91.717
91.2407
90.9655
90.9593
91.2961
92.0782
93.4297
95.5231
98.5569
102.782
108.482
115.953
125.529
137.579
152.611
171.296
145.196
142.858
140.726
138.912
136.393
134.019
131.311
129.26
127.129
125.275
122.481
119.934
117.397
115.538
113.295
111.415
109.163
107.465
105.719
103.98
102.376
100.415
98.8014
97.6457
96.1412
94.6141
92.9785
91.5849
89.9008
88.289
86.5457
85.0941
83.5859
82.2599
80.849
79.5563
78.1809
76.9482
75.7875
74.7603
73.8052
72.956
72.2281
71.5848
70.9812
70.4937
70.1907
70.0088
70.0579
70.2658
70.8735
71.797
73.2418
75.1744
77.8094
81.1786
85.5772
91.0975
98.1372
106.958
117.919
3737.85
3578.23
3406.88
3227.13
3047.96
2874.72
2710.89
2561.05
2428.88
2316.39
2223.89
2150.23
2093.66
2051.88
2022.1
2001.72
1988.58
1981.11
1977.91
1977.78
1980.07
1984.25
1989.91
1996.96
2005.4
2015.01
2025.69
2037.48
2050.43
2064.42
2079.4
2095.32
2112.07
2129.4
2147.21
2165.21
2183.08
2200.52
2217.37
2233.31
2247.9
2260.96
2272.37
2281.94
2289.8
2296.22
2301.35
2305.39
2308.88
2312.5
2316.54
2321.11
2326.69
2333.4
2340.95
2349.08
2357.56
2366.39
2374.64
2381.36
2385.89
2452.53
2249.47
2050.36
1860.68
1693.48
1538.87
1395.79
1265.38
1147.85
1044.17
954.439
878.147
814.293
761.359
719.034
686.431
661.566
642.557
627.889
616.476
607.563
600.574
595.145
591.072
588.063
586.292
585.341
585.392
586.344
588.208
590.994
594.681
599.26
604.692
610.921
617.873
625.432
633.456
641.769
650.162
658.353
665.995
672.687
678.001
681.557
683.005
682.073
678.691
673.041
665.535
656.737
647.338
638.091
629.614
622.108
615.831
610.527
605.995
601.556
596.776
591.017
1992.73
1976.41
1871.65
1697.04
1517.98
1344.24
1174.99
1022.1
885.341
764.414
660.331
572.49
499.731
440.733
394.496
359.17
332.073
310.749
293.956
280.844
270.585
262.501
256.079
250.939
246.848
243.495
240.897
238.874
237.411
236.47
236.025
236.075
236.604
237.578
238.972
240.744
242.853
245.252
247.883
250.661
253.488
256.251
258.82
261.02
262.691
263.637
263.678
262.663
260.526
257.27
253.029
248.127
242.973
238.047
233.692
230.322
228.073
226.972
226.857
227.547
228.802
1329.49
1474.67
1568.93
1581.87
1510.23
1383.44
1213.64
1044.06
887.278
742.806
617.578
512.818
426.615
357.747
303.863
262.099
229.758
204.319
184.427
169.032
157.19
148.123
141.179
135.814
131.616
128.267
125.594
123.455
121.762
120.452
119.487
118.846
118.502
118.421
118.566
118.902
119.393
120
120.682
121.39
122.069
122.667
123.125
123.383
123.385
123.079
122.426
121.401
120.011
118.272
116.245
114.067
111.937
110.102
108.813
108.38
109.038
110.858
113.818
117.902
123.268
801.074
936.226
1078.57
1203.87
1282.73
1298.16
1245.68
1138.54
1001.32
846.233
700.158
574.614
466.796
379.11
309.641
254.768
211.894
178.458
152.443
132.423
117.196
105.779
97.2853
90.9391
86.1337
82.4271
79.538
77.2713
75.4941
74.1033
73.0404
72.2723
71.7628
71.4696
71.3526
71.3749
71.5005
71.693
71.9162
72.1299
72.291
72.3592
72.2952
72.0628
71.6307
70.9772
70.0981
69.0032
67.7103
66.2637
64.7363
63.2453
61.9737
61.1449
61.0282
61.8343
63.8886
67.3719
72.3679
79.0179
87.2378
481.961
567.508
670.556
786.821
903.911
1003.96
1066.91
1077.81
1035.01
946.582
829.714
703.27
575.868
465.5
375.175
300.639
241.812
195.365
158.528
130.184
108.874
93.2185
81.8682
73.6105
67.5141
62.9308
59.4486
56.7879
54.752
53.1835
51.9927
51.1287
50.5426
50.1809
49.997
49.9507
50.0036
50.1209
50.2678
50.4072
50.5009
50.5156
50.4172
50.1774
49.768
49.175
48.3964
47.4466
46.3403
45.1157
43.8347
42.601
41.5732
40.9688
41.0768
42.2368
44.822
49.0999
55.2364
63.2719
73.1336
299.907
349.983
412.404
488.549
577.339
673.895
768.094
845.769
892.723
898.739
861.999
790.014
694.787
590.371
488.253
391.77
312.684
248.058
194.384
152.542
120.938
98.0314
81.791
70.2187
61.8461
55.6653
51.0628
47.6254
45.0589
43.1143
41.6529
40.5937
39.8694
39.4079
39.1511
39.0508
39.0642
39.1551
39.2881
39.4275
39.5361
39.5869
39.546
39.3901
39.088
38.6325
38.0184
37.262
36.3691
35.3766
34.3333
33.3304
32.5067
32.0576
32.2712
33.5407
36.2724
40.8766
47.6476
56.6613
67.8415
194.61
223.78
260.37
305.976
361.864
428.17
503.036
581.354
655.117
713.603
746.468
747.585
717.306
660.195
585.026
499.915
414.809
334.617
259.656
199.392
151.884
117.618
93.7626
76.9565
64.88
56.0267
49.5088
44.7455
41.2804
38.6901
36.7618
35.3602
34.3925
33.7545
33.3701
33.1765
33.1229
33.1681
33.2747
33.4059
33.5236
33.6078
33.6233
33.5503
33.3515
33.0268
32.5646
31.9864
31.2879
30.5062
29.6808
28.8954
28.2724
27.9877
28.3181
29.6589
32.4646
37.2585
44.4826
54.3093
66.6613
131.702
148.827
170.255
197.253
230.861
272.081
321.236
377.749
439.059
501.067
555.871
597.483
619.625
619.686
596.15
551.267
491.001
419.489
345.93
271.4
202.409
153.026
118.695
94.2831
76.3501
63.1835
53.5149
46.5874
41.6571
38.0059
35.3235
33.3605
31.9961
31.0712
30.4792
30.1308
29.9619
29.9214
29.9694
30.0611
30.1621
30.2564
30.3078
30.2963
30.1815
29.9643
29.6343
29.2081
28.6804
28.0814
27.4524
26.8694
26.4505
26.3521
26.8342
28.2889
31.1967
36.1558
43.7202
54.2043
67.4786
1.51755
209.645
187.607
2.33085
2.18428
0.204224
0.000719952
89.7486
0.000796363
0.0147128
93.0193
7.09467
0.000720858
243.689
0.167158
138.649
0.000757422
91.3419
117.071
0.000716206
2.34268
233.059
198.281
0.00076709
0.000781096
0.213949
0.000717328
7.79222
0.000753184
0.000819874
6.34802
0.000742701
0.0087928
65.8995
4.00027
110.818
70.8366
16.3624
0.000723286
44.7818
65.7356
28.2342
0.000743314
105.764
172.388
0.718962
0.000869034
0.00861908
1.29464
7.30252
362.186
354.601
0.000698427
0.00102982
0.0637589
0.0357213
0.000816968
9.03382
58.1348
281.876
139.022
0.00090596
1.55361
0.0250425
200.018
2.36324
38.3972
62.597
0.00113269
0.000747672
9.82252
43.0645
56.2716
0.037885
0.0515734
80.7799
226.922
58.5898
0.000700161
5.51024
0.00234411
47.7975
0.012639
115.376
0.000749932
8.91393
0.000791064
37.2561
0.0111146
0.00136754
0.233971
0.000698451
0.000933813
305.485
143.713
0.000867296
1.58719
1.81909
0.00184947
208.313
1.01234
31.6477
6.18001
0.000696828
0.000725964
0.00069416
1.46408
0.210427
0.000748086
175.263
223.75
0.00477855
234.172
27.0801
112.599
54.9957
28.3102
0.000977916
0.111234
0.00110584
0.00163647
188.495
0.00308815
288.782
410.576
28.0448
0.000746017
7.46344
7.23752
0.000743932
0.0300517
0.0269194
91.8676
0.0018726
64.5539
0.000748833
0.000723816
394.136
347.967
0.000748805
0.746147
150.256
0.234299
0.909658
26.7721
119.719
0.298215
27.7054
0.00526524
272.253
11.1299
0.0385806
51.6622
112.929
189.301
0.000766225
0.000757226
0.519349
0.000695296
40.9707
0.113757
0.00144988
0.000740454
0.000747476
0.000758571
42.6266
69.1639
34.5199
0.000768521
281.755
298.688
408.856
165.095
0.00693366
160.792
46.0017
28.2735
0.000750051
0.00169754
193.566
67.5646
29.0048
72.9447
0.00074534
0.000842065
238.552
0.0296617
2.49665
0.000757807
0.000866993
0.174508
0.000797977
328.548
4.23622
0.000690924
0.690702
90.3302
140.07
0.00119847
51.977
0.000746606
0.000750194
108.705
34.6927
297.245
0.00121543
0.00080063
0.00286171
43.552
75.4386
10.3111
121.491
14.3515
233.352
0.81696
90.4836
84.5172
26.6252
10.9211
39.7325
0.00144297
0.0294419
0.000747658
0.000726091
28.3998
0.010036
0.0117674
0.00198004
0.00629208
49.6083
197.287
0.0111571
168.581
7.78316
2.93576
0.000732468
0.530532
40.8156
7.60119
0.00106375
13.0426
35.0864
0.856407
2.45338
272.518
7.76865
4.98085
126.033
0.000955451
0.000724117
0.00102686
0.00429181
28.8543
0.000784768
0.00249747
0.000723677
1.81074
76.4658
77.1768
49.0178
12.0764
11.7196
324.55
0.00114045
47.5346
98.872
0.000743905
85.6406
0.000749603
325.598
1.80991
55.0813
0.00154859
0.00074848
20.9905
7.60759
0.000759627
0.000750542
0.000755348
0.000751532
1.18793
35.9736
47.3402
0.0109141
0.000760437
0.000724436
0.000695934
109.147
1.14995
0.00119073
19.8798
0.116812
0.0967254
0.000692154
0.795347
0.000760157
0.108216
47.7415
268.771
3.12719
0.000978451
0.00184661
59.3264
0.35645
131.34
322.502
0.000838176
0.000739916
0.00073399
160.538
0.00077356
136.737
0.000749828
24.6917
12.2961
0.0243182
141.455
237.089
0.00127229
49.8122
51.1319
90.3308
91.334
9.73136
345.328
38.6974
72.0611
139.868
98.2046
56.4779
0.344006
335.829
280.839
62.3192
33.7502
0.00100174
265.738
127.478
232.814
0.0188398
0.000867407
0.000745759
0.00081161
0.697162
1.56849
6.29516
0.125571
0.000726345
171.541
0.000746372
27.2209
24.9503
194.143
41.8868
19.9542
0.00192854
0.00110641
0.468099
87.6138
0.00436273
8.10019
257.335
35.8003
88.3767
190.735
61.6312
0.000821408
283.934
142.646
98.0432
0.000750468
192.583
152.933
0.000781421
30.6314
0.000751598
388.593
171.589
28.1228
85.5108
115.878
150.789
0.000764784
150.211
0.000964908
68.9071
85.4916
28.301
280.301
3.71112
0.4945
2.59919
0.00110023
440.491
1.49944
0.00290708
0.00182252
252.382
0.000953344
97.3383
0.000737621
0.000750003
0.00183897
32.5918
0.194513
23.0845
0.00197904
87.376
0.309953
216.42
278.288
40.4722
333.262
0.000794019
280.533
44.5381
0.000742251
82.7711
27.2557
0.000696546
0.000727452
114.386
0.00206245
26.4982
0.465579
78.5271
0.017733
3.6422
41.5169
119.818
34.8277
82.5407
71.2985
0.00100145
0.0339505
28.8359
21.2181
331.398
335.003
139.239
0.0850698
125.076
123.931
3.50796
91.969
47.4393
27.5582
0.000822426
88.7097
380.254
0.00107614
90.8142
19.7729
48.0372
0.0153697
0.0897063
265.289
0.00193154
327.321
0.00124691
1.81197
0.000738046
8.05647
169.209
0.557992
0.00132124
0.000902737
77.4177
26.9154
0.364067
5.51638
290.457
545.536
0.00139098
12.0048
27.3437
73.4928
26.3467
449.812
28.8195
154.644
54.6975
3.51039
7.21612
303.127
54.6811
353.265
173.769
0.237254
173.969
61.3056
0.000792156
92.1688
29.667
13.0832
0.00980785
97.637
45.1163
4.38085
53.6273
0.00159363
0.000747163
0.15422
28.3339
105.654
71.9772
0.000750196
0.000731332
0.00074385
28.3666
0.0279916
0.000745717
0.249785
95.4092
269.371
0.00440655
0.00454014
0.000721503
0.000738757
0.00194123
30.5433
102.356
20.8404
1.90165
294.466
376.973
0.00151125
61.5514
27.9404
28.4889
79.5697
433.082
0.000821983
0.00445704
0.000750875
398.235
0.804182
0.000726914
10.748
0.358137
302.207
0.000759334
320.481
9.2103
0.0658953
202.904
0.000748071
0.000736447
0.00102777
400.488
55.9239
132.021
313.164
10.8444
28.6324
0.000708791
0.00184637
0.469024
0.0152213
0.0163811
180.906
40.6582
0.000747831
25.5344
44.6179
184.492
402.787
0.00294985
406.469
0.00182556
0.021859
150.16
0.000739246
150.273
0.000759574
0.000791541
0.0212901
34.6542
2.94359
328.099
62.274
0.000886537
28.5861
498.822
0.20803
2.26262
7.41677
0.000774721
0.000759599
0.0023099
140.342
5.48835
0.000783587
268.43
275.417
216.779
0.11041
58.881
0.00109045
31.8351
0.540318
0.132306
120.212
29.7321
152.48
175.866
0.000761132
0.000711597
0.00493351
73.1423
103.294
6.04031
0.00660141
0.000772919
0.000749906
0.00343639
0.127052
0.00211613
71.2935
21.227
0.00499437
26.4695
172.936
0.000760549
38.1358
0.000742623
3.36424
0.000762492
0.0132617
37.3957
0.0116683
0.00074459
4.13509
359.206
258.64
0.000731101
0.000748606
1.60972
0.137634
0.000747722
97.61
0.000905341
31.8578
373.328
31.0977
87.906
300.192
130.489
336.264
0.000747573
0.00250577
0.0111169
289.535
60.5099
198.951
5.47143
4.36505
99.4799
168.182
125.459
4.90533
45.8165
0.000750522
1.59257
41.8029
34.6841
306.275
26.2737
1.12556
43.0641
0.207536
0.00977489
41.8634
0.000750979
174.059
0.000887682
2.74083
293.835
186.052
3.18472
0.00251274
7.36937
0.000768729
0.000736237
0.2003
0.0135454
53.604
0.00873279
28.8096
0.000750506
0.0191095
0.000725487
98.6223
0.00181417
86.0507
305.993
0.0143047
170.435
367.098
0.000756973
100.023
221.988
0.000785775
288.386
0.273267
0.000824998
0.000791711
276.814
0.000731621
0.00111882
0.123269
0.219116
424.886
270.695
0.000751493
0.000754783
9.17129
29.4962
0.00711456
2.32416
22.9769
0.000747652
0.000953964
0.000912733
171.108
272.397
3.5264
290.828
0.0172329
26.788
0.000772201
0.00719711
0.0160819
0.0436008
0.000749654
292.636
0.000741924
0.0161133
0.000771948
1.31954
0.0147989
0.0394359
2.54076
5.33264
35.0772
2.18612
9.67457
27.9539
188.682
0.000816343
165.793
324.444
13.292
79.1328
0.000761834
264.952
79.4405
0.000745611
403.746
64.9914
0.0061832
0.0244237
166.125
167.017
0.219933
315.134
401.983
4.44427
424.686
261.304
134.073
49.8628
20.7859
27.975
264.03
288.005
0.0142803
304.038
41.0714
401.206
0.000813486
1.64254
2.78188
227.765
165.248
0.0118616
444.466
199.19
6.92744
0.0552189
2.78236
28.1422
0.0015479
28.2777
433.99
0.0294702
224.27
14.5964
96.2756
190.775
0.000746043
0.00168085
7.63248
5.55189
0.0133606
0.000748285
0.832874
1.81409
0.00120899
0.000758695
267.167
7.42817
53.5601
11.1431
0.00315058
0.00107541
0.411613
86.6413
0.000823894
23.1088
30.3754
1.85398
166.505
0.00100524
0.397329
0.000740596
1.77923
90.9479
0.00163929
0.185931
40.5347
164.39
0.505035
99.9297
5.22923
0.909739
0.000987897
34.8026
327.879
0.000744053
0.000756058
149.844
0.0158366
0.000758245
74.9718
2.11334
166.967
29.6275
38.3467
0.31901
17.6949
200.143
161.271
240.652
0.000763214
271.733
0.00096979
38.0378
0.000796952
0.00146646
44.5322
0.00209707
251.938
0.0122282
0.0324513
45.793
7.81364
0.560885
0.00089715
185.647
0.00088673
0.000719272
341.352
162.361
42.838
28.7182
0.000813726
0.000683183
19.7365
150.279
0.000732576
215.605
37.5067
0.00075287
173.874
0.00070261
3.36435
6.56822
10.8948
1.5876
76.9698
21.0808
0.000700823
269.354
322.392
0.000744479
0.013416
28.9165
0.000708993
241.139
161.35
401.687
0.000745513
0.000727862
198.156
0.0977008
0.000836924
32.4416
81.3555
249.482
0.000720924
0.000794101
0.0158125
0.0116611
0.000746795
0.00203213
130.499
50.7194
0.000746642
13.9597
0.000747026
10.0429
0.00109138
0.000866964
28.8312
0.000748778
0.343035
0.000730525
49.8645
2.09495
20.9922
189.502
358.384
149.431
5.43219
14.7479
0.000758249
5.78623
278.335
531.233
0.157509
0.000826588
130.985
0.000746063
0.114079
0.00072063
435.67
14.976
3.13919
195.918
53.2875
4.96784
84.1046
7.81549
227.162
119.015
0.000773736
0.000756287
0.00308373
0.000736983
0.0140951
97.9608
0.000932403
248.13
0.00186589
0.300222
3.18118
153.989
0.00136028
43.4969
0.0136555
55.2319
32.2701
430.302
0.000795929
0.000955335
1.42487
89.1604
63.2577
69.1551
2.03826
8.02375
20.0152
0.0632544
10.1896
1.79806
30.15
0.000756864
388.924
1.4464
58.6906
0.00078804
55.6053
16.2468
0.00186306
89.5207
17.8302
0.0849566
0.000715209
0.000745991
203.348
50.3429
14.8729
0.000737879
0.00956748
49.7808
191.57
3.46771
0.00586421
0.00073588
146.762
131.599
35.6731
37.9163
0.000743599
103.306
430.914
0.00074691
0.000749283
18.7844
0.00126587
0.00387368
0.226065
47.8646
0.00105234
36.2383
343.914
0.000731898
0.000821759
0.000727468
0.000769938
69.9459
513.826
332.056
0.0206497
35.2996
46.6338
0.134306
46.8784
0.00082415
31.2738
0.536657
30.5299
5.47829
82.8706
103.447
0.146854
0.000759136
162.353
85.4987
274.35
5.90175
30.2222
0.540155
20.4082
0.00353762
0.00133459
153.996
144.777
0.0338378
1.20802
0.000753969
0.100279
20.5836
0.0281123
13.948
4.33749
387.938
37.3925
1.75159
270.245
144.84
56.2822
16.4244
200.268
185.413
3.28509
39.9
0.00362308
49.5916
47.6015
0.00074345
0.000711098
0.345404
0.000748428
0.000775546
57.3071
296.678
0.000744606
83.0037
0.000744915
0.000736796
0.000740851
0.000752948
0.00181583
29.6799
44.4344
250.77
0.000718846
0.00106422
7.02534
0.000855042
0.0284558
0.000762785
0.000866357
167.577
0.000983147
0.00466749
182.822
0.00426227
0.000749433
187.223
0.000745358
0.000760511
1.49078
0.000870635
6.5962
0.00123956
0.0240151
0.000743838
0.000753574
303.733
416.85
44.37
0.023882
111.669
17.1347
0.00130251
27.7125
305.92
237.437
474.359
0.000700594
27.0262
58.2779
0.263304
28.6627
101.192
0.352749
31.7644
1.03867
28.5514
0.285209
7.55214
0.000757621
219.752
0.000757191
28.7007
34.0953
0.000747858
0.920819
0.00245812
0.0291161
0.000726536
3.90197
0.000893681
0.000741938
40.3959
0.0358168
0.165896
233.315
154.863
0.000819285
0.000968574
32.1364
261.165
0.000690148
0.000753946
0.197168
24.2239
151.943
0.00209902
16.6968
0.000745418
0.000818157
0.000718497
0.0280208
23.7158
0.00409537
269.794
29.9837
259.657
173.294
0.000843022
295.028
69.7742
0.00073273
0.000754063
0.000750338
0.0011595
0.000740205
125.444
0.000745386
0.000750353
344.594
1.25544
0.00267933
0.0348316
61.065
7.83168
0.00778044
0.000823959
187.073
0.000762693
6.78323
0.00075505
0.000845524
164.439
162.958
0.003339
0.000835276
3.86317
0.000744248
361.889
0.000753094
150.218
0.0269633
8.5157
0.117114
3.15993
1.97161
29.9645
0.000760952
0.000859901
0.00490257
59.6804
0.287782
303.674
0.000747029
0.00124317
0.0016406
257.592
64.4281
274.597
0.00226356
0.0035109
0.841541
0.000751299
19.6396
39.5695
0.00878388
266.283
184.38
43.4109
0.00154721
1.48128
169.586
225.503
27.9972
0.0106013
123.144
0.528993
133.433
0.145538
2.33305
42.4186
0.000761954
28.5879
0.00122388
0.00509805
0.00623973
0.0479545
0.000906938
11.1396
0.00074595
46.1072
0.132776
0.000867745
1.62394
0.000756578
0.767675
0.230217
40.1654
3.82709
93.4493
0.832817
0.000748379