/*--------------------------------*- C++ -*----------------------------------*\
| =========                 |                                                 |
| \\      /  F ield         | OpenFOAM: The Open Source CFD Toolbox           |
|  \\    /   O peration     | Version:  2.3.1                                 |
|   \\  /    A nd           | Web:      www.OpenFOAM.org                      |
|    \\/     M anipulation  |                                                 |
\*---------------------------------------------------------------------------*/
FoamFile
{
    version     2.0;
    format      ascii;
    class       surfaceScalarField;
    location    "0.84";
    object      phi;
}
// * * * * * * * * * * * * * * * * * * * * * * * * * * * * * * * * * * * * * //

dimensions      [0 3 -1 0 0 0 0];

internalField   nonuniform List<scalar> 
15416
(
-0.000705337
-3.06102e-06
0.000710623
-0.000702253
-3.09435e-06
-0.000699556
-2.70012e-06
-0.000697852
-1.70682e-06
-0.000697419
-4.37119e-07
-0.000698551
1.12819e-06
-0.000701959
3.40359e-06
-0.000708016
6.04936e-06
-0.000716845
8.82308e-06
-0.000728797
1.19441e-05
-0.000744278
1.54725e-05
-0.000763494
1.92059e-05
-0.000786565
2.30596e-05
-0.000813558
2.69794e-05
-0.00084455
3.09774e-05
-0.000879451
3.48843e-05
-0.000918062
3.85937e-05
-0.00096017
4.20878e-05
-0.00100562
4.54334e-05
-0.0010541
4.84492e-05
-0.00110532
5.11986e-05
-0.00115904
5.36939e-05
-0.0012149
5.58321e-05
-0.00127254
5.7608e-05
-0.00133171
5.91432e-05
-0.00139219
6.04415e-05
-0.00145366
6.14448e-05
-0.00151583
6.21332e-05
-0.00157846
6.26052e-05
-0.0016414
6.29021e-05
-0.00170435
6.29128e-05
-0.00176711
6.27203e-05
-0.00182958
6.24378e-05
-0.00189154
6.1921e-05
-0.00195279
6.12133e-05
-0.00201329
6.04569e-05
-0.00207292
5.95933e-05
-0.00213151
5.85513e-05
-0.00218883
5.72859e-05
-0.00224487
5.60063e-05
-0.00229962
5.47137e-05
-0.0023529
5.32463e-05
-0.0024046
5.16639e-05
-0.00245476
5.01284e-05
-0.00250311
4.8317e-05
-0.00254962
4.64818e-05
-0.00259441
4.47569e-05
-0.00263747
4.30357e-05
-0.00267861
4.11064e-05
-0.0027178
3.91668e-05
-0.00275497
3.71547e-05
-0.00279032
3.53201e-05
-0.00282333
3.29931e-05
-0.00285447
3.11213e-05
-0.00288353
2.90429e-05
-0.00291088
2.73236e-05
-0.00293556
2.46609e-05
-0.00295799
2.24177e-05
-0.00297854
2.05311e-05
-0.00299736
1.8805e-05
1.71178e-05
-0.00301449
-0.00040785
-3.79347e-06
0.000408597
-0.000409199
-1.73679e-06
-0.000413024
1.13187e-06
-0.000419575
4.85018e-06
-0.000430665
1.06593e-05
-0.00044559
1.60592e-05
-0.00046458
2.23991e-05
-0.000487341
2.88174e-05
-0.000514585
3.60713e-05
-0.000545815
4.31789e-05
-0.000581195
5.08574e-05
-0.000620569
5.85835e-05
-0.00066382
6.63153e-05
-0.000710818
7.39805e-05
-0.000761259
8.14219e-05
-0.000815004
8.86323e-05
-0.000871789
9.53817e-05
-0.000931401
0.000101703
-0.000993488
0.000107523
-0.00105785
0.000112811
-0.00112426
0.000117617
-0.0011923
0.000121734
-0.00126177
0.000125304
-0.00133245
0.000128297
-0.00140405
0.000130743
-0.00147632
0.000132714
-0.00154893
0.000134061
-0.00162183
0.000135042
-0.00169472
0.000135503
-0.00176729
0.000135468
-0.00183953
0.000135162
-0.0019113
0.000134488
-0.00198219
0.000133337
-0.0020522
0.000131926
-0.0021213
0.000130324
-0.00218913
0.00012829
-0.00225572
0.000126179
-0.00232091
0.000123753
-0.00238472
0.000121099
-0.00244694
0.000118222
-0.00250725
0.000115033
-0.00256595
0.000111951
-0.00262285
0.000108561
-0.00267767
0.000104955
-0.0027306
0.000101248
-0.00278144
9.73281e-05
-0.00283028
9.35918e-05
-0.00287667
8.94315e-05
-0.00292101
8.54503e-05
-0.0029632
8.13654e-05
-0.00300328
7.72412e-05
-0.00304155
7.35938e-05
-0.00307638
6.783e-05
-0.00311054
6.52796e-05
-0.0031409
5.94133e-05
-0.00316974
5.61619e-05
-0.00319425
4.91771e-05
-0.0032186
4.67715e-05
-0.00324069
4.2622e-05
-0.00326063
3.87422e-05
3.27404e-05
-0.00327625
-0.000266428
3.06163e-06
0.000259596
-0.000276484
8.31758e-06
-0.000290545
1.51927e-05
-0.000309165
2.34708e-05
-0.000331293
3.27878e-05
-0.000358019
4.27863e-05
-0.000388898
5.3279e-05
-0.000424195
6.41148e-05
-0.000463809
7.56852e-05
-0.000507823
8.71932e-05
-0.000555947
9.89802e-05
-0.000607788
0.000110424
-0.000663464
0.00012199
-0.000722589
0.000133103
-0.000784957
0.000143788
-0.000850284
0.000153957
-0.000918351
0.000163445
-0.000988882
0.00017223
-0.00106156
0.000180195
-0.00113622
0.000187471
-0.00121242
0.000193806
-0.00129006
0.000199377
-0.00136887
0.0002041
-0.00144856
0.000207989
-0.00152886
0.000211039
-0.00160953
0.000213375
-0.0016904
0.000214927
-0.0017712
0.000215843
-0.00185166
0.000215957
-0.00193189
0.000215682
-0.0020114
0.000214667
-0.00209
0.00021308
-0.00216789
0.000211211
-0.00224458
0.000208607
-0.00231998
0.000205724
-0.00239407
0.000202372
-0.00246667
0.00019877
-0.00253763
0.000194705
-0.00260691
0.00019037
-0.0026744
0.000185711
-0.00274016
0.000180783
-0.00280362
0.000175405
-0.00286517
0.000170099
-0.00292455
0.000164328
-0.00298175
0.000158447
-0.00303681
0.000152375
-0.00308946
0.000146239
-0.00313983
0.000139795
-0.00318766
0.000133275
-0.00323371
0.000127406
-0.00327609
0.000119608
-0.00331589
0.00011339
-0.00335408
0.000106015
-0.00338999
0.000101186
-0.00342377
9.3187e-05
-0.0034533
8.56809e-05
-0.00348268
7.85514e-05
-0.00350776
7.1851e-05
-0.00353063
6.54877e-05
-0.00354926
5.73669e-05
5.12653e-05
-0.00356779
-0.000199181
1.72643e-05
0.000184955
-0.00021765
2.67937e-05
-0.000240374
3.79204e-05
-0.000267361
5.04612e-05
-0.000298717
6.41467e-05
-0.000334587
7.86596e-05
-0.000374888
9.35822e-05
-0.000419977
0.000109207
-0.000469405
0.000125115
-0.000523255
0.000141045
-0.000581076
0.000156803
-0.000643044
0.000172394
-0.000708723
0.00018767
-0.000777686
0.000202067
-0.000849868
0.000215971
-0.000924915
0.000229005
-0.00100254
0.000241071
-0.00108244
0.000252133
-0.0011644
0.000262158
-0.00124801
0.00027108
-0.00133325
0.000279046
-0.00141962
0.000285748
-0.00150703
0.000291511
-0.00159516
0.000296113
-0.00168381
0.000299696
-0.00177258
0.000302144
-0.00186136
0.000303709
-0.00194995
0.00030444
-0.00203823
0.000304236
-0.00212572
0.000303168
-0.00221251
0.000301448
-0.00229846
0.000299026
-0.00238303
0.000295791
-0.00246646
0.000292033
-0.00254852
0.000287789
-0.00262905
0.000282912
-0.00270774
0.000277463
-0.00278475
0.00027172
-0.00285986
0.000265485
-0.00293311
0.000258959
-0.00300406
0.000251738
-0.00307311
0.000244454
-0.00313959
0.000236588
-0.00320388
0.000228616
-0.00326568
0.000220254
-0.003325
0.000211694
-0.00338178
0.00020302
-0.00343632
0.000194335
-0.00348752
0.000184478
-0.0035362
0.000176088
-0.00358349
0.000166896
-0.00362671
0.000156607
-0.00366773
0.000147032
-0.00370464
0.000138104
-0.00374122
0.000129761
-0.00377368
0.000118143
-0.00380389
0.000108769
-0.00383189
9.98472e-05
-0.00385571
8.93131e-05
-0.0038773
7.89664e-05
6.86941e-05
-0.00389473
-0.00016903
3.85898e-05
0.000147708
-0.000194289
5.20545e-05
-0.000224057
6.76908e-05
-0.000258457
8.48637e-05
-0.000297554
0.000103247
-0.000341567
0.000122675
-0.000390673
0.000142691
-0.000444331
0.000162868
-0.000502778
0.000183564
-0.000565619
0.000203888
-0.000632879
0.000224065
-0.00070424
0.000243757
-0.000779159
0.00026259
-0.00085767
0.000280579
-0.00093956
0.000297862
-0.00102381
0.000313261
-0.00111074
0.000328
-0.0011999
0.000341291
-0.00129091
0.000353174
-0.00138363
0.000363803
-0.00147771
0.000373123
-0.00157303
0.000381071
-0.00166919
0.000387672
-0.00176592
0.00039285
-0.00186286
0.00039663
-0.00196006
0.000399349
-0.00205703
0.000400681
-0.00215362
0.000401026
-0.00224965
0.000400259
-0.002345
0.000398515
-0.00243936
0.000395805
-0.00253249
0.000392157
-0.0026244
0.000387706
-0.00271491
0.000382559
-0.0028037
0.000376585
-0.00289071
0.000369929
-0.00297612
0.000362879
-0.0030594
0.000354997
-0.00314057
0.000346659
-0.00321943
0.000337819
-0.00329626
0.000328565
-0.00337055
0.000318739
-0.00344245
0.000308496
-0.00351173
0.000297895
-0.00357836
0.000286885
-0.00364297
0.0002763
-0.00370284
0.000262887
-0.00376066
0.000252157
-0.00381684
0.000240648
-0.00386907
0.000228319
-0.00391903
0.00021685
-0.00396681
0.00020438
-0.00401063
0.000190855
-0.00405223
0.000179692
-0.00408786
0.00016539
-0.00412305
0.000153334
-0.00415604
0.000141748
-0.00418486
0.000128666
-0.00420955
0.000114002
-0.00423399
0.000103408
8.89884e-05
-0.00425429
-0.00015716
6.6492e-05
0.00012926
-0.000189449
8.43463e-05
-0.000226319
0.000104562
-0.000268427
0.000126975
-0.000315732
0.000150553
-0.000368082
0.000175028
-0.000425517
0.000200129
-0.00048822
0.000225573
-0.000555657
0.000251004
-0.000628068
0.000276301
-0.000704918
0.000300917
-0.000785743
0.000324585
-0.000870556
0.000347405
-0.000958556
0.000368581
-0.00104954
0.000388848
-0.00114354
0.000407264
-0.00124005
0.000424509
-0.00133888
0.000440129
-0.00143937
0.000453663
-0.00154138
0.000465815
-0.00164485
0.000476592
-0.00174919
0.000485411
-0.00185442
0.000492912
-0.00196015
0.000498579
-0.00206611
0.000502595
-0.0021719
0.000505138
-0.00227746
0.000506245
-0.00238245
0.000506009
-0.00248674
0.000504553
-0.00259016
0.000501934
-0.00269246
0.000498105
-0.00279331
0.000493017
-0.00289276
0.000487168
-0.00299061
0.000480417
-0.00308654
0.000472517
-0.00318063
0.000464021
-0.00327256
0.00045481
-0.00336235
0.000444774
-0.00344995
0.000434262
-0.00353529
0.000423152
-0.00361786
0.000411135
-0.00369796
0.000398832
-0.00377521
0.000385756
-0.00384925
0.000371928
-0.00392076
0.000358394
-0.00398963
0.000345167
-0.00405647
0.000329726
-0.0041193
0.000314982
-0.00417818
0.000299526
-0.00423481
0.000284949
-0.00428749
0.000269527
-0.00433612
0.000253007
-0.00438432
0.000239043
-0.00442674
0.000222112
-0.00446876
0.000207409
-0.0045067
0.000191261
-0.00453851
0.000173561
-0.00456806
0.000158208
-0.00459741
0.000143348
-0.00462074
0.000126736
0.000110135
-0.00464189
-0.000158384
0.0001009
0.00012398
-0.000197884
0.000123848
-0.000242607
0.000149287
-0.000292965
0.000177335
-0.000348588
0.000206179
-0.000409947
0.00023639
-0.000476696
0.000266881
-0.000548603
0.000297484
-0.000625927
0.000328331
-0.000707764
0.000358141
-0.000794516
0.000387672
-0.000885579
0.000415651
-0.000980213
0.000442042
-0.00107818
0.000466549
-0.00117976
0.000490438
-0.00128407
0.000511568
-0.00139052
0.000530963
-0.00149928
0.000548898
-0.00160967
0.000564056
-0.00172171
0.000577854
-0.00183493
0.000589824
-0.00194905
0.000599532
-0.00206403
0.000607891
-0.00217931
0.000613868
-0.00229458
0.000617866
-0.00240969
0.000620245
-0.00252408
0.000620632
-0.00263806
0.000619988
-0.00275119
0.000617688
-0.002863
0.00061375
-0.00297369
0.000608814
-0.00308283
0.000602159
-0.00318996
0.000594313
-0.00329546
0.000585917
-0.00339909
0.00057615
-0.00350031
0.000565231
-0.00359943
0.00055392
-0.00369606
0.000541392
-0.00379015
0.000528338
-0.00388167
0.000514661
-0.00397062
0.000500088
-0.00405601
0.00048422
-0.00413913
0.000468877
-0.00421911
0.000451906
-0.00429635
0.000435639
-0.00436962
0.000418436
-0.00443903
0.000399125
-0.00450603
0.000381987
-0.00457076
0.000364251
-0.00462977
0.000343956
-0.00468656
0.000326315
-0.0047411
0.000307551
-0.00478991
0.000287854
-0.00483665
0.000268849
-0.00487939
0.000250149
-0.00491794
0.000229808
-0.00495601
0.000211625
-0.004988
0.000190197
-0.00501605
0.000171393
-0.00504016
0.000150838
0.000132039
-0.00506207
-0.00017021
0.000141992
0.000129121
-0.000217314
0.000170953
-0.000270176
0.00020215
-0.000329666
0.000236827
-0.000394761
0.000271277
-0.000465546
0.000307178
-0.000542194
0.000343531
-0.000623771
0.000379065
-0.000711377
0.000415941
-0.000803624
0.000450392
-0.000901438
0.00048549
-0.00100291
0.000517124
-0.00110905
0.000548185
-0.00121752
0.000575025
-0.00132942
0.000602341
-0.00144488
0.000627038
-0.00156229
0.000648372
-0.00168177
0.000668384
-0.00180336
0.000685646
-0.00192527
0.000699774
-0.00204921
0.000713768
-0.00217339
0.000723712
-0.00229902
0.000733528
-0.00242477
0.000739617
-0.00254994
0.000743034
-0.00267516
0.000745473
-0.00279891
0.000744383
-0.00292221
0.000743294
-0.00304474
0.000740223
-0.00316518
0.000734208
-0.00328494
0.000728581
-0.00340287
0.000720098
-0.00351813
0.00070957
-0.0036318
0.000699579
-0.00374365
0.000687993
-0.00385215
0.000673714
-0.00395863
0.000660385
-0.00406244
0.000645189
-0.00416284
0.000628747
-0.00426098
0.000612804
-0.00435666
0.000595781
-0.00444948
0.000577049
-0.00453668
0.000556078
-0.00462316
0.000538388
-0.00470465
0.000517126
-0.00478177
0.000495559
-0.00485859
0.000475942
-0.00492913
0.000452535
-0.00499613
0.000431251
-0.0050603
0.000408131
-0.00511939
0.000385414
-0.00517587
0.000364027
-0.00522841
0.000340399
-0.00527924
0.000319678
-0.0053245
0.000295414
-0.00536707
0.000272379
-0.00540368
0.000248233
-0.00543563
0.000222143
-0.00546589
0.000201654
-0.00549267
0.000177611
0.000154433
-0.00551507
-0.000190447
0.000143495
0.000188939
-0.000246378
0.000226875
-0.000306695
0.000262461
-0.000376847
0.000306975
-0.000451331
0.000345759
-0.000532644
0.000388489
-0.000620065
0.000430951
-0.000710824
0.000469824
-0.000811218
0.000516334
-0.000912833
0.000552007
-0.00102413
0.00059678
-0.00113553
0.000628529
-0.00125651
0.000669162
-0.00137359
0.000692101
-0.00149813
0.00072688
-0.00162624
0.000755151
-0.00175331
0.000775431
-0.00188617
0.000801243
-0.00201903
0.000818504
-0.00215114
0.000831885
-0.00228974
0.000852368
-0.00242252
0.000856491
-0.0025606
0.000871607
-0.00269788
0.000876895
-0.00283316
0.000878321
-0.00297095
0.000883261
-0.00310312
0.000876554
-0.00323692
0.000877103
-0.00337054
0.000873847
-0.0034989
0.000862566
-0.0036291
0.000858779
-0.00375603
0.000847025
-0.00387944
0.000832973
-0.00400175
0.000821871
-0.00412397
0.000810198
-0.00423797
0.000787708
-0.00435361
0.000776023
-0.00446472
0.000756313
-0.00457107
0.000735123
-0.00467795
0.000719715
-0.00477686
0.000694708
-0.00487647
0.000676672
-0.00497014
0.000649748
-0.00506052
0.000628774
-0.00514994
0.000606552
-0.00523195
0.000577575
-0.00531277
0.00055677
-0.00538659
0.00052636
-0.0054584
0.000503067
-0.00552404
0.000473785
-0.00558966
0.000451038
-0.00564829
0.000422668
-0.00570393
0.000396038
-0.00575565
0.000371405
-0.005805
0.00034477
-0.00584662
0.000314003
-0.0058867
0.000288309
-0.00592033
0.000255777
-0.00595134
0.000232665
-0.0059789
0.000205177
-0.00600086
0.000176399
-0.00302806
1.35635e-05
-0.00303982
1.1746e-05
-0.00304989
1.00719e-05
-0.00305811
8.21013e-06
-0.00306408
5.96814e-06
-0.00306745
3.3657e-06
-0.00306909
1.63705e-06
-0.00306865
-4.43773e-07
-0.00306623
-2.4216e-06
-0.0030614
-4.83828e-06
-0.00305468
-6.71726e-06
-0.00304594
-8.74543e-06
-0.00303514
-1.07943e-05
-0.00302229
-1.28523e-05
-0.00300769
-1.46056e-05
-0.00299125
-1.64431e-05
-0.00297279
-1.84611e-05
-0.00295229
-2.05015e-05
-0.00293009
-2.21997e-05
-0.00290601
-2.40743e-05
-0.00288015
-2.58631e-05
-0.00285267
-2.74841e-05
-0.00282344
-2.92263e-05
-0.00279239
-3.10575e-05
-0.0027597
-3.2693e-05
-0.00272563
-3.40715e-05
-0.00268988
-3.57536e-05
-0.00265247
-3.741e-05
-0.00261352
-3.89474e-05
-0.0025732
-4.03274e-05
-0.00253138
-4.18176e-05
-0.00248812
-4.32639e-05
-0.00244361
-4.45123e-05
-0.00239779
-4.58278e-05
-0.00235063
-4.7158e-05
-0.00230232
-4.83207e-05
-0.0022529
-4.94169e-05
-0.00220236
-5.05464e-05
-0.00215061
-5.17495e-05
-0.00209783
-5.2789e-05
-0.00204414
-5.36882e-05
-0.00198952
-5.46265e-05
-0.00193397
-5.55515e-05
-0.00187766
-5.63084e-05
-0.00182046
-5.72105e-05
-0.00176243
-5.80259e-05
-0.00170377
-5.86618e-05
-0.00164456
-5.92127e-05
-0.00158468
-5.98836e-05
-0.00152423
-6.04537e-05
-0.00146332
-6.09048e-05
-0.00140208
-6.12422e-05
-0.00134032
-6.1764e-05
-0.00127833
-6.19911e-05
-0.0012161
-6.22338e-05
-0.00115383
-6.2266e-05
-0.00109127
-6.25641e-05
-0.00102864
-6.26254e-05
-0.000966134
-6.25066e-05
-0.000903823
-6.23113e-05
-6.20774e-05
-0.000841746
-0.00329175
2.90743e-05
-0.00330266
2.26579e-05
-0.0033116
1.90077e-05
-0.00331833
1.49432e-05
-0.00332494
1.25775e-05
-0.00332737
5.79809e-06
-0.00332827
2.53996e-06
-0.0033254
-3.31485e-06
-0.00332189
-5.93442e-06
-0.00331481
-1.19201e-05
-0.0033059
-1.56222e-05
-0.0032947
-1.99465e-05
-0.00328147
-2.40284e-05
-0.00326636
-2.79554e-05
-0.0032488
-3.21657e-05
-0.0032292
-3.60418e-05
-0.00320748
-4.01859e-05
-0.00318381
-4.41728e-05
-0.00315792
-4.80951e-05
-0.00313009
-5.19005e-05
-0.0031005
-5.5455e-05
-0.00306871
-5.92768e-05
-0.003035
-6.29356e-05
-0.00299954
-6.6517e-05
-0.00296225
-6.99887e-05
-0.0029231
-7.32204e-05
-0.00288216
-7.66927e-05
-0.00283972
-7.98528e-05
-0.00279561
-8.30644e-05
-0.00274966
-8.62742e-05
-0.00270228
-8.91969e-05
-0.00265351
-9.20341e-05
-0.00260307
-9.49589e-05
-0.00255119
-9.7707e-05
-0.00249808
-0.000100268
-0.00244348
-0.000102925
-0.00238759
-0.000105312
-0.00233044
-0.000107701
-0.00227218
-0.000110011
-0.00221274
-0.000112228
-0.002152
-0.000114426
-0.00209035
-0.000116278
-0.00202774
-0.000118171
-0.00196404
-0.000120004
-0.00189952
-0.000121739
-0.0018341
-0.000123438
-0.00176793
-0.000124838
-0.00170083
-0.000126316
-0.00163315
-0.000127567
-0.00156487
-0.000128736
-0.00149601
-0.000129761
-0.0014268
-0.000130456
-0.0013566
-0.000131957
-0.00128666
-0.000131939
-0.00121577
-0.000133119
-0.0011449
-0.000133138
-0.00107321
-0.000134252
-0.00100214
-0.000133701
-0.000931007
-0.000133637
-0.000859888
-0.000133431
-0.000133632
-0.000788334
-0.00358199
4.32629e-05
-0.00359635
3.70104e-05
-0.00360626
2.89079e-05
-0.0036139
2.25851e-05
-0.00361729
1.5956e-05
-0.00362077
9.2679e-06
-0.00361992
1.68554e-06
-0.00361702
-6.22058e-06
-0.00361183
-1.11291e-05
-0.00360496
-1.87926e-05
-0.00359564
-2.49553e-05
-0.00358259
-3.30003e-05
-0.00356781
-3.88014e-05
-0.00355044
-4.53362e-05
-0.00353076
-5.18486e-05
-0.00350867
-5.8127e-05
-0.00348443
-6.44356e-05
-0.00345798
-7.06253e-05
-0.00342927
-7.68045e-05
-0.0033986
-8.25701e-05
-0.00336544
-8.86221e-05
-0.00333037
-9.43511e-05
-0.00329326
-0.000100046
-0.00325415
-0.000105628
-0.00321298
-0.000111154
-0.00316981
-0.0001164
-0.00312481
-0.000121688
-0.00307791
-0.000126752
-0.00302906
-0.000131921
-0.00297877
-0.000136567
-0.00292659
-0.000141371
-0.00287262
-0.000146007
-0.00281735
-0.000150231
-0.00276038
-0.000154679
-0.00270185
-0.000158797
-0.00264191
-0.000162868
-0.0025805
-0.000166716
-0.00251767
-0.00017053
-0.00245356
-0.000174129
-0.00238819
-0.000177589
-0.00232175
-0.000180866
-0.00225391
-0.000184124
-0.00218511
-0.000186968
-0.00211523
-0.000189886
-0.00204439
-0.000192582
-0.00197266
-0.000195168
-0.00189999
-0.000197504
-0.00182651
-0.00019979
-0.00175221
-0.000201871
-0.00167755
-0.000203399
-0.00160159
-0.000205713
-0.00152506
-0.000206996
-0.00144838
-0.000208632
-0.00137134
-0.000208983
-0.00129401
-0.000210448
-0.00121576
-0.000211387
-0.0011381
-0.000211912
-0.00105973
-0.000212063
-0.000981399
-0.000211972
-0.000902645
-0.000212184
-0.000211736
-0.000824541
-0.0039119
6.04311e-05
-0.003925
5.01153e-05
-0.00393584
3.97522e-05
-0.00394245
2.91946e-05
-0.00394689
2.03977e-05
-0.00394896
1.13399e-05
-0.00394663
-6.46822e-07
-0.00394438
-8.47118e-06
-0.00393812
-1.73961e-05
-0.00392982
-2.70877e-05
-0.00391729
-3.74901e-05
-0.00390357
-4.67234e-05
-0.00388734
-5.50333e-05
-0.0038677
-6.49775e-05
-0.00384587
-7.36768e-05
-0.00382151
-8.24927e-05
-0.00379465
-9.12971e-05
-0.00376526
-0.000100013
-0.00373365
-0.000108415
-0.00369936
-0.000116855
-0.00366314
-0.000124847
-0.0036244
-0.000133095
-0.00358357
-0.000140877
-0.00354051
-0.000148682
-0.00349543
-0.000156235
-0.00344797
-0.000163861
-0.00339849
-0.000171175
-0.00334706
-0.000178179
-0.00329383
-0.000185154
-0.00323835
-0.000192047
-0.00318118
-0.000198541
-0.00312236
-0.000204828
-0.0030615
-0.000211086
-0.00299912
-0.00021706
-0.00293514
-0.000222779
-0.00286959
-0.000228418
-0.00280229
-0.000234017
-0.0027336
-0.000239216
-0.00266348
-0.000244247
-0.0025921
-0.000248973
-0.00251922
-0.000253744
-0.00244536
-0.000257985
-0.0023701
-0.00026223
-0.00229383
-0.000266158
-0.00221643
-0.000269978
-0.00213799
-0.000273613
-0.00205857
-0.000276914
-0.00197844
-0.000279924
-0.00189712
-0.000283187
-0.00181508
-0.000285438
-0.00173299
-0.000287807
-0.00164958
-0.000290404
-0.00156581
-0.000292402
-0.00148097
-0.000293819
-0.00139662
-0.000294804
-0.00131144
-0.000296558
-0.00122617
-0.000297184
-0.00114093
-0.0002973
-0.00105518
-0.000297724
-0.000969614
-0.000297751
-0.000297592
-0.000883757
-0.00427039
7.65353e-05
-0.00428235
6.2072e-05
-0.00429408
5.14791e-05
-0.00430164
3.67596e-05
-0.00430504
2.37903e-05
-0.00430616
1.24578e-05
-0.00430738
5.69853e-07
-0.00430213
-1.37235e-05
-0.00429478
-2.47401e-05
-0.00428354
-3.83328e-05
-0.00427023
-5.08064e-05
-0.00425474
-6.22166e-05
-0.00423524
-7.45374e-05
-0.00421427
-8.59462e-05
-0.00419146
-9.64978e-05
-0.00416364
-0.000110315
-0.0041339
-0.000121039
-0.00410149
-0.000132422
-0.0040664
-0.000143509
-0.00402895
-0.0001543
-0.00398886
-0.00016494
-0.00394666
-0.000175292
-0.00390187
-0.00018567
-0.00385464
-0.000195911
-0.00380484
-0.000206037
-0.00375306
-0.000215645
-0.00369898
-0.000225254
-0.00364258
-0.000234579
-0.0035841
-0.000243638
-0.00352368
-0.000252467
-0.00346112
-0.000261104
-0.00339653
-0.000269414
-0.0033302
-0.000277421
-0.00326209
-0.000285162
-0.0031921
-0.000292773
-0.00312029
-0.000300227
-0.00304708
-0.000307228
-0.00297202
-0.000314274
-0.00289541
-0.00032086
-0.0028172
-0.000327184
-0.00273781
-0.000333126
-0.002657
-0.000338803
-0.00257503
-0.000344192
-0.0024918
-0.000349389
-0.00240742
-0.000354353
-0.00232231
-0.00035873
-0.00223497
-0.000364245
-0.00214717
-0.00036773
-0.00205913
-0.000371218
-0.00196969
-0.00037488
-0.00187977
-0.000377731
-0.00178949
-0.000380682
-0.0016981
-0.000383783
-0.00160642
-0.000385506
-0.00151309
-0.00038813
-0.00142037
-0.000389279
-0.0013276
-0.000389951
-0.00123434
-0.000390555
-0.00114067
-0.0003914
-0.00104777
-0.000390643
-0.000390776
-0.000954588
-0.0046589
9.35351e-05
-0.00467373
7.69036e-05
-0.00468244
6.01847e-05
-0.00469095
4.52717e-05
-0.00469729
3.01267e-05
-0.00469753
1.26899e-05
-0.00469371
-3.24708e-06
-0.00468963
-1.78045e-05
-0.00467961
-3.4762e-05
-0.00466941
-4.85378e-05
-0.00465518
-6.50343e-05
-0.00463696
-8.04366e-05
-0.00461664
-9.48645e-05
-0.00459239
-0.000110198
-0.00456413
-0.000124755
-0.00453398
-0.000140477
-0.00450123
-0.000153792
-0.00446599
-0.000167662
-0.00442742
-0.000182082
-0.00438609
-0.000195633
-0.00434228
-0.000208751
-0.00429556
-0.000222018
-0.00424632
-0.000234908
-0.00419458
-0.00024766
-0.00414036
-0.000260259
-0.00408342
-0.000272584
-0.00402427
-0.000284407
-0.00396262
-0.000296222
-0.00389867
-0.000307592
-0.00383265
-0.000318485
-0.00376428
-0.000329483
-0.00369375
-0.000339945
-0.00362129
-0.000349876
-0.00354699
-0.000359464
-0.00347055
-0.000369216
-0.00339242
-0.000378354
-0.00331224
-0.000387409
-0.00323031
-0.000396199
-0.00314681
-0.000404361
-0.00306177
-0.000412222
-0.00297497
-0.000419927
-0.00288692
-0.000426852
-0.00279749
-0.000433626
-0.0027065
-0.000440375
-0.00261459
-0.000446264
-0.00252152
-0.000451796
-0.00242795
-0.000457818
-0.00233267
-0.000463005
-0.00223611
-0.000467771
-0.00213905
-0.00047194
-0.00204076
-0.000476019
-0.00194143
-0.000480014
-0.00184246
-0.000482751
-0.00174189
-0.000486075
-0.00164166
-0.000488361
-0.00154078
-0.000490155
-0.00143859
-0.000492138
-0.00133676
-0.000492388
-0.00123559
-0.000492573
-0.00113377
-0.000492456
-0.000492327
-0.00103222
-0.00507987
0.000111334
-0.00509549
9.25191e-05
-0.00510705
7.17343e-05
-0.0051145
5.2714e-05
-0.00511592
3.15421e-05
-0.00511723
1.40011e-05
-0.00511442
-6.06336e-06
-0.00510753
-2.47046e-05
-0.00509856
-4.37306e-05
-0.00508382
-6.32799e-05
-0.00506706
-8.18037e-05
-0.00504809
-9.94043e-05
-0.00502325
-0.000119703
-0.00499639
-0.000137054
-0.00496756
-0.000153585
-0.00493476
-0.000173284
-0.00489792
-0.00019063
-0.00485825
-0.000207337
-0.0048154
-0.000224939
-0.00477067
-0.000240373
-0.00472224
-0.000257179
-0.0046713
-0.000272967
-0.00461745
-0.000288755
-0.00456067
-0.00030444
-0.00450109
-0.000319843
-0.00443885
-0.000334828
-0.00437388
-0.000349373
-0.00430663
-0.00036347
-0.00423701
-0.00037722
-0.0041648
-0.000390697
-0.00409012
-0.000404163
-0.00401329
-0.000416769
-0.00393407
-0.000429097
-0.00385303
-0.000440506
-0.00376997
-0.000452275
-0.00368477
-0.000463559
-0.00359754
-0.000474633
-0.00350824
-0.000485501
-0.00341712
-0.000495485
-0.00332419
-0.000505146
-0.00322972
-0.000514398
-0.00313326
-0.000523306
-0.003036
-0.000530891
-0.00293742
-0.000538955
-0.00283782
-0.00054586
-0.00273621
-0.000553402
-0.00263323
-0.000560799
-0.00252958
-0.000566652
-0.00242568
-0.000571668
-0.00231955
-0.000578071
-0.00221297
-0.000582602
-0.0021062
-0.000586779
-0.00199757
-0.000591386
-0.00188883
-0.000594809
-0.00177897
-0.00059822
-0.00166864
-0.000600484
-0.00155879
-0.00060199
-0.00144826
-0.000602917
-0.0013373
-0.000603528
-0.00122647
-0.00060328
-0.000602921
-0.00111588
-0.00553356
0.000129821
-0.00554773
0.000106688
-0.00555812
8.2119e-05
-0.00556619
6.07772e-05
-0.00557048
3.58308e-05
-0.00556898
1.25013e-05
-0.00556549
-9.56284e-06
-0.00555566
-3.45429e-05
-0.00554382
-5.55727e-05
-0.00552859
-7.85154e-05
-0.00551126
-9.91372e-05
-0.00548802
-0.000122644
-0.00546242
-0.000145308
-0.00543313
-0.000166347
-0.0053985
-0.000188216
-0.00536321
-0.000208573
-0.00532401
-0.000229824
-0.00527883
-0.000252516
-0.00523318
-0.000270597
-0.0051826
-0.000290958
-0.0051288
-0.000310984
-0.00507303
-0.000328739
-0.00501446
-0.000347326
-0.00495216
-0.000366743
-0.00488692
-0.000385086
-0.0048187
-0.000403048
-0.0047477
-0.000420373
-0.00467406
-0.000437107
-0.00459784
-0.000453435
-0.00451913
-0.000469408
-0.0044375
-0.000485792
-0.00435386
-0.00050041
-0.00426752
-0.000515431
-0.00417981
-0.000528222
-0.0040894
-0.000542682
-0.00399677
-0.000556191
-0.003902
-0.000569393
-0.00380468
-0.000582828
-0.00370512
-0.000595043
-0.00360405
-0.000606215
-0.00350133
-0.000617109
-0.00339681
-0.00062783
-0.00329007
-0.000637627
-0.00318347
-0.00064555
-0.00307467
-0.000654664
-0.00296364
-0.000664431
-0.00285333
-0.000671106
-0.00274019
-0.000679788
-0.0026268
-0.000685054
-0.00251248
-0.000692391
-0.0023961
-0.000698987
-0.00227991
-0.000702961
-0.0021624
-0.000708899
-0.00204501
-0.000712201
-0.00192518
-0.000718042
-0.00180598
-0.000719683
-0.00168514
-0.000722833
-0.001565
-0.000723051
-0.00144462
-0.00072391
-0.00132477
-0.000723132
-0.000723482
-0.0012042
-0.00602007
0.000149035
-0.00603406
0.000120682
-0.006045
9.30626e-05
-0.0060492
6.49795e-05
-0.00605215
3.87805e-05
-0.00605136
1.17134e-05
-0.00604612
-1.48053e-05
-0.00603611
-4.45557e-05
-0.00602099
-7.06943e-05
-0.00600518
-9.43255e-05
-0.00598334
-0.000120972
-0.00595792
-0.000148077
-0.00593015
-0.00017308
-0.00589557
-0.000200941
-0.00586172
-0.000222071
-0.0058206
-0.000249692
-0.00577512
-0.0002753
-0.00572826
-0.000299371
-0.00567482
-0.000324035
-0.0056204
-0.000345382
-0.00556335
-0.000368035
-0.00550061
-0.000391478
-0.00543785
-0.000410093
-0.0053693
-0.000435292
-0.00529715
-0.000457246
-0.00522338
-0.000476815
-0.00514481
-0.000498944
-0.00506523
-0.000516687
-0.00498012
-0.000538543
-0.00489638
-0.000553149
-0.00480523
-0.000576943
-0.00471565
-0.000589989
-0.0046199
-0.000611184
-0.00452637
-0.000621748
-0.00442849
-0.000640566
-0.00432753
-0.000657148
-0.00422585
-0.000671073
-0.00411914
-0.00068954
-0.0040104
-0.000703781
-0.00390215
-0.000714469
-0.00378846
-0.00073079
-0.00367338
-0.000742913
-0.00355954
-0.000751466
-0.00344085
-0.000764236
-0.0033262
-0.000769315
-0.00320372
-0.000786908
-0.00308499
-0.00078984
-0.00296025
-0.000804521
-0.00283965
-0.000805659
-0.00271574
-0.000816295
-0.00258897
-0.000825764
-0.00246527
-0.000826659
-0.00233625
-0.000837916
-0.00221055
-0.000837908
-0.0020779
-0.00085069
-0.00195025
-0.000847327
-0.00181623
-0.00085686
-0.00168988
-0.000849395
-0.00155646
-0.000857338
-0.00142882
-0.000850772
-0.00129463
-0.000857672
-0.000779468
-6.22782e-05
-0.000717541
-6.1927e-05
-0.000655983
-6.15576e-05
-0.000594832
-6.11515e-05
-0.000534146
-6.06852e-05
-0.000473965
-6.01804e-05
-0.000414548
-5.94166e-05
-0.000355942
-5.86054e-05
-0.000298354
-5.75877e-05
-0.000241918
-5.6436e-05
-0.000186549
-5.53684e-05
-0.000130468
-5.60802e-05
-7.26623e-05
-5.78058e-05
-1.36695e-05
-5.89929e-05
4.43169e-05
-5.79865e-05
9.97276e-05
-5.54108e-05
0.000152862
-5.31352e-05
0.000204236
-5.13739e-05
0.000254037
-4.9801e-05
0.000302277
-4.8241e-05
0.000348975
-4.66976e-05
0.000394069
-4.50948e-05
0.000437498
-4.34288e-05
0.000479133
-4.16357e-05
0.000518912
-3.97793e-05
0.000556771
-3.78597e-05
0.000592593
-3.58218e-05
0.000626244
-3.3652e-05
0.000657611
-3.13674e-05
0.000686603
-2.89916e-05
0.000713021
-2.6418e-05
0.000736707
-2.36862e-05
0.000757538
-2.08318e-05
0.000775271
-1.77327e-05
0.000789687
-1.44165e-05
0.000800594
-1.0907e-05
0.000807738
-7.14327e-06
0.000810798
-3.06035e-06
0.00081044
3.58611e-07
0.00080652
3.92082e-06
0.000799172
7.34836e-06
0.000787699
1.14731e-05
0.000771588
1.61115e-05
0.000750408
2.11809e-05
0.000723516
2.68924e-05
0.000690277
3.32391e-05
0.000650062
4.02163e-05
0.000602119
4.79434e-05
0.00054558
5.65397e-05
0.000479666
6.59143e-05
0.000403641
7.60249e-05
0.00031693
8.67109e-05
0.000218913
9.8017e-05
0.000108628
0.000110287
-1.97636e-05
0.000128391
-0.00016016
0.000140394
-0.000289416
0.000129255
-0.000396048
0.00010663
-0.000476583
8.05335e-05
-0.000536926
6.03434e-05
5.08554e-05
-0.000587782
-0.000717399
-0.000133213
-0.000646155
-0.000133171
-0.000575127
-0.000132586
-0.000504352
-0.000131926
-0.00043419
-0.000130847
-0.000364146
-0.000130225
-0.000294636
-0.000128926
-0.000225517
-0.000127725
-0.000157116
-0.000125988
-8.92627e-05
-0.000124289
-2.1109e-05
-0.000123522
4.7454e-05
-0.000124643
0.000115024
-0.000125376
0.00018131
-0.000125278
0.000246848
-0.000123525
0.000311758
-0.000120321
0.000375602
-0.00011698
0.000438144
-0.000113916
0.000499292
-0.00011095
0.000559064
-0.000108014
0.000617464
-0.000105098
0.000674354
-0.000101985
0.000729705
-9.87808e-05
0.000783509
-9.54412e-05
0.000835666
-9.19374e-05
0.000886115
-8.83101e-05
0.000934725
-8.44332e-05
0.000981515
-8.04434e-05
0.00102634
-7.61911e-05
0.00106902
-7.16729e-05
0.00110957
-6.69772e-05