/*--------------------------------*- C++ -*----------------------------------*\
| =========                 |                                                 |
| \\      /  F ield         | OpenFOAM: The Open Source CFD Toolbox           |
|  \\    /   O peration     | Version:  2.3.1                                 |
|   \\  /    A nd           | Web:      www.OpenFOAM.org                      |
|    \\/     M anipulation  |                                                 |
\*---------------------------------------------------------------------------*/
FoamFile
{
    version     2.0;
    format      ascii;
    class       volScalarField;
    location    "0.9";
    object      epsilon;
}
// * * * * * * * * * * * * * * * * * * * * * * * * * * * * * * * * * * * * * //

dimensions      [0 2 -3 0 0 0 0];

internalField   nonuniform List<scalar> 
9648
(
2388.36
2392.44
2391.16
2386.22
2377.07
2362.98
2343.54
2318.96
2289.14
2254.2
2214.33
2169.68
2121.11
2069.57
2015.89
1960.97
1905.92
1851.72
1799.05
1748.43
1700.37
1655.19
1613.04
1574.08
1538.34
1505.73
1476.15
1449.5
1425.69
1404.55
1385.96
1369.78
1355.88
1344.11
1334.4
1326.6
1320.6
1316.32
1313.73
1312.74
1313.25
1315.24
1318.67
1323.48
1329.71
1337.39
1346.49
1356.96
1368.91
1382.46
1397.62
1414.34
1432.86
1453.17
1475.24
1498.93
1524.06
1550.29
1576.89
1603.23
1628.87
586.397
578.646
569.908
560.236
551.663
546.245
544.588
545.417
548.043
552.706
559.128
566.621
574.747
583.117
591.385
599.177
606.312
612.756
618.502
623.486
627.815
631.555
634.76
637.552
640.065
642.361
644.499
646.559
648.626
650.754
652.967
655.327
657.876
660.613
663.575
666.791
670.252
673.96
677.931
682.194
686.742
691.56
696.658
702.049
707.713
713.683
719.954
726.494
733.288
740.337
747.589
755.021
762.58
770.305
778.054
785.808
793.413
800.98
808.362
815.478
822.28
232.328
234.236
237.485
243.111
251.123
261.068
273.133
286.877
302.156
318.594
335.958
353.781
371.708
389.39
406.524
422.866
438.24
452.552
465.742
477.792
488.728
498.586
507.443
515.386
522.51
528.905
534.654
539.851
544.569
548.885
552.864
556.566
560.042
563.336
566.49
569.532
572.495
575.395
578.253
581.087
583.913
586.748
589.592
592.455
595.34
598.241
601.157
604.067
606.969
609.84
612.673
615.468
618.183
620.874
623.422
625.931
628.299
630.666
632.866
634.942
636.885
131.44
140.112
150.189
161.955
175.455
190.614
207.394
225.577
244.909
265.025
285.587
306.201
326.53
346.255
365.121
382.911
399.485
414.76
428.693
441.289
452.572
462.59
471.423
479.16
485.908
491.767
496.837
501.214
504.98
508.223
511.017
513.43
515.53
517.363
518.977
520.413
521.707
522.883
523.966
524.978
525.939
526.868
527.778
528.678
529.573
530.466
531.356
532.24
533.118
533.983
534.816
535.644
536.439
537.214
537.917
538.611
539.29
539.946
540.558
541.132
541.708
97.502
109.368
122.737
137.682
154.216
172.293
191.78
212.44
233.967
255.97
278.073
299.885
321.081
341.37
360.529
378.358
394.753
409.655
423.048
434.965
445.445
454.543
462.355
468.975
474.529
479.134
482.897
485.925
488.299
490.114
491.453
492.388
492.995
493.328
493.428
493.344
493.117
492.77
492.332
491.825
491.265
490.679
490.083
489.492
488.908
488.337
487.786
487.25
486.726
486.217
485.707
485.199
484.7
484.203
483.701
483.197
482.718
482.239
481.745
481.246
480.751
84.5588
98.5739
114.251
131.554
150.395
170.675
192.185
214.637
237.672
260.863
283.823
306.145
327.541
347.733
366.564
383.824
399.436
413.396
425.693
436.417
445.623
453.354
459.747
464.878
468.915
471.99
474.213
475.713
476.551
476.835
476.661
476.088
475.214
474.095
472.756
471.261
469.661
467.961
466.201
464.399
462.565
460.733
458.922
457.151
455.413
453.717
452.068
450.477
448.932
447.42
445.942
444.484
443.052
441.642
440.247
438.896
437.583
436.284
434.983
433.69
432.392
80.2656
96.0991
113.751
133.076
153.853
175.936
199.032
222.809
246.896
270.774
294.112
316.44
337.556
357.179
375.296
391.59
406.04
418.721
429.589
438.832
446.524
452.65
457.446
460.91
463.29
464.737
465.343
465.291
464.581
463.342
461.701
459.671
457.401
454.933
452.256
449.465
446.64
443.733
440.818
437.901
434.97
432.086
429.262
426.523
423.836
421.223
418.69
416.236
413.864
411.555
409.296
407.076
404.912
402.756
400.635
398.571
396.562
394.609
392.656
390.684
388.739
80.0551
97.5373
116.979
138.107
160.533
184.062
208.385
233.135
257.914
282.093
305.445
327.343
347.79
366.43
383.579
398.638
411.665
422.884
432.066
439.619
445.664
450.001
453.152
454.812
455.447
455.215
454.16
452.588
450.328
447.588
444.555
441.118
437.536
433.807
429.872
425.878
421.918
417.85
413.868
409.929
405.981
402.113
398.388
394.782
391.237
387.828
384.496
381.294
378.184
375.173
372.231
369.349
366.525
363.694
360.92
358.246
355.603
353.082
350.527
347.935
345.44
81.762
100.559
121.589
144.113
168.023
192.618
217.743
243.332
268.359
292.696
315.707
337.073
356.474
373.84
389.799
403.518
415.041
424.648
432.346
438.216
442.377
444.877
446.135
446.165
445.109
443.056
440.448
437.407
433.51
429.326
424.838
420.152
415.529
410.555
405.259
400.246
395.069
389.831
384.884
379.809
374.752
369.665
365.21
360.768
356.319
352.312
348.068
344.23
340.229
336.507
332.686
329.195
325.796
322.248
318.811
315.686
312.311
309.501
306.31
302.997
300.06
1653.88
1678.09
1701.18
1723.13
1744.11
1764.56
1784.58
1804.48
1824.25
1843.04
1860.52
1877.25
1893.5
1909.65
1925.93
1943.04
1961.54
1981.95
2004.59
2029.84
2057.35
2086.6
2117.22
2148.84
2181.15
2214.09
2247.85
2282.06
2316.71
2351.82
2387.57
2423.83
2460.62
2498.09
2536.24
2574.99
2614.44
2654.72
2695.9
2737.83
2780.52
2824.24
2868.96
2914.5
2961.21
3008.94
3057.56
3107.12
3157.84
3209.75
3262.77
3316.78
3372.34
3429.04
3487.24
3546.74
3608.27
3671.81
3737.37
3804.84
3874.36
828.736
835.267
841.624
847.723
853.588
859.346
865.147
870.832
876.627
882.17
887.674
893.074
898.486
903.932
909.405
914.95
920.581
926.34
932.213
938.169
944.167
950.148
956.095
961.988
967.816
973.558
979.143
984.542
989.751
994.795
999.688
1004.41
1008.97
1013.4
1017.68
1021.83
1025.86
1029.77
1033.56
1037.23
1040.79
1044.26
1047.62
1050.87
1054.04
1057.09
1060.03
1062.84
1065.55
1068.16
1070.65
1073.03
1075.29
1077.59
1079.69
1081.87
1084
1086.33
1088.53
1090.77
1093.13
638.795
640.62
642.496
644.34
646.155
647.87
649.667
651.37
653.064
654.612
656.111
657.558
659.025
660.463
661.875
663.249
664.578
665.861
667.084
668.237
669.303
670.285
671.17
671.956
672.636
673.208
673.664
674.004
674.216
674.309
674.27
674.105
673.817
673.402
672.874
672.229
671.471
670.596
669.605
668.496
667.275
665.945
664.514
662.966
661.312
659.541
657.64
655.602
653.433
651.136
648.682
646.122
643.414
640.592
637.57
634.46
631.255
627.969
624.588
621.147
617.71
542.258
542.81
543.333
543.844
544.325
544.777
545.198
545.602
545.949
546.198
546.387
546.537
546.628
546.638
546.597
546.491
546.322
546.081
545.762
545.356
544.864
544.286
543.624
542.875
542.031
541.087
540.043
538.899
537.652
536.304
534.854
533.294
531.625
529.854
527.989
526.028
523.971
521.818
519.563
517.208
514.76
512.232
509.625
506.947
504.199
501.377
498.462
495.451
492.338
489.142
485.834
482.422
478.921
475.315
471.575
467.712
463.771
459.737
455.64
451.516
447.392
480.262
479.752
479.221
478.664
478.083
477.446
476.756
476.067
475.376
474.638
473.871
473.064
472.2
471.284
470.31
469.273
468.206
467.069
465.863
464.583
463.232
461.819
460.347
458.819
457.227
455.565
453.829
452.018
450.139
448.19
446.166
444.057
441.863
439.587
437.242
434.827
432.34
429.773
427.12
424.383
421.576
418.704
415.785
412.831
409.851
406.844
403.775
400.669
397.49
394.26
390.957
387.571
384.123
380.597
376.972
373.24
369.422
365.511
361.571
357.61
353.645
431.111
429.826
428.539
427.212
425.867
424.493
423.083
421.659
420.199
418.72
417.207
415.676
414.111
412.499
410.847
409.163
407.456
405.689
403.856
401.961
400.009
398.014
395.988
393.94
391.852
389.715
387.529
385.293
383.023
380.721
378.382
375.981
373.519
370.991
368.421
365.808
363.135
360.404
357.594
354.709
351.76
348.755
345.72
342.682
339.658
336.661
333.632
330.609
327.552
324.503
321.41
318.251
315.064
311.806
308.494
305.053
301.542
297.952
294.368
290.738
287.127
386.817
384.913
383.008
381.097
379.156
377.177
375.173
373.172
371.14
369.064
366.98
364.895
362.781
360.646
358.468
356.279
354.095
351.863
349.566
347.196
344.771
342.326
339.868
337.427
334.975
332.483
329.959
327.394
324.836
322.29
319.777
317.223
314.651
312.025
309.398
306.747
304.031
301.276
298.453
295.558
292.595
289.559
286.497
283.444
280.426
277.507
274.564
271.699
268.821
266.045
263.27
260.411
257.558
254.644
251.718
248.611
245.486
242.25
239.101
235.88
232.706
342.952
340.529
338.104
335.729
333.336
330.965
328.526
326.164
323.777
321.282
318.797
316.359
313.881
311.382
308.805
306.258
303.791
301.287
298.718
296.006
293.214
290.441
287.65
284.9
282.21
279.482
276.72
273.863
271.027
268.267
265.674
263.061
260.521
257.948
255.45
252.966
250.344
247.651
244.941
242.216
239.38
236.412
233.413
230.405
227.412
224.635
221.772
219.088
216.391
213.969
211.612
209.102
206.641
204.114
201.64
198.874
196.169
193.292
190.651
187.89
185.226
296.898
293.977
290.904
288.172
285.288
282.834
280.054
277.694
275.312
272.71
270.1
267.749
265.162
262.606
259.761
256.882
254.348
251.916
249.493
246.817
243.718
240.834
237.873
234.868
232.039
229.259
226.578
223.567
220.335
217.293
214.639
211.972
209.527
207.135
205.09
203.114
200.813
198.216
195.701
193.378
190.983
188.209
185.349
182.53
179.61
177.073
174.196
171.694
169.069
167.129
165.3
163.141
161.167
159.105
157.198
154.728
152.48
149.895
147.818
145.555
143.514
3947
4022.26
4099.51
4178.8
4260.54
4345.67
4433.61
4524.31
4617.49
4713.35
4812.35
4913.36
5016.72
5126.53
5264.54
5389.43
5514.15
5641.45
5771.25
5903.49
6038.5
6176.34
6316.57
6459.42
6604.67
6751.61
6899.94
7049.42
7199.85
7350.36
7500.87
7650.76
7799.17
7945.5
8089.23
8228.97
8363.57
8491.76
8605.56
8689.38
8746.45
8778.38
8784.97
8764.43
8715.15
8634.65
8518.86
8363.1
8163
7913.89
7609.43
7242.7
6808.37
6298.52
5690.34
4732.23
4308.85
4096.46
4012.59
3973.07
3892.26
1095.74
1098.44
1101.34
1104.3
1107.36
1110.65
1114.48
1118.71
1123.41
1128.4
1133.88
1137.15
1138.52
1141.48
1145.03
1150.05
1155.17
1160.23
1165.43
1170.88
1176.6
1182.62
1188.9
1195.45
1202.26
1209.29
1216.58
1224.16
1232.06
1240.35
1249.05
1258.23
1268.02
1278.52
1289.85
1302.23
1315.84
1331.06
1349
1378.15
1413.41
1451.74
1493.22
1538
1586.77
1639.87
1697.38
1759.58
1826.75
1898.45
1973.8
2051.2
2129
2206.26
2275.63
2340.79
2398.93
2484.95
2589.07
2698.18
2657.94
614.248
610.788
607.292
603.776
600.204
596.656
593.217
589.93
586.705
583.442
579.689
574.031
568.129
563.029
558.437
554.473
550.587
546.595
542.543
538.483
534.455
530.456
526.48
522.526
518.59
514.667
510.768
506.895
503.067
499.282
495.561
491.925
488.385
484.986
481.756
478.745
475.997
473.586
471.641
470.677
470.879
475.254
483.441
494.922
510.155
529.792
554.554
585.469
623.542
669.862
725.451
791.102
867.998
956.49
1056.44
1164.59
1271.63
1388.47
1531.65
1717.47
1907.04
443.268
439.154
435.037
430.904
426.724
422.542
418.408
414.37
410.304
406.136
401.148
395.156
389.373
384.117
379.252
374.74
370.331
365.934
361.531
357.151
352.795
348.446
344.111
339.795
335.493
331.214
326.96
322.731
318.529
314.357
310.217
306.114
302.062
298.069
294.149
290.32
286.602
283.014
279.581
276.368
273.456
271.147
270.119
270.813
273.093
277.302
283.897
293.531
307.043
325.458
350.187
382.562
424.255
476.409
539.716
612.223
689.653
773.364
871.618
998.191
1157.04
349.697
345.81
341.94
338.048
334.087
330.126
326.179
322.311
318.409
314.389
309.58
304.285
299.277
294.664
290.302
286.176
282.148
278.207
274.318
270.491
266.702
262.902
259.122
255.369
251.63
247.92
244.237
240.583
236.948
233.336
229.746
226.186
222.661
219.181
215.755
212.396
209.113
205.919
202.823
199.843
197.005
194.373
192.079
190.473
189.678
189.708
190.786
193.213
197.42
203.945
213.58
227.332
246.4
272.055
305.334
346.385
393.792
447.03
508.31
583.165
677.984
283.512
280.016
276.547
273.076
269.465
265.859
262.241
258.738
255.203
251.599
247.292
242.797
238.573
234.691
230.948
227.369
223.849
220.475
217.186
213.994
210.851
207.667
204.519
201.414
198.319
195.263
192.224
189.217
186.213
183.225
180.246
177.294
174.371
171.491
168.659
165.886
163.179
160.547
157.994
155.531
153.17
150.935
148.866
147.05
145.731
144.811
144.411
144.652
145.741
147.952
151.656
157.374
165.78
177.643
193.845
214.961
241.121
272.386
309.358
353.673
408.434
229.446
226.379
223.352
220.373
217.137
213.931
210.661
207.591
204.5
201.434
197.689
193.954
190.437
187.282
184.146
181.151
178.141
175.351
172.649
170.065
167.532
164.9
162.349
159.885
157.41
154.985
152.552
150.159
147.737
145.328
142.906
140.525
138.167
135.865
133.601
131.4
129.253
127.18
125.174
123.252
121.416
119.688
118.078
116.618
115.372
114.49
113.883
113.616
113.792
114.545
116.062
118.596
122.466
128.103
135.981
146.593
160.358
177.599
198.78
224.68
256.577
182.306
179.666
177.107
174.697
171.854
169.083
166.153
163.575
160.977
158.531
155.325
152.269
149.359
146.901
144.309
141.903
139.36
137.146
134.991
132.94
130.953
128.771
126.753
124.932
123.032
121.175
119.256
117.423
115.491
113.579
111.618
109.75
107.896
106.134
104.384
102.709
101.06
99.4906
97.9803
96.5667
95.2262
93.996
92.877
91.8643
90.9892
90.3513
89.9188
89.6796
89.7
90.0523
90.8364
92.1741
94.2352
97.2162
101.366
106.97
114.325
123.765
135.66
150.509
168.973
140.899
138.621
136.551
134.797
132.343
130.033
127.392
125.398
123.332
121.542
118.819
116.349
113.897
112.115
109.953
108.15
105.977
104.351
102.678
101.012
99.485
97.6044
96.0675
94.9862
93.5636
92.1188
90.5634
89.2498
87.6484
86.1187
84.455
83.08
81.6466
80.3939
79.0562
77.8364
76.5314
75.3662
74.2696
73.3045
72.4106
71.62
70.9483
70.3604
69.81
69.3701
69.1098
68.965
69.0447
69.2753
69.8949
70.8205
72.2558
74.1662
76.7641
80.0821
84.4127
89.8492
96.7849
105.481
116.292
3747.88
3589.32
3419.28
3240.56
3062.27
2889.78
2726.45
2576.62
2443.98
2330.55
2236.73
2161.47
2103.16
2059.62
2028.17
2006.29
1991.83
1983.22
1979.04
1978.09
1979.69
1983.28
1988.44
1995.04
2003.05
2012.25
2022.6
2034.04
2046.66
2060.33
2075.01
2090.63
2107.08
2124.13
2141.66
2159.4
2177.03
2194.28
2210.96
2226.77
2241.3
2254.36
2265.82
2275.51
2283.54
2290.19
2295.58
2299.92
2303.72
2307.67
2312.04
2316.97
2322.91
2329.99
2337.92
2346.42
2355.26
2364.47
2373.12
2380.3
2385.41
2466.76
2262.82
2063.29
1871.95
1704.3
1549.52
1406.58
1276.27
1158.8
1055
964.995
888.262
823.884
770.247
726.994
693.295
667.477
647.627
632.217
620.151
610.675
603.197
597.348
592.879
589.692
587.446
586.344
586.133
586.876
588.535
591.122
594.614
598.999
604.237
610.268
617.021
624.38
632.215
640.346
648.569
656.609
664.131
670.746
676.034
679.617
681.147
680.343
677.125
671.658
664.346
655.751
646.579
637.609
629.487
622.426
616.668
611.916
607.907
603.829
599.133
593.256
1994.98
1983.3
1883
1709.4
1530.09
1356.23
1187.11
1033.8
896.808
775.516
670.862
582.347
508.797
448.914
401.658
365.329
337.478
315.43
297.97
284.264
273.493
264.976
258.187
252.746
248.339
244.862
242.01
239.838
238.226
237.15
236.581
236.514
236.931
237.796
239.081
240.745
242.743
245.029
247.546
250.21
252.923
255.578
258.044
260.152
261.746
262.632
262.632
261.592
259.44
256.17
251.915
247.003
241.865
237.017
232.847
229.797
227.996
227.431
227.846
228.976
230.569
1322.73
1470.3
1568.47
1586.76
1518.94
1394.6
1226.87
1056.86
899.797
754.925
628.711
522.97
435.704
365.71
310.763
268.06
234.889
208.713
188.133
172.132
159.766
150.252
142.937
137.27
132.822
129.291
126.45
124.178
122.374
120.967
119.92
119.206
118.797
118.657
118.747
119.031
119.471
120.029
120.661
121.32
121.95
122.5
122.908
123.115
123.065
122.705
121.992
120.9
119.428
117.59
115.438
113.107
110.805
108.805
107.41
106.986
107.812
109.982
113.439
118.084
123.995
793.998
928.916
1071.98
1199.77
1282.31
1301.98
1253.51
1149.13
1013.33
859.168
712.03
585.51
476.628
387.617
316.999
261.107
217.285
183.001
156.233
135.554
119.746
107.833
98.9315
92.2571
87.189
83.2792
80.2274
77.8325
75.9535
74.4806
73.3508
72.5276
71.9726
71.6411
71.4915
71.4853
71.5859
71.7561
71.9593
72.1547
72.2991
72.3513
72.2718
72.0231
71.5729
70.8977
69.9904
68.857
67.5094
65.9849
64.3463
62.7006
61.2224
60.1374
59.7403
60.3171
62.244
65.7948
71.0909
78.2473
87.0666
476.683
561.548
664.061
780.387
898.47
1000.69
1066.88
1081.48
1042.03
956.145
840.514
714.312
586.706
474.918
383.435
307.838
247.918
200.534
162.837
133.704
111.696
95.4471
83.6143
74.9739
68.5763
63.7583
60.0938
57.2925
55.1484
53.496
52.2394
51.3242
50.698
50.3051
50.0966
50.031
50.0686
50.1742
50.3123
50.4456
50.5351
50.5474
50.4475
50.2065
49.7954
49.1983
48.4112
47.4451
46.3102
45.0381
43.6811
42.331
41.1315
40.2872
40.0903
40.9031
43.1834
47.3
53.5091
61.8793
72.2707
296.19
345.751
407.592
483.221
571.751
668.582
763.863
843.53
893.199
902.218
868.172
798.142
704.008
599.709
497.157
400.08
319.822
254.282
199.593
156.81
124.351
100.698
83.8537
71.8048
63.06
56.59
51.7657
48.159
45.4647
43.4227
41.887
40.7713
40.0046
39.5114
39.2312
39.1137
39.115
39.1979
39.3262
39.4639
39.5733
39.6268
39.5901
39.4391
39.1418
38.6897
38.0758
37.3139
36.4055
35.3825
34.2848
33.1925
32.2293
31.5724
31.4966
32.4036
34.7515
39.0435
45.694
54.8624
66.4551
192.013
220.843
257.022
302.168
357.607
423.586
498.417
577.185
652.026
712.245
747.315
750.763
722.541
666.908
592.558
507.72
422.429
341.97
265.981
204.729
156.239
121.001
96.3657
78.9502
66.3969
57.172
50.3662
45.3845
41.7563
39.0436
37.0231
35.5525
34.534
33.8588
33.4477
33.2355
33.1692
33.2067
33.3095
33.4404
33.5607
33.6494
33.671
33.605
33.4134
33.0949
32.6365
32.057
31.349
30.5448
29.6762
28.817
28.0749
27.6073
27.6718
28.6615
31.0565
35.4529
42.4159
52.239
64.8787
129.891
146.793
167.948
194.62
227.865
268.716
317.566
373.932
435.381
497.921
553.744
596.793
620.635
622.411
600.41
556.755
497.348
426.334
352.782
277.791
207.997
157.35
122.064
96.9033
78.3519
64.6919
54.6349
47.4161
42.2704
38.4552
35.6508
33.5977
32.167
31.1946
30.5687
30.1971
30.0125
29.9627
30.0059
30.0966
30.2
30.299
30.3569
30.3526
30.2454
30.0348
29.7091
29.2827
28.7473
28.1287
27.4616
26.8123
26.2856
26.0205
26.2561
27.3712
29.8628
34.3797
41.5921
51.9434
65.3949
1.53003
211.749
189.267
2.36834
2.21716
0.202706
0.000719931
89.6591
0.000796362
0.01465
94.4822
6.95234
0.000720835
246.024
0.165943
136.028
0.000757394
91.2583
118.961
0.000716229
2.37421
235.096
201.097
0.000767009
0.000781098
0.210503
0.000717341
7.80166
0.000753164
0.000819772
6.59653
0.000743002
0.00875702
64.1004
3.94071
112.771
72.3419
15.8679
0.000723262
44.5891
64.8927
28.3126
0.000743321
103.544
172.72
0.712893
0.000869156
0.00865258
1.32064
7.15612
364.555
354.564
0.000698518
0.00102943
0.0638875
0.035805
0.000816877
8.94339
59.1831
282.3
138.173
0.000905854
1.55925
0.0249529
200.052
2.38489
38.8698
62.5793
0.00113195
0.000747678
9.73534
41.4888
55.581
0.0376673
0.0512294
79.8024
228.2
56.3808
0.000700228
5.41439
0.00234133
47.4328
0.0127705
111.818
0.000749937
8.65039
0.000791062
36.8685
0.0111961
0.00136733
0.230885
0.000698542
0.000933799
305.96
142.992
0.000867261
1.57237
1.89428
0.0018463
206.48
1.01832
31.6301
5.96784
0.000696952
0.000725952
0.000694305
1.42258
0.209296
0.000748033
173.701
221.844
0.00480845
235.129
26.7081
112.295
53.9914
28.3791
0.000977484
0.110346
0.00110553
0.00162358
189.042
0.00308138
286.659
411.515
28.1393
0.00074603
7.1793
7.00419
0.000743939
0.0298688
0.0268217
90.7759
0.00187035
63.3798
0.000748855
0.000723802
393.685
348.657
0.000748821
0.775252
149.13
0.230302
0.901388
26.7762
120.085
0.306175
27.7678
0.00525404
275.58
11.0556
0.0383731
49.8139
109.405
188.227
0.00076603
0.000757194
0.511683
0.000695874
41.5756
0.115194
0.00144826
0.000740432
0.000747495
0.000758571
41.0113
69.0099
34.0983
0.000768721
285.061
299.63
406.081
166.255
0.00690583
159.758
43.9688
28.337
0.000750052
0.00169595
192.43
68.3997
29.1246
72.1936
0.000745362
0.000842009
239.589
0.0295257
2.46881
0.000757825
0.000867221
0.17265
0.000797825
330.131
4.0456
0.000691487
0.678373
89.5248
141.762
0.00119744
53.0483
0.000746631
0.000750206
109.355
33.3741
300.498
0.00121443
0.000800625
0.00286721
42.2962
77.3949
9.94932
122.312
14.2882
231.238
0.802498
87.6234
82.8956
26.8342
10.6599
39.2725
0.00144215
0.0292954
0.000747674
0.000726468
28.4729
0.0100084
0.0117338
0.00197883
0.00626875
47.8154
197.291
0.0111059
170.028
7.52576
2.91798
0.000732462
0.531019
39.1528
7.30888
0.0010631
13.2491
35.1405
0.846041
2.46005
270.308
7.55783
4.93116
123.455
0.000955046
0.00072412
0.00102666
0.00427829
28.9047
0.000784567
0.00249331
0.000723656
1.75958
76.8971
76.5747
49.322
12.0418
11.4031
323.705
0.0011398
48.3729
99.034
0.000743915
83.6932
0.000749608
331.995
1.75927
52.6899
0.00154715
0.000748501
20.3296
7.62952
0.000759626
0.000750557
0.000755353
0.000751493
1.17648
35.5138
45.4696
0.0109725
0.000760435
0.00072442
0.000696048
105.921
1.18023
0.00119034
19.2916
0.116143
0.09785
0.000692321
0.782944
0.000760156
0.110987
47.1309
270.114
3.20032
0.000978126
0.00184872
57.1316
0.353562
129.289
321.219
0.000838063
0.00073992
0.000733982
157.37
0.000773565
136.722
0.000749848
24.3681
12.3722
0.0241519
140.679
241.331
0.00127181
50.1923
50.6364
89.0175
91.3558
9.67274
346.261
38.6781
72.3281
142.295
95.8488
55.7874
0.338259
335.847
279.06
62.9671
33.5573
0.00100261
269.08
126.243
229.906
0.0187785
0.000867328
0.000745774
0.00081159
0.684582
1.55244
6.55099
0.124554
0.000726318
170.128
0.000746386
26.7326
23.982
191.924
43.071
19.0428
0.00192919
0.00110639
0.47757
85.4923
0.00437215
7.96247
258.799
36.0939
85.2595
193.564
61.3026
0.000821338
281.906
141.985
96.6844
0.000750474
192.492
151.837
0.000781425
30.5318
0.000751606
390.626
173.353
28.1622
82.7399
114.512
149.1
0.000764706
148.337
0.000964758
68.7624
82.4332
28.3627
278.229
3.62356
0.490438
2.55786
0.00110026
441.801
1.50522
0.00290177
0.00182501
253.58
0.000953186
93.9751
0.000737601
0.000750005
0.00183603
31.8496
0.19289
22.1674
0.00197859
84.7213
0.307068
217.713
279.639
38.9989
335.687
0.000793912
278.262
42.8544
0.000742258
79.7923
26.1583
0.000696659
0.000727442
116.525
0.00206021
27.2681
0.473819
76.0607
0.017655
3.49053
40.2209
122.024
33.4694
84.5101
69.8259
0.00100234
0.0346439
28.8982
21.4499
329.709
337.627
141.057
0.0844903
123.649
122.546
3.40549
90.9052
46.3103
26.4646
0.000822747
85.5532
380.919
0.00107576
90.7838
19.1586
46.9254
0.0153104
0.089199
267.899
0.00193153
325.728
0.00124667
1.80203
0.000738027
7.81221
167.288
0.55408
0.00132121
0.000902832
75.464
26.9386
0.366527
5.5847
292.668
545.67
0.00139434
11.6664
27.3951
72.1129
26.2781
450.843
28.8844
155.732
52.6195
3.47414
7.16902
301.094
53.9817
352.344
171.58
0.238811
174.012
60.0981
0.000792034
91.3057
29.0744
13.0949
0.00975521
97.6181
44.5554
4.18241
52.9408
0.0015915
0.000747177
0.154075
28.3019
107.681
73.4954
0.000750212
0.0007313
0.00074386
28.4383
0.0278274
0.000745733
0.246393
96.2983
270.853
0.00440561
0.0045332
0.000721519
0.000738739
0.00194069
29.823
100.895
21.025
1.8776
295.484
377.918
0.00150966
63.0034
27.9949
28.5472
76.9454
433.731
0.000821803
0.00446784
0.00075089
397.704
0.78072
0.000726902
10.4705
0.352067
300.827
0.000759334
321.885
8.79041
0.0663137
201.008
0.000748078
0.000736432
0.00102744
401.153
53.8006
130.236
314.172
10.9784
28.7147
0.000708819
0.00184602
0.479568
0.015275
0.0163258
178.409
41.106
0.000747845
25.2375
45.3855
183.672
403.517
0.00294572
406.987
0.00182768
0.0217695
148.84
0.000739245
147.185
0.000759584
0.000791536
0.0212886
34.3847
2.90848
324.723
61.4968
0.000886274
28.6406
503.596
0.209189
2.29526
7.36046
0.000774727
0.000759608
0.00230636
136.856
5.42623
0.000783598
268.639
277.65
215.206
0.110271
60.2205
0.00109012
30.5064
0.541948
0.130951
123.556
29.8436
150.197
173.698
0.000761064
0.000711612
0.0049538
73.091
102.782
5.88731
0.00658517
0.000772709
0.00074991
0.00344493
0.128775
0.00211413
73.0982
21.5072
0.00497746
26.4341
171.806
0.000760518
38.2778
0.000742601
3.29535
0.000762491
0.0132091
38.2248
0.0116334
0.000744595
4.03199
360.598
261.078
0.000731069
0.00074849
1.55407
0.138981
0.00074774
99.3633
0.000905296
32.0719
374.086
29.995
86.7789
296.927
132.562
334.63
0.000747584
0.00249948
0.0112205
293.492
59.8986
199.119
5.43401
4.42392
100.483
167.506
126.192
4.9041
46.45
0.000750542
1.53597
40.0554
33.426
312.498
26.4295
1.16103
41.5066
0.204251
0.00984398
40.2436
0.000750991
176.504
0.000887392
2.69362
291.719
184.677
3.04934
0.00250895
7.1669
0.000768721
0.000736236
0.198765
0.0134905
51.3015
0.00877033
28.8729
0.000750521
0.0190272
0.000725472
96.2992
0.00181828
86.4987
302.664
0.0142995
168.079
369.844
0.000756985
98.5936
222.683
0.000785672
286.186
0.279841
0.00082529
0.000791608
279.6
0.000731617
0.00111886
0.12204
0.215478
426.261
269.012
0.000751497
0.00075461
9.11872
28.2211
0.00709683
2.31976
22.2285
0.000747671
0.000953825
0.00091273
168.764
270.072
3.42979
294.128
0.0171584
26.6508
0.000772228
0.0071782
0.0160142
0.0432338
0.000749665
295.95
0.00074193
0.0160553
0.000771767
1.32429
0.0147988
0.0393061
2.50102
5.15155
35.0127
2.15798
9.34015
28.0084
189.368
0.000816254
165.696
324.35
12.8641
76.6099
0.000761771
268.29
79.0572
0.000745631
405.778
66.4718
0.00619057
0.0242188
162.781
162.731
0.221133
314.242
404.032
4.37546
426.113
262.176
129.904
50.8519
21.1145
28.0737
263.287
288.862
0.0142655
307.063
41.0712
407.423
0.000813382
1.59319
2.75165
224.987
164.429
0.0118228
445.916
196.088
6.98293
0.0556055
2.73194
28.204
0.00154697
28.3427
434.98
0.0292915
221.422
14.2239
94.1559
188.944
0.000746045
0.00167834
7.36311
5.36427
0.0133304
0.000748302
0.818818
1.79965
0.00120817
0.000758695
267.891
7.09099
52.7206
10.7872
0.00314555
0.00107542
0.414606
87.8599
0.000823864
22.1108
29.8362
1.83567
164.548
0.00100495
0.392379
0.000740601
1.79732
88.1671
0.0016249
0.184618
41.0213
166.912
0.501303
96.6781
5.11426
0.896895
0.000987504
33.5887
329.579
0.000744065
0.000755862
147.903
0.0157795
0.000758245
73.3958
2.09537
164.66
29.7004
37.8705
0.31358
17.166
204.809
162.211
241.734
0.000763209
273.566
0.000969403
38.2311
0.00079713
0.0014675
45.2095
0.00209504
256.755
0.0121789
0.0322839
45.2192
7.67706
0.574188
0.000897117
184.733
0.000886671
0.00071925
342.11
160.946
41.2298
28.7426
0.000813715
0.000683478
19.1259
148.5
0.000732449
217.96
37.0395
0.000752877
170.462
0.000702657
3.35259
6.40031
10.6343
1.53333
75.898
21.1689
0.000700888
268.331
325.49
0.000744495
0.0134336
28.9916
0.000708993
238.361
162.594
405.157
0.000745531
0.000727853
198.844
0.0991975
0.000836772
31.6272
80.2733
250.45
0.000720911
0.000793951
0.0157532
0.0116097
0.000746817
0.00202956
127.14
50.918
0.000746648
13.4673
0.000747042
9.94611
0.00109068
0.000866908
27.5892
0.000748716
0.345096
0.00073052
49.2978
2.12156
20.3847
186.371
362.383
148.087
5.19797
15.0269
0.000758249
5.64045
276.529
531.341
0.156098
0.00082655
129.147
0.00074608
0.115937
0.000720608
436.661
14.8759
3.11505
195.733
52.438
4.92275
81.4386
7.69072
224.072
115.164
0.000773742
0.000756266
0.00309069
0.000737133
0.0140499
98.5172
0.000932025
249.064
0.00186795
0.296385
3.05109
153.596
0.00135939
42.1655
0.0137027
55.8859
30.8715
431.384
0.000796134
0.000954956
1.42903
86.264
63.1745
66.5805
1.95956
7.95498
19.7794
0.0626171
10.326
1.7757
30.2906
0.000756656
395.037
1.42623
56.5703
0.000787951
53.5902
16.0606
0.00184923
88.2148
17.2807
0.084463
0.000715195
0.00074601
203.629
48.5349
15.0399
0.000737824
0.00953908
50.7495
188.505
3.42297
0.00585418
0.000735779
146.696
130.145
35.937
36.3054
0.000743613
101.701
431.667
0.000746914
0.000749293
18.4476
0.0012632
0.00386619
0.226145
47.2387
0.00105212
36.4462
342.959
0.000731937
0.000821563
0.000727456
0.000769907
67.4936
518.499
333.029
0.0205649
34.2227
47.3492
0.132939
45.2477
0.000824459
31.468
0.53069
30.5728
5.29442
81.7254
101.446
0.147683
0.000759141
159.89
85.1998
275.595
5.71607
29.8748
0.528221
21.0839
0.00353116
0.00133407
152.914
143.102
0.0345934
1.22448
0.000753972
0.0993841
19.7864
0.02799
13.696
4.35506
387.203
36.9016
1.73106
273.598
141.172
56.7285
15.7016
200.38
189.429
3.18398
38.4387
0.00359964
47.795
45.8203
0.000743456
0.000711089
0.348856
0.000748442
0.000775486
57.7208
298.193
0.0007446
84.1898
0.000744933
0.000736797
0.000740808
0.000752912
0.00181375
29.6234
44.5174
248.617
0.000718829
0.00106405
6.71524
0.000855012
0.0282835
0.000762783
0.000866207
166.946
0.000982941
0.00466687
181.77
0.00425421
0.00074945
187.022
0.000745369
0.000760507
1.50011
0.000870604
6.56916
0.0012392
0.0240085
0.000743843
0.000753526
302.506
417.623
43.8976
0.0237057
109.486
16.3259
0.00130193
27.7757
310.902
234.556
478.644
0.000700902
27.7507
56.8677
0.260973
28.7041
101.751
0.350129
31.6517
1.05031
28.5942
0.292577
7.37659
0.000757621
220.214
0.000757348
28.7886
32.6366
0.000747869
0.913327
0.00245491
0.0291754
0.000726506
3.84524
0.000893611
0.000741893
40.3215
0.0363666
0.164599
230.32
152.725
0.000819175
0.000968112
30.7644
259.776
0.000690454
0.000753944
0.196381
23.8886
148.152
0.00209461
15.9578
0.000745426
0.000818138
0.000718503
0.0278725
23.5016
0.00408454
272.794
29.7194
258.097
172.089
0.000842994
298.14
67.3644
0.000732724
0.000754065
0.000750338
0.00115953
0.000740209
123.97
0.000745392
0.00075036
347.349
1.21197
0.00267561
0.0347057
58.6692
7.56095
0.00780195
0.000823899
185.115
0.000762691
6.71211
0.000754986
0.000845472
162.938
164.004
0.0033446
0.000835503
3.98369
0.000744255
364.421
0.000753035
150.349
0.0273448
8.39952
0.11727
3.13058
1.9901
29.5723
0.000760954
0.00085987
0.00489142
59.6328
0.28746
302.171
0.000747048
0.001243
0.00164071
255.998
62.6618
272.451
0.00225865
0.00350612
0.822556
0.000751316
19.7034
38.1338
0.00875869
268.424
180.963
42.5582
0.00154574
1.4405
168.68
224.728
28.0463
0.0105608
121.184
0.542796
133.231
0.14418
2.27109
42.3632
0.000761953
28.6485
0.00122396
0.00508585
0.00621025
0.0476929
0.00090688
10.8434
0.000745938
46.2522
0.13194
0.000867523
1.60692
0.000756578
0.760783
0.2276
40.4522
3.75966
93.0095
0.809842
0.000748392
0.000732218
4.703
0.15899
43.6556
261.035
0.000751624
152.307
37.628
0.0141405
51.9203