/*--------------------------------*- C++ -*----------------------------------*\
| =========                 |                                                 |
| \\      /  F ield         | OpenFOAM: The Open Source CFD Toolbox           |
|  \\    /   O peration     | Version:  2.3.1                                 |
|   \\  /    A nd           | Web:      www.OpenFOAM.org                      |
|    \\/     M anipulation  |                                                 |
\*---------------------------------------------------------------------------*/
FoamFile
{
    version     2.0;
    format      ascii;
    class       volScalarField;
    location    "0.9";
    object      k;
}
// * * * * * * * * * * * * * * * * * * * * * * * * * * * * * * * * * * * * * //

dimensions      [0 2 -2 0 0 0 0];

internalField   nonuniform List<scalar> 
9648
(
2.68469
2.6876
2.6866
2.68306
2.6764
2.66579
2.65109
2.63256
2.61002
2.58342
2.55283
2.51847
2.4808
2.44042
2.39801
2.35433
2.31014
2.26612
2.22291
2.18103
2.14089
2.1028
2.06699
2.03359
2.00268
1.97427
1.94834
1.92485
1.90372
1.88486
1.8682
1.85362
1.84104
1.83038
1.82152
1.81439
1.80892
1.80503
1.80264
1.8017
1.80216
1.80398
1.80712
1.81154
1.81723
1.82417
1.83239
1.8419
1.85273
1.8649
1.87845
1.89344
1.90991
1.92786
1.94732
1.96815
1.99011
2.01274
2.03558
2.05822
2.08031
1.70295
1.69879
1.69416
1.68982
1.68806
1.69121
1.70131
1.71968
1.74609
1.78044
1.82243
1.87137
1.92631
1.98621
2.05
2.11667
2.18531
2.25508
2.3253
2.39544
2.46504
2.53378
2.60142
2.66782
2.73287
2.79658
2.85899
2.92012
2.98002
3.0388
3.09656
3.15338
3.20933
3.26456
3.31912
3.37306
3.4265
3.47953
3.53215
3.58433
3.63617
3.68777
3.73908
3.79008
3.84088
3.89133
3.94144
3.99133
4.04104
4.09043
4.13941
4.18788
4.23592
4.28314
4.32984
4.37573
4.42104
4.46503
4.50799
4.54994
4.59094
1.40568
1.44446
1.48734
1.53637
1.59418
1.6619
1.73911
1.8254
1.91991
2.0219
2.12998
2.24307
2.35992
2.47926
2.59988
2.72065
2.84063
2.95895
3.0749
3.18796
3.29771
3.40389
3.50631
3.60494
3.69982
3.79106
3.87884
3.96327
4.04459
4.123
4.19867
4.27185
4.34278
4.41157
4.47841
4.5435
4.60694
4.6689
4.72947
4.78873
4.84681
4.90373
4.95966
5.01462
5.06861
5.12161
5.1736
5.22467
5.27466
5.3236
5.37146
5.41828
5.46428
5.50875
5.55264
5.59493
5.63637
5.67587
5.71465
5.75228
5.78884
1.33942
1.42051
1.50911
1.60669
1.71427
1.83213
1.95987
2.09644
2.24039
2.39023
2.54417
2.70068
2.85817
3.01532
3.17081
3.32347
3.47242
3.61688
3.7563
3.89026
4.01852
4.14086
4.25731
4.368
4.47315
4.57303
4.66795
4.75823
4.84416
4.92607
5.00435
5.0793
5.15123
5.22044
5.28713
5.35158
5.41397
5.4745
5.53332
5.59059
5.64644
5.70101
5.7544
5.80673
5.85801
5.90828
5.95758
6.00594
6.05327
6.09959
6.14502
6.18922
6.2324
6.27438
6.31567
6.35572
6.39457
6.43221
6.46872
6.50411
6.5382
1.3839
1.50179
1.63008
1.76895
1.9185
2.07866
2.24849
2.42634
2.61041
2.79854
2.98867
3.17881
3.36736
3.55288
3.73405
3.9096
4.0787
4.24081
4.39545
4.54248
4.68172
4.8131
4.93679
5.05303
5.1623
5.26506
5.36171
5.45273
5.53847
5.6194
5.69597
5.76859
5.83773
5.90369
5.96671
6.02718
6.08535
6.14135
6.19543
6.24775
6.29847
6.34776
6.39583
6.44275
6.48859
6.53339
6.57718
6.61999
6.6619
6.70268
6.74251
6.78126
6.81878
6.85514
6.89048
6.9249
6.95811
6.9902
7.02108
7.05062
7.07887
1.47726
1.6285
1.79252
1.96852
2.15567
2.35329
2.55993
2.77362
2.99193
3.21223
3.4322
3.64946
3.8625
4.0697
4.27014
4.46232
4.64535
4.8191
4.98305
5.13744
5.28228
5.41736
5.54325
5.66006
5.76866
5.86972
5.96376
6.05146
6.13305
6.20915
6.28041
6.34713
6.41006
6.46957
6.52581
6.57926
6.63035
6.6791
6.72583
6.77069
6.81376
6.85537
6.89574
6.93503
6.97322
7.01042
7.04679
7.08206
7.11651
7.14998
7.18238
7.2137
7.2439
7.27282
7.30071
7.32753
7.35337
7.37816
7.4016
7.42349
7.44418
1.59898
1.78117
1.9784
2.18855
2.40968
2.64079
2.87986
3.12459
3.37235
3.61953
3.86413
4.10294
4.33485
4.5581
4.77284
4.9765
5.16844
5.34905
5.51744
5.67459
5.82078
5.95526
6.07943
6.19267
6.29664
6.39233
6.48014
6.56137
6.63563
6.7038
6.76686
6.82471
6.87867
6.92914
6.97589
7.0197
7.06142
7.1005
7.13767
7.17298
7.20623
7.23803
7.26865
7.29838
7.32683
7.35435
7.38113
7.40698
7.43215
7.45632
7.47951
7.50155
7.52252
7.54211
7.56039
7.57787
7.59452
7.61017
7.62428
7.63664
7.6478
1.73721
1.94794
2.17605
2.41761
2.66946
2.92986
3.19716
3.46885
3.74167
4.01126
4.27604
4.53137
4.77716
5.0109
5.23556
5.44646
5.64317
5.8271
5.99569
6.15132
6.29528
6.42519
6.54486
6.65083
6.74637
6.83324
6.91139
6.98344
7.04743
7.10482
7.15736
7.20349
7.24574
7.28467
7.31938
7.35104
7.3809
7.40749
7.43274
7.45637
7.47753
7.49704
7.51555
7.53339
7.54976
7.56551
7.58022
7.59423
7.60763
7.62029
7.63189
7.64237
7.65206
7.65996
7.66655
7.67254
7.67732
7.68217
7.68493
7.68532
7.68508
1.88356
2.11784
2.37413
2.64152
2.92203
3.2066
3.49669
3.79309
4.08477
4.37396
4.65385
4.92392
5.17847
5.41792
5.64696
5.86187
6.0603
6.24432
6.41383
6.56456
6.70153
6.82445
6.93573
7.03488
7.1188
7.19273
7.25899
7.31919
7.36997
7.41448
7.4543
7.48782
7.51619
7.5405
7.56008
7.57792
7.59168
7.60303
7.61414
7.62278
7.62916
7.63263
7.63753
7.64082
7.64256
7.64529
7.64418
7.64385
7.64135
7.63862
7.63409
7.62921
7.62486
7.6186
7.61116
7.60348
7.59246
7.58581
7.57462
7.55966
7.54597
2.10155
2.12178
2.14115
2.15964
2.17728
2.19422
2.21072
2.22713
2.24342
2.25881
2.27301
2.28666
2.29987
2.31287
2.32596
2.33976
2.35465
2.37092
2.38888
2.4089
2.4306
2.45357
2.47755
2.50218
2.52715
2.55252
2.57842
2.60454
2.63084
2.65736
2.68423
2.71133
2.73866
2.76639
2.79445
2.82281
2.85158
2.88083
2.91051
2.94056
2.97106
3.00213
3.03372
3.06581
3.09851
3.13164
3.16521
3.19937
3.23416
3.26945
3.30528
3.34174
3.37893
3.41662
3.45515
3.49444
3.53479
3.57592
3.61816
3.66166
3.7065
4.63104
4.66905
4.70611
4.74239
4.77761
4.81132
4.84307
4.87354
4.90174
4.92916
4.95483
4.97948
5.00302
5.02553
5.04688
5.06695
5.08586
5.10356
5.12009
5.13541
5.14958
5.16265
5.17447
5.18512
5.19462
5.20293
5.20991
5.21531
5.21925
5.22168
5.22262
5.2221
5.22017
5.21681
5.21205
5.20598
5.19855
5.18986
5.17987
5.16861
5.15613
5.14248
5.12775
5.11188
5.09485
5.07659
5.057
5.03614
5.01393
4.9904
4.9655
4.93918
4.91158
4.88224
4.8519
4.81993
4.78698
4.75256
4.71773
4.68237
4.64664
5.82373
5.85749
5.88964
5.92086
5.95102
5.98053
6.00813
6.03439
6.05842
6.08114
6.10222
6.12204
6.14044
6.15776
6.17378
6.18842
6.2017
6.21361
6.22413
6.23324
6.24103
6.24745
6.25253
6.25625
6.25862
6.2596
6.25924
6.25747
6.25426
6.24955
6.24337
6.23567
6.22645
6.21577
6.20361
6.19002
6.17498
6.1585
6.14059
6.12129
6.10068
6.07883
6.05581
6.03166
6.00632
5.97976
5.9518
5.92242
5.89154
5.85917
5.82528
5.78961
5.75229
5.71314
5.67238
5.62971
5.58534
5.53954
5.49276
5.44511
5.39673
6.57124
6.60297
6.6334
6.66224
6.68984
6.71621
6.7411
6.76434
6.7859
6.80581
6.8241
6.8408
6.85593
6.86955
6.88157
6.89213
6.90118
6.90869
6.91463
6.91901
6.92187
6.9233
6.92331
6.92191
6.91906
6.91471
6.90884
6.90151
6.89272
6.88244
6.87062
6.85718
6.84215
6.82553
6.80738
6.78772
6.76648
6.74365
6.71922
6.69326
6.66589
6.63721
6.60741
6.57659
6.54477
6.51191
6.47779
6.44235
6.40553
6.36733
6.3276
6.28622
6.24316
6.1983
6.15161
6.10287
6.05229
6.00015
5.94694
5.89271
5.83788
7.10579
7.13151
7.15576
7.17842
7.19937
7.21872
7.23647
7.25258
7.26731
7.28065
7.29244
7.30272
7.31148
7.31864
7.32426
7.32842
7.33097
7.33191
7.33117
7.32874
7.32476
7.31934
7.31258
7.30452
7.29506
7.28416
7.27182
7.25809
7.24306
7.22675
7.20909
7.18989
7.16913
7.14683
7.12311
7.09791
7.07113
7.04275
7.01263
6.98086
6.94759
6.91296
6.87726
6.84075
6.80355
6.76569
6.72681
6.6869
6.64585
6.60382
6.56043
6.51546
6.46901
6.42082
6.3708
6.31845
6.26425
6.2083
6.1513
6.09321
6.03461
7.46352
7.48151
7.49792
7.51284
7.52602
7.53746
7.5473
7.55535
7.56178
7.56666
7.57015
7.57223
7.57281
7.5718
7.56921
7.56523
7.55978
7.55267
7.54371
7.53287
7.52037
7.50646
7.4913
7.47506
7.45752
7.43856
7.41822
7.39656
7.37391
7.35037
7.32594
7.30018
7.27311
7.2446
7.21498
7.18403
7.15153
7.11749
7.08166
7.04405
7.00482
6.96403
6.92215
6.87964
6.83683
6.79401
6.75038
6.70633
6.66147
6.61638
6.57025
6.52257
6.47383
6.42347
6.37154
6.3169
6.26045
6.20197
6.14292
6.08257
6.0218
7.65771
7.66631
7.67335
7.6788
7.6825
7.68443
7.68455
7.68313
7.68005
7.67511
7.66878
7.66129
7.65235
7.64182
7.6296
7.61625
7.60182
7.58572
7.56759
7.54715
7.52483
7.50115
7.4763
7.4507
7.42405
7.39588
7.36629
7.3352
7.30343
7.27134
7.2394
7.20645
7.17283
7.13799
7.10272
7.06646
7.02842
6.98897
6.94782
6.90493
6.86022
6.81348
6.76543
6.71678
6.66805
6.62039
6.57179
6.52379
6.47524
6.42802
6.38039
6.33084
6.28088
6.2294
6.17707
6.12102
6.06373
6.00378
5.94449
5.8834
5.82231
7.68339
7.68076
7.67645
7.67095
7.66372
7.65507
7.64428
7.63295
7.62013
7.60463
7.58775
7.57034
7.55139
7.53097
7.50808
7.48432
7.46085
7.43605
7.40922
7.37897
7.34597
7.3121
7.2769
7.24108
7.20514
7.16759
7.1285
7.08666
7.04381
7.00132
6.96121
6.92036
6.8804
6.83957
6.79997
6.76035
6.71767
6.67285
6.62713
6.58074
6.53205
6.48043
6.42702
6.37261
6.3179
6.26614
6.2122
6.16057
6.10811
6.06009
6.01294
5.96247
5.91246
5.86109
5.8102
5.75353
5.6969
5.63631
5.57893
5.51894
5.45996
7.52923
7.51296
7.4935
7.47485
7.45339
7.4341
7.41062
7.38959
7.36846
7.34455
7.31856
7.29288
7.26477
7.23655
7.20283
7.16653
7.13378
7.10223
7.07097
7.03485
6.99011
6.94767
6.90353
6.85675
6.81143
6.76576
6.72091
6.67004
6.61316
6.55745
6.50801
6.45779
6.41109
6.36451
6.32432
6.28626
6.24208
6.19137
6.14134
6.09436
6.0461
5.9921
5.93441
5.87625
5.8167
5.76258
5.70244
5.6474
5.58977
5.54363
5.49983
5.44893
5.40074
5.35182
5.3049
5.2482
5.19381
5.13285
5.0796
5.02294
4.96928
3.75268
3.79985
3.84827
3.89794
3.94889
4.00125
4.05493
4.11007
4.1664
4.2239
4.28274
4.34256
4.40333
4.46726
4.54701
4.61874
4.68984
4.7617
4.83435
4.90793
4.98246
5.05798
5.13434
5.21151
5.28927
5.36741
5.44579
5.52424
5.60255
5.6804
5.75769
5.83413
5.90929
5.98297
6.05482
6.1243
6.19093
6.25411
6.30981
6.3506
6.3784
6.39394
6.39713
6.38729
6.36339
6.324
6.2672
6.19067
6.09166
5.96698
5.81282
5.62466
5.39744
5.12439
4.78893
4.23516
3.97869
3.84658
3.7937
3.76882
3.71791
4.61024
4.57348
4.53593
4.49771
4.45881
4.41991
4.38077
4.34213
4.3035
4.26528
4.22824
4.18586
4.1402
4.09717
4.04869
4.00234
3.95581
3.90917
3.86288
3.81721
3.77216
3.72746
3.68301
3.63876
3.59465
3.55069
3.50689
3.46334
3.42007
3.37715
3.33469
3.29281
3.25163
3.21138
3.17231
3.13471
3.099
3.06575
3.03554
3.01009
2.98673
2.96567
2.94722
2.93198
2.92086
2.91477
2.91474
2.92209
2.9383
2.96464
3.00238
3.05268
3.11678
3.19696
3.28281
3.41466
3.58701
3.85473
4.23577
4.73304
5.06706
5.34783
5.29841
5.24819
5.19687
5.14442
5.09135
5.03796
4.98469
4.93115
4.87731
4.82013
4.75511
4.69081
4.6297
4.56873
4.50855
4.44759
4.38586
4.32377
4.26174
4.1998
4.13769
4.07539
4.01288
3.95005
3.88691
3.82345
3.75967
3.69552
3.631
3.56609
3.5008
3.43519
3.36929
3.30318
3.23696
3.17074
3.10463
3.03879
2.97345
2.90855
2.84373
2.77949
2.71668
2.65561
2.59684
2.54124
2.49
2.44476
2.40766
2.38145
2.36968
2.37702
2.40895
2.46834
2.56664
2.7077
2.92218
3.25466
3.75692
4.37393
5.78261
5.72727
5.67125
5.6142
5.55572
5.49659
5.43715
5.37802
5.31858
5.25825
5.19114
5.11834
5.04809
4.98121
4.91553
4.85071
4.78545
4.71989
4.65417
4.5886
4.5231
4.45723
4.39111
4.3248
4.25817
4.19127
4.12406
4.05652
3.98855
3.9201
3.85116
3.78175
3.7119
3.64166
3.5711
3.5003
3.42932
3.35822
3.28702
3.21573
3.14432
3.07273
3.00032
2.92699
2.85341
2.77969
2.70606
2.63294
2.56102
2.49134
2.42533
2.3651
2.31354
2.27436
2.2512
2.25019
2.27959
2.35712
2.51221
2.78806
3.21294
5.97554
5.9168
5.85763
5.79755
5.73556
5.67288
5.6098
5.54741
5.48458
5.4206
5.34843
5.27279
5.20039
5.13146
5.06373
4.99686
4.92978
4.86321
4.79693
4.7312
4.66559
4.59933
4.5329
4.4664
4.39955
4.33253
4.26519
4.19754
4.12936
4.06065
3.99138
3.92168
3.85158
3.78122
3.71067
3.64006
3.56944
3.49891
3.42845
3.35808
3.28781
3.21767
3.14751
3.07682
3.00535
2.93325
2.86059
2.78743
2.71394
2.64044
2.56733
2.49521
2.42499
2.35786
2.29532
2.24023
2.19857
2.18113
2.20472
2.29454
2.48088
5.96019
5.89969
5.83905
5.77778
5.71366
5.64884
5.58326
5.51912
5.45466
5.38943
5.31537
5.2398
5.16767
5.09946
5.03187
4.96513
4.89808
4.83259
4.76789
4.70424
4.6408
4.57617
4.5117
4.44751
4.38289
4.31825
4.25317
4.18782
4.1217
4.055
3.98764
3.91999
3.85206
3.78414
3.71622
3.64851
3.58106
3.51399
3.44726
3.38098
3.31513
3.2498
3.18498
3.12052
3.056
2.9909
2.92525
2.85912
2.79258
2.7257
2.6586
2.59132
2.52384
2.45613
2.388
2.32
2.25448
2.19673
2.15568
2.14482
2.18307
5.75906
5.69821
5.6376
5.57723
5.51202
5.44637
5.37916
5.31493
5.25061
5.1868
5.11282
5.03936
4.96917
4.90417
4.83858
4.77416
4.70864
4.64624
4.58486
4.52507
4.46553
4.4037
4.34296
4.28339
4.22299
4.16277
4.10164
4.04051
3.978
3.91496
3.85101
3.78726
3.72341
3.66009
3.59691
3.53435
3.47222
3.41089
3.35021
3.29046
3.23148
3.17354
3.11655
3.06047
3.0051
2.95004
2.89454
2.83861
2.78242
2.72613
2.6698
2.61342
2.55682
2.49955
2.44096
2.38041
2.31796
2.25528
2.19614
2.14697
2.11773
5.39583
5.33565
5.27667
5.21981
5.15483
5.08999
5.02194
4.95962
4.89749
4.83795
4.76539
4.69538
4.62812
4.56854
4.50617
4.4461
4.38318
4.32567
4.26903
4.21412
4.15956
4.10081
4.04507
3.99269
3.93805
3.88344
3.82701
3.77145
3.71317
3.65462
3.59468
3.53635
3.47796
3.42115
3.36427
3.30862
3.2532
3.19929
3.14635
3.09516
3.045
2.99652
2.94949
2.9036
2.85876
2.81502
2.77114
2.72681
2.6825
2.63846
2.59502
2.55213
2.50965
2.46704
2.42358
2.37832
2.33048
2.27986
2.22737
2.1753
2.12802
4.90531
4.84557
4.79032
4.73985
4.67676
4.61421
4.54576
4.48809
4.43076
4.37809
4.30809
4.24204
4.1776
4.12554
4.06676
4.01307
3.95316
3.90242
3.85147
3.80088
3.75142
3.69493
3.64531
3.60424
3.55588
3.50579
3.45335
3.40455
3.3495
3.29516
3.23831
3.18735
3.13507
3.08659
3.03649
2.98884
2.93957
2.89393
2.84983
2.80891
2.76902
2.73129
2.69554
2.66093
2.62636
2.59246
2.55897
2.52481
2.49226
2.46024
2.43115
2.40322
2.37712
2.35131
2.3256
2.29861
2.26971
2.23793
2.20323
2.16522
2.12544
3.62539
3.52204
3.40983
3.29013
3.16854
3.04835
2.9323
2.82389
2.72619
2.64119
2.56977
2.51185
2.46652
2.43231
2.40746
2.39016
2.37872
2.37184
2.36845
2.36769
2.36896
2.37181
2.37595
2.38123
2.38756
2.39485
2.40307
2.41215
2.42212
2.43291
2.44445
2.4567
2.46954
2.48284
2.49645
2.51019
2.52384
2.53718
2.55
2.5621
2.57325
2.58324
2.59198
2.59943
2.60557
2.61057
2.61462
2.61795
2.6209
2.62385
2.62711
2.6309
2.63537
2.64067
2.64663
2.65312
2.65983
2.66657
2.67293
2.67838
2.68249
5.06208
4.99028
4.8692
4.69668
4.50468
4.29548
4.06731
3.82717
3.5834
3.34389
3.11478
2.90236
2.7103
2.53975
2.39099
2.2652
2.16181
2.07837
2.01169
1.95909
1.91808
1.88636
1.86207
1.84385
1.83063
1.82156
1.81634
1.8143
1.81526
1.81891
1.82505
1.83341
1.84373
1.85567
1.86888
1.88299
1.89753
1.91202
1.92589
1.93853
1.94925
1.95728
1.96183
1.9621
1.95746
1.94744
1.93185
1.91099
1.88568
1.85734
1.82772
1.79885
1.77273
1.75092
1.73412
1.72261
1.71567
1.7123
1.71077
1.70948
1.70689
4.87891
5.23953
5.43977
5.452
5.32018
5.12493
4.86794
4.57323
4.25785
3.93355
3.61226
3.30525
3.01993
2.76131
2.53244
2.33478
2.16683
2.02474
1.90576
1.8091
1.73233
1.6725
1.62657
1.59172
1.56562
1.54652
1.53305
1.52436
1.51967
1.51836
1.51998
1.52409
1.5302
1.53778
1.5463
1.55525
1.56408
1.57226
1.57924
1.58437
1.58704
1.58668
1.58272
1.57461
1.56193
1.54433
1.52166
1.49405
1.46202
1.42661
1.38953
1.35323
1.32059
1.2945
1.27718
1.27023
1.27384
1.28727
1.30891
1.33692
1.36954
3.74591
4.33474
4.89988
5.33665
5.55988
5.60423
5.48413
5.2371
4.9238
4.56479
4.18751
3.81564
3.46138
3.13576
2.84394
2.5862
2.35991
2.16334
1.99545
1.85566
1.74195
1.65197
1.58254
1.52996
1.49068
1.46194
1.44156
1.42807
1.42016
1.41681
1.41731
1.42102
1.42722
1.43517
1.44413
1.45341
1.46231
1.4701
1.47607
1.47946
1.47953
1.47559
1.46704
1.45336
1.43416
1.40928
1.37878
1.34299
1.30251
1.25834
1.2121
1.16628
1.12426
1.09015
1.06821
1.06208
1.07322
1.10111
1.14381
1.19909
1.26483
2.78372
3.21295
3.75409
4.34835
4.89569
5.31698
5.56025
5.59955
5.4705
5.20137
4.84209
4.45137
4.04919
3.66184
3.30449
2.98013
2.6905
2.43374
2.21135
2.02364
1.86841
1.74397
1.64703
1.57302
1.51731
1.47599
1.44623
1.42591
1.41324
1.40668
1.40524
1.40815
1.41452
1.4234
1.43388
1.44511
1.45622
1.46638
1.47471
1.48031
1.48227
1.47982
1.47218
1.45873
1.43893
1.41256
1.37964
1.34048
1.29556
1.24584
1.19278
1.13876
1.0872
1.04269
1.01122
0.999053
1.00994
1.04524
1.10368
1.18205
1.27638
2.29236
2.49644
2.81454
3.25016
3.77497
4.33317
4.84836
5.23833
5.45445
5.48359
5.33949
5.06594
4.69616
4.28834
3.88603
3.49878
3.14409
2.82334
2.53544
2.28625
2.0783
1.91081
1.77991
1.67945
1.60313
1.54558
1.50319
1.47331
1.45357
1.44178
1.43665
1.43724
1.44255
1.45139
1.4627
1.47544
1.48864
1.50131
1.51247
1.52109
1.52613
1.52671
1.52195
1.51112
1.49347
1.46875
1.43682
1.39795
1.35243
1.30112
1.24528
1.18714
1.12994
1.07819
1.03826
1.01804
1.02364
1.05952
1.12662
1.22195
1.3403
2.12228
2.1785
2.30712
2.52805
2.8527
3.27685
3.77229
4.28465
4.7458
5.09006
5.27166
5.28021
5.13342
4.86379
4.51607
4.11546
3.7181
3.33847
2.97509
2.65057
2.37389
2.14928
1.97371
1.83833
1.73434
1.65456
1.59453
1.55108
1.52114
1.50147
1.49032
1.48653
1.48898
1.49622
1.50698
1.52007
1.53433
1.54867
1.56197
1.57308
1.58085
1.58438
1.58264
1.57488
1.56012
1.53809
1.5085
1.47165
1.42763
1.37728
1.32169
1.26299
1.20425
1.14967
1.10538
1.07961
1.08041
1.11503
1.18732
1.2959
1.43519
2.09257
2.07919
2.10171
2.17703
2.32282
2.55361
2.87524
3.27714
3.73028
4.18537
4.58281
4.87064
5.01988
5.0191
4.88303
4.63463
4.31078
3.93908
3.52314
3.12526
2.76533
2.46746
2.23459
2.05373
1.91322
1.80344
1.71897
1.65616
1.61182
1.58088
1.56092
1.55027
1.54776
1.55158
1.56021
1.57223
1.5863
1.60118
1.61558
1.62825
1.63797
1.64382
1.6447
1.63988
1.62808
1.60906
1.58241
1.54841
1.50701
1.45902
1.40548
1.34839
1.29063
1.23619
1.19086
1.1627
1.1609
1.19488
1.27129
1.39114
1.54896
2.08662
2.05339
2.0336
2.03741
2.07797
2.16999
2.32761
2.56021
2.86735
3.23679
3.6341
4.02303
4.36038
4.61084
4.74419
4.75126
4.63401
4.39876
4.08116
3.6806
3.24571
2.87383
2.57888
2.34436
2.15458
2.00275
1.88313
1.79377
1.72967
1.68264
1.65028
1.62947
1.61922
1.61747
1.62209
1.63143
1.64394
1.65809
1.67249
1.68549
1.69631
1.70358
1.70655
1.70422
1.69537
1.67933
1.65616
1.62526
1.58728
1.54234
1.49216
1.4381
1.38309
1.33118
1.28735
1.25938
1.25713
1.29184
1.37172
1.5011
1.67343
0.290821
6.45174
6.16075
0.216929
0.351499
0.125951
0.0031623
2.39079
0.00337835
0.0233104
3.32233
1.0667
0.00316401
5.87121
0.110401
5.51794
0.00326083
2.49725
3.62058
0.00315837
0.21827
5.71756
6.19564
0.00329943
0.00333257
0.105683
0.00316055
0.502404
0.0032472
0.00346029
0.686301
0.0032472
0.0162807
2.55094
0.779721
3.39701
2.54336
1.56703
0.00316528
2.60712
1.90402
2.03286
0.003209
4.78873
3.10886
0.279613
0.00360805
0.015146
0.140955
1.08932
6.41171
7.73655
0.00310788
0.00405456
0.0371256
0.00881849
0.00345096
0.682217
2.41763
7.40896
2.47635
0.00369522
0.152472
0.0317656
6.49687
0.437853
1.99076
1.70346
0.00431924
0.00321287
1.2074
2.57052
1.72879
0.0144602
0.0393307
4.0804
6.77735
3.28292
0.00310861
0.926177
0.0070983
2.61923
0.0108767
4.87392
0.00321772
1.06824
0.0033616
2.2282
0.0148512
0.00491198
0.119066
0.0031042
0.00378279
7.57392
5.54167
0.00359465
0.435338
0.292752
0.00603848
6.67954
0.203155
2.51859
0.751263
0.00310012
0.00316496
0.00309735
0.309326
0.12444
0.00324128
6.18921
6.87181
0.00934365
4.44442
1.52391
2.53745
2.7614
1.79454
0.00390599
0.0851614
0.00417932
0.00435668
3.34912
0.0072675
7.44722
7.62324
0.967624
0.00321413
1.01841
1.02315
0.00320978
0.0340176
0.0333058
1.71105
0.0056649
3.08775
0.00321952
0.00316029
7.65508
7.75635
0.00322914
0.160898
5.70475
0.105239
0.300075
1.56856
4.80396
0.039637
1.65603
0.0120756
6.86733
1.24833
0.00914813
2.82573
4.81005
6.3729
0.00330605
0.0032671
0.215393
0.00311592
1.96254
0.0315357
0.00510667
0.00319866
0.00321885
0.00323666
2.83415
1.74857
1.58357
0.00332162
6.55994
4.63068
3.18502
4.88095
0.0139349
3.6475
1.723
1.90413
0.00324005
0.00567765
2.89935
3.0742
2.07459
3.77592
0.00321476
0.00352239
4.75547
0.0359093
0.561878
0.00323738
0.00360438
0.104397
0.00339218
7.65813
0.681117
0.00310482
0.253619
1.79731
5.26668
0.00448907
1.94266
0.00321722
0.00323264
5.02128
2.44403
7.07901
0.00453292
0.00339403
0.0076661
2.7893
2.2195
1.09093
4.94829
1.55297
6.99504
0.189923
4.38992
4.17656
1.94615
1.34768
2.33403
0.00487837
0.0368906
0.00322449
0.00320129
1.83149
0.0181264
0.020112
0.00570062
0.0130788
2.78104
4.56712
0.018842
5.84441
1.06953
0.410801
0.00318308
0.160846
2.79674
1.02651
0.00413875
1.22196
1.12201
0.179239
0.276493
7.34526
0.797194
0.483767
5.24388
0.00383894
0.00316142
0.0040323
0.010481
1.75837
0.00336144
0.00648947
0.00316479
0.386624
4.15245
4.00966
2.75145
1.29817
1.42241
7.63257
0.00434024
2.08998
4.534
0.00320938
2.00982
0.00321716
4.03413
0.385151
1.60248
0.00533185
0.00321958
1.87881
0.494795
0.00323891
0.00323595
0.00325033
0.00324558
0.356791
1.62381
3.02315
0.0147594
0.00324057
0.0031642
0.00309848
4.80853
0.221289
0.00446563
1.68796
0.0875559
0.0407044
0.00309196
0.263005
0.00323971
0.0507199
1.46676
4.54415
0.314082
0.00391305
0.00596403
3.27158
0.140357
1.95116
7.59933
0.00350143
0.00319725
0.00318705
5.91112
0.00331069
4.8189
0.00322116
1.92183
1.23747
0.0269913
2.89718
3.94588
0.00467424
2.73313
2.71216
1.65113
4.80872
1.07137
7.74665
2.4633
4.0508
3.61013
4.58352
1.71948
0.157194
7.70439
7.39859
3.01166
2.14454
0.00395712
6.7644
2.72649
6.95612
0.0274872
0.00358529
0.00321401
0.00342297
0.176146
0.418242
0.688693
0.091954
0.00317475
6.11645
0.00321477
1.47521
1.97091
6.48023
2.54582
1.83721
0.00596752
0.00425523
0.0871156
2.83378
0.0103106
0.746905
5.04035
2.06255
4.1953
6.06295
3.31669
0.00346239
7.41455
5.51717
1.75186
0.00323423
6.3783
5.76051
0.0033322
1.98686
0.00323795
6.6286
5.52147
1.87899
4.24267
2.51106
5.75412
0.00329193
5.75362
0.00386168
3.66053
4.04717
1.91718
7.39245
0.711909
0.21217
0.54482
0.00423964
4.29943
0.150578
0.0081361
0.00510099
4.33789
0.0038293
4.41957
0.00319229
0.00323513
0.0059962
1.83926
0.104637
1.87014
0.00570003
4.30994
0.162664
6.62861
4.35408
2.69505
6.03751
0.0033845
7.40394
2.90921
0.00321106
3.97266
2.09124
0.00310273
0.00316808
3.37182
0.00647616
1.868
0.0865423
2.39697
0.026738
0.608119
2.70619
4.82002
2.4512
3.87723
3.76362
0.00395618
0.0217659
1.69843
1.65226
7.61606
6.27366
5.24954
0.0652179
5.19379
5.1679
0.504307
1.7265
2.91325
2.1069
0.00347945
4.18124
7.76329
0.00416042
4.44431
1.86622
2.93946
0.0241268
0.0675088
6.01942
0.00597458
7.60908
0.00461615
0.255624
0.00320387
0.98656
2.31045
0.229705
0.00479639
0.00370224
2.74909
1.6155
0.0817873
0.399144
5.69725
4.10273
0.00451105
1.43581
1.65779
3.29377
1.51232
4.20323
1.96322
5.38037
3.25886
0.489717
0.973609
7.52297
1.93815
7.68058
6.17082
0.0337439
3.31925
2.90311
0.00337808
1.79582
1.62264
1.36165
0.0173197
4.93736
1.46172
0.694579
1.94158
0.00544975
0.00321495
0.0421045
2.33526
4.44648
2.59807
0.00322113
0.00318943
0.00321527
1.72147
0.0276306
0.00321532
0.123879
4.58454
4.81728
0.0105126
0.0107389
0.00315551
0.00320512
0.0059952
1.78143
1.75321
1.62964
0.453463
7.49397
5.71838
0.0052581
3.24699
1.84589
1.94762
4.08453
7.35684
0.00346179
0.0104641
0.00323796
3.86688
0.242867
0.00316912
1.35359
0.161557
7.51889
0.00323852
7.62931
1.13739
0.0472785
6.61621
0.00323169
0.00319499
0.00404768
7.69329
3.27065
5.37519
4.86007
1.06962
1.77298
0.00312665
0.0060233
0.0873312
0.013372
0.0251089
1.98455
2.15591
0.00322447
1.28719
1.84833
6.2932
7.68192
0.00822033
7.65527
0.00591517
0.0302542
3.53255
0.00320135
5.70901
0.00324076
0.00336662
0.0221718
2.14627
0.620023
2.57956
1.90385
0.00365966
1.77376
4.63086
0.0516067
0.215364
0.86266
0.00331472
0.00326704
0.00692711
5.48427
0.534714
0.00335796
7.29517
5.78463
6.78299
0.0317529
2.04744
0.00420923
2.40712
0.162163
0.0909237
2.66768
1.6814
1.91693
6.20907
0.00327894
0.00313289
0.0104775
4.17193
4.62341
0.963106
0.0138444
0.00333399
0.00323884
0.00882124
0.0266827
0.00660212
2.19284
1.75232
0.0115559
1.57135
6.11436
0.00327098
2.39222
0.00321747
0.539919
0.00324484
0.0221478
2.3495
0.0200823
0.00320607
0.756523
7.76133
7.01212
0.00318981
0.00326426
0.387188
0.027659
0.00321641
4.25801
0.00370024
1.68836
7.77143
2.36756
1.69119
2.46926
3.67569
7.62787
0.00322906
0.00743085
0.0148383
4.22807
1.43199
6.46815
0.66474
0.352325
4.30885
3.56036
5.05628
0.71856
2.69733
0.00322241
0.359518
1.70917
2.51712
3.95216
1.93034
0.218074
2.54039
0.102687
0.00943116
1.77764
0.00323933
5.62153
0.0036641
0.382048
7.47516
2.72968
0.5633
0.00740939
0.773257
0.00329877
0.00319165
0.106548
0.0224658
1.83778
0.0152913
1.75112
0.00322132
0.0279213
0.00316631
4.59649
0.00510064
4.12806
2.53458
0.0218766
1.93893
7.38248
0.00325798
1.7264
4.3082
0.00335856
7.44682
0.061064
0.00348478
0.00339473
7.1212
0.00317846
0.00428987
0.0867235
0.101141
7.01723
7.31859
0.00322105
0.00327014
1.09032
2.31352
0.0145703
0.268051
2.00832
0.00321772
0.00383261
0.00372362
6.13185
7.34894
0.50011
6.98522
0.0260408
1.60883
0.00332461
0.0147615
0.0248421
0.0362294
0.00322987
6.66194
0.00320089
0.0249991
0.0033219
0.237758
0.0223977
0.0147616
0.448666
0.687994
2.29479
0.405253
1.06841
1.83302
5.03356
0.00343836
4.81821
7.66144
1.14852
4.07513
0.00327855
4.33329
3.95358
0.0032158
7.29464
2.32772
0.00808814
0.0107435
5.97472
5.77794
0.0573216
7.59671
7.21677
0.78707
7.21564
7.2078
5.00254
1.94387
1.62394
0.988585
7.26885
7.4426
0.0218493
7.23979
2.60063
4.36481
0.0034325
0.341769
0.395556
6.89529
5.96251
0.0201969
4.278
6.51963
0.456684
0.0334145
0.385992
1.82488
0.00534689
1.86077
6.84821
0.0337271
6.85136
1.38596
4.53072
6.43801
0.00322213
0.00565414
1.04864
0.708415
0.0181944
0.00321835
0.191375
0.257014
0.00450935
0.00323647
4.20686
0.989248
3.14475
1.02754
0.00861196
0.00417193
0.0890176
3.37561
0.00345942
1.88765
1.69567
0.473999
2.31484
0.00397036
0.117016
0.00320211
0.356451
4.38946
0.00434891
0.117934
2.1164
5.65251
0.223757
4.03414
0.603476
0.165814
0.00392586
2.43094
7.63944
0.00321144
0.00328246
5.74792
0.0244763
0.00323561
3.88879
0.252473
1.94669
2.01433
1.4816
0.145001
1.71415
3.50081
5.75862
4.26013
0.00327526
5.42338
0.00389189
2.646
0.0034017
0.00452005
2.12319
0.00655419
3.87734
0.0206852
0.0396829
1.86614
0.73382
0.0642935
0.00367327
6.31851
0.00364263
0.00315335
7.73662
5.95117
2.82319
1.93478
0.00343411
0.00307306
1.85608
5.73807
0.00319864
6.50146
1.70296
0.00324235
6.08115
0.00311729
0.350766
0.905576
1.3444
0.359249
1.59525
1.95481
0.00311328
7.30681
7.25363
0.0032154
0.0167934
1.93478
0.00313175
7.05986
5.40381
4.40569
0.00321765
0.00317072
3.40973
0.0408283
0.00350154
1.86579
1.72645
4.03691
0.00315388
0.00337945
0.0242918
0.0194091
0.00321705
0.00641022
5.27176
2.88829
0.00322231
1.36346
0.00321473
0.706167
0.0042131
0.00358532
2.27041
0.0032667
0.120656
0.00317615
3.00492
0.185752
1.7545
6.35846
4.3808
3.62261
0.813946
1.23908
0.00323548
0.923992
7.37964
4.09471
0.106443
0.00346619
5.35216
0.0032147
0.0316248
0.00315611
7.08635
0.770545
0.365035
6.43509
2.24782
0.48132
4.22175
0.725707
6.87648
4.58465
0.00330989
0.00327485
0.0081999
0.00323339
0.0227097
4.38686
0.003779
7.05995
0.00600953
0.0750504
0.580495
4.68551
0.00487585
2.79251
0.016925
3.0647
2.43663
6.85441
0.00339978
0.00384392
0.246905
3.70153
1.65352
3.70331
0.422847
1.03716
1.66874
0.050562
1.00768
0.258889
1.69754
0.00328317
4.34022
0.411836
3.144
0.00336474
3.05204
0.986505
0.00459747
1.64308
1.77837
0.0651058
0.00314944
0.00321798
4.76381
2.81736
1.40349
0.00320706
0.0175422
2.00893
6.40186
0.460357
0.0125882
0.00322436
5.56266
5.35025
2.08933
2.66732
0.00321316
3.54769
7.3762
0.00321103
0.00321772
1.26147
0.00410182
0.00986175
0.0328883
1.96459
0.00410793
2.21928
7.66806
0.00320536
0.00346271
0.00316813
0.00330581
3.79079
4.65002
7.69727
0.0289539
2.43044
2.2099
0.0868205
2.9604
0.00348316
1.70257
0.220273
2.08349
0.695847
1.65733
3.1187
0.0284414
0.00323893
5.97878
4.51474
4.50912
0.900253
1.78666
0.175983
1.572
0.00927476
0.00483159
3.37848
5.62445
0.0217557
0.136323
0.00324504
0.0778346
1.89675
0.0276435
1.05177
0.683803
3.81802
2.16413
0.432385
6.61899
5.53409
2.95631
1.63995
4.10646
3.53963
0.563739
2.6573
0.00610502
2.80764
2.94592
0.00320396
0.0031366
0.120676
0.00322655
0.00333045
3.02078
4.3618
0.00321993
3.23537
0.00321469
0.00319228
0.00321559
0.00326284
0.00594118
1.94422
2.73343
7.16201
0.00316001
0.00390448
0.956481
0.00355388
0.032936
0.00324572
0.00361023
4.31352
0.00390858
0.0109334
2.80583
0.0104729
0.00321967
3.85338
0.00321417
0.00326638
0.264556
0.00360506
0.926055
0.00457743
0.0299455
0.00320422
0.00325376
7.52926
7.56998
2.77984
0.0266986
2.94985
1.5823
0.00473333
1.77311
4.1702
7.00939
4.58724
0.00312645
1.88004
2.58555
0.145891
1.74889
4.49741
0.172619
2.06301
0.218375
1.72773
0.0388105
1.01027
0.00323487
6.73922
0.00329272
1.80604
2.49673
0.00321515
0.311452
0.00729874
0.0192339
0.00317641
0.757945
0.00366236
0.0032214
2.5349
0.00956844
0.109945
6.9575
1.92983
0.00345937
0.00387908
2.41612
7.23583
0.00309372
0.00324631
0.0713709
1.38044
5.63754
0.00658366
1.64825
0.00321789
0.00344264
0.00314816
0.034744
0.986598
0.0101165
6.31589
1.819
7.23073
6.12317
0.00351845
7.15607
3.78111
0.00317935
0.00322625
0.00321814
0.00439876
0.00320252
3.7881
0.003208
0.00323924
6.54171
0.323883
0.00774463
0.0216224
2.01577
0.922171
0.00830896
0.00345873
6.38439
0.00324544
0.817009
0.00326198
0.00352291
5.99216
5.78928
0.00869367
0.00351372
0.338321
0.00320643
6.60413
0.00325509
5.6182
0.0249259
0.733988
0.0327754
0.367903
0.374847
1.52834
0.00324274
0.00356537
0.0115484
3.2968
0.11954
7.52132
0.00321938
0.00458835
0.00555531
7.20901
2.84086
3.08302
0.00693047
0.00897408
0.213846
0.00322349
1.27733
2.48449
0.0169508
5.74017
6.25664
2.03511
0.00533625
0.384769
2.84009
6.86551
1.80983
0.0187858
3.08767
0.0624232
5.29211
0.0911328
0.516283
2.65973
0.00324365
1.77033
0.0045532
0.0118427
0.00804568
0.0499315
0.00370089
1.27302
0.00322632
3.07567
0.0952956
0.00361208
0.241556
0.00323205
0.282194
0.117132
2.31516
0.468733
4.70048
0.242413
0.00321697
0.00319022
0.712176
0.0913396
2.89953
7.24569
0.00322406
3.80075
2.71732
0.0231556
2.04162
0.597002
2.361
2.18384
0.0334332
0.00588187
7.08315
1.54106
5.9522
0.00321077
1.65945
0.00321541