/*--------------------------------*- C++ -*----------------------------------*\
| =========                 |                                                 |
| \\      /  F ield         | OpenFOAM: The Open Source CFD Toolbox           |
|  \\    /   O peration     | Version:  2.3.1                                 |
|   \\  /    A nd           | Web:      www.OpenFOAM.org                      |
|    \\/     M anipulation  |                                                 |
\*---------------------------------------------------------------------------*/
FoamFile
{
    version     2.0;
    format      ascii;
    class       volScalarField;
    location    "1";
    object      p;
}
// * * * * * * * * * * * * * * * * * * * * * * * * * * * * * * * * * * * * * //

dimensions      [0 2 -2 0 0 0 0];

internalField   nonuniform List<scalar> 
3072
(
-0.0486391
-0.0484554
-0.0482111
-0.047952
-0.0476859
-0.0473382
-0.0467679
-0.046033
-0.0451444
-0.0441396
-0.04307
-0.0419945
-0.0455498
-0.0454859
-0.0455844
-0.0457437
-0.0457559
-0.0455185
-0.0450963
-0.04433
-0.0432186
-0.0418663
-0.0404089
-0.0389935
-0.0439378
-0.0440731
-0.0445261
-0.0450326
-0.0453092
-0.0452213
-0.0446482
-0.0436534
-0.0422757
-0.0405984
-0.038767
-0.0369486
-0.0414879
-0.0418649
-0.0425648
-0.0431839
-0.0434836
-0.0433399
-0.0427494
-0.0416925
-0.040196
-0.0383279
-0.0361929
-0.0339021
-0.0387323
-0.0391445
-0.039797
-0.0403491
-0.0405909
-0.0404094
-0.0397555
-0.0386263
-0.0370231
-0.0349851
-0.0325361
-0.0297805
-0.0354911
-0.0356321
-0.0360639
-0.0364552
-0.0366236
-0.0364048
-0.0357161
-0.0345148
-0.0327717
-0.030501
-0.0276147
-0.0244506
-0.0320944
-0.0317219
-0.031746
-0.0319688
-0.0321411
-0.0319122
-0.0310983
-0.0295371
-0.0274184
-0.0246514
-0.0215029
-0.0181704
-0.0288055
-0.0277235
-0.0274512
-0.0278105
-0.0283326
-0.0282185
-0.0269754
-0.0248104
-0.0219058
-0.0186188
-0.0151925
-0.0119363
-0.0256465
-0.0239155
-0.0236595
-0.0245677
-0.02575
-0.0258616
-0.0243364
-0.0213816
-0.0175977
-0.0136322
-0.0099351
-0.00682373
-0.02218
-0.0201099
-0.020096
-0.0216377
-0.0234901
-0.0239323
-0.0223737
-0.0190682
-0.01483
-0.0104766
-0.00652183
-0.00329492
-0.0180385
-0.0158689
-0.0162891
-0.0185555
-0.021081
-0.0220169
-0.0206525
-0.0172951
-0.0129622
-0.00859495
-0.00466636
-0.00140525
-0.0134
-0.0114634
-0.0123755
-0.0154862
-0.0186392
-0.0200155
-0.0189931
-0.0158038
-0.0116469
-0.00747597
-0.00369358
-0.000486053
-0.0409795
-0.0400812
-0.0393275
-0.0387469
-0.0384185
-0.0383307
-0.0384065
-0.038466
-0.03831
-0.0378801
-0.0372936
-0.036761
-0.0377509
-0.0367353
-0.0359575
-0.0355141
-0.0354843
-0.0358573
-0.0364625
-0.0369486
-0.0369397
-0.0363135
-0.0352224
-0.0342242
-0.0352469
-0.0336903
-0.0324208
-0.0316934
-0.0316179
-0.0321051
-0.0329834
-0.0338002
-0.0340248
-0.0333629
-0.0322026
-0.0312445
-0.0315584
-0.0293806
-0.0277092
-0.0267482
-0.0264603
-0.0267938
-0.0275015
-0.0282554
-0.0286132
-0.0283743
-0.0279004
-0.027546
-0.0269638
-0.0245485
-0.0228723
-0.0219431
-0.0216324
-0.0217818
-0.0221699
-0.0225751
-0.022776
-0.0228237
-0.0231497
-0.0235973
-0.0214393
-0.0191486
-0.01778
-0.0171568
-0.0170121
-0.0171132
-0.0173017
-0.0174872
-0.0174978
-0.0173396
-0.0177571
-0.0193008
-0.0152574
-0.0132792
-0.0123279
-0.0120996
-0.0122329
-0.0124426
-0.0125472
-0.0124888
-0.0123529
-0.0121525
-0.0122857
-0.0143471
-0.00930079
-0.00762769
-0.0070553
-0.00717492
-0.00752194
-0.00778022
-0.00779684
-0.00761461
-0.00722115
-0.00683954
-0.0067657
-0.0083807
-0.00448863
-0.00305502
-0.00262925
-0.00289093
-0.00335493
-0.00364121
-0.00356499
-0.00308311
-0.00235691
-0.00144467
-0.000713215
-0.00130546
-0.00101275
0.000209883
0.00056742
0.000367519
-3.70693e-06
-0.000229031
-6.59395e-05
0.000600242
0.00177491
0.0033305
0.00517046
0.00615774
0.000995639
0.00238877
0.00286317
0.00273316
0.00243989
0.002322
0.00258539
0.0033767
0.00480905
0.00693328
0.00977942
0.0121907
0.00196736
0.00353607
0.00427357
0.00438675
0.00420966
0.00409114
0.00434547
0.00512361
0.0065376
0.0087246
0.0120816
0.0151686
-0.0487065
-0.048521
-0.0482786
-0.0480196
-0.0477529
-0.0474043
-0.0468323
-0.0460959
-0.045206
-0.0442002
-0.0431298
-0.0420535
-0.0456187
-0.0455549
-0.0456496
-0.0458062
-0.0458163
-0.045577
-0.0451548
-0.0443861
-0.0432735
-0.0419209
-0.040464
-0.0390497
-0.0440088
-0.0441424
-0.0445922
-0.0450959
-0.0453699
-0.0452797
-0.0447021
-0.0437059
-0.0423267
-0.0406488
-0.0388181
-0.0370009
-0.041562
-0.0419345
-0.0426323
-0.0432489
-0.0435452
-0.0433978
-0.0428047
-0.0417453
-0.0402467
-0.0383771
-0.0362413
-0.0339495
-0.0388097
-0.0392132
-0.0398692
-0.0404193
-0.0406575
-0.0404719
-0.0398144
-0.038682
-0.0370763
-0.0350358
-0.0325844
-0.0298257
-0.0355819
-0.0357268
-0.0361486
-0.0365336
-0.0366967
-0.0364731
-0.03578
-0.0345755
-0.032829
-0.0305534
-0.0276643
-0.0244965
-0.03219
-0.0318164
-0.0318356
-0.0320524
-0.0322184
-0.0319838
-0.0311656
-0.0296008
-0.0274798
-0.024711
-0.0215569
-0.0182204
-0.0289057
-0.0278205
-0.0275435
-0.0278968
-0.0284124
-0.028291
-0.027041
-0.0248718
-0.0219657
-0.0186781
-0.0152493
-0.011992
-0.0257525
-0.0240163
-0.0237542
-0.0246569
-0.0258335
-0.0259366
-0.0244016
-0.0214395
-0.0176529
-0.0136882
-0.00999278
-0.00688321
-0.0222959
-0.0202163
-0.0201933
-0.0217293
-0.0235764
-0.0240089
-0.0224387
-0.0191241
-0.0148824
-0.0105301
-0.00657887
-0.0033561
-0.0181675
-0.015983
-0.0163881
-0.0186449
-0.0211642
-0.0220908
-0.0207153
-0.0173496
-0.0130138
-0.00864853
-0.00472445
-0.00146819
-0.0135525
-0.0115878
-0.0124738
-0.0155673
-0.0187108
-0.0200799
-0.0190512
-0.0158577
-0.0117003
-0.00753263
-0.00375534
-0.000552711
-0.041038
-0.0401392
-0.0393847
-0.0388031
-0.0384736
-0.038384
-0.038457
-0.0385133
-0.0383544
-0.0379225
-0.0373355
-0.0368032
-0.0378082
-0.0367927
-0.0360143
-0.0355704
-0.0355393
-0.0359097
-0.0365109
-0.0369918
-0.0369773
-0.0363478
-0.0352587
-0.0342635
-0.0352996
-0.0337424
-0.0324733
-0.0317467
-0.0316703
-0.0321546
-0.0330266
-0.0338349
-0.034051
-0.0333814
-0.0322308
-0.0312797
-0.0316048
-0.0294279
-0.0277594
-0.0268008
-0.0265136
-0.0268434
-0.0275443
-0.0282893
-0.0286417
-0.0284096
-0.0279345
-0.0275846
-0.027008
-0.0245956
-0.0229236
-0.0219977
-0.0216886
-0.021837
-0.022221
-0.0226191
-0.0228125
-0.0228554
-0.0231815
-0.0236352
-0.0214853
-0.0191985
-0.017834
-0.0172136
-0.0170706
-0.0171715
-0.0173585
-0.0175389
-0.0175438
-0.0173769
-0.0177847
-0.0193346
-0.0153081
-0.0133333
-0.0123847
-0.0121574
-0.0122906
-0.0124985
-0.0125998
-0.0125388
-0.0123981
-0.0121926
-0.0123167
-0.0143765
-0.00935706
-0.00768664
-0.00711563
-0.00723469
-0.0075796
-0.00783446
-0.00784693
-0.00766222
-0.00726104
-0.00687517
-0.00679397
-0.00840454
-0.00454998
-0.00311867
-0.00269365
-0.00295434
-0.00341531
-0.00369696
-0.00361467
-0.00312429
-0.00239079
-0.00147496
-0.000735571
-0.00132329
-0.00107723
0.000143393
0.000499214
0.000299964
-6.83679e-05
-0.000288648
-0.000119163
0.000553801
0.00173221
0.00329898
0.00514885
0.00614341
0.000928509
0.00231855
0.00279121
0.0026615
0.00237023
0.00225714
0.00252688
0.00332569
0.00476587
0.00690043
0.00975547
0.0121733
0.00189666
0.00346237
0.00419814
0.0043111
0.00413452
0.00402076
0.00428066
0.0050663
0.00648919
0.00868617
0.0120506
0.015137
-0.0487492
-0.0485616
-0.0483196
-0.0480594
-0.0477908
-0.0474403
-0.0468658
-0.0461265
-0.0452337
-0.0442249
-0.0431516
-0.0420727
-0.0456641
-0.0455999
-0.0456913
-0.0458457
-0.0458536
-0.045612
-0.0451878
-0.0444154
-0.0432991
-0.0419431
-0.0404833
-0.0390669
-0.0440572
-0.0441892
-0.0446365
-0.0451381
-0.0454099
-0.0453172
-0.0447355
-0.043736
-0.0423526
-0.0406707
-0.038837
-0.0370176
-0.0416145
-0.0419845
-0.0426803
-0.043295
-0.0435887
-0.0434379
-0.0428413
-0.0417777
-0.0402744
-0.0384001
-0.0362607
-0.0339653
-0.0388647
-0.0392677
-0.0399228
-0.0404714
-0.0407069
-0.0405176
-0.0398556
-0.0387179
-0.0371068
-0.0350603
-0.0326039
-0.02984
-0.0356408
-0.0357859
-0.0362088
-0.0365933
-0.0367542
-0.036527
-0.035829
-0.0346187
-0.0328643
-0.0305772
-0.0276836
-0.0245104
-0.0322515
-0.0318797
-0.0319007
-0.0321175
-0.0322813
-0.0320428
-0.031221
-0.0296504
-0.0275225
-0.0247471
-0.0215802
-0.0182373
-0.0289682
-0.0278852
-0.0276096
-0.0279626
-0.0284761
-0.0283507
-0.0270947
-0.0249201
-0.0220082
-0.0187136
-0.0152757
-0.0120145
-0.0258157
-0.0240813
-0.0238203
-0.0247241
-0.0259013
-0.0260012
-0.0244586
-0.0214868
-0.0176913
-0.0137203
-0.0100209
-0.00691051
-0.0223619
-0.0202833
-0.0202616
-0.0218009
-0.0236514
-0.0240815
-0.0225022
-0.0191745
-0.0149209
-0.010561
-0.00660673
-0.00338454
-0.0182408
-0.0160562
-0.0164619
-0.0187214
-0.0212448
-0.0221695
-0.0207847
-0.017404
-0.0130549
-0.00868151
-0.00475393
-0.00149692
-0.0136402
-0.0116728
-0.0125553
-0.0156461
-0.0187919
-0.0201585
-0.0191235
-0.0159158
-0.011745
-0.00756898
-0.00378744
-0.000582726
-0.0410548
-0.0401536
-0.0393958
-0.0388099
-0.0384756
-0.0383812
-0.0384506
-0.0385052
-0.0383458
-0.0379143
-0.0373281
-0.0367964
-0.0378231
-0.0368036
-0.0360201
-0.0355707
-0.0355335
-0.0358983
-0.0364955
-0.0369743
-0.0369602
-0.036333
-0.0352478
-0.034255
-0.0353131
-0.033751
-0.0324769
-0.0317452
-0.031663
-0.0321406
-0.0330069
-0.0338121
-0.0340283
-0.0333595
-0.0322176
-0.0312707
-0.0316167
-0.0294369
-0.0277658
-0.026803
-0.0265097
-0.0268329
-0.027528
-0.0282704
-0.0286258
-0.0284035
-0.0279289
-0.0275797
-0.0270191
-0.0246062
-0.0229324
-0.0220008
-0.0216839
-0.0218251
-0.0222046
-0.0226028
-0.0227997
-0.0228468
-0.0231745
-0.0236291
-0.0214977
-0.0192114
-0.0178432
-0.0172141
-0.0170603
-0.017153
-0.0173362
-0.0175204
-0.0175313
-0.0173677
-0.0177738
-0.0193247
-0.0153252
-0.0133512
-0.0123974
-0.0121585
-0.0122782
-0.0124771
-0.0125772
-0.0125185
-0.0123846
-0.0121839
-0.0123065
-0.0143649
-0.00938
-0.00771135
-0.00713523
-0.00724121
-0.00757079
-0.00781478
-0.00782392
-0.00763922
-0.00724754
-0.00686666
-0.00678544
-0.00839438
-0.00457841
-0.00314751
-0.00271794
-0.00296672
-0.00341244
-0.00368221
-0.00359587
-0.00311088
-0.00238341
-0.00146815
-0.000729279
-0.00131748
-0.00110736
0.000113416
0.000474073
0.00028564
-6.89225e-05
-0.000277286
-0.000101686
0.000571428
0.00175068
0.00330654
0.00515094
0.00614237
0.000899569
0.00229056
0.00276788
0.00264753
0.00236825
0.00226636
0.00254319
0.00334391
0.00478188
0.00690812
0.00975462
0.0121658
0.00186823
0.00343663
0.00417757
0.00429845
0.00413144
0.00402777
0.004295
0.00508396
0.00650592
0.00869843
0.0120551
0.0151319
-0.0485848
-0.0483969
-0.048154
-0.0478931
-0.0476239
-0.0472726
-0.0466981
-0.0459586
-0.0450651
-0.0440555
-0.0429814
-0.041902
-0.0455029
-0.0454385
-0.0455303
-0.0456854
-0.0456937
-0.0454518
-0.045025
-0.0442528
-0.0431354
-0.0417774
-0.0403158
-0.038898
-0.0438978
-0.0440301
-0.0444783
-0.0449808
-0.0452533
-0.0451609
-0.0445813
-0.0435796
-0.0421939
-0.040509
-0.0386719
-0.0368497
-0.0414594
-0.0418291
-0.0425254
-0.043141
-0.0434361
-0.0432863
-0.0426897
-0.0416251
-0.0401198
-0.0382423
-0.036099
-0.0338004
-0.0387133
-0.0391159
-0.0397711
-0.0403204
-0.040557
-0.0403694
-0.0397084
-0.0385701
-0.0369568
-0.0349077
-0.0324484
-0.0296821
-0.0354964
-0.0356409
-0.0360634
-0.0364489
-0.0366112
-0.0363853
-0.0356886
-0.0344766
-0.032721
-0.0304339
-0.0275374
-0.0243617
-0.0321152
-0.0317431
-0.0317644
-0.031983
-0.0321491
-0.0319121
-0.0310897
-0.0295182
-0.0273881
-0.0246097
-0.0214416
-0.0180947
-0.028841
-0.0277585
-0.027483
-0.0278379
-0.0283547
-0.0282314
-0.0269751
-0.0247973
-0.0218804
-0.0185802
-0.0151367
-0.0118682
-0.0256973
-0.023964
-0.0237025
-0.0246086
-0.0257913
-0.0258948
-0.0243503
-0.0213709
-0.0175642
-0.0135816
-0.00987197
-0.00675294
-0.0222517
-0.0201743
-0.0201513
-0.0216938
-0.0235524
-0.0239876
-0.0224051
-0.019065
-0.0147944
-0.0104169
-0.00644717
-0.00321364
-0.0181434
-0.0159578
-0.01636
-0.0186213
-0.0211533
-0.0220843
-0.0206961
-0.0173001
-0.0129302
-0.00853618
-0.00459011
-0.00131854
-0.0135647
-0.0115899
-0.0124628
-0.0155496
-0.0187025
-0.0200752
-0.0190392
-0.015816
-0.0116237
-0.00742627
-0.00362528
-0.000405152
-0.0408839
-0.039983
-0.0392266
-0.0386436
-0.0383133
-0.0382235
-0.0382963
-0.0383513
-0.0381902
-0.0377555
-0.0371659
-0.0366323
-0.0376543
-0.0366365
-0.035856
-0.0354115
-0.0353813
-0.0357532
-0.0363557
-0.0368363
-0.0368184
-0.0361841
-0.0350909
-0.0340933
-0.0351442
-0.0335831
-0.0323121
-0.0315862
-0.0315124
-0.0319985
-0.0328718
-0.033679
-0.0338907
-0.0332161
-0.0320613
-0.0311078
-0.0314501
-0.0292702
-0.0276018
-0.0266446
-0.0263581
-0.0266892
-0.0273892
-0.0281308
-0.0284783
-0.0282415
-0.0277628
-0.02741
-0.0268593
-0.0244462
-0.0227758
-0.0218511
-0.021542
-0.0216882
-0.022068
-0.0224598
-0.0226476
-0.0226854
-0.0230065
-0.0234552
-0.0213463
-0.0190595
-0.0176956
-0.0170745
-0.0169282
-0.0170233
-0.0172051
-0.0173755
-0.0173747
-0.0172038
-0.0176058
-0.0191481
-0.0151776
-0.013202
-0.0122519
-0.0120206
-0.0121462
-0.0123436
-0.012433
-0.0123674
-0.0122228
-0.0120153
-0.0121363
-0.0141891
-0.00922767
-0.00755784
-0.00698457
-0.00709762
-0.0074326
-0.00767535
-0.00767719
-0.00748792
-0.00708268
-0.00669712
-0.00661674
-0.0082258
-0.00441507
-0.00298591
-0.00255763
-0.00281521
-0.00326731
-0.00353693
-0.00344383
-0.00294647
-0.00221259
-0.00130257
-0.000567968
-0.00116208
-0.000929858
0.000294081
0.0006442
0.000446287
8.37384e-05
-0.000127624
5.09871e-05
0.000728727
0.0019032
0.00346325
0.00530108
0.00627972
0.00108582
0.00247594
0.00294343
0.0028132
0.00252688
0.00241995
0.0026969
0.00349999
0.00493781
0.00706283
0.00989693
0.0122899
0.00205461
0.00362366
0.0043575
0.00446851
0.00429512
0.00418328
0.00444922
0.00523896
0.00666174
0.00885534
0.0122061
0.0152732
-0.00589738
-0.00721663
-0.00939265
-0.0134555
-0.0170485
-0.0185575
-0.0174116
-0.0143646
-0.010564
-0.0067487
-0.00320357
-9.27046e-05
-0.00274176
-0.00671375
-0.00936453
-0.0127242
-0.0156389
-0.0166642
-0.0154205
-0.0128038
-0.00962068
-0.00627479
-0.00297338
6.03109e-05
-0.00112422
-0.00565915
-0.0085549
-0.0112092
-0.0134561
-0.0143488
-0.0132865
-0.0113695
-0.00892833
-0.00611019
-0.00305026
2.05844e-05
-9.3483e-05
-0.00388851
-0.0068043
-0.00929964
-0.0114551
-0.0126688
-0.0113876
-0.009899
-0.00799584
-0.00567941
-0.00303521
-0.000326692
0.00238745
0.00406728
0.0050073
0.00536426
0.00535472
0.00525549
0.00538804
0.0059619
0.00701013
0.00837353
0.00950614
0.00689801
0.00253043
0.0042054
0.00526883
0.00581955
0.0059945
0.00589937
0.00591192
0.00619463
0.00670766
0.00717912
0.00680704
0.0044474
0.00259766
0.00415229
0.00530807
0.00594759
0.00623661
0.00605388
0.00605824
0.00614196
0.00622466
0.00616935
0.0054493
0.00372549
0.00217355
0.00346009
0.00494695
0.00579064
0.00625369
0.005769
0.00577967
0.00579958
0.00567016
0.00534492
0.00453981
0.0030147
-0.00603731
-0.00732429
-0.00947275
-0.013521
-0.0171045
-0.018612
-0.0174673
-0.0144215
-0.0106231
-0.00681222
-0.0032721
-0.000165414
-0.00282942
-0.0067872
-0.00941754
-0.0127751
-0.0156909
-0.0167221
-0.0154835
-0.0128704
-0.00969074
-0.00634925
-0.0030519
-2.09678e-05
-0.00115455
-0.00564938
-0.00857581
-0.0112643
-0.0135241
-0.0144259
-0.0133678
-0.0114542
-0.00901499
-0.00619924
-0.0031413
-7.1315e-05
-0.000172244
-0.00384408
-0.00681733
-0.00937989
-0.0115519
-0.0127782
-0.0114965
-0.0100086
-0.00810173
-0.00578295
-0.00313751
-0.000428644
0.0023114
0.00398869
0.0049274
0.00528453
0.00527757
0.00517969
0.00531672
0.0058972
0.00695342
0.00832566
0.00945894
0.00683408
0.00244695
0.00412015
0.00518265
0.00573332
0.00590985
0.00581651
0.00583348
0.00612187
0.00664109
0.00711833
0.00674191
0.00435836
0.00250442
0.00405837
0.00521387
0.00585327
0.00614454
0.00596272
0.00597159
0.00606068
0.00614801
0.00609535
0.00536991
0.0036288
0.00206942
0.00335595
0.00484314
0.0056858
0.00614082
0.00566843
0.0056834
0.00570839
0.00558289
0.00525947
0.00445194
0.0029219
-0.00614064
-0.00743055
-0.00956499
-0.0136002
-0.017183
-0.018694
-0.0175414
-0.0144827
-0.0106718
-0.0068526
-0.00330736
-0.000196992
-0.00295325
-0.00690735
-0.00951452
-0.0128575
-0.0157719
-0.0168039
-0.0155584
-0.0129335
-0.00974312
-0.00639383
-0.00309083
-5.4988e-05
-0.00126749
-0.00575671
-0.00866907
-0.0113486
-0.0136051
-0.0145037
-0.0134397
-0.0115178
-0.00907012
-0.00624719
-0.00318348
-0.000108051
-0.000265731
-0.00393197
-0.00689757
-0.00945481
-0.0116243
-0.0128482
-0.0115638
-0.0100704
-0.00815678
-0.00583186
-0.00318166
-0.000467558
0.00228305
0.00396413
0.0049082
0.00527252
0.00527401
0.00518406
0.00532781
0.0059127
0.00697006
0.00834124
0.00946624
0.0068348
0.0024176
0.00409559
0.00516345
0.00572035
0.00590363
0.0058176
0.00584062
0.00613349
0.00665511
0.00713274
0.00674981
0.00435294
0.00247301
0.00403274
0.00519332
0.00583824
0.00613467
0.0059602
0.00597482
0.00606838
0.00615843
0.00610632
0.00537662
0.00362544
0.00203615
0.00332942
0.00482068
0.00566828
0.00612616
0.00566207
0.00568237
0.00571213
0.00558983
0.005268
0.00446037
0.00293137
-0.00610094
-0.00737612
-0.00948717
-0.0135062
-0.0170921
-0.0186136
-0.0174583
-0.0143853
-0.0105545
-0.00671458
-0.0031501
-2.39437e-05
-0.00294916
-0.00687732
-0.00944916
-0.0127717
-0.0156861
-0.0167247
-0.0154761
-0.0128381
-0.00962968
-0.00626111
-0.00293984
0.000111131
-0.00126184
-0.00572307
-0.00860781
-0.0112722
-0.0135255
-0.0144252
-0.0133568
-0.0114241
-0.00896065
-0.00611975
-0.00303889
5.10894e-05
-0.000242637
-0.00388639
-0.00683152
-0.00937674
-0.0115424
-0.0127684
-0.0114788
-0.00997512
-0.00804752
-0.00570811
-0.00304534
-0.00031801
0.0024657
0.0041484
0.00508726
0.00544289
0.0054337
0.00534126
0.0054821
0.00606531
0.00712269
0.00849692
0.00962774
0.00701879
0.0025934
0.00427351
0.00533826
0.00588987
0.00606652
0.00597742
0.00599508
0.00628349
0.00680269
0.00728269
0.006915
0.00453684
0.00264185
0.00420239
0.0053605
0.00600375
0.00629551
0.00612179
0.0061294
0.00621537
0.00630017
0.0062464
0.00553289
0.00379219
0.0021987
0.00349218
0.00498153
0.00583325
0.00632642
0.00582043
0.00583475
0.00585531
0.00572166
0.00538563
0.0045935
0.00312611
-4.2136e-08
-0.00294608
-0.00565555
-0.00797389
-0.00985849
-0.0109961
-0.00996551
-0.00881178
-0.00718118
-0.00516157
-0.00285485
-0.000554657
-0.000108864
-0.00261061
-0.00497656
-0.00697606
-0.00853706
-0.00932968
-0.00887386
-0.00795557
-0.00652694
-0.00478942
-0.00277308
-0.00073956
-0.000167254
-0.00229489
-0.00434651
-0.00608192
-0.00739899
-0.00805717
-0.00786109
-0.00713863
-0.00596674
-0.00449977
-0.00276732
-0.000996816
-0.000221229
-0.00204506
-0.00380778
-0.00531529
-0.00644623
-0.0070309
-0.00697179
-0.00642792
-0.0054991
-0.00432232
-0.00292648
-0.00153528
0.00161556
0.00310266
0.00453727
0.00536272
0.00583976
0.00563875
0.0056242
0.00552566
0.00525373
0.00474351
0.00381401
0.00230204
0.00144697
0.0029581
0.00427073
0.00505655
0.00546914
0.00546471
0.0054278
0.00528957
0.00496809
0.00438944
0.00342514
0.00194194
0.00151435
0.00303672
0.0041335
0.00481245
0.00516765
0.00521975
0.00514734
0.00494851
0.00456723
0.00393784
0.00297208
0.00158478
0.00197027
0.00336934
0.00414146
0.00465835
0.00493553
0.0049792
0.00487303
0.00462438
0.00419596
0.00353663
0.00258649
0.00129887
-0.000117168
-0.00298392
-0.00572121
-0.00808117
-0.00997185
-0.0111178
-0.0100827
-0.00892591
-0.00728841
-0.0052669
-0.00295881
-0.000658116
-0.000190719
-0.00266735
-0.0050499
-0.00708429
-0.00864675
-0.00944403
-0.00898639
-0.00806854
-0.00662907
-0.00489221
-0.00287498
-0.000840604
-0.000259825
-0.00235825
-0.00441863
-0.00618287
-0.00750426
-0.00816559
-0.00796901
-0.00724549
-0.00606816
-0.00460027
-0.00286626
-0.00109357
-0.000320342
-0.00211785
-0.00388249
-0.00540922
-0.00654578
-0.00713358
-0.00707484
-0.00653003
-0.00559823
-0.00441999
-0.00302295
-0.00162795
0.00150969
0.00299542
0.0044299
0.00525411
0.00572746
0.0055361
0.00552441
0.00543007
0.00516171
0.00465385
0.00372489
0.00221372
0.00134113
0.00284915
0.00416191
0.00494748
0.0053601
0.00536098
0.00532746
0.00519302
0.00487506
0.00429932
0.00333716
0.00185623
0.00140841
0.00292567
0.00402309
0.0047029
0.00505953
0.00511552
0.0050467
0.00485149
0.00447368
0.00384743
0.00288444
0.00149993
0.00186373
0.0032572
0.00403024
0.00454861
0.00482789
0.00487493
0.00477221
0.00452705
0.00410209
0.00344601
0.00249892
0.00121428
-0.000202668
-0.00306423
-0.00579622
-0.00815249
-0.0100416
-0.0111853
-0.010148
-0.00898749
-0.00734407
-0.00531702
-0.00300368
-0.000696809
-0.000273329
-0.00274598
-0.0051246
-0.0071558
-0.00871696
-0.00951133
-0.00905097
-0.00813024
-0.00668444
-0.00494253
-0.00291934
-0.000877843
-0.00034159
-0.00243652
-0.00449357
-0.0062549
-0.00757417
-0.00823272
-0.0080332
-0.00730624
-0.00612385
-0.00465103
-0.00290995
-0.00112952
-0.000401909
-0.00219616
-0.00395762
-0.00548142
-0.00661546
-0.00720044
-0.00713862
-0.00659024
-0.00565384
-0.00447058
-0.0030676
-0.0016646
0.00147816
0.00296924
0.00440782
0.00523617
0.00571263
0.00552921
0.00552248
0.00543301
0.00516841
0.00466342
0.00373745
0.00223243
0.00131036
0.00282294
0.00414045
0.00493047
0.00534749
0.00535459
0.00532627
0.00519689
0.00488345
0.00431188
0.00335439
0.00188053
0.00137816
0.00289945
0.00400199
0.00468666
0.00504817
0.00510982
0.00504639
0.00485644
0.00448371
0.00386253
0.00290527
0.00152819
0.00183492
0.00323184
0.00400997
0.0045333
0.00481762
0.0048701
0.00477278
0.00453303
0.00411347
0.00346298
0.0025221
0.00124497
-0.000170615
-0.00301512
-0.00573089
-0.00807642
-0.00996135
-0.011104
-0.0100621
-0.00889247
-0.00723462
-0.00519407
-0.00287013
-0.00055476
-0.000237612
-0.00269627
-0.0050619
-0.00708356
-0.00863959
-0.00943018
-0.00896385
-0.00803496
-0.00657405
-0.00482039
-0.00278755
-0.000737694
-0.000303403
-0.00238665
-0.00443283
-0.00618523
-0.0074982
-0.00815129
-0.00794517
-0.00720935
-0.00601467
-0.00453105
-0.002781
-0.00099311
-0.000362173
-0.00214614
-0.00389771
-0.00541311
-0.00654024
-0.00711889
-0.0070501
-0.00649324
-0.00554664
-0.00435423
-0.00294284
-0.00153505
0.00163126
0.00312722
0.00456692
0.00540164
0.00589661
0.00568129
0.00567286
0.00557857
0.00531055
0.00479933
0.00386867
0.002382
0.00146075
0.0029788
0.0042985
0.00509335
0.00551653
0.00551052
0.0054787
0.00534578
0.00503174
0.00446288
0.00350758
0.00202806
0.00152609
0.00305343
0.00415846
0.00484649
0.00520998
0.00526577
0.00519876
0.00500556
0.00463014
0.00400879
0.00305544
0.00168117
0.00198091
0.00338458
0.00416488
0.00469041
0.00497528
0.00502437
0.0049239
0.00468088
0.0042572
0.00360224
0.00266002
0.00138773
-0.000250581
-0.00182825
-0.00335912
-0.00467704
-0.0056641
-0.00619952
-0.00622937
-0.00583951
-0.00512298
-0.00420467
-0.00319111
-0.00232332
-0.000254203
-0.00164335
-0.00298959
-0.00415594
-0.00503608
-0.0055396
-0.00563282
-0.00536776
-0.00482348
-0.0041106
-0.00334536
-0.0027031
-0.000252197
-0.00149562
-0.00269643
-0.00374246
-0.00454165
-0.00502288
-0.00516212
-0.00499442
-0.00458699
-0.00403673
-0.00345399
-0.00298036
-0.000250753
-0.00137832
-0.00246521
-0.00341685
-0.00415381
-0.00461853
-0.00479156
-0.00469994
-0.00440094
-0.003979
-0.00353201
-0.0031785
-0.0002503
-0.00128386
-0.00228166
-0.00315952
-0.00384842
-0.00430039
-0.00449948
-0.00446771
-0.00425435
-0.00393299
-0.00358891
-0.00332268
-0.000243336
-0.00120732
-0.00213597
-0.0029564
-0.00360829
-0.00405061
-0.00427016
-0.00428526
-0.00413904
-0.00389588
-0.00363006
-0.00342758
-0.000232155
-0.00114535
-0.00202123
-0.00279751
-0.00342106
-0.00385616
-0.00409175
-0.0041433
-0.00404917
-0.00386623
-0.00365971
-0.00350387
-0.000221019
-0.00109605
-0.00193226
-0.00267522
-0.00327753
-0.00370731
-0.00395534
-0.00403487
-0.0039805
-0.00384325
-0.00368118
-0.00355926
-0.000212403
-0.001058
-0.00186515
-0.00258379
-0.00317073
-0.00359661
-0.00385422
-0.00395467
-0.00392987
-0.00382641
-0.0036969
-0.00359925
-0.000205532
-0.00102973
-0.00181685
-0.00251877
-0.00309535
-0.00351838
-0.00378336
-0.0038987
-0.00389493
-0.00381538
-0.00370875
-0.00362779
-0.000193914
-0.00100977
-0.00178495
-0.00247664
-0.00304735
-0.00347161
-0.00373891
-0.00386394
-0.00387387
-0.00380988
-0.003718
-0.00364779
-0.000186802
-0.000998042
-0.0017674
-0.00245389
-0.00302078
-0.00344623
-0.00371706
-0.0038475
-0.00386472
-0.00380878
-0.00372468
-0.00366143
0.0030557
0.00375289
0.00420998
0.00455984
0.00475013
0.00475982
0.00462212
0.00433918
0.00388373
0.00321733
0.00230018
0.00110999
0.00364566
0.0039849
0.00426043
0.00448404
0.00459604
0.00456493
0.00439679
0.00408759
0.00361599
0.00295389
0.00207629
0.000976595
0.00395784
0.00412122
0.00428253
0.00441622
0.00446432
0.00439457
0.00419922
0.00386964
0.00338817
0.00273467
0.00189504
0.000874159
0.00411529
0.0041944
0.00428354
0.00435286
0.00435076
0.00424761
0.00402917
0.00368416
0.00319746
0.00255469
0.00174932
0.000794165
0.00419532
0.00422994
0.00427163
0.00429426
0.00425338
0.00412272
0.00388531
0.0035287
0.00303972
0.0024082
0.00163243
0.00072612
0.00423411
0.00424357
0.00425306
0.00424151
0.00417103
0.00401843
0.00376589
0.00340066
0.00291117
0.00229032
0.0015397
0.000673997
0.00425007
0.00424472
0.0042321
0.00419559
0.00410291
0.00393327
0.00366903
0.0032975
0.0028085
0.00219716
0.00146739
0.000634872
0.00425354
0.00423923
0.00421156
0.00415718
0.00404827
0.00386588
0.0035929
0.00321691
0.00272885
0.00212553
0.00141251
0.00060635
0.00425032
0.00423074
0.00419321
0.00412661
0.00400642
0.00381498
0.00353581
0.0031568
0.00266979
0.00207282
0.00137263
0.000586688
0.00424369
0.00422134
0.00417802
0.00410385
0.00397659
0.00377937
0.00349622
0.00311536
0.00262929
0.00203694
0.00134584
0.000574347
0.0042352
0.00421217
0.00416641
0.00408865
0.00395792
0.00375779
0.00347261
0.00309086
0.00260553
0.00201613
0.00133064
0.000566618
0.00422532
0.00420444
0.00415874
0.0040803
0.00394872
0.00374802
0.00346228
0.00308041
0.0025956
0.00200772
0.00132499
0.000564776
-0.000337243
-0.00190434
-0.00343543
-0.00476522
-0.00575798
-0.00629677
-0.00632787
-0.00593774
-0.00521958
-0.00429988
-0.00328469
-0.00241261
-0.000332283
-0.00171678
-0.00306429
-0.00423927
-0.00512511
-0.00563234
-0.00572752
-0.00546286
-0.00491777
-0.00420377
-0.00343694
-0.00279207
-0.000327253
-0.00156619
-0.00276904
-0.00382217
-0.00462693
-0.00511213
-0.00525379
-0.00508701
-0.00467932
-0.00412824
-0.00354418
-0.00306891
-0.000321384
-0.00144611
-0.00253622
-0.00349403
-0.00423633
-0.00470509
-0.00488088
-0.00479053
-0.00449166
-0.00406919
-0.00362121
-0.00326663
-0.000307643
-0.00134863
-0.00235115
-0.00323485
-0.00392888
-0.0043849
-0.00458686
-0.00455661
-0.00434373
-0.00402214
-0.00367737
-0.00341045
-0.000295
-0.00126964
-0.00220423
-0.00303034
-0.0036872
-0.00413353
-0.00435597
-0.00437279
-0.00422732
-0.0039842
-0.00371795
-0.00351503
-0.000283988
-0.00120638
-0.00208853
-0.00287041
-0.00349878
-0.00393785
-0.00417636
-0.00422978
-0.00413659
-0.00395389
-0.00374717
-0.00359105
-0.000274583
-0.00115657
-0.00199894
-0.00274732
-0.00335436
-0.00378808
-0.00403905
-0.00412054
-0.00406725
-0.00393041
-0.0037683
-0.00364624
-0.000266584
-0.00111848
-0.00193148
-0.00265535
-0.00324692
-0.00367672
-0.00393727
-0.00403973
-0.00401614
-0.0039132
-0.00378379
-0.00368608
-0.000259598
-0.00109049
-0.00188305
-0.00258998
-0.0031711
-0.00359803
-0.00386593
-0.00398334
-0.00398084
-0.00390191
-0.00379547
-0.00371451
-0.0002518
-0.00107108
-0.00185107
-0.00254763
-0.0031228
-0.00355088
-0.00382118
-0.0039483
-0.00395956
-0.00389625
-0.00380463
-0.00373448
-0.00024627
-0.00105969
-0.00183349
-0.00252479
-0.00309615
-0.00352532
-0.00379916
-0.00393172
-0.0039503
-0.00389509
-0.00381128
-0.00374812
0.00294554
0.00364061
0.00409878
0.00445029
0.00464293
0.00465574
0.00452132
0.00424175
0.0037897
0.00312663
0.00221268
0.00102558
0.00353438
0.003873
0.00414964
0.00437492
0.00448928
0.00446113
0.00429615
0.00399022
0.00352196
0.00286322
0.00198891
0.000892252
0.00384646
0.00400983
0.00417224
0.00430761
0.00435802
0.00429108
0.0040988
0.00377242
0.00329423
0.00264408
0.00180785
0.000790099
0.00400417
0.00408354
0.00417378
0.00424478
0.0042449
0.00414445
0.00392898
0.00358709
0.00310362
0.0024642
0.00166236
0.000711531
0.00408457
0.0041196
0.00416237
0.00418666
0.00414793
0.00401988
0.00378535
0.00343178
0.00294599
0.0023178
0.00154552
0.000643047
0.00412377
0.00413371
0.00414427
0.00413434
0.00406596
0.00391588
0.00366614
0.00330388
0.00281754
0.00219999
0.00145278
0.000590622
0.00414011
0.00413527
0.00412371
0.00408879
0.00399816
0.00383098
0.00356946
0.00320085
0.00271496
0.00210688
0.00138046
0.000551347
0.00414393
0.00413014
0.00410351
0.00405069
0.00394379
0.00376379
0.00349348
0.00312036
0.00263538
0.00203529
0.00132558
0.000522775
0.00414099
0.00412192
0.00408543
0.00402036
0.00390215
0.00371306
0.00343651
0.00306035
0.00257639
0.00198261
0.00128569
0.000503099
0.00413457
0.00411273
0.00407043
0.00399779
0.00387246
0.00367756
0.003397
0.00301896
0.00253592
0.00194674
0.00125889
0.000490781
0.00412622
0.00410371
0.00405896
0.0039827
0.0038539
0.00365606
0.00337345
0.00299451
0.0025122
0.00192594
0.00124365
0.000482748
0.00411643
0.00409606
0.00405137
0.00397442
0.00384474
0.00364632
0.00336315
0.00298407
0.00250227
0.00191753
0.00123798
0.000480791
-0.000418706
-0.00198268
-0.00351065
-0.00483747
-0.00582748
-0.00636334
-0.00639128
-0.00599759
-0.0052752
-0.00435087
-0.00333057
-0.00245266
-0.000413667
-0.00179516
-0.00313953
-0.00431149
-0.00519444
-0.00569868
-0.00579069
-0.00552257
-0.0049736
-0.00425547
-0.00348438
-0.00283561
-0.000408882
-0.00164471
-0.00284435
-0.0038944
-0.00469619
-0.00517837
-0.00531689
-0.00514677
-0.0047355
-0.00418077
-0.00359317
-0.00311518
-0.000404477
-0.00152485
-0.00261163
-0.00356633
-0.00430561
-0.00477133
-0.00494399
-0.00485042
-0.00454825
-0.00412254
-0.00367159
-0.00331498
-0.000390296
-0.00142747
-0.00242666
-0.00330723
-0.00399821
-0.00445119
-0.00465007
-0.00461672
-0.00440074
-0.00407623
-0.00372892
-0.0034604
-0.000377341
-0.00134854
-0.00227983
-0.00310279
-0.00375659
-0.0041999
-0.00441932
-0.00443314
-0.00428475
-0.00403894
-0.00377048
-0.00356623
-0.000366146
-0.0012853
-0.0021642
-0.00294292
-0.00356823
-0.0040043
-0.00423985
-0.00429035
-0.00419437
-0.00400919
-0.00380048
-0.00364322
-0.000356647
-0.00123552
-0.00207467
-0.00281989
-0.00342387
-0.0038546
-0.00410265
-0.0041813
-0.00412535
-0.00398616