/*--------------------------------*- C++ -*----------------------------------*\
| =========                 |                                                 |
| \\      /  F ield         | OpenFOAM: The Open Source CFD Toolbox           |
|  \\    /   O peration     | Version:  2.3.1                                 |
|   \\  /    A nd           | Web:      www.OpenFOAM.org                      |
|    \\/     M anipulation  |                                                 |
\*---------------------------------------------------------------------------*/
FoamFile
{
    version     2.0;
    format      ascii;
    class       surfaceScalarField;
    location    "1";
    object      phi;
}
// * * * * * * * * * * * * * * * * * * * * * * * * * * * * * * * * * * * * * //

dimensions      [0 3 -1 0 0 0 0];

internalField   nonuniform List<scalar> 
5856
(
-4.45579e-08
4.4558e-08
-2.8238e-08
-1.63199e-08
1.03554e-07
-1.31792e-07
2.72132e-07
-1.68578e-07
4.09218e-07
-1.37087e-07
4.752e-07
-6.59819e-08
4.77729e-07
-2.52933e-09
4.25664e-07
5.20655e-08
3.26483e-07
9.91814e-08
2.02296e-07
1.24186e-07
8.82198e-08
1.14077e-07
6.39274e-08
2.42924e-08
-1.71777e-08
6.17357e-08
1.54042e-07
-1.87539e-07
3.36563e-07
-3.14313e-07
4.77818e-07
-3.09833e-07
5.66409e-07
-2.25678e-07
6.21265e-07
-1.20837e-07
6.38338e-07
-1.96029e-08
5.83732e-07
1.06672e-07
4.81905e-07
2.01009e-07
3.4435e-07
2.61741e-07
1.8941e-07
2.69016e-07
2.1452e-07
3.88175e-08
8.29118e-08
-2.11761e-08
2.36188e-07
-3.40815e-07
3.31466e-07
-4.09592e-07
3.53086e-07
-3.31453e-07
3.34487e-07
-2.07078e-07
2.95564e-07
-8.19136e-08
2.40758e-07
3.52024e-08
2.03345e-07
1.44086e-07
1.5285e-07
2.51503e-07
7.34654e-08
3.41126e-07
-5.4243e-08
3.96724e-07
4.36554e-07
-2.76276e-07
5.84952e-08
-7.96712e-08
5.61134e-08
-3.38433e-07
-5.56087e-08
-2.9787e-07
-2.17595e-07
-1.69466e-07
-3.61553e-07
-6.31208e-08
-4.47756e-07
4.28943e-09
-4.65114e-07
5.25606e-08
-4.31787e-07
1.10759e-07
-3.80823e-07
2.00539e-07
-3.63143e-07
3.23445e-07
-4.4359e-07
4.77172e-07
6.85883e-07
-6.92919e-07
-7.60297e-08
-3.6414e-09
-3.17591e-07
-9.68716e-08
-6.51505e-07
3.6044e-08
-9.69478e-07
1.48507e-07
-1.19597e-06
1.63373e-07
-1.29126e-06
9.95813e-08
-1.26065e-06
2.19496e-08
-1.13041e-06
-1.94858e-08
-9.5863e-07
2.87617e-08
-8.21318e-07
1.86134e-07
-7.91767e-07
4.47621e-07
8.14711e-07
-9.20596e-07
-2.98083e-07
2.94442e-07
-7.87699e-07
3.92745e-07
-1.33433e-06
5.82678e-07
-1.82588e-06
6.40053e-07
-2.16735e-06
5.0484e-07
-2.29978e-06
2.32011e-07
-2.21887e-06
-5.8959e-08
-1.95391e-06
-2.8444e-07
-1.6014e-06
-3.23755e-07
-1.27752e-06
-1.37747e-07
-1.03033e-06
2.00429e-07
6.72952e-07
-8.88566e-07
-5.12771e-07
8.07213e-07
-1.19786e-06
1.07783e-06
-1.92252e-06
1.30735e-06
-2.56923e-06
1.28676e-06
-3.02498e-06
9.60582e-07
-3.21363e-06
4.20666e-07
-3.12228e-06
-1.50306e-07
-2.78893e-06
-6.17797e-07
-2.28011e-06
-8.32575e-07
-1.67752e-06
-7.40329e-07
-1.13057e-06
-3.46528e-07
1.97888e-07
-6.55501e-07
-5.77563e-07
1.38478e-06
-1.2945e-06
1.79477e-06
-2.01805e-06
2.03089e-06
-2.63806e-06
1.90678e-06
-3.05157e-06
1.37409e-06
-3.21071e-06
5.79805e-07
-3.13075e-06
-2.30265e-07
-2.86744e-06
-8.81104e-07
-2.43373e-06
-1.26629e-06
-1.83105e-06
-1.34301e-06
-1.08329e-06
-1.09429e-06
-5.64587e-07
-3.20812e-07
-4.10694e-07
1.79547e-06
-9.2897e-07
2.31305e-06
-1.41039e-06
2.51231e-06
-1.77396e-06
2.27035e-06
-1.95676e-06
1.55689e-06
-1.96389e-06
5.86938e-07
-1.85108e-06
-3.43073e-07
-1.67123e-06
-1.06096e-06
-1.44317e-06
-1.49434e-06
-1.12972e-06
-1.65646e-06
-6.42139e-07
-1.58187e-06
-1.27663e-06
6.99082e-08
-7.22089e-08
1.86768e-06
-2.34442e-07
2.47528e-06
-3.21728e-07
2.59959e-06
-3.52226e-07
2.30085e-06
-3.19488e-07
1.52415e-06
-2.30411e-07
4.9786e-07
-7.67463e-08
-4.96737e-07
1.12128e-07
-1.24984e-06
2.96463e-07
-1.67868e-06
4.66932e-07
-1.82693e-06
6.64858e-07
-1.77979e-06
-1.59695e-06
9.8517e-07
3.61617e-07
1.50606e-06
6.00037e-07
2.23686e-06
8.70844e-07
2.32879e-06
1.12705e-06
2.04465e-06
1.33894e-06
1.31226e-06
1.52506e-06
3.11735e-07
1.70277e-06
-6.74438e-07
1.85943e-06
-1.40651e-06
1.99403e-06
-1.81327e-06
2.12897e-06
-1.96187e-06
2.28327e-06
-1.9341e-06
-1.77544e-06
2.46177e-06
4.85045e-07
1.02102e-06
1.23044e-06
1.49147e-06
1.92443e-06
1.63479e-06
2.50134e-06
1.46774e-06
2.94783e-06
8.65769e-07
3.27823e-06
-1.86701e-08
3.48371e-06
-8.79919e-07
3.58085e-06
-1.50364e-06
3.61879e-06
-1.85122e-06
3.65452e-06
-1.99759e-06
3.7285e-06
-2.00809e-06
3.85551e-06
-1.90245e-06
2.93287e-08
-5.03633e-09
7.5604e-08
-4.62752e-08
1.37649e-07
-6.20445e-08
2.44108e-07
-1.0646e-07
3.98952e-07
-1.54844e-07
5.77207e-07
-1.78255e-07
7.33201e-07
-1.55995e-07
8.05131e-07
-7.19298e-08
7.45954e-07
5.91773e-08
5.4203e-07
2.03924e-07
2.41749e-07
3.00281e-07
2.41749e-07
-1.22979e-07
1.5676e-07
-3.21645e-07
1.52391e-07
-4.92513e-07
1.08823e-07
-5.58203e-07
-4.07689e-08
-4.98222e-07
-2.14825e-07
-3.32995e-07
-3.43482e-07
-1.12081e-07
-3.76909e-07
9.63471e-08
-2.80358e-07
2.33969e-07
-7.84447e-08
2.22327e-07
2.15566e-07
9.8565e-08
4.24043e-07
3.40314e-07
-6.33463e-07
5.13946e-07
-1.03637e-06
5.55301e-07
-1.36351e-06
4.35959e-07
-1.58968e-06
1.85397e-07
-1.70668e-06
-9.78231e-08
-1.67085e-06
-3.79305e-07
-1.46929e-06
-5.78476e-07
-1.11727e-06
-6.3238e-07
-7.06211e-07
-4.89499e-07
-3.54642e-07
-1.36002e-07
-1.14315e-07
1.83716e-07
2.25999e-07
-1.10212e-06
9.23144e-07
-1.55391e-06
1.00709e-06
-1.97297e-06
8.55026e-07
-2.33904e-06
5.51468e-07
-2.60865e-06
1.71788e-07
-2.73897e-06
-2.48986e-07
-2.66113e-06
-6.56321e-07
-2.31349e-06
-9.80018e-07
-1.68467e-06
-1.11832e-06
-8.60603e-07
-9.60074e-07
-1.97692e-07
-4.79195e-07
2.83069e-08
-1.16897e-06
1.17152e-06
-1.46515e-06
1.30327e-06
-1.78833e-06
1.17821e-06
-2.13519e-06
8.98334e-07
-2.47517e-06
5.11766e-07
-2.75511e-06
3.09565e-08
-2.90539e-06
-5.06046e-07
-2.83992e-06
-1.04548e-06
-2.43352e-06
-1.52471e-06
-1.59639e-06
-1.79721e-06
-5.20643e-07
-1.55494e-06
-4.92336e-07
-8.34822e-07
1.11777e-06
-8.49282e-07
1.31773e-06
-9.27102e-07
1.25603e-06
-1.06182e-06
1.03306e-06
-1.25443e-06
7.04373e-07
-1.51508e-06
2.91602e-07
-1.81202e-06
-2.09105e-07
-2.07314e-06
-7.84357e-07
-2.16958e-06
-1.42828e-06
-1.88179e-06
-2.085e-06
-9.92774e-07
-2.44395e-06
-1.48511e-06
-2.65978e-07
7.28251e-07
1.36559e-08
1.03809e-06
1.71446e-07
1.09824e-06
2.2907e-07
9.75433e-07
2.05575e-07
7.27868e-07
1.00987e-07
3.96191e-07
-1.17721e-07
9.60215e-09
-4.55981e-07
-4.46097e-07
-8.58636e-07
-1.02563e-06
-1.18527e-06
-1.75836e-06
-9.94544e-07
-2.63468e-06
-2.47965e-06
3.63235e-07
4.42043e-08
8.88925e-07
5.12403e-07
1.23407e-06
7.53088e-07
1.41781e-06
7.91695e-07
1.4668e-06
6.7888e-07
1.3964e-06
4.66591e-07
1.2178e-06
1.88196e-07
9.30502e-07
-1.58795e-07
5.34123e-07
-6.29248e-07
4.18517e-08
-1.26609e-06
-3.6787e-07
-2.22496e-06
-2.84752e-06
8.91648e-07
-7.77535e-07
1.63116e-06
-2.2711e-07
2.16037e-06
2.23882e-07
2.46075e-06
4.91311e-07
2.55991e-06
5.79719e-07
2.49846e-06
5.28041e-07
2.30704e-06
3.79622e-07
1.99857e-06
1.49669e-07
1.56021e-06
-1.90884e-07
1.02547e-06
-7.31348e-07
3.72836e-07
-1.57233e-06
-2.47469e-06
1.50548e-06
-1.29785e-06
2.17197e-06
-8.93602e-07
2.82151e-06
-4.25656e-07
3.29169e-06
2.11358e-08
3.51469e-06
3.56718e-07
3.50378e-06
5.38944e-07
3.30943e-06
5.73979e-07
2.97245e-06
4.86643e-07
2.49791e-06
2.83659e-07
1.83857e-06
-7.20081e-08
1.00909e-06
-7.42851e-07
-1.46559e-06
2.68258e-06
-1.51865e-06
2.98949e-06
-1.20051e-06
3.40424e-06
-8.40402e-07
3.85986e-06
-4.34491e-07
4.21873e-06
-2.14947e-09
4.36761e-06
3.9006e-07
4.27484e-06
6.66758e-07
3.96607e-06
7.95409e-07
3.46472e-06
7.85012e-07
2.75254e-06
6.40171e-07
1.70427e-06
3.05422e-07
2.38672e-07
4.01719e-06
-1.68034e-06
4.17938e-06
-1.3627e-06
4.34031e-06
-1.00133e-06
4.53926e-06
-6.33439e-07
4.78686e-06
-2.49748e-07
5.00674e-06
1.70183e-07
5.08564e-06
5.8786e-07
4.94682e-06
9.34224e-07
4.55947e-06
1.17236e-06
3.85019e-06
1.34945e-06
2.55684e-06
1.59878e-06
2.79551e-06
-4.4959e-08
4.4959e-08
-2.91083e-08
-1.58506e-08
1.01662e-07
-1.3077e-07
2.69611e-07
-1.67949e-07
4.06276e-07
-1.36665e-07
4.71823e-07
-6.55478e-08
4.74239e-07
-2.41509e-09
4.22209e-07
5.20296e-08
3.23259e-07
9.89497e-08
1.9955e-07
1.2371e-07
8.62044e-08
1.13345e-07
6.30441e-08
2.31603e-08
-1.80651e-08
6.30241e-08
1.52124e-07
-1.8604e-07
3.34227e-07
-3.12873e-07
4.75015e-07
-3.08737e-07
5.63235e-07
-2.24884e-07
6.18016e-07
-1.20329e-07
6.34602e-07
-1.90007e-08
5.79717e-07
1.06914e-07
4.77717e-07
2.00949e-07
3.40222e-07
2.61205e-07
1.85698e-07
2.67869e-07
2.13058e-07
3.56844e-08
8.25757e-08
-1.95515e-08
2.35196e-07
-3.38661e-07
3.30287e-07
-4.07963e-07
3.51771e-07
-3.30221e-07
3.3299e-07
-2.06103e-07
2.9363e-07
-8.09688e-08
2.38631e-07
3.5998e-08
2.00822e-07
1.44723e-07
1.49905e-07
2.51866e-07
7.01303e-08
3.4098e-07
-5.80661e-08
3.96065e-07
4.36209e-07
-2.81217e-07
5.80625e-08
-7.7614e-08
5.60136e-08
-3.36612e-07
-5.55557e-08
-2.96394e-07
-2.17654e-07
-1.68124e-07
-3.6186e-07
-6.18965e-08
-4.48234e-07
5.40544e-09
-4.65788e-07
5.35516e-08
-4.32742e-07
1.11677e-07
-3.8228e-07
2.01404e-07
-3.65401e-07
3.24102e-07
-4.47204e-07
4.77869e-07
6.87455e-07
-6.9845e-07
-7.58714e-08
-1.74261e-09
-3.16839e-07
-9.56446e-08
-6.50848e-07
3.76156e-08
-9.68978e-07
1.50007e-07
-1.19565e-06
1.64772e-07
-1.291e-06
1.00757e-07
-1.26045e-06
2.29992e-08
-1.13041e-06
-1.83607e-08
-9.58986e-07
2.99815e-08
-8.22609e-07
1.87725e-07
-7.94584e-07
4.49844e-07
8.17759e-07
-9.24888e-07
-2.97554e-07
2.95811e-07
-7.87227e-07
3.94028e-07
-1.33384e-06
5.84227e-07
-1.82551e-06
6.41675e-07
-2.16692e-06
5.06184e-07
-2.29906e-06
2.32894e-07
-2.21793e-06
-5.8124e-08
-1.95294e-06
-2.83356e-07
-1.6008e-06
-3.22156e-07
-1.27774e-06
-1.35337e-07
-1.03153e-06
2.03635e-07
6.76677e-07
-8.90446e-07
-5.12562e-07
8.08373e-07
-1.19777e-06
1.07924e-06
-1.92283e-06
1.30928e-06
-2.56997e-06
1.28882e-06
-3.02583e-06
9.62046e-07
-3.21423e-06
4.2129e-07
-3.12229e-06
-1.50061e-07
-2.78827e-06
-6.17378e-07
-2.27909e-06
-8.31336e-07
-1.67653e-06
-7.37899e-07
-1.13009e-06
-3.42796e-07
2.01685e-07
-6.55103e-07
-5.77885e-07
1.38626e-06
-1.29549e-06
1.79684e-06
-2.02007e-06
2.03386e-06
-2.64103e-06
1.90978e-06
-3.05493e-06
1.37594e-06
-3.21385e-06
5.80207e-07
-3.13318e-06
-2.30725e-07
-2.86899e-06
-8.81574e-07
-2.43429e-06
-1.26603e-06
-1.83066e-06
-1.34153e-06
-1.08201e-06
-1.09145e-06
-5.61092e-07
-3.19234e-07
-4.11822e-07
1.79808e-06
-9.31233e-07
2.31625e-06
-1.41383e-06
2.51646e-06
-1.77829e-06
2.27424e-06
-1.96134e-06
1.559e-06
-1.96815e-06
5.87021e-07
-1.85493e-06
-3.43944e-07
-1.67466e-06
-1.06185e-06
-1.44608e-06
-1.49461e-06
-1.13177e-06
-1.65584e-06
-6.42867e-07
-1.58035e-06
-1.27443e-06
7.04758e-08
-7.40277e-08
1.87211e-06
-2.37318e-07
2.47954e-06
-3.25235e-07
2.60437e-06
-3.55989e-07
2.305e-06
-3.23218e-07
1.52622e-06
-2.34074e-07
4.97877e-07
-8.04937e-08
-4.97524e-07
1.0829e-07
-1.25063e-06
2.92561e-07
-1.67888e-06
4.63104e-07
-1.82639e-06
6.61558e-07
-1.7788e-06
-1.59589e-06
9.83013e-07
3.59485e-07
1.51262e-06
5.97329e-07
2.2417e-06
8.68443e-07
2.33326e-06
1.12494e-06
2.04851e-06
1.33676e-06
1.3144e-06
1.52232e-06
3.12324e-07
1.69938e-06
-6.74588e-07
1.85546e-06
-1.40671e-06
1.98966e-06
-1.81308e-06
2.12447e-06
-1.96119e-06
2.27895e-06
-1.93328e-06
-1.77493e-06
2.45798e-06
4.81283e-07
1.03134e-06
1.2271e-06
1.49588e-06
1.92226e-06
1.63809e-06
2.49965e-06
1.47111e-06
2.94581e-06
8.68245e-07
3.27567e-06
-1.7539e-08
3.48062e-06
-8.79543e-07
3.57726e-06
-1.50335e-06
3.61474e-06
-1.85056e-06
3.6502e-06
-1.99665e-06
3.72422e-06
-2.0073e-06
3.85156e-06
-1.90226e-06
2.88444e-08
-5.6841e-09
7.51908e-08
-4.63464e-08
1.3711e-07
-6.19191e-08
2.4342e-07
-1.0631e-07
3.97976e-07
-1.54556e-07
5.75857e-07
-1.77881e-07
7.31472e-07
-1.55614e-07
8.03198e-07
-7.17261e-08
7.44067e-07
5.91305e-08
5.40642e-07
2.03425e-07
2.41117e-07
2.99525e-07
2.41117e-07
-1.26186e-07
1.56186e-07
-3.25302e-07
1.5277e-07
-4.96307e-07
1.09085e-07
-5.61989e-07
-4.0628e-08
-5.02079e-07
-2.14466e-07
-3.37018e-07
-3.42942e-07
-1.16153e-07
-3.76479e-07
9.25303e-08
-2.80409e-07
2.30686e-07
-7.90251e-08
2.20218e-07
2.13893e-07
9.7669e-08
4.22074e-07
3.38786e-07
-6.39707e-07
5.14676e-07
-1.04294e-06
5.56001e-07
-1.37008e-06
4.36225e-07
-1.5965e-06
1.85795e-07
-1.71377e-06
-9.7198e-08
-1.6782e-06
-3.7851e-07
-1.47652e-06
-5.78158e-07
-1.12376e-06
-6.33169e-07
-7.10962e-07
-4.91825e-07
-3.56314e-07
-1.40754e-07
-1.1443e-07
1.8019e-07
2.24356e-07
-1.10888e-06
9.25104e-07
-1.56095e-06
1.00807e-06
-1.98016e-06
8.55442e-07
-2.34649e-06
5.52119e-07
-2.61643e-06
1.72741e-07
-2.74682e-06
-2.4812e-07
-2.66903e-06
-6.55942e-07
-2.32112e-06
-9.81081e-07
-1.69103e-06
-1.12191e-06
-8.6507e-07
-9.66716e-07
-1.98644e-07
-4.86237e-07
2.57123e-08
-1.17388e-06
1.1741e-06
-1.47011e-06
1.3043e-06
-1.79317e-06
1.1785e-06
-2.13969e-06
8.9864e-07
-2.47917e-06
5.12216e-07
-2.75878e-06
3.1497e-08
-2.90908e-06
-5.05641e-07
-2.84425e-06
-1.04592e-06
-2.43898e-06
-1.52718e-06
-1.60239e-06
-1.80331e-06
-5.24163e-07
-1.56447e-06
-4.98451e-07
-8.36886e-07
1.12054e-06
-8.51232e-07
1.31865e-06
-9.28587e-07
1.25585e-06
-1.0624e-06
1.03245e-06
-1.25376e-06
7.03582e-07
-1.51311e-06
2.90839e-07
-1.80931e-06
-2.0944e-07
-2.07044e-06
-7.84782e-07
-2.16848e-06
-1.42914e-06
-1.88387e-06
-2.08791e-06
-9.96567e-07
-2.45177e-06
-1.49502e-06
-2.656e-07
7.31034e-07
1.40402e-08
1.03901e-06
1.72191e-07
1.0977e-06
2.30561e-07
9.7408e-07
2.08034e-07
7.26109e-07
1.04505e-07
3.94369e-07
-1.12901e-07
7.9661e-09
-4.50226e-07
-4.47457e-07
-8.52595e-07
-1.02678e-06
-1.18111e-06
-1.7594e-06
-9.94265e-07
-2.63862e-06
-2.48928e-06
3.64747e-07
4.70527e-08
8.90275e-07
5.13479e-07
1.23551e-06
7.52465e-07
1.41962e-06
7.89972e-07
1.46913e-06
6.76602e-07
1.39936e-06
4.64138e-07
1.22153e-06
1.85792e-07
9.34699e-07
-1.60621e-07
5.39068e-07
-6.31144e-07
4.72059e-08
-1.26753e-06
-3.64404e-07
-2.22701e-06
-2.85369e-06
8.92874e-07
-7.75345e-07
1.63238e-06
-2.26023e-07
2.16158e-06
2.23264e-07
2.46217e-06
4.89383e-07
2.5617e-06
5.77073e-07
2.50067e-06
5.25161e-07
2.30966e-06
3.76805e-07
2.00183e-06
1.47205e-07
1.56385e-06
-1.93161e-07
1.02914e-06
-7.32821e-07
3.75888e-07
-1.57376e-06
-2.4778e-06
1.50467e-06
-1.297e-06
2.17201e-06
-8.93361e-07
2.82178e-06
-4.26515e-07
3.29216e-06
1.901e-08
3.51554e-06
3.53687e-07
3.50519e-06
5.35519e-07
3.31137e-06
5.70623e-07
2.97498e-06
4.83588e-07
2.50081e-06
2.8101e-07
1.84177e-06
-7.37741e-08
1.01179e-06
-7.4378e-07
-1.46601e-06
2.67974e-06
-1.51876e-06
2.98771e-06
-1.20134e-06
3.40326e-06
-8.42055e-07
3.85917e-06
-4.36904e-07
4.21829e-06
-5.43465e-09
4.36769e-06
3.86119e-07
4.2756e-06
6.62713e-07
3.96751e-06
7.91675e-07
3.46667e-06
7.81855e-07
2.75514e-06
6.37754e-07
1.70703e-06
3.04327e-07
2.41027e-07
4.01378e-06
-1.68098e-06
4.17668e-06
-1.36424e-06
4.33832e-06
-1.00369e-06
4.53778e-06
-6.36364e-07
4.78547e-06
-2.53126e-07
5.00551e-06
1.66079e-07
5.0848e-06
5.83429e-07
4.94657e-06
9.29901e-07
4.55978e-06
1.16864e-06
3.85107e-06
1.34647e-06
2.55803e-06
1.59736e-06
2.79906e-06
-4.54145e-08
4.54145e-08
-2.99612e-08
-1.54533e-08
1.00245e-07
-1.30206e-07
2.68e-07
-1.67755e-07
4.04614e-07
-1.36614e-07
4.70099e-07
-6.5485e-08
4.72451e-07
-2.35155e-09
4.20326e-07
5.2125e-08
3.21299e-07
9.90262e-08
1.97646e-07
1.23653e-07
8.4581e-08
1.13065e-07
6.25833e-08
2.19977e-08
-1.87286e-08
6.41431e-08
1.50886e-07
-1.85067e-07
3.32913e-07
-3.12234e-07
4.73617e-07
-3.08459e-07
5.61762e-07
-2.24759e-07
6.165e-07
-1.20222e-07
6.32842e-07
-1.86942e-08
5.77657e-07
1.07311e-07
4.7531e-07
2.01373e-07
3.37542e-07
2.61422e-07
1.82942e-07
2.67664e-07
2.12673e-07
3.28522e-08
8.24011e-08
-1.8258e-08
2.34719e-07
-3.37386e-07
3.29895e-07
-4.0741e-07
3.51448e-07
-3.30012e-07
3.3261e-07
-2.05921e-07
2.92971e-07
-8.05827e-08
2.37693e-07
3.6584e-08
1.9946e-07
1.45543e-07
1.48013e-07
2.52819e-07
6.77343e-08
3.417e-07
-6.10796e-08
3.96478e-07
4.3708e-07
-2.85486e-07
5.78877e-08
-7.61457e-08
5.63338e-08
-3.35832e-07
-5.48058e-08
-2.9627e-07
-2.16803e-07
-1.68015e-07
-3.61201e-07
-6.15231e-08
-4.47859e-07
6.07518e-09
-4.6574e-07
5.44647e-08
-4.33102e-07
1.12906e-07
-3.83188e-07
2.02905e-07
-3.67104e-07
3.25617e-07
-4.50134e-07
4.79508e-07
6.89857e-07
-7.02911e-07
-7.54334e-08
-7.12387e-10
-3.15633e-07
-9.56323e-08
-6.49116e-07
3.72131e-08
-9.66996e-07
1.49865e-07
-1.1936e-06
1.65076e-07
-1.28903e-06
1.01513e-07
-1.2588e-06
2.42318e-08
-1.12944e-06
-1.64583e-08
-9.58686e-07
3.21539e-08
-8.2351e-07
1.90441e-07
-7.97112e-07
4.5311e-07
8.21254e-07
-9.28509e-07
-2.96797e-07
2.96085e-07
-7.85524e-07
3.93095e-07
-1.33138e-06
5.83069e-07
-1.82248e-06
6.40963e-07
-2.16345e-06
5.06043e-07
-2.29527e-06
2.33334e-07
-2.21417e-06
-5.68636e-08
-1.94959e-06
-2.81039e-07
-1.59867e-06
-3.1877e-07
-1.27743e-06
-1.30796e-07
-1.03289e-06
2.0857e-07
6.80931e-07
-8.92566e-07
-5.1173e-07
8.07815e-07
-1.19624e-06
1.07761e-06
-1.921e-06
1.30782e-06
-2.56812e-06
1.28809e-06
-3.02398e-06
9.619e-07
-3.21216e-06
4.2152e-07
-3.11978e-06
-1.4925e-07
-2.78509e-06
-6.15723e-07
-2.27579e-06
-8.28073e-07
-1.67385e-06
-7.32733e-07
-1.12923e-06
-3.36054e-07
2.06881e-07
-6.5518e-07
-5.77736e-07
1.38555e-06
-1.2955e-06
1.79537e-06
-2.02093e-06
2.03325e-06
-2.64317e-06
1.91033e-06
-3.05817e-06
1.3769e-06
-3.21751e-06
5.80856e-07
-3.1363e-06
-2.3046e-07
-2.87081e-06
-8.81213e-07
-2.43425e-06
-1.26463e-06
-1.82872e-06
-1.33826e-06
-1.07872e-06
-1.08605e-06
-5.5532e-07
-3.16516e-07
-4.12262e-07
1.79781e-06
-9.32585e-07
2.31569e-06
-1.41679e-06
2.51745e-06
-1.7831e-06
2.27664e-06
-1.96757e-06
1.56137e-06
-1.97492e-06
5.88207e-07
-1.86148e-06
-3.43898e-07
-1.6805e-06
-1.06219e-06
-1.45066e-06
-1.49447e-06
-1.13426e-06
-1.65466e-06
-6.42342e-07
-1.57798e-06
-1.27112e-06
7.34539e-08
-7.46804e-08
1.87249e-06
-2.38754e-07
2.47977e-06
-3.28169e-07
2.60687e-06
-3.60517e-07
2.30898e-06
-3.28782e-07
1.52964e-06
-2.39919e-07
4.99343e-07
-8.61105e-08
-4.97706e-07
1.03147e-07
-1.25145e-06
2.87899e-07
-1.67922e-06
4.59034e-07
-1.8258e-06
6.58664e-07
-1.77761e-06
-1.59465e-06
9.82197e-07
3.59663e-07
1.51283e-06
5.97484e-07
2.24194e-06
8.67694e-07
2.33666e-06
1.12324e-06
2.05344e-06
1.33431e-06
1.31857e-06
1.51929e-06
3.1436e-07
1.696e-06
-6.74414e-07
1.85195e-06
-1.4074e-06
1.9863e-06
-1.81357e-06
2.12149e-06
-1.96099e-06
2.27642e-06
-1.93254e-06
-1.77418e-06
2.45595e-06
4.83589e-07
1.02924e-06
1.22959e-06
1.49594e-06
1.92401e-06
1.64224e-06
2.50071e-06
1.47674e-06
2.94588e-06
8.73406e-07
3.27487e-06
-1.46278e-08
3.47892e-06
-8.7847e-07
3.57496e-06
-1.50344e-06
3.61215e-06
-1.85076e-06
3.64767e-06
-1.9965e-06
3.72205e-06
-2.00692e-06
3.84987e-06
-1.90199e-06
2.79387e-08
-5.94109e-09
7.37479e-08
-4.58091e-08
1.34854e-07
-6.11057e-08
2.40142e-07
-1.05288e-07
3.93978e-07
-1.53836e-07
5.71621e-07
-1.77643e-07
7.27603e-07
-1.55983e-07
7.99932e-07
-7.23286e-08
7.41762e-07
5.81703e-08
5.39338e-07
2.02423e-07
2.40646e-07
2.98693e-07
2.40646e-07
-1.29944e-07
1.56855e-07
-3.30326e-07
1.54573e-07
-5.02121e-07
1.1069e-07
-5.67729e-07
-3.96813e-08
-5.07498e-07
-2.14067e-07
-3.42006e-07
-3.43134e-07
-1.2064e-07
-3.77348e-07
8.89905e-08
-2.8196e-07
2.28108e-07
-8.0947e-08
2.1887e-07
2.11661e-07
9.72187e-08
4.20343e-07
3.37865e-07
-6.4529e-07
5.16659e-07
-1.04849e-06
5.57769e-07
-1.37483e-06
4.37029e-07
-1.60037e-06
1.85862e-07
-1.71684e-06
-9.75935e-08
-1.68079e-06
-3.79184e-07
-1.4789e-06
-5.79245e-07
-1.12589e-06
-6.34965e-07
-7.12396e-07
-4.94441e-07
-3.56299e-07
-1.44436e-07
-1.13995e-07
1.78039e-07
2.2387e-07
-1.11356e-06
9.27304e-07
-1.56419e-06
1.00841e-06
-1.9814e-06
8.54232e-07
-2.34596e-06
5.50426e-07
-2.61485e-06
1.71297e-07
-2.74514e-06
-2.48895e-07
-2.66795e-06
-6.56438e-07
-2.32104e-06
-9.81874e-07
-1.69169e-06
-1.12379e-06
-8.66199e-07
-9.69928e-07
-1.98894e-07
-4.89267e-07
2.49761e-08
-1.17679e-06
1.17559e-06
-1.47088e-06
1.3025e-06
-1.79132e-06
1.17467e-06
-2.13551e-06
8.94614e-07
-2.47358e-06
5.09371e-07
-2.75302e-06
3.05452e-08
-2.90437e-06
-5.0509e-07
-2.84135e-06
-1.04489e-06
-2.43823e-06
-1.52691e-06
-1.60342e-06
-1.80474e-06
-5.25297e-07
-1.56739e-06
-5.00321e-07
-8.38398e-07
1.12142e-06
-8.51046e-07
1.31514e-06
-9.26219e-07
1.24985e-06
-1.05789e-06
1.02629e-06
-1.2478e-06
6.99279e-07
-1.50672e-06
2.89464e-07
-1.80348e-06
-2.08331e-07
-2.06606e-06
-7.82316e-07
-2.16609e-06
-1.42688e-06
-1.88377e-06
-2.08706e-06
-9.97682e-07
-2.45348e-06
-1.498e-06
-2.66059e-07
7.32295e-07
1.37408e-08
1.03534e-06
1.72682e-07
1.09091e-06
2.323e-07
9.66671e-07
2.11004e-07
7.20575e-07
1.08269e-07
3.92198e-07
-1.0901e-07
8.94809e-09
-4.46751e-07
-4.44574e-07
-8.50095e-07
-1.02353e-06
-1.17999e-06
-1.75716e-06
-9.94578e-07
-2.63889e-06
-2.49258e-06
3.65912e-07
4.98678e-08
8.89708e-07
5.11547e-07
1.23382e-06
7.46796e-07
1.41767e-06
7.82818e-07
1.4678e-06
6.70444e-07
1.39918e-06
4.60821e-07
1.22228e-06
1.85846e-07
9.3633e-07
-1.58623e-07
5.40445e-07
-6.2765e-07
4.81797e-08
-1.2649e-06
-3.6411e-07
-2.2266e-06
-2.85669e-06
8.95879e-07
-7.72557e-07
1.63326e-06
-2.25833e-07
2.15976e-06
2.20293e-07
2.4582e-06
4.84377e-07
2.55681e-06
5.71832e-07
2.49626e-06
5.21377e-07
2.30668e-06
3.75425e-07
2.00008e-06
1.47979e-07
1.56317e-06
-1.90738e-07
1.02914e-06
-7.30874e-07
3.76139e-07
-1.57359e-06
-2.48055e-06
1.5058e-06
-1.29616e-06
2.1734e-06
-8.93439e-07
2.82156e-06
-4.27863e-07
3.28944e-06
1.64994e-08
3.51052e-06
3.50747e-07
3.49896e-06
5.32938e-07
3.30534e-06
5.69044e-07
2.97012e-06
4.83202e-07
2.49775e-06
2.81628e-07
1.84028e-06
-7.3403e-08
1.01165e-06
-7.4496e-07
-1.46891e-06
2.67841e-06
-1.51861e-06
2.98712e-06
-1.20215e-06
3.40291e-06
-8.43653e-07
3.8581e-06
-4.38694e-07
4.2157e-06
-6.85092e-09
4.36334e-06
3.85295e-07
4.27e-06
6.62381e-07
3.9617e-06
7.91502e-07
3.46182e-06
7.81507e-07
2.75229e-06
6.36134e-07
1.70636e-06
3.00968e-07
2.37452e-07
4.01241e-06
-1.68116e-06
4.17539e-06
-1.36512e-06
4.33705e-06
-1.00532e-06
4.53664e-06
-6.38282e-07
4.78432e-06
-2.54531e-07
5.0039e-06
1.65716e-07
5.08222e-06
5.84064e-07
4.94296e-06
9.30759e-07
4.55569e-06
1.16878e-06
3.84726e-06
1.34456e-06
2.55503e-06
1.5932e-06
2.79248e-06
-4.57504e-08
4.57504e-08
-3.03429e-08
-1.54076e-08
1.00231e-07
-1.30574e-07
2.68403e-07
-1.68172e-07
4.054e-07
-1.36996e-07
4.71323e-07
-6.59234e-08
4.73811e-07
-2.48867e-09
4.21679e-07
5.21325e-08
3.22512e-07
9.9167e-08
1.98634e-07
1.23878e-07
8.53543e-08
1.13279e-07
6.26606e-08
2.26936e-08
-1.88938e-08
6.46441e-08
1.50895e-07
-1.85197e-07
3.33105e-07
-3.12784e-07
4.74083e-07
-3.0915e-07
5.62521e-07
-2.25435e-07
6.17344e-07
-1.20746e-07
6.34281e-07
-1.94259e-08
5.79372e-07
1.07042e-07
4.7715e-07
2.01389e-07
3.39308e-07
2.6172e-07
1.84488e-07
2.68099e-07
2.128e-07
3.43486e-08
8.22621e-08
-1.7618e-08
2.34464e-07
-3.37398e-07
3.29604e-07
-4.07924e-07
3.51286e-07
-3.30832e-07
3.32781e-07
-2.06929e-07
2.938e-07
-8.17658e-08
2.38814e-07
3.55603e-08
2.01045e-07
1.44811e-07
1.49888e-07
2.52546e-07
6.96587e-08
3.4195e-07
-5.91736e-08
3.96931e-07
4.37054e-07
-2.83427e-07
5.751e-08
-7.5128e-08
5.58207e-08
-3.35709e-07
-5.52999e-08
-2.96804e-07
-2.16987e-07
-1.69144e-07
-3.60927e-07
-6.29904e-08
-4.47148e-07
4.45554e-09
-4.64474e-07
5.28866e-08
-4.31264e-07
1.116e-07
-3.80848e-07
2.0213e-07
-3.64393e-07
3.25495e-07
-4.4709e-07
4.79628e-07
6.89927e-07
-6.99963e-07
-7.57625e-08
6.34477e-10
-3.16045e-07
-9.54271e-08
-6.49298e-07
3.6449e-08
-9.66811e-07
1.48369e-07
-1.19291e-06
1.63113e-07
-1.28788e-06
9.94165e-08
-1.25714e-06
2.21487e-08
-1.12696e-06
-1.85799e-08
-9.55448e-07
3.06209e-08
-8.19382e-07
1.89428e-07
-7.92406e-07
4.52652e-07
8.21817e-07
-9.24296e-07
-2.96763e-07
2.97397e-07
-7.85196e-07
3.93006e-07
-1.33062e-06
5.81878e-07
-1.82133e-06
6.39077e-07
-2.16199e-06
5.03775e-07
-2.29368e-06
2.31101e-07
-2.2121e-06
-5.94302e-08
-1.94687e-06
-2.83813e-07
-1.59495e-06
-3.21295e-07
-1.27252e-06
-1.33006e-07
-1.02744e-06
2.07569e-07
6.8207e-07
-8.87688e-07
-5.11189e-07
8.08587e-07
-1.1951e-06
1.07692e-06
-1.91962e-06
1.3064e-06
-2.56693e-06
1.28638e-06
-3.02312e-06
9.59969e-07
-3.21127e-06
4.19252e-07
-3.11866e-06
-1.5204e-07
-2.78345e-06
-6.19019e-07
-2.27328e-06
-8.31467e-07
-1.67062e-06
-7.35669e-07
-1.12549e-06
-3.37563e-07
2.08082e-07
-6.51502e-07
-5.7672e-07
1.38531e-06
-1.29404e-06
1.79424e-06
-2.01997e-06
2.03233e-06
-2.6435e-06
1.90991e-06
-3.06008e-06
1.37655e-06
-3.22038e-06
5.79555e-07
-3.13954e-06
-2.32886e-07
-2.87354e-06
-8.85015e-07
-2.43583e-06
-1.26918e-06
-1.82896e-06
-1.34254e-06
-1.07785e-06
-1.08868e-06
-5.5447e-07
-3.15294e-07
-4.11332e-07
1.79664e-06
-9.31382e-07
2.31429e-06
-1.4166e-06
2.51755e-06
-1.78493e-06
2.27824e-06
-1.97168e-06
1.56331e-06
-1.98079e-06
5.88666e-07
-1.86804e-06
-3.45638e-07
-1.68703e-06
-1.06603e-06
-1.45665e-06
-1.49955e-06
-1.13915e-06
-1.66004e-06
-6.45512e-07
-1.58231e-06
-1.27272e-06
7.27369e-08
-7.41643e-08
1.8708e-06
-2.37789e-07
2.47791e-06
-3.28247e-07
2.608e-06
-3.62553e-07
2.31254e-06
-3.32715e-07
1.53347e-06
-2.45063e-07
5.01014e-07
-9.16004e-08
-4.991e-07
9.76731e-08
-1.2553e-06
2.82301e-07
-1.68418e-06
4.53031e-07
-1.83077e-06
6.52591e-07
-1.78188e-06
-1.59741e-06
9.77287e-07
3.59607e-07
1.5112e-06
5.98518e-07
2.239e-06
8.68364e-07
2.33816e-06
1.12285e-06
2.05806e-06
1.3329e-06
1.32342e-06
1.51724e-06
3.16676e-07
1.6936e-06
-6.75464e-07
1.84934e-06
-1.41104e-06
1.9836e-06
-1.81845e-06
2.11869e-06
-1.96586e-06
2.27313e-06
-1.93632e-06
-1.77605e-06
2.45177e-06
4.8634e-07
1.02486e-06
1.23291e-06
1.49244e-06
1.92685e-06
1.64422e-06
2.5031e-06
1.4818e-06
2.94757e-06
8.78948e-07
3.27586e-06
-1.16199e-08
3.47899e-06
-8.78596e-07
3.57432e-06
-1.50636e-06
3.61116e-06
-1.85529e-06
3.64671e-06
-2.00141e-06
3.72134e-06
-2.01095e-06
3.84919e-06
-1.9039e-06
2.8828e-08
-6.13446e-09
7.52321e-08
-4.64041e-08
1.37144e-07
-6.19118e-08
2.43732e-07
-1.06588e-07
3.9859e-07
-1.54859e-07
5.76855e-07
-1.78265e-07
7.32681e-07
-1.55827e-07
8.04423e-07
-7.17415e-08
7.4499e-07
5.94331e-08
5.41207e-07
2.03783e-07
2.41391e-07
2.99816e-07
2.41391e-07
-1.27989e-07
1.56204e-07
-3.2778e-07
1.53386e-07
-4.9889e-07
1.09199e-07
-5.6415e-07
-4.1328e-08
-5.03415e-07
-2.15594e-07
-3.37521e-07
-3.44158e-07
-1.15863e-07
-3.77485e-07
9.32523e-08
-2.80856e-07
2.31396e-07
-7.87104e-08
2.20718e-07
2.14461e-07
9.79232e-08
4.22611e-07
3.39314e-07
-6.4339e-07
5.16166e-07
-1.04732e-06
5.57314e-07
-1.37472e-06
4.36597e-07
-1.60133e-06
1.85285e-07
-1.71855e-06
-9.83699e-08
-1.68224e-06
-3.80468e-07
-1.47946e-06
-5.80268e-07
-1.12539e-06
-6.34924e-07
-7.11319e-07
-4.92784e-07
-3.56062e-07
-1.40797e-07
-1.14232e-07
1.80781e-07
2.25082e-07
-1.11195e-06
9.28155e-07
-1.56488e-06
1.01024e-06
-1.98471e-06
8.56425e-07
-2.3515e-06
5.52075e-07
-2.62138e-06
1.71515e-07
-2.75161e-06
-2.50244e-07
-2.67304e-06
-6.58832e-07
-2.32401e-06
-9.83954e-07
-1.69256e-06
-1.12424e-06
-8.65304e-07
-9.68049e-07
-1.98409e-07
-4.86114e-07
2.66729e-08
-1.17453e-06
1.17839e-06
-1.47147e-06
1.30718e-06
-1.79493e-06
1.17989e-06
-2.1415e-06
8.98647e-07
-2.48074e-06
5.10753e-07
-2.75995e-06
2.89624e-08
-2.91022e-06
-5.0856e-07
-2.84535e-06
-1.04883e-06
-2.43991e-06
-1.52968e-06
-1.6029e-06
-1.80506e-06
-5.24096e-07
-1.56492e-06
-4.97423e-07
-8.35198e-07
1.1259e-06
-8.50115e-07
1.3221e-06
-9.2749e-07
1.25726e-06
-1.06087e-06
1.03202e-06
-1.25169e-06
7.01571e-07
-1.51063e-06
2.87906e-07
-1.80723e-06
-2.11957e-07
-2.06878e-06
-7.87279e-07
-2.16746e-06
-1.431e-06
-1.88343e-06
-2.08909e-06
-9.96375e-07
-2.45197e-06
-1.4938e-06
-2.63031e-07
7.37426e-07
1.57474e-08
1.04332e-06
1.73728e-07
1.09928e-06
2.32443e-07
9.73309e-07
2.10267e-07
7.23747e-07
1.06706e-07
3.91468e-07
-1.10871e-07
5.61948e-09
-4.48979e-07
-4.49171e-07
-8.52038e-07
-1.02794e-06
-1.18093e-06
-1.7602e-06
-9.94145e-07
-2.63876e-06
-2.48794e-06
3.67456e-07
5.46758e-08
8.91404e-07
5.19372e-07
1.23561e-06
7.55076e-07
1.41918e-06
7.89736e-07
1.46847e-06
6.74455e-07
1.3986e-06
4.6134e-07
1.22083e-06
1.83389e-07
9.33559e-07
-1.61899e-07
5.37433e-07
-6.31814e-07
4.51949e-08
-1.26796e-06
-3.65699e-07
-2.22786e-06
-2.85364e-06
8.96841e-07
-7.69428e-07
1.63455e-06
-2.18335e-07
2.16113e-06
2.28494e-07
2.45918e-06
4.9168e-07
2.55705e-06
5.76588e-07
2.4953e-06
5.2309e-07
2.30422e-06
3.74468e-07
1.99688e-06
1.45447e-07
1.55948e-06
-1.94422e-07
1.02536e-06
-7.33834e-07
3.73468e-07
-1.57598e-06
-2.48018e-06
1.50379e-06
-1.29593e-06
2.17456e-06
-8.89112e-07
2.82371e-06
-4.20651e-07
3.29055e-06
2.48411e-08
3.50985e-06
3.57283e-07
3.49647e-06
5.36475e-07
3.30134e-06
5.6959e-07
2.96526e-06
4.81529e-07
2.49243e-06
2.78409e-07
1.83551e-06
-7.69185e-08
1.00854e-06
-7.48999e-07
-1.47164e-06
2.67412e-06
-1.51828e-06
2.98466e-06
-1.19965e-06
3.40267e-06
-8.38662e-07
3.85928e-06
-4.31765e-07
4.2158e-06
7.62346e-10
4.36085e-06
3.91428e-07
4.26493e-06
6.65505e-07
3.95486e-06
7.91597e-07
3.45421e-06
7.7906e-07
2.7457e-06
6.31592e-07
1.7018e-06
2.94906e-07
2.30158e-07
4.01107e-06
-1.68017e-06
4.17286e-06
-1.36144e-06
4.33407e-06
-9.99876e-07
4.5344e-06
-6.32098e-07
4.78302e-06
-2.47848e-07
5.0017e-06
1.72746e-07
5.07775e-06
5.89452e-07
4.93606e-06
9.33289e-07
4.54724e-06
1.16788e-06
3.83813e-06
1.34071e-06
2.54664e-06
1.58639e-06
2.7768e-06
3.88018e-06
2.08143e-06
-4.94059e-06
3.73308e-06
1.63856e-06
3.96491e-06
1.40296e-06
4.40978e-06
1.02287e-06
4.85589e-06
4.19657e-07
5.14886e-06
-3.11641e-07
5.25374e-06
-9.84799e-07
5.23319e-06
-1.48309e-06
5.17295e-06
-1.79098e-06
5.13037e-06
-1.95501e-06
5.12846e-06
-2.00618e-06
-1.94406e-06
5.17007e-06
6.6859e-06
2.18924e-06
-6.79372e-06
6.59309e-06
1.73137e-06
6.65126e-06
1.3448e-06
6.8049e-06
8.69229e-07
6.92857e-06
2.95987e-07
6.9336e-06
-3.16672e-07
6.83232e-06
-8.83517e-07
6.68699e-06
-1.33777e-06
6.55529e-06
-1.65927e-06
6.46898e-06
-1.8687e-06
6.43226e-06
-1.96946e-06
-1.94093e-06
6.42913e-06
8.04248e-06
1.93595e-06
-7.78919e-06
8.18634e-06
1.58751e-06
8.30759e-06
1.22356e-06
8.36888e-06
8.0793e-07
8.3344e-06
3.30472e-07
8.18879e-06
-1.71064e-07
8.00724e-06
-7.01963e-07
7.81903e-06
-1.14956e-06
7.66723e-06
-1.50748e-06
7.57586e-06
-1.77733e-06
7.54387e-06
-1.93746e-06
-1.93795e-06
7.54089e-06
8.56686e-06
-8.24716e-06
8.8197e-06
9.01192e-06
9.11584e-06
9.09497e-06
8.93047e-06
8.76545e-06
8.59629e-06
8.47364e-06
8.41482e-06
8.42066e-06
8.45684e-06
5.24755e-06
-1.75782e-06
5.33959e-06
-1.45475e-06
5.41792e-06
-1.07966e-06
5.46893e-06
-6.84453e-07
5.52071e-06
-3.01524e-07
5.61028e-06
8.06159e-08
5.7174e-06