/*--------------------------------*- C++ -*----------------------------------*\
| =========                 |                                                 |
| \\      /  F ield         | OpenFOAM: The Open Source CFD Toolbox           |
|  \\    /   O peration     | Version:  2.3.1                                 |
|   \\  /    A nd           | Web:      www.OpenFOAM.org                      |
|    \\/     M anipulation  |                                                 |
\*---------------------------------------------------------------------------*/
FoamFile
{
    version     2.0;
    format      ascii;
    class       surfaceVectorField;
    location    "1";
    object      Uf;
}
// * * * * * * * * * * * * * * * * * * * * * * * * * * * * * * * * * * * * * //

dimensions      [0 1 -1 0 0 0 0];

internalField   nonuniform List<vector> 
5856
(
(0.0231638 0.134056 -1.8736e-20)
(0.00763324 0.140741 -3.07919e-20)
(0.0298886 0.131858 -1.8736e-20)
(0.0127122 0.140399 7.36555e-20)
(0.0332858 0.125273 0)
(0.0133495 0.135819 -6.00709e-20)
(0.0379294 0.116779 -6.9332e-20)
(0.0182891 0.128867 5.882e-20)
(0.0440453 0.108746 -1.39032e-19)
(0.0271007 0.12142 5.32354e-20)
(0.0517372 0.102497 -6.97005e-20)
(0.0382015 0.114226 -7.09965e-20)
(0.0606386 0.0976422 0)
(0.0488657 0.108269 3.48191e-19)
(0.0701389 0.093999 3.9521e-19)
(0.0594409 0.103708 -2.30731e-19)
(0.079749 0.0915682 6.08289e-20)
(0.070382 0.10043 2.78145e-19)
(0.0887714 0.0899589 -5.91658e-19)
(0.0809218 0.098449 -3.39569e-19)
(0.0962273 0.0884839 6.95288e-20)
(0.0901879 0.0976842 -1.58537e-19)
(0.0973552 0.0975966 3.32385e-19)
(0.101087 0.0863383 6.36029e-19)
(0.00251973 0.150051 6.40118e-20)
(0.0088405 0.154783 -1.86959e-20)
(0.000770182 0.144178 3.40875e-20)
(0.00361007 0.153632 9.60773e-20)
(0.00382404 0.137643 -1.27461e-21)
(0.0050183 0.148354 -6.22327e-20)
(0.0125829 0.131312 1.81071e-19)
(0.0138584 0.142848 -4.22847e-20)
(0.0247972 0.125226 1.21136e-19)
(0.0273563 0.137711 2.35154e-19)
(0.0379889 0.118867 3.54788e-19)
(0.041959 0.132457 -2.18276e-19)
(0.0510193 0.112735 1.20862e-19)
(0.0562223 0.126994 4.75161e-19)
(0.0642923 0.108209 -3.5138e-19)
(0.0716814 0.120279 -4.49123e-19)
(0.0771192 0.104738 -1.16277e-19)
(0.0853657 0.114015 -1.10792e-19)
(0.0884489 0.102841 1.06534e-19)
(0.0976885 0.10886 2.97219e-19)
(0.0972361 0.103106 1.06534e-19)
(0.108129 0.105839 2.22552e-20)
(0.11686 0.105591 0)
(0.103855 0.10496 -1.09323e-19)
(0.00509705 0.16161 1.34287e-20)
(0.00438336 0.169939 1.20712e-21)
(0.00165494 0.156589 0)
(-0.00223863 0.170517 2.27208e-20)
(0.00802567 0.153029 -1.10609e-19)
(0.00488012 0.1693 4.61435e-20)
(0.0221662 0.15017 -3.2234e-21)
(0.0204881 0.168992 -1.61617e-19)
(0.0394992 0.146618 -1.13256e-19)
(0.0389576 0.168076 -3.37413e-20)
(0.0571825 0.142019 -1.10507e-19)
(0.0573248 0.165238 -3.32269e-20)
(0.0739982 0.136647 -1.01245e-19)
(0.0746608 0.160046 1.45352e-20)
(0.0888577 0.129732 -2.04255e-19)
(0.0904922 0.152319 -1.28181e-19)
(0.102067 0.122788 3.12673e-19)
(0.105069 0.142504 7.67021e-21)
(0.113629 0.116975 2.04265e-19)
(0.11834 0.132603 2.21737e-19)
(0.124097 0.113403 -9.80087e-20)
(0.130622 0.124416 -9.94978e-20)
(0.144378 0.118668 -1.34541e-19)
(0.137179 0.111673 7.98459e-20)
(-0.00192881 0.178788 1.07126e-20)
(0.00208968 0.187954 -4.28856e-20)
(0.000698214 0.179822 6.99268e-20)
(0.00171922 0.193365 4.25565e-20)
(0.0165941 0.183125 -3.4096e-21)
(0.0174551 0.198888 -3.24686e-20)
(0.0372947 0.186009 -1.96193e-19)
(0.0389456 0.205058 -1.31388e-19)
(0.0576476 0.186446 4.91702e-20)
(0.0599198 0.208617 -1.41017e-19)
(0.0760935 0.183368 9.34433e-20)
(0.0785084 0.207981 1.95426e-19)
(0.0927442 0.176396 -1.10305e-20)
(0.0947357 0.202607 -2.74159e-20)
(0.10803 0.166134 9.00952e-20)
(0.109384 0.192682 1.59972e-19)
(0.122083 0.153977 -8.75948e-20)
(0.123304 0.17895 -1.48247e-19)
(0.135511 0.141994 -8.75948e-20)
(0.137278 0.163291 -8.88142e-20)
(0.150928 0.131477 -1.36616e-19)
(0.152528 0.147546 1.17086e-19)
(0.171999 0.132536 -2.30514e-19)
(0.172065 0.122568 -7.98819e-20)
(0.00454138 0.199497 -1.30479e-20)
(0.00656628 0.205905 -5.63283e-21)
(0.0168172 0.208619 -6.28922e-20)
(0.0170327 0.21944 1.35023e-21)
(0.039086 0.218968 -1.63304e-19)
(0.0401227 0.232637 -7.83452e-20)
(0.0615805 0.226898 -7.60465e-20)
(0.0643477 0.245237 -8.26059e-20)
(0.0811661 0.230296 3.98201e-21)
(0.0849661 0.253646 7.46553e-20)
(0.097674 0.22795 7.42158e-20)
(0.10134 0.255974 -6.94192e-20)
(0.112046 0.219869 1.46307e-19)
(0.114916 0.251135 7.73646e-20)
(0.125291 0.206572 -8.10024e-20)
(0.126801 0.239181 1.79978e-19)
(0.138735 0.189537 -1.5034e-19)
(0.138862 0.220754 -2.62071e-19)
(0.154259 0.170506 1.18739e-19)
(0.152657 0.198013 1.12449e-19)
(0.174064 0.150601 2.77267e-20)
(0.169415 0.173262 -8.25892e-20)
(0.190488 0.147348 9.2949e-20)
(0.198036 0.131688 -6.98319e-20)
(0.0199856 0.223126 7.83177e-21)
(0.0201468 0.222605 1.06645e-20)
(0.0410717 0.240234 -1.41491e-20)
(0.0414035 0.245466 8.50949e-21)
(0.0669309 0.257291 3.67959e-21)
(0.0695971 0.26539 6.79368e-21)
(0.0896718 0.271096 6.62514e-20)
(0.0949218 0.284049 -4.5349e-20)
(0.107149 0.279095 6.32456e-22)
(0.113395 0.297898 6.70414e-20)
(0.120129 0.279313 -6.56189e-20)
(0.125431 0.304517 -1.60646e-19)
(0.130756 0.27089 1.10577e-19)
(0.134032 0.302065 1.82973e-19)
(0.141038 0.253652 -6.51969e-22)
(0.141046 0.290234 6.10958e-21)
(0.153112 0.229741 2.56714e-21)
(0.150153 0.268242 -2.57478e-20)
(0.168949 0.202032 -9.01125e-20)
(0.162706 0.237388 1.84107e-19)
(0.188369 0.171639 -1.24184e-20)
(0.177323 0.202281 -7.92449e-20)
(0.195205 0.165442 3.69147e-20)
(0.208656 0.141468 3.50473e-19)
(0.0435841 0.245925 1.19003e-20)
(0.0406554 0.236634 -2.63742e-20)
(0.0719583 0.268558 2.94182e-20)
(0.0703359 0.266062 3.78303e-20)
(0.100253 0.290666 -4.41392e-20)
(0.101577 0.288215 3.83501e-20)
(0.121703 0.309556 -4.58963e-20)
(0.125882 0.308978 3.55144e-20)
(0.134809 0.32252 -9.53821e-20)
(0.139451 0.324878 -3.86974e-20)
(0.141707 0.326941 8.98963e-20)
(0.143956 0.333832 -1.74101e-19)
(0.146348 0.321005 8.40649e-20)
(0.144729 0.334277 1.82097e-19)
(0.152252 0.303881 -1.39763e-20)
(0.145754 0.326104 -2.56528e-19)
(0.161378 0.275759 1.57522e-19)
(0.151185 0.307384 9.02009e-20)
(0.173905 0.238193 1.98415e-19)
(0.161034 0.276525 -1.54374e-19)
(0.189545 0.19683 -2.27724e-20)
(0.174114 0.234425 1.19431e-19)
(0.187053 0.187924 -7.829e-20)
(0.203579 0.155572 -1.56126e-19)
(0.0684131 0.262635 1.55834e-21)
(0.0610048 0.246701 -1.11688e-20)
(0.101127 0.284459 4.77651e-20)
(0.0960874 0.276088 1.88999e-20)
(0.128626 0.304932 1.18182e-19)
(0.126941 0.292589 -1.19332e-20)
(0.14483 0.32247 4.43869e-20)
(0.146583 0.307879 8.20437e-20)
(0.149702 0.335175 -1.17664e-19)
(0.151536 0.318724 -4.40915e-21)
(0.148037 0.341192 -8.11537e-20)
(0.145793 0.324493 -4.47193e-20)
(0.145841 0.339145 -1.556e-19)
(0.137798 0.325455 -4.27277e-21)
(0.147516 0.328377 -1.48724e-19)
(0.133764 0.321675 -1.51673e-19)
(0.154291 0.306774 -2.18249e-19)
(0.136488 0.311112 1.55223e-20)
(0.165028 0.272542 -2.1915e-19)
(0.145261 0.290806 -1.68603e-19)
(0.176789 0.226391 6.1455e-20)
(0.157462 0.257774 -5.25988e-20)
(0.16938 0.212404 5.99814e-20)
(0.186382 0.176047 4.69324e-20)
(0.0876119 0.270427 5.19015e-21)
(0.0728631 0.252717 1.51775e-20)
(0.120507 0.283002 -4.22509e-20)
(0.110745 0.275932 -5.40466e-21)
(0.142897 0.293325 -5.12377e-20)
(0.137676 0.279364 -1.05811e-20)
(0.150333 0.301473 3.55022e-20)
(0.149908 0.283438 2.605e-20)
(0.144927 0.307135 7.23153e-20)
(0.144903 0.284849 2.66102e-21)
(0.13428 0.309909 3.35749e-20)
(0.129638 0.28454 -6.63953e-20)
(0.125973 0.309382 1.66901e-21)
(0.11535 0.284483 7.13499e-20)
(0.124272 0.304682 9.96085e-21)
(0.108011 0.283011 5.26529e-20)
(0.130038 0.294214 5.56771e-20)
(0.109315 0.277553 8.8084e-20)
(0.141179 0.275278 -2.78482e-21)
(0.117788 0.266635 -4.14525e-20)
(0.153486 0.244247 -4.77705e-20)
(0.130256 0.248383 -3.96825e-20)
(0.142941 0.219773 4.35722e-21)
(0.162291 0.200247 -3.68485e-20)
(0.0945745 0.272143 1.78492e-21)
(0.0718913 0.257705 8.54041e-21)
(0.125141 0.270212 2.63092e-20)
(0.110967 0.269116 -1.38375e-20)
(0.141744 0.265169 7.4048e-20)
(0.132074 0.258044 5.98713e-20)
(0.141318 0.261273 -7.21043e-21)
(0.138201 0.24864 -2.64496e-20)
(0.127689 0.260412 -1.38405e-19)
(0.127134 0.240815 1.7114e-20)
(0.110543 0.261689 -2.33946e-20)
(0.106939 0.236144 -4.12135e-20)
(0.097592 0.261756 1.2353e-19)
(0.0882812 0.235723 1.20733e-19)
(0.0927462 0.258649 1.35111e-19)
(0.0779606 0.235899 -3.76828e-20)
(0.0966084 0.251751 -1.10712e-20)
(0.0778451 0.233145 8.26953e-20)
(0.107005 0.240797 -7.92429e-20)
(0.0856158 0.225995 -9.11149e-20)
(0.120427 0.224593 1.86703e-20)
(0.0976872 0.21431 9.32877e-21)
(0.110812 0.19765 7.69598e-21)
(0.132606 0.200368 1.35732e-20)
(0.090917 0.270732 -6.74337e-21)
(0.0573801 0.272034 -6.80258e-21)
(0.118577 0.253251 1.80861e-20)
(0.0983678 0.264589 0)
(0.128495 0.23518 -3.26704e-20)
(0.115446 0.239334 -1.95512e-21)
(0.123661 0.221005 6.63399e-22)
(0.117758 0.215368 -1.77512e-20)
(0.10669 0.214071 1.13356e-19)
(0.104277 0.198332 1.15314e-21)
(0.0859555 0.212869 1.12126e-19)
(0.0819865 0.18937 -2.9915e-20)
(0.0697664 0.213624 -5.1342e-20)
(0.0611053 0.187444 9.52909e-20)
(0.0630732 0.213212 -9.40343e-20)
(0.0497633 0.189098 -9.486e-20)
(0.0657476 0.209596 7.31749e-21)
(0.0493097 0.189773 0)
(0.0745265 0.201718 7.31749e-21)
(0.0561905 0.186778 3.76301e-20)
(0.0861831 0.189409 0)
(0.0666368 0.179285 1.93279e-20)
(0.0783931 0.167261 -4.49827e-21)
(0.0984973 0.173159 -2.98087e-21)
(0.0625201 0.283384 0)
(0.0382197 0.213847 -1.1072e-21)
(0.0975372 0.246428 -1.70308e-20)
(0.0670867 0.216114 -4.34481e-21)
(0.106864 0.212527 1.67164e-20)
(0.0835384 0.199276 -8.6832e-22)
(0.0997597 0.186759 -1.28787e-20)
(0.0865147 0.173504 -7.60448e-21)
(0.0808342 0.171472 -1.39839e-19)
(0.073754 0.151989 -4.70148e-20)
(0.0583874 0.165384 -4.42391e-20)
(0.052143 0.140167 -5.51932e-20)
(0.0419391 0.16543 4.50552e-20)
(0.0331248 0.138276 7.7715e-20)
(0.0360357 0.167449 0)
(0.0239895 0.142375 -6.8001e-21)
(0.0391294 0.168107 3.49401e-20)
(0.0246324 0.14676 -6.41716e-20)
(0.0473801 0.165428 5.44392e-20)
(0.0311135 0.148238 7.04731e-20)
(0.0577434 0.15835 1.40038e-20)
(0.0402441 0.145784 -1.28015e-21)
(0.068548 0.146479 1.73885e-20)
(0.0504649 0.138942 -4.57596e-21)
(0.10322 0.082997 -1.23544e-19)
(0.103028 0.0969674 1.99729e-19)
(0.104502 0.0781422 -4.28675e-19)
(0.109566 0.0939868 -5.35191e-19)
(0.106348 0.0712251 1.29166e-19)
(0.117116 0.089111 4.15775e-21)
(0.107112 0.0619514 1.16928e-20)
(0.121946 0.084348 3.16058e-19)
(0.105584 0.0516592 -5.61507e-20)
(0.123555 0.0779687 -3.33316e-19)
(0.102342 0.0414491 -1.09184e-19)
(0.123116 0.0690769 1.42229e-19)
(0.0994363 0.031154 -1.11737e-19)
(0.121756 0.0571482 2.24391e-20)
(0.0993907 0.0204475 2.14902e-21)
(0.120283 0.0415945 2.53681e-19)
(0.103836 0.00934227 -2.69296e-20)
(0.119702 0.0237854 -1.04857e-19)
(0.113052 -0.00202864 -1.37922e-20)
(0.121541 0.00603075 2.60925e-20)
(0.124824 -0.0110793 -1.13833e-20)
(0.128264 -0.00785851 -2.84798e-20)
(0.134337 -0.0120282 3.33235e-20)
(0.112275 0.105731 -2.05549e-19)
(0.127609 0.106393 -3.2641e-20)
(0.124721 0.103694 -9.62252e-20)
(0.142971 0.105286 -9.75338e-20)
(0.135663 0.100993 1.87946e-19)
(0.157476 0.104666 -1.41836e-19)
(0.141278 0.0983705 -3.89129e-20)
(0.166366 0.106391 2.60307e-19)
(0.142766 0.0929099 -1.41726e-19)
(0.171346 0.106479 -2.25111e-20)
(0.141689 0.0826369 2.73281e-19)
(0.17418 0.101974 -1.16663e-19)
(0.139645 0.0667495 3.9556e-19)
(0.174831 0.0904218 1.33481e-19)
(0.138213 0.0457859 1.5659e-19)
(0.172771 0.0703208 9.48659e-20)
(0.138173 0.022197 -5.14139e-20)
(0.167232 0.0439193 2.60764e-20)
(0.14154 -0.000110388 1.0605e-20)
(0.159469 0.0129757 -5.96627e-20)
(0.146425 -0.0129452 1.76112e-20)
(0.154753 -0.0108015 1.45784e-20)
(0.151137 -0.0158634 2.00691e-20)
(0.156078 0.110575 8.83079e-20)
(0.163973 0.114451 1.36401e-19)
(0.175267 0.110586 -1.35786e-19)
(0.185971 0.112708 -4.58292e-20)
(0.188547 0.112826 -7.49099e-20)
(0.202688 0.115445 -1.4644e-19)
(0.196954 0.115866 2.80809e-19)
(0.214221 0.121084 6.8923e-20)
(0.20271 0.116159 5.01427e-21)
(0.22334 0.125546 7.0397e-20)
(0.205357 0.109809 -2.74535e-19)
(0.229753 0.127244 -2.59303e-19)
(0.204193 0.0943506 -1.78374e-19)
(0.232847 0.121988 9.26988e-20)
(0.198508 0.0690045 -3.88991e-20)
(0.230601 0.106678 -1.09797e-19)
(0.189609 0.0368882 1.77187e-20)
(0.220841 0.0794273 2.5372e-21)
(0.179825 0.00623034 -5.41086e-20)
(0.203126 0.0411992 -6.13147e-20)
(0.170514 -0.010132 1.97192e-20)
(0.182237 0.00769311 3.48264e-20)
(0.16659 -0.00710935 -8.13375e-21)
(0.196445 0.116797 -5.59108e-21)
(0.196602 0.119714 7.2679e-20)
(0.216555 0.116584 -5.83285e-20)
(0.218704 0.113127 -5.91405e-20)
(0.230893 0.121601 0)
(0.233652 0.113856 0)
(0.242365 0.128575 -1.48004e-19)
(0.245028 0.119294 0)
(0.251669 0.133963 -1.96916e-19)
(0.255309 0.126548 -1.08533e-19)
(0.258053 0.135278 1.04191e-19)
(0.264132 0.133606 -5.29039e-21)
(0.259305 0.12917 1.59418e-19)
(0.270313 0.137465 1.89269e-19)
(0.252835 0.111809 -7.09909e-20)
(0.271581 0.134555 1.25296e-20)
(0.236715 0.0811921 -7.79497e-20)
(0.264157 0.120091 1.30197e-20)
(0.211454 0.041361 3.16501e-20)
(0.244789 0.0899857 -1.68869e-20)
(0.188357 0.00877055 6.44005e-21)
(0.214842 0.0456909 3.34144e-20)
(0.184168 0.00458904 -2.88212e-20)
(0.220323 0.117446 1.53688e-20)
(0.213215 0.12423 1.74351e-19)
(0.236092 0.111091 0)
(0.229875 0.109384 1.38651e-20)
(0.247338 0.111966 0)
(0.239164 0.103232 0)
(0.257436 0.117576 4.30494e-20)
(0.245966 0.103215 0)
(0.267144 0.126023 8.62202e-20)
(0.252638 0.107757 -1.63789e-20)
(0.275852 0.135035 7.678e-20)
(0.259808 0.116124 1.04605e-19)
(0.282072 0.141359 3.81949e-20)
(0.267926 0.126269 1.13761e-21)
(0.283118 0.140834 9.59337e-20)
(0.275256 0.134874 -1.99505e-20)
(0.274095 0.127309 7.43883e-20)
(0.278087 0.138461 6.20187e-20)
(0.250026 0.0941834 -1.5783e-20)
(0.270967 0.13039 -1.35589e-21)
(0.214851 0.0421925 -4.05798e-21)
(0.250348 0.0981286 1.00837e-20)
(0.215593 0.0302232 -5.53372e-21)
(0.224078 0.116713 1.74836e-19)
(0.212001 0.131699 1.38788e-19)
(0.232303 0.101362 1.40455e-20)
(0.221358 0.107239 -1.67891e-20)
(0.23642 0.0945708 0)
(0.22375 0.0928744 1.05379e-20)
(0.239658 0.0939099 -6.07618e-20)
(0.224096 0.0862411 4.17672e-20)
(0.24383 0.0984079 -2.2617e-22)
(0.224823 0.0853029 -1.38626e-19)
(0.250467 0.107748 2.70606e-20)
(0.227652 0.0891741 6.24075e-20)
(0.259634 0.120261 -5.95265e-20)
(0.233564 0.0976664 -5.79966e-20)
(0.269651 0.133273 -5.68941e-20)
(0.243471 0.109648 2.27851e-20)
(0.27644 0.141907 -1.63744e-20)
(0.255085 0.123516 -3.23603e-20)
(0.272213 0.13344 2.38106e-20)
(0.263645 0.135799 1.11974e-21)
(0.246663 0.0857243 8.2082e-21)
(0.265164 0.133344 8.30394e-21)
(0.252786 0.0731563 4.48712e-21)
(0.211491 0.120377 -5.15882e-20)
(0.197554 0.144373 -2.6633e-20)
(0.212771 0.095915 -3.10819e-20)
(0.201071 0.110294 -5.48999e-20)
(0.210914 0.08192 5.29364e-20)
(0.198714 0.087342 6.83757e-20)
(0.208748 0.0755885 -3.32633e-20)
(0.194854 0.0743632 -1.32798e-21)
(0.207855 0.0748281 -7.80706e-20)
(0.192021 0.0690084 -2.12825e-20)
(0.209607 0.0785157 -2.32497e-20)
(0.191866 0.0692115 0)
(0.216075 0.0866041 2.48862e-20)
(0.195288 0.0730865 -2.94221e-20)
(0.227913 0.0997951 4.87937e-20)
(0.204418 0.0810098 3.69966e-20)
(0.243652 0.118469 -1.48479e-20)
(0.21781 0.093706 0)
(0.259518 0.136752 -1.48479e-20)
(0.233586 0.111194 4.42825e-21)
(0.260174 0.120796 4.5391e-21)
(0.250487 0.13256 -5.05739e-21)
(0.272873 0.110039 1.43272e-21)
(0.189482 0.131121 -2.98261e-20)
(0.176778 0.163261 -4.91947e-20)
(0.18688 0.0979451 3.52076e-20)
(0.17716 0.120071 1.30249e-20)
(0.182152 0.0767275 1.17377e-20)
(0.172405 0.0881521 5.31068e-20)
(0.177972 0.0652062 6.81308e-21)
(0.166755 0.068081 -4.50304e-20)
(0.176076 0.060717 5.33552e-20)
(0.163159 0.0578047 5.39118e-20)
(0.177702 0.0611796 -5.98024e-21)
(0.163145 0.0543527 0)
(0.183403 0.0655218 -1.81731e-20)
(0.1673 0.0552878 6.91467e-21)
(0.193781 0.0735854 -1.24789e-20)
(0.175954 0.0597175 -1.62307e-20)
(0.209246 0.0863862 2.04047e-20)
(0.188946 0.0687438 -4.5044e-22)
(0.229504 0.109001 1.20925e-20)
(0.206528 0.0831255 1.98412e-20)
(0.250683 0.122482 -8.42242e-21)
(0.226877 0.107763 -5.96066e-21)
(0.271812 0.117747 -4.46387e-21)
(0.164914 0.1509 -6.93271e-21)
(0.151712 0.180404 -2.82164e-20)
(0.161696 0.107795 2.75736e-20)
(0.153846 0.136826 2.78442e-20)
(0.156057 0.0773596 0)
(0.149912 0.0975249 9.08216e-21)
(0.15139 0.0592258 0)
(0.143685 0.068549 0)
(0.149954 0.0503387 0)
(0.139502 0.0509321 3.05156e-21)
(0.152701 0.0473873 1.1016e-20)
(0.139674 0.0424434 0)
(0.159793 0.0483935 7.35617e-21)
(0.144827 0.0399266 1.32878e-20)
(0.171242 0.053316 -4.11499e-21)
(0.154619 0.0412818 -4.5923e-21)
(0.187998 0.0633306 -1.23963e-21)
(0.168954 0.0464449 4.23882e-22)
(0.209452 0.0802141 1.05185e-21)
(0.188704 0.057811 -7.92137e-22)
(0.238189 0.100246 -1.65794e-21)
(0.211901 0.0776829 -1.21606e-21)
(0.261325 0.0975881 -3.95129e-21)
(0.139594 0.166353 5.85799e-21)
(0.121982 0.174639 -2.48181e-21)
(0.140095 0.12621 9.17219e-21)
(0.12863 0.144824 -4.09329e-21)
(0.135919 0.0881666 9.17219e-21)
(0.129665 0.110703 -6.52097e-22)
(0.130957 0.059553 3.08181e-21)
(0.126462 0.0777965 -2.34676e-20)
(0.128801 0.0423949 3.08181e-21)
(0.122356 0.0516671 5.82894e-21)
(0.13154 0.0344352 1.49387e-21)
(0.121168 0.0348094 0)
(0.139525 0.0322267 -3.72326e-22)
(0.125223 0.0263059 8.50181e-21)
(0.15241 0.0337745 -1.45063e-21)
(0.135023 0.0236911 5.49423e-21)
(0.170513 0.039483 4.15558e-22)
(0.15029 0.0251539 1.38978e-20)
(0.196134 0.0525325 1.4978e-21)
(0.172028 0.0308829 0)
(0.230439 0.0694982 -1.61911e-21)
(0.199169 0.0449681 1.51169e-21)
(0.249434 0.0579662 -1.21602e-21)
(0.109383 0.153212 -8.59051e-21)
(0.0900285 0.151265 2.46468e-20)
(0.11658 0.128939 -1.24767e-20)
(0.100012 0.132045 6.3754e-21)
(0.118724 0.100216 -3.20322e-20)
(0.10686 0.10984 -2.87616e-20)
(0.116805 0.0700227 -1.88546e-20)
(0.109832 0.0847608 -7.35646e-21)
(0.11412 0.0440029 3.31692e-21)
(0.109559 0.0586409 3.39075e-20)
(0.114486 0.0263556 7.48296e-21)
(0.10844 0.0353583 1.13748e-20)
(0.12041 0.0172632 1.59439e-20)
(0.109803 0.0184088 -5.65377e-21)
(0.132738 0.0143135 2.17384e-20)
(0.116368 0.00856044 -8.64145e-21)
(0.151898 0.0153474 1.36045e-20)
(0.129569 0.0042804 1.47218e-21)
(0.179204 0.021371 0)
(0.15086 0.00403498 9.37068e-21)
(0.220957 0.0291642 3.0899e-21)
(0.180213 0.00787854 -1.23806e-20)
(0.237643 0.000100487 3.11815e-21)
(0.0790249 0.130683 3.19211e-20)
(0.0610908 0.127585 1.09228e-20)
(0.0887011 0.112886 -9.88683e-21)
(0.0716102 0.11265 -1.41885e-20)
(0.0966894 0.0940667 -4.66236e-21)
(0.0813449 0.0959435 -9.2169e-21)
(0.101678 0.0732823 4.66933e-20)
(0.0894654 0.078433 5.08379e-21)
(0.103254 0.0501663 4.13717e-20)
(0.0950853 0.0594811 3.2703e-20)
(0.1033 0.0275992 -1.42771e-21)
(0.0979249 0.0386606 -1.96529e-20)
(0.105297 0.00975091 -3.01596e-20)
(0.0991798 0.0181329 3.30563e-21)
(0.112645 -0.00158793 -2.92511e-20)
(0.10166 0.00100205 -1.08318e-20)
(0.127889 -0.00790308 -2.80146e-21)
(0.108617 -0.0114646 -2.58864e-20)
(0.155223 -0.0125233 -3.03655e-21)
(0.123199 -0.0214598 -9.0396e-21)
(0.206352 -0.0292862 -1.24891e-20)
(0.144861 -0.0348305 6.92268e-22)
(0.184545 -0.0794415 -3.33006e-21)
(0.13407 -0.0231934 -7.94653e-20)
(0.140746 -0.00766065 2.61448e-20)
(0.131887 -0.0299345 3.26469e-22)
(0.140435 -0.0127478 -1.4804e-20)
(0.12534 -0.0333362 1.8226e-19)
(0.135878 -0.0134297 1.53094e-20)
(0.116869 -0.0379824 3.64663e-20)
(0.128951 -0.0183525 2.87845e-19)
(0.108851 -0.0441034 -7.26672e-20)
(0.121521 -0.0271615 -1.98637e-19)
(0.102614 -0.0518058 2.73686e-19)
(0.114336 -0.0382743 0)
(0.097761 -0.0607133 6.59495e-20)
(0.108393 -0.0489303 1.63072e-19)
(0.0941158 -0.0702131 -2.07041e-19)
(0.103839 -0.0595081 -4.2365e-20)
(0.0916783 -0.0798163 -1.95233e-19)
(0.100566 -0.0704475 0)
(0.0900559 -0.0888255 -2.56766e-19)
(0.0985851 -0.0809795 -2.89019e-19)
(0.0885611 -0.0962615 -6.15336e-20)
(0.0978143 -0.0902304 3.83345e-19)
(0.0977103 -0.0973796 -1.04713e-19)
(0.0863939 -0.101096 1.22248e-19)
(0.150082 -0.00258651 9.31393e-20)
(0.154776 -0.00891907 1.79388e-20)
(0.144244 -0.000856476 2.07995e-21)
(0.153664 -0.00370529 3.91332e-20)
(0.137722 -0.00390514 1.19732e-19)
(0.148407 -0.00511623 4.43168e-20)
(0.131408 -0.0126568 6.01716e-20)
(0.142909 -0.0139414 2.91475e-20)
(0.125336 -0.0248671 -1.21909e-19)
(0.137781 -0.0274284 -1.73524e-19)
(0.118981 -0.0380531 -1.17895e-19)
(0.132539 -0.0420229 -1.07751e-19)
(0.112867 -0.0510877 5.69215e-20)
(0.127079 -0.0563016 -2.26322e-19)
(0.108354 -0.0643632 1.75982e-19)
(0.120379 -0.0717521 1.78925e-19)
(0.104895 -0.0771854 -1.04235e-19)
(0.114132 -0.0854339 2.01823e-19)
(0.10301 -0.0884993 3.39545e-19)
(0.108999 -0.0977473 -2.11549e-19)
(0.10328 -0.0972625 3.34371e-19)
(0.106001 -0.108172 4.53627e-19)
(0.105767 -0.116902 -2.75713e-19)
(0.105115 -0.103877 -2.05644e-21)
(0.161616 -0.00520824 -4.07613e-20)
(0.16992 -0.00447304 -2.69185e-20)
(0.156613 -0.00177782 8.14163e-20)
(0.170526 0.00211746 -2.57542e-20)
(0.153058 -0.00812523 -5.19879e-20)
(0.16931 -0.00497354 1.56353e-19)
(0.150203 -0.0222459 -2.18785e-19)
(0.169 -0.0205603 -1.15254e-19)
(0.146658 -0.0395692 -1.65167e-19)
(0.16809 -0.0390184 -5.92809e-20)
(0.142074 -0.0572517 -2.21866e-19)
(0.165259 -0.0573889 -2.03036e-19)
(0.136709 -0.0740651 -1.12282e-19)
(0.160075 -0.0747224 -2.02149e-19)
(0.12981 -0.0889239 2.05255e-19)
(0.152355 -0.0905516 9.78408e-20)
(0.122889 -0.102127 9.5036e-20)
(0.142556 -0.105126 1.23365e-19)
(0.117104 -0.113679 -1.12578e-19)
(0.132689 -0.118391 -1.94221e-19)
(0.113557 -0.124153 -1.85607e-19)
(0.12454 -0.130676 -2.35988e-19)
(0.11881 -0.144486 -2.34868e-19)
(0.111826 -0.137306 -1.80396e-19)
(0.178799 0.00182022 -1.09797e-20)
(0.18793 -0.00219374 -3.22029e-20)
(0.179814 -0.000791514 4.83434e-20)
(0.193357 -0.00181165 4.13808e-20)
(0.183109 -0.0166627 9.81459e-20)
(0.198864 -0.0175273 8.79676e-20)
(0.185995 -0.0373541 4.99873e-20)
(0.205029 -0.0390092 9.41718e-20)
(0.18644 -0.0577043 -9.7738e-20)
(0.208593 -0.0599779 -8.5483e-20)
(0.183366 -0.0761485 -1.83832e-19)
(0.207962 -0.0785622 -1.00168e-19)
(0.176398 -0.0928001 1.11437e-20)
(0.202591 -0.0947842 -1.05234e-20)
(0.166147 -0.108085 1.30303e-20)
(0.19267 -0.109431 1.79283e-19)
(0.154013 -0.122134 -1.74005e-19)
(0.178948 -0.123354 -1.18308e-20)
(0.142065 -0.135567 -3.23999e-19)
(0.163313 -0.137335 -2.21563e-19)
(0.131574 -0.151037 -2.85113e-19)
(0.147599 -0.152617 -1.08162e-19)
(0.132599 -0.172167 -3.57961e-20)
(0.122678 -0.172268 2.08582e-19)
(0.199484 -0.00463237 2.11741e-20)
(0.205875 -0.00665464 -3.54e-20)
(0.208579 -0.0168907 8.14006e-20)
(0.219419 -0.0170887 4.06039e-20)
(0.218928 -0.0391494 8.55325e-20)
(0.232601 -0.0401917 1.0643e-19)
(0.226861 -0.0616403 -3.92135e-20)
(0.245201 -0.0644116 -1.94533e-20)
(0.230264 -0.0812195 -8.71446e-20)
(0.253611 -0.0850244 -8.44684e-20)
(0.227919 -0.0977194 7.71075e-20)
(0.255938 -0.101386 -7.11883e-20)
(0.219841 -0.112086 1.60497e-19)
(0.251094 -0.114952 8.22138e-20)
(0.206548 -0.125332 1.56195e-19)
(0.239136 -0.126837 8.03454e-20)
(0.18952 -0.138786 -5.76613e-20)
(0.220713 -0.138904 7.7856e-20)
(0.170506 -0.154344 3.54171e-22)
(0.197977 -0.152723 -1.36258e-19)
(0.150617 -0.174217 1.51454e-19)
(0.173234 -0.169528 2.28546e-19)
(0.147324 -0.190662 2.51952e-20)
(0.131723 -0.198244 -9.08193e-20)
(0.2231 -0.0200583 -1.71794e-20)
(0.22258 -0.0202058 -2.13755e-20)
(0.240206 -0.0411388 6.559e-20)
(0.24545 -0.0414582 1.25016e-20)
(0.257258 -0.0669956 4.27138e-21)
(0.265369 -0.0696622 2.02937e-20)
(0.271064 -0.0897315 -6.37971e-20)
(0.284035 -0.0949913 -1.10032e-19)
(0.279062 -0.107195 -6.57334e-20)
(0.297889 -0.113454 -4.77755e-20)
(0.279269 -0.12016 -6.57334e-20)
(0.304508 -0.125468 -1.85056e-20)
(0.270837 -0.13078 0)
(0.30204 -0.134061 0)
(0.253591 -0.141065 0)
(0.29019 -0.141076 0)
(0.229679 -0.153163 0)
(0.268177 -0.150194 0)
(0.20197 -0.169045 9.47529e-20)
(0.237304 -0.162775 0)
(0.171578 -0.188511 9.17408e-20)
(0.202185 -0.177426 2.2347e-19)
(0.165348 -0.19534 -6.92224e-20)
(0.141422 -0.208808 3.98877e-21)
(0.245913 -0.0436368 8.53477e-21)
(0.23662 -0.0407023 -1.07792e-20)
(0.268546 -0.0720185 -3.3982e-20)
(0.266065 -0.0703939 -5.8632e-21)
(0.290664 -0.100326 -9.35547e-20)
(0.28823 -0.101659 -4.08205e-20)
(0.309567 -0.121776 -9.43751e-20)
(0.30902 -0.125978 -3.97731e-20)
(0.322537 -0.134867 -2.43615e-22)
(0.32494 -0.139532 -4.88901e-20)
(0.32695 -0.141747 4.85911e-20)
(0.3339 -0.144009 -2.71815e-20)
(0.32099 -0.146379 0)
(0.33433 -0.144763 0)
(0.303831 -0.152286 0)
(0.326127 -0.145786 6.54681e-20)
(0.275675 -0.16143 0)
(0.307362 -0.15123 -1.21213e-19)
(0.238084 -0.173983 1.29127e-19)
(0.276449 -0.161101 -4.67412e-20)
(0.196716 -0.189647 4.54109e-20)
(0.234295 -0.174204 2.65455e-20)
(0.187789 -0.187139 -5.45662e-20)
(0.155466 -0.203663 3.98775e-20)
(0.262644 -0.0684731 -2.46331e-20)
(0.246701 -0.0610615 -4.28563e-21)
(0.284487 -0.101214 -1.39356e-20)
(0.276124 -0.0961703 2.98155e-20)
(0.304992 -0.128739 1.10335e-20)
(0.292653 -0.127066 2.30796e-20)
(0.322564 -0.14494 5.18529e-21)
(0.307983 -0.146725 3.83308e-20)
(0.335288 -0.149786 -7.71721e-20)
(0.318855 -0.15165 0)
(0.341306 -0.148091 -7.71721e-20)
(0.32463 -0.145861 6.62293e-20)
(0.339234 -0.145881 6.62048e-20)
(0.325584 -0.137837 -1.39127e-19)
(0.328422 -0.147562 -5.77648e-20)
(0.321784 -0.133802 1.31288e-19)
(0.306759 -0.154353 -1.69844e-19)
(0.311183 -0.136544 -6.44634e-20)
(0.272463 -0.165106 -1.46187e-19)
(0.290817 -0.145339 -2.92413e-20)
(0.226257 -0.176864 -6.16227e-20)
(0.257711 -0.15755 -7.55887e-20)
(0.212287 -0.169454 1.86718e-20)
(0.17591 -0.186431 1.11321e-20)
(0.270467 -0.0877004 5.23083e-20)
(0.252737 -0.0729577 1.73177e-21)
(0.283076 -0.120634 7.07323e-20)
(0.275999 -0.110867 4.51197e-20)
(0.293434 -0.143053 5.42668e-20)
(0.279456 -0.137842 1.89467e-20)
(0.301614 -0.150474 3.55043e-20)
(0.283563 -0.150081 6.63241e-20)
(0.307297 -0.14502 1.50001e-19)
(0.284988 -0.145024 -9.43183e-20)
(0.310073 -0.134331 6.29124e-21)
(0.284677 -0.129693 1.51473e-19)
(0.309534 -0.126012 -6.99286e-20)
(0.284628 -0.115381 -2.04475e-19)
(0.30481 -0.124325 1.20756e-19)
(0.283157 -0.108053 7.30515e-20)
(0.294303 -0.130115 6.72449e-20)
(0.277682 -0.109384 1.3467e-19)
(0.275309 -0.141274 3.61804e-20)
(0.266731 -0.117885 -9.78384e-21)
(0.244207 -0.153576 8.7749e-21)
(0.248429 -0.130365 6.95525e-20)
(0.21976 -0.143037 -5.51398e-20)
(0.200155 -0.162351 -2.52462e-20)
(0.272206 -0.0947132 -2.78063e-21)
(0.257733 -0.0720427 6.2618e-21)
(0.270307 -0.125307 -7.84515e-21)
(0.269196 -0.11112 -1.66864e-20)
(0.265276 -0.14192 3.07734e-20)
(0.258126 -0.132252 0)
(0.261392 -0.141454 -5.65982e-20)
(0.248735 -0.138368 3.10586e-20)
(0.260545 -0.12776 -9.52533e-20)
(0.240911 -0.127237 -6.35498e-20)
(0.261834 -0.110576 -6.31214e-20)
(0.23624 -0.106976 1.42369e-19)
(0.261907 -0.0976247 -4.47095e-20)
(0.235845 -0.0883072 -1.71952e-19)
(0.258794 -0.0928018 8.66308e-20)
(0.236042 -0.0780063 9.66504e-20)
(0.25188 -0.0966966 5.94974e-20)
(0.233288 -0.0779262 5.50915e-20)
(0.240902 -0.10712 2.54144e-20)
(0.226124 -0.085731 -3.78465e-20)
(0.224663 -0.120547 1.13428e-21)
(0.214417 -0.0978188 4.5042e-20)
(0.197729 -0.110935 -3.77276e-20)
(0.200393 -0.132703 -4.34966e-20)
(0.270805 -0.0910959 -3.52991e-21)
(0.272071 -0.0575925 8.42632e-21)
(0.253339 -0.118736 -8.8506e-21)
(0.264695 -0.0985345 -1.11976e-20)
(0.235247 -0.128649 0)
(0.239407 -0.115604 1.2922e-20)
(0.221062 -0.123777 2.99372e-20)
(0.215428 -0.117899 0)
(0.214142 -0.106753 1.71984e-19)
(0.198395 -0.104368 3.02e-20)
(0.212972 -0.0859955 2.87315e-20)
(0.189444 -0.0820346 9.2415e-20)
(0.213753 -0.0698127 -1.74281e-20)
(0.187545 -0.061146 -1.04585e-19)
(0.213354 -0.0631448 6.54496e-20)
(0.189222 -0.0498225 2.35587e-20)
(0.209737 -0.0658511 -4.03407e-20)
(0.189908 -0.0494013 7.77767e-21)
(0.201847 -0.074654 -1.84429e-20)
(0.18691 -0.0563118 7.43511e-22)
(0.189523 -0.0863164 -6.307e-21)
(0.179406 -0.0667706 -1.13197e-20)
(0.167371 -0.0785196 6.52188e-21)
(0.173256 -0.0986153 8.86067e-21)
(0.283529 -0.0626208 -1.94175e-21)
(0.213783 -0.0385333 -8.78454e-21)
(0.246548 -0.0976547 9.86623e-21)
(0.216268 -0.0672374 6.03557e-21)
(0.212588 -0.107001 1.30365e-20)
(0.199487 -0.0836754 8.24456e-21)
(0.186794 -0.0998883 0)
(0.173665 -0.0866582 0)
(0.171524 -0.0809335 -5.06931e-20)
(0.152118 -0.0738723 0)
(0.165464 -0.0584624 -4.50645e-20)
(0.140279 -0.0522222 -5.11159e-20)
(0.165534 -0.0420078 -6.07218e-20)
(0.138382 -0.0331854 5.67549e-21)
(0.167567 -0.036119 -3.57897e-20)
(0.142482 -0.0240568 -6.71635e-20)
(0.16823 -0.0392376 5.23105e-20)
(0.14687 -0.0247243 3.69956e-20)
(0.16555 -0.0475059 1.42887e-20)
(0.148346 -0.031226 1.44079e-20)
(0.158467 -0.0578696 -4.40688e-21)
(0.145888 -0.0403601 -1.23805e-20)
(0.146591 -0.0686587 -1.94175e-20)
(0.139044 -0.0505682 -4.07575e-21)
(0.0830361 -0.103211 2.4868e-19)
(0.097051 -0.103053 2.17986e-19)
(0.0781744 -0.104498 -4.16302e-19)
(0.0940355 -0.109617 -5.24611e-20)
(0.0712502 -0.106357 -2.46382e-19)
(0.0891543 -0.117191 -3.61235e-19)
(0.0619664 -0.107135 2.94955e-19)
(0.0843869 -0.122028 3.00439e-19)
(0.051671 -0.105621 5.58856e-20)
(0.0779946 -0.123645 -8.66012e-20)
(0.0414656 -0.102393 1.09568e-19)
(0.0690954 -0.123218 1.44938e-19)
(0.031178 -0.0995012 1.09224e-19)
(0.0571625 -0.121867 4.23594e-21)
(0.0204788 -0.0994624 -7.96775e-20)
(0.0416148 -0.120397 1.06701e-19)
(0.00937976 -0.103905 -1.36428e-19)
(0.0238128 -0.119805 -1.38965e-19)
(-0.00199368 -0.113104 1.32716e-20)
(0.00607843 -0.121623 2.42956e-20)
(-0.0110551 -0.124847 6.45629e-21)
(-0.00780229 -0.12831 -6.88619e-20)
(-0.0119849 -0.134349 1.0521e-20)
(0.105838 -0.112352 -8.61684e-20)
(0.106538 -0.127712 1.05533e-19)
(0.103759 -0.124856 8.19415e-21)
(0.105392 -0.143136 -1.21185e-19)
(0.101052 -0.135806 1.95269e-19)
(0.104777 -0.157658 5.65663e-20)
(0.0984253 -0.141421 -8.82421e-20)
(0.106496 -0.166551 1.40559e-19)
(0.0929479 -0.142919 1.43835e-21)
(0.106561 -0.171546 -1.85905e-20)
(0.0826582 -0.141854 3.93789e-20)
(0.102035 -0.174396 2.19917e-19)
(0.0667621 -0.139813 1.45306e-21)
(0.0904756 -0.175049 -1.24593e-19)
(0.0458031 -0.138366 5.17546e-20)
(0.0703855 -0.172974 1.25913e-19)