/*--------------------------------*- C++ -*----------------------------------*\
| =========                 |                                                 |
| \\      /  F ield         | OpenFOAM: The Open Source CFD Toolbox           |
|  \\    /   O peration     | Version:  2.3.1                                 |
|   \\  /    A nd           | Web:      www.OpenFOAM.org                      |
|    \\/     M anipulation  |                                                 |
\*---------------------------------------------------------------------------*/
FoamFile
{
    version     2.0;
    format      ascii;
    class       volScalarField;
    location    "0.72";
    object      epsilon;
}
// * * * * * * * * * * * * * * * * * * * * * * * * * * * * * * * * * * * * * //

dimensions      [0 2 -3 0 0 0 0];

internalField   nonuniform List<scalar> 
1000
(
0.000925884
0.00095884
0.00095965
0.000959615
0.000959597
0.00095959
0.000959582
0.000959579
0.000959491
0.000956785
0.000959914
0.000966825
0.000967317
0.000967325
0.000967321
0.000967316
0.000967303
0.000967278
0.000966762
0.000958062
0.000962317
0.000969149
0.000969736
0.000969764
0.000969767
0.000969757
0.000969736
0.000969695
0.000969094
0.000959553
0.000964166
0.000971639
0.000972318
0.000972384
0.000972402
0.000972395
0.000972361
0.000972299
0.000971631
0.000961532
0.00096633
0.000974887
0.000975686
0.000975803
0.000975839
0.000975829
0.000975803
0.000975696
0.000974961
0.000963807
0.000959092
0.000965229
0.00096581
0.000965895
0.000965924
0.000965936
0.000965939
0.000965929
0.000965494
0.000958042
0.000966043
0.000632688
0.000615574
0.000614855
0.000614802
0.000614777
0.000614759
0.000615216
0.000631482
0.000964602
0.00096789
0.0006129
0.000594304
0.000593588
0.000593569
0.000593565
0.000593569
0.000594111
0.000611959
0.000966423
0.000969668
0.000612217
0.000593506
0.000592793
0.000592779
0.000592777
0.000592784
0.000593337
0.000611395
0.000968218
0.000971827
0.000613686
0.000594856
0.000594201
0.000594216
0.000594217
0.0005942
0.000594705
0.000612936
0.000970415
0.000961321
0.000966749
0.000967317
0.000967398
0.000967432
0.00096745
0.000967457
0.000967446
0.000966967
0.000959099
0.000967288
0.00061529
0.000596872
0.000596131
0.000596094
0.000596077
0.000596067
0.000596585
0.000614219
0.000965967
0.000968912
0.000594701
0.000574507
0.000573709
0.000573689
0.000573688
0.000573695
0.000574302
0.000593677
0.000967622
0.000970483
0.000594079
0.000573742
0.000572944
0.000572928
0.000572927
0.000572934
0.000573549
0.00059311
0.000969177
0.000972461
0.000594937
0.000574481
0.000573706
0.000573703
0.000573703
0.000573699
0.000574294
0.000594009
0.000971164
0.000962209
0.000967577
0.000968115
0.00096818
0.00096821
0.000968227
0.000968234
0.000968221
0.00096774
0.000959844
0.000967991
0.000613511
0.000595097
0.000594381
0.000594353
0.000594343
0.00059434
0.000594871
0.000612634
0.000966652
0.000969425
0.000593771
0.000573561
0.000572764
0.000572745
0.000572744
0.000572753
0.000573364
0.000592809
0.000968147
0.000970809
0.000593221
0.000572882
0.000572084
0.000572067
0.000572067
0.000572074
0.000572689
0.000592276
0.00096951
0.000972581
0.0005937
0.000573278
0.000572487
0.000572475
0.000572474
0.000572477
0.000573086
0.000592772
0.000971269
0.000962687
0.000968028
0.000968544
0.000968596
0.000968621
0.000968634
0.00096864
0.000968624
0.000968141
0.000960226
0.000968399
0.000612343
0.000593928
0.00059322
0.000593196
0.000593191
0.000593195
0.000593735
0.000611565
0.000967014
0.000969718
0.000593542
0.000573378
0.000572586
0.000572566
0.000572566
0.000572576
0.000573187
0.000592625
0.000968417
0.000970996
0.000593061
0.000572795
0.000572003
0.000571986
0.000571985
0.000571993
0.000572603
0.000592144
0.00096968
0.000972637
0.000593378
0.000573077
0.000572289
0.000572274
0.000572273
0.000572278
0.000572884
0.000592467
0.000971304
0.000962764
0.000968247
0.000968765
0.000968814
0.000968835
0.000968846
0.00096885
0.00096883
0.000968336
0.000960256
0.000968497
0.000611648
0.000593236
0.000592539
0.000592522
0.000592523
0.000592534
0.00059308
0.000610952
0.000967083
0.000969826
0.000593461
0.000573334
0.000572547
0.000572529
0.000572529
0.00057254
0.00057315
0.000592582
0.000968506
0.00097113
0.000593043
0.000572832
0.000572047
0.000572031
0.000572031
0.000572039
0.000572645
0.000592156
0.000969798
0.000972789
0.00059333
0.000573119
0.000572339
0.000572325
0.000572325
0.000572329
0.000572928
0.000592442
0.00097144
0.000962474
0.000968307
0.000968845
0.000968893
0.000968912
0.000968919
0.000968919
0.000968893
0.000968376
0.000959935
0.000968309
0.000611627
0.000593231
0.000592535
0.000592519
0.00059252
0.00059253
0.000593076
0.000610947
0.000966866
0.000969779
0.000593576
0.000573475
0.000572693
0.000572675
0.000572676
0.000572685
0.000573292
0.00059271
0.000968432
0.000971264
0.000593233
0.000573051
0.000572271
0.000572257
0.000572258
0.000572263
0.000572863
0.000592351
0.000969904
0.000973121
0.000593648
0.000573481
0.000572714
0.000572704
0.000572705
0.000572703
0.000573288
0.00059276
0.000971741
0.000961804
0.00096796
0.000968517
0.000968566
0.000968583
0.000968589
0.000968586
0.000968553
0.000968015
0.000959246
0.000967789
0.000612471
0.000594171
0.000593484
0.000593468
0.000593469
0.000593479
0.00059402
0.000611811
0.00096632
0.000969492
0.000594739
0.000574769
0.000574
0.000573986
0.000573988
0.000573994
0.000574589
0.000593893
0.000968117
0.000971263
0.0005947
0.000574682
0.000573925
0.000573918
0.000573919
0.000573918
0.000574498
0.000593839
0.000969869
0.000973495
0.000595824
0.00057591
0.000575195
0.000575203
0.000575205
0.000575184
0.000575721
0.00059496
0.000972078
0.000960707
0.00096667
0.000967192
0.000967238
0.000967253
0.000967257
0.00096725
0.000967218
0.000966708
0.000958123
0.00096654
0.000632566
0.000615866
0.000615274
0.000615274
0.000615279
0.000615282
0.000615753
0.000632094
0.000964976
0.000968483
0.000617561
0.000599508
0.000598873
0.000598884
0.00059889
0.00059888
0.000599375
0.000616941
0.000966998
0.000970581
0.000619805
0.000601916
0.000601342
0.000601376
0.000601384
0.000601347
0.00060178
0.000619181
0.000969064
0.000973337
0.000625705
0.000608398
0.00060799
0.000608081
0.000608087
0.000607992
0.000608264
0.000625109
0.000971787
0.000956901
0.000957106
0.000957132
0.000957143
0.000957147
0.00095715
0.000957147
0.000957138
0.000957045
0.000954169
0.000958409
0.000964301
0.000964849
0.000964899
0.000964913
0.000964916
0.000964905
0.000964868
0.000964346
0.00095575
0.000960253
0.000966658
0.000967306
0.000967386
0.000967412
0.000967418
0.000967392
0.000967325
0.000966709
0.000957593
0.0009627
0.000969195
0.000969916
0.000970035
0.000970078
0.000970082
0.000970036
0.000969923
0.000969219
0.000960028
0.000966477
0.000973206
0.000974051
0.000974227
0.000974287
0.000974286
0.00097422
0.000974028
0.000973202
0.000963835
0.000975081
0.000983016
0.000984149
0.000984373
0.000984424
0.000984422
0.000984355
0.000984116
0.000982998
0.000972552
0.000994124
0.00104582
0.00105086
0.00104936
0.00104856
0.00104852
0.00104922
0.00105066
0.00104718
0.000992582
0.00120834
0.00192591
0.00198499
0.00194815
0.00193457
0.00193392
0.00194567
0.00198188
0.00194517
0.00121877
0.00312053
0.0100027
0.0107637
0.0105472
0.010455
0.0104484
0.0105249
0.0107374
0.0101607
0.00322391
0.0135403
0.0537142
0.0597406
0.0598624
0.0597467
0.0597154
0.059764
0.0596373
0.0544527
0.0139801
0.000977037
0.000638328
0.000622319
0.000622186
0.000622338
0.000622342
0.000622188
0.000622199
0.000637847
0.000975503
0.000981899
0.000674329
0.000661947
0.000662488
0.000662669
0.000662668
0.000662488
0.000661879
0.000674388
0.000980515
0.00100907
0.000887887
0.000891093
0.000889323
0.000888602
0.000888546
0.0008891
0.000890975
0.00089147
0.00100892
0.00148477
0.00480303
0.00493434
0.00455364
0.00443035
0.00442693
0.00454126
0.00492307
0.0048998
0.00150933
0.0221083
0.147247
0.161016
0.160921
0.160507
0.160448
0.16074
0.160925
0.149208
0.0229827
0.000975446
0.000597888
0.000578235
0.000577617
0.000577659
0.00057766
0.000577605
0.000578045
0.00059705
0.000974074
0.000978347
0.000601545
0.000582383
0.000581842
0.000581873
0.000581873
0.000581831
0.000582204
0.00060081
0.000977059
0.000984551
0.000657391
0.000644734
0.000645764
0.000646177
0.00064618
0.000645776
0.000644728
0.000657791
0.000983592
0.00127156
0.00360359
0.00381093
0.00379939
0.00379264
0.00379195
0.00379772
0.00381337
0.00365805
0.00128542
0.0235202
0.150996
0.161319
0.161149
0.160868
0.16084
0.161074
0.16142
0.153036
0.0244461
0.000974136
0.000593933
0.000573792
0.000573062
0.000573069
0.000573069
0.000573048
0.000573595
0.000593042
0.000972782
0.000976505
0.000593739
0.000573582
0.000572809
0.000572789
0.000572788
0.000572793
0.000573382
0.000592869
0.000975203
0.000980063
0.000630379
0.000613416
0.000613019
0.000613174
0.000613185
0.000613043
0.000613359
0.000630346
0.000979021
0.00124588
0.00361937
0.00382734
0.00383699
0.00383654
0.00383632
0.00383682
0.00383277
0.00367498
0.00125878
0.0251896
0.164087
0.174673
0.174968
0.174864
0.174854
0.174952
0.17491
0.166416
0.0262253
0.000973402
0.000593319
0.000573095
0.00057234
0.000572339
0.000572338
0.000572327
0.0005729
0.000592427
0.00097206
0.000975574
0.000592838
0.000572542
0.000571738
0.000571713
0.000571711
0.000571723
0.000572345
0.000591951
0.000974266
0.000978364
0.000623375
0.000605996
0.000605598
0.000605742
0.000605753
0.000605626
0.000605938
0.000623249
0.000977262
0.00124441
0.00374626
0.00396152
0.00397987
0.00398368
0.00398373
0.00398081
0.00396959
0.00380678
0.00125761
0.0260305
0.169921
0.180747
0.181297
0.181296
0.181295
0.181316
0.181057
0.172394
0.0271247
0.000973256
0.000593572
0.000573213
0.000572456
0.000572457
0.000572457
0.000572443
0.000573021
0.000592665
0.000971927
0.000975601
0.000593213
0.000572548
0.000571726
0.000571701
0.000571699
0.000571714
0.000572354
0.000592311
0.000974298
0.000978751
0.000626687
0.000610119
0.000610092
0.000610319
0.000610326
0.000610115
0.000610076
0.000626623
0.000977634
0.00139585
0.00502296
0.0054117
0.00552362
0.00556351
0.00556424
0.00552854
0.00542885
0.00511026
0.00141713
0.0262949
0.169498
0.18016
0.180725
0.180741
0.180741
0.18076
0.180502
0.171996
0.0274216
0.000973586
0.000594538
0.000574
0.000573258
0.000573274
0.000573274
0.000573251
0.000573814
0.000593629
0.000972293
0.000976347
0.000594497
0.000573215
0.000572385
0.000572363
0.000572365
0.000572376
0.000573029
0.000593592
0.000975034
0.000981801
0.000643915
0.000629314
0.000630565
0.000631273
0.00063129
0.000630648
0.000629395
0.000644153
0.000980779
0.00165325
0.00598728
0.00652044
0.00678388
0.00688467
0.00688728
0.0067955
0.00654903
0.00608204
0.00168674
0.0264314
0.164469
0.174458
0.174977
0.175
0.175003
0.175028
0.174825
0.166892
0.0275887
0.000974375
0.000596496
0.000575804
0.000575087
0.000575116
0.00057512
0.000575084
0.000575631
0.000595602
0.000973093
0.00097721
0.000598967
0.000577172
0.000576469
0.000576496
0.000576498
0.000576473
0.000577
0.000598092
0.000975874
0.00098898
0.000666495
0.000652729
0.000655537
0.00065691
0.000656951
0.00065568
0.000652908
0.000666717
0.000988074
0.00184483
0.00411553
0.00446735
0.0046434
0.00471788
0.00471978
0.00465189
0.00448469
0.00416886
0.00187759
0.0257209
0.146325
0.154585
0.15532
0.155484
0.155492
0.155401
0.154954
0.14834
0.0268203
0.000975297
0.000614958
0.00059563
0.000594974
0.000594999
0.000595001
0.000594977
0.000595485
0.000614235
0.000973938
0.000977128
0.000628897
0.000609038
0.000608903
0.00060911
0.00060912
0.000608924
0.000608938
0.000628309
0.000975682
0.000998531
0.000720167
0.000706124
0.000708172
0.000709235
0.00070926
0.000708267
0.000706234
0.000720428
0.000997608
0.00137403
0.00279026
0.00296489
0.00300611
0.00302139
0.00302154
0.00300787
0.00297127
0.00282424
0.00138771
0.0205767
0.0955823
0.100298
0.101041
0.101298
0.10131
0.10111
0.100537
0.0966498
0.0212798
0.00096966
0.000981158
0.0009825
0.000982779
0.000982886
0.0009829
0.000982782
0.000982564
0.000981342
0.000967075
0.000967834
0.000984785
0.00098659
0.00098683
0.000986903
0.000986902
0.000986848
0.000986665
0.000984958
0.000965207
0.00100376
0.00103142
0.00103505
0.00103602
0.00103632
0.0010363
0.00103608
0.0010351
0.00103186
0.00100153
0.00112544
0.00134823
0.00138346
0.00138976
0.00139166
0.00139172
0.00138998
0.00138452
0.00135344
0.00112748
0.00758194
0.015634
0.0161891
0.0163345
0.0163833
0.016385
0.0163441
0.0162169
0.0157425
0.0077037
)
;

boundaryField
{
    walls
    {
        type            epsilonWallFunction;
        value           nonuniform List<scalar> 
500
(
0.000925884
0.000925884
0.000925884
0.00095884
0.00095884
0.00095965
0.00095965
0.000959615
0.000959615
0.000959597
0.000959597
0.00095959
0.00095959
0.000959582
0.000959582
0.000959579
0.000959579
0.000959491
0.000959491
0.000956785
0.000956785
0.000956785
0.000959914
0.000959914
0.000966825
0.000967317
0.000967325
0.000967321
0.000967316
0.000967303
0.000967278
0.000966762
0.000958062
0.000958062
0.000962317
0.000962317
0.000969149
0.000969736
0.000969764
0.000969767
0.000969757
0.000969736
0.000969695
0.000969094
0.000959553
0.000959553
0.000964166
0.000964166
0.000971639
0.000972318
0.000972384
0.000972402
0.000972395
0.000972361
0.000972299
0.000971631
0.000961532
0.000961532
0.00096633
0.00096633
0.000974887
0.000975686
0.000975803
0.000975839
0.000975829
0.000975803
0.000975696
0.000974961
0.000963807
0.000963807
0.000959092
0.000959092
0.000965229
0.00096581
0.000965895
0.000965924
0.000965936
0.000965939
0.000965929
0.000965494
0.000958042
0.000958042
0.000966043
0.000964602
0.00096789
0.000966423
0.000969668
0.000968218
0.000971827
0.000970415
0.000961321
0.000961321
0.000966749
0.000967317
0.000967398
0.000967432
0.00096745
0.000967457
0.000967446
0.000966967
0.000959099
0.000959099
0.000967288
0.000965967
0.000968912
0.000967622
0.000970483
0.000969177
0.000972461
0.000971164
0.000962209
0.000962209
0.000967577
0.000968115
0.00096818
0.00096821
0.000968227
0.000968234
0.000968221
0.00096774
0.000959844
0.000959844
0.000967991
0.000966652
0.000969425
0.000968147
0.000970809
0.00096951
0.000972581
0.000971269
0.000962687
0.000962687
0.000968028
0.000968544
0.000968596
0.000968621
0.000968634
0.00096864
0.000968624
0.000968141
0.000960226
0.000960226
0.000968399
0.000967014
0.000969718
0.000968417
0.000970996
0.00096968
0.000972637
0.000971304
0.000962764
0.000962764
0.000968247
0.000968765
0.000968814
0.000968835
0.000968846
0.00096885
0.00096883
0.000968336
0.000960256
0.000960256
0.000968497
0.000967083
0.000969826
0.000968506
0.00097113
0.000969798
0.000972789
0.00097144
0.000962474
0.000962474
0.000968307
0.000968845
0.000968893
0.000968912
0.000968919
0.000968919
0.000968893
0.000968376
0.000959935
0.000959935
0.000968309
0.000966866
0.000969779
0.000968432
0.000971264
0.000969904
0.000973121
0.000971741
0.000961804
0.000961804
0.00096796
0.000968517
0.000968566
0.000968583
0.000968589
0.000968586
0.000968553
0.000968015
0.000959246
0.000959246
0.000967789
0.00096632
0.000969492
0.000968117
0.000971263
0.000969869
0.000973495
0.000972078
0.000960707
0.000960707
0.00096667
0.000967192
0.000967238
0.000967253
0.000967257
0.00096725
0.000967218
0.000966708
0.000958123
0.000958123
0.00096654
0.000964976
0.000968483
0.000966998
0.000970581
0.000969064
0.000973337
0.000971787
0.000956901
0.000956901
0.000956901
0.000957106
0.000957106
0.000957132
0.000957132
0.000957143
0.000957143
0.000957147
0.000957147
0.00095715
0.00095715
0.000957147
0.000957147
0.000957138
0.000957138
0.000957045
0.000957045
0.000954169
0.000954169
0.000954169
0.000958409
0.000958409
0.000964301
0.000964849
0.000964899
0.000964913
0.000964916
0.000964905
0.000964868
0.000964346
0.00095575
0.00095575
0.000960253
0.000960253
0.000966658
0.000967306
0.000967386
0.000967412
0.000967418
0.000967392
0.000967325
0.000966709
0.000957593
0.000957593
0.0009627
0.0009627
0.000969195
0.000969916
0.000970035
0.000970078
0.000970082
0.000970036
0.000969923
0.000969219
0.000960028
0.000960028
0.000966477
0.000966477
0.000973206
0.000974051
0.000974227
0.000974287
0.000974286
0.00097422
0.000974028
0.000973202
0.000963835
0.000963835
0.000975081
0.000975081
0.000983016
0.000984149
0.000984373
0.000984424
0.000984422
0.000984355
0.000984116
0.000982998
0.000972552
0.000972552
0.000994124
0.000994124
0.00104582
0.00105086
0.00104936
0.00104856
0.00104852
0.00104922
0.00105066
0.00104718
0.000992582
0.000992582
0.00120834
0.00120834
0.00192591
0.00198499
0.00194815
0.00193457
0.00193392
0.00194567
0.00198188
0.00194517
0.00121877
0.00121877
0.00312053
0.00312053
0.0100027
0.0107637
0.0105472
0.010455
0.0104484
0.0105249
0.0107374
0.0101607
0.00322391
0.00322391
0.0135403
0.0135403
0.0537142
0.0597406
0.0598624
0.0597467
0.0597154
0.059764
0.0596373
0.0544527
0.0139801
0.0139801
0.000977037
0.000975503
0.000981899
0.000980515
0.00100907
0.00100892
0.00148477
0.00150933
0.0221083
0.0229827
0.000975446
0.000974074
0.000978347
0.000977059
0.000984551
0.000983592
0.00127156
0.00128542
0.0235202
0.0244461
0.000974136
0.000972782
0.000976505
0.000975203
0.000980063
0.000979021
0.00124588
0.00125878
0.0251896
0.0262253
0.000973402
0.00097206
0.000975574
0.000974266
0.000978364
0.000977262
0.00124441
0.00125761
0.0260305
0.0271247
0.000973256
0.000971927
0.000975601
0.000974298
0.000978751
0.000977634
0.00139585
0.00141713
0.0262949
0.0274216
0.000973586
0.000972293
0.000976347
0.000975034
0.000981801
0.000980779
0.00165325
0.00168674
0.0264314
0.0275887
0.000974375
0.000973093
0.00097721
0.000975874
0.00098898
0.000988074
0.00184483
0.00187759
0.0257209
0.0268203
0.000975297
0.000973938
0.000977128
0.000975682
0.000998531
0.000997608
0.00137403
0.00138771
0.0205767
0.0212798
0.00096966
0.00096966
0.000981158
0.0009825
0.000982779
0.000982886
0.0009829
0.000982782
0.000982564
0.000981342
0.000967075
0.000967075
0.000967834
0.000967834
0.000984785
0.00098659
0.00098683
0.000986903
0.000986902
0.000986848
0.000986665
0.000984958
0.000965207
0.000965207
0.00100376
0.00100376
0.00103142
0.00103505
0.00103602
0.00103632
0.0010363
0.00103608
0.0010351
0.00103186
0.00100153
0.00100153
0.00112544
0.00112544
0.00134823
0.00138346
0.00138976
0.00139166
0.00139172
0.00138998
0.00138452
0.00135344
0.00112748
0.00112748
0.00758194
0.00758194
0.015634
0.0161891
0.0163345
0.0163833
0.016385
0.0163441
0.0162169
0.0157425
0.0077037
0.0077037
)
;
        Cmu             0.09;
        kappa           0.41;
        E               9.8;
    }
    lid
    {
        type            epsilonWallFunction;
        value           nonuniform List<scalar> 
100
(
0.0135403
0.0537142
0.0597406
0.0598624
0.0597467
0.0597154
0.059764
0.0596373
0.0544527
0.0139801
0.0221083
0.147247
0.161016
0.160921
0.160507
0.160448
0.16074
0.160925
0.149208
0.0229827
0.0235202
0.150996
0.161319
0.161149
0.160868
0.16084
0.161074
0.16142
0.153036
0.0244461
0.0251896
0.164087
0.174673
0.174968
0.174864
0.174854
0.174952
0.17491
0.166416
0.0262253
0.0260305
0.169921
0.180747
0.181297
0.181296
0.181295
0.181316
0.181057
0.172394
0.0271247
0.0262949
0.169498
0.18016
0.180725
0.180741
0.180741
0.18076
0.180502
0.171996
0.0274216
0.0264314
0.164469
0.174458
0.174977
0.175
0.175003
0.175028
0.174825
0.166892
0.0275887
0.0257209
0.146325
0.154585
0.15532
0.155484
0.155492
0.155401
0.154954
0.14834
0.0268203
0.0205767
0.0955823
0.100298
0.101041
0.101298
0.10131
0.10111
0.100537
0.0966498
0.0212798
0.00758194
0.015634
0.0161891
0.0163345
0.0163833
0.016385
0.0163441
0.0162169
0.0157425
0.0077037
)
;
        Cmu             0.09;
        kappa           0.41;
        E               9.8;
    }
}


// ************************************************************************* //
