/*--------------------------------*- C++ -*----------------------------------*\
| =========                 |                                                 |
| \\      /  F ield         | OpenFOAM: The Open Source CFD Toolbox           |
|  \\    /   O peration     | Version:  2.3.1                                 |
|   \\  /    A nd           | Web:      www.OpenFOAM.org                      |
|    \\/     M anipulation  |                                                 |
\*---------------------------------------------------------------------------*/
FoamFile
{
    version     2.0;
    format      ascii;
    class       volScalarField;
    location    "0.71";
    object      p;
}
// * * * * * * * * * * * * * * * * * * * * * * * * * * * * * * * * * * * * * //

dimensions      [0 2 -2 0 0 0 0];

internalField   nonuniform List<scalar> 
15166
(
-17.2972
-22.3339
-25.1
-27.3101
-29.1884
-30.7859
-32.2174
-33.4741
-34.5608
-35.3673
-36.1093
-36.6824
-22.0192
-24.5369
-25.8949
-27.5601
-29.133
-30.5576
-31.8612
-33.0394
-34.0709
-34.9001
-35.6413
-36.2345
-27.2076
-28.0979
-28.3717
-29.3046
-30.3012
-31.3157
-32.3141
-33.2457
-34.0948
-34.8204
-35.4655
-36.0029
-30.1838
-30.5961
-30.5896
-31.1481
-31.738
-32.406
-33.1102
-33.7978
-34.4484
-35.0271
-35.5465
-35.975
-32.0525
-32.3059
-32.2786
-32.6765
-33.052
-33.5061
-34.0003
-34.4979
-34.9808
-35.4227
-35.8257
-36.1746
-33.7003
-33.8183
-33.7587
-34.0312
-34.2659
-34.5747
-34.9164
-35.2669
-35.613
-35.9355
-36.232
-36.4943
-35.2904
-35.289
-35.1798
-35.331
-35.447
-35.6346
-35.8496
-36.0768
-36.3053
-36.5204
-36.7157
-36.8782
-36.7627
-36.6741
-36.5274
-36.5779
-36.5968
-36.6804
-36.7873
-36.9085
-37.0348
-37.1552
-37.2634
-37.35
-38.0998
-37.9453
-37.7754
-37.7491
-37.6934
-37.693
-37.7107
-37.7429
-37.7823
-37.8209
-37.8534
-37.8708
-39.3219
-39.1143
-38.9289
-38.8424
-38.7295
-38.6616
-38.6069
-38.5655
-38.5318
-38.5001
-38.4648
-38.4175
-40.4512
-40.2001
-40.0026
-39.8668
-39.7082
-39.5851
-39.4708
-39.368
-39.2725
-39.1812
-39.0892
-38.9783
-41.5045
-41.2164
-41.0087
-40.831
-40.6346
-40.465
-40.3008
-40.1463
-39.9983
-39.8559
-39.7184
-39.575
-42.4894
-42.1702
-41.954
-41.7407
-41.5123
-41.3031
-41.0967
-40.8979
-40.7048
-40.5168
-40.3352
-40.1605
-43.4131
-43.0671
-42.8439
-42.6
-42.3446
-42.1015
-41.8588
-41.6212
-41.3876
-41.1561
-40.9183
-40.6614
-44.2823
-43.9131
-43.6835
-43.4131
-43.1344
-42.8623
-42.5885
-42.3182
-42.051
-41.7895
-41.5364
-41.2733
-45.1018
-44.7123
-44.4771
-44.1837
-43.8852
-43.588
-43.2877
-42.9893
-42.6932
-42.4013
-42.1186
-41.8421
-45.8762
-45.4691
-45.2288
-44.9152
-44.5992
-44.28
-43.9565
-43.6335
-43.3117
-42.9924
-42.6786
-42.3767
-46.6101
-46.1867
-45.9415
-45.6097
-45.2784
-44.9399
-44.5961
-44.2515
-43.9077
-43.5658
-43.2272
-42.8984
-47.3055
-46.8679
-46.6181
-46.2703
-45.9254
-45.5698
-45.2082
-44.8445
-44.4811
-44.1201
-43.7633
-43.4141
-47.9657
-47.5153
-47.261
-46.8988
-46.5416
-46.1707
-45.7931
-45.4123
-45.0313
-44.6526
-44.2795
-43.9197
-48.5929
-48.1307
-47.8724
-47.4972
-47.1289
-46.7442
-46.352
-45.9557
-45.5583
-45.162
-44.7696
-44.3924
-49.1886
-48.7162
-48.4541
-48.0669
-47.6885
-47.2914
-46.8862
-46.4756
-46.063
-45.6502
-45.2369
-44.8314
-49.758
-49.2743
-49.0079
-48.6098
-48.2223
-47.8139
-47.3969
-46.9738
-46.5484
-46.1234
-45.6998
-45.2839
-50.2985
-49.8047
-49.535
-49.1271
-48.7312
-48.3126
-47.8851
-47.451
-47.0142
-46.5775
-46.1412
-45.7064
-50.8068
-50.3082
-50.0362
-49.6194
-49.2161
-48.7885
-48.3516
-47.9076
-47.4603
-47.0129
-46.5666
-46.1204
-51.2966
-50.7891
-50.5134
-50.0883
-49.6783
-49.2424
-48.797
-48.3439
-47.8872
-47.43
-46.9735
-46.515
-51.7619
-51.2462
-50.9679
-50.535
-50.1186
-49.6751
-49.222
-48.7606
-48.2955
-47.8303
-47.368
-46.9034
-52.2044
-51.6807
-51.3998
-50.9598
-50.5376
-50.0872
-49.6268
-49.1579
-48.6848
-48.2105
-47.738
-47.2689
-52.6202
-52.0925
-51.8102
-51.3634
-50.936
-50.4791
-50.0122
-49.5363
-49.0557
-48.5732
-48.0899
-47.6021
-53.0166
-52.4832
-52.1997
-51.7467
-51.3145
-50.8519
-50.379
-49.8966
-49.4095
-48.9209
-48.4332
-47.9394
-53.3927
-52.8563
-52.5697
-52.1106
-51.674
-51.2059
-50.7275
-50.2394
-49.7464
-49.2517
-48.7579
-48.2576
-53.7526
-53.211
-52.921
-52.4558
-52.0148
-51.5416
-51.0582
-50.5648
-50.0663
-49.5659
-49.0677
-48.5661
-54.0829
-53.5431
-53.2518
-52.7816
-52.3369
-51.8592
-51.3712
-50.873
-50.3694
-49.8631
-49.3573
-48.8476
-54.4023
-53.8581
-53.5634
-53.0888
-52.6408
-52.159
-51.667
-51.1645
-50.6566
-50.1462
-49.6371
-49.1273
-54.7026
-54.154
-53.8575
-53.3781
-52.927
-52.4416
-51.9458
-51.4396
-50.928
-50.4141
-49.901
-49.3858
-54.9801
-54.4308
-54.1335
-53.6499
-53.196
-52.7069
-52.2077
-51.6979
-51.1829
-50.6662
-50.1525
-49.6386
-55.2417
-54.6901
-54.3923
-53.9041
-53.4476
-52.9552
-52.4526
-51.9393
-51.4204
-50.8987
-50.3783
-49.8637
-55.4913
-54.9335
-54.6345
-54.1415
-53.6824
-53.1867
-52.6808
-52.1638
-51.6409
-51.1141
-50.5839
-50.0475
-55.7141
-55.1572
-54.8595
-54.3617
-53.9005
-53.4019
-52.8931
-52.3729
-51.8467
-51.3168
-50.7825
-50.2232
-55.9287
-55.3655
-55.0682
-54.565
-54.1021
-53.601
-53.0899
-52.5676
-52.0396
-51.5106
-50.9893
-50.4637
-56.1205
-55.5559
-55.2598
-54.7515
-54.2876
-53.7843
-53.2712
-52.7466
-52.216
-51.6811
-51.1456
-50.6099
-56.297
-55.7326
-55.4335
-54.9209
-54.4569
-53.9516
-53.4364
-52.9098
-52.377
-51.8404
-51.3041
-50.7617
-56.4621
-55.8941
-55.5914
-55.0747
-54.6107
-54.1032
-53.5864
-53.0579
-52.5233
-51.9853
-51.4474
-50.8999
-56.6019
-56.0376
-55.735
-55.2118
-54.7493
-54.2398
-53.7215
-53.1913
-52.6549
-52.1153
-51.5774
-51.0364
-56.7336
-56.1661
-55.8612
-55.3348
-54.8736
-54.3615
-53.8415
-53.3097
-52.7716
-52.2298
-51.6881
-51.1419
-56.8428
-56.2767
-55.97
-55.443
-54.984
-54.4677
-53.9463
-53.4132
-52.8739
-52.3313
-51.7913
-51.2574
-56.9384
-56.3728
-56.0626
-55.5385
-55.0781
-54.5571
-54.036
-53.5018
-52.9611
-52.4163
-51.8702
-51.3255
-57.0168
-56.4555
-56.1373
-55.6205
-55.1511
-54.6336
-54.1115
-53.5758
-53.0341
-52.4887
-51.944
-51.4079
-57.083
-56.5223
-56.199
-55.686
-55.2122
-54.6952
-54.172
-53.6354
-53.0927
-52.5462
-51.9982
-51.4526
-57.1328
-56.5743
-56.2461
-55.7347
-55.2594
-54.7423
-54.2179
-53.6805
-53.1371
-52.59
-52.043
-51.5053
-57.1633
-56.6083
-56.2788
-55.7682
-55.2916
-54.7744
-54.2493
-53.7113
-53.1669
-52.6181
-52.0656
-51.5124
-57.1828
-56.6284
-56.2973
-55.7873
-55.3095
-54.7924
-54.2668
-53.7286
-53.1837
-52.6345
-52.0816
-51.52
-57.186
-56.6329
-56.3009
-55.7911
-55.3128
-54.7961
-54.2705
-53.7326
-53.1886
-52.6416
-52.0963
-51.5493
-57.1701
-56.6224
-56.2895
-55.7805
-55.3017
-54.7853
-54.26
-53.7226
-53.1789
-52.6316
-52.0845
-51.5325
-57.1431
-56.5979
-56.2635
-55.7551
-55.2763
-54.7603
-54.2351
-53.6979
-53.1542
-52.6063
-52.059
-51.5141
-57.1004
-56.5585
-56.2228
-55.7152
-55.2363
-54.7209
-54.1961
-53.6592
-53.1157
-52.5676
-52.0177
-51.4659
-57.0475
-56.5037
-56.1676
-55.6608
-55.1821
-54.6673
-54.1431
-53.6071
-53.0644
-52.5176
-51.9705
-51.4287
-56.9702
-56.4341
-56.0977
-55.592
-55.1135
-54.5997
-54.0764
-53.5414
-52.9999
-52.454
-51.9053
-51.3476
-56.8875
-56.3496
-56.0129
-55.5086
-55.0308
-54.5179
-53.9956
-53.462
-52.9224
-52.3801
-51.8432
-51.3217
-56.7837
-56.2498
-55.9134
-55.4103
-54.9333
-54.4216
-53.9005
-53.368
-52.8292
-52.286
-51.7413
-51.2041
-56.6659
-56.1358
-55.7997
-55.2981
-54.8217
-54.311
-53.7907
-53.2588
-52.7204
-52.1772
-51.6307
-51.0861
-56.5381
-56.0097
-55.6726
-55.172
-54.6963
-54.1866
-53.6672
-53.1363
-52.5986
-52.0564
-51.5108
-50.9582
-56.3948
-55.8673
-55.5307
-55.0315
-54.5566
-54.0483
-53.5304
-53.0011
-52.4651
-51.9254
-51.386
-50.8511
-56.2324
-55.7095
-55.374
-54.8767
-54.4031
-53.8963
-53.38
-52.8525
-52.3184
-51.7797
-51.2382
-50.6925
-56.0582
-55.5375
-55.2028
-54.7075
-54.2353
-53.7305
-53.2161
-52.6906
-52.1586
-51.6228
-51.0872
-50.5545
-55.8675
-55.3514
-55.0176
-54.5243
-54.0537
-53.5507
-53.0383
-52.5149
-51.9851
-51.4513
-50.9159
-50.3772
-55.6639
-55.1522
-54.8187
-54.3272
-53.8582
-53.3571
-52.8467
-52.3256
-51.7979
-51.2668
-50.7369
-50.2152
-55.4523
-54.9388
-54.6053
-54.1159
-53.6485
-53.1494
-52.641
-52.1221
-51.5966
-51.0666
-50.5345
-50.0035
-55.2131
-54.7077
-54.3767
-53.8901
-53.4246
-52.9279
-52.4217
-51.9052
-51.3821
-50.8552
-50.3286
-49.8173
-54.9653
-54.4637
-54.1342
-53.65
-53.1867
-52.6922
-52.1886
-51.6743
-51.1539
-50.6292
-50.1019
-49.5823
-54.7054
-54.2075
-53.8781
-53.3965
-52.935
-52.4428
-51.9417
-51.43
-50.9121
-50.3903
-49.8676
-49.3651
-54.4314
-53.9354
-53.6079
-53.129
-52.6697
-52.1797
-51.6809
-51.1718
-50.6563
-50.1363
-49.6116
-49.0921
-54.1435
-53.6508
-53.3234
-52.847
-52.39
-51.9029
-51.4068
-50.9004
-50.3874
-49.8703
-49.3493
-48.8346
-53.8338
-53.3483
-53.0244
-52.5516
-52.0971
-51.6129
-51.1197
-50.6164
-50.1069
-49.594
-49.0799
-48.5777
-53.5123
-53.0322
-52.7108
-52.2414
-51.7899
-51.3089
-50.8189
-50.319
-49.8128
-49.3028
-48.7893
-48.2795
-53.1851
-52.7071
-52.3853
-51.9184
-51.4692
-50.9914
-50.5046
-50.0081
-49.5055
-48.9997
-48.4934
-48.0027
-52.8382
-52.3648
-52.045
-51.5816
-51.1353
-50.6603
-50.1769
-49.6838
-49.1844
-48.681
-48.1735
-47.6687
-52.4772
-52.0069
-51.6898
-51.2301
-50.7871
-50.3155
-49.8353
-49.3459
-48.8504
-48.3516
-47.8518
-47.3679
-52.1008
-51.6361
-51.3208
-50.8647
-50.4247
-49.9567
-49.4804
-48.9946
-48.5031
-48.0082
-47.5098
-47.0136
-51.7061
-51.249
-50.9369
-50.4851
-50.0485
-49.5842
-49.1116
-48.6297
-48.1426
-47.6524
-47.1632
-46.6919
-51.3025
-50.8497
-50.5395
-50.0918
-49.6585
-49.1981
-48.7293
-48.2511
-47.7675
-47.2799
-46.7884
-46.3094
-50.886
-50.4372
-50.1292
-49.6852
-49.2554
-48.7987
-48.3334
-47.8591
-47.3789
-46.8944
-46.4036
-45.9141
-50.4539
-50.0098
-49.704
-49.2645
-48.8384
-48.3859
-47.9247
-47.455
-46.9798
-46.5014
-46.0209
-45.5442
-50.0063
-49.5678
-49.2648
-48.8299
-48.4078
-47.9597
-47.5033
-47.0387
-46.569
-46.0972
-45.6269
-45.173
-49.5436
-49.1113
-48.8114
-48.3813
-47.9634
-47.5197
-47.0681
-46.6083
-46.143
-45.6743
-45.2021
-44.7356
-49.0655
-48.6411
-48.3446
-47.9192
-47.5054
-47.0661
-46.619
-46.164
-45.7035
-45.2399
-44.7756
-44.3316
-48.5818
-48.1593
-47.8644
-47.4439
-47.0339
-46.5992
-46.1568
-45.7064
-45.2509
-44.7917
-44.3276
-43.8617
-48.0782
-47.6617
-47.3698
-46.9544
-46.5489
-46.1191
-45.6816
-45.2365
-44.7865
-44.3344
-43.8833
-43.4495
-47.5586
-47.1488
-46.8605
-46.4505
-46.05
-45.6253
-45.1933
-44.7537
-44.3091
-43.8627
-43.4166
-42.9949
-47.0252
-46.6223
-46.338
-45.9335
-45.5377
-45.1183
-44.6915
-44.2571
-43.8176
-43.3749
-42.9304
-42.5109
-46.4789
-46.082
-45.8011
-45.4022
-45.0114
-44.5975
-44.1762
-43.747
-43.3127
-42.8743
-42.4278
-41.9827
-45.9193
-45.5284
-45.2513
-44.8582
-44.4725
-44.0641
-43.6487
-43.226
-42.7994
-42.3719
-41.9471
-41.559
-45.3469
-44.9628
-44.6884
-44.301
-43.9203
-43.5177
-43.1084
-42.6921
-42.2721
-41.8501
-41.4233
-41.0078
-44.762
-44.3817
-44.1113
-43.73
-43.3548
-42.9581
-42.5545
-42.1443
-41.7303
-41.3137
-40.8942
-40.4977
-44.1563
-43.7861
-43.5202
-43.1452
-42.7755
-42.3848
-41.9873
-41.5836
-41.176
-40.7661
-40.3519
-39.9424
-43.5453
-43.1786
-42.9155
-42.5465
-42.1828
-41.7983
-41.4074
-41.0107
-40.6103
-40.2088
-39.8086
-39.4332
-42.919
-42.5575
-42.2978
-41.9349
-41.5769
-41.1988
-40.8146
-40.4246
-40.0308
-39.6349
-39.2344
-38.8359
-42.2682
-41.9178
-41.6646
-41.309
-40.9575
-40.5864
-40.2087
-39.8258
-39.4394
-39.0516
-38.6641
-38.3001
-41.615
-41.2694
-41.0189
-40.6699
-40.3248
-39.9606
-39.5902
-39.2144
-38.8358
-38.4557
-38.0726
-37.6931
-40.9443
-40.6062
-40.3603
-40.0181
-39.6798
-39.3224
-38.9592
-38.5912
-38.2203
-37.8487
-37.4799
-37.1363
-40.2627
-39.9299
-39.688
-39.3526
-39.021
-38.6712
-38.3154
-37.9551
-37.5917
-37.2259
-36.8561
-36.4982
-39.5622
-39.2383
-39.0019
-38.6744
-38.3497
-38.0073
-37.6592
-37.3067
-36.9514
-36.5948
-36.2346
-35.8832
-38.8501
-38.5341
-38.3029
-37.9832
-37.6657
-37.3313
-36.9917
-36.6478
-36.3019
-35.9568
-35.614
-35.2866
-38.1305
-37.8191
-37.5918
-37.2796
-36.9694
-36.6429
-36.3118
-35.9766
-35.6397
-35.3029
-34.9673
-34.653
-37.3936
-37.0908
-36.8683
-36.5634
-36.2608
-35.9424
-35.6193
-35.2926
-34.9641
-34.6346
-34.3019
-33.9778
-36.6453
-36.3488
-36.1314
-35.8348
-35.5398
-35.2297
-34.9149
-34.5973
-34.2785
-33.96
-33.6438
-33.355
-35.8817
-35.5942
-35.3818
-35.0934
-34.8062
-34.505
-34.1992
-33.8909
-33.5812
-33.2713
-32.9581
-32.6496
-35.1091
-34.8275
-34.6195
-34.3395
-34.0608
-33.7685
-33.4724
-33.1739
-32.874
-32.5745
-32.2746
-31.9888
-34.323
-34.0475
-33.8455
-33.5741
-33.3039
-33.0209
-32.7346
-32.4466
-32.1578
-31.8707
-31.5862
-31.322
-33.521
-33.2551
-33.0588
-32.7963
-32.5349
-32.2621
-31.986
-31.7083
-31.4303
-31.1534
-30.8748
-30.6018
-32.71
-32.4513
-32.2609
-32.0074
-31.7553
-31.4925
-31.227
-30.9602
-30.6937
-30.4288
-30.1669
-29.9262
-31.8856
-31.6354
-31.4513
-31.2071
-30.9642
-30.7118
-30.4574
-30.2023
-29.948
-29.695
-29.4406
-29.2006
-31.0552
-30.811
-30.6317
-30.3966
-30.163
-29.9211
-29.678
-29.4349
-29.1938
-28.9563
-28.7222
-28.5224
-30.2119
-29.9749
-29.8005
-29.575
-29.3513
-29.1204
-28.8882
-28.6567
-28.4276
-28.2026
-27.9801
-27.7668
-29.3549
-29.1272
-28.96
-28.7439
-28.5299
-28.3096
-28.0887
-27.8682
-27.6493
-27.4316
-27.2116
-26.9914
-28.4944
-28.2707
-28.1085
-27.9021
-27.6982
-27.4893
-27.2805
-27.0725
-26.8665
-26.6634
-26.4651
-26.2939
-27.6168
-27.4028
-27.2479
-27.0518
-26.8586
-26.6615
-26.4655
-26.2712
-26.0794
-25.8905
-25.7013
-25.5167
-26.7337
-26.5271
-26.3781
-26.1924
-26.0106
-25.8266
-25.6442
-25.4646
-25.2878
-25.1153
-24.9472
-24.8008
-25.8414
-25.6443
-25.5017
-25.3263
-25.1557
-24.9844
-24.816
-24.6517
-24.4916
-24.3356
-24.1821
-24.0461
-24.9468
-24.7541
-24.6172
-24.4524
-24.294
-24.1363
-23.9825
-23.8333
-23.6898
-23.5519
-23.4194
-23.3216
-24.0419
-23.8563
-23.7264
-23.5722
-23.4257
-23.2818
-23.1433
-23.0097
-22.8815
-22.7591
-22.6389
-22.5211
-23.1271
-22.951
-22.8286
-22.6862
-22.5523
-22.4229
-22.2996
-22.1822
-22.0698
-21.9619
-21.8547
-21.7487
-22.2117
-22.0427
-21.9264
-21.7955
-21.6753
-21.561
-21.4546
-21.3555
-21.2629
-21.1775
-21.1026
-21.0648
-21.2938
-21.13
-21.0207
-20.9016
-20.7953
-20.6976
-20.609
-20.5291
-20.4566
-20.3899
-20.3252
-20.2687
-20.368
-20.2128
-20.1114
-20.0052
-19.9138
-19.8334
-19.7642
-19.7045
-19.6529
-19.6077
-19.5676
-19.557
-19.4424
-19.2944
-19.2002
-19.1069
-19.0317
-18.9704
-18.9217
-18.8843
-18.8557
-18.833
-18.8111
-18.7959
-18.5171
-18.3747
-18.2889
-18.2101
-18.1522
-18.1117
-18.086
-18.0729
-18.0698
-18.074
-18.0824
-18.1047
-17.5885
-17.454
-17.3773
-17.3142
-17.276
-17.2584
-17.2584
-17.2727
-17.298
-17.3315
-17.3713
-17.4256
-16.6634
-16.5348
-16.468
-16.4228
-16.4067
-16.4151
-16.4437
-16.4874
-16.5422
-16.6048
-16.6737
-16.7615
-15.7373
-15.617
-15.562
-15.5376
-15.5481
-15.5865
-15.6469
-15.723
-15.8087
-15.8985
-15.9865
-16.0778
-14.8155
-14.7016
-14.6616
-14.6635
-14.7064
-14.781
-14.8784
-14.9908
-15.111
-15.2338
-15.3555
-15.4923
-13.8932
-13.7885
-13.77
-13.8081
-13.8936
-14.0123
-14.1523
-14.3039
-14.4603
-14.6157
-14.764
-14.9116
-12.9668
-12.876
-12.8944
-12.9866
-13.1286
-13.3
-13.4874
-13.6807
-13.8731
-14.0596
-14.2345
-14.4038
-12.0291
-11.971
-12.0584
-12.2337
-12.4491
-12.6802
-12.9144
-13.144
-13.3691
-13.5833
-13.7754
-13.9334
-11.0579
-11.144
-11.3812
-11.6845
-11.9812
-12.2597
-12.5294
-12.786
-13.0292
-13.272
-13.4724
-13.6554
-1.509
9.7087
-10.3082
-19.2165
-19.8568
-7.20163
-4.75913
32.7497
-44.7905
-39.9595
-35.0469
-14.8548
16.588
-41.2447
1.38588
-6.75728
-41.2701
-30.5989
-30.039
-6.48875
27.9829
26.3247
17.7846
-16.12
-0.854893
-10.8522
24.3646
0.646064
-42.5134
-37.8092
-42.4763
30.9141
9.5812
-34.6554
16.7935
18.0429
33.6638
-30.8179
33.2342
-14.7593
2.32271
-1.99084
24.682
-0.419756
33.4335
26.1241
19.053
19.9915
33.3648
27.9715
18.7589
32.5673
30.9379
1.49091
-36.9582
9.41822
12.9039
-2.36871
-31.5737
0.921371
24.1691
30.3286
1.53637
-3.96666
17.5251
9.71178
-13.6876
30.4923
16.3347
-39.4143
-37.0551
13.9385
33.1332
-13.2572
-15.4928
2.61652
-44.328
-1.6779
10.0149
28.8019
2.66449
-1.93245
33.9137
32.5579
1.96524
-44.3978
-13.7134
0.919642
-39.5734
33.5431
27.9867
-41.3217
-0.226403
7.82805
34.3245
-4.18764
0.516237
-1.90759
-0.64204
-13.3445
-15.8546
14.5768
5.57203
8.9122
-1.70929
33.9711
1.83141
33.25
-13.6618
0.350432
17.9785
-2.06969
30.5196
-7.73149
1.6869
15.6654
-19.9033
-6.20074
-45.6997
-33.3355
-10.6026
-21.5294
-42.0198
15.4065
-18.1221
-40.3263
-1.92275
11.6042
19.3702
1.03082
31.596
1.40014
21.4118
8.84735
23.5179
10.78
34.0283
-39.399
31.545
10.3896
-19.1497
28.719
27.1225
0.538161
30.8965
-37.1297
31.6715
-10.6839
-47.9222
3.3531
0.32158
16.6459
-1.66768
4.76353
22.1787
3.22721
31.8294
-1.35024
-41.7121
-14.5816
-22.0908
-6.32599
-30.1837
-15.0631
24.141
26.3771
31.5943
34.312
10.8991
1.48668
-38.1094
-18.0677
-36.9176
-19.2507
-1.10227
-41.2488
1.95423
32.391
25.2137
-36.9811
31.0677
-32.2831
-7.5659
33.4015
6.30573
31.4884
3.49398
-1.7058
31.7777
1.62159
-40.378
-1.74511
31.9147
-5.90089
32.0475
8.05841
26.9522
30.3999
2.38176
-61.4218
-47.5667
32.4141
34.3548
31.1706
32.867
14.1219
-7.97455
-36.249
-13.8279
-15.9303
4.29673
-46.9813
33.4125
34.2279
1.93903
31.1853
-11.1908
-13.1305
-63.5311
30.545
32.4364
-47.8282
33.5685
-3.23897
-3.26699
-39.9196
-44.8063
-2.07327
-56.4284
20.0274
33.7381
-17.1117
-2.30148
-13.0107
-13.3748
27.404
31.2408
-47.3659
-1.80635
32.894
-33.3316
19.4546
-40.746
-45.9341
33.0705
2.44453
19.8754
6.01825
-42.481
31.3423
-40.126
-13.3933
-40.3659
-71.537
28.2589
-31.6901
0.0948307
32.6674
-42.1984
33.3999
-15.2347
27.0934
17.3272
-8.60952
-14.3241
27.5833
-46.5797
32.7184
-3.68219
6.48019
0.177184
18.6135
-45.2874
33.0932
32.8855
-44.4148
21.8559
34.4524
34.2537
32.6633
32.6382
23.3637
33.6993
33.1969
-25.4647
27.465
-33.0657
33.228
-50.0969
29.5068
32.6456
-42.3223
34.9559
34.9488
30.456
32.0083
28.0429
30.7004
23.9774
34.2467
29.0809
-0.741252
-10.8253
-37.5651
22.3453
-46.5043
34.499
1.55037
14.3862
16.6655
-27.937
34.7068
3.44691
-50.9232
32.5036
24.3752
34.9039
-31.426
2.0123
27.8123
22.0458
-41.821
-15.3304
69.7059
34.2387
-30.788
-26.2038
-2.31626
2.5749
34.7395
-4.0834
0.640464
-41.8262
-2.27025
2.63703
4.24881
-1.70749
14.9901
2.15799
6.52417
-0.321668
33.0151
0.121679
29.3953
12.9121
31.6237
33.6233
-42.1348
-60.7286
-12.669
-0.170171
-4.06261
13.857
26.011
34.7968
-1.17874
-25.3457
33.5387
-46.1389
-40.0118
30.1008
33.7027
-49.0013
-61.3682
21.2614
-21.6336
-3.18213
0.324762
-1.55284
0.70696
-29.7899
30.2467
33.9939
-33.1991
-41.7279
28.7304
33.1785
-48.276
3.57208
-35.8019
-11.0447
-11.0818
-1.39272
33.1488
-67.0624
28.0374
-0.864863
21.7729
28.6231
19.7464
3.50471
-37.2364
-35.6883
30.7652
30.2911
-3.0242
-55.7598
-2.80575
-33.8534
-26.8309
13.1527
-14.3692
-12.985
14.1071
-43.4321
30.9283
-48.7952
-41.234
31.3151
33.3115
-2.21845
-0.821392
1.5567
-49.265
12.7158
28.7862
-62.5189
30.4039
30.6385
3.41157
0.202341
30.6395
1.69698
-3.00124
32.5315
0.583769
-21.6432
-47.3114
33.91
0.580218
-14.0844
-11.2361
-31.465
29.4254
-32.5508
1.96321
-41.4929
-37.3306
28.6092
-6.84173
34.5695
33.2522
12.985
32.0708
8.54981
-14.4562
-6.82779
31.8915
27.0094
2.12659
-37.5272
29.7145
33.4656
10.7458
-41.8297
28.3659
9.66293
34.7977
34.2327
-32.4325
28.6081
-10.4217
22.858
-4.52604
-50.1388
-28.1418
2.2826
29.3301
22.8501
33.3536
-25.8522
33.6558
19.1349
0.823431
-38.0155
-46.7772
30.8413
1.99114
31.8789
-13.1581
0.115673
33.5099
33.2827
-23.2123
-20.6288
30.2078
34.1738
-6.22566
-19.4046
-42.8952
-22.3526
0.944828
32.412
-57.7261
-17.2721
30.5448
-23.7876
-1.02664
33.1335
33.9279
-40.5079
31.0781
33.624
2.45374
26.2927
34.3913
22.9632
-48.323
31.0996
-37.6736
31.7011
-49.5374
-13.7746
-36.8343
2.00608
-15.7076
31.4399
-37.6469
-13.9787
21.409
15.8632
-12.5253
1.31236
31.5561
-0.694071
3.76764
-14.8046
33.6809
30.2583
-38.9821
34.9536
-15.2367
-17.4603
-37.2817
-2.15891
25.9694
-47.4003
-36.3871
30.3883
-42.5651
-7.71196
-17.8137
-21.4705
-48.2451
-43.3058
-1.82924
-26.3761
1.95672
19.6121
9.06442
13.8131
-17.389
28.4736
33.6712
-30.3878
26.223
29.0592
-13.87
0.00810557
-0.106101
16.6565
-13.4305
30.6455
-39.1185
-31.5296
-25.9519
31.7889
0.499605
16.9987
27.6795
10.8619
-49.6755
24.3563
30.0027
30.3207
12.4572
0.449923
-9.38794
-2.6742
-36.046
-36.1241
33.0705
-43.7464
4.26547
-45.8296
25.0431
33.0041
27.5528
-43.9612
0.130058
-32.4611
1.30777
28.5273
-13.3941
32.2827
-36.7072
-0.0879436
-46.0906
-40.8493
33.4605
1.83859
-0.660921
-26.6584
-17.3407
11.7117
11.9933
8.30436
-12.7954
-6.26346
7.62098
29.7404
-29.2457
-33.8712
-1.86123
0.820995
-44.4458
34.1614
32.6954
33.5984
10.7178
29.3626
-6.83672
-30.6972
25.6758
-1.78594
11.3473
30.2418
1.56007
14.4132
33.8738
-50.3697
-50.7105
3.39483
-13.0602
29.1758
-49.7361
19.3726
25.1674
32.212
-2.12194
31.9852
29.4065
23.5542
-22.1531
-9.38849
-0.321516
-48.2325
-50.9592
32.2001
-60.8073
4.45213
2.76264
-45.9049
-31.0173
10.4446
1.96407
-41.9235
-1.12049
-36.3035
31.7154
-31.2632
2.02342
-45.9061
-0.055731
32.8856
-37.7949
33.5811
17.076
25.4815
-48.4521
-1.14361
19.0922
-48.1156
31.7543
-36.8394
-3.9817
-40.336
-17.9672
1.34429
2.35865
24.1737
-15.0303
32.2641
4.06466
-25.41
34.2333
34.3039
-38.7181
23.5394
-38.475
33.8131
27.4064
33.0817
-2.17939
13.5332
-1.13182
1.50342
30.1589
2.13797
34.8891
-10.6978
-35.4058
1.45854
28.6791
34.112
-37.1408
-5.31298
-26.7274
18.8932
-52.8
-17.3547
-28.6035
-40.6105
-1.86527
0.845078
33.2051
20.6275
34.3396
29.6523
3.82767
34.8359
34.9152
32.8926
-37.0515
-16.6316
32.8878
-0.532951
4.46221
-56.5844
33.4978
1.26159
15.1419
-38.4372
6.43963
-2.37113
-41.5406
2.0541
-26.6072
-57.9178
6.3501
32.1523
-1.6194
23.0339
32.793
1.41699
-8.69805
-1.28421
7.34549
-9.4723
-52.4263
-32.087
27.6008
29.3695
1.92136
-13.8787
-0.634676
-0.650343
-21.2372
14.8981
30.6165
16.5074
-43.6543
-2.86907
-109.935
-0.506638
-10.29
33.0051
30.1054
-1.66011
31.6939
-17.4839
29.2844
-10.4833
-42.7101
-43.9296
31.388
-24.7432
-15.0094
17.342
8.05723
27.3582
-58.0183
-13.3475
29.0356
0.119181
32.56
-8.11876
-39.5383
-44.9464
-16.1634
-13.9745
-43.1425
-23.8658
6.08233
34.3734
29.1896
-12.4078
7.3454
-3.33201
33.8413
-37.4049
-5.30656
-42.2564
-28.3809
25.9426
24.2427
-48.3392
-11.1443
27.685
-12.2064
-38.9223
-38.7158
0.209675
-43.2184
-15.7616
34.1368
32.4843
30.5672
0.113518
-10.7377
-2.82149
1.74867
2.38274
31.0466
23.1992
20.482
-37.8733
0.665575
-43.7969
15.5696
23.598
1.95698
-38.5733
-4.19154
26.4396
-42.6958
23.7772
30.6361
28.5197
-2.12405
26.3501
-38.1641
10.2427
14.1345
31.9719
-39.9677
28.0085
16.08
-15.3864
-13.9887
26.9791
-26.9049
-28.8908
30.8752
0.41758
-50.6017
15.3036
12.6141
-9.05558
-58.3941
26.8684
-0.424875
1.19818
-45.3463
29.9377
-48.6143
1.38817
-36.3582
-38.1915
33.7613
6.5205
33.5861
-29.932
6.56181
29.328
-2.04932
-50.3309
34.0855
34.0219
34.6383
3.19281
1.99479
15.4294
-41.332
-40.5924
-32.0391
0.323058
-14.3855
3.88934
12.7772
-39.7154
25.0438
27.7162
28.0078
16.8923
33.3533
32.6235
-37.5229
0.00684792
34.2915
-32.3073
31.6939
1.15141
-41.6904
-4.33759
1.98094
4.47956
29.8315
-20.8224
-10.8186
26.372
-54.7525
-4.70317
3.80037
16.3246
23.1408
-11.7446
27.9143
2.61429
-3.12741
-13.7403
13.9225
-12.9836
-40.9043
33.2471
-16.5739
22.2403
-35.6761
28.3162
30.4532
32.3703
-40.4892
31.8764
1.66865
32.8123
-10.5734
-2.26247
-41.3777
30.015
21.145
25.7232
-8.22011
-44.0116
-35.8607
-0.414466
34.1243
2.7392
33.1897
-31.535
33.2039
-2.03549
-45.3645
34.2535
-35.5525
33.1184
32.9912
-15.1183
-29.5379
23.7308
0.625881
15.0991
34.9202
-1.37913
-48.2944
32.2821
-2.32811
-15.4479
10.6852
33.2673
33.6728
-31.4989
31.4344
32.6513
-10.2898
31.5614
27.0203
30.5857
31.2979
1.56171
-1.61594
-40.2614
-6.00688
-38.8827
32.9992
-0.80839
-36.8765
33.2244
-2.27758
30.0642
25.2492
31.1481
31.0624
18.4227
-41.1711
-38.1733
30.8022
-33.1
-21.2878
26.1201
33.8678
-45.5445
-30.7037
-38.5935
-21.5083
-15.893
28.5317
-9.88238
-18.2688
-31.1192
-0.441659
-40.581
33.0395
12.6582
1.70923
-3.20467
-3.20614
31.5026
-2.11191
32.685
-0.16418
31.7904
-7.40095
3.34943
-46.3811
33.7311
1.88256
31.4895
33.7559
-25.0791
27.059
-17.8732
32.2715
-1.61798
30.3538
21.4521
2.9291
10.3906
34.4822
30.9575
-0.140346
2.31261
33.7326
2.32836
28.6954
-31.3621
-31.5375
31.3348
-19.265
18.8103
-100.842
-44.9352
33.5161
-53.7446
-41.4546
2.31048
31.134
-43.0729
-44.4743
2.46807
26.405
-1.20389
-7.25318
30.6223
-10.4829
-17.3582
6.32742
-13.8765
-62.0409
13.9522
-1.15853
25.0337
0.47273
10.4801
24.7292
-64.6481
24.6569
5.48176
-3.15679
-47.663
26.8685
4.7215
7.88289
27.8748
24.5464
33.6663
34.7274
-15.0224
-1.39805
-13.6564
2.63323
39.3284
26.7185
-87.8047
29.5236
-29.872
1.10473
-50.7333
-0.33016
2.7462
11.6267
30.7683
31.6867
-48.1342
2.64201
-16.9662
-1.91346
27.252
-48.2239
0.949458
32.9986
1.38476
1.10943
5.79048
16.4223
-13.216
-40.6062
-22.18
2.97838
-2.63341
31.3924
32.4261
32.1377
-44.8412
27.6004
31.3202
2.88153
11.4044
-35.2475
32.4816
-14.219
14.1039
1.29037
34.1246
-2.04979
31.95
32.19
-7.64854
-12.1769
33.2151
-16.4526
21.7999
1.67024
-35.9979
-40.7798
33.1614
-2.86251
-17.8749
-35.3416
-20.3019
23.323
-38.7315
1.95656
1.53398
0.316576
-19.6481
33.9725
-47.0187
0.244602
34.8607
-43.548
29.7666
25.6961
-19.0918
14.1023
1.71587
20.5035
30.4625
31.2487
-1.03893
-40.527
-2.35397
-16.8485
-17.0901
-44.2257
21.6101
-39.8727
-41.52
8.90318
14.5454
2.25737
-1.66513
6.32609
-12.656
-7.35175
0.963891
-44.0447
33.3933
-0.583829
31.4927
-34.8992
3.53388
1.89532
-62.361
31.4389
-35.7652
-20.8094
23.553
30.2919
-27.0113
20.2099
-40.0717
33.0505
32.6469
34.7956
25.8429
33.7722
31.8037
-18.493
33.7082
3.71737
33.3283
15.4458
28.447
-22.9028
29.3645
-32.9957
11.3394
34.4979
23.0338
34.2952
33.3732
34.5997
-28.12
-3.82788
8.5786
2.09861
-20.3497
-39.3702
1.93387
-45.0921
2.59574
15.4197
32.899
30.9635
-43.4648
-22.7285
22.8397
-46.3375
-7.21046
34.5392
-2.81387
32.3631
-49.2536
0.77587
-15.9523
-4.19043
21.419
32.2057
30.8645
25.3497
31.5579
-1.8026
21.1875
30.5594
-46.7148
5.89694
14.3473
29.3262
31.4849
-19.0307
32.0483
-16.8377
-7.39587
-12.5808
1.21849
-8.95097
32.4806
-41.5755
33.3061
29.7229
-26.7535
-30.0118
25.8104
1.44957
32.8994
1.23998
1.62799
-0.748814
16.0367
32.1442
28.6414
-38.442
33.0742
32.6653
6.31789
3.49976
26.5304
26.6296
19.8713
33.1014
-22.4572
33.5613
-0.83881
33.7138
7.68941
7.34187
1.9317
-37.5699
-19.1507
28.7867
-26.28
-42.0506
-46.0013
2.0152
-40.1612
34.5438
33.8329
-0.335464
-9.5981
28.0759
32.731
-35.1123
31.8976
-1.74655
-37.1829
3.08947
32.3477
-16.3207
31.1434
13.6591
-12.3282
-0.662257
43.5761
-0.893662
-45.0971
18.203
3.31352
16.3237
30.7051
-1.39546
-0.601991
-1.89969
16.0582
32.9162
-25.9221
-3.49834
31.6105
25.0822
34.0986
1.85168
34.475
25.9099
27.8121
-21.8931
33.6727
-16.0195
34.8266
-11.0356
30.8278
32.2953
33.9245
-0.742594
26.0025
32.5847
31.903
7.62445
0.810873
31.379
23.9703
1.73462
-4.78616
-50.7249
0.913492
-37.1463
-45.3314
32.9793
33.5737
-27.2278
24.6964
-31.7012
-52.1802
-25.8371
-13.3685
-35.9583
34.7803
28.4325
-1.4864
33.8314
-5.61118
-0.816283
2.92483
-0.21784
1.89895
4.17672
-25.6968
-100.278
-31.4014
8.12964
-37.8238
29.118
-3.71369
30.9833
28.4085
-21.3934
27.1203
-43.4171
34.6846
24.7249
20.2512
-2.00239
2.23408
16.4974
21.3966
33.6454
32.8214
-44.0827
27.9062
30.9255
-9.00725
32.8812
33.3688
-1.13708
32.8029
-42.4136
4.05537
-18.5833
14.8392
-18.3193
33.0211
-32.1603
-15.9439
7.04734
-33.0319
5.31208
-10.4806
1.19722
-18.687
-40.3556
-25.6264
-0.641965
-1.44463
25.6425
32.4809
-38.2119
31.2372
-24.4728
33.3048
32.1829
2.0243
33.6202
-1.26761
-33.1769
27.9862
-31.7767
24.2361
-49.5407
-16.0641
33.5933
33.8503
-50.5656
32.4901
-14.2868
34.6225
-38.7944
22.8507
-31.6123
33.9217
12.0563
5.43019
-41.0617
-32.2183
1.70957
-0.122442
-6.96296
-5.50416
34.4044
-0.920183
33.0502
30.2893
31.8839
-43.2012
2.92394
-33.8314
30.4093
34.1804
32.197
32.9076
-42.3668
-5.05118
1.62493
3.43626
-28.8575
2.90968
33.527
31.342
5.20174
-17.6195
-35.9834
34.0541
33.043
1.87951
31.2073
-27.0653
8.71777
11.5487
34.2537
33.5289
-9.85253
26.5601
-1.45929
2.72503
34.6397
7.32476
-19.6827
2.46179
32.5993
-9.88151
23.7487
-50.1413
16.2256
-28.0627
-40.5654
6.43339
3.43946
-9.85436
0.808688
30.7837
33.4182
32.4243
-1.11655
22.8851
-27.9176
8.40237
-13.1677
-16.821
-0.314797
2.12632
14.6179
-11.7766
0.710769
28.8854
4.03742
-46.071
-5.95207
-7.49412
-22.5221
23.2172
13.9085
21.3903
-48.2608
12.3564
-1.91938
32.4548
30.9386
-40.3039
0.0217749
34.7907
31.3381
-4.36335
32.1842
-28.212
-26.5695
5.69195
26.4893
-9.29122
30.901
-48.0455
-40.1175
11.0554
-30.366
-1.51725
33.5406
-1.83126
-23.4755
14.6267
31.2212
-27.8322
-38.2383
16.6817
-13.8928
-0.801647
-32.9511
-10.6317
3.23248
-3.68587
34.1152
33.655
25.1472
14.0075
29.3977
-6.39451
1.55666
2.42154
-40.4551
-15.2256
-36.2055
26.418
33.6574
32.8129
-21.2151
17.245
2.79976
-1.24174
29.4111
-26.6805
-38.8973
-14.5201
4.11048
-16.1144
20.4281
34.3537
33.1889
-25.6317
34.4214
-40.5934
-0.70521
4.19883
-17.5043
33.8106
-41.0057
32.858
34.6813
8.05245
-48.8494
-2.71042
31.68
19.7978
20.0048
-1.62013
21.504
17.7118
-37.6595
-32.9103
-1.00713
32.3832
-3.22182
33.5522
-42.9766
-1.6816
21.1547
-0.385441
29.3472
-26.3671
26.8761
-1.64426
29.502
33.7634
31.6136
-38.4746
19.8942
-36.9298
3.58788
-14.4775
34.3236
-49.8677
-12.4288
-8.48686
-4.31639
33.6312
6.55433
-13.5641
1.34122
-24.4643
1.91258
7.58907
-0.0297916
-3.16337
-16.5759
-13.2689
1.19634
-43.6822
-17.3043
-26.1679
-38.0225
-8.68084
-2.53998
34.358
-6.49508
0.908911
-29.5448
-11.0287
-43.9475
21.8631
-12.2781
10.523
-0.948441
-7.5835
-22.7072
20.4094
-36.0637
-12.5905
-11.2221
-26.8769
33.6659
-41.0264
3.47594
-0.306639
-43.152
-11.831
12.1329
18.4375
1.48549
-40.526
5.66853
-30.6956
-40.4939
33.0119
-2.41877
34.4469
1.24165
-14.1449
31.303
1.81771
34.4979
-30.0464
1.68795
32.8309
1.57833
13.6625
15.0688
3.99178
-23.8253
29.1109
-43.8112
-27.6024
-48.2643
11.8312
32.9902
29.8038
-42.306
-17.064
2.04827
-58.2846
23.7716
-43.6506
13.0168
-18.511
0.253159
-2.66242
31.2886
-14.6339
31.1361
-28.5367
31.3177
-2.60095
1.95683
4.33093
22.5604
12.05
-23.1011
-1.87957
-30.4943
32.0926
18.3099
-16.1674
-38.4865
0.22072
27.897
0.856359
1.87356
30.9269
-41.2345
-25.534
16.3903
-2.14354
-34.991
-7.76284
32.4699