/*--------------------------------*- C++ -*----------------------------------*\
| =========                 |                                                 |
| \\      /  F ield         | OpenFOAM: The Open Source CFD Toolbox           |
|  \\    /   O peration     | Version:  2.3.1                                 |
|   \\  /    A nd           | Web:      www.OpenFOAM.org                      |
|    \\/     M anipulation  |                                                 |
\*---------------------------------------------------------------------------*/
FoamFile
{
    version     2.0;
    format      ascii;
    class       volVectorField;
    location    "0.71";
    object      U;
}
// * * * * * * * * * * * * * * * * * * * * * * * * * * * * * * * * * * * * * //

dimensions      [0 1 -1 0 0 0 0];

internalField   nonuniform List<vector> 
15166
(
(5.97514 0.559915 3.18854e-19)
(7.18573 1.03443 1.59872e-18)
(8.26919 0.902253 -8.94027e-19)
(9.30101 0.956298 8.01811e-19)
(10.096 1.02019 8.24037e-19)
(10.8727 1.07497 4.34258e-19)
(11.5267 1.1734 -8.59502e-19)
(12.0689 1.23917 8.32977e-19)
(12.4642 1.33352 -4.22523e-19)
(12.7711 1.39301 1.6714e-18)
(12.997 1.44847 -1.22761e-18)
(13.1507 1.50679 1.22172e-18)
(6.66659 1.02607 4.89078e-19)
(7.60133 1.42501 5.24184e-20)
(8.55495 1.20937 2.74721e-20)
(9.4768 1.22948 4.5614e-19)
(10.2373 1.24939 -3.96059e-19)
(10.965 1.27587 0)
(11.5823 1.33749 4.25027e-19)
(12.0879 1.38343 1.45073e-21)
(12.4665 1.44387 4.18298e-19)
(12.7601 1.48569 -8.4334e-19)
(12.9764 1.52575 1.65661e-18)
(13.1344 1.56469 -1.23422e-18)
(7.20891 1.25721 -4.63387e-19)
(8.03695 1.56836 -2.47863e-18)
(8.89923 1.37635 4.88249e-19)
(9.72206 1.41049 -9.2537e-19)
(10.4313 1.41721 -1.65729e-20)
(11.1023 1.43289 8.84027e-19)
(11.6751 1.47249 -1.26962e-18)
(12.1419 1.5034 -4.35696e-19)
(12.4973 1.54162 8.31611e-19)
(12.7724 1.56902 5.99647e-21)
(12.9766 1.59528 -1.23786e-18)
(13.1301 1.62008 1.62278e-18)
(7.51486 1.37398 0)
(8.34991 1.62671 -1.08502e-18)
(9.18097 1.47808 2.54444e-18)
(9.94689 1.52639 -1.44524e-18)
(10.6199 1.53134 9.25288e-19)
(11.2455 1.54613 1.36578e-18)
(11.7793 1.57483 -4.23945e-19)
(12.2125 1.59687 4.35702e-19)
(12.5453 1.62122 -8.5154e-19)
(12.8022 1.63801 8.41227e-19)
(12.9949 1.65296 4.17406e-19)
(13.1437 1.66613 8.27402e-19)
(7.72602 1.44753 -6.25753e-19)
(8.5916 1.66237 -5.80265e-19)
(9.40724 1.55323 -1.57539e-18)
(10.139 1.60712 1.48609e-18)
(10.788 1.61243 -4.70717e-19)
(11.3802 1.62864 -4.56021e-19)
(11.8832 1.65149 -4.4478e-19)
(12.2893 1.66818 4.51112e-19)
(12.6024 1.68383 -4.2978e-19)
(12.8434 1.69334 -4.23425e-19)
(13.0254 1.70076 -1.26306e-18)
(13.1673 1.70717 -4.6629e-21)
(7.91364 1.49898 1.24012e-18)
(8.80852 1.68485 1.1756e-18)
(9.60761 1.6095 -1.09931e-18)
(10.3126 1.66475 2.07597e-18)
(10.9417 1.67166 -1.98433e-18)
(11.507 1.68943 9.50162e-19)
(11.9844 1.70865 0)
(12.3682 1.72174 9.05131e-19)
(12.6643 1.73168 -1.76275e-18)
(12.8915 1.73606 8.61715e-19)
(13.0638 1.73805 0)
(13.1986 1.73921 1.25611e-18)
(8.0864 1.53337 -6.74675e-19)
(9.00971 1.6951 6.20994e-19)
(9.79246 1.64844 0)
(10.475 1.70354 0)
(11.0856 1.71327 5.19053e-19)
(11.6276 1.73265 4.97752e-19)
(12.0831 1.74964 -9.51107e-19)
(12.4477 1.76031 1.38424e-18)
(12.729 1.76636 4.54193e-19)
(12.9442 1.76689 0)
(13.1081 1.76442 4.35634e-19)
(13.2378 1.76131 0)
(8.24096 1.55399 -1.36325e-18)
(9.19306 1.69566 1.25594e-18)
(9.96192 1.673 5.74796e-19)
(10.6262 1.72704 5.61845e-19)
(11.2203 1.74012 -2.61904e-18)
(11.7422 1.76103 5.0963e-19)
(12.1786 1.77682 0)
(12.5267 1.78598 -4.65757e-19)
(12.7951 1.78949 4.64868e-19)
(13 1.78739 2.75954e-21)
(13.1565 1.78197 -8.70998e-19)
(13.2798 1.77624 8.59081e-19)
(8.37852 1.56377 1.40272e-18)
(9.35903 1.68899 -1.29129e-18)
(10.1165 1.68639 5.90186e-19)
(10.766 1.73871 -1.69063e-18)
(11.3454 1.75506 2.15635e-18)
(11.85 1.77722 -2.06475e-18)
(12.2701 1.79243 9.94039e-19)
(12.6041 1.80072 0)
(12.8613 1.80265 4.72833e-19)
(13.0573 1.79883 0)
(13.2072 1.79135 9.01331e-19)
(13.3251 1.78317 -4.37035e-19)
(8.50224 1.56504 1.44238e-18)
(9.51025 1.6768 0)
(10.2581 1.69099 6.2326e-19)
(10.8954 1.74119 5.88073e-19)
(11.4618 1.76047 5.58637e-19)
(11.9514 1.78352 5.3434e-19)
(12.3573 1.79847 0)
(12.6792 1.80627 0)
(12.9267 1.80724 -1.42735e-18)
(13.1151 1.80233 2.33102e-18)
(13.2592 1.79356 -9.02404e-19)
(13.372 1.78521 -1.3397e-18)
(8.61482 1.5596 1.47172e-18)
(9.64923 1.66025 -2.01486e-18)
(10.3889 1.68845 1.89432e-18)
(11.0155 1.73632 -1.77354e-18)
(11.5701 1.75809 -5.56659e-19)
(12.0466 1.7817 -5.33022e-19)
(12.4401 1.79654 1.03608e-18)
(12.7515 1.80409 -1.00412e-18)
(12.9907 1.80451 -1.4631e-18)
(13.1726 1.79895 -4.67498e-19)
(13.3117 1.78907 1.8565e-18)
(13.4196 1.77934 -8.93836e-19)
(8.71801 1.54861 -1.50771e-18)
(9.77767 1.64001 -2.05026e-18)
(10.5104 1.67989 -3.18106e-19)
(11.1276 1.72534 1.21231e-18)
(11.6713 1.7492 8.56852e-19)
(12.1362 1.77309 -2.20016e-18)
(12.5188 1.7879 2.11546e-18)
(12.821 1.79533 -3.84911e-21)
(13.0529 1.79554 -1.49096e-18)
(13.2291 1.78986 9.65944e-19)
(13.3634 1.77982 -4.66326e-19)
(13.4667 1.76925 9.05393e-19)
(8.81288 1.53303 -1.14859e-18)
(9.89672 1.61667 -3.53627e-19)
(10.6236 1.66623 3.22602e-19)
(11.2323 1.70922 0)
(11.7661 1.73477 2.89659e-19)
(12.2206 1.75872 -2.82759e-19)
(12.5935 1.77353 0)
(12.8875 1.78092 0)
(13.113 1.78106 2.54176e-19)
(13.2838 1.77546 0)
(13.4131 1.76582 0)
(13.5104 1.75538 -9.15801e-19)
(8.90047 1.51359 -3.86946e-19)
(10.0075 1.59064 3.51978e-19)
(10.7295 1.6482 0)
(11.3305 1.68875 0)
(11.8551 1.7156 1.18757e-18)
(12.3001 1.73941 -8.60605e-19)
(12.6644 1.75418 1.0923e-18)
(12.9512 1.76146 -1.06069e-18)
(13.1711 1.76142 7.67886e-19)
(13.3374 1.75536 -5.67786e-21)
(13.4632 1.74488 -1.93845e-18)
(13.5579 1.73722 1.17931e-18)
(8.98149 1.49085 -1.59016e-18)
(10.1108 1.56223 0)
(10.8289 1.62638 1.34315e-18)
(11.4227 1.66454 -1.59646e-18)
(11.9388 1.69237 0)
(12.3753 1.71589 2.9187e-19)
(12.7318 1.73059 1.10938e-18)
(13.0123 1.73784 -2.41968e-18)
(13.2271 1.73792 2.082e-18)
(13.3896 1.73222 -1.01447e-18)
(13.5123 1.72176 9.81263e-19)
(13.6039 1.70852 -1.19473e-18)
(9.05663 1.4653 3.48319e-21)
(10.2074 1.53174 7.35663e-19)
(10.9222 1.60127 0)
(11.5094 1.6371 3.19719e-19)
(12.0176 1.66562 0)
(12.4463 1.68876 8.79688e-19)
(12.7959 1.70336 -7.81232e-21)
(13.0706 1.71059 -8.2396e-19)
(13.2811 1.7108 0)
(13.4399 1.70542 -2.58306e-19)
(13.5592 1.69542 2.51261e-19)
(13.648 1.68082 0)
(9.12646 1.43733 4.02406e-19)
(10.2978 1.49939 -1.11955e-18)
(11.0099 1.57327 1.03886e-18)
(11.591 1.60683 -4.58201e-21)
(12.0919 1.63579 3.09103e-19)
(12.5135 1.65846 -2.97819e-19)
(12.8567 1.67293 0)
(13.1264 1.68012 0)
(13.3329 1.68043 1.0675e-18)
(13.4885 1.67526 -7.85948e-19)
(13.6046 1.66577 -5.05976e-19)
(13.6902 1.65219 -2.45541e-19)
(9.19135 1.40721 4.11471e-19)
(10.3826 1.4653 3.72763e-19)
(11.0927 1.54268 -3.47721e-19)
(11.6681 1.57406 6.59461e-19)
(12.1621 1.60326 -1.57335e-18)
(12.5771 1.62539 3.06283e-19)
(12.9145 1.6397 0)
(13.1796 1.64685 5.58366e-19)
(13.3825 1.64728 -5.45092e-19)
(13.5353 1.64232 -7.90406e-19)
(13.649 1.63327 2.58657e-19)
(13.7322 1.62089 7.43771e-19)
(9.25176 1.37524 0)
(10.4623 1.42966 0)
(11.1709 1.50981 0)
(11.7409 1.53908 3.37065e-19)
(12.2284 1.56833 0)
(12.6374 1.58986 6.08628e-19)
(12.9695 1.60398 -8.86138e-19)
(13.2303 1.61109 0)
(13.43 1.61172 -5.47646e-19)
(13.5803 1.6071 5.32752e-19)
(13.6917 1.59848 0)
(13.7731 1.58638 0)
(9.30806 1.34162 2.12264e-18)
(10.5372 1.39258 -1.53826e-18)
(11.2448 1.47488 7.186e-19)
(11.8097 1.50211 -1.01053e-18)
(12.2911 1.53125 1.29025e-18)
(12.6944 1.55214 -9.25304e-19)
(13.0217 1.56604 8.92911e-19)
(13.2787 1.57312 2.83129e-19)
(13.4754 1.57395 -1.11309e-18)
(13.6232 1.56973 8.11214e-19)
(13.7325 1.56173 0)
(13.8119 1.5493 0)
(9.36049 1.30653 -1.71738e-18)
(10.6077 1.35418 0)
(11.3146 1.4381 0)
(11.8748 1.46335 -6.81274e-19)
(12.3504 1.49223 6.54602e-19)
(12.7485 1.51245 -9.32876e-19)
(13.0712 1.52608 5.11627e-21)
(13.3247 1.53307 8.72412e-19)
(13.5187 1.53405 5.60487e-19)
(13.6642 1.53012 -5.48964e-19)
(13.7714 1.52263 -2.67086e-19)
(13.8486 1.5099 0)
(9.40922 1.27017 -1.29993e-18)
(10.6739 1.31459 1.18168e-18)
(11.3806 1.39966 0)
(11.9363 1.42296 -6.87779e-19)
(12.4066 1.45146 9.92277e-19)
(12.7997 1.47097 0)
(13.1183 1.48428 0)
(13.3685 1.49115 2.9526e-19)
(13.56 1.49217 5.66468e-19)
(13.7036 1.48835 -5.54961e-19)
(13.8092 1.48101 5.3708e-19)
(13.8853 1.47008 0)
(9.45473 1.23254 -4.25601e-21)
(10.7364 1.27374 -1.188e-18)
(11.4432 1.35965 0)
(11.9946 1.38108 1.04428e-18)
(12.4597 1.40912 -9.98066e-19)
(12.8482 1.42789 3.20479e-19)
(13.163 1.44086 3.08616e-19)
(13.4102 1.44759 -8.85782e-19)
(13.5996 1.44873 5.77483e-19)
(13.7415 1.44519 -2.80485e-19)
(13.8457 1.43825 2.6848e-21)
(13.9207 1.42851 0)
(9.49653 1.19374 -8.79847e-19)
(10.795 1.23178 8.01692e-19)
(11.5023 1.31826 0)
(12.0497 1.33786 -3.49581e-19)
(12.51 1.36536 0)
(12.8942 1.38337 -3.20085e-19)
(13.2054 1.39599 3.08982e-21)
(13.45 1.40259 3.00983e-19)
(13.6372 1.40383 -2.91644e-19)
(13.7776 1.40052 -2.69178e-21)
(13.8806 1.39378 -2.53356e-21)
(13.9547 1.38525 -1.07125e-18)
(9.53528 1.15423 -4.48039e-19)
(10.8501 1.18913 -8.02068e-19)
(11.5582 1.2757 7.51778e-19)
(12.1019 1.29343 3.5595e-19)
(12.5577 1.32031 0)
(12.9378 1.33756 3.26044e-19)
(13.2456 1.34982 -6.25386e-19)
(13.4877 1.35626 -5.99006e-19)
(13.6731 1.35759 8.80372e-19)
(13.8121 1.35453 -2.57994e-21)
(13.914 1.34802 -2.47267e-21)
(13.9872 1.33994 2.68965e-19)
(9.57153 1.11382 4.42974e-19)
(10.902 1.14547 -8.14547e-19)
(11.611 1.23195 -3.79431e-19)
(12.1513 1.24791 -3.55309e-19)
(12.6027 1.27412 -3.4239e-19)
(12.979 1.29058 3.25771e-19)
(13.2837 1.30246 -1.26446e-18)
(13.5235 1.30873 2.92192e-21)
(13.7072 1.31013 0)
(13.845 1.30731 8.57351e-19)
(13.9461 1.30104 -2.83116e-19)
(14.0189 1.29394 -2.71762e-19)
(9.60482 1.07253 -4.54995e-19)
(10.9507 1.10091 0)
(11.661 1.18715 3.14554e-21)
(12.198 1.20135 3.61134e-19)
(12.6453 1.22685 6.86787e-19)
(13.0179 1.24253 3.25395e-19)
(13.3198 1.25401 -1.27449e-18)
(13.5574 1.26013 3.12002e-19)
(13.7396 1.26163 8.98372e-19)
(13.8762 1.25914 0)
(13.9766 1.25325 0)
(14.0489 1.24602 0)
(9.63514 1.0304 1.82565e-18)
(10.9964 1.05549 -8.1986e-19)
(11.7081 1.14139 7.7138e-19)
(12.242 1.15385 -3.6056e-19)
(12.6855 1.1786 6.97423e-19)
(13.0547 1.1935 9.92259e-19)
(13.3539 1.20456 -9.62424e-19)
(13.5894 1.2105 5.93891e-21)
(13.7702 1.21206 1.20433e-18)
(13.9058 1.20983 -8.79748e-19)
(14.0052 1.20444 2.84965e-19)
(14.0768 1.19802 -5.44869e-19)
(9.66283 0.987789 -4.57793e-19)
(11.039 1.00955 -4.15262e-19)
(11.7526 1.0948 -3.84065e-19)
(12.2837 1.10549 -7.25748e-19)
(12.7234 1.12946 -3.40779e-19)
(13.0894 1.14356 3.36326e-19)
(13.386 1.15419 3.18456e-19)
(13.6197 1.15993 -9.35498e-19)
(13.7992 1.1615 3.06906e-19)
(13.9338 1.1594 5.88303e-19)
(14.0327 1.15419 -2.85074e-19)
(14.1036 1.14936 -2.79691e-19)
(9.68801 0.944599 -9.20672e-19)
(11.0789 0.962996 1.66947e-18)
(11.7945 1.04745 0)
(12.3229 1.05634 0)
(12.7591 1.0795 0)
(13.122 1.0928 6.73444e-19)
(13.4162 1.10299 6.49811e-19)
(13.6483 1.10853 -3.13281e-19)
(13.8266 1.11013 3.06036e-19)
(13.9604 1.10827 2.05507e-21)
(14.0588 1.10328 -5.7355e-19)
(14.1293 1.09876 5.60804e-19)
(9.71108 0.901067 9.31181e-19)
(11.1163 0.915915 -2.07203e-19)
(11.8339 0.999281 -1.95766e-19)
(12.3598 1.00645 0)
(12.7927 1.02879 0)
(13.1526 1.04127 -3.37678e-19)
(13.4446 1.05102 3.25018e-19)
(13.6751 1.05637 -6.3614e-19)
(13.8524 1.058 3.05077e-19)
(13.9855 1.05635 -8.97238e-19)
(14.0835 1.05164 0)
(14.1536 1.04767 -2.81514e-19)
(9.73152 0.857026 -1.86889e-18)
(11.151 0.868134 6.36717e-19)
(11.8709 0.950301 1.95556e-19)
(12.3945 0.955828 -5.52519e-19)
(12.8242 0.977368 7.12035e-19)
(13.1814 0.989055 0)
(13.4713 0.998362 6.54905e-19)
(13.7003 1.0035 -6.40201e-19)
(13.8766 1.00516 0)
(14.0091 1.00376 0)
(14.1065 0.999413 0)
(14.1763 0.994878 5.60431e-19)
(9.74961 0.812986 0)
(11.1829 0.820207 0)
(11.9053 0.900737 -3.92727e-19)
(12.427 0.904594 1.69394e-21)
(12.8536 0.925314 0)
(13.2082 0.936209 -6.82273e-19)
(13.4961 0.945071 1.48977e-18)
(13.7238 0.949985 -4.83397e-19)
(13.8992 0.951632 -6.18837e-19)
(14.0312 0.950362 1.57706e-19)
(14.1282 0.946284 6.05097e-21)
(14.1976 0.942041 5.77303e-19)
(9.76564 0.768553 4.71182e-19)
(11.2125 0.771637 -2.14339e-19)
(11.9376 0.850541 1.98748e-19)
(12.4573 0.852821 -1.86245e-19)
(12.8811 0.872697 8.95842e-19)
(13.2332 0.882795 -1.73407e-19)
(13.5193 0.891209 -4.97108e-19)
(13.7457 0.895909 -3.19067e-19)
(13.9204 0.897564 3.14369e-19)
(14.0519 0.896494 -3.04096e-19)
(14.1487 0.8928 1.48347e-19)
(14.2178 0.888582 -1.41533e-19)
(9.77963 0.723707 7.1211e-19)
(11.2396 0.722565 -6.42907e-19)
(11.9676 0.799812 -1.98606e-19)
(12.4856 0.800504 1.88624e-19)
(12.9067 0.819553 -5.37678e-19)
(13.2564 0.828868 5.19834e-19)
(13.5408 0.836837 -3.22603e-21)
(13.7661 0.841341 -1.64031e-19)
(13.94 0.84303 -3.12975e-19)
(14.0712 0.842153 4.5995e-19)
(14.1678 0.838796 1.47665e-19)
(14.2369 0.835111 -4.38253e-19)
(9.79108 0.678727 2.3969e-19)
(11.2643 0.67326 0)
(11.9954 0.748649 -2.00512e-19)
(12.5118 0.747715 9.2639e-22)
(12.9304 0.765919 0)
(13.2778 0.774451 1.74355e-19)
(13.5605 0.78199 0)
(13.7847 0.786318 0)
(13.9581 0.788078 0)
(14.0889 0.787512 0)
(14.1853 0.784663 -2.97733e-19)
(14.2546 0.780795 5.80747e-19)
(9.80096 0.633544 -4.80338e-19)
(11.2867 0.623653 0)
(12.021 0.697068 4.01715e-19)
(12.5361 0.694448 -1.89308e-19)
(12.9522 0.711831 -3.61329e-19)
(13.2975 0.719586 1.76734e-19)
(13.5786 0.726683 -3.36012e-19)
(13.8018 0.730802 3.28833e-19)
(13.9745 0.732574 -3.16164e-19)
(14.1049 0.732223 3.1635e-21)
(14.201 0.729986 1.53787e-19)
(14.2701 0.727309 2.91534e-19)
(9.80864 0.587872 0)
(11.3069 0.573485 -2.16944e-19)
(12.0446 0.645018 -2.01228e-19)
(12.5583 0.640713 0)
(12.9722 0.657308 -3.62767e-19)
(13.3154 0.664274 7.01587e-19)
(13.5951 0.670917 -3.40723e-19)
(13.8173 0.674798 0)
(13.9894 0.676504 0)
(14.1196 0.676152 -1.5553e-19)
(14.2154 0.673947 -1.50781e-19)
(14.2837 0.673955 0)
(9.8142 0.542228 4.81897e-19)
(11.3247 0.523331 -4.21831e-21)
(12.066 0.592661 -2.9349e-21)
(12.5787 0.586565 -3.37268e-21)
(12.9904 0.602401 -5.50572e-19)
(13.3317 0.608577 0)
(13.6099 0.614751 0)
(13.8313 0.618381 0)
(14.0031 0.620016 0)
(14.1331 0.619632 1.55608e-19)
(14.2294 0.616878 -1.49786e-19)
(14.2987 0.61874 2.94512e-21)
(9.81798 0.496132 -6.05493e-19)
(11.3405 0.472704 6.55994e-19)
(12.0854 0.539921 4.04401e-19)
(12.5971 0.532015 -3.85391e-19)
(13.0069 0.54716 9.12518e-20)
(13.3463 0.552557 0)
(13.6232 0.558296 3.40019e-19)
(13.8439 0.561723 -3.30997e-21)
(14.0153 0.563455 -3.23533e-19)
(14.1452 0.563585 0)
(14.2415 0.561593 -2.28525e-19)
(14.3105 0.558216 0)
(9.8198 0.449935 2.05216e-21)
(11.354 0.421964 4.39736e-19)
(12.1027 0.486865 1.02048e-19)
(12.6137 0.477138 2.86848e-19)
(13.0216 0.491651 -2.7786e-19)
(13.3592 0.496253 0)
(13.635 0.501545 3.41208e-19)
(13.8549 0.504737 -3.32611e-21)
(14.026 0.506398 -2.4385e-19)
(14.1557 0.506578 0)
(14.2518 0.504967 1.53044e-19)
(14.3212 0.505102 0)
(9.82031 0.403762 1.21348e-21)
(11.3654 0.370946 3.30414e-19)
(12.118 0.433343 -1.02036e-19)
(12.6284 0.422013 1.9296e-19)
(13.0346 0.435924 0)
(13.3705 0.439686 0)
(13.6452 0.44453 -8.61199e-20)
(13.8644 0.447478 -8.35336e-20)
(14.0352 0.449094 -8.0936e-20)
(14.165 0.449405 -7.89866e-20)
(14.2613 0.448027 -1.52578e-19)
(14.331 0.448516 1.48918e-19)
(9.81893 0.357337 -1.2254e-19)
(11.3746 0.319408 -1.09855e-19)
(12.1314 0.37937 2.04008e-19)
(12.6412 0.366655 -4.83658e-19)
(13.0459 0.379982 1.85913e-19)
(13.3803 0.382887 0)
(13.6538 0.387282 8.6134e-20)
(13.8725 0.389986 8.35567e-20)
(14.0431 0.391578 -1.61805e-19)
(14.1729 0.392011 2.38135e-19)
(14.2694 0.39078 1.53534e-19)
(14.3392 0.391348 -1.51189e-19)
(9.81584 0.311177 0)
(11.3815 0.268012 0)
(12.1427 0.325059 1.0287e-19)
(12.6523 0.311038 0)
(13.0556 0.323897 -9.29002e-20)
(13.3884 0.325873 8.94924e-20)
(13.661 0.329824 1.72125e-19)
(13.8791 0.332289 -2.52661e-19)
(14.0495 0.33386 0)
(14.1794 0.334477 -7.9481e-20)
(14.276 0.333624 7.66127e-20)
(14.3461 0.333466 -2.25082e-19)
(9.81118 0.264822 6.17451e-20)
(11.3864 0.216226 2.2047e-19)
(12.1518 0.270459 -3.09397e-19)
(12.6618 0.255318 0)
(13.0637 0.267629 4.6348e-20)
(13.395 0.268629 8.8849e-20)
(13.6666 0.272168 -3.46803e-19)
(13.8843 0.274391 4.20546e-19)
(14.0546 0.275913 -1.64415e-19)
(14.1846 0.276611 1.19376e-19)
(14.2814 0.275973 0)
(14.3518 0.275638 7.57722e-20)
(9.80471 0.21858 -6.17652e-20)
(11.3894 0.164378 0)
(12.1589 0.215787 -5.10643e-20)
(12.6694 0.199671 9.78617e-20)
(13.0702 0.211166 1.39309e-19)
(13.4001 0.211114 -9.0219e-20)
(13.6707 0.21434 -4.34812e-20)
(13.888 0.216342 4.21993e-20)
(14.0582 0.217853 8.15694e-20)
(14.1883 0.218771 -1.20117e-19)
(14.2854 0.218771 -3.89106e-20)
(14.3564 0.217475 -3.75871e-20)
(9.79664 0.172404 -9.22894e-20)
(11.3904 0.112329 1.39273e-19)
(12.1641 0.161129 -7.74899e-20)
(12.6753 0.144037 1.21562e-19)
(13.0747 0.15435 -2.10036e-19)
(13.4035 0.153415 1.79915e-19)
(13.6734 0.156423 -6.57705e-20)
(13.8903 0.158142 4.18627e-20)
(14.0604 0.159582 -1.6435e-19)
(14.1907 0.160506 6.04123e-20)
(14.288 0.160698 3.894e-20)
(14.3591 0.159557 3.81126e-20)
(9.78707 0.126565 -9.27747e-20)
(11.3897 0.0600865 2.80816e-20)
(12.1675 0.106458 2.58579e-20)
(12.6795 0.0882498 -2.44047e-20)
(13.0776 0.0972734 -2.31639e-20)
(13.4055 0.0958283 4.52473e-20)
(13.6746 0.0983595 2.17817e-20)
(13.8911 0.0998132 0)
(14.0613 0.10123 0)
(14.1918 0.102306 2.00237e-20)
(14.2895 0.103034 0)
(14.3611 0.102117 0)
(9.77605 0.0807937 -1.55433e-20)
(11.3871 0.00762189 1.38723e-20)
(12.1692 0.0517524 7.13591e-22)
(12.6818 0.0323839 -1.26638e-20)
(13.0791 0.0400529 0)
(13.4059 0.0381761 0)
(13.6743 0.0401919 1.15366e-20)
(13.8905 0.0413812 -2.11779e-20)
(14.0607 0.0427577 1.03525e-20)
(14.1915 0.0438852 6.27121e-22)
(14.2895 0.044774 0)
(14.3614 0.0444016 0)
(9.76321 0.0352058 4.67017e-20)
(11.3825 -0.0449293 2.77741e-20)
(12.1691 -0.00310258 -1.38503e-20)
(12.6824 -0.023523 3.82237e-22)
(13.0789 -0.0171878 -1.17061e-20)
(13.4048 -0.0195656 1.12791e-20)
(13.6725 -0.0180692 -1.16021e-20)
(13.8885 -0.0171138 -3.16879e-20)
(14.0587 -0.0157765 -1.0099e-20)
(14.1898 -0.0144915 9.51251e-21)
(14.2882 -0.0131027 -9.78201e-21)
(14.3606 -0.0129017 0)
(9.74884 -0.0101031 4.64532e-20)
(11.376 -0.0972615 -8.37571e-20)
(12.1673 -0.0579253 1.31307e-20)
(12.6813 -0.0794959 -2.42773e-20)
(13.0773 -0.0744462 3.55508e-20)
(13.4022 -0.0773485 3.40608e-20)
(13.6693 -0.0763859 1.09187e-20)
(13.8851 -0.0756901 1.06002e-20)
(14.0554 -0.0744568 1.03113e-20)
(14.1867 -0.0732251 3.01298e-20)
(14.2854 -0.071897 -9.78995e-21)
(14.3574 -0.070804 5.72809e-20)
(9.73307 -0.0553435 -6.17922e-20)
(11.3676 -0.149573 -8.2838e-20)
(12.1637 -0.112733 1.3018e-19)
(12.6786 -0.135509 -2.44982e-20)
(13.074 -0.131701 -1.16692e-19)
(13.3981 -0.135155 1.80537e-19)
(13.6646 -0.134713 -4.41203e-20)
(13.8803 -0.134286 0)
(14.0508 -0.133175 4.12734e-20)
(14.1826 -0.131987 -2.00919e-20)
(14.282 -0.130931 1.95764e-20)
(14.3552 -0.128464 -1.91325e-20)
(9.71552 -0.100424 -1.25499e-19)
(11.3575 -0.201758 -5.53086e-22)
(12.1582 -0.16751 0)
(12.6742 -0.191533 -9.76265e-20)
(13.0692 -0.188899 9.41362e-20)
(13.3925 -0.192917 0)
(13.6585 -0.192981 -2.737e-24)
(13.8741 -0.19278 0)
(14.0449 -0.191692 -4.12757e-20)
(14.1772 -0.190239 0)
(14.2773 -0.188832 0)
(14.3518 -0.186017 -7.50498e-20)
(9.69645 -0.145073 6.24917e-20)
(11.3455 -0.253582 5.52279e-20)
(12.151 -0.222196 -4.1561e-19)
(12.6681 -0.247518 3.92294e-19)
(13.0629 -0.246037 -1.88256e-19)
(13.3854 -0.250629 0)
(13.651 -0.251175 -4.36997e-20)
(13.8665 -0.251204 0)
(14.0376 -0.250176 0)
(14.1703 -0.248609 0)
(14.2709 -0.247064 0)
(14.3457 -0.244408 -1.50767e-19)
(9.67604 -0.189472 1.24971e-19)
(11.3318 -0.305258 2.23487e-19)
(12.142 -0.276829 0)
(12.6604 -0.303441 2.93298e-19)
(13.055 -0.303087 -9.4542e-20)
(13.3769 -0.308274 0)
(13.6421 -0.309303 -8.65281e-20)
(13.8575 -0.309582 8.6501e-20)
(14.0288 -0.308645 1.65889e-19)
(14.1619 -0.306977 2.40263e-19)
(14.2631 -0.305048 -1.57453e-19)
(14.3384 -0.302833 7.54011e-20)
(9.65431 -0.233594 -5.00156e-19)
(11.3162 -0.356716 -1.11788e-19)
(12.1313 -0.331366 1.03932e-19)
(12.651 -0.359282 -8.29548e-23)
(13.0455 -0.360029 -9.36946e-20)
(13.3669 -0.365831 9.01478e-20)
(13.6317 -0.36735 8.64118e-20)
(13.8472 -0.367894 -2.55205e-19)
(14.0188 -0.367082 0)
(14.1524 -0.365447 -2.40171e-19)
(14.2541 -0.363441 3.13074e-19)
(14.3297 -0.361256 -3.06047e-19)
(9.63084 -0.277753 2.50086e-19)
(11.2989 -0.40821 2.22795e-19)
(12.1188 -0.385762 -2.08633e-19)
(12.6401 -0.415012 -9.80413e-20)
(13.0345 -0.416852 1.86332e-19)
(13.3554 -0.423269 -9.18808e-20)
(13.6199 -0.425263 -8.8142e-20)
(13.8354 -0.426063 8.46579e-20)
(14.0074 -0.425355 0)
(14.1416 -0.423639 0)
(14.2439 -0.421247 0)
(14.3201 -0.418854 7.76233e-22)
(9.60586 -0.321287 -2.50022e-19)
(11.2796 -0.459137 0)
(12.1045 -0.439972 -1.43187e-22)
(12.6274 -0.4706 0)
(13.022 -0.473519 9.34541e-20)
(13.3424 -0.480543 -3.58453e-19)
(13.6067 -0.483007 2.63103e-19)
(13.8223 -0.484065 -8.46819e-20)
(13.9947 -0.483474 0)
(14.1295 -0.481845 -3.19136e-19)
(14.2328 -0.479794 3.14242e-19)
(14.3098 -0.477545 -7.67008e-20)
(9.57952 -0.364854 -3.74838e-19)
(11.2586 -0.510066 2.23018e-19)
(12.0884 -0.493976 -3.11371e-19)
(12.613 -0.526002 1.95521e-19)
(13.0078 -0.530005 -2.80167e-19)
(13.328 -0.537649 0)
(13.5921 -0.54055 0)
(13.8078 -0.541818 3.36404e-19)
(13.9806 -0.541212 -4.9498e-19)
(14.1161 -0.539196 -1.58722e-19)
(14.2203 -0.536226 1.57924e-19)
(14.2997 -0.534596 0)
(9.5514 -0.408018 0)
(11.2359 -0.560601 -1.30479e-21)
(12.0707 -0.547742 -2.08539e-19)
(12.5971 -0.581214 -1.65781e-21)
(12.9922 -0.586281 -1.88089e-19)
(13.312 -0.594542 5.36986e-19)
(13.576 -0.597897 -3.4939e-19)
(13.7918 -0.599404 1.67276e-19)
(13.965 -0.598889 -1.65775e-19)
(14.101 -0.596865 1.58179e-19)
(14.2057 -0.593635 -1.5738e-19)
(14.2855 -0.59015 2.99413e-19)
(9.52211 -0.45081 7.4844e-19)
(11.2115 -0.610765 2.2301e-19)
(12.0511 -0.60125 0)
(12.5795 -0.636212 3.90493e-19)
(12.975 -0.642365 3.70996e-19)
(13.2946 -0.651262 -1.82948e-19)
(13.5584 -0.655086 -3.48828e-19)
(13.7744 -0.656865 3.6656e-22)
(13.948 -0.656486 0)
(14.0846 -0.654537 0)
(14.19 -0.651228 0)
(14.2699 -0.647013 0)
(9.4915 -0.493375 -7.48268e-19)
(11.1853 -0.660747 -2.22237e-19)
(12.0299 -0.654592 0)
(12.5603 -0.691012 -1.95215e-19)
(12.9563 -0.698246 -1.85816e-19)
(13.2758 -0.70779 -1.77543e-19)
(13.5395 -0.712088 3.39039e-21)
(13.7556 -0.714161 8.41186e-19)
(13.9297 -0.713935 -3.29011e-19)
(14.0671 -0.712074 0)
(14.1733 -0.709052 3.08998e-19)
(14.2538 -0.705056 -3.04352e-19)
(9.45912 -0.535726 -2.49407e-19)
(11.1572 -0.710484 1.30737e-21)
(12.0068 -0.70765 2.08185e-19)
(12.5394 -0.745579 0)
(12.936 -0.753879 1.70578e-21)
(13.2554 -0.764065 3.58566e-19)
(13.5191 -0.768837 -3.44082e-19)
(13.7355 -0.771187 5.05001e-19)
(13.9101 -0.771068 0)
(14.0483 -0.769102 0)
(14.1554 -0.7657 0)
(14.237 -0.761909 4.47314e-19)
(9.42517 -0.577601 -9.94675e-19)
(11.1274 -0.759713 -6.64494e-19)
(11.982 -0.760333 6.20428e-19)
(12.5169 -0.799836 0)
(12.9142 -0.809229 -3.7069e-19)
(13.2336 -0.820064 -1.78541e-19)
(13.4973 -0.825299 0)
(13.714 -0.827932 3.32766e-19)
(13.8893 -0.827965 -3.27565e-19)
(14.0282 -0.826083 0)
(14.1362 -0.822832 0)
(14.2185 -0.81841 -1.50997e-19)
(9.38981 -0.619152 9.90725e-19)
(11.096 -0.808592 -2.23878e-19)
(11.9553 -0.812681 -2.04397e-19)
(12.4927 -0.853769 1.95996e-19)
(12.8908 -0.864258 1.8524e-19)
(13.2104 -0.875742 -5.31586e-19)
(13.4742 -0.88144 3.45825e-19)
(13.6912 -0.884346 -3.34052e-19)
(13.867 -0.884493 -3.23386e-19)
(14.0068 -0.882514 3.18277e-19)
(14.1158 -0.878976 0)
(14.1995 -0.874462 -1.48596e-19)
(9.35297 -0.660206 4.92417e-19)
(11.0627 -0.85696 -6.65402e-19)
(11.9271 -0.864651 -2.05797e-19)
(12.4669 -0.907363 1.15758e-18)
(12.8659 -0.918955 -7.41194e-19)
(13.1856 -0.931088 1.7771e-19)
(13.4496 -0.937247 6.83049e-19)
(13.667 -0.94043 -5.02763e-19)
(13.8434 -0.9407 1.61794e-19)
(13.984 -0.93874 0)
(14.094 -0.935254 0)
(14.1786 -0.930934 1.49794e-19)
(9.31511 -0.700846 -9.22232e-22)
(11.0277 -0.904861 0)
(11.897 -0.916282 6.11613e-19)
(12.4394 -0.960618 -9.68995e-19)
(12.8394 -0.973292 -7.32673e-19)
(13.1594 -0.986096 7.10965e-19)
(13.4235 -0.9927 5.10266e-19)
(13.6413 -0.996132 -8.33537e-19)
(13.8184 -0.996531 -1.61878e-19)
(13.9599 -0.99445 -7.83348e-19)
(14.0708 -0.990475 4.63727e-19)
(14.1569 -0.986734 0)
(9.2752 -0.741387 -2.47245e-19)
(10.9909 -0.952694 0)
(11.8651 -0.96757 1.01901e-18)
(12.4102 -1.01351 -1.54007e-18)
(12.8113 -1.02729 3.70912e-19)
(13.1317 -1.04073 -3.52038e-19)
(13.3961 -1.0478 1.70904e-19)
(13.6143 -1.05151 4.9433e-19)
(13.792 -1.05207 -6.47522e-19)
(13.9343 -1.05011 1.57178e-19)
(14.0462 -1.04619 4.56269e-19)
(14.1329 -1.04325 -5.97602e-19)
(9.23359 -0.781047 4.9114e-19)
(10.9522 -0.999633 4.37762e-19)
(11.8315 -1.01829 8.12027e-19)
(12.3793 -1.06594 -1.536e-18)
(12.7817 -1.08087 1.1016e-18)
(13.1025 -1.09498 -3.47512e-19)
(13.3672 -1.10251 3.44019e-19)
(13.5858 -1.1065 3.30645e-19)
(13.7643 -1.10716 0)
(13.9075 -1.10515 0)
(14.0206 -1.10064 -3.00988e-19)
(14.1087 -1.09787 6.31104e-21)
(9.19104 -0.820291 -2.26731e-21)
(10.912 -1.04606 -2.00862e-21)
(11.796 -1.06857 0)
(12.3468 -1.11796 -3.803e-19)
(12.7505 -1.13404 1.09615e-18)
(13.0718 -1.14881 -3.49587e-19)
(13.3368 -1.15681 -6.7255e-19)
(13.5559 -1.1611 3.32819e-19)
(13.7352 -1.1619 3.17216e-19)
(13.8793 -1.16 -9.36943e-19)
(13.9934 -1.15544 0)
(14.082 -1.1535 -2.95296e-19)
(9.14701 -0.859115 -2.38837e-21)
(10.8699 -1.09203 4.32277e-19)
(11.7589 -1.11844 -4.0869e-19)
(12.3126 -1.16953 -1.14201e-18)
(12.7177 -1.18679 -3.57686e-19)
(13.0396 -1.20225 1.3995e-18)
(13.305 -1.21069 1.64906e-21)
(13.5247 -1.21526 1.59958e-21)
(13.7046 -1.21618 3.19267e-19)
(13.8497 -1.21424 3.11022e-19)
(13.9649 -1.20912 0)
(14.0554 -1.20593 8.74271e-19)
(9.10153 -0.897578 -4.89073e-19)
(10.8263 -1.13759 -4.33352e-19)
(11.7199 -1.16776 -4.04896e-19)
(12.2767 -1.22063 -3.7783e-19)
(12.6833 -1.23907 7.27144e-19)
(13.0058 -1.25525 -1.04072e-18)
(13.2717 -1.26416 3.43455e-19)
(13.492 -1.26903 6.57076e-19)
(13.6727 -1.27012 0)
(13.8187 -1.26837 3.06515e-19)
(13.9349 -1.26353 -1.2038e-18)
(14.0255 -1.26053 5.91439e-19)
(9.05418 -0.935467 4.83458e-19)
(10.7805 -1.18263 -4.35823e-19)
(11.6792 -1.21669 -1.20217e-18)
(12.2391 -1.27129 3.4632e-21)
(12.6474 -1.29088 0)
(12.9707 -1.30775 -3.45349e-19)
(13.237 -1.31716 -3.33718e-19)
(13.4579 -1.32236 3.2554e-19)
(13.6395 -1.32365 0)
(13.7866 -1.32199 3.08381e-19)
(13.904 -1.3173 5.96376e-19)
(13.9962 -1.3139 -6.40324e-21)
(9.0051 -0.972547 4.85973e-19)
(10.7331 -1.22673 0)
(11.6364 -1.26483 8.00467e-19)
(12.1997 -1.32131 -3.79601e-19)
(12.6097 -1.34215 -3.58107e-19)
(12.9339 -1.35973 1.03221e-18)
(13.2009 -1.36963 -9.98438e-19)
(13.4224 -1.37514 9.71828e-19)
(13.6049 -1.37659 0)
(13.7531 -1.3749 -3.03826e-19)
(13.8718 -1.36997 8.96992e-19)
(13.9655 -1.36628 2.88684e-19)
(8.95516 -1.00905 -9.65051e-19)
(10.6842 -1.27019 4.28193e-19)
(11.5921 -1.31241 -3.56506e-21)
(12.1587 -1.37081 -7.54238e-19)
(12.5706 -1.39291 7.14867e-19)
(12.8957 -1.41118 0)
(13.1633 -1.42159 -3.30465e-19)
(13.3856 -1.42742 -3.22474e-19)
(13.569 -1.42907 0)
(13.7183 -1.42751 3.00428e-19)
(13.8382 -1.42282 -8.94037e-19)
(13.9331 -1.4193 -2.90029e-19)
(8.90395 -1.04516 0)
(10.6332 -1.31322 2.70775e-21)
(11.5459 -1.35951 1.18987e-18)
(12.116 -1.41976 -6.59795e-21)
(12.5298 -1.44312 -1.78007e-18)
(12.8559 -1.4621 1.3659e-18)
(13.1243 -1.47298 -1.31731e-18)
(13.3473 -1.47913 6.42983e-19)
(13.5316 -1.48093 0)
(13.682 -1.47932 0)
(13.8033 -1.47424 -2.93197e-19)
(13.9004 -1.4705 5.72125e-19)
(8.8508 -1.08066 0)
(10.5805 -1.35557 2.84678e-21)
(11.4979 -1.40598 -1.18141e-18)
(12.0715 -1.46811 7.47614e-19)
(12.4874 -1.49271 0)
(12.8146 -1.51245 6.76327e-19)
(13.0837 -1.52383 -3.30165e-19)
(13.3076 -1.53028 0)
(13.4929 -1.53231 -6.1559e-19)
(13.6444 -1.5309 6.05619e-19)
(13.767 -1.5262 -2.94518e-19)
(13.865 -1.52285 0)
(8.79599 -1.11558 9.52988e-19)
(10.5262 -1.39733 4.25173e-19)
(11.448 -1.45172 7.87e-19)
(12.0252 -1.51581 0)
(12.4433 -1.54169 7.01207e-19)
(12.7717 -1.56219 -3.43175e-19)
(13.0417 -1.57407 -6.55755e-19)
(13.2664 -1.58085 0)
(13.4528 -1.58304 3.06469e-19)
(13.6056 -1.58161 0)
(13.7296 -1.57657 0)
(13.8297 -1.57271 0)
(8.73951 -1.14964 4.71876e-19)
(10.4697 -1.43825 -8.47188e-19)
(11.3962 -1.49678 -3.92932e-19)
(11.9771 -1.56285 0)
(12.3975 -1.59003 6.97486e-19)
(12.7273 -1.6113 -3.38004e-19)
(12.9982 -1.62367 -6.45517e-19)
(13.2238 -1.63077 9.45429e-19)
(13.4112 -1.63317 -9.1508e-19)
(13.5653 -1.63191 8.9503e-19)
(13.6907 -1.62723 -8.66155e-19)
(13.7918 -1.62388 6.3334e-21)
(8.68168 -1.18287 1.88315e-18)
(10.4115 -1.47816 -4.24762e-19)
(11.3426 -1.54105 0)
(11.9273 -1.60915 1.09416e-18)
(12.3501 -1.63771 -6.27062e-21)
(12.6813 -1.65974 -6.71365e-19)
(12.9532 -1.67262 -3.21123e-19)
(13.1798 -1.68005 -2.38958e-21)
(13.3682 -1.68257 6.04473e-19)
(13.5236 -1.68123 -5.96885e-19)
(13.6506 -1.67605 1.14962e-18)
(13.7542 -1.67254 -1.11418e-18)
(8.62258 -1.21556 -9.38477e-19)
(10.3517 -1.51737 -4.18743e-19)
(11.287 -1.58458 -3.85547e-19)
(11.8757 -1.65473 -2.90762e-21)
(12.301 -1.68469 -3.44955e-19)
(12.6337 -1.70749 -6.61004e-19)
(12.9066 -1.72091 6.46295e-19)
(13.1342 -1.72871 -2.47959e-21)
(13.3238 -1.73146 0)
(13.4803 -1.73028 -8.79526e-19)
(13.6085 -1.72506 5.73236e-19)
(13.7129 -1.72081 0)
(8.56189 -1.24756 4.72716e-19)
(10.2899 -1.5559 8.32988e-19)
(11.2297 -1.62737 1.15268e-18)
(11.8222 -1.69957 -1.09079e-18)
(12.2502 -1.73094 -3.3963e-19)
(12.5844 -1.75457 9.91256e-19)
(12.8586 -1.76857 3.19488e-19)
(13.0872 -1.77674 -3.09642e-19)
(13.2779 -1.7798 -1.1927e-18)
(13.4358 -1.77897 1.1729e-18)
(13.5654 -1.77432 -2.85329e-19)
(13.6707 -1.77011 -1.1078e-18)
(8.49948 -1.27881 -9.23907e-19)
(10.2264 -1.59362 1.64961e-18)
(11.1704 -1.66939 -3.86456e-19)
(11.767 -1.74366 3.58013e-19)
(12.1976 -1.77646 3.40395e-19)
(12.5337 -1.80091 -2.84093e-21)
(12.8091 -1.81548 9.43393e-19)
(13.0388 -1.82401 -1.2309e-18)
(13.2308 -1.82732 0)
(13.3902 -1.82662 2.8837e-19)
(13.5217 -1.82223 0)
(13.6293 -1.81835 2.74549e-19)
(8.43537 -1.30922 -1.83652e-18)
(10.1608 -1.6304 1.64514e-18)
(11.1092 -1.71052 -3.8161e-19)
(11.7099 -1.78691 -3.58813e-19)