/*--------------------------------*- C++ -*----------------------------------*\
| =========                 |                                                 |
| \\      /  F ield         | OpenFOAM: The Open Source CFD Toolbox           |
|  \\    /   O peration     | Version:  2.3.1                                 |
|   \\  /    A nd           | Web:      www.OpenFOAM.org                      |
|    \\/     M anipulation  |                                                 |
\*---------------------------------------------------------------------------*/
FoamFile
{
    version     2.0;
    format      ascii;
    class       surfaceScalarField;
    location    "0.2";
    object      phi;
}
// * * * * * * * * * * * * * * * * * * * * * * * * * * * * * * * * * * * * * //

dimensions      [0 3 -1 0 0 0 0];

internalField   nonuniform List<scalar> 
1460
(
-1.65572e-06
-1.23386e-06
1.50847e-06
-1.73644e-06
-6.95084e-07
-1.68173e-06
-1.27595e-07
-1.58311e-06
3.56504e-07
-1.42412e-06
8.04548e-07
-1.21354e-06
1.19202e-06
-9.70699e-07
1.51361e-06
-6.85714e-07
1.81078e-06
-3.74235e-07
2.09061e-06
-6.51252e-08
2.31604e-06
2.58664e-07
2.4579e-06
2.4752e-06
6.94874e-07
-1.39499e-06
-1.09657e-06
1.2577e-06
-1.46333e-06
-6.26739e-07
-1.44405e-06
-1.46878e-07
-1.37242e-06
2.84872e-07
-1.24538e-06
6.77509e-07
-1.0738e-06
1.02044e-06
-8.69921e-07
1.30973e-06
-6.20004e-07
1.56086e-06
-3.04126e-07
1.77473e-06
8.84174e-08
1.9235e-06
5.73213e-07
1.97311e-06
1.80512e-06
1.24329e-06
-1.18755e-06
-9.69289e-07
1.06027e-06
-1.25154e-06
-5.62747e-07
-1.24646e-06
-1.51961e-07
-1.18945e-06
2.27865e-07
-1.08634e-06
5.74394e-07
-9.42142e-07
8.76248e-07
-7.65756e-07
1.13334e-06
-5.58003e-07
1.35311e-06
-3.09678e-07
1.5264e-06
1.62891e-08
1.59753e-06
5.21285e-07
1.46811e-06
9.55422e-07
1.37098e-06
-1.0204e-06
9.03994e-07
-8.52887e-07
-1.08082e-06
-5.02325e-07
-1.08378e-06
-1.49e-07
-1.03901e-06
1.831e-07
-9.51579e-07
4.8696e-07
-8.27071e-07
7.5174e-07
-6.70847e-07
9.77118e-07
-4.90378e-07
1.17264e-06
-2.98004e-07
1.33403e-06
-6.15619e-08
1.36109e-06
4.57699e-07
9.48851e-07
1.5155e-06
-1.02382e-07
1.0684e-06
2.77852e-06
1.52014e-06
2.45721e-06
1.94076e-06
1.44868e-06
1.90215e-06
1.05987e-08
1.75972e-06
-1.30531e-06
1.41024e-06
-2.361e-06
8.43433e-07
-2.99268e-06
1.68673e-07
-3.18721e-06
-4.68026e-07
-3.05465e-06
-9.51593e-07
-2.71658e-06
-1.2824e-06
-2.26868e-06
-1.76661e-06
-1.51015e-06
1.53653e-06
2.48529e-06
1.80904e-06
2.18469e-06
2.02733e-06
1.23039e-06
1.99168e-06
4.62501e-08
1.74434e-06
-1.05797e-06
1.28958e-06
-1.90624e-06
7.10724e-07
-2.41382e-06
1.3194e-07
-2.60843e-06
-3.63233e-07
-2.55948e-06
-7.4879e-07
-2.33102e-06
-1.04196e-06
-1.97551e-06
-1.55388e-06
-1.25469e-06
1.5195e-06
2.33678e-06
1.691e-06
2.01318e-06
1.80427e-06
1.11712e-06
1.72578e-06
1.24741e-07
1.45859e-06
-7.90781e-07
1.04571e-06
-1.49336e-06
5.8214e-07
-1.95026e-06
1.34858e-07
-2.16114e-06
-2.63594e-07
-2.16103e-06
-6.00561e-07
-1.99406e-06
-8.65871e-07
-1.7102e-06
-1.3596e-06
-1.06015e-06
1.35675e-06
2.49553e-06
1.38751e-06
1.98242e-06
1.43101e-06
1.07362e-06
1.36372e-06
1.92035e-07
1.15303e-06
-5.80093e-07
8.43273e-07
-1.1836e-06
4.87893e-07
-1.59488e-06
1.28427e-07
-1.80168e-06
-2.07175e-07
-1.82543e-06
-4.97156e-07
-1.70407e-06
-7.29852e-07
-1.4775e-06
-9.03985e-07
-1.18547e-06
-1.66087e-06
-1.24125e-06
-1.73947e-06
-6.96678e-07
-1.68255e-06
-1.26229e-07
-1.58317e-06
3.57612e-07
-1.42391e-06
8.05222e-07
-1.21309e-06
1.19237e-06
-9.69948e-07
1.5139e-06
-6.84695e-07
1.81115e-06
-3.73101e-07
2.09105e-06
-6.40383e-08
2.31647e-06
2.59624e-07
2.45819e-06
2.47531e-06
-1.39552e-06
-1.10042e-06
-1.46484e-06
-6.27363e-07
-1.44476e-06
-1.46305e-07
-1.37273e-06
2.85581e-07
-1.24547e-06
6.77962e-07
-1.07379e-06
1.02069e-06
-8.69774e-07
1.30988e-06
-6.19666e-07
1.56104e-06
-3.03609e-07
1.77499e-06
8.90087e-08
1.92385e-06
5.73789e-07
1.97341e-06
1.80527e-06
-1.18859e-06
-9.71976e-07
-1.25261e-06
-5.63345e-07
-1.24711e-06
-1.51806e-07
-1.1898e-06
2.28276e-07
-1.08656e-06
5.74721e-07
-9.42332e-07
8.76461e-07
-7.65948e-07
1.1335e-06
-5.58192e-07
1.35329e-06
-3.09869e-07
1.52667e-06
1.60832e-08
1.5979e-06
5.21045e-07
1.46845e-06
9.55541e-07
-1.02115e-06
-8.54806e-07
-1.08156e-06
-5.02937e-07
-1.08432e-06
-1.49049e-07
-1.03934e-06
1.83298e-07
-9.51823e-07
4.87202e-07
-8.273e-07
7.51938e-07
-6.71101e-07
9.773e-07
-4.90727e-07
1.17291e-06
-2.98528e-07
1.33447e-06
-6.22674e-08
1.36164e-06
4.56871e-07
9.49312e-07
-1.02161e-07
1.06863e-06
2.77744e-06
1.52067e-06
2.45587e-06
1.9413e-06
1.44732e-06
1.90226e-06
9.83839e-09
1.75963e-06
-1.30579e-06
1.40978e-06
-2.3608e-06
8.42677e-07
-2.99191e-06
1.67776e-07
-3.18608e-06
-4.69014e-07
-3.05336e-06
-9.53366e-07
-2.71514e-06
-1.28378e-06
-2.26858e-06
-1.76586e-06
1.53626e-06
2.48388e-06
1.80905e-06
2.18307e-06
2.0272e-06
1.22917e-06
1.99141e-06
4.56355e-08
1.74372e-06
-1.0581e-06
1.28875e-06
-1.90583e-06
7.09856e-07
-2.41302e-06
1.31167e-07
-2.60739e-06
-3.63867e-07
-2.55832e-06
-7.4944e-07
-2.32957e-06
-1.04356e-06
-1.97446e-06
-1.55172e-06
1.51864e-06
2.33497e-06
1.69037e-06
2.01135e-06
1.80356e-06
1.11598e-06
1.72497e-06
1.24229e-07
1.45766e-06
-7.90787e-07
1.04478e-06
-1.49295e-06
5.81319e-07
-1.94955e-06
1.34169e-07
-2.16024e-06
-2.64166e-07
-2.15999e-06
-6.0093e-07
-1.9928e-06
-8.66267e-07
-1.70912e-06
-1.35772e-06
1.35551e-06
2.49318e-06
1.38647e-06
1.98038e-06
1.43005e-06
1.0724e-06
1.36275e-06
1.9153e-07
1.15208e-06
-5.80117e-07
8.42414e-07
-1.18328e-06
4.87153e-07
-1.59429e-06
1.27804e-07
-1.80089e-06
-2.0773e-07
-1.82445e-06
-4.9753e-07
-1.703e-06
-7.30236e-07
-1.47642e-06
-1.18396e-06
-8.85164e-07
-7.46e-07
7.78278e-07
-9.42455e-07
-4.45034e-07
-9.50575e-07
-1.4088e-07
-9.15362e-07
1.47887e-07
-8.41546e-07
4.13144e-07
-7.3451e-07
6.44704e-07
-5.96944e-07
8.39552e-07
-4.32656e-07
1.00835e-06
-2.60729e-07
1.1621e-06
-1.2075e-07
1.22111e-06
-5.73894e-08
8.85491e-07
-1.59771e-07
-7.75446e-07
-6.47726e-07
6.77171e-07
-8.29698e-07
-3.90783e-07
-8.41134e-07
-1.29444e-07
-8.13323e-07
1.20076e-07
-7.50533e-07
3.50353e-07
-6.57816e-07
5.51988e-07
-5.38264e-07
7.2e-07
-3.90037e-07
8.60127e-07
-2.14538e-07
9.86602e-07
-4.82288e-08
1.0548e-06
2.6656e-08
8.10606e-07
-1.33115e-07
-6.86239e-07
-5.57433e-07
5.95947e-07
-7.37726e-07
-3.39296e-07
-7.51275e-07
-1.15894e-07
-7.29107e-07
9.79076e-08
-6.75083e-07
2.96329e-07
-5.93371e-07
4.70276e-07
-4.88015e-07
6.14643e-07
-3.57017e-07
7.2913e-07
-1.89867e-07
8.19452e-07
4.04958e-09
8.60886e-07
1.23562e-07
6.91093e-07
-9.55324e-09
-6.13341e-07
-4.74883e-07
5.30791e-07
-6.62414e-07
-2.90223e-07
-6.77112e-07
-1.01196e-07
-6.5967e-07
8.0466e-08
-6.12761e-07
2.49419e-07
-5.40103e-07
3.97618e-07
-4.4551e-07
5.2005e-07
-3.298e-07
6.13421e-07
-1.85846e-07
6.75497e-07
-1.35363e-08
6.88576e-07
1.01649e-07
5.75908e-07
9.20962e-08
-5.54049e-07
-3.9805e-07
4.77216e-07
-6.00709e-07
-2.43564e-07
-6.16152e-07
-8.57531e-08
-6.02268e-07
6.65817e-08
-5.61364e-07
2.08516e-07
-4.96357e-07
3.32611e-07
-4.10948e-07
4.34641e-07
-3.07657e-07
5.1013e-07
-1.86166e-07
5.54006e-07
-5.09989e-08
5.53409e-07
4.76386e-08
4.7727e-07
1.39735e-07
-5.0628e-07
-3.26494e-07
4.34723e-07
-5.50164e-07
-1.9968e-07
-5.66084e-07
-6.98331e-08
-5.55103e-07
5.56008e-08
-5.18876e-07
1.7229e-07
-4.60464e-07
2.74198e-07
-3.8305e-07
3.57227e-07
-2.90167e-07
4.17247e-07
-1.85081e-07
4.4892e-07
-7.57987e-08
4.44127e-07
8.98556e-09
3.92486e-07
1.4872e-07
-4.6662e-07
-2.59264e-07
3.9939e-07
-5.0883e-07
-1.5747e-07
-5.25137e-07
-5.35261e-08
-5.1645e-07
4.69139e-08
-4.84099e-07
1.39938e-07
-4.30981e-07
2.21081e-07
-3.60359e-07
2.86605e-07
-2.76166e-07
3.33054e-07
-1.82909e-07
3.55663e-07
-8.88368e-08
3.50055e-07
-9.651e-09
3.133e-07
1.39069e-07
-4.35255e-07
-1.9541e-07
3.71401e-07
-4.75746e-07
-1.16978e-07
-4.91842e-07
-3.74305e-08
-4.84751e-07
3.98225e-08
-4.55598e-07
1.10785e-07
-4.06814e-07
1.72297e-07
-3.41842e-07
2.21633e-07
-2.64629e-07
2.55841e-07
-1.80168e-07
2.71202e-07
-9.58277e-08
2.65714e-07
-2.15507e-08
2.39023e-07
1.17519e-07
-4.09677e-07
-1.34731e-07
3.48998e-07
-4.4855e-07
-7.81048e-08
-4.65179e-07
-2.08016e-08
-4.59115e-07
3.37581e-08
-4.32449e-07
8.41193e-08
-3.87173e-07
1.27021e-07
-3.26679e-07
1.61139e-07
-2.54945e-07
1.84107e-07
-1.7706e-07
1.93316e-07
-9.94988e-08
1.88153e-07
-2.94636e-08
1.68988e-07
8.8055e-08
-3.90513e-07
-7.7063e-08
3.32845e-07
-4.28203e-07
-4.04154e-08
-4.441e-07
-4.90472e-09
-4.38956e-07
2.86144e-08
-4.13675e-07
5.8838e-08
-3.71018e-07
8.43649e-08
-3.13862e-07
1.03982e-07
-2.46317e-07
1.16562e-07
-1.73361e-07
1.20361e-07
-1.00735e-07
1.15527e-07
-3.41663e-08
1.02419e-07
5.38887e-08
-3.8487e-07
-2.52106e-08
3.33017e-07
-4.1652e-07
-8.76501e-09
-4.28058e-07
6.63296e-09
-4.20189e-07
2.07462e-08
-3.9392e-07
3.25682e-08
-3.5178e-07
4.22254e-08
-2.96745e-07
4.89475e-08
-2.32641e-07
5.24575e-08
-1.64281e-07
5.20012e-08
-9.66902e-08
4.7936e-08
-3.4721e-08
4.04497e-08
1.91676e-08
-3.54367e-07
3.29157e-07
-3.63132e-07
-3.56499e-07
-3.35753e-07
-3.03185e-07
-2.6096e-07
-2.12012e-07
-1.59554e-07
-1.07553e-07
-5.96173e-08
-1.91676e-08
7.77828e-07
1.7177e-06
1.00174e-06
1.75852e-06
1.10119e-06
9.7416e-07
1.07645e-06
2.16782e-07
9.31369e-07
-4.35015e-07
6.98265e-07
-9.50497e-07
4.14957e-07
-1.31157e-06
1.17651e-07
-1.50437e-06
-1.64818e-07
-1.54296e-06
-4.15386e-07
-1.45351e-06
-6.21264e-07
-1.27163e-06
-1.02839e-06
-7.78341e-07
3.74754e-07
1.34295e-06
7.11089e-07
1.42218e-06
8.63435e-07
8.21814e-07
8.70183e-07
2.10034e-07
7.66901e-07
-3.31733e-07
5.8372e-07
-7.67316e-07
3.52471e-07
-1.08032e-06
1.03985e-07
-1.25589e-06
-1.36711e-07
-1.30226e-06
-3.54835e-07
-1.23538e-06
-5.36011e-07
-1.09045e-06
-8.87173e-07
-6.7723e-07
2.58481e-07
1.08447e-06
5.45942e-07
1.13472e-06
6.92166e-07
6.7559e-07
7.1226e-07
1.8994e-07
6.35364e-07
-2.54837e-07
4.89607e-07
-6.21559e-07
2.99183e-07
-8.89896e-07
8.97186e-08
-1.04642e-06
-1.1784e-07
-1.0947e-06
-3.06797e-07
-1.04643e-06
-4.69126e-07
-9.28121e-07
-7.60302e-07
-5.95997e-07
2.12159e-07
8.72309e-07
4.38963e-07
9.07915e-07
5.63423e-07
5.5113e-07
5.87794e-07
1.6557e-07
5.30998e-07
-1.98041e-07
4.13297e-07
-5.03858e-07
2.54759e-07
-7.31358e-07
7.63293e-08
-8.67993e-07
-1.03673e-07
-9.147e-07
-2.70248e-07
-8.79851e-07
-4.14662e-07
-7.83708e-07
-6.44134e-07
-5.3083e-07
1.75159e-07
6.9715e-07
3.59701e-07
7.23374e-07
4.6538e-07
4.45451e-07
4.91141e-07
1.39809e-07
4.48614e-07
-1.55514e-07
3.52071e-07
-4.07315e-07
2.1825e-07
-5.97538e-07
6.44348e-08
-7.14178e-07
-9.33231e-08
-7.56942e-07
-2.42104e-07
-7.3107e-07
-3.71812e-07
-6.53999e-07
-5.38707e-07
-4.77239e-07
1.45562e-07
5.51588e-07
2.99383e-07
5.69553e-07
3.90574e-07
3.5426e-07
4.16475e-07
1.13908e-07
3.83842e-07
-1.22881e-07
3.03364e-07
-3.26837e-07
1.88619e-07
-4.82792e-07
5.43155e-08
-5.79875e-07
-8.56059e-08
-6.1702e-07
-2.19363e-07
-5.97313e-07
-3.37813e-07
-5.35548e-07
-4.4179e-07
-4.34731e-07
1.23723e-07
4.27864e-07
2.54148e-07
4.39128e-07
3.33835e-07
2.74572e-07
3.59082e-07
8.86608e-08
3.33326e-07
-9.71253e-08
2.65042e-07
-2.58553e-07
1.65042e-07
-3.82792e-07
4.60602e-08
-4.60893e-07
-7.96161e-08
-4.91344e-07
-2.01102e-07
-4.75827e-07
-3.09763e-07
-4.26888e-07
-3.52162e-07
-3.9939e-07
1.07728e-07
3.20137e-07
2.20535e-07
3.2632e-07
2.91112e-07
2.03995e-07
3.15358e-07
6.44157e-08
2.94511e-07
-7.62785e-08
2.35327e-07
-1.99368e-07
1.46716e-07
-2.94182e-07
3.96707e-08
-3.53848e-07
-7.46881e-08
-3.76985e-07
-1.86295e-07
-3.6422e-07
-2.86857e-07
-3.26326e-07
-2.67607e-07
-3.71412e-07
9.60642e-08
2.24072e-07
1.95795e-07
2.2659e-07
2.59445e-07
1.40345e-07
2.82561e-07
4.12999e-08
2.65289e-07
-5.90067e-08
2.12847e-07
-1.46926e-07
1.32902e-07
-2.14237e-07
3.51002e-08
-2.56046e-07
-7.03779e-08
-2.71507e-07
-1.73933e-07
-2.60666e-07
-2.68709e-07
-2.31549e-07
-1.8733e-07
-3.48986e-07
8.76737e-08
1.36399e-07
1.77865e-07
1.36399e-07
2.36252e-07
8.19578e-08
2.58168e-07
1.93837e-08
2.43184e-07
-4.40228e-08
1.95451e-07
-9.9193e-08
1.21708e-07
-1.40494e-07
3.05327e-08
-1.6487e-07
-6.84531e-08
-1.72522e-07
-1.66322e-07
-1.62797e-07
-2.56443e-07
-1.41428e-07
-1.10946e-07
-3.32827e-07
8.03027e-08
5.6096e-08
1.6198e-07
5.47219e-08
2.14471e-07
2.94663e-08
2.33018e-07
8.36681e-10
2.1685e-07
-2.78542e-08
1.69588e-07
-5.19317e-08
9.76272e-08
-6.8533e-08
9.24148e-09
-7.64845e-08
-8.60868e-08
-7.71933e-08
-1.79127e-07
-6.97573e-08
-2.63634e-07
-5.69206e-08
-4.15705e-08
-3.3301e-07
5.6096e-08
1.10818e-07
1.40284e-07
1.41121e-07
1.13267e-07
6.13349e-08
-7.19807e-09
-8.36826e-08
-1.60876e-07
-2.30633e-07
-2.87554e-07
-3.29124e-07
-8.85701e-07
-7.47447e-07
-9.43037e-07
-4.456e-07
-9.51043e-07
-1.41043e-07
-9.15701e-07
1.47957e-07
-8.41807e-07
4.13308e-07
-7.34752e-07
6.44884e-07
-5.97191e-07
8.39739e-07
-4.32959e-07
1.00868e-06
-2.61181e-07
1.16269e-06
-1.21404e-07
1.22186e-06
-5.79798e-08
8.85888e-07
-1.60141e-07
-7.75835e-07
-6.48842e-07
-8.30133e-07
-3.91303e-07
-8.41489e-07
-1.29687e-07
-8.13628e-07
1.20095e-07
-7.50792e-07
3.50471e-07
-6.58057e-07
5.52149e-07
-5.38503e-07
7.20185e-07
-3.90264e-07
8.60444e-07
-2.14763e-07
9.8719e-07
-4.85027e-08
1.0556e-06
2.6346e-08
8.11039e-07
-1.33795e-07
-6.86523e-07
-5.58316e-07
-7.38056e-07
-3.3977e-07
-7.51625e-07
-1.16117e-07
-7.29395e-07
9.78655e-08
-6.7534e-07
2.96416e-07
-5.93605e-07
4.70414e-07
-4.88235e-07
6.14815e-07
-3.57205e-07
7.29415e-07
-1.8995e-07
8.19934e-07
4.09148e-09
8.6156e-07
1.23698e-07
6.91433e-07
-1.00964e-08
-6.1356e-07
-4.75586e-07
-6.62691e-07
-2.9064e-07
-6.7741e-07
-1.01398e-07
-6.59924e-07
8.03793e-08
-6.13021e-07
2.49513e-07
-5.40319e-07
3.97712e-07
-4.45709e-07
5.20204e-07
-3.29963e-07
6.13669e-07
-1.85899e-07
6.7587e-07
-1.33938e-08
6.89055e-07
1.01859e-07
5.7618e-07
9.17628e-08
-5.54216e-07
-3.98609e-07
-6.00937e-07
-2.43919e-07
-6.16395e-07
-8.59404e-08
-6.02521e-07
6.65051e-08
-5.61582e-07
2.08574e-07
-4.96557e-07
3.32687e-07
-4.11127e-07
4.34775e-07
-3.07797e-07
5.10339e-07
-1.86225e-07
5.54298e-07
-5.09156e-08
5.53745e-07
4.7777e-08
4.77487e-07
1.3954e-07
-5.06409e-07
-3.26931e-07
-5.50323e-07
-2.00005e-07
-5.66297e-07
-6.99659e-08
-5.55323e-07
5.55311e-08
-5.19081e-07
1.72332e-07
-4.60645e-07
2.74251e-07
-3.83214e-07
3.57344e-07
-2.9029e-07
4.17416e-07
-1.85144e-07
4.49152e-07
-7.57682e-08
4.44369e-07
9.06594e-09
3.92653e-07
1.48606e-07
-4.66724e-07
-2.59597e-07
-5.08995e-07
-1.57734e-07
-5.25324e-07
-5.36365e-08
-5.16643e-07
4.685e-08
-4.84285e-07
1.39973e-07
-4.31133e-07
2.21099e-07
-3.60509e-07
2.86719e-07
-2.76279e-07
3.33186e-07
-1.82973e-07
3.55845e-07
-8.88334e-08
3.50229e-07
-9.61328e-09
3.13433e-07
1.38992e-07
-4.35339e-07
-1.95671e-07
-4.75885e-07
-1.17188e-07
-4.92014e-07
-3.75079e-08
-4.84927e-07
3.97634e-08
-4.55781e-07
1.10827e-07
-4.06985e-07
1.72303e-07
-3.41993e-07
2.21727e-07
-2.64736e-07
2.55929e-07
-1.80231e-07
2.71341e-07
-9.58379e-08
2.65836e-07
-2.15255e-08
2.3912e-07
1.17467e-07
-4.09753e-07
-1.34903e-07
-4.48724e-07
-7.82166e-08
-4.65345e-07
-2.08875e-08
-4.59297e-07
3.37156e-08
-4.32613e-07
8.41426e-08
-3.87326e-07
1.27017e-07
-3.26811e-07
1.61212e-07
-2.55048e-07
1.84165e-07
-1.77122e-07
1.93415e-07
-9.95179e-08
1.88232e-07
-2.94488e-08
1.69051e-07
8.80181e-08
-3.90576e-07
-7.71543e-08
-4.28318e-07
-4.04748e-08
-4.4425e-07
-4.9549e-09
-4.3912e-07
2.85855e-08
-4.13844e-07
5.88658e-08
-3.71179e-07
8.43526e-08
-3.13984e-07
1.04017e-07
-2.46417e-07
1.16598e-07
-1.73422e-07
1.2042e-07
-1.00758e-07
1.15568e-07
-3.41575e-08
1.02451e-07
5.38605e-08
-3.84921e-07
-2.52426e-08
-4.16617e-07
-8.77903e-09
-4.28186e-07
6.6142e-09
-4.20342e-07
2.07413e-08
-3.9405e-07
3.25739e-08
-3.51905e-07
4.22074e-08
-2.96867e-07
4.89787e-08
-2.32731e-07
5.24625e-08
-1.64332e-07
5.20208e-08
-9.67096e-08
4.79455e-08
-3.47131e-08
4.04543e-08
1.91474e-08
-3.54367e-07
-3.63146e-07
-3.56532e-07
-3.3579e-07
-3.03217e-07
-2.61009e-07
-2.1203e-07
-1.59568e-07
-1.07547e-07
-5.96017e-08
-1.91474e-08
7.77035e-07
1.71614e-06
1.00085e-06
1.75656e-06
1.10033e-06
9.72927e-07
1.07557e-06
2.16287e-07
9.30526e-07
-4.35073e-07
6.97503e-07
-9.50259e-07
4.14291e-07
-1.31108e-06
1.17088e-07
-1.50369e-06
-1.65257e-07
-1.54211e-06
-4.15687e-07
-1.45257e-06
-6.2148e-07
-1.27063e-06
-1.02716e-06
3.74428e-07
1.34172e-06
7.10488e-07
1.4205e-06
8.62684e-07
8.20731e-07
8.69405e-07
2.09566e-07
7.66158e-07
-3.31825e-07
5.83032e-07
-7.67133e-07
3.51864e-07
-1.07991e-06
1.03474e-07
-1.2553e-06
-1.37115e-07
-1.30152e-06
-3.55131e-07
-1.23456e-06
-5.36185e-07
-1.08957e-06
-8.86175e-07
2.5833e-07
1.08339e-06
5.45465e-07
1.13336e-06
6.91517e-07
6.74678e-07
7.11577e-07
1.89506e-07
6.34698e-07
-2.54947e-07
4.88986e-07
-6.21421e-07
2.98632e-07
-8.89559e-07
8.92557e-08
-1.04592e-06
-1.18177e-07
-1.09409e-06
-3.07032e-07
-1.0457e-06
-4.69249e-07
-9.27354e-07
-7.59478e-07
2.12004e-07
8.71382e-07
4.38547e-07
9.06818e-07
5.62859e-07
5.50366e-07
5.87192e-07
1.65174e-07
5.30393e-07
-1.98147e-07
4.12731e-07
-5.03759e-07
2.54254e-07
-7.31082e-07
7.59048e-08
-8.67572e-07
-1.04008e-07
-9.14173e-07
-2.70467e-07
-8.79244e-07
-4.14768e-07
-7.83053e-07
-6.43455e-07
1.75006e-07
6.96375e-07
3.59342e-07
7.22483e-07
4.64892e-07
4.44815e-07
4.90609e-07
1.39457e-07
4.48067e-07
-1.55605e-07
3.51556e-07
-4.07248e-07
2.17788e-07
-5.97314e-07
6.4043e-08
-7.13827e-07
-9.36366e-08
-7.56494e-07
-2.42286e-07
-7.30594e-07
-3.71908e-07
-6.53431e-07
-5.38147e-07
1.4542e-07
5.50955e-07
2.99069e-07
5.68834e-07
3.90142e-07
3.53743e-07
4.15989e-07
1.1361e-07
3.83351e-07
-1.22968e-07
3.02892e-07
-3.26789e-07
1.88191e-07
-4.82614e-07
5.39502e-08
-5.79586e-07
-8.58948e-08
-6.16649e-07
-2.1955e-07
-5.96939e-07
-3.37905e-07
-5.35076e-07
-4.41329e-07
1.23596e-07
4.27359e-07
2.53868e-07
4.38562e-07
3.33449e-07
2.74161e-07
3.58646e-07
8.84136e-08
3.32871e-07
-9.71928e-08
2.64604e-07
-2.58522e-07
1.64641e-07
-3.82651e-07
4.57221e-08
-4.60667e-07
-7.98839e-08
-4.91043e-07
-2.01287e-07
-4.75536e-07
-3.09867e-07
-4.26496e-07
-3.51806e-07
1.07609e-07
3.1975e-07
2.20281e-07
3.25891e-07
2.9076e-07
2.03682e-07
3.14949e-07
6.42252e-08
2.94094e-07
-7.63382e-08
2.34918e-07
-1.99345e-07
1.46342e-07
-2.94076e-07
3.93523e-08
-3.53677e-07
-7.49413e-08
-3.76749e-07
-1.86485e-07
-3.63992e-07
-2.86952e-07
-3.26029e-07
-2.67357e-07
9.59538e-08
2.23796e-07
1.9556e-07
2.26284e-07
2.5912e-07
1.40122e-07
2.82182e-07
4.11631e-08
2.64895e-07
-5.90519e-08
2.1246e-07
-1.4691e-07
1.32547e-07
-2.14162e-07
3.47996e-08
-2.5593e-07
-7.06217e-08
-2.71328e-07
-1.74174e-07
-2.6044e-07
-2.68809e-07
-2.31394e-07
-1.87168e-07
8.75694e-08
1.36227e-07
1.77645e-07
1.36209e-07
2.35947e-07
8.18198e-08
2.57812e-07
1.92984e-08
2.4281e-07
-4.40506e-08
1.95081e-07
-9.91811e-08
1.21366e-07
-1.40447e-07
3.02485e-08
-1.64812e-07
-6.86801e-08
-1.72399e-07
-1.66465e-07
-1.62655e-07
-2.5651e-07
-1.41349e-07
-1.10833e-07
8.02043e-08
5.60223e-08
1.61773e-07
5.46404e-08
2.14186e-07
2.94072e-08
2.32682e-07
8.02301e-10
2.16496e-07
-2.78645e-08
1.69238e-07
-5.19231e-08
9.73015e-08
-6.85114e-08
8.97974e-09
-7.64903e-08
-8.63027e-08
-7.71167e-08
-1.79265e-07
-6.96927e-08
-2.63727e-07
-5.68867e-08
-4.15434e-08
5.60223e-08
1.10663e-07
1.4007e-07
1.40872e-07
1.13008e-07
6.10846e-08
-7.42675e-09
-8.39171e-08
-1.61034e-07
-2.30727e-07
-2.87613e-07
)
;

boundaryField
{
    rotor
    {
        type            calculated;
        value           nonuniform 0();
    }
    stator
    {
        type            calculated;
        value           nonuniform List<scalar> 
96
(
2.06255e-58
0
-6.16899e-35
6.01853e-36
3.00927e-36
3.00927e-35
-4.17619e-53
-2.40741e-35
7.22224e-35
0
-1.92842e-34
2.40741e-35
-1.16106e-34
2.40741e-35
4.81482e-35
0
0
6.01853e-35
0
3.00927e-36
-9.0278e-36
0
2.69544e-36
2.7007e-35
2.12043e-34
0
-3.0155e-35
3.00927e-36
-3.00927e-36
-1.22864e-35
1.20371e-35
-1.22864e-35
5.9936e-35
0
4.81482e-35
3.58618e-35
2.40741e-35
1.08583e-34
0
1.53473e-34
-2.40741e-35
-4.43867e-35
4.52637e-35
9.0278e-36
6.01853e-36
-4.43867e-35
0
2.06255e-58
0
-6.01853e-36
0
0
6.01853e-36
-6.01853e-36
6.01853e-36
1.20371e-35
0
0
0
0
0
6.01853e-36
0
0
-6.01853e-36
0
-6.01853e-36
-1.20371e-35
-1.20371e-35
0
0
0
0
-6.01853e-36
6.01853e-36
-6.01853e-36
0
0
6.01853e-36
0
0
0
0
1.20371e-35
0
6.01853e-36
0
0
-6.01853e-36
6.01853e-36
-6.01853e-36
-1.20371e-35
0
0
0
0
)
;
    }
    AMI1
    {
        type            cyclicAMI;
        value           nonuniform 0();
    }
    AMI2
    {
        type            cyclicAMI;
        value           nonuniform List<scalar> 
48
(
1.38563e-06
7.75811e-07
7.28853e-08
-4.5513e-07
-9.63531e-07
-1.4026e-06
-1.75646e-06
-2.09577e-06
-2.40208e-06
-2.62515e-06
-2.78169e-06
-2.91141e-06
-3.15204e-06
-2.90895e-06
-1.8693e-06
2.80141e-08
1.44775e-06
2.71048e-06
3.55948e-06
3.86197e-06
3.69135e-06
3.20015e-06
2.59949e-06
1.99436e-06
1.39197e-06
7.75279e-07
6.93097e-08
-4.56992e-07
-9.64483e-07
-1.40319e-06
-1.75705e-06
-2.09641e-06
-2.40264e-06
-2.62553e-06
-2.78185e-06
-2.91143e-06
-3.1513e-06
-2.90791e-06
-1.86795e-06
2.91991e-08
1.44842e-06
2.71065e-06
3.55901e-06
3.86098e-06
3.69015e-06
3.19949e-06
2.59899e-06
1.99055e-06
)
;
    }
    front
    {
        type            empty;
        value           nonuniform 0();
    }
    back
    {
        type            empty;
        value           nonuniform 0();
    }
    procBoundary0to1
    {
        type            processor;
        value           nonuniform List<scalar> 8(6.95742e-07 1.24384e-06 1.37077e-06 1.51457e-06 -6.94766e-07 -1.2427e-06 -1.36973e-06 -1.51372e-06);
    }
}


// ************************************************************************* //
