/*--------------------------------*- C++ -*----------------------------------*\
| =========                 |                                                 |
| \\      /  F ield         | OpenFOAM: The Open Source CFD Toolbox           |
|  \\    /   O peration     | Version:  2.3.1                                 |
|   \\  /    A nd           | Web:      www.OpenFOAM.org                      |
|    \\/     M anipulation  |                                                 |
\*---------------------------------------------------------------------------*/
FoamFile
{
    version     2.0;
    format      ascii;
    class       volScalarField;
    location    "0.14";
    object      epsilon;
}
// * * * * * * * * * * * * * * * * * * * * * * * * * * * * * * * * * * * * * //

dimensions      [0 2 -3 0 0 0 0];

internalField   nonuniform List<scalar> 
15166
(
1046.95
956.323
936.019
982.743
1012.95
1030.54
995.895
912.453
815.701
705.979
597.722
507.672
1048.69
839.005
869.334
923.408
955.836
969.063
932.47
855.193
763.507
662.365
563.061
473.81
1061.74
747.278
805.77
865.812
900.954
911.496
875.117
803.363
717.168
623.491
531.251
444.994
1078.54
678.124
749.202
812.452
849.319
858.055
822.984
756.344
675.642
588.493
501.925
417.807
1096.82
625.908
699.949
764.213
801.685
808.992
775.638
713.68
638.2
556.825
475.176
394.451
1116.57
585.635
656.808
720.68
757.961
764.113
732.585
674.888
604.282
528.01
450.67
372.89
1137.85
554.033
618.74
681.242
717.786
723.005
693.309
639.518
573.388
501.651
428.018
352.272
1160.29
529.016
585.021
645.414
680.831
685.293
657.374
607.151
545.122
477.454
407.206
334.246
1183.68
509.136
555.088
612.807
646.812
650.641
624.402
577.43
519.161
455.174
388.047
317.769
1207.71
493.324
528.438
583.061
615.461
618.743
594.075
550.074
495.232
434.6
370.433
303.185
1232.14
480.78
504.641
555.853
586.527
589.325
566.105
524.816
473.116
415.564
354.193
289.799
1256.88
470.884
483.328
530.904
559.778
562.137
540.248
501.432
452.612
397.917
339.318
278.365
1281.76
463.162
464.191
507.965
535.001
536.954
516.285
479.728
433.559
381.532
325.646
268.149
1306.65
457.234
446.966
486.828
512.014
513.585
494.026
459.542
415.808
366.266
312.845
257.339
1331.41
452.799
431.428
467.311
490.651
491.852
473.308
440.717
399.244
352.041
301.017
248.328
1356.03
449.612
417.382
449.253
470.762
471.608
453.99
423.141
383.749
338.736
290.011
239.875
1380.33
447.472
404.659
432.514
452.219
452.714
435.939
406.685
369.231
326.284
279.724
231.814
1404.38
446.214
393.119
416.974
434.9
435.047
419.039
391.265
355.612
314.603
270.086
224.249
1428.04
445.695
382.632
402.521
418.703
418.504
403.197
376.778
342.808
303.626
261.055
217.295
1451.2
445.804
373.091
389.062
403.532
402.988
388.315
363.154
330.75
293.3
252.57
210.741
1473.82
446.437
364.398
376.51
389.303
388.411
374.319
350.322
319.385
283.558
244.555
204.349
1495.96
447.521
356.468
364.789
375.94
374.701
361.137
338.217
308.65
274.354
236.959
198.238
1517.63
448.968
349.225
353.832
363.377
361.787
348.703
326.783
298.501
265.643
229.726
192.166
1538.56
450.74
342.605
343.578
351.552
349.607
336.959
315.967
288.893
257.389
222.846
186.478
1558.94
452.788
336.551
333.972
340.41
338.107
325.856
305.73
279.784
249.548
216.287
181
1578.6
455.04
331.007
324.964
329.899
327.239
315.348
296.024
271.14
242.098
210.042
175.889
1597.6
457.477
325.928
316.51
319.975
316.953
305.387
286.814
262.926
235.005
204.094
171.008
1615.99
460.059
321.27
308.568
310.597
307.212
295.938
278.066
255.113
228.251
198.424
166.458
1633.63
462.776
317.002
301.101
301.727
297.975
286.968
269.744
247.673
221.812
193.034
162.213
1650.65
465.62
313.085
294.076
293.329
289.21
278.441
261.827
240.583
215.671
187.88
158.01
1666.98
468.514
309.488
287.461
285.373
280.884
270.329
254.283
233.82
209.804
182.968
154.104
1682.45
471.489
306.185
281.228
277.829
272.97
262.605
247.093
227.363
204.199
178.262
150.265
1697.07
474.52
303.158
275.351
270.672
265.441
255.248
240.23
221.194
198.837
173.768
146.716
1711.27
477.567
300.377
269.807
263.877
258.274
248.23
233.676
215.295
193.708
169.464
143.229
1724.49
480.633
297.83
264.573
257.422
251.447
241.533
227.414
209.654
188.796
165.346
139.98
1736.93
483.725
295.494
259.631
251.285
244.937
235.136
221.425
204.252
184.088
161.394
136.744
1748.85
486.819
293.358
254.959
245.448
238.726
229.025
215.694
199.074
179.571
157.597
133.676
1759.86
489.912
291.403
250.543
239.893
232.797
223.179
210.205
194.11
175.238
153.961
130.85
1770.22
493.001
289.618
246.366
234.602
227.136
217.585
204.944
189.348
171.08
150.47
128.067
1779.91
496.085
287.989
242.413
229.562
221.724
212.23
199.903
184.779
167.087
147.132
125.519
1788.6
499.194
286.505
238.673
224.76
216.551
207.101
195.065
180.389
163.246
143.903
122.803
1796.63
502.418
285.166
235.134
220.182
211.602
202.185
190.422
176.171
159.552
140.772
120.054
1803.74
505.657
283.954
231.782
215.816
206.867
197.471
185.963
172.115
155.994
137.761
117.632
1810.24
508.987
282.882
228.612
211.651
202.333
192.948
181.679
168.215
152.569
134.852
115.194
1816.02
512.247
281.981
225.616
207.675
197.99
188.607
177.561
164.46
149.267
132.053
112.981
1820.97
515.338
281.226
222.791
203.88
193.826
184.438
173.601
160.844
146.084
129.345
110.672
1825.16
518.499
280.598
220.143
200.256
189.836
180.434
169.791
157.362
143.014
126.74
108.647
1828.79
521.485
280.083
217.647
196.799
186.012
176.584
166.123
154.005
140.053
124.221
106.555
1831.65
524.394
279.641
215.302
193.502
182.347
172.885
162.591
150.768
137.195
121.796
104.657
1833.79
527.236
279.318
213.096
190.359
178.833
169.326
159.187
147.645
134.433
119.445
102.682
1835.19
529.923
279.076
211.02
187.361
175.46
165.901
155.905
144.628
131.763
117.178
100.922
1835.98
532.669
278.913
209.076
184.504
172.225
162.606
152.741
141.715
129.181
114.988
99.2087
1836.11
535.229
278.821
207.242
181.78
169.122
159.434
149.689
138.901
126.685
112.859
97.3693
1835.49
537.76
278.798
205.529
179.185
166.143
156.381
146.744
136.182
124.27
110.8
95.719
1834.36
540.221
278.837
203.922
176.71
163.286
153.441
143.903
133.553
121.932
108.809
94.1394
1832.66
542.614
278.936
202.417
174.352
160.545
150.61
141.16
131.012
119.67
106.889
92.6922
1830.19
544.819
279.088
201.01
172.107
157.914
147.883
138.513
128.556
117.48
105.029
91.1999
1827.18
547.094
279.297
199.705
169.968
155.391
145.258
135.957
126.18
115.362
103.233
89.8366
1823.66
549.173
279.558
198.489
167.934
152.972
142.728
133.489
123.882
113.311
101.478
88.2448
1819.34
551.201
279.842
197.349
165.995
150.65
140.293
131.106
121.66
111.323
99.7757
86.8563
1814.57
553.09
280.201
196.302
164.154
148.424
137.947
128.804
119.508
109.397
98.1305
85.5941
1809.29
555.009
280.605
195.335
162.406
146.291
135.687
126.582
117.427
107.531
96.5428
84.4129
1803.41
556.753
281.048
194.444
160.743
144.245
133.512
124.435
115.413
105.724
95.0032
83.1813
1796.89
558.446
281.508
193.636
159.169
142.286
131.417
122.361
113.464
103.973
93.5141
82.0323
1789.86
559.992
282.037
192.892
157.676
140.41
129.4
120.359
111.578
102.277
92.0666
80.8303
1782.19
561.51
282.578
192.218
156.266
138.614
127.46
118.425
109.753
100.634
90.6624
79.7178
1774.39
562.998
283.162
191.621
154.931
136.897
125.592
116.559
107.988
99.0414
89.2957
78.5609
1765.36
564.321
283.773
191.083
153.672
135.254
123.795
114.757
106.279
97.4973
87.971
77.5187
1756.34
565.592
284.43
190.612
152.489
133.686
122.067
113.018
104.627
96.0011
86.685
76.4744
1746.98
566.756
285.122
190.206
151.373
132.187
120.407
111.338
103.027
94.5508
85.4405
75.5116
1736.71
567.924
285.834
189.871
150.331
130.758
118.811
109.719
101.48
93.1463
84.2309
74.5091
1726.05
568.789
286.59
189.589
149.355
129.398
117.277
108.156
99.9829
91.7845
83.0578
73.5966
1714.86
569.821
287.341
189.352
148.443
128.102
115.807
106.65
98.5349
90.4659
81.9241
72.7074
1703.22
570.612
288.203
189.207
147.608
126.875
114.399
105.199
97.1368
89.1889
80.8229
71.8087
1691.07
571.317
289.019
189.101
146.825
125.708
113.047
103.8
95.7838
87.9507
79.7531
70.9588
1678.92
572.104
289.894
189.06
146.111
124.601
111.753
102.453
94.4768
86.7523
78.7132
70.0633
1665.85
572.658
290.78
189.071
145.462
123.558
110.516
101.159
93.216
85.5916
77.7024
69.2372
1651.99
573.006
291.682
189.143
144.871
122.576
109.335
99.9122
91.9979
84.469
76.7212
68.398
1638.15
573.479
292.64
189.269
144.344
121.65
108.208
98.7156
90.8239
83.3823
75.7698
67.6249
1624.1
573.787
293.613
189.458
143.874
120.783
107.135
97.5665
89.6916
82.3322
74.8441
66.8088
1609.12
573.988
294.638
189.7
143.468
119.975
106.114
96.4651
88.5993
81.3157
73.9475
66.0703
1593.89
574.119
295.648
190.006
143.126
119.227
105.144
95.4098
87.5476
80.332
73.0795
65.388
1578.24
574.127
296.676
190.358
142.838
118.53
104.228
94.401
86.5371
79.3831
72.2414
64.6989
1562.13
574.054
297.755
190.765
142.613
117.893
103.363
93.4389
85.5664
78.469
71.428
63.9765
1545.61
573.913
298.856
191.229
142.452
117.311
102.548
92.5212
84.6341
77.5862
70.6413
63.3253
1529.08
573.696
299.989
191.773
142.343
116.783
101.784
91.6456
83.7406
76.7375
69.8797
62.6486
1511.74
573.331
301.139
192.363
142.298
116.317
101.07
90.8166
82.8842
75.9185
69.1432
62.0582
1494.04
572.865
302.308
192.999
142.324
115.905
100.409
90.0313
82.0655
75.133
68.4337
61.4286
1475.95
572.295
303.5
193.702
142.402
115.553
99.7981
89.2907
81.2858
74.379
67.7481
60.8215
1457.47
571.641
304.758
194.481
142.551
115.259
99.2368
88.5939
80.5448
73.6568
67.082
60.167
1438.6
570.866
305.983
195.298
142.757
115.016
98.726
87.9392
79.8387
72.9633
66.4455
59.7042
1419.36
569.97
307.231
196.195
143.035
114.84
98.266
87.3295
79.1728
72.3059
65.8431
59.1909
1400.16
569.09
308.543
197.154
143.378
114.721
97.8586
86.7661
78.5446
71.678
65.2664
58.7333
1379.84
567.918
309.86
198.172
143.789
114.669
97.5054
86.2476
77.9547
71.0831
64.7169
58.2648
1359.92
566.777
311.191
199.252
144.276
114.671
97.2068
85.776
77.4026
70.5203
64.1952
57.8373
1339.3
565.438
312.525
200.392
144.821
114.743
96.9621
85.3496
76.891
69.9925
63.6999
57.3786
1318.33
564.078
313.921
201.619
145.448
114.879
96.7742
84.9718
76.4193
69.4961
63.23
56.987
1297
562.472
315.318
202.909
146.15
115.087
96.6455
84.6403
75.9877
69.0332
62.7872
56.5791
1275.74
560.942
316.729
204.265
146.936
115.358
96.5745
84.3596
75.5966
68.6049
62.3736
56.2258
1253.8
559.109
318.182
205.711
147.801
115.711
96.5649
84.1326
75.2503
68.213
61.9874
55.8386
1231.53
557.216
319.634
207.222
148.745
116.13
96.6199
83.9563
74.9456
67.8557
61.6274
55.5227
1208.93
555.177
321.09
208.824
149.784
116.632
96.739
83.8321
74.6851
67.5338
61.301
55.2497
1186.03
552.974
322.591
210.497
150.908
117.213
96.9291
83.7677
74.4734
67.2536
61.0081
54.9619
1162.86
550.685
324.085
212.239
152.132
117.883
97.1888
83.7609
74.3105
67.013
60.7462
54.6958
1139.73
548.32
325.623
214.08
153.448
118.645
97.5216
83.8162
74.1965
66.8116
60.5171
54.5018
1116
545.746
327.151
216.02
154.874
119.496
97.9345
83.9339
74.1342
66.6556
60.3269
54.308
1092.31
543.09
328.718
218.036
156.398
120.441
98.4315
84.1208
74.127
66.5412
60.1699
54.1787
1068.06
540.192
330.263
220.13
158.039
121.493
99.0136
84.3803
74.1793
66.4766
60.0562
54.0759
1043.18
537.1
331.838
222.356
159.793
122.658
99.6906
84.7133
74.2921
66.4627
59.9821
53.9817
1018.64
534.023
333.45
224.645
161.675
123.934
100.467
85.125
74.4699
66.4996
59.9496
53.9349
993.61
530.72
335.046
227.073
163.695
125.338
101.345
85.6273
74.7186
66.594
59.9625
53.8953
968.298
527.211
336.661
229.592
165.842
126.867
102.336
86.2187
75.0403
66.7496
60.0271
53.9346
943.072
523.63
338.261
232.226
168.14
128.547
103.445
86.9097
75.4438
66.9722
60.1525
54.0157
917.368
519.811
339.876
234.959
170.593
130.369
104.689
87.7037
75.9317
67.2611
60.323
54.0647
891.408
515.781
341.542
237.85
173.215
132.353
106.065
88.6138
76.5095
67.6202
60.5477
54.2125
865.267
511.635
343.137
240.838
175.993
134.498
107.59
89.6427
77.1837
68.0591
60.8418
54.4026
838.907
507.279
344.785
243.966
178.959
136.839
109.272
90.8054
77.9665
68.5858
61.2016
54.6706
812.637
502.812
346.413
247.212
182.121
139.37
111.138
92.1165
78.872
69.209
61.6441
54.9989
786.234
498.09
348.074
250.635
185.499
142.117
113.189
93.5842
79.9054
69.941
62.1787
55.4332
759.196
493.086
349.681
254.185
189.098
145.099
115.458
95.234
81.0808
70.7884
62.8115
55.9268
732.158
487.963
351.298
257.919
192.927
148.333
117.948
97.0745
82.415
71.7566
63.5286
56.4246
705.256
482.652
352.922
261.802
197.029
151.844
120.69
99.1232
83.9218
72.8643
64.3597
57.0817
678.295
477.099
354.54
265.87
201.411
155.659
123.714
101.417
85.6268
74.1361
65.3336
57.8486
650.794
471.289
356.143
270.156
206.089
159.805
127.056
103.974
87.5494
75.5826
66.436
58.7336
623.515
465.304
357.762
274.636
211.116
164.326
130.738
106.834
89.7197
77.2261
67.7045
59.7312
596.252
459.076
359.389
279.36
216.506
169.259
134.813
110.03
92.169
79.0926
69.1447
60.8904
568.542
452.611
361.039
284.375
222.339
174.667
139.344
113.623
94.9433
81.2229
70.8034
62.2273
541.044
445.948
362.762
289.7
228.657
180.617
144.381
117.664
98.0907
83.6583
72.7033
63.7325
513.41
439.1
364.601
295.443
235.554
187.196
150.023
122.223
101.665
86.4337
74.8731
65.4429
485.812
432.101
366.668
301.703
243.145
194.53
156.354
127.379
105.734
89.5974
77.3433
67.4148
458.027
425.086
369.13
308.695
251.626
202.75
163.517
133.242
110.377
93.2197
80.1854
69.6765
430.193
418.363
372.419
316.77
261.272
212.087
171.667
139.939
115.683
97.3638
83.4274
72.2677
402.032
412.765
377.302
326.509
272.443
222.772
180.957
147.579
121.762
102.103
87.1221
75.1465
373.514
411.45
386.042
339.293
285.876
235.267
191.729
156.434
128.791
107.576
91.349
78.3978
340.976
414.824
396.515
353.75
299.88
248.148
202.871
165.868
136.303
113.522
95.9656
82.0775
188.783
0.001216
4.90465
3.65081
3.62357
11.5884
11.1142
83.9142
36.9957
20.3556
5.74944
0.00242112
0.0186328
490.854
10.5635
0.000847791
407.674
0.164027
0.15601
0.000827516
2.41138
5.68212
0.204824
0.0154479
194.308
4.87387
3.95476
13.2643
12.9309
40.3938
11.1736
369.289
0.00105118
5.60861
0.0174974
2.14759
89.2879
9.7557
31.1043
0.00260812
0.208959
0.000785784
0.0980664
18.3181
26.2968
5.46533
0.0465536
0.0118456
26.5633
2.38827
2.11033
80.4204
20.7891
0.000749074
177.771
0.00112894
0.00350325
0.000785204
9.78188
9.76032
3.43508
383.841
0.000746601
0.00727065
0.590035
0.0011577
60.5251
20.31
330.248
14.2838
151.936
0.0397789
29.6864
34.8179
0.0158632
0.000767249
33.5856
0.000719318
0.0645512
11.9247
0.160752
0.000720791
78.4957
23.0203
0.00679645
56.6125
59.9514
0.000739838
3.83353
28.1656
20.8334
20.7572
0.000741497
0.000955119
58.2265
0.000765501
12.3966
0.00632829
0.000729085
61.5884
124.331
0.965578
0.000783312
0.00109071
0.000719684
73.27
63.2091
106.299
15.2569
0.0334595
0.516357
0.000720784
8.53077
0.000901282
0.000734586
8.4321
0.00922205
1.36514
56.0971
0.477791
101.43
0.0165179
146.846
0.828763
0.245597
41.8722
0.00102061
1339.86
0.0171141
0.000742407
126.011
0.000758844
94.1825
0.00109556
4.11417
0.00137092
30.8871
9.96811
9.03228
0.00159924
0.00739563
2.9187
15.8393
0.109629
33.1919
163.84
18.9169
0.001165
50.6761
23.3383
0.40353
8.1032
0.000724131
0.207067
0.52159
0.000725373
13.0364
0.000762737
72.0115
0.00214295
0.0146582
0.000857489
0.247181
0.0053228
2.51896
0.161889
315.761
33.238
19.9757
0.000719662
170.652
38.732
179.135
0.00799905
0.000721202
14.353
0.000719507
22.925
0.649878
28.3338
331.697
2.51777
0.0656323
28.4283
0.000799636
14.2026
0.000742127
0.000724386
32.0975
0.00073605
6.90555
0.000728112
204.052
0.00126883
16.8666
14.8332
11.6087
4.80876
0.000720767
343.516
52.1025
21.7571
59.0676
9.67056
21.5881
0.115048
0.138354
1.08678
31.7657
1.13006
152.057
43.196
50.3242
37.8536
0.000724668
16.7762
0.00526719
8.57142
357.389
23.1181
22.775
52.2962
27.3415
0.000730548
0.000734047
43.6259
56.6925
0.000755187
1307.26
0.0168971
165.34
0.228693
0.000722667
71.8565
7.83218
13.3022
12.4312
57.5434
26.8637
21.3907
0.378271
0.318871
26.3035
76.3625
177.291
144.03
89.1353
0.00082665
36.0213
17.7465
13.076
34.6469
4.09216
3678.76
24.2195
1.34142
2.91925
19.9803
10.9994
27.3044
1.12562
13.9372
0.00640151
0.133956
575.74
14.5277
48.6061
50.4303
5.98621
162.801
8.86036
0.0351578
146.75
91.0461
89.0438
156.584
33.2467
107.993
32.2383
29.3493
183.641
32.7429
29.1721
22.4989
20.3289
11.7385
9.58566
84.9745
72.1325
2.01875
28.9395
142.447
101.565
100.991
18.1058
196.066
0.628552
88.7557
0.0557606
59.128
6.69529
0.658333
330.912
175.555
0.480486
43.6993
36.3207
0.000737016
0.55994
0.400577
0.535072
43.686
0.000727796
82.4011
22.0419
0.0755895
94.833
35.8517
0.000723945
420.457
0.0224889
11.0094
8.20023
8196.65
53.8448
35.5088
14.5686
0.000722401
0.000743881
42.84
10.3791
0.00073303
8.32217
0.000722886
0.000742657
0.000754123
0.00071946
0.186211
0.000726835
0.00169953
104.383
51.9634
0.00075545
20.3835
0.00317882
78.7685
144.44
73.2678
952.663
11.7405
0.000719614
0.000757994
0.0775341
0.639686
95.8679
0.000721167
0.139487
27.4155
42.5085
4.01876
29.5585
27.9859
59.4271
869.497
2.4585
3.66647
0.000893575
0.000735418
1.08146
3.54635
0.181448
29.9895
54.2994
4968.14
145.678
2.95285
23.9801
54.3817
0.000736522
6.73632
39.2564
0.00144271
0.000749602
54.1279
3461.78
85.3512
0.000728555
0.0389375
4.00154
0.0124794
0.000750275
44.6508
5.12633
19.8818
17.97
0.000925192
793.604
0.000725078
1.22035
14.8883
0.00186304
0.00415006
74.9573
0.00286405
36.4545
306.115
70.8697
20.7573
43.0224
103.905
0.000722097
0.000732525
0.000729478
62.7182
0.0688901
323.326
5006.98
4.78101
62.7504
0.000743249
0.0476423
15.7137
0.000720159
0.000729668
100.82
0.000730013
1.25355
45.4001
30.4064
0.000720063
0.00230149
0.19779
0.180619
11.5885
0.301254
0.000719355
702.621
45.4929
0.802176
0.00463747
36.7851
91.5332
0.00208529
16.1462
0.00198397
52.3131
0.000840363
13.2241
0.968116
0.000719821
61.1125
11.7263
168.607
0.00322992
7.53282
2.86429
0.0014189
92.5601
55.3043
1.88284
218.679
0.0123062
0.0360001
0.00409415
98.4435
25.8564
0.177446
2.48749
4.08783
167.65
0.617505
88.1961
1124.47
0.000721933
172.732
46.7244
10.797
0.000720087
22.1594
76.802
0.153524
87.6644
25.4109
1.7633
0.25096
31.8388
118.799
0.000863688
0.00863679
46.2729
0.0259633
0.00189489
244.691
941.318
0.026052
24.8608
43.0372
0.393833
48.231
29.6994
43.6359
20.4563
27.3078
0.000768073
0.160483
49.2148
19.6244
97.7212
23.9457
78.4358
180.304
860.649
60.3412
1.88874
0.000728056
198.397
93.2
38.5138
7.9149
0.990545
0.110547
8.53805
0.000776759
18.7222
0.000732128
39.5688
8.15972
95.0906
31.1618
62.085
113.286
99.8452
24.1683
183.088
0.000761336
0.285358
48.0883
1313.09
7.946
18.4242
0.000863493
0.0156596
4.6108
95.0631
14.0334
0.000719925
0.0511231
0.000719805
0.0436708
21.4412
0.0232734
53.5617
2.84203
76.4217
0.329561
0.383532
306.301
651.571
0.000740011
0.00074058
5.58279
164.014
19.8933
9.98046
2.5125
25.1988
21.932
0.000719845
0.61891
13.3376
0.00128765
65.0646
14.0308
28.786
19.7618
0.00449724
0.000720559
0.0119222
0.000723908
21.5915
15.5099
128.404
17.9082
0.000738384
116.549
0.098405
123.251
1.76121
163.3
0.0217779
0.379532
0.000725429
41.3349
566.524
21.5886
3.39818
0.000719476
86.3094
37.1431
53.1887
0.000734279
0.366193
46.9629
21.743
0.00169847
1083.18
0.000901677
46.6909
22.9259
0.000869452
2.09725
0.108737
0.801589
0.000719897
0.000741743
61.0313
39.503
21.2406
57.0737
0.00128155
1.99158
0.165442
37.3322
8.59418
0.000989797
1.33449
408.312
0.000719628
0.00254275
29.2132
139.917
74.5344
0.000728531
689.493
26.3434
97.3593
0.0148877
2.63657
149.262
0.000735757
104.638
2.51203
19.1327
5.89595
35.5782
6.22219
78.2456
81.5646
16.654
4646.6
0.000748787
0.000724102
119.389
39.5538
0.00123855
0.000725254
7.02477
0.000745333
43.6034
54.9316
0.84713
0.000732226
32.1303
0.205933
24.047
52.5921
28.0389
0.2145
2.29389
99.6538
0.000739009
2.03051
50.5689
23.8857
14.1672
0.00209286
8.03288
1.99733
2756.85
0.00072088
2.49371
29.1692
19.1797
0.00078925
0.130262
32.0463
60.2751
61.4906
0.0472788
170.271
34.5195
0.269511
32.9689
0.000721661
0.00218624
6.6947
0.000719885
28.4008
0.000727437
117.687
0.00402747
47.9361
0.000775712
0.91579
56.1558
102.17
5.64663
25.3511
0.314252
198.352
0.00673377
0.121025
14.2871
0.00072029
0.000745034
29.2178
0.311592
96.0727
27.5725
0.000778044
92.2025
106.582
84.1437
5.36642
151.851
98.4324
0.000740799
2374.16
3962.89
52.3332
0.00075972
0.003629
230.117
58.899
0.000724683
73.4655
0.000720528
0.0851541
251.54
0.000839478
17.6638
0.000723566
0.0505685
125.835
0.000762142
0.000997443
0.000735118
0.000935629
0.0115452
883.667
43.058
0.274228
12.091
0.000727582
39.5211
0.00072978
8.58349
1.326
0.0112861
4.59436
0.00508782
59.7078
0.000745979
9922.03
3.10494
24.2128
190.452
4.91721
0.000719183
28.1471
164.641
2.07012
39.1104
49.0407
155.347
24.3809
0.029329
23.2218
0.137982
0.00100117
0.249393
3864.68
132.751
0.999354
0.0170464
23.1507
0.000905543
7.07373
43.3606
159.291
51.5981
50.9208
0.0243928
0.0017131
35.9605
26.9857
0.0397248
46.8536
0.000730739
117.087
181.493
0.000772547
146.942
40.716
1.17857
0.122755
117.804
0.0130745
0.277078
10.3713
2.19951
2.08208
0.000752841
21.5058
0.0886088
148.711
29.3382
83.0503
4.91235
0.00208728
30.3616
0.000730871
0.000725986
10.9665
0.119974
1.58755
175.814
0.000720189
58.7666
0.126109
0.0454333
0.000829883
136.788
6.06469
0.317343
33.2681
0.0458272
314.819
3.99862
0.000722353
246.101
227.621
0.00146016
0.00274493
80.7351
20.8423
0.377981
240.936
0.021881
1.46152
0.206512
0.293763
26.1838
96.7966
0.000736612
80.9602
24.6515
0.00571497
0.928389
1317.62
18.03
0.000731357
0.000725344
28.4047
25.4876
55.3615
0.000720718
28.0097
2.11723
34.8823
0.000929763
164.612
38.9527
0.00142879
18.5943
0.000740403
72.8669
34.2521
31.5435
42.8268
0.000725666
0.000722528
9.94441
89.9288
4.19927
31.3197
0.000721103
0.0356664
0.000750729
0.00177619
31.1454
0.0700368
0.309921
0.86716
24.317
148.225
25.8858
51.8596
0.000728984
32.554
31.2435
23.0661
0.000738938
34.7553
0.000742087
0.000727885
0.126718
22.8775
0.0131782
330.736
37.9149
272.095
0.000762032
0.00132142
0.0262192
115.459
3.3622
152.518
0.000727874
0.00072783
0.00182146
0.00267054
117.982
37.0888
87.0982
0.237188
0.0283345
2.83432
4.01895
60.2064
15.9301
51.6394
19.9012
0.00071982
167.236
0.00148241
1.25544
52.3951
28.1441
1.09724
0.550877
0.000923447
87.2512
5.58062
15.2199
31.6554
0.000726017
70.0764
35.8478
166.584
0.00321016
49.5013
51.5277
47.5464
182.224
23.1232
56.1137
0.211503
785.957
3.72446
0.139814
121.787
0.000729956
78.0042
178.363
0.00072489
29.2597
0.00125725
106.46
103.84
1.29686
21.1981
109.96
79.8993
14.1005
0.885062
52.077
9.85638
0.00461998
0.000728155
19.3754
0.0663284
15.287
60.6062
3.28519
45.2907
109.367
0.000723078
17.9874
472.625
248.694
10.7692
107.221
14.133
173.123
99.3205
1.20948
0.0130225
0.192603
73.084
68.489
0.168051
45.2257
48.9653
42.9322
11.7999
1.48602
8.11404
26.991
0.000738456
200.905
92.3639
1.29647
0.000738484
21.0288
12.0193
19.0272
0.000747578
149.054
0.000728847
12.5366
0.137807
0.000735366
31.4531
82.8026
0.00071926
52.8839
30.6264
20.005
13.9725
42.6055
16.1812
31.3618
54.4262
1.58532
0.000725838
0.00121615
37.2434
5.83316
0.0652064
0.000769181
85.287
0.00166506
0.947622
0.189382
8.28357
9.01226
0.0522519
0.513861
431.293
145.474
27.183
1251.69
47.8582
0.000720405
54.075
13.9097
153.371
0.000721142
5.50259
0.000737176
0.000855282
19.733
2.90459
0.0257888
0.000805732
45.6871
2762.64
0.00222135
0.000729281
1.69651
7.90608
0.0119551
0.0690282
2897.01
0.478361
0.000805336
0.000731039
56.069
23.3107
0.242804
0.0546765
67.9902
201.624
31.7778
105.57
28.7995
0.000731035
13.0196
0.000725917
133.064
17.4545
2624.89
6.28139
0.112875
0.000919106
81.8795
0.000739783
0.000722447
0.00160766
14.5681
20.856
50.8051
0.000723668
13.0919
0.000728556
504.117
50.8638
0.000744567
131.668
5.78397
0.000729127
0.00077345
0.0186358
117.868
4.17377
0.0141766
0.00072963
0.000726096
139.199
94.6349
21.8579
27.7275
0.418685
36.3408
0.00072402
0.00369023
5.14502
212.045
38.7205
0.00286192
0.000731427
36.5877
0.000756075
89.6135
144.896
5.38749
0.0298869
92.8701
13.0263
3.03387
0.000728555
5.55311
76.7743
89.2273
0.00194452
0.018531
25.8487
2978.93
0.0415465
3.3671
0.00071935
0.000726996
0.000739279
0.0087255
34.9586
57.0937
0.043799
99.0866
17.6287
424.864
8.43264
0.00910067
0.00244269
0.00587507
2.45365
49.8643
22.4683
0.000753056
77.7315
0.000722983
0.00551339
53.1801
41.1417
0.0205134
3.93088
7.37383
0.00102033
0.686871
2.09437
0.000724809
0.0009352
124.649
0.000879096
0.000753588
116.882
27.7045
3135.36
9.18063
1268.22
0.000874885
0.000732435
3260.42
19.1761
0.861901
2.90512
0.0450352
20.7949
0.757284
964.447
39.0935
69.2316
143.187
106.271
1.08819
30.311
102.799
0.0058957
81.9217
0.00100036
38.8542
5.92651
0.718657
5.92376
7.12662
2.6297
1.7668
41.8482
56.4407
49.1566
30.8832
53.0754
29.8032
4.62147
0.00104887
0.000725953
0.18453
207.903
0.000726789
64.923
0.000729291
0.00324839
177.306
116.086
37.0454
75.8978
952.907
63.2782
15.0366
44.3051
0.000728261
17.4781
61.9945
0.000760085
178.527
0.00228008
729.356
254.07
299.856
15.7381
87.7051
3.26641
0.485318
17.8598
77.8731
22.0847
9.9097
5.48429
80.9979
0.107635
126.487
330.378
0.00318882
27.829
0.000739791
0.00096363
18.5328
109.643
162.67
16.1769
0.459667
0.164955
0.268922
0.000900959
23.8412
0.000903459
152.914
0.0008315
0.103363
262.171
5.62807
2.12228
180.077
144.154
0.00173945
0.000741277
0.159876
15.1264
0.133584
115.007
0.0293531
27.9708
3.79882
29.4672
57.2571
0.000857893
0.000723145
104.86
0.563607
5.65838
46.5922
23.3832
30.9946
0.00328101
135.857
59.4259
92.0094
0.000814763
0.925201
26.3274
82.8526
0.734965
14.6982
0.000768385
9.03329
0.000726247
213.187
0.00384757
36.6445
0.139267
7.71546
0.000761942
1798.8
0.00073908
118.91
0.0115897
0.00073025
0.00537098
15.8007
0.000729854
0.000733292
7.76232
0.0189339
21.9479
0.0499301
0.00079025
24.7269
6.51213
43.1122
0.000775421
112.354
4.85369
361.581
30.9574
32.217
63.0274
93.8105
3.38378
292.342
247.622
100.877
0.000753316
2.35445
26.7561
20.1087
0.00126196
0.0149554
22.9647
494.279
0.000735644
1.16752
88.4575
0.000722068
48.62
56.4181
173.283
77.7071
43.6752
13.395
0.257217
168.417
7.02806
59.0985
43.4343
54.1154
0.446943
0.000728205
37.0049
0.00170705
0.0007505
0.000723669
192.169
0.000728388
0.000931875
14.5002
8796.84
2.17959
2.25645
44.2698
11.8429
0.00073361
44.2275
232.229
0.0133634
4.74498
44.543
51.8409
0.231503
0.0168161
0.000722455
0.000727619
0.0144256
0.0319623
28.2196
23.7784
71.8157
15.7794
14.9837
0.000975607
186.062
30.4357
0.00074783
24.1154
717.298
0.000749711
5.19696
123.636
35.8901
96.7187
0.52719
123.846
0.000846756
0.678346
0.000772787
0.00187262
0.000746798
51.4561
14.0892
0.0743154
0.000739252
0.000719728
196.284
29.9165
2.00128
22.2882
4.63765
38.1137
19.2865
22.607
29.5293
0.000732559
0.359346
0.834357
0.262674
20.0537
64.6277
40.2034
89.7172
30.8458
74.1848
166.566
77.4757
50.964
24.8207
0.112963
47.3917
31.9763
0.0149436
80.245
45.1925
8.32182
0.000734464
0.000742632
0.000859766
0.00115868
54.4308
0.000720304
112.068
52.0594
234.476
22.5033
0.000729008
9.54782
17.6886
59.0714
16.0181
30.788
10.429
0.000761002
0.000742227
0.00292374
0.133009
0.000723975
89.1481
14.7788
1.42107
38.8956
11.6313
42.404
120.538
0.000728985
20.203
25.2768
0.000926248
0.0738409
57.0444
163.363
16.0764
5.03678
0.000751112
37.2775
43.51
0.00093332
0.0096274
0.000725305
41.7814
0.00111793
0.441588
94.7861
0.748921
0.0774079
17.1729
2845.06
0.000755737
24.1644
0.000724005
10.6027
24.626
24.8233
12.9743
63.5578
25.9048
59.3677
166.755
36.9397
0.000732287
0.000722426
0.038775
0.159536
46.2145
4.85479
0.000743602
138.113
2.06631
0.00274921
43.0658
0.0430672
0.0025137
0.0245717
62.6733
0.00183413
0.000734417
23.89
87.0218
19.9537
1.12151
55.7061
8.58807
0.00074624
17.5785
0.113782
0.0536743
0.000798836
37.3916
15.8919
5.75339
116.926
76.3553
17.6141
2.22223
0.000726966
28.4576
0.000756536
189.335
0.00341346
35.1872
0.123317
45.0779
0.00623759
0.00321354
3.94287
2.74737
391.705
0.000877221
1.31237
49.8875
96.9657
6.47756
118.716
1.34287
0.000810122
0.000744788
55.3874
19.5073
306.843
1.64477
0.136334
57.9054
23.2278
48.6599
0.0544101
0.000728213
0.000734934
1.25792
752.105
14.1531
87.212
0.000862268
0.0039962
0.980756
53.4514
25.4508
37.4729
61.2798
51.2916
0.000741867
0.000747844
162.102
131.693
51.9481
393.594
51.7674
0.0137236
111.795
0.000746584
231.013
0.0133689
0.0156745
0.000727992
0.0262938
0.136336
45.0871
40.5291
0.000754514
120.224
0.00073301
88.3937
123.122
0.000722624
0.389123
0.000754384
18.6257
0.247677
5.64476
0.000722454
14.3041
93.1844
13.7657
35.1485
1.09783
47.5836
1.39649
50.3095
35.8007
70.1939
24.8564
0.000935958
0.000743395
29.5525
0.377925
48.9671
0.000731964
102.193
0.000725997
0.00128619
0.159192
0.000729469
264.088
79.5416
0.000762183
16.8819
1.86706
0.132354
26.9511
0.00177704
0.000725835
47.1991
6.89558
0.0188398
38.89
2129.13
88.9115
1.51302
161.01
0.172181
0.000735796
0.000883687
0.0220379
1.58761
48.4134
119.286
302.971
43.538
57.8596
7.98441
1.62414
28.935
124.503
56.3203
0.0291287
0.0689724
11.5308
66.3922
0.000801348
0.739681
13.3258
182.296
0.00072887
53.6567
0.000719978
0.00541896
134.307
0.00083209
67.6885
1079.35
0.000738057
161.422
0.000920626
9.00301
0.00511465
0.001048
39.4041
18.3188
54.5734
6.37865
65.6946
358.071
108.089
6.09592
29.7858
19.8287
0.00071963
175.248
0.0440532
72.1377
3.80109
8.03625
0.0321732
0.00103825
171.64
96.3173
13.2748
40.3709
19.1172
0.0074815
0.000723561
0.000746219
1.54067
77.4534
13.5465
0.000733874
1071.34
21.407
0.00773367
0.108681
15.6973
0.00072102
0.354878
0.000762211
0.00072588
23.6476
24.122
0.0429749
0.00509497
0.00072111
23.4803
1.26803
21.6527
0.00221457
0.0242978
0.00605653
50.9738
108.119
1.1807
0.0007314
132.322
0.000775765
0.0278742
0.00343852
0.00131788
38.5942
54.0353
0.000737252
41.8663
0.000748733
0.000722062
0.000886206
44.6711
16.9211
54.9192
44.3396
15.6032
49.9029
0.0360563
0.000729531
0.00598634
0.00147327
3.03676
0.000729687
50.1821
8.93624
0.0265882
84.4112
0.314653
17.7005
1.69271
0.00172216
130.807
47.2846
22.6901
0.00603026
0.126322
177.332
0.000733038
6.73899
48.5465
0.000727704
0.57374
0.00247164
21.7074
0.000724285
82.9786
29.8799
1.63423
0.390078
99.2741
366.586
4.73364
105.91
0.00105594