/*--------------------------------*- C++ -*----------------------------------*\
| =========                 |                                                 |
| \\      /  F ield         | OpenFOAM: The Open Source CFD Toolbox           |
|  \\    /   O peration     | Version:  2.3.1                                 |
|   \\  /    A nd           | Web:      www.OpenFOAM.org                      |
|    \\/     M anipulation  |                                                 |
\*---------------------------------------------------------------------------*/
FoamFile
{
    version     2.0;
    format      ascii;
    class       volScalarField;
    location    "0.14";
    object      k;
}
// * * * * * * * * * * * * * * * * * * * * * * * * * * * * * * * * * * * * * //

dimensions      [0 2 -2 0 0 0 0];

internalField   nonuniform List<scalar> 
15166
(
1.05856
1.26126
1.60362
1.96504
2.24204
2.51788
2.71101
2.82047
2.85109
2.81775
2.72847
2.61672
1.05971
1.23005
1.60332
1.95459
2.23125
2.48809
2.6627
2.75755
2.77886
2.74155
2.65415
2.53384
1.06849
1.1966
1.58566
1.93128
2.2077
2.44968
2.61035
2.69424
2.70925
2.66932
2.58255
2.45927
1.07973
1.16939
1.56254
1.90231
2.1766
2.40604
2.55578
2.63145
2.64211
2.60042
2.51334
2.38542
1.09188
1.14839
1.53829
1.87155
2.14185
2.36012
2.50074
2.57
2.57755
2.53472
2.44746
2.31897
1.10496
1.13197
1.51391
1.84022
2.10535
2.31346
2.44624
2.51035
2.5156
2.47199
2.38453
2.25485
1.11894
1.11908
1.48995
1.80889
2.06797
2.26686
2.39281
2.45269
2.45616
2.41199
2.32401
2.19139
1.13363
1.10907
1.46686
1.77794
2.03042
2.22084
2.34074
2.39709
2.39918
2.35464
2.26654
2.13457
1.1488
1.10147
1.44496
1.74776
1.99321
2.17577
2.29025
2.34357
2.34455
2.29984
2.21189
2.08063
1.16429
1.09581
1.42433
1.71851
1.95668
2.13191
2.24144
2.29212
2.2922
2.24748
2.16015
2.03128
1.17995
1.09178
1.40501
1.69026
1.92102
2.08938
2.19436
2.24269
2.24203
2.19752
2.11127
1.98569
1.19569
1.08905
1.38694
1.66307
1.88637
2.04825
2.14901
2.19521
2.19396
2.14988
2.06543
1.94537
1.2114
1.0874
1.37007
1.63692
1.85278
2.00853
2.10535
2.1496
2.14789
2.10445
2.02224
1.90786
1.22703
1.08667
1.35433
1.61179
1.82029
1.97021
2.06333
2.10579
2.10371
2.06102
1.98061
1.86674
1.24249
1.08663
1.33964
1.58768
1.78891
1.93328
2.0229
2.0637
2.06136
2.01953
1.94126
1.83192
1.25775
1.08719
1.3259
1.56454
1.75862
1.89769
1.984
2.02325
2.0207
1.97982
1.90379
1.79817
1.27276
1.08819
1.31303
1.54234
1.7294
1.86339
1.94656
1.98435
1.98167
1.9418
1.86795
1.7654
1.28748
1.08958
1.30099
1.52106
1.70125
1.83035
1.91053
1.94694
1.94417
1.90534
1.83359
1.73374
1.30187
1.09126
1.28967
1.50063
1.6741
1.79851
1.87582
1.91093
1.90812
1.87034
1.80073
1.70417
1.31592
1.09315
1.27904
1.48102
1.64793
1.76781
1.84238
1.87626
1.87343
1.83674
1.76924
1.67583
1.32958
1.09522
1.26901
1.4622
1.6227
1.73821
1.81014
1.84284
1.84004
1.80439
1.73886
1.64747
1.34288
1.09739
1.25952
1.44413
1.59838
1.70966
1.77905
1.81063
1.80785
1.77323
1.70948
1.61987
1.35576
1.09965
1.25055
1.42675
1.57492
1.68211
1.74906
1.77955
1.77682
1.74317
1.68099
1.5926
1.36824
1.10196
1.24204
1.41004
1.55229
1.65552
1.72011
1.74956
1.74687
1.71414
1.65339
1.56627
1.38028
1.10429
1.23394
1.39398
1.53046
1.62985
1.69215
1.7206
1.71794
1.68607
1.62666
1.54093
1.39187
1.10663
1.22621
1.37852
1.50939
1.60506
1.66514
1.69261
1.68998
1.65892
1.60079
1.51659
1.40305
1.10895
1.21883
1.36362
1.48905
1.5811
1.63904
1.66555
1.66293
1.63264
1.5758
1.49347
1.41379
1.11126
1.21177
1.34926
1.46939
1.55793
1.61379
1.63938
1.63676
1.60721
1.5517
1.47174
1.42406
1.11354
1.205
1.33543
1.4504
1.53553
1.58936
1.61404
1.61142
1.58259
1.52844
1.45065
1.43391
1.11577
1.19849
1.32207
1.43205
1.51386
1.56572
1.58951
1.58688
1.55876
1.5059
1.42986
1.4433
1.11797
1.19221
1.30917
1.4143
1.49288
1.54282
1.56574
1.56309
1.53565
1.48409
1.4099
1.45223
1.12011
1.18617
1.2967
1.39713
1.47257
1.52064
1.54271
1.54003
1.51325
1.46292
1.39037
1.46069
1.12221
1.18032
1.28465
1.38051
1.4529
1.49915
1.52037
1.51766
1.49152
1.44242
1.37163
1.46877
1.12426
1.17468
1.27299
1.36442
1.43384
1.47831
1.49871
1.49596
1.47044
1.42252
1.35331
1.47633
1.12625
1.16921
1.26171
1.34883
1.41537
1.4581
1.47769
1.47489
1.44997
1.40321
1.33568
1.4835
1.12821
1.16393
1.25077
1.33373
1.39745
1.43849
1.45728
1.45443
1.43009
1.38446
1.31842
1.49021
1.13011
1.15881
1.24018
1.31909
1.38007
1.41945
1.43746
1.43455
1.41077
1.36627
1.30201
1.49649
1.13197
1.15383
1.2299
1.30489
1.36321
1.40097
1.4182
1.41523
1.392
1.34862
1.28626
1.50236
1.13379
1.14901
1.21992
1.29112
1.34684
1.38301
1.39949
1.39644
1.37377
1.33148
1.27065
1.5078
1.13557
1.14433
1.21024
1.27776
1.33095
1.36557
1.3813
1.37818
1.35604
1.31488
1.25603
1.51275
1.13732
1.13978
1.20084
1.26478
1.31551
1.34862
1.36361
1.36042
1.33878
1.29858
1.24013
1.51726
1.13902
1.13535
1.19172
1.25218
1.30052
1.33214
1.3464
1.34313
1.32196
1.28258
1.22447
1.52131
1.14066
1.13105
1.18285
1.23995
1.28594
1.31612
1.32966
1.32629
1.30557
1.26701
1.21014
1.52493
1.14224
1.12687
1.17424
1.22806
1.27177
1.30053
1.31336
1.3099
1.28959
1.25181
1.19592
1.52814
1.14372
1.12281
1.16587
1.21651
1.25799
1.28536
1.2975
1.29393
1.27401
1.23703
1.18246
1.53092
1.14508
1.11888
1.15776
1.20528
1.24459
1.2706
1.28205
1.27836
1.25882
1.22258
1.16882
1.53329
1.14639
1.11506
1.14987
1.19435
1.23155
1.25623
1.267
1.26319
1.244
1.20853
1.15626
1.53526
1.14756
1.11136
1.14221
1.1837
1.21886
1.24225
1.25233
1.2484
1.22955
1.19483
1.14361
1.53684
1.14865
1.10775
1.13475
1.17335
1.20652
1.22862
1.23804
1.23397
1.21546
1.18149
1.13168
1.53803
1.14966
1.10423
1.12749
1.16328
1.19449
1.21533
1.22409
1.21988
1.20168
1.16844
1.11953
1.53884
1.15059
1.1008
1.12043
1.15348
1.18278
1.20238
1.21049
1.20613
1.18823
1.15571
1.10804
1.53928
1.15149
1.09745
1.11355
1.14395
1.17137
1.18976
1.19721
1.1927
1.17509
1.14328
1.09686
1.53934
1.15231
1.09419
1.10686
1.13468
1.16026
1.17745
1.18426
1.17958
1.16225
1.1311
1.08537
1.53904
1.15309
1.091
1.10034
1.12564
1.14944
1.16546
1.17163
1.16677
1.1497
1.11922
1.07472
1.53839
1.15382
1.08789
1.09399
1.11685
1.13889
1.15376
1.15929
1.15426
1.13743
1.10764
1.06445
1.53739
1.15448
1.08486
1.0878
1.10828
1.1286
1.14234
1.14725
1.14203
1.12545
1.09636
1.05459
1.53605
1.15507
1.0819
1.08177
1.09994
1.11858
1.13121
1.13549
1.13009
1.11375
1.08533
1.04463
1.53436
1.15565
1.07902
1.07589
1.09181
1.10881
1.12035
1.12401
1.11843
1.10231
1.07456
1.035
1.53234
1.15614
1.07622
1.07017
1.08388
1.09929
1.10976
1.11281
1.10703
1.09113
1.06396
1.0247
1.52998
1.15661
1.0735
1.06459
1.07616
1.09
1.09943
1.10187
1.09589
1.08019
1.05358
1.01522
1.5273
1.15701
1.07085
1.05916
1.06863
1.08094
1.08934
1.09118
1.08501
1.0695
1.04347
1.00633
1.5243
1.15739
1.06828
1.05387
1.06129
1.07211
1.07949
1.08074
1.07437
1.05904
1.03361
0.997731
1.52098
1.1577
1.06579
1.04873
1.05414
1.0635
1.06988
1.07055
1.06397
1.04882
1.02396
0.989013
1.51734
1.15799
1.06337
1.04372
1.04718
1.0551
1.06051
1.06059
1.05381
1.03883
1.01453
0.980545
1.51339
1.15823
1.06104
1.03885
1.04039
1.0469
1.05136
1.05087
1.04388
1.02906
1.00529
0.97196
1.50912
1.15846
1.05878
1.03411
1.03377
1.03892
1.04243
1.04138
1.03418
1.01951
0.996231
0.963722
1.50456
1.15864
1.05661
1.02951
1.02733
1.03113
1.03372
1.03212
1.0247
1.01016
0.987349
0.955425
1.49968
1.15878
1.05451
1.02504
1.02106
1.02354
1.02522
1.02306
1.01543
1.00102
0.978654
0.94754
1.4945
1.15891
1.05251
1.02071
1.01495
1.01613
1.01693
1.01422
1.00638
0.992077
0.970144
0.939743
1.48903
1.15898
1.05059
1.01652
1.00901
1.00892
1.00884
1.00559
0.997529
0.983329
0.961823
0.932265
1.48326
1.15904
1.04875
1.01245
1.00322
1.00188
1.00094
0.997165
0.988882
0.974776
0.953668
0.924687
1.4772
1.15902
1.047
1.00852
0.997603
0.99503
0.993237
0.988934
0.980431
0.966405
0.945677
0.917432
1.47085
1.15902
1.04533
1.00471
0.992139
0.988356
0.985726
0.980901
0.972172
0.958224
0.937874
0.910331
1.46419
1.15899
1.04377
1.00106
0.98684
0.981862
0.978405
0.973064
0.964107
0.950224
0.930232
0.903298
1.45725
1.15892
1.04228
0.997531
0.98169
0.975536
0.971266
0.965413
0.956226
0.942396
0.922747
0.896474
1.45005
1.15882
1.04088
0.994139
0.9767
0.969383
0.964309
0.95795
0.948531
0.934747
0.915412
0.889541
1.44255
1.15865
1.03958
0.990882
0.971869
0.9634
0.957532
0.950672
0.941018
0.927266
0.908214
0.88281
1.43476
1.15846
1.03836
0.987762
0.967193
0.957588
0.950933
0.943573
0.933684
0.919957
0.901164
0.876125
1.42669
1.15828
1.03725
0.984784
0.962675
0.951943
0.944511
0.936656
0.926528
0.912811
0.894259
0.869668
1.41835
1.15804
1.03624
0.981949
0.958314
0.946466
0.938262
0.929914
0.919547
0.90583
0.887491
0.863169
1.40972
1.15778
1.03533
0.979261
0.954112
0.941156
0.932185
0.923345
0.91273
0.899003
0.880867
0.856989
1.40081
1.15747
1.0345
0.976714
0.95007
0.936012
0.926277
0.916948
0.906081
0.892327
0.874385
0.851016
1.39163
1.15712
1.03377
0.974308
0.946185
0.931035
0.920543
0.910726
0.899604
0.885817
0.868061
0.845093
1.38217
1.15674
1.03316
0.972054
0.942466
0.926228
0.914982
0.904678
0.893298
0.879471
0.861877
0.839156
1.37244
1.15635
1.03265
0.969954
0.938911
0.921588
0.909588
0.898798
0.887155
0.873274
0.855829
0.833488
1.36244
1.15589
1.03224
0.968015
0.93552
0.917115
0.904364
0.893084
0.881176
0.867236
0.849919
0.827778
1.35217
1.15537
1.03193
0.966228
0.9323
0.912814
0.89931
0.88754
0.875358
0.861343
0.844138
0.822401
1.34162
1.15481
1.03172
0.964595
0.929254
0.908687
0.89443
0.882165
0.869706
0.855615
0.838514
0.816993
1.33079
1.15422
1.03163
0.963131
0.926381
0.904735
0.889723
0.876962
0.864219
0.850042
0.833029
0.81175
1.31968
1.15361
1.03166
0.961845
0.92369
0.900962
0.885188
0.871927
0.858895
0.844616
0.82765
0.806305
1.3083
1.15293
1.03178
0.960714
0.921175
0.897361
0.880827
0.867058
0.853729
0.839337
0.822434
0.801682
1.29664
1.15221
1.03201
0.959766
0.918853
0.89395
0.876645
0.862366
0.848741
0.834243
0.817422
0.796986
1.28473
1.15141
1.03236
0.958997
0.91672
0.890725
0.872645
0.857851
0.843918
0.829296
0.81254
0.792435
1.27253
1.15058
1.03282
0.958409
0.914781
0.887696
0.868831
0.853511
0.839265
0.824511
0.807809
0.787908
1.26007
1.14967
1.03339
0.958004
0.913047
0.884858
0.865202
0.849353
0.834781
0.819887
0.803221
0.78351
1.24733
1.14867
1.03407
0.957784
0.911511
0.882223
0.861765
0.845376
0.830476
0.815435
0.798786
0.779114
1.23432
1.14762
1.03489
0.957776
0.910196
0.879794
0.858525
0.841587
0.826343
0.811137
0.794475
0.774952
1.22101
1.14654
1.03581
0.957968
0.909102
0.877583
0.855488
0.837984
0.822391
0.80701
0.79033
0.770853
1.20745
1.14532
1.03686
0.958363
0.908238
0.875586
0.852656
0.834577
0.818621
0.803054
0.786335
0.766957
1.1936
1.14405
1.03802
0.958982
0.907611
0.873826
0.85004
0.831375
0.815045
0.79928
0.782513
0.763098
1.17946
1.14269
1.0393
0.959814
0.907223
0.872295
0.847642
0.828374
0.811652
0.795671
0.778831
0.759532
1.16503
1.14128
1.04071
0.960881
0.907097
0.871013
0.845473
0.825582
0.808455
0.792248
0.775333
0.756137
1.15032
1.13979
1.04224
0.962177
0.90723
0.869985
0.843546
0.823018
0.805474
0.789033
0.772036
0.752821
1.13533
1.13818
1.04389
0.963703
0.907638
0.869227
0.841865
0.82068
0.802705
0.786012
0.768921
0.749725
1.12006
1.13644
1.04567
0.965488
0.908326
0.86875
0.840439
0.818577
0.80015
0.783187
0.765992
0.746925
1.1045
1.13462
1.04756
0.967533
0.909316
0.868561
0.839282
0.816721
0.797823
0.780588
0.763289
0.74421
1.08864
1.13266
1.04959
0.969838
0.910612
0.868672
0.838411
0.815124
0.795729
0.778189
0.760748
0.741744
1.0725
1.13059
1.05173
0.97241
0.912235
0.86911
0.837836
0.813802
0.79389
0.776034
0.758442
0.739409
1.05604
1.12849
1.05401
0.975288
0.914201
0.86989
0.83758
0.812767
0.792314
0.774124
0.756362
0.737269
1.03928
1.12618
1.05643
0.97845
0.916527
0.871024
0.837659
0.812031
0.791012
0.772456
0.754485
0.735293
1.02221
1.12379
1.05899
0.981934
0.919241
0.872545
0.838091
0.811624
0.790007
0.771062
0.752873
0.733555
1.00483
1.12129
1.06166
0.98573
0.922343
0.874461
0.838899
0.811558
0.789313
0.769958
0.751539
0.732156
0.987161
1.11854
1.06447
0.989857
0.925863
0.876816
0.840107
0.81186
0.788961
0.769185
0.750548
0.730999
0.969168
1.1157
1.06742
0.994321
0.929822
0.879615
0.841744
0.812542
0.78895
0.768702
0.749757
0.729743
0.950854
1.11274
1.07048
0.999161
0.934251
0.882894
0.843825
0.81363
0.789293
0.768524
0.74923
0.728921
0.932232
1.10953
1.0737
1.00436
0.93916
0.886677
0.846387
0.815154
0.790031
0.768718
0.74908
0.728511
0.913265
1.10624
1.07706
1.00996
0.944593
0.891026
0.849473
0.817157
0.791198
0.769291
0.749235
0.728375
0.893971
1.10266
1.08058
1.01597
0.950583
0.895959
0.853137
0.819685
0.792845
0.770305
0.749836
0.728754
0.874339
1.0989
1.08421
1.02242
0.957176
0.901534
0.857414
0.822775
0.795001
0.771793
0.750892
0.729623
0.854385
1.09503
1.08799
1.02931
0.964397
0.907796
0.862364
0.82649
0.797711
0.77379
0.752435
0.730792
0.834082
1.0909
1.09192
1.03669
0.97229
0.914801
0.868027
0.830859
0.801005
0.776269
0.754304
0.731926
0.813413
1.08651
1.09603
1.04457
0.980914
0.922616
0.874481
0.835946
0.804944
0.779324
0.756716
0.73389
0.792395
1.08183
1.10029
1.05299
0.990325
0.931315
0.881809
0.841852
0.809626
0.78307
0.759829
0.736651
0.771026
1.07709
1.10471
1.06201
1.00059
0.940972
0.890112
0.848648
0.815097
0.787498
0.763465
0.739713
0.749267
1.07194
1.10934
1.07166
1.01179
0.951709
0.899474
0.856441
0.821463
0.792713
0.767835
0.743413
0.727126
1.0665
1.11418
1.08201
1.02403
0.963633
0.910036
0.865344
0.828821
0.798785
0.772911
0.747766
0.704607
1.06097
1.11926
1.09314
1.03744
0.976903
0.921961
0.875531
0.837329
0.805877
0.778924
0.753023
0.681651
1.05501
1.12469
1.10518
1.05217
0.991705
0.935422
0.88716
0.847129
0.814113
0.785923
0.758947
0.658266
1.04883
1.13053
1.11828
1.06844
1.00825
0.95065
0.900424
0.858366
0.823583
0.794002
0.766005
0.634381
1.04238
1.13694
1.13274
1.08653
1.02686
0.9679
0.915533
0.871222
0.83441
0.803187
0.773935
0.609983
1.03588
1.14432
1.14892
1.10688
1.04787
0.987501
0.932773
0.885927
0.846818
0.813787
0.783224
0.58494
1.02951
1.15326
1.16755
1.13005
1.07176
1.00981
0.95244
0.902692
0.860935
0.825766
0.793599
0.559149
1.02454
1.16501
1.18961
1.15674
1.09898
1.03513
0.974729
0.921714
0.876889
0.839204
0.804995
0.532447
1.02468
1.18298
1.21759
1.18829
1.13045
1.06422
1.0004
0.943565
0.895135
0.854349
0.8177
0.501002
1.0269
1.20014
1.24675
1.21921
1.16136
1.09299
1.02677
0.966041
0.914495
0.870485
0.831787
0.918553
0.00451871
0.287926
0.268927
0.268148
0.262277
0.254475
0.646817
0.715295
0.661933
0.484705
0.00721022
0.0285291
2.70099
0.2291
0.00352851
2.52238
0.0938978
0.0914017
0.00346979
0.120237
0.161724
0.122936
0.0240652
0.930935
0.287362
0.14004
0.307973
0.510883
0.703516
0.452956
1.1523
0.00409547
0.476464
0.0272853
0.132143
0.40331
0.394518
0.395394
0.00758054
0.0587533
0.00334689
0.0601164
0.427605
0.297232
0.15833
0.0524596
0.0212566
0.300357
0.119901
0.131028
0.634734
0.291829
0.0032146
1.74619
0.00429834
0.00928152
0.00334509
0.395184
0.21944
0.13404
1.17581
0.00320907
0.014711
0.149266
0.00437414
0.738777
0.281088
1.52324
0.58481
1.65084
0.0466496
0.385174
0.61104
0.0244902
0.00329308
0.68471
0.00314848
0.0609405
0.244062
0.0874181
0.00315291
0.427375
0.323381
0.0141687
0.966029
0.736172
0.00319431
0.328038
0.26418
0.351919
0.554946
0.00319798
0.00383149
0.486685
0.00328796
0.297073
0.0107744
0.00317168
0.753607
0.949734
0.161924
0.00334023
0.00419825
0.00314892
0.543436
0.48093
0.702569
0.446247
0.00750075
0.0863644
0.00315231
0.194495
0.00368098
0.0031823
0.207659
0.0174954
0.185517
0.944317
0.148544
0.866788
0.0254911
1.4936
0.159788
0.110303
1.12138
0.00398165
1.93326
0.0262424
0.00319992
0.23538
0.00323635
0.245221
0.00420977
0.142586
0.00491221
0.25853
0.504303
0.200248
0.00546331
0.0151642
0.135895
0.289462
0.0184711
0.191775
1.66618
0.314802
0.00439324
0.850561
0.387648
0.0389363
0.201989
0.00316322
0.097603
0.128051
0.00316642
0.24397
0.00327892
1.10924
0.00665081
0.0237471
0.00355607
0.110675
0.0121335
0.12498
0.0708233
0.970313
0.321042
0.349019
0.00314949
1.66055
0.645562
1.75067
0.0159831
0.00315439
0.484281
0.00314842
0.332858
0.112661
0.615492
0.993953
0.377056
0.0551478
0.385212
0.00338869
0.258287
0.00321799
0.00315979
0.192991
0.00318558
0.410763
0.00317536
0.932012
0.00464622
0.280515
0.295603
0.268027
0.155315
0.00315241
2.83083
0.881538
0.337328
0.442884
0.210763
0.334927
0.0903773
0.0800531
0.193129
0.592846
0.185273
0.30492
0.776914
0.504608
0.425288
0.00315988
0.294881
0.011864
0.35496
2.89826
0.235558
0.322751
0.882631
0.365628
0.00318281
0.00319224
1.13525
0.965572
0.00325573
3.82881
0.0264024
0.309831
0.106584
0.00315879
0.796511
0.34404
0.264185
0.24134
0.933462
0.537092
0.321496
0.132341
0.1347
1.10358
1.4758
0.35738
0.297857
0.239669
0.0034672
1.22711
0.304562
0.551253
0.610136
0.317407
3.69371
0.266306
0.203696
0.165925
0.308827
0.48794
0.367537
0.184873
0.271379
0.0139941
0.078708
0.677423
0.277082
0.800311
0.50686
0.297074
1.44327
0.234599
0.0435132
1.44597
0.214504
0.213999
1.4969
0.27418
0.263775
0.331755
0.226335
0.867045
0.269819
0.390718
0.340948
0.520285
0.269156
0.397692
0.212528
0.980623
0.115104
0.224241
1.46663
0.229433
0.228034
0.305126
0.915859
0.0993554
0.211823
0.0574236
0.508903
0.172657
0.0816813
1.28941
1.8056
0.126544
0.821491
0.353868
0.00318775
0.164881
0.140044
0.1792
0.314652
0.00317368
1.04131
0.339256
0.0563881
0.22817
0.657183
0.0031584
0.61789
0.0323987
0.489232
0.351488
4.54932
0.521409
0.653776
0.453637
0.00315703
0.00322326
0.310436
0.368459
0.00318842
0.435735
0.00315945
0.00321955
0.00325401
0.00314841
0.119771
0.00316668
0.00566226
0.872875
0.513906
0.00322893
0.332964
0.0086927
0.20139
0.293025
1.11663
3.74577
0.400646
0.00314928
0.00326553
0.0709287
0.1099
0.21101
0.00315427
0.0866251
0.34547
0.759127
0.316602
0.197423
0.302546
0.893711
3.68523
0.128601
0.272144
0.00365659
0.00318465
0.129055
0.196409
0.0984424
0.19227
0.523324
2.71367
1.48963
0.125771
0.345466
0.879058
0.00319934
0.351519
0.623427
0.00508125
0.00323993
0.523461
3.57815
0.734985
0.00317643
0.0406225
0.138343
0.0219832
0.00324246
0.723539
0.320382
0.304739
0.304063
0.00374287
3.43684
0.00316585
0.199643
0.458684
0.00606625
0.0102384
0.80949
0.0081314
1.23862
0.74751
1.00287
0.554768
0.186347
0.694831
0.00315572
0.0031883
0.00317227
0.906753
0.0654944
1.25049
2.63543
0.154819
0.591685
0.00322137
0.00900129
0.285082
0.00315106
0.00317887
0.703348
0.0031798
0.194088
0.792198
0.394759
0.00315074
0.00695917
0.0969513
0.0990414
0.237682
0.122591
0.00314846
3.01619
0.726784
0.093921
0.0111031
0.357972
0.203668
0.0065482
0.281122
0.0063165
0.712281
0.00350703
0.245781
0.109546
0.00314979
1.12586
0.239199
0.317825
0.00874716
0.395378
0.134871
0.00502481
0.222437
0.515101
0.299033
1.10439
0.0208992
0.0424041
0.0102441
1.15382
0.577185
0.0527994
0.120157
0.142523
0.330504
0.157203
0.536104
1.08795
0.0031564
1.79828
0.792666
0.221715
0.00315088
0.296354
0.814375
0.0222971
0.456634
0.364724
0.217084
0.111148
0.196112
0.259985
0.00357396
0.016747
0.760324
0.0336642
0.00437821
0.918371
3.6949
0.0338742
0.223281
0.676313
0.0704549
0.493888
0.287017
0.731875
0.318689
0.320638
0.00329552
0.0714655
0.476802
0.378486
1.1696
0.239355
1.23358
0.929947
3.39098
0.747799
0.260629
0.00316867
1.12547
0.21009
0.692703
0.345992
0.130944
0.0696965
0.354166
0.00332055
0.313219
0.00317747
0.378758
0.350606
0.217716
0.193963
1.09885
0.244498
0.880333
0.545047
1.73982
0.00327535
0.102908
0.80848
2.2832
0.187183
0.609059
0.00357367
0.0244854
0.292271
1.62986
0.499866
0.00315041
0.0500807
0.00314901
0.0505111
0.365723
0.032981
0.718293
0.124507
0.60638
0.131056
0.103595
1.21906
0.703843
0.00319475
0.00319601
0.248961
1.06464
0.303477
0.506521
0.380655
0.568739
0.295277
0.00315003
0.152069
0.264132
0.00470419
0.917635
0.276831
0.196389
0.302587
0.0109296
0.00315216
0.0205456
0.00316216
0.549608
0.699776
0.724913
0.539879
0.00320612
1.29822
0.075964
0.749899
0.113686
1.52989
0.00530023
0.1325
0.00316709
0.497319
0.706958
0.335851
0.345011
0.00314883
1.13538
0.694726
0.519165
0.00319409
0.0498648
0.700111
0.522434
0.00569181
2.13951
0.00368253
0.666575
0.510256
0.00359064
0.115465
0.0755071
0.172181
0.00315025
0.00319854
1.00064
0.451792
0.331875
0.537502
0.00468921
0.114507
0.0855538
0.663581
0.2028
0.00390162
0.163021
1.19363
0.00314935
0.00749753
0.315962
0.679544
0.979271
0.00317609
0.724848
0.249376
1.15031
0.0242892
0.143743
0.817576
0.00319662
0.20525
0.120631
0.372603
0.319671
0.599325
0.221495
1.06144
1.03336
0.278713
2.59001
0.00323697
0.0031613
1.31512
0.677345
0.00458055
0.00316128
0.397739
0.00320624
0.714602
0.539325
0.209474
0.00318793
0.691834
0.0311338
0.320147
1.04856
0.261508
0.126255
0.121602
1.18211
0.00319212
0.253636
0.849336
0.261635
0.469622
0.00630337
0.449921
0.222184
2.01589
0.00315251
0.124489
0.579413
0.302578
0.00335843
0.0834205
0.372444
0.469053
1.09667
0.0495824
1.65069
0.424085
0.0780569
0.40663
0.00315478
0.00676727
0.293728
0.00315013
0.195078
0.00316753
0.248364
0.00994025
0.728782
0.00331754
0.0958279
0.518699
1.40072
0.294139
0.570913
0.136885
2.16167
0.0141389
0.08115
0.482039
0.00315148
0.0032058
0.382106
0.130322
0.252121
0.389902
0.00332526
0.218937
0.222906
0.205964
0.416053
1.00336
0.206286
0.0031964
1.86922
2.32824
0.515016
0.00323831
0.00953593
1.85351
0.290524
0.00316497
1.1218
0.00315225
0.068317
2.43494
0.00350441
0.288125
0.00315759
0.0472144
0.75666
0.00324367
0.00394812
0.0031834
0.00377758
0.0194099
3.44406
0.696758
0.0788772
0.244504
0.00316651
0.64264
0.0031729
0.219921
0.197949
0.0198941
0.1472
0.0120088
0.994586
0.00322951
4.11526
0.172995
0.52627
0.331224
0.149995
0.00314799
0.214852
0.973776
0.11683
0.622002
0.771278
1.49461
0.347671
0.0365616
0.530826
0.0706995
0.00395783
0.0889711
2.36615
0.988679
0.101133
0.00465941
0.325397
0.00369327
0.371804
0.754592
0.961586
0.708246
0.78113
0.0325055
0.00569215
0.357018
0.253027
0.0426604
0.302841
0.00318335
0.263134
1.72958
0.00330876
1.49168
0.675549
0.104197
0.0862647
1.27767
0.0211761
0.0847454
0.380499
0.260498
0.246728
0.00322314
0.572508
0.0672419
0.269621
0.381604
0.204398
0.176612
0.0065217
0.563575
0.00317414
0.00316462
0.223633
0.0892509
0.127058
1.68753
0.00315108
0.985898
0.0556403
0.0482861
0.00347526
1.5078
0.29931
0.0764608
0.673667
0.0503657
1.14619
0.138327
0.00315606
1.19084
1.84899
0.00513137
0.00789594
0.208902
0.901956
0.083636
1.31812
0.0302262
0.198204
0.0870425
0.132536
0.581171
0.207873
0.00318728
1.03201
0.358979
0.0127922
0.168551
3.87236
0.301935
0.00317601
0.00316679
0.652516
0.206045
0.879381
0.00315276
0.61167
0.248319
0.425906
0.00376093
0.310417
0.671189
0.00504999
0.285717
0.00321089
0.983394
0.232127
0.375292
0.285654
0.00316746
0.00315527
0.335523
1.22249
0.323483
0.628521
0.00315382
0.0402122
0.00324382
0.0058692
1.00564
0.0624664
0.0815111
0.103637
0.355161
0.301495
0.355647
1.04376
0.00317201
0.334358
0.628281
0.273573
0.00319225
0.808083
0.00321751
0.00316808
0.0751407
0.237467
0.021966
1.28621
0.226919
2.4853
0.00327698
0.0047408
0.0317267
0.902709
0.254934
0.961985
0.00317174
0.00317442
0.00596148
0.00774624
0.946379
0.694683
0.650418
0.108516
0.038002
0.264515
0.156025
0.577784
0.272388
0.766829
0.309656
0.00315004
0.314071
0.00517587
0.160927
0.775661
0.205708
0.201856
0.109266
0.00374378
1.17004
0.436987
0.39325
0.34483
0.00316649
0.592542
0.657583
0.327671
0.00719523
0.794118
0.503213
0.728087
0.318503
0.338375
0.574908
0.103901
0.841624
0.196986
0.0812544
0.240629
0.00317791
1.05933
0.863422
0.00316559
0.580594
0.00462612
0.558011
0.209753
0.201097
0.295335
0.730891
0.795258
0.257644
0.108125
0.187928
0.213081
0.0110228
0.00317545
0.894644
0.0535464
0.816213
0.553169
0.178559
0.724838
0.564808
0.00315855
0.302284
1.51822
1.05034
0.221949
0.251089
0.481167
1.66894
0.196122
0.198832
0.0218113
0.0704863
0.571711
1.0369
0.0953073
0.731396
0.70114
0.665106
0.242661
0.195603
0.354198
0.591984
0.00319123
1.71743
0.674223
0.160495
0.00319083
0.48914
0.390621
0.314686
0.00323415
0.590993
0.00317178
0.238245
0.0797467
0.00319561
0.703885
0.363348
0.00314805
0.530901
0.395956
0.51583
0.272313
0.536464
0.280071
0.575052
0.180589
0.125467
0.00316854
0.00452759
0.374726
0.16249
0.0143448
0.00329876
0.371516
0.00560364
0.10071
0.101346
0.373182
0.199596
0.0507356
0.0862471
0.582868
1.44334
0.358005
3.74931
0.757043
0.00315162
0.540316
0.497291
1.48068
0.00315371
0.158788
0.00318801
0.0035499
0.304642
0.241785
0.0335506
0.00340662
0.677111
3.46971
0.00685024
0.00317554
0.120424
0.213886
0.0200508
0.0624925
3.5859
0.115519
0.00340549
0.00318303
0.845209
0.293493
0.113708
0.0516788
0.652972
1.13138
0.40624
0.250678
0.575719
0.0031743
0.419093
0.00316567
0.234278
0.29855
4.9394
0.166663
0.0773428
0.00372993
1.04042
0.00319419
0.00315769
0.00548299
0.268583
0.314738
0.845898
0.00315978
0.424826
0.00317386
0.670469
0.846107
0.00320475
0.738764
0.186575
0.00317241
0.00331155
0.0254003
0.94708
0.321489
0.0231087
0.00317771
0.00316929
0.844679
0.685194
0.32484
0.644012
0.0975528
0.437794
0.00316135
0.00961768
0.320629
0.8074
0.638951
0.00810098
0.00317603
0.4243
0.00325953
0.209903
0.806882
0.2927
0.0367971
0.205821
0.423704
0.131797
0.00317052
0.434446
1.15549
0.65749
0.00600663
0.0272967
0.589011
3.58998
0.0457691
0.313756
0.00314828
0.00317189
0.00320723
0.0168329
0.424026
0.93058
0.00832748
0.224197
0.536479
1.21779
0.200093
0.0173752
0.00729056
0.00728034
0.129223
0.184501
0.264222
0.00322347
1.16554
0.00315852
0.0124333
0.716106
0.736933
0.0304291
0.312363
0.392813
0.00400909
0.118789
0.194142
0.00316056
0.00377631
0.965139
0.00361788
0.00322474
0.740014
0.261891
2.07633
0.201678
2.24902
0.00360542
0.00318851
3.04797
0.315806
0.189172
0.432136
0.0510929
0.260228
0.168745
1.00612
0.703785
0.590294
0.582882
0.236466
0.101008
0.352206
0.725576
0.0131138
0.368668
0.00395287
0.444415
0.342078
0.0917681
0.320522
0.178359
0.351986
0.161465
0.286195
1.03443
0.486771
0.238757
0.341937
0.60905
0.268478
0.00408669
0.00316325
0.0976506
1.96204
0.00316465
1.57775
0.0031791
0.00887222
0.325209
0.225886
0.706624
0.674582
0.884938
0.987414
0.434482
0.417702
0.0031744
0.287159
0.921438
0.00323916
1.09847
0.00667353
1.68475
0.93506
1.12035
0.292561
0.211999
0.233319
0.0828448
0.304897
1.07648
0.373971
0.678233
0.156694
0.209546
0.075211
0.234446
0.896123
0.0086563
0.559414
0.00319409
0.0038557
0.304174
1.32609
0.336272
0.2908
0.14236
0.0942407
0.101342
0.00358081
0.340076
0.00358596
0.694912
0.00347266
0.0500859
0.937127
0.158619
0.256926
0.326402
0.301685
0.00576621
0.00321381
0.0832392
0.284158
0.0980626
0.529358
0.0364888
0.382403
0.19203
0.392398
0.77432
0.00355741
0.00315646
1.47136
0.195497
0.158964
0.6976
0.585643
0.69939
0.00880153
1.47618
0.359203
0.21555
0.00343219
0.168462
0.402107
0.211822
0.174933
0.265729
0.00329608
0.39656
0.00316975
0.609454
0.00978936
0.439313
0.101373
0.339845
0.00324325
6.11116
0.00319243
1.32525
0.0205623
0.00318007
0.0124218
0.285556
0.00317202
0.00318003
0.324539
0.026095
0.337091
0.0492341
0.00336119
0.244645
0.174002
0.467557
0.00331596
0.224904
0.1837
1.34446
0.604931
0.408964
0.458766
0.216969
0.255335
0.758661
0.818665
0.214881
0.0032241
0.121965
0.361595
0.325125
0.00463743
0.00727373
0.261449
1.55803
0.00318445
0.173846
1.08525
0.0031568
0.73869
0.818299
0.345542
0.610911
0.686581
0.268946
0.11177
2.3072
0.343679
0.741577
0.712919
0.236289
0.0899138
0.00316835
0.438822
0.00561088
0.00321783
0.00316166
0.316316
0.00316822
0.00376565
0.452502
3.86298
0.349633
0.163879
0.723826
0.241512
0.00319141
0.177776
1.13924
0.0222545
0.148283
0.876222
0.337363
0.104972
0.026876
0.00315601
0.00317028
0.0240389
0.0371081
0.333283
0.328085
1.07208
0.287016
0.276365
0.00388828
0.485524
0.23663
0.00321179
0.341832
3.04854
0.00324075
0.302183
1.00772
0.630187
0.671715
0.15956
0.945632
0.0035254
0.176549
0.00330889
0.00606226
0.00320961
0.709831
0.479434
0.063073
0.00319297
0.00314981
1.11253
0.385351
0.242736
0.26262
0.29594
0.439956
0.302949
0.305401
0.377789
0.00317781
0.129214
0.102731
0.115395
0.381047
0.925111
0.650012
0.615746
0.390285
0.979016
0.830418
0.805362
0.447409
0.752583
0.0546914
0.71397
0.408853
0.0231833
0.989161
0.743237
0.374428
0.0031946
0.00320054
0.00356276
0.00436195
0.501164
0.0031515
0.5091
0.176305
0.988176
0.652232
0.00317585
0.397556
0.303617
0.196161
0.272541
0.391445
0.466142
0.00327439
0.00319927
0.00814249
0.0853389
0.00316267
0.65204
0.270337
0.196458
0.646546
0.432478
0.463936
0.54484
0.00316963
0.316581
0.570478
0.00375236
0.068352
0.438494
0.31355
0.448592
0.186665
0.00324331
0.412073
0.389738
0.0037706
0.018055
0.00316314
0.193057
0.00426934
0.11831
1.13147
0.103298
0.0631836
0.873464
1.79869
0.00325735
0.525614
0.00316261
0.220028
0.356162
0.276163
0.393644
0.687456
0.577537
0.784671
1.07108
0.633816
0.00317799
0.00315514
0.0461459
0.0890268
0.518909
0.164556
0.00322234
1.39988
0.212294
0.00774145
0.674808
0.0497828
0.00743543
0.0334357
0.874174
0.00600025
0.00319232
0.287221
0.211765
0.543553
0.085634
0.240216
0.194976
0.00323016
0.287731
0.0783242
0.0517021
0.00338647
0.226096
0.445871
0.16351
1.27599
1.15765
0.325469
0.35602
0.00316598
0.382436
0.00326084
2.44239
0.00913718
0.429733
0.082001
0.729876
0.013684
0.00868419
0.190591
0.258274
1.26124
0.00361216
0.17726
0.501781
0.632903
0.173119
0.991188
0.104425
0.00341934
0.00320502
0.448532
0.539109
0.998882
0.242998
0.0711389
0.540722
0.348424
0.699146
0.0388339
0.00317302
0.00318304
0.104285
0.697714
0.585498
0.833106
0.00357027
0.0100497
0.13398
0.482562
0.297366
0.653118
0.373817
0.766557
0.0031987
0.0032351
1.00263
0.276603
0.772379
2.68776
0.388267
0.0221078
1.24237
0.00323131
1.01352
0.0228605
0.0252505
0.00317149
0.0344606
0.070978
0.727172
0.687237
0.00322672
0.759114
0.00319036
0.62463
1.3721
0.00315551
0.129994
0.00322652
0.28605
0.111142
0.16058
0.00315808
0.271708
0.215242
0.256874
0.877428
0.135319
1.05672
0.173374
0.701698
0.260853
0.976012
0.536204
0.00377819
0.00322149
0.392673
0.162886
0.685145
0.00317712
1.87374
0.00316284
0.00469988
0.025736
0.00317933
1.05905
0.824503
0.00324378
0.563579
0.216832
0.0866956
0.605772
0.00583196
0.00316849
0.453707
0.318461
0.00839696
0.670286
6.13714
1.18268
0.12413
1.04797
0.0876338
0.00318519
0.00363117
0.0303769
0.129495
0.733344
0.938535
1.23171
0.685277
0.540316
0.429151