/*--------------------------------*- C++ -*----------------------------------*\
| =========                 |                                                 |
| \\      /  F ield         | OpenFOAM: The Open Source CFD Toolbox           |
|  \\    /   O peration     | Version:  2.3.1                                 |
|   \\  /    A nd           | Web:      www.OpenFOAM.org                      |
|    \\/     M anipulation  |                                                 |
\*---------------------------------------------------------------------------*/
FoamFile
{
    version     2.0;
    format      ascii;
    class       volScalarField;
    location    "0.14";
    object      nut;
}
// * * * * * * * * * * * * * * * * * * * * * * * * * * * * * * * * * * * * * //

dimensions      [0 2 -1 0 0 0 0];

internalField   nonuniform List<scalar> 
15166
(
9.6326e-05
0.000149708
0.000247263
0.000353627
0.00044662
0.000553663
0.000664189
0.000784649
0.000896875
0.00101217
0.00112094
0.00121387
9.63758e-05
0.000162301
0.000266131
0.000372359
0.000468768
0.000574938
0.000684307
0.000800251
0.000910251
0.00102126
0.001126
0.00121954
9.6775e-05
0.000172448
0.000280835
0.000387711
0.000486878
0.000592522
0.000700765
0.000813213
0.000921125
0.00102852
0.0011299
0.00122321
9.72839e-05
0.00018149
0.000293297
0.000400874
0.000502027
0.000607202
0.000714327
0.000823972
0.000929884
0.00103417
0.00113267
0.00122573
9.78272e-05
0.000189631
0.000304264
0.000412506
0.000515012
0.000619678
0.000725638
0.000832923
0.000936916
0.00103845
0.00113454
0.00122699
9.84118e-05
0.000196918
0.000314052
0.000422902
0.000526312
0.000630389
0.000735164
0.000840389
0.000942508
0.00104159
0.00113551
0.00122715
9.9031e-05
0.000203436
0.000322905
0.000432281
0.000536213
0.000639662
0.000743244
0.000846596
0.00094691
0.00104374
0.00113568
0.00122689
9.96823e-05
0.000209264
0.000331015
0.000440797
0.000544971
0.000647738
0.000750132
0.000851757
0.000950327
0.00104511
0.00113542
0.00122687
0.000100346
0.000214462
0.000338525
0.000448627
0.000552802
0.000654828
0.000756037
0.000856052
0.000952929
0.00104583
0.00113471
0.00122608
0.000101019
0.000219069
0.00034552
0.00045586
0.000559863
0.000661107
0.000761126
0.000859601
0.000954856
0.00104604
0.00113371
0.00122483
0.000101697
0.000223134
0.000352064
0.000462584
0.000566266
0.000666691
0.00076553
0.000862529
0.000956223
0.00104585
0.00113263
0.00122453
0.000102372
0.000226687
0.000358191
0.000468867
0.000572109
0.000671687
0.000769354
0.000864931
0.000957138
0.00104539
0.0011315
0.00122358
0.000103042
0.000229769
0.000363939
0.000474746
0.000577479
0.000676183
0.000772682
0.000866886
0.000957675
0.00104469
0.00113022
0.00122169
0.000103703
0.000232434
0.000369329
0.000480265
0.000582428
0.000680232
0.000775585
0.000868456
0.000957906
0.00104378
0.00112852
0.00121872
0.000104356
0.000234694
0.000374377
0.000485468
0.000587009
0.000683909
0.000778121
0.000869712
0.000957877
0.00104268
0.00112673
0.00121627
0.000104994
0.000236599
0.000379081
0.000490371
0.000591265
0.000687242
0.000780332
0.000870676
0.000957633
0.00104144
0.00112478
0.00121316
0.000105621
0.00023817
0.000383447
0.000494997
0.000595232
0.000690281
0.000782265
0.00087141
0.000957207
0.00104005
0.00112265
0.00121001
0.000106228
0.00023945
0.000387496
0.000499373
0.000598947
0.000693069
0.000783961
0.000871923
0.000956611
0.00103854
0.00112033
0.00120637
0.000106817
0.00024047
0.000391219
0.000503502
0.000602417
0.000695612
0.000785427
0.000872265
0.000955882
0.00103692
0.00111792
0.00120288
0.000107392
0.000241245
0.000394634
0.000507397
0.000605683
0.000697948
0.000786711
0.000872442
0.000955036
0.0010352
0.00111541
0.00119937
0.000107951
0.000241814
0.000397735
0.000511068
0.00060874
0.000700095
0.000787816
0.000872475
0.000954072
0.00103338
0.00111274
0.00119538
0.000108491
0.000242187
0.000400529
0.000514531
0.000611624
0.000702065
0.000788764
0.00087238
0.00095302
0.00103148
0.00110993
0.00119129
0.000109005
0.0002424
0.000403033
0.000517772
0.000614331
0.000703881
0.000789578
0.00087218
0.00095188
0.00102949
0.00110705
0.0011879
0.00010951
0.000242463
0.000405245
0.000520808
0.000616878
0.000705559
0.000790274
0.000871887
0.00095066
0.00102741
0.00110406
0.00118398
0.000109989
0.000242392
0.000407173
0.000523653
0.000619276
0.000707108
0.000790854
0.000871495
0.000949366
0.00102527
0.00110105
0.00118067
0.000110451
0.000242215
0.000408825
0.0005263
0.000621533
0.000708532
0.000791329
0.000871026
0.000948005
0.00102306
0.00109801
0.00117691
0.000110897
0.000241933
0.00041021
0.00052874
0.000623654
0.000709847
0.000791716
0.000870481
0.000946582
0.00102081
0.00109501
0.00117387
0.00011132
0.000241578
0.000411353
0.000530988
0.000625635
0.000711054
0.000792021
0.000869868
0.000945107
0.00101853
0.0010921
0.00117111
0.000111724
0.000241146
0.000412242
0.000533055
0.000627491
0.000712165
0.000792238
0.0008692
0.000943588
0.00101624
0.00108919
0.00116758
0.000112107
0.000240636
0.000412907
0.000534925
0.000629224
0.00071318
0.000792388
0.000868468
0.00094203
0.00101393
0.00108631
0.00116452
0.000112466
0.000240094
0.000413337
0.000536608
0.000630829
0.000714111
0.000792469
0.000867692
0.000940438
0.00101161
0.0010834
0.00116093
0.000112815
0.000239495
0.00041357
0.000538098
0.000632317
0.000714956
0.000792491
0.000866863
0.000938818
0.00100928
0.00108051
0.00115784
0.000113152
0.000238858
0.000413593
0.000539419
0.000633691
0.000715725
0.000792447
0.000865998
0.000937172
0.00100694
0.00107759
0.00115408
0.000113457
0.000238201
0.000413442
0.000540554
0.000634943
0.000716414
0.000792355
0.000865095
0.000935504
0.00100459
0.00107468
0.00115082
0.000113749
0.00023752
0.000413106
0.000541523
0.000636084
0.000717024
0.000792209
0.000864156
0.000933812
0.00100223
0.00107175
0.00114705
0.000114034
0.000236824
0.000412621
0.000542302
0.000637106
0.000717568
0.000792018
0.000863184
0.000932101
0.000999874
0.00106885
0.00114404
0.000114284
0.000236111
0.000411971
0.000542923
0.000638018
0.000718036
0.000791773
0.000862174
0.000930374
0.000997519
0.00106601
0.00114134
0.000114529
0.000235393
0.000411183
0.00054337
0.000638814
0.00071844
0.000791489
0.000861144
0.000928637
0.000995166
0.00106319
0.00113795
0.000114753
0.000234671
0.000410266
0.000543658
0.000639502
0.000718766
0.000791162
0.00086009
0.000926893
0.000992821
0.00106038
0.00113463
0.000114955
0.000233945
0.000409231
0.000543792
0.000640084
0.000719038
0.000790794
0.000859008
0.000925135
0.000990482
0.00105757
0.00113119
0.00011515
0.000233206
0.000408085
0.000543767
0.000640553
0.000719235
0.000790386
0.00085791
0.000923371
0.000988137
0.00105465
0.00112711
0.000115319
0.000232402
0.000406819
0.000543595
0.00064091
0.000719372
0.00078994
0.000856786
0.000921599
0.000985775
0.0010517
0.00112398
0.000115479
0.000231579
0.000405467
0.000543281
0.000641163
0.000719441
0.000789456
0.000855649
0.00091982
0.000983406
0.00104876
0.00112043
0.000115613
0.000230702
0.000404001
0.000542819
0.000641306
0.000719443
0.000788936
0.000854488
0.000918027
0.000981027
0.00104584
0.00111742
0.00011573
0.000229827
0.000402382
0.00054222
0.000641345
0.000719379
0.000788379
0.00085331
0.000916227
0.000978648
0.00104292
0.0011138
0.000115836
0.000228993
0.000400637
0.00054148
0.000641275
0.000719254
0.000787793
0.000852114
0.000914421
0.000976263
0.00104003
0.00111098
0.000115928
0.000228116
0.0003988
0.000540555
0.00064109
0.000719064
0.000787167
0.000850903
0.000912604
0.000973884
0.00103716
0.00110748
0.000115996
0.000227277
0.000396885
0.000539486
0.000640776
0.000718807
0.000786511
0.000849676
0.000910783
0.000971506
0.00103432
0.00110465
0.000116053
0.000226443
0.000394936
0.000538262
0.000640336
0.000718476
0.000785812
0.000848421
0.000908954
0.000969132
0.0010315
0.00110133
0.000116098
0.000225619
0.000392886
0.000536902
0.000639786
0.000718062
0.000785072
0.000847154
0.00090711
0.000966755
0.0010287
0.00109854
0.000116131
0.00022484
0.000390785
0.000535412
0.000639125
0.000717589
0.000784294
0.000845869
0.000905267
0.000964381
0.00102586
0.00109488
0.000116148
0.00022403
0.000388638
0.000533779
0.000638338
0.000717029
0.000783475
0.000844559
0.000903413
0.000962014
0.00102304
0.00109143
0.000116149
0.000223275
0.000386456
0.000532047
0.000637441
0.0007164
0.000782616
0.000843237
0.000901556
0.000959653
0.00102025
0.00108887
0.000116143
0.000222526
0.000384241
0.00053018
0.000636419
0.000715699
0.000781722
0.000841897
0.000899694
0.000957292
0.0010175
0.00108601
0.000116116
0.000221792
0.000382
0.000528204
0.000635286
0.000714915
0.000780784
0.000840537
0.000897828
0.000954942
0.00101479
0.00108323
0.000116073
0.000221067
0.000379737
0.000526127
0.000634042
0.000714049
0.000779801
0.000839158
0.000895959
0.000952599
0.00101208
0.00107986
0.000116026
0.000220397
0.000377463
0.000523952
0.000632675
0.000713107
0.000778779
0.00083776
0.000894083
0.000950275
0.00100939
0.00107688
0.000115962
0.0002197
0.000375178
0.000521665
0.000631199
0.000712088
0.000777702
0.000836341
0.000892211
0.000947955
0.00100667
0.00107317
0.000115881
0.000219055
0.000372885
0.000519292
0.000629603
0.000710972
0.000776591
0.000834908
0.000890337
0.000945641
0.00100397
0.0010709
0.000115798
0.000218425
0.000370622
0.000516863
0.000627915
0.000709786
0.000775421
0.000833445
0.00088845
0.000943323
0.00100128
0.00106798
0.000115696
0.000217832
0.000368325
0.000514333
0.000626107
0.000708508
0.000774205
0.000831964
0.000886563
0.000941014
0.000998611
0.00106483
0.000115578
0.00021722
0.000366032
0.000511731
0.000624182
0.000707139
0.000772934
0.000830452
0.000884666
0.000938719
0.000995941
0.00106136
0.000115451
0.000216657
0.00036375
0.000509064
0.000622171
0.000705688
0.000771608
0.000828921
0.000882766
0.000936421
0.00099328
0.00105833
0.000115315
0.000216109
0.000361511
0.000506317
0.000620047
0.000704145
0.000770233
0.000827364
0.000880865
0.000934135
0.000990598
0.00105485
0.000115165
0.000215602
0.000359253
0.000503538
0.000617827
0.000702518
0.000768798
0.00082578
0.000878953
0.000931851
0.000987913
0.00105188
0.00011501
0.000215104
0.00035704
0.000500707
0.000615499
0.000700806
0.000767303
0.000824172
0.000877038
0.000929561
0.000985226
0.00104855
0.000114819
0.000214601
0.00035484
0.000497808
0.00061309
0.000698997
0.000765755
0.00082253
0.000875106
0.000927273
0.000982547
0.00104575
0.000114659
0.00021415
0.000352675
0.000494885
0.000610588
0.000697103
0.000764148
0.000820857
0.000873169
0.000924982
0.000979853
0.00104239
0.000114453
0.000213718
0.000350524
0.000491927
0.000607985
0.000695116
0.000762472
0.00081915
0.000871212
0.000922693
0.00097717
0.00103931
0.000114225
0.000213304
0.000348402
0.000488928
0.000605315
0.00069305
0.000760732
0.000817411
0.000869249
0.000920397
0.000974471
0.00103588
0.000114012
0.000212887
0.000346318
0.000485886
0.000602545
0.000690891
0.000758934
0.00081563
0.000867267
0.000918094
0.000971774
0.00103282
0.00011378
0.000212557
0.000344248
0.000482833
0.000599704
0.000688633
0.000757068
0.000813813
0.000865268
0.000915781
0.000969055
0.00102928
0.000113541
0.000212171
0.000342255
0.000479796
0.000596798
0.000686297
0.000755127
0.000811957
0.000863254
0.000913464
0.000966318
0.0010258
0.000113284
0.000211866
0.000340217
0.000476679
0.00059378
0.000683858
0.000753109
0.000810053
0.000861211
0.000911137
0.000963586
0.00102265
0.000113018
0.000211578
0.000338285
0.00047359
0.000590736
0.000681344
0.000751037
0.000808108
0.000859155
0.000908805
0.00096086
0.00101932
0.000112714
0.00021125
0.000336363
0.000470476
0.000587601
0.000678752
0.000748886
0.000806126
0.000857078
0.000906461
0.000958138
0.00101645
0.000112427
0.000210984
0.000334497
0.000467371
0.000584398
0.00067606
0.000746661
0.000804084
0.000854965
0.000904106
0.000955399
0.00101307
0.000112148
0.000210788
0.00033268
0.000464256
0.000581148
0.000673281
0.000744361
0.000802001
0.000852835
0.000901737
0.000952654
0.00101002
0.000111828
0.000210549
0.000330886
0.000461152
0.000577834
0.000670429
0.000741989
0.000799866
0.000850667
0.000899353
0.00094989
0.00100657
0.000111479
0.000210348
0.000329148
0.000458044
0.00057448
0.000667491
0.00073954
0.000797678
0.000848474
0.000896946
0.000947137
0.00100369
0.000111152
0.000210179
0.000327423
0.000454958
0.000571064
0.000664468
0.000737011
0.000795427
0.000846247
0.00089452
0.000944365
0.00100043
0.000110801
0.00021002
0.000325785
0.000451866
0.000567591
0.000661351
0.000734412
0.00079312
0.000843979
0.000892076
0.000941568
0.000996827
0.000110438
0.00020989
0.000324197
0.000448811
0.000564094
0.000658182
0.000731724
0.000790754
0.000841673
0.000889617
0.000938765
0.00099347
0.000110065
0.00020978
0.000322638
0.000445784
0.00056055
0.000654926
0.000728955
0.000788321
0.000839329
0.00088713
0.000935977
0.000990621
0.00010968
0.000209687
0.000321132
0.000442782
0.000556959
0.000651596
0.000726115
0.000785825
0.000836943
0.000884624
0.000933164
0.000987333
0.000109256
0.000209601
0.000319668
0.000439763
0.000553368
0.000648199
0.000723182
0.000783277
0.00083451
0.000882084
0.000930349
0.000984371
0.000108849
0.000209545
0.000318253
0.000436797
0.000549736
0.00064471
0.000720177
0.000780644
0.000832037
0.000879523
0.000927512
0.00098087
0.000108427
0.000209514
0.000316896
0.000433888
0.000546051
0.000641163
0.000717075
0.000777945
0.000829519
0.000876938
0.000924685
0.000977932
0.000107991
0.000209509
0.000315595
0.000431002
0.00054238
0.000637537
0.000713888
0.000775172
0.000826942
0.000874325
0.000921862
0.000975057
0.000107543
0.000209525
0.00031431
0.00042813
0.000538671
0.000633841
0.000710626
0.000772324
0.000824301
0.000871663
0.000919031
0.000972484
0.000107081
0.000209564
0.000313123
0.000425337
0.000534972
0.000630111
0.000707281
0.000769407
0.000821616
0.000868981
0.000916175
0.000968817
0.000106608
0.000209631
0.000311991
0.000422556
0.00053124
0.000626293
0.000703861
0.000766416
0.000818874
0.000866272
0.000913325
0.000965802
0.000106095
0.000209663
0.000310878
0.000419829
0.000527512
0.000622425
0.000700356
0.000763336
0.000816069
0.000863527
0.00091042
0.000962244
0.000105621
0.000209793
0.000309832
0.00041716
0.000523782
0.000618478
0.000696762
0.000760176
0.000813201
0.000860734
0.000907492
0.000958931
0.000105079
0.000209883
0.00030885
0.000414547
0.000520038
0.000614519
0.000693077
0.000756926
0.000810275
0.000857898
0.000904503
0.000955264
0.000104552
0.000210014
0.000307934
0.000412001
0.000516341
0.000610482
0.000689316
0.0007536
0.000807274
0.000855008
0.000901497
0.000952126
0.00010401
0.000210137
0.000307049
0.000409486
0.00051263
0.000606409
0.000685471
0.00075018
0.000804194
0.00085206
0.000898422
0.000948453
0.000103453
0.00021034
0.000306235
0.000407046
0.000508942
0.000602273
0.000681535
0.000746683
0.000801043
0.000849069
0.000895341
0.000945214
0.000102854
0.000210466
0.000305489
0.000404678
0.000505258
0.000598128
0.000677529
0.000743089
0.000797823
0.000846013
0.000892189
0.000941562
0.000102266
0.000210686
0.000304776
0.000402352
0.000501607
0.000593908
0.000673444
0.000739388
0.000794507
0.000842895
0.000889042
0.000938574
0.000101664
0.0002109
0.000304141
0.000400112
0.000497999
0.000589692
0.00066927
0.000735601
0.000791108
0.000839699
0.00088584
0.000935112
0.000101046
0.000211154
0.000303582
0.000397924
0.000494407
0.00058543
0.000665028
0.000731732
0.000787627
0.000836457
0.000882575
0.00093135
0.000100411
0.000211441
0.000303058
0.000395828
0.000490868
0.000581154
0.000660702
0.000727754
0.000784052
0.000833138
0.000879285
0.000928034
9.97607e-05
0.00021172
0.000302615
0.000393825
0.000487358
0.000576843
0.000656314
0.000723684
0.000780377
0.000829739
0.000875965
0.000924896
9.90663e-05
0.000211983
0.000302214
0.000391886
0.00048391
0.00057251
0.00065186
0.000719506
0.000776608
0.000826269
0.000872596
0.000921268
9.83805e-05
0.000212302
0.000301895
0.000390013
0.000480501
0.000568185
0.000647326
0.00071524
0.000772746
0.000822714
0.000869179
0.000917846
9.76497e-05
0.000212602
0.000301618
0.000388251
0.000477175
0.000563873
0.00064272
0.000710864
0.000768769
0.000819073
0.000865655
0.00091395
9.69255e-05
0.000212964
0.000301435
0.0003866
0.000473906
0.000559552
0.000638066
0.000706381
0.000764681
0.000815332
0.000862045
0.00090993
9.62143e-05
0.000213395
0.000301303
0.000384998
0.000470727
0.000555234
0.000633346
0.000701814
0.000760492
0.000811494
0.000858382
0.000906251
9.54303e-05
0.000213748
0.000301227
0.000383551
0.000467618
0.00055095
0.000628572
0.000697157
0.000756184
0.000807552
0.00085459
0.000902179
9.4647e-05
0.000214165
0.000301245
0.000382157
0.000464585
0.000546683
0.000623768
0.000692373
0.000751754
0.0008035
0.000850759
0.00089858
9.38468e-05
0.000214632
0.000301316
0.000380893
0.000461672
0.00054247
0.000618917
0.000687512
0.000747217
0.000799334
0.000846833
0.000894504
9.2998e-05
0.00021504
0.000301481
0.000379732
0.000458844
0.000538267
0.000614045
0.000682554
0.000742558
0.000795078
0.000842842
0.000890341
9.21505e-05
0.000215521
0.000301712
0.000378707
0.000456121
0.000534136
0.000609118
0.000677512
0.000737766
0.000790668
0.000838688
0.000886479
9.12838e-05
0.000216054
0.000301967
0.000377756
0.000453509
0.000530062
0.000604189
0.000672349
0.000732831
0.000786106
0.000834401
0.000882073
9.03943e-05
0.000216552
0.000302373
0.00037696
0.000451053
0.000526086
0.000599251
0.000667124
0.000727789
0.00078143
0.000830036
0.000878002
8.94791e-05
0.000217118
0.00030281
0.00037629
0.000448724
0.00052217
0.000594336
0.000661823
0.000722611
0.000776586
0.000825498
0.00087337
8.85101e-05
0.000217629
0.000303363
0.000375779
0.000446542
0.000518382
0.000589411
0.000656447
0.000717291
0.000771623
0.000820889
0.000869061
8.75085e-05
0.000218198
0.000303946
0.000375367
0.000444514
0.000514706
0.000584545
0.000651032
0.000711871
0.0007665
0.000816123
0.00086431
8.65359e-05
0.000218864
0.000304661
0.000375129
0.000442656
0.000511156
0.000579697
0.000645544
0.000706342
0.000761248
0.000811225
0.000859429
8.55176e-05
0.000219494
0.000305458
0.00037502
0.000441004
0.000507758
0.000574935
0.000640018
0.000700659
0.000755797
0.000806058
0.000854493
8.4434e-05
0.000220128
0.000306345
0.000375098
0.000439516
0.000504528
0.000570257
0.000634487
0.000694864
0.000750178
0.000800745
0.000849197
8.3312e-05
0.000220778
0.000307323
0.000375339
0.000438242
0.000501489
0.000565683
0.000628932
0.000688973
0.000744412
0.000795313
0.000844254
8.22123e-05
0.000221542
0.000308398
0.000375737
0.000437221
0.00049866
0.000561224
0.000623412
0.000682981
0.000738447
0.000789618
0.00083846
8.10343e-05
0.000222251
0.000309582
0.000376353
0.000436419
0.000496073
0.000556952
0.000617912
0.000676909
0.000732336
0.00078372
0.000832725
7.98054e-05
0.000222986
0.000310877
0.000377174
0.000435909
0.000493758
0.000552876
0.000612506
0.000670779
0.00072605
0.000777575
0.000826465
7.8591e-05
0.000223834
0.000312286
0.000378182
0.000435664
0.000491739
0.000549009
0.000607183
0.000664615
0.000719618
0.000771221
0.000820122
7.7292e-05
0.000224631
0.000313826
0.000379452
0.000435741
0.000490059
0.000545439
0.00060201
0.000658436
0.000713023
0.000764626
0.000813401
7.59593e-05
0.000225472
0.000315494
0.000380949
0.00043617
0.000488748
0.000542159
0.000597015
0.000652256
0.000706276
0.000757808
0.000806943
7.45546e-05
0.000226312
0.000317283
0.000382756
0.000436978
0.000487841
0.000539256
0.000592231
0.000646081
0.000699369
0.000750678
0.000799644
7.31117e-05
0.000227187
0.000319272
0.000384853
0.000438218
0.000487413
0.00053673
0.000587695
0.000639972
0.000692332
0.000743308
0.000792371
7.15818e-05
0.000228007
0.000321417
0.000387301
0.000439895
0.000487439
0.000534608
0.000583418
0.000633946
0.000685149
0.000735611
0.000784332
6.99903e-05
0.000228873
0.000323754
0.000390084
0.000442014
0.000487933
0.000532912
0.000579409
0.000627949
0.000677788
0.000727527
0.000776105
6.83107e-05
0.00022967
0.000326257
0.00039325
0.00044454
0.000488859
0.000531642
0.000575783
0.000622159
0.000670353
0.000719134
0.000767585
6.62516e-05
0.000228789
0.000326926
0.000395461
0.000446124
0.00048918
0.000529979
0.000572044
0.000616211
0.000663017
0.00071064
0.000758653
0.000402244
0.00151126
0.00152124
0.00178287
0.00178589
0.000534242
0.000524392
0.000448715
0.00124469
0.00193725
0.00367766
0.00193252
0.00393134
0.00133763
0.000447183
0.00132171
0.0014046
0.00483769
0.00481945
0.0013094
0.000539579
0.000414269
0.00664084
0.00337404
0.000401413
0.00152485
0.000446301
0.000643552
0.00181659
0.00110275
0.00165257
0.0003236
0.00143606
0.00364291
0.00382937
0.000731782
0.000163956
0.00143588
0.000452359
0.00198297
0.00148677
0.00128299
0.00331671
0.000898353
0.000302365
0.000412813
0.00532035
0.00343298
0.000305658
0.000541759
0.000732185
0.000450879
0.000368692
0.00124157
0.00154371
0.0014729
0.00221314
0.00128256
0.00143687
0.000444029
0.000470731
0.000324164
0.0012414
0.00267889
0.00339848
0.00148741
0.000811584
0.000350121
0.000632325
0.00215491
0.00161432
0.00492363
0.000449779
0.000965116
0.00340279
0.00127207
0.00125633
0.00124029
0.00517786
0.000449568
0.00427847
0.00124124
0.000209418
0.000408847
0.00265838
0.00148358
0.000813583
0.00124125
0.00252635
0.000223009
0.000535015
0.00133529
0.00124132
0.00138332
0.000366115
0.00127101
0.000640716
0.00165099
0.00124177
0.000829914
0.000652928
0.00244387
0.00128191
0.00145436
0.00124001
0.000362754
0.000329327
0.000417918
0.0011747
0.000151333
0.00130006
0.00124078
0.00039909
0.00135303
0.00124075
0.000460264
0.00298719
0.00226898
0.00143066
0.0041564
0.000666658
0.00354051
0.00136725
0.00277268
0.0044586
0.00270286
0.001398
0.000251052
0.00362155
0.00124131
3.95708e-05
0.00124223
5.7463e-05
0.00145587
0.000444747
0.0015841
0.000194754
0.00229621
0.000399558
0.00167974
0.00279839
0.000569455
0.00047609
0.000280094
9.97224e-05
0.00152499
0.000471484
0.00149103
0.00128484
0.000579492
0.000338124
0.000453151
0.00124361
0.00414054
0.00282929
0.001244
0.00041092
0.00126861
0.00153778
0.00185772
0.00346245
0.00132725
0.00445993
0.00248929
0.000558086
0.00278855
0.000268354
0.000279083
0.000548832
0.0012405
0.00145424
0.000968388
0.00153982
0.00287426
0.0012417
0.00147059
0.00123992
0.000434963
0.00175776
0.00120332
0.00026806
0.00508203
0.00417043
0.000469776
0.00129245
0.000422748
0.00125584
0.00124048
0.000104435
0.00124083
0.00219901
0.00124632
0.000383128
0.00153122
0.00041988
0.000530183
0.000556949
0.000451477
0.00124089
0.00209954
0.00134235
0.000470702
0.000298864
0.000413407
0.000467658
0.00638971
0.00416876
0.00308883
0.00099579
0.00273379
5.50313e-05
0.00125761
0.000455379
0.000430033
0.00124007
0.000466493
0.00240508
0.00132297
0.00211532
0.000216016
0.00041164
0.0013407
0.000440048
0.001248
0.00124943
0.00265876
0.00148008
0.00126324
0.00100927
0.00371293
5.22536e-05
0.00447066
0.00124264
0.000794621
0.00136012
0.00047221
0.000421683
0.00136283
0.000966436
0.000434879
0.00416708
0.00512113
0.00416711
0.00256695
6.48361e-05
5.54375e-05
5.79983e-05
0.00130881
0.00376229
0.000470415
0.00209156
0.000967011
0.00221576
0.000333785
0.000263537
0.00278382
0.000848782
0.000429608
0.00194808
0.000445259
0.00273271
0.000475576
0.0027533
0.00416215
7.17358e-05
0.00047562
0.00118596
0.000458487
0.00132684
0.00115155
0.000559039
0.00484689
0.00128227
4.54834e-05
4.62874e-05
0.00128789
0.000203501
5.79852e-05
0.00030726
0.000157089
0.000368431
0.000200111
0.00047098
0.000465004
0.00119843
0.000555444
0.00148496
4.78394e-05
0.00119982
0.000590662
0.00015638
0.00135903
4.66456e-05
4.63403e-05
0.000462789
0.000385032
0.00141346
4.54981e-05
0.00532227
0.000394203
0.000400719
0.000912099
0.00045218
0.00167137
0.00299948
0.00138987
0.000310292
0.00124089
0.0043696
0.0044064
0.00540141
0.000203967
0.00124555
0.00118431
0.000469948
0.00378579
4.94083e-05
0.00108419
0.00124014
8.17228e-05
0.00420079
0.00195663
0.00135593
0.000227247
0.000454418
0.00108334
0.00127128
0.00124171
0.00125698
0.000202459
0.00117723
0.00124816
0.00205329
0.00124279
0.00125616
0.00126368
0.00123999
0.00693329
0.0012417
0.00169783
0.000656926
0.000457416
0.0012421
0.000489505
0.00213937
4.63411e-05
5.35012e-05
0.00153161
0.00132552
0.00123048
0.00124041
0.00126615
0.00583974
0.00169929
4.18001e-05
0.00124167
0.00484169
0.000391803
0.0012201
0.0022448
0.000118674
0.000294365
0.00120963
0.00140573
0.000605423
0.00181799
0.00134668
0.00124117
0.00138606
0.000979005
0.00480679
0.000110942
0.00045393
0.000133402
0.00137091
0.000482126
0.000447922
0.00127886
0.00125077
0.00165089
0.000891053
0.00161066
0.00126033
0.000455607
0.000332859
0.000569626
0.0012464
0.00381423
0.000430459
0.00348524
0.00126116
0.00105521
0.00180208
0.00042038
0.000463044
0.00136276
0.00133954
0.00124405
0.00293946
0.00127182
0.00177771
0.00227329
0.000786778
0.00207775
0.00378762
0.000164283
0.00127723
0.00133442
7.26431e-05
0.000418183
0.00124121
0.00124893
0.00124156
0.00117985
0.00560395
0.000435277
0.000124845
0.000451201
0.000502119
0.00125657
0.000153059
0.000465483
0.00124087
0.00124642
0.000441607
0.00124655
0.00270456
0.0012441
0.000461256
0.00124078
0.00189386
0.00427707
0.00488779
0.000438739
0.0044898
0.00124021
0.00116531
0.00104498
0.000989689
0.00239247
0.000313522
4.07859e-05
0.00185063
0.000440514
0.00180992
0.000872841
0.00131721
0.000411125
0.00111559
0.00124045
0.00186674
0.000439136
5.39191e-05
0.00213199
0.00186772
0.000571563
0.00160151
4.81097e-05
0.000431785
0.00427431
0.000501972
0.0031943
0.00449525
0.00230688
0.00121712
0.00115959
0.00141395
0.000522374
0.000447216
5.86397e-05
0.00360184
0.000293286
9.47359e-05
0.00124202
0.00168493
0.00121026
0.000409763
0.00124085
0.000356702
0.000777176
0.00029145
0.00021407
0.000471141
0.00240532
0.0044304
0.000108716
5.12066e-05
0.00133102
0.00292257
0.00112438
0.00392841
0.00091044
0.000310213
0.00130531
0.00396405
0.000180481
0.00095652
0.00113436
0.00045517
0.000249638
0.00110477
0.000446838
0.000338833
0.00127259
0.00286423
0.000415741
0.000656972
0.00125988
0.000215328
0.00174607
0.000431672
0.00120245
0.000834062
0.0032368
0.00124117
0.000574615
4.26222e-05
0.0011213
0.00136122
0.00155789
0.00395474
0.0013222
0.00127755
0.000471608
0.00124113
0.000326296
0.00135583
4.48628e-05
0.000108657
0.00175037
4.74917e-05
0.000698569
0.00110628
0.00148796
0.00126819
0.00334003
0.00122332
0.000357302
0.000396851
0.00181206
0.0013311
0.00344569
0.00166739
0.00251495
0.00160245
0.00124077
0.00441536
0.00123987
0.00525806
0.000561433
0.00420641
0.000866944
0.000490908
0.000433027
0.00469054
0.00251835
0.000436657
6.84278e-05
0.0012413
0.00124133
0.000999205
0.000621969
0.000416666
0.00231359
0.00519038
0.00115528
0.000357786
0.0012406
0.00336275
0.000470768
0.00154673
0.00116476
0.000491573
0.000120586
0.00041698
0.00239058
0.00124105
0.00318657
0.00124316
0.00125912
0.00284153
0.000368328
0.00146482
0.00125291
0.00130147
0.00527766
0.000410638
0.000660458
0.00128995
0.000116096
0.00416318
0.00124442
0.000538511
7.93983e-05
0.000470231
0.00315256
0.00124029
0.00134421
0.00116948
0.000456072
0.00125048
0.000611113
0.000939338
0.00112976
0.00171666
0.000380337
0.00135358
0.000856461
0.0010221
0.00133457
0.000572122
0.0047189
0.00332859
0.00124069
0.00124135
0.00147654
0.000465039
0.000466686
0.000455583
0.00154421
0.00059253
0.00398177
0.00106157
0.000430697
0.00138416
0.00179231
0.000314042
0.00124044
0.00198965
0.000307562
0.000297035
0.00115796
0.00124618
6.85815e-05
0.000212462
0.00122319
0.0035665
0.000705301
0.000403043
0.00124994
3.62341e-05
0.000521358
0.000653071
0.00155989
0.000908622
0.000709624
0.00129591
0.00117827
0.000419798
0.00012993
0.00125939
0.00124215
0.00130379
0.00104394
0.00152463
0.00124016
0.00202678
0.00124132
0.00105403
0.000476565
0.00466179
0.00124915
0.0013407
0.000423624
0.000383602
0.00188153
0.000219509
0.00668821
0.000580162
0.00126201
0.00124094
0.00285139
0.00128386
0.000257928
0.00140105
0.00170863
0.002268
0.00222443
0.000132667
0.00124077
0.00055932
0.00103584
0.000429611
0.00128617
0.00480806
0.00038957
0.00032851
0.00176028
0.00467984
0.00144024
0.000468904
0.00203464
0.000451374
0.00124122
0.00188526
0.00115985
0.00124061
0.000120595
0.00124134
4.71728e-05
0.00220803
0.000997184
0.00127695
0.000902465
0.0004312
0.0017283
0.00137898
0.00115714
0.00536633
0.00212024
0.00267185
0.00489716
0.00146373
0.00124098
0.00124148
0.00044974
0.00490559
5.95469e-05
0.000496224
0.00127905
4.67882e-05
4.19569e-05
4.53738e-05
0.00290305
0.000596673
3.89086e-05
0.00124126
0.00013245
0.000123108
0.000456149
0.0012423
0.00225518
0.00134365
0.000128973
0.00124404
0.00154167
0.00124117
0.00493281
0.00212136
0.00131663
0.000422982
0.00124015
0.00396745
0.00040949
0.00124245
0.00140648
0.0012407
0.00137267
0.00293687
0.00120808
0.00101474
0.0020419
0.000444991
0.00124029
0.000940477
0.00124155
0.00050712
0.00265955
0.00315608
0.000424457
0.00255101
0.00149106
0.00125831
0.000153616
0.000867475
0.00102947
5.18443e-05
0.000411789
0.00124014
0.0001476
0.000518349
0.00059341
0.000890295
0.00109171
0.00129418
0.000446199
0.004102
0.00109207
0.00326026
0.00140814
0.00285664
0.000130381
0.000662696
0.000921109
0.000114623
0.000411628
0.00135567
0.00175883
0.00118187
0.00052243
0.000874936
0.00107843
0.00389847
0.0017022
0.000319005
0.000213522
0.00412316
0.000176169
0.0012481
5.32214e-05
0.00148342
0.00127541
0.00136285
0.00100877
0.000829082
0.00545593
0.00124715
0.0030868
0.00233278
0.00125637
0.00277667
0.00263137
0.00124193
0.00137167
0.00459246
4.39952e-05
0.000446719
4.52747e-05
0.000571469
0.00183393
0.000941502
0.00124066
0.00124153
0.000410435
0.00597558
0.000915203
0.00145778
0.00124084
0.00148859
0.0022094
0.00461862
0.00130979
0.00149582
0.00132946
0.00165802
0.00122774
0.00498183
0.000375573
0.00043067
0.00124104
0.0005186
0.00135175
0.00162296
0.00204418
4.86478e-05
0.00351291
0.00166556
0.00064901
0.00375787
0.00241916
0.00330188
0.00538161
0.00116096
4.01772e-05
0.00124121
0.00118397
0.000470476
0.00257703
0.00275408
0.00102424
0.000455067
0.0012413
0.00124433
0.00134907
0.000149913
0.00125715
0.00124125
0.00120218
0.00262117
0.000468021
0.00136918
5.26834e-05
0.00104086
0.0016064
0.000395127
0.00125322
0.00119445
0.000141582
0.000401856
0.000171478
0.00124431
0.00124011
0.00101885
0.00149565
0.0022427
0.00113518
0.00124142
0.00408037
0.00126146
0.00174547
0.00292233