/*--------------------------------*- C++ -*----------------------------------*\
| =========                 |                                                 |
| \\      /  F ield         | OpenFOAM: The Open Source CFD Toolbox           |
|  \\    /   O peration     | Version:  2.3.1                                 |
|   \\  /    A nd           | Web:      www.OpenFOAM.org                      |
|    \\/     M anipulation  |                                                 |
\*---------------------------------------------------------------------------*/
FoamFile
{
    version     2.0;
    format      ascii;
    class       volScalarField;
    location    "0.21";
    object      epsilon;
}
// * * * * * * * * * * * * * * * * * * * * * * * * * * * * * * * * * * * * * //

dimensions      [0 2 -3 0 0 0 0];

internalField   nonuniform List<scalar> 
15166
(
1069.06
990.439
982.435
1041.49
1080.65
1106.53
1075.89
992.663
892.961
778.152
663.414
566.77
1069.9
870.351
913.967
979.783
1020.91
1041.5
1008.31
931.004
836.416
730.535
625.259
529.508
1082.18
776.498
848.313
919.625
963.213
980.388
946.989
875.056
786.093
687.997
590.19
497.646
1098.25
705.902
789.779
863.774
908.756
923.513
891.101
824.206
740.903
649.629
557.828
467.604
1115.76
652.736
738.774
813.218
858.41
871.204
840.247
777.995
700.087
614.856
528.271
441.695
1134.73
611.823
694.07
767.54
812.117
823.284
793.928
735.922
663.054
583.171
501.162
417.767
1155.27
579.789
654.604
726.116
769.521
779.335
751.617
697.517
629.28
554.154
476.085
394.901
1177
554.488
619.639
688.452
730.293
738.976
712.864
662.339
598.345
527.487
453.022
374.849
1199.72
534.431
588.598
654.15
694.15
701.862
677.276
630.01
569.906
502.914
431.776
356.521
1223.11
518.52
560.962
622.839
660.818
667.674
644.519
600.234
543.673
480.207
412.231
340.269
1246.93
505.934
536.287
594.186
630.037
636.126
614.293
572.727
519.413
459.184
394.199
325.327
1271.08
496.033
514.19
567.9
601.566
606.957
586.336
547.25
496.912
439.688
377.672
312.543
1295.38
488.335
494.351
543.724
575.185
579.929
560.418
523.595
475.994
421.578
362.47
301.082
1319.72
482.451
476.497
521.439
550.702
554.84
536.336
501.587
456.5
404.698
348.225
288.959
1343.94
478.069
460.393
500.858
527.941
531.501
513.916
481.06
438.305
388.964
335.055
278.846
1368.02
474.941
445.836
481.811
506.749
509.757
493.008
461.891
421.282
374.246
322.794
269.35
1391.79
472.861
432.65
464.153
486.985
489.46
473.468
443.943
405.33
360.466
311.328
260.28
1415.3
471.66
420.69
447.759
468.526
470.479
455.172
427.123
390.364
347.539
300.58
251.768
1438.44
471.194
409.82
432.51
451.26
452.704
438.022
411.32
376.294
335.389
290.506
243.938
1461.08
471.349
399.928
418.308
435.087
436.032
421.911
396.46
363.044
323.958
281.039
236.55
1483.18
472.02
390.913
405.063
419.919
420.368
406.758
382.462
350.555
313.171
272.091
229.352
1504.79
473.13
382.685
392.695
405.674
405.637
392.488
369.26
338.758
302.981
263.611
222.47
1525.92
474.593
375.165
381.131
392.281
391.76
379.027
356.789
327.607
293.336
255.534
215.633
1546.31
476.37
368.288
370.31
379.676
378.674
366.315
344.994
317.05
284.196
247.85
209.232
1566.15
478.41
361.993
360.172
367.799
366.319
354.299
333.832
307.044
275.513
240.526
203.067
1585.27
480.642
356.223
350.666
356.596
354.643
342.926
323.25
297.548
267.264
233.551
197.315
1603.73
483.045
350.929
341.742
346.02
343.594
332.148
313.211
288.526
259.41
226.909
191.825
1621.55
485.581
346.069
333.359
336.026
333.131
321.924
303.675
279.945
251.932
220.58
186.706
1638.65
488.237
341.607
325.477
326.574
323.211
312.22
294.607
271.776
244.805
214.563
181.921
1655.1
491.008
337.505
318.061
317.627
313.8
302.997
285.981
263.991
238.008
208.81
177.188
1670.87
493.816
333.73
311.075
309.151
304.861
294.225
277.763
256.567
231.515
203.327
172.786
1685.78
496.694
330.254
304.492
301.115
296.366
285.874
269.931
249.481
225.313
198.074
168.463
1699.84
499.617
327.059
298.284
293.492
288.285
277.92
262.458
242.712
219.382
193.059
164.463
1713.46
502.543
324.114
292.427
286.256
280.594
270.335
255.323
236.241
213.709
188.257
160.535
1726.13
505.476
321.408
286.895
279.382
273.269
263.099
248.507
230.054
208.277
183.663
156.872
1738
508.423
318.915
281.67
272.848
266.286
256.188
241.99
224.13
203.072
179.254
153.231
1749.36
511.361
316.625
276.729
266.633
259.626
249.587
235.756
218.455
198.08
175.02
149.78
1759.8
514.285
314.518
272.055
260.719
253.268
243.275
229.786
213.015
193.291
170.965
146.593
1769.6
517.196
312.583
267.632
255.087
247.199
237.236
224.066
207.797
188.698
167.074
143.454
1778.74
520.079
310.805
263.444
249.723
241.399
231.457
218.586
202.792
184.287
163.353
140.577
1786.89
522.971
309.172
259.48
244.611
235.856
225.922
213.328
197.986
180.047
159.753
137.513
1794.41
525.97
307.684
255.726
239.739
230.554
220.62
208.285
193.368
175.968
156.263
134.422
1801.02
528.977
306.323
252.168
235.092
225.482
215.536
203.442
188.93
172.042
152.907
131.695
1807.03
532.055
305.113
248.801
230.66
220.627
210.66
198.791
184.663
168.263
149.666
128.954
1812.32
535.052
304.071
245.617
226.428
215.977
205.982
194.322
180.557
164.621
146.548
126.462
1816.79
537.874
303.172
242.615
222.389
211.52
201.49
190.026
176.603
161.111
143.533
123.869
1820.52
540.752
302.394
239.798
218.533
207.251
197.177
185.893
172.798
157.727
140.634
121.591
1823.69
543.455
301.729
237.136
214.855
203.162
193.033
181.916
169.13
154.463
137.833
119.241
1826.1
546.075
301.132
234.63
211.349
199.241
189.049
178.086
165.593
151.312
135.133
117.107
1827.79
548.623
300.655
232.268
208.004
195.483
185.218
174.396
162.18
148.268
132.515
114.89
1828.76
551.013
300.256
230.042
204.814
191.877
181.533
170.84
158.886
145.326
129.993
112.906
1829.11
553.452
299.936
227.949
201.773
188.419
177.989
167.413
155.706
142.484
127.558
110.975
1828.81
555.705
299.684
225.972
198.873
185.103
174.58
164.109
152.637
139.736
125.192
108.916
1827.77
557.915
299.498
224.119
196.109
181.921
171.298
160.923
149.672
137.08
122.905
107.067
1826.22
560.051
299.374
222.375
193.472
178.87
168.14
157.85
146.808
134.51
120.695
105.3
1824.1
562.11
299.308
220.737
190.958
175.943
165.101
154.886
144.04
132.026
118.566
103.672
1821.22
563.979
299.293
219.199
188.564
173.135
162.174
152.026
141.366
129.622
116.504
101.998
1817.8
565.909
299.333
217.765
186.282
170.442
159.359
149.267
138.782
127.298
114.514
100.459
1813.87
567.639
299.423
216.424
184.111
167.862
156.647
146.604
136.284
125.049
112.571
98.6845
1809.15
569.313
299.535
215.161
182.039
165.385
154.037
144.035
133.87
122.871
110.687
97.1297
1803.98
570.844
299.718
213.993
180.07
163.01
151.524
141.554
131.534
120.762
108.868
95.7153
1798.29
572.397
299.944
212.906
178.2
160.735
149.105
139.16
129.276
118.72
107.113
94.3875
1792.01
573.772
300.208
211.899
176.419
158.555
146.777
136.849
127.093
116.745
105.413
93.0084
1785.09
575.091
300.486
210.975
174.731
156.467
144.536
134.619
124.982
114.832
103.769
91.7167
1777.67
576.259
300.831
210.117
173.129
154.467
142.381
132.467
122.941
112.981
102.172
90.3719
1769.6
577.395
301.186
209.33
171.614
152.553
140.308
130.389
120.967
111.19
100.624
89.1248
1761.41
578.494
301.582
208.622
170.178
150.723
138.313
128.387
119.059
109.454
99.1188
87.8346
1751.98
579.426
302.003
207.974
168.821
148.973
136.396
126.454
117.214
107.773
97.6606
86.6683
1742.56
580.302
302.467
207.394
167.544
147.303
134.554
124.59
115.432
106.145
96.2464
85.5032
1732.81
581.068
302.963
206.88
166.337
145.707
132.784
122.792
113.707
104.569
94.8789
84.4262
1722.15
581.831
303.477
206.437
165.208
144.184
131.084
121.06
112.042
103.044
93.551
83.3086
1711.1
582.294
304.032
206.05
164.148
142.736
129.452
119.39
110.432
101.567
92.2638
82.2879
1699.51
582.913
304.581
205.707
163.154
141.357
127.889
117.781
108.876
100.139
91.0213
81.2945
1687.49
583.294
305.237
205.458
162.242
140.051
126.393
116.234
107.376
98.7566
89.8157
80.2938
1674.95
583.586
305.846
205.246
161.383
138.808
124.957
114.744
105.926
97.4183
88.646
79.3471
1662.4
583.952
306.51
205.101
160.596
137.63
123.585
113.31
104.526
96.1247
87.5103
78.3542
1648.94
584.086
307.183
205.009
159.878
136.52
122.274
111.934
103.178
94.8733
86.4074
77.4359
1634.71
584.014
307.871
204.977
159.22
135.474
121.024
110.611
101.878
93.6647
85.3383
76.5068
1620.48
584.061
308.61
205.001
158.628
134.489
119.832
109.342
100.626
92.4964
84.3031
75.6491
1606.04
583.942
309.364
205.086
158.096
133.567
118.698
108.126
99.4207
91.3693
83.2975
74.7494
1590.69
583.715
310.164
205.225
157.63
132.707
117.622
106.962
98.2596
90.2798
82.3248
73.9353
1575.09
583.415
310.948
205.428
157.23
131.91
116.6
105.848
97.1438
89.2272
81.3847
73.1812
1559.06
582.991
311.748
205.677
156.887
131.169
115.636
104.786
96.0738
88.2141
80.4791
72.4212
1542.58
582.485
312.596
205.98
156.609
130.49
114.728
103.775
95.0482
87.2403
79.6019
71.6294
1525.69
581.91
313.463
206.341
156.397
129.871
113.874
102.812
94.0653
86.3017
78.7552
70.9159
1508.79
581.257
314.358
206.78
156.239
129.31
113.075
101.896
93.1255
85.4016
77.9376
70.1771
1491.09
580.456
315.269
207.266
156.148
128.813
112.33
101.031
92.2272
84.5352
77.1487
69.5328
1473.04
579.553
316.195
207.796
156.129
128.374
111.642
100.215
91.3711
83.7068
76.3915
68.8498
1454.6
578.547
317.141
208.393
156.164
127.998
111.01
99.4469
90.5585
82.9142
75.6622
68.1938
1435.77
577.457
318.149
209.065
156.272
127.684
110.43
98.7275
89.7888
82.1575
74.9555
67.4885
1416.57
576.246
319.124
209.775
156.438
127.425
109.905
98.0544
89.0584
81.4336
74.2833
66.9928
1397
574.915
320.117
210.563
156.679
127.235
109.436
97.4311
88.3732
80.7512
73.6509
66.4454
1377.47
573.595
321.171
211.411
156.986
127.107
109.023
96.8587
87.73
80.1021
73.0475
65.9571
1356.85
571.991
322.225
212.318
157.363
127.049
108.669
96.3357
87.1298
79.4907
72.4756
65.4587
1336.61
570.413
323.292
213.286
157.816
127.048
108.373
95.8644
86.572
78.9158
71.9355
65.0052
1315.7
568.64
324.358
214.311
158.33
127.12
108.137
95.4429
86.0595
78.3808
71.4264
64.5212
1294.45
566.844
325.482
215.421
158.927
127.26
107.961
95.075
85.5917
77.8815
70.9461
64.1117
1272.85
564.808
326.603
216.593
159.6
127.476
107.849
94.7582
85.169
77.4205
70.498
63.6878
1251.32
562.842
327.735
217.828
160.358
127.758
107.799
94.4972
84.7917
76.999
70.0832
63.3242
1229.13
560.581
328.904
219.151
161.196
128.125
107.816
94.2951
84.4645
76.6189
69.7008
62.9279
1206.63
558.259
330.068
220.536
162.114
128.562
107.902
94.1488
84.184
76.2782
69.3489
62.6133
1183.81
555.794
331.234
222.009
163.127
129.085
108.056
94.0601
83.9532
75.9785
69.0365
62.3465
1160.72
553.169
332.438
223.55
164.226
129.691
108.287
94.0371
83.7773
75.7266
68.7635
62.0659
1137.37
550.457
333.632
225.157
165.425
130.39
108.593
94.0774
83.656
75.5198
68.5267
61.8137
1114.06
547.669
334.864
226.858
166.716
131.183
108.977
94.1856
83.5895
75.358
68.3284
61.6435
1090.2
544.678
336.083
228.654
168.116
132.068
109.446
94.3625
83.5811
75.2482
68.1756
61.4749
1066.38
541.604
337.334
230.52
169.615
133.051
110.005
94.6149
83.6344
75.1857
68.0608
61.3791
1042.03
538.297
338.559
232.462
171.229
134.144
110.655
94.9466
83.7541
75.1804
67.9967
61.3146
1017.1
534.801
339.807
234.528
172.955
135.353
111.405
95.3587
83.9415
75.2327
67.9786
61.2622
992.505
531.316
341.086
236.653
174.807
136.676
112.26
95.8565
84.2013
75.3428
68.0081
61.2641
967.467
527.613
342.344
238.908
176.796
138.13
113.223
96.4525
84.5402
75.5185
68.0911
61.2789
942.177
523.71
343.614
241.248
178.908
139.711
114.305
97.1456
84.9605
75.7642
68.2353
61.3878
916.996
519.732
344.863
243.695
181.168
141.445
115.511
97.9463
85.472
76.0869
68.4507
61.5457
891.379
515.527
346.119
246.233
183.579
143.323
116.857
98.8578
86.076
76.4834
68.7161
61.6643
865.549
511.118
347.413
248.915
186.152
145.363
118.342
99.8932
86.7785
76.9584
69.0442
61.8989
839.575
506.592
348.635
251.686
188.877
147.564
119.979
101.055
87.587
77.5236
69.4528
62.1858
813.429
501.867
349.896
254.585
191.781
149.961
121.779
102.36
88.5142
78.187
69.9363
62.5621
787.407
497.03
351.13
257.589
194.874
152.547
123.768
103.822
89.5756
78.9592
70.5159
63.012
761.3
491.95
352.382
260.754
198.171
155.347
125.948
105.451
90.7765
79.8532
71.2017
63.5863
734.629
486.6
353.572
264.03
201.679
158.379
128.349
107.27
92.1315
80.8759
71.9989
64.2276
708.009
481.134
354.76
267.47
205.402
161.656
130.974
109.289
93.6563
82.0304
72.8884
64.8683
681.572
475.487
355.941
271.041
209.382
165.204
133.854
111.524
95.3658
83.3384
73.9079
65.6983
655.135
469.608
357.101
274.774
213.623
169.046
137.016
114.013
97.287
84.827
75.0892
66.6561
628.244
463.489
358.232
278.698
218.138
173.209
140.495
116.773
99.4384
86.5047
76.4118
67.7446
601.63
457.201
359.361
282.789
222.977
177.731
144.312
119.844
101.851
88.3956
77.9187
68.9594
575.103
450.684
360.48
287.093
228.149
182.647
148.517
123.255
104.555
90.5261
79.6142
70.3584
548.225
443.949
361.602
291.651
233.73
188.015
153.17
127.069
107.598
92.9396
81.5507
71.958
521.627
437.027
362.774
296.48
239.755
193.899
158.318
131.334
111.028
95.6773
83.7502
73.7429
494.984
429.938
364.035
301.678
246.312
200.376
164.053
136.116
114.894
98.7725
86.2406
75.7537
468.465
422.714
365.491
307.341
253.507
207.564
170.455
141.49
119.264
102.272
89.0512
78.0544
441.862
415.49
367.305
313.669
261.524
215.586
177.655
147.559
124.212
106.246
92.2582
80.6705
415.312
408.563
369.887
320.996
270.621
224.655
185.797
154.44
129.822
110.753
95.8836
83.6442
388.563
402.744
373.977
329.875
281.134
234.983
195.018
162.231
136.193
115.859
99.9728
86.9088
361.606
401.04
381.724
341.629
293.768
247.008
205.643
171.197
143.499
121.703
104.607
90.5634
330.85
403.807
391.025
354.819
306.742
259.205
216.455
180.614
151.205
127.978
109.61
94.6666
199.093
0.00125308
6.05689
4.53284
4.49979
11.7707
11.2419
81.7009
42.7131
24.6567
7.07055
0.00260982
0.0213212
551.378
11.5271
0.000846808
460.86
0.202013
0.191995
0.000824678
2.40797
5.63223
0.238843
0.0174647
204.719
6.01931
3.96857
15.1278
15.7431
45.9156
13.581
365.453
0.00107202
6.89906
0.0199924
2.25195
87.6234
11.7806
30.0216
0.00281316
0.226032
0.000789915
0.112552
21.9698
24.3032
5.41815
0.0540611
0.0139062
24.5586
2.37794
2.20438
78.2322
18.9967
0.000749079
204.862
0.00116185
0.00404208
0.000788937
11.8133
10.6798
3.45937
379.959
0.000746605
0.00844947
0.671375
0.00119343
70.9849
18.5651
323.402
17.4543
175.98
0.0457131
28.6656
40.6106
0.0179281
0.000748258
38.925
0.000701761
0.0742963
11.3473
0.196716
0.000704009
75.9827
21.118
0.00795952
66.2454
70.2236
0.000739904
4.7875
26.3158
19.7912
24.5015
0.000741544
0.000972421
54.6719
0.000753101
14.1459
0.00798219
0.000728694
71.9779
138.314
1.08601
0.000782061
0.00112184
0.000708954
69.2529
64.8117
102.397
17.9747
0.0262096
0.520177
0.000710614
8.31361
0.000906384
0.00073446
8.3101
0.010358
1.73749
65.4209
0.597817
114.244
0.019294
167.954
0.93735
0.296245
50.0619
0.00103317
1334.17
0.0213933
0.000742437
123.663
0.000758846
88.9359
0.00112502
4.13893
0.00143039
28.9888
12.255
8.75559
0.00170971
0.00835696
2.78587
14.5648
0.123985
31.7201
188.689
17.6317
0.00119854
58.4325
22.0564
0.51752
7.97846
0.000704968
0.2489
0.58335
0.000717027
12.6308
0.000745248
84.141
0.0022768
0.016884
0.000853943
0.30171
0.00584773
2.55867
0.18131
314.857
30.8893
18.765
0.00069944
195.756
44.5758
206.392
0.00902626
0.000701116
17.2417
0.000707617
21.0566
0.695462
32.7742
330.712
3.06783
0.0776242
26.828
0.000794453
13.5986
0.000727304
0.000721524
30.5771
0.000735981
8.52777
0.000709573
200.39
0.00128981
16.2772
14.2671
11.0077
4.59731
0.000710595
391.409
60.3912
20.219
55.7637
9.26478
20.43
0.133386
0.16692
1.36425
36.8047
1.41933
142.664
49.8019
48.6156
35.1291
0.000722358
15.751
0.00578314
10.3531
407.542
21.4933
20.8848
60.6045
25.243
0.000719181
0.00072997
52.1664
66.3204
0.000755864
1436.41
0.0209793
166.583
0.275498
0.000707598
83.6279
9.49157
12.4409
11.8827
66.7164
32.0493
20.6741
0.467973
0.368847
30.852
90.048
191.262
135.47
84.3717
0.000831818
42.3854
16.5594
15.9885
40.3375
5.10235
3919.99
22.3534
1.67982
3.60208
19.3174
13.4603
25.2477
1.41343
12.9625
0.00720972
0.161421
576.042
13.4636
55.469
48.8907
7.33656
163.65
10.0075
0.0406677
166.626
88.351
86.2954
177.724
30.8516
106.199
29.866
27.7149
179.85
30.4215
27.3547
21.3365
23.7159
11.1498
11.6098
82.814
81.9475
1.95404
27.3142
162.79
99.8153
99.2249
16.6458
192.437
0.657516
85.9737
0.0658538
55.5828
6.57315
0.876272
335.066
203.384
0.538265
51.0054
33.7367
0.000736982
0.646565
0.486911
0.658265
41.429
0.000720372
93.3769
20.4869
0.088204
93.5385
40.8135
0.000721202
437.023
0.0271495
13.4781
9.92439
8961.26
51.0956
40.4192
17.2535
0.000714533
0.000725816
40.618
12.4486
0.000719719
10.2406
0.00070718
0.00072493
0.000741495
0.000707489
0.216996
0.000725109
0.00173097
117.041
50.3133
0.000755465
19.3785
0.00362104
76.475
146.308
85.5844
1060.53
13.994
0.000700956
0.000745521
0.0894613
0.683475
95.959
0.000700954
0.166173
25.2156
48.8214
5.00958
28.1398
25.8512
67.7633
970.498
2.53114
4.55549
0.000884778
0.00073546
1.41455
3.90407
0.224537
28.5687
51.5689
5027.57
166.658
2.92535
23.1076
62.5735
0.000733639
8.25667
46.3337
0.00148813
0.000731889
52.3614
3687.03
81.987
0.000712022
0.046462
3.95503
0.0146377
0.000734632
50.5372
6.32954
18.154
16.5212
0.000919273
885.814
0.000715045
1.52929
17.6216
0.0019858
0.00452351
87.1653
0.00308849
42.9169
311.836
81.178
24.4983
41.6519
100.08
0.000715129
0.000717647
0.000729022
71.2496
0.0793169
317.047
5260.35
4.5732
60.383
0.000727964
0.0380778
14.7527
0.000700458
0.000725012
98.2268
0.000717705
1.57254
52.2254
28.318
0.000701094
0.00247672
0.239167
0.221671
11.0905
0.375507
0.000704092
780.182
51.4844
0.80317
0.00520447
34.173
89.5216
0.00226205
15.5142
0.00216675
61.0779
0.000839511
12.8094
1.00434
0.000707091
72.4905
11.2222
170.867
0.00342206
9.27817
2.72588
0.00144931
90.0738
52.0678
2.33308
212.502
0.0143672
0.0433598
0.00464581
111.606
29.8427
0.191561
2.44452
4.11572
169.83
0.76311
84.414
1142.3
0.000703663
200.223
53.4974
10.4777
0.000702647
20.3026
88.9599
0.119613
85.131
23.8342
2.21108
0.30268
30.4684
119.969
0.000859833
0.00984126
52.5535
0.0307784
0.00192831
241.629
1047.05
0.031057
23.2814
49.263
0.537986
46.6504
27.6302
49.5254
19.5481
25.1548
0.000748788
0.179663
45.9484
18.792
111.165
22.2545
92.4886
176.83
955.166
70.39
2.37212
0.000726998
211.187
91.5039
43.8758
9.59361
1.06969
0.138074
10.3122
0.000753492
17.45
0.000732024
36.6158
9.87492
92.7581
29.7929
73.4553
111.374
113.673
27.9223
210.275
0.000744136
0.321789
55.1207
1393.78
7.7501
22.2999
0.000868576
0.0183209
5.69456
111.642
16.9569
0.000703403
0.0610965
0.000709564
0.0507991
20.1676
0.0265324
62.1511
2.81172
73.0592
0.411468
0.421444
300.075
655.557
0.000740082
0.000740648
5.49491
179.391
18.1442
12.2739
3.05399
29.1092
20.0927
0.000701004
0.706325
12.4765
0.00132204
73.7985
13.0978
27.3765
17.9925
0.0052982
0.000703423
0.0139585
0.0007141
25.3007
18.9246
124.013
21.4171
0.00073108
132.819
0.115264
119.665
1.77059
185.294
0.0262283
0.468651
0.000706175
39.4201
565.847
20.0199
4.24468
0.000700769
99.2013
42.5544
51.139
0.000714861
0.514407
53.6712
25.2411
0.00181582
1073.52
0.000909939
55.0557
26.9303
0.000873516
2.04868
0.131334
1.00135
0.000704089
0.000741806
71.3065
37.1486
20.1054
54.735
0.00132707
1.92561
0.202145
42.4293
8.33509
0.000997946
1.4874
404.348
0.00069978
0.00278031
26.9961
132.817
84.3641
0.000720299
693.092
24.4599
110.418
0.0185337
2.53397
145.788
0.000734477
102.072
2.469
18.3082
7.22961
42.0664
7.30468
89.6701
92.3813
16.0782
4879.7
0.000745102
0.000719077
136.084
44.8751
0.00128013
0.000723304
8.67027
0.000745333
49.3845
53.0784
1.05324
0.000712966
37.597
0.30482
22.0787
62.5765
26.1789
0.249868
2.32012
113.387
0.000738973
2.26875
58.3007
22.0935
16.9541
0.00224193
9.91585
2.50308
2780.05
0.000711786
2.52463
33.6012
18.5075
0.000774356
0.155172
29.5752
56.7628
72.7833
0.0564855
195.164
32.4911
0.291781
31.8607
0.000713038
0.00237784
8.25435
0.000699395
26.9836
0.000726118
115.501
0.004381
54.2982
0.000752841
0.913936
52.8982
119.922
6.94111
29.2892
0.363535
229.608
0.00746448
0.144976
17.1501
0.000702926
0.000745077
28.2146
0.359281
94.9212
26.2558
0.000762502
90.9787
105.879
81.8765
6.66316
164.783
96.3487
0.000740845
2391.99
4144.48
50.3229
0.000759722
0.00413276
261.25
55.3417
0.000708647
85.87
0.00070322
0.103662
289.037
0.000845759
17.0513
0.000720099
0.0598941
122.39
0.000762143
0.0010077
0.000734949
0.000933955
0.0130309
981.166
48.8349
0.297198
11.5266
0.000726451
46.0961
0.000729521
8.78909
1.66455
0.0144241
4.45553
0.0059161
69.8248
0.000730076
10487.6
3.81416
28.2207
203.711
4.79798
0.000702062
26.5449
175.404
1.99662
46.1898
55.5222
176.396
23.3802
0.0343088
26.8617
0.163799
0.001023
0.277706
4048.1
148.265
1.01408
0.0252533
21.2475
0.000915538
8.69594
49.5855
169.835
60.3158
57.5944
0.0284001
0.00174258
33.3545
25.0305
0.0461391
43.7471
0.0007205
119.737
208.377
0.000765356
167.988
46.2883
1.15191
0.143038
133.654
0.0147646
0.302856
12.4258
2.76131
2.61271
0.000752859
25.4421
0.104241
149.491
28.3584
80.604
5.67243
0.00218537
36.2093
0.000730435
0.00072384
10.6399
0.139984
1.66665
201.744
0.000701098
68.7039
0.141379
0.0544468
0.000805852
157.97
7.43244
0.33689
38.4479
0.0545387
310.548
3.94604
0.000716439
238.73
258.533
0.00154986
0.00304566
78.3516
24.9554
0.403701
234.953
0.0260342
1.83779
0.232789
0.362952
30.2266
94.8644
0.00073667
91.7203
22.6733
0.00686115
1.17088
1448.48
16.474
0.000731277
0.000706421
33.3504
24.0021
63.5468
0.000700422
32.3915
2.65597
32.8547
0.000923806
166.406
44.2348
0.00151992
16.9612
0.000739417
82.7422
32.6543
29.1084
40.8
0.000716493
0.000718411
9.8259
104.52
5.23251
35.9203
0.00070611
0.0411387
0.000736738
0.00188775
37.3229
0.0827729
0.334418
0.894548
22.3597
150.982
25.0196
61.7116
0.000728627
30.1707
35.8312
21.248
0.000738953
41.4044
0.000734441
0.000726832
0.147583
21.2752
0.0152912
334.97
35.7848
312.633
0.000760001
0.00131731
0.033892
111.367
4.19856
147.279
0.000725371
0.000716602
0.00191481
0.00287246
133.095
42.4932
83.9963
0.285773
0.0336112
3.54492
3.82756
57.9234
15.4143
58.3141
19.1343
0.000700155
178.622
0.00152907
1.62836
59.1494
26.7049
1.24752
0.594005
0.000934029
100.824
6.92235
18.3277
29.2633
0.000722335
67.889
40.801
170.014
0.00391294
56.2327
48.5199
53.8313
188.592
22.2908
55.5009
0.257117
806.889
4.06215
0.174352
121.09
0.000728798
89.3787
174.553
0.000708426
33.6916
0.0012897
103.119
102.574
1.62446
19.3937
107.164
91.8734
13.5201
0.918006
50.6415
9.44308
0.00530929
0.000709595
23.1739
0.0795526
18.3055
58.676
4.03211
51.2558
105.969
0.000717012
16.4629
464.1
244.659
10.4531
101.509
16.9803
198.521
97.7446
1.51469
0.015072
0.211796
69.2527
79.5177
0.20583
51.2051
56.4311
49.7509
11.2312
1.87864
9.83521
31.1303
0.000738495
227.997
89.5821
1.43862
0.000738414
24.8361
14.3626
17.6007
0.000730119
149.393
0.000728445
12.1367
0.166343
0.000732663
37.0546
81.6722
0.000704304
51.0308
28.5469
23.332
12.9888
40.7791
15.5803
37.543
53.2084
1.66268
0.000711208
0.00125814
34.5343
5.65065
0.0808228
0.000749427
84.2948
0.0017948
0.959785
0.232153
10.0703
8.72323
0.0607205
0.516888
402.853
165.252
25.0196
1374.77
54.1659
0.000707692
52.099
16.8022
174.033
0.000710348
5.45215
0.000737088
0.0008601
18.0116
3.63989
0.0306882
0.000800349
53.3356
2950.27
0.00238887
0.000728247
1.64201
8.87072
0.0147012
0.0814181
3095.09
0.526847
0.000795503
0.000726817
63.6143
21.3932
0.284324
0.062753
65.0484
195.02
30.0464
103.763
33.1741
0.000730516
15.4586
0.000722817
130.925
15.9622
2851.12
6.15529
0.136295
0.000940051
92.8129
0.00073983
0.000712694
0.00171148
13.8853
19.0755
58.4714
0.000718931
15.542
0.000726628
523.109
58.5297
0.000744601
127.398
6.06721
0.000728726
0.000765763
0.0239629
133.017
5.2017
0.0164271
0.000726853
0.000711956
135.663
92.1968
21.0774
32.5391
0.454392
34.8846
0.000718376
0.00394191
6.34997
210.324
45.0542
0.00313204
0.000731252
34.0407
0.000738552
88.2632
141.529
6.62479
0.0357618
91.9708
15.4645
3.09346
0.000727724
6.8877
89.8063
86.0934
0.00208713
0.0210232
29.9864
3001.99
0.0498027
4.20588
0.000705524
0.000707711
0.00073907
0.00979816
32.6766
66.2041
0.0359772
99.3524
21.0874
420.977
8.1879
0.0104143
0.00266458
0.00601436
2.5281
48.4772
20.7192
0.000753058
90.9772
0.000716195
0.00607053
61.7005
47.1286
0.0247575
4.90189
9.08689
0.00103731
0.721193
2.37171
0.000722258
0.000928959
140.151
0.000882421
0.0007536
112.063
25.8324
3155.12
8.88532
1346.02
0.000857419
0.000713109
3449.8
17.7407
1.08378
3.49052
0.0534082
19.1011
0.940149
980.93
44.61
67.2054
143.297
104.768
1.05646
27.9429
100.119
0.00661901
80.8659
0.000984806
37.4226
6.19907
0.724627
7.2651
6.9878
3.24721
1.93866
39.8086
59.6746
46.0131
29.2163
50.834
34.1691
5.72049
0.00107575
0.000724249
0.220395
239.899
0.000725499
75.7961
0.00071164
0.00362243
186.598
113.456
42.6344
74.6916
972.931
73.4054
17.7444
41.2264
0.000723771
16.8671
70.8073
0.000760091
192.542
0.00244806
721.514
251.026
295.857
14.5172
84.9582
4.09519
0.492963
16.4729
89.6037
20.8392
11.5666
5.38355
78.1253
0.126936
124.743
333.555
0.00353092
32.3351
0.000739798
0.000977274
17.7339
126.56
167.086
14.9876
0.564404
0.202446
0.302779
0.000872203
23.0497
0.00087415
153.474
0.000817909
0.115135
259.311
5.54126
2.66449
188.86
154.305
0.00188182
0.000738707
0.182968
13.9674
0.15555
113.319
0.0348721
26.2679
4.62808
27.6457
56.2695
0.000861488
0.000719531
123.189
0.676849
5.56549
53.2363
27.4921
36.5052
0.0037065
156.432
56.851
90.7292
0.000822466
1.16682
25.0828
79.964
0.92254
14.1604
0.000750802
10.9924
0.000712564
219.646
0.00420159
35.1381
0.161696
9.35758
0.000761945
1916.75
0.000739066
135.896
0.0146747
0.000726716
0.00634682
14.8425
0.000729205
0.000733253
9.45213
0.0244465
20.7935
0.0593731
0.000776016
22.9764
6.42358
40.481
0.000778587
111.686
4.60692
354.042
35.4212
30.4572
58.7808
93.0502
4.22481
297.455
248.659
98.881
0.000753322
2.3822
25.8516
18.6572
0.00127396
0.0161627
21.2022
484.939
0.000735467
1.49445
100.254
0.000703353
55.006
63.6779
179.754
74.3497
49.7541
12.5426
0.315789
192.836
8.57108
69.1099
49.1943
52.7307
0.47279
0.000727182
34.834
0.00178221
0.000750508
0.000712539
181.29
0.000727535
0.00091661
17.1705
9284.6
2.66073
2.46426
50.1318
11.298
0.000727658
42.7508
225.672
0.0153373
4.70934
52.5241
49.6365
0.265486
0.0195883
0.00071708
0.000725767
0.0163967
0.0386194
25.9636
21.8384
83.4563
14.5209
14.1624
0.000985613
194.964
28.7759
0.000747829
23.3078
796.625
0.000736484
6.39497
120.516
41.2071
92.8559
0.660792
137.762
0.000850821
0.851677
0.000771082
0.00194792
0.000746815
59.5952
16.9157
0.0900725
0.000739299
0.000699379
190.003
28.907
2.51119
20.5456
5.73506
36.7139
18.5969
23.6651
27.269
0.000732233
0.444699
0.858332
0.326464
19.2455
73.4771
46.5417
85.3522
28.5367
83.9877
162.672
89.7089
47.5874
30.0282
0.125257
53.842
30.1536
0.0186663
79.5407
51.2481
10.1201
0.000715085
0.000742691
0.000866409
0.00117135
50.9501
0.000700016
110.137
50.8447
230.864
27.0551
0.000725877
11.5684
16.3125
58.2373
15.4907
29.7497
12.7482
0.000753395
0.000742222
0.00329301
0.163145
0.000711942
85.563
14.1258
1.6303
44.8272
14.0119
39.8071
118.678
0.000728193
19.3205
29.1939
0.000935728
0.0852369
53.7814
167.18
18.8974
4.79872
0.000751649
34.5305
40.5467
0.000948627
0.0110229
0.000722669
40.2087
0.00114812
0.491141
107.487
0.754805
0.0931141
20.4919
2868.4
0.000755756
28.1868
0.000707479
10.2935
23.3941
22.9062
15.6521
61.3988
29.9008
58.389
182.311
42.6215
0.000732261
0.00071821
0.0447075
0.191464
50.6941
4.60227
0.000731414
156.858
2.61801
0.00292946
49.3822
0.0509355
0.00275851
0.0298653
70.7453
0.00197217
0.000733152
21.9719
84.2667
23.5697
1.41833
54.2941
8.30324
0.000736928
16.954
0.136239
0.0640774
0.000790201
35.3463
18.6785
5.54537
132.715
89.3741
16.6461
2.7057
0.000725593
26.4671
0.000738905
213.686
0.00387046
33.7879
0.147346
51.0381
0.00752982
0.00345385
4.31753
3.43189
387.856
0.000859279
1.69278
47.1865
92.5187
6.38472
115.491
1.32036
0.000808456
0.000744791
56.9278
23.06
310.989
2.06673
0.155238
55.5862
21.5938
56.0739
0.0628198
0.000725487
0.000734779
1.25823
761.475
17.3027
100.067
0.000846669
0.00436508
1.06137
49.9676
23.4616
42.6629
58.6356
57.9159
0.000741894
0.000736341
173.85
134.601
58.634
417.671
48.9101
0.015323
126.856
0.000730407
227.251
0.0163745
0.0193416
0.000726663
0.0320582
0.162065
51.0373
45.9647
0.000754516
117.158
0.000720267
84.1099
141.242
0.000718219
0.442591
0.000754395
16.9962
0.300193
5.58887
0.00070314
13.4321
91.3547
13.2586
42.2375
1.18667
56.8796
1.50401
58.7034
33.9376
79.9558
28.8404
0.000945766
0.000735353
27.7544
0.446378
57.5298
0.000731779
117.399
0.000724325
0.0012986
0.169535
0.000720377
270.595
92.0224
0.000762185
20.3953
2.34321
0.162514
31.2918
0.00184446
0.000711037
43.982
8.40863
0.0201511
44.1746
2306.03
102.778
1.5803
176.415
0.209802
0.000735729
0.000892463
0.0259829
1.55105
54.8174
134.237
309.8
49.6133
55.6605
9.82555
1.85051
34.4211
145.776
55.7399
0.0332533
0.0801485
12.4332
78.8948
0.000792446
0.921003
16.2938
189.677
0.000726198
50.1479
0.000699352
0.00613499
130.583
0.000806937
65.6644
1134.54
0.000738004
171.642
0.000891816
8.89493
0.00609319
0.00103552
44.9415
16.7205
61.5719
7.81296
75.5092
351.908
105.995
5.96481
34.6003
20.008
0.000707082
165.684
0.0526012
83.8492
3.95752
9.73957
0.0301367
0.00107131
168.177
110.283
12.7624
45.8593
18.3035
0.00923729
0.000704504
0.000742965
1.60817
75.6891
16.0866
0.000715799
1141.25
20.644
0.00902914
0.132142
18.906
0.000706864
0.378314
0.000762215
0.000723779
21.9716
28.2512
0.0511544
0.00588695
0.000709908
27.3584
1.60427
20.9132
0.00227626
0.0296959
0.00697092
58.1199
104.345
1.20713
0.00072854
152.278
0.000777282
0.0319181
0.00394439
0.00138147
35.7256
61.6344
0.000726007
47.4512
0.00074874
0.000703722
0.000879026
50.7766
15.7679
53.5384
42.8588
18.7994
58.3989
0.0416604
0.000728753
0.00672945
0.00157261
2.89457
0.000715725
57.9805
10.8703
0.0311325
96.2573
0.339785
20.7684
1.82299
0.00179872
126.647
53.7963
20.7997
0.00688078
0.137601
204.242
0.000732741
8.23127
54.9529
0.00072423
0.66331
0.00269674
20.0597
0.000704998
81.7432
35.0714
1.67801
0.415619
95.3102
365.875
4.69206
119.847
0.00104639
18.671
0.000740706