/*--------------------------------*- C++ -*----------------------------------*\
| =========                 |                                                 |
| \\      /  F ield         | OpenFOAM: The Open Source CFD Toolbox           |
|  \\    /   O peration     | Version:  2.3.1                                 |
|   \\  /    A nd           | Web:      www.OpenFOAM.org                      |
|    \\/     M anipulation  |                                                 |
\*---------------------------------------------------------------------------*/
FoamFile
{
    version     2.0;
    format      ascii;
    class       volScalarField;
    location    "0.21";
    object      k;
}
// * * * * * * * * * * * * * * * * * * * * * * * * * * * * * * * * * * * * * //

dimensions      [0 2 -2 0 0 0 0];

internalField   nonuniform List<scalar> 
15166
(
1.07339
1.3066
1.67813
2.06896
2.37053
2.67138
2.88527
3.01166
3.05364
3.02825
2.94309
2.83155
1.07393
1.27717
1.68073
2.06034
2.36139
2.64168
2.83563
2.94586
2.97772
2.94767
2.86395
2.74367
1.08214
1.245
1.66462
2.03785
2.33836
2.60251
2.78133
2.8794
2.90431
2.87108
2.78762
2.66416
1.09284
1.21908
1.64251
2.0092
2.30706
2.55755
2.72439
2.81328
2.83331
2.79787
2.7138
2.58555
1.10441
1.19941
1.61901
1.97846
2.27171
2.50997
2.66676
2.74845
2.76489
2.72793
2.64346
2.51454
1.11689
1.18431
1.59521
1.94697
2.23431
2.46144
2.60956
2.68541
2.6991
2.66105
2.5762
2.44605
1.13032
1.1727
1.57171
1.91532
2.19584
2.41285
2.55335
2.62438
2.63591
2.59701
2.51149
2.37835
1.14448
1.16394
1.54901
1.88394
2.15707
2.36476
2.4985
2.56545
2.57524
2.53574
2.44998
2.31751
1.15915
1.15754
1.52745
1.85328
2.11856
2.31759
2.44524
2.50868
2.51703
2.47715
2.39146
2.25975
1.17416
1.15304
1.50714
1.8235
2.0807
2.27164
2.39372
2.45405
2.46119
2.42114
2.33601
2.20682
1.18936
1.15012
1.48812
1.7947
2.04368
2.22704
2.34399
2.40154
2.40767
2.36765
2.28359
2.15786
1.20466
1.14843
1.47032
1.76694
2.00768
2.18388
2.29605
2.35107
2.35635
2.31663
2.2344
2.11441
1.21997
1.14777
1.45372
1.74021
1.97276
2.14218
2.24988
2.30258
2.30714
2.26796
2.188
2.07386
1.23519
1.14796
1.43823
1.71451
1.93896
2.10192
2.20543
2.25598
2.25995
2.2214
2.14323
2.02953
1.25027
1.14878
1.42378
1.68984
1.90629
2.06312
2.16266
2.2112
2.21469
2.17691
2.1009
1.9919
1.26515
1.15013
1.41027
1.66615
1.87475
2.0257
2.1215
2.16817
2.17124
2.13432
2.06055
1.95538
1.27979
1.15186
1.3976
1.64341
1.84433
1.98965
2.08188
2.12678
2.12952
2.09351
2.02193
1.9199
1.29415
1.15391
1.38574
1.62159
1.81501
1.95493
2.04374
2.08697
2.08944
2.05438
1.9849
1.88564
1.30819
1.1562
1.37459
1.60065
1.78672
1.92144
2.00701
2.04866
2.0509
2.01681
1.94946
1.85359
1.32188
1.15863
1.3641
1.58054
1.75947
1.88918
1.97162
2.01176
2.01381
1.98072
1.91549
1.82285
1.3352
1.16118
1.35419
1.56123
1.73318
1.85806
1.93751
1.97621
1.97811
1.94598
1.8827
1.79213
1.34815
1.16378
1.3448
1.54268
1.70785
1.82805
1.90461
1.94193
1.94369
1.91251
1.85099
1.76225
1.3607
1.1664
1.3359
1.52483
1.68341
1.79909
1.87288
1.90887
1.91051
1.88021
1.82025
1.73273
1.37283
1.16902
1.32743
1.50766
1.65983
1.77115
1.84226
1.87697
1.87849
1.84902
1.79046
1.70425
1.38454
1.17162
1.31935
1.49116
1.63709
1.74418
1.81269
1.84616
1.84756
1.81886
1.76161
1.67684
1.3958
1.17416
1.31163
1.47526
1.61514
1.71813
1.78413
1.8164
1.81767
1.78969
1.73369
1.65051
1.40664
1.17664
1.30422
1.45993
1.59395
1.69297
1.75653
1.78763
1.78877
1.76146
1.70673
1.62551
1.41704
1.17906
1.29712
1.44515
1.57348
1.66864
1.72985
1.7598
1.7608
1.73414
1.68073
1.60196
1.42698
1.1814
1.29027
1.4309
1.55371
1.64512
1.70403
1.73288
1.73372
1.70771
1.65563
1.57908
1.43649
1.18365
1.28367
1.41713
1.53459
1.62237
1.67905
1.70681
1.7075
1.68211
1.63132
1.55656
1.44555
1.18583
1.27727
1.40382
1.5161
1.60035
1.65487
1.68156
1.68209
1.6573
1.60779
1.53491
1.45415
1.18792
1.27109
1.39095
1.49821
1.57904
1.63145
1.65709
1.65746
1.63325
1.58495
1.51374
1.46229
1.18992
1.26509
1.3785
1.48091
1.55841
1.60876
1.63338
1.63358
1.60993
1.56283
1.49342
1.47003
1.19184
1.25927
1.36644
1.46414
1.53842
1.58676
1.61038
1.61041
1.5873
1.54136
1.47356
1.47727
1.19367
1.25361
1.35476
1.44791
1.51904
1.56544
1.58807
1.58793
1.56534
1.52054
1.45443
1.48411
1.19543
1.24811
1.34343
1.43218
1.50026
1.54475
1.56642
1.5661
1.54402
1.50032
1.43575
1.49051
1.1971
1.24275
1.33244
1.41692
1.48205
1.52468
1.5454
1.5449
1.5233
1.4807
1.41797
1.49647
1.1987
1.23753
1.32176
1.40212
1.46437
1.5052
1.52499
1.52429
1.50317
1.46167
1.40085
1.50202
1.20023
1.23245
1.3114
1.38777
1.44722
1.48628
1.50515
1.50427
1.48362
1.44319
1.38389
1.50714
1.2017
1.22749
1.30132
1.37384
1.43057
1.4679
1.48588
1.48482
1.46463
1.42529
1.36799
1.5118
1.20311
1.22264
1.29153
1.36031
1.4144
1.45005
1.46714
1.46589
1.44613
1.4077
1.35075
1.51601
1.20443
1.2179
1.28201
1.34717
1.3987
1.43271
1.44893
1.44748
1.42811
1.39046
1.33384
1.51979
1.20567
1.21328
1.27276
1.33441
1.38344
1.41584
1.43121
1.42956
1.41055
1.37368
1.31832
1.52314
1.20681
1.20876
1.26375
1.32201
1.36861
1.39944
1.41397
1.41211
1.39344
1.35731
1.30295
1.52607
1.20783
1.20435
1.255
1.30995
1.35418
1.38349
1.39719
1.39512
1.37677
1.34139
1.28837
1.52859
1.20871
1.20005
1.2465
1.29822
1.34015
1.36797
1.38086
1.37857
1.36052
1.32584
1.27366
1.5307
1.20951
1.19586
1.23821
1.28679
1.32651
1.35287
1.36496
1.36245
1.34467
1.31072
1.26004
1.53242
1.21017
1.19177
1.23015
1.27567
1.31323
1.33817
1.34947
1.34673
1.32921
1.29598
1.24637
1.53375
1.21072
1.18776
1.2223
1.26485
1.30031
1.32385
1.33436
1.33139
1.31413
1.28163
1.23343
1.53469
1.21119
1.18383
1.21465
1.25432
1.28772
1.3099
1.31964
1.31642
1.29941
1.26758
1.2203
1.53525
1.21156
1.17997
1.20719
1.24407
1.27547
1.2963
1.30528
1.30182
1.28503
1.25388
1.20782
1.53545
1.21189
1.17619
1.19991
1.2341
1.26353
1.28305
1.29128
1.28757
1.27099
1.24051
1.19569
1.53527
1.21212
1.17248
1.19281
1.22438
1.25191
1.27014
1.27763
1.27366
1.25728
1.22743
1.1833
1.53474
1.2123
1.16884
1.18588
1.21492
1.24058
1.25755
1.26431
1.26008
1.2439
1.21467
1.17179
1.53385
1.21241
1.16527
1.17912
1.20569
1.22954
1.24528
1.25132
1.24683
1.23082
1.20224
1.1607
1.53262
1.21245
1.16177
1.17252
1.1967
1.21878
1.23332
1.23864
1.23389
1.21806
1.19014
1.14999
1.53104
1.2124
1.15833
1.16608
1.18794
1.20829
1.22166
1.22627
1.22125
1.2056
1.17832
1.1392
1.52912
1.21232
1.15497
1.15979
1.17939
1.19807
1.21028
1.2142
1.20892
1.19343
1.16677
1.12873
1.52687
1.21215
1.15168
1.15366
1.17106
1.1881
1.19919
1.20243
1.19688
1.18155
1.15542
1.1177
1.52428
1.21195
1.14847
1.14767
1.16293
1.17838
1.18836
1.19094
1.18513
1.16993
1.14431
1.10746
1.52136
1.21168
1.14532
1.14182
1.155
1.1689
1.1778
1.17972
1.17364
1.15857
1.13349
1.09784
1.51813
1.21136
1.14223
1.13612
1.14727
1.15965
1.1675
1.16876
1.16242
1.14747
1.12294
1.08851
1.51458
1.21098
1.13922
1.13055
1.13972
1.15063
1.15745
1.15807
1.15147
1.13664
1.11263
1.07909
1.51071
1.21056
1.13628
1.12513
1.13237
1.14183
1.14764
1.14764
1.14077
1.12605
1.10256
1.06991
1.50652
1.21009
1.13343
1.11984
1.1252
1.13325
1.13808
1.13746
1.13033
1.11571
1.09268
1.06065
1.50202
1.20961
1.13063
1.11469
1.1182
1.12488
1.12875
1.12752
1.12013
1.1056
1.08302
1.05175
1.49723
1.20905
1.12792
1.10967
1.11138
1.11672
1.11965
1.11783
1.11017
1.09573
1.07355
1.04282
1.49211
1.20846
1.12528
1.10478
1.10474
1.10877
1.11077
1.10836
1.10044
1.08607
1.06428
1.03432
1.48669
1.20786
1.12273
1.10003
1.09826
1.10101
1.1021
1.09912
1.09095
1.07663
1.05522
1.02594
1.48098
1.20718
1.12026
1.09541
1.09196
1.09345
1.09365
1.09011
1.08167
1.06741
1.04637
1.01787
1.47498
1.20648
1.11786
1.09093
1.08582
1.08607
1.08541
1.08131
1.07262
1.05839
1.0377
1.00974
1.46867
1.20572
1.11554
1.08658
1.07984
1.07889
1.07738
1.07273
1.06377
1.04958
1.02921
1.00192
1.46208
1.20496
1.1133
1.08236
1.07403
1.07189
1.06954
1.06435
1.05514
1.04098
1.02093
0.99428
1.45518
1.20417
1.11117
1.07828
1.06838
1.06508
1.06191
1.05619
1.04671
1.03257
1.01283
0.986733
1.44799
1.20334
1.1091
1.07434
1.06289
1.05844
1.05447
1.04822
1.03849
1.02436
1.0049
0.979402
1.44054
1.20246
1.10712
1.07052
1.05756
1.05199
1.04722
1.04046
1.03047
1.01634
0.997142
0.97199
1.4328
1.20152
1.10523
1.06685
1.0524
1.04571
1.04016
1.0329
1.02264
1.0085
0.989534
0.964777
1.42475
1.20057
1.10342
1.06331
1.0474
1.03961
1.03329
1.02552
1.01501
1.00085
0.982092
0.957638
1.41643
1.19961
1.10172
1.05991
1.04256
1.03369
1.02661
1.01835
1.00757
0.993388
0.974811
0.950732
1.40783
1.19859
1.10011
1.05666
1.03788
1.02794
1.02011
1.01136
1.00033
0.986104
0.967687
0.943831
1.39895
1.19755
1.09859
1.05355
1.03336
1.02237
1.0138
1.00455
0.993256
0.978987
0.960722
0.937255
1.38979
1.19646
1.09716
1.05059
1.02901
1.01697
1.00766
0.997929
0.986368
0.972037
0.953911
0.93088
1.38035
1.19534
1.09582
1.04776
1.02482
1.01175
1.00171
0.991496
0.979669
0.965273
0.947282
0.924573
1.37064
1.19418
1.09459
1.04509
1.0208
1.0067
0.995937
0.985251
0.973156
0.958688
0.940812
0.918296
1.36064
1.193
1.09346
1.04258
1.01695
1.00183
0.990346
0.979186
0.966819
0.952269
0.934493
0.912294
1.35038
1.19176
1.09243
1.04022
1.01327
0.997137
0.984935
0.973299
0.960662
0.946026
0.928332
0.906278
1.33985
1.19046
1.09149
1.03801
1.00976
0.992623
0.979707
0.967596
0.954681
0.939944
0.922315
0.900605
1.32903
1.18913
1.09066
1.03596
1.00643
0.988292
0.974662
0.962076
0.948881
0.934047
0.916484
0.894943
1.31794
1.18776
1.08993
1.03408
1.00328
0.984144
0.969803
0.956741
0.943263
0.928322
0.910811
0.889469
1.30657
1.18637
1.08932
1.03237
1.00032
0.980183
0.965126
0.951586
0.937822
0.922761
0.905262
0.883816
1.29493
1.18492
1.0888
1.03082
0.997542
0.976404
0.960635
0.946611
0.932554
0.917365
0.899895
0.878979
1.28301
1.18343
1.08839
1.02945
0.994959
0.972824
0.956336
0.941829
0.927484
0.912179
0.894764
0.874118
1.27084
1.18185
1.08809
1.02826
0.992569
0.96944
0.952231
0.937238
0.922595
0.907155
0.88977
0.869381
1.25838
1.18025
1.08789
1.02725
0.990379
0.96626
0.948324
0.932838
0.917892
0.902311
0.884947
0.864686
1.24565
1.17857
1.08781
1.02642
0.988397
0.963282
0.944616
0.928633
0.913376
0.897646
0.880282
0.860127
1.23266
1.17681
1.08783
1.02578
0.98662
0.960516
0.941112
0.924626
0.909056
0.893174
0.875795
0.855615
1.21939
1.175
1.08798
1.02534
0.985066
0.957967
0.937819
0.920822
0.904925
0.888872
0.871446
0.851343
1.20583
1.17316
1.08823
1.0251
0.983739
0.955644
0.934741
0.91722
0.900994
0.884764
0.867289
0.847175
1.19202
1.17118
1.08861
1.02507
0.982645
0.953547
0.931884
0.913831
0.897263
0.880844
0.863299
0.843211
1.17791
1.16915
1.08909
1.02525
0.981792
0.951695
0.929257
0.910664
0.893744
0.877128
0.859513
0.839347
1.16353
1.16704
1.08969
1.02564
0.981183
0.950084
0.926862
0.907715
0.890427
0.873597
0.855886
0.835795
1.14886
1.16489
1.09041
1.02627
0.980838
0.948732
0.924711
0.904993
0.887328
0.870277
0.85247
0.832419
1.13392
1.16266
1.09125
1.02712
0.980758
0.947645
0.922819
0.902519
0.884468
0.867191
0.849287
0.829161
1.1187
1.16031
1.0922
1.02819
0.980953
0.946839
0.92119
0.900291
0.881841
0.864323
0.846313
0.826174
1.10321
1.15783
1.09328
1.02952
0.981432
0.946323
0.91983
0.898317
0.87945
0.861675
0.843551
0.823494
1.08743
1.15528
1.09447
1.03111
0.982214
0.946107
0.918757
0.896611
0.877311
0.859281
0.841046
0.820927
1.07137
1.15259
1.09578
1.03295
0.983306
0.946201
0.917986
0.895185
0.875429
0.857111
0.838719
0.818622
1.05503
1.14981
1.0972
1.03505
0.984725
0.946633
0.917529
0.894057
0.873828
0.855213
0.836661
0.816475
1.03838
1.14701
1.09875
1.03745
0.986489
0.947416
0.91741
0.893239
0.872516
0.853589
0.834859
0.814565
1.02145
1.14399
1.10045
1.04013
0.988612
0.948565
0.917644
0.892744
0.871505
0.852233
0.833281
0.812829
1.00423
1.1409
1.10227
1.04311
0.991121
0.95011
0.918251
0.892603
0.87082
0.851184
0.832012
0.811401
0.986703
1.13771
1.1042
1.04641
0.994019
0.952061
0.919253
0.892831
0.870478
0.850464
0.831066
0.810366
0.968905
1.13426
1.10626
1.05002
0.99733
0.954459
0.920675
0.893453
0.870513
0.850116
0.830513
0.809609
0.950803
1.13075
1.10846
1.05396
1.00107
0.957306
0.922542
0.89448
0.870915
0.850081
0.830171
0.808742
0.9324
1.12712
1.11075
1.05825
1.00528
0.96064
0.924869
0.895934
0.871697
0.850381
0.830128
0.808363
0.913713
1.12325
1.1132
1.06289
1.00996
0.964481
0.927695
0.897852
0.872909
0.851093
0.830517
0.808474
0.894704
1.11931
1.11577
1.06792
1.01515
0.968892
0.931063
0.900278
0.874583
0.852223
0.831243
0.808879
0.875397
1.11508
1.1185
1.07334
1.02089
0.973891
0.935025
0.903258
0.876778
0.853843
0.832481
0.809897
0.85578
1.11069
1.12133
1.07917
1.02721
0.979531
0.939619
0.906832
0.879524
0.855987
0.834231
0.811468
0.835879
1.10621
1.12429
1.08543
1.03415
0.985856
0.944899
0.91106
0.882864
0.858689
0.836519
0.813367
0.815665
1.10147
1.12741
1.09215
1.04174
0.992917
0.950905
0.915967
0.886822
0.861904
0.839149
0.815207
0.795124
1.09648
1.13068
1.09934
1.05003
1.00078
0.957711
0.921619
0.891463
0.865745
0.842388
0.818007
0.774279
1.09123
1.13408
1.10705
1.05907
1.00951
0.965399
0.928117
0.896891
0.870336
0.846411
0.821714
0.753136
1.08592
1.13763
1.1153
1.06894
1.01918
0.974065
0.935532
0.903148
0.875653
0.850987
0.825711
0.731655
1.08022
1.14137
1.12416
1.0797
1.0299
0.98379
0.943965
0.91034
0.881812
0.856362
0.830409
0.709853
1.07426
1.14531
1.13367
1.09145
1.04178
0.994712
0.953531
0.918566
0.888878
0.862495
0.835834
0.687742
1.06823
1.14946
1.1439
1.10431
1.05497
1.00698
0.964398
0.927986
0.897029
0.869646
0.842257
0.665267
1.06178
1.15395
1.155
1.11843
1.06964
1.02077
0.976723
0.938739
0.906383
0.877855
0.8494
0.642443
1.05516
1.15881
1.16708
1.13402
1.08599
1.0363
0.990684
0.950959
0.91702
0.88721
0.857783
0.61921
1.04827
1.1642
1.18046
1.15133
1.10432
1.0538
1.00648
0.964816
0.929056
0.897726
0.867102
0.595566
1.04137
1.17053
1.19546
1.17079
1.12497
1.07359
1.02438
0.980537
0.942718
0.909734
0.877891
0.571392
1.03462
1.17837
1.2128
1.19294
1.14835
1.09599
1.04466
0.998308
0.958111
0.923162
0.889821
0.546609
1.02929
1.18892
1.23342
1.21842
1.1749
1.12126
1.06747
1.01829
0.975332
0.938052
0.902755
0.521086
1.02894
1.20547
1.25974
1.24854
1.20548
1.15014
1.09357
1.04107
0.994847
0.954679
0.917074
0.491048
1.03046
1.22095
1.28681
1.2775
1.23497
1.17819
1.12
1.0642
1.01536
0.972227
0.932818
1.0003
0.00462489
0.327499
0.30467
0.303738
0.277617
0.268736
0.64556
0.795418
0.744618
0.544479
0.00760491
0.0313472
2.93007
0.257863
0.00353581
2.74493
0.10575
0.102931
0.00347168
0.133458
0.170322
0.137833
0.0260588
1.0146
0.326756
0.152556
0.349379
0.577154
0.77782
0.512552
1.16189
0.00416234
0.535311
0.0299448
0.154147
0.390491
0.446784
0.392431
0.0079986
0.0662822
0.00336445
0.0681537
0.493597
0.27527
0.167214
0.0582185
0.0237662
0.278238
0.132992
0.152574
0.633352
0.269813
0.00321462
1.91985
0.00439555
0.0102495
0.00336156
0.447508
0.247533
0.147785
1.18631
0.00320909
0.0162589
0.17249
0.00447835
0.838927
0.259189
1.52784
0.659243
1.81845
0.051384
0.382646
0.688585
0.0265101
0.0032525
0.762909
0.00310811
0.0672221
0.240372
0.0989992
0.00311484
0.410268
0.301783
0.0157349
1.07461
0.835182
0.00319453
0.372548
0.244083
0.352125
0.623409
0.00319814
0.00388837
0.46336
0.00326381
0.337329
0.0120624
0.00317125
0.851258
1.05773
0.190036
0.00334344
0.0042911
0.00312409
0.520921
0.498364
0.691471
0.503885
0.00795777
0.0918265
0.00312898
0.198964
0.00370536
0.00318205
0.214165
0.018924
0.208216
1.04975
0.168083
0.972997
0.0282287
1.64062
0.186708
0.120826
1.24486
0.00402239
1.95574
0.0305292
0.00320003
0.232454
0.00323636
0.236046
0.00429809
0.155198
0.00507131
0.239284
0.569578
0.204623
0.00573463
0.016476
0.14195
0.27356
0.0235528
0.178747
1.83217
0.30189
0.00449161
0.943321
0.375156
0.0549551
0.208422
0.00312085
0.109917
0.147321
0.00314749
0.246048
0.00324469
1.23096
0.00694924
0.0260808
0.00355769
0.122813
0.012941
0.140975
0.080264
0.979998
0.298593
0.336636
0.00310328
1.82376
0.72058
1.92451
0.0173482
0.00310975
0.546968
0.00312087
0.312037
0.129781
0.686637
1.00427
0.421049
0.0604587
0.373629
0.00338278
0.260376
0.00318587
0.00315322
0.179597
0.00318546
0.465174
0.00313519
0.934271
0.00471612
0.281933
0.293648
0.269715
0.161412
0.00312886
3.08045
0.9789
0.322072
0.420336
0.21434
0.326276
0.10033
0.0878319
0.218195
0.665482
0.206639
0.292255
0.862609
0.500344
0.402926
0.00315444
0.285282
0.0126311
0.403291
3.15468
0.216414
0.301146
0.979995
0.344862
0.0031579
0.00318485
1.2605
1.07396
0.00326232
4.10194
0.0305916
0.311384
0.116724
0.00312483
0.898444
0.39091
0.254999
0.243826
1.03604
0.614436
0.320791
0.148065
0.152844
1.21371
1.62855
0.370718
0.28567
0.230762
0.00348915
1.34964
0.292516
0.622046
0.686818
0.360562
3.88109
0.243782
0.229048
0.192975
0.308838
0.551709
0.347419
0.206115
0.260258
0.0152178
0.0863475
0.681165
0.264535
0.884496
0.505691
0.33902
1.47641
0.266829
0.0481693
1.58346
0.210259
0.209581
1.63843
0.24998
0.260853
0.308834
0.209066
0.865134
0.246248
0.376162
0.332797
0.583633
0.271015
0.450443
0.208918
1.07853
0.123984
0.207104
1.61063
0.226796
0.225373
0.287751
0.917521
0.113153
0.207383
0.0645678
0.486487
0.179075
0.0966469
1.34311
1.98697
0.145336
0.914903
0.330575
0.00318771
0.189684
0.158776
0.20218
0.294793
0.00315716
1.14279
0.323925
0.0640439
0.226093
0.728
0.00315195
0.633424
0.0368805
0.553196
0.399176
4.82761
0.506697
0.724234
0.511601
0.00313914
0.00318428
0.290845
0.419718
0.00316609
0.493358
0.00312416
0.00318117
0.0032276
0.00312076
0.13379
0.00316302
0.00575505
0.982996
0.511457
0.00322898
0.333264
0.00951773
0.197116
0.294563
1.23898
4.03588
0.454104
0.00310916
0.00324057
0.0784313
0.126319
0.20922
0.00310912
0.0951542
0.322705
0.841788
0.359581
0.182416
0.280236
0.985867
3.9759
0.147026
0.308373
0.00364899
0.00318488
0.148026
0.236489
0.111178
0.178011
0.509046
2.73524
1.63645
0.137401
0.342683
0.973664
0.0031948
0.398719
0.708854
0.00520615
0.0032042
0.519911
3.75904
0.733452
0.00314347
0.0464044
0.14869
0.0245582
0.00320897
0.797983
0.363489
0.28368
0.286748
0.00374378
3.71004
0.00314347
0.224765
0.517137
0.00635655
0.0108617
0.91306
0.00858988
1.36255
0.761884
1.10711
0.623171
0.175622
0.683631
0.00313978
0.00316076
0.00317158
0.99825
0.0722829
1.25794
2.72813
0.160958
0.590606
0.00318834
0.00929535
0.275873
0.00310617
0.00316949
0.702036
0.00316004
0.217099
0.87858
0.376714
0.00310966
0.00733083
0.106215
0.111057
0.235726
0.138429
0.00311317
3.25236
0.801369
0.104487
0.012018
0.334477
0.200505
0.00694267
0.27876
0.00672355
0.802009
0.00351426
0.24783
0.125373
0.00312034
1.25278
0.237161
0.320658
0.00912462
0.448532
0.140772
0.00511633
0.218444
0.495274
0.337299
1.10614
0.0231598
0.0483124
0.0111677
1.26528
0.64412
0.0593661
0.131506
0.155444
0.333362
0.174333
0.516264
1.09941
0.00311765
1.97917
0.877381
0.22395
0.00311088
0.274434
0.915433
0.0195146
0.440806
0.351802
0.244111
0.121849
0.18171
0.259148
0.00357517
0.0182901
0.839226
0.0375776
0.00443572
0.920701
3.97932
0.0379423
0.20555
0.751728
0.0828422
0.490819
0.265798
0.808094
0.319356
0.297954
0.00325433
0.0809722
0.453959
0.3802
1.28482
0.22026
1.36992
0.934301
3.65211
0.842627
0.296018
0.00316643
1.2206
0.2055
0.766751
0.393125
0.152932
0.08024
0.402396
0.00326968
0.300383
0.00317743
0.349601
0.398169
0.214149
0.179625
1.22296
0.241746
0.990614
0.609869
1.91059
0.00324068
0.117188
0.895112
2.40294
0.192257
0.685995
0.00359702
0.0271696
0.331594
1.79516
0.564603
0.00311257
0.0558548
0.00312527
0.05613
0.352793
0.036141
0.804865
0.136416
0.592614
0.148722
0.118298
1.22589
0.706711
0.00319498
0.00319624
0.254591
1.16987
0.282088
0.572071
0.424404
0.635135
0.273405
0.00310933
0.176066
0.255053
0.00480457
1.00914
0.266659
0.181198
0.280912
0.0122212
0.00311677
0.0228136
0.00314012
0.616477
0.784634
0.712181
0.608423
0.00319101
1.42586
0.085539
0.74339
0.128027
1.67399
0.00717513
0.148026
0.00312534
0.495867
0.713025
0.319813
0.391032
0.00310854
1.25319
0.770807
0.511762
0.00315184
0.0623926
0.776779
0.585869
0.00597555
2.16281
0.00371526
0.758147
0.577837
0.00361134
0.126179
0.0841267
0.193301
0.00311403
0.00319874
1.11214
0.435677
0.323423
0.528103
0.00481638
0.123423
0.0941102
0.734454
0.205128
0.00393275
0.193793
1.2038
0.00310389
0.0079927
0.293304
0.643957
1.07472
0.00315784
0.727368
0.228109
1.26181
0.0281892
0.148838
0.815452
0.00319602
0.2007
0.131902
0.374185
0.362872
0.6821
0.254966
1.17116
1.13383
0.280179
2.6758
0.00323156
0.00314991
1.44419
0.748851
0.0046984
0.0031567
0.451056
0.00320624
0.788511
0.538873
0.237105
0.00314557
0.773088
0.0416583
0.298104
1.16869
0.241646
0.141423
0.136942
1.29838
0.00319205
0.276439
0.941889
0.24106
0.530083
0.00658691
0.509217
0.249963
2.02716
0.00313144
0.140262
0.648082
0.303721
0.00332841
0.0917057
0.349139
0.445761
1.22059
0.0563049
1.81239
0.409723
0.0882564
0.404174
0.00313511
0.00718824
0.338001
0.00310348
0.18008
0.00316475
0.245286
0.0105202
0.803836
0.00326764
0.105843
0.49907
1.55153
0.335358
0.637537
0.155047
2.36925
0.0151664
0.0898059
0.544316
0.00311189
0.00320594
0.37958
0.147811
0.249244
0.389313
0.0032932
0.216637
0.21948
0.202064
0.470495
1.1022
0.201446
0.00319655
1.87898
2.39874
0.507701
0.00323832
0.0104447
2.02563
0.267631
0.00312927
1.24492
0.00311262
0.0769833
2.65994
0.00352984
0.289415
0.00314952
0.0537587
0.751436
0.00324368
0.00398795
0.00318302
0.00378559
0.0209837
3.7097
0.769757
0.0892463
0.241308
0.00316389
0.723807
0.0031727
0.236674
0.221582
0.023375
0.155072
0.0133414
1.10573
0.00319627
4.27
0.200686
0.593264
0.3464
0.158097
0.00310857
0.198582
1.05828
0.125051
0.707575
0.849714
1.63637
0.348052
0.0403827
0.594887
0.0801873
0.00402671
0.10113
2.44257
1.0983
0.11384
0.00696261
0.303917
0.0037304
0.421872
0.835447
1.04663
0.79832
0.859864
0.0358251
0.00578069
0.333194
0.231373
0.0466174
0.277467
0.00316102
0.261355
1.89908
0.00329696
1.63804
0.747806
0.111083
0.0970088
1.40006
0.0229013
0.0962066
0.4318
0.295882
0.279936
0.00322319
0.643116
0.0735117
0.270563
0.381526
0.200257
0.204119
0.00674965
0.644717
0.0031732
0.00315993
0.22581
0.100004
0.148867
1.85329
0.00310964
1.09594
0.0618865
0.0549483
0.00342392
1.66152
0.341493
0.0857697
0.750168
0.0569027
1.1552
0.148602
0.00314254
1.19136
2.02121
0.00535943
0.00850018
0.204778
1.00017
0.094461
1.321
0.0338264
0.221907
0.098789
0.15007
0.648538
0.204285
0.00318752
1.13263
0.335363
0.0144754
0.187538
4.15009
0.282054
0.00317611
0.00312613
0.730388
0.189391
0.973202
0.00310719
0.68231
0.281673
0.411782
0.00375811
0.312669
0.742511
0.00528012
0.264884
0.00321161
1.08116
0.216047
0.352228
0.267701
0.00314668
0.00314564
0.342068
1.35331
0.367403
0.698754
0.00312501
0.0438323
0.00321404
0.00613727
1.11706
0.0705932
0.0922615
0.117953
0.331809
0.304232
0.355058
1.1632
0.0031718
0.311357
0.698449
0.252276
0.00319234
0.904233
0.00320235
0.00316583
0.0840306
0.218107
0.0242342
1.34026
0.208961
2.71468
0.00327717
0.0047488
0.0374342
0.901416
0.289056
0.960914
0.00316676
0.00314961
0.00618608
0.00816761
1.05529
0.770756
0.641894
0.118792
0.0427794
0.299881
0.161107
0.576668
0.2737
0.843605
0.310632
0.00310504
0.328148
0.00530328
0.182599
0.853015
0.189546
0.223192
0.125528
0.00378284
1.2935
0.493764
0.454037
0.321592
0.00315843
0.588355
0.728338
0.332149
0.00784391
0.87598
0.484383
0.802899
0.325872
0.335896
0.580038
0.115188
0.85648
0.236849
0.0932365
0.237015
0.00317664
1.16871
0.861485
0.00312902
0.649158
0.00472155
0.542016
0.205691
0.226103
0.273443
0.729452
0.900872
0.259875
0.123748
0.177905
0.216635
0.0121055
0.00313541
0.991194
0.0589918
0.904527
0.549402
0.20683
0.799223
0.54891
0.00314482
0.283543
1.52852
1.05698
0.224125
0.242109
0.543388
1.83253
0.192014
0.223704
0.0240247
0.0796791
0.551972
1.14978
0.106856
0.806584
0.781988
0.745494
0.239091
0.219366
0.40217
0.660146
0.00319139
1.87761
0.669691
0.190266
0.00319067
0.555815
0.444984
0.29895
0.003198
0.590609
0.0031715
0.240622
0.0875067
0.00319131
0.78773
0.350804
0.00311346
0.530349
0.378246
0.578577
0.26097
0.520381
0.278469
0.659676
0.171916
0.14649
0.00313542
0.0046472
0.350651
0.169147
0.0178217
0.00325651
0.358287
0.00591074
0.113555
0.113494
0.422961
0.203898
0.0554593
0.0916845
0.557009
1.58105
0.336017
4.01671
0.834157
0.00312227
0.53958
0.561596
1.62069
0.00312878
0.167571
0.00318782
0.00357221
0.28358
0.273752
0.0375428
0.00340058
0.762851
3.6556
0.0072228
0.00317445
0.126238
0.243241
0.0228833
0.0704831
3.77955
0.13251
0.0033884
0.00317488
0.930812
0.269894
0.128362
0.0568105
0.650685
1.12979
0.394497
0.247817
0.644016
0.00317313
0.474402
0.00315892
0.231767
0.27949
5.26102
0.173636
0.0861245
0.0037956
1.14209
0.00319436
0.00313527
0.00573964
0.270322
0.293584
0.937586
0.00314895
0.480308
0.00317056
0.687179
0.937696
0.00320486
0.727505
0.210584
0.00317208
0.00329798
0.030026
1.05653
0.365152
0.0254685
0.00317244
0.00313785
0.8464
0.684402
0.32557
0.720697
0.111322
0.437223
0.00314857
0.0100922
0.36368
0.808974
0.718555
0.00863818
0.00317586
0.403595
0.0032239
0.205054
0.80479
0.333196
0.0413425
0.20191
0.479059
0.148025
0.003169
0.490873
1.28209
0.649258
0.00628392
0.0296206
0.658132
3.66369
0.0520787
0.356179
0.00311626
0.00312997
0.00320988
0.0182032
0.40636
1.03285
0.00893105
0.221456
0.604511
1.22911
0.202801
0.0190329
0.00775849
0.00748277
0.148154
0.174512
0.243371
0.00322348
1.29342
0.00314318
0.0132857
0.802457
0.816806
0.0346233
0.354726
0.445606
0.00406562
0.126696
0.234927
0.00315471
0.00377306
1.07388
0.00363717
0.00322478
0.711861
0.241715
2.08824
0.205935
2.36731
0.00357241
0.00314621
3.19155
0.300108
0.214693
0.480232
0.0575236
0.239261
0.187803
1.01739
0.779386
0.58766
0.581633
0.233819
0.107812
0.328709
0.72644
0.014198
0.354902
0.00392905
0.439637
0.359409
0.102176
0.363843
0.184228
0.396079
0.192274
0.267691
1.08881
0.465454
0.22113
0.322818
0.677488
0.306131
0.00416867
0.00315934
0.106862
2.15419
0.00316162
1.73074
0.00313969
0.00958625
0.336459
0.222467
0.785158
0.672965
0.898299
1.09531
0.492085
0.393422
0.00316521
0.288637
1.01697
0.00323918
1.20084
0.00698376
1.70167
0.938171
1.1292
0.277629
0.207558
0.265974
0.0889437
0.288764
1.1894
0.361787
0.751958
0.164719
0.204572
0.0822605
0.232292
0.936066
0.00928917
0.62936
0.00319416
0.00390331
0.299982
1.46328
0.337391
0.277123
0.157564
0.105891
0.115272
0.00352137
0.339599
0.00352462
0.698256
0.00345025
0.0556286
0.940694
0.166596
0.291767
0.331843
0.314111
0.00609585
0.00321054
0.0942494
0.270071
0.109501
0.519267
0.0407769
0.369064
0.221784
0.377992
0.785772
0.00357645
0.003148
1.62808
0.217895
0.166872
0.773989
0.656735
0.782522
0.00956473
1.62567
0.340932
0.21355
0.00346054
0.187428
0.402057
0.206879
0.198084
0.264645
0.00326126
0.449412
0.00313875
0.623398
0.0104065
0.438535
0.112718
0.386342
0.00324326
6.42627
0.00319242
1.45686
0.0241132
0.0031731
0.0139438
0.276488
0.00317058
0.00318012
0.371329
0.0308454
0.328751
0.054724
0.00333433
0.225189
0.181167
0.449615
0.00333012
0.224014
0.18738
1.3517
0.673067
0.397144
0.425365
0.215799
0.289536
0.773276
0.828
0.212044
0.00322412
0.136946
0.360986
0.31007
0.00468556
0.00835048
0.240841
1.56826
0.00318404
0.195105
1.19064
0.00311666
0.814007
0.898973
0.354082
0.597573
0.760705
0.260113
0.124573
2.51255
0.389928
0.837947
0.786656
0.225491
0.101947
0.00316606
0.423994
0.00578544
0.00321785
0.00313623
0.304285
0.00316622
0.00374003
0.510301
4.00586
0.390951
0.195928
0.798486
0.238633
0.00317946
0.168752
1.14109
0.0243833
0.158202
0.977659
0.31845
0.119043
0.0298886
0.00314372
0.00316678
0.0262922
0.0425472
0.30998
0.306467
1.18875
0.271392
0.269452
0.00392709
0.498864
0.219111
0.0032118
0.341336
3.28697
0.00321259
0.343045
1.01259
0.70263
0.658834
0.18114
1.05276
0.00354533
0.200516
0.00331031
0.00624716
0.00320967
0.794224
0.541303
0.070973
0.00319314
0.00310333
1.11135
0.385246
0.275334
0.241865
0.335854
0.43527
0.304056
0.331728
0.356258
0.00317709
0.14463
0.116812
0.13022
0.383033
1.01851
0.728187
0.595899
0.369219
1.07463
0.826257
0.911377
0.423052
0.844721
0.0616365
0.789183
0.396015
0.0267029
1.00473
0.820028
0.424392
0.00315265
0.00320073
0.00358998
0.00441099
0.478469
0.00310629
0.497097
0.167762
0.992987
0.733465
0.00316961
0.450294
0.287556
0.188954
0.273852
0.389417
0.527213
0.00326078
0.00319926
0.00882837
0.0961386
0.00313524
0.639897
0.266802
0.234418
0.722169
0.489101
0.445995
0.534355
0.0031678
0.317358
0.636925
0.00378879
0.0755515
0.415678
0.314171
0.506988
0.190603
0.00324907
0.383615
0.365634
0.00382184
0.0197829
0.00315731
0.182175
0.00435936
0.135702
1.24125
0.108873
0.0704909
0.966283
1.8085
0.00326204
0.592815
0.00312939
0.222267
0.3481
0.254622
0.45162
0.688591
0.644515
0.796143
1.17597
0.708654
0.00317817
0.00314529
0.0509606
0.0974581
0.574429
0.169268
0.00319617
1.53356
0.239723
0.00809072
0.750869
0.0559432
0.00794456
0.0382767
0.959488
0.00632402
0.00319154
0.265274
0.20728
0.610847
0.104974
0.229309
0.199519
0.00321158
0.289167
0.0867174
0.0576042
0.00337201
0.208267
0.503904
0.169694
1.39861
1.28461
0.316649
0.397434
0.00316298
0.364514
0.0032252
2.65065
0.0099765
0.42924
0.0905784
0.804894
0.0155731
0.00913598
0.227902
0.292465
1.28982
0.00357818
0.19998
0.485997
0.613881
0.180272
0.995449
0.115288
0.00342316
0.00320504
0.465603
0.605915
1.04283
0.275926
0.0806553
0.531734
0.332595
0.7798
0.0438156
0.0031676
0.0031827
0.116336
0.703493
0.660011
0.940803
0.00354151
0.0106853
0.156773
0.459004
0.27534
0.724012
0.355141
0.843294
0.0031988
0.0032109
1.09406
0.275133
0.8494
2.82473
0.366335
0.0238288
1.36186
0.00319763
1.01947
0.026256
0.029142
0.00316943
0.0395689
0.0806425
0.801898
0.759391
0.00322673
0.757264
0.00316261
0.605782
1.51021
0.00314529
0.148579
0.00322656
0.265301
0.122512
0.169053
0.00311501
0.263261
0.212422
0.25588
0.982054
0.15866
1.17752
0.202421
0.789858
0.242848
1.07499
0.602741
0.00381557
0.00320554
0.378734
0.184662
0.777011
0.00317689
2.0459
0.00315891
0.00474955
0.028032
0.0031595
1.11622
0.926496
0.00324379
0.635507
0.243731
0.0980151
0.676747
0.00600048
0.00313563
0.429803
0.362913
0.00948552
0.741584
6.52435
1.30749
0.144723
1.15088
0.0996336
0.0031851
0.0036646
0.0337931
0.134402
0.808559
1.0426
1.29033
0.759405
0.532571
0.48576
0.238036
0.606455
1.87678
0.580877
0.0413701
0.0748677
0.260008
1.45179
0.00337896
0.18561
0.626565
0.330221
0.00317063
0.430968
0.00310376
0.0134166
0.841461
0.00342711
0.301922
1.8184
0.00318981
0.349231
0.00356114
0.333759
0.0134701
0.0040681