/*--------------------------------*- C++ -*----------------------------------*\
| =========                 |                                                 |
| \\      /  F ield         | OpenFOAM: The Open Source CFD Toolbox           |
|  \\    /   O peration     | Version:  2.3.1                                 |
|   \\  /    A nd           | Web:      www.OpenFOAM.org                      |
|    \\/     M anipulation  |                                                 |
\*---------------------------------------------------------------------------*/
FoamFile
{
    version     2.0;
    format      ascii;
    class       volScalarField;
    location    "0.17";
    object      k;
}
// * * * * * * * * * * * * * * * * * * * * * * * * * * * * * * * * * * * * * //

dimensions      [0 2 -2 0 0 0 0];

internalField   nonuniform List<scalar> 
15166
(
1.06638
1.28527
1.64308
2.02009
2.31009
2.59925
2.80347
2.92199
2.9587
2.92966
2.84261
2.73103
1.06719
1.25496
1.64427
2.01056
2.30013
2.56946
2.7544
2.85749
2.88446
2.85109
2.76568
2.64544
1.07563
1.22215
1.62739
1.98763
2.27681
2.5306
2.70096
2.79245
2.81278
2.77649
2.69153
2.56821
1.08656
1.19559
1.60477
1.95878
2.24557
2.48622
2.6451
2.72785
2.74355
2.70525
2.61983
2.49178
1.09837
1.17526
1.58087
1.928
2.21046
2.43938
2.58864
2.66456
2.67689
2.63725
2.55154
2.42286
1.11111
1.15951
1.55677
1.89654
2.17345
2.3917
2.53267
2.60307
2.61286
2.57228
2.48626
2.35637
1.12477
1.14727
1.53302
1.86501
2.13547
2.344
2.47772
2.54358
2.55139
2.51009
2.42347
2.29061
1.13915
1.1379
1.51011
1.83381
2.09723
2.29685
2.42414
2.48618
2.49241
2.45062
2.36382
2.23161
1.15403
1.1309
1.48836
1.80335
2.05931
2.25064
2.37215
2.43089
2.43585
2.39376
2.30707
2.17559
1.16923
1.12584
1.46788
1.77379
2.02205
2.20565
2.32187
2.37772
2.38161
2.33943
2.25332
2.12429
1.18463
1.12237
1.44869
1.74523
1.98565
2.16199
2.27335
2.32662
2.32962
2.28756
2.20252
2.07686
1.20011
1.12018
1.43075
1.71772
1.95025
2.11975
2.2266
2.27752
2.27979
2.23809
2.15486
2.03484
1.21558
1.11903
1.414
1.69124
1.91594
2.07896
2.18158
2.23035
2.23203
2.19091
2.10993
1.99567
1.23096
1.11877
1.39837
1.66578
1.88274
2.03959
2.13824
2.18504
2.18622
2.14578
2.06659
1.9528
1.2462
1.11917
1.38379
1.64136
1.85065
2.00164
2.09655
2.14149
2.14229
2.10267
2.02563
1.91645
1.26124
1.12014
1.37016
1.61791
1.81968
1.96506
2.05642
2.09964
2.10013
2.0614
1.98659
1.88119
1.27602
1.12152
1.35739
1.59541
1.78981
1.92981
2.0178
2.0594
2.05964
2.02186
1.94925
1.84695
1.29053
1.12324
1.34543
1.57383
1.76102
1.89586
1.98063
2.02069
2.02074
1.98395
1.91343
1.81388
1.30472
1.12524
1.33418
1.55311
1.73325
1.86312
1.94482
1.98343
1.98335
1.94756
1.87917
1.78296
1.31855
1.12741
1.32361
1.53323
1.70649
1.83158
1.91033
1.94756
1.94736
1.91261
1.84634
1.75331
1.33201
1.12972
1.31364
1.51413
1.68069
1.80116
1.87708
1.91299
1.91271
1.87897
1.81464
1.72367
1.34511
1.13212
1.3042
1.49579
1.65581
1.77181
1.84501
1.87966
1.87932
1.84655
1.784
1.69482
1.3578
1.13456
1.29526
1.47815
1.63182
1.7435
1.81407
1.84751
1.84712
1.81528
1.75429
1.66633
1.37007
1.13704
1.28676
1.46119
1.60867
1.71618
1.78422
1.81648
1.81605
1.78508
1.7255
1.63883
1.38192
1.13951
1.27867
1.44488
1.58634
1.6898
1.75539
1.78652
1.78604
1.75588
1.69762
1.61236
1.39332
1.14196
1.27094
1.42919
1.5648
1.66433
1.72754
1.75757
1.75703
1.72763
1.67064
1.58695
1.4043
1.14436
1.26353
1.41405
1.54399
1.63971
1.70063
1.72959
1.72898
1.7003
1.64458
1.5628
1.41485
1.14672
1.25645
1.39946
1.52389
1.61591
1.6746
1.70252
1.70183
1.67384
1.61945
1.54008
1.42493
1.14904
1.24963
1.3854
1.50448
1.59291
1.64942
1.67632
1.67555
1.64824
1.59519
1.51802
1.4346
1.15128
1.24308
1.37181
1.48571
1.57065
1.62505
1.65095
1.6501
1.62344
1.57168
1.49629
1.44379
1.15348
1.23673
1.35869
1.46755
1.54911
1.60146
1.62638
1.62543
1.59941
1.54894
1.47541
1.45254
1.15559
1.23061
1.346
1.44999
1.52825
1.5786
1.60257
1.60152
1.57612
1.52687
1.45499
1.46082
1.15765
1.22468
1.33373
1.433
1.50806
1.55646
1.57949
1.57833
1.55352
1.50548
1.43538
1.46871
1.15963
1.21895
1.32185
1.41654
1.48849
1.53499
1.5571
1.55583
1.53161
1.48473
1.41623
1.47609
1.16154
1.21338
1.31036
1.4006
1.46953
1.51418
1.53538
1.534
1.51033
1.46459
1.39778
1.48308
1.1634
1.20799
1.29921
1.38516
1.45114
1.49398
1.5143
1.5128
1.48966
1.44504
1.37974
1.48962
1.16518
1.20274
1.2884
1.37018
1.43331
1.47438
1.49383
1.4922
1.46958
1.42608
1.36259
1.49573
1.1669
1.19764
1.27791
1.35566
1.41601
1.45536
1.47394
1.47218
1.45008
1.40768
1.34609
1.50142
1.16858
1.19268
1.26772
1.34157
1.39921
1.43688
1.45461
1.45272
1.43113
1.38981
1.32975
1.50669
1.1702
1.18785
1.25783
1.3279
1.38291
1.41893
1.43584
1.43381
1.41271
1.3725
1.31443
1.51148
1.17177
1.18315
1.24822
1.31463
1.36707
1.40149
1.41758
1.41541
1.39477
1.3555
1.2978
1.51583
1.17328
1.17855
1.23889
1.30174
1.35169
1.38454
1.39982
1.39751
1.3773
1.33883
1.28146
1.51973
1.17471
1.17409
1.22981
1.28922
1.33675
1.36806
1.38255
1.38009
1.36028
1.3226
1.26648
1.52321
1.17607
1.16973
1.22099
1.27705
1.32222
1.35203
1.36574
1.36312
1.34368
1.30676
1.25163
1.52626
1.17731
1.1655
1.21242
1.26523
1.30809
1.33643
1.34938
1.3466
1.32751
1.29136
1.23756
1.52891
1.17842
1.16137
1.2041
1.25373
1.29434
1.32126
1.33345
1.33049
1.31174
1.27631
1.22334
1.53114
1.17946
1.15736
1.196
1.24253
1.28097
1.30649
1.31793
1.3148
1.29636
1.26168
1.2102
1.53297
1.18037
1.15346
1.18813
1.23163
1.26797
1.29212
1.30282
1.29951
1.28136
1.24741
1.19699
1.53442
1.18118
1.14964
1.18046
1.22102
1.25531
1.27811
1.28808
1.28458
1.26673
1.23351
1.18451
1.53548
1.1819
1.14591
1.173
1.2107
1.24298
1.26446
1.27371
1.27001
1.25243
1.21992
1.17182
1.53616
1.18255
1.14226
1.16573
1.20067
1.23098
1.25116
1.2597
1.25579
1.23847
1.20666
1.15979
1.53647
1.18314
1.13869
1.15864
1.1909
1.21928
1.2382
1.24603
1.24191
1.22484
1.19372
1.14809
1.53641
1.18366
1.13519
1.15174
1.18139
1.20789
1.22556
1.23269
1.22837
1.21153
1.18104
1.13611
1.53599
1.18413
1.13177
1.145
1.17213
1.19679
1.21325
1.21968
1.21514
1.19852
1.16868
1.12499
1.53521
1.18453
1.12842
1.13843
1.1631
1.18598
1.20124
1.20699
1.20222
1.18581
1.15664
1.11426
1.53409
1.18486
1.12514
1.13203
1.15431
1.17544
1.18952
1.1946
1.1896
1.1734
1.14491
1.10394
1.53262
1.18512
1.12194
1.12579
1.14574
1.16517
1.1781
1.18251
1.17728
1.16128
1.13344
1.09352
1.53081
1.18535
1.11881
1.1197
1.13739
1.15515
1.16696
1.17071
1.16525
1.14944
1.12224
1.08344
1.52867
1.1855
1.11576
1.11376
1.12925
1.14539
1.1561
1.15919
1.1535
1.13788
1.11123
1.07273
1.5262
1.18562
1.11277
1.10796
1.12131
1.13587
1.1455
1.14795
1.14202
1.12656
1.10045
1.06284
1.52339
1.18566
1.10987
1.10232
1.11357
1.12659
1.13515
1.13697
1.13081
1.1155
1.08995
1.05354
1.52028
1.18568
1.10703
1.09681
1.10603
1.11753
1.12506
1.12625
1.11985
1.1047
1.07971
1.04454
1.51684
1.18562
1.10427
1.09145
1.09867
1.1087
1.11521
1.11578
1.10914
1.09414
1.0697
1.03544
1.51308
1.18554
1.10158
1.08622
1.09149
1.10008
1.1056
1.10556
1.09869
1.08382
1.05991
1.02658
1.509
1.18541
1.09897
1.08113
1.0845
1.09168
1.09623
1.09559
1.08848
1.07373
1.05032
1.01763
1.50461
1.18526
1.09643
1.07618
1.07769
1.08349
1.08708
1.08585
1.0785
1.06387
1.04093
1.00902
1.49994
1.18505
1.09398
1.07136
1.07105
1.0755
1.07815
1.07635
1.06876
1.05423
1.03172
1.00038
1.49494
1.1848
1.0916
1.06667
1.06458
1.06772
1.06945
1.06707
1.05923
1.0448
1.02271
0.992152
1.48963
1.18455
1.08931
1.06212
1.05828
1.06012
1.06095
1.05802
1.04994
1.03559
1.01389
0.984031
1.48404
1.18422
1.0871
1.0577
1.05214
1.05272
1.05267
1.04917
1.04085
1.02657
1.00528
0.976228
1.47815
1.18388
1.08497
1.05342
1.04617
1.04551
1.04458
1.04054
1.03198
1.01777
0.996838
0.968339
1.47196
1.18347
1.08292
1.04927
1.04036
1.03847
1.0367
1.03212
1.02331
1.00915
0.988569
0.960773
1.46549
1.18307
1.08095
1.04525
1.03471
1.03163
1.02901
1.0239
1.01484
1.00073
0.980499
0.953373
1.45871
1.18263
1.07909
1.04138
1.02923
1.02496
1.02152
1.01588
1.00658
0.992505
0.9726
0.946054
1.45164
1.18216
1.0773
1.03763
1.0239
1.01847
1.01422
1.00805
0.998503
0.98446
0.964867
0.938948
1.44431
1.18164
1.0756
1.03402
1.01874
1.01216
1.0071
1.00043
0.990625
0.976603
0.957295
0.931749
1.43669
1.18107
1.07398
1.03054
1.01373
1.00602
1.00017
0.992989
0.982938
0.968922
0.949867
0.924749
1.42877
1.18048
1.07245
1.0272
1.00888
1.00006
0.993428
0.985738
0.975438
0.961423
0.942597
0.917811
1.42057
1.17988
1.07104
1.02401
1.00419
0.994262
0.986864
0.978677
0.968123
0.954096
0.93548
0.911104
1.41209
1.17923
1.06971
1.02095
0.999666
0.988641
0.98048
0.971797
0.960992
0.946944
0.928511
0.904378
1.40333
1.17856
1.06848
1.01805
0.995299
0.983191
0.974273
0.965096
0.954032
0.939952
0.921693
0.897975
1.3943
1.17783
1.06733
1.01528
0.991094
0.977911
0.96824
0.958574
0.947248
0.93312
0.915025
0.891777
1.38499
1.17707
1.06628
1.01266
0.98705
0.972803
0.962387
0.952235
0.940645
0.926465
0.908527
0.885638
1.3754
1.17628
1.06535
1.01019
0.983174
0.96787
0.956713
0.946077
0.934221
0.919982
0.90218
0.879508
1.36552
1.17547
1.06451
1.00787
0.979464
0.963107
0.951212
0.940093
0.927967
0.913657
0.895976
0.87365
1.35539
1.1746
1.06378
1.00571
0.975923
0.958517
0.945886
0.934282
0.921885
0.9075
0.889921
0.867765
1.34499
1.17366
1.06313
1.0037
0.972553
0.954102
0.940737
0.928649
0.915973
0.901496
0.884003
0.862218
1.3343
1.17269
1.0626
1.00185
0.969361
0.949868
0.935767
0.923191
0.910235
0.895669
0.878257
0.856662
1.32334
1.17169
1.06217
1.00017
0.966344
0.945812
0.930977
0.917913
0.90467
0.890005
0.87266
0.851283
1.3121
1.17066
1.06186
0.998667
0.963513
0.94194
0.926365
0.91281
0.899277
0.884497
0.867179
0.845713
1.30058
1.16957
1.06164
0.997318
0.96086
0.938246
0.921932
0.90788
0.894049
0.879146
0.86187
0.840964
1.28879
1.16844
1.06153
0.99615
0.958402
0.934746
0.917687
0.903135
0.88901
0.873993
0.856783
0.836167
1.27675
1.16723
1.06155
0.995161
0.956136
0.931437
0.913629
0.898575
0.884144
0.868995
0.851829
0.831505
1.26441
1.16599
1.06166
0.994353
0.954068
0.928329
0.909764
0.894199
0.879457
0.864168
0.847039
0.826877
1.25182
1.16467
1.06189
0.993727
0.952205
0.925418
0.906091
0.890011
0.874949
0.859513
0.842398
0.822382
1.23895
1.16326
1.06221
0.993286
0.950545
0.922715
0.902618
0.886014
0.870629
0.855041
0.837924
0.817912
1.22581
1.16181
1.06268
0.993055
0.949108
0.920224
0.899348
0.882212
0.86649
0.850731
0.833581
0.813679
1.21237
1.16032
1.06325
0.993023
0.947893
0.917955
0.896288
0.878606
0.862542
0.846604
0.829418
0.809531
1.19868
1.1587
1.06394
0.993193
0.946912
0.915907
0.893442
0.875205
0.858786
0.842658
0.825414
0.805587
1.18469
1.15703
1.06474
0.993584
0.946169
0.9141
0.890818
0.872017
0.855233
0.838905
0.8216
0.801711
1.17044
1.15527
1.06567
0.994189
0.945668
0.912528
0.888421
0.86904
0.851874
0.835328
0.817935
0.79814
1.15588
1.15346
1.06671
0.995025
0.94543
0.911211
0.886261
0.866281
0.848722
0.831949
0.814469
0.794742
1.14105
1.15158
1.06787
0.996088
0.945454
0.910155
0.884352
0.863761
0.845798
0.828794
0.81122
0.791443
1.12595
1.14957
1.06915
0.997381
0.945754
0.909374
0.882698
0.861478
0.843098
0.825844
0.808168
0.788392
1.11056
1.14744
1.07056
0.998929
0.946335
0.908878
0.881307
0.85944
0.840623
0.823104
0.805316
0.785643
1.09489
1.14523
1.07208
1.00073
0.94722
0.908678
0.880195
0.857659
0.838389
0.820604
0.802706
0.782993
1.07893
1.14288
1.07373
1.00279
0.948413
0.908783
0.879376
0.85615
0.8364
0.818317
0.800267
0.7806
1.06268
1.14044
1.07549
1.00512
0.949932
0.909221
0.878864
0.854928
0.834681
0.816288
0.798081
0.778351
1.04613
1.13796
1.07738
1.00775
0.951796
0.910006
0.878681
0.854004
0.833239
0.814521
0.796137
0.77632
1.02929
1.13527
1.07942
1.01066
0.95402
0.911152
0.878843
0.853394
0.832084
0.813009
0.794407
0.774458
1.01214
1.13251
1.08159
1.01388
0.956631
0.91269
0.879368
0.853124
0.831243
0.811789
0.792965
0.772871
0.994686
1.12964
1.08387
1.01742
0.95963
0.914629
0.88028
0.853212
0.83073
0.810879
0.791824
0.771651
0.976953
1.12652
1.08628
1.02127
0.963045
0.917011
0.881603
0.853681
0.830577
0.810321
0.791054
0.770692
0.958906
1.12332
1.08883
1.02546
0.966895
0.919841
0.883364
0.854544
0.830779
0.810067
0.790489
0.769628
0.940548
1.12
1.09148
1.03002
0.971213
0.923154
0.885578
0.855825
0.831349
0.810133
0.790207
0.769028
0.921896
1.11644
1.09429
1.03492
0.976006
0.926974
0.888282
0.857556
0.832333
0.810593
0.790331
0.76888
0.90291
1.11281
1.09723
1.04022
0.981318
0.931361
0.891521
0.859782
0.833764
0.811452
0.790777
0.769016
0.883613
1.10887
1.10033
1.04592
0.987181
0.936336
0.895347
0.86255
0.835696
0.812778
0.791703
0.769719
0.863992
1.10478
1.10353
1.05205
0.993638
0.941952
0.899796
0.865896
0.83816
0.814605
0.793114
0.770946
0.84407
1.10059
1.10688
1.0586
1.00071
0.948255
0.904926
0.869883
0.8412
0.816967
0.79504
0.772488
0.823817
1.09612
1.11037
1.06563
1.00845
0.955297
0.910776
0.874539
0.844842
0.819829
0.797301
0.773982
0.803219
1.09142
1.11403
1.07315
1.01691
0.963144
0.917423
0.879927
0.84915
0.823292
0.800139
0.776374
0.782296
1.08643
1.11784
1.0812
1.02613
0.971868
0.924949
0.886149
0.854225
0.827478
0.803723
0.779621
0.76105
1.08138
1.12179
1.08981
1.03619
0.98154
0.933451
0.893277
0.860111
0.832371
0.807846
0.783165
0.739442
1.07594
1.12595
1.09904
1.04716
0.99228
0.943014
0.901413
0.866913
0.838079
0.812738
0.787381
0.717484
1.07022
1.1303
1.10895
1.05914
1.00419
0.953775
0.910673
0.874731
0.844673
0.818364
0.792289
0.695184
1.06442
1.13489
1.1196
1.07227
1.01743
0.965893
0.921226
0.883723
0.852321
0.824971
0.798152
0.672487
1.0582
1.13981
1.13113
1.08668
1.03217
0.979539
0.933231
0.89403
0.861146
0.832602
0.804709
0.649403
1.05178
1.14512
1.14369
1.1026
1.04862
0.994935
0.946873
0.905791
0.871231
0.841349
0.812456
0.625868
1.04509
1.15099
1.15758
1.12027
1.06709
1.01233
0.962355
0.919182
0.882697
0.851232
0.821111
0.601875
1.03837
1.15781
1.17313
1.14016
1.08792
1.03204
0.979957
0.934432
0.895769
0.862571
0.831183
0.577298
1.0318
1.16615
1.19106
1.16278
1.11154
1.05441
0.99996
0.951738
0.910564
0.875314
0.842372
0.55205
1.02663
1.17725
1.21235
1.18883
1.13842
1.07972
1.02254
0.97128
0.927195
0.88952
0.854577
0.525982
1.02649
1.19445
1.23943
1.21962
1.16942
1.10871
1.04846
0.993634
0.946121
0.905451
0.868131
0.495297
1.02832
1.2107
1.26747
1.24949
1.19959
1.13712
1.07488
1.01647
0.966101
0.922338
0.883092
0.960046
0.00457318
0.307736
0.286937
0.286092
0.26915
0.260833
0.645548
0.756431
0.70549
0.516493
0.00741455
0.0299972
2.82322
0.243154
0.00353143
2.64114
0.1001
0.0974403
0.00347003
0.126715
0.165674
0.130604
0.0251067
0.973364
0.307092
0.146048
0.328558
0.545447
0.741106
0.483764
1.15694
0.00412888
0.507752
0.0286714
0.143086
0.395669
0.421075
0.393246
0.00779726
0.0627412
0.00335318
0.0642479
0.460409
0.284689
0.162437
0.055433
0.0225647
0.287722
0.126316
0.141744
0.633399
0.279158
0.00321461
1.83855
0.0043477
0.00977735
0.00335074
0.421782
0.233186
0.140696
1.18094
0.00320907
0.0155247
0.161189
0.00442746
0.789016
0.268472
1.52438
0.624021
1.74003
0.0490987
0.383271
0.649576
0.025545
0.00327652
0.724857
0.0031285
0.0641793
0.241425
0.0935956
0.00313402
0.417311
0.310968
0.0149916
1.02297
0.785845
0.00319441
0.351224
0.252706
0.351348
0.590062
0.00319805
0.00385913
0.473178
0.00327722
0.317123
0.0114169
0.00317077
0.802722
1.0047
0.17632
0.0033395
0.00424528
0.00313385
0.530305
0.488204
0.69574
0.475068
0.0072738
0.089036
0.00313796
0.196338
0.00369194
0.00318201
0.210301
0.0182434
0.196844
0.999454
0.158745
0.920574
0.0269288
1.57108
0.173595
0.115671
1.18751
0.00400343
1.94484
0.0284555
0.00319997
0.233636
0.00323636
0.239808
0.00425431
0.14863
0.00499517
0.247548
0.538623
0.20205
0.00560402
0.0158528
0.13868
0.279997
0.0216922
0.184255
1.7544
0.307137
0.00444268
0.898597
0.379498
0.0480261
0.204619
0.00314506
0.104148
0.137912
0.00315403
0.244568
0.00326781
1.17341
0.00680693
0.0249713
0.0035576
0.116937
0.0125596
0.132839
0.0756635
0.975179
0.308249
0.341109
0.00312886
1.74711
0.682999
1.84309
0.0166997
0.00313571
0.516471
0.00313232
0.32086
0.121374
0.651626
0.999156
0.400476
0.0578582
0.378286
0.00338479
0.258855
0.00320312
0.00315464
0.185285
0.00318541
0.43917
0.00315871
0.932585
0.00468542
0.280754
0.293438
0.268315
0.158059
0.00313779
2.96462
0.932179
0.328382
0.429836
0.212138
0.329627
0.0955029
0.0840013
0.206062
0.628949
0.19602
0.297468
0.821072
0.501702
0.412407
0.00315554
0.28904
0.012268
0.379179
3.0357
0.22454
0.310331
0.933255
0.353668
0.00316869
0.00318554
1.2023
1.02239
0.00325642
3.97504
0.0285637
0.31047
0.111759
0.00314133
0.847978
0.367543
0.258468
0.242121
0.986922
0.575407
0.320597
0.140475
0.144029
1.16302
1.55773
0.364727
0.290684
0.234411
0.00347579
1.29314
0.297368
0.588469
0.648254
0.339708
3.79433
0.253212
0.216634
0.179949
0.308317
0.521232
0.355932
0.195555
0.264575
0.0146375
0.0825905
0.679029
0.269496
0.84348
0.505676
0.318004
1.45977
0.250741
0.045922
1.51817
0.212005
0.211405
1.57131
0.260085
0.261915
0.318687
0.216445
0.865319
0.256095
0.382149
0.335925
0.552203
0.269536
0.424549
0.210385
1.03124
0.119401
0.214427
1.54248
0.227827
0.226421
0.294963
0.916108
0.106348
0.209196
0.0610957
0.495884
0.175509
0.0894639
1.3172
1.90227
0.136166
0.870134
0.340578
0.00318765
0.177655
0.150011
0.191371
0.303264
0.00316255
1.09386
0.330269
0.0603251
0.226876
0.69283
0.0031533
0.626559
0.0347092
0.522647
0.375426
4.7008
0.512664
0.689232
0.482931
0.00314515
0.00320729
0.299205
0.39401
0.00318495
0.46576
0.00314175
0.00320353
0.00324118
0.00313219
0.126989
0.00316336
0.00571502
0.928403
0.512008
0.00322896
0.332475
0.00911881
0.198856
0.29366
1.18109
3.90122
0.427398
0.0031314
0.00325394
0.0747938
0.118248
0.209899
0.00313521
0.091033
0.332443
0.801539
0.338855
0.188719
0.289828
0.941227
3.84104
0.137691
0.290436
0.00365657
0.00318468
0.138594
0.216453
0.105119
0.184026
0.514819
2.725
1.56705
0.131408
0.343422
0.92806
0.00319441
0.375643
0.665905
0.00514733
0.00322771
0.520948
3.67526
0.733258
0.00316521
0.0435957
0.143273
0.0233261
0.00322771
0.761146
0.342428
0.292566
0.293933
0.00374691
3.58317
0.00315218
0.212516
0.488233
0.00621946
0.0105681
0.861824
0.0083757
1.30542
0.755286
1.05705
0.589841
0.180151
0.687951
0.00314482
0.00318092
0.00317125
0.953851
0.0689961
1.25377
2.68547
0.157586
0.590384
0.00320645
0.00876236
0.279445
0.00313079
0.00317116
0.70202
0.00317664
0.205717
0.836683
0.384271
0.00313311
0.00715133
0.101659
0.105308
0.236014
0.130857
0.0031297
3.14224
0.764458
0.0992151
0.0115806
0.34456
0.201771
0.00675482
0.279302
0.00651426
0.757296
0.00350957
0.246363
0.117536
0.00313288
1.19326
0.237489
0.319176
0.0089502
0.42284
0.13758
0.00507554
0.220084
0.503521
0.319284
1.1044
0.0220896
0.0454449
0.0107263
1.21183
0.610916
0.0562975
0.125688
0.148718
0.331849
0.165921
0.524441
1.09432
0.00314088
1.89475
0.836164
0.22238
0.0031312
0.283773
0.865567
0.0176582
0.447264
0.357064
0.230753
0.116619
0.187764
0.259294
0.00357565
0.0175569
0.80046
0.0357237
0.00444125
0.919056
3.84728
0.0360202
0.213071
0.714091
0.0768013
0.491654
0.274918
0.770532
0.31846
0.307687
0.00327883
0.0763412
0.463595
0.378736
1.2297
0.228386
1.30593
0.931673
3.53069
0.795533
0.279111
0.00316655
1.17429
0.207397
0.730187
0.369634
0.142126
0.0752827
0.378327
0.00330123
0.305596
0.00317719
0.361593
0.374476
0.215598
0.185651
1.16455
0.242812
0.93622
0.577437
1.8305
0.00326214
0.110215
0.853047
2.34692
0.189347
0.64935
0.00358333
0.0258982
0.312117
1.71851
0.533375
0.00313123
0.0531063
0.0031345
0.053412
0.357443
0.0346244
0.761844
0.130288
0.598115
0.140343
0.111105
1.22208
0.705013
0.00319486
0.00319612
0.251488
1.11858
0.29112
0.54101
0.403972
0.602137
0.282722
0.00313226
0.164387
0.25848
0.00475723
0.96473
0.270467
0.187575
0.290067
0.0116199
0.0031368
0.0217402
0.00314854
0.583642
0.744947
0.717164
0.575213
0.00319606
1.36511
0.0808787
0.745629
0.120794
1.6057
0.00704915
0.140527
0.0031508
0.495768
0.709791
0.326472
0.369182
0.0031307
1.19704
0.733415
0.514498
0.00317739
0.0565329
0.738639
0.554152
0.00583997
2.15123
0.00369817
0.712252
0.54376
0.00360003
0.120701
0.0800007
0.183032
0.00313145
0.00319864
1.05913
0.44232
0.326688
0.531712
0.00475529
0.118822
0.0898811
0.699217
0.203388
0.00391867
0.178695
1.19859
0.00312868
0.00775783
0.303043
0.657868
1.02853
0.00316425
0.725859
0.237015
1.20836
0.0263032
0.146041
0.815735
0.00319396
0.202582
0.126124
0.372794
0.341484
0.64041
0.238544
1.11863
1.08536
0.27898
2.63636
0.00323154
0.00315279
1.38277
0.713298
0.0046414
0.00315754
0.425439
0.00320623
0.751914
0.538471
0.224054
0.00317048
0.733809
0.0342722
0.307508
1.1123
0.250173
0.134067
0.12916
1.24278
0.00319204
0.265652
0.897253
0.249844
0.50051
0.0064484
0.480977
0.236171
2.02182
0.00313898
0.132239
0.61359
0.302664
0.00334579
0.0877083
0.359112
0.455567
1.16231
0.0530396
1.73636
0.415603
0.0832625
0.404761
0.00314209
0.00698795
0.315795
0.00312971
0.186404
0.00316495
0.246496
0.0102462
0.766644
0.00329831
0.100816
0.507225
1.48086
0.314714
0.604441
0.146232
2.27293
0.0146779
0.085645
0.513991
0.00313205
0.00320587
0.380205
0.139309
0.25029
0.388906
0.00331157
0.217525
0.220854
0.203663
0.444712
1.05387
0.203452
0.00319647
1.87435
2.36633
0.510401
0.00323832
0.0100111
1.94464
0.277109
0.00314761
1.18673
0.00313274
0.0728807
2.55555
0.0035148
0.288294
0.00315152
0.0505796
0.753107
0.00324367
0.0039681
0.00318304
0.00378364
0.0202265
3.58625
0.733473
0.0841701
0.242153
0.00316427
0.683065
0.00317227
0.227694
0.209882
0.0217361
0.150862
0.012705
1.05295
0.00321545
4.19904
0.187225
0.559519
0.339639
0.153763
0.00312813
0.205508
1.01699
0.120788
0.664541
0.81113
1.56918
0.3473
0.038563
0.562778
0.0756753
0.00399183
0.0951906
2.40743
1.04465
0.107503
0.0066024
0.313049
0.00370988
0.397546
0.795912
1.00502
0.753399
0.821137
0.0342443
0.0057426
0.343424
0.240441
0.0447036
0.287984
0.00317009
0.261886
1.81957
0.00330156
1.56879
0.711796
0.107547
0.0917804
1.34164
0.0220733
0.0906019
0.406177
0.278871
0.263868
0.00322317
0.608856
0.0704708
0.269958
0.38104
0.201944
0.190809
0.00664384
0.603772
0.00317321
0.00316056
0.224266
0.0947744
0.137992
1.77547
0.00313344
1.04367
0.0588411
0.0517118
0.00345382
1.58925
0.320359
0.0811886
0.712804
0.0537267
1.15045
0.143222
0.00314647
1.19008
1.94021
0.0052494
0.00821262
0.206451
0.954704
0.0891469
1.31836
0.0321257
0.210106
0.0930578
0.141818
0.615129
0.205745
0.00318735
1.0841
0.344972
0.0136914
0.178056
4.02111
0.290245
0.00317576
0.0031512
0.692704
0.196417
0.927901
0.00313335
0.647544
0.265526
0.417555
0.00376206
0.311445
0.70702
0.00516441
0.273636
0.0032088
1.03393
0.22293
0.362085
0.275367
0.0031543
0.00314806
0.338697
1.29148
0.346232
0.663944
0.00314111
0.0420881
0.00322993
0.0060103
1.06534
0.066642
0.0869954
0.110859
0.341325
0.302796
0.354813
1.10718
0.00317114
0.321239
0.663692
0.261365
0.00319225
0.858666
0.00320746
0.00316597
0.0797259
0.226249
0.0231563
1.31419
0.21644
2.6082
0.00327414
0.00474911
0.0347257
0.900927
0.27203
0.960424
0.00316712
0.00316008
0.00607875
0.00797053
1.0019
0.733391
0.645065
0.113755
0.0404676
0.282615
0.158265
0.576482
0.272574
0.805726
0.30964
0.0031295
0.321853
0.00524352
0.171742
0.81489
0.196342
0.213124
0.11755
0.00376158
1.23487
0.466975
0.423491
0.331567
0.00316003
0.589654
0.693218
0.329936
0.00751745
0.835934
0.492198
0.765832
0.322439
0.336502
0.575119
0.109735
0.849921
0.216874
0.0876152
0.238459
0.00317546
1.11632
0.861672
0.00314815
0.61473
0.00467627
0.548478
0.207353
0.213872
0.282746
0.729478
0.848455
0.258289
0.11602
0.182122
0.214441
0.0115902
0.00315911
0.946578
0.0563123
0.863739
0.55053
0.193009
0.762403
0.555325
0.00314878
0.291349
1.5229
1.0533
0.222579
0.245787
0.513143
1.75566
0.193699
0.211573
0.0229728
0.0751887
0.56012
1.09601
0.101338
0.769423
0.741757
0.705266
0.240089
0.207493
0.378322
0.626406
0.00319128
1.80201
0.6711
0.175665
0.00319068
0.522197
0.417678
0.305453
0.00322006
0.590324
0.00317082
0.239002
0.0836822
0.0031909
0.747392
0.355887
0.0031295
0.529984
0.385653
0.547442
0.265379
0.525767
0.278668
0.616963
0.175535
0.136003
0.00315137
0.00458926
0.360972
0.165498
0.0148043
0.00328172
0.363687
0.00576181
0.107157
0.107677
0.398503
0.201363
0.0531888
0.0889069
0.567409
1.51569
0.345385
3.89245
0.796156
0.00313478
0.539265
0.530569
1.55429
0.00313857
0.162846
0.00318781
0.00355891
0.292464
0.257786
0.0356575
0.00340295
0.719957
3.56934
0.00704729
0.00317334
0.123162
0.228568
0.0215419
0.0665986
3.6897
0.124203
0.00339786
0.00317597
0.88905
0.279747
0.121257
0.054326
0.650868
1.12938
0.399218
0.248909
0.609709
0.00317324
0.446776
0.00316008
0.232743
0.287325
5.11211
0.169818
0.0819182
0.00376119
1.09308
0.00319426
0.00314365
0.00561649
0.268931
0.30253
0.893312
0.00315162
0.452673
0.00317014
0.679795
0.89345
0.0032048
0.731832
0.198165
0.00317142
0.00330369
0.0278132
1.00287
0.344081
0.0243471
0.00317271
0.00315303
0.844938
0.684163
0.324704
0.683585
0.104572
0.436868
0.00315202
0.00987219
0.342636
0.807731
0.678592
0.00838393
0.0031756
0.412329
0.00324603
0.207063
0.805065
0.31294
0.0391991
0.203509
0.45148
0.139718
0.0031688
0.464239
1.22231
0.652297
0.00614668
0.02851
0.624084
3.62934
0.0490143
0.335874
0.00313053
0.00315539
0.00320639
0.0175506
0.413723
0.983912
0.0086365
0.222523
0.571575
1.22338
0.200894
0.0182443
0.00753627
0.00741793
0.138561
0.178713
0.252251
0.00322347
1.23307
0.00314789
0.0128807
0.759534
0.777733
0.0325941
0.334276
0.420111
0.00403727
0.122795
0.214847
0.00315593
0.00377752
1.02066
0.00362627
0.00322476
0.722088
0.250376
2.08255
0.20342
2.31194
0.00359243
0.0031714
3.12503
0.306596
0.202472
0.458027
0.0544014
0.248155
0.178441
1.01239
0.742148
0.588279
0.581719
0.234847
0.104314
0.338785
0.725431
0.013683
0.360528
0.00394469
0.441242
0.351013
0.0969951
0.342407
0.180922
0.375365
0.177054
0.275591
1.063
0.474396
0.228679
0.330918
0.643474
0.287261
0.00412771
0.00315994
0.102378
2.06474
0.00316209
1.65986
0.00316123
0.00924691
0.331355
0.223854
0.746787
0.67091
0.892369
1.0438
0.463177
0.40379
0.00316685
0.287426
0.970823
0.00323917
1.15093
0.00683295
1.69318
0.93617
1.12453
0.283582
0.209368
0.24961
0.0858588
0.295422
1.1355
0.366061
0.717687
0.160402
0.206632
0.078847
0.233141
0.916514
0.00898565
0.594137
0.00319408
0.00387824
0.301349
1.39846
0.336603
0.282665
0.150122
0.100335
0.108473
0.0035578
0.339299
0.0035624
0.694298
0.0034691
0.0529147
0.938511
0.162293
0.275034
0.329217
0.308515
0.00593917
0.00320952
0.0888834
0.275688
0.103944
0.523158
0.0387474
0.374507
0.207176
0.38391
0.779582
0.00356571
0.00315011
1.55485
0.207373
0.162604
0.735979
0.622123
0.742566
0.0092003
1.55518
0.348614
0.214317
0.00344395
0.177961
0.401368
0.208931
0.186968
0.264604
0.00328342
0.423608
0.00315315
0.617019
0.0101133
0.43827
0.107218
0.363138
0.00324326
6.28025
0.00319238
1.39432
0.0224046
0.00317397
0.0132134
0.28
0.00317068
0.00317989
0.347855
0.0285877
0.331964
0.0521093
0.00335079
0.233493
0.177174
0.457064
0.00332067
0.224315
0.185156
1.34753
0.639011
0.401897
0.438968
0.216212
0.272462
0.766542
0.823432
0.21317
0.00322411
0.129341
0.360748
0.316278
0.0046665
0.00799324
0.249625
1.56265
0.00318408
0.184449
1.13993
0.00314069
0.776736
0.859398
0.350127
0.602882
0.723781
0.263341
0.118395
2.41716
0.367093
0.789998
0.750135
0.230046
0.0960307
0.00316632
0.430072
0.00570327
0.00321784
0.00314656
0.309235
0.00316648
0.00375643
0.481703
3.94035
0.371608
0.179984
0.761565
0.239334
0.00318235
0.172543
1.13927
0.0233716
0.152956
0.929461
0.326465
0.112184
0.0284435
0.00314714
0.00316673
0.0252167
0.0399067
0.319984
0.315669
1.13332
0.277754
0.272001
0.00390737
0.492835
0.226614
0.00321179
0.341045
3.17585
0.00322713
0.322759
1.00919
0.666314
0.663901
0.170881
1.00017
0.0035339
0.189117
0.00330711
0.00616148
0.00320964
0.752254
0.511202
0.0672381
0.00319304
0.0031291
1.11078
0.38477
0.259578
0.250704
0.316133
0.436837
0.303018
0.317635
0.365407
0.00317712
0.137197
0.109837
0.123143
0.381445
0.97327
0.689019
0.604054
0.378147
1.02837
0.827435
0.858807
0.433399
0.801295
0.0582289
0.751834
0.401218
0.0250352
0.996519
0.782198
0.399856
0.00317833
0.00320064
0.00357405
0.00439039
0.488006
0.00313245
0.501814
0.171326
0.990157
0.694759
0.0031703
0.424425
0.29418
0.191985
0.27273
0.389817
0.49792
0.00326593
0.00319925
0.00850128
0.0910089
0.00314691
0.644653
0.267855
0.215904
0.684278
0.461391
0.453447
0.538404
0.00316802
0.316416
0.603937
0.00377004
0.0720635
0.425303
0.31363
0.477704
0.188253
0.00324375
0.395186
0.375956
0.00379517
0.018961
0.00315825
0.186791
0.00431423
0.127208
1.18856
0.106019
0.0670044
0.923449
1.80392
0.00325718
0.558953
0.00315047
0.220693
0.351189
0.263849
0.422446
0.687172
0.611271
0.789939
1.12489
0.671115
0.00317786
0.00314774
0.0486371
0.0933241
0.546316
0.166571
0.00320886
1.47001
0.22598
0.00792594
0.712896
0.0529541
0.00770239
0.0359275
0.917844
0.00616974
0.0031897
0.27467
0.209111
0.578029
0.0961264
0.23391
0.19687
0.00321931
0.287976
0.0826879
0.0547934
0.00337947
0.215694
0.4748
0.166275
1.3401
1.22475
0.319555
0.378076
0.0031633
0.372023
0.00324772
2.55381
0.00957603
0.428862
0.0864542
0.767809
0.0146653
0.00892382
0.209121
0.275731
1.27585
0.00359873
0.188583
0.492455
0.621662
0.17629
0.992338
0.109795
0.00341938
0.00320502
0.455681
0.57336
1.02142
0.260189
0.0760217
0.535161
0.339165
0.739657
0.0413794
0.00316807
0.0031827
0.110283
0.70034
0.624783
0.887514
0.00355918
0.0103836
0.145584
0.468949
0.284784
0.688628
0.36298
0.805442
0.00319874
0.00322253
1.04938
0.275532
0.811431
2.76063
0.375643
0.0230053
1.30476
0.00321733
1.01611
0.0246171
0.0272583
0.00316878
0.037089
0.0760593
0.764936
0.723561
0.00322673
0.757455
0.00317575
0.613491
1.4448
0.00314805
0.139534
0.00322654
0.274018
0.116988
0.164478
0.00313926
0.266467
0.213545
0.255792
0.932806
0.147182
1.12103
0.188298
0.745882
0.250561
1.02722
0.569265
0.00379555
0.00321123
0.384444
0.174114
0.731053
0.00317668
1.9658
0.00315962
0.00473002
0.0234485
0.00316686
1.08842
0.876205
0.00324378
0.601066
0.230372
0.0926705
0.641908
0.00592274
0.00315192
0.439947
0.34066
0.00915598
0.706095
6.3461
1.24825
0.134459
1.10079
0.0940115
0.00318502
0.00364574
0.0321724
0.131752
0.771312
0.991741
1.26216
0.722471
0.535452
0.458679
0.218868
0.565629
1.79579
0.57586
0.0396203
0.0712489
0.245506
1.38562
0.00338692
0.176095
0.592716
0.326259
0.00317059
0.441328
0.0031304