/*--------------------------------*- C++ -*----------------------------------*\
| =========                 |                                                 |
| \\      /  F ield         | OpenFOAM: The Open Source CFD Toolbox           |
|  \\    /   O peration     | Version:  2.3.1                                 |
|   \\  /    A nd           | Web:      www.OpenFOAM.org                      |
|    \\/     M anipulation  |                                                 |
\*---------------------------------------------------------------------------*/
FoamFile
{
    version     2.0;
    format      ascii;
    class       volScalarField;
    location    "0.99";
    object      nut;
}
// * * * * * * * * * * * * * * * * * * * * * * * * * * * * * * * * * * * * * //

dimensions      [0 2 -1 0 0 0 0];

internalField   nonuniform List<scalar> 
1000
(
0.000515902
0.000521635
0.000521866
0.000521865
0.000521863
0.000521862
0.000521861
0.000521859
0.00052183
0.000521302
0.000522027
0.000524696
0.000524949
0.000524965
0.000524968
0.000524968
0.000524964
0.000524948
0.000524706
0.000521864
0.000522935
0.000525752
0.000526055
0.00052608
0.000526086
0.000526085
0.000526078
0.000526054
0.000525757
0.000522475
0.000523849
0.000526939
0.000527289
0.000527332
0.000527346
0.000527346
0.000527331
0.000527292
0.000526953
0.000523401
0.000524252
0.000527941
0.000528356
0.000528411
0.000528428
0.000528428
0.000528415
0.000528367
0.000527972
0.000523824
0.000521922
0.000523873
0.000524088
0.000524113
0.000524118
0.000524121
0.000524121
0.000524113
0.000523929
0.000521823
0.000524168
0.00101216
0.00106428
0.00106728
0.00106745
0.00106752
0.00106754
0.00106536
0.00101602
0.000523928
0.000524918
0.00107905
0.00114329
0.001147
0.00114717
0.00114718
0.00114709
0.00114411
0.00108298
0.00052467
0.000525718
0.00108495
0.00115076
0.00115458
0.00115476
0.00115476
0.00115465
0.00115152
0.00108866
0.000525473
0.000526296
0.00108892
0.00115702
0.00116125
0.00116154
0.00116154
0.00116133
0.00115781
0.00109263
0.000526059
0.000522648
0.0005245
0.000524725
0.000524749
0.000524756
0.000524759
0.00052476
0.00052475
0.000524541
0.000522266
0.000524702
0.00106524
0.00112691
0.00113046
0.00113063
0.00113068
0.00113067
0.00112796
0.00106935
0.000524473
0.000525369
0.0011401
0.00121697
0.00122155
0.00122175
0.00122176
0.00122165
0.00121794
0.00114472
0.000525153
0.000526035
0.00114595
0.00122466
0.0012294
0.00122962
0.00122962
0.00122948
0.0012256
0.00115048
0.000525818
0.000526717
0.00114705
0.00122746
0.00123248
0.00123276
0.00123276
0.00123256
0.00122841
0.00115155
0.000526503
0.000522987
0.000524838
0.000525061
0.000525083
0.00052509
0.000525093
0.000525093
0.000525082
0.00052487
0.000522582
0.000524998
0.00107296
0.00113565
0.00113921
0.00113936
0.00113939
0.00113936
0.00113654
0.00107667
0.000524768
0.000525595
0.0011444
0.00122194
0.00122655
0.00122675
0.00122676
0.00122664
0.00122288
0.00114887
0.000525381
0.000526165
0.00114962
0.00122877
0.00123353
0.00123375
0.00123375
0.00123361
0.0012297
0.0011541
0.000525949
0.000526872
0.00114978
0.00122994
0.00123484
0.00123509
0.00123509
0.00123492
0.00123088
0.00115423
0.000526656
0.000523175
0.000525028
0.000525249
0.000525269
0.000525276
0.000525278
0.000525278
0.000525265
0.000525052
0.000522752
0.000525173
0.00107847
0.00114185
0.00114543
0.00114559
0.00114561
0.00114555
0.00114264
0.00108196
0.000524935
0.000525727
0.00114559
0.00122304
0.00122763
0.00122783
0.00122783
0.00122771
0.00122396
0.00114993
0.000525509
0.000526251
0.00115018
0.0012289
0.00123361
0.00123382
0.00123382
0.00123368
0.00122981
0.00115456
0.000526032
0.00052695
0.00115031
0.00122949
0.00123425
0.00123447
0.00123447
0.00123432
0.0012304
0.00115467
0.000526731
0.000523204
0.000525138
0.000525366
0.000525388
0.000525395
0.000525397
0.000525395
0.00052538
0.000525158
0.000522773
0.000525219
0.00108233
0.00114622
0.00114983
0.00114998
0.00114998
0.00114989
0.00114692
0.00108565
0.000524977
0.000525776
0.00114635
0.00122375
0.00122833
0.00122853
0.00122853
0.00122841
0.00122464
0.00115059
0.000525555
0.000526313
0.00115054
0.00122894
0.00123362
0.00123383
0.00123384
0.00123369
0.00122984
0.00115484
0.000526091
0.00052702
0.00115104
0.00122948
0.00123417
0.00123439
0.00123439
0.00123424
0.00123037
0.0011553
0.000526797
0.000523083
0.000525242
0.000525493
0.000525517
0.000525526
0.000525527
0.000525523
0.000525504
0.000525261
0.000522647
0.000525137
0.00108295
0.00114689
0.00115051
0.00115067
0.00115067
0.00115057
0.00114758
0.00108623
0.000524889
0.000525753
0.00114626
0.00122352
0.00122809
0.00122829
0.00122829
0.00122816
0.0012244
0.00115045
0.000525526
0.000526372
0.00115025
0.00122841
0.00123307
0.00123328
0.00123329
0.00123315
0.0012293
0.00115449
0.000526145
0.000527152
0.00115075
0.00122887
0.00123355
0.00123377
0.00123377
0.00123362
0.00122975
0.00115496
0.000526923
0.000522802
0.00052517
0.000525439
0.000525469
0.000525477
0.000525479
0.000525473
0.000525449
0.000525186
0.000522363
0.000524913
0.00107865
0.00114162
0.00114517
0.00114532
0.00114533
0.00114523
0.00114229
0.00108183
0.000524659
0.000525626
0.00113951
0.00121506
0.00121948
0.00121966
0.00121966
0.00121955
0.0012159
0.00114355
0.000525393
0.000526377
0.00114157
0.00121748
0.0012219
0.00122206
0.00122206
0.00122196
0.00121832
0.00114562
0.000526142
0.000527301
0.00113893
0.00121385
0.00121815
0.00121829
0.00121829
0.00121821
0.00121465
0.00114288
0.000527063
0.000522345
0.000524641
0.000524892
0.000524921
0.000524931
0.000524932
0.000524924
0.000524899
0.000524653
0.0005219
0.000524366
0.00101065
0.00106148
0.00106414
0.0010642
0.00106419
0.00106416
0.00106194
0.00101303
0.000524088
0.00052518
0.00105399
0.00111272
0.00111577
0.00111576
0.00111576
0.00111578
0.00111328
0.00105691
0.000524917
0.000526081
0.00104504
0.00110179
0.00110447
0.00110434
0.00110433
0.00110447
0.0011023
0.00104784
0.000525813
0.000527272
0.00102453
0.00107659
0.00107862
0.00107834
0.00107833
0.0010786
0.00107702
0.001027
0.000526998
0.000521359
0.000521468
0.000521485
0.000521491
0.000521493
0.000521494
0.000521492
0.000521486
0.000521451
0.000520883
0.000522006
0.000523846
0.000524066
0.000524093
0.000524101
0.000524102
0.000524094
0.00052407
0.000523855
0.000521547
0.000522814
0.00052486
0.000525133
0.000525179
0.000525195
0.000525197
0.000525181
0.000525138
0.000524871
0.000522357
0.000523922
0.000526086
0.000526417
0.000526494
0.00052652
0.000526521
0.000526494
0.00052642
0.000526096
0.000523467
0.000525798
0.000529329
0.000530055
0.000530171
0.000530192
0.000530191
0.000530165
0.000530051
0.00052938
0.000525372
0.000532662
0.000559844
0.000566319
0.000565669
0.000565175
0.000565144
0.000565573
0.000566285
0.000560711
0.0005326
0.000582816
0.000797803
0.000837734
0.000829928
0.000825646
0.000825431
0.00082928
0.000837516
0.000803291
0.000586253
0.000836298
0.00147981
0.00157216
0.001557
0.00154818
0.00154774
0.00155568
0.0015719
0.00149112
0.000850619
0.00135181
0.00244375
0.00258946
0.00258499
0.00257795
0.00257747
0.00258359
0.00258955
0.00245756
0.00137398
0.00201646
0.00365213
0.00386686
0.00388216
0.00388021
0.00387976
0.00388094
0.00386748
0.00366777
0.00204216
0.000529457
0.000982684
0.00102533
0.00102623
0.00102576
0.00102574
0.0010262
0.00102561
0.000984547
0.000529216
0.000535892
0.00092759
0.00095488
0.000958297
0.000958992
0.000959021
0.000958392
0.000955181
0.000928253
0.000536048
0.00058112
0.000790934
0.000806
0.000824034
0.000829969
0.000830063
0.000824416
0.000806501
0.000790501
0.000583897
0.000851313
0.000943832
0.000996719
0.000989304
0.000985388
0.000985172
0.000988822
0.000997042
0.000950355
0.000862403
0.002362
0.00457904
0.00478433
0.0047976
0.0047962
0.0047959
0.00479693
0.0047859
0.00459482
0.00239108
0.000528473
0.00113085
0.00120329
0.00120728
0.00120734
0.00120734
0.00120732
0.00120404
0.00113459
0.000528247
0.000530153
0.00110471
0.00116826
0.0011715
0.00117144
0.00117144
0.00117154
0.0011689
0.00110777
0.000529974
0.000537
0.000944368
0.000969007
0.000979262
0.000982548
0.000982652
0.000979622
0.000969531
0.000943735
0.00053722
0.000720082
0.000678114
0.000700232
0.000702677
0.000703078
0.000703044
0.000702661
0.000700587
0.000680962
0.000726927
0.00239483
0.0046569
0.00481788
0.00482403
0.00482196
0.00482186
0.004824
0.00482047
0.00467296
0.00242384
0.00052782
0.00115178
0.00123017
0.00123499
0.00123527
0.00123527
0.00123506
0.00123106
0.00115599
0.000527598
0.000529138
0.00114181
0.00121716
0.00122143
0.00122149
0.00122149
0.00122148
0.00121797
0.00114576
0.000528934
0.000532362
0.000960598
0.000999969
0.00100411
0.00100423
0.00100419
0.00100404
0.00100008
0.000961027
0.00053235
0.000702288
0.000629019
0.000645537
0.000647551
0.000647977
0.000647978
0.000647603
0.000645928
0.000631445
0.000708511
0.00248092
0.00478695
0.00494238
0.00495387
0.00495412
0.00495413
0.00495422
0.00494561
0.00480346
0.00251151
0.000527427
0.00115336
0.00123257
0.00123749
0.00123779
0.0012378
0.00123756
0.00123348
0.00115767
0.000527208
0.000528753
0.001147
0.00122496
0.00122951
0.00122965
0.00122965
0.00122957
0.00122583
0.00115115
0.000528548
0.000531304
0.000962463
0.000996533
0.000996379
0.00099526
0.000995209
0.000996187
0.000996375
0.000962595
0.000531273
0.000739414
0.00062148
0.000639035
0.000641463
0.000642181
0.000642197
0.000641569
0.000639524
0.000624083
0.00074717
0.00251409
0.00480304
0.00495368
0.0049663
0.00496717
0.0049672
0.00496681
0.00495713
0.00481928
0.00254495
0.000527351
0.0011529
0.00123349
0.00123856
0.00123889
0.00123889
0.00123865
0.00123444
0.00115732
0.000527135
0.000528769
0.00114388
0.00122557
0.00123043
0.00123058
0.00123058
0.00123049
0.00122648
0.00114818
0.000528568
0.000532246
0.000948839
0.000978987
0.000974569
0.000971936
0.000971876
0.000974281
0.000978719
0.000949021
0.000532252
0.000823203
0.000645985
0.000668251
0.000675063
0.000677695
0.000677748
0.000675347
0.00066897
0.000648611
0.000832221
0.00251998
0.00472603
0.0048654
0.00487958
0.00488191
0.00488201
0.00488032
0.00486893
0.004741
0.00254995
0.000527514
0.00115308
0.00123524
0.00124051
0.00124086
0.00124087
0.0012406
0.00123622
0.0011576
0.000527306
0.00052896
0.00114098
0.0012277
0.00123314
0.00123335
0.00123334
0.00123321
0.00122868
0.00114547
0.000528759
0.000534505
0.000976551
0.00101129
0.00100723
0.00100446
0.00100439
0.00100694
0.0010111
0.000977309
0.000534565
0.000867252
0.000647541
0.000670438
0.000678663
0.000682018
0.000682092
0.000678987
0.000671191
0.000649665
0.000874317
0.00248439
0.0045054
0.00462518
0.00464015
0.0046438
0.00464395
0.00464106
0.00462847
0.00451791
0.00251098
0.00052794
0.00115087
0.00123366
0.00123901
0.00123937
0.00123937
0.0012391
0.00123466
0.00115542
0.000527737
0.000529048
0.00114334
0.0012362
0.00124283
0.00124329
0.00124329
0.00124293
0.00123727
0.00114815
0.000528846
0.000536425
0.00105709
0.00110703
0.00110772
0.00110668
0.00110666
0.00110761
0.00110729
0.00105905
0.000536435
0.00077508
0.000624951
0.000646717
0.000652072
0.000653956
0.000653984
0.000652231
0.000647209
0.000626585
0.000779609
0.00234381
0.00407376
0.00417056
0.00418429
0.00418849
0.00418865
0.00418517
0.00417337
0.00408351
0.00236367
0.000528404
0.00109365
0.0011642
0.00116861
0.00116888
0.00116889
0.00116868
0.00116502
0.00109741
0.000528186
0.00052863
0.00110949
0.00119625
0.00120348
0.00120432
0.00120433
0.0012036
0.0011973
0.00111393
0.000528411
0.000538232
0.00110718
0.00116885
0.00117364
0.00117414
0.00117416
0.0011737
0.0011695
0.00110993
0.000538196
0.000683603
0.000624476
0.000649401
0.000650908
0.000650759
0.000650739
0.000650877
0.000649637
0.000625614
0.000686981
0.00199134
0.00334259
0.00341621
0.00342776
0.00343151
0.00343164
0.00342844
0.00341833
0.00334983
0.00200428
0.000526969
0.000531292
0.000531869
0.000531993
0.000532041
0.000532045
0.000531999
0.000531891
0.000531346
0.00052655
0.000525283
0.000532664
0.00053366
0.000533819
0.000533864
0.000533868
0.000533833
0.000533695
0.000532749
0.00052486
0.00053774
0.000548796
0.000550312
0.000550684
0.000550805
0.000550808
0.000550701
0.00055035
0.000548936
0.000537421
0.000589899
0.000678402
0.000693961
0.00069622
0.000696764
0.000696754
0.000696249
0.000694227
0.000679744
0.000590988
0.00129275
0.00175201
0.00178647
0.00179562
0.00179838
0.00179846
0.001796
0.0017876
0.0017558
0.00129842
)
;

boundaryField
{
    walls
    {
        type            nutkWallFunction;
        Cmu             0.09;
        kappa           0.41;
        E               9.8;
        value           nonuniform List<scalar> 
500
(
6.28264e-05
6.28264e-05
6.28264e-05
6.35271e-05
6.35271e-05
6.35542e-05
6.35542e-05
6.35541e-05
6.35541e-05
6.35538e-05
6.35538e-05
6.35537e-05
6.35537e-05
6.35535e-05
6.35535e-05
6.35533e-05
6.35533e-05
6.35499e-05
6.35499e-05
6.34866e-05
6.34866e-05
6.34866e-05
6.35718e-05
6.35718e-05
6.38761e-05
6.39043e-05
6.3906e-05
6.39063e-05
6.39063e-05
6.39058e-05
6.39041e-05
6.38769e-05
6.35499e-05
6.35499e-05
6.36756e-05
6.36756e-05
6.39948e-05
6.40285e-05
6.40313e-05
6.40319e-05
6.40318e-05
6.4031e-05
6.40284e-05
6.39952e-05
6.36193e-05
6.36193e-05
6.37776e-05
6.37776e-05
6.41277e-05
6.41667e-05
6.41715e-05
6.41731e-05
6.4173e-05
6.41713e-05
6.4167e-05
6.41292e-05
6.37229e-05
6.37229e-05
6.38266e-05
6.38266e-05
6.42429e-05
6.4289e-05
6.42951e-05
6.42969e-05
6.42969e-05
6.42954e-05
6.42901e-05
6.42463e-05
6.37743e-05
6.37743e-05
6.35584e-05
6.35584e-05
6.37846e-05
6.38091e-05
6.38119e-05
6.38126e-05
6.38129e-05
6.3813e-05
6.38121e-05
6.37913e-05
6.35455e-05
6.35455e-05
6.38182e-05
6.37889e-05
6.39032e-05
6.3873e-05
6.39929e-05
6.3963e-05
6.40604e-05
6.40315e-05
6.3642e-05
6.3642e-05
6.38554e-05
6.38809e-05
6.38837e-05
6.38846e-05
6.3885e-05
6.38851e-05
6.3884e-05
6.38604e-05
6.35954e-05
6.35954e-05
6.38784e-05
6.38506e-05
6.39539e-05
6.39275e-05
6.40289e-05
6.40024e-05
6.41068e-05
6.40806e-05
6.36804e-05
6.36804e-05
6.38935e-05
6.39188e-05
6.39213e-05
6.39221e-05
6.39225e-05
6.39225e-05
6.39213e-05
6.38974e-05
6.3631e-05
6.3631e-05
6.39118e-05
6.38837e-05
6.39791e-05
6.3953e-05
6.40434e-05
6.40171e-05
6.41233e-05
6.40969e-05
6.37016e-05
6.37016e-05
6.39148e-05
6.39398e-05
6.39421e-05
6.39428e-05
6.39432e-05
6.39431e-05
6.39418e-05
6.39177e-05
6.36501e-05
6.36501e-05
6.39313e-05
6.39024e-05
6.39939e-05
6.39673e-05
6.4053e-05
6.40263e-05
6.41315e-05
6.41047e-05
6.37048e-05
6.37048e-05
6.39271e-05
6.39529e-05
6.39553e-05
6.39561e-05
6.39563e-05
6.39562e-05
6.39545e-05
6.39295e-05
6.36523e-05
6.36523e-05
6.39364e-05
6.39069e-05
6.39992e-05
6.39722e-05
6.40597e-05
6.40327e-05
6.41391e-05
6.41119e-05
6.36911e-05
6.36911e-05
6.39381e-05
6.39661e-05
6.39689e-05
6.39698e-05
6.397e-05
6.39696e-05
6.39675e-05
6.39402e-05
6.3638e-05
6.3638e-05
6.3927e-05
6.38968e-05
6.39965e-05
6.39688e-05
6.40661e-05
6.40384e-05
6.41537e-05
6.41257e-05
6.36593e-05
6.36593e-05
6.39291e-05
6.39593e-05
6.39624e-05
6.39635e-05
6.39636e-05
6.3963e-05
6.39604e-05
6.39311e-05
6.36059e-05
6.36059e-05
6.39017e-05
6.38709e-05
6.39821e-05
6.39537e-05
6.40664e-05
6.40378e-05
6.41701e-05
6.41411e-05
6.36078e-05
6.36078e-05
6.38693e-05
6.38974e-05
6.39006e-05
6.39016e-05
6.39017e-05
6.39009e-05
6.38983e-05
6.38707e-05
6.35536e-05
6.35536e-05
6.38402e-05
6.38064e-05
6.39318e-05
6.39e-05
6.40327e-05
6.40003e-05
6.41655e-05
6.41323e-05
6.34928e-05
6.34928e-05
6.34928e-05
6.35049e-05
6.35049e-05
6.35068e-05
6.35068e-05
6.35074e-05
6.35074e-05
6.35077e-05
6.35077e-05
6.35077e-05
6.35077e-05
6.35075e-05
6.35075e-05
6.35069e-05
6.35069e-05
6.35029e-05
6.35029e-05
6.34349e-05
6.34349e-05
6.34349e-05
6.35656e-05
6.35656e-05
6.37788e-05
6.38037e-05
6.38067e-05
6.38076e-05
6.38077e-05
6.38068e-05
6.38043e-05
6.37798e-05
6.35096e-05
6.35096e-05
6.36562e-05
6.36562e-05
6.38926e-05
6.39234e-05
6.39284e-05
6.39302e-05
6.39303e-05
6.39286e-05
6.3924e-05
6.3894e-05
6.36005e-05
6.36005e-05
6.37797e-05
6.37797e-05
6.40279e-05
6.40646e-05
6.40729e-05
6.40757e-05
6.40759e-05
6.40729e-05
6.40649e-05
6.40288e-05
6.37243e-05
6.37243e-05
6.39847e-05
6.39847e-05
6.43524e-05
6.44232e-05
6.44359e-05
6.44387e-05
6.44386e-05
6.44354e-05
6.44227e-05
6.43567e-05
6.3932e-05
6.3932e-05
6.46732e-05
6.46732e-05
6.7134e-05
6.76949e-05
6.76416e-05
6.75998e-05
6.75972e-05
6.7633e-05
6.76913e-05
6.72101e-05
6.46537e-05
6.46537e-05
6.94758e-05
6.94758e-05
8.98049e-05
9.34117e-05
9.26557e-05
9.22537e-05
9.22334e-05
9.25935e-05
9.33843e-05
9.03254e-05
6.9789e-05
6.9789e-05
9.51219e-05
9.51219e-05
0.000158882
0.000167454
0.000165831
0.000164953
0.000164909
0.000165695
0.000167409
0.000160001
9.65531e-05
9.65531e-05
0.000149737
0.000149737
0.000257529
0.000271052
0.000270429
0.000269719
0.00026967
0.000270283
0.000271036
0.00025889
0.000152003
0.000152003
0.000219546
0.000219546
0.000377317
0.000397079
0.000398397
0.000398198
0.000398152
0.00039827
0.000397113
0.000378828
0.000222114
0.000222114
6.44025e-05
6.43723e-05
6.50281e-05
6.50346e-05
6.94875e-05
6.97516e-05
9.8261e-05
9.94268e-05
0.000254444
0.000257355
6.42994e-05
6.42717e-05
6.44791e-05
6.44561e-05
6.51673e-05
6.51838e-05
8.46301e-05
8.53584e-05
0.000257924
0.00026083
6.42272e-05
6.42002e-05
6.43733e-05
6.43481e-05
6.4717e-05
6.47128e-05
8.28097e-05
8.34761e-05
0.000266262
0.000269328
6.41841e-05
6.41572e-05
6.43305e-05
6.43053e-05
6.45997e-05
6.45931e-05
8.62333e-05
8.7052e-05
0.00026962
0.000272725
6.41758e-05
6.41493e-05
6.43329e-05
6.43081e-05
6.46887e-05
6.46858e-05
9.5338e-05
9.63173e-05
0.000270434
0.000273485
6.41944e-05
6.41688e-05
6.43561e-05
6.43314e-05
6.49377e-05
6.49413e-05
0.000101062
0.000101893
0.00026772
0.000270487
6.42423e-05
6.42175e-05
6.43689e-05
6.4344e-05
6.51817e-05
6.51806e-05
9.19975e-05
9.24824e-05
0.000255204
0.000257341
6.42956e-05
6.42689e-05
6.4324e-05
6.4297e-05
6.54046e-05
6.53987e-05
8.15759e-05
8.19605e-05
0.000221075
0.000222487
6.41283e-05
6.41283e-05
6.46201e-05
6.46851e-05
6.46991e-05
6.47046e-05
6.4705e-05
6.46998e-05
6.46876e-05
6.46264e-05
6.40769e-05
6.40769e-05
6.39388e-05
6.39388e-05
6.47714e-05
6.48813e-05
6.48987e-05
6.49035e-05
6.4904e-05
6.49002e-05
6.48853e-05
6.4781e-05
6.38869e-05
6.38869e-05
6.53748e-05
6.53748e-05
6.66203e-05
6.67899e-05
6.68321e-05
6.68459e-05
6.68461e-05
6.6834e-05
6.6794e-05
6.66364e-05
6.53354e-05
6.53354e-05
7.11882e-05
7.11882e-05
8.09879e-05
8.26653e-05
8.29127e-05
8.29742e-05
8.29733e-05
8.29164e-05
8.26954e-05
8.114e-05
7.131e-05
7.131e-05
0.000148932
0.000148932
0.000196731
0.000200156
0.000201065
0.000201342
0.00020135
0.000201105
0.000200272
0.000197128
0.000149555
0.000149555
)
;
    }
    lid
    {
        type            nutkWallFunction;
        Cmu             0.09;
        kappa           0.41;
        E               9.8;
        value           nonuniform List<scalar> 
100
(
0.000219546
0.000377317
0.000397079
0.000398397
0.000398198
0.000398152
0.00039827
0.000397113
0.000378828
0.000222114
0.000254444
0.000467999
0.000486671
0.000487789
0.000487639
0.000487609
0.000487717
0.000486798
0.000469513
0.000257355
0.000257924
0.000474892
0.000489423
0.000489892
0.000489683
0.000489672
0.000489881
0.000489652
0.000476435
0.00026083
0.000266262
0.000487414
0.000501416
0.000502382
0.000502387
0.000502386
0.000502411
0.000501711
0.000489008
0.000269328
0.00026962
0.0004896
0.000503237
0.000504324
0.000504389
0.000504392
0.000504367
0.000503555
0.000491184
0.000272725
0.000270434
0.000483649
0.000496438
0.000497625
0.000497778
0.000497785
0.000497687
0.000496768
0.00048514
0.000273485
0.00026772
0.000465106
0.000476257
0.000477579
0.000477884
0.000477897
0.000477662
0.000476575
0.000466381
0.000270487
0.000255204
0.000425988
0.000435083
0.000436355
0.000436741
0.000436757
0.00043644
0.000435362
0.000426994
0.000257341
0.000221075
0.000356327
0.000363317
0.000364416
0.000364778
0.00036479
0.000364484
0.00036353
0.000357074
0.000222487
0.000148932
0.000196731
0.000200156
0.000201065
0.000201342
0.00020135
0.000201105
0.000200272
0.000197128
0.000149555
)
;
    }
}


// ************************************************************************* //
