/*--------------------------------*- C++ -*----------------------------------*\
| =========                 |                                                 |
| \\      /  F ield         | OpenFOAM: The Open Source CFD Toolbox           |
|  \\    /   O peration     | Version:  2.3.1                                 |
|   \\  /    A nd           | Web:      www.OpenFOAM.org                      |
|    \\/     M anipulation  |                                                 |
\*---------------------------------------------------------------------------*/
FoamFile
{
    version     2.0;
    format      ascii;
    class       surfaceScalarField;
    location    "0.99";
    object      phi;
}
// * * * * * * * * * * * * * * * * * * * * * * * * * * * * * * * * * * * * * //

dimensions      [0 3 -1 0 0 0 0];

internalField   nonuniform List<scalar> 
2700
(
1.89418e-06
5.9622e-05
-5.84914e-05
1.9479e-06
5.92683e-05
-5.93215e-05
1.29528e-06
5.97146e-05
-5.90837e-05
8.4737e-07
5.98841e-05
-5.94275e-05
1.65237e-07
6.01357e-05
-5.94756e-05
-4.28222e-07
6.01229e-05
-5.95224e-05
-8.33417e-07
5.98906e-05
-5.95056e-05
-8.65417e-07
5.95117e-05
-5.94806e-05
-5.13855e-07
5.91211e-05
-5.94873e-05
5.88684e-05
-5.93817e-05
6.77522e-07
0.000124026
-6.50861e-05
1.34002e-06
0.000124613
-6.60199e-05
1.4386e-06
0.000125738
-6.61158e-05
9.3714e-07
0.000126627
-6.62608e-05
1.56267e-07
0.000127235
-6.63114e-05
-6.35667e-07
0.00012724
-6.63447e-05
-1.14348e-06
0.000126708
-6.63084e-05
-1.09345e-06
0.000125724
-6.62779e-05
-4.74179e-07
0.000124666
-6.61651e-05
0.000123425
-6.50321e-05
1.56485e-06
0.000198809
-7.6341e-05
2.48967e-06
0.000201729
-7.8032e-05
2.4378e-06
0.000204016
-7.82359e-05
1.50975e-06
0.000205969
-7.84014e-05
1.69616e-07
0.000207065
-7.85016e-05
-1.16108e-06
0.000207105
-7.8523e-05
-2.08904e-06
0.000206095
-7.84659e-05
-2.1224e-06
0.000204152
-7.83901e-05
-1.21932e-06
0.000201979
-7.82137e-05
0.000198975
-7.67577e-05
2.06921e-06
0.000289489
-9.27157e-05
3.32e-06
0.00029421
-9.37101e-05
3.33725e-06
0.000297573
-9.35418e-05
2.0552e-06
0.000300761
-9.34928e-05
1.86547e-07
0.000302481
-9.3513e-05
-1.69719e-06
0.000302543
-9.35322e-05
-3.00925e-06
0.00030097
-9.35354e-05
-3.05969e-06
0.000297859
-9.36298e-05
-1.9129e-06
0.000294656
-9.37916e-05
0.000289925
-9.28342e-05
9.07394e-06
-0.000135843
0.000416341
1.09525e-05
-0.000138749
0.000431158
9.41092e-06
-0.000139505
0.000438693
5.33984e-06
-0.000139989
0.000444898
3.2409e-07
-0.000140298
0.000447868
-4.69329e-06
-0.000140327
0.000447961
-8.78223e-06
-0.000140073
0.000445206
-1.03877e-05
-0.000139648
0.000439195
-8.67434e-06
-0.000138938
0.000431966
-0.000136067
0.000417382
6.93367e-07
5.33262e-05
-0.000112523
1.01749e-06
5.48316e-05
-0.000114489
1.02204e-06
5.55108e-05
-0.000114596
6.65133e-07
5.58503e-05
-0.00011494
1.24577e-07
5.61106e-05
-0.00011504
-4.40206e-07
5.61062e-05
-0.000115084
-8.39069e-07
5.58858e-05
-0.000114992
-9.81357e-07
5.54869e-05
-0.000114844
-7.83967e-07
5.49769e-05
-0.000114664
5.35809e-05
-0.000113754
7.85623e-07
0.000111597
-0.000124144
1.33165e-06
0.000113808
-0.000125544
1.35583e-06
0.000115129
-0.000125776
8.69059e-07
0.000116135
-0.000126052
1.27995e-07
0.000116725
-0.000126204
-6.22057e-07
0.000116748
-0.000126232
-1.15405e-06
0.000116215
-0.000126123
-1.24803e-06
0.000115229
-0.000125928
-8.35565e-07
0.000114056
-0.000125667
0.000111982
-0.000124266
1.80351e-06
0.0001788
-0.000145344
2.4935e-06
0.000182107
-0.000147025
2.349e-06
0.000184476
-0.000147424
1.42505e-06
0.000186468
-0.000147821
1.57218e-07
0.000187559
-0.000148051
-1.12929e-06
0.000187595
-0.000148089
-2.06537e-06
0.000186603
-0.000147907
-2.28833e-06
0.000184659
-0.000147602
-1.65142e-06
0.000182432
-0.000147218
0.000179213
-0.000145633
3.40717e-06
0.000258516
-0.000175805
4.0046e-06
0.000265585
-0.000177754
3.56004e-06
0.000269459
-0.000178062
2.10621e-06
0.000272875
-0.000178409
1.76191e-07
0.000274646
-0.000178647
-1.76174e-06
0.000274714
-0.000178678
-3.25206e-06
0.000273081
-0.000178501
-3.76636e-06
0.000269786
-0.000178211
-3.26332e-06
0.000266099
-0.000177928
0.00025913
-0.000175988
9.00802e-06
-0.00024646
0.000360205
1.06188e-05
-0.00024908
0.00037438
8.98583e-06
-0.000250414
0.00038208
5.06113e-06
-0.000251667
0.000388545
3.01741e-07
-0.000252403
0.000391584
-4.45951e-06
-0.000252459
0.000391675
-8.40074e-06
-0.000251834
0.000388854
-1.00907e-05
-0.000250683
0.000382598
-8.64628e-06
-0.000249432
0.000375226
-0.000246879
0.000361361
1.12838e-06
4.34706e-05
-0.000157121
1.15963e-06
4.44923e-05
-0.000159018
9.45757e-07
4.49912e-05
-0.000159393
5.68419e-07
4.52968e-05
-0.000159855
9.8784e-08
4.54966e-05
-0.000160089
-3.59286e-07
4.55038e-05
-0.000160126
-7.09845e-07
4.53027e-05
-0.000159967
-8.58613e-07
4.49544e-05
-0.000159652
-7.59262e-07
4.44799e-05
-0.000159263
4.31782e-05
-0.000157692
1.00945e-06
8.99367e-05
-0.000171631
1.29908e-06
9.18699e-05
-0.000173224
1.20319e-06
9.30218e-05
-0.000173705
7.35395e-07
9.39001e-05
-0.000174206
1.12088e-07
9.44119e-05
-0.000174486
-5.25788e-07
9.44241e-05
-0.000174533
-9.85471e-07
9.39592e-05
-0.000174313
-1.12945e-06
9.30739e-05
-0.000173922
-8.5516e-07
9.19882e-05
-0.000173449
8.99634e-05
-0.000171911
1.79578e-06
0.000142692
-0.000199887
2.27524e-06
0.000146039
-0.000201664
2.03578e-06
0.000148237
-0.000202409
1.21767e-06
0.00015004
-0.000203118
1.23173e-07
0.000150995
-0.000203544
-9.64199e-07
0.000151034
-0.000203586
-1.80092e-06
0.00015014
-0.000203255
-2.07593e-06
0.000148394
-0.000202634
-1.63902e-06
0.000146282
-0.000201945
0.000142938
-0.000200237
3.4604e-06
0.000204995
-0.000241539
3.86657e-06
0.00021195
-0.000244047
3.28926e-06
0.000215807
-0.000245009
1.89394e-06
0.000218989
-0.00024594
1.494e-07
0.00022062
-0.000246481
-1.60806e-06
0.000220673
-0.000246535
-3.01847e-06
0.000219166
-0.000246083
-3.64692e-06
0.000216092
-0.000245248
-3.31914e-06
0.000212404
-0.000244344
0.000205528
-0.000241868
8.38872e-06
-0.000324171
0.000274402
9.49429e-06
-0.0003276
0.000289441
7.83468e-06
-0.00032995
0.000297073
4.35189e-06
-0.000332166
0.000303041
2.46616e-07
-0.000333413
0.000305798
-3.85874e-06
-0.000333497
0.000305874
-7.34562e-06
-0.000332412
0.000303303
-9.04178e-06
-0.000330352
0.000297529
-8.08214e-06
-0.000328134
0.000290227
-0.00032482
0.000275445
5.80828e-07
2.93787e-05
-0.000187104
6.14198e-07
3.01472e-05
-0.000189211
5.38333e-07
3.05012e-05
-0.000189819
3.19256e-07
3.07351e-05
-0.000190393
6.19908e-08
3.08873e-05
-0.000190714
-2.10204e-07
3.08844e-05
-0.000190764
-4.11561e-07
3.07512e-05
-0.000190512
-5.23901e-07
3.0495e-05
-0.000190061
-4.80192e-07
3.01705e-05
-0.000189478
2.93515e-05
-0.000187539
5.81717e-07
6.10793e-05
-0.000203912
7.89778e-07
6.24723e-05
-0.00020576
7.34261e-07
6.33162e-05
-0.000206483
4.53948e-07
6.39823e-05
-0.00020716
6.31194e-08
6.43472e-05
-0.000207571
-3.17513e-07
6.4364e-05
-0.000207615
-6.14611e-07
6.40161e-05
-0.000207299
-6.98498e-07
6.33728e-05
-0.000206709
-5.17337e-07
6.25636e-05
-0.000206038
6.11699e-05
-0.000204244
1.16827e-06
9.67152e-05
-0.000236693
1.51643e-06
9.92473e-05
-0.000238788
1.35925e-06
0.000100966
-0.000239873
7.98448e-07
0.000102327
-0.000240903
8.4882e-08
0.000103055
-0.000241501
-6.47424e-07
0.000103073
-0.000241562
-1.2071e-06
0.000102407
-0.000241056
-1.40526e-06
0.000101079
-0.000240142
-1.08621e-06
9.94351e-05
-0.000239118
9.6929e-05
-0.000237076
2.50288e-06
0.000138472
-0.00028576
2.86338e-06
0.00014379
-0.000288908
2.39555e-06
0.000147015
-0.000290567
1.36409e-06
0.000149551
-0.00029208
9.38805e-08
0.000150826
-0.000292955
-1.17103e-06
0.000150868
-0.000293021
-2.22098e-06
0.000149674
-0.000292275
-2.71243e-06
0.000147233
-0.000290872
-2.41159e-06
0.000144136
-0.000289312
0.000138885
-0.000286208
6.26665e-06
-0.000369961
0.000178064
7.02319e-06
-0.000374882
0.000190388
5.68886e-06
-0.000378315
0.000196792
3.11488e-06
-0.000381413
0.00020143
1.61954e-07
-0.000383127
0.00020355
-2.7855e-06
-0.000383229
0.000203602
-5.36015e-06
-0.000381718
0.000201607
-6.71077e-06
-0.000378814
0.000197123
-6.06461e-06
-0.000375558
0.000190977
-0.000370757
0.000178819
1.21428e-07
1.33461e-05
-0.000200567
6.00617e-08
1.36409e-05
-0.000202804
1.86313e-08
1.37852e-05
-0.000203589
1.42296e-08
1.3886e-05
-0.000204272
1.06943e-08
1.39411e-05
-0.000204683
3.03949e-08
1.39454e-05
-0.00020472
1.17155e-08
1.38833e-05
-0.000204411
-2.24401e-08
1.37852e-05
-0.000203807
-7.44811e-08
1.36339e-05
-0.000203092
1.33139e-05
-0.000200929
1.12281e-07
2.81346e-05
-0.000218837
1.18298e-07
2.87475e-05
-0.000220883
1.01565e-07
2.91551e-05
-0.000221826
5.37206e-08
2.94545e-05
-0.000222697
2.65871e-08
2.96278e-05
-0.00022321
-2.8144e-08
2.96279e-05
-0.000223262
-5.61924e-08
2.94727e-05
-0.000222839
-9.39687e-08
2.91659e-05
-0.000222075
-8.25495e-08
2.87789e-05
-0.000221187
2.81585e-05
-0.000219184
3.94425e-07
4.55635e-05
-0.000254501
4.69217e-07
4.68471e-05
-0.000256948
3.80105e-07
4.7781e-05
-0.000258415
2.17813e-07
4.85032e-05
-0.000259749
1.74979e-08
4.88672e-05
-0.000260542
-1.60612e-07
4.88805e-05
-0.000260593
-3.40388e-07
4.85251e-05
-0.000259937
-4.2793e-07
4.7838e-05
-0.0002587
-3.67632e-07
4.69246e-05
-0.000257329
4.56544e-05
-0.000254926
1.1164e-06
6.68911e-05
-0.000308182
1.21225e-06
6.98727e-05
-0.000312005
9.49225e-07
7.19007e-05
-0.000314367
5.08386e-07
7.33696e-05
-0.000316489
4.77788e-08
7.41082e-05
-0.000317683
-4.47651e-07
7.41246e-05
-0.000317755
-8.84398e-07
7.34322e-05
-0.000316708
-1.16269e-06
7.20025e-05
-0.000314737
-1.08198e-06
7.00527e-05
-0.000312488
6.71112e-05
-0.000308722
3.32444e-06
-0.000391331
8.50164e-05
3.55696e-06
-0.000397519
9.23473e-05
2.70915e-06
-0.000401926
9.64084e-05
1.42449e-06
-0.000405786
9.90864e-05
5.96545e-08
-0.0004079
0.000100285
-1.30194e-06
-0.000408011
0.000100307
-2.57876e-06
-0.000406126
9.91682e-05
-3.42215e-06
-0.000402484
9.65692e-05
-3.2368e-06
-0.000398286
9.26644e-05
-0.000392222
8.53797e-05
-4.61925e-07
-4.14948e-06
-0.000195998
-6.67848e-07
-4.37928e-06
-0.00019824
-6.23886e-07
-4.49576e-06
-0.00019914
-3.93244e-07
-4.61149e-06
-0.000199929
-2.0172e-08
-4.66506e-06
-0.00020038
3.2612e-07
-4.67654e-06
-0.000200435
5.88583e-07
-4.61322e-06
-0.000200047
6.27814e-07
-4.52656e-06
-0.000199363
4.53882e-07
-4.40672e-06
-0.00019851
-4.19082e-06
-0.000196313
-5.00825e-07
-7.5114e-06
-0.00021497
-7.51137e-07
-7.83559e-06
-0.000217188
-7.24743e-07
-8.02612e-06
-0.00021835
-4.39711e-07
-8.20074e-06
-0.000219375
-4.08406e-08
-8.31344e-06
-0.000219991
3.89006e-07
-8.3104e-06
-0.000220033
6.65353e-07
-8.23057e-06
-0.000219534
7.16722e-07
-8.05193e-06
-0.000218584
4.8153e-07
-7.88747e-06
-0.000217505
-7.57008e-06
-0.000215322
-6.40255e-07
-9.10717e-06
-0.000252288
-9.37541e-07
-9.3445e-06
-0.000255149
-8.89938e-07
-9.44376e-06
-0.000257015
-5.5027e-07
-9.62493e-06
-0.000258684
-2.80376e-08
-9.71478e-06
-0.000259621
4.68676e-07
-9.73079e-06
-0.000259695
8.33986e-07
-9.6377e-06
-0.00025886
8.77327e-07
-9.49503e-06
-0.000257328
6.13086e-07
-9.39154e-06
-0.000255545
-9.16077e-06
-0.000252732
-7.77671e-07
-6.7548e-06
-0.000309728
-1.10621e-06
-6.48694e-06
-0.000314507
-1.07876e-06
-6.08951e-06
-0.000317756
-6.52538e-07
-5.96269e-06
-0.000320535
-6.46797e-08
-5.924e-06
-0.000322074
5.66324e-07
-5.93032e-06
-0.00032215
9.88394e-07
-5.99045e-06
-0.000320791
1.04275e-06
-6.11104e-06
-0.000318152
7.39695e-07
-6.51275e-06
-0.000315065
-6.77805e-06
-0.000310349
-3.52013e-07
-0.000392571
-5.1411e-06
-7.96936e-07
-0.000400866
-2.65815e-06
-9.82928e-07
-0.000406755
-1.02785e-06
-6.4769e-07
-0.000411655
-4.14656e-07
-5.26229e-08
-0.000414241
-1.43617e-07
5.42605e-07
-0.000414356
-1.68038e-07
8.93176e-07
-0.000412001
-4.36148e-07
7.30967e-07
-0.000407343
-1.06376e-06
3.23167e-07
-0.000401703
-2.64677e-06
-0.000393525
-5.12672e-06
-1.10271e-06
-2.24328e-05
-0.000172466
-1.49576e-06
-2.33179e-05
-0.000174552
-1.3803e-06
-2.37974e-05
-0.000175506
-8.32484e-07
-2.41728e-05
-0.0001763
-8.33111e-08
-2.44001e-05
-0.000176787
7.04309e-07
-2.43976e-05
-0.000176813
1.24194e-06
-2.42138e-05
-0.000176431
1.40862e-06
-2.38382e-05
-0.000175685
1.05184e-06
-2.33961e-05
-0.000174809
-2.25189e-05
-0.000172751
-1.29821e-06
-4.51244e-05
-0.000191031
-1.84146e-06
-4.66231e-05
-0.000193366
-1.70744e-06
-4.76059e-05
-0.000194673
-1.04162e-06
-4.84517e-05
-0.000195809
-7.14804e-08
-4.88956e-05
-0.000196448
8.71826e-07
-4.89251e-05
-0.000196507
1.57663e-06
-4.84972e-05
-0.000195936
1.72206e-06
-4.7714e-05
-0.000194907
1.23729e-06
-4.67589e-05
-0.000193659
-4.52776e-05
-0.000191358
-2.04452e-06
-6.68254e-05
-0.00022854
-2.74656e-06
-6.91379e-05
-0.000231946
-2.49727e-06
-7.06924e-05
-0.000234225
-1.46692e-06
-7.20134e-05
-0.000236132
-1.16572e-07
-7.27228e-05
-0.000237206
1.28395e-06
-7.27386e-05
-0.000237252
2.3014e-06
-7.21109e-05
-0.000236328
2.60535e-06
-7.0826e-05
-0.00023451
1.95748e-06
-6.93523e-05
-0.000232358
-6.70617e-05
-0.000228995
-3.49521e-06
-8.45031e-05
-0.000288594
-4.31707e-06
-8.8028e-05
-0.000294824
-3.75539e-06
-8.99855e-05
-0.000299014
-2.17109e-06
-9.17436e-05
-0.000302446
-1.16404e-07
-9.26014e-05
-0.00030423
1.90339e-06
-9.26448e-05
-0.000304324
3.52582e-06
-9.18348e-05
-0.00030268
4.09819e-06
-9.0165e-05
-0.000299443
3.38018e-06
-8.82869e-05
-0.000295417
-8.47902e-05
-0.000289261
-5.53901e-06
-0.00037468
-9.68432e-05
-6.61516e-06
-0.000386363
-0.000101459
-5.69404e-06
-0.000393925
-0.00010377
-3.20793e-06
-0.000399859
-0.000106015
-1.73976e-07
-0.000402844
-0.000107067
2.87137e-06
-0.000402945
-0.0001071
5.35392e-06
-0.000400213
-0.000106136
6.31719e-06
-0.000394517
-0.000103957
5.36752e-06
-0.000387278
-0.000101774
-0.000375722
-9.72278e-05
-1.78897e-06
-4.06591e-05
-0.000130072
-2.38367e-06
-4.24036e-05
-0.000131594
-2.15289e-06
-4.3341e-05
-0.000132405
-1.31298e-06
-4.40924e-05
-0.00013311
-1.02846e-07
-4.44862e-05
-0.000133508
1.07882e-06
-4.45148e-05
-0.000133551
1.9694e-06
-4.41298e-05
-0.000133189
2.22116e-06
-4.34359e-05
-0.000132563
1.70697e-06
-4.25225e-05
-0.000131785
-4.07908e-05
-0.000130289
-2.28942e-06
-8.31903e-05
-0.000146223
-3.09837e-06
-8.62457e-05
-0.000148747
-2.81765e-06
-8.82924e-05
-0.000150064
-1.67255e-06
-8.9948e-05
-0.000151101
-1.38103e-07
-9.08429e-05
-0.000151704
1.43574e-06
-9.08616e-05
-0.000151729
2.57829e-06
-9.00628e-05
-0.000151225
2.92299e-06
-8.84557e-05
-0.000150239
2.18408e-06
-8.65057e-05
-0.000149005
-8.34768e-05
-0.000146502
-3.96179e-06
-0.000127286
-0.000180553
-5.00935e-06
-0.000132464
-0.000184737
-4.36265e-06
-0.000135951
-0.000187229
-2.53788e-06
-0.000138816
-0.000189181
-1.47091e-07
-0.000140247
-0.000190192
2.20279e-06
-0.000140309
-0.000190256
4.08004e-06
-0.000138954
-0.000189316
4.74513e-06
-0.000136228
-0.000187499
3.82081e-06
-0.000132862
-0.000185103
-0.000127738
-0.000180956
-7.36323e-06
-0.000169089
-0.000239453
-8.52893e-06
-0.000178125
-0.000248051
-7.11606e-06
-0.000183332
-0.000253145
-3.96465e-06
-0.00018755
-0.000256887
-2.23423e-07
-0.000189576
-0.000258756
3.55417e-06
-0.000189619
-0.000258808
6.68312e-06
-0.00018776
-0.00025712
8.15532e-06
-0.000183659
-0.000253518
7.15284e-06
-0.000178699
-0.000248663
-0.000169742
-0.000240132
-1.29041e-05
-0.000329664
-0.000201298
-1.41853e-05
-0.000348431
-0.000214851
-1.14379e-05
-0.000358405
-0.000221643
-6.20793e-06
-0.000365404
-0.000227336
-2.7456e-07
-0.000368582
-0.000229811
5.61764e-06
-0.00036868
-0.000229882
1.08533e-05
-0.000365698
-0.000227556
1.35926e-05
-0.000358972
-0.00022203
1.25801e-05
-0.000349441
-0.000215561
-0.000330786
-0.000202146
-2.28887e-06
-5.7019e-05
-7.07881e-05
-3.11818e-06
-5.93901e-05
-7.14061e-05
-2.84634e-06
-6.08309e-05
-7.19055e-05
-1.70694e-06
-6.19501e-05
-7.23147e-05
-1.51838e-07
-6.25643e-05
-7.25697e-05
1.43791e-06
-6.25751e-05
-7.25782e-05
2.58251e-06
-6.20299e-05
-7.23731e-05
2.92482e-06
-6.09419e-05
-7.19822e-05
2.1749e-06
-5.95716e-05
-7.15225e-05
-5.72162e-05
-7.0919e-05
-3.11561e-06
-0.00011874
-8.14496e-05
-4.25066e-06
-0.00012334
-8.37176e-05
-3.82805e-06
-0.000126617
-8.4728e-05
-2.27215e-06
-0.00012925
-8.544e-05
-1.56764e-07
-0.000130586
-8.5815e-05
1.9371e-06
-0.000130642
-8.58455e-05
3.54036e-06
-0.00012938
-8.54961e-05
3.99819e-06
-0.000126876
-8.48456e-05
2.97698e-06
-0.000123713
-8.38764e-05
-0.000119163
-8.16204e-05
-5.9319e-06
-0.000187581
-0.000105811
-7.34836e-06
-0.000196538
-0.000110182
-6.28753e-06
-0.000202645
-0.000112367
-3.5628e-06
-0.000207391
-0.000113799
-2.24608e-07
-0.000209718
-0.00011452
3.15646e-06
-0.000209768
-0.000114535
5.86689e-06
-0.000207628
-0.000113902
7.00235e-06
-0.000203031
-0.000112522
5.73077e-06
-0.000197186
-0.000110454
-0.000188318
-0.000106102
-1.21593e-05
-0.000262566
-0.000152423
-1.35255e-05
-0.000280742
-0.000162593
-1.08376e-05
-0.000290991
-0.00016756
-5.89491e-06
-0.000298776
-0.000170597
-2.67989e-07
-0.00030224
-0.000171914
5.3004e-06
-0.000302339
-0.000171968
1.02629e-05
-0.000299057
-0.00017071
1.29408e-05
-0.000291537
-0.000167833
1.18526e-05
-0.000281742
-0.00016308
-0.000263714
-0.000152953
-2.40372e-05
-0.000237663
-0.000330631
-2.43539e-05
-0.000266226
-0.000362733
-1.83911e-05
-0.000277811
-0.000377694
-9.50654e-06
-0.000283962
-0.000389192
-3.86945e-07
-0.000286277
-0.00039383
8.71852e-06
-0.000286297
-0.000393917
1.75042e-05
-0.000284145
-0.000389554
2.34205e-05
-0.000278187
-0.000378323
2.35328e-05
-0.000267269
-0.000364129
-0.000238754
-0.00033228
-2.41428e-06
-6.8405e-05
-3.47473e-06
-7.03797e-05
-3.21451e-06
-7.21855e-05
-1.94149e-06
-7.36322e-05
-1.55943e-07
-7.4373e-05
1.62431e-06
-7.44043e-05
2.93714e-06
-7.37054e-05
3.2434e-06
-7.23302e-05
2.28636e-06
-7.05909e-05
-6.86504e-05
-3.63717e-06
-0.000146242
-5.01542e-06
-0.000152752
-4.51971e-06
-0.000157464
-2.63937e-06
-0.000160978
-1.87395e-07
-0.000162702
2.28317e-06
-0.000162743
4.17323e-06
-0.000161153
4.7319e-06
-0.000157765
3.47205e-06
-0.000153257
-0.000146815
-8.02596e-06
-0.000244088
-9.49227e-06
-0.000261536
-7.81869e-06
-0.00027155
-4.33314e-06
-0.000278351
-2.29418e-07
-0.000281362
3.84308e-06
-0.000281444
7.34627e-06
-0.000278598
9.03987e-06
-0.000272063
7.78237e-06
-0.000262494
-0.000245168
-1.92103e-05
-0.000377356
-1.93144e-05
-0.000424099
-1.4349e-05
-0.000444187
-7.39417e-06
-0.000455962
-3.27201e-07
-0.000460465
6.73165e-06
-0.000460526
1.35923e-05
-0.000456289
1.84984e-05
-0.000444861
1.87978e-05
-0.000425956
-0.00037935
-4.81143e-05
-0.000567017
-4.08928e-05
-0.000697657
-2.61447e-05
-0.000736826
-1.23536e-05
-0.000753857
-4.0843e-07
-0.00075876
1.14115e-05
-0.000758793
2.49589e-05
-0.000754054
3.93834e-05
-0.000737591
4.7379e-05
-0.000701275
-0.000570762
-0.000120569
-0.000856886
0.000410299
-8.86714e-05
-0.00121382
0.000484152
-4.56109e-05
-0.00128955
0.000509489
-1.9298e-05
-0.00130188
0.000521588
-5.12615e-07
-0.00130305
0.00052531
1.81246e-05
-0.00130291
0.000525349
4.36806e-05
-0.00130157
0.000521789
8.57746e-05
-0.00128994
0.000510145
0.000119091
-0.00122101
0.000486334
-0.000864492
0.000412753
-0.000253161
-0.00126092
0.000657021
-0.000170421
-0.00207043
0.000773795
-7.21461e-05
-0.00220602
0.000818127
-2.67246e-05
-0.00218865
0.000841258
-5.12735e-07
-0.00217678
0.000847442
2.53166e-05
-0.00217628
0.000847453
6.91572e-05
-0.00218699
0.000841524
0.000165445
-0.00220531
0.000819068
0.000250517
-0.00208276
0.000776688
-0.00127488
0.000660821
-0.000478177
-0.00176762
0.000984918
-0.000263166
-0.00334162
0.00105616
-8.61636e-05
-0.00351727
0.00113432
-2.47793e-05
-0.0034373
0.00118731
-2.49215e-07
-0.00340342
0.00120215
2.37447e-05
-0.00340253
0.00120231
8.26062e-05
-0.00343405
0.00118824
0.000256208
-0.00351521
0.00113649
0.00047263
-0.00335827
0.00105905
-0.00179285
0.00099061
-0.000418438
-0.00237319
0.00102389
-0.000169839
-0.00417133
0.000581092
-4.76519e-05
-0.00430177
0.000662289
-9.85688e-06
-0.00422313
0.000748003
-1.13685e-07
-0.00419056
0.00077738
9.33675e-06
-0.00418981
0.000777785
4.60267e-05
-0.00422049
0.000749784
0.000166055
-0.0043001
0.000664826
0.000413604
-0.0041849
0.000579137
-0.00240223
0.00102294
0.000331623
-0.0027049
0.000169442
-0.00400929
5.23225e-05
-0.00418481
1.39998e-05
-0.00418495
7.57482e-08
-0.00417677
-1.34726e-05
-0.00417642
-5.01202e-05
-0.00418395
-0.000164732
-0.0041856
-0.000327219
-0.0040225
-0.00272949
-4.69413e-05
-0.000334864
0.00046137
-4.21768e-05
-0.000387898
0.000504484
-2.88354e-05
-0.000404574
0.000522981
-1.39328e-05
-0.000417952
0.000535364
-4.48123e-07
-0.000422462
0.000540389
1.29423e-05
-0.000422537
0.0005405
2.7618e-05
-0.000418283
0.000535781
4.07766e-05
-0.000405148
0.000523789
4.61449e-05
-0.000389478
0.000506256
-0.000336796
0.000463374
-7.31263e-05
-0.00025456
0.000649769
-6.9324e-05
-0.000336953
0.000719022
-4.66627e-05
-0.000357256
0.000748127
-2.2194e-05
-0.000369453
0.000768268
-6.66454e-07
-0.0003725
0.000775919
2.07194e-05
-0.000372547
0.000776054
4.48307e-05
-0.000369663
0.000768811
6.73541e-05
-0.000357796
0.000749192
7.16869e-05
-0.000338604
0.000721452
-0.000257079
0.000652747
-4.4397e-05
2.73854e-05
0.000747173
-6.13306e-05
-0.00012671
0.000862908
-3.92834e-05
-0.000145668
0.000900706
-1.83425e-05
-0.000129043
0.000925983
-4.46899e-07
-0.000122083
0.000933864
1.73253e-05
-0.000121959
0.000933984
3.7977e-05
-0.000128527
0.000926509
6.02284e-05
-0.000145419
0.000901876
4.30246e-05
-0.000128131
0.000865823
2.47932e-05
0.000751648
-1.88875e-05
7.74961e-05
0.00099265
-2.52496e-05
-0.000446975
0.000907729
-3.13254e-05
-0.000447661
0.000970406
-1.93972e-05
-0.000408495
0.00101559
-9.27174e-07
-0.000394246
0.00103111
1.76742e-05
-0.000394043
0.00103135
3.04399e-05
-0.000407915
0.00101645
2.57339e-05
-0.000447549
0.000971777
1.83224e-05
-0.000449891
0.000908289
7.042e-05
0.000995576
0.000252926
-0.00288042
0.000140637
-0.004344
4.86488e-05
-0.00454049
1.36827e-05
-0.00455849
9.19399e-08
-0.00455744
-1.31294e-05
-0.00455726
-4.67208e-05
-0.00455829
-0.000136912
-0.00454294
-0.000250054
-0.00435928
-0.00290918
-2.22764e-05
-0.000187453
0.000469792
-2.12021e-05
-0.000205078
0.000493651
-1.578e-05
-0.000209827
0.000505739
-8.04905e-06
-0.000214526
0.000514844
-3.08887e-07
-0.000216191
0.000519031
7.3905e-06
-0.000216232
0.000519154
1.50573e-05
-0.000214694
0.000515272
2.04364e-05
-0.000210089
0.000506486
2.18494e-05
-0.000205659
0.000494964
-0.000188191
0.00047126
-3.62993e-05
-0.000146617
0.000645129
-3.46723e-05
-0.000168923
0.000681316
-2.58748e-05
-0.000171697
0.000701274
-1.31657e-05
-0.000175304
0.000716402
-5.03815e-07
-0.000176016
0.000723151
1.21124e-05
-0.000176051
0.000723339
2.4719e-05
-0.000175459
0.000717034
3.34859e-05
-0.000171971
0.000702387
3.55236e-05
-0.000169468
0.000683289
-0.000147456
0.000647477
-2.53032e-05
3.4132e-05
0.000591795
-2.26885e-05
4.53496e-05
0.000646042
-1.44749e-05
5.73403e-05
0.00066352
-7.05439e-06
6.5894e-05
0.000677451
-2.06026e-07
6.86418e-05
0.000682429
6.61474e-06
6.86558e-05
0.000682531
1.38561e-05
6.6014e-05
0.000677883
2.1966e-05
5.75999e-05
0.000664314
2.46271e-05
4.58879e-05
0.000647738
3.48717e-05
0.000593905
-5.92747e-05
0.000316109
0.00076978
-4.75133e-05
0.000272002
0.000669333
-3.27543e-05
0.000314496
0.000698488
-1.71433e-05
0.000337521
0.000728391
-8.08025e-07
0.000343853
0.000739617
1.55084e-05
0.000343827
0.000739892
3.11506e-05
0.000337492
0.000729423
4.61245e-05
0.000314364
0.00070002
5.76148e-05
0.000272632
0.000670013
0.000316946
0.000771041
8.20501e-05
-0.00264639
4.44378e-05
-0.00403436
1.35778e-05
-0.00419505
2.98436e-06
-0.00421035
2.06825e-08
-0.00421059
-2.7953e-06
-0.00421057
-1.29537e-05
-0.00421063
-4.33281e-05
-0.00419812
-8.10037e-05
-0.00404896
-0.00267329
-8.26621e-06
-8.25339e-05
0.000463737
-8.45445e-06
-8.63841e-05
0.000478838
-6.86932e-06
-8.63851e-05
0.000486833
-3.70877e-06
-8.7538e-05
0.000493261
-1.73842e-07
-8.79722e-05
0.000496451
3.35729e-06
-8.7996e-05
0.000496575
6.50921e-06
-8.7618e-05
0.000493648
8.10605e-06
-8.64928e-05
0.000487487
8.07223e-06
-8.65583e-05
0.000479858
-8.27423e-05
0.000464868
-1.2287e-05
-6.76438e-05
0.000642643
-1.34355e-05
-7.2871e-05
0.000669021
-1.14524e-05
-7.23512e-05
0.000685364
-6.28266e-06
-7.4426e-05
0.000698235
-3.07446e-07
-7.51106e-05
0.000704414
5.66038e-06
-7.51473e-05
0.000704622
1.08308e-05
-7.45721e-05
0.000698926
1.28746e-05
-7.25458e-05
0.000686526
1.191e-05
-7.31175e-05
0.000670871
-6.81749e-05
0.000644822
-3.22942e-06
-1.62982e-05
0.000543588
-3.80693e-06
4.69399e-06
0.000569166
-3.69776e-06
1.24166e-05
0.000578672
-2.21761e-06
1.45294e-05
0.000587168
-9.45573e-08
1.47341e-05
0.000590597
2.02906e-06
1.46894e-05
0.000590684
3.51444e-06
1.44747e-05
0.000587549
3.5843e-06
1.24613e-05
0.000579277
3.0228e-06
4.91742e-06
0.000570262
-1.60156e-05
0.000544763
-1.49151e-05
5.25414e-05
0.000715815
-2.04639e-05
3.3398e-05
0.00064612
-1.93273e-05
4.14076e-05
0.000668559
-1.1206e-05
4.2815e-05
0.000692
-6.17998e-07
4.26419e-05
0.000701175
1.003e-05
4.26333e-05
0.00070146
1.8255e-05
4.26515e-05
0.000692952
1.98442e-05
4.11129e-05
0.000669889
1.38298e-05
3.34271e-05
0.000647557
5.16452e-05
0.000717068
1.64697e-05
-0.00261036
6.42565e-06
-0.00399082
-1.55524e-07
-0.00414713
-1.12565e-06
-0.00416652
4.44249e-08
-0.00416912
1.21225e-06
-0.0041692
3.90535e-07
-0.00416706
-6.13064e-06
-0.00415046
-1.62593e-05
-0.00400548
-0.00263792
-1.19584e-07
1.187e-05
0.000446967
-3.90155e-07
1.77017e-05
0.000458826
-6.68174e-07
2.15431e-05
0.000464633
-4.95103e-07
2.33466e-05
0.000469405
-4.16378e-08
2.40667e-05
0.000471861
4.0633e-07
2.40641e-05
0.000471962
5.97559e-07
2.33782e-05
0.000469736
3.2807e-07
2.16101e-05
0.000465172
1.05559e-07
1.79043e-05
0.000459635
1.20404e-05
0.000447846
6.24069e-06
-2.77975e-06
0.000651085
3.70195e-06
1.59867e-05
0.000673411
1.03677e-06
2.18214e-05
0.000687794
-4.09912e-08
2.32519e-05
0.000699577
-9.13589e-08
2.3386e-05
0.000705289
-1.24669e-07
2.33456e-05
0.00070551
-1.11905e-06
2.32157e-05
0.000700272
-3.70848e-06
2.18233e-05
0.000689006
-6.29692e-06
1.61687e-05
0.000675233
-2.72335e-06
0.000653358
1.01805e-05
1.06008e-06
0.000529631
7.73225e-06
3.63567e-05
0.000551165
3.7924e-06
4.70264e-05
0.000557672
1.37372e-06
4.91997e-05
0.000563703
1.10372e-09
4.91686e-05
0.000566328
-1.29882e-06
4.91584e-05
0.000566439
-3.66288e-06
4.91142e-05
0.000564004
-7.58821e-06
4.69723e-05
0.000558146
-1.01441e-05
3.70439e-05
0.000552047
1.14049e-06
0.000530673
5.70365e-05
-8.29474e-05
0.000742623
2.89175e-05
-3.27846e-05
0.000743635
6.56785e-06
-3.03001e-05
0.000768133
-2.12027e-07
-4.1787e-05
0.000789934
-2.77906e-07
-4.69303e-05
0.000797493
-4.3084e-07
-4.7091e-05
0.000797752
-6.57139e-06
-4.2295e-05
0.000790705
-2.84337e-05
-3.08114e-05
0.000769611
-5.7481e-05
-3.23348e-05
0.000745897
-8.40791e-05
0.000744775
-8.01092e-06
-0.0026852
-8.21783e-06
-0.00402357
-5.52653e-06
-0.00418015
-2.68481e-06
-0.0042112
-2.46515e-08
-0.0042189
2.72676e-06
-0.00421905
5.52071e-06
-0.00421218
8.16364e-06
-0.00418402
8.13581e-06
-0.00403789
-0.00271388
5.84772e-06
0.000112925
0.000413296
5.48042e-06
0.00012876
0.000422895
3.87745e-06
0.000136269
0.000426447
1.93522e-06
0.000140969
0.000429577
6.28533e-08
0.000142896
0.000431208
-1.79622e-06
0.000142932
0.0004313
-3.73032e-06
0.00014111
0.00042984
-5.31389e-06
0.000136562
0.000426875
-5.75308e-06
0.00012931
0.000423507
0.000113588
0.00041397
2.35873e-05
7.91291e-05
0.000661448
1.90716e-05
0.000127411
0.000679304
1.22215e-05
0.000140263
0.000690829
5.63433e-06
0.000146219
0.000701022
1.40342e-07
0.000147667
0.000706173
-5.30653e-06
0.000147694
0.000706392
-1.18019e-05
0.00014628
0.000701707
-1.85456e-05
0.000140442
0.000691973
-2.32422e-05
0.000128352
0.000681018
7.99704e-05
0.000663771
2.14733e-05
8.4485e-05
0.000502716
1.62284e-05
0.000163719
0.000520267
9.55761e-06
0.000182349
0.000522193
4.18285e-06
0.000190479
0.000525007
1.29249e-07
0.000192086
0.00052614
-3.92113e-06
0.000192025
0.000526194
-9.21975e-06
0.000190518
0.000525233
-1.57838e-05
0.000182648
0.000522534
-2.12187e-05
0.000165006
0.000520806
8.59618e-05
0.000503477
0.000155887
-0.00019222
0.000863563
8.99536e-05
3.55073e-05
0.000937593
3.70001e-05
4.82862e-05
0.000955305
1.25994e-05
3.45259e-05
0.000970299
1.13286e-07
2.55296e-05
0.000976453
-1.20983e-05
2.5353e-05
0.00097673
-3.57561e-05
3.37238e-05
0.000971052
-8.79385e-05
4.76288e-05
0.000956801
-0.00015456
3.72642e-05
0.000940239
-0.000191787
0.000867931
-3.63063e-05
-0.00284125
-2.69422e-05
-0.00399742
-1.59588e-05
-0.00414297
-6.67223e-06
-0.00418612
-6.22432e-08
-0.00420007
6.48312e-06
-0.0042004
1.5615e-05
-0.00418765
2.64552e-05
-0.0041473
3.59783e-05
-0.00401025
-0.00286973
9.753e-06
0.000228978
0.000352777
9.22995e-06
0.00025386
0.000360055
6.87312e-06
0.000264316
0.000361386
3.56978e-06
0.000271521
0.000362887
1.56751e-07
0.000274579
0.0003637
-3.25718e-06
0.000274645
0.000363761
-6.54517e-06
0.000271796
0.000363075
-8.91531e-06
0.000264809
0.000361663
-9.54641e-06
0.000254806
0.000360431
0.000230178
0.000353153
3.86776e-05
0.000210695
0.000641158
3.26179e-05
0.000290509
0.000648831
2.23e-05
0.000309518
0.000656041
1.08275e-05
0.000320683
0.000663481
3.60452e-07
0.000323993
0.000667353
-1.00316e-05
0.000324061
0.000667541
-2.13694e-05
0.000320928
0.00066405
-3.15518e-05
0.000310115
0.00065696
-3.78905e-05
0.000292152
0.000650121
0.000213128
0.000643016
2.90387e-05
0.000249162
0.000435332
2.13502e-05
0.000374375
0.00044405
1.25775e-05
0.000401364
0.000439206
5.73065e-06
0.000414287
0.000438299
2.02643e-07
0.000417825
0.000437933
-5.28927e-06
0.000417857
0.000437972
-1.20371e-05
0.000414515
0.000438402
-2.07232e-05
0.000402074
0.000439284
-2.85133e-05
0.000376751
0.000444012
0.00025283
0.000435286
0.000238471
-0.000190696
0.00106479
0.000149309
0.000259249
0.00114185
6.75945e-05
0.000286268
0.001152
2.5975e-05
0.00026453
0.00116157
5.7118e-07
0.000253519
0.00116607
-2.45013e-05
0.000253242
0.00116627
-6.49442e-05
0.000263635
0.00116226
-0.000145113
0.000285911
0.00115303
-0.000234583
0.000262897
0.00114348
-0.000183062
0.00106918
-7.84352e-05
-0.00295356
-5.65643e-05
-0.00376016
-2.82069e-05
-0.00388517
-1.08883e-05
-0.00393903
-1.24136e-07
-0.00395747
1.04756e-05
-0.00395787
2.71921e-05
-0.00394081
5.49441e-05
-0.00388922
7.72069e-05
-0.00376971
-0.00297563
1.15387e-05
0.000356056
0.00025972
1.08435e-05
0.000386062
0.000264259
8.24724e-06
0.00039745