/*--------------------------------*- C++ -*----------------------------------*\
| =========                 |                                                 |
| \\      /  F ield         | OpenFOAM: The Open Source CFD Toolbox           |
|  \\    /   O peration     | Version:  2.3.1                                 |
|   \\  /    A nd           | Web:      www.OpenFOAM.org                      |
|    \\/     M anipulation  |                                                 |
\*---------------------------------------------------------------------------*/
FoamFile
{
    version     2.0;
    format      ascii;
    class       volScalarField;
    location    "0.41";
    object      epsilon;
}
// * * * * * * * * * * * * * * * * * * * * * * * * * * * * * * * * * * * * * //

dimensions      [0 2 -3 0 0 0 0];

internalField   nonuniform List<scalar> 
81190
(
857.453
511.334
445.168
436.696
453.801
489.786
545.276
625.571
740.596
905.689
1144.84
1483.79
1002.46
555.249
478.92
467.805
483.496
517.974
571.065
646.744
752.702
900.834
1108.4
1396.92
1128.78
596.911
511.026
497.448
512.107
545.624
596.962
668.84
766.975
900.133
1080.54
1323.89
1243.17
637.044
540.838
524.491
538.206
571.106
621.288
690.508
783.118
906.048
1069
1285.28
1350
674.529
567.949
548.697
561.497
594.029
643.619
711.326
800.574
917.005
1068.64
1266.7
1450.14
709.691
592.662
570.371
582.23
614.544
663.927
730.943
818.402
931.121
1075.96
1262.62
1544.36
742.266
615.221
589.847
600.733
632.872
682.334
749.212
835.957
946.838
1088.1
1268.29
1634.02
772.607
635.81
607.378
617.239
649.21
698.802
765.8
852.244
962.104
1101.18
1277.22
1717.36
800.765
654.569
623.093
631.875
663.553
713.192
780.198
866.252
974.722
1110.56
1280.46
1796.22
826.498
671.469
637.065
644.672
675.935
725.435
792.284
877.885
985.3
1119.01
1285.21
1870.64
850.486
686.759
649.331
655.63
686.267
735.407
801.786
886.557
992.42
1123.5
1285.03
1939.18
872.42
700.375
659.913
664.743
694.486
742.845
808.191
891.138
993.602
1118.32
1268.66
2003.37
892.128
712.234
668.85
672.077
700.685
747.911
811.812
892.592
991.564
1110.81
1253.14
2063.8
909.984
722.678
676.32
677.848
705.13
751.059
813.363
891.999
987.972
1103.24
1240.59
2120.33
926.162
731.739
682.512
682.296
708.197
752.707
813.356
889.882
983.247
1095.23
1227.99
2171.41
940.915
739.546
687.558
685.633
710.126
753.212
812.156
886.487
976.898
1084.73
1212.05
2217.19
953.496
746.147
691.552
687.982
711.073
752.715
809.972
882.169
969.762
1073.86
1195.9
2258.47
964.644
751.577
694.585
689.411
711.1
751.265
806.804
876.84
961.649
1062.19
1179.83
2296.64
973.763
755.945
696.706
689.986
710.271
748.925
802.679
870.535
952.584
1049.56
1162.51
2329.36
982.135
759.451
698.027
689.797
708.685
745.838
797.782
863.366
942.526
1035.77
1144.11
2358.71
988.806
761.891
698.543
688.888
706.43
742.093
792.27
855.646
931.96
1021.59
1125.34
2383.37
994.478
763.574
698.377
687.315
703.54
737.753
786.237
847.565
921.349
1007.85
1107.51
2404.29
998.173
764.317
697.483
685.105
700.037
732.828
779.661
838.983
910.265
993.576
1089.33
2422.43
1001.61
764.502
695.951
682.284
695.939
727.333
772.561
829.964
898.987
979.623
1072.32
2435.97
1003.67
763.86
693.841
678.902
691.277
721.275
764.911
820.465
887.296
965.359
1054.83
2445.37
1005.01
762.666
691.208
675
686.089
714.666
756.673
810.322
874.924
950.296
1036.62
2454.22
1005.24
760.864
688.078
670.65
680.436
707.558
747.9
799.641
862.033
934.942
1018.56
2459.88
1004.68
758.64
684.578
665.934
674.424
700.075
738.712
788.491
848.603
918.842
999.321
2463.57
1003.54
755.889
680.71
660.93
668.135
692.325
729.255
777.016
834.767
902.179
979.425
2465.93
1001.96
752.897
676.608
655.705
661.657
684.422
719.702
765.527
821.046
885.885
959.992
2464.07
999.666
749.568
672.312
650.321
655.052
676.421
710.078
754.042
807.371
869.659
940.94
2462.79
997.166
746.081
667.824
644.8
648.343
668.354
700.448
742.622
793.904
853.849
922.305
2460.89
994.297
742.421
663.238
639.173
641.551
660.223
690.798
731.218
780.524
838.25
904.379
2457.28
990.982
738.522
658.529
633.464
634.695
652.051
681.122
719.824
767.145
822.648
886.119
2450.83
987.635
734.565
653.76
627.703
627.8
643.857
671.443
708.448
753.856
807.175
868.195
2445.86
984.309
730.646
648.965
621.92
620.881
635.639
661.744
697.075
740.528
791.593
850.025
2441.41
980.826
726.714
644.172
616.136
613.968
627.435
652.077
685.747
727.35
776.335
832.414
2436.81
977.445
722.658
639.371
610.39
607.112
619.313
642.527
674.589
714.384
761.38
815.379
2430.77
974.272
718.835
634.65
604.73
600.37
611.343
633.162
663.654
701.69
746.709
798.447
2427.04
970.591
714.901
630.033
599.177
593.779
603.568
624.048
653.03
689.394
732.567
782.362
2422.62
967.489
711.077
625.437
593.732
587.328
595.986
615.204
642.753
677.515
718.903
766.57
2418.72
964.361
707.357
620.952
588.381
581.011
588.576
606.555
632.705
665.867
705.484
751.347
2413.01
961.228
703.694
616.547
583.139
574.827
581.323
598.086
622.869
654.469
692.247
735.859
2408.04
957.365
699.88
612.172
577.998
568.799
574.278
589.893
613.387
643.572
679.829
721.845
2403.6
954.404
696.251
607.901
572.998
562.955
567.478
582.016
604.307
633.163
667.966
708.39
2399.97
951.333
692.673
603.721
568.125
557.283
560.908
574.424
595.563
623.111
656.459
695.328
2394.62
948.446
689.139
599.595
563.351
551.763
554.537
567.092
587.145
613.477
645.424
682.589
2391.17
945.04
685.541
595.521
558.644
546.341
548.303
559.938
578.951
604.088
634.637
670.182
2386.58
941.905
682.025
591.474
554.011
541.013
542.191
552.936
570.959
595.026
624.429
658.821
2380.53
938.372
678.442
587.428
549.423
535.784
536.21
546.113
563.177
586.167
614.407
647.59
2375.76
934.897
674.891
583.467
544.914
530.659
530.375
539.478
555.632
577.601
604.681
636.443
2371.13
931.41
671.325
579.531
540.466
525.623
524.665
533.005
548.298
569.293
595.289
625.899
2364.23
927.808
667.662
575.571
536.054
520.659
519.062
526.664
541.129
561.189
586.145
615.553
2358.54
924.297
664.067
571.658
531.695
515.764
513.55
520.439
534.095
553.24
577.148
605.402
2352.33
920.542
660.392
567.713
527.371
510.945
508.144
514.36
527.251
545.54
568.484
595.624
2345.81
916.68
656.666
563.805
523.092
506.199
502.848
508.426
520.59
538.049
560.055
586.183
2339.03
912.711
652.924
559.89
518.869
501.54
497.67
502.647
514.122
530.81
551.961
577.111
2329.81
908.518
649.146
555.963
514.66
496.946
492.6
497.013
507.846
523.801
544.144
568.451
2321.22
904.244
645.308
552.053
510.493
492.418
487.629
491.517
501.742
516.994
536.527
559.9
2313.93
900.068
641.419
548.116
506.336
487.942
482.741
486.14
495.797
510.402
529.188
551.691
2304.93
895.453
637.469
544.158
502.181
483.495
477.91
480.849
489.969
503.958
522.029
543.715
2293.47
890.597
633.393
540.179
498.04
479.071
473.126
475.628
484.244
497.664
515.106
536.097
2283.68
885.761
629.286
536.166
493.892
474.672
468.382
470.474
478.612
491.505
508.382
528.798
2272.74
880.899
625.113
532.14
489.758
470.305
463.689
465.376
473.043
485.396
501.665
521.388
2262.75
875.787
620.923
528.104
485.641
465.969
459.042
460.339
467.546
479.364
495.027
514.084
2251.72
870.519
616.635
524.047
481.545
461.669
454.445
455.364
462.121
473.423
488.506
506.903
2238.36
865.125
612.351
520.028
477.488
457.418
449.902
450.447
456.754
467.537
482.024
499.777
2225.36
859.789
608.103
516.03
473.462
453.223
445.424
445.604
451.474
461.743
475.642
492.703
2213.27
854.403
603.865
512.078
469.487
449.089
441.021
440.852
446.299
456.067
469.4
485.819
2199.45
849.08
599.659
508.159
465.571
445.021
436.704
436.203
441.248
450.564
463.375
479.19
2187.64
843.495
595.479
504.312
461.739
441.032
432.472
431.648
436.309
445.181
457.5
472.801
2174.14
838.133
591.419
500.515
457.973
437.136
428.326
427.189
431.47
439.912
451.763
466.571
2159.89
832.774
587.305
496.818
454.304
433.334
424.286
422.827
426.727
434.729
446.092
460.36
2145.73
827.769
583.456
493.258
450.764
429.646
420.358
418.578
422.086
429.627
440.461
454.137
2132.38
822.338
579.595
489.765
447.307
426.072
416.551
414.456
417.576
424.661
434.962
448.003
2119.29
817.123
575.796
486.426
444.003
422.642
412.883
410.473
413.21
419.846
429.64
442.13
2107.3
812.235
572.329
483.248
440.861
419.36
409.364
406.639
408.995
415.192
424.481
436.384
2095.66
807.626
569.001
480.242
437.876
416.231
405.997
402.961
404.94
410.705
419.515
430.91
2082.59
803.567
565.881
477.437
435.063
413.276
402.798
399.446
401.051
406.389
414.719
425.573
2071.09
799.357
562.929
474.816
432.434
410.499
399.775
396.107
397.335
402.245
410.102
420.447
2059.68
795.587
560.334
472.408
430.015
407.915
396.94
392.954
393.806
398.291
405.679
415.517
2049.03
792.249
557.934
470.231
427.797
405.527
394.297
389.988
390.469
394.535
401.464
410.8
2039.55
789.051
555.783
468.297
425.805
403.347
391.848
387.21
387.308
390.946
397.4
406.213
2030.55
786.154
553.946
466.606
424.024
401.363
389.583
384.608
384.318
387.516
393.477
401.755
2023.56
783.832
552.395
465.171
422.46
399.58
387.513
382.195
381.513
384.271
389.748
397.472
2016.68
782.289
551.198
463.987
421.128
398.005
385.645
379.977
378.904
381.228
386.222
393.437
2011.5
780.885
550.275
463.049
420.013
396.638
383.974
377.963
376.506
378.411
382.95
389.652
2007.52
780.164
549.699
462.354
419.111
395.474
382.496
376.134
374.296
375.787
379.884
386.13
2005.99
779.313
549.333
461.884
418.425
394.496
381.195
374.482
372.261
373.343
377.007
382.815
2005.07
779.798
549.354
461.672
417.942
393.719
380.078
373.001
370.391
371.056
374.271
379.583
2003.91
780.275
549.635
461.692
417.67
393.129
379.151
371.704
368.7
368.949
371.727
376.561
2006.4
780.782
550.147
461.972
417.647
392.759
378.427
370.611
367.214
367.043
369.378
373.758
2010.45
782.644
551.255
462.562
417.865
392.615
377.92
369.73
365.946
365.368
367.269
371.171
2015.01
784.582
552.471
463.396
418.295
392.678
377.618
369.051
364.88
363.903
365.385
368.863
2019.86
787.288
554.116
464.476
418.966
392.955
377.511
368.565
364.004
362.626
363.693
366.727
2026.44
789.993
555.997
465.793
419.832
393.43
377.595
368.26
363.306
361.52
362.161
364.754
2034.23
793.403
558.247
467.399
420.936
394.102
377.868
368.143
362.798
360.614
360.852
363.031
2044.4
796.704
560.695
469.217
422.25
394.977
378.331
368.209
362.469
359.884
359.708
361.459
2056.45
801.578
563.614
471.326
423.788
396.05
378.984
368.456
362.322
359.343
358.767
360.115
2069.3
806.857
566.845
473.684
425.545
397.311
379.82
368.887
362.355
358.977
357.99
358.91
2082.65
812.078
570.35
476.242
427.491
398.767
380.837
369.499
362.576
358.811
357.438
357.961
2098.15
817.621
574.126
479.026
429.628
400.4
382.03
370.29
362.979
358.836
357.086
357.229
2114.94
824.139
578.12
482.047
431.963
402.219
383.395
371.251
363.555
359.037
356.911
356.674
2132.1
830.507
582.459
485.298
434.506
404.21
384.93
372.378
364.302
359.419
356.935
356.343
2152.47
837.461
587.127
488.765
437.244
406.379
386.635
373.667
365.212
359.967
357.133
356.19
2173.83
845.277
592.054
492.462
440.164
408.728
388.505
375.12
366.278
360.667
357.475
356.18
2195.55
853.165
597.217
496.376
443.28
411.256
390.552
376.745
367.516
361.54
357.995
356.355
2218.39
861.775
602.74
500.561
446.611
413.973
392.782
378.55
368.935
362.596
358.703
356.725
2242.73
870.492
608.45
504.943
450.158
416.895
395.212
380.552
370.552
363.849
359.602
357.269
2268.13
880.084
614.55
509.58
453.918
420.029
397.84
382.759
372.378
365.315
360.721
358.045
2295
889.821
621.001
514.486
457.896
423.364
400.679
385.176
374.421
367.014
362.089
359.087
2323.2
900.247
627.72
519.603
462.088
426.914
403.725
387.805
376.686
368.944
363.702
360.393
2353.48
910.981
634.707
524.94
466.467
430.646
406.966
390.639
379.163
371.097
365.547
361.933
2385.33
922.354
641.897
530.443
471.021
434.568
410.399
393.676
381.857
373.476
367.623
363.711
2416.74
933.682
649.268
536.128
475.765
438.66
414.024
396.926
384.775
376.095
369.959
365.779
2447.29
945.442
656.779
541.963
480.643
442.937
417.856
400.386
387.926
378.956
372.544
368.092
2481.5
957.29
664.45
547.92
485.693
447.397
421.88
404.078
391.325
382.087
375.421
370.72
2515.74
969.343
672.195
553.985
490.866
452.022
426.125
408.009
394.982
385.494
378.588
373.646
2549.25
981.072
679.886
560.095
496.164
456.829
430.577
412.18
398.91
389.193
382.057
376.887
2581.78
992.946
687.548
566.276
501.604
461.821
435.26
416.622
403.132
393.197
385.845
380.444
2615.82
1004.44
695.169
572.49
507.174
467.016
440.202
421.351
407.671
397.55
389.997
384.378
2649.83
1015.71
702.646
578.723
512.867
472.421
445.416
426.413
412.577
402.284
394.549
388.738
2679.86
1025.93
709.799
584.919
518.706
478.08
450.958
431.839
417.875
407.44
399.535
393.53
2707.54
1035.61
716.67
591.111
524.692
484.015
456.849
437.672
423.618
413.052
404.989
398.801
2734.82
1044.47
723.227
597.284
530.88
490.29
463.172
443.984
429.855
419.168
410.941
404.557
2756.19
1051.77
729.307
603.461
537.362
496.987
470.006
450.849
436.672
425.864
417.469
410.875
2771.64
1057.33
734.773
609.696
544.203
504.246
477.483
458.39
444.163
433.226
424.635
417.802
2781.77
1060.57
739.79
616.156
551.632
512.262
485.77
466.745
452.454
441.35
432.533
425.444
2778.79
1061.1
744.268
623.052
559.933
521.274
495.081
476.103
461.685
450.36
441.254
433.839
2760.14
1058.07
748.506
630.898
569.534
531.652
505.716
486.677
472.027
460.373
450.896
443.092
2719.65
1051.26
753.367
640.53
581.118
543.916
518.03
498.732
483.674
471.548
461.58
453.266
2648.03
1041.59
760.743
653.418
595.708
558.714
532.447
512.552
496.828
484.046
473.441
464.522
2523.88
1032.49
774.186
671.857
614.644
576.843
549.461
528.452
511.721
498.031
486.602
476.915
2335.19
1034.88
800.214
699.102
639.524
599.154
569.577
546.788
528.592
513.694
501.262
490.776
2074.75
1075.96
849.627
739.193
672.053
626.513
593.364
567.947
547.736
531.243
517.482
505.863
10421.5
8630.3
8664.87
8864.01
8987.68
9025
8928.67
8720.95
8435.67
8097.48
7734.14
7374.52
11644.9
8168.59
8256.7
8476.48
8610.3
8642.63
8555.12
8367.5
8108.59
7803.11
7474.7
7141.13
12839.3
7904.71
7875.73
8089.32
8232.96
8270.47
8196.85
8031.38
7799.83
7525.28
7227.97
6923.06
13921
7793.23
7561.08
7733.14
7872.8
7915.3
7856.25
7712.77
7507.55
7261.69
6993.23
6716.7
14850.9
7768.38
7309.55
7415.69
7538.03
7581.46
7534.91
7411.53
7230.72
7011.43
6770.17
6520.77
15638.1
7783.04
7105.78
7134.34
7230.16
7270.03
7233.1
7127.26
6968.38
6772.93
6555.24
6326.09
16294.3
7811.35
6936.68
6884.7
6948.49
6980.91
6950.61
6859.73
6720.55
6547.27
6353.09
6149.54
16825.4
7839.72
6792.5
6662.36
6691.48
6713.39
6686.93
6608.52
6486.85
6333.88
6161.52
5980.51
17245.9
7860.82
6665.9
6463
6456.93
6466.21
6441.17
6372.85
6266.45
6131.69
5978.92
5817.72
17563.9
7870.7
6551.36
6282.66
6242.38
6237.82
6212.22
6151.86
6058.7
5940.27
5805.59
5663.58
17793.6
7867.45
6444.83
6117.85
6045.36
6026.49
5998.85
5944.61
5862.75
5758.69
5639.96
5514.22
17947.8
7850.92
6343.49
5965.68
5863.57
5830.5
5799.77
5750.08
5677.78
5586.31
5481.75
5370.67
18033.8
7821.35
6245.34
5823.83
5694.96
5648.24
5613.73
5567.31
5503.01
5422.5
5330.44
5232.33
18066.4
7779.68
6149.15
5690.46
5537.78
5478.23
5439.57
5395.4
5337.78
5266.77
5185.72
5099.04
18048.7
7727.14
6054.11
5564.14
5390.5
5319.13
5276.16
5233.42
5181.34
5118.51
5047.17
4970.88
17989.4
7664.83
5959.63
5443.7
5251.84
5169.75
5122.49
5080.59
5033.07
4977.33
4914.61
4847.8
17896.1
7593.78
5865.42
5328.24
5120.73
5029.01
4977.64
4936.12
4892.36
4842.7
4787.48
4728.79
17772.3
7515.36
5771.38
5217.07
4996.22
4895.99
4840.75
4799.27
4758.6
4714.18
4665.59
4614.38
17624.4
7430.61
5677.46
5109.62
4877.56
4769.88
4711.05
4669.4
4631.24
4591.3
4548.44
4503.56
17453.7
7340.16
5583.62
5005.47
4764.09
4649.97
4587.89
4545.91
4509.81
4473.68
4435.79
4396.44
17267.9
7245.34
5489.93
4904.24
4655.26
4535.62
4470.64
4428.25
4393.83
4360.96
4327.34
4292.75
17065.8
7146.75
5396.57
4805.68
4550.62
4426.33
4358.79
4315.96
4282.93
4252.87
4223.09
4193.03
16852.3
7045.01
5303.53
4709.56
4449.76
4321.62
4251.87
4208.61
4176.75
4149.15
4122.76
4096.76
16627.3
6940.89
5210.99
4615.73
4352.38
4221.09
4149.47
4105.82
4074.96
4049.5
4026.17
4003.88
16396.4
6834.81
5119.03
4524.02
4258.18
4124.38
4051.22
4007.23
3977.22
3953.63
3932.96
3914.05
16159
6727.48
5027.74
4434.35
4166.92
4031.2
3956.77
3912.51
3883.19
3861.14
3842.51
3825.47
15916.7
6619.21
4937.25
4346.59
4078.38
3941.26
3865.85
3821.37
3792.69
3772.03
3755.45
3741.2
15670.7
6510.38
4847.63
4260.69
3992.4
3854.34
3778.19
3733.58
3705.49
3686.1
3671.39
3659.51
15422.6
6401.35
4758.95
4176.55
3908.8
3770.22
3693.56
3648.92
3621.39
3603.15
3590.13
3580.41
15172.9
6292.45
4671.25
4094.14
3827.46
3688.71
3611.78
3567.2
3540.21
3523.03
3511.57
3503.84
14924.2
6183.9
4584.63
4013.38
3748.25
3609.7
3532.69
3488.23
3461.76
3445.56
3435.51
3429.58
14675.6
6075.88
4499.08
3934.39
3671.16
3533.04
3456.11
3411.84
3385.88
3370.57
3361.8
3357.59
14430.8
5969.33
4415.14
3857.16
3596.09
3458.61
3381.89
3337.86
3312.37
3297.8
3289.91
3286.28
14187.9
5864.75
4332.8
3781.62
3522.95
3386.31
3309.92
3266.18
3241.15
3227.26
3220.3
3217.94
13949.3
5761.96
4252.05
3707.75
3451.66
3316.01
3240.06
3196.67
3172.1
3158.88
3152.83
3151.64
13713.8
5660.32
4172.66
3635.45
3382.14
3247.63
3172.22
3129.22
3105.12
3092.55
3087.37
3087.32
13479.5
5559.72
4094.69
3564.75
3314.33
3181.07
3106.28
3063.72
3040.1
3028.16
3023.84
3025.01
13247.2
5460.71
4018.06
3495.51
3248.14
3116.25
3042.15
3000.06
2976.9
2965.5
2961.77
2963.24
13017.5
5363
3942.92
3427.77
3183.52
3053.08
2979.74
2938.16
2915.46
2904.57
2901.41
2903.57
12791
5267.06
3869.01
3361.45
3120.43
2991.52
2919
2877.96
2855.73
2845.35
2842.81
2845.78
12567.3
5172.12
3796.52
3296.5
3058.79
2931.5
2859.85
2819.39
2797.68
2787.85
2786.01
2789.97
12346.1
5078.54
3725.18
3232.89
2998.57
2872.95
2802.24
2762.4
2741.22
2731.98
2730.89
2735.9
12127.3
4986.3
3655.2
3170.6
2939.71
2815.83
2746.09
2706.9
2686.26
2677.57
2677.09
2682.65
11912.3
4896.01
3586.6
3109.61
2882.17
2760.07
2691.35
2652.83
2632.74
2624.6
2624.7
2630.93
11701.3
4807.02
3519.2
3049.83
2825.92
2705.64
2637.98
2600.16
2580.62
2573
2573.64
2580.43
11493.5
4719.27
3452.99
2991.32
2770.92
2652.5
2585.92
2548.81
2529.83
2522.69
2523.77
2530.9
11288
4632.86
3388
2933.98
2717.14
2600.61
2535.13
2498.75
2480.32
2473.65
2475.17
2482.73
11085.7
4548.04
3324.31
2877.83
2664.55
2549.92
2485.57
2449.93
2432.05
2425.85
2427.83
2435.92
10887.5
4464.9
3261.83
2822.84
2613.11
2500.41
2437.2
2402.31
2384.98
2379.26
2381.71
2390.33
10693.5
4383.51
3200.56
2768.99
2562.8
2452.02
2389.96
2355.82
2339.05
2333.78
2336.62
2345.54
10502.8
4303.12
3140.48
2716.28
2513.59
2404.73
2343.82
2310.44
2294.2
2289.37
2292.57
2301.79
10314.9
4224.31
3081.56
2664.62
2465.45
2358.5
2298.74
2266.1
2250.39
2245.93
2249.4
2258.72
10130.3
4146.71
3023.79
2614.05
2418.34
2313.3
2254.69
2222.79
2207.58
2203.48
2207.18
2216.63
9949.74
4071.21
2967.21
2564.52
2372.24
2269.11
2211.64
2180.47
2165.74
2161.99
2165.94
2175.61
9773.08
3996.84
2911.76
2516.05
2327.15
2225.9
2169.55
2139.1
2124.86
2121.45
2125.67
2135.58
9599.51
3923.99
2857.46
2468.59
2283.03
2183.63
2128.4
2098.66
2084.91
2081.82
2086.28
2096.35
9429.49
3852.52
2804.28
2422.14
2239.86
2142.3
2088.18
2059.15
2045.87
2043.13
2047.87
2058.22
9262.68
3782.61
2752.13
2376.64
2197.62
2101.88
2048.86
2020.53
2007.74
2005.38
2010.47
2021.22
9098.9
3713.96
2701.11
2332.14
2156.3
2062.34
2010.41
1982.8
1970.51
1968.57
1974.06
1985.31
8938.91
3647.05
2651.19
2288.56
2115.87
2023.68
1972.83
1945.93
1934.15
1932.6
1938.46
1950.05
8782.57
3581.4
2602.31
2245.93
2076.31
1985.87
1936.09
1909.89
1898.62
1897.48
1903.7
1915.64
8629.68
3517.25
2554.44
2204.21
2037.63
1948.89
1900.17
1874.68
1863.91
1863.15
1869.68
1881.85
8479.26
3453.91
2507.6
2163.39
1999.78
1912.74
1865.07
1840.27
1830
1829.63
1836.47
1848.91
8331.81
3392.42
2461.81
2123.46
1962.77
1877.39
1830.75
1806.65
1796.86
1796.87
1804
1816.67
8187.82
3332.04
2416.9
2084.38
1926.57
1842.82
1797.2
1773.77
1764.47
1764.82
1772.22
1785.07
8046.57
3273.01
2373.05
2046.17
1891.15
1809.01
1764.39
1741.63
1732.79
1733.49
1741.15
1754.2
7908.61
3215.22
2330.14
2008.78
1856.52
1775.95
1732.31
1710.19
1701.81
1702.83
1710.71
1723.89
7773.51
3158.75
2288.13
1972.2
1822.64
1743.61
1700.94
1679.46
1671.52
1672.87
1681.01
1694.47
7641.09
3103.42
2247.04
1936.42
1789.5
1711.99
1670.26
1649.41
1641.9
1643.56
1651.95
1665.57
7511.73
3049.14
2206.84
1901.44
1757.1
1681.07
1640.26
1620.02
1612.94
1614.92
1623.55
1637.42
7385.09
2996.36
2167.54
1867.21
1725.41
1650.83
1610.92
1591.27
1584.6
1586.86
1595.68
1609.59
7261.16
2944.19
2129.05
1833.74
1694.42
1621.25
1582.22
1563.16
1556.87
1559.39
1568.37
1582.31
7139.12
2893.57
2091.4
1800.99
1664.1
1592.33
1554.16
1535.65
1529.74
1532.51
1541.61
1555.57
7020.45
2843.99
2054.6
1768.98
1634.46
1564.04
1526.7
1508.74
1503.19
1506.18
1515.43
1529.49
6904.26
2795.34
2018.58
1737.67
1605.47
1536.37
1499.85
1482.41
1477.21
1480.43
1489.83
1504.04
6789.84
2747.61
1983.39
1707.05
1577.12
1509.31
1473.59
1456.66
1451.78
1455.21
1464.74
1478.98
6678.14
2701.27
1949
1677.11
1549.4
1482.85
1447.89
1431.45
1426.89
1430.53
1440.18
1454.5
6568.7
2655.77
1915.35
1647.85
1522.29
1456.97
1422.76
1406.79
1402.53
1406.34
1416.07
1430.39
6461.74
2611.2
1882.45
1619.23
1495.78
1431.65
1398.18
1382.67
1378.69
1382.67
1392.47
1406.81
6357.05
2567.82
1850.26
1591.23
1469.85
1406.89
1374.11
1359.04
1355.33
1359.44
1369.26
1383.43
6254.3
2525.32
1818.79
1563.86
1444.49
1382.66
1350.56
1335.9
1332.43
1336.65
1346.46
1360.46
6153.9
2483.7
1788.02
1537.09
1419.68
1358.95
1327.51
1313.24
1310
1314.34
1324.2
1338.26
6055.06
2442.83
1757.9
1510.91
1395.43
1335.76
1304.95
1291.08
1288.07
1292.57
1302.55
1316.83
5959.15
2403.11
1728.45
1485.29
1371.68
1313.06
1282.88
1269.39
1266.63
1271.28
1281.41
1295.89
5863.91
2363.83
1699.62
1460.23
1348.46
1290.86
1261.29
1248.17
1245.64
1250.45
1260.67
1275.16
5770.19
2325.08
1671.52
1435.77
1325.75
1269.14
1240.16
1227.4
1225.08
1229.99
1240.21
1254.48
5678.41
2287.84
1643.85
1411.74
1303.51
1247.88
1219.48
1207.06
1204.95
1209.95
1220.17
1234.38
5589.61
2251.55
1616.88
1388.28
1281.77
1227.09
1199.23
1187.15
1185.22
1190.32
1200.55
1214.77
5501.43
2215.54
1590.45
1365.36
1260.51
1206.74
1179.42
1167.66
1165.91
1171.09
1181.37
1195.61
5415.84
2180.44
1564.59
1342.9
1239.69
1186.83
1160.04
1148.58
1147
1152.25
1162.51
1176.62
5330.47
2145.77
1539.27
1320.96
1219.35
1167.35
1141.06
1129.89
1128.47
1133.77
1144.02
1158.09
5245.98
2111.76
1514.61
1299.49
1199.42
1148.28
1122.48
1111.59
1110.3
1115.65
1125.87
1139.86
5164.78
2078.59
1490.27
1278.44
1179.93
1129.62
1104.29
1093.67
1092.51
1097.88
1108.02
1121.77
5083.89
2045.88
1466.58
1257.86
1160.84
1111.35
1086.48
1076.11
1075.07
1080.47
1090.58
1104.37
5005.31
2014.48
1443.33
1237.68
1142.15
1093.46
1069.04
1058.9
1057.96
1063.35
1073.37
1086.89
4925.63
1982.46
1420.48
1217.93
1123.87
1075.95
1051.95
1042.04
1041.2
1046.63
1056.65
1070.31
4848.84
1951.87
1398.08
1198.61
1105.96
1058.79
1035.22
1025.53
1024.78
1030.22
1040.19
1053.67
4772.6
1921.68
1376.26
1179.68
1088.43
1042.01
1018.83
1009.35
1008.69
1014.13
1024.02
1037.36
4698.42
1892.56
1354.85
1161.15
1071.28
1025.57
1002.78
993.498
992.911
998.317
1008.08
1021.13
4624.13
1863.35
1333.85
1143.03
1054.47
1009.46
987.064
977.969
977.442
982.824
992.504
1005.49
4551.67
1834.76
1313.22
1125.26
1038.01
993.704
971.662
962.741
962.267
967.621
977.217
990.07
4479.81
1806.33
1293.02
1107.83
1021.9
978.253
956.563
947.805
947.371
952.667
962.122
974.71
4408.24
1778.72
1273.31
1090.79
1006.12
963.125
941.776
933.169
932.762
938
947.327
959.748
4337.06
1751.36
1253.73
1074.07
990.663
948.309
927.279
918.814
918.43
923.6
932.786
944.99
4267.95
1724.93
1234.73
1057.72
975.514
933.782
913.079
904.754
904.392
909.516
918.628
930.828
4199.03
1698.65
1216.13
1041.67
960.67
919.563
899.169
890.971
890.628
895.699
904.72
916.811
4131.52
1673.14
1197.82
1025.92
946.145
905.636
885.532
877.452
877.111
882.097
890.934
902.648
4064.87
1647.66
1179.87
1010.55
931.923
891.983
872.163
864.195
863.838
868.715
877.367
888.844
3997.64
1622.72
1162.22
995.467
917.975
878.607
859.062
851.196
850.827
855.605
864.112
875.472
3931.69
1597.79
1144.78
980.658
904.313
865.509
846.234
838.449
838.052
842.718
851.043
862.118
3865.21
1573.53
1127.88
966.171
890.931
852.675
833.648
825.938
825.495
830.028
838.134
848.911
3799.99
1549.29
1111.15
951.937
877.815
840.102
821.321
813.675
813.177
817.563
825.454
835.97
3734.2
1525.56
1094.62
937.975
864.964
827.788
809.239
801.645
801.078
805.304
812.946
823.094
3669.55
1502.45
1078.54
924.335
852.406
815.732
797.392
789.84
789.196
793.252
800.66
810.535
3604.22
1478.95
1062.72
910.948
840.105
803.929
785.793
778.268
777.533
781.415
788.59
798.218
3539.6
1456.29
1047.21
897.844
828.052
792.374
774.432
766.925
766.091
769.784
776.704
786.02
3474.52
1433.83
1031.91
885.032
816.288
781.072
763.309
755.803
754.854
758.341
764.974
773.913
3408.59
1411.17
1016.97
872.506
804.775
770.021
752.433
744.922
743.845
747.128
753.515
762.223
3344.7
1389.93
1002.39
860.256
793.553
759.248
741.813
734.276
733.053
736.109
742.197
750.532
3279.28
1368.06
988.118
848.343
782.618
748.755
731.462
723.893
722.525
725.361
731.186
739.251
3213.51
1346.69
974.075
836.721
772.02
738.572
721.393
713.773
712.239
714.828
720.331
727.972
3146.63
1324.99
960.322
825.429
761.743
728.697
711.626
703.933
702.214
704.534
709.709
716.97
3079.31
1304.4
947.147
814.576
751.83
719.162
702.172
694.384
692.452
694.48
699.309
706.192
3010.56
1283.52
934.261
804.142
742.336
710.022
693.078
685.16
682.992
684.71
689.187
695.71
2941.08
1263.76
921.983
794.224
733.319
701.316
684.385
676.302
673.86
675.239
679.336
685.475
2869.41
1243.77
910.287
784.913
724.892
693.143
676.158
667.852
665.08
666.066
669.728
675.385
2796.32
1224.54
899.412
776.403
717.158
685.584
668.468
659.859
656.689
657.213
660.378
665.512
2721.23
1206.68
889.634
768.87
710.32
678.806
661.443
652.431
648.774
648.773
651.397
655.987
2642.24
1189.27
881.217
762.716
704.658
673.007
655.229
645.665
641.394
640.753
642.732
646.668
2559.9
1173.86
875.086
758.476
700.584
668.488
650.029
639.694
634.627
633.203
634.422
637.665
2472.74
1161.77
872.223
756.967
698.671
665.642
646.099
634.677
628.581
626.201
626.543
628.893
2377.63
1154.48
874.668
759.643
699.836
665.006
643.755
630.803
623.358
619.792
619.09
620.551
2272.99
1157.56
885.889
768.576
705.201
667.176
643.3
628.219
619.027
614.007
612.067
612.478
2153.06
1182.55
912.766
786.928
716.023
672.556
644.801
626.904
615.548
608.829
605.476
604.64
1994.38
1244.3
958.38
814.792
731.129
679.946
647.415
626.439
612.795
604.329
599.522
597.444
4641.52
4298.31
4491.83
4750.88
4944.35
5060.33
5075.73
4995.33
4842.99
4631.88
4400.54
4163.13
5119.62
4010.32
4270.97
4535.07
4723.93
4827.84
4837.55
4761.42
4620.5
4431.98
4220.53
3999.77
5613.11
3832.14
4058.49
4318.61
4504.52
4602.53
4611.5
4542.57
4414.21
4243.35
4047.59
3837.15
6083.48
3739.47
3877.1
4116.69
4294.91
4388.61
4399
4337.82
4221.7
4066.29
3885.54
3688.32
6513.73
3699.49
3727.81
3934.27
4099.45
4188.2
4200.38
4146.88
4042.45
3901.49
3736.73
3558.63
6904.44
3688.36
3604.58
3770.67
3918.94
4001.71
4015.31
3968.88
3875.49
3748.16
3598.8
3437.68
7252.87
3692.16
3501.71
3624.16
3753.06
3828.75
3843.15
3803.07
3719.74
3605.06
3470.04
3324.54
7558.18
3703
3414.66
3493.01
3601.06
3668.72
3683.12
3648.5
3574.35
3471.3
3349.48
3218.06
7822.03
3716.03
3339.72
3375.33
3461.97
3520.81
3534.44
3504.41
3438.44
3345.89
3235.89
3116.57
8044.95
3727.94
3273.87
3269.23
3334.65
3384.14
3396.29
3370.02
3311.25
3228.07
3128.57
3019.79
8231.44
3736.83
3214.68
3172.95
3217.87
3257.83
3267.91
3244.61
3192.18
3117.36
3027.34
2928.49
8382.46
3741.66
3160.4
3084.96
3110.48
3140.95
3148.49
3127.45
3080.48
3013.14
2931.59
2841.74
8503.7
3742.06
3109.72
3003.97
3011.38
3032.58
3037.25
3017.83
2975.52
2914.74
2840.75
2758.79
8597.94
3738.06
3061.74
2928.96
2919.62
2931.87
2933.47
2915.2
2876.86
2821.78
2754.07
2676.85
8668.1
3729.49
3015.66
2858.98
2834.37
2838.14
2836.56
2819.01
2784.14
2734.47
2673.88
2607.27
8718.48
3716.8
2971.07
2793.27
2754.83
2750.67
2745.9
2728.74
2696.83
2651.82
2596.93
2535.74
8749.68
3700.43
2927.55
2731.3
2680.37
2668.85
2660.91
2643.89
2614.48
2573.61
2523.83
2468.29
8763.08
3680.41
2884.96
2672.53
2610.41
2592.09
2581.1
2563.98
2536.71
2499.48
2454.28
2403.74
8765.17
3657.56
2843.06
2616.58
2544.46
2519.94
2506.02
2488.65
2463.16
2429.13
2388.05
2342.11
8752.56
3631.78
2801.73
2563.08
2482.07
2451.9
2435.23
2417.49
2393.49
2362.3
2324.98
2283.47
8730.95
3603.63
2760.97
2511.8
2422.91
2387.57
2368.32
2350.14
2327.39
2298.7
2264.7
2226.95
8699.06
3573.48
2720.57
2462.47
2366.64
2326.67
2304.98
2286.32
2264.6
2238.05
2206.97
2172.49
8659
3541.51
2680.66
2414.88
2312.95
2268.82
2244.9
2225.69
2204.84
2180.19
2151.61
2119.94
8612.62
3507.83
2641.1
2368.88
2261.65
2213.79
2187.81
2168.06
2147.9
2124.89
2098.59
2069.52
8559.06
3472.81
2602.04
2324.38
2212.5
2161.32
2133.45
2113.18
2093.61
2072.03
2047.75
2021.07
8501.45
3436.75
2563.36
2281.23
2165.32
2111.18
2081.62
2060.83
2041.75
2021.45
1999.04
1974.74
8438.35
3399.75
2525.06
2239.36
2119.98
2063.23
2032.12
2010.83
1992.15
1972.99
1952.26
1929.95
8370.87
3361.81
2487.24
2198.64
2076.31
2017.28
1984.77
1963.01
1944.68
1926.53
1907.32
1886.93
8300.38
3323.42
2449.8
2159
2034.2
1973.15
1939.41
1917.21
1899.19
1881.93
1864.1
1845.38
8227.8
3284.76
2412.9
2120.43
1993.52
1930.75
1895.91
1873.31
1855.55
1839.11
1822.51
1805.35
8152.29
3245.53
2376.39
2082.81
1954.16
1889.9
1854.11
1831.15
1813.6
1797.88
1782.37
1766.55
8075.55
3205.97
2340.37
2046.13
1916.09
1850.56
1813.9
1790.63
1773.27
1758.18
1743.66
1729.08
7995.24
3166.28
2304.78
2010.33
1879.2
1812.59
1775.19
1751.62
1734.43
1719.9
1706.26
1692.72
7914.36
3126.78
2269.73
1975.4
1843.42
1775.9
1737.88
1714.06
1697.03
1682.99
1670.13
1657.65
7831.77
3087.1
2235.13
1941.3
1808.71
1740.44
1701.87
1677.84
1660.94
1647.37
1635.24
1623.71
7749.06
3047.62
2201.05
1907.95
1775
1706.13
1667.09
1642.88
1626.11
1612.97
1601.51
1590.81
7665.19
3008.05
2167.49
1875.36
1742.2
1672.87
1633.47
1609.11
1592.46
1579.7
1568.86
1558.96
7581.17
2968.81
2134.35
1843.52
1710.32
1640.62
1600.92
1576.45
1559.92
1547.51
1537.21