/*--------------------------------*- C++ -*----------------------------------*\
| =========                 |                                                 |
| \\      /  F ield         | OpenFOAM: The Open Source CFD Toolbox           |
|  \\    /   O peration     | Version:  2.3.1                                 |
|   \\  /    A nd           | Web:      www.OpenFOAM.org                      |
|    \\/     M anipulation  |                                                 |
\*---------------------------------------------------------------------------*/
FoamFile
{
    version     2.0;
    format      ascii;
    class       volScalarField;
    location    "0.41";
    object      k;
}
// * * * * * * * * * * * * * * * * * * * * * * * * * * * * * * * * * * * * * //

dimensions      [0 2 -2 0 0 0 0];

internalField   nonuniform List<scalar> 
81190
(
0.926339
1.79055
2.39007
2.86922
3.29399
3.69808
4.10238
4.5266
4.99228
5.52284
6.15079
6.89271
1.02828
1.9678
2.59775
3.09226
3.52781
3.93937
4.3487
4.77436
5.23523
5.75124
6.34469
7.03232
1.11303
2.12736
2.78963
3.30412
3.75438
4.17701
4.59415
5.02278
5.47924
5.97963
6.54046
7.1772
1.18712
2.26692
2.96156
3.49765
3.9648
4.4009
4.82812
5.2626
5.71901
6.21173
6.75507
7.36484
1.25381
2.39189
3.11658
3.67382
4.15809
4.6087
5.04787
5.49129
5.95261
6.4448
6.98093
7.57581
1.31498
2.50525
3.25769
3.835
4.33605
4.80161
5.25367
5.70812
6.17803
6.67555
7.2127
7.80321
1.3713
2.61022
3.38747
3.98349
4.50074
4.98098
5.44687
5.9138
6.39499
6.90221
7.44731
8.04277
1.4235
2.70744
3.50796
4.12101
4.65364
5.14834
5.62791
6.1081
6.60148
7.12024
7.67613
8.28074
1.47204
2.79739
3.61952
4.2487
4.79556
5.30362
5.79647
6.28934
6.79456
7.32307
7.88537
8.49225
1.517
2.88131
3.72314
4.36656
4.92645
5.4473
5.95236
6.45728
6.97417
7.5137
8.08571
8.70048
1.55834
2.95819
3.81786
4.47481
5.04628
5.57852
6.09498
6.61072
7.13803
7.68726
8.26815
8.88901
1.59653
3.02908
3.90477
4.57324
5.15508
5.69695
6.22249
6.7466
7.2802
7.8319
8.40811
9.01362
1.63196
3.09479
3.98488
4.66297
5.25325
5.80297
6.33537
6.86545
7.4033
7.956
8.52883
9.12559
1.66431
3.15505
4.05753
4.74448
5.34177
5.89748
6.4357
6.97049
7.512
8.06687
8.64098
9.23934
1.69394
3.21009
4.12399
4.81825
5.42166
5.9828
6.52548
7.06418
7.60886
8.16692
8.74408
9.34388
1.72086
3.2599
4.18455
4.88551
5.49406
6.05977
6.60651
7.14836
7.6953
8.25428
8.83009
9.42689
1.74548
3.30613
4.2394
4.94646
5.55968
6.12919
6.67927
7.22394
7.77283
8.33275
8.90829
9.50218
1.76763
3.34785
4.28934
5.00127
5.61845
6.19125
6.74393
7.29082
7.84102
8.40127
8.97631
9.56929
1.78734
3.38584
4.33383
5.05022
5.67058
6.24596
6.80065
7.34883
7.8999
8.45999
9.03363
9.62335
1.8042
3.41841
4.37287
5.0932
5.71652
6.29402
6.85038
7.39916
7.94987
8.50846
9.07901
9.6646
1.81917
3.44741
4.4075
5.13098
5.75676
6.336
6.89339
7.44261
7.99262
8.54911
9.11615
9.69658
1.83206
3.4719
4.43683
5.16311
5.79111
6.37184
6.92995
7.47951
8.02923
8.58459
9.14962
9.72599
1.8428
3.49345
4.46193
5.19035
5.81958
6.40151
6.96024
7.50987
8.05901
8.61283
9.17481
9.74719
1.851
3.51027
4.48208
5.21267
5.8431
6.42537
6.98445
7.53397
8.08243
8.63532
9.19611
9.76754
1.85821
3.52412
4.49846
5.22986
5.86104
6.44357
7.00252
7.55166
8.09944
8.65124
9.21071
9.77959
1.86379
3.53476
4.51081
5.24285
5.87409
6.45629
7.01459
7.56269
8.10905
8.65909
9.21603
9.7819
1.86828
3.54335
4.52005
5.25198
5.88241
6.46378
7.02078
7.56733
8.11185
8.65971
9.21479
9.77945
1.87153
3.54924
4.52583
5.25726
5.88688
6.46688
7.02205
7.56627
8.10827
8.65315
9.20464
9.7652
1.87363
3.55272
4.52923
5.25973
5.88781
6.46608
7.01907
7.56048
8.09903
8.64005
9.1866
9.74187
1.87403
3.5536
4.52977
5.25925
5.8857
6.46176
7.01247
7.55113
8.08618
8.62338
9.16577
9.71537
1.87331
3.55314
4.52835
5.25611
5.88069
6.45472
7.00271
7.53823
8.06996
8.60302
9.14073
9.68593
1.8729
3.55134
4.5248
5.25107
5.87339
6.44491
6.99024
7.52252
8.05077
8.5801
9.11371
9.65364
1.87135
3.54793
4.51942
5.24365
5.86381
6.43258
6.97486
7.50399
8.02843
8.55393
9.08358
9.62047
1.86929
3.54354
4.51298
5.23461
5.85214
6.41821
6.95708
7.48261
8.00312
8.52408
9.04914
9.58026
1.86647
3.53808
4.50505
5.22397
5.83866
6.40158
6.93703
7.45868
7.97486
8.49131
9.01129
9.53694
1.86395
3.53192
4.49595
5.21216
5.8238
6.38328
6.91483
7.43228
7.94405
8.45512
8.96911
9.48791
1.86154
3.52571
4.48634
5.19958
5.80791
6.36359
6.89104
7.40401
7.91091
8.41699
8.9256
9.43864
1.85886
3.51895
4.47692
5.18671
5.79133
6.34297
6.86617
7.37468
7.87667
8.37745
8.8808
9.38941
1.85623
3.51199
4.46663
5.17343
5.77437
6.32203
6.84086
7.34455
7.84156
8.33699
8.83465
9.3369
1.85404
3.50588
4.45692
5.15987
5.75734
6.30101
6.81561
7.31444
7.80631
8.29662
8.78895
9.28653
1.85081
3.49908
4.44716
5.14687
5.74039
6.28004
6.79027
7.28475
7.77149
8.25649
8.74327
9.23395
1.84846
3.49249
4.43724
5.13356
5.72352
6.25909
6.76504
7.25477
7.73646
8.21559
8.69646
9.18205
1.84643
3.48617
4.4274
5.12039
5.70668
6.23835
6.73981
7.22456
7.70103
8.17436
8.64823
9.12503
1.84428
3.48101
4.41854
5.10779
5.69044
6.21796
6.71501
7.19504
7.66641
8.1346
8.60352
9.07576
1.84188
3.47493
4.4096
5.09553
5.67449
6.19817
6.69093
7.1666
7.63321
8.09648
8.56035
9.02747
1.83976
3.4691
4.40066
5.08334
5.65878
6.1789
6.66772
7.13894
7.60097
8.05914
8.51771
8.97984
1.83786
3.46292
4.39154
5.07121
5.64342
6.15989
6.64501
7.11207
7.56947
8.02282
8.47587
8.93089
1.83603
3.45719
4.38238
5.05899
5.62805
6.14104
6.62223
7.08528
7.5384
7.98666
8.43374
8.88176
1.83292
3.45066
4.37293
5.0467
5.61236
6.12206
6.59975
7.05862
7.50757
7.9518
8.39479
8.83977
1.83055
3.44452
4.36352
5.03437
5.59695
6.10313
6.57726
7.03238
7.47703
7.91682
8.35548
8.79635
1.82813
3.43822
4.3538
5.02161
5.58136
6.08417
6.55481
7.00638
7.44693
7.88244
8.31646
8.75127
1.82508
3.43148
4.34403
5.00882
5.56556
6.06522
6.53245
6.98046
7.41717
7.84846
8.27817
8.70896
1.82162
3.42472
4.33429
4.99596
5.54962
6.04625
6.51008
6.95439
7.38731
7.8144
8.23976
8.66559
1.81881
3.41744
4.32394
4.98271
5.53355
6.02715
6.48752
6.92811
7.35718
7.7802
8.20082
8.62181
1.81576
3.41025
4.31357
4.96962
5.51731
6.00774
6.46493
6.90212
7.3274
7.74644
8.16279
8.57873
1.81238
3.40267
4.303
4.956
5.50084
5.98842
6.44247
6.87627
7.29797
7.71296
8.1249
8.53651
1.80869
3.39462
4.29189
4.94215
5.48413
5.96887
6.41993
6.85049
7.26871
7.68008
8.08821
8.4954
1.80381
3.38623
4.28042
4.92817
5.46756
5.94943
6.39767
6.82505
7.24006
7.64781
8.05236
8.45635
1.80048
3.37791
4.26863
4.9137
5.45049
5.92986
6.37523
6.79985
7.21169
7.61591
8.01646
8.416
1.79626
3.3684
4.25639
4.8988
5.43317
5.91001
6.35285
6.77461
7.18357
7.58459
7.98147
8.37666
1.79118
3.35868
4.24339
4.88334
5.41543
5.88976
6.33002
6.74924
7.15535
7.55349
7.94696
8.33838
1.78556
3.34842
4.23007
4.86724
5.39691
5.86901
6.30684
6.7235
7.12707
7.52255
7.91341
8.30228
1.78082
3.3381
4.21618
4.85079
5.37807
5.8478
6.28323
6.69744
7.09854
7.49162
7.88028
8.2674
1.7755
3.32666
4.20182
4.83368
5.35857
5.82593
6.259
6.67079
7.06932
7.45971
7.84549
8.22928
1.76979
3.31502
4.18662
4.81595
5.33852
5.80355
6.23425
6.64355
7.03953
7.4272
7.81009
8.19095
1.76337
3.30261
4.17107
4.79785
5.31783
5.78055
6.20889
6.61579
7.00917
7.39403
7.77408
8.15183
1.75602
3.28965
4.15486
4.77894
5.29651
5.75691
6.1829
6.58722
6.97794
7.35999
7.73689
8.11167
1.74969
3.2763
4.1382
4.75965
5.27488
5.73286
6.1565
6.55835
6.94636
7.32553
7.69921
8.07012
1.74317
3.26294
4.12122
4.74
5.25292
5.7085
6.12975
6.52929
6.9147
7.29095
7.66178
8.02936
1.73618
3.2491
4.10386
4.71997
5.23054
5.68389
6.10274
6.5
6.88298
7.25687
7.62492
7.98942
1.72995
3.23523
4.08608
4.69952
5.20776
5.65903
6.0756
6.47033
6.85112
7.22268
7.58841
7.95094
1.72199
3.22063
4.0679
4.67903
5.18489
5.63367
6.04815
6.44061
6.81898
7.18814
7.55174
7.91241
1.71505
3.20609
4.04996
4.65819
5.16167
5.60815
6.02029
6.41053
6.78639
7.15297
7.51386
7.87167
1.70817
3.19121
4.03145
4.63721
5.13833
5.58262
5.99248
6.38022
6.75342
7.11712
7.47484
7.8293
1.70148
3.17718
4.01342
4.61658
5.11539
5.55736
5.96483
6.35005
6.72055
7.08128
7.43561
7.78592
1.69482
3.16299
3.99563
4.59583
5.09235
5.53203
5.93716
6.31999
6.68779
7.04567
7.39703
7.74444
1.6877
3.14838
3.97736
4.57531
5.06948
5.50695
5.90977
6.29018
6.65537
7.01034
7.35855
7.70211
1.68062
3.13377
3.95951
4.55502
5.04701
5.48237
5.88295
6.26077
6.62343
6.97563
7.32103
7.66195
1.67397
3.11897
3.94198
4.53512
5.02506
5.4582
5.85658
6.23209
6.59209
6.94163
7.28389
7.62134
1.66762
3.10524
3.92504
4.51583
5.00373
5.43477
5.83082
6.2039
6.56141
6.90818
7.24771
7.58231
1.66163
3.0917
3.90836
4.49729
4.98308
5.41205
5.80592
6.17653
6.53148
6.87558
7.21228
7.54421
1.65606
3.07884
3.89271
4.47945
4.96333
5.39019
5.78176
6.15002
6.50232
6.84366
7.17746
7.50612
1.65107
3.06694
3.87782
4.46249
4.94435
5.36908
5.75844
6.12432
6.47405
6.81251
7.14314
7.46843
1.64642
3.05582
3.86385
4.44656
4.92645
5.34913
5.73631
6.09963
6.44654
6.78202
7.10928
7.4311
1.64219
3.04552
3.85112
4.43171
4.90976
5.33045
5.71528
6.07612
6.42018
6.75249
7.07635
7.39404
1.63863
3.03584
3.83944
4.41814
4.89438
5.31314
5.69568
6.054
6.39531
6.72447
7.04486
7.35912
1.63609
3.02779
3.82907
4.40604
4.88049
5.29728
5.67761
6.03346
6.37217
6.69832
7.01526
7.32525
1.63415
3.02068
3.82006
4.39545
4.86813
5.28291
5.6611
6.01468
6.3508
6.67418
6.98824
7.29544
1.633
3.01557
3.81269
4.38641
4.85731
5.27021
5.64633
5.99754
6.33113
6.65185
6.96326
7.26827
1.63214
3.0105
3.80667
4.379
4.84823
5.25907
5.63308
5.9819
6.31284
6.63076
6.93901
7.24029
1.63246
3.00752
3.80235
4.37335
4.84097
5.24992
5.62161
5.96799
6.29628
6.61132
6.91644
7.21412
1.63359
3.00653
3.7998
4.36937
4.83531
5.24256
5.61223
5.95613
6.28167
6.59381
6.89592
7.19061
1.63484
3.00549
3.79816
4.36697
4.83152
5.23707
5.60474
5.94635
6.26932
6.57863
6.87756
7.16827
1.63706
3.00648
3.79874
4.36633
4.82966
5.23353
5.59915
5.93855
6.25913
6.56566
6.86171
7.14999
1.64006
3.00845
3.80064
4.36756
4.8295
5.23175
5.59547
5.93263
6.25072
6.55449
6.84739
7.13197
1.64411
3.01269
3.80442
4.37064
4.83145
5.23196
5.59378
5.92874
6.24426
6.54526
6.83514
7.11661
1.64874
3.01809
3.8098
4.37538
4.83517
5.23424
5.59411
5.92681
6.23977
6.53807
6.82513
7.1035
1.65414
3.02566
3.81726
4.38221
4.84089
5.23841
5.59646
5.92696
6.23736
6.53282
6.81686
7.09194
1.65982
3.0332
3.82614
4.39074
4.84853
5.24465
5.60084
5.92928
6.23722
6.52977
6.81073
7.08256
1.66661
3.04244
3.83665
4.40112
4.85807
5.25299
5.60737
5.93365
6.23921
6.52894
6.80671
7.07492
1.6743
3.05383
3.84889
4.41356
4.86971
5.26331
5.61606
5.9403
6.24352
6.53072
6.80566
7.07102
1.6826
3.06698
3.86304
4.42787
4.88344
5.27579
5.62693
5.94921
6.25019
6.53492
6.807
7.06902
1.69148
3.08104
3.8792
4.444
4.89907
5.29025
5.63998
5.96043
6.25927
6.54158
6.81095
7.06995
1.70127
3.09719
3.89678
4.46198
4.91654
5.30682
5.65512
5.97383
6.27068
6.5508
6.81783
7.07451
1.71148
3.11469
3.91612
4.48193
4.936
5.32535
5.67224
5.98927
6.28416
6.56217
6.82691
7.08095
1.72214
3.1332
3.93736
4.50374
4.95752
5.34582
5.69137
6.00668
6.29965
6.57551
6.83806
7.09005
1.73363
3.15356
3.9604
4.52746
4.981
5.36838
5.71253
6.02607
6.31704
6.5907
6.85092
7.10064
1.74572
3.17507
3.98506
4.55295
5.00644
5.39309
5.73588
6.04767
6.33656
6.60778
6.86531
7.11195
1.75854
3.19854
4.01177
4.58053
5.03387
5.41989
5.7614
6.07156
6.35837
6.62718
6.88188
7.12516
1.77193
3.22289
4.03991
4.60995
5.06341
5.44881
5.78931
6.09789
6.38273
6.6493
6.90142
7.14177
1.78607
3.24902
4.06953
4.64111
5.09494
5.47994
5.81946
6.12674
6.40993
6.67446
6.92414
7.16143
1.80083
3.27642
4.10101
4.67419
5.12838
5.51302
5.85181
6.15801
6.43984
6.70282
6.95088
7.18702
1.81666
3.30552
4.13397
4.70895
5.16376
5.54823
5.88634
6.19155
6.47209
6.73348
6.97966
7.21342
1.83262
3.33486
4.16843
4.7454
5.20088
5.58523
5.92287
6.22716
6.50646
6.76635
7.01096
7.2434
1.84816
3.36601
4.20414
4.7832
5.23945
5.62408
5.96132
6.26476
6.54293
6.80138
7.04428
7.27445
1.86463
3.39762
4.24115
4.82237
5.27974
5.6646
6.00156
6.30446
6.5816
6.83874
7.08013
7.30882
1.88242
3.43095
4.2792
4.86281
5.32133
5.70669
6.04376
6.34618
6.62251
6.87854
7.11831
7.34477
1.89925
3.46403
4.31797
4.90428
5.36435
5.75044
6.08761
6.38986
6.66571
6.92089
7.15952
7.38474
1.91577
3.49848
4.35777
4.9469
5.40857
5.79557
6.1332
6.43554
6.71107
6.96562
7.2033
7.42708
1.93231
3.53266
4.39812
4.99015
5.45363
5.84186
6.18026
6.48292
6.75848
7.01281
7.25
7.47304
1.94979
3.56778
4.43863
5.03382
5.49936
5.88909
6.22852
6.53191
6.80781
7.06215
7.29928
7.52235
1.96563
3.60164
4.47882
5.07754
5.54555
5.93713
6.27795
6.58221
6.85869
7.11325
7.35017
7.57248
1.98009
3.63572
4.51882
5.12114
5.59177
5.98551
6.32807
6.63371
6.91117
7.16628
7.40334
7.62555
1.99425
3.66861
4.55781
5.16395
5.63777
6.03407
6.37881
6.68618
6.96488
7.22087
7.45835
7.68047
2.00745
3.69949
4.59497
5.2055
5.683
6.08241
6.42978
6.73933
7.01981
7.27713
7.51557
7.73834
2.01764
3.72797
4.62965
5.24509
5.72678
6.13012
6.48079
6.79306
7.07568
7.33464
7.57419
7.7977
2.02574
3.75292
4.66139
5.28206
5.76888
6.17674
6.5314
6.84708
7.1324
7.3934
7.63445
7.85885
2.03061
3.77353
4.68805
5.31513
5.80818
6.2216
6.58125
6.90115
7.18981
7.45343
7.69641
7.92189
2.02896
3.78626
4.7084
5.34335
5.84386
6.26427
6.63
6.95493
7.24777
7.51474
7.76038
7.98793
2.02056
3.78961
4.7205
5.36501
5.87497
6.30396
6.67685
7.00786
7.30578
7.57689
7.8258
8.05586
2.00075
3.7796
4.72142
5.37831
5.90022
6.33955
6.72112
7.05937
7.36336
7.63944
7.89231
8.12551
1.96473
3.75041
4.70701
5.38076
5.9178
6.36986
6.76197
7.1088
7.41984
7.70159
7.95917
8.19644
1.90276
3.69326
4.67223
5.36939
5.92577
6.3934
6.79818
7.15527
7.47454
7.76292
8.02573
8.26685
1.80737
3.59573
4.60936
5.33953
5.92119
6.40818
6.82829
7.19762
7.52677
7.82312
8.09213
8.33772
1.67049
3.43122
4.50031
5.28252
5.8995
6.41157
6.85074
7.23523
7.57616
7.88231
8.15954
8.41119
4.89799
10.4318
14.6259
18.3248
21.3943
24.1082
26.4824
28.4892
30.1791
31.5993
32.7871
33.7684
5.2744
11.0774
15.2544
18.7507
21.7062
24.2844
26.5157
28.4143
30.0209
31.3748
32.5119
33.4617
5.62922
11.5497
15.6438
19.0015
21.8575
24.3281
26.4549
28.2692
29.8092
31.1111
32.2076
33.1276
5.94104
11.9299
15.9136
19.1484
21.9053
24.2817
26.3242
28.0697
29.5546
30.8128
31.8747
32.7684
6.20277
12.2315
16.1062
19.2255
21.8842
24.174
26.1429
27.8286
29.266
30.4866
31.5188
32.3866
6.41994
12.4617
16.2372
19.249
21.8131
24.0222
25.9244
27.5565
28.9516
30.1398
31.1485
32.0041
6.59825
12.6305
16.3172
19.23
21.7048
23.8383
25.6788
27.2616
28.618
29.7757
30.7599
31.592
6.74062
12.7477
16.355
19.177
21.5683
23.631
25.4135
26.9502
28.2701
29.3994
30.3611
31.1749
6.85236
12.8219
16.3573
19.0964
21.4099
23.4059
25.1338
26.6266
27.912
29.0141
29.9551
30.7554
6.93657
12.8594
16.329
18.9924
21.2339
23.1673
24.8433
26.2944
27.5466
28.6224
29.5419
30.3217
6.997
12.866
16.2744
18.8686
21.0434
22.9182
24.5452
25.9565
27.177
28.2281
29.129
29.8972
7.03756
12.8459
16.197
18.7277
20.8408
22.6607
24.2415
25.6151
26.8055
27.8332
28.716
29.4695
7.06009
12.8033
16.1002
18.5721
20.6281
22.3968
23.9341
25.2721
26.4342
27.4402
28.3074
29.0516
7.06843
12.742
15.9865
18.4041
20.4071
22.1281
23.6246
24.9291
26.0648
27.0508
27.9042
28.641
7.06392
12.6643
15.8585
18.2253
20.1793
21.856
23.3142
24.587
25.6975
26.6641
27.503
28.2287
7.04858
12.5731
15.7187
18.0378
19.9461
21.5812
23.0035
24.2465
25.3329
26.2806
27.1044
27.8171
7.02402
12.4708
15.5688
17.843
19.7085
21.3048
22.6934
23.9082
24.9717
25.9013
26.7116
27.4158
6.99155
12.3587
15.4103
17.6421
19.4676
21.0276
22.3845
23.5725
24.6143
25.5265
26.3232
27.0157
6.95277
12.2386
15.2448
17.4363
19.2241
20.7501
22.0772
23.2401
24.2612
25.1573
25.9417
26.6261
6.90777
12.1122
15.0737
17.2266
18.979
20.4729
21.7721
22.9113
23.9131
24.7942
25.5679
26.246
6.85832
11.9802
14.8981
17.0141
18.733
20.1967
21.4695
22.5864
23.5701
24.4372
25.2012
25.8747
6.80479
11.8439
14.7188
16.7995
18.4866
19.9219
21.1697
22.2656
23.232
24.0851
24.8377
25.4997
6.74812
11.7045
14.537
16.5837
18.2405
19.6487
20.8729
21.9488
22.8986
23.7384
24.4808
25.1366
6.68795
11.5622
14.3532
16.367
17.9951
19.3776
20.5795
21.6362
22.5701
23.3968
24.1283
24.7734
6.62582
11.4182
14.1681
16.1502
17.7506
19.1089
20.2895
21.328
22.2467
23.0613
23.7838
24.4246
6.56161
11.2727
13.9822
15.9336
17.5076
18.8426
20.0029
21.0241
21.9284
22.7312
23.4448
24.079
6.49617
11.1266
13.7963
15.7178
17.2664
18.5791
19.7201
20.7247
21.615
22.4062
23.1093
23.7325
6.4292
10.9801
13.6106
15.5031
17.0272
18.3186
19.4411
20.4298
21.3066
22.0862
22.7801
23.3975
6.36115
10.8335
13.4256
15.2897
16.7902
18.0612
19.1661
20.1394
21.0027
21.771
22.4551
23.0628
6.29211
10.6874
13.2414
15.078
16.5559
17.8074
18.8949
19.8532
20.7037
21.4615
22.1374
22.7409
6.22308
10.542
13.0586
14.8687
16.3245
17.5566
18.6275
19.5713
20.4096
21.1574
21.8254
22.422
6.15387
10.3976
12.8778
14.6616
16.0956
17.3091
18.3638
19.2938
20.1207
20.8593
21.521
22.1159
6.08523
10.2546
12.6983
14.4565
15.8694
17.065
18.1041
19.0208
19.8366
20.5664
21.2213
21.8113
6.01706
10.1127
12.5206
14.2536
15.646
16.8241
17.8482
18.7522
19.5572
20.2778
20.9246
21.5052
5.94918
9.97196
12.3448
14.053
15.4256
16.5867
17.5963
18.4879
19.2824
19.9943
20.6343
21.2107
5.8816
9.83276
12.171
13.855
15.208
16.3526
17.3483
18.2279
19.0124
19.7161
20.3492
20.9193
5.81441
9.69522
11.9992
13.6594
14.9934
16.1222
17.1042
17.9723
18.7475
19.4439
20.0727
20.6434
5.74757
9.55916
11.8297
13.4665
14.7819
15.8951
16.864
17.7212
18.4872
19.1766
19.8006
20.3692
5.68106
9.4248
11.6621
13.2762
14.5735
15.6716
16.6278
17.4741
18.2311
18.9127
19.5291
20.0872
5.61489
9.29188
11.497
13.0886
14.3682
15.4517
16.3954
17.2312
17.9793
18.6531
19.2624
19.8138
5.54919
9.1608
11.3339
12.9037
14.166
15.2352
16.1669
16.9926
17.7321
18.3991
19.0033
19.5525
5.48394
9.03158
11.1734
12.7215
13.967
15.0223
15.9425
16.7585
17.4902
18.1514
18.7526
19.3023
5.41924
8.90426
11.0151
12.5421
13.7712
14.8131
15.722
16.5288
17.2535
17.91
18.5096
19.0632
5.35502
8.77845
10.859
12.3655
13.5786
14.6074
15.5055
16.3036
17.0214
17.6729
18.2687
18.8174
5.29139
8.65448
10.7054
12.1918
13.3892
14.4053
15.293
16.0827
16.7938
17.4402
18.0324
18.5791
5.22838
8.53249
10.5543
12.0208
13.203
14.2068
15.0844
15.8658
16.5702
17.2111
17.7984
18.339
5.16602
8.41259
10.4057
11.8527
13.0201
14.0118
14.8796
15.6529
16.3508
16.9865
17.5698
18.1084
5.10432
8.29463
10.2594
11.6875
12.8403
13.8204
14.6785
15.444
16.1356
16.7664
17.3462
17.8824
5.04331
8.17849
10.1157
11.5252
12.6637
13.6323
14.4811
15.239
15.9246
16.5511
17.1284
17.6658
4.98297
8.06401
9.97432
11.3656
12.4901
13.4475
14.2872
15.0378
15.7175
16.3392
16.9128
17.4453
4.92338
7.95175
9.83539
11.2087
12.3196
13.2661
14.0969
14.8401
15.5139
16.131
16.7011
17.2321
4.86452
7.84148
9.69893
11.0547
12.1521
13.0879
13.9099
14.6459
15.3136
15.9256
16.4907
17.0154
4.80649
7.73333
9.56488
10.9033
11.9876
12.9128
13.7261
14.4549
15.1166
15.7233
16.2838
16.8045
4.74918
7.62675
9.43319
10.7547
11.8261
12.7408
13.5455
14.2671
14.9228
15.5243
16.0804
16.5973
4.69266
7.52223
9.30385
10.6086
11.6673
12.5718
13.3681
14.0825
14.7322
15.3287
15.8807
16.3949
4.63695
7.41955
9.17679
10.4651
11.5113
12.4057
13.1936
13.9011
14.5449
15.1363
15.6835
16.1922
4.58203
7.3188
9.05199
10.3242
11.3581
12.2426
13.0223
13.723
14.3611
14.9479
15.4917
15.999
4.5279
7.21984
8.9296
10.1859
11.2076
12.0824
12.8542
13.5483
14.1812
14.7642
15.3059
15.8134
4.47458
7.12283
8.80936
10.05
11.0599
11.9252
12.6892
13.3771
14.0053
14.5852
15.1261
15.6364
4.422
7.0274
8.69126
9.91666
10.9148
11.7708
12.5274
13.2094
13.833
14.4098
14.9486
15.4565
4.37021
6.93375
8.57538
9.78574
10.7725
11.6195
12.3688
13.045
13.6643
14.238
14.775
15.2831
4.31916
6.84169
8.46168
9.65724
10.6328
11.471
12.2132
12.8839
13.4988
14.0692
14.6034
15.1079
4.26893
6.7517
8.35004
9.53115
10.4958
11.3253
12.0607
12.7259
13.3365
13.9037
14.4358
14.9397
4.21942
6.66311
8.24044
9.4074
10.3614
11.1825
11.9111
12.5709
13.1774
13.7415
14.2714
14.774
4.17066
6.57629
8.13308
9.28605
10.2295
11.0423
11.7644
12.4189
13.0213
13.5821
14.1095
14.6093
4.12263
6.49106
8.02761
9.16695
10.1001
10.9049
11.6204
12.2698
12.8681
13.4258
13.9509
14.4501
4.07534
6.4074
7.92414
9.05012
9.97323
10.77
11.4792
12.1235
12.7177
13.2722
13.7946
14.2904
4.02875
6.32527
7.82268
8.93557
9.84877
10.6377
11.3407
11.98
12.5704
13.1219
13.6426
14.1392
3.98288
6.24472
7.72317
8.82318
9.72667
10.508
11.2048
11.8393
12.4259
12.9745
13.493
13.9871
3.93771
6.1658
7.62553
8.71289
9.60689
10.3807
11.0716
11.7013
12.2842
12.8302
13.3472
13.8421
3.89324
6.08813
7.52973
8.60479
9.48943
10.2559
10.9409
11.566
12.145
12.688
13.2025
13.6937
3.8495
6.01226
7.43582
8.49871
9.37418
10.1335
10.8127
11.4331
12.0084
12.5484
13.0603
13.5499
3.80641
5.93766
7.34379
8.39473
9.26121
10.0134
10.6868
11.3025
11.874
12.4108
12.9199
13.4066
3.76398
5.8645
7.25349
8.29272
9.15032
9.89547
10.5633
11.1743
11.7419
12.2754
12.7814
13.2646
3.72222
5.79281
7.16498
8.19265
9.04155
9.77977
10.4419
11.0484
11.6122
12.1425
12.6463
13.1292
3.68115
5.72261
7.07809
8.09446
8.93482
9.66619
10.3228
10.9246
11.4845
12.0117
12.5125
12.9918
3.64069
5.65353
6.99281
7.99817
8.83006
9.55473
10.2058
10.803
11.3591
11.8831
12.3815
12.8602
3.60087
5.58586
6.90921
7.90363
8.72722
9.44521
10.0908
10.6834
11.2356
11.7561
12.2511
12.7252
3.56168
5.5195
6.82714
7.81085
8.62625
9.33765
9.9778
10.5658
11.1141
11.6311
12.1231
12.5951
3.52306
5.45418
6.74664
7.71979
8.52706
9.23191
9.8666
10.45
10.9942
11.5076
11.9963
12.4653
3.485
5.39006
6.6676
7.63033
8.42962
9.12795
9.75722
10.336
10.876
11.3854
11.8696
12.3318
3.44749
5.32713
6.58999
7.54249
8.33388
9.02578
9.64969
10.2238
10.7597
11.2654
11.7465
12.2066
3.41051
5.26543
6.5138
7.4562
8.23973
8.92536
9.54396
10.1136
10.6458
11.1487
11.6283
12.0903
3.37402
5.20459
6.43893
7.37145
8.14735
8.82674
9.44011
10.0054
10.5341
11.0345
11.513
11.9752
3.33811
5.14505
6.36539
7.28819
8.05652
8.72976
9.33811
9.89922
10.4246
10.9223
11.3988
11.8595
3.30279
5.08677
6.29288
7.20621
7.96727
8.63451
9.23784
9.79477
10.3166
10.8112
11.2841
11.7391
3.26793
5.02912
6.222
7.12596
7.87965
8.54092
9.13928
9.69204
10.2103
10.7016
11.1717
11.6245
3.23336
4.97225
6.15225
7.04699
7.79342
8.44882
9.0424
9.59105
10.1057
10.594
11.0616
11.5123
3.19933
4.91659
6.08373
6.96926
7.70867
8.35838
8.94714
9.4917
10.0029
10.4884
10.9539
11.4041
3.16562
4.86167
6.01635
6.89296
7.62544
8.26943
8.85338
9.39392
9.90167
10.3841
10.8467
11.2931
3.13241
4.80783
5.95008
6.81784
7.54344
8.18188
8.76117
9.29766
9.80191
10.2813
10.7412
11.1855
3.09959
4.75502
5.88469
6.74397
7.46292
8.09582
8.67043
9.20291
9.7037
10.18
10.6371
11.0795
3.06713
4.70289
5.82067
6.67137
7.38364
8.01107
8.58108
9.10955
9.60676
10.0796
10.533
10.9694
3.03516
4.65151
5.75733
6.59977
7.30559
7.92768
8.49305
9.01753
9.51123
9.98123
10.4328
10.8713
3.0034
4.60045
5.69513
6.52948
7.22884
7.8455
8.40627
8.92679
9.41697
9.88363
10.3314
10.7627
2.97215
4.55102
5.63401
6.4603
7.15318
7.76457
8.32089
8.83751
9.32427
9.78807
10.2341
10.6674
2.94106
4.50192
5.57389
6.39205
7.07873
7.68494
8.23678
8.74947
9.23276
9.69343
10.1364
10.5653
2.91036
4.45348
5.5144
6.32493
7.00542
7.6064
8.15384
8.66262
9.1424
9.59981
10.0396
10.4656
2.87979
4.40534
5.45593
6.25878
6.93307
7.52896
8.072
8.57684
9.05294
9.5067
9.94246
10.3626
2.84952
4.3583
5.3983
6.19348
6.86183
7.45273
7.99126
8.49212
8.96466
9.41519
9.84811
10.2668
2.81944
4.31181
5.34148
6.12916
6.79159
7.37735
7.91153
8.40852
8.87765
9.32518
9.75604
10.1748
2.78974
4.26597
5.28533
6.06571
6.7222
7.30303
7.83288
8.32599
8.79149
9.23558
9.66265
10.0755
2.76025
4.22053
5.22973
6.00308
6.65374
7.22965
7.75516
8.24433
8.70626
9.14689
9.57064
9.98071
2.73092
4.17599
5.17537
5.94128
6.58615
7.15718
7.6784
8.16373
8.62199
9.05916
9.47927
9.88477
2.70165
4.13162
5.12135
5.88015
6.51947
7.0857
7.60263
8.08412
8.53901
8.97328
9.39148
9.79754
2.67262
4.08775
5.06785
5.8199
6.45364
7.015
7.52771
8.00549
8.45711
8.88868
9.30519
9.71168
2.64359
4.04406
5.01511
5.76044
6.38847
6.94508
7.45365
7.92765
8.37574
8.80371
9.21579
9.61425
2.6147
4.00089
4.96278
5.70139
6.32398
6.87599
7.38037
7.85045
8.29478
8.71898
9.12685
9.52037
2.58592
3.95804
4.91106
5.643
6.26026
6.80762
7.30782
7.77397
8.21461
8.63538
9.04042
9.43346
2.55713
3.91586
4.86007
5.58526
6.19718
6.73989
7.23578
7.69807
8.135
8.55218
8.9536
9.34227
2.52843
3.87378
4.80911
5.528
6.13467
6.67271
7.1644
7.62274
8.05578
8.46895
8.86609
9.24956
2.49971
3.8322
4.75873
5.47135
6.07274
6.60611
7.09351
7.54778
7.97687
8.38619
8.7795
9.15983
2.47104
3.79076
4.70902
5.41516
6.01133
6.53999
7.02306
7.47321
7.89829
8.30353
8.69245
9.06729
2.44218
3.74933
4.65941
5.35928
5.9502
6.47425
6.9531
7.39915
7.8201
8.2213
8.60622
8.9773
2.41332
3.70857
4.61011
5.30386
5.8895
6.40895
6.88349
7.32538
7.74234
8.13965
8.52095
8.88948
2.38429
3.6675
4.56098
5.24874
5.82929
6.34404
6.81423
7.25195
7.66482
8.05807
8.43535
8.79957
2.35511
3.62658
4.5123
5.19385
5.76928
6.27949
6.74535
7.17884
7.58747
7.97639
8.34903
8.70742
2.32572
3.58622
4.46363
5.1392
5.70968
6.21534
6.67673
7.10592
7.51037
7.89528
8.26425
8.62049
2.29587
3.54479
4.41502
5.08486
5.65028
6.15133
6.60836
7.03326
7.43353
7.81412
8.17845
8.52871
2.26581
3.50383
4.36638
5.03057
5.5912
6.08762
6.5403
6.96099
7.35714
7.73378
8.09478
8.44385
2.23524
3.46264
4.31801
4.97654
5.53213
6.02406
6.47249
6.88893
7.28085
7.65321
8.00957
8.35228
2.20432
3.42172
4.26971
4.92267
5.47332
5.9608
6.40484
6.81697
7.20458
7.5726
7.92457
8.26318
2.17275
3.37985
4.22097
4.86873
5.41478
5.8978
6.33747
6.7452
7.12841
7.49191
7.83918
8.17268
2.14056
3.33815
4.17241
4.81493
5.35643
5.83499
6.27027
6.67366
7.05241
7.41152
7.75457
8.0843
2.10739
3.29543
4.12369
4.76128
5.29835
5.77255
6.20341
6.60233
6.97662
7.3314
7.67052
7.99739
2.07327
3.25279
4.07495
4.70784
5.24042
5.71027
6.13669
6.53107
6.90078
7.25096
7.58543
7.90722
2.03793
3.20933
4.02597
4.65446
5.18292
5.6484
6.07027
6.45993
6.82474
7.16985
7.49899
7.8146
2.00104
3.1645
3.97702
4.60166
5.12594
5.58697
6.00416
6.38893
6.74868
7.08871
7.41284
7.72396
1.96232
3.11973
3.92852
4.54939
5.06974
5.52627
5.93847
6.31795
6.67239
7.0072
7.32623
7.63199
1.92126
3.074
3.88012
4.49811
5.01452
5.4663
5.87313
6.24701
6.59585
6.92535
7.24014
7.54539
1.87715
3.02719
3.833
4.44871
4.96089
5.40721
5.80803
6.17563
6.51812
6.8412
7.14886
7.44257
1.82904
2.98082
3.78786
4.40145
4.90874
5.3488
5.74268
6.10323
6.43883
6.75522
7.05645
7.34505
1.77498
2.93507
3.74628
4.35688
4.85765
5.28989
5.67581
6.02879
6.35727
6.66706
6.96231
7.24653
1.71229
2.89602
3.70936
4.31392
4.80511
5.2282
5.60595
5.9516
6.27315
6.57649
6.8654
7.14359
1.6271
2.8665
3.66973
4.26872
4.74775
5.16253
5.53379
5.87341
6.18947
6.48744
6.7682
7.03521
2.85689
5.93939
8.56155
10.9068
12.922
14.7006
16.2677
17.564
18.6429
19.544
20.2428
20.7962
3.04934
6.29417
8.91277
11.1503
13.083
14.7742
16.238
17.4642
18.4865
19.3284
20
20.5336
3.24245
6.56694
9.13129
11.2891
13.1534
14.7711
16.1599
17.329
18.3039
19.1057
19.754
20.2748
3.42118
6.79819
9.28666
11.3678
13.1653
14.7187
16.0474
17.1682
18.1033
18.874
19.5005
20.0027
3.58068
6.99216
9.40287
11.4088
13.1406
14.6345
15.9111
16.9894
17.8904
18.6339
19.2389
19.7214
3.72252
7.15037
9.48853
11.4221
13.0902
14.5285
15.7582
16.7984
17.6686
18.3881
18.9739
19.4414
3.84622
7.27584
9.54943
11.4142
13.0211
14.4073
15.5937
16.5987
17.4412
18.1387
18.7079
19.1645
3.95417
7.37404
9.58888
11.3901
12.9387
14.2756
15.4214
16.3938
17.2104
17.8878
18.4423
18.8887
4.04561
7.44794
9.61077
11.3523
12.8466
14.1366
15.2441
16.1859
16.9784
17.6378
18.1793
18.6174
4.12214
7.50142
9.61641
11.3038
12.7465
13.9929
15.064
15.9769
16.747
17.3897
17.9198
18.3516
4.18509
7.53662
9.60844
11.2454
12.6408
13.8455
14.8826
15.7683
16.5175
17.1448
17.664
18.0881
4.2364
7.55606
9.58805
11.1791
12.5299
13.6961
14.701
15.5611
16.2905
16.9032
17.4123
17.8302
4.27723
7.56195
9.55679
11.1056
12.4152
13.5451
14.5199
15.3557
16.0666
16.6655
17.1648
17.5758
4.30881
7.5557
9.51578
11.0257
12.2976
13.3935
14.3398
15.153
15.8465
16.433
16.9244
17.3324
4.33142
7.53968
9.46666
10.9404
12.177
13.2415
14.1612
14.9528
15.6296
16.2034
16.6851
17.0836
4.34829
7.51487
9.41019
10.8507
12.0544
13.0895
13.9842
14.7554
15.4161
15.9779
16.4509
16.8458
4.35894
7.48227
9.34782
10.7568
11.9302
12.9377
13.8088
14.5607
15.2063
15.7562
16.2207
16.6084
4.36358
7.44378
9.2798
10.6596
11.8046
12.7863
13.6353
14.3689
14.9999
15.5389
15.9955
16.379
4.36435
7.39919
9.20733
10.5596
11.678
12.6354
13.4636
14.1798
14.7969
15.3252
15.774
16.1522
4.36016
7.35004
9.13091
10.4572
11.5506
12.4853
13.2937
13.9934
14.5971
15.1147
15.5547
15.924
4.35302
7.29687
9.05095
10.3526
11.4226
12.3361
13.1256
13.8097
14.4006
14.908
15.3404
15.7051
4.3427
7.24008
8.96859
10.2465
11.2944
12.1875
12.9596
13.6287
14.2075
14.7054
15.1307
15.4908
4.32878
7.18023
8.88357
10.1392
11.1661
12.0402
12.7954
13.4506
14.0178
14.5069
14.926
15.2827
4.31338
7.11821
8.79678
10.0309
11.0378
11.8939
12.6334
13.2752
13.8317
14.3123
14.725
15.0766
4.29562
7.05404
8.70815
9.92183
10.9099
11.749
12.4736
13.1027
13.6489
14.1215
14.5283
14.8763
4.27575
6.98815
8.61853
9.81238
10.7825
11.6054
12.3157
12.9329
13.4693
13.9341
14.3347
14.6774
4.25559
6.92094
8.52804
9.70261
10.6556
11.4631
12.1601
12.7659
13.2928
13.7501
14.1453
14.485
4.23231
6.85282
8.4367
9.59299
10.5295
11.3223
12.0066
12.6014
13.1194
13.5694
13.9586
14.2927
4.20838
6.78348
8.34509
9.48354
10.4042
11.1832
11.8551
12.4396
12.9488
13.3919
13.7757
14.1064
4.18393
6.71338
8.25302
9.3743
10.28
11.0455
11.7058
12.2802
12.7812
13.2174
13.5958
13.9216
4.15772
6.64312
8.16098
9.26558
10.1568
10.9094
11.5585
12.1234
12.6163
13.0461
13.4196
13.7429
4.1316
6.57257
8.06891
9.15736
10.0346
10.7749
11.4133
11.9689
12.4542
12.8776
13.2458
13.5639
4.10448
6.50196
7.97727
9.04986
9.91354
10.6421
11.2701
11.8169
12.2947
12.712
13.0755
13.3905
4.07699
6.43108
7.88588
8.9431
9.79376
10.5109
11.129
11.6673
12.1378
12.5492
12.9075
13.2177
4.04886
6.36068
7.79504
8.83711
9.6752
10.3813
10.9899
11.52
11.9837
12.3892
12.743
13.05
4.02053
6.2902
7.70463
8.73216
9.55785
10.2534
10.8528
11.375
11.832
12.2322
12.5819
12.8866
3.99076
6.22019
7.61469
8.62806
9.44194
10.1272
10.7177
11.2323
11.6828
12.0777
12.4231
12.7236
3.96255
6.15058
7.52572
8.5249
9.32727
10.0027
10.5846
11.0917
11.5362