/*--------------------------------*- C++ -*----------------------------------*\
| =========                 |                                                 |
| \\      /  F ield         | OpenFOAM: The Open Source CFD Toolbox           |
|  \\    /   O peration     | Version:  2.3.1                                 |
|   \\  /    A nd           | Web:      www.OpenFOAM.org                      |
|    \\/     M anipulation  |                                                 |
\*---------------------------------------------------------------------------*/
FoamFile
{
    version     2.0;
    format      ascii;
    class       volScalarField;
    location    "0.41";
    object      nut;
}
// * * * * * * * * * * * * * * * * * * * * * * * * * * * * * * * * * * * * * //

dimensions      [0 2 -1 0 0 0 0];

internalField   nonuniform List<scalar> 
81190
(
9.00683e-05
0.000564304
0.00115489
0.00169665
0.0021519
0.00251298
0.00277778
0.00294788
0.00302873
0.00303101
0.00297414
0.0028817
9.4929e-05
0.00062765
0.00126816
0.00183963
0.00231664
0.00269643
0.0029804
0.00317205
0.00327711
0.00330462
0.00326863
0.00318617
9.8775e-05
0.000682361
0.00137054
0.00197518
0.00247718
0.00287793
0.00318204
0.00339476
0.00352292
0.00357507
0.00356303
0.00350187
0.000102024
0.000726015
0.00145954
0.00209922
0.00262867
0.00305217
0.0033768
0.00360972
0.00375887
0.00383281
0.0038417
0.00379815
0.000104803
0.000763353
0.00153918
0.00221384
0.0027713
0.00321803
0.00356311
0.00381524
0.00398342
0.00407652
0.0041043
0.0040778
0.000107317
0.00079593
0.00161159
0.00232068
0.00290627
0.00337648
0.00374152
0.00401186
0.00419735
0.00430736
0.00435154
0.00434028
0.000109587
0.000826111
0.00167866
0.0024212
0.00303479
0.00352822
0.00391326
0.00420117
0.00440289
0.00452838
0.00458746
0.00459026
0.000111609
0.000853887
0.00174191
0.00251647
0.00315772
0.00367444
0.00407927
0.0043847
0.00460215
0.00474253
0.0048158
0.00483186
0.000113559
0.000879515
0.00180131
0.00260737
0.00327559
0.00381515
0.00423997
0.00456297
0.00479646
0.00495163
0.00503899
0.00506898
0.000115307
0.000904023
0.00185795
0.00269363
0.00338822
0.00395093
0.00439564
0.00473653
0.00498643
0.00515681
0.00525829
0.00530096
0.000116837
0.000926035
0.0019102
0.0027754
0.00349564
0.0040812
0.0045463
0.00490548
0.00517241
0.00535908
0.00547631
0.00553395
0.000118299
0.000946536
0.0019593
0.00285235
0.00359799
0.00420594
0.00469108
0.00506872
0.00535284
0.00555602
0.00568947
0.00576361
0.000119646
0.000966225
0.00200655
0.00292576
0.00369556
0.00432534
0.00482988
0.00522547
0.00552637
0.00574528
0.00589358
0.0059809
0.000120793
0.000984513
0.00205032
0.00299549
0.00378862
0.00443922
0.00496319
0.00537632
0.00569363
0.00592799
0.00609113
0.00619294
0.000121796
0.00100136
0.0020918
0.00306133
0.00387735
0.00454881
0.00509146
0.00552186
0.00585531
0.00610516
0.006283
0.00639887
0.000122741
0.00101648
0.00213095
0.0031243
0.0039622
0.00465393
0.00521518
0.0056626
0.00601202
0.006277
0.00646919
0.0065987
0.000123671
0.00103173
0.00216784
0.00318425
0.00404356
0.00475483
0.0053342
0.00579856
0.0061638
0.00644397
0.00665096
0.00679507
0.000124511
0.0010457
0.00220318
0.00324099
0.00412096
0.00485141
0.00544848
0.00592962
0.00631056
0.00660565
0.00682707
0.00698525
0.000125188
0.00105955
0.00223612
0.00329468
0.00419427
0.00494331
0.00555783
0.00605531
0.00645207
0.00676207
0.00699776
0.00716966
0.00012577
0.00107083
0.00226608
0.00334465
0.00426368
0.0050309
0.00566275
0.00617623
0.0065882
0.00691276
0.00716234
0.00734754
0.000126274
0.00108173
0.00229474
0.00339196
0.00432962
0.0051145
0.00576302
0.00629244
0.00671933
0.00705809
0.00732131
0.00751963
0.000126745
0.00109089
0.00232026
0.00343539
0.00439148
0.00519378
0.00585858
0.00640376
0.00684569
0.00719876
0.00747575
0.0076871
0.00012712
0.00110039
0.0023443
0.00347618
0.00444907
0.00526849
0.00594961
0.00651031
0.00696712
0.00733442
0.00762492
0.00784954
0.000127293
0.00110719
0.00236496
0.00351386
0.00450365
0.0053391
0.00603634
0.00661238
0.00708381
0.00746528
0.00776947
0.00800732
0.000127573
0.00111367
0.00238427
0.00354783
0.00455392
0.00540559
0.00611857
0.00670992
0.00719602
0.00759155
0.00790933
0.00816017
0.000127848
0.0011189
0.00240114
0.00357906
0.00460066
0.00546799
0.00619646
0.00680279
0.0073034
0.00771289
0.00804398
0.00830746
0.000128001
0.00112408
0.00241669
0.00360787
0.00464363
0.00552622
0.00626977
0.00689103
0.00740607
0.00782934
0.00817388
0.00845058
0.000128151
0.00112846
0.00242999
0.00363362
0.00468362
0.00558084
0.00633908
0.00697478
0.00750416
0.0079412
0.00829881
0.00858815
0.000128247
0.00113195
0.00244249
0.00365769
0.00472057
0.00563198
0.0064046
0.00705443
0.00759763
0.0080484
0.00841898
0.00872079
0.000128178
0.0011343
0.00245278
0.00367919
0.00475477
0.0056795
0.00646636
0.0071304
0.00768721
0.00815136
0.008535
0.00884898
0.000128177
0.00113661
0.00246213
0.00369828
0.00478599
0.00572429
0.00652466
0.00720236
0.00777302
0.00825034
0.00864679
0.00897352
0.000128186
0.00113831
0.00246977
0.003716
0.00481499
0.00576597
0.00657992
0.00727098
0.00785507
0.00834564
0.00875491
0.00909391
0.000128073
0.0011394
0.00247604
0.00373112
0.00484155
0.00580473
0.00663168
0.00733627
0.00793335
0.00843699
0.00885896
0.00921053
0.00012798
0.00114038
0.00248202
0.00374486
0.00486575
0.00584125
0.0066806
0.00739815
0.0080082
0.00852433
0.00895867
0.00932192
0.000127929
0.00114073
0.00248663
0.00375687
0.00488781
0.00587483
0.00672667
0.00745688
0.00807944
0.00860803
0.00905417
0.00942852
0.000127844
0.0011406
0.00248988
0.00376754
0.00490818
0.00590638
0.00677009
0.00751271
0.00814793
0.00868841
0.00914617
0.00953129
0.000127746
0.00114062
0.00249266
0.00377726
0.00492727
0.0059361
0.00681152
0.0075662
0.00821357
0.00876623
0.00923567
0.00963211
0.000127619
0.00114019
0.00249614
0.00378681
0.00494529
0.00596429
0.00685112
0.00761794
0.0082773
0.00884168
0.00932277
0.00973104
0.000127575
0.00113938
0.0024979
0.00379546
0.00496238
0.00599151
0.00688936
0.00766756
0.00833884
0.00891488
0.00940741
0.00982658
0.000127469
0.00113973
0.00250073
0.00380327
0.00497887
0.00601781
0.0069267
0.00771591
0.00839849
0.00898621
0.00949006
0.00992068
0.000127256
0.00113895
0.00250318
0.00381193
0.004995
0.00604348
0.00696274
0.0077634
0.00845682
0.00905554
0.00957017
0.0100107
0.000127138
0.00113834
0.00250512
0.00381963
0.00501083
0.00606848
0.00699812
0.00780945
0.00851385
0.00912289
0.00964807
0.0100991
0.00012716
0.00113792
0.00250701
0.0038272
0.00502617
0.00609319
0.00703268
0.00785419
0.00856926
0.00918883
0.0097238
0.010184
0.000127125
0.00113914
0.00251059
0.00383561
0.00504207
0.00611759
0.00706664
0.00789834
0.00862367
0.00925375
0.00979932
0.0102699
0.000127028
0.00113868
0.00251347
0.00384404
0.00505758
0.0061418
0.00710014
0.00794208
0.00867759
0.00931793
0.0098735
0.0103539
0.000126928
0.00113853
0.00251622
0.00385217
0.00507276
0.0061658
0.00713355
0.00798505
0.00873077
0.00938111
0.00994672
0.0104373
0.000126949
0.00113793
0.00251865
0.00386019
0.00508801
0.00618922
0.00716645
0.00802752
0.0087827
0.00944274
0.0100176
0.0105165
0.000126879
0.00113826
0.00252133
0.00386789
0.00510296
0.00621245
0.0071983
0.00806895
0.00883403
0.00950328
0.0100869
0.0105937
0.000126693
0.00113773
0.00252341
0.00387545
0.005117
0.00623491
0.00723012
0.00810974
0.00888456
0.00956394
0.0101573
0.0106747
0.000126687
0.00113795
0.00252583
0.00388309
0.00513143
0.00625689
0.00726102
0.00815014
0.00893421
0.00962326
0.0102265
0.0107535
0.000126606
0.00113801
0.00252781
0.00388967
0.00514512
0.00627811
0.00729087
0.00818948
0.00898276
0.00968136
0.0102942
0.0108299
0.000126431
0.0011378
0.00252986
0.00389616
0.00515812
0.00629886
0.00732004
0.00822771
0.0090303
0.00973813
0.0103606
0.0109061
0.000126319
0.00113771
0.00253234
0.00390284
0.00517083
0.0063192
0.00734845
0.00826468
0.00907641
0.0097932
0.0104248
0.0109793
0.000126234
0.00113719
0.0025339
0.00390875
0.00518308
0.00633891
0.00737594
0.00830047
0.0091211
0.00984714
0.0104875
0.0110508
0.000126142
0.00113703
0.00253579
0.00391525
0.00519495
0.00635756
0.00740259
0.00833566
0.00916482
0.00989967
0.0105488
0.0111203
0.000126023
0.00113675
0.0025377
0.00392081
0.00520622
0.00637596
0.00742865
0.00836989
0.0092077
0.00995091
0.0106084
0.0111885
0.000125874
0.00113629
0.00253908
0.00392619
0.00521676
0.00639324
0.00745352
0.00840277
0.00924894
0.0100008
0.0106669
0.0112551
0.000125691
0.00113591
0.00254024
0.00393159
0.00522769
0.00641039
0.00747811
0.00843502
0.00928954
0.0100496
0.0107245
0.0113218
0.00012569
0.00113567
0.00254128
0.00393622
0.0052375
0.00642684
0.00750144
0.00846648
0.00932903
0.0100972
0.0107799
0.0113853
0.000125497
0.00113453
0.00254204
0.00394049
0.00524699
0.00644246
0.0075243
0.00849669
0.00936739
0.0101437
0.0108342
0.0114469
0.000125274
0.0011338
0.0025422
0.00394413
0.00525592
0.00645721
0.00754581
0.00852596
0.00940449
0.0101893
0.0108881
0.0115089
0.000125111
0.00113303
0.00254252
0.00394702
0.00526343
0.00647101
0.00756638
0.00855393
0.00944061
0.0102338
0.0109414
0.0115716
0.000124982
0.00113221
0.00254234
0.00394974
0.00527064
0.00648386
0.00758591
0.00858075
0.00947538
0.010277
0.0109935
0.011633
0.000124834
0.00113067
0.0025419
0.0039516
0.00527666
0.0064952
0.0076037
0.00860583
0.00950819
0.0103179
0.0110425
0.0116898
0.00012458
0.00112932
0.00254057
0.00395264
0.00528164
0.0065054
0.00762006
0.00862908
0.00953907
0.0103568
0.0110898
0.0117457
0.000124284
0.00112766
0.00253928
0.00395335
0.00528536
0.00651403
0.00763466
0.00865062
0.00956797
0.0103934
0.0111345
0.0117985
0.000123986
0.00112581
0.00253721
0.00395256
0.00528761
0.0065209
0.00764731
0.00866969
0.00959432
0.0104275
0.0111765
0.0118491
0.000123813
0.00112361
0.00253448
0.0039511
0.00528911
0.00652638
0.00765839
0.00868724
0.00961889
0.0104597
0.0112165
0.0118965
0.000123563
0.0011215
0.00253136
0.00394878
0.00528957
0.00653062
0.00766776
0.00870324
0.00964191
0.0104902
0.0112553
0.0119435
0.000123344
0.00111897
0.00252769
0.00394568
0.0052887
0.00653361
0.00767548
0.00871727
0.009663
0.0105192
0.0112923
0.0119885
0.000123122
0.00111679
0.00252343
0.00394141
0.00528625
0.00653517
0.0076818
0.00872904
0.00968213
0.0105464
0.011328
0.0120338
0.000122749
0.00111381
0.00251819
0.00393674
0.00528302
0.00653445
0.00768622
0.00873931
0.00969908
0.0105708
0.0113612
0.0120765
0.000122565
0.00111088
0.00251351
0.00393078
0.00527809
0.00653219
0.0076881
0.00874717
0.00971337
0.0105925
0.0113905
0.0121138
0.000122385
0.00110725
0.00250702
0.00392357
0.00527154
0.00652843
0.00768843
0.00875262
0.00972499
0.0106111
0.0114166
0.0121479
0.000122189
0.00110478
0.00250119
0.00391649
0.00526495
0.00652375
0.00768724
0.00875625
0.00973456
0.0106273
0.01144
0.0121782
0.000121983
0.00110192
0.00249542
0.003908
0.00525645
0.00651688
0.00768374
0.00875772
0.00974175
0.0106414
0.0114618
0.0122088
0.000121649
0.00109834
0.00248764
0.00389864
0.00524648
0.00650844
0.00767846
0.00875708
0.00974694
0.010653
0.0114807
0.0122347
0.0001213
0.00109438
0.00247977
0.00388833
0.00523552
0.00649897
0.00767203
0.00875459
0.0097503
0.010663
0.0114985
0.0122612
0.000121097
0.00108954
0.00247142
0.00387707
0.00522363
0.00648786
0.0076638
0.00875089
0.0097519
0.0106715
0.0115137
0.0122838
0.000120847
0.00108565
0.00246307
0.00386538
0.00521088
0.00647578
0.00765396
0.00874499
0.0097517
0.0106777
0.011528
0.0123065
0.000120646
0.00108131
0.00245349
0.00385324
0.00519704
0.00646243
0.00764293
0.00873757
0.00974953
0.0106822
0.01154
0.0123277
0.000120461
0.00107685
0.00244435
0.00384044
0.00518265
0.00644808
0.00763025
0.00872859
0.00974524
0.010684
0.0115488
0.0123436
0.000120292
0.00107287
0.00243508
0.00382716
0.00516714
0.00643225
0.00761615
0.0087179
0.00973953
0.0106842
0.0115556
0.012358
0.000120147
0.00106903
0.00242558
0.00381364
0.00515133
0.0064161
0.00760164
0.00870624
0.00973205
0.0106824
0.0115604
0.0123705
0.000119942
0.00106498
0.00241639
0.0037999
0.00513545
0.00639979
0.00758631
0.00869381
0.00972361
0.010679
0.0115632
0.0123794
0.000119831
0.00106031
0.00240697
0.00378631
0.00511946
0.00638345
0.00757088
0.008681
0.00971486
0.0106751
0.0115651
0.0123885
0.000119767
0.00105659
0.002398
0.00377323
0.00510396
0.00636727
0.00755566
0.00866815
0.00970611
0.0106711
0.0115661
0.012394
0.00011972
0.00105261
0.00238923
0.00376075
0.00508905
0.00635143
0.00754081
0.00865616
0.00969804
0.0106683
0.0115698
0.0124054
0.000119642
0.0010502
0.0023816
0.00374911
0.00507477
0.00633659
0.00752709
0.00864485
0.00969076
0.0106664
0.0115749
0.0124198
0.000119572
0.00104601
0.002374
0.00373817
0.00506166
0.00632229
0.00751384
0.00863397
0.00968348
0.0106642
0.0115785
0.0124293
0.000119688
0.00104331
0.0023674
0.00372837
0.0050498
0.00630977
0.00750156
0.00862387
0.00967691
0.0106623
0.011582
0.0124386
0.000119705
0.00104194
0.00236203
0.00371932
0.00503829
0.00629801
0.00749084
0.00861495
0.00967106
0.010661
0.0115866
0.0124504
0.000119646
0.00103875
0.00235525
0.00371051
0.00502775
0.00628712
0.00748091
0.00860715
0.00966645
0.0106606
0.0115912
0.0124594
0.000119699
0.00103686
0.00235078
0.00370275
0.00501872
0.00627763
0.00747197
0.00860035
0.00966318
0.0106614
0.0115973
0.0124735
0.00011985
0.00103466
0.00234614
0.00369621
0.00501035
0.00626893
0.00746424
0.00859454
0.00966044
0.0106626
0.0116027
0.012483
0.000120052
0.00103402
0.00234286
0.00369096
0.00500404
0.00626186
0.0074581
0.00859039
0.00965899
0.0106651
0.0116101
0.0124965
0.000120268
0.00103327
0.00234002
0.00368627
0.00499861
0.00625664
0.00745357
0.00858752
0.00965862
0.0106684
0.0116181
0.0125096
0.000120454
0.00103415
0.00233894
0.00368345
0.00499486
0.00625273
0.0074507
0.00858642
0.00965991
0.0106729
0.0116268
0.0125231
0.000120572
0.001033
0.00233767
0.00368126
0.00499246
0.00625065
0.00744953
0.00858737
0.00966341
0.010679
0.0116364
0.0125367
0.000120806
0.0010325
0.00233712
0.00368027
0.00499143
0.00625067
0.00745046
0.00858999
0.0096687
0.0106871
0.0116478
0.0125516
0.000121141
0.00103356
0.00233762
0.00368123
0.00499255
0.00625231
0.00745361
0.00859502
0.00967617
0.0106979
0.0116623
0.0125711
0.000121442
0.00103541
0.00233934
0.00368361
0.00499575
0.00625638
0.00745913
0.00860239
0.00968607
0.0107109
0.0116783
0.0125897
0.000121753
0.00103666
0.00234266
0.00368725
0.00500062
0.00626228
0.00746707
0.00861251
0.00969885
0.0107268
0.0116976
0.0126126
0.000122175
0.00103953
0.00234633
0.00369224
0.00500686
0.00627054
0.0074773
0.00862511
0.00971427
0.0107456
0.0117205
0.0126406
0.000122475
0.00104258
0.00235084
0.00369889
0.00501497
0.00628069
0.00748946
0.00863982
0.00973179
0.0107665
0.0117452
0.012669
0.000122788
0.00104525
0.00235663
0.00370695
0.00502523
0.00629268
0.00750377
0.00865648
0.00975132
0.0107894
0.0117723
0.012702
0.0001232
0.00104908
0.00236368
0.00371656
0.00503729
0.00630692
0.00752006
0.00867487
0.00977223
0.0108131
0.0117995
0.0127337
0.000123638
0.00105282
0.00237128
0.0037271
0.00505092
0.00632334
0.00753861
0.00869554
0.00979489
0.0108375
0.0118257
0.012761
0.0001241
0.00105775
0.00238061
0.00373966
0.00506618
0.00634156
0.00755909
0.00871826
0.00981938
0.0108637
0.0118532
0.012789
0.000124586
0.00106221
0.00239017
0.00375339
0.00508336
0.0063616
0.00758208
0.00874333
0.00984627
0.0108925
0.0118836
0.0128208
0.0001251
0.00106769
0.00240015
0.00376802
0.00510216
0.00638381
0.00760696
0.00877087
0.00987618
0.0109243
0.0119168
0.0128541
0.000125632
0.0010732
0.00241134
0.00378428
0.00512245
0.00640739
0.00763373
0.00880054
0.00990862
0.0109597
0.0119558
0.0128992
0.000126206
0.00107947
0.00242328
0.00380172
0.00514463
0.00643326
0.00766258
0.00883213
0.00994275
0.010996
0.0119941
0.0129389
0.000126718
0.00108518
0.00243625
0.00382075
0.00516841
0.00646051
0.00769309
0.00886508
0.00997773
0.0110329
0.0120336
0.0129828
0.000127202
0.00109213
0.00245004
0.0038407
0.00519304
0.00648959
0.00772506
0.00889903
0.0100134
0.0110698
0.0120715
0.0130204
0.000127863
0.00109889
0.00246485
0.00386184
0.0052197
0.00651986
0.00775789
0.00893425
0.0100498
0.0111072
0.0121101
0.0130611
0.000128517
0.00110669
0.0024803
0.00388418
0.00524713
0.00655116
0.00779232
0.00897021
0.0100867
0.0111448
0.0121472
0.0130964
0.000129045
0.00111411
0.00249636
0.00390746
0.0052761
0.00658392
0.00782707
0.00900648
0.0101241
0.0111827
0.0121855
0.0131357
0.000129574
0.0011228
0.00251382
0.0039323
0.00530618
0.00661729
0.0078626
0.00904329
0.0101613
0.0112201
0.012223
0.0131725
0.00013016
0.00113115
0.00253206
0.00395769
0.00533647
0.00665074
0.00789782
0.00907909
0.0101975
0.0112568
0.0122604
0.0132113
0.000130801
0.00114055
0.00255064
0.00398355
0.00536674
0.00668355
0.00793159
0.00911336
0.0102317
0.0112908
0.0122954
0.0132492
0.000131228
0.00114941
0.00256941
0.00400938
0.00539669
0.00671532
0.00796366
0.00914442
0.0102617
0.01132
0.0123236
0.0132759
0.000131673
0.00115959
0.00258916
0.00403533
0.00542526
0.00674441
0.00799189
0.00917136
0.0102873
0.011344
0.0123465
0.0132986
0.000132198
0.00116964
0.00260877
0.0040601
0.00545196
0.00677024
0.00801584
0.00919285
0.0103061
0.011361
0.0123619
0.0133126
0.000132618
0.00117932
0.00262745
0.00408307
0.00547521
0.00679111
0.00803327
0.0092068
0.0103174
0.0113704
0.0123705
0.0133217
0.000132929
0.00118924
0.00264501
0.00410298
0.00549283
0.00680511
0.00804257
0.00921177
0.0103187
0.0113692
0.0123678
0.0133188
0.000133252
0.00119886
0.00266146
0.00411847
0.00550382
0.00680955
0.00804075
0.00920488
0.0103079
0.0113558
0.0123533
0.0133042
0.000133406
0.00120837
0.00267374
0.00412648
0.00550394
0.00680072
0.00802469
0.00918343
0.0102826
0.0113285
0.0123253
0.0132757
0.000133332
0.00121593
0.00268077
0.00412425
0.00548917
0.00677511
0.00799086
0.0091438
0.0102401
0.0112852
0.0122834
0.0132368
0.000133123
0.00122157
0.00267931
0.00410605
0.00545424
0.00672731
0.00793377
0.00908182
0.0101767
0.0112231
0.0122243
0.0131817
0.000132469
0.00122299
0.00266306
0.00406438
0.00539155
0.00665009
0.00784822
0.00899304
0.0100889
0.0111388
0.0121452
0.0131096
0.000131198
0.00121536
0.00262117
0.00398784
0.00529091
0.00653602
0.00772882
0.00887354
0.009973
0.0110285
0.0120424
0.0130163
0.000129104
0.00118898
0.00253773
0.00386204
0.00514172
0.00637748
0.00756993
0.00871945
0.00982603
0.0108902
0.0119135
0.0128968
0.000125897
0.00112442
0.00238956
0.00367036
0.00493405
0.0061684
0.0073674
0.00852709
0.00964583
0.0107225
0.0117572
0.0127483
0.000121049
0.000984796
0.00214536
0.00339755
0.0046609
0.00590529
0.00711862
0.00829544
0.00943125
0.0105258
0.0115792
0.0125871
0.00020718
0.00113485
0.00222192
0.00340952
0.00458343
0.00579595
0.00706919
0.00837607
0.00971708
0.0110981
0.0125094
0.0139165
0.000215006
0.00135199
0.00253645
0.00373303
0.00492483
0.00614119
0.00739644
0.00868401
0.0100033
0.0113537
0.0127272
0.0141115
0.000222125
0.00151879
0.00279663
0.00401705
0.00522259
0.00644062
0.00768437
0.00895528
0.0102532
0.0115758
0.0129165
0.0142667
0.00022819
0.0016436
0.00301435
0.0042673
0.00548543
0.00670399
0.0079385
0.00919404
0.0104712
0.011767
0.0130755
0.0143879
0.000233163
0.00173329
0.00319402
0.00448587
0.00571802
0.00693723
0.00816344
0.00940413
0.0106607
0.0119304
0.0132064
0.0144769
0.000237202
0.00179575
0.00333929
0.00467419
0.00592285
0.00714386
0.00836249
0.0095889
0.0108257
0.0120711
0.0133208
0.014572
0.000240471
0.00183806
0.00345449
0.00483409
0.00610187
0.00732626
0.00853823
0.00975079
0.0109677
0.0121872
0.0134038
0.0146068
0.000243039
0.00186553
0.00354418
0.00496796
0.00625682
0.00748624
0.00869249
0.00989148
0.0110883
0.0122814
0.0134645
0.0146256
0.000245039
0.00188227
0.00361248
0.00507822
0.00638919
0.00762505
0.00882659
0.0100124
0.0111893
0.0123561
0.0135071
0.0146329
0.000246554
0.00189091
0.00366294
0.00516725
0.00650057
0.0077439
0.00894158
0.0101149
0.0112719
0.0124122
0.0135293
0.0146103
0.00024763
0.00189363
0.00369865
0.0052375
0.0065925
0.00784401
0.00903872
0.0102002
0.0113382
0.0124532
0.01354
0.0145888
0.000248356
0.00189169
0.00372206
0.00529118
0.00666667
0.00792652
0.00911906
0.0102697
0.0113897
0.0124808
0.0135385
0.0145532
0.000248758
0.00188628
0.00373548
0.00533036
0.00672467
0.00799287
0.00918384
0.0103247
0.0114281
0.0124974
0.0135294
0.0145173
0.000248896
0.00187826
0.00374055
0.00535701
0.00676814
0.00804437
0.00923438
0.0103665
0.0114549
0.0125043
0.0135136
0.0144787
0.000248821
0.00186805
0.00373867
0.00537273
0.00679872
0.00808243
0.00927182
0.0103961
0.0114705
0.0125012
0.0134882
0.0144275
0.00024856
0.00185621
0.00373125
0.00537917
0.00681787
0.0081082
0.00929716
0.0104142
0.0114757
0.0124887
0.0134535
0.0143655
0.000248116
0.00184321
0.00371921
0.00537766
0.00682681
0.00812298
0.00931149
0.010422
0.0114715
0.0124681
0.0134133
0.0143052
0.00024754
0.00182909
0.00370326
0.00536926
0.00682694
0.00812795
0.00931588
0.0104203
0.0114588
0.01244
0.0133663
0.0142352
0.000246856
0.00181419
0.00368411
0.00535502
0.0068192
0.00812407
0.00931136
0.0104101
0.0114385
0.012406
0.0133161
0.0141678
0.000246054
0.0017988
0.00366242
0.00533577
0.00680472
0.00811245
0.00929885
0.0103925
0.0114119
0.0123674
0.0132636
0.0141016
0.000245154
0.00178283
0.00363863
0.00531237
0.00678442
0.00809407
0.00927928
0.0103682
0.0113795
0.0123243
0.0132088
0.0140365
0.0002442
0.00176654
0.00361301
0.00528545
0.00675908
0.00806972
0.0092535
0.0103379
0.0113416
0.012276
0.0131472
0.0139568
0.000243192
0.00175012
0.00358614
0.00525563
0.00672946
0.00804013
0.0092221
0.0103021
0.0112985
0.0122232
0.0130829
0.0138808
0.000242106
0.00173344
0.00355809
0.00522326
0.00669612
0.00800606
0.00918585
0.0102614
0.0112509
0.0121662
0.0130138
0.0137954
0.000240975
0.00171677
0.0035292
0.00518887
0.00665956
0.00796808
0.0091453
0.0102164
0.0111994
0.0121064
0.0129445
0.0137174
0.0002398
0.00169997
0.00349963
0.00515277
0.00662035
0.00792664
0.009101
0.0101677
0.0111446
0.0120441
0.0128742
0.0136406
0.000238618
0.00168329
0.00346964
0.00511541
0.00657897
0.00788236
0.00905346
0.0101158
0.0110867
0.0119785
0.0127983
0.0135494
0.000237393
0.00166665
0.00343929
0.0050769
0.00653572
0.0078357
0.00900326
0.0100611
0.0110262
0.0119102
0.0127211
0.0134635
0.000236132
0.0016501
0.00340875
0.00503761
0.00649101
0.007787
0.00895087
0.0100039
0.0109627
0.0118391
0.0126404
0.01337
0.000234838
0.00163369
0.00337814
0.00499768
0.00644521
0.0077369
0.00889632
0.00994432
0.0108971
0.0117664
0.0125602
0.0132836
0.000233541
0.00161743
0.00334758
0.0049577
0.0063987
0.00768519
0.00883985
0.0098827
0.0108297
0.0116925
0.0124788
0.0131932
0.000232244
0.0016014
0.00331741
0.00491732
0.00635113
0.00763212
0.00878174
0.00981952
0.0107611
0.0116182
0.0123993
0.0131106
0.000230944
0.00158544
0.00328694
0.00487643
0.00630278
0.00757795
0.00872239
0.00975511
0.0106915
0.0115434
0.0123198
0.0130287
0.000229664
0.00156936
0.00325631
0.00483518
0.00625378
0.00752282
0.00866192
0.00968958
0.0106208
0.011467
0.0122366
0.0129346
0.000228352
0.00155322
0.00322559
0.00479371
0.00620436
0.00746699
0.00860064
0.00962317
0.0105492
0.01139
0.012154
0.0128474
0.000227027
0.00153728
0.00319509
0.00475225
0.0061545
0.00741057
0.00853869
0.00955605
0.010477
0.0113127
0.0120712
0.0127572
0.000225726
0.00152161
0.00316467
0.00471063
0.00610446
0.00735387
0.00847633
0.00948861
0.0104049
0.0112365
0.011992
0.0126789
0.000224433
0.00150602
0.00313452
0.00466918
0.00605437
0.00729691
0.00841366
0.00942101
0.0103329
0.0111606
0.0119137
0.0126015
0.000223138
0.00149066
0.0031044
0.00462784
0.00600427
0.00723991
0.00835092
0.00935317
0.0102603
0.0110833
0.0118304
0.0125069
0.00022183
0.0014753
0.00307475
0.00458669
0.0059543
0.00718294
0.00828808
0.00928521
0.0101875
0.0110054
0.0117467
0.0124158
0.000220526
0.00146029
0.0030452
0.00454587
0.00590454
0.00712609
0.00822534
0.0092174
0.010115
0.0109286
0.0116659
0.0123323
0.00021923
0.00144555
0.00301624
0.00450536
0.00585508
0.00706951
0.00816297
0.0091501
0.0100436
0.0108539
0.0115894
0.0122564
0.000217949
0.00143107
0.0029875
0.00446521
0.00580606
0.00701336
0.00810104
0.00908354
0.00997354
0.0107818
0.0115179
0.0121919
0.000216655
0.00141656
0.00295896
0.00442546
0.00575747
0.0069577
0.00803976
0.00901782
0.00990436
0.0107101
0.0114441
0.012113
0.000215351
0.00140232
0.00293094
0.00438634
0.0057094
0.00690265
0.00797921
0.00895282
0.00983593
0.0106391
0.011371
0.0120393
0.000214055
0.00138841
0.0029034
0.00434757
0.0056619
0.00684828
0.00791928
0.00888849
0.00976807
0.0105681
0.0112967
0.0119596
0.000212783
0.00137484
0.00287635
0.00430945
0.00561509
0.00679451
0.00786003
0.00882489
0.00970093
0.0104982
0.0112246
0.0118871
0.000211521
0.00136148
0.00284962
0.00427192
0.00556888
0.00674146
0.00780152
0.00876205
0.00963474
0.0104294
0.011154
0.0118149
0.000210254
0.00134827
0.00282338
0.004235
0.00552338
0.00668912
0.00774379
0.00870015
0.00956967
0.0103622
0.0110863
0.0117503
0.000208978
0.00133513
0.00279758
0.0041986
0.0054785
0.00663748
0.00768684
0.00863905
0.00950538
0.0102955
0.0110175
0.0116777
0.000207714
0.00132247
0.00277224
0.00416273
0.0054343
0.00658658
0.00763069
0.00857872
0.00944178
0.0102295
0.0109499
0.0116106
0.00020647
0.00131003
0.00274738
0.0041276
0.00539079
0.0065365
0.0075753
0.00851908
0.00937867
0.0101634
0.0108807
0.0115362
0.000205246
0.00129799
0.00272301
0.00409302
0.00534802
0.00648715
0.00752059
0.00846003
0.00931608
0.0100977
0.0108123
0.0114657
0.000204018
0.00128588
0.00269906
0.00405913
0.00530597
0.00643847
0.00746656
0.00840166
0.00925408
0.0100326
0.0107446
0.0113956
0.000202791
0.00127415
0.00267554
0.0040257
0.0052645
0.00639049
0.00741327
0.00834398
0.00919278
0.00996833
0.0106779
0.0113278
0.000201585
0.00126261
0.00265244
0.00399286
0.00522372
0.00634321
0.00736067
0.00828704
0.00913222
0.00990457
0.0106109
0.0112561
0.000200387
0.00125135
0.00262972
0.00396057
0.0051836
0.00629667
0.0073089
0.00823103
0.00907277
0.00984251
0.0105472
0.0111927
0.000199205
0.00124024
0.00260758
0.00392897
0.00514417
0.00625088
0.00725804
0.00817614
0.0090149
0.00978281
0.0104873
0.0111348
0.000198042
0.00122945
0.00258576
0.00389782
0.00510544
0.00620599
0.00720819
0.00812251
0.00895872
0.00972562
0.0104312
0.0110838
0.000196878
0.00121868
0.00256429
0.00386732
0.00506744
0.00616192
0.00715937
0.00807018
0.00890407
0.00966976
0.010375
0.0110261
0.000195716
0.00120816
0.00254326
0.00383738
0.00503021
0.00611877
0.00711166
0.00801906
0.00885071
0.00961529
0.0103205
0.0109737
0.000194557
0.00119775
0.00252267
0.00380799
0.00499363
0.00607651
0.00706495
0.00796906
0.00879848
0.00956158
0.0102656
0.010916
0.000193429
0.00118784
0.00250242
0.00377919
0.00495782
0.00603519
0.00701926
0.00792018
0.00874737
0.00950917
0.0102128
0.0108645
0.000192313
0.00117784
0.0024825
0.00375092
0.00492278
0.00599466
0.00697456
0.00787235
0.00869737
0.00945789
0.0101611
0.0108135
0.000191199
0.00116814
0.00246316
0.0037233
0.00488841
0.00595496
0.0069308
0.00782551
0.0086484
0.00940754
0.0101099
0.0107608
0.0001901
0.00115858
0.00244404
0.00369616
0.00485481
0.00591617
0.00688796
0.0077797
0.00860052
0.0093584
0.0100604
0.0107129
0.000189004
0.0011492
0.0024253
0.0036696
0.00482187
0.00587818
0.00684604
0.00773489
0.00855365
0.00931017
0.0100111
0.0106615
0.000187917
0.00113995
0.00240698
0.00364364
0.00478968
0.00584104
0.00680505
0.00769111
0.00850797
0.00926354
0.0099648
0.0106184
0.000186845
0.00113091
0.00238904
0.0036182
0.00475815
0.0058047
0.00676505
0.0076484
0.00846346
0.00921806
0.00991894
0.0105715
0.000185776
0.00112213
0.00237144
0.00359322
0.00472728
0.00576915
0.00672593
0.00760667
0.00842009
0.00917398
0.00987545
0.0105314
0.000184718
0.00111331
0.00235415
0.00356887
0.00469712
0.0057344
0.00668768
0.0075659
0.00837761
0.00913048
0.00983121
0.010485
0.000183673
0.00110497
0.0023373
0.00354496
0.00466755
0.00570043
0.0066503
0.00752601
0.00833598
0.00908783
0.00978816
0.0104429
0.000182654
0.00109658
0.00232085
0.00352164
0.00463873
0.00566722
0.00661369
0.00748687
0.00829507
0.00904567
0.00974513
0.0103989
0.000181623
0.00108837
0.00230467
0.00349876
0.00461042
0.00563466
0.00657787
0.00744851
0.00825482
0.00900398
0.00970207
0.0103535
0.000180605
0.00108041
0.0022889
0.00347636
0.00458276
0.00560278
0.00654269
0.00741089
0.00821536
0.00896335
0.00966114
0.0103147
0.000179618
0.00107269
0.00227335
0.00345439
0.00455565
0.00557152
0.00650824
0.00737392
0.00817655
0.00892323
0.0096199
0.0102712
0.00017863
0.00106491
0.00225805
0.0034329
0.00452905
0.00554094
0.00647441
0.00733758
0.00813842
0.00888389
0.00958023
0.0102335
0.000177656
0.00105738
0.00224311
0.00341176
0.00450295
0.00551082
0.00644112
0.00730186
0.00810074
0.0088446
0.00953918
0.0101887
0.000176686
0.00105003
0.00222842
0.00339102
0.00447732
0.00548125
0.00640841
0.00726661
0.00806346
0.00880572
0.00949915
0.0101488
0.000175722
0.00104264
0.00221404
0.0033707
0.00445213
0.00545213
0.0063761
0.00723175
0.00802652
0.00876706
0.0094592
0.0101085
0.000174771
0.00103541
0.00219987
0.00335066
0.00442735
0.00542343
0.00634425
0.00719731
0.00798979
0.00872808
0.00941721
0.0100603
0.000173819
0.00102832
0.00218595
0.00333099
0.00440298
0.00539522
0.00631296
0.00716339
0.00795371
0.00869018
0.00937791
0.0100207
0.000172887
0.00102145
0.00217229
0.00331161
0.00437886
0.00536743
0.0062821
0.00713014
0.00791878
0.00865437
0.00934293
0.00999048
0.000171931
0.00101448
0.0021588
0.00329258
0.00435536
0.00534022
0.00625186
0.00709766
0.00788483
0.00862004
0.0093095
0.00995951
0.000171023
0.00100787
0.00214556
0.00327386
0.00433211
0.00531333
0.00622223
0.00706596
0.00785173
0.00858627
0.00927593
0.00992676
0.000170143
0.00100159
0.00213221
0.00325515
0.00430923
0.00528698
0.00619308
0.00703471
0.00781895
0.00855235
0.0092403
0.00988664
0.000169262
0.000994947
0.00211953
0.00323723
0.00428689
0.00526113
0.00616443
0.00700395
0.00778659
0.00851874
0.00920589
0.00985238
0.000168333
0.000988248
0.00210684
0.00321939
0.00426469
0.00523549
0.00613631
0.0069738
0.0077549
0.00848597
0.00917262
0.00981917
0.00016745
0.000981953
0.00209442
0.00320161
0.00424283
0.00521042
0.00610859
0.00694407
0.0077238
0.00845416
0.00914097
0.00978979
0.000166531
0.000975593
0.00208213
0.00318429
0.00422142
0.00518568
0.00608118
0.00691475
0.00769303
0.00842241
0.00910831
0.00975516
0.000165666
0.000969521
0.00207001
0.003167