/*--------------------------------*- C++ -*----------------------------------*\
| =========                 |                                                 |
| \\      /  F ield         | OpenFOAM: The Open Source CFD Toolbox           |
|  \\    /   O peration     | Version:  2.3.1                                 |
|   \\  /    A nd           | Web:      www.OpenFOAM.org                      |
|    \\/     M anipulation  |                                                 |
\*---------------------------------------------------------------------------*/
FoamFile
{
    version     2.0;
    format      ascii;
    class       surfaceScalarField;
    location    "0.41";
    object      phi;
}
// * * * * * * * * * * * * * * * * * * * * * * * * * * * * * * * * * * * * * //

dimensions      [0 3 -1 0 0 0 0];

internalField   nonuniform List<scalar> 
124830
(
5.85989e-06
-3.7404e-05
3.15441e-05
8.9591e-06
-3.86268e-05
3.55276e-05
1.08509e-05
-3.77479e-05
3.58562e-05
1.24279e-05
-3.60366e-05
3.44596e-05
1.38617e-05
-3.36767e-05
3.22429e-05
1.53076e-05
-3.07474e-05
2.93014e-05
1.67714e-05
-2.72353e-05
2.57715e-05
1.82856e-05
-2.31207e-05
2.16066e-05
1.98995e-05
-1.80975e-05
1.64836e-05
2.16558e-05
-1.20881e-05
1.03317e-05
2.42902e-05
-4.79257e-06
2.15819e-06
4.30218e-06
2.7893e-05
-7.90496e-06
4.14688e-06
-4.15509e-05
6.97281e-06
-4.14527e-05
9.17833e-06
-3.99534e-05
1.10423e-05
-3.79006e-05
1.27369e-05
-3.53713e-05
1.43545e-05
-3.23649e-05
1.59528e-05
-2.88337e-05
1.75372e-05
-2.47051e-05
1.92847e-05
-1.9845e-05
2.12902e-05
-1.40936e-05
2.37489e-05
-7.25123e-06
9.85965e-07
2.70651e-05
3.02396e-06
-4.45748e-05
5.5995e-06
-4.40283e-05
7.81471e-06
-4.21686e-05
9.79732e-06
-3.98833e-05
1.16388e-05
-3.72128e-05
1.34021e-05
-3.41282e-05
1.51445e-05
-3.05761e-05
1.68889e-05
-2.64494e-05
1.87874e-05
-2.17436e-05
2.09204e-05
-1.62266e-05
2.34483e-05
-9.77914e-06
-2.22487e-06
2.66591e-05
2.49196e-06
-4.70668e-05
4.78565e-06
-4.6322e-05
6.88623e-06
-4.42692e-05
8.8006e-06
-4.17976e-05
1.06672e-05
-3.90794e-05
1.24813e-05
-3.59423e-05
1.4282e-05
-3.23768e-05
1.61097e-05
-2.82771e-05
1.80227e-05
-2.36566e-05
2.00861e-05
-1.82901e-05
2.23445e-05
-1.20375e-05
-4.8001e-06
2.49197e-05
2.11941e-06
-4.91862e-05
4.18267e-06
-4.83852e-05
6.13975e-06
-4.62263e-05
8.01568e-06
-4.36736e-05
9.83987e-06
-4.09036e-05
1.15925e-05
-3.76949e-05
1.33929e-05
-3.41772e-05
1.52271e-05
-3.01114e-05
1.714e-05
-2.55695e-05
1.91549e-05
-2.0305e-05
2.14116e-05
-1.42942e-05
-7.32553e-06
2.39371e-05
1.89912e-06
-5.10853e-05
3.71467e-06
-5.02008e-05
5.52111e-06
-4.80327e-05
7.2833e-06
-4.54358e-05
8.96965e-06
-4.259e-05
1.07449e-05
-3.94702e-05
1.24439e-05
-3.58761e-05
1.42221e-05
-3.18896e-05
1.60614e-05
-2.74088e-05
1.80008e-05
-2.22444e-05
2.00565e-05
-1.63499e-05
-9.57866e-06
2.23096e-05
1.68502e-06
-5.27703e-05
3.36908e-06
-5.18848e-05
4.97438e-06
-4.9638e-05
6.60123e-06
-4.70626e-05
8.28031e-06
-4.42691e-05
9.85457e-06
-4.10444e-05
1.14954e-05
-3.7517e-05
1.31687e-05
-3.35628e-05
1.48723e-05
-2.91125e-05
1.66849e-05
-2.4057e-05
1.86148e-05
-1.82798e-05
-1.16108e-05
2.06469e-05
1.50118e-06
-5.42715e-05
3.01777e-06
-5.34014e-05
4.52711e-06
-5.11474e-05
6.03351e-06
-4.8569e-05
7.47832e-06
-4.57139e-05
8.98413e-06
-4.25503e-05
1.05097e-05
-3.90426e-05
1.2069e-05
-3.51221e-05
1.36412e-05
-3.06848e-05
1.53424e-05
-2.57582e-05
1.71609e-05
-2.00983e-05
-1.36184e-05
1.91686e-05
1.39008e-06
-5.56616e-05
2.76392e-06
-5.47753e-05
4.07412e-06
-5.24576e-05
5.44606e-06
-4.9941e-05
6.82214e-06
-4.709e-05
8.16006e-06
-4.38882e-05
9.56801e-06
-4.04505e-05
1.09664e-05
-3.65205e-05
1.24994e-05
-3.22178e-05
1.40667e-05
-2.73254e-05
1.57335e-05
-2.17652e-05
-1.55209e-05
1.76359e-05
1.20816e-06
-5.68698e-05
2.41796e-06
-5.59851e-05
3.72971e-06
-5.37693e-05
4.92098e-06
-5.11322e-05
6.12384e-06
-4.82928e-05
7.44831e-06
-4.52127e-05
8.68691e-06
-4.16891e-05
1.00019e-05
-3.78355e-05
1.13572e-05
-3.35731e-05
1.27328e-05
-2.8701e-05
1.4209e-05
-2.32413e-05
-1.70077e-05
1.56958e-05
1.08571e-06
-5.79555e-05
2.21474e-06
-5.71141e-05
3.29004e-06
-5.48447e-05
4.43868e-06
-5.22809e-05
5.59833e-06
-4.94525e-05
6.77237e-06
-4.63867e-05
7.96118e-06
-4.28779e-05
9.17285e-06
-3.90472e-05
1.03728e-05
-3.4773e-05
1.16602e-05
-2.99885e-05
1.30186e-05
-2.45997e-05
-1.84905e-05
1.45015e-05
1.01379e-06
-5.89693e-05
2.0333e-06
-5.81336e-05
3.02033e-06
-5.58317e-05
4.08034e-06
-5.33409e-05
5.16005e-06
-5.05322e-05
6.21473e-06
-4.74414e-05
7.30004e-06
-4.39633e-05
8.48084e-06
-4.0228e-05
9.72713e-06
-3.60193e-05
1.10757e-05
-3.13371e-05
1.25767e-05
-2.61007e-05
-2.03531e-05
1.44393e-05
8.90136e-07
-5.98594e-05
1.75531e-06
-5.89988e-05
2.77831e-06
-5.68547e-05
3.69446e-06
-5.4257e-05
4.65096e-06
-5.14887e-05
5.69237e-06
-4.84828e-05
6.78584e-06
-4.50567e-05
7.93026e-06
-4.13724e-05
9.09942e-06
-3.71885e-05
1.03591e-05
-3.25968e-05
1.17878e-05
-2.75294e-05
-2.18944e-05
1.33291e-05
7.61704e-07
-6.06211e-05
1.60952e-06
-5.98466e-05
2.41531e-06
-5.76605e-05
3.32716e-06
-5.51689e-05
4.25944e-06
-5.2421e-05
5.19259e-06
-4.94159e-05
6.22889e-06
-4.6093e-05
7.29175e-06
-4.24353e-05
8.48512e-06
-3.83818e-05
9.77753e-06
-3.38892e-05
1.1182e-05
-2.89339e-05
-2.33265e-05
1.26141e-05
6.48195e-07
-6.12693e-05
1.40427e-06
-6.06027e-05
2.19055e-06
-5.84468e-05
2.94527e-06
-5.59236e-05
3.81442e-06
-5.32901e-05
4.7165e-06
-5.0318e-05
5.68586e-06
-4.70624e-05
6.66569e-06
-4.34151e-05
7.77919e-06
-3.94953e-05
8.98567e-06
-3.50957e-05
1.02227e-05
-3.01709e-05
-2.47235e-05
1.16197e-05
6.15232e-07
-6.18846e-05
1.21744e-06
-6.12049e-05
1.90744e-06
-5.91368e-05
2.64413e-06
-5.66603e-05
3.36028e-06
-5.40063e-05
4.19624e-06
-5.1154e-05
5.02479e-06
-4.78909e-05
5.97606e-06
-4.43664e-05
7.00637e-06
-4.05257e-05
8.08777e-06
-3.61771e-05
9.33708e-06
-3.14202e-05
-2.61827e-05
1.07963e-05
5.12193e-07
-6.23967e-05
1.08814e-06
-6.17808e-05
1.64391e-06
-5.96925e-05
2.29983e-06
-5.73162e-05
2.9991e-06
-5.47056e-05
3.68723e-06
-5.18421e-05
4.4933e-06
-4.8697e-05
5.36392e-06
-4.5237e-05
6.21288e-06
-4.13746e-05
7.24995e-06
-3.72142e-05
8.38353e-06
-3.25538e-05
-2.73828e-05
9.5836e-06
4.71977e-07
-6.28687e-05
9.03775e-07
-6.22126e-05
1.44545e-06
-6.02342e-05
1.95905e-06
-5.78298e-05
2.5219e-06
-5.52684e-05
3.20902e-06
-5.25292e-05
3.88928e-06
-4.93773e-05
4.69754e-06
-4.60453e-05
5.58465e-06
-4.22617e-05
6.56776e-06
-3.81973e-05
7.62802e-06
-3.3614e-05
-2.86394e-05
8.88463e-06
3.08463e-07
-6.31772e-05
7.46554e-07
-6.26507e-05
1.14439e-06
-6.06321e-05
1.65584e-06
-5.83413e-05
2.21263e-06
-5.58252e-05
2.752e-06
-5.30686e-05
3.42635e-06
-5.00516e-05
4.10775e-06
-4.67267e-05
4.97485e-06
-4.31288e-05
5.83786e-06
-3.90603e-05
6.85789e-06
-3.46341e-05
-2.97338e-05
7.95229e-06
2.99611e-07
-6.34768e-05
6.52572e-07
-6.30037e-05
9.93064e-07
-6.09725e-05
1.43905e-06
-5.87873e-05
1.86388e-06
-5.625e-05
2.41444e-06
-5.36192e-05
3.01037e-06
-5.06476e-05
3.62647e-06
-4.73428e-05
4.33694e-06
-4.38393e-05
5.15147e-06
-3.98748e-05
6.14679e-06
-3.56294e-05
-3.09288e-05
7.34182e-06
2.10351e-07
-6.36872e-05
4.44265e-07
-6.32376e-05
7.92307e-07
-6.13206e-05
1.1812e-06
-5.91762e-05
1.62128e-06
-5.66901e-05
2.03291e-06
-5.40308e-05
2.51447e-06
-5.11291e-05
3.12831e-06
-4.79566e-05
3.75699e-06
-4.4468e-05
4.53499e-06
-4.06528e-05
5.3652e-06
-3.64596e-05
-3.18536e-05
6.28995e-06
2.07304e-07
-6.38945e-05
3.91676e-07
-6.3422e-05
6.8839e-07
-6.16173e-05
8.85356e-07
-5.93731e-05
1.26832e-06
-5.70731e-05
1.70657e-06
-5.44691e-05
2.13142e-06
-5.1554e-05
2.68121e-06
-4.85064e-05
3.30343e-06
-4.50902e-05
3.96248e-06
-4.13119e-05
4.77374e-06
-3.72709e-05
-3.275e-05
5.67015e-06
7.34863e-08
-6.3968e-05
2.92538e-07
-6.3641e-05
5.35701e-07
-6.18605e-05
8.35319e-07
-5.96728e-05
1.10206e-06
-5.73398e-05
1.4142e-06
-5.47812e-05
1.85948e-06
-5.19993e-05
2.30276e-06
-4.89497e-05
2.8237e-06
-4.56112e-05
3.48439e-06
-4.19726e-05
4.2072e-06
-3.79937e-05
-3.36986e-05
5.15578e-06
9.3911e-08
-6.40619e-05
2.65064e-07
-6.38122e-05
3.42387e-07
-6.19378e-05
5.98974e-07
-5.99293e-05
8.97872e-07
-5.76387e-05
1.17911e-06
-5.50625e-05
1.57967e-06
-5.23998e-05
1.98215e-06
-4.93522e-05
2.51765e-06
-4.61467e-05
3.07207e-06
-4.2527e-05
3.76897e-06
-3.86906e-05
-3.44405e-05
4.51086e-06
5.89686e-08
-6.41208e-05
1.2956e-07
-6.38828e-05
3.04388e-07
-6.21126e-05
5.28118e-07
-6.01531e-05
7.25715e-07
-5.78363e-05
1.04585e-06
-5.53826e-05
1.34839e-06
-5.27024e-05
1.77163e-06
-4.97754e-05
2.20036e-06
-4.65754e-05
2.76645e-06
-4.30931e-05
3.36428e-06
-3.92884e-05
-3.51366e-05
4.06041e-06
7.12279e-08
-6.41921e-05
1.2027e-07
-6.39318e-05
2.88972e-07
-6.22813e-05
3.46313e-07
-6.02104e-05
5.9085e-07
-5.80809e-05
8.16449e-07
-5.56082e-05
1.16211e-06
-5.3048e-05
1.50876e-06
-5.01221e-05
1.98935e-06
-4.7056e-05
2.48866e-06
-4.35924e-05
3.13926e-06
-3.99391e-05
-3.58736e-05
3.87625e-06
3.11992e-08
-6.42233e-05
6.17638e-08
-6.39624e-05
1.33072e-07
-6.23526e-05
3.14988e-07
-6.03923e-05
4.69433e-07
-5.82353e-05
7.4004e-07
-5.58788e-05
1.00077e-06
-5.33088e-05
1.38592e-06
-5.05072e-05
1.78432e-06
-4.74544e-05
2.26946e-06
-4.40775e-05
2.8397e-06
-4.05093e-05
-3.65477e-05
3.51381e-06
9.80965e-09
-6.42331e-05
9.27805e-08
-6.40454e-05
1.40111e-07
-6.24e-05
2.30843e-07
-6.04831e-05
4.35578e-07
-5.84401e-05
6.19675e-07
-5.60629e-05
8.59935e-07
-5.3549e-05
1.1693e-06
-5.08166e-05
1.60243e-06
-4.78875e-05
2.11271e-06
-4.45878e-05
2.66844e-06
-4.1065e-05
-3.72876e-05
3.40836e-06
-3.35163e-08
-6.41996e-05
-3.17696e-08
-6.40471e-05
8.92527e-08
-6.2521e-05
2.38918e-07
-6.06327e-05
2.89636e-07
-5.84908e-05
5.25908e-07
-5.62992e-05
8.12744e-07
-5.38359e-05
1.09747e-06
-5.11013e-05
1.45675e-06
-4.82468e-05
1.95521e-06
-4.50863e-05
2.50251e-06
-4.16123e-05
-3.79562e-05
3.17114e-06
-5.54739e-08
-6.41441e-05
1.43148e-08
-6.41169e-05
4.38286e-08
-6.25505e-05
1.10736e-07
-6.06997e-05
2.88634e-07
-5.86687e-05
4.48078e-07
-5.64586e-05
6.53562e-07
-5.40413e-05
9.73056e-07
-5.14208e-05
1.30531e-06
-4.85791e-05
1.70445e-06
-4.54854e-05
2.22738e-06
-4.21353e-05
-3.85011e-05
2.77225e-06
2.81282e-09
-6.41469e-05
-1.09024e-08
-6.41032e-05
7.95324e-08
-6.2641e-05
1.4479e-07
-6.07649e-05
2.42926e-07
-5.87668e-05
4.51938e-07
-5.66676e-05
6.43e-07
-5.42324e-05
8.91475e-07
-5.16693e-05
1.26286e-06
-4.89505e-05
1.65132e-06
-4.58739e-05
2.1346e-06
-4.26186e-05
-3.91511e-05
2.78455e-06
-2.83327e-08
-6.41186e-05
-3.56042e-08
-6.40959e-05
-1.21516e-08
-6.26644e-05
1.15324e-07
-6.08924e-05
2.07805e-07
-5.88593e-05
3.4212e-07
-5.6802e-05
5.87796e-07
-5.44781e-05
8.24386e-07
-5.19059e-05
1.11169e-06
-4.92378e-05
1.52527e-06
-4.62875e-05
1.94282e-06
-4.30361e-05
-3.96259e-05
2.41762e-06
-3.95529e-08
-6.40791e-05
2.22223e-08
-6.41577e-05
5.04512e-08
-6.26926e-05
1.05475e-07
-6.09474e-05
2.6559e-07
-5.90194e-05
3.93895e-07
-5.69303e-05
5.67883e-07
-5.46521e-05
8.54323e-07
-5.21924e-05
1.14076e-06
-4.95242e-05
1.48736e-06
-4.66341e-05
1.96824e-06
-4.3517e-05
-4.01495e-05
2.49188e-06
-5.07428e-08
-6.40283e-05
2.10022e-08
-6.42295e-05
4.72441e-08
-6.27189e-05
1.04492e-07
-6.10047e-05
2.00801e-07
-5.91157e-05
3.92482e-07
-5.7122e-05
5.66807e-07
-5.48264e-05
7.84599e-07
-5.24102e-05
1.05376e-06
-4.97934e-05
1.44784e-06
-4.70282e-05
1.85143e-06
-4.39206e-05
-4.0615e-05
2.31693e-06
1.74485e-08
-6.40458e-05
-5.07852e-08
-6.41612e-05
5.59373e-08
-6.28256e-05
1.19065e-07
-6.10678e-05
2.85025e-07
-5.92817e-05
4.15576e-07
-5.72525e-05
5.84833e-07
-5.49957e-05
8.601e-07
-5.26854e-05
1.1229e-06
-5.00562e-05
1.4336e-06
-4.73389e-05
1.80798e-06
-4.4295e-05
-4.11265e-05
2.31944e-06
4.37829e-09
-6.40501e-05
1.85948e-08
-6.41755e-05
6.2993e-08
-6.287e-05
2.1042e-07
-6.12152e-05
3.15742e-07
-5.9387e-05
4.61357e-07
-5.73981e-05
6.43609e-07
-5.51779e-05
8.73036e-07
-5.29149e-05
1.21275e-06
-5.03959e-05
1.5604e-06
-4.76865e-05
2.0356e-06
-4.47702e-05
-4.1603e-05
2.51211e-06
-4.39224e-09
-6.40458e-05
9.77721e-08
-6.42776e-05
1.53424e-07
-6.29257e-05
2.36616e-07
-6.12984e-05
3.52148e-07
-5.95026e-05
5.04056e-07
-5.755e-05
7.62874e-07
-5.54368e-05
1.0018e-06
-5.31538e-05
1.29652e-06
-5.06906e-05
1.64669e-06
-4.80367e-05
2.05666e-06
-4.51801e-05
-4.21063e-05
2.55996e-06
-5.51226e-09
-6.40402e-05
2.5515e-08
-6.43087e-05
1.6601e-07
-6.30662e-05
2.58253e-07
-6.13907e-05
3.82443e-07
-5.96267e-05
5.43288e-07
-5.77109e-05
7.45872e-07
-5.56393e-05
1.05961e-06
-5.34675e-05
1.36317e-06
-5.09942e-05
1.72883e-06
-4.84024e-05
2.16467e-06
-4.5616e-05
-4.26741e-05
2.73244e-06
5.58263e-08
-6.40961e-05
1.00873e-07
-6.43537e-05
9.82073e-08
-6.30635e-05
2.70825e-07
-6.15633e-05
4.00451e-07
-5.97564e-05
6.33717e-07
-5.79442e-05
8.36479e-07
-5.58421e-05
1.02107e-06
-5.36521e-05
1.38242e-06
-5.13555e-05
1.73857e-06
-4.87585e-05
2.21181e-06
-4.60892e-05
-4.31052e-05
2.64298e-06
-4.21786e-08
-6.40539e-05
9.25393e-08
-6.44884e-05
2.422e-07
-6.32132e-05
2.7292e-07
-6.1594e-05
4.78596e-07
-5.99621e-05
5.75971e-07
-5.80415e-05
8.47098e-07
-5.61132e-05
1.094e-06
-5.3899e-05
1.38698e-06
-5.16485e-05
1.79195e-06
-4.91635e-05
2.14508e-06
-4.64424e-05
-4.36408e-05
2.68062e-06
2.64364e-08
-6.40803e-05
7.9133e-08
-6.45411e-05
1.65409e-07
-6.32995e-05
3.48167e-07
-6.17768e-05
4.13267e-07
-6.00272e-05
6.50996e-07
-5.82793e-05
8.5411e-07
-5.63164e-05
1.15372e-06
-5.41986e-05
1.36811e-06
-5.18629e-05
1.68903e-06
-4.94844e-05
2.11159e-06
-4.68649e-05
-4.40395e-05
2.51025e-06
2.37914e-08
-6.41041e-05
7.67627e-08
-6.45941e-05
1.60182e-07
-6.33829e-05
2.75725e-07
-6.18923e-05
4.8974e-07
-6.02412e-05
6.63628e-07
-5.84532e-05
8.73285e-07
-5.6526e-05
1.12386e-06
-5.44492e-05
1.48119e-06
-5.22203e-05
1.76818e-06
-4.97714e-05
2.17843e-06
-4.72752e-05
-4.45783e-05
2.71731e-06
8.16824e-08
-6.41858e-05
1.42383e-07
-6.46548e-05
2.27828e-07
-6.34683e-05
3.38475e-07
-6.2003e-05
4.84091e-07
-6.03868e-05
6.62185e-07
-5.86313e-05
8.77387e-07
-5.67412e-05
1.13893e-06
-5.47108e-05
1.44826e-06
-5.25296e-05
1.87172e-06
-5.01949e-05
2.29511e-06
-4.76986e-05
-4.50332e-05
2.74994e-06
-9.46262e-10
-6.41849e-05
1.26027e-07
-6.47818e-05
2.05024e-07
-6.35473e-05
3.17266e-07
-6.21152e-05
4.56932e-07
-6.05265e-05
6.3319e-07
-5.88075e-05
8.45853e-07
-5.69539e-05
1.10006e-06
-5.4965e-05
1.40073e-06
-5.28303e-05
1.74891e-06
-5.05431e-05
2.19842e-06
-4.81481e-05
-4.5454e-05
2.61921e-06
3.60124e-08
-6.42209e-05
9.26885e-08
-6.48385e-05
1.73398e-07
-6.3628e-05
2.80209e-07
-6.2222e-05
4.15993e-07
-6.06622e-05
5.82547e-07
-5.89741e-05
7.84373e-07
-5.71557e-05
1.08819e-06
-5.52688e-05
1.36792e-06
-5.311e-05
1.69327e-06
-5.08684e-05
2.01158e-06
-4.84664e-05
-4.5892e-05
2.44959e-06
1.93968e-08
-6.42403e-05
6.51961e-08
-6.48843e-05
1.40465e-07
-6.37033e-05
2.41699e-07
-6.23233e-05
3.70973e-07
-6.07915e-05
5.9804e-07
-5.92011e-05
7.86148e-07
-5.73438e-05
9.4483e-07
-5.54275e-05
1.21011e-06
-5.33753e-05
1.58377e-06
-5.12421e-05
1.95419e-06
-4.88368e-05
-4.63356e-05
2.39781e-06
6.4309e-08
-6.43046e-05
3.46604e-08
-6.48546e-05
1.0626e-07
-6.37749e-05
2.76833e-07
-6.24938e-05
3.97702e-07
-6.09124e-05
4.76002e-07
-5.92794e-05
6.53626e-07
-5.75215e-05
9.27338e-07
-5.57012e-05
1.16371e-06
-5.36116e-05
1.36876e-06
-5.14471e-05
1.71997e-06
-4.9188e-05
-4.66516e-05
2.03597e-06
-4.44306e-08
-6.42602e-05
-1.16771e-09
-6.48979e-05
1.49e-07
-6.39251e-05
1.68658e-07
-6.25135e-05
2.88845e-07
-6.10326e-05
5.08077e-07
-5.94987e-05
6.87268e-07
-5.77006e-05
8.36145e-07
-5.58501e-05
1.15644e-06
-5.3932e-05
1.45673e-06
-5.17474e-05
1.75466e-06
-4.9486e-05
-4.71388e-05
2.24184e-06
2.20801e-08
-6.42823e-05
6.05308e-08
-6.49363e-05
1.20338e-07
-6.39849e-05
2.07519e-07
-6.26007e-05
3.21036e-07
-6.11461e-05
4.63564e-07
-5.96412e-05
6.37941e-07
-5.7875e-05
8.48343e-07
-5.60605e-05
1.10074e-06
-5.41844e-05
1.40058e-06
-5.20473e-05
1.74945e-06
-4.98348e-05
-4.75238e-05
2.13444e-06
1.43923e-08
-6.42967e-05
3.83086e-08
-6.49603e-05
1.5683e-08
-6.39623e-05
1.70174e-07
-6.27552e-05
2.75842e-07
-6.12518e-05
3.38609e-07
-5.9704e-05
5.72718e-07
-5.81091e-05
7.69464e-07
-5.62572e-05
9.38606e-07
-5.43535e-05
1.27538e-06
-5.23841e-05
1.59625e-06
-5.01557e-05
-4.78524e-05
1.92486e-06
-2.96135e-08
-6.42671e-05
-3.32582e-09
-6.49865e-05
5.2701e-08
-6.40183e-05
1.28908e-07
-6.28314e-05
2.28444e-07
-6.13513e-05
3.53923e-07
-5.98295e-05
5.07715e-07
-5.82629e-05
6.91241e-07
-5.64408e-05
9.07099e-07
-5.45694e-05
1.15781e-06
-5.26348e-05
1.44488e-06
-5.04428e-05
-4.81796e-05
1.77212e-06
-4.62767e-08
-6.42208e-05
5.6105e-08
-6.50889e-05
9.72033e-08
-6.40594e-05
9.11437e-08
-6.28253e-05
1.84778e-07
-6.1445e-05
3.03666e-07
-5.99484e-05
4.48639e-07
-5.84079e-05
6.23808e-07
-5.66159e-05
8.29732e-07
-5.47753e-05
1.00532e-06
-5.28104e-05
1.3369e-06
-5.07744e-05
-4.84782e-05
1.6355e-06
7.17384e-09
-6.4228e-05
-5.04681e-08
-6.50313e-05
-8.49124e-09
-6.41014e-05
5.4997e-08
-6.28888e-05
2.14848e-07
-6.16048e-05
3.27154e-07
-6.00607e-05
3.9866e-07
-5.84794e-05
5.69351e-07
-5.67866e-05
7.72103e-07
-5.49781e-05
1.00765e-06
-5.30459e-05
1.28338e-06
-5.10501e-05
-4.87948e-05
1.59994e-06
-1.1111e-08
-6.42169e-05
-3.23214e-09
-6.50392e-05
3.50888e-08
-6.41397e-05
9.32054e-08
-6.2947e-05
1.03936e-07
-6.16155e-05
2.12842e-07
-6.01696e-05
3.49572e-07
-5.86162e-05
5.14832e-07
-5.69519e-05
7.1557e-07
-5.51788e-05
1.0188e-06
-5.33492e-05
1.23589e-06
-5.12672e-05
-4.91314e-05
1.57254e-06
-2.60008e-08
-6.41909e-05
-2.16339e-08
-6.50435e-05
7.42148e-09
-6.41688e-05
6.08372e-08
-6.30004e-05
1.36545e-07
-6.16913e-05
2.35341e-07
-6.02684e-05
3.63515e-07
-5.87443e-05
5.23369e-07
-5.71118e-05
7.11475e-07
-5.53669e-05
8.7356e-07
-5.35113e-05
1.13789e-06
-5.15315e-05
-4.94165e-05
1.4229e-06
-4.82263e-08
-6.41426e-05
-4.60419e-08
-6.50457e-05
-1.98121e-08
-6.4195e-05
-5.01744e-08
-6.297e-05
2.11579e-08
-6.17626e-05
1.16933e-07
-6.03642e-05
2.40068e-07
-5.88675e-05
3.9317e-07
-5.72649e-05
5.79398e-07
-5.55531e-05
8.03907e-07
-5.37358e-05
1.07065e-06
-5.17983e-05
-4.96909e-05
1.34513e-06
-7.38536e-08
-6.40688e-05
-7.03319e-08
-6.50493e-05
-5.17944e-08
-6.42135e-05
6.43285e-08
-6.30861e-05
5.29597e-08
-6.17512e-05
1.41963e-07
-6.04532e-05
2.5107e-07
-5.89766e-05
3.22504e-07
-5.73363e-05
4.93179e-07
-5.57238e-05
6.96895e-07
-5.39395e-05
9.33703e-07
-5.20351e-05
-4.99557e-05
1.19847e-06
3.54643e-09
-6.40723e-05
-1.37985e-08
-6.50319e-05
-7.73626e-08
-6.415e-05
-4.12038e-08
-6.31223e-05
1.58952e-08
-6.18083e-05
9.22299e-08
-6.05295e-05
1.28196e-07
-5.90126e-05
3.24121e-07
-5.75322e-05
4.85817e-07
-5.58855e-05
6.10086e-07
-5.40638e-05
8.43992e-07
-5.2269e-05
-5.02312e-05
1.11948e-06
-3.29527e-08
-6.40394e-05
-1.13707e-07
-6.49512e-05
-2.53728e-08
-6.42383e-05
-6.93919e-08
-6.30783e-05
-1.70164e-08
-6.18607e-05
5.55785e-08
-6.06021e-05
1.46883e-07
-5.91039e-05
2.68534e-07
-5.76539e-05
3.42932e-07
-5.59599e-05
5.16059e-07
-5.42369e-05
7.20408e-07
-5.24734e-05
-5.04647e-05
9.53872e-07
-6.32393e-08
-6.39762e-05
-6.67744e-08
-6.49476e-05
-1.28815e-07
-6.41763e-05
-1.7685e-08
-6.31894e-05
2.73915e-08
-6.19058e-05
2.24958e-08
-6.05972e-05
1.1427e-07
-5.91956e-05
1.51073e-07
-5.76907e-05
3.4912e-07
-5.6158e-05
5.0208e-07
-5.43899e-05
6.1664e-07
-5.25879e-05
-5.06663e-05
8.18299e-07
-7.23891e-08
-6.39038e-05
-7.21382e-08
-6.49479e-05
-6.13266e-08
-6.41871e-05
-1.1042e-07
-6.31403e-05
-6.11533e-08
-6.19551e-05
7.12318e-09
-6.06655e-05
9.20881e-08
-5.92806e-05
2.07056e-07
-5.78057e-05
2.76079e-07
-5.6227e-05
4.41227e-07
-5.4555e-05
6.38706e-07
-5.27854e-05
-5.09238e-05
8.96207e-07
-9.23057e-09
-6.38946e-05
-2.03975e-08
-6.49367e-05
-8.05291e-08
-6.4127e-05
-4.85059e-08
-6.31724e-05
2.31473e-10
-6.20038e-05
6.74718e-08
-6.07327e-05
8.43407e-08
-5.92975e-05
1.90568e-07
-5.79119e-05
3.23736e-07
-5.63602e-05
4.79722e-07
-5.4711e-05
5.92038e-07
-5.28977e-05
-5.11098e-05
7.78003e-07
-2.3651e-08
-6.38709e-05
-1.06671e-07
-6.48537e-05
-1.69709e-08
-6.42167e-05
-6.22912e-08
-6.31271e-05
-1.36659e-08
-6.20524e-05
-1.91271e-08
-6.07273e-05
1.38881e-07
-5.94555e-05
1.77886e-07
-5.79509e-05
3.10367e-07
-5.64927e-05
4.031e-07
-5.48037e-05
6.5096e-07
-5.31456e-05
-5.12477e-05
7.88907e-07
-3.94599e-08
-6.38315e-05
-4.64232e-08
-6.48468e-05
-1.05426e-07
-6.41577e-05
-7.12017e-08
-6.31613e-05
-2.20392e-08
-6.21016e-05
4.35317e-08
-6.07929e-05
5.60071e-08
-5.9468e-05
1.59004e-07
-5.80539e-05
2.82646e-07
-5.66163e-05
4.28931e-07
-5.495e-05
5.38899e-07
-5.32556e-05
-5.14627e-05
7.53846e-07
-7.66624e-08
-6.37548e-05
-5.90509e-08
-6.48644e-05
-3.56057e-08
-6.41811e-05
4.13738e-10
-6.31973e-05
-2.28272e-08
-6.20784e-05
4.37282e-08
-6.08594e-05
1.26691e-07
-5.95509e-05
2.22338e-07
-5.81496e-05
2.7596e-07
-5.66699e-05
4.1989e-07
-5.5094e-05
5.89325e-07
-5.3425e-05
-5.16014e-05
7.27999e-07
-8.02472e-08
-6.36746e-05
-6.23449e-08
-6.48823e-05
-4.12172e-08
-6.42023e-05
-7.59055e-08
-6.31626e-05
-2.12994e-08
-6.2133e-05
4.78571e-08
-6.09286e-05
6.17576e-08
-5.95649e-05
1.63943e-07
-5.82517e-05
2.84663e-07
-5.67907e-05
3.58647e-07
-5.5168e-05
5.16551e-07
-5.35829e-05
-5.18249e-05
7.40095e-07
-3.44977e-09
-6.36711e-05
-6.46124e-08
-6.48211e-05
-3.55632e-08
-6.42313e-05
9.14679e-09
-6.32073e-05
-6.65528e-09
-6.21172e-05
6.01115e-08
-6.09954e-05
1.48512e-07
-5.96533e-05
1.90614e-07
-5.82939e-05
3.10543e-07
-5.69106e-05
4.58383e-07
-5.53158e-05
5.68159e-07
-5.36927e-05
-5.20284e-05
7.71687e-07
-1.00859e-08
-6.3661e-05
1.88888e-09
-6.48331e-05
-2.74857e-08
-6.4202e-05
1.66972e-08
-6.32515e-05
8.01721e-08
-6.21807e-05
8.41117e-08
-6.09993e-05
1.76212e-07
-5.97454e-05
2.84433e-07
-5.84021e-05
3.43321e-07
-5.69695e-05
4.9291e-07
-5.54654e-05
6.62625e-07
-5.38624e-05
-5.21838e-05
8.17945e-07
-3.07281e-08
-6.36303e-05
3.3384e-09
-6.48672e-05
5.05621e-08
-6.42492e-05
3.39578e-08
-6.32349e-05
1.04555e-07
-6.22513e-05
1.14413e-07
-6.10092e-05
2.11595e-07
-5.98425e-05
3.16826e-07
-5.85073e-05
3.84353e-07
-5.7037e-05
5.26496e-07
-5.56075e-05
7.03662e-07
-5.40396e-05
-5.23139e-05
8.33787e-07
3.95248e-08
-6.36698e-05
9.56295e-09
-6.48372e-05
-1.84958e-08
-6.42211e-05
4.75509e-08
-6.3301e-05
1.25606e-07
-6.23293e-05
2.14925e-07
-6.10985e-05
2.39087e-07
-5.98667e-05
2.9375e-07
-5.8562e-05
4.87789e-07
-5.72311e-05
5.77821e-07
-5.56976e-05
6.75223e-07
-5.4137e-05
-5.24972e-05
8.58485e-07
-6.32886e-08
-6.36066e-05
-1.08513e-08
-6.48897e-05
6.67342e-08
-6.42987e-05
1.43605e-07
-6.33779e-05
1.4801e-07
-6.23337e-05
2.53074e-07
-6.12036e-05
2.90919e-07
-5.99046e-05
4.06723e-07
-5.86778e-05
4.76128e-07
-5.73005e-05
6.30044e-07
-5.58515e-05
8.00802e-07
-5.43077e-05
-5.2693e-05
9.96684e-07
2.5043e-08
-6.36316e-05
9.56884e-08
-6.49603e-05
7.867e-08
-6.42817e-05
1.61432e-07
-6.34606e-05
1.80892e-07
-6.23532e-05
2.05433e-07
-6.12281e-05
4.01899e-07
-6.0101e-05
4.61226e-07
-5.87371e-05
6.04766e-07
-5.7444e-05
6.8874e-07
-5.59355e-05
8.60684e-07
-5.44797e-05
-5.28188e-05
9.8648e-07
2.67646e-08
-6.36584e-05
-2.65192e-10
-6.49333e-05
8.55678e-08
-6.43675e-05
1.02789e-07
-6.34778e-05
2.05027e-07
-6.24554e-05
3.25601e-07
-6.13487e-05
3.68834e-07
-6.01443e-05
5.03512e-07
-5.88718e-05
5.82744e-07
-5.75232e-05
7.44451e-07
-5.60972e-05
8.5579e-07
-5.4591e-05
-5.29994e-05
1.03637e-06
7.42912e-08
-6.37327e-05
8.45347e-08
-6.49435e-05
1.76357e-07
-6.44594e-05
2.77865e-07
-6.35794e-05
3.13401e-07
-6.2491e-05
4.2378e-07
-6.14591e-05
4.80684e-07
-6.02012e-05
6.20221e-07
-5.90113e-05
7.03485e-07
-5.76065e-05
8.69843e-07
-5.62635e-05
9.88985e-07
-5.47102e-05
-5.32096e-05
1.19918e-06
5.79906e-08
-6.37907e-05
1.57393e-07
-6.50429e-05
1.84982e-07
-6.4487e-05
2.22438e-07
-6.36168e-05
3.43263e-07
-6.26118e-05
3.9873e-07
-6.15145e-05
5.3582e-07
-6.03383e-05
6.11886e-07
-5.90874e-05
7.68331e-07
-5.7763e-05
8.68743e-07
-5.6364e-05
1.038e-06
-5.48794e-05
-5.33322e-05
1.16055e-06
4.55288e-08
-6.38362e-05
8.13767e-08
-6.50788e-05
2.03691e-07
-6.46093e-05
2.44806e-07
-6.36579e-05
3.77613e-07
-6.27446e-05
4.44012e-07
-6.15809e-05
5.91576e-07
-6.04858e-05
7.47673e-07
-5.92435e-05
8.35706e-07
-5.7851e-05
1.01389e-06
-5.65421e-05
1.14986e-06
-5.50154e-05
-5.35455e-05
1.36314e-06
3.81496e-08
-6.38744e-05
1.64553e-07
-6.52052e-05
2.09347e-07
-6.46541e-05
3.57213e-07
-6.38058e-05
4.26387e-07
-6.28138e-05
5.665e-07
-6.17211e-05
6.52472e-07
-6.05718e-05
7.49052e-07
-5.93401e-05
9.25251e-07
-5.80272e-05
1.04515e-06
-5.66621e-05
1.30772e-06
-5.5278e-05
-5.36865e-05
1.44879e-06
3.87458e-08
-6.39131e-05
1.72315e-07
-6.53388e-05
2.38813e-07
-6.47206e-05
3.88614e-07
-6.39556e-05
4.58501e-07
-6.28837e-05
6.30165e-07
-6.18927e-05
7.98608e-07
-6.07403e-05
8.94837e-07
-5.94363e-05
1.09238e-06
-5.82248e-05
1.21432e-06
-5.6784e-05
1.36271e-06
-5.54264e-05
-5.38435e-05
1.51972e-06
1.16741e-07
-6.40299e-05
1.796e-07
-6.54016e-05
3.35859e-07
-6.48768e-05
4.2137e-07
-6.40411e-05
5.87159e-07
-6.30495e-05
6.85613e-07
-6.19912e-05
7.81761e-07
-6.08364e-05
9.79704e-07
-5.96343e-05
1.09756e-06
-5.83426e-05
1.31731e-06
-5.70038e-05
1.46393e-06
-5.5573e-05
-5.40881e-05
1.7085e-06
9.78771e-08
-6.41277e-05
1.86111e-07
-6.54899e-05
3.68937e-07
-6.50597e-05
4.55764e-07
-6.4128e-05
6.33332e-07
-6.32271e-05
7.4205e-07
-6.20999e-05
9.29811e-07
-6.10242e-05
1.05476e-06
-5.97592e-05
1.2599e-06
-5.85478e-05
1.39953e-06
-5.71434e-05
1.64601e-06
-5.58195e-05
-5.42779e-05
1.83581e-06
1.12473e-07
-6.42402e-05
2.88011e-07
-6.56654e-05
3.822e-07
-6.51539e-05
5.80428e-07
-6.43262e-05
6.94152e-07
-6.33408e-05
8.74337e-07
-6.22801e-05
9.97821e-07
-6.11477e-05
1.11735e-06
-5.98788e-05
1.26881e-06
-5.86992e-05
1.48614e-06
-5.73607e-05
1.63464e-06
-5.5968e-05
-5.45061e-05
1.8628e-06
1.63878e-07
-6.44041e-05
2.92369e-07
-6.57939e-05
4.1858e-07
-6.52801e-05
6.09112e-07
-6.45167e-05
7.36402e-07
-6.34681e-05
8.68808e-07
-6.24125e-05
1.00366e-06
-6.12825e-05
1.28467e-06
-6.01598e-05
1.41747e-06
-5.8832e-05
1.56931e-06
-5.75126e-05
1.79523e-06
-5.61939e-05
-5.46706e-05
1.95974e-06
1.67917e-07
-6.4572e-05
3.0471e-07
-6.59307e-05
5.2269e-07
-6.54981e-05
6.63649e-07
-6.46577e-05
8.03761e-07
-6.36082e-05
1.01766e-06
-6.26264e-05
1.23312e-06
-6.1498e-05
1.3086e-06
-6.02353e-05
1.52899e-06
-5.90524e-05
1.7557e-06
-5.77393e-05
1.85908e-06
-5.62973e-05
-5.49293e-05
2.1178e-06
1.64665e-07
-6.47367e-05
4.0072e-07
-6.61668e-05
5.58925e-07
-6.56563e-05
7.14838e-07
-6.48136e-05
9.47836e-07
-6.38412e-05
1.10314e-06
-6.27817e-05
1.26183e-06
-6.16567e-05
1.49399e-06
-6.04674e-05
1.66205e-06
-5.92205e-05
1.83867e-06
-5.79159e-05
2.09121e-06
-5.65498e-05
-5.51283e-05
2.29018e-06
1.67501e-07
-6.49042e-05
4.2064e-07
-6.64199e-05
5.95127e-07
-6.58308e-05
7.69854e-07
-6.49883e-05
1.01724e-06
-6.40886e-05
1.18939e-06
-6.29539e-05
1.4338e-06
-6.19011e-05
1.61041e-06
-6.06441e-05
1.79089e-06
-5.9401e-05
2.04641e-06
-5.81714e-05
2.24473e-06
-5.67481e-05
-5.53314e-05
2.44783e-06
2.39556e-07
-6.51438e-05
4.33993e-07
-6.66144e-05
6.29464e-07
-6.60263e-05
8.99293e-07
-6.52582e-05
1.08948e-06
-6.42788e-05
1.35182e-06
-6.32162e-05
1.4647e-06
-6.2014e-05
1.72318e-06
-6.09025e-05
1.98343e-06
-5.96612e-05
2.10984e-06
-5.82979e-05
2.38008e-06
-5.70184e-05
-5.56191e-05
2.66779e-06
2.25743e-07
-6.53695e-05
4.44717e-07
-6.68333e-05
7.38138e-07
-6.63197e-05
9.50857e-07
-6.54709e-05
1.15836e-06
-6.44863e-05
1.36417e-06
-6.3422e-05
1.64035e-06
-6.22902e-05
1.84178e-06
-6.1104e-05
2.04169e-06
-5.98611e-05
2.313e-06
-5.85692e-05
2.51603e-06
-5.72214e-05
-5.58146e-05
2.71153e-06
2.8936e-07
-6.56589e-05
5.30894e-07
-6.70749e-05
7.67696e-07
-6.65565e-05
9.98288e-07
-6.57015e-05
1.30205e-06
-6.47901e-05
1.52445e-06
-6.36444e-05
1.74578e-06
-6.25115e-05
2.03599e-06
-6.13942e-05
2.25716e-06
-6.00823e-05
2.47934e-06
-5.87914e-05
2.71499e-06
-5.74571e-05
-5.61483e-05
3.04869e-06
2.06287e-07
-6.58652e-05
5.4088e-07
-6.74095e-05
7.93779e-07
-6.68094e-05
1.11898e-06
-6.60267e-05
1.28847e-06
-6.49595e-05
1.60481e-06
-6.39608e-05
1.91837e-06
-6.28251e-05
2.0845e-06
-6.15603e-05
2.38899e-06
-6.03868e-05
2.62233e-06
-5.90247e-05
2.91596e-06
-5.77507e-05
-5.63134e-05
3.08107e-06
2.88656e-07
-6.61538e-05
5.47596e-07
-6.76684e-05
8.8889e-07
-6.71507e-05
1.15157e-06
-6.62894e-05
1.48702e-06
-6.5295e-05
1.67125e-06
-6.4145e-05
1.92971e-06
-6.30835e-05
2.26308e-06
-6.18937e-05
2.52659e-06
-6.06503e-05
2.86224e-06
-5.93603e-05
3.06802e-06
-5.79565e-05
-5.66359e-05
3.39047e-06
3.351e-07
-6.64889e-05
6.14128e-07
-6.79475e-05
8.92267e-07
-6.74288e-05
1.16765e-06
-6.65648e-05
1.43904e-06
-6.55664e-05
1.78544e-06
-6.44914e-05
2.05407e-06
-6.33522e-05
2.32378e-06
-6.21634e-05
2.59751e-06
-6.0924e-05
2.87255e-06
-5.96354e-05
3.21751e-06
-5.83015e-05
-5.69111e-05
3.49277e-06
2.28771e-07
-6.67177e-05
5.19836e-07
-6.82385e-05
8.86384e-07
-6.77954e-05
1.16923e-06
-6.68476e-05
1.45036e-06
-6.58475e-05
1.80273e-06
-6.48438e-05
2.07872e-06
-6.36282e-05
2.35238e-06
-6.24371e-05
2.62618e-06
-6.11978e-05
2.97229e-06
-5.99815e-05
3.24986e-06
-5.8579e-05
-5.72022e-05
3.54094e-06
2.87415e-07
-6.70051e-05
6.62594e-07
-6.86137e-05
8.75583e-07
-6.80084e-05
1.24132e-06
-6.72134e-05
1.5263e-06
-6.61325e-05
1.80684e-06
-6.51243e-05
2.08642e-06
-6.39077e-05
2.43527e-06
-6.27859e-05
2.71048e-06
-6.14731e-05
2.98283e-06
-6.02539e-05
3.2547e-06
-5.88509e-05
-5.74673e-05
3.51981e-06
2.78094e-07
-6.72832e-05
5.70301e-07
-6.89059e-05
9.41896e-07
-6.838e-05
1.15431e-06
-6.74258e-05
1.51676e-06
-6.6495e-05
1.80231e-06
-6.54098e-05
2.08383e-06
-6.41893e-05
2.36589e-06
-6.3068e-05
2.7167e-06
-6.18239e-05
2.92644e-06
-6.04636e-05
3.27335e-06
-5.91978e-05
-5.7813e-05
3.61902e-06
3.36733e-07
-6.762e-05
6.28289e-07
-6.91975e-05
9.20597e-07
-6.86723e-05
1.2914e-06
-6.77966e-05
1.50276e-06
-6.67063e-05
1.78845e-06
-6.56955e-05
2.14699e-06
-6.45478e-05
2.43091e-06
-6.33519e-05
2.71307e-06
-6.21061e-05
3.06694e-06
-6.08175e-05
3.2849e-06
-5.94158e-05
-5.81066e-05
3.57852e-06
3.03976e-07
-6.7924e-05
5.99592e-07
-6.94931e-05
8.95968e-07
-6.89687e-05
1.18592e-06
-6.80865e-05
1.55438e-06
-6.70748e-05
1.84039e-06
-6.59816e-05
2.1269e-06
-6.48343e-05
2.40953e-06
-6.36345e-05
2.69717e-06
-6.23937e-05
2.98588e-06
-6.11062e-05
3.35087e-06
-5.97808e-05
-5.84137e-05
3.65792e-06
3.48533e-07
-6.82725e-05
6.46022e-07
-6.97906e-05
9.40124e-07
-6.92628e-05
1.2328e-06
-6.83792e-05
1.52061e-06
-6.73626e-05
1.80791e-06
-6.62689e-05
2.08991e-06
-6.51163e-05
2.37503e-06
-6.39197e-05
2.65861e-06
-6.26773e-05
3.01598e-06
-6.14636e-05
3.29828e-06
-6.00631e-05
-5.86923e-05
3.57692e-06
2.31059e-07
-6.85036e-05
6.10226e-07
-7.01698e-05
9.03195e-07
-6.95557e-05