/*--------------------------------*- C++ -*----------------------------------*\
| =========                 |                                                 |
| \\      /  F ield         | OpenFOAM: The Open Source CFD Toolbox           |
|  \\    /   O peration     | Version:  2.3.1                                 |
|   \\  /    A nd           | Web:      www.OpenFOAM.org                      |
|    \\/     M anipulation  |                                                 |
\*---------------------------------------------------------------------------*/
FoamFile
{
    version     2.0;
    format      ascii;
    class       volScalarField;
    location    "0.51";
    object      epsilon;
}
// * * * * * * * * * * * * * * * * * * * * * * * * * * * * * * * * * * * * * //

dimensions      [0 2 -3 0 0 0 0];

internalField   nonuniform List<scalar> 
9648
(
2415.86
2406.02
2404.08
2397.24
2385.64
2368.87
2347.43
2320.88
2289.11
2252.19
2210.29
2163.53
2112.73
2058.84
2002.65
1945.11
1887.34
1830.33
1774.8
1721.33
1670.49
1622.63
1577.93
1536.55
1498.52
1463.72
1432.05
1403.45
1377.83
1354.98
1334.81
1317.14
1301.82
1288.72
1277.72
1268.69
1261.5
1256.07
1252.37
1250.32
1249.8
1250.8
1253.29
1257.2
1262.57
1269.45
1277.79
1287.58
1298.91
1311.92
1326.61
1342.95
1361.17
1381.23
1403.11
1426.57
1451.36
1477.07
1502.93
1528.37
1553
605.119
596.57
587.05
576.622
567.475
561.916
559.101
558.333
559.422
562.485
567.306
573.233
579.849
586.777
593.682
600.184
606.096
611.37
615.985
619.872
623.136
625.844
628.067
629.922
631.543
632.99
634.298
635.567
636.875
638.282
639.817
641.525
643.454
645.594
647.985
650.653
653.591
656.798
660.291
664.098
668.208
672.611
677.313
682.327
687.633
693.261
699.203
705.432
711.927
718.681
725.649
732.798
740.074
747.503
754.943
762.369
769.629
776.825
783.821
790.546
796.96
240.694
243.758
248.12
254.446
262.703
272.662
284.419
297.661
312.333
328.075
344.693
361.744
378.889
395.791
412.159
427.753
442.399
456.002
468.497
479.862
490.121
499.318
507.535
514.87
521.418
527.255
532.472
537.15
541.374
545.219
548.744
552.015
555.075
557.976
560.758
563.448
566.075
568.653
571.204
573.746
576.292
578.859
581.445
584.06
586.705
589.371
592.056
594.739
597.414
600.059
602.668
605.237
607.726
610.184
612.5
614.769
616.898
619.018
620.976
622.812
624.52
134.258
144.437
155.855
168.714
183.049
198.821
215.983
234.353
253.71
273.717
294.067
314.385
334.354
353.67
372.091
389.409
405.496
420.273
433.7
445.778
456.529
466.014
474.331
481.575
487.856
493.272
497.902
501.855
505.207
508.054
510.475
512.531
514.295
515.811
517.128
518.284
519.312
520.235
521.079
521.867
522.616
523.343
524.062
524.779
525.499
526.223
526.951
527.677
528.402
529.118
529.806
530.491
531.145
531.781
532.349
532.908
533.454
533.977
534.457
534.901
535.348
97.4143
110.614
125.331
141.557
159.247
178.319
198.611
219.889
241.855
264.137
286.379
308.209
329.321
349.441
368.359
385.892
401.949
416.485
429.482
440.97
450.993
459.627
466.988
473.189
478.351
482.564
485.942
488.572
490.563
492.018
493.022
493.655
493.978
494.044
493.896
493.579
493.128
492.567
491.933
491.245
490.52
489.78
489.042
488.316
487.607
486.919
486.256
485.616
484.992
484.389
483.79
483.196
482.615
482.036
481.457
480.876
480.319
479.761
479.186
478.604
478.023
82.9378
98.0146
114.929
133.551
153.699
175.203
197.795
221.159
244.926
268.672
292.02
314.581
336.085
356.271
375.001
392.079
407.452
421.128
433.093
443.436
452.219
459.515
465.506
470.261
473.942
476.662
478.495
479.605
480.054
479.981
479.501
478.653
477.535
476.184
474.626
472.918
471.116
469.225
467.293
465.343
463.377
461.428
459.511
457.645
455.821
454.049
452.33
450.677
449.075
447.513
445.987
444.486
443.012
441.563
440.128
438.738
437.381
436.033
434.678
433.326
431.963
77.8138
94.4299
113.154
133.753
155.896
179.34
203.709
228.615
253.657
278.301
302.221
324.953
346.319
366.056
384.172
400.367
414.646
427.096
437.671
446.55
453.831
459.553
463.966
467.093
469.141
470.218
470.437
469.961
468.853
467.272
465.339
463.072
460.579
457.891
455.003
452.012
448.996
445.91
442.845
439.804
436.772
433.799
430.901
428.098
425.357
422.7
420.132
417.648
415.253
412.922
410.644
408.408
406.228
404.056
401.916
399.83
397.794
395.805
393.807
391.782
389.774
77.1711
95.1765
115.501
137.806
161.591
186.553
212.278
238.316
264.225
289.338
313.43
335.863
356.674
375.519
392.752
407.775
420.684
431.716
440.619
447.819
453.469
457.413
460.225
461.558
461.843
461.226
459.735
457.743
455.089
452.021
448.731
445.07
441.275
437.323
433.173
428.972
424.814
420.579
416.463
412.42
408.387
404.451
400.67
397.022
393.444
390.011
386.663
383.452
380.337
377.321
374.373
371.485
368.654
365.811
363.017
360.32
357.648
355.084
352.474
349.82
347.252
78.6844
97.7714
119.481
143.047
168.241
194.288
220.895
247.871
274.168
299.568
323.462
345.473
365.336
382.989
399.111
412.86
424.315
433.763
441.217
446.76
450.548
452.679
453.603
453.313
451.916
449.424
446.39
442.928
438.631
434.134
429.391
424.5
419.662
414.451
408.932
403.727
398.323
392.897
387.816
382.629
377.479
372.325
367.831
363.348
358.864
354.835
350.563
346.715
342.695
338.967
335.129
331.631
328.208
324.62
321.138
317.969
314.539
311.663
308.369
304.956
301.921
1576.94
1600.06
1622.08
1642.98
1662.94
1682.38
1701.42
1720.33
1739.03
1756.75
1773.16
1788.81
1803.93
1818.87
1833.86
1849.55
1866.48
1885.18
1906.03
1929.58
1955.64
1983.71
2013.35
2044.1
2075.62
2107.83
2140.88
2174.45
2208.49
2243.01
2278.21
2313.95
2350.25
2387.26
2424.99
2463.35
2502.44
2542.39
2583.27
2624.93
2667.39
2710.91
2755.46
2800.87
2847.48
2895.14
2943.75
2993.35
3044.15
3096.18
3149.37
3203.61
3259.45
3316.48
3375.07
3435.03
3497.07
3561.18
3627.39
3695.56
3765.82
803.043
809.196
815.173
820.898
826.395
831.78
837.195
842.495
847.882
853.022
858.117
863.106
868.098
873.12
878.162
883.271
888.467
893.795
899.252
904.818
910.454
916.099
921.729
927.318
932.854
938.316
943.636
948.786
953.756
958.571
963.248
967.762
972.131
976.378
980.497
984.49
988.38
992.159
995.828
999.389
1002.86
1006.25
1009.55
1012.75
1015.88
1018.91
1021.85
1024.67
1027.42
1030.07
1032.63
1035.08
1037.44
1039.86
1042.09
1044.41
1046.7
1049.2
1051.59
1054.04
1056.61
626.197
627.797
629.442
631.056
632.642
634.132
635.69
637.151
638.593
639.891
641.136
642.327
643.533
644.711
645.861
646.974
648.043
649.069
650.039
650.942
651.765
652.508
653.157
653.71
654.161
654.509
654.746
654.871
654.877
654.768
654.534
654.181
653.712
653.123
652.429
651.626
650.717
649.7
648.577
647.344
646.008
644.573
643.046
641.412
639.683
637.848
635.895
633.816
631.619
629.305
626.848
624.296
621.609
618.818
615.841
612.786
609.647
606.437
603.143
599.8
596.467
535.768
536.187
536.573
536.944
537.282
537.587
537.85
538.096
538.276
538.352
538.361
538.325
538.224
538.038
537.794
537.483
537.105
536.652
536.118
535.495
534.786
533.987
533.104
532.131
531.065
529.899
528.634
527.272
525.81
524.25
522.591
520.826
518.958
516.993
514.939
512.796
510.563
508.241
505.824
503.317
500.725
498.061
495.327
492.532
489.675
486.754
483.749
480.659
477.48
474.227
470.874
467.43
463.907
460.29
456.551
452.698
448.777
444.774
440.718
436.646
432.58
477.441
476.833
476.197
475.528
474.827
474.061
473.238
472.407
471.568
470.676
469.747
468.77
467.729
466.629
465.464
464.231
462.961
461.617
460.198
458.701
457.131
455.493
453.794
452.037
450.215
448.322
446.355
444.316
442.211
440.038
437.794
435.468
433.061
430.577
428.029
425.419
422.743
419.994
417.166
414.265
411.301
408.282
405.225
402.143
399.042
395.924
392.752
389.554
386.293
382.992
379.63
376.195
372.709
369.157
365.516
361.777
357.961
354.063
350.146
346.218
342.295
430.608
429.239
427.858
426.428
424.969
423.472
421.929
420.365
418.754
417.114
415.432
413.722
411.971
410.165
408.311
406.419
404.496
402.508
400.45
398.325
396.142
393.911
391.646
389.357
387.027
384.648
382.222
379.748
377.245
374.712
372.146
369.521
366.841
364.1
361.324
358.512
355.646
352.732
349.748
346.697
343.592
340.443
337.274
334.111
330.972
327.868
324.742
321.631
318.494
315.375
312.223
309.015
305.792
302.508
299.181
295.733
292.225
288.645
285.08
281.481
277.907
387.78
385.789
383.783
381.758
379.688
377.568
375.41
373.246
371.041
368.781
366.504
364.217
361.893
359.541
357.141
354.723
352.302
349.829
347.288
344.673
342.001
339.31
336.605
333.915
331.215
328.478
325.712
322.912
320.123
317.353
314.622
311.855
309.074
306.246
303.424
300.586
297.692
294.767
291.786
288.742
285.64
282.477
279.3
276.143
273.03
270.025
267.006
264.071
261.132
258.301
255.481
252.586
249.708
246.781
243.853
240.752
237.641
234.424
231.302
228.116
224.985
344.68
342.158
339.619
337.112
334.57
332.032
329.413
326.859
324.268
321.559
318.852
316.183
313.468
310.727
307.908
305.119
302.402
299.642
296.814
293.844
290.797
287.773
284.734
281.742
278.813
275.849
272.857
269.777
266.73
263.769
260.986
258.192
255.474
252.73
250.067
247.425
244.655
241.826
238.992
236.15
233.208
230.144
227.062
223.984
220.931
218.1
215.195
212.472
209.743
207.29
204.908
202.384
199.917
197.397
194.939
192.2
189.526
186.685
184.081
181.364
178.749
298.638
295.597
292.381
289.513
286.473
283.854
280.88
278.332
275.74
272.907
270.066
267.483
264.643
261.819
258.717
255.601
252.845
250.178
247.508
244.574
241.227
238.102
234.895
231.667
228.636
225.658
222.779
219.57
216.157
212.945
210.141
207.348
204.779
202.271
200.107
198.018
195.612
192.926
190.335
187.943
185.485
182.654
179.751
176.904
173.967
171.412
168.535
166.03
163.41
161.46
159.626
157.478
155.517
153.482
151.608
149.187
146.986
144.457
142.421
140.21
138.222
3839.23
3915.31
3993.45
4073.69
4156.48
4242.72
4331.89
4423.93
4518.56
4615.94
4716.33
4818.5
4922.75
5033.69
5171.58
5300.21
5427.11
5556.55
5688.5
5822.93
5960.19
6100.35
6243.02
6388.41
6536.28
6685.93
6837.05
6989.38
7142.74
7296.22
7449.75
7602.69
7754.17
7903.58
8050.39
8193.18
8330.77
8461.66
8577.22
8662.37
8720.41
8752.93
8759.83
8739.33
8689.9
8609.09
8492.89
8336.69
8136.21
7886.88
7582.47
7216.21
6782.95
6275.18
5662.95
4721.6
4303.16
4092.88
4009.25
3968.84
3886.65
1059.43
1062.35
1065.48
1068.67
1071.96
1075.51
1079.59
1084.1
1089.08
1094.37
1100.16
1103.85
1105.41
1108.52
1112.32
1117.51
1122.92
1128.27
1133.75
1139.47
1145.48
1151.79
1158.38
1165.25
1172.38
1179.76
1187.41
1195.36
1203.65
1212.34
1221.47
1231.1
1241.35
1252.35
1264.2
1277.14
1291.35
1307.19
1326.15
1356.09
1392.25
1431.35
1473.66
1519.29
1568.95
1622.97
1681.43
1744.62
1812.82
1885.6
1962.1
2040.71
2119.88
2198.58
2269.41
2336.44
2396.93
2484.61
2589.61
2698.61
2658.03
593.115
589.769
586.392
583
579.558
576.147
572.854
569.723
566.671
563.595
560.11
554.715
548.958
544.028
539.608
535.789
532.087
528.292
524.437
520.575
516.746
512.948
509.175
505.426
501.697
497.984
494.297
490.638
487.027
483.461
479.96
476.545
473.229
470.056
467.052
464.266
461.744
459.558
457.851
457.107
457.52
462.159
470.6
482.351
497.869
517.805
542.873
574.09
612.449
659.023
714.827
780.664
857.755
946.5
1046.85
1155.65
1263.93
1382.28
1527.01
1714.08
1904.89
428.523
424.48
420.44
416.388
412.294
408.208
404.18
400.261
396.333
392.32
387.563
381.767
376.133
371.051
366.351
361.999
357.766
353.556
349.345
345.158
340.998
336.845
332.708
328.59
324.487
320.408
316.356
312.33
308.33
304.361
300.422
296.521
292.668
288.873
285.147
281.509
277.978
274.571
271.315
268.269
265.512
263.344
262.436
263.224
265.585
269.856
276.498
286.156
299.668
318.048
342.699
374.938
416.425
468.3
531.29
603.539
680.963
764.955
863.723
990.955
1150.68
338.395
334.56
330.749
326.919
323.026
319.14
315.279
311.51
307.725
303.839
299.22
294.088
289.225
284.773
280.57
276.603
272.741
268.975
265.266
261.622
258.018
254.404
250.811
247.246
243.697
240.177
236.686
233.224
229.781
226.36
222.961
219.591
216.254
212.959
209.715
206.533
203.424
200.398
197.464
194.638
191.947
189.451
187.275
185.761
185.038
185.116
186.217
188.637
192.804
199.249
208.759
222.33
241.152
266.486
299.37
339.984
386.986
439.903
500.959
575.683
670.505
274.336
270.889
267.473
264.059
260.509
256.97
253.429
250.013
246.581
243.093
238.941
234.585
230.495
226.758
223.16
219.729
216.361
213.146
210.02
206.995
204.02
201.006
198.029
195.097
192.177
189.298
186.437
183.609
180.785
177.976
175.176
172.403
169.656
166.95
164.288
161.683
159.14
156.668
154.269
151.955
149.736
147.635
145.689
143.982
142.752
141.901
141.548
141.811
142.892
145.061
148.683
154.273
162.495
174.114
190.008
210.758
236.519
267.372
303.932
347.835
402.199
221.773
218.759
215.788
212.868
209.695
206.556
203.359
200.368
197.367
194.4
190.784
187.166
183.765
180.735
177.726
174.86
171.983
169.331
166.771
164.331
161.944
159.46
157.058
154.746
152.426
150.159
147.884
145.652
143.392
141.146
138.887
136.668
134.472
132.329
130.222
128.176
126.183
124.26
122.4
120.62
118.92
117.324
115.838
114.494
113.348
112.557
112.024
111.813
112.022
112.781
114.274
116.748
120.516
126.004
133.682
144.045
157.514
174.423
195.237
220.736
252.195
175.887
173.306
170.81
168.463
165.688
162.986
160.131
157.624
155.104
152.736
149.634
146.675
143.862
141.505
139.019
136.716
134.283
132.179
130.139
128.207
126.338
124.278
122.383
120.687
118.916
117.19
115.405
113.705
111.911
110.138
108.318
106.59
104.874
103.249
101.637
100.101
98.5892
97.1555
95.7778
94.4938
93.2809
92.1752
91.1771
90.2813
89.5165
88.9766
88.6396
88.4823
88.5684
88.9675
89.775
91.1098
93.1377
96.0512
100.096
105.555
112.726
121.943
133.574
148.119
166.234
135.672
133.457
131.457
129.767
127.387
125.148
122.587
120.651
118.644
116.909
114.27
111.877
109.509
107.799
105.72
103.987
101.898
100.35
98.7649
97.1926
95.7552
93.972
92.5291
91.5364
90.2151
88.8699
87.4171
86.2031
84.7127
83.294
81.7448
80.4785
79.1542
78.0098
76.7865
75.6837
74.4953
73.443
72.4565
71.6012
70.8219
70.1425
69.5821
69.1085
68.671
68.3354
68.1761
68.123
68.2856
68.5843
69.2549
70.2145
71.6678
73.5727
76.1387
79.3998
83.6413
88.9557
95.7287
104.228
114.8
3740.98
3581.07
3409.61
3229.39
3049.66
2875.94
2711.71
2561.38
2428.68
2315.62
2222.54
2148.3
2091.24
2049.05
2018.98
1998.42
1985.22
1977.81
1974.77
1974.89
1977.48
1982.04
1988.08
1995.6
2004.44
2014.55
2025.74
2038.05
2051.57
2066.15
2081.79
2098.42
2115.93
2134.1
2152.81
2171.79
2190.69
2209.26
2227.28
2244.41
2260.21
2274.42
2286.89
2297.38
2305.98
2312.93
2318.34
2322.43
2325.77
2329.14
2332.9
2337.29
2342.87
2349.82
2357.89
2366.77
2376.18
2386.12
2395.6
2403.67
2409.84
2466.64
2262.51
2062.67
1870.49
1701.9
1546.04
1401.97
1270.53
1152.04
1047.36
956.621
879.307
814.427
760.488
717.237
683.855
658.313
638.721
623.556
611.733
602.497
595.287
589.621
585.476
582.334
580.384
579.352
579.301
580.183
582
584.768
588.472
593.112
598.661
605.073
612.276
620.158
628.614
637.492
646.599
655.676
664.395
672.336
679.045
684.097
687.071
687.6
685.503
680.871
674.066
665.677
656.507
647.503
639.501
632.894
628.041
624.639
622.262
619.744
616.135
611.052
1994.03
1983.33
1883.9
1710.36
1530.51
1355.84
1185.75
1031.28
893.281
771.121
665.748
576.695
502.761
442.669
395.479
359.363
331.524
309.56
292.207
278.61
267.937
259.517
252.823
247.444
243.137
239.635
236.857
234.698
233.11
232.06
231.521
231.491
231.953
232.875
234.235
235.996
238.123
240.572
243.29
246.202
249.215
252.226
255.112
257.708
259.85
261.336
261.965
261.551
259.98
257.195
253.284
248.55
243.449
238.576
234.441
231.636
230.419
230.8
232.409
234.836
237.767
1317.52
1466.48
1566.21
1586.11
1519.26
1395.24
1227.33
1056.38
898.483
752.87
625.934
519.704
432.129
361.985
307.031
264.367
231.253
205.152
184.692
168.8
156.531
147.104
139.862
134.243
129.831
126.314
123.491
121.226
119.425
118.021
116.975
116.264
115.86
115.726
115.829
116.13
116.596
117.191
117.873
118.595
119.306
119.953
120.479
120.824
120.931
120.742
120.212
119.303
118.006
116.317
114.272
111.98
109.628
107.483
105.87
105.264
106.085
108.529
112.575
118.197
125.408
786.73
922.143
1066.07
1195.18
1279.26
1300.39
1253.07
1149.26
1013.53
859.203
711.359
584.371
475.138
385.808
314.999
258.996
215.146
180.897
154.181
133.554
117.815
105.977
97.1447
90.5273
85.5015
81.6195
78.5861
76.2005
74.3241
72.8499
71.7166
70.8886
70.328
69.9913
69.8376
69.8295
69.9313
70.1068
70.3202
70.5316
70.6988
70.7815
70.7407
70.5391
70.144
69.5306
68.6894
67.6228
66.3369
64.8605
63.2431
61.5716
59.994
58.7079
58.0069
58.1834
59.7522
63.1158
68.5829
76.24
85.9307
470.098
554.721
657.185
773.785
892.521
995.779
1063.31
1079.32
1041.11
956.13
840.916
714.772
587.042
474.759
382.968
307.155
247.066
199.572
161.763
132.579
110.567
94.3436
82.5504
73.9495
67.5875
62.7982
59.1543
56.3652
54.2258
52.5727
51.3122
50.3905
49.7561
49.354
49.1363
49.062
49.0923
49.1924
49.3273
49.4603
49.5534
49.5735
49.4865
49.2639
48.8767
48.3092
47.5565
46.6281
45.5311
44.2922
42.9542
41.5938
40.3305
39.3369
38.8769
39.3157
41.1238
44.7937
50.7385
59.1462
69.967
291.339
340.419
401.807
477.084
565.446
662.387
758.141
838.677
889.548
899.944
867.196
798.181
704.692
600.618
498.026
400.797
320.211
254.464
199.518
156.512
123.887
100.133
83.2478
71.195
62.4644
56.0135
51.2054
47.6111
44.9235
42.8826
41.3441
40.2229
39.4484
38.9458
38.6556
38.528
38.5195
38.5934
38.7139
38.8454
38.9508
39.0033
38.9691
38.8247
38.539
38.1036
37.5116
36.7763
35.8978
34.905
33.8315
32.7469
31.7554
31.0039
30.7293
31.304
33.1788
36.9261
43.0891
51.9839
63.6469
188.875
217.256
252.945
297.586
352.544
418.133
492.745
571.56
646.792
707.791
743.964
748.679
721.668
667.018
593.336
508.888
423.75
343.35
266.978
205.348
156.495
120.964
96.1633
78.6654
66.0751
56.838
50.033
45.0574
41.435
38.7237
36.7012
35.2255
34.2
33.5164
33.096
32.8739
32.7978
32.8256
32.9191
33.0416
33.1548
33.2385
33.2578
33.1929
33.0064
32.6979
32.2545
31.6956
31.0127
30.2366
29.3944
28.5527
27.8035
27.2775
27.1961
27.9051
29.8678
33.712
40.0917
49.4542
61.9056
128.111
144.681
165.448
191.677
224.435
264.79
313.175
369.167
430.409
492.989
549.179
592.898
617.667
620.49
599.521
556.817
498.216
427.799
354.508
279.375
209.138
157.927
122.318
96.9728
78.3044
64.5772
54.4846
47.2489
42.0956
38.2777
35.4696
33.4083
31.9704
30.9897
30.3551
29.9739
29.78
29.7203
29.7539
29.8352
29.9302
30.022
30.0746
30.0681
29.962
29.7574
29.4421
29.0317
28.5173
27.9244
27.2834
26.656
26.1337
25.833
25.9595
26.8466
28.9586
32.9597
39.5644
49.3536
62.4481
1.5929
216.516
193.698
2.21754
2.29378
0.204934
0.00071869
90.1817
0.000798095
0.0146515
95.1092
7.06912
0.000719569
245.868
0.167844
134.256
0.00075773
91.5775
119.969
0.000715594
2.21015
234.445
204.572
0.000765009
0.000782598
0.20865
0.000716539
7.76509
0.000753514
0.000817737
6.60888
0.000745177
0.00873652
63.0835
4.0382
113.72
72.765
15.771
0.00072235
44.5755
64.7396
29.4099
0.000743687
101.954
172.187
0.722737
0.000870186
0.00874867
1.26216
7.2954
371.726
359.077
0.000699687
0.00102738
0.0613509
0.0346285
0.000815114
9.04618
59.4503
286.783
138.767
0.000908817
1.47502
0.0251589
203.372
2.36116
38.8978
63.0242
0.00112475
0.000747763
9.80332
40.0662
55.7162
0.0323922
0.0505713
79.0397
233.179
54.6293
0.000701163
5.54964
0.00235187
47.2474
0.0122632
108.065
0.000750004
8.60747
0.000792728
36.7019
0.010795
0.0013688
0.232975
0.000699933
0.000933804
310.714
144.833
0.000867
1.60144
1.91272
0.00183854
207.819
0.99495
32.2477
5.74305
0.000698995
0.00072557
0.000696265
1.38521
0.210353
0.000746572
174.707
223.433
0.00466446
235.135
26.6239
113.718
53.3792
28.2785
0.00097209
0.111354
0.00110742
0.00145968
189.098
0.00314653
288.762
418.497
27.9531
0.000746363
7.12329
7.00737
0.000744279
0.0298035
0.0270467
90.6891
0.00188573
62.5175
0.00074923
0.000723346
398.089
354.226
0.000749604
0.792658
150.377
0.227961
0.914999
26.648
121.719
0.287294
27.5914
0.00527196
279.831
11.072
0.0361695
47.9638
105.687
190.052
0.000763196
0.000757214
0.516528
0.00070499
41.6089
0.110177
0.00144336
0.000739716
0.000747927
0.000758594
39.9509
69.8957
34.3246
0.000767382
287.708
306.045
402.605
167.415
0.00686006
157.243
42.7981
28.2515
0.000750812
0.00170457
192.36
68.6179
30.2068
72.8899
0.000746025
0.000841026
238.967
0.0297483
2.51709
0.000758085
0.000868381
0.173124
0.000795008
336.573
3.95746
0.000702947
0.685522
89.9398
144.931
0.00119027
53.0186
0.00074726
0.000750935
107.773
32.1736
305.636
0.00120702
0.00080202
0.00282626
41.3467
77.5038
9.67189
125.522
14.4057
232.633
0.803879
84.6961
82.0329
27.8246
10.8196
39.0589
0.00144732
0.0294518
0.000748366
0.000729632
28.387
0.0100751
0.0118292
0.00199213
0.00622486
46.1378
195.355
0.011077
174.075
7.51665
3.12517
0.000732425
0.552613
37.7479
7.23253
0.00105652
13.5868
35.2434
0.84765
2.40462
272.193
7.35621
4.97765
121.5
0.000952034
0.000723901
0.00103048
0.00425153
28.6922
0.000781619
0.00253051
0.000722918
1.72059
76.3875
76.166
49.382
12.0268
11.4788
327.045
0.00113256
48.4848
100.072
0.000744264
80.575
0.00074968
333.704
1.71847
50.3033
0.00155455
0.000748879
20.1965
7.57041
0.000759644
0.000751453
0.000756231
0.000751222
1.19983
35.65
43.6948
0.0105905
0.00076045
0.000723935
0.000697837
102.563
1.2053
0.00119566
18.9991
0.116936
0.0922058
0.000694729
0.784394
0.000760165
0.115767
47.3537
273.601
3.05984
0.000978166
0.00185003
55.2745
0.361469
128.788
324.122
0.000839022
0.000740105
0.000733993
154.89
0.000774846
137.934
0.000750125
24.7481
12.2217
0.0239452
138.199
243.351
0.00127731
50.2587
50.3391
88.721
90.8218
10.0338
352.158
38.6804
72.1149
143.632
93.8374
55.9125
0.341096
340.232
281.414
63.1187
33.4567
0.000994669
272.778
123.341
229.571
0.0188547
0.000869919
0.00074614
0.00081352
0.6849
1.58211
6.56223
0.125646
0.00072528
171.316
0.00074671
26.6034
23.1854
192.344
42.8185
18.4642
0.00194356
0.00110618
0.445062
84.046
0.00439498
7.9768
259.203
36.1073
82.16
196.568
61.7371
0.000820133
284.137
143.909
96.1609
0.000751191
195.662
153.107
0.000782951
30.4481
0.000752372
399.14
171.595
28.0559
79.8966
111.675
149.459
0.000762852
148.41
0.000968318
68.6545
79.3923
28.2761
280.384
3.6846
0.496541
2.6002
0.00109898
441.174
1.43056
0.00290012
0.00178178
256.035
0.000956676
90.5763
0.000736895
0.000750608
0.00182643
31.0605
0.195531
21.4064
0.00198528
82.019
0.310867
222.578
280.993
37.6366
341.003
0.000790734
280.081
41.689
0.000742868
76.8771
25.2052
0.000698167
0.000727132
117.575
0.00204807
27.3582
0.441815
74.229
0.0177592
3.41759
39.1594
120.863
32.2186
84.2363
69.0115
0.000994534
0.0325663
28.7419
22.2066
332.284
342.837
144.054
0.085469
124.012
122.967
3.30275
90.8454
45.686
25.5205
0.000820445
82.4484
386.933
0.00107817
91.5596
19.1452
46.3472
0.0154339
0.090345
268.686
0.00194593
328.421
0.00124781
1.79857
0.000737775
7.72464
166.566
0.559393
0.00132135
0.000898276
74.2058
26.8087
0.373884
5.40055
294.578
542.782
0.00136668
11.7118
27.2415
70.9805
26.1742
449.816
28.8111
153.404
50.9663
3.36161
7.17485
303.315
53.9458
355.873
171.53
0.228248
172.483
59.2959
0.000788902
91.615
28.9346
13.0301
0.00967649
96.5959
44.8428
4.08644
52.9208
0.00158544
0.000747415
0.142888
28.9295
108.78
73.9343
0.000750395
0.000730254
0.000744536
28.2345
0.027395
0.000746181
0.24858
94.8755
273.126
0.00442547
0.00455594
0.000721524
0.00073862
0.00195507
29.0315
100.198
21.8176
1.90321
300.873
386.958
0.00150205
63.3268
27.8817
28.4562
74.271
440.85
0.000819154
0.00449087
0.000751818
396.238
0.777733
0.000726597
10.5851
0.354806
303.492
0.000759363
328.045
8.61302
0.0681
202.188
0.000748894
0.000736733
0.00102516
407.47
52.1067
130.103
321.047
11.3584
28.6154
0.000709153
0.00184973
0.447414
0.0154974
0.0164103
176.405
41.1712
0.000748474
25.504
45.325
185.807
409.888
0.00296868
413.12
0.00182903
0.0219476
146.354
0.000739748
144.63
0.000759762
0.000792809
0.0206699
34.2573
2.96521
321.041
61.5099
0.00088291
28.4413
503.817
0.211234
2.13868
7.32486
0.00077598
0.000760695
0.00230127
133.427
5.48848
0.000780935
272.764
278.569
216.916
0.103179
60.2495
0.00108338
29.4885
0.562912
0.13203
124.035
29.7043
148.919
173.731
0.000759747
0.000711695
0.00502421
72.8197
104.356
5.96007
0.0066251
0.000770962
0.000750711
0.00346158
0.128048
0.00212338
73.2024
21.1604
0.004948
26.3344
173.444
0.000760819
38.2921
0.000742476
3.33759
0.000762496
0.0132645
38.7115
0.011688
0.000744689
4.09005
367.298
266.692
0.00072988
0.000747623
1.54283
0.135594
0.000748018
100.763
0.000906532
31.95
380.121
29.5424
86.8877
293.633
133.802
337.211
0.000748424
0.0024907
0.0108168
295.209
59.8908
202.615
5.67252
4.25788
101.087
164.978
129.459
5.02122
47.7086
0.000750831
1.51852
39.1874
32.8332
314.141
27.4582
1.17945
40.0121
0.202322
0.00942196
39.5262
0.000751918
175.323
0.000884136
2.71057
293.803
184.561
2.99084
0.00251497
6.9679
0.000769543
0.000736407
0.201662
0.0135811
49.8368
0.00886751
28.655
0.000750693
0.0191809
0.000725062
94.3472
0.0017748
86.8637
299.104
0.0144436
166.395
377.53
0.000758054
97.9893
221.994
0.000782752
288.183
0.260813
0.000822505
0.000791445
285.363
0.000731582
0.00111695
0.123069
0.213282
435.256
271.403
0.000751548
0.000752015
9.33427
27.2619
0.00713763
2.27345
22.0991
0.000748021
0.000957004
0.000913508
168.278
271.755
3.34015
298.807
0.0172796
26.5847
0.00076979
0.00723432
0.0161298
0.0428644
0.000750302
299.236
0.000742077
0.0161722
0.000768971
1.34584
0.0149466
0.0355278
2.55841
4.96156
34.9776
2.22121
9.1354
27.8965
190.291
0.000816956
164.016
328.572
12.3663
74.0599
0.000761028
270.2
80.5677
0.000746251
414.497
66.7643
0.00593736
0.019694
160.035
158.164
0.229979
317.514
412.804
4.47725
434.854
267.08
125.229
50.8405
21.7203
27.7639
266.298
294.008
0.0144028
313.033
42.4367
408.848
0.000812628
1.54871
2.95353
224.844
166.332
0.0119062
445.086
194.55
6.84449
0.0528798
2.74054
28.1048
0.00155426
28.2549
443.784
0.0292672
221.036
14.1536
92.5431
189.965
0.000746566
0.00167191
7.33651
5.16522
0.0130406
0.000748608
0.820977
1.80332
0.00121022
0.000758706
269.02
6.9462
52.7832
10.3696
0.00316875
0.00107464
0.430946
88.3496
0.000825946
21.2558
29.7072
1.87195
163.914
0.00100752
0.391491
0.000740902
1.77462
85.2905
0.00143405
0.186321
41.0766
169.781
0.506276
92.9735
5.05939
0.961461
0.000987203
32.5479
336.11
0.000744485
0.000753954
147.81
0.0159021
0.000758261
72.4473
2.05119
162.707
29.6438
38.0555
0.315639
17.1751
206.382
166.121
243.262
0.000764163
274.475
0.000967488
38.8605
0.00079465
0.0014546
45.3061
0.00208277
258.525
0.0121686
0.0325342
45.312
7.68196
0.538782
0.000899825
186.753
0.000889398
0.00071845
347.689
162.044
40.2158
28.6512
0.000814896
0.000688949
19.0994
148.724
0.00073064
222.663
37.2011
0.00075368
167.683
0.000703152
3.34661
6.40867
10.7758
1.51723
75.8271
21.0669
0.000701659
271.116
331.572
0.000745188
0.0130217
28.9269
0.000708597
238.492
160.537
405.866
0.000746209
0.000727639
199.904
0.0931715
0.000835754
30.6868
80.0976
254.334
0.000720405
0.000791542
0.0158676
0.0115817
0.000747318
0.00201738
123.747
50.9591
0.000747191
13.1799
0.000747286
10.0445
0.00108387
0.000869442
26.6135
0.000748358
0.357098
0.000730447
49.8141
2.01578
20.0813
184.526
363.743
145.921
5.11029
14.5961
0.000758259
5.69769
278.848
528.536
0.157547
0.000828564
128.871
0.00074645
0.110631
0.000719869
445.06
14.9748
3.13187
198.76
51.8358
4.96532
78.7036
7.73323
223.177
110.814
0.000775122
0.000753972
0.00310805
0.000737895
0.0141537
101.264
0.000927374
253.94
0.00186939
0.319424
3.00539
151.792
0.0013499
41.0741
0.0132517
57.4632
29.7471
440.316
0.000793875
0.00094973
1.46618
82.8704
63.8893
64.2668
1.93137
7.95992
20.1841
0.0622824
10.6786
1.68431
30.1706
0.000754428
396.478
1.45291
54.6594
0.000786552
51.8366
16.2601
0.0016787
87.9292
17.2561
0.0855306
0.000714257
0.000746629
201.997
46.8212
14.7775
0.000737286
0.00960382
50.819
186.851
3.31865
0.00589034
0.000734938
149.46
130.458
35.9527
34.8663
0.000744276
100.24
438.972
0.00074699
0.000749418
18.3078
0.0012252
0.0038923
0.216821
47.2191
0.00104567
36.4539
346.407
0.000730646
0.000818263
0.000727033
0.000769982
65.0364
518.497
338.827
0.0207135
33.4221
47.4651
0.133092
43.6961
0.000821835
31.3577
0.536406
30.5197
5.09896
81.4873
99.7895
0.142076
0.000759231
158.969
84.7484
279.872
5.72347
29.778
0.519639
21.059
0.00353827
0.00133889
150.145
143.414
0.0326199
1.17891
0.000754714
0.100188
19.4263
0.0275011
13.6262
4.41139
385.88
36.6872
1.7582
276.498
137.481
56.8109
15.323
198.628
191.077
3.11982
37.5546
0.00328067
46.1807
44.605
0.000743584
0.000710487
0.359434
0.0007491
0.000772713
57.8002
299.384
0.000744932
84.6652
0.000745557
0.000736985
0.000740516
0.000750672
0.00181115
29.5398
45.981
250.249
0.000717657
0.00105536
6.59723
0.000856853
0.02826
0.000762793
0.000866244
165.103
0.000985989
0.00468384
181.814
0.0042675
0.000749671
185.028
0.000745765
0.000761399
1.45531
0.000870011
6.55893
0.00122996
0.0243138
0.000743939
0.000752801
305.234
424.429
44.5027
0.0235065
107.182
15.6686
0.00129219
27.6234
312.644
234.346
479.059
0.000704097
27.9553
55.1501
0.26383
28.5101
102.461
0.353702
31.5667
1.04337
28.4219
0.275545
7.42511
0.000757654
224.31
0.000757268
28.7032
31.3563
0.000748032
0.927296
0.00247131
0.029962
0.000725329
3.94424
0.000896403
0.000740733
40.3142
0.0376285
0.166555
229.771
151.001
0.000815407
0.000962826
29.6043
262.324
0.000694375
0.000754701
0.191578
23.979
144.306
0.00208571
15.5327
0.000745958
0.000820153
0.000718411
0.0280831
23.6864
0.00406349
274.418
29.6308
260.424
173.566
0.000844881
303.608
64.9055
0.000732589
0.000754087
0.000750349
0.00115674
0.000740534
122.354
0.000745501
0.000751227
353.206
1.20209
0.00269342
0.0364158
57.0719
7.34083
0.00744089
0.000825445
185.883
0.0007627
6.66348
0.000753477
0.000847779
163.885
167.931
0.00335963
0.000832213
3.7553
0.000744408
371.455
0.000751738
153.397
0.0283971
8.48804
0.113826
3.1534
1.95485
29.6997
0.000761019
0.000862332
0.00492714
61.2769
0.296851
304.744
0.000747589
0.00123382
0.00164125
258.283
60.45
271.086
0.00225036
0.00347885
0.811157
0.000751516
19.1863
36.9984
0.00881409
268.868
178.389
41.1474
0.00154882
1.44401
169.146
227.302
27.9011
0.0105469
118.664
0.509758
135.715
0.145672
2.28663
43.642
0.000761959
28.4455
0.00122251
0.00512708
0.00571358
0.0482294
0.000909738
10.9066
0.000746114
46.2619
0.132967
0.000867159
1.51765
0.000756581
0.771893
0.23008
40.4967
3.77223
92.3422
0.807624
0.000748577
0.000731454
4.78585
0.161819