/*--------------------------------*- C++ -*----------------------------------*\
| =========                 |                                                 |
| \\      /  F ield         | OpenFOAM: The Open Source CFD Toolbox           |
|  \\    /   O peration     | Version:  2.3.1                                 |
|   \\  /    A nd           | Web:      www.OpenFOAM.org                      |
|    \\/     M anipulation  |                                                 |
\*---------------------------------------------------------------------------*/
FoamFile
{
    version     2.0;
    format      ascii;
    class       volScalarField;
    location    "0.51";
    object      nut;
}
// * * * * * * * * * * * * * * * * * * * * * * * * * * * * * * * * * * * * * //

dimensions      [0 2 -1 0 0 0 0];

internalField   nonuniform List<scalar> 
9648
(
0.000272617
0.000272175
0.000272088
0.000271857
0.000271454
0.000270805
0.000269967
0.000268946
0.000267723
0.000266276
0.000264598
0.000262727
0.00026066
0.00025841
0.000256028
0.000253561
0.000251034
0.000248472
0.00024592
0.000243422
0.000240998
0.000238674
0.000236471
0.00023439
0.000232434
0.000230617
0.000228951
0.000227425
0.000226035
0.000224785
0.000223665
0.000222676
0.000221809
0.000221064
0.00022043
0.000219908
0.000219498
0.000219192
0.000218977
0.000218853
0.000218828
0.000218891
0.000219039
0.000219279
0.000219598
0.000219989
0.000220463
0.000221035
0.000221694
0.000222427
0.000223247
0.000224173
0.000225182
0.000226276
0.000227464
0.000228741
0.000230069
0.00023139
0.00023271
0.000234028
0.000235328
0.000461736
0.000465247
0.000468999
0.000473421
0.00047808
0.000482167
0.000487572
0.000495449
0.000505996
0.000519206
0.000535189
0.00055428
0.000576478
0.000601695
0.000629776
0.000660613
0.000693942
0.000729411
0.000766729
0.000805773
0.000846235
0.000887879
0.000930492
0.000973756
0.00101734
0.00106111
0.00110499
0.00114885
0.00119251
0.00123589
0.00127897
0.00132162
0.00136373
0.00140537
0.00144639
0.00148671
0.0015264
0.00156548
0.00160386
0.0016414
0.00167814
0.00171417
0.00174938
0.0017837
0.00181723
0.00184972
0.00188118
0.00191176
0.00194155
0.0019704
0.0019983
0.00202526
0.0020515
0.00207656
0.00210108
0.00212487
0.00214856
0.00217115
0.0021933
0.00221524
0.00223714
0.000802008
0.000841644
0.000878062
0.000912505
0.000947798
0.000985738
0.00102577
0.00106909
0.00111536
0.00116545
0.00121881
0.00127609
0.00133732
0.0014025
0.00147143
0.00154374
0.001619
0.00169666
0.00177632
0.00185769
0.0019404
0.00202415
0.00210846
0.00219286
0.00227695
0.00236047
0.0024433
0.00252521
0.00260614
0.00268604
0.00276484
0.00284255
0.00291917
0.0029945
0.00306843
0.00314107
0.00321233
0.00328236
0.00335109
0.00341851
0.00348464
0.00354941
0.00361299
0.00367534
0.00373639
0.00379615
0.00385457
0.00391186
0.00396781
0.00402259
0.00407618
0.00412866
0.0041806
0.00423058
0.0042808
0.00432903
0.00437708
0.00442231
0.00446773
0.0045124
0.00455645
0.00129439
0.00137197
0.00144501
0.00151526
0.00158504
0.00165606
0.00172897
0.0018046
0.00188328
0.00196588
0.00205228
0.00214302
0.00223802
0.00233745
0.00244082
0.00254758
0.0026571
0.00276875
0.00288212
0.00299691
0.00311285
0.00322945
0.00334622
0.00346254
0.00357794
0.00369214
0.003805
0.00391644
0.00402651
0.0041351
0.00424242
0.00434843
0.00445297
0.00455607
0.00465744
0.00475718
0.00485537
0.00495213
0.00504746
0.00514135
0.00523381
0.00532493
0.00541463
0.00550309
0.00559019
0.00567598
0.00576049
0.00584377
0.00592563
0.00600615
0.00608575
0.00616341
0.00623988
0.00631461
0.00638919
0.00646178
0.00653249
0.00660137
0.00666882
0.0067348
0.00679838
0.00187286
0.00198063
0.00208339
0.00218245
0.00227999
0.00237839
0.00247919
0.0025832
0.00269131
0.00280407
0.00292152
0.00304383
0.00317107
0.00330313
0.00343929
0.00357864
0.00372032
0.0038638
0.00400868
0.00415479
0.0043018
0.00444925
0.00459627
0.00474213
0.00488635
0.00502884
0.00516952
0.00530856
0.00544592
0.00558178
0.00571613
0.00584881
0.00597986
0.00610896
0.00623603
0.00636127
0.00648481
0.00660672
0.006727
0.00684558
0.00696257
0.0070779
0.00719177
0.00730408
0.00741485
0.00752407
0.00763164
0.00773763
0.00784222
0.00794477
0.00804591
0.00814526
0.00824229
0.00833723
0.00843051
0.00852228
0.00861135
0.00869828
0.00878312
0.00886533
0.00894483
0.00246813
0.00259724
0.002724
0.00284841
0.00297212
0.00309742
0.00322623
0.00335978
0.00349851
0.00364274
0.00379236
0.00394715
0.00410718
0.00427193
0.00444073
0.00461242
0.00478574
0.00496046
0.00513609
0.00531271
0.00549005
0.00566718
0.00584307
0.00601655
0.00618749
0.00635611
0.0065228
0.00668773
0.00685115
0.00701277
0.00717248
0.00732993
0.00748491
0.00763762
0.00778782
0.00793579
0.00808203
0.00822647
0.00836898
0.00850936
0.00864754
0.00878385
0.00891821
0.00905071
0.00918123
0.00930987
0.00943684
0.00956108
0.00968348
0.00980379
0.00992175
0.0100375
0.0101508
0.0102612
0.0103695
0.0104748
0.0105775
0.0106779
0.0107755
0.0108693
0.0109609
0.00304465
0.0031916
0.00334264
0.00349413
0.0036465
0.0038015
0.0039612
0.00412679
0.00429862
0.00447629
0.00465979
0.00484834
0.0050418
0.00523946
0.00544122
0.00564525
0.00585016
0.00605599
0.00626211
0.00646875
0.00667598
0.00688183
0.00708509
0.00728416
0.00747961
0.00767261
0.00786354
0.00805343
0.00824116
0.00842683
0.00860976
0.0087887
0.00896472
0.0091379
0.00930811
0.00947565
0.00964138
0.00980493
0.00996621
0.0101247
0.0102803
0.0104332
0.0105838
0.0107319
0.0108772
0.0110201
0.0111607
0.0112985
0.011434
0.0115665
0.0116964
0.0118234
0.0119472
0.0120681
0.0121854
0.0123001
0.012412
0.0125205
0.0126253
0.0127266
0.0128246
0.00359258
0.00375692
0.0039346
0.00411625
0.00430107
0.00448831
0.00468128
0.00488147
0.00508786
0.0053009
0.00551974
0.00574345
0.00597071
0.00620077
0.00643475
0.0066711
0.00690797
0.00714546
0.00738221
0.00761819
0.00785425
0.00808745
0.00831715
0.00854067
0.00875884
0.00897466
0.00918846
0.00940116
0.00961186
0.00981894
0.0100219
0.010219
0.0104116
0.0106022
0.0107892
0.0109724
0.0111537
0.0113326
0.0115089
0.0116822
0.0118516
0.0120172
0.0121786
0.0123374
0.0124924
0.0126442
0.012793
0.0129379
0.0130803
0.0132195
0.0133551
0.0134872
0.0136169
0.0137428
0.0138643
0.0139824
0.0140971
0.0142095
0.0143176
0.0144208
0.0145199
0.00411831
0.00429761
0.00450374
0.00471405
0.00493514
0.00515416
0.00537959
0.00561676
0.00585487
0.00610467
0.00635751
0.00662022
0.00688118
0.00714318
0.00740423
0.00767192
0.00794023
0.00820969
0.00848214
0.00874441
0.00900618
0.00926632
0.00952215
0.00977516
0.0100133
0.0102509
0.0104847
0.0107171
0.0109491
0.0111755
0.0113992
0.0116133
0.011814
0.0120173
0.0122204
0.0124153
0.0126065
0.012797
0.0129835
0.0131705
0.0133539
0.0135334
0.0137005
0.0138656
0.0140289
0.0141836
0.0143369
0.0144812
0.0146271
0.0147647
0.0149027
0.0150293
0.0151573
0.0152874
0.0154111
0.0155229
0.0156364
0.0157434
0.0158534
0.0159574
0.0160508
0.000236533
0.000237638
0.000238715
0.000239764
0.000240767
0.000241696
0.000242592
0.000243492
0.000244384
0.000245217
0.000245968
0.000246703
0.000247407
0.000248079
0.000248753
0.000249473
0.000250246
0.000251076
0.000251989
0.000253026
0.00025416
0.00025537
0.000256646
0.000257951
0.000259265
0.000260598
0.000261959
0.000263329
0.000264697
0.000266074
0.00026746
0.000268851
0.000270246
0.000271658
0.000273074
0.000274501
0.000275949
0.000277417
0.000278891
0.000280372
0.000281879
0.000283405
0.000284948
0.000286517
0.000288103
0.000289687
0.000291287
0.000292922
0.000294582
0.000296239
0.000297911
0.000299626
0.00030135
0.000303083
0.000304852
0.000306663
0.000308506
0.000310335
0.000312211
0.000314166
0.000316206
0.00225913
0.00227891
0.0022983
0.00231763
0.00233657
0.00235436
0.00237014
0.00238501
0.00239739
0.00240973
0.00242049
0.00243055
0.00243954
0.00244743
0.00245417
0.00245949
0.00246347
0.00246595
0.00246699
0.00246664
0.00246508
0.00246252
0.00245891
0.00245437
0.00244898
0.00244275
0.00243576
0.00242784
0.0024191
0.00240947
0.00239892
0.00238754
0.00237536
0.00236229
0.0023484
0.00233376
0.00231829
0.00230209
0.00228515
0.00226749
0.00224914
0.00223008
0.00221047
0.00219026
0.00216939
0.00214787
0.00212561
0.00210271
0.00207904
0.00205466
0.00202958
0.00200374
0.00197728
0.00194955
0.00192162
0.0018925
0.00186298
0.00183226
0.00180177
0.00177111
0.00174031
0.00459825
0.00463901
0.00467705
0.00471396
0.0047495
0.00478487
0.00481671
0.00484715
0.00487423
0.00490034
0.00492425
0.0049466
0.00496657
0.00498508
0.00500173
0.00501648
0.0050294
0.00504048
0.00504977
0.00505733
0.0050634
0.00506792
0.00507099
0.00507266
0.00507293
0.0050718
0.00506937
0.00506556
0.00506041
0.00505373
0.00504569
0.00503613
0.00502506
0.00501262
0.00499865
0.00498325
0.00496637
0.00494808
0.00492834
0.00490726
0.00488491
0.00486139
0.00483674
0.00481112
0.00478438
0.00475651
0.00472735
0.00469691
0.00466501
0.00463164
0.00459694
0.00456016
0.00452174
0.00448122
0.00443952
0.00439539
0.00434928
0.00430152
0.00425294
0.00420346
0.00415286
0.00686043
0.00692002
0.00697756
0.00703224
0.00708499
0.00713581
0.00718423
0.00722936
0.00727206
0.00731275
0.00735097
0.0073865
0.00741966
0.00745085
0.00747944
0.00750592
0.00753017
0.00755221
0.00757206
0.00758984
0.00760562
0.0076196
0.00763171
0.00764209
0.00765067
0.00765747
0.00766242
0.0076656
0.00766708
0.00766676
0.00766452
0.00766033
0.00765418
0.00764601
0.00763586
0.00762371
0.00760947
0.00759307
0.0075746
0.00755412
0.00753184
0.00750779
0.00748235
0.00745559
0.00742761
0.00739829
0.00736745
0.00733497
0.00730078
0.00726461
0.00722655
0.00718609
0.00714298
0.00709716
0.00704891
0.00699766
0.00694318
0.00688641
0.00682806
0.00676767
0.00670582
0.00902147
0.00909605
0.00916784
0.00923658
0.00930194
0.00936478
0.00942502
0.00948166
0.00953512
0.00958634
0.00963456
0.00968002
0.00972307
0.00976338
0.00980117
0.00983678
0.00986912
0.009899
0.0099262
0.00995078
0.00997297
0.00999294
0.0100108
0.0100266
0.0100403
0.0100518
0.0100612
0.0100687
0.0100742
0.010078
0.0100798
0.0100794
0.0100768
0.0100719
0.0100647
0.0100551
0.0100429
0.010028
0.0100104
0.00999005
0.00996717
0.00994198
0.00991491
0.00988633
0.00985643
0.00982528
0.00979263
0.00975789
0.00972161
0.00968367
0.00964345
0.00960055
0.00955467
0.00950533
0.00945276
0.0093957
0.00933509
0.00927145
0.00920533
0.00913637
0.00906585
0.0110489
0.0111341
0.0112154
0.0112943
0.0113694
0.0114409
0.0115093
0.0115735
0.0116345
0.0116922
0.0117474
0.0117995
0.0118486
0.0118949
0.0119382
0.0119787
0.0120159
0.0120503
0.0120815
0.0121092
0.012134
0.012156
0.0121756
0.0121929
0.0122076
0.0122198
0.0122294
0.0122367
0.0122421
0.0122459
0.0122482
0.0122484
0.0122464
0.0122422
0.0122359
0.0122269
0.0122149
0.0121998
0.0121814
0.0121597
0.0121347
0.0121064
0.0120755
0.0120426
0.0120082
0.0119729
0.0119359
0.0118973
0.0118571
0.0118159
0.0117726
0.011726
0.0116766
0.0116236
0.0115666
0.0115042
0.0114375
0.0113663
0.0112926
0.0112158
0.0111366
0.0129191
0.01301
0.013097
0.0131802
0.0132599
0.0133361
0.0134082
0.0134762
0.0135408
0.0136018
0.0136594
0.0137143
0.0137662
0.0138145
0.0138593
0.0139017
0.0139411
0.0139773
0.0140098
0.0140377
0.014062
0.0140829
0.0141008
0.0141161
0.0141286
0.0141379
0.014144
0.0141466
0.0141469
0.0141458
0.0141442
0.0141407
0.014136
0.0141294
0.0141217
0.0141118
0.0140981
0.0140809
0.0140604
0.0140365
0.0140087
0.0139765
0.0139402
0.0139013
0.0138604
0.0138192
0.0137751
0.0137298
0.013683
0.0136369
0.0135892
0.0135376
0.0134838
0.0134265
0.0133655
0.0132973
0.0132241
0.0131452
0.0130644
0.0129795
0.012892
0.0146154
0.0147067
0.0147937
0.0148761
0.0149546
0.0150285
0.015099
0.0151658
0.0152297
0.0152899
0.015346
0.0153996
0.0154508
0.0154986
0.0155416
0.0155811
0.0156193
0.0156555
0.0156882
0.0157157
0.0157374
0.0157559
0.0157707
0.0157817
0.0157899
0.0157946
0.0157958
0.0157915
0.0157823
0.0157708
0.0157602
0.0157472
0.0157345
0.0157204
0.0157085
0.0156964
0.0156794
0.0156572
0.0156322
0.0156053
0.0155751
0.0155403
0.0154992
0.0154539
0.0154064
0.0153591
0.0153063
0.0152528
0.015196
0.0151427
0.0150895
0.0150307
0.0149707
0.0149086
0.0148443
0.0147702
0.014691
0.0146038
0.0145158
0.0144234
0.0143288
0.0161463
0.0162337
0.0163191
0.0163916
0.0164635
0.0165233
0.0165865
0.0166377
0.0166921
0.0167502
0.016802
0.0168411
0.0168876
0.0169343
0.0169748
0.0170069
0.0170337
0.0170618
0.0170942
0.0171226
0.0171408
0.0171582
0.0171747
0.017182
0.0171832
0.0171808
0.0171792
0.017174
0.0171569
0.0171328
0.0171107
0.0170811
0.0170534
0.0170212
0.0169976
0.0169803
0.0169591
0.0169274
0.0168924
0.0168572
0.0168215
0.01679
0.0167458
0.016695
0.0166453
0.0165944
0.0165372
0.0164752
0.0164087
0.0163447
0.0162839
0.016215
0.0161428
0.0160763
0.0160062
0.0159294
0.0158433
0.0157503
0.0156535
0.0155546
0.0154524
0.000318246
0.000320267
0.000322367
0.000324545
0.000326773
0.000329004
0.000331271
0.000333602
0.000335976
0.000338375
0.000340791
0.000343247
0.000345715
0.000348274
0.000351412
0.000354313
0.000357132
0.000359938
0.000362746
0.00036558
0.000368425
0.000371285
0.000374168
0.000377054
0.000379929
0.0003828
0.000385668
0.000388521
0.00039134
0.000394127
0.000396873
0.000399567
0.000402196
0.000404762
0.00040724
0.000409625
0.000411909
0.000414065
0.000415934
0.00041729
0.000418224
0.000418745
0.000418854
0.000418545
0.000417763
0.000416443
0.000414543
0.000411998
0.000408686
0.000404451
0.00039916
0.000392644
0.000384614
0.000374746
0.000362119
0.000340854
0.000330489
0.000324976
0.000322714
0.00032164
0.000319465
0.00170896
0.00167755
0.00164559
0.00161343
0.00158103
0.00154872
0.00151594
0.00148345
0.00145085
0.00141864
0.00138706
0.00135515
0.0013237
0.00129247
0.00125775
0.00122303
0.00118879
0.00115521
0.00112239
0.00109037
0.00105912
0.00102844
0.000998318
0.000968729
0.000939652
0.000911126
0.000883126
0.000855703
0.000828835
0.000802529
0.000776821
0.000751735
0.000727263
0.000703451
0.000680357
0.000657999
0.000636475
0.000615861
0.000595764
0.000573568
0.000550809
0.000529052
0.000508377
0.000488964
0.000470911
0.000454412
0.000439737
0.000427142
0.000416888
0.000409299
0.000404731
0.000403607
0.000406347
0.000413488
0.000423758
0.000446578
0.000481644
0.000537592
0.000623357
0.000746651
0.000867968
0.00410166
0.0040497
0.00399676
0.00394229
0.00388648
0.00382962
0.00377167
0.00371308
0.00365382
0.00359444
0.00353324
0.00347173
0.00341287
0.00335386
0.00329203
0.0032277
0.00316194
0.00309598
0.00303019
0.00296489
0.0028999
0.00283489
0.00276983
0.00270475
0.00263952
0.00257424
0.00250883
0.00244334
0.00237761
0.00231173
0.00224559
0.00217918
0.00211256
0.00204563
0.00197846
0.00191102
0.00184339
0.00177551
0.00170719
0.00163711
0.00156498
0.00148107
0.00138978
0.00129572
0.00120008
0.0011041
0.00100942
0.000917544
0.000830447
0.000750079
0.000678363
0.000617091
0.000567438
0.000530684
0.000506582
0.000499111
0.000510929
0.000547125
0.000617265
0.00073526
0.000898693
0.00664283
0.00657941
0.00651431
0.00644688
0.00637662
0.00630466
0.00623107
0.00615662
0.00608168
0.006006
0.00592648
0.00584806
0.00577224
0.00569603
0.0056165
0.00553346
0.00544774
0.00536117
0.00527438
0.00518775
0.00510102
0.0050134
0.00492511
0.0048362
0.00474648
0.00465595
0.00456451
0.00447217
0.00437868
0.00428396
0.00418796
0.00409071
0.00399213
0.00389227
0.00379116
0.00368879
0.00358511
0.00348013
0.00337362
0.00326505
0.0031536
0.00303599
0.00290417
0.00275524
0.00259482
0.00242318
0.00224115
0.00205001
0.00185223
0.00165191
0.00145363
0.00126456
0.001091
0.000939566
0.00081394
0.000718918
0.000657401
0.000629477
0.000637361
0.000688652
0.000792193
0.0089933
0.0089201
0.0088449
0.00876726
0.00868516
0.00860057
0.00851402
0.00842718
0.00833953
0.00825099
0.00815751
0.00806547
0.00797535
0.0078849
0.00779096
0.00769294
0.00759141
0.00748902
0.0073862
0.00728344
0.00718008
0.00707493
0.0069687
0.00686155
0.00675294
0.00664306
0.00653155
0.00641841
0.00630323
0.00618599
0.00606661
0.00594529
0.0058221
0.00569719
0.00557056
0.00544233
0.00531252
0.00518108
0.00504786
0.00491259
0.00477473
0.00463303
0.00448433
0.0043197
0.00413701
0.00393872
0.0037233
0.00348934
0.00323567
0.00296314
0.00267323
0.00237072
0.00206443
0.00176666
0.00149137
0.00125271
0.00106245
0.000922902
0.000831647
0.000788127
0.000796018
0.0110543
0.0109714
0.0108867
0.0107993
0.0107062
0.0106098
0.0105104
0.0104113
0.0103117
0.0102115
0.0101056
0.0100007
0.00989715
0.00979389
0.00968644
0.00957486
0.00945929
0.00934359
0.00922739
0.00911124
0.00899388
0.00887341
0.00875192
0.00862964
0.00850523
0.00837905
0.00825048
0.00811965
0.00798574
0.00784912
0.00770968
0.00756817
0.00742471
0.00727972
0.00713305
0.00698501
0.00683559
0.00668489
0.00653279
0.00637918
0.00622361
0.00606561
0.00590374
0.0057344
0.00554718
0.00534522
0.00512579
0.00488737
0.00462688
0.00434147
0.00402907
0.00368827
0.00332089
0.00293461
0.00254176
0.00216311
0.00182105
0.00153097
0.00129912
0.00112665
0.00101318
0.0127994
0.0127066
0.0126127
0.0125167
0.0124127
0.0123043
0.0121918
0.0120806
0.0119694
0.0118586
0.0117403
0.0116231
0.011507
0.0113922
0.0112723
0.0111485
0.0110201
0.0108928
0.0107651
0.0106376
0.010508
0.0103733
0.0102386
0.0101037
0.00996532
0.00982455
0.00968019
0.00953329
0.00938184
0.00922723
0.00906938
0.0089103
0.00874963
0.00858836
0.00842575
0.00826253
0.00809843
0.00793411
0.00776931
0.00760424
0.00743825
0.00727115
0.00710224
0.00692965
0.00674935
0.00655095
0.00633768
0.00610757
0.00585797
0.00558598
0.00528776
0.00495939
0.00459818
0.0042026
0.00377717
0.00333327
0.00289024
0.00247107
0.00209408
0.00177146
0.00151057
0.0142261
0.0141228
0.0140197
0.0139158
0.0138017
0.0136819
0.0135567
0.0134328
0.0133104
0.0131896
0.0130598
0.0129312
0.012804
0.0126794
0.0125484
0.0124137
0.0122743
0.0121367
0.0119991
0.0118622
0.0117211
0.011573
0.0114267
0.0112813
0.0111296
0.0109741
0.010814
0.0106514
0.010482
0.0103095
0.010134
0.00995991
0.0097846
0.00961054
0.00943515
0.00926051
0.00908557
0.0089129
0.00874128
0.00857168
0.00840204
0.00823298
0.00806334
0.00789203
0.00771631
0.00752886
0.00732604
0.00710849
0.00687494
0.0066234
0.00635133
0.0060547
0.00572857
0.00536873
0.00497252
0.00454127
0.0040833
0.00361264
0.00314813
0.00270818
0.00231002
0.0153444
0.0152275
0.0151169
0.0150022
0.0148819
0.0147494
0.0146155
0.0144755
0.0143438
0.0142115
0.0140742
0.0139343
0.0138005
0.0136659
0.0135283
0.0133816
0.0132369
0.0130871
0.012942
0.0127994
0.0126452
0.0124868
0.0123302
0.0121726
0.0120071
0.0118336
0.0116594
0.0114786
0.0112906
0.0110995
0.0109093
0.0107233
0.0105357
0.0103516
0.010166
0.0099829
0.00980134
0.00962839
0.00945754
0.00929237
0.0091243
0.00895981
0.00879437
0.0086275
0.00845832
0.00828291
0.00809164
0.00788599
0.00766885
0.00744378
0.00720189
0.00694476
0.00666075
0.00635181
0.00600768
0.00563108
0.00521463
0.00476887
0.00429674
0.0038126
0.00333635
0.00031542
0.000310795
0.000305737
0.000300282
0.000294644
0.000288929
0.000283304
0.000277973
0.000273101
0.000268802
0.000265141
0.00026217
0.000259839
0.000258071
0.000256797
0.000255934
0.000255383
0.000255061
0.000254919
0.000254925
0.000255037
0.000255228
0.000255501
0.000255822
0.000256197
0.000256622
0.000257101
0.000257629
0.000258197
0.000258811
0.000259464
0.000260151
0.000260869
0.000261613
0.000262368
0.000263131
0.000263895
0.000264645
0.000265358
0.000266027
0.000266651
0.000267209
0.000267695
0.000268115
0.000268454
0.000268709
0.000268906
0.000269071
0.00026921
0.000269329
0.000269461
0.000269641
0.000269849
0.000270102
0.000270405
0.000270757
0.000271122
0.00027146
0.000271786
0.000272101
0.000272386
0.000932996
0.000988093
0.00103134
0.00105719
0.00106756
0.00106688
0.0010528
0.00102616
0.000989457
0.000944932
0.000894863
0.000842642
0.000790938
0.000741713
0.000695495
0.000653879
0.000618432
0.000589103
0.000565463
0.000546905
0.000532627
0.000521788
0.000513776
0.000507904
0.0005037
0.000501013
0.00049944
0.000498892
0.000499201
0.000500245
0.000501908
0.000504076
0.000506617
0.000509388
0.000512261
0.000515101
0.000517751
0.000520074
0.000521914
0.000523121
0.000523545
0.000523032
0.000521447
0.000518661
0.00051458
0.000509168
0.000502462
0.000494618
0.000485897
0.000476725
0.000467643
0.000459271
0.000452205
0.000446908
0.000443709
0.000442641
0.000443522
0.000445927
0.00044938
0.000453355
0.000457555
0.00106951
0.00124085
0.00140841
0.00155821
0.00165685
0.00173348
0.00178543
0.00180793
0.00180472
0.00177914
0.00173224
0.00166847
0.00159189
0.00150609
0.0014132
0.00131821
0.00122803
0.00114603
0.00107414
0.00101432
0.000966766
0.000930496
0.000903876
0.000885015
0.000872327
0.000864438
0.000860523
0.000859754
0.000861513
0.000865268
0.000870596
0.000877006
0.000884003
0.0008911
0.000897791
0.000903628
0.00090816
0.00091096
0.000911602
0.000909714
0.000904988
0.000897229
0.000886316
0.000872266
0.000855138
0.000835169
0.000812667
0.000788084
0.000761971
0.000735164
0.000708816
0.000684386
0.000663718
0.000648628
0.000640881
0.000641583
0.000651099
0.000669021
0.000694392
0.000725916
0.000762188
0.000944854
0.00114065
0.00136792
0.00160505
0.00182013
0.00201364
0.00219065
0.00231792
0.00240462
0.00246112
0.00248458
0.00247749
0.00244458
0.00238766
0.00230835
0.00221014
0.0020972
0.00198136
0.00186853
0.00176477
0.00167477
0.0016017
0.0015459
0.00150585
0.00147933
0.00146387
0.00145782
0.0014595
0.00146747
0.00148046
0.00149744
0.00151735
0.00153901
0.00156121
0.00158279
0.00160264
0.00161964
0.00163269
0.00164075
0.0016428
0.00163795
0.00162553
0.00160504
0.00157627
0.00153918
0.00149421
0.00144204
0.00138362
0.00131999
0.00125274
0.00118397
0.00111656
0.00105438
0.00100251
0.000966992
0.000953363
0.000964016
0.000999009
0.0010559
0.00112947
0.00121209
0.000859731
0.000983061
0.00116692
0.00140234
0.00166582
0.00193681
0.00220059
0.00243439
0.00263387
0.00280658
0.00293326
0.00301223
0.00305922
0.00307376
0.00305786
0.00301647
0.00295123
0.00286417
0.00276754
0.00266867
0.00257344
0.0024889
0.00241996
0.0023686
0.00233436
0.00231595
0.00231208
0.00232117
0.00234125
0.0023704
0.00240709
0.00244967
0.00249618
0.00254456
0.00259286
0.00263913
0.00268141
0.00271784
0.00274641
0.00276526
0.00277261
0.00276709
0.00274736
0.00271257
0.00266193
0.00259561
0.00251386
0.00241759
0.00230792
0.00218668
0.00205639
0.0019211
0.00178632
0.00166049
0.00155603
0.00148977
0.00146749
0.00149234
0.00155794
0.00165167
0.00176059
0.00096048
0.000970951
0.00104819
0.00119422
0.00140397
0.00166503
0.00195846
0.00225769
0.00254185
0.00280018
0.00301986
0.00319748
0.00334338
0.00344234
0.00349867
0.00352994
0.00353687
0.00352291
0.00349489
0.00345719
0.00341659
0.00337735
0.00334416
0.00332145
0.00331075
0.00331331
0.00333004
0.00336115
0.00340536
0.00346082
0.00352615
0.00359944
0.00367835
0.0037602
0.0038424
0.00392226
0.00399718
0.00406443
0.00412121
0.00416482
0.00419263
0.00420257
0.00419253
0.0041609
0.00410589
0.00402724
0.00392433
0.00379755
0.00364727
0.00347505
0.00328292
0.00307498
0.0028572
0.00263904
0.0024364
0.00227189
0.00216209
0.00212072
0.00214744
0.0022275
0.00234034
0.00131613
0.00119076
0.0011365
0.00115541
0.00124836
0.00141381
0.00164501
0.00192642
0.00223597
0.0025496
0.00284436
0.00310533
0.00332792
0.00350675
0.00364589
0.0037609
0.00383883
0.00389034
0.00393281
0.00396943
0.00401097
0.00405636
0.00410476
0.0041559
0.00421187
0.0042737
0.00434385
0.00442409
0.00451439
0.00461349
0.00472079
0.0048347
0.00495317
0.00507354
0.00519319
0.00530924
0.00541869
0.00551826
0.00560452
0.00567413
0.00572391
0.00575126
0.00575357
0.00572878
0.00567411
0.00558863
0.00547089
0.00532067
0.00513774
0.00492282
0.00467723
0.00440446
0.00410946
0.00380069
0.00349316
0.00321
0.00298055
0.00283214
0.00277922
0.00281403
0.00291133
0.0019672
0.00169044
0.00148655
0.00135983
0.001312
0.00134332
0.00145248
0.00163481
0.00188041
0.00217219
0.00248683
0.0028002
0.00309388
0.00335334
0.00357378
0.00375838
0.00390872
0.0040314
0.00414508
0.00423427
0.00433943
0.00445636
0.00458465
0.00472297
0.00487151
0.00502653
0.00518494
0.00534546
0.00550994
0.00567697
0.00584613
0.00601565
0.006184
0.00634976
0.00651085
0.00666515
0.0068099
0.00694164
0.00705639
0.00715044
0.00722104
0.00726452
0.00727852
0.00726087
0.00720816
0.00711809
0.00698943
0.00682003
0.00661025
0.0063595
0.00606904
0.00574072
0.00537804
0.0049884
0.00458383
0.00418754
0.00383375
0.00356494
0.00341393
0.00338688
0.00345798
0.00288231
0.00247259
0.00212216
0.00184081
0.00163845
0.00151869
0.00148269
0.00152817
0.00165147
0.0018456
0.00209751
0.00239055
0.00270559
0.00302154
0.0033204
0.00359556
0.00383288
0.00403226
0.00419642
0.00433347
0.00449708
0.0046565
0.00482857
0.00502107
0.00524088
0.00548178
0.005738
0.00600071
0.00626248
0.00652124
0.00677509
0.00701983
0.00725152
0.00747354
0.00768256
0.0078796
0.00806269
0.00822856
0.00837234
0.00848954
0.00858147
0.00863901
0.00866435
0.00865324
0.00860449
0.0085111
0.00837632
0.00818936
0.00795854
0.0076768
0.00735075
0.00697638
0.0065562
0.00610051
0.0056145
0.0051197
0.00465586
0.00427786
0.00403217
0.00394231
0.0039826
0.00486628
0.0179917
0.0181666
0.00198547
0.00506414
0.00710598
0.0012493
0.00605439
0.00129102
0.00336124
0.0105093
0.0155959
0.00124932
0.0137477
0.00666768
0.0189523
0.00126393
0.00652114
0.00991169
0.00125042
0.00198945
0.0136472
0.0180773
0.00127805
0.00128062
0.00481628
0.00125063
0.00301649
0.00126033
0.00132007
0.0073292
0.00126804
0.00274064
0.00905203
0.0145122
0.00917547
0.00795394
0.0148514
0.00124685
0.0130709
0.00475431
0.0121182
0.0012468
0.0186326
0.00544927
0.0100183
0.00134774
0.00240411
0.00123964
0.0158205
0.0105687
0.0147375
0.00123996
0.00144219
0.0020113
0.000179001
0.00131744
0.00445588
0.0087994
0.0170082
0.00394713
0.00135857
0.00122445
0.00365158
0.0181764
0.00819619
0.00907041
0.00441249
0.00148567
0.00124253
0.0137983
0.0148713
0.00457089
0.000666454
0.0027205
0.0180479
0.01791
0.0178837
0.00123825
0.0150389
0.00194503
0.0123334
0.000813623
0.0189222
0.00124254
0.0126109
0.00128658
0.011876
0.00181551
0.00159558
0.00552632
0.00123728
0.00138438
0.0164466
0.0178934
0.00134561
0.0111223
0.00454032
0.00178328
0.0180836
0.00441725
0.0176671
0.00860768
0.00123616
0.00124178
0.00123818
0.00593557
0.00671449
0.00126458
0.0183706
0.0178466
0.00165518
0.00818243
0.00772392
0.00527385
0.0123595
0.0101499
0.00140642
0.00595459
0.0014288
0.00118516
0.00577201
0.00155131
0.0163752
0.0125151
0.00324864
0.00124622
0.0138063
0.0142978
0.00124637
0.00351463
0.00373452
0.00282637
0.00155739
0.0131478
0.00124567
0.00124174
0.012957
0.0152153
0.00125335
0.00325499
0.018126
0.00430207
0.00921295
0.00829787
0.0170174
0.000447558
0.0089389
0.00250895
0.0162771
0.0124372
0.000191198
0.0148793
0.0188787
0.0181033
0.00128918
0.00127143
0.00829195
0.00123756
0.00822239
0.000719176
0.00162498
0.00124346
0.00124742
0.00124292
0.018499
0.00411283
0.00615591
0.00128681
0.0145937
0.00671884
0.00218609
0.013025
0.0025522
0.00806777
0.00595943
0.011475
0.00126079
0.00171609
0.00385742
0.012419
0.0124565
0.0160026
0.00124794
0.00133089
0.00921499
0.0039409
0.0119228
0.00124466
0.00134742
0.00577289
0.00129881
0.0159089
0.0106601
0.00123298
0.00871751
0.00320928
0.0180523
0.00151762
0.00629213
0.00124768
0.00125373
0.0200836
0.015482
0.0157358
0.00152589
0.00129682
0.00185231
0.0152199
0.00563183
0.011273
0.0176655
0.015749
0.0177663
0.00380867
0.0194168
0.0173749
0.0123008
0.0163553
0.012207
0.00149859
0.00421085
0.00125159
0.00125948
0.0105408
0.0029675
0.00311487
0.00149944
0.00247736
0.0150561
0.0103051
0.00289923
0.0181214
0.0145471
0.00455151
0.00124506
0.00422193
0.0184596
0.0137689
0.00145214
0.00959914
0.00344736
0.00327835
0.00253206
0.0168388
0.00721479
0.00407475
0.0189095
0.00139062
0.00124091
0.00142869
0.00232327
0.00964107
0.00130162
0.00153478
0.00124585
0.00789189
0.0189594
0.0182153
0.0137179
0.012272
0.0170308
0.0155186
0.00148981
0.0080141
0.0181229
0.0012461
0.00456273
0.00124265
0.00435715
0.00781412
0.00440573
0.00165858
0.0012463
0.0166794
0.00301505
0.00124292
0.00125587
0.00125898
0.00126202
0.0100042
0.00621996
0.0181866
0.00182974
0.00124287
0.00124402
0.00123665
0.0192941
0.00397
0.00151198
0.0120421
0.00598704
0.00161911
0.00123702
0.00821412
0.00124266
0.00212007
0.00390398
0.00732819
0.00256891
0.00141219
0.00174043
0.0175269
0.0048694
0.00255686
0.0154195
0.00131796
0.00124336
0.00124557
0.0189569
0.00127626
0.0152691
0.0012453
0.0120052
0.0106872
0.00272997
0.00580203
0.00573081
0.00155065
0.0133243
0.0123867
0.00264401
0.0210497
0.011275
0.0153442
0.013931
0.0188653
0.00818841
0.018653
0.00450877
0.00667151
0.0154251
0.0166244
0.0129324
0.0121583
0.00139886
0.0162723
0.0056933
0.0177674
0.00364089
0.00133551
0.00124655
0.00130052
0.00385626
0.01045
0.00742693
0.00615055
0.00124911
0.0183103
0.00124612
0.00721653
0.0138012
0.0183386
0.0150227
0.0166207
0.00166477
0.00147962
0.00157124
0.00857798
0.00220387
0.00578301
0.00956288
0.0105244
0.0188087
0.0180786
0.0154574
0.0013185
0.0164937
0.0178779
0.00272938
0.00125455
0.0181173
0.0181822
0.00127959
0.0115288
0.00125556
0.010382
0.0171296
0.011274
0.0193008
0.00530807
0.0184159
0.00127609
0.0185473
0.00139393
0.0170538
0.0182007
0.0116284
0.0165989
0.0132444
0.00839868
0.0109594
0.00147738
0.00369544
0.00121027
0.00206201
0.00128028
0.00714312
0.00138704
0.0188301
0.00124313
0.00125614
0.00176821
0.00908196
0.00507644
0.0135749
0.00150393
0.019189
0.00783322
0.0179592
0.00603022
0.0159343
0.0103194
0.00129861
0.0166408
0.0186266
0.00125079
0.0181563
0.014427
0.00123884
0.0012417
0.00873274
0.0018402
0.0129326
0.00156215
0.00689213
0.00366946
0.0094434
0.0152007
0.018753
0.0156038
0.0177583
0.0166927
0.00139823
0.00128694
0.00892343
0.0113992
0.0150505
0.0110822
0.0182109
0.00453472
0.017995
0.0179644
0.00659284
0.00287641
0.0149934
0.0144157
0.00131869
0.0186312
0.013958
0.00145084
0.0188652
0.0174901
0.0150214
0.00343892
0.00459909
0.0132191
0.00166704
0.0152044
0.00154503
0.00321155
0.00125207
0.011891
0.00278425
0.00867286
0.00157501
0.0013648
0.00902791
0.00874931
0.00188829
0.00285029
0.0107365
0.00271878
0.00131061
0.0169473
0.00906908
0.0131883
0.00783827
0.00345807
0.0119719
0.0176273
0.018862
0.00647175
0.01233
0.0159603
0.0058817
0.0144638
0.0185666
0.000396418
0.00617938
0.0122905
0.00129691
0.00313266
0.00799674
0.0124519
0.00279269