/*--------------------------------*- C++ -*----------------------------------*\
| =========                 |                                                 |
| \\      /  F ield         | OpenFOAM: The Open Source CFD Toolbox           |
|  \\    /   O peration     | Version:  2.3.1                                 |
|   \\  /    A nd           | Web:      www.OpenFOAM.org                      |
|    \\/     M anipulation  |                                                 |
\*---------------------------------------------------------------------------*/
FoamFile
{
    version     2.0;
    format      ascii;
    class       surfaceScalarField;
    location    "0.51";
    object      phi;
}
// * * * * * * * * * * * * * * * * * * * * * * * * * * * * * * * * * * * * * //

dimensions      [0 3 -1 0 0 0 0];

internalField   nonuniform List<scalar> 
15416
(
-0.000710138
-6.89778e-06
0.000713013
-0.000705779
-4.36605e-06
-0.000703254
-2.52504e-06
-0.000701944
-1.30852e-06
-0.000701878
-6.33448e-08
-0.000703351
1.47597e-06
-0.000707072
3.724e-06
-0.000713316
6.24781e-06
-0.000722253
8.94045e-06
-0.000734222
1.19736e-05
-0.000749637
1.54201e-05
-0.000768714
1.90851e-05
-0.000791591
2.28873e-05
-0.000818358
2.67758e-05
-0.000849118
3.0761e-05
-0.000883794
3.4669e-05
-0.000922202
3.83936e-05
-0.000964134
4.19239e-05
-0.00100946
4.53183e-05
-0.00105785
4.84031e-05
-0.00110904
5.12177e-05
-0.00116279
5.37584e-05
-0.00121871
5.5948e-05
-0.00127645
5.77607e-05
-0.00133578
5.9346e-05
-0.00139646
6.07074e-05
-0.00145821
6.17441e-05
-0.00152069
6.24773e-05
-0.00158367
6.29819e-05
-0.00164697
6.33127e-05
-0.0017103
6.33604e-05
-0.00177346
6.31873e-05
-0.00183635
6.2923e-05
-0.00189873
6.24186e-05
-0.00196041
6.1715e-05
-0.00202133
6.09576e-05
-0.00208138
6.00886e-05
-0.00214039
5.90369e-05
-0.00219814
5.77608e-05
-0.0022546
5.64734e-05
-0.00230977
5.51727e-05
-0.00236346
5.36991e-05
-0.00241557
5.21056e-05
-0.00246612
5.05601e-05
-0.00251485
4.8735e-05
-0.00256173
4.68844e-05
-0.00260686
4.51415e-05
-0.00265026
4.34039e-05
-0.00269172
4.14692e-05
-0.00273118
3.94778e-05
-0.00276862
3.74511e-05
-0.0028042
3.55953e-05
-0.00283743
3.32415e-05
-0.00286877
3.1347e-05
-0.002898
2.92431e-05
-0.0029255
2.75027e-05
-0.0029503
2.48113e-05
-0.00297284
2.25454e-05
-0.00299348
2.06377e-05
-0.00301237
1.88926e-05
1.7181e-05
-0.00302955
-0.000409135
-5.5712e-06
0.000407792
-0.000411474
-2.03128e-06
-0.000415817
1.8146e-06
-0.000423152
6.02467e-06
-0.000434792
1.15739e-05
-0.000450083
1.67654e-05
-0.000469232
2.28708e-05
-0.000492051
2.90655e-05
-0.000519252
3.61399e-05
-0.000550382
4.31005e-05
-0.000585633
5.06715e-05
-0.000624869
5.83238e-05
-0.000667997
6.60197e-05
-0.000714904
7.36807e-05
-0.0007653
8.11423e-05
-0.000819047
8.83949e-05
-0.000875874
9.52056e-05
-0.000935573
0.000101611
-0.000997789
0.000107546
-0.00106233
0.000112956
-0.00112899
0.000117877
-0.00119731
0.000122096
-0.0012671
0.000125734
-0.00133814
0.000128809
-0.00141012
0.000131335
-0.00148284
0.000133382
-0.00155595
0.000134814
-0.00162938
0.000135864
-0.00170281
0.000136396
-0.00177589
0.000136428
-0.00184866
0.000136166
-0.00192095
0.000135525
-0.00199237
0.00013439
-0.00206289
0.000132989
-0.00213252
0.000131389
-0.00220086
0.000129346
-0.00226795
0.000127211
-0.00233365
0.000124757
-0.00239795
0.000122073
-0.00246064
0.000119169
-0.00252143
0.000115956
-0.0025806
0.000112849
-0.00263795
0.000109437
-0.0026932
0.000105803
-0.00274654
0.000102066
-0.00279778
9.81105e-05
-0.00284697
9.43356e-05
-0.0028937
9.01323e-05
-0.00293834
8.61108e-05
-0.00298083
8.19708e-05
-0.00302117
7.77982e-05
-0.00305967
7.41057e-05
-0.0030947
6.82795e-05
-0.00312904
6.56917e-05
-0.00315955
5.97626e-05
-0.00318851
5.64725e-05
-0.00321311
4.94167e-05
-0.00323753
4.69794e-05
-0.00325967
4.27818e-05
-0.00327963
3.886e-05
3.27904e-05
-0.00329524
-0.000265161
3.32683e-06
0.000256262
-0.000276661
9.47092e-06
-0.000291746
1.69003e-05
-0.000310935
2.52122e-05
-0.000333608
3.42468e-05
-0.00036069
4.3846e-05
-0.000391762
5.39415e-05
-0.00042714
6.4443e-05
-0.000466764
7.57611e-05
-0.000510751
8.70885e-05
-0.000558839
9.87614e-05
-0.000610658
0.00011015
-0.000666349
0.000121713
-0.00072554
0.000132865
-0.000788033
0.000143616
-0.000853533
0.00015387
-0.000921809
0.00016347
-0.00099258
0.000172403
-0.00106554
0.000180545
-0.00114055
0.000188004
-0.00121713
0.00019448
-0.00129522
0.000200144
-0.00137449
0.000204959
-0.00145468
0.000208953
-0.00153553
0.000212154
-0.00161679
0.000214649
-0.00169829
0.000216306
-0.00177972
0.00021731
-0.00186077
0.00021748
-0.00194156
0.000217256
-0.00202163
0.000216302
-0.00210081
0.000214759
-0.00217928
0.000212926
-0.00225655
0.000210333
-0.00233254
0.000207435
-0.00240719
0.000204037
-0.00248035
0.000200379
-0.00255186
0.000196255
-0.00262168
0.000191874
-0.00268971
0.000187179
-0.00275598
0.000182217
-0.00281995
0.000176806
-0.00288197
0.000171456
-0.00294181
0.000165638
-0.00299945
0.000159704
-0.00305492
0.000153573
-0.00310796
0.000147371
-0.00315868
0.000140859
-0.00320684
0.000134267
-0.00325319
0.000128325
-0.00329583
0.00012044
-0.00333587
0.000114145
-0.00337427
0.000106686
-0.00341036
0.000101787
-0.00344429
9.37009e-05
-0.00347392
8.61137e-05
-0.0035034
7.89051e-05
-0.00352855
7.21312e-05
-0.00355146
6.56962e-05
-0.00357009
5.74953e-05
5.13177e-05
-0.00358861
-0.000194462
1.96503e-05
0.000178146
-0.000214595
2.96065e-05
-0.000238574
4.08791e-05
-0.0002665
5.31383e-05
-0.000298555
6.63003e-05
-0.000334926
8.02152e-05
-0.000375566
9.4579e-05
-0.000420877
0.000109752
-0.000470451
0.000125333
-0.000524412
0.00014105
-0.000582338
0.000156692
-0.000644433
0.000172249
-0.000710281
0.000187559
-0.000779473
0.000202035
-0.00085194
0.000216048
-0.000927304
0.000229221
-0.00100527
0.000241457
-0.00108552
0.000252731
-0.00116788
0.00026299
-0.00125196
0.0002721
-0.00133775
0.000280194
-0.0014247
0.000286995
-0.00151273
0.000292868
-0.00160148
0.00029768
-0.0016908
0.000301513
-0.00178029
0.000304165
-0.00186978
0.000305879
-0.00195905
0.000306641
-0.00204795
0.00030644
-0.00213602
0.000305394
-0.00222341
0.000303722
-0.00230999
0.000301374
-0.00239523
0.000298192
-0.00247933
0.000294443
-0.00256205
0.000290155
-0.00264324
0.000285198
-0.00272256
0.000279641
-0.00280018
0.000273809
-0.0028759
0.000267518
-0.00294973
0.000260959
-0.00302125
0.000253716
-0.00309085
0.000246393
-0.00315786
0.000238477
-0.00322264
0.000230432
-0.00328491
0.000221985
-0.00334467
0.000213333
-0.00340186
0.000204563
-0.00345678
0.00019578
-0.00350833
0.000185815
-0.00355733
0.000177322
-0.0036049
0.000168019
-0.00364837
0.00015761
-0.0036896
0.000147919
-0.00372669
0.000138879
-0.00376341
0.000130429
-0.00379598
0.000118688
-0.00382628
0.000109208
-0.00385433
0.000100184
-0.00387817
8.95393e-05
-0.00389976
7.90821e-05
6.86993e-05
-0.00391714
-0.000161217
4.26573e-05
0.000138211
-0.000188023
5.64129e-05
-0.000219097
7.19547e-05
-0.000254589
8.86298e-05
-0.000294557
0.000106267
-0.000339241
0.000124896
-0.000388857
0.000144193
-0.000442907
0.000163798
-0.000501668
0.000184093
-0.000564781
0.000204166
-0.000632309
0.000224224
-0.000703958
0.000243899
-0.000779213
0.000262795
-0.000858116
0.000280904
-0.000940434
0.000298342
-0.00102513
0.000313927
-0.00111249
0.000328899
-0.00120209
0.000342454
-0.00129363
0.000354582
-0.00138698
0.000365399
-0.00148176
0.000374821
-0.00157783
0.000382864
-0.0016747
0.00038968
-0.00177213
0.000395155
-0.00186981
0.000399286
-0.00196779
0.000402275
-0.00206555
0.000403672
-0.00216286
0.000403993
-0.00225952
0.000403161
-0.0023555
0.000401403
-0.00245051
0.000398774
-0.00254436
0.000395234
-0.00263704
0.000390849
-0.00272833
0.000385696
-0.00281788
0.000379624
-0.00290562
0.000372816
-0.00299174
0.00036563
-0.00307568
0.000357645
-0.00315749
0.00034927
-0.00323697
0.000340417
-0.00331441
0.000331143
-0.00338928
0.000321286
-0.00346174
0.000310961
-0.00353155
0.000300262
-0.00359868
0.00028913
-0.00366376
0.000278419
-0.00372405
0.000264861
-0.00378227
0.000254002
-0.00383882
0.000242356
-0.00389138
0.000229883
-0.00394162
0.000218267
-0.00398965
0.000205643
-0.00403369
0.000191957
-0.00407545
0.000180645
-0.0041112
0.000166179
-0.00414649
0.000153976
-0.00417953
0.000142252
-0.00420838
0.000129027
-0.00423305
0.000114211
-0.00425745
0.000103484
8.89154e-05
-0.00427767
-0.000146638
7.17947e-05
0.0001175
-0.000180201
8.9976e-05
-0.000218267
0.000110021
-0.000261451
0.000131814
-0.000309685
0.000154498
-0.00036282
0.000178029
-0.000420914
0.000202282
-0.000484168
0.000227051
-0.00055209
0.000252016
-0.000624944
0.000277023
-0.000702232
0.000301515
-0.000783518
0.000325175
-0.000868835
0.000348091
-0.000957383
0.000369414
-0.00104893
0.000389878
-0.00114347
0.000408536
-0.00124049
0.00042605
-0.00133987
0.000441964
-0.00144102
0.000455748
-0.00154387
0.000468023
-0.00164824
0.000478924
-0.00175343
0.000487935
-0.00185943
0.000495726
-0.00196583
0.000501873
-0.00207254
0.000506244
-0.00217919
0.000508921
-0.00228559
0.000510014
-0.00239137
0.00050963
-0.00249639
0.000508124
-0.00260049
0.000505621
-0.00270354
0.000501953
-0.00280525
0.000496993
-0.00290559
0.000491171
-0.00300435
0.000484296
-0.00310113
0.000476227
-0.00319602
0.000467564
-0.0032887
0.000458178
-0.00337915
0.000448096
-0.00346741
0.000437618
-0.00355338
0.000426505
-0.00363657
0.000414456
-0.00371728
0.000402047
-0.00379513
0.000388849
-0.00386972
0.000374853
-0.00394175
0.000361162
-0.00401111
0.000347774
-0.00407841
0.000332154
-0.00414165
0.00031724
-0.0042009
0.000301606
-0.00425786
0.000286852
-0.00431082
0.000271232
-0.00435968
0.000254507
-0.00440807
0.000240351
-0.00445063
0.000223212
-0.00449276
0.000208314
-0.00453075
0.000191971
-0.00456258
0.000174079
-0.0045921
0.000158553
-0.0046214
0.000143518
-0.00464463
0.000126715
0.000109931
-0.00466565
-0.000145321
0.000106961
0.000110153
-0.000185737
0.000130392
-0.000231425
0.000155708
-0.000282747
0.000183135
-0.000339285
0.000211033
-0.00040148
0.000240219
-0.000468992
0.000269792
-0.000541593
0.000299648
-0.000619559
0.000329984
-0.000702007
0.000359474
-0.000789371
0.000388876
-0.000881059
0.000416859
-0.000976371
0.000443365
-0.00107503
0.000468055
-0.00117729
0.000492175
-0.00128222
0.000513565
-0.00138925
0.000533277
-0.00149868
0.000551492
-0.00160997
0.000566822
-0.00172305
0.000580801
-0.00183735
0.000592957
-0.0019524
0.000602977
-0.00206799
0.000611883
-0.00218391
0.000618275
-0.00229997
0.000622489
-0.00241599
0.000624803
-0.00253139
0.000624938
-0.00264626
0.000624229
-0.00276015
0.000622112
-0.00287275
0.000618469
-0.00298432
0.000613784
-0.00309444
0.000607194
-0.00320265
0.000599175
-0.00330916
0.000590568
-0.00341372
0.000580555
-0.0035158
0.000569407
-0.00361564
0.000558011
-0.00371288
0.000545627
-0.00380763
0.000532678
-0.00389977
0.000518964
-0.00398938
0.000504238
-0.0040754
0.000488154
-0.00415914
0.000472558
-0.0042397
0.000455379
-0.00431749
0.000438905
-0.00439126
0.00042151
-0.00446111
0.000401979
-0.00452852
0.000384645
-0.00459361
0.000366699
-0.00465293
0.000346177
-0.00470998
0.000328289
-0.00476473
0.000309268
-0.00481369
0.000289315
-0.00486053
0.000270063
-0.00490331
0.000251112
-0.00494185
0.000230521
-0.00497988
0.000212121
-0.00501179
0.000190474
-0.00503972
0.000171455
-0.00506365
0.000150656
0.00013163
-0.00508535
-0.000154722
0.000148327
0.000113354
-0.000202338
0.000178007
-0.000255865
0.000209235
-0.000316119
0.000243387
-0.000382027
0.000276937
-0.000453639
0.000311827
-0.000531105
0.000347251
-0.000613474
0.00038202
-0.000701853
0.000418366
-0.000794851
0.000452472
-0.000893424
0.000487453
-0.000995681
0.000519097
-0.00110263
0.000550308
-0.00121193
0.000577328
-0.00132461
0.000604881
-0.00144075
0.000629871
-0.00155884
0.00065151
-0.00167919
0.000671765
-0.00180186
0.000689241
-0.00192504
0.000703566
-0.00205015
0.00071792
-0.00217506
0.0007284
-0.00230125
0.000738748
-0.00242763
0.000745179
-0.00255374
0.000748584
-0.00268018
0.000750703
-0.00280499
0.000749381
-0.00292915
0.000748337
-0.00305248
0.000745728
-0.00317374
0.000740157
-0.00329448
0.000734597
-0.0034136
0.0007258
-0.00353002
0.000714824
-0.00364487
0.00070462
-0.0037578
0.000693037
-0.00386713
0.000678942
-0.00397408
0.000665664
-0.00407844
0.000650671
-0.00417955
0.000634217
-0.0042784
0.000618039
-0.00437479
0.000600678
-0.00446834
0.000581563
-0.00455614
0.000560296
-0.00464319
0.000542343
-0.0047252
0.000520847
-0.0048028
0.000499047
-0.00488004
0.000479188
-0.00495095
0.000455543
-0.00501826
0.000434018
-0.00508271
0.000410636
-0.00514201
0.000387604
-0.00519862
0.000365885
-0.00525123
0.000341931
-0.0053021
0.000320934
-0.00534733
0.000296361
-0.00538979
0.000272987
-0.00542625
0.000248591
-0.005458
0.000222242
-0.00548806
0.000201522
-0.00551457
0.000177183
0.000153708
-0.00553664
-0.00017269
0.000125895
0.000195123
-0.000228733
0.000234053
-0.000289373
0.000269878
-0.000360009
0.000314025
-0.000435159
0.000352085
-0.000517183
0.000393848
-0.000605402
0.000435472
-0.000696977
0.000473602
-0.000798223
0.000519617
-0.000900639
0.000554887
-0.00101281
0.00059962
-0.00112508
0.000631364
-0.00124701
0.000672211
-0.001365
0.000695279
-0.00149038
0.000730313
-0.00161925
0.000758885
-0.00174713
0.000779521
-0.00188099
0.000805585
-0.00201513
0.000822907
-0.00214852
0.000836615
-0.00228819
0.000857597
-0.00242156
0.000862442
-0.00256017
0.000878186
-0.00269823
0.00088348
-0.0028349
0.000884471
-0.00297416
0.000889166
-0.00310742
0.0008824
-0.0032418
0.000883427
-0.00337614
0.000880958
-0.00350556
0.000869748
-0.00363704
0.000865592
-0.00376536
0.000852848
-0.00388985
0.000838296
-0.0040132
0.000827211
-0.00413642
0.000816204
-0.00425143
0.000794475
-0.00436734
0.000783094
-0.00447908
0.000763603
-0.00458625
0.000741758
-0.00469398
0.000725757
-0.00479363
0.000700171
-0.00489399
0.000681685
-0.00498821
0.000654356
-0.00507905
0.000633173
-0.00516898
0.000610734
-0.00525138
0.000581408
-0.00533256
0.000560324
-0.00540662
0.000529588
-0.00547864
0.000506045
-0.00554447
0.000476467
-0.00561024
0.00045338
-0.00566894
0.000424579
-0.00572443
0.000397425
-0.00577606
0.000372559
-0.00582536
0.000345668
-0.00586668
0.000314307
-0.00590647
0.000288388
-0.00593973
0.000255503
-0.00597039
0.000232179
-0.00599757
0.000204371
-0.00601905
0.000175191
-0.00304314
1.3588e-05
-0.00305492
1.17733e-05
-0.003065
1.00803e-05
-0.0030732
8.19997e-06
-0.00307914
5.94326e-06
-0.00308246
3.32418e-06
-0.00308403
1.57194e-06
-0.00308351
-5.22795e-07
-0.00308099
-2.51396e-06
-0.00307604
-4.94752e-06
-0.0030692
-6.83884e-06
-0.00306031
-8.87819e-06
-0.00304936
-1.09467e-05
-0.00303634
-1.30137e-05
-0.00302157
-1.47731e-05
-0.00300494
-1.66175e-05
-0.0029863
-1.86428e-05
-0.0029656
-2.06905e-05
-0.0029432
-2.23939e-05
-0.00291892
-2.42744e-05
-0.00289285
-2.60685e-05
-0.00286515
-2.76933e-05
-0.0028357
-2.94395e-05
-0.00280442
-3.12742e-05
-0.0027715
-3.29143e-05
-0.00273719
-3.4304e-05
-0.00270122
-3.59617e-05
-0.00266358
-3.76348e-05
-0.00262439
-3.91767e-05
-0.00258383
-4.05587e-05
-0.00254177
-4.20506e-05
-0.00249826
-4.34981e-05
-0.00245351
-4.4746e-05
-0.00240744
-4.60613e-05
-0.00236004
-4.7391e-05
-0.00231149
-4.85519e-05
-0.00226183
-4.96457e-05
-0.00221106
-5.07727e-05
-0.00215908
-5.19735e-05
-0.00210606
-5.30095e-05
-0.00205215
-5.39048e-05
-0.00199731
-5.48398e-05
-0.00194154
-5.57614e-05
-0.00188502
-5.65144e-05
-0.00182761
-5.74142e-05
-0.00176938
-5.82273e-05
-0.00171051
-5.88612e-05
-0.0016511
-5.94104e-05
-0.00159102
-6.00814e-05
-0.00153037
-6.06521e-05
-0.00146926
-6.11038e-05
-0.00140782
-6.14409e-05
-0.00134586
-6.19625e-05
-0.00128367
-6.21871e-05
-0.00122125
-6.24259e-05
-0.0011588
-6.24518e-05
-0.00109606
-6.27444e-05
-0.00103326
-6.27997e-05
-0.000970583
-6.26751e-05
-0.000908109
-6.24748e-05
-6.22359e-05
-0.000845874
-0.0033107
2.90475e-05
-0.00332157
2.26508e-05
-0.00333044
1.89456e-05
-0.00333708
1.48398e-05
-0.00334358
1.24536e-05
-0.0033459
5.64148e-06
-0.00334665
2.32639e-06
-0.00334361
-3.56582e-06
-0.00333992
-6.2032e-06
-0.00333263
-1.2231e-05
-0.00332351
-1.59586e-05
-0.00331208
-2.03026e-05
-0.00329859
-2.44322e-05
-0.00328324
-2.83674e-05
-0.00326541
-3.25926e-05
-0.00324554
-3.64836e-05
-0.00322354
-4.06429e-05
-0.00319959
-4.46439e-05
-0.0031734
-4.85793e-05
-0.00314527
-5.23968e-05
-0.00311538
-5.59617e-05
-0.00308328
-5.97932e-05
-0.00304926
-6.34594e-05
-0.00301348
-6.70466e-05
-0.00297587
-7.05255e-05
-0.00293641
-7.37649e-05
-0.00289513
-7.7235e-05
-0.00285236
-8.04013e-05
-0.00280792
-8.36186e-05
-0.00276164
-8.68329e-05
-0.00271394
-8.97577e-05
-0.00266484
-9.25954e-05
-0.00261406
-9.55197e-05
-0.00256185
-9.82663e-05
-0.00250842
-0.000100824
-0.00245349
-0.000103477
-0.00239728
-0.000105859
-0.00233981
-0.00010824
-0.00228124
-0.000110543
-0.0022215
-0.000112752
-0.00216046
-0.000114942
-0.00209851
-0.000116785
-0.0020356
-0.000118669
-0.00197162
-0.000120493
-0.00190682
-0.00012222
-0.00184113
-0.000123913
-0.00177469
-0.000125306
-0.00170732
-0.000126781
-0.00163937
-0.00012803
-0.00157082
-0.000129199
-0.0015017
-0.000130225
-0.00143222
-0.00013092
-0.00136176
-0.000132421
-0.00129155
-0.000132397
-0.00122041
-0.000133571
-0.00114928
-0.000133577
-0.00107735
-0.00013468
-0.00100603
-0.000134114
-0.000934669
-0.000134039
-0.000863321
-0.000133823
-0.000134018
-0.000791538
-0.00360279
4.32274e-05
-0.00361706
3.69304e-05
-0.00362688
2.87578e-05
-0.00363441
2.23736e-05
-0.00363765
1.56929e-05
-0.00364102
9.01489e-06
-0.00363996
1.26783e-06
-0.00363686
-6.67056e-06
-0.00363145
-1.16127e-05
-0.00362434
-1.9341e-05
-0.00361475
-2.55432e-05
-0.00360142
-3.36366e-05
-0.00358637
-3.94767e-05
-0.00356869
-4.60438e-05
-0.0035487
-5.25846e-05
-0.00352629
-5.88883e-05
-0.00350171
-6.52209e-05
-0.00347492
-7.14324e-05
-0.00344587
-7.76327e-05
-0.00341485
-8.34167e-05
-0.00338132
-8.94869e-05
-0.00334589
-9.52302e-05
-0.00330841
-0.000100936
-0.00326893
-0.000106526
-0.0032274
-0.00011206
-0.00318385
-0.000117313
-0.00313848
-0.000122606
-0.00309121
-0.000127676
-0.00304197
-0.000132854
-0.0029913
-0.000137504
-0.00293875
-0.000142311
-0.0028844
-0.000146947
-0.00282876
-0.000151167
-0.00277141
-0.000155612
-0.00271251
-0.000159723
-0.0026522
-0.000163786
-0.00259044
-0.000167623
-0.00252726
-0.000171425
-0.00246279
-0.00017501
-0.00239709
-0.000178455
-0.00233031
-0.000181716
-0.00226214
-0.000184958
-0.00219303
-0.000187786
-0.00212283
-0.000190689
-0.00205168
-0.000193369
-0.00197966
-0.000195942
-0.0019067
-0.000198265
-0.00183294
-0.000200542
-0.00175835
-0.000202618
-0.00168341
-0.000204142
-0.00160717
-0.000206457
-0.00153036
-0.000207739
-0.0014534
-0.000209374
-0.00137608
-0.000209717
-0.00129848
-0.000211171
-0.00121997
-0.000212091
-0.00114206
-0.000212593
-0.00106345
-0.000212722
-0.000984876
-0.000212612
-0.000905887
-0.000212811
-0.000212349
-0.000827556
-0.00393425
6.03423e-05
-0.00394725
4.99321e-05
-0.00395796
3.94743e-05
-0.00396441
2.88213e-05
-0.00396866
1.99497e-05
-0.00397046
1.08198e-05
-0.00396789
-1.30348e-06
-0.00396539
-9.16697e-06
-0.00395884
-1.81601e-05
-0.00395025
-2.79246e-05
-0.0039374
-3.83959e-05
-0.00392335
-4.76872e-05
-0.00390678
-5.60453e-05
-0.00388678
-6.60404e-05
-0.00386458
-7.47792e-05
-0.00383984
-8.36311e-05
-0.00381259
-9.24686e-05
-0.0037828
-0.000101214
-0.00375079
-0.000109643
-0.00371609
-0.00011811
-0.00367945
-0.000126124
-0.00364029
-0.000134391
-0.00359904
-0.000142185
-0.00355557
-0.000149999
-0.00351007
-0.000157558
-0.00346219
-0.00016519
-0.00341229
-0.000172509
-0.00336044
-0.000179521
-0.0033068
-0.000186502
-0.0032509
-0.000193402
-0.00319331
-0.000199896
-0.00313408
-0.00020618
-0.00307281
-0.000212432
-0.00301003
-0.000218397
-0.00294565
-0.000224104
-0.00287971
-0.000229728
-0.00281202
-0.000235309
-0.00274296
-0.000240488
-0.00267247
-0.000245496
-0.00260073
-0.000250196
-0.0025275
-0.000254941
-0.00245331
-0.000259157
-0.00237771
-0.000263376
-0.00230112
-0.000267279
-0.00222342
-0.000271076
-0.00214467
-0.000274686
-0.00206497
-0.000277966
-0.00198456
-0.000280958
-0.00190296
-0.000284211
-0.00182065
-0.000286454
-0.00173829
-0.000288819
-0.00165461
-0.000291416
-0.00157058
-0.00029341
-0.00148547
-0.000294819
-0.00140086
-0.000295785
-0.00131543
-0.000297514
-0.00122992
-0.000298105
-0.00114445
-0.000298188
-0.00105848
-0.000298584
-0.000972702
-0.00029859
-0.000298412
-0.000886638
-0.00429366
7.633e-05
-0.00430546
6.17316e-05
-0.00431701
5.10272e-05
-0.00432436
3.61802e-05
-0.00432751
2.3099e-05
-0.00432834
1.16499e-05
-0.00432932
-3.13173e-07
-0.00432372
-1.47617e-05
-0.00431602
-2.58555e-05
-0.00430441
-3.954e-05
-0.0042907
-5.2095e-05
-0.00427481
-6.35751e-05
-0.0042549
-7.59622e-05
-0.00423351
-8.74282e-05
-0.00421026
-9.80274e-05
-0.00418199
-0.000111899
-0.0041518
-0.000122661
-0.00411893
-0.000134079
-0.00408338
-0.000145198
-0.00404546
-0.00015602
-0.0040049
-0.000166686
-0.00396223
-0.000177059
-0.00391697
-0.000187448
-0.00386927
-0.000197694
-0.00381901
-0.000207822
-0.00376677
-0.000217429
-0.00371224
-0.000227039
-0.00365539
-0.000236368
-0.00359646
-0.000245433
-0.0035356
-0.000254267
-0.00347259
-0.000262902
-0.00340757
-0.000271204
-0.00334081
-0.000279196
-0.00327228
-0.000286923
-0.00320187
-0.000294513
-0.00312966
-0.000301943
-0.00305605
-0.000308916
-0.00298061
-0.000315929
-0.00290363
-0.000322481
-0.00282506
-0.000328766
-0.00274533
-0.000334667
-0.00266418
-0.000340307
-0.0025819
-0.000345657
-0.00249836
-0.000350817
-0.00241369
-0.000355747
-0.00232829
-0.000360086
-0.00224069
-0.000365571
-0.00215262
-0.000369024
-0.00206434
-0.000372492
-0.00197465
-0.000376141
-0.00188449
-0.000378983
-0.00179397
-0.000381929
-0.00170236
-0.000385024
-0.00161044
-0.000386739
-0.00151688
-0.000389343
-0.00142394
-0.000390455
-0.00133097
-0.000391078
-0.00123752
-0.000391637
-0.00114365
-0.000392445
-0.00105059
-0.000391656
-0.000391764
-0.000957234
-0.00468247
9.31548e-05
-0.0046971
7.63577e-05
-0.00470555
5.94761e-05
-0.00471379
4.44172e-05
-0.00471982
2.91308e-05
-0.0047197
1.1539e-05
-0.00471548
-4.53097e-06
-0.00471102
-1.92276e-05
-0.00470056
-3.63078e-05
-0.00468991
-5.01817e-05
-0.00467522
-6.67815e-05
-0.00465652
-8.22729e-05
-0.00463571
-9.67742e-05
-0.00461095
-0.00011218
-0.00458218
-0.000126798
-0.0045515
-0.000142576
-0.00451823
-0.000155931
-0.00448247
-0.000169839
-0.00444338
-0.000184294
-0.00440152
-0.000197878
-0.00435718
-0.000211022
-0.00430993
-0.000224312
-0.00426017
-0.000237208
-0.00420791
-0.000249951
-0.00415319
-0.000262541
-0.00409577
-0.000274854
-0.00403614
-0.000286665
-0.00397403
-0.000298478
-0.00390962
-0.000309845
-0.00384315
-0.000320743
-0.00377432
-0.000331731
-0.00370334
-0.000342178
-0.00363046
-0.000352081
-0.00355574
-0.000361646
-0.00347888
-0.000371369
-0.00340035
-0.000380471
-0.00331979
-0.000389484
-0.00323749
-0.000398226
-0.00315363
-0.00040634
-0.00306826
-0.000414142
-0.00298114
-0.000421786
-0.00289279
-0.000428659
-0.00280307
-0.000435378
-0.00271181
-0.000442073
-0.00261964
-0.000447915
-0.00252633
-0.000453395
-0.00243253
-0.000459371
-0.00233705
-0.000464512
-0.00224029
-0.000469247
-0.00214304
-0.000473393
-0.00204456
-0.000477456
-0.00194505
-0.000481441
-0.00184591
-0.000484167
-0.00174516
-0.000487485
-0.00164476
-0.000489748
-0.00154371
-0.000491497
-0.00144137
-0.000493421
-0.0013394
-0.000493609
-0.0012381
-0.000493744
-0.00113616
-0.000493587
-0.000493427
-0.0010345
-0.00510289
0.000110705
-0.00511823
9.16899e-05
-0.00512945
7.07032e-05
-0.00513653
5.14946e-05
-0.00513754
3.01378e-05
-0.00513843
1.2423e-05
-0.00513514
-7.81744e-06
-0.00512774
-2.66278e-05
-0.00511826
-4.57933e-05
-0.00510297
-6.54642e-05
-0.00508565
-8.41025e-05
-0.00506611
-0.000101805
-0.00504069
-0.00012219
-0.00501325
-0.000139617
-0.00498383
-0.000156213
-0.00495043
-0.000175968
-0.004913
-0.000193359
-0.00487274
-0.000210103
-0.0048293
-0.000227734
-0.00478398
-0.0002432
-0.00473498
-0.000260032
-0.00468345
-0.000275841
-0.00462903
-0.000291625
-0.00457171
-0.000307277
-0.0045116
-0.000322649
-0.00444885
-0.000337605
-0.0043834
-0.000352111
-0.00431569
-0.000366192
-0.00424561
-0.000379922
-0.00417295
-0.000393403
-0.00409784
-0.000406842
-0.0040206
-0.000419426
-0.00394098
-0.000431702
-0.00385954
-0.000443081
-0.0037761
-0.000454811
-0.00369053
-0.000466044
-0.00360296
-0.000477059
-0.00351332
-0.00048786
-0.00342188
-0.000497785
-0.00332866
-0.000507361
-0.00323393
-0.000516522
-0.00313723
-0.00052536
-0.00303974
-0.000532868
-0.00294095
-0.000540855
-0.00284117
-0.000547703
-0.00273939
-0.000555175
-0.00263625
-0.000562513
-0.00253246
-0.000568297
-0.00242844
-0.000573268
-0.00232219
-0.00057964
-0.0022155
-0.000584144
-0.00210864
-0.000588301
-0.00199992
-0.00059289
-0.00189109
-0.000596313
-0.00178113
-0.000599703
-0.00167071
-0.000601918
-0.00156078
-0.000603349
-0.00145019
-0.000604199
-0.00133919
-0.000604747
-0.00122832
-0.000604452
-0.000604055
-0.00111769
-0.00555477
0.000128839
-0.00556854
0.000105465
-0.00557851
8.06717e-05
-0.00558611
5.90993e-05
-0.00558993
3.3956e-05
-0.0055879
1.0395e-05
-0.00558386
-1.1858e-05
-0.00557342
-3.70709e-05
-0.00556095
-5.82629e-05
-0.0055451
-8.13181e-05
-0.00552714
-0.000102061
-0.00550324
-0.000125708
-0.00547699
-0.000148441
-0.00544702
-0.000169575
-0.00541172
-0.000191512
-0.00537579
-0.000211898
-0.00533595
-0.000233191
-0.00529013
-0.000255926
-0.00524386
-0.000274006
-0.00519264
-0.000294417
-0.00513823
-0.000314451
-0.00508183
-0.000332245
-0.00502265
-0.000350808
-0.00495979
-0.000370143
-0.00489401
-0.000388422
-0.00482528
-0.00040634
-0.00475382
-0.000423572
-0.00467973
-0.000440281
-0.00460311
-0.000456542
-0.00452399
-0.000472528
-0.00444199
-0.000488842
-0.00435798
-0.000503436
-0.00427133
-0.000518355
-0.0041833
-0.000531112
-0.00409258
-0.000545529
-0.00399965
-0.000558975
-0.00390462
-0.000572095
-0.00380704
-0.000585435
-0.00370723
-0.0005976
-0.00360594
-0.00060865
-0.00350306
-0.000619412
-0.00339836
-0.000630056
-0.00329149
-0.000639738
-0.00318479
-0.000647554
-0.00307589
-0.000656605
-0.00296479
-0.000666274
-0.00285442
-0.000672882
-0.00274125
-0.000681468
-0.00262785
-0.000686674
-0.00251351
-0.000693974
-0.00239712
-0.000700535
-0.00228095
-0.000704466
-0.00216347
-0.000710373
-0.0020461
-0.000713685
-0.00192629
-0.000719514
-0.0018071
-0.000721107
-0.00168627
-0.000724173
-0.00156617
-0.000724296
-0.00144584
-0.000725078
-0.00132604
-0.00072425
-0.000724562
-0.00120553
-0.0060377
0.000147497
-0.00605114
0.000118907
-0.00606151
9.10498e-05
-0.0060651
6.27036e-05
-0.00606753
3.63829e-05
-0.00606614
9.01084e-06
-0.00606031
-1.76837e-05
-0.00604968
-4.76954e-05
-0.00603383
-7.41189e-05
-0.00601735
-9.77961e-05
-0.00599486
-0.000124554
-0.00596877
-0.000151798
-0.00594031
-0.000176908
-0.00590497
-0.000204917
-0.00587041
-0.000226074
-0.00582863
-0.000253678
-0.00578251
-0.00027931
-0.00573507
-0.000303367
-0.00568099
-0.000328074
-0.00562595
-0.000349456
-0.00556834
-0.000372062
-0.00550491
-0.000395667
-0.00544153
-0.000414188
-0.00537244
-0.000439236
-0.00529979
-0.000461073
-0.00522558
-0.00048055
-0.00514656
-0.000502599
-0.00506657
-0.000520269
-0.00498113
-0.000541988
-0.00489706
-0.000556598
-0.00480562
-0.000580277
-0.00471579
-0.000593271
-0.00461985
-0.000614294
-0.00452619
-0.00062478
-0.00442813
-0.000643591
-0.00432699
-0.000660112
-0.00422517
-0.000673919
-0.00411837
-0.000692239
-0.00400949
-0.000706479
-0.00390114
-0.000717001
-0.00378739
-0.000733161
-0.00367225
-0.000745199
-0.00355841
-0.000753573
-0.00343974
-0.000766224
-0.00332513
-0.000771221
-0.0032027
-0.000788705
-0.00308404
-0.000791543
-0.00295938
-0.000806122
-0.00283891
-0.000807149
-0.00271511
-0.000817771
-0.00258843
-0.000827218
-0.00246489
-0.000828
-0.00233604
-0.000839225
-0.0022105
-0.000839219
-0.00207799
-0.000852027
-0.00195049
-0.000848597
-0.00181659
-0.000858078
-0.0016904
-0.000850478
-0.00155712
-0.000858355
-0.00142966
-0.000851712
-0.0012956
-0.000858616
-0.000783442
-6.24342e-05
-0.000721366
-6.20774e-05
-0.000659664
-6.17028e-05
-0.000598374
-6.12922e-05
-0.000537549
-6.08269e-05
-0.000477242
-6.03088e-05
-0.000417702
-5.95409e-05
-0.000358974
-5.873e-05
-0.000301259
-5.77163e-05
-0.000244688
-5.65734e-05
-0.000189185
-5.55037e-05
-0.000132948
-5.6239e-05
-7.49435e-05
-5.80054e-05
-1.57583e-05
-5.91861e-05
4.24519e-05
-5.82111e-05
9.80958e-05
-5.56447e-05
0.000151394
-5.32987e-05
0.000202887
-5.1494e-05
0.000252788
-4.9902e-05
0.000301119
-4.83317e-05
0.0003479
-4.67809e-05
0.000393072
-4.51733e-05
0.000436569
-4.34975e-05
0.000478258
-4.16894e-05
0.000518079
-3.98214e-05
0.000555967
-3.78895e-05
0.000591806
-3.58387e-05
0.00062546
-3.36553e-05
0.000656816
-3.13562e-05
0.00068578
-2.89652e-05
0.000712155
-2.63752e-05
0.000735781
-2.36262e-05
0.000756534
-2.07538e-05
0.000774168
-1.76351e-05
0.000788466
-1.42984e-05
0.000799232
-1.07675e-05
0.000806211
-6.97977e-06
0.000809131
-2.92054e-06
0.000808635
4.95065e-07
0.000804613
4.02021e-06
0.000797151
7.46112e-06
0.00078559
1.15595e-05
0.000769418
1.61709e-05
0.000748208
2.12093e-05
0.000721325
2.68812e-05
0.000688145
3.31786e-05
0.000648049
4.00948e-05
0.0006003
4.77482e-05
0.000544042
5.62563e-05
0.000478513
6.55284e-05
0.000402989
7.55229e-05
0.000316908
8.60804e-05
0.000219691
9.72174e-05
0.000110488
0.000109202
-1.66309e-05
0.000127119
-0.000156292
0.000139661
-0.000285582
0.000129289
-0.000392903
0.000107321
-0.00047435
8.14468e-05
-0.000535292
6.09412e-05
5.1109e-05
-0.000586402
-0.000720381
-0.000133592
-0.000648915
-0.000133543
-0.000577666
-0.000132951
-0.000506675
-0.000132283
-0.000436306
-0.000131196
-0.000366049
-0.000130566
-0.000296328
-0.000129262
-0.000226991
-0.000128067
-0.000158368
-0.000126339
-9.02856e-05
-0.000124656
-2.18867e-05
-0.000123903
4.69674e-05
-0.000125093
0.000114843
-0.000125881
0.000181418
-0.000125761
0.000247229
-0.000124022
0.000312407
-0.000120823
0.000376532
-0.000117423
0.00043935
-0.000114311
0.000500765
-0.000111317
0.000560798
-0.000108363
0.000619453
-0.000105435
0.000676592
-0.00010231
0.000732186
-9.90905e-05
0.000786231
-9.57323e-05
0.000838621
-9.22103e-05
0.000889297
-8.85635e-05
0.000938127
-8.4666e-05
0.000985128
-8.06544e-05
0.00103015
-7.6379e-05
0.00107303