/*--------------------------------*- C++ -*----------------------------------*\
| =========                 |                                                 |
| \\      /  F ield         | OpenFOAM: The Open Source CFD Toolbox           |
|  \\    /   O peration     | Version:  2.3.1                                 |
|   \\  /    A nd           | Web:      www.OpenFOAM.org                      |
|    \\/     M anipulation  |                                                 |
\*---------------------------------------------------------------------------*/
FoamFile
{
    version     2.0;
    format      ascii;
    class       volVectorField;
    location    "0.51";
    object      U;
}
// * * * * * * * * * * * * * * * * * * * * * * * * * * * * * * * * * * * * * //

dimensions      [0 1 -1 0 0 0 0];

internalField   nonuniform List<vector> 
9648
(
(0.153868 -4.83462 -3.75026e-22)
(0.281119 -4.79428 1.25261e-23)
(0.406661 -4.76663 0)
(0.529521 -4.74037 0)
(0.652541 -4.71955 7.7456e-21)
(0.776925 -4.70458 1.19353e-20)
(0.905187 -4.69947 -2.41778e-20)
(1.03929 -4.70581 -1.15698e-20)
(1.18055 -4.72488 1.15414e-20)
(1.32946 -4.75868 3.61404e-20)
(1.48811 -4.80892 -3.59918e-20)
(1.65833 -4.87668 -5.28587e-20)
(1.84209 -4.96263 2.81866e-19)
(2.04146 -5.0668 7.36293e-20)
(2.25815 -5.18852 -6.91817e-19)
(2.49345 -5.32661 0)
(2.74853 -5.4794 0)
(3.02427 -5.64486 1.27543e-19)
(3.32135 -5.8204 4.11787e-19)
(3.63991 -6.00329 -1.18694e-18)
(3.97994 -6.19093 -2.12517e-20)
(4.34131 -6.38025 3.27719e-19)
(4.72329 -6.56833 3.88637e-19)
(5.12515 -6.75234 -1.76928e-18)
(5.546 -6.92956 0)
(5.98489 -7.09745 1.06225e-18)
(6.44045 -7.25351 -1.11458e-18)
(6.91145 -7.39576 0)
(7.39634 -7.52186 0)
(7.89343 -7.63009 -6.78026e-19)
(8.40123 -7.71877 -1.50143e-18)
(8.91785 -7.78643 2.35879e-18)
(9.44177 -7.83197 0)
(9.97119 -7.85411 0)
(10.5042 -7.85219 1.80953e-18)
(11.0393 -7.82532 -1.94858e-18)
(11.5744 -7.7731 0)
(12.1081 -7.69526 4.18601e-18)
(12.6386 -7.5914 1.12976e-18)
(13.164 -7.4614 -3.34448e-18)
(13.6826 -7.3053 6.35871e-20)
(14.1928 -7.12359 2.38095e-18)
(14.6931 -6.91615 -3.16446e-18)
(15.1814 -6.68351 6.36603e-19)
(15.6568 -6.42643 0)
(16.1178 -6.14505 0)
(16.5628 -5.84008 4.80523e-18)
(16.9905 -5.51231 7.03407e-19)
(17.4003 -5.1626 -2.17416e-18)
(17.7915 -4.79092 -7.31932e-19)
(18.1617 -4.39821 -7.6147e-19)
(18.5095 -3.98673 7.56745e-19)
(18.8346 -3.55816 3.9101e-19)
(19.1361 -3.11326 -3.88896e-19)
(19.4128 -2.65377 1.98536e-18)
(19.6643 -2.18076 -1.95483e-18)
(19.8898 -1.69568 -2.1836e-20)
(20.0888 -1.19976 0)
(20.2608 -0.694462 -3.97165e-19)
(20.4054 -0.181446 -5.1375e-20)
(20.5226 0.338082 -4.87e-20)
(-0.0727835 -2.51923 3.47125e-22)
(0.00225564 -2.53078 0)
(0.0778544 -2.54945 0)
(0.153676 -2.58087 2.26645e-21)
(0.234093 -2.63205 -3.67783e-21)
(0.323655 -2.7057 -2.86356e-20)
(0.423766 -2.79905 0)
(0.53627 -2.91128 0)
(0.663029 -3.04312 -3.88484e-20)
(0.804666 -3.1947 0)
(0.962514 -3.36509 -9.74547e-20)
(1.1374 -3.55283 7.77265e-20)
(1.33027 -3.75671 -4.2248e-20)
(1.5421 -3.97511 0)
(1.77367 -4.20616 2.69328e-19)
(2.02529 -4.44779 1.60297e-19)
(2.29727 -4.69771 -1.57733e-19)
(2.58976 -4.95363 2.06533e-19)
(2.90296 -5.21304 -6.29821e-19)
(3.23662 -5.47349 5.0387e-19)
(3.59041 -5.73271 -5.5929e-19)
(3.96405 -5.98818 -3.01951e-19)
(4.35667 -6.23745 -3.09718e-19)
(4.76763 -6.47822 1.06706e-18)
(5.19594 -6.70818 3.69673e-19)
(5.64077 -6.92529 4.40608e-19)
(6.10105 -7.12766 -3.90102e-19)
(6.57543 -7.3134 0)
(7.06266 -7.4807 0)
(7.56106 -7.62802 0)
(8.06925 -7.75393 0)
(8.58567 -7.85732 0)
(9.10878 -7.93714 0)
(9.63717 -7.99245 0)
(10.169 -8.02265 -8.13301e-19)
(10.7027 -8.02694 7.3839e-19)
(11.2366 -8.00509 8.15045e-19)
(11.7692 -7.95677 -4.14173e-18)
(12.2988 -7.88166 -8.79427e-19)
(12.8238 -7.77969 2.70543e-18)
(13.3423 -7.65099 1.89933e-18)
(13.853 -7.49599 -1.96085e-18)
(14.3541 -7.31459 9.36531e-19)
(14.8441 -7.10745 9.88468e-19)
(15.3214 -6.87523 -1.05126e-18)
(15.7848 -6.61817 1.04196e-18)
(16.2326 -6.33711 -2.23478e-18)
(16.6636 -6.03288 0)
(17.0764 -5.70636 -5.71033e-19)
(17.4704 -5.3577 1.14761e-18)
(17.8448 -4.98776 -5.76732e-19)
(18.1982 -4.59834 0)
(18.5296 -4.19082 1.1859e-18)
(18.8381 -3.76601 0)
(19.1227 -3.32539 0)
(19.3827 -2.87012 2.81209e-18)
(19.6172 -2.40153 -1.2675e-18)
(19.8258 -1.92125 -3.08394e-19)
(20.008 -1.43016 3.25546e-19)
(20.1633 -0.929978 0)
(20.2912 -0.421989 8.18737e-20)
(0.0495249 -1.45846 -4.97956e-22)
(0.109683 -1.51154 0)
(0.175325 -1.58068 5.6288e-22)
(0.246508 -1.66951 -3.20797e-22)
(0.325577 -1.77694 0)
(0.415792 -1.90245 2.30425e-20)
(0.518462 -2.04746 1.68929e-20)
(0.635188 -2.21112 0)
(0.767607 -2.39314 2.27738e-21)
(0.917393 -2.5922 4.0527e-20)
(1.08552 -2.80732 8.30792e-20)
(1.27265 -3.03667 -2.8927e-20)
(1.47935 -3.27851 0)
(1.70601 -3.53085 0)
(1.95288 -3.79163 2.03874e-19)
(2.2199 -4.0587 -1.30931e-19)
(2.50705 -4.32977 -1.40592e-19)
(2.81415 -4.60256 0)
(3.14097 -4.87484 5.4665e-19)
(3.48713 -5.14449 -5.68669e-19)
(3.85208 -5.40952 -4.26554e-19)
(4.23526 -5.66782 -4.70688e-19)
(4.63596 -5.91735 0)
(5.05337 -6.15598 -8.45951e-19)
(5.48663 -6.38181 -2.97858e-19)
(5.93474 -6.59308 3.54965e-19)
(6.39644 -6.78804 3.92519e-19)
(6.87061 -6.96516 0)
(7.35575 -7.12277 0)
(7.85052 -7.25964 0)
(8.35358 -7.37465 0)
(8.86344 -7.46685 0)
(9.37879 -7.53542 0)
(9.89802 -7.57958 0)
(10.4195 -7.59879 -1.78705e-18)
(10.9417 -7.59249 5.93814e-19)
(11.4631 -7.56043 -6.55564e-19)
(11.9822 -7.50236 3.29949e-18)
(12.4973 -7.41809 0)
(13.007 -7.30769 1.40466e-18)
(13.5096 -7.17135 1.45328e-18)
(14.0035 -7.00939 7.2001e-19)
(14.4873 -6.82194 -8.25581e-19)
(14.9594 -6.60957 -1.59033e-18)
(15.4186 -6.37283 2.4789e-18)
(15.8634 -6.11224 -8.38725e-19)
(16.2926 -5.8286 -1.71126e-18)
(16.7048 -5.52271 0)
(17.099 -5.19562 0)
(17.4739 -4.84832 -4.67518e-19)
(17.8287 -4.48187 -4.57049e-19)
(18.1625 -4.09719 -9.35059e-19)
(18.4746 -3.69537 -9.79003e-19)
(18.7637 -3.27788 0)
(19.0294 -2.84548 -9.68437e-19)
(19.2708 -2.39994 -1.00945e-18)
(19.4875 -1.94199 0)
(19.6787 -1.47384 1.64318e-20)
(19.8438 -0.995793 0)
(19.9826 -0.509616 0)
(20.095 -0.0163409 -6.25556e-20)
(0.0270099 -0.945398 9.84197e-22)
(0.0893198 -1.03568 -1.62192e-21)
(0.162539 -1.1424 1.83731e-21)
(0.245718 -1.26584 -1.02704e-21)
(0.339699 -1.40603 0)
(0.445467 -1.56302 -9.46005e-21)
(0.564742 -1.73708 -1.4576e-20)
(0.698923 -1.92778 0)
(0.849411 -2.1344 3.13713e-21)
(1.01704 -2.35587 -3.46496e-20)
(1.20265 -2.59087 7.85542e-20)
(1.40656 -2.83778 9.65559e-20)
(1.62913 -3.09469 0)
(1.87055 -3.35963 -7.82781e-20)
(2.13101 -3.63061 -1.66611e-19)
(2.41026 -3.90555 -8.90409e-20)
(2.70814 -4.18225 3.46114e-19)
(3.02445 -4.45858 -2.50902e-19)
(3.3588 -4.73253 2.82556e-19)
(3.71079 -5.00228 4.83496e-19)
(4.07998 -5.26617 7.0139e-19)
(4.46571 -5.5223 3.96472e-19)
(4.86745 -5.76868 1.90417e-19)
(5.2844 -6.00344 6.94652e-19)
(5.71563 -6.22474 2.27986e-19)
(6.16005 -6.43115 2.60146e-19)
(6.61658 -6.62123 3.0782e-19)
(7.0839 -6.79331 -9.21652e-19)
(7.56094 -6.94618 6.62313e-19)
(8.04642 -7.07851 7.49349e-19)
(8.53925 -7.18936 -1.53263e-18)
(9.03815 -7.27803 7.82925e-19)
(9.54166 -7.34366 -8.39708e-19)
(10.0485 -7.38567 4.18692e-19)
(10.557 -7.40354 4.59136e-19)
(11.0656 -7.39674 5.09899e-19)
(11.573 -7.36491 -5.03479e-19)
(12.0777 -7.3079 -5.49011e-19)
(12.5784 -7.22551 -1.64553e-18)
(13.0735 -7.11786 -1.18803e-18)
(13.5615 -6.9852 -2.40903e-18)
(14.0408 -6.82777 -3.12206e-18)
(14.5101 -6.64589 1.28037e-18)
(14.9679 -6.43994 2.92103e-20)
(15.4129 -6.21048 -7.17823e-19)
(15.8439 -5.95806 -7.04101e-19)
(16.2596 -5.68335 4.2578e-18)
(16.6589 -5.38713 -7.13748e-19)
(17.0407 -5.07021 0)
(17.404 -4.73353 0)
(17.7478 -4.3781 -7.1716e-19)
(18.0712 -4.0051 3.22157e-20)
(18.3734 -3.61556 7.69965e-19)
(18.6537 -3.21061 0)
(18.9111 -2.79155 8.20429e-19)
(19.1451 -2.3597 0)
(19.3549 -1.91623 0)
(19.54 -1.4621 6.25438e-19)
(19.7001 -0.998882 1.98905e-19)
(19.8348 -0.528035 -2.02718e-19)
(19.9438 -0.0510362 1.03757e-19)
(0.120883 -0.688224 4.78713e-23)
(0.183741 -0.79865 1.41472e-21)
(0.259807 -0.924333 -3.27138e-21)
(0.349069 -1.06612 -6.29386e-22)
(0.451671 -1.22426 -4.7375e-22)
(0.568698 -1.39846 3.63752e-21)
(0.701046 -1.58845 2.26798e-21)
(0.849558 -1.79342 -1.01715e-20)
(1.0153 -2.01257 3.48733e-20)
(1.1984 -2.2447 -5.09618e-20)
(1.3994 -2.48838 5.80324e-20)
(1.61808 -2.74199 -7.40595e-20)
(1.85465 -3.00359 -4.32313e-20)
(2.10893 -3.27126 0)
(2.38118 -3.54297 8.20582e-20)
(2.67078 -3.81691 7.83772e-20)
(2.97758 -4.09093 0)
(3.3013 -4.36304 1.96215e-19)
(3.64137 -4.63161 0)
(3.99758 -4.89498 -2.62888e-19)
(4.36951 -5.15165 2.87638e-19)
(4.7565 -5.39986 9.90911e-21)
(5.15821 -5.63758 -1.75518e-20)
(5.57349 -5.86306 2.94875e-20)
(6.00156 -6.07482 -8.12885e-19)
(6.44133 -6.27169 -4.68252e-19)
(6.89141 -6.45229 9.64749e-19)
(7.35118 -6.61529 1.04859e-18)
(7.8193 -6.75926 -5.67911e-19)
(8.29489 -6.88307 0)
(8.77712 -6.9859 0)
(9.26447 -7.06711 0)
(9.7558 -7.12604 7.21384e-19)
(10.2496 -7.16207 -2.98136e-18)
(10.7444 -7.17482 1.56074e-18)
(11.2387 -7.1637 -7.9388e-19)
(11.7315 -7.12829 -1.71311e-18)
(12.2211 -7.0685 1.73803e-18)
(12.7064 -6.98409 4.04438e-20)
(13.1861 -6.87528 -9.82481e-19)
(13.6585 -6.74243 1.01538e-18)
(14.1222 -6.5858 1.05042e-18)
(14.5757 -6.40569 0)
(15.0179 -6.20242 -1.06739e-18)
(15.4475 -5.97653 0)
(15.8632 -5.72856 -1.70659e-18)
(16.264 -5.45915 5.27477e-19)
(16.6486 -5.16902 0)
(17.0161 -4.85888 -6.19537e-19)
(17.3655 -4.52976 -1.49238e-20)
(17.6959 -4.18248 1.32059e-18)
(18.0065 -3.81823 -6.27546e-19)
(18.2966 -3.43808 -3.49208e-19)
(18.5653 -3.04316 6.3934e-19)
(18.8119 -2.63482 -4.91137e-21)
(19.0356 -2.21405 3.33565e-19)
(19.2356 -1.78216 1.61138e-19)
(19.4117 -1.34009 3.40226e-19)
(19.5636 -0.889075 -8.5485e-19)
(19.6908 -0.430625 3.43405e-19)
(19.7931 0.033702 -4.3951e-20)
(0.207184 -0.549817 -4.57675e-22)
(0.282366 -0.673904 0)
(0.371556 -0.812941 4.47144e-21)
(0.475208 -0.967639 0)
(0.592778 -1.13792 -6.69524e-22)
(0.725677 -1.32315 2.90882e-21)
(0.874415 -1.52288 5.39496e-21)
(1.03956 -1.73593 2.02016e-20)
(1.2221 -1.96137 3.70403e-21)
(1.42147 -2.19808 5.64594e-21)
(1.63829 -2.44448 9.63009e-22)
(1.87161 -2.69915 -2.77472e-20)
(2.12181 -2.96007 4.21493e-20)
(2.38794 -3.22531 -1.28709e-19)
(2.671 -3.49285 1.11244e-19)
(2.96991 -3.76139 -8.57206e-21)
(3.2842 -4.02857 -1.39315e-19)
(3.61401 -4.29279 -1.69474e-19)
(3.9583 -4.55273 0)
(4.3171 -4.8067 2.03778e-19)
(4.69056 -5.05342 8.04046e-21)
(5.07743 -5.29111 -5.30652e-19)
(5.4777 -5.51753 -2.32168e-20)
(5.88996 -5.73162 -2.87134e-19)
(6.31302 -5.93188 1.02033e-18)
(6.74616 -6.11764 3.5972e-20)
(7.18828 -6.28777 -3.8102e-19)
(7.63883 -6.44031 -4.05374e-20)
(8.09705 -6.57454 0)
(8.56173 -6.68894 0)
(9.03225 -6.78286 0)
(9.50698 -6.85627 0)
(9.98452 -6.90808 0)
(10.464 -6.93784 5.72704e-20)
(10.9439 -6.94526 -6.69197e-19)
(11.4225 -6.92968 -3.90288e-20)
(11.8992 -6.8904 2.98561e-20)
(12.3724 -6.82762 6.90349e-19)
(12.8411 -6.74104 1.581e-18)
(13.304 -6.63108 -2.38544e-18)
(13.7595 -6.49835 1.66157e-18)
(14.2064 -6.34296 -8.39134e-19)
(14.643 -6.16529 0)
(15.0685 -5.96529 9.33258e-19)
(15.4817 -5.74364 0)
(15.8811 -5.50086 9.83313e-19)
(16.266 -5.23741 -1.00659e-18)
(16.635 -4.95431 4.72805e-19)
(16.9873 -4.65187 5.05325e-19)
(17.322 -4.33114 -5.2758e-19)
(17.6384 -3.99299 3.78922e-20)
(17.9355 -3.63865 -1.08274e-20)
(18.2127 -3.26887 1.074e-18)
(18.4695 -2.88507 -1.10576e-18)
(18.7049 -2.48847 -5.45673e-19)
(18.918 -2.08039 -2.672e-19)
(19.1081 -1.6616 -8.5038e-19)
(19.2749 -1.23296 0)
(19.4184 -0.795598 5.74723e-19)
(19.5382 -0.351362 -1.47591e-19)
(19.634 0.0984944 0)
(0.312674 -0.481073 0)
(0.402074 -0.614597 0)
(0.506307 -0.763314 -2.18494e-21)
(0.626905 -0.927538 2.9003e-21)
(0.761265 -1.10662 -8.1077e-22)
(0.911852 -1.29929 -5.01645e-21)
(1.07832 -1.505 3.36182e-21)
(1.26054 -1.72218 -1.33674e-20)
(1.46076 -1.95008 -1.18643e-21)
(1.6762 -2.18753 4.00108e-20)
(1.90912 -2.43299 -7.76582e-20)
(2.15653 -2.68534 0)
(2.42004 -2.94228 0)
(2.69674 -3.20207 1.46018e-19)
(2.99011 -3.46214 9.47729e-20)
(3.29735 -3.72258 -2.10346e-19)
(3.61791 -3.98051 3.42665e-19)
(3.95295 -4.23457 1.45257e-19)
(4.3001 -4.4843 -2.91111e-19)
(4.66041 -4.72712 -1.77548e-19)
(5.03486 -4.96175 2.04181e-19)
(5.42028 -5.18718 -6.28098e-21)
(5.81864 -5.4003 0)
(6.22615 -5.60165 5.2927e-19)
(6.64271 -5.78981 -8.76258e-19)
(7.06828 -5.96387 2.92335e-19)
(7.50066 -6.12289 6.49086e-19)
(7.94187 -6.26421 -1.80649e-18)
(8.38957 -6.38736 3.68048e-19)
(8.84236 -6.4914 0)
(9.30071 -6.57557 0)
(9.76147 -6.64082 0)
(10.2239 -6.6855 5.0726e-19)
(10.6881 -6.70835 1.57098e-18)
(11.1521 -6.70997 -1.06213e-18)
(11.6136 -6.68977 5.8641e-19)
(12.0734 -6.64572 6.43271e-19)
(12.5292 -6.5792 -1.27605e-18)
(12.9799 -6.48998 0)
(13.4251 -6.37839 -1.31247e-18)
(13.8626 -6.24578 6.81872e-19)
(14.2917 -6.09164 3.53227e-20)
(14.7101 -5.91669 -3.19036e-20)
(15.1179 -5.71981 7.5264e-19)
(15.5136 -5.50227 3.19351e-20)
(15.8957 -5.26494 -2.40589e-18)
(16.2638 -5.00743 8.15478e-19)
(16.616 -4.73156 -1.69472e-18)
(16.9522 -4.43674 0)
(17.2711 -4.12483 0)
(17.5724 -3.79579 1.79164e-18)
(17.8551 -3.45185 -4.2805e-19)
(18.1184 -3.09289 -9.28981e-19)
(18.3624 -2.7202 -4.46599e-19)
(18.586 -2.33591 1.42674e-18)
(18.7878 -1.94102 7.19855e-19)
(18.9672 -1.5358 2.48905e-19)
(19.1238 -1.12144 -4.68995e-21)
(19.2581 -0.698071 -2.49159e-19)
(19.3701 -0.268176 0)
(19.4589 0.166424 0)
(0.433794 -0.456726 4.62992e-22)
(0.541021 -0.596798 0)
(0.661854 -0.75214 0)
(0.802424 -0.923338 -1.59686e-21)
(0.954257 -1.10861 0)
(1.12373 -1.30582 -1.84717e-22)
(1.30834 -1.5145 3.43488e-21)
(1.50676 -1.73263 -7.29454e-21)
(1.72596 -1.96002 0)
(1.95609 -2.19549 -2.40126e-20)
(2.20615 -2.43741 3.90631e-21)
(2.46602 -2.68539 0)
(2.74363 -2.93633 0)
(3.0278 -3.18901 -6.11599e-20)
(3.33173 -3.43844 6.71223e-20)
(3.647 -3.68945 -8.54714e-20)
(3.97182 -3.93676 -9.92484e-20)
(4.31206 -4.17927 0)
(4.66081 -4.41847 1.30228e-19)
(5.02104 -4.64858 -2.75044e-19)
(5.39734 -4.86942 -3.08106e-19)
(5.77895 -5.08181 -3.62458e-19)
(6.17508 -5.27965 -3.35514e-20)
(6.57683 -5.46914 -4.66658e-19)
(6.98575 -5.64526 4.46427e-19)
(7.40395 -5.8074 5.01497e-19)
(7.82516 -5.95579 -5.71195e-19)
(8.25633 -6.08357 3.24262e-20)
(8.69354 -6.19494 4.28211e-20)
(9.13245 -6.28854 -6.59518e-19)
(9.57769 -6.36209 0)
(10.0232 -6.42032 -8.06421e-19)
(10.4687 -6.45772 1.5996e-18)
(10.9172 -6.47236 -4.57425e-20)
(11.3656 -6.46814 9.39152e-19)
(11.8082 -6.44407 -9.33274e-19)
(12.2509 -6.39331 1.0298e-18)
(12.6879 -6.32293 1.07633e-18)
(13.1189 -6.23137 -2.12809e-18)
(13.5455 -6.11778 1.16543e-18)
(13.9637 -5.98617 1.14773e-18)
(14.3746 -5.83308 1.81358e-18)
(14.7733 -5.66135 -6.45801e-19)
(15.1622 -5.46636 0)
(15.5396 -5.25304 3.47677e-20)
(15.9026 -5.02214 7.02441e-19)
(16.2534 -4.77019 -6.82987e-19)
(16.5872 -4.50293 7.35872e-19)
(16.9062 -4.2157 0)
(17.2077 -3.91368 0)
(17.4933 -3.59374 -4.04184e-20)
(17.7602 -3.26129 7.91629e-19)
(18.0085 -2.91255 0)
(18.2389 -2.55081 3.93434e-19)
(18.4502 -2.18002 3.96939e-19)
(18.64 -1.79949 -8.08881e-19)
(18.8082 -1.40846 -3.9685e-19)
(18.9531 -1.00955 -2.10918e-19)
(19.077 -0.599768 0)
(19.181 -0.185361 0)
(19.2623 0.232452 2.52714e-20)
(0.570832 -0.460834 -1.27943e-21)
(0.702368 -0.604372 2.77506e-21)
(0.839528 -0.76194 -6.28989e-24)
(1.00666 -0.937874 -3.32607e-21)
(1.17255 -1.12585 5.20506e-21)
(1.36079 -1.32709 -2.66608e-21)
(1.56451 -1.53436 0)
(1.77542 -1.74921 1.41109e-21)
(2.01884 -1.97436 -1.0112e-20)
(2.2578 -2.20419 0)
(2.53079 -2.44117 5.01867e-20)
(2.79585 -2.6841 -3.23654e-20)
(3.09101 -2.92898 3.31654e-20)
(3.37509 -3.17479 4.33018e-20)
(3.69218 -3.4078 -5.79955e-20)
(4.01508 -3.65038 -7.19233e-20)
(4.33998 -3.88702 2.39424e-19)
(4.68977 -4.11451 -2.50778e-19)
(5.03313 -4.34571 0)
(5.3884 -4.56436 -8.25778e-21)
(5.77302 -4.76953 7.55469e-19)
(6.14269 -4.97102 -2.94302e-20)
(6.54426 -5.14883 -3.63254e-19)
(6.93363 -5.33017 6.95809e-19)
(7.33275 -5.49741 0)
(7.7477 -5.64792 -4.32942e-19)
(8.15149 -5.78653 -4.41797e-19)
(8.57498 -5.89867 9.81455e-19)
(9.00225 -5.99853 -7.09664e-21)
(9.42219 -6.08395 5.84449e-19)
(9.85671 -6.14582 -1.19971e-18)
(10.2819 -6.20052 1.9071e-18)
(10.7086 -6.23193 -1.36863e-18)
(11.142 -6.23707 -1.43268e-18)
(11.5776 -6.22472 0)
(11.9971 -6.19621 8.17717e-19)
(12.429 -6.13608 0)
(12.8434 -6.0657 -1.97133e-21)
(13.2518 -5.97471 9.74184e-19)
(13.6624 -5.8567 -1.81436e-18)
(14.0587 -5.72566 -6.43633e-21)
(14.4523 -5.57393 -2.0079e-18)
(14.8252 -5.40796 0)
(15.1943 -5.21587 -5.75266e-19)
(15.5542 -5.00815 2.20828e-18)
(15.8936 -4.78486 -5.6162e-19)
(16.2307 -4.53795 5.9553e-19)
(16.542 -4.28037 0)
(16.8456 -3.99973 6.13444e-19)
(17.1271 -3.70664 -1.85151e-18)
(17.3978 -3.39224 -2.59158e-20)
(17.6476 -3.0715 0)
(17.8775 -2.73571 6.37068e-19)
(18.0948 -2.38532 -1.91795e-20)
(18.2949 -2.0259 0)
(18.4699 -1.65841 3.59555e-19)
(18.6285 -1.28927 -3.26623e-19)
(18.7591 -0.907824 3.42469e-19)
(18.8709 -0.512696 3.39859e-19)
(18.9695 -0.110307 -1.70757e-19)
(19.0401 0.291386 -6.461e-20)
(20.6115 0.863219 1.51539e-19)
(20.6718 1.39224 -5.13835e-20)
(20.704 1.92453 0)
(20.708 2.45768 0)
(20.6841 2.98995 8.16768e-19)
(20.6327 3.52021 1.17514e-18)
(20.5537 4.04662 -1.2103e-18)
(20.4475 4.56777 -3.98891e-19)
(20.3139 5.08222 3.98838e-19)
(20.1538 5.58886 7.80656e-19)
(19.9673 6.08709 -7.81129e-19)
(19.7547 6.57507 -7.59563e-19)
(19.5173 7.05172 3.77792e-18)
(19.2565 7.51587 7.3485e-19)
(18.9726 7.96605 -6.4846e-18)
(18.6663 8.40074 0)
(18.3384 8.81905 0)
(17.9903 9.22002 6.74703e-19)
(17.6226 9.60309 1.99301e-18)
(17.2361 9.96692 -5.1232e-18)
(16.8325 10.3108 -7.52929e-20)
(16.4125 10.6344 1.17421e-18)
(15.9771 10.9365 1.20847e-18)
(15.5275 11.2165 -4.50955e-18)
(15.0652 11.4744 0)
(14.5911 11.7101 2.11869e-18)
(14.1055 11.9232 -1.96325e-18)
(13.6104 12.1119 0)
(13.1073 12.2758 0)
(12.598 12.4146 -9.00001e-19)
(12.0836 12.5283 -1.64585e-18)
(11.5654 12.6168 2.3462e-18)
(11.045 12.68 0)
(10.5233 12.7181 0)
(10.002 12.7308 1.18472e-18)
(9.48212 12.7187 -1.12681e-18)
(8.965 12.6816 0)
(8.45195 12.6202 1.77748e-18)
(7.944 12.5346 3.7076e-19)
(7.44241 12.4252 -1.02584e-18)
(6.94841 12.2925 3.58796e-20)
(6.46339 12.1371 4.33284e-19)
(5.98814 11.9597 -4.29883e-19)
(5.52387 11.7606 7.53467e-20)
(5.07174 11.5408 0)
(4.63248 11.301 0)
(4.20713 11.0419 -1.67267e-19)
(3.79662 10.7642 -3.63992e-20)
(3.40196 10.4691 2.19162e-19)
(3.02383 10.1577 9.13535e-20)
(2.66286 9.83066 1.43331e-19)
(2.31987 9.48897 -1.45203e-19)
(1.99562 9.13388 -9.74351e-20)
(1.69042 8.76659 9.87667e-20)
(1.40498 8.38804 -5.90349e-19)
(1.1397 7.99965 6.44418e-19)
(0.895002 7.60258 -1.37386e-21)
(0.6712 7.19832 0)
(0.46846 6.78792 1.64273e-19)
(0.287133 6.37248 2.2317e-20)
(0.127297 5.95323 2.36293e-20)
(20.3911 0.0920991 -8.19605e-20)
(20.4625 0.610202 0)
(20.5061 1.13002 0)
(20.5223 1.6512 9.4125e-19)
(20.5108 2.17234 -6.29393e-19)
(20.4722 2.69219 -2.21838e-18)
(20.4064 3.20893 0)
(20.3136 3.72169 0)
(20.194 4.22875 -1.20806e-18)
(20.0477 4.72866 0)
(19.8751 5.22068 -1.77031e-18)
(19.6767 5.70252 1.17458e-18)
(19.4541 6.17239 -5.83108e-19)
(19.2083 6.63001 0)
(18.9395 7.07496 2.30685e-18)
(18.648 7.5059 1.08041e-18)
(18.3347 7.92165 -1.08258e-18)
(18.0007 8.32103 1.02989e-18)
(17.6467 8.7034 -3.04348e-18)
(17.2738 9.06754 2.04994e-18)
(16.8833 9.41233 -1.99101e-18)
(16.476 9.73733 -1.01526e-18)
(16.0532 10.0413 -9.18101e-19)
(15.6159 10.3236 2.6643e-18)
(15.1654 10.5834 8.53906e-19)
(14.7026 10.8205 7.81443e-19)
(14.2284 11.0352 -7.05817e-19)
(13.7449 11.2265 0)
(13.2531 11.3938 0)
(12.7545 11.5363 0)
(12.2502 11.6542 0)
(11.7416 11.7471 0)
(11.2303 11.815 0)
(10.7171 11.8579 0)
(10.2038 11.8757 -4.93515e-19)
(9.69145 11.8686 4.37853e-19)
(9.18143 11.8365 3.50891e-19)
(8.67496 11.7798 -1.70361e-18)
(8.17314 11.699 -2.661e-19)
(7.67732 11.5942 7.94186e-19)
(7.18872 11.4659 4.37594e-19)
(6.70871 11.3146 -3.4943e-19)
(6.23816 11.141 1.29732e-19)
(5.77841 10.9453 9.54184e-20)
(5.33056 10.7285 -8.52058e-21)
(4.89542 10.4912 8.61625e-21)
(4.47406 10.2341 9.1278e-20)
(4.06746 9.95797 0)
(3.67665 9.66379 8.04541e-20)
(3.30244 9.35253 -1.82649e-19)
(2.94546 9.02508 1.02487e-19)
(2.60665 8.68231 0)
(2.28683 8.32537 -3.05954e-19)
(1.98628 7.95542 0)
(1.7059 7.57341 0)
(1.44594 7.18076 -9.5155e-19)
(1.20704 6.77868 4.59091e-19)
(0.989405 6.36859 1.26991e-19)
(0.793615 5.95147 -1.32816e-19)
(0.619973 5.52862 0)
(0.46871 5.10125 -3.74793e-20)
(20.1809 0.481892 6.26079e-20)
(20.2404 0.983823 0)
(20.273 1.48622 -2.49844e-19)
(20.2779 1.98894 -1.65203e-20)
(20.256 2.49058 0)
(20.2081 2.99059 2.00535e-18)
(20.1339 3.4882 9.79065e-19)
(20.0332 3.98282 0)
(19.9063 4.4723 3.24522e-20)
(19.7533 4.95439 9.4795e-19)
(19.5755 5.42746 1.44028e-18)
(19.3739 5.89013 -4.73486e-19)
(19.1489 6.34074 0)
(18.9009 6.77845 0)
(18.6304 7.20282 1.744e-18)
(18.3383 7.61298 -8.60652e-19)
(18.0255 8.00791 -8.06313e-19)
(17.6929 8.38665 0)
(17.3414 8.74841 2.43623e-18)
(16.9722 9.09224 -2.33754e-18)
(16.5862 9.4172 -1.49294e-18)
(16.1845 9.7226 -1.44469e-18)
(15.7682 10.0075 0)
(15.3385 10.2713 -2.06439e-18)
(14.8964 10.5132 -6.73668e-19)
(14.4431 10.7327 6.15475e-19)
(13.9799 10.9293 6.0581e-19)
(13.5081 11.1027 0)
(13.0288 11.2528 0)
(12.5432 11.379 0)
(12.0527 11.4813 0)
(11.5584 11.5595 0)
(11.0616 11.6136 0)
(10.5638 11.6436 0)
(10.0661 11.6494 -1.05857e-18)
(9.56983 11.6311 3.38912e-19)
(9.07617 11.5889 -2.70261e-19)
(8.58628 11.5229 1.28736e-18)
(8.10131 11.4337 0)
(7.62247 11.3214 3.61702e-19)
(7.15095 11.1867 2.95035e-19)
(6.68799 11.0298 1.2624e-19)
(6.23459 10.8515 -7.57358e-20)
(5.79192 10.6523 -9.50674e-20)
(5.361 10.4326 3.01247e-20)
(4.94274 10.1933 -1.41018e-21)
(4.53799 9.93505 1.02933e-19)
(4.14774 9.65863 0)
(3.77288 9.36498 0)
(3.41428 9.05497 8.08613e-20)
(3.07264 8.72948 9.77536e-20)
(2.74866 8.38947 2.10583e-19)
(2.44308 8.03588 2.41135e-19)
(2.15634 7.66984 0)
(1.88915 7.29223 3.00309e-19)
(1.64173 6.90453 3.31271e-19)
(1.41462 6.50779 0)
(1.20819 6.10349 -1.79446e-21)
(1.02298 5.69255 0)
(0.85922 5.27625 0)
(0.717168 4.8557 2.87884e-20)
(20.0269 0.431079 -1.03827e-19)
(20.0841 0.916764 2.03097e-19)
(20.1153 1.40538 -4.00496e-19)
(20.1201 1.89494 -2.15505e-19)
(20.0986 2.38393 0)
(20.0503 2.87124 -8.3472e-19)
(19.9752 3.35634 -8.28772e-19)
(19.8748 3.83724 0)
(19.7497 4.31387 3.45484e-20)
(19.6005 4.78411 -8.01142e-19)
(19.4272 5.24583 1.51243e-18)
(19.2301 5.69802 1.48892e-18)
(19.0097 6.13956 0)
(18.7667 6.56926 -7.25692e-19)
(18.5019 6.98586 -1.44148e-18)
(18.216 7.38816 -7.10783e-19)
(17.9099 7.7753 2.08218e-18)
(17.5845 8.1464 -1.33766e-18)
(17.2407 8.50071 1.30155e-18)
(16.8795 8.83738 1.8896e-18)
(16.5021 9.15559 2.45334e-18)
(16.1095 9.45457 1.21293e-18)
(15.7028 9.73347 5.58162e-19)
(15.2829 9.9916 1.68755e-18)
(14.8509 10.2285 5.16414e-19)
(14.408 10.4435 5.1703e-19)
(13.9554 10.6363 4.68481e-19)
(13.4943 10.8065 -1.3641e-18)
(13.0259 10.9538 8.4576e-19)
(12.5514 11.0778 7.89341e-19)
(12.0721 11.1783 -1.53166e-18)
(11.5891 11.2553 7.42244e-19)
(11.1038 11.3088 -6.45814e-19)
(10.6174 11.3388 3.03104e-19)
(10.1313 11.3451 2.92859e-19)
(9.64654 11.3279 2.37867e-19)
(9.16442 11.2872 -2.39403e-19)
(8.68597 11.2234 -2.25702e-19)
(8.21233 11.1368 -5.15515e-19)
(7.74471 11.0278 -2.99125e-19)
(7.28427 10.8969 -4.66945e-19)
(6.83212 10.7444 -4.33766e-19)
(6.38944 10.5711 1.24902e-19)
(5.95726 10.3773 7.38825e-21)
(5.53661 10.1637 -1.61047e-21)
(5.12839 9.93075 3.12834e-20)
(4.7333 9.67933 -2.67881e-19)
(4.35237 9.41021 5.80237e-20)
(3.98641 9.12433 0)
(3.63637 8.82247 0)
(3.30282 8.50544 1.49917e-19)
(2.9866 8.17434 8.58238e-22)
(2.6883 7.82998 -1.96436e-19)
(2.40838 7.47339 0)
(2.14746 7.10539 -2.4397e-19)
(1.90571 6.72746 0)
(1.6837 6.34075 0)
(1.48168 5.94652 -2.34666e-19)
(1.30045 5.5459 -8.35871e-20)
(1.13998 5.14004 8.68429e-20)
(1.00084 4.73013 -4.6073e-20)
(19.8701 0.502776 1.88841e-21)
(19.9218 0.975374 -1.75879e-19)
(19.948 1.45053 5.1549e-19)
(19.9488 1.92668 3.42062e-19)
(19.9241 2.40266 -5.03906e-19)
(19.8738 2.87712 3.37634e-19)
(19.799 3.34804 -2.41795e-21)
(19.6993 3.81341 -6.5366e-19)
(19.5747 4.27308 9.95798e-19)
(19.4268 4.72623 -1.29712e-18)
(19.2557 5.17177 1.22063e-18)
(19.0616 5.60824 -1.29797e-18)
(18.8452 6.03452 -6.23585e-19)
(18.607 6.44958 0)
(18.3478 6.85207 6.42216e-19)
(18.0683 7.24077 5.47935e-19)
(17.7692 7.61495 0)
(17.4514 7.97364 1.07925e-18)
(17.1157 8.31614 0)
(16.7633 8.64169 -1.06768e-18)
(16.3952 8.94942 9.42605e-19)
(16.0125 9.23855 -4.09411e-20)
(15.6163 9.50819 -4.59874e-20)
(15.2074 9.75763 1.82972e-21)
(14.7868 9.98643 -1.77418e-18)
(14.3556 10.1941 -8.06776e-19)
(13.915 10.3803 1.57645e-18)
(13.4662 10.5446 1.45748e-18)
(13.0105 10.6868 -7.26873e-19)
(12.5489 10.8063 0)
(12.0826 10.9031 0)
(11.6127 10.9772 0)
(11.1405 11.0285 5.53825e-19)
(10.6673 11.0571 -1.93893e-18)
(10.1946 11.0628 8.99803e-19)
(9.72317 11.0456 -4.28942e-19)
(9.2543 11.0057 -6.86117e-19)
(8.789 10.9432 6.44072e-19)
(8.32827 10.8587 2.17417e-20)
(7.8734 10.7525 -2.0284e-19)
(7.42548 10.6251 2.2278e-19)
(6.98559 10.4769 1.44699e-19)
(6.55495 10.3085 0)
(6.13457 10.1204 -4.00344e-20)
(5.72542 9.91314 0)
(5.32847 9.68702 7.7913e-20)
(4.94417 9.44301 -4.07408e-20)
(4.57354 9.18184 0)
(4.21725 8.90449 9.49711e-20)
(3.8766 8.61163 1.96941e-20)
(3.55184 8.304 -2.48964e-19)
(3.24382 7.98272 1.46476e-19)
(2.95331 7.64857 9.63792e-20)
(2.68049 7.3025 -1.7669e-19)
(2.42624 6.9453 8.16149e-21)
(2.19013 6.57827 -1.07194e-19)
(1.97322 6.20265 -5.77933e-20)
(1.77542 5.81975 -1.2848e-19)
(1.59789 5.43065 3.40639e-19)
(1.44023 5.03647 -1.44883e-19)
(1.30354 4.63832 1.91811e-20)
(19.7054 0.55277 3.702e-20)
(19.7523 1.01031 0)
(19.7746 1.46996 -5.77295e-19)
(19.7722 1.93055 0)
(19.7452 2.39075 2.87332e-19)
(19.6939 2.84915 8.40682e-19)
(19.6184 3.30434 5.5144e-19)
(19.5187 3.75585 1.11834e-18)
(19.3955 4.20169 9.80802e-21)
(19.2495 4.64097 -6.80416e-21)
(19.0811 5.07229 -6.04961e-20)
(18.8906 5.49465 -5.31819e-19)
(18.6784 5.90702 5.13525e-19)
(18.4453 6.30845 -1.50541e-18)
(18.1921 6.69772 1.0215e-18)
(17.9195 7.07359 -4.91077e-20)
(17.6278 7.43526 -9.26092e-19)
(17.3179 7.78187 -9.48804e-19)
(16.9907 8.11287 0)
(16.6473 8.42767 8.49243e-19)
(16.2889 8.72529 -3.81006e-20)
(15.9165 9.00496 -1.67061e-18)
(15.5313 9.26576 -5.92659e-21)
(15.1339 9.50679 -6.92891e-19)
(14.7252 9.72787 2.10904e-18)
(14.3063 9.92851 -3.4915e-20)
(13.8782 10.1084 -6.73238e-19)
(13.4423 10.2673 -7.1197e-20)
(12.9998 10.4047 0)
(12.5517 10.5204 0)
(12.0991 10.6138 0)
(11.6428 10.6855 0)
(11.1844 10.7351 0)
(10.725 10.7631 5.44537e-20)
(10.2662 10.7687 -3.4894e-19)
(9.80874 10.7522 3.93997e-20)
(9.35376 10.7136 5.35703e-20)
(8.9022 10.653 2.23709e-19)
(8.45484 10.5711 4.25421e-19)
(8.01312 10.4683 -5.29396e-19)
(7.57817 10.3449 3.11087e-19)
(7.15086 10.2016 -9.6041e-20)
(6.73261 10.0389 0)
(6.3244 9.85726 3.49254e-20)
(5.92714 9.6572 0)
(5.542 9.43864 -4.0599e-20)
(5.16869 9.20285 7.7775e-20)
(4.80883 8.95046 -5.40452e-20)
(4.46246 8.68263 -6.82056e-20)
(4.13154 8.39973 1.02367e-19)
(3.81584 8.10241 1.92729e-20)
(3.51624 7.79197 1.54298e-20)
(3.23375 7.46894 -2.81915e-19)
(2.96823 7.13439 3.21368e-19)
(2.72086 6.7887 1.75999e-19)
(2.49047 6.43352 9.20288e-20)
(2.27885 6.06986 3.06214e-19)
(2.08494 5.69923 0)
(1.91105 5.32253 -2.34277e-19)
(1.756 4.941 6.22267e-20)
(1.62166 4.55547 0)
(19.5242 0.605289 0)
(19.5658 1.04712 0)
(19.5838 1.491 2.50646e-19)
(19.578 1.9355 -4.80188e-19)
(19.5486 2.37966 -2.47872e-19)
(19.496 2.82216 -1.20353e-18)
(19.4202 3.26133 4.64616e-19)
(19.3209 3.69612 -9.60814e-19)
(19.1989 4.12623 1.55751e-20)
(19.0551 4.55036 1.36188e-18)
(18.89 4.96652 -1.81804e-18)
(18.7034 5.37383 0)
(18.496 5.77124 0)
(18.2684 6.15849 1.72153e-18)
(18.0216 6.5341 8.31993e-19)
(17.7564 6.89616 -1.68851e-18)
(17.4727 7.24453 2.41733e-18)
(17.1712 7.57829 7.68859e-19)
(16.8529 7.89709 -1.50695e-18)
(16.5188 8.20067 -7.56292e-19)
(16.1707 8.48757 6.97645e-19)
(15.8092 8.75738 -7.14511e-20)
(15.4356 9.00903 0)
(15.0507 9.24101 1.30613e-18)
(14.6544 9.45387 -1.84234e-18)
(14.2483 9.6471 5.93364e-19)
(13.8335 9.82021 1.06762e-18)
(13.411 9.97354 -2.59181e-18)
(12.9827 10.106 5.0706e-19)
(12.5489 10.2177 0)
(12.1111 10.3074 0)
(11.6691 10.3767 0)
(11.2254 10.4246 3.51387e-19)
(10.7804 10.4524 9.94203e-19)
(10.3369 10.4583 -5.86014e-19)
(9.89427 10.4427 2.55554e-19)
(9.45413 10.4057 2.44859e-19)
(9.01749 10.347 -4.35476e-19)
(8.58426 10.2679 0)
(8.15638 10.1688 -2.43801e-19)
(7.73526 10.0497 1.26868e-19)
(7.32094 9.91149 1.42441e-20)
(6.91551 9.75478 9.80954e-21)
(6.52012 9.57998 2.98943e-20)
(6.13514 9.38793 -1.06242e-20)
(5.76295 9.17728 1.52235e-19)
(5.40101 8.95047 -6.518e-20)
(5.05279 8.70731 2.22458e-19)
(4.7164 8.44994 0)
(4.39622 8.17794 0)
(4.0901 7.89161 -4.00694e-19)
(3.79909 7.59294 1.08974e-19)
(3.52558 7.28194 2.50101e-19)
(3.26746 6.95984 1.47817e-19)
(3.02812 6.62632 -4.6579e-19)
(2.80333 6.28365 -2.607e-19)
(2.59759 5.9325 -9.59522e-20)
(2.40719 5.57506 -2.09003e-21)
(2.23767 5.21169 1.02782e-19)
(2.08482 4.8436 0)
(1.95331 4.47146 0)
(19.321 0.654817 -2.5306e-20)
(19.3566 1.07981 0)
(19.3698 1.507 0)
(19.3601 1.93468 2.13028e-19)
(19.3281 2.36178 0)
(19.2744 2.78728 8.20863e-19)
(19.1989 3.2095 4.04863e-19)
(19.1004 3.62682 -7.95156e-19)
(18.9791 4.04112 0)
(18.8379 4.45029 -8.0735e-19)
(18.6774 4.84968 4.44152e-20)
(18.4954 5.24115 0)
(18.2935 5.62242 0)
(18.0715 5.99462 -7.52737e-19)
(17.8316 6.35672 6.94969e-19)
(17.5753 6.70377 -7.19844e-19)
(17.3002 7.03815 -7.01779e-19)
(17.0076 7.35874 0)
(16.6989 7.66422 6.63068e-19)
(16.3746 7.95607 -1.20891e-18)
(16.0377 8.23136 -1.16788e-18)
(15.6878 8.49092 -1.19915e-18)
(15.3262 8.7337 -9.61743e-21)
(14.9554 8.95543 -9.89745e-19)
(14.5719 9.15962 1.04946e-18)
(14.1789 9.34538 9.45843e-19)
(13.7785 9.51078 -9.59847e-19)
(13.3696 9.65853 6.00814e-20)
(12.9563 9.78521 1.01457e-21)
(12.5369 9.89388 -8.01904e-19)
(12.1156 9.97864 0)
(11.6877 10.0465 -6.39296e-19)
(11.2604 10.0918 1.23135e-18)
(10.8297 10.1206 -4.64223e-20)
(10.4036 10.1272 5.26916e-19)
(9.97712 10.1127 -4.29019e-19)
(9.55297 10.0778 3.6464e-19)
(9.13331 10.0207 2.61607e-19)
(8.71496 9.94462 -5.75076e-19)
(8.30149 9.84949 2.41819e-19)
(7.89584 9.73477 1.54922e-19)
(7.49435 9.6018 1.64332e-19)
(7.10179 9.45111 -3.54645e-20)