/*--------------------------------*- C++ -*----------------------------------*\
| =========                 |                                                 |
| \\      /  F ield         | OpenFOAM: The Open Source CFD Toolbox           |
|  \\    /   O peration     | Version:  2.3.1                                 |
|   \\  /    A nd           | Web:      www.OpenFOAM.org                      |
|    \\/     M anipulation  |                                                 |
\*---------------------------------------------------------------------------*/
FoamFile
{
    version     2.0;
    format      ascii;
    class       volVectorField;
    location    "0.08";
    object      U;
}
// * * * * * * * * * * * * * * * * * * * * * * * * * * * * * * * * * * * * * //

dimensions      [0 1 -1 0 0 0 0];

internalField   nonuniform List<vector> 
15166
(
(6.2159 0.569675 1.72009e-19)
(7.39332 1.06062 1.11124e-18)
(8.42626 0.905561 -6.83211e-19)
(9.4027 0.946226 6.09914e-19)
(10.1405 0.994596 6.518e-19)
(10.8575 1.03652 3.55841e-19)
(11.4519 1.11893 -7.18107e-19)
(11.9373 1.1712 6.98729e-19)
(12.2833 1.24904 -3.60451e-19)
(12.547 1.29549 1.43977e-18)
(12.7373 1.33889 -1.06267e-18)
(12.8642 1.38515 1.06928e-18)
(6.92727 1.05437 3.6112e-19)
(7.81502 1.47113 5.74084e-20)
(8.71354 1.22385 3.06866e-20)
(9.57905 1.22967 3.66394e-19)
(10.2807 1.23232 -3.09406e-19)
(10.9497 1.2437 0)
(11.5085 1.28903 3.55281e-19)
(11.9592 1.32001 -7.39966e-23)
(12.2891 1.36507 3.57608e-19)
(12.5405 1.39347 -7.26945e-19)
(12.7222 1.42139 1.43626e-18)
(12.8527 1.44942 -1.07749e-18)
(7.48585 1.29493 -3.36154e-19)
(8.25882 1.62098 -1.93246e-18)
(9.0638 1.39552 3.91923e-19)
(9.82851 1.41785 -7.49181e-19)
(10.4774 1.40675 -1.77826e-20)
(11.0896 1.40645 7.36333e-19)
(11.6045 1.42976 -1.06168e-18)
(12.0174 1.44513 -3.73378e-19)
(12.3247 1.4684 7.12641e-19)
(12.5583 1.48222 6.6092e-21)
(12.7283 1.4963 -1.0783e-18)
(12.854 1.51056 1.42481e-18)
(7.80074 1.41664 0)
(8.57747 1.68099 -8.78856e-19)
(9.3516 1.49957 2.08029e-18)
(10.0586 1.5384 -1.19198e-18)
(10.6704 1.52535 7.69876e-19)
(11.2371 1.52422 1.15284e-18)
(11.7134 1.53691 -3.55749e-19)
(12.0932 1.54335 3.74683e-19)
(12.3782 1.55306 -7.35187e-19)
(12.594 1.55637 7.31517e-19)
(12.7526 1.55932 3.66224e-19)
(12.8733 1.56218 7.31031e-19)
(8.01701 1.49348 -5.16208e-19)
(8.82282 1.7172 -4.82901e-19)
(9.58247 1.57668 -1.30647e-18)
(10.255 1.62243 1.24074e-18)
(10.8429 1.60959 -3.94843e-19)
(11.3765 1.61027 -3.85906e-19)
(11.8224 1.61747 -3.79604e-19)
(12.1755 1.61878 3.92653e-19)
(12.4411 1.62009 -3.73712e-19)
(12.6412 1.61634 -3.69345e-19)
(12.7891 1.61189 -1.11142e-18)
(12.9026 1.60804 -5.19772e-21)
(8.20825 1.54729 1.0231e-18)
(9.04282 1.73966 9.85531e-19)
(9.78666 1.63473 -9.2813e-19)
(10.4324 1.68253 1.76375e-18)
(11.0009 1.67127 -1.6973e-18)
(11.5079 1.67401 8.16826e-19)
(11.9288 1.67789 0)
(12.26 1.67593 7.89537e-19)
(12.5088 1.67186 -1.54422e-18)
(12.6953 1.66325 7.57938e-19)
(12.8334 1.65358 0)
(12.9399 1.64468 1.11722e-18)
(8.38378 1.58335 -5.72192e-19)
(9.24699 1.74933 5.30688e-19)
(9.97518 1.67513 0)
(10.5985 1.7231 0)
(11.1491 1.71486 4.5088e-19)
(11.6332 1.71975 4.34586e-19)
(12.0327 1.72172 -8.3177e-19)
(12.3451 1.71771 1.21635e-18)
(12.5794 1.71007 4.02115e-19)
(12.754 1.69792 0)
(12.8837 1.68411 3.88929e-19)
(12.9846 1.67119 0)
(8.54035 1.60514 -1.16189e-18)
(9.43315 1.74889 1.07923e-18)
(10.1482 1.70082 4.94364e-19)
(10.7535 1.74783 4.90729e-19)
(11.2881 1.74331 -2.28438e-18)
(11.7525 1.75028 4.48468e-19)
(12.1334 1.75136 0)
(12.4297 1.74624 -4.10563e-19)
(12.6514 1.73638 4.14818e-19)
(12.8158 1.72188 3.44589e-21)
(12.938 1.70526 -7.7719e-19)
(13.0324 1.68982 7.73007e-19)
(8.67924 1.61569 1.20694e-18)
(9.60171 1.74096 -1.12045e-18)
(10.3061 1.71512 5.12303e-19)
(10.8971 1.76031 -1.47998e-18)
(11.4178 1.75957 1.89876e-18)
(11.8652 1.76828 -1.82548e-18)
(12.2302 1.76912 8.82055e-19)
(12.5127 1.76354 0)
(12.7234 1.75244 4.24049e-19)
(12.879 1.73657 0)
(12.9946 1.71826 8.14174e-19)
(13.0837 1.70085 -3.93252e-19)
(8.80375 1.61743 1.25208e-18)
(9.75535 1.72736 0)
(10.451 1.72047 5.49996e-19)
(11.0301 1.76331 5.21494e-19)
(11.5385 1.76607 4.97265e-19)
(11.9714 1.77611 4.77377e-19)
(12.3226 1.77704 0)
(12.5933 1.7714 0)
(12.7945 1.75967 -1.28286e-18)
(12.9426 1.74302 2.10472e-18)
(13.0523 1.72372 -8.14631e-19)
(13.1362 1.70651 -1.21524e-18)
(8.91669 1.61219 1.28585e-18)
(9.89664 1.7093 -1.77277e-18)
(10.5849 1.71853 1.68019e-18)
(11.1539 1.75872 -1.57684e-18)
(11.6512 1.76462 -4.95575e-19)
(12.0714 1.77561 -4.76244e-19)
(12.4106 1.77678 9.31554e-19)
(12.6711 1.77127 -9.05624e-19)
(12.8642 1.75932 -1.32472e-18)
(13.0058 1.74229 -4.23193e-19)
(13.1104 1.72203 1.69135e-18)
(13.1892 1.70369 -8.16562e-19)
(9.01988 1.60117 -1.32676e-18)
(10.0273 1.6875 -1.81475e-18)
(10.7095 1.71046 -2.83451e-19)
(11.2697 1.74786 1.08605e-18)
(11.7567 1.75652 7.69077e-19)
(12.1657 1.76814 -1.98372e-18)
(12.4944 1.76963 1.91298e-18)
(12.7459 1.76437 -3.67609e-21)
(12.932 1.75251 -1.35692e-18)
(13.0679 1.73566 8.80756e-19)
(13.1678 1.71541 -4.25365e-19)
(13.242 1.69636 8.3129e-19)
(9.11448 1.58537 -1.01567e-18)
(10.1485 1.66256 -3.16062e-19)
(10.8257 1.69717 2.88489e-19)
(11.3782 1.73174 0)
(11.8559 1.74277 2.61058e-19)
(12.2548 1.75476 -2.56948e-19)
(12.5742 1.7566 0)
(12.8179 1.75164 0)
(12.9976 1.74003 2.32778e-19)
(13.1282 1.72352 0)
(13.2232 1.70378 0)
(13.2918 1.68468 -8.44645e-19)
(9.20156 1.56553 -3.43383e-19)
(10.2615 1.63493 3.14628e-19)
(10.9346 1.67942 0)
(11.4801 1.71117 0)
(11.9492 1.72419 1.07828e-18)
(12.3391 1.73632 -7.84955e-19)
(12.6502 1.73847 9.97371e-19)
(12.8869 1.73377 -9.71439e-19)
(13.0611 1.72229 7.05186e-19)
(13.1874 1.70564 -5.4807e-21)
(13.2788 1.68553 -1.78813e-18)
(13.3444 1.67043 1.09162e-18)
(9.28187 1.54225 -1.42142e-18)
(10.3669 1.60494 0)
(11.0369 1.65779 1.21621e-18)
(11.576 1.68678 -1.45341e-18)
(12.0372 1.70145 0)
(12.419 1.71357 2.67653e-19)
(12.7227 1.716 1.01742e-18)
(12.9532 1.7116 -2.22565e-18)
(13.1226 1.70056 1.91912e-18)
(13.245 1.68455 -9.37503e-19)
(13.3334 1.66449 9.08704e-19)
(13.3961 1.64311 -1.10934e-18)
(9.35613 1.51602 3.75734e-21)
(10.4655 1.57288 6.65867e-19)
(11.1332 1.63279 0)
(11.6665 1.65909 2.91496e-19)
(12.1203 1.67513 0)
(12.4948 1.6871 8.08518e-19)
(12.7917 1.6898 -7.95022e-21)
(13.0167 1.68568 -7.61589e-19)
(13.1818 1.67505 0)
(13.3007 1.65963 -2.40026e-19)
(13.3857 1.64028 2.34028e-19)
(13.4458 1.61745 0)
(9.42496 1.48726 3.614e-19)
(10.5579 1.53898 -1.01773e-18)
(11.224 1.60481 9.49451e-19)
(11.7519 1.62852 -4.81256e-21)
(12.1989 1.64565 2.84414e-19)
(12.5666 1.65738 -2.74478e-19)
(12.8575 1.66029 0)
(13.0776 1.65644 0)
(13.2389 1.64619 9.91225e-19)
(13.3546 1.63124 -7.32333e-19)
(13.4366 1.6127 -4.72088e-19)
(13.4934 1.59105 -2.30283e-19)
(9.48873 1.45625 3.71612e-19)
(10.6448 1.50337 3.39103e-19)
(11.3098 1.57417 -3.18331e-19)
(11.8328 1.59539 6.06915e-19)
(12.2734 1.6134 -1.45253e-18)
(12.6349 1.62481 2.84329e-19)
(12.9202 1.6279 0)
(13.1359 1.62432 5.19122e-19)
(13.2937 1.61447 -5.08214e-19)
(13.4067 1.60002 -7.38604e-19)
(13.4861 1.58224 2.41959e-19)
(13.5404 1.56211 6.98239e-19)
(9.54794 1.42328 0)
(10.7265 1.46624 0)
(11.3909 1.54116 0)
(11.9094 1.56001 3.11945e-19)
(12.344 1.57868 0)
(12.6998 1.58972 5.65194e-19)
(12.98 1.59295 -8.25768e-19)
(13.1917 1.58961 0)
(13.3464 1.58022 -5.11933e-19)
(13.4568 1.56631 4.98601e-19)
(13.534 1.54915 0)
(13.5864 1.52942 0)
(9.60295 1.3886 1.93339e-18)
(10.8033 1.4277 -1.41166e-18)
(11.4679 1.50602 6.63828e-19)
(11.9821 1.5226 -9.3598e-19)
(12.4111 1.54175 1.1996e-18)
(12.7615 1.55236 -8.61961e-19)
(13.0371 1.55568 8.33821e-19)
(13.245 1.55257 2.64408e-19)
(13.3969 1.54364 -1.04404e-18)
(13.5049 1.53035 7.62276e-19)
(13.58 1.51393 0)
(13.6304 1.49383 0)
(9.65405 1.35238 -1.56911e-18)
(10.8758 1.38786 0)
(11.5408 1.46896 0)
(12.051 1.48336 -6.3319e-19)
(12.4747 1.50283 6.10753e-19)
(12.8203 1.51295 -8.71366e-19)
(13.0915 1.51633 5.26695e-21)
(13.2961 1.5134 8.18789e-19)
(13.4452 1.50487 5.27061e-19)
(13.5511 1.49212 -5.1766e-19)
(13.624 1.47652 -2.52673e-19)
(13.6722 1.45642 0)
(9.70139 1.31481 -1.19104e-18)
(10.944 1.34684 1.09165e-18)
(11.6099 1.43018 0)
(12.1164 1.44245 -6.41089e-19)
(12.5352 1.46209 9.28746e-19)
(12.8761 1.47171 0)
(13.1434 1.47508 0)
(13.3449 1.47228 2.7832e-19)
(13.4917 1.46404 5.34148e-19)
(13.5956 1.45158 -5.24747e-19)
(13.6668 1.43633 5.08752e-19)
(13.7137 1.41825 0)
(9.74549 1.27594 -4.58025e-21)
(11.0085 1.30459 -1.09946e-18)
(11.6756 1.38976 0)
(12.1786 1.40002 9.76624e-19)
(12.5927 1.41973 -9.35867e-19)
(12.9293 1.4288 3.01632e-19)
(13.193 1.43214 2.91075e-19)
(13.3916 1.42946 -8.35449e-19)
(13.5363 1.42158 5.46353e-19)
(13.6385 1.4096 -2.66161e-19)
(13.7084 1.3949 3.22905e-21)
(13.7538 1.37823 0)
(9.78585 1.23582 -8.09876e-19)
(11.0691 1.26125 7.44358e-19)
(11.7379 1.34791 0)
(12.2376 1.35622 -3.27322e-19)
(12.6474 1.3759 0)
(12.98 1.38441 -3.01257e-19)
(13.2403 1.3877 3.65286e-21)
(13.4363 1.38514 2.85143e-19)
(13.579 1.37761 -2.76849e-19)
(13.6797 1.3661 -3.23041e-21)
(13.7483 1.35187 -2.54154e-21)
(13.7926 1.33694 -1.02191e-18)
(9.82315 1.19499 -4.14241e-19)
(11.1261 1.21723 -7.45645e-19)
(11.797 1.30483 7.04036e-19)
(12.2937 1.31119 3.34918e-19)
(12.6994 1.33073 0)
(13.0282 1.33867 3.08365e-19)
(13.2854 1.34191 -5.91983e-19)
(13.479 1.33944 -5.67238e-19)
(13.6199 1.33224 8.36544e-19)
(13.7192 1.3212 -3.10547e-21)
(13.7866 1.3073 -2.99122e-21)
(13.8296 1.29285 2.57752e-19)
(9.85793 1.15321 4.08922e-19)
(11.18 1.17222 -7.59824e-19)
(11.8531 1.26051 -3.56447e-19)
(12.3471 1.26502 -3.34316e-19)
(12.7488 1.28436 -3.23834e-19)
(13.0741 1.29172 3.08551e-19)
(13.3283 1.29486 -1.2004e-18)
(13.5197 1.29247 3.02416e-21)
(13.659 1.28558 0)
(13.757 1.27501 8.17844e-19)
(13.8234 1.26159 -2.71306e-19)
(13.8659 1.24858 -2.60101e-19)
(9.88978 1.11052 -4.2258e-19)
(11.2307 1.12631 0)
(11.9063 1.21508 3.37908e-21)
(12.3977 1.21778 3.40996e-19)
(12.7958 1.23686 6.50277e-19)
(13.1177 1.24363 3.08179e-19)
(13.3692 1.24666 -1.21255e-18)
(13.5586 1.24434 2.97379e-19)
(13.6963 1.23779 8.58093e-19)
(13.7931 1.22775 0)
(13.8586 1.21483 0)
(13.9002 1.20174 0)
(9.91861 1.06696 1.69747e-18)
(11.2784 1.07956 -7.672e-19)
(11.9568 1.16866 7.27915e-19)
(12.4458 1.16958 -3.41197e-19)
(12.8404 1.18833 6.62734e-19)
(13.1592 1.19451 9.42998e-19)
(13.4081 1.1974 -9.17399e-19)
(13.5956 1.19514 6.1331e-21)
(13.7319 1.18885 1.15264e-18)
(13.8276 1.17922 -8.43759e-19)
(13.892 1.16686 2.74044e-19)
(13.9328 1.15465 -5.25108e-19)
(9.94474 1.02296 -4.26112e-19)
(11.3231 1.03234 -3.89856e-19)
(12.0046 1.12134 -3.62306e-19)
(12.4914 1.12047 -6.8773e-19)
(12.8827 1.13886 -3.23093e-19)
(13.1986 1.14444 3.20465e-19)
(13.4451 1.14717 3.03501e-19)
(13.6308 1.14494 -8.94626e-19)
(13.7659 1.13889 2.94682e-19)
(13.8606 1.12962 5.65036e-19)
(13.9243 1.11767 -2.74131e-19)
(13.9644 1.10745 -2.70089e-19)
(9.9684 0.978619 -8.58868e-19)
(11.365 0.984647 1.56933e-18)
(12.0499 1.07314 0)
(12.5346 1.07053 0)
(12.9228 1.08853 0)
(13.2359 1.0935 6.42966e-19)
(13.4802 1.09606 6.21627e-19)
(13.6643 1.09387 -2.99968e-19)
(13.7982 1.08808 2.94182e-19)
(13.8921 1.07924 2.54118e-21)
(13.9552 1.06763 -5.53023e-19)
(13.9946 1.05772 5.43172e-19)
(9.99014 0.933955 8.70953e-19)
(11.4044 0.936385 -1.94512e-19)
(12.0926 1.02406 -1.85724e-19)
(12.5756 1.01983 0)
(12.9608 1.03739 0)
(13.2713 1.04175 -3.22697e-19)
(13.5135 1.04415 3.11559e-19)
(13.6961 1.04198 -6.1109e-19)
(13.8289 1.03645 2.93604e-19)
(13.9221 1.02805 -8.64969e-19)
(13.9846 1.01693 0)
(14.0236 1.00791 -2.72421e-19)
(10.0093 0.888657 -1.75068e-18)
(11.4411 0.887319 6.01194e-19)
(12.1331 0.974165 1.8551e-19)
(12.6143 0.968386 -5.26279e-19)
(12.9968 0.9855 6.81111e-19)
(13.3047 0.98926 0)
(13.545 0.991482 6.2856e-19)
(13.7262 0.989337 -6.16091e-19)
(13.858 0.984043 0)
(13.9504 0.976079 0)
(14.0123 0.965415 0)
(14.0507 0.955693 5.44359e-19)
(10.0261 0.843296 0)
(11.4751 0.838077 0)
(12.171 0.923659 -3.73295e-19)
(12.6509 0.916295 1.83454e-21)
(13.0308 0.932928 0)
(13.3363 0.936092 -6.54676e-19)
(13.5748 0.938131 1.43304e-18)
(13.7547 0.935984 -4.6592e-19)
(13.8856 0.930893 -5.97284e-19)
(13.9774 0.92328 1.53085e-19)
(14.0387 0.913135 6.20252e-21)
(14.0766 0.904031 5.61151e-19)
(10.0409 0.797511 4.42788e-19)
(11.5067 0.788176 -2.02908e-19)
(12.2068 0.872481 1.89488e-19)
(12.6853 0.863625 -1.78158e-19)
(13.0627 0.879742 8.59641e-19)
(13.3661 0.882304 -1.66753e-19)
(13.6028 0.884153 -4.78666e-19)
(13.7815 0.882011 -3.07736e-19)
(13.9117 0.877136 3.04137e-19)
(14.0029 0.869903 -2.94708e-19)
(14.0638 0.860252 1.44227e-19)
(14.1012 0.851046 -1.37694e-19)
(10.0536 0.751295 6.70651e-19)
(11.5359 0.737764 -6.09341e-19)
(12.2403 0.820731 -1.89333e-19)
(12.7177 0.810367 1.8085e-19)
(13.0928 0.825977 -5.16411e-19)
(13.394 0.827949 5.00818e-19)
(13.6292 0.829605 -3.36781e-21)
(13.8068 0.827482 -1.58836e-19)
(13.9362 0.822849 -3.03066e-19)
(14.027 0.816009 4.46451e-19)
(14.0876 0.806964 1.43719e-19)
(14.1249 0.798679 -4.27098e-19)
(10.0639 0.70494 2.26317e-19)
(11.5626 0.687116 0)
(12.2717 0.768504 -1.91742e-19)
(12.7481 0.756596 1.17619e-21)
(13.121 0.771672 0)
(13.4202 0.773052 1.68321e-19)
(13.6539 0.774521 0)
(13.8304 0.772434 0)
(13.9592 0.768068 0)
(14.0495 0.761705 0)
(14.1097 0.75331 -2.9006e-19)
(14.1467 0.744883 5.67643e-19)
(10.0727 0.658375 -4.53897e-19)
(11.5872 0.636159 0)
(12.3009 0.71582 3.84398e-19)
(12.7765 0.702307 -1.81761e-19)
(13.1474 0.716865 -3.48148e-19)
(13.4447 0.717655 1.71027e-19)
(13.6769 0.718921 -3.25126e-19)
(13.8525 0.716831 3.19013e-19)
(13.9806 0.712666 -3.07095e-19)
(14.0704 0.706661 3.27405e-21)
(14.13 0.698962 1.50395e-19)
(14.1666 0.691863 2.85694e-19)
(10.0793 0.61131 0)
(11.6094 0.584616 -2.06629e-19)
(12.3281 0.662621 -1.92677e-19)
(12.803 0.647511 0)
(13.1719 0.66158 -3.50045e-19)
(13.4674 0.661763 6.78818e-19)
(13.6983 0.662818 -3.30427e-19)
(13.873 0.660697 0)
(14.0005 0.656672 0)
(14.0899 0.650859 -1.51779e-19)
(14.1492 0.643412 -1.47267e-19)
(14.1849 0.639505 0)
(10.0839 0.564266 4.56457e-19)
(11.6294 0.533072 -4.68114e-21)
(12.3532 0.609079 -3.13176e-21)
(12.8276 0.592267 -3.5987e-21)
(13.1947 0.605867 -5.32508e-19)
(13.4885 0.605444 0)
(13.7182 0.606269 0)
(13.8921 0.604109 0)
(14.0192 0.600221 0)
(14.1084 0.594563 1.51844e-19)
(14.1679 0.586696 -1.46425e-19)
(14.2042 0.585033 2.99448e-21)
(10.0869 0.516759 -5.74497e-19)
(11.6472 0.481027 6.26118e-19)
(12.3763 0.555115 3.88311e-19)
(12.8503 0.53659 -3.7206e-19)
(13.2158 0.54978 8.81441e-20)
(13.508 0.548752 0)
(13.7365 0.549378 3.30425e-19)
(13.9097 0.547219 -3.4567e-21)
(14.0364 0.543617 -3.15824e-19)
(14.1253 0.538637 0)
(14.1848 0.531417 -2.23963e-19)
(14.221 0.523648 0)
(10.0879 0.469171 2.07226e-21)
(11.6629 0.428865 4.20428e-19)
(12.3973 0.500796 9.82341e-20)
(12.8711 0.480553 2.76927e-19)
(13.2352 0.493379 -2.69528e-19)
(13.5258 0.491732 0)
(13.7533 0.49215 3.32033e-19)
(13.9258 0.489963 -3.47569e-21)
(14.0521 0.486491 -2.38336e-19)
(14.1408 0.481787 0)
(14.1999 0.475382 1.50235e-19)
(14.2362 0.471773 0)
(10.0877 0.421624 1.2912e-21)
(11.6764 0.37642 3.16305e-19)
(12.4163 0.445982 -9.82081e-20)
(12.8901 0.424242 1.86649e-19)
(13.2528 0.436713 0)
(13.5421 0.434403 0)
(13.7685 0.434614 -8.40035e-20)
(13.9404 0.432397 -8.1632e-20)
(14.0664 0.429087 -7.91377e-20)
(14.155 0.424699 -7.75059e-20)
(14.214 0.418677 -1.49836e-19)
(14.2499 0.415553 1.47023e-19)
(10.0857 0.373825 -1.16709e-19)
(11.6877 0.323432 -1.05157e-19)
(12.4335 0.390692 1.96611e-19)
(12.9074 0.36767 -4.68387e-19)
(13.2688 0.379773 1.80732e-19)
(13.5567 0.376793 0)
(13.7822 0.376794 8.40113e-20)
(13.9536 0.374544 8.16484e-20)
(14.0793 0.371411 -1.58477e-19)
(14.1678 0.367326 2.3381e-19)
(14.2268 0.361636 1.51182e-19)
(14.2626 0.358961 -1.49218e-19)
(10.0821 0.326298 0)
(11.6967 0.270551 0)
(12.4488 0.33506 9.9376e-20)
(12.9228 0.310805 0)
(13.2832 0.322617 -9.04472e-20)
(13.5698 0.318923 8.73375e-20)
(13.7945 0.318715 1.68147e-19)
(13.9653 0.316426 -2.47485e-19)
(14.0908 0.313466 0)
(14.1792 0.30973 -7.81888e-20)
(14.2381 0.304489 7.55105e-20)
(14.2739 0.30095 -2.22769e-19)
(10.0769 0.278588 5.90335e-20)
(11.7037 0.217318 2.11641e-19)
(12.4619 0.27901 -2.99019e-19)
(12.9366 0.253684 0)
(13.296 0.265275 4.50621e-20)
(13.5814 0.260815 8.67507e-20)
(13.8052 0.260398 -3.3933e-19)
(13.9756 0.25806 4.12199e-19)
(14.1009 0.255246 -1.61539e-19)
(14.1893 0.251791 1.17477e-19)
(14.2482 0.247019 0)
(14.2842 0.243599 7.48817e-20)
(10.07 0.23099 -5.90533e-20)
(11.7088 0.164059 0)
(12.4729 0.222809 -4.93241e-20)
(12.9486 0.1965 9.51601e-20)
(13.3072 0.207728 1.35791e-19)
(13.5914 0.20244 -8.82369e-20)
(13.8145 0.201857 -4.26219e-20)
(13.9845 0.199485 4.14425e-20)
(14.1096 0.196848 8.01878e-20)
(14.198 0.193776 -1.18376e-19)
(14.2569 0.189765 -3.84684e-20)
(14.293 0.185261 -3.73106e-20)
(10.0615 0.183418 -8.83169e-20)
(11.7118 0.110626 1.34099e-19)
(12.482 0.166506 -7.50577e-20)
(12.959 0.139323 1.18269e-19)
(13.3168 0.149968 -2.05081e-19)
(13.6 0.143813 1.761e-19)
(13.8223 0.143113 -6.45787e-20)
(13.992 0.140688 4.11335e-20)
(14.117 0.138181 -1.61809e-19)
(14.2053 0.135294 5.96203e-20)
(14.2643 0.131715 3.8495e-20)
(14.3004 0.127637 3.77576e-20)
(10.0517 0.136046 -8.89185e-20)
(11.7131 0.0571536 2.7097e-20)
(12.4892 0.110073 2.50632e-20)
(12.9677 0.082166 -2.37613e-20)
(13.3248 0.0920117 -2.2647e-20)
(13.6069 0.0849594 4.43749e-20)
(13.8287 0.0842119 2.13816e-20)
(13.998 0.0817289 0)
(14.123 0.0793758 0)
(14.2114 0.0767886 1.97758e-20)
(14.2705 0.073862 0)
(14.3067 0.0699001 0)
(10.0405 0.0887518 -1.49232e-20)
(11.7128 0.00330512 1.33752e-20)
(12.4946 0.0536848 6.83308e-22)
(12.9747 0.0249657 -1.2359e-20)
(13.3309 0.0335747 0)
(13.6124 0.0260168 0)
(13.8336 0.0252461 1.1348e-20)
(14.0027 0.0226352 -2.08792e-20)
(14.1277 0.0204139 1.02301e-20)
(14.2162 0.0180293 6.21288e-22)
(14.2754 0.0154735 0)
(14.3117 0.0123286 0)
(10.0276 0.0417059 4.48992e-20)
(11.7105 -0.0508182 2.68064e-20)
(12.4983 -0.0027981 -1.34572e-20)
(12.98 -0.0324029 3.72973e-22)
(13.3355 -0.0250877 -1.14826e-20)
(13.6164 -0.0328465 1.10956e-20)
(13.8371 -0.0338821 -1.14403e-20)
(14.006 -0.0365981 -3.12953e-20)
(14.131 -0.0386484 -9.98889e-21)
(14.2196 -0.0407234 9.43699e-21)
(14.279 -0.0426745 -9.73598e-21)
(14.3155 -0.0453025 0)
(10.0132 -0.00500458 4.46801e-20)
(11.7063 -0.104795 -8.09395e-20)
(12.5003 -0.0592707 1.27767e-20)
(12.9835 -0.0898787 -2.36986e-20)
(13.3387 -0.0838174 3.49285e-20)
(13.619 -0.0917691 3.35487e-20)
(13.8392 -0.0931589 1.07666e-20)
(14.008 -0.0959501 1.04758e-20)
(14.1329 -0.0978828 1.02136e-20)
(14.2217 -0.0997926 2.99432e-20)
(14.2812 -0.101537 -9.77288e-21)
(14.3172 -0.102813 5.72248e-20)
(9.99752 -0.0516159 -5.94356e-20)
(11.7001 -0.158795 -8.00668e-20)
(12.5006 -0.115764 1.26759e-19)
(12.9853 -0.147424 -2.39531e-20)
(13.3403 -0.142581 -1.14577e-19)
(13.62 -0.150769 1.77878e-19)
(13.8399 -0.152525 -4.35838e-20)
(14.0085 -0.155381 0)
(14.1336 -0.157232 4.09742e-20)
(14.2227 -0.159015 -1.99737e-20)
(14.2827 -0.160912 1.95179e-20)
(14.3195 -0.160652 -1.91262e-20)
(9.98016 -0.0980688 -1.21093e-19)
(11.6922 -0.212708 -5.90272e-22)
(12.4991 -0.172274 0)
(12.9855 -0.205027 -9.557e-20)
(13.3404 -0.201324 9.25928e-20)
(13.6196 -0.209786 0)
(13.8391 -0.211903 4.62897e-23)
(14.0078 -0.214781 0)
(14.1331 -0.216466 -4.0973e-20)
(14.2225 -0.217818 0)
(14.2829 -0.219231 0)
(14.3205 -0.21833 -7.53055e-20)
(9.96137 -0.144195 6.03e-20)
(11.6825 -0.266337 5.34475e-20)
(12.4958 -0.228701 -4.05349e-19)
(12.9841 -0.262631 3.84551e-19)
(13.339 -0.260051 -1.85347e-19)
(13.6177 -0.268813 0)
(13.837 -0.271265 -4.32274e-20)
(14.0056 -0.274159 0)
(14.1311 -0.275703 0)
(14.2207 -0.276729 0)
(14.2814 -0.27781 0)
(14.3193 -0.276775 -1.51344e-19)
(9.94125 -0.19005 1.20846e-19)
(11.6711 -0.319817 2.16809e-19)
(12.4909 -0.285131 0)
(12.981 -0.320237 2.87735e-19)
(13.3361 -0.318733 -9.31487e-20)
(13.6144 -0.327835 0)
(13.8334 -0.330619 -8.56199e-20)
(14.002 -0.333553 8.60547e-20)
(14.1277 -0.334997 1.65162e-19)
(14.2176 -0.33574 2.39745e-19)
(14.2786 -0.336364 -1.57617e-19)
(14.3168 -0.336003 7.58673e-20)
(9.91991 -0.235564 -4.83888e-19)
(11.6578 -0.373054 -1.08491e-19)
(12.4842 -0.341531 1.01618e-19)
(12.9764 -0.377822 2.34315e-23)
(13.3317 -0.377358 -9.23383e-20)
(13.6096 -0.386833 8.92179e-20)
(13.8284 -0.389953 8.56846e-20)
(13.9971 -0.392945 -2.53688e-19)
(14.123 -0.394326 0)
(14.2133 -0.394904 -2.3981e-19)
(14.2747 -0.395199 3.13638e-19)
(14.3131 -0.394669 -3.07563e-19)
(9.89693 -0.281098 2.42198e-19)
(11.6429 -0.42634 2.16492e-19)
(12.4757 -0.397841 -2.03994e-19)
(12.9701 -0.435351 -9.63051e-20)
(13.3258 -0.435912 1.83827e-19)
(13.6034 -0.445777 -9.10581e-20)
(13.8221 -0.449217 -8.75137e-20)
(13.9909 -0.452258 8.42791e-20)
(14.1171 -0.453559 0)
(14.2078 -0.453883 0)
(14.2696 -0.453648 0)
(14.3084 -0.453022 8.27369e-22)
(9.87255 -0.325985 -2.42379e-19)
(11.626 -0.479064 0)
(12.4655 -0.454015 -3.23364e-23)
(12.9622 -0.492787 0)
(13.3184 -0.494362 9.23668e-20)
(13.5958 -0.504619 -3.55104e-19)
(13.8143 -0.508373 2.61603e-19)
(13.9833 -0.511467 -8.42951e-20)
(14.1099 -0.512691 0)
(14.2011 -0.512893 -3.19327e-19)
(14.2635 -0.512626 3.15522e-19)
(14.3031 -0.511408 -7.71122e-20)
(9.84693 -0.370923 -3.63807e-19)
(11.6074 -0.531828 2.17264e-19)
(12.4535 -0.510028 -3.05114e-19)
(12.9527 -0.550091 1.92597e-19)
(13.3094 -0.552682 -2.77051e-19)
(13.5867 -0.563356 0)
(13.8052 -0.567395 0)
(13.9743 -0.570507 3.35267e-19)
(14.1013 -0.571548 -4.94818e-19)
(14.193 -0.571248 -1.58841e-19)
(14.2561 -0.570057 1.58685e-19)
(14.2969 -0.569736 0)
(9.81961 -0.415463 0)
(11.5871 -0.584215 -1.37092e-21)
(12.4399 -0.565847 -2.04687e-19)
(12.9416 -0.607262 -1.75766e-21)
(13.299 -0.610846 -1.86346e-19)
(13.5761 -0.621945 5.33093e-19)
(13.7946 -0.626283 -3.4795e-19)
(13.9639 -0.629441 1.66728e-19)
(14.0912 -0.630391 -1.6601e-19)
(14.1834 -0.629901 1.58625e-19)
(14.2468 -0.628219 -1.58464e-19)
(14.2877 -0.625461 3.02535e-19)
(9.79123 -0.459641 7.27826e-19)
(11.5653 -0.63626 2.17412e-19)
(12.4245 -0.621455 0)
(12.929 -0.664268 3.85098e-19)
(13.287 -0.668868 3.6729e-19)
(13.5641 -0.680415 -1.81972e-19)
(13.7827 -0.685065 -3.47713e-19)
(13.9521 -0.688299 1.89669e-22)
(14.0798 -0.689185 0)
(14.1724 -0.688563 0)
(14.2363 -0.686645 0)
(14.2773 -0.683006 0)
(9.76164 -0.503601 -7.28111e-19)
(11.5415 -0.688148 -2.17072e-19)
(12.4074 -0.676945 0)
(12.9147 -0.72113 -1.92577e-19)
(13.2735 -0.726743 -1.84285e-19)
(13.5507 -0.738753 -1.76361e-19)
(13.7693 -0.74372 3.62436e-21)
(13.939 -0.747056 8.40926e-19)
(14.0672 -0.747911 -3.29835e-19)
(14.1604 -0.747193 0)
(14.2248 -0.74543 3.11312e-19)
(14.2664 -0.742014 -3.07746e-19)
(9.73036 -0.547373 -2.4284e-19)
(11.516 -0.739824 1.3766e-21)
(12.3885 -0.732192 2.04632e-19)
(12.8988 -0.777814 0)
(13.2586 -0.784425 1.83927e-21)
(13.5359 -0.796903 3.57259e-19)
(13.7546 -0.802189 -3.43365e-19)
(13.9247 -0.80562 5.05567e-19)
(14.0533 -0.806405 0)
(14.1471 -0.805409 0)
(14.2123 -0.803134 0)
(14.2547 -0.800012 4.53267e-19)
(9.69761 -0.590681 -9.69878e-19)
(11.4888 -0.791013 -6.49618e-19)
(12.368 -0.787105 6.10347e-19)
(12.8812 -0.834243 0)
(13.2422 -0.84188 -3.68056e-19)
(13.5197 -0.854836 -1.77787e-19)
(13.7386 -0.860428 0)
(13.909 -0.863956 3.33379e-19)
(14.0381 -0.864708 -3.29008e-19)
(14.1326 -0.863595 0)
(14.1984 -0.861208 0)
(14.2415 -0.857125 -1.52842e-19)
(9.66356 -0.633687 9.66732e-19)
(11.4599 -0.841885 -2.19191e-19)
(12.3456 -0.841729 -2.00942e-19)
(12.8621 -0.890403 1.9401e-19)
(13.2242 -0.899069 1.8398e-19)
(13.502 -0.912506 -5.30029e-19)
(13.7211 -0.918407 3.45963e-19)
(13.8919 -0.922021 -3.34906e-19)
(14.0217 -0.922703 -3.24913e-19)
(14.1168 -0.921317 3.20814e-19)
(14.1835 -0.918491 0)
(14.2274 -0.914276 -1.50967e-19)
(9.62811 -0.676209 4.81084e-19)
(11.4294 -0.892267 -6.5188e-19)
(12.3217 -0.89602 -2.02676e-19)
(12.8415 -0.946279 1.14598e-18)
(13.2048 -0.955984 -7.37372e-19)
(13.4829 -0.969907 1.77259e-19)
(13.7023 -0.976113 6.83441e-19)
(13.8735 -0.97982 -5.04831e-19)
(14.0039 -0.980434 1.62841e-19)
(14.0997 -0.978867 0)
(14.1671 -0.975844 0)
(14.2118 -0.971465 1.51989e-19)
(9.59178 -0.718336 -6.57443e-22)
(11.3971 -0.942209 0)
(12.2959 -0.950022 6.02631e-19)
(12.8191 -1.00187 -9.6053e-19)
(13.1838 -1.0126 -7.28945e-19)
(13.4624 -1.02703 7.10407e-19)
(13.6821 -1.03353 5.10856e-19)
(13.8538 -1.03731 -8.37499e-19)
(13.9847 -1.03787 -1.6291e-19)
(14.0813 -1.03601 -7.90742e-19)
(14.1494 -1.03238 4.69636e-19)
(14.1951 -1.02871 0)
(9.55347 -0.760403 -2.41851e-19)
(11.363 -0.992131 0)
(12.2684 -1.00372 1.00516e-18)
(12.7951 -1.05716 -1.52751e-18)
(13.1613 -1.06894 3.69529e-19)
(13.4404 -1.08385 -3.52086e-19)
(13.6605 -1.09066 1.71271e-19)
(13.8326 -1.09453 4.96472e-19)
(13.9642 -1.09508 -6.5279e-19)
(14.0615 -1.09314 1.58746e-19)
(14.1304 -1.08927 4.62048e-19)
(14.1765 -1.08614 -6.07987e-19)
(9.51355 -0.801607 4.81339e-19)
(11.3271 -1.04118 4.30106e-19)
(12.2391 -1.05691 8.01615e-19)
(12.7695 -1.11205 -1.52464e-18)
(13.1373 -1.12491 1.09823e-18)
(13.417 -1.14035 -3.47597e-19)
(13.6374 -1.14747 3.45301e-19)
(13.8101 -1.15145 3.32516e-19)
(13.9424 -1.15192 0)
(14.0405 -1.14976 0)
(14.1102 -1.14516 -3.05315e-19)
(14.1574 -1.14239 6.75723e-21)
(9.47281 -0.842418 -1.73995e-21)
(11.2897 -1.08974 -1.53886e-21)
(12.2081 -1.10969 0)
(12.7423 -1.16658 -3.77316e-19)
(13.1118 -1.18055 1.09404e-18)
(13.3921 -1.1965 -3.50205e-19)
(13.613 -1.20395 -6.75589e-19)
(13.7863 -1.20805 3.35237e-19)
(13.9192 -1.20848 3.19915e-19)
(14.0181 -1.20626 -9.4887e-19)
(14.0887 -1.20133 0)
(14.1363 -1.1992 -3.00908e-19)
(9.43069 -0.882833 -1.86035e-21)
(11.2504 -1.13788 4.25227e-19)
(12.1754 -1.16213 -4.04249e-19)
(12.7134 -1.22072 -1.1348e-18)
(13.0847 -1.23582 -3.56418e-19)
(13.3658 -1.25232 1.40269e-18)
(13.5872 -1.26007 1.31419e-21)
(13.761 -1.26428 1.27847e-21)
(13.8948 -1.26465 3.22469e-19)
(13.9945 -1.26226 3.14992e-19)
(14.066 -1.25663 0)
(14.1149 -1.25329 8.92247e-19)
(9.38722 -0.922934 -4.80121e-19)
(11.2098 -1.18567 -4.26825e-19)
(12.1408 -1.21406 -4.00617e-19)
(12.6829 -1.27445 -3.75441e-19)
(13.0561 -1.29069 7.26833e-19)
(13.338 -1.30777 -1.04329e-18)
(13.56 -1.31584 3.45845e-19)
(13.7345 -1.32018 6.62777e-19)
(13.8689 -1.32052 0)
(13.9694 -1.31809 3.10545e-19)
(14.0417 -1.31238 -1.22461e-18)
(14.0908 -1.30873 6.0344e-19)
(9.34197 -0.962478 4.74672e-19)
(11.1669 -1.23295 -4.29931e-19)
(12.1046 -1.26565 -1.19083e-18)
(12.6508 -1.3278 3.8092e-21)
(13.026 -1.34516 0)
(13.3088 -1.36279 -3.46792e-19)
(13.5314 -1.37121 -3.36186e-19)
(13.7065 -1.37571 3.2853e-19)
(13.8418 -1.37606 0)
(13.9432 -1.37356 3.12888e-19)
(14.0166 -1.36783 6.07037e-19)
(14.0669 -1.36375 -6.80913e-21)
(9.29508 -1.00125 4.77917e-19)
(11.1226 -1.27933 0)
(12.0664 -1.3165 7.92841e-19)
(12.6169 -1.38057 -3.78767e-19)
(12.9943 -1.39916 -3.58569e-19)
(13.2781 -1.41736 1.03639e-18)
(13.5014 -1.42614 -1.00632e-18)
(13.6773 -1.43078 9.82486e-19)
(13.8134 -1.43112 0)
(13.9158 -1.42842 -3.08362e-19)
(13.9902 -1.42227 9.14415e-19)
(14.0416 -1.41765 2.95473e-19)
(9.24745 -1.03947 -9.50366e-19)
(11.0767 -1.3251 4.22156e-19)
(12.0266 -1.36684 -4.48817e-21)
(12.5814 -1.4329 -7.52442e-19)
(12.9611 -1.45271 7.15992e-19)
(13.246 -1.47148 0)
(13.4701 -1.48063 -3.3346e-19)
(13.6467 -1.48544 -3.25996e-19)
(13.7837 -1.4858 0)
(13.887 -1.48306 3.05495e-19)
(13.9624 -1.47697 -9.11936e-19)
(14.0149 -1.47224 -2.96629e-19)
(9.19867 -1.07734 0)
(11.0289 -1.37049 2.24134e-21)
(11.9851 -1.41676 1.18093e-18)
(12.5443 -1.48472 -7.18526e-21)
(12.9263 -1.50578 -1.78402e-18)
(13.2124 -1.52514 1.37422e-18)
(13.4373 -1.53463 -1.33001e-18)
(13.6147 -1.53959 6.51126e-19)
(13.7526 -1.53995 0)
(13.857 -1.537 0)
(13.9335 -1.53043 -2.98999e-19)
(13.9876 -1.5255 5.87217e-19)
(9.14803 -1.11464 0)
(10.9793 -1.41524 2.38278e-21)
(11.9417 -1.4661 -1.17385e-18)
(12.5054 -1.53601 7.46963e-19)
(12.89 -1.5583 0)
(13.1774 -1.5783 6.80719e-19)
(13.4031 -1.58814 -3.33952e-19)
(13.5814 -1.59325 0)
(13.7202 -1.59366 -6.25215e-19)
(13.8257 -1.5907 6.17199e-19)
(13.9033 -1.5842 -3.00806e-19)
(13.9581 -1.57924 0)
(9.09581 -1.15141 9.40957e-19)
(10.9282 -1.45943 4.20388e-19)
(11.8965 -1.51476 7.82666e-19)
(12.4648 -1.58672 0)
(12.852 -1.61029 7.03653e-19)
(13.1408 -1.63091 -3.46505e-19)
(13.3675 -1.64112 -6.63237e-19)
(13.5466 -1.6464 0)
(13.6865 -1.6468 3.11795e-19)
(13.7931 -1.64365 0)
(13.8719 -1.6367 0)
(13.9283 -1.6313 0)
(9.04202 -1.18735 4.65755e-19)
(10.875 -1.50282 -8.39056e-19)
(11.8493 -1.56279 -3.90865e-19)
(12.4225 -1.63683 0)
(12.8125 -1.6617 7.00458e-19)
(13.1027 -1.68297 -3.41317e-19)
(13.3304 -1.69354 -6.52941e-19)
(13.5105 -1.69898 9.59909e-19)
(13.6515 -1.6994 -9.30972e-19)
(13.7592 -1.6962 9.13864e-19)
(13.8392 -1.68931 -8.86741e-19)
(13.8965 -1.68401 6.69699e-21)
(8.98699 -1.22249 1.86226e-18)
(10.8202 -1.54524 -4.20956e-19)
(11.8004 -1.61008 0)
(12.3784 -1.68626 1.09516e-18)
(12.7713 -1.71252 -6.8298e-21)
(13.0631 -1.73443 -6.77852e-19)
(13.2919 -1.74537 -3.25364e-19)
(13.473 -1.75098 -2.10089e-21)
(13.615 -1.75134 6.15552e-19)
(13.7238 -1.74789 -6.09646e-19)
(13.8052 -1.74033 1.17787e-18)
(13.8643 -1.73467 -1.14713e-18)
(8.93077 -1.25713 -9.29039e-19)
(10.7637 -1.58701 -4.15034e-19)
(11.7496 -1.65669 -3.84508e-19)
(12.3326 -1.73503 -2.53167e-21)
(12.7285 -1.7627 -3.47282e-19)
(13.022 -1.78527 -6.67392e-19)
(13.2519 -1.79662 6.54931e-19)
(13.434 -1.80243 -2.19596e-21)
(13.5771 -1.80283 0)
(13.687 -1.79933 -8.98976e-19)
(13.7693 -1.79152 5.88408e-19)
(13.829 -1.78482 0)
(8.87307 -1.29113 4.68441e-19)
(10.7054 -1.62813 8.27009e-19)
(11.697 -1.7026 1.1493e-18)
(12.2851 -1.78314 -1.09365e-18)
(12.6841 -1.81223 -3.41905e-19)
(12.9793 -1.83553 1.00245e-18)
(13.2105 -1.84732 3.23899e-19)
(13.3937 -1.85333 -3.14891e-19)
(13.5378 -1.85386 -1.21669e-18)
(13.6489 -1.85051 1.20074e-18)
(13.7325 -1.84305 -2.92764e-19)
(13.7931 -1.83613 -1.13964e-18)
(8.81373 -1.32444 -9.15895e-19)
(10.6453 -1.6685 1.63864e-18)
(11.6426 -1.74781 -3.85783e-19)
(12.2357 -1.83055 3.59375e-19)
(12.638 -1.86112 3.43229e-19)
(12.9352 -1.88512 -2.52723e-21)
(13.1676 -1.89735 9.57041e-19)
(13.352 -1.90357 -1.25394e-18)
(13.4974 -1.90419 0)
(13.6099 -1.90078 2.95531e-19)
(13.6951 -1.8934 0)
(13.7576 -1.88674 2.83032e-19)
(8.75278 -1.35694 -1.82218e-18)
(10.5834 -1.70798 1.636e-18)
(11.5861 -1.79219 -3.81067e-19)