/*--------------------------------*- C++ -*----------------------------------*\
| =========                 |                                                 |
| \\      /  F ield         | OpenFOAM: The Open Source CFD Toolbox           |
|  \\    /   O peration     | Version:  2.3.1                                 |
|   \\  /    A nd           | Web:      www.OpenFOAM.org                      |
|    \\/     M anipulation  |                                                 |
\*---------------------------------------------------------------------------*/
FoamFile
{
    version     2.0;
    format      ascii;
    class       volScalarField;
    location    "0.91";
    object      k;
}
// * * * * * * * * * * * * * * * * * * * * * * * * * * * * * * * * * * * * * //

dimensions      [0 2 -2 0 0 0 0];

internalField   nonuniform List<scalar> 
9648
(
2.69291
2.70332
2.70336
2.70115
2.69568
2.68597
2.67207
2.65426
2.63238
2.60642
2.57644
2.54269
2.50561
2.46578
2.42386
2.38058
2.33668
2.29286
2.2497
2.20775
2.16742
2.12903
2.09281
2.05892
2.02745
1.99841
1.97182
1.94762
1.92576
1.90616
1.88874
1.87341
1.86007
1.84864
1.83904
1.83117
1.82496
1.82034
1.81724
1.8156
1.81536
1.8165
1.81896
1.82271
1.82774
1.83403
1.8416
1.85048
1.86067
1.87221
1.88515
1.89954
1.91541
1.93277
1.95165
1.97193
1.99336
2.01546
2.03781
2.05997
2.08158
1.69654
1.70277
1.70772
1.71204
1.71761
1.72694
1.74208
1.76452
1.79417
1.83099
1.87477
1.92492
1.98058
2.0408
2.1046
2.17102
2.2392
2.30834
2.37779
2.44704
2.51567
2.58335
2.64989
2.71514
2.77902
2.84152
2.90271
2.96263
3.02131
3.07885
3.1354
3.19101
3.24576
3.29979
3.35317
3.40593
3.45821
3.51009
3.56157
3.61262
3.66333
3.71381
3.76401
3.81392
3.86362
3.91298
3.962
4.0108
4.05944
4.10775
4.15566
4.20307
4.25005
4.29622
4.34187
4.38672
4.43098
4.47393
4.51586
4.55677
4.59673
1.37853
1.42777
1.48295
1.54436
1.61386
1.69228
1.77896
1.8734
1.97469
2.08211
2.19436
2.31053
2.42952
2.55022
2.67155
2.79251
2.91225
3.02999
3.1451
3.2571
3.36563
3.47045
3.57143
3.66853
3.76183
3.85147
3.93762
4.02042
4.10009
4.17686
4.25091
4.32248
4.39182
4.45903
4.52431
4.58785
4.64977
4.71023
4.7693
4.82709
4.88371
4.9392
4.9937
5.04725
5.09983
5.15145
5.20207
5.25178
5.30042
5.34801
5.39453
5.44002
5.48468
5.52784
5.57041
5.61138
5.65151
5.6897
5.72717
5.7635
5.79876
1.29701
1.38776
1.48945
1.60161
1.72395
1.85599
1.99674
2.14481
2.29852
2.45638
2.61667
2.77803
2.93906
3.09865
3.25564
3.40905
3.55812
3.7022
3.84084
3.97372
4.10064
4.22144
4.3362
4.44508
4.54835
4.64628
4.73923
4.8275
4.91142
4.99132
5.06759
5.14055
5.2105
5.27776
5.34252
5.40506
5.46557
5.52424
5.58123
5.63669
5.69075
5.74356
5.7952
5.84581
5.89539
5.94399
5.99163
6.03834
6.08406
6.12877
6.1726
6.21522
6.25683
6.29726
6.337
6.37552
6.41284
6.44897
6.48396
6.51786
6.55045
1.33315
1.45878
1.59953
1.75371
1.91982
2.09654
2.28201
2.47396
2.67024
2.86859
3.06697
3.26356
3.45696
3.64594
3.82941
4.00628
4.1759
4.33788
4.49186
4.63782
4.77566
4.90537
5.02718
5.14139
5.24849
5.34902
5.44337
5.53206
5.61545
5.69403
5.76825
5.83852
5.90534
5.969
6.02976
6.08799
6.14395
6.19777
6.24971
6.29992
6.34855
6.3958
6.44184
6.48678
6.53065
6.57352
6.61541
6.65634
6.6964
6.73536
6.77338
6.81034
6.84609
6.88069
6.9143
6.947
6.97852
7.00892
7.03813
7.06601
7.09261
1.42271
1.57942
1.75467
1.94593
2.15057
2.36633
2.59053
2.82036
3.05288
3.28524
3.51513
3.74024
3.95932
4.17094
4.37446
4.56853
4.75249
4.92638
5.08982
5.2432
5.38662
5.51994
5.64381
5.75838
5.8646
5.96315
6.05461
6.1397
6.21863
6.29206
6.36065
6.42471
6.48499
6.54188
6.59553
6.64642
6.69499
6.74126
6.78556
6.82802
6.86872
6.90801
6.94608
6.98313
7.0191
7.05413
7.08836
7.12153
7.15392
7.18534
7.21574
7.24507
7.27332
7.30031
7.32628
7.35121
7.37518
7.39812
7.41974
7.43981
7.45872
1.543
1.72846
1.9355
2.16044
2.39945
2.64971
2.90774
3.17018
3.43379
3.6946
3.95055
4.19848
4.43751
4.66607
4.88465
5.09079
5.2841
5.46516
5.63324
5.78948
5.93428
6.06696
6.18902
6.29988
6.40127
6.49425
6.57923
6.65759
6.72892
6.79415
6.85427
6.90917
6.96018
7.00774
7.0516
7.09254
7.13145
7.16776
7.20221
7.23485
7.26548
7.29469
7.32277
7.35
7.376
7.40112
7.42554
7.44907
7.47198
7.49392
7.51491
7.53478
7.55362
7.5711
7.5873
7.60272
7.61735
7.631
7.64312
7.65352
7.66274
1.68085
1.8929
2.12938
2.38502
2.65474
2.93489
3.22214
3.51274
3.80274
4.08726
4.36468
4.63024
4.88413
5.12401
5.35327
5.56729
5.76584
5.95063
6.11917
6.27406
6.41674
6.54485
6.66243
6.76596
6.85879
6.94278
7.01792
7.08691
7.14775
7.20197
7.25137
7.29432
7.33338
7.36912
7.40067
7.42921
7.45598
7.47951
7.50177
7.52249
7.54077
7.55746
7.57321
7.58834
7.60204
7.61517
7.62731
7.63879
7.64972
7.65996
7.6692
7.67734
7.68473
7.69034
7.69469
7.69847
7.70107
7.70374
7.70433
7.70259
7.70024
1.82706
2.06078
2.32396
2.60453
2.90258
3.20727
3.51807
3.83425
4.14426
4.4494
4.74317
5.02446
5.28801
5.5343
5.76869
5.98748
6.18832
6.37365
6.54354
6.69378
6.82964
6.95089
7.06013
7.15694
7.23812
7.3091
7.37226
7.42931
7.47677
7.51791
7.55445
7.58468
7.60972
7.63065
7.64684
7.66138
7.67182
7.67978
7.68765
7.69315
7.69641
7.69682
7.69879
7.69926
7.69809
7.69806
7.69414
7.69112
7.68591
7.68061
7.67345
7.66612
7.65938
7.65059
7.64065
7.63065
7.61731
7.60836
7.59474
7.57736
7.56138
2.10233
2.12209
2.14098
2.15898
2.17614
2.19259
2.20859
2.22449
2.24033
2.25527
2.26901
2.2822
2.29495
2.30748
2.32008
2.33339
2.34777
2.36353
2.38096
2.40046
2.42168
2.44419
2.46775
2.49195
2.51653
2.5415
2.56702
2.59278
2.61872
2.6449
2.67144
2.69821
2.72524
2.75267
2.78044
2.80853
2.83703
2.86604
2.89549
2.92531
2.9556
2.98647
3.01789
3.04981
3.08235
3.11533
3.14879
3.18285
3.21755
3.25277
3.28856
3.325
3.3622
3.39992
3.43851
3.47788
3.51834
3.55959
3.60198
3.64564
3.69066
4.6358
4.67277
4.7088
4.74405
4.77826
4.81097
4.84172
4.87119
4.89839
4.92482
4.9495
4.97316
4.99572
5.01725
5.03764
5.05675
5.07472
5.09148
5.10707
5.12148
5.13475
5.14691
5.15785
5.16763
5.17626
5.18372
5.18987
5.19447
5.19761
5.19927
5.19945
5.19819
5.19555
5.19149
5.18606
5.17933
5.17127
5.16197
5.1514
5.13958
5.12657
5.11241
5.09718
5.08083
5.06335
5.04467
5.02468
5.00345
4.98089
4.95705
4.93187
4.90531
4.87751
4.84801
4.81754
4.7855
4.75251
4.7181
4.6833
4.64801
4.61236
5.83234
5.8648
5.89565
5.92557
5.95444
5.98267
6.00899
6.034
6.05679
6.07827
6.0981
6.11668
6.13384
6.14993
6.16473
6.17817
6.19026
6.20098
6.21033
6.21829
6.22493
6.23023
6.23419
6.23681
6.23809
6.238
6.23658
6.23378
6.22955
6.22384
6.2167
6.20804
6.19789
6.18631
6.17328
6.15884
6.14297
6.1257
6.10703
6.087
6.06569
6.04318
6.01952
5.99475
5.96883
5.94171
5.91322
5.88334
5.85199
5.81919
5.78491
5.74889
5.71126
5.67186
5.6309
5.58807
5.54361
5.49776
5.45099
5.40338
5.35508
6.58201
6.61227
6.64123
6.66861
6.69474
6.71965
6.7431
6.76495
6.7851
6.80361
6.82049
6.83579
6.84953
6.86178
6.87242
6.88162
6.88932
6.8955
6.90012
6.90319
6.90476
6.90492
6.90366
6.90102
6.89693
6.89136
6.88431
6.8758
6.86585
6.85443
6.84149
6.82696
6.81085
6.79318
6.77402
6.75336
6.73116
6.7074
6.68208
6.65526
6.62707
6.59761
6.56707
6.53553
6.50302
6.46951
6.43476
6.39873
6.36135
6.32263
6.28242
6.2406
6.19715
6.15196
6.10499
6.05605
6.00532
5.9531
5.89987
5.84566
5.7909
7.11789
7.14199
7.16464
7.18569
7.20504
7.22281
7.23897
7.25348
7.26663
7.27841
7.28864
7.29737
7.30459
7.31022
7.31431
7.31696
7.318
7.31746
7.31524
7.31137
7.30595
7.29911
7.29094
7.28149
7.27067
7.25841
7.24474
7.22971
7.2134
7.19583
7.17692
7.1565
7.13454
7.11107
7.0862
7.05987
7.03201
7.00257
6.97145
6.9387
6.90451
6.869
6.83248
6.79518
6.75722
6.71864
6.67907
6.6385
6.59685
6.55423
6.5103
6.46483
6.41794
6.36936
6.31901
6.26642
6.21205
6.156
6.09897
6.04091
5.98239
7.47628
7.49251
7.50717
7.52035
7.5318
7.54151
7.54962
7.55596
7.56067
7.56384
7.56562
7.566
7.56489
7.5622
7.55794
7.55229
7.54518
7.53641
7.52582
7.51337
7.49929
7.48381
7.4671
7.44932
7.43026
7.4098
7.388
7.36491
7.34086
7.31594
7.29016
7.26306
7.23468
7.20489
7.17399
7.1418
7.10809
7.07289
7.03593
6.99725
6.95698
6.91523
6.87245
6.82909
6.78547
6.74187
6.69751
6.65278
6.60727
6.56156
6.51485
6.46664
6.4174
6.36661
6.31431
6.25941
6.20279
6.14422
6.08513
6.02482
5.96416
7.67073
7.67743
7.68258
7.68615
7.688
7.68807
7.68635
7.68307
7.67812
7.6713
7.6631
7.65374
7.64294
7.63057
7.61651
7.60133
7.58508
7.56716
7.54721
7.52499
7.50091
7.47549
7.44893
7.42163
7.3933
7.36348
7.33228
7.29961
7.26631
7.23275
7.19936
7.165
7.13
7.09379
7.05715
7.01954
6.9802
6.93949
6.89714
6.85309
6.80725
6.75947
6.71046
6.66093
6.61136
6.5629
6.51356
6.46488
6.41569
6.36786
6.31964
6.26955
6.21909
6.16715
6.11443
6.05813
6.00067
5.94067
5.88137
5.82035
5.75939
7.69646
7.69177
7.6854
7.67788
7.66864
7.65799
7.64521
7.63188
7.61704
7.5995
7.58056
7.56111
7.54009
7.51761
7.49271
7.46699
7.44156
7.41477
7.38593
7.3537
7.31874
7.28294
7.24584
7.20816
7.17039
7.13105
7.09018
7.0466
7.00208
6.958
6.91637
6.87411
6.83277
6.79057
6.74958
6.70853
6.66447
6.61837
6.57145
6.52387
6.47401
6.42129
6.3669
6.31161
6.25608
6.2035
6.14889
6.09663
6.04362
5.99505
5.94735
5.89638
5.84591
5.7941
5.74281
5.68594
5.62919
5.56862
5.51131
5.45144
5.39262
7.54225
7.52375
7.50193
7.4811
7.4574
7.43593
7.41018
7.38708
7.36388
7.33772
7.30947
7.28163
7.2512
7.22059
7.1846
7.14614
7.11143
7.0779
7.04451
7.00622
6.95934
6.91477
6.86844
6.81959
6.77241
6.72493
6.67817
6.62536
6.56662
6.50911
6.45801
6.40649
6.35853
6.31079
6.26935
6.22992
6.1843
6.13233
6.08121
6.03317
5.98385
5.92868
5.87004
5.81111
5.75082
5.69587
5.63517
5.57964
5.52163
5.47512
5.43091
5.37957
5.33109
5.28175
5.23442
5.17762
5.12323
5.06244
5.00934
4.95292
4.89943
3.73703
3.7844
3.83304
3.88295
3.93416
3.98679
4.04077
4.09624
4.15291
4.21077
4.27
4.33021
4.39136
4.45572
4.53578
4.60832
4.67999
4.75238
4.82555
4.89962
4.97463
5.05059
5.1274
5.20499
5.28317
5.3617
5.44046
5.51927
5.59793
5.6761
5.7537
5.83041
5.90582
5.97973
6.05179
6.12143
6.1882
6.25148
6.30716
6.34791
6.37566
6.39111
6.39421
6.38428
6.36028
6.32079
6.26392
6.18731
6.08825
5.96354
5.80936
5.62121
5.39402
5.12103
4.7837
4.23243
3.97691
3.8454
3.79272
3.76768
3.7162
4.57607
4.53944
4.50204
4.46397
4.42527
4.3866
4.34772
4.3094
4.27112
4.2333
4.19676
4.15504
4.11002
4.06761
4.01991
3.97419
3.92838
3.88244
3.83687
3.79191
3.74758
3.70363
3.65994
3.61647
3.57315
3.52999
3.48699
3.44426
3.40182
3.35972
3.31809
3.27703
3.23669
3.19727
3.15903
3.12226
3.08737
3.05494
3.02556
3.00093
2.97839
2.95814
2.94051
2.92607
2.91572
2.91038
2.91108
2.91911
2.93596
2.96288
3.00114
3.05187
3.11635
3.19675
3.2829
3.41485
3.58754
3.85555
4.23712
4.73473
5.06449
5.30628
5.25699
5.20691
5.15576
5.10351
5.05069
4.99759
4.94467
4.89152
4.83814
4.78156
4.71722
4.65363
4.59331
4.53317
4.47381
4.41371
4.35284
4.29161
4.23042
4.16935
4.10814
4.04675
3.98516
3.92327
3.86109
3.79859
3.73578
3.67259
3.60905
3.54511
3.48079
3.41615
3.35121
3.28606
3.22077
3.15548
3.09029
3.02535
2.9609
2.89688
2.83292
2.76956
2.70763
2.64742
2.58952
2.53477
2.48438
2.43998
2.40371
2.37831
2.36733
2.37544
2.40807
2.46812
2.56695
2.70855
2.92365
3.25697
3.76042
4.37628
5.73575
5.68054
5.62468
5.56782
5.50957
5.45072
5.39161
5.33288
5.2739
5.21413
5.14766
5.07557
5.00614
4.94016
4.87543
4.81157
4.7473
4.68273
4.618
4.55343
4.48895
4.42412
4.35907
4.29384
4.2283
4.16252
4.09642
4.03001
3.96317
3.89586
3.82804
3.75976
3.69103
3.6219
3.55243
3.48271
3.41279
3.34273
3.27255
3.20225
3.13181
3.06117
2.98967
2.91724
2.84455
2.77169
2.6989
2.62661
2.55549
2.48661
2.42136
2.3619
2.31109
2.27263
2.25018
2.24985
2.27992
2.35816
2.51409
2.79103
3.2166
5.92346
5.86489
5.80591
5.74605
5.68432
5.62196
5.55927
5.49735
5.43506
5.37171
5.30025
5.2254
5.15391
5.08599
5.01933
4.95356
4.8876
4.82214
4.75698
4.69237
4.62793
4.56287
4.49765
4.43239
4.3668
4.30105
4.23499
4.16863
4.10174
4.03433
3.96636
3.89794
3.82912
3.76003
3.69073
3.62133
3.55192
3.48256
3.41325
3.34401
3.27484
3.20576
3.13664
3.06693
2.99643
2.92526
2.8535
2.7812
2.70854
2.63583
2.56348
2.49208
2.42254
2.35607
2.29416
2.23968
2.19865
2.18185
2.20615
2.29682
2.48407
5.90272
5.84243
5.78203
5.72102
5.65722
5.59276
5.52764
5.46402
5.40019
5.33568
5.2624
5.1877
5.11657
5.04947
4.98308
4.91757
4.85175
4.78749
4.72402
4.66161
4.59948
4.53619
4.47308
4.41027
4.34707
4.28386
4.22023
4.15634
4.09168
4.02645
3.96055
3.89434
3.82785
3.76135
3.69482
3.62848
3.56237
3.49662
3.43118
3.36615
3.30152
3.23738
3.17371
3.11038
3.04693
2.98287
2.91821
2.85304
2.7874
2.72139
2.6551
2.58857
2.52179
2.45473
2.3872
2.31977
2.25479
2.19759
2.15711
2.1469
2.18587
5.69637
5.63579
5.57548
5.51541
5.45058
5.38535
5.31866
5.25503
5.19142
5.12841
5.05528
4.98275
4.91365
4.84985
4.78557
4.72249
4.65834
4.59724
4.53718
4.47873
4.42059
4.36023
4.30098
4.24292
4.18407
4.12544
4.06591
4.00637
3.94549
3.88406
3.82173
3.75957
3.69729
3.63552
3.57387
3.51281
3.45217
3.39228
3.33302
3.27464
3.217
3.16037
3.10465
3.04982
2.99566
2.94176
2.88736
2.83251
2.77734
2.72201
2.66658
2.61104
2.55521
2.49864
2.44069
2.38072
2.31881
2.25665
2.198
2.14934
2.12065
5.3288
5.26897
5.21037
5.15386
5.08936
5.02499
4.95752
4.89586
4.83453
4.77583
4.7042
4.63517
4.56906
4.51074
4.44979
4.39112
4.32965
4.27349
4.21821
4.16467
4.11157
4.05438
4.0002
3.9494
3.89646
3.84356
3.78881
3.73494
3.67841
3.6216
3.56338
3.50673
3.45
3.39483
3.33959
3.28557
3.23174
3.17937
3.12793
3.0782
3.0295
2.98244
2.93681
2.89229
2.84878
2.80635
2.76372
2.72057
2.67739
2.63442
2.59198
2.55002
2.5084
2.46659
2.42386
2.37925
2.332
2.28193
2.22993
2.17833
2.13151
4.83589
4.77658
4.7218
4.67173
4.60925
4.54722
4.47941
4.42243
4.36603
4.31417
4.24519
4.18009
4.11685
4.06602
4.00875
3.95645
3.89803
3.84864
3.79902
3.74974
3.70174
3.64682
3.59877
3.55933
3.51276
3.46442
3.41364
3.36656
3.31334
3.26077
3.20564
3.15635
3.10575
3.05893
3.01056
2.96462
2.91698
2.87287
2.83029
2.79087
2.75256
2.71634
2.68211
2.64902
2.61593
2.58346
2.55135
2.5185
2.48719
2.45632
2.42831
2.4014
2.3763
2.35139
2.32652
2.3003
2.2721
2.24093
2.20677
2.16927
2.12992
3.62352
3.52002
3.40764
3.28783
3.16621
3.04607
2.93012
2.8219
2.72445
2.63973
2.56857
2.5109
2.46578
2.43172
2.40696
2.3897
2.37824
2.3713
2.36782
2.36694
2.36806
2.37076
2.37476
2.37989
2.38608
2.39322
2.40132
2.41028
2.42013
2.43082
2.44228
2.45445
2.46724
2.4805
2.49409
2.50783
2.52151
2.53491
2.54781
2.56002
2.5713
2.58144
2.59034
2.59794
2.60424
2.60938
2.61355
2.61699
2.62003
2.62307
2.62643
2.63038
2.63509
2.64075
2.64726
2.65451
2.66218
2.67016
2.67794
2.68494
2.69052
5.05901
4.9869
4.86517
4.69221
4.49978
4.29014
4.06155
3.82119
3.57738
3.338
3.10916
2.89713
2.70551
2.53542
2.38715
2.2618
2.15877
2.07556
2.00893
1.9562
1.9149
1.88275
1.85792
1.83908
1.82525
1.81539
1.80941
1.80659
1.80675
1.80961
1.81496
1.82256
1.83212
1.84333
1.85583
1.86927
1.88316
1.89702
1.91027
1.92233
1.9325
1.94
1.944
1.94367
1.93835
1.92754
1.91102
1.88906
1.86246
1.83261
1.80129
1.77057
1.74255
1.71894
1.70076
1.68862
1.68211
1.68068
1.68307
1.68797
1.69314
4.87989
5.23909
5.43776
5.44791
5.31517
5.1191
4.8613
4.5662
4.25069
3.9265
3.60553
3.29896
3.01413
2.75599
2.52759
2.33037
2.16284
2.02115
1.90253
1.80611
1.72941
1.66945
1.6232
1.58785
1.56108
1.54128
1.52696
1.5174
1.5118
1.50958
1.51029
1.51349
1.51869
1.52538
1.53303
1.54112
1.54912
1.55651
1.56269
1.56704
1.56893
1.56777
1.563
1.55408
1.54056
1.52211
1.49859
1.47012
1.43725
1.40098
1.36294
1.32543
1.2912
1.26297
1.24297
1.23303
1.23388
1.24552
1.26717
1.29774
1.33548
3.74982
4.33827
4.9023
5.33665
5.55769
5.60017
5.47826
5.23018
4.91639
4.55721
4.18023
3.80885
3.45516
3.13012
2.83877
2.58139
2.35543
2.1592
1.99171
1.85235
1.73902
1.64931
1.57996
1.52727
1.48766
1.45846
1.43748
1.42329
1.41462
1.41048
1.41016
1.41304
1.41843
1.42556
1.43373
1.44223
1.45036
1.45741
1.46266
1.46535
1.46474
1.46014
1.45095
1.43665
1.41685
1.39142
1.36042
1.32421
1.2834
1.23903
1.19265
1.14663
1.10406
1.06857
1.04394
1.03351
1.03912
1.06113
1.09888
1.1514
1.2178
2.78782
3.21778
3.7592
4.3527
4.8984
5.31744
5.55827
5.59527
5.4646
5.19429
4.83483
4.44434
4.04263
3.65591
3.29907
2.97506
2.68565
2.4291
2.20701
2.01972
1.86497
1.74102
1.64446
1.57071
1.51504
1.4736
1.44356
1.42282
1.40961
1.40245
1.40036
1.40259
1.40827
1.41645
1.42624
1.43679
1.44724
1.45676
1.46448
1.4695
1.47093
1.46797
1.45988
1.44604
1.42591
1.39931
1.36626
1.32711
1.28237
1.23303
1.18055
1.1272
1.07615
1.03143
0.99816
0.981782
0.985971
1.01258
1.06196
1.13304
1.22391
2.29601
2.50101
2.82
3.25616
3.78091
4.33821
4.85161
5.23917
5.4528
5.47977
5.33409
5.05975
4.68967
4.28229
3.88039
3.4934
3.13886
2.81816
2.5304
2.2815
2.07403
1.90711
1.77679
1.67684
1.60087
1.5435
1.50113
1.47111
1.45108
1.4389
1.43329
1.43336
1.4381
1.44636
1.45707
1.46923
1.48186
1.49398
1.50462
1.51276
1.51735
1.51755
1.51246
1.50138
1.48358
1.45882
1.42698
1.38839
1.34336
1.29279
1.23795
1.18101
1.125
1.07393
1.03327
1.0098
1.0089
1.03499
1.09055
1.17531
1.28687
2.12584
2.1828
2.31228
2.53408
2.85947
3.28398
3.77915
4.29042
4.74971
5.09166
5.2709
5.27747
5.12933
4.859
4.51105
4.11024
3.71281
3.33289
2.96939
2.64499
2.36866
2.14461
1.96969
1.83491
1.73148
1.65214
1.59242
1.54909
1.5191
1.49925
1.4878
1.48363
1.48565
1.49242
1.50269
1.51528
1.52906
1.54293
1.55579
1.5665
1.5739
1.57712
1.57515
1.56724
1.55243
1.53048
1.50112
1.46469
1.42131
1.37187
1.31746
1.2602
1.20296
1.14953
1.10525
1.07713
1.07216
1.09709
1.15686
1.25287
1.38278
2.09655
2.08372
2.10689
2.18295
2.32956
2.56115
2.88338
3.28548
3.73819
4.19214
4.58783
4.87358
5.02079
5.01835
4.88103
4.63165
4.30685
3.93401
3.5174
3.11915
2.75921
2.46176
2.22949
2.04932
1.90949
1.80032
1.7163
1.65383
1.6097
1.57878
1.55871
1.54783
1.54502
1.54848
1.55672
1.56834
1.58202
1.59651
1.61056
1.62289
1.63233
1.63795
1.63868
1.63379
1.62203
1.60317
1.57684
1.54335
1.50267
1.45567
1.40339
1.34782
1.29167
1.2386
1.19367
1.16383
1.15703
1.18185
1.24553
1.35165
1.49821
2.09154
2.05876
2.03944
2.04379
2.08498
2.17773
2.33611
2.56942
2.87704
3.2466
3.64347
4.03146
4.36744
4.61633
4.74804
4.75331
4.63414
4.39678
4.07731
3.67534
3.23944
2.8676
2.57293
2.3389
2.1498
1.99867
1.87971
1.79085
1.72707
1.68025
1.64796
1.62707
1.61665
1.61466
1.619
1.62804
1.64025
1.65411
1.66824
1.68099
1.69162
1.69875
1.70166
1.69934
1.69061
1.67482
1.65205
1.62173
1.58453
1.5406
1.49172
1.43917
1.38577
1.33527
1.29202
1.26285
1.25622
1.28242
1.34967
1.46472
1.62433
0.295569
6.57888
6.28655
0.213557
0.358489
0.125867
0.00316227
2.39243
0.00337836
0.0233266
3.30887
1.05336
0.00316398
5.86284
0.110337
5.49681
0.00326083
2.48965
3.60875
0.00315834
0.213675
5.69411
6.29692
0.00329934
0.00333258
0.105402
0.00316051
0.512726
0.0032472
0.0034602
0.688228
0.00324746
0.0162931
2.52628
0.772453
3.38747
2.53673
1.53677
0.00316525
2.62281
1.91332
2.07481
0.003209
4.77249
3.0835
0.279102
0.00360808
0.0151312
0.139767
1.07476
6.51929
7.84531
0.00310788
0.00405476
0.0372609
0.00881204
0.00345088
0.693682
2.41015
7.52908
2.52418
0.0036952
0.148712
0.0317817
6.60544
0.436044
1.98574
1.71831
0.00431909
0.00321286
1.21249
2.51962
1.74033
0.0144369
0.0394495
4.08643
6.90931
3.21681
0.00310859
0.915133
0.00709785
2.62828
0.0108419
4.81108
0.00321772
1.04892
0.00336161
2.23559
0.0148243
0.00491164
0.118876
0.00310418
0.00378262
7.69536
5.60786
0.00359454
0.433765
0.293158
0.00604001
6.70896
0.202576
2.55257
0.740795
0.00310011
0.00316495
0.00309734
0.307171
0.124402
0.00324122
6.22843
6.89965
0.00932252
4.43847
1.53019
2.57529
2.76004
1.79094
0.0039058
0.0850944
0.00417986
0.00435608
3.33347
0.00727259
7.48425
7.75262
0.971761
0.00321413
1.00147
1.0077
0.00320978
0.034052
0.033325
1.74596
0.00566745
3.08081
0.00321952
0.00316028
7.75391
7.88164
0.00322915
0.160602
5.7567
0.105015
0.29926
1.56932
4.78722
0.0397876
1.65445
0.0120759
6.96863
1.25224
0.00916206
2.77248
4.7465
6.43591
0.00330604
0.0032671
0.214821
0.00311586
1.9582
0.0312186
0.0051072
0.00319865
0.00321885
0.00323666
2.77704
1.7785
1.59176
0.00332144
6.62146
4.7041
3.20175
4.85823
0.0139518
3.58758
1.71027
1.90103
0.00324007
0.00567759
2.94412
3.06085
2.12296
3.8099
0.00321477
0.00352229
4.74297
0.0359239
0.558673
0.00323738
0.00360436
0.104281
0.00339206
7.79853
0.671255
0.00310474
0.252627
1.83813
5.37287
0.00448931
1.93909
0.00321723
0.00323265
4.90522
2.41643
7.19223
0.00453311
0.00339402
0.00765443
2.77812
2.21463
1.0712
5.05435
1.5517
7.0177
0.191298
4.33763
4.17726
1.99525
1.3258
2.34144
0.00487964
0.0369074
0.0032245
0.00320145
1.82784
0.0181288
0.0201163
0.00570274
0.0130937
2.72697
4.51469
0.0188625
5.96508
1.05295
0.407718
0.00318307
0.161933
2.74701
1.00979
0.00413862
1.18308
1.1335
0.181699
0.276387
7.3728
0.792019
0.492503
5.21961
0.00383894
0.00316141
0.00403222
0.0104882
1.75423
0.00336143
0.00649332
0.00316477
0.382465
4.06727
4.02032
2.74745
1.29832
1.39951
7.71966
0.00433996
2.08498
4.53358
0.00320938
1.95298
0.00321716
4.03156
0.381119
1.56859
0.00533185
0.00321957
1.84203
0.504578
0.00323891
0.00323597
0.00325034
0.00324556
0.355546
1.63155
2.97547
0.0147405
0.00324057
0.00316419
0.00309846
4.75322
0.224755
0.00446549
1.68124
0.0875399
0.0407793
0.00309195
0.261717
0.00323971
0.0504887
1.48242
4.58348
0.311062
0.00391341
0.00596098
3.20767
0.140106
1.98401
7.67257
0.00350143
0.00319725
0.00318704
5.88016
0.0033107
4.78236
0.00322116
1.9389
1.23116
0.027032
2.84344
3.94959
0.00467406
2.72698
2.71561
1.67094
4.78637
1.08404
7.87716
2.46889
3.98305
3.60554
4.55664
1.73126
0.156801
7.81458
7.44771
2.99999
2.15124
0.0039562
6.8541
2.66773
6.94966
0.0274864
0.00358529
0.00321401
0.00342297
0.177045
0.416527
0.685948
0.0918806
0.00317472
6.16107
0.00321477
1.4816
1.95027
6.48394
2.51564
1.80078
0.00596628
0.00425491
0.0866962
2.78712
0.0103034
0.751188
5.04503
2.05679
4.1265
6.15647
3.32901
0.00346231
7.45249
5.58552
1.76614
0.00323424
6.4799
5.81663
0.00333221
1.99188
0.00323797
6.75312
5.41689
1.8795
4.18949
2.45132
5.77969
0.00329185
5.76848
0.00386163
3.66924
3.97837
1.9144
7.42794
0.703781
0.211956
0.539887
0.00423925
4.31838
0.147614
0.00813738
0.0051006
4.36288
0.00382926
4.34955
0.00319228
0.00323513
0.00599805
1.82772
0.104528
1.8488
0.00570185
4.26434
0.162454
6.75821
4.38175
2.66819
6.11815
0.00338429
7.43237
2.85131
0.00321108
3.90392
2.06641
0.00310272
0.00316807
3.36366
0.00647761
1.87827
0.0864155
2.35602
0.0267503
0.600463
2.69022
4.74573
2.42162
3.86523
3.76357
0.0039554
0.0216627
1.69498
1.69586
7.67795
6.35706
5.35233
0.0652288
5.22061
5.19645
0.50005
1.763
2.91021
2.08292
0.00347912
4.11138
7.88715
0.0041604
4.45044
1.82969
2.93853
0.0241205
0.0675246
6.03515
0.00597407
7.67281
0.00461588
0.260254
0.00320385
0.969349
2.34681
0.229519
0.00479594
0.00370144
2.713
1.61597
0.0817398
0.402243
5.73184
4.11353
0.00450963
1.41275
1.65708
3.2765
1.51471
4.22108
1.96089
5.24707
3.1961
0.49144
0.9769
7.56763
1.94506
7.76639
6.1752
0.033589
3.28333
2.89496
0.00337789
1.83491
1.62922
1.35858
0.0173447
4.89573
1.4765
0.684509
1.9479
0.0054506
0.00321495
0.0420669
2.36689
4.49997
2.59086
0.00322112
0.00318939
0.00321529
1.71849
0.0276874
0.00321532
0.123653
4.46137
4.84562
0.0105123
0.0107393
0.0031555
0.00320511
0.00599534
1.76889
1.76821
1.67024
0.450659
7.62661
5.83566
0.00525886
3.26958
1.84252
1.94605
4.03388
7.48129
0.00346168
0.0104552
0.00323797
3.89121
0.241238
0.00316911
1.33195
0.161153
7.58729
0.00323852
7.7671
1.11587
0.0472913
6.64034
0.00323171
0.00319501
0.00404776
7.8168
3.20737
5.38745
4.94162
1.0376
1.76944
0.00312664
0.0060228
0.0865689
0.0133859
0.0251077
1.99971
2.14924
0.00322448
1.29879
1.84524
6.36729
7.80723
0.00821964
7.7757
0.00591234
0.0302504
3.46987
0.00320137
5.67513
0.00324076
0.00336662
0.0221937
2.15324
0.615976
2.59411
1.91273
0.00365963
1.76988
4.63602
0.0516537
0.209948
0.868291
0.00331472
0.00326706
0.00692824
5.43689
0.543435
0.00335767
7.40982
5.80415
6.82861
0.0317609
2.04336
0.00420842
2.36252
0.163546
0.0908637
2.66175
1.67837
1.93736
6.21484
0.00327889
0.00313288
0.0104625
4.18961
4.68569
0.950432
0.0138444
0.00333401
0.00323886
0.00881253
0.0265435
0.00660177
2.1881
1.74677
0.0115651
1.57346
6.17085
0.00327097
2.39122
0.00321746
0.53825
0.00324484
0.0221565
2.38955
0.0200814
0.00320606
0.747471
7.89904
7.14617
0.00318976
0.00326425
0.383568
0.0275344
0.00321641
4.32452
0.00370015
1.68566
7.89795
2.31833
1.72741
2.48442
3.66776
7.69238
0.00322908
0.00743477
0.0148034
4.23689
1.46238
6.57925
0.672795
0.35586
4.29863
3.50785
5.16444
0.719549
2.75959
0.0032224
0.355983
1.70286
2.4642
3.9495
1.97541
0.220832
2.49211
0.102454
0.00941829
1.77279
0.00323934
5.55273
0.00366411
0.385204
7.51403
2.7711
0.556067
0.00740975
0.767763
0.00329877
0.00319165
0.106443
0.0224632
1.81559
0.015273
1.74729
0.00322131
0.0279129
0.0031663
4.57079
0.00509958
4.12816
2.55067
0.0218828
1.95452
7.51768
0.00325799
1.74285
4.29079
0.0033584
7.48046
0.0603727
0.00348437
0.00339476
7.25264
0.00317846
0.00428942
0.0866675
0.100932
7.15501
7.36803
0.00322105
0.00327014
1.0902
2.26983
0.0145707
0.268778
1.96825
0.00321772
0.00383257
0.00372374
6.12967
7.373
0.496961
7.09019
0.0260413
1.61323
0.00332435
0.0147591
0.0248416
0.0363014
0.00322988
6.73472
0.00320089
0.0249945
0.00332189
0.238042
0.0224032
0.0147499
0.448385
0.678793
2.30064
0.405396
1.04832
1.82952
5.01524
0.00343836
4.72478
7.76873
1.13429
4.02926
0.00327852
4.34492
4.00968
0.00321581
7.43434
2.32239
0.00809013
0.0107276
5.93948
5.71963
0.0573427
7.6817
7.35498
0.778918
7.35357
7.33714
4.9324
1.94028
1.66516
0.986135
7.35582
7.57163
0.0218569
7.36728
2.64958
4.36486
0.00343245
0.33845
0.397015
6.88926
6.0316
0.0201957
4.29558
6.4998
0.462269
0.0334729
0.388844
1.82129
0.00534662
1.85724
6.98169
0.0337583
6.84298
1.38498
4.51259
6.46249
0.00322213
0.00565523
1.03178
0.698644
0.0182045
0.00321835
0.19297
0.261495
0.0045094
0.00323647
4.2393
0.971772
3.16429
1.01512
0.00861122
0.0041716
0.0886999
3.35979
0.00345942
1.86135
1.7022
0.472064
2.35273
0.00397035
0.118208
0.00320211
0.355228
4.33956
0.00434824
0.117951
2.1101
5.74514
0.223517
3.96837
0.603294
0.169077
0.00392589
2.41113
7.78125
0.00321145
0.00328246
5.76037
0.0244738
0.00323561
3.88335
0.254438
1.95762
2.0122
1.49454
0.144628
1.68088
3.49755
5.87568
4.27249
0.00327528
5.44008
0.00389211
2.60152
0.00340133
0.00452044
2.1173
0.0065555
3.87769
0.0206979
0.0396675
1.87194
0.737225
0.0649712
0.00367324
6.38996
0.00364261
0.00315333
7.86344
5.99034
2.76511
1.93619
0.00343409
0.00307304
1.82048
5.75707
0.00319864
6.62641
1.70896
0.00324236
6.04512
0.00311729
0.357677
0.891397
1.32315
0.355837
1.61327
1.94957
0.00311328
7.38411
7.37883
0.00321542
0.016793
1.93146
0.00313174
7.06044
5.28228
4.41813
0.00321766
0.00317071
3.40629
0.0408305
0.0035015
1.85025
1.74008
4.07425
0.00315387
0.00337935
0.0242874
0.0194304
0.00321705
0.00641196
5.22254
2.88901
0.00322231
1.35307
0.00321472
0.718835
0.00421306
0.00358531
2.22883
0.00326668
0.121492
0.00317615
3.03522
0.187183
1.74985
6.33347
4.39157
3.55806
0.801179
1.23324
0.00323548
0.912521
7.42673
4.10642
0.106337
0.0034662
5.36166
0.0032147
0.0311756
0.0031561
7.2191
0.786261
0.3718
6.53444
2.24302
0.490257
4.17346
0.730324
6.86317
4.51375
0.0033099
0.00327467
0.00819172
0.00323351
0.0227175
4.48167
0.00377888
7.18896
0.00600636
0.0759229
0.573092
4.59017
0.00487534
2.77831
0.0169172
3.1372
2.39168
6.98972
0.00339944
0.00384367
0.247134
3.64136
1.67849
3.63632
0.418147
1.04209
1.68343
0.050572
1.03385
0.259601
1.69455
0.00328317
4.34065
0.409737
3.08343
0.0033647
2.99219
0.999204
0.00459695
1.66356
1.74534
0.0651213
0.00314942
0.00321799
4.71414
2.76289
1.39442
0.00320707
0.017544
2.00502
6.3796
0.463741
0.0125893
0.00322434
5.65496
5.38433
2.08353
2.62242
0.00321317
3.49049
7.50356
0.00321103
0.00321771
1.26116
0.00410177
0.00986132
0.0327944
1.96851
0.00410699
2.21407
7.75254
0.00320527
0.00346256
0.00316813
0.0033058
3.73795
4.65488
7.82855
0.0289475
2.41799
2.20314
0.0867601
2.93138
0.00348278
1.69973
0.219799
2.08426
0.686896
1.67349
3.06214
0.0283324
0.00323893
5.97039
4.52419
4.55709
0.887656
1.79292
0.175083
1.56472
0.00927531
0.00483141
3.32042
5.64555
0.0216265
0.135346
0.00324505
0.0777893
1.86037
0.0276969
1.05292
0.683269
3.84336
2.17035
0.429968
6.68739
5.48294
2.94953
1.60755
4.06825
3.53865
0.555827
2.60211
0.00610534
2.75231
2.88498
0.00320396
0.00313659
0.121627
0.00322656
0.00333025
3.01505
4.38936
0.00321993
3.22103
0.0032147
0.00319228
0.0032156
0.0032627
0.00594155
1.94829
2.79013
7.18685
0.00315997
0.0039045
0.939819
0.00355385
0.0329674
0.00324572
0.00361035
4.24516
0.00390855
0.0109328
2.85022
0.0104731
0.00321966
3.80986
0.00321417
0.00326639
0.263437
0.00360494
0.927586
0.00457584
0.0299575
0.00320422
0.00325372
7.60345
7.69629
2.8077
0.0267384
2.89031
1.55699
0.00473196
1.77169
4.1735
7.00455
4.595
0.00312649
1.90227
2.56218
0.145733
1.74482
4.49166
0.172562
2.06851
0.21768
1.7239
0.0388176
0.995569
0.00323487
6.85719
0.00329277
1.80238
2.45374
0.00321514
0.31078
0.00729817
0.0192745
0.00317637
0.750856
0.00366234
0.00322136
2.54198
0.00952654
0.109865
6.94845
1.94025
0.00345908
0.00387897
2.37341
7.29592
0.00309371
0.00324632
0.0720554
1.38523
5.58559
0.00658608
1.61641
0.0032179
0.00344264
0.00314815
0.0347496
1.00546
0.0101253
6.35295
1.82491
7.28462
6.17668
0.00351843
7.27823
3.72996
0.00317934
0.00322625
0.00321814
0.00439822
0.00320252
3.71707
0.003208
0.00323926
6.63767
0.320971
0.00774399
0.0217069
1.98751
0.906701
0.00831296
0.00345873
6.40083
0.00324544
0.824127
0.00326191
0.00352291
6.02905
5.90935
0.00868938
0.00351319
0.338088
0.00320642
6.71418
0.00325504
5.71752
0.0248828
0.741852
0.0328316
0.374497
0.37328
1.53405
0.00324274
0.00356536
0.011547
3.35699
0.119768
7.58564
0.00321939
0.00458652
0.00555458
7.26056
2.80755
3.11893
0.00693336
0.00897707
0.213411
0.00322349
1.28636
2.43357
0.0169504
5.74912
6.22377
2.01303
0.0053364
0.381865
2.88976
6.94811
1.80624
0.0187964
3.02534
0.0629206
5.37514
0.0910994
0.511448
2.70761
0.00324365
1.76662
0.00455263
0.011842
0.00804738
0.0499169
0.00370085
1.25044
0.00322631
3.09908
0.095321
0.00361223
0.241611
0.00323205
0.281714
0.116954
2.3085
0.472547
4.70704
0.240786
0.00321697
0.00319023
0.712533
0.091296
2.86832
7.30358
0.00322406
3.80121
2.67323
0.0231501
2.04499
0.574748
2.36608
2.18866
0.0332886
0.00588144
7.21394
1.56045
5.90992
0.00321077
1.66458
0.00321541
1.26156