/*--------------------------------*- C++ -*----------------------------------*\
| =========                 |                                                 |
| \\      /  F ield         | OpenFOAM: The Open Source CFD Toolbox           |
|  \\    /   O peration     | Version:  2.3.1                                 |
|   \\  /    A nd           | Web:      www.OpenFOAM.org                      |
|    \\/     M anipulation  |                                                 |
\*---------------------------------------------------------------------------*/
FoamFile
{
    version     2.0;
    format      ascii;
    class       volScalarField;
    location    "0.91";
    object      nut;
}
// * * * * * * * * * * * * * * * * * * * * * * * * * * * * * * * * * * * * * //

dimensions      [0 2 -1 0 0 0 0];

internalField   nonuniform List<scalar> 
9648
(
0.000272056
0.000272547
0.000272541
0.000272452
0.000272205
0.000271707
0.000270991
0.000270089
0.000268983
0.000267656
0.000266102
0.000264362
0.000262434
0.000260331
0.000258103
0.000255796
0.000253436
0.000251043
0.000248661
0.000246331
0.000244068
0.000241894
0.000239833
0.000237884
0.000236053
0.000234353
0.00023279
0.00023136
0.000230056
0.000228883
0.000227834
0.000226904
0.00022609
0.000225393
0.0002248
0.000224314
0.000223933
0.000223653
0.000223458
0.000223349
0.000223334
0.000223404
0.000223553
0.000223789
0.0002241
0.000224476
0.00022493
0.000225475
0.000226102
0.000226795
0.000227568
0.000228442
0.000229391
0.00023042
0.000231539
0.000232748
0.000234014
0.000235283
0.000236563
0.000237853
0.000239133
0.000444038
0.000450722
0.000458172
0.000466496
0.000475199
0.00048359
0.000492264
0.000503275
0.000517023
0.000533362
0.000552405
0.000574481
0.000599554
0.000627498
0.000658152
0.000691438
0.000727125
0.000764869
0.000804359
0.000845427
0.000887727
0.00093101
0.000975093
0.00101971
0.00106458
0.00110958
0.00115463
0.00119957
0.00124423
0.00128852
0.00133244
0.00137586
0.00141869
0.00146098
0.00150264
0.00154359
0.00158389
0.00162356
0.00166252
0.00170061
0.0017379
0.00177446
0.0018102
0.00184502
0.00187905
0.00191201
0.0019439
0.0019749
0.00200507
0.00203425
0.0020625
0.00208974
0.0021162
0.0021414
0.00216599
0.00218976
0.00221334
0.00223572
0.00225758
0.00227917
0.00230068
0.00075219
0.000796287
0.000842585
0.00088698
0.000932131
0.000980676
0.00103129
0.00108519
0.00114184
0.00120183
0.0012645
0.00133047
0.0013997
0.00147218
0.00154776
0.00162619
0.00170723
0.00179036
0.0018752
0.00196134
0.00204835
0.00213592
0.00222364
0.00231118
0.00239827
0.00248472
0.00257041
0.00265508
0.00273867
0.00282109
0.00290221
0.00298205
0.00306062
0.00313779
0.00321357
0.00328804
0.00336111
0.00343288
0.00350331
0.00357237
0.0036401
0.00370641
0.00377147
0.00383524
0.00389764
0.00395866
0.00401824
0.00407661
0.00413354
0.00418918
0.00424353
0.00429664
0.00434912
0.00439946
0.00444999
0.00449835
0.00454644
0.00459151
0.00463672
0.00468108
0.00472476
0.00119083
0.00127398
0.00136087
0.00144909
0.00153928
0.00163216
0.00172715
0.00182434
0.00192341
0.00202489
0.00212852
0.00223486
0.00234385
0.00245574
0.00257024
0.00268714
0.00280609
0.00292664
0.00304835
0.00317075
0.00329348
0.00341604
0.00353812
0.00365942
0.00377971
0.00389877
0.00401649
0.0041327
0.00424734
0.00436027
0.00447158
0.00458124
0.00468919
0.00479557
0.00490025
0.00500335
0.00510483
0.00520479
0.00530321
0.00540012
0.00549555
0.00558952
0.005682
0.00577313
0.00586279
0.00595101
0.00603782
0.00612326
0.00620714
0.00628952
0.00637087
0.00645009
0.00652797
0.00660392
0.00667963
0.00675316
0.00682462
0.00689407
0.00696191
0.00702811
0.00709168
0.00169775
0.00180832
0.00192842
0.0020545
0.00218486
0.00231875
0.00245525
0.00259354
0.00273352
0.00287529
0.00301887
0.00316447
0.00331231
0.00346253
0.00361483
0.00376882
0.00392406
0.00408024
0.00423687
0.0043936
0.00454996
0.00470555
0.00485999
0.00501304
0.00516454
0.00531441
0.00546244
0.00560855
0.00575267
0.00589476
0.00603483
0.00617291
0.00630911
0.00644339
0.00657575
0.00670632
0.0068351
0.00696204
0.00708722
0.00721064
0.00733238
0.00745237
0.00757076
0.00768748
0.00780253
0.00791587
0.0080274
0.00813719
0.00824542
0.00835143
0.00845584
0.00855827
0.00865814
0.00875568
0.00885134
0.00894527
0.00903621
0.00912475
0.00921092
0.00929412
0.00937427
0.00221796
0.00234457
0.00249025
0.00264911
0.00281679
0.00299046
0.00316815
0.00334853
0.00353066
0.00371428
0.0038992
0.00408529
0.00427289
0.0044619
0.00465233
0.00484365
0.00503511
0.0052267
0.00541777
0.0056081
0.00579737
0.005985
0.00617084
0.00635446
0.00653594
0.00671522
0.00689225
0.00706696
0.00723914
0.00740881
0.00757609
0.00774091
0.00790351
0.00806394
0.00822208
0.00837804
0.00853197
0.00868377
0.00883345
0.00898098
0.00912627
0.00926947
0.00941063
0.00954975
0.00968676
0.00982171
0.0099548
0.0100849
0.010213
0.0103388
0.010462
0.0105826
0.0107006
0.0108152
0.0109273
0.0110361
0.0111419
0.011245
0.0113449
0.0114404
0.0115332
0.00273064
0.00286649
0.00303423
0.00322371
0.00342771
0.0036412
0.00386087
0.0040844
0.00431022
0.00453706
0.00476472
0.00499244
0.00522043
0.00544867
0.00567788
0.00590687
0.00613482
0.00636192
0.00658723
0.00681074
0.00703253
0.00725165
0.00746824
0.00768138
0.00789149
0.00809892
0.00830347
0.0085055
0.00870426
0.00889986
0.00909261
0.00928204
0.00946878
0.00965312
0.00983458
0.0100133
0.0101898
0.0103636
0.0105349
0.0107036
0.0108693
0.011032
0.0111921
0.0113497
0.0115043
0.0116561
0.0118055
0.0119517
0.0120953
0.0122356
0.0123729
0.0125069
0.0126372
0.012764
0.0128868
0.0130063
0.0131225
0.0132345
0.0133423
0.0134457
0.0135451
0.00323038
0.00337166
0.0035596
0.00377833
0.00401821
0.00427068
0.00453211
0.00479923
0.00506886
0.00533977
0.00561098
0.00588116
0.00614974
0.00641662
0.00668408
0.00695106
0.00721599
0.00747926
0.00773908
0.00799499
0.00824888
0.00849909
0.00874661
0.00898879
0.00922581
0.00945974
0.0096901
0.00991801
0.010142
0.010362
0.0105788
0.0107904
0.0109982
0.0112037
0.0114059
0.0116044
0.0118004
0.0119931
0.0121832
0.0123706
0.0125539
0.012733
0.0129077
0.0130795
0.0132473
0.0134114
0.013572
0.0137283
0.0138817
0.0140312
0.0141766
0.0143179
0.014456
0.0145896
0.014718
0.0148419
0.0149616
0.0150781
0.0151893
0.0152944
0.0153942
0.0037201
0.00386129
0.00406711
0.00430978
0.00458479
0.00487281
0.00517315
0.00548374
0.00579349
0.00610815
0.00642138
0.00673686
0.00704545
0.00734989
0.00765086
0.00795533
0.00825705
0.0085571
0.00885629
0.00914188
0.00942586
0.00970827
0.00998762
0.0102638
0.0105244
0.010783
0.0110371
0.0112884
0.0115379
0.0117814
0.0120243
0.0122587
0.0124798
0.012703
0.0129262
0.0131407
0.0133513
0.013561
0.0137658
0.0139718
0.0141745
0.0143731
0.0145579
0.0147405
0.0149213
0.015092
0.0152612
0.0154199
0.0155803
0.015731
0.0158819
0.0160194
0.0161574
0.0162967
0.0164285
0.0165465
0.0166654
0.0167757
0.0168879
0.0169926
0.0170847
0.000240321
0.00024141
0.000242473
0.00024351
0.0002445
0.000245415
0.000246297
0.000247184
0.00024807
0.000248898
0.000249645
0.000250377
0.000251081
0.000251756
0.000252436
0.000253166
0.000253953
0.000254799
0.000255728
0.000256773
0.000257903
0.000259097
0.000260349
0.000261625
0.000262907
0.000264206
0.000265532
0.000266867
0.000268199
0.000269539
0.000270889
0.000272242
0.000273599
0.000274973
0.00027635
0.000277739
0.000279147
0.000280576
0.000282011
0.000283452
0.000284918
0.000286404
0.000287906
0.000289435
0.00029098
0.000292523
0.00029408
0.000295674
0.000297292
0.000298907
0.000300538
0.00030221
0.000303893
0.000305584
0.000307311
0.00030908
0.000310881
0.000312667
0.000314498
0.00031641
0.000318407
0.00232225
0.00234154
0.00236037
0.00237913
0.00239748
0.00241465
0.00242973
0.00244386
0.00245538
0.00246684
0.00247666
0.00248577
0.00249375
0.00250062
0.00250629
0.00251053
0.00251341
0.0025148
0.00251478
0.0025134
0.00251087
0.00250736
0.00250282
0.00249738
0.00249109
0.00248398
0.0024761
0.00246731
0.0024577
0.00244721
0.00243579
0.00242357
0.00241054
0.00239663
0.00238191
0.00236646
0.00235017
0.00233318
0.00231545
0.00229702
0.00227792
0.00225812
0.00223779
0.00221687
0.00219533
0.00217313
0.00215023
0.00212672
0.00210245
0.00207751
0.00205189
0.00202555
0.00199863
0.00197047
0.00194216
0.00191268
0.00188284
0.0018518
0.00182101
0.00179007
0.001759
0.00476604
0.00480619
0.0048434
0.00487934
0.00491381
0.00494803
0.0049785
0.00500752
0.00503293
0.00505732
0.00507935
0.00509972
0.00511758
0.00513389
0.00514825
0.00516063
0.00517112
0.00517969
0.00518644
0.00519141
0.00519487
0.00519673
0.00519713
0.00519609
0.00519362
0.00518972
0.00518451
0.0051779
0.00516992
0.00516041
0.00514953
0.00513711
0.00512318
0.00510787
0.00509102
0.00507275
0.005053
0.00503185
0.00500928
0.00498538
0.00496024
0.00493396
0.00490659
0.0048783
0.00484894
0.00481849
0.00478681
0.00475389
0.00471959
0.00468388
0.00464693
0.004608
0.00456754
0.00452511
0.00448163
0.00443585
0.00438817
0.00433893
0.00428894
0.00423812
0.00418626
0.00715354
0.00721272
0.0072696
0.00732331
0.00737484
0.00742417
0.00747075
0.00751419
0.00755465
0.0075929
0.00762843
0.00766102
0.00769102
0.00771885
0.00774385
0.00776656
0.00778684
0.00780473
0.00782025
0.00783355
0.00784472
0.00785394
0.00786118
0.00786659
0.00787009
0.00787172
0.00787143
0.00786929
0.0078654
0.00785965
0.00785194
0.00784222
0.00783049
0.00781669
0.00780087
0.00778303
0.00776309
0.00774099
0.00771682
0.00769067
0.00766275
0.0076331
0.00760212
0.00756989
0.0075365
0.00750185
0.00746577
0.00742812
0.00738886
0.00734774
0.00730485
0.00725974
0.00721217
0.00716212
0.0071099
0.00705493
0.00699694
0.00693683
0.00687529
0.00681186
0.00674714
0.00945121
0.00952576
0.00959715
0.0096651
0.00972926
0.00979055
0.00984888
0.00990281
0.00995332
0.0100012
0.0100457
0.0100871
0.0101257
0.0101612
0.0101937
0.0102238
0.0102502
0.0102738
0.0102944
0.0103121
0.0103271
0.0103397
0.0103499
0.0103578
0.0103634
0.0103667
0.0103677
0.0103666
0.0103636
0.0103586
0.0103517
0.0103424
0.0103309
0.0103169
0.0103006
0.0102819
0.0102604
0.0102364
0.0102095
0.01018
0.010148
0.0101138
0.0100777
0.0100403
0.0100017
0.00996195
0.00992083
0.00987773
0.00983324
0.00978722
0.0097391
0.00968855
0.00963531
0.00957898
0.00951984
0.00945666
0.00939031
0.00932123
0.00924992
0.00917601
0.00910082
0.0116219
0.0117072
0.0117882
0.0118661
0.0119396
0.0120088
0.0120744
0.0121353
0.0121923
0.0122453
0.0122952
0.0123414
0.0123841
0.0124233
0.012459
0.0124914
0.01252
0.0125452
0.0125666
0.0125841
0.0125981
0.0126091
0.0126173
0.0126227
0.0126255
0.0126252
0.0126223
0.0126168
0.0126094
0.0126003
0.0125897
0.0125769
0.0125619
0.0125444
0.0125248
0.0125023
0.0124768
0.0124483
0.0124165
0.0123814
0.0123432
0.0123018
0.0122579
0.0122123
0.0121654
0.0121179
0.0120688
0.0120183
0.0119665
0.0119138
0.0118591
0.0118016
0.0117416
0.0116786
0.0116123
0.0115413
0.0114666
0.0113878
0.011307
0.0112234
0.0111379
0.0136401
0.0137308
0.0138169
0.0138982
0.0139752
0.0140479
0.0141157
0.0141784
0.0142367
0.0142906
0.0143402
0.0143861
0.0144284
0.0144662
0.0144999
0.0145304
0.0145572
0.0145801
0.0145983
0.0146113
0.0146199
0.0146247
0.014626
0.0146242
0.0146194
0.0146108
0.0145986
0.0145827
0.0145645
0.0145451
0.0145253
0.0145038
0.014481
0.0144562
0.01443
0.0144015
0.0143692
0.0143335
0.0142946
0.0142525
0.0142067
0.0141566
0.0141029
0.0140468
0.0139892
0.0139317
0.0138718
0.0138111
0.0137491
0.013688
0.0136254
0.0135593
0.0134916
0.013421
0.0133477
0.0132685
0.0131854
0.0130972
0.0130076
0.0129144
0.0128191
0.0154894
0.0155792
0.0156635
0.015742
0.0158154
0.0158829
0.0159459
0.016004
0.016058
0.0161069
0.0161504
0.0161903
0.0162265
0.0162584
0.0162848
0.016307
0.0163272
0.0163442
0.0163566
0.0163626
0.0163617
0.0163568
0.0163479
0.0163349
0.0163189
0.0162987
0.0162742
0.0162435
0.016208
0.0161705
0.0161349
0.0160981
0.0160617
0.016024
0.0159878
0.0159512
0.0159095
0.015863
0.0158141
0.0157638
0.0157103
0.0156522
0.0155885
0.0155214
0.0154526
0.0153843
0.0153121
0.0152396
0.0151646
0.015093
0.0150216
0.0149449
0.0148676
0.0147887
0.0147089
0.0146219
0.0145313
0.0144339
0.0143359
0.0142341
0.0141307
0.0171773
0.017261
0.0173403
0.0174056
0.0174684
0.0175168
0.0175665
0.0176037
0.017643
0.0176834
0.0177156
0.0177341
0.0177567
0.0177777
0.017793
0.0177996
0.0178022
0.0178049
0.0178087
0.0178072
0.0177935
0.0177774
0.0177595
0.0177329
0.0177028
0.0176685
0.0176316
0.0175898
0.017535
0.0174731
0.0174149
0.0173557
0.0172984
0.0172385
0.0171849
0.0171375
0.0170846
0.0170218
0.0169572
0.016894
0.0168307
0.0167697
0.0166972
0.0166197
0.0165448
0.0164665
0.0163867
0.0163022
0.0162158
0.016131
0.01605
0.0159598
0.015868
0.0157813
0.0156915
0.0156009
0.0155025
0.0154002
0.0152929
0.0151849
0.0150726
0.000320402
0.000322379
0.000324435
0.000326568
0.00032875
0.000330935
0.000333155
0.000335437
0.000337763
0.000340113
0.000342485
0.000344904
0.000347342
0.000349867
0.00035299
0.000355815
0.000358585
0.000361344
0.000364105
0.000366891
0.000369688
0.000372499
0.000375332
0.000378167
0.00038099
0.000383809
0.000386624
0.000389424
0.00039219
0.000394925
0.000397617
0.000400258
0.000402835
0.000405349
0.000407775
0.00041011
0.000412344
0.000414456
0.000416293
0.000417624
0.000418539
0.000419047
0.000419148
0.000418836
0.000418055
0.00041674
0.000414847
0.000412312
0.000409011
0.000404789
0.000399508
0.000393
0.000384971
0.00037509
0.000362517
0.000341011
0.000330568
0.000325024
0.000322764
0.000321707
0.00031955
0.00172739
0.00169575
0.00166358
0.00163123
0.00159868
0.00156623
0.00153332
0.0015007
0.00146798
0.00143568
0.0014041
0.00137224
0.00134093
0.00130989
0.00127524
0.00124084
0.00120687
0.00117352
0.00114088
0.00110898
0.00107781
0.00104719
0.0010171
0.00098752
0.000958426
0.000929856
0.000901784
0.000874261
0.000847261
0.000820793
0.000794892
0.000769582
0.000744853
0.000720752
0.000697338
0.000674627
0.000652718
0.000631687
0.000611239
0.000588524
0.000565177
0.000542748
0.000521351
0.000501171
0.000482304
0.000464951
0.000449389
0.000435883
0.000424702
0.000416183
0.000410696
0.000408676
0.000410555
0.000416893
0.000426294
0.000448457
0.000482976
0.000538571
0.000624311
0.00074813
0.00086954
0.00413388
0.0040808
0.00402685
0.00397147
0.00391489
0.00385738
0.00379888
0.00373983
0.0036802
0.0036206
0.00355933
0.00349827
0.0034399
0.00338151
0.00332045
0.00325703
0.00319226
0.00312727
0.00306239
0.00299792
0.00293372
0.00286946
0.00280514
0.00274076
0.00267621
0.00261156
0.00254675
0.00248179
0.00241653
0.00235106
0.00228527
0.00221913
0.0021527
0.00208588
0.00201874
0.00195126
0.0018835
0.00181542
0.00174683
0.00167638
0.00160374
0.00151926
0.00142724
0.00133226
0.00123547
0.00113807
0.00104166
0.000947765
0.000858347
0.000775414
0.000700968
0.000636906
0.000584496
0.000545124
0.000518522
0.000508875
0.000518938
0.000553806
0.000623049
0.000740676
0.000903924
0.00668143
0.00661546
0.00654798
0.0064784
0.00640628
0.00633275
0.00625787
0.00618238
0.00610666
0.00603052
0.00595094
0.0058732
0.00579837
0.00572353
0.00564575
0.00556471
0.00548118
0.00539681
0.00531218
0.00522763
0.00514296
0.00505742
0.00497121
0.00488439
0.00479672
0.00470822
0.00461876
0.00452832
0.00443664
0.00434363
0.00424923
0.00415344
0.00405618
0.0039575
0.0038574
0.00375589
0.0036529
0.00354843
0.00344227
0.00333384
0.00322231
0.00310435
0.0029718
0.00282194
0.00266033
0.00248718
0.00230325
0.00210976
0.00190909
0.00170527
0.00150283
0.00130901
0.00113027
0.000973473
0.000842564
0.000742739
0.000677241
0.000646201
0.00065175
0.000701416
0.000803918
0.00902389
0.00894654
0.00886747
0.00878634
0.00870126
0.00861419
0.00852568
0.00843735
0.0083487
0.00825968
0.00816641
0.00807553
0.00798731
0.00789948
0.00780884
0.00771462
0.00761717
0.00751893
0.00742024
0.00732156
0.00722234
0.00712145
0.00701956
0.00691678
0.00681259
0.00670713
0.00659999
0.00649115
0.00638014
0.00626695
0.00615144
0.0060338
0.00591405
0.00579234
0.00566864
0.00554307
0.00541562
0.00528624
0.00515474
0.00502084
0.00488399
0.00474285
0.00459415
0.00442862
0.00424459
0.0040443
0.00382619
0.00358882
0.00333098
0.00305351
0.00275785
0.00244878
0.00213514
0.0018294
0.0015458
0.00129902
0.00110147
0.000955774
0.000859554
0.000812187
0.000817297
0.0110497
0.0109612
0.0108713
0.0107793
0.0106823
0.0105827
0.010481
0.0103803
0.0102799
0.0101796
0.0100746
0.00997178
0.00987148
0.0097726
0.00967068
0.00956537
0.00945657
0.00934771
0.00923836
0.00912907
0.00901877
0.00890566
0.00879173
0.00867716
0.00856064
0.00844244
0.00832183
0.00819887
0.00807275
0.00794375
0.00781173
0.00767732
0.00754064
0.00740207
0.00726145
0.00711907
0.00697486
0.00682891
0.00668103
0.00653113
0.00637872
0.00622326
0.00606325
0.00589483
0.00570728
0.00550394
0.00528198
0.00503982
0.00477428
0.00448249
0.00416237
0.00381254
0.00343495
0.00303752
0.00263292
0.00224247
0.00188921
0.00158902
0.00134839
0.00116857
0.0010492
0.0127195
0.0126201
0.01252
0.0124184
0.01231
0.0121983
0.0120836
0.0119712
0.01186
0.0117499
0.0116336
0.0115198
0.0114087
0.0113004
0.011189
0.0110746
0.0109565
0.0108394
0.0107219
0.0106047
0.0104858
0.0103626
0.0102396
0.0101169
0.00999119
0.00986325
0.00973173
0.00959758
0.00945891
0.00931692
0.00917141
0.00902424
0.00887503
0.00872476
0.00857273
0.00841961
0.00826501
0.0081095
0.00795279
0.00779511
0.00763579
0.00747459
0.00731072
0.00714211
0.00696414
0.00676677
0.00655293
0.00632054
0.00606681
0.00578875
0.00548242
0.00514384
0.00477039
0.00436075
0.00391989
0.00345988
0.00300091
0.00256668
0.00217599
0.00184125
0.00156996
0.0140208
0.0139105
0.0138007
0.0136907
0.0135724
0.0134495
0.0133228
0.0131988
0.0130779
0.0129591
0.0128328
0.0127089
0.0125887
0.0124732
0.0123543
0.0122326
0.0121075
0.0119841
0.0118606
0.0117379
0.0116119
0.0114801
0.011351
0.0112234
0.0110906
0.0109541
0.010813
0.0106693
0.0105192
0.0103659
0.0102092
0.010053
0.00989529
0.00973821
0.00957967
0.00942133
0.00926185
0.00910355
0.00894541
0.00878839
0.00863072
0.00847267
0.00831303
0.00815055
0.00798209
0.00779955
0.00759994
0.00738344
0.0071487
0.0068935
0.00661516
0.00630949
0.00597145
0.00559683
0.00518324
0.00473263
0.00425419
0.00376296
0.00327866
0.00282036
0.00240571
0.0149585
0.0148354
0.0147185
0.0145975
0.0144746
0.0143399
0.0142055
0.0140673
0.0139397
0.013811
0.0136791
0.0135448
0.0134198
0.0132968
0.0131756
0.0130455
0.0129198
0.0127882
0.0126612
0.0125364
0.0124022
0.012266
0.012133
0.0119999
0.0118616
0.0117146
0.011566
0.0114112
0.0112514
0.0110871
0.0109234
0.0107622
0.0105997
0.0104396
0.01028
0.0101216
0.00996328
0.00981113
0.00966076
0.00951495
0.00936746
0.00922125
0.00907349
0.00892313
0.00876859
0.0086051
0.00842283
0.00822348
0.00801026
0.00778604
0.0075417
0.00727883
0.00698576
0.00666385
0.00630284
0.00590634
0.00546687
0.00499622
0.00449797
0.0039882
0.00348761
0.00031554
0.000310953
0.000305939
0.000300537
0.000294956
0.000289298
0.000283726
0.000278439
0.000273598
0.000269313
0.000265648
0.000262658
0.000260294
0.000258482
0.000257157
0.000256242
0.000255636
0.000255259
0.000255063
0.000255016
0.000255076
0.000255221
0.000255443
0.000255719
0.000256047
0.00025643
0.000256865
0.00025735
0.000257876
0.000258449
0.000259059
0.000259704
0.000260377
0.000261076
0.000261785
0.000262502
0.00026322
0.000263924
0.000264592
0.000265219
0.000265804
0.000266329
0.000266788
0.000267188
0.000267516
0.00026777
0.000267976
0.000268159
0.000268323
0.000268472
0.000268637
0.000268849
0.000269089
0.00026937
0.000269702
0.000270086
0.000270485
0.000270866
0.000271241
0.000271607
0.000271934
0.000934974
0.000990434
0.00103397
0.00106011
0.00107097
0.00107086
0.0010574
0.00103152
0.00099568
0.000952044
0.000902834
0.000851387
0.000800273
0.00075153
0.000705631
0.000664107
0.000628276
0.000598523
0.000574384
0.000555285
0.000540444
0.000529069
0.000520419
0.000513952
0.000509162
0.000505811
0.000503655
0.000502485
0.00050217
0.000502573
0.000503572
0.000505048
0.000506864
0.000508871
0.000510934
0.000512914
0.000514654
0.000516011
0.000516822
0.000516938
0.000516213
0.000514503
0.000511686
0.000507656
0.000502356
0.000495796
0.000488062
0.000479354
0.000469965
0.000460318
0.000450914
0.000442291
0.000434944
0.000429249
0.000425487
0.000423714
0.000423863
0.000425725
0.00042908
0.000433535
0.000438599
0.00107487
0.00124667
0.00141517
0.00156511
0.00166464
0.00174235
0.00179548
0.0018191
0.00181717
0.00179286
0.00174713
0.00168442
0.0016087
0.00152363
0.00143162
0.00133727
0.0012464
0.00116406
0.00109155
0.00103097
0.000982488
0.000945119
0.000917247
0.000896996
0.00088286
0.000873341
0.000867836
0.000865375
0.000865441
0.000867471
0.000871048
0.000875684
0.000880883
0.000886159
0.000891005
0.000894972
0.000897611
0.000898498
0.000897211
0.000893376
0.000886687
0.000876947
0.000864043
0.000848015
0.000828963
0.000807181
0.000783072
0.000757208
0.000730283
0.000703258
0.000677334
0.000653868
0.000634395
0.000620247
0.000612603
0.000612068
0.000618902
0.000632928
0.000653784
0.00068094
0.000713752
0.000956013
0.00115165
0.00137922
0.00161661
0.00183249
0.0020273
0.00220627
0.00233467
0.00242323
0.00248174
0.00250686
0.00250139
0.0024698
0.00241381
0.00233524
0.00223739
0.00212466
0.00200809
0.00189437
0.00178985
0.00169888
0.00162446
0.00156693
0.00152483
0.00149573
0.00147757
0.00146847
0.00146696
0.00147162
0.00148122
0.00149474
0.00151116
0.0015293
0.00154796
0.00156601
0.00158236
0.00159589
0.00160553
0.00161023
0.00160901
0.00160098
0.00158548
0.00156205
0.00153048
0.00149083
0.0014436
0.00138955
0.00132984
0.00126572
0.00119911
0.00113243
0.00106875
0.00101175
0.000965575
0.000934333
0.000920947
0.000926247
0.000949616
0.000989797
0.00104523
0.00111408
0.000879186
0.00100148
0.00118493
0.00142026
0.001684
0.00195573
0.00222086
0.00245613
0.00265761
0.00283306
0.0029615
0.00304292
0.00309243
0.00310884
0.00309451
0.00305413
0.00298957
0.00290242
0.0028047
0.0027052
0.00260905
0.00252318
0.00245233
0.00239839
0.00236095
0.00233875
0.00233046
0.00233472
0.00234964
0.00237337
0.00240449
0.00244138
0.00248215
0.00252475
0.00256729
0.00260783
0.00264447
0.00267534
0.00269848
0.00271205
0.00271432
0.00270392
0.00267959
0.00264054
0.0025861
0.00251657
0.00243238
0.0023347
0.00222504
0.00210571
0.00197979
0.00185187
0.00172754
0.00161413
0.00152076
0.0014571
0.00142717
0.00142984
0.00146335
0.00152255
0.00160191
0.00099208
0.000999499
0.00107491
0.00122006
0.00142961
0.00169099
0.00198512
0.00228528
0.00257076
0.00283095
0.00305257
0.00323265
0.00338177
0.00348284
0.00354166
0.00357512
0.0035833
0.00357037
0.00354359
0.00350649
0.00346609
0.00342649
0.00339216
0.00336698
0.00335335
0.0033519
0.00336348
0.00338864
0.00342619
0.00347444
0.00353214
0.00359754
0.00366841
0.00374212
0.00381616
0.0038879
0.00395477
0.00401409
0.0040631
0.00409914
0.00411962
0.00412253
0.00410586
0.00406812
0.00400773
0.00392466
0.0038186
0.00369035
0.00354086
0.00337235
0.00318762
0.00299139
0.00278965
0.00259038
0.00240502
0.00224937
0.00212956
0.00205474
0.00202971
0.00205298
0.0021187
0.00136697
0.00123493
0.00117585
0.00119164
0.00128294
0.00144788
0.00167937
0.0019615
0.00227197
0.00258665
0.00288252
0.00314494
0.00336951
0.00355045
0.003692
0.00380969
0.00388872
0.00394194
0.00398633
0.00402512
0.00406886
0.00411593
0.0041656
0.00421775
0.00427287
0.00433208
0.00439756
0.00447204
0.00455528
0.00464627
0.00474464
0.00484901
0.00495757
0.00506781
0.00517723
0.00528302
0.00538227
0.00547175
0.00554812
0.00560808
0.00564851
0.00566689
0.00566078
0.00562832
0.00556702
0.00547633
0.00535525
0.00520416
0.00502353
0.00481501
0.00458077
0.00432482
0.00405176
0.00376765
0.00348167
0.00320815
0.00296415
0.00277173
0.00265009
0.00260798
0.00263972
0.00204853
0.00175973
0.00154619
0.00141224
0.00135943
0.0013878
0.00149569
0.00167797
0.00192429
0.0022171
0.00253271
0.00284699
0.00314165
0.00340223
0.003624
0.00380989
0.00396095
0.00408474
0.00419932
0.00429112
0.00440024
0.0045207
0.00465262
0.00479428
0.004945
0.00510064
0.0052581
0.00541509
0.00557363
0.00573318
0.00589338
0.00605274
0.00621024
0.00636464
0.00651411
0.00665663
0.0067896
0.00690963
0.00701292
0.00709578
0.00715558
0.00718872
0.00719313
0.00716689
0.00710701
0.0070117
0.0068803
0.00671142
0.00650621
0.00626519
0.00599055
0.00568437
0.00534935
0.00498945
0.00460906
0.00421921
0.00384498
0.00352236
0.00328811
0.00316656
0.00315372
0.00301121
0.00258192
0.00221483
0.00191979
0.00170684
0.00157947
0.00153856
0.00158141
0.00170388
0.00189845
0.00215149
0.00244592
0.00276235
0.00307948
0.00337924
0.00365459
0.00389106
0.00408901
0.00425224
0.00439049
0.00455817
0.00472033
0.00489701
0.00509503
0.00532014
0.00556504
0.0058235
0.00608615
0.00634569
0.00659932
0.00684577
0.00708076
0.0073018
0.0075122
0.00770916
0.00789368
0.00806428
0.00821742
0.00834894
0.00845411
0.00853454
0.00858103
0.0085963
0.00857646
0.00852075
0.00842291
0.00828671
0.0081024
0.00787872
0.00761012
0.00730422
0.00695645
0.00656833
0.00614558
0.00568472
0.00519446
0.00470377
0.00426354
0.00392153
0.00372183
0.00365974
0.00515977
0.0184318
0.0188035
0.00174885
0.00525157
0.00703937
0.00125012
0.00579425
0.00128986
0.003342
0.0104767
0.0145388
0.0012499
0.0126899
0.0066074
0.0198633
0.00126351
0.00617216
0.00989913
0.00125346
0.00174555
0.0125245
0.0178523
0.00127733
0.00127967
0.00474563
0.00125324
0.00305379
0.00126001
0.0013145
0.00652985
0.00127741
0.00272725
0.00893971
0.01377
0.00919522
0.00803017
0.0136033
0.00124671
0.0138597
0.00503901
0.013637
0.00124682
0.0196556
0.00502934
0.0098558
0.00134803
0.00238352
0.00132819
0.0147237
0.0105305
0.0155684
0.00124449
0.0014374
0.00197003
0.00019545
0.00131206
0.00482671
0.00885945
0.0180103
0.00411777
0.00135665
0.00127036
0.00364323
0.0195391
0.00717506
0.00914132
0.00428086
0.00148335
0.00124255
0.0135849
0.0139064
0.0048676
0.000498029
0.00273683
0.0187714
0.0187892
0.0166899
0.00124203
0.0141009
0.00193673
0.0130765
0.000827364
0.0186088
0.00124255
0.0116157
0.00128566
0.0121707
0.00177108
0.00158804
0.00550905
0.00124149
0.00137908
0.0173627
0.0196705
0.00134088
0.0108153
0.00411181
0.00177821
0.0195271
0.00362774
0.0185153
0.00828884
0.00124105
0.00124185
0.00124355
0.00594498
0.00665829
0.00126399
0.0199875
0.0192282
0.00162845
0.00762455
0.00785638
0.00531602
0.0126567
0.0101721
0.00140471
0.00590991
0.00142237
0.0010522
0.00536503
0.0015447
0.0175274
0.0130916
0.00305949
0.00124627
0.012718
0.0132031
0.0012464
0.00349267
0.00372659
0.00298763
0.00154558
0.0134402
0.00124573
0.00124187
0.0136864
0.0159824
0.00125326
0.00300541
0.0198729
0.00429714
0.00897624
0.00828526
0.0171657
0.000466271
0.00888653
0.00249816
0.0159543
0.0127389
0.000197199
0.0139932
0.0185189
0.0197076
0.00128416
0.00126871
0.0081355
0.00125559
0.00830931
0.000759334
0.00162094
0.00124363
0.00124748
0.00124291
0.0171061
0.00413127
0.00663534
0.00129159
0.0139546
0.0066783
0.00225993
0.0128136
0.00253638
0.00730985
0.00593276
0.0114851
0.00125968
0.00171074
0.00402377
0.0123732
0.0138794
0.0179211
0.00124789
0.00132613
0.00853825
0.00393349
0.0114529
0.00124469
0.00134825
0.00567531
0.00129801
0.0165451
0.0100758
0.00125454
0.00849727
0.00336682
0.0183957
0.00151484
0.00638493
0.00124767
0.00125366
0.0198101
0.0156705
0.0155671
0.00152298
0.00129493
0.00184
0.0162789
0.00571691
0.010482
0.0187795
0.0151573
0.0190831
0.00407303
0.0192848
0.0187814
0.0133528
0.0150711
0.01253
0.00148604
0.0041846
0.00125157
0.00126973
0.0105625
0.00295557
0.00310388
0.00147927
0.00246128
0.0141239
0.00937339
0.00288209
0.0188453
0.0134155
0.00509321
0.00124495
0.00444799
0.0174329
0.0126894
0.00145014
0.00947054
0.00332319
0.00350646
0.00278261
0.0180311
0.00741552
0.00441718
0.0197345
0.00138885
0.00124221
0.00142534
0.00231357
0.00959104
0.00129618
0.00152199
0.00124565
0.00751237
0.0193144
0.0189339
0.0137998
0.0125711
0.0156749
0.0165153
0.00148744
0.00810211
0.0186392
0.00124613
0.0041388
0.00124266
0.00441656
0.00745408
0.00419388
0.0016538
0.00124637
0.0152504
0.00302832
0.00124291
0.00125564
0.00125878
0.00126154
0.00971471
0.00669216
0.0175502
0.00178747
0.00124286
0.00124388
0.00124135
0.0191484
0.00388639
0.00150775
0.0130574
0.00594068
0.00154339
0.00124278
0.00791007
0.00124266
0.00206533
0.00416312
0.00706386
0.00271842
0.00140919
0.00173001
0.0163527
0.00498491
0.00270732
0.0164426
0.00131662
0.0012434
0.00124547
0.0196628
0.00127522
0.0150694
0.00124535
0.0137293
0.0110059
0.0027221
0.0052384
0.00582286
0.00154607
0.0133619
0.0130752
0.00279375
0.0224869
0.0109409
0.0160789
0.0141811
0.0196678
0.00824401
0.01937
0.00479909
0.00655484
0.0163084
0.0178334
0.0129081
0.0123984
0.001405
0.0158155
0.00513163
0.0188084
0.0036215
0.00133386
0.00124661
0.00129931
0.00408901
0.0101077
0.0065273
0.00610391
0.00124891
0.0199656
0.00124617
0.00734825
0.014191
0.0196016
0.0133429
0.0154749
0.00166033
0.00147279
0.00142825
0.00818191
0.00218645
0.00631524
0.00894054
0.0105623
0.0180345
0.0177428
0.0162381
0.00131359
0.0176729
0.0196542
0.0028786
0.00125444
0.019547
0.0199279
0.00127885
0.0116907
0.00125544
0.010517
0.0153771
0.0113
0.0190602
0.00477799
0.0200322
0.00127537
0.0200571
0.00139115
0.0175907
0.0173481
0.0116378
0.0177865
0.0124406
0.00825967
0.0103547
0.00147013
0.00378952
0.0012962
0.00205375
0.00128254
0.00682582
0.00138454
0.0181708
0.00124344
0.00125592
0.00176344
0.00937838
0.00509575
0.0138044
0.00147899
0.0192501
0.00774535
0.0188513
0.00616646
0.0163444
0.0100987
0.00129844
0.0178012
0.0172476
0.00125023
0.0172667
0.0146266
0.00124367
0.00124175
0.00877215
0.00183327
0.011779
0.00143287
0.0065548
0.00364745
0.00929812
0.0160656
0.0167758
0.0157088
0.0160853
0.0180929
0.00140479
0.00122232
0.00894333
0.0120975
0.0160412
0.0108385
0.0183541
0.00453183
0.0196925
0.0196857
0.00657334
0.00304042
0.0162999
0.0146831
0.00132409
0.0178504
0.0146472
0.00144813
0.0195842
0.0159788
0.0163996
0.00342079
0.00460042
0.0123498
0.00166266
0.0162171
0.00153827
0.00339653
0.00125175
0.0109661
0.00293187
0.0085659
0.00156696
0.00136587
0.00876721
0.00873336
0.0016397
0.00264278
0.0101942
0.00278433
0.00131255
0.0156051
0.00903384
0.0133779
0.00785675
0.00354745
0.0119905
0.0160356
0.017619
0.00626236
0.0119879
0.017064
0.00626043
0.0153542
0.019881
0.000423597
0.00565133
0.012517
0.0012966
0.0032888
0.00816867
0.012662
0.0027743
0.0220515
0.00437096
0.0101291
0.00640195
0.00168001