/*--------------------------------*- C++ -*----------------------------------*\
| =========                 |                                                 |
| \\      /  F ield         | OpenFOAM: The Open Source CFD Toolbox           |
|  \\    /   O peration     | Version:  2.3.1                                 |
|   \\  /    A nd           | Web:      www.OpenFOAM.org                      |
|    \\/     M anipulation  |                                                 |
\*---------------------------------------------------------------------------*/
FoamFile
{
    version     2.0;
    format      ascii;
    class       volScalarField;
    location    "0.91";
    object      p;
}
// * * * * * * * * * * * * * * * * * * * * * * * * * * * * * * * * * * * * * //

dimensions      [0 2 -2 0 0 0 0];

internalField   nonuniform List<scalar> 
9648
(
-0.125904
-0.394699
-0.714607
-1.08469
-1.53018
-2.06399
-2.69765
-3.43966
-4.29667
-5.28626
-6.41957
-7.70933
-9.16802
-10.8063
-12.6336
-14.6598
-16.8931
-19.3421
-22.0102
-24.9018
-28.022
-31.3673
-34.9375
-38.7281
-42.7345
-46.9474
-51.3561
-55.952
-60.7174
-65.6434
-70.7098
-75.9012
-81.2024
-86.5886
-92.0487
-97.5548
-103.094
-108.645
-114.185
-119.692
-125.144
-130.534
-135.821
-140.997
-146.051
-150.95
-155.683
-160.231
-164.6
-168.762
-172.675
-176.344
-179.774
-182.931
-185.821
-188.426
-190.735
-192.754
-194.458
-195.862
-196.953
0.410924
0.153788
-0.154972
-0.5185
-0.95924
-1.47739
-2.08477
-2.79651
-3.62469
-4.57752
-5.6658
-6.90127
-8.29496
-9.85727
-11.598
-13.5262
-15.6497
-17.9753
-20.5079
-23.2516
-26.2093
-29.3806
-32.764
-36.3555
-40.15
-44.1394
-48.3145
-52.6649
-57.1774
-61.8398
-66.6357
-71.5496
-76.5655
-81.6644
-86.8295
-92.0407
-97.2815
-102.532
-107.772
-112.981
-118.14
-123.232
-128.232
-133.125
-137.895
-142.518
-146.981
-151.265
-155.358
-159.252
-162.939
-166.401
-169.627
-172.605
-175.32
-177.769
-179.933
-181.822
-183.415
-184.714
-185.704
0.227949
-0.0100792
-0.292362
-0.630226
-1.02806
-1.5079
-2.07725
-2.74739
-3.52825
-4.43272
-5.47103
-6.65494
-7.99505
-9.50125
-11.1833
-13.0495
-15.1078
-17.3642
-19.8236
-22.4901
-25.3658
-28.4512
-31.7445
-35.2419
-38.9377
-42.8244
-46.893
-51.1333
-55.5331
-60.0796
-64.7574
-69.5511
-74.4447
-79.4209
-84.4619
-89.5494
-94.666
-99.7928
-104.91
-110
-115.042
-120.018
-124.907
-129.694
-134.359
-138.886
-143.258
-147.459
-151.473
-155.288
-158.893
-162.277
-165.435
-168.343
-171.004
-173.399
-175.535
-177.38
-178.944
-180.224
-181.224
0.456453
0.220485
-0.0616686
-0.395959
-0.791134
-1.25805
-1.80737
-2.45041
-3.19832
-4.06322
-5.0568
-6.1904
-7.47459
-8.9192
-10.5344
-12.3279
-14.3073
-16.4786
-18.8459
-21.4133
-24.1832
-27.1552
-30.3283
-33.6979
-37.2584
-41.0023
-44.9206
-49.0041
-53.2406
-57.6172
-62.1202
-66.7333
-71.4415
-76.2291
-81.0779
-85.9703
-90.8902
-95.8185
-100.737
-105.629
-110.474
-115.254
-119.95
-124.546
-129.023
-133.365
-137.556
-141.583
-145.43
-149.085
-152.537
-155.777
-158.794
-161.576
-164.113
-166.396
-168.42
-170.173
-171.652
-172.853
-173.774
0.507762
0.304799
0.0564782
-0.245636
-0.609537
-1.04427
-1.55918
-2.16458
-2.87223
-3.69283
-4.63884
-5.72022
-6.9478
-8.33042
-9.8791
-11.6005
-13.5018
-15.589
-17.8648
-20.3339
-22.999
-25.8587
-28.9132
-32.1563
-35.5827
-39.1852
-42.9542
-46.8823
-50.9568
-55.1656
-59.4957
-63.93
-68.4552
-73.0567
-77.7161
-82.4163
-87.1432
-91.8769
-96.6016
-101.301
-105.956
-110.547
-115.056
-119.468
-123.765
-127.932
-131.953
-135.814
-139.502
-143.005
-146.313
-149.416
-152.307
-154.974
-157.406
-159.593
-161.525
-163.199
-164.614
-165.762
-166.64
0.599049
0.411589
0.183031
-0.0963652
-0.433682
-0.83896
-1.32108
-1.89018
-2.55868
-3.33605
-4.23595
-5.2665
-6.4394
-7.76068
-9.24452
-10.895
-12.7189
-14.7228
-16.9064
-19.2763
-21.836
-24.5816
-27.5171
-30.6318
-33.9218
-37.3798
-40.9946
-44.7635
-48.6713
-52.7062
-56.8584
-61.107
-65.4409
-69.8494
-74.3114
-78.81
-83.3354
-87.8647
-92.3851
-96.8831
-101.338
-105.73
-110.041
-114.26
-118.367
-122.346
-126.187
-129.87
-133.387
-136.727
-139.881
-142.837
-145.591
-148.134
-150.452
-152.531
-154.363
-155.947
-157.285
-158.369
-159.195
0.694575
0.524201
0.314637
0.0559836
-0.256953
-0.635269
-1.08707
-1.62144
-2.25286
-2.98829
-3.8444
-4.82618
-5.94687
-7.20699
-8.62777
-10.2078
-11.9542
-13.8757
-15.9663
-18.2343
-20.6884
-23.3169
-26.1334
-29.119
-32.2696
-35.5809
-39.0355
-42.6419
-46.3788
-50.2334
-54.2055
-58.2636
-62.3967
-66.6063
-70.8674
-75.1553
-79.4726
-83.7901
-88.0969
-92.388
-96.6369
-100.827
-104.931
-108.947
-112.857
-116.642
-120.296
-123.793
-127.132
-130.3
-133.294
-136.095
-138.703
-141.118
-143.32
-145.29
-147.015
-148.498
-149.754
-150.776
-151.546
0.789704
0.637442
0.449023
0.210052
-0.0782308
-0.43127
-0.855537
-1.35366
-1.95141
-2.64349
-3.46059
-4.39385
-5.47135
-6.66298
-8.02403
-9.53627
-11.201
-13.0474
-15.044
-17.1997
-19.5576
-22.0566
-24.7624
-27.6203
-30.6221
-33.7948
-37.0718
-40.5147
-44.0839
-47.7427
-51.5459
-55.4115
-59.3189
-63.3295
-67.4042
-71.4521
-75.5616
-79.6648
-83.7385
-87.8293
-91.8621
-95.8588
-99.7315
-103.535
-107.26
-110.834
-114.309
-117.601
-120.764
-123.739
-126.581
-129.204
-131.651
-133.944
-136.042
-137.884
-139.505
-140.863
-142.038
-143.011
-143.716
0.890875
0.747985
0.595575
0.361673
0.108327
-0.230465
-0.633265
-1.069
-1.66444
-2.28006
-3.09449
-3.94863
-5.03786
-6.09484
-7.43884
-8.90116
-10.4424
-12.2588
-14.1393
-16.1506
-18.4946
-20.7795
-23.4393
-26.1424
-28.9745
-32.0861
-35.1022
-38.4166
-41.8548
-45.24
-48.9437
-52.5855
-56.23
-60.094
-64.028
-67.6623
-71.6724
-75.5566
-79.3416
-83.2921
-87.0308
-90.9051
-94.4661
-98.1298
-101.722
-104.971
-108.372
-111.351
-114.405
-117.073
-119.828
-122.173
-124.485
-126.734
-128.708
-130.359
-131.973
-133.11
-134.278
-135.205
-135.774
-197.709
-198.141
-198.257
-198.046
-197.528
-196.694
-195.547
-194.086
-192.304
-190.225
-187.826
-185.122
-182.148
-178.909
-175.396
-171.622
-167.595
-163.342
-158.854
-154.145
-149.25
-144.153
-138.879
-133.441
-127.865
-122.158
-116.305
-110.344
-104.279
-98.1442
-91.9393
-85.6849
-79.4026
-73.0925
-66.7828
-60.4756
-54.1941
-47.9505
-41.7528
-35.618
-29.5575
-23.5948
-17.727
-11.9747
-6.35184
-0.860808
4.48255
9.66996
14.6863
19.5249
24.1808
28.6432
32.9012
36.9535
40.7895
44.4044
47.793
50.9499
53.8747
56.5628
59.0141
-186.385
-186.733
-186.812
-186.589
-186.066
-185.253
-184.143
-182.737
-181.027
-179.021
-176.717
-174.127
-171.288
-168.204
-164.862
-161.268
-157.433
-153.371
-149.089
-144.599
-139.919
-135.054
-130.018
-124.822
-119.481
-114.005
-108.427
-102.747
-96.9745
-91.1259
-85.2138
-79.2537
-73.2603
-67.2458
-61.2263
-55.2112
-49.2165
-43.256
-37.3411
-31.4845
-25.6996
-20.0021
-14.3993
-8.90468
-3.53063
1.7159
6.8236
11.7818
16.5789
21.2076
25.661
29.9303
34.0061
37.8854
41.559
45.0222
48.2683
51.2949
54.0988
56.6771
59.0287
-181.929
-182.366
-182.461
-182.25
-181.75
-180.973
-179.883
-178.496
-176.79
-174.787
-172.519
-169.985
-167.174
-164.094
-160.766
-157.201
-153.407
-149.395
-145.175
-140.758
-136.158
-131.382
-126.443
-121.352
-116.119
-110.755
-105.28
-99.7058
-94.0454
-88.3119
-82.519
-76.6816
-70.8132
-64.9274
-59.0374
-53.1548
-47.2927
-41.464
-35.6814
-29.9576
-24.3056
-18.7385
-13.2663
-7.90078
-2.65244
2.4702
7.45639
12.2958
16.9782
21.4964
25.8418
30.0075
33.9855
37.7714
41.3572
44.7378
47.9078
50.8636
53.6022
56.1207
58.4191
-174.411
-174.774
-174.84
-174.614
-174.093
-173.259
-172.136
-170.79
-169.188
-167.32
-165.169
-162.756
-160.078
-157.145
-153.967
-150.553
-146.913
-143.058
-138.998
-134.747
-130.317
-125.718
-120.96
-116.053
-111.01
-105.841
-100.562
-95.1867
-89.7271
-84.1959
-78.6057
-72.9719
-67.3077
-61.6274
-55.9417
-50.2627
-44.6024
-38.9726
-33.3869
-27.8572
-22.3963
-17.0166
-11.7287
-6.54347
-1.4706
3.48207
8.30318
12.9834
17.5117
21.8828
26.0872
30.1178
33.9691
37.6347
41.1095
44.3856
47.4602
50.3272
52.985
55.43
57.6633
-167.245
-167.578
-167.634
-167.414
-166.915
-166.136
-165.105
-163.752
-162.149
-160.301
-158.197
-155.843
-153.241
-150.4
-147.327
-144.027
-140.508
-136.781
-132.858
-128.752
-124.474
-120.036
-115.445
-110.709
-105.842
-100.855
-95.7613
-90.5759
-85.3097
-79.975
-74.5818
-69.1474
-63.6842
-58.2079
-52.7262
-47.2511
-41.7929
-36.3629
-30.9756
-25.6421
-20.3743
-15.1856
-10.0854
-5.08449
-0.192234
4.58667
9.23685
13.7533
18.1216
22.3398
26.3974
30.2871
34.0049
37.5436
40.901
44.0669
47.0409
49.8124
52.3844
54.7503
56.9132
-159.758
-160.057
-160.089
-159.854
-159.353
-158.59
-157.566
-156.275
-154.728
-152.936
-150.9
-148.623
-146.107
-143.366
-140.403
-137.222
-133.83
-130.234
-126.45
-122.494
-118.375
-114.104
-109.688
-105.13
-100.446
-95.645
-90.7412
-85.7529
-80.6869
-75.5552
-70.3637
-65.1351
-59.8781
-54.6143
-49.3438
-44.08
-38.8311
-33.6074
-28.4256
-23.2946
-18.2262
-13.2352
-8.32856
-3.51881
1.18558
5.78646
10.261
14.6098
18.8115
22.8721
26.7773
30.5199
34.1
37.5051
40.7425
43.7929
46.663
49.3348
51.8189
54.1004
56.1907
-152.064
-152.325
-152.333
-152.082
-151.58
-150.832
-149.828
-148.568
-147.067
-145.335
-143.372
-141.174
-138.746
-136.108
-133.262
-130.205
-126.942
-123.476
-119.833
-116.029
-112.074
-107.979
-103.745
-99.3696
-94.8731
-90.2604
-85.5514
-80.7658
-75.9061
-70.9821
-65.9949
-60.9748
-55.9279
-50.8847
-45.8318
-40.7881
-35.7568
-30.7451
-25.7743
-20.8536
-15.9904
-11.2019
-6.49428
-1.88193
2.62859
7.04772
11.3428
15.5222
19.5519
23.4493
27.1965
30.7874
34.224
37.4902
40.605
43.5369
46.3034
48.8715
51.2638
53.4558
55.4714
-144.188
-144.4
-144.386
-144.109
-143.612
-142.878
-141.901
-140.65
-139.181
-137.526
-135.641
-133.518
-131.178
-128.646
-125.931
-122.998
-119.867
-116.526
-113.03
-109.387
-105.593
-101.681
-97.6463
-93.4507
-89.1454
-84.7251
-80.2179
-75.6399
-70.9813
-66.2697
-61.4807
-56.675
-51.8354
-47.0265
-42.1953
-37.3918
-32.5987
-27.7901
-23.0312
-18.3401
-13.677
-9.09077
-4.59556
-0.178413
4.12396
8.36662
12.4745
16.4903
20.3339
24.0653
27.6455
31.0719
34.3699
37.4879
40.4893
43.2969
45.9663
48.4161
50.7167
52.8077
54.7524
-136.205
-136.339
-136.313
-136.005
-135.518
-134.766
-133.833
-132.519
-131.129
-129.66
-127.78
-125.735
-123.446
-121.006
-118.521
-115.641
-112.636
-109.487
-106.116
-102.647
-98.9344
-95.1857
-91.449
-87.3357
-83.2339
-79.0837
-74.7153
-70.3805
-65.8156
-61.4334
-56.7185
-52.2506
-47.5056
-43.0317
-38.3836
-33.8499
-29.3555
-24.6324
-20.0923
-15.679
-11.1341
-6.79974
-2.55476
1.74699
5.69601
9.90321
13.6874
17.6572
21.1776
24.817
28.2469
31.4127
34.6888
37.5441
40.568
43.1248
45.8033
47.9868
50.3212
52.2123
54.1935
61.2296
63.208
64.9498
66.4557
67.7252
68.7624
69.5714
70.1572
70.524
70.6783
70.6431
70.4611
70.1241
69.5908
68.8894
68.0252
66.9602
65.7057
64.2838
62.7101
60.9965
59.1535
57.1932
55.1268
52.9665
50.7251
48.416
46.0533
43.6493
41.2198
38.7779
36.3387
33.9175
31.5278
29.1865
26.9065
24.7029
22.5897
20.5901
18.7184
17.0008
15.4412
14.0533
12.8569
11.8664
11.0915
10.5416
10.2184
10.1165
10.218
10.4895
10.8776
11.3046
11.6689
11.8505
11.1712
9.67074
8.15383
6.91256
5.9834
5.1647
61.1539
63.0533
64.7268
66.175
67.398
68.3977
69.1778
69.7421
70.0951
70.2388
70.1884
70.0029
69.6811
69.1715
68.4889
67.6386
66.5998
65.3805
63.9989
62.4691
60.8028
59.0104
57.1039
55.0956
52.9972
50.8209
48.579
46.2842
43.9495
41.5884
39.2144
36.8413
34.4837
32.1551
29.8706
27.6444
25.4909
23.4217
21.443
19.5822
17.8474
16.2727
14.8685
13.6474
12.6214
11.8008
11.194
10.8036
10.6241
10.6399
10.8204
11.1167
11.454
11.7337
11.7821
11.141
9.82194
8.47749
7.4199
6.61616
5.78871
60.4961
62.3537
63.9913
65.4103
66.6103
67.5941
68.3647
68.9264
69.2816
69.427
69.3874
69.2263
68.9272
68.4399
67.7826
66.9627
65.9666
64.8001
63.4765
62.0087
60.4078
58.684
56.8493
54.915
52.892
50.7924
48.628
46.4112
44.1542
41.8702
39.5723
37.274
34.9887
32.7303
30.5123
28.3486
26.2524
24.2357
22.3107
20.4988
18.8172
17.28
15.899
14.685
13.6494
12.8021
12.1496
11.6934
11.4278
11.3383
11.3956
11.5542
11.7403
11.8533
11.7193
11.0691
9.91615
8.694
7.67203
6.83085
5.99475
59.6823
61.4898
63.0843
64.4688
65.6413
66.6056
67.3628
67.9184
68.2707
68.4149
68.3915
68.26
67.9849
67.5263
66.8986
66.1113
65.158
64.0451
62.7813
61.3783
59.8464
58.1949
56.4365
54.5814
52.6397
50.6244
48.5459
46.4166
44.2479
42.053
39.8441
37.6344
35.4365
33.2639
31.1292
29.0461
27.0269
25.084
23.2305
21.4823
19.8541
18.3587
17.0063
15.805
14.7655
13.8956
13.1993
12.676
12.3186
12.1123
12.0287
12.0252
12.0346
11.9648
11.6804
11.0295
10.0273
8.92595
7.93062
7.0631
6.23817
58.8681
60.6217
62.1691
63.516
64.6567
65.5988
66.3386
66.8845
67.23
67.374
67.3682
67.2664
67.0135
66.5845
65.9875
65.2348
64.323
63.2628
62.0576
60.7193
59.2572
57.6781
55.9974
54.2234
52.3647
50.4362
48.4459
46.407
44.3289
42.2258
40.1081
37.9893
35.8806
33.7956
31.7455
29.7442
27.8028
25.9337
24.1482
22.4603
20.8822
19.4263
18.1019
16.9163
15.8755
14.9853
14.2481
13.6608
13.2147
12.8945
12.6734
12.5119
12.3535
12.1243
11.7326
11.0926
10.2124
9.2288
8.27871
7.40488
6.57683
58.0769
59.775
61.2717
62.5806
63.6869
64.606
65.3264
65.8624
66.2004
66.3492
66.3602
66.2854
66.053
65.6537
65.0869
64.3708
63.4998
62.4923
61.3445
60.0708
58.6791
57.1718
55.5694
53.8778
52.1022
50.2622
48.3607
46.4139
44.4268
42.4168
40.3907
38.3639
36.3442
34.3471
32.3812
30.4616
28.5973
26.8009
25.0807
23.4506
21.9201
20.5015
19.2022
18.0282
16.9835
16.0703
15.2904
14.6391
14.1069
13.6791
13.3309
13.028
12.7247
12.3664
11.8928
11.2557
10.4576
9.56966
8.67484
7.8153
6.9872
57.2853
58.9265
60.3697
61.6401
62.7103
63.6078
64.309
64.8352
65.1665
65.3242
65.351
65.3011
65.0888
64.7187
64.1819
63.5035
62.6735
61.7194
60.6272
59.419
58.0997
56.6643
55.1416
53.5327
51.8399
50.0906
48.2793
46.4261
44.5305
42.6152
40.6819
38.7479
36.8172
34.9081
33.0255
31.1875
29.4
27.6753
26.0181
24.4437
22.9579
21.5745
20.2982
19.1335
18.0825
17.1456
16.3242
15.6116
14.9976
14.4713
14.0094
13.5841
13.1593
12.6965
12.156
11.5103
10.7582
9.93658
9.09344
8.25914
7.44208
56.4823
58.0718
59.4535
60.6906
61.7172
62.5982
63.2767
63.7966
64.1198
64.2946
64.3308
64.307
64.1118
63.7729
63.2634
62.6253
61.8321
60.9399
59.8949
58.7552
57.5134
56.144
54.7108
53.1843
51.5663
49.9152
48.192
46.4381
44.6294
42.8142
40.9714
39.1345
37.2897
35.4709
33.6664
31.9115
30.1992
28.5484
26.9496
25.4305
23.9829
22.6341
21.378
20.2243
19.1658
18.2041
17.347
16.5787
15.8891
15.2773
14.7156
14.1884
13.662
13.1148
12.5164
11.8545
11.1226
10.3431
9.5365
8.72813
7.92802
55.7087
57.3558
58.5766
59.8865
60.7596
61.7019
62.2516
62.8592
63.0946
63.3847
63.3293
63.4097
63.1527
62.9333
62.3751
61.8496
60.992
60.2644
59.2165
58.1531
57.0233
55.6145
54.3413
52.9285
51.2984
49.8199
48.1147
46.5276
44.7338
43.0783
41.2635
39.5756
37.7693
36.0896
34.308
32.6749
30.9943
29.4549
27.8755
26.4465
24.9951
23.7077
22.4499
21.3177
20.2539
19.2509
18.3746
17.5547
16.7885
16.1208
15.4616
14.8628
14.2407
13.6337
12.9747
12.3019
11.5662
10.8222
10.0317
9.23571
8.45645
4.36401
3.6381
2.95594
2.26607
1.57678
0.927392
0.329411
-0.208032
-0.663564
-1.03013
-1.30408
-1.4908
-1.59286
-1.60488
-1.55516
-1.46785
-1.35667
-1.24119
-1.13556
-1.04776
-0.980385
-0.927672
-0.885449
-0.847156
-0.809369
-0.78313
-0.74259
-0.698175
-0.643748
-0.578273
-0.497233
-0.399219
-0.28493
-0.154059
-0.0104018
0.144602
0.306697
0.472773
0.63849
0.79826
0.947122
1.08008
1.19574
1.28929
1.35749
1.40038
1.41693
1.4083
1.37526
1.32082
1.24889
1.16268
1.06503
0.961281
0.852038
0.739882
0.626734
0.509637
0.378499
0.216732
0.0330751
4.95171
4.26414
3.64206
2.99809
2.33862
1.72076
1.15241
0.636303
0.199244
-0.148578
-0.402774
-0.560198
-0.621727
-0.602467
-0.532601
-0.435545
-0.322826
-0.210625
-0.110966
-0.0305725
0.0297849
0.0740098
0.107593
0.133703
0.164504
0.173355
0.203372
0.232348
0.270773
0.320347
0.384624
0.465329
0.562636
0.675763
0.802708
0.941045
1.08711
1.23661
1.38602
1.53141
1.66827
1.79146
1.89698
1.98162
2.04254
2.07845
2.08884
2.07386
2.03461
1.97347
1.89349
1.7981
1.6902
1.57549
1.45481
1.33196
1.2046
1.07455
0.935783
0.782889
0.610846
5.19368
4.51135
3.87513
3.18153
2.47157
1.83572
1.24603
0.693232
0.219234
-0.16684
-0.464497
-0.671821
-0.791816
-0.84027
-0.818905
-0.749565
-0.6384
-0.510671
-0.39813
-0.308247
-0.240906
-0.191658
-0.155262
-0.124589
-0.105081
-0.0658647
-0.0397724
-0.00163912
0.0437842
0.100378
0.171017
0.257201
0.35894
0.475149
0.603926
0.742762
0.888385
1.03709
1.18479
1.32706
1.4594
1.57767
1.67811
1.75742
1.81303
1.84375
1.84919
1.83029
1.78859
1.72682
1.64811
1.55643
1.45536
1.34846
1.23813
1.12648
1.01303
0.894562
0.764908
0.615303
0.435296
5.46066
4.76642
4.09995
3.38927
2.68044
2.04581
1.43829
0.861013
0.3841
0.00489092
-0.291814
-0.493694
-0.598074
-0.620013
-0.564473
-0.446497
-0.309478
-0.202682
-0.100361
-0.00963048
0.0619733
0.11528
0.153119
0.180002
0.197592
0.220642
0.237658
0.260091
0.28947
0.329159
0.382272
0.450645
0.534769
0.633653
0.745841
0.868653
0.999131
1.13375
1.26891
1.40049
1.52416
1.63595
1.73222
1.81
1.86679
1.90142
1.9133
1.90317
1.87217
1.82277
1.75703
1.67827
1.58893
1.49185
1.38799
1.27927
1.16704
1.05168
0.930553
0.797126
0.642891
5.79543
5.07171
4.37319
3.65387
2.94267
2.28159
1.64713
1.06472
0.586998
0.192706
-0.130541
-0.347058
-0.461124
-0.500546
-0.469569
-0.387915
-0.287627
-0.168713
-0.0643411
0.0265951
0.0945648
0.144365
0.180597
0.208661
0.230552
0.252857
0.273269
0.297461
0.327596
0.366365
0.416775
0.480838
0.558892
0.65029
0.753597
0.866704
0.986646
1.11061
1.23517
1.35674
1.47102
1.57469
1.664
1.73658
1.78966
1.82232
1.83347
1.82407
1.79456
1.74743
1.68458
1.60937
1.5249
1.43387
1.33806
1.24016
1.1433
1.0418
0.930788
0.808269
0.671991
6.19274
5.43607
4.70551
3.97579
3.25808
2.57518
1.92514
1.33004
0.823457
0.398104
0.0616694
-0.159891
-0.293545
-0.355993
-0.33205
-0.247952
-0.140819
-0.0274729
0.0769123
0.155584
0.211034
0.252538
0.281336
0.30425
0.320776
0.336057
0.349414
0.36657
0.389479
0.419491
0.460695
0.514651
0.582091
0.66176
0.752999
0.853127
0.960181
1.07117
1.1834
1.29341
1.39709
1.49171
1.57348
1.6409
1.69074
1.72297
1.73574
1.73104
1.70836
1.6708
1.61954
1.55813
1.48914
1.41533
1.33914
1.25986
1.17484
1.08608
0.989469
0.880271
0.752328
6.64448
5.86987
5.11499
4.37251
3.64666
2.95297
2.29579
1.69284
1.16121
0.709649
0.349591
0.0963849
-0.0699385
-0.142847
-0.121145
-0.0496856
0.047833
0.152168
0.246443
0.31334
0.353368
0.380185
0.396801
0.411794
0.419631
0.426686
0.430402
0.440147
0.454582
0.474361
0.505069
0.54823
0.604435
0.672097
0.750501
0.837935
0.931359
1.02946
1.12913
1.22792
1.32084
1.40665
1.48074
1.54315
1.58949
1.62123
1.63541
1.63509
1.61877
1.59033
1.54979
1.5011
1.4456
1.38487
1.32137
1.25582
1.1871
1.1148
1.03503
0.943069
0.831249
7.13794
6.36171
5.59834
4.8542
4.12435
3.433
2.77889
2.18352
1.64619
1.18266
0.804631
0.524006
0.31547
0.213674
0.199951
0.237811
0.326654
0.401554
0.462668
0.515235
0.526143
0.532701
0.528609
0.53552
0.528618
0.527322
0.518108
0.520303
0.527872
0.53247
0.551639
0.583234
0.630266
0.686214
0.753872
0.828537
0.910043
0.995719
1.0841
1.1728
1.25591
1.33421
1.40072
1.45937
1.50139
1.533
1.54706
1.55086
1.5386
1.51762
1.48397
1.44496
1.40099
1.35163
1.30051
1.24816
1.19387
1.13795
1.07488
1.00154
0.907236
7.66502
6.90788
6.14063
5.40083
4.67329
4.0026
3.36476
2.81439
2.28648
1.8422
1.48019
1.21601
0.930693
0.797734
0.749975
0.720069
0.771443
0.696973
0.698123
0.775399
0.727659
0.711621
0.664328
0.692746
0.646025
0.652318
0.605536
0.607118
0.617624
0.597296
0.590917
0.620129
0.665082
0.706259
0.765093
0.829434
0.89708
0.974561
1.05265
1.14004
1.20756
1.28965
1.33847
1.40505
1.43145
1.47246
1.47205
1.4936
1.47196
1.46611
1.4268
1.38994
1.35828
1.31921
1.28164
1.24093
1.19838
1.1611
1.1108
1.06308
0.97997
4.90165
-4.43166
-5.74626
14.8407
5.7753
19.4543
17.9988
10.7007
11.5496
29.0915
1.52374
23.8173
18.1087
2.73612
21.7478
-102.127
20.559
12.0477
1.32291
17.445
15.0715
3.12563
0.96943
20.1252
11.4546
17.1175
17.5094
9.38647
20.3088
6.85456
10.4438
16.6785
28.4268
1.56885
23.0956
0.70931
0.649165
57.3791
18.6508
17.4915
7.73888
-2.82426
18.0342
-88.1139
0.236559
31.6777
11.5801
3.03231
16.1847
25.4645
-3.73956
-45.8179
17.0929
9.51854
13.9278
16.2228
6.96219
7.51352
0.860422
-31.3868
3.60487
15.5187
17.1094
-8.15422
-25.7995
14.8688
0.749089
8.65513
18.8506
18.093
15.3842
59.5569
6.56917
13.4079
13.3139
6.29123
-12.668
44.5121
17.1444
28.2159
-0.733049
16.4889
16.7122
-36.5538
17.984
50.269
12.0204
1.66072
15.3285
1.60993
-13.8587
17.1346
5.1449
-31.8349
-37.0826
5.64486
44.2421
9.96603
25.4677
-101.443
14.4978
16.1128
25.0424
17.0226
18.1064
16.9899
15.1361
39.7017
19.7547
-77.9348
-109.047
15.9266
0.399326
1.31099
5.76619
2.07484
1.0036
19.5095
-7.62824
11.3016
12.8829
0.00340508
11.2879
-117.757
-26.708
10.5438
15.3172
-47.0941
-34.8607
17.8395
21.2515
-7.98912
3.0491
10.974
2.54036
10.7817
18.0117
-53.156
-30.9094
11.6761
9.57696
-52.8948
14.8702
49.0239
1.39348
12.4385
16.6295
1.40159
31.7886
-0.741368
16.2154
16.2469
59.1385
-33.4824
-59.2334
8.86869
8.2847
-27.8501
16.6014
0.676885
16.6534
26.3891
17.3941
12.525
14.9253
13.2183
6.81221
9.68917
17.1166
0.223997
-1.96512
1.5226
5.70223
17.3821
1.29511
1.30519
1.12419
8.86748
22.4331
1.57134
1.81932
-1.27293
-31.0634
9.73056
6.4672
0.692548
-10.4799
52.1443
9.8349
11.8775
25.434
20.2244
-17.0199
-39.212
16.6116
-31.6589
4.02351
0.399418
21.3022
0.735256
9.85923
14.9969
13.4464
-58.7641
-1.82017
20.8327
8.49873
16.0787
-45.5146
0.842617
41.2305
-5.78717
16.3479
-117.284
11.057
-77.5642
-65.2995
1.76766
33.4206
1.73565
11.3721
40.1292
12.0067
16.7163
1.00614
-7.69442
-9.25062
11.7249
16.9674
59.7581
1.36682
21.4128
-5.27615
-37.6076
13.6166
19.2785
3.15402
-57.1728
-46.633
19.2829
13.3157
8.66325
10.884
15.946
-123.484
16.6678
8.24773
-98.5007
23.9181
17.2646
8.858
23.7361
1.27002
8.44255
11.3431
18.6518
25.3342
15.2068
6.58118
1.91158
15.661
9.61356
-64.6273
18.5369
0.644295
12.7717
17.533
0.984235
17.5568
1.00419
24.028
1.11529
22.8176
11.4079
52.9532
9.87286
14.3005
10.7779
15.9872
20.7093
50.3087
9.72892
-71.888
15.2949
14.8922
18.6222
17.0512
-61.6713
7.96914
7.9431
-26.1159
40.5281
14.4178
16.9851
35.0946
17.4029
9.52439
5.05004
-0.915343
16.3489
10.9488
5.48027
48.6204
-3.77355
2.62291
-78.8377
21.8227
18.6375
19.3882
-100.506
9.78248
11.8774
11.4945
-12.4935
16.45
14.1968
0.672591
1.17983
7.06306
1.87093
16.4355
3.53525
15.2427
14.9938
-26.8408
1.84876
15.4517
0.859154
-90.4253
6.44347
-27.1789
-44.5035
-101.226
2.08054
1.4907
16.8483
0.632615
0.760849
-124.008
35.0937
15.0465
14.7936
12.014
11.5841
49.7626
11.2604
-9.30685
18.7702
-70.7183
14.9705
1.311
-45.4151
-113.712
10.7241
-61.7804
8.67024
2.74547
14.4562
1.6894
2.42075
10.3055
0.355879
0.971521
-6.57757
0.981648
16.0293
6.78878
-113.821
-33.9456
3.90366
16.5981
-26.1809
-49.6308
12.6722
1.56817
15.7349
-5.88873
7.38967
1.46501
-73.7509
0.776642
-79.7567
20.2521
-89.175
11.2694
4.78986
21.0286
1.18357
-117.308
-27.591
47.4072
50.1822
3.2724
0.674626
17.2124
30.2599
16.7435
-0.464478
12.0731
-10.1236
17.2916
18.8117
21.9558
21.4162
-7.65421
-46.716
12.0468
-82.8992
0.354949
-11.3192
1.82082
-61.8995
-2.07265
18.7616
-124.08
9.80417
9.40651
23.3622
-52.879
17.0703
18.2014
1.37494
17.7186
10.0164
14.3436
1.15974
35.9123
-26.1211
-51.606
9.69367
-61.038
9.2403
-54.3241
16.8327
15.6771
0.887519
4.04223
-93.3378
-1.8366
1.63561
-10.8194
-62.0348
-59.6355
18.3195
3.57922
-41.469
-50.0543
17.0623
2.64262
-32.0529
22.8494
12.9858
36.5626
-39.8969
-0.255504
-9.63726
0.524203
9.09328
-90.0092
2.33513
10.4037
19.8641
47.0454
1.21885
44.0907
2.08591
17.4115
1.70967
1.42287
13.7358
12.3443
0.12317
1.32527
16.7976
2.4995
1.39895
2.66346
1.38495
1.94427
1.33385
8.3455
4.92985
15.8111
15.6779
-110.849
10.0546
-67.8547
-106.868
16.1936
0.416177
2.31429
19.1015
3.63922
1.31541
16.3155
16.9993
15.0997
5.43271
-37.5324
10.5167
26.5541
13.6462
13.9513
15.5238
5.57222
0.692684
13.5058
19.2227
9.59311
1.3735
13.8667
13.5875
-12.7038
12.7214
-0.424347
-3.36698
-4.23565
17.1885
19.9957
9.42402
22.4598
3.47717
2.84584
48.7275
-22.0599
-5.50711
21.9307
8.34625
1.16873
1.40426
-80.1592
-27.3782
20.9499
3.18524
10.3813
0.657821
-21.0832
18.6773
12.2027
-27.3066
-82.4769
12.7204
-17.8208
-54.0993
4.62544
-105.357
9.34064
9.46849
9.11842
-32.2533
14.0187
-80.818
-2.46788
13.0258
0.919976
17.282
-0.287908
14.9378
12.8066
31.7816
2.93618
0.896202
14.864
7.20496
0.72453
-46.644
-30.6338
8.11499
-34.1804
4.77814
28.7068
1.52048
9.43127
-95.5518
9.94721
8.56019
14.4021
1.39602
52.1867
1.71518
8.16723
8.55302
1.30116
1.15114
13.6151
15.648
15.9749
9.56275
10.2623
29.2621
-76.1967
8.32868
17.8241
-32.0467
0.598083
-87.0554
13.6556
0.756379
17.6828
-55.1856
4.2992
-21.0147
0.933667
0.784877
2.80932
-105.97
20.5487
17.3397
6.57907
16.006
-26.9288
-22.3194
-6.38009
10.0376
9.10866
5.01659
16.3125
-0.219148
0.728942
16.2097
23.2389
1.37009
-58.3309
20.9317
1.58402
20.5226
-8.30235
17.2503
36.3619
6.78215
29.5557
18.5052
-30.062
-21.5467
-4.69091
19.0665
10.6025
-32.4274
16.1149
12.542
4.66092
5.62517
0.717973
-30.928
40.6586
3.51476
2.09739
0.892016
-89.5318
9.58668
23.3629
15.694
0.921041
5.0577
-23.054
14.464
12.3546
6.06077
1.19679
-7.03543
15.232
2.17825
10.9837
-21.0445
1.30717
39.1955
0.939697
0.185958
8.34197
57.2913
17.0575
16.7179
1.23344
10.2519
7.21792
8.87023
10.2806
-115.812
1.71981
-34.8871
30.5684
17.5493
8.51624
19.3397
-6.21773
-10.8664
1.26365
3.96025
1.35838
12.9112
-2.5501
18.5735
-88.5197
16.7666
6.66451
2.11778
-3.46112
2.93965
-7.18798
10.6562
3.37957
0.694087
19.2352
-120.787
15.3958
17.0926
10.8111
-4.35233
18.9054
3.86993
-21.3272
15.6173
-14.0874
-97.4761
17.4919
8.92075
14.5726
-63.1692
-6.46862
15.8005
42.8958
12.6095
9.11322
11.5941
-110.969
-126.038
16.5403
-1.41147
-11.9128
1.39309
17.7916
6.96722
-11.4145
13.7693
15.3644
0.0224805
18.5385
19.6371
8.55629
14.8635
-3.01899
13.3584
-5.54426
23.162
1.67986
-4.41192
42.6777
1.08316
6.62515
21.9218
4.32289
-45.2611
24.4932
-83.7037
20.8898
1.22163
-19.6324
10.1674
-9.89374
0.73373
12.9088
13.142
-93.531
-40.0121
13.5065
-65.087
-9.15761
53.6974
-16.2949
-20.2862
21.4935
0.73555
6.00895
11.851
-55.5554
-22.9777
-4.69768
-4.3473
-6.57132
0.957598
22.6268
19.0985
13.3558
-121.571
-44.4683
27.5375
2.20853
-112.074
11.147
14.4267
10.4976
1.08762
4.82011
1.14823
-15.0848
21.3997
-121.175
-17.2443
-85.7512
-98.3857
18.8454
25.3593
-43.5977
26.1926
14.5352
12.2837
11.0263
10.298
26.0766
17.9324
2.12256
-51.5734
-30.2653
24.5815
2.26714
3.54378
13.8104
1.38425
12.9337
-53.498
1.24864
49.2515
2.05622
22.2951
11.55
18.6003
15.7223
-76.7534
13.1598
44.7513
0.91406
0.911797
32.3154
61.156
12.665
13.2435
25.0746
-50.6052
-15.7385
17.2867
10.0612
-91.4791
27.4959
17.4111
-63.0825
15.7488
3.66863
1.3392
6.27688
-16.2986
53.867
0.783241
-8.6577
-0.456871
17.8208
0.279467
9.56429
14.8178
17.2902
12.248
0.924951
17.291
0.6907
30.2298
0.172312
11.3681
10.3488
16.6704
8.47101
-49.887
9.8048
18.1402
-29.6365
-70.7844
34.1979
1.49093
7.53933
16.7807
34.4625
-84.608
9.51696
-2.99619
11.1358
16.3381
-88.237
17.2289
9.68581
50.0056
29.9828
-19.5418
4.36218
15.864
17.1696
-66.6944
-4.56052
10.1736
14.8801
1.20573
17.5296
-127.714
7.56722
0.809359
10.5815
18.7639
-0.128476
14.7172
23.0081
24.8629
4.61733
-0.805831
17.7746
20.6823
17.5096
20.3363
10.8227
18.16
-70.4223
2.44438
18.1137
-25.6547
14.1215
7.04543
19.6359
11.672
-62.1358
10.805
5.09266
18.8848
-20.7673
16.727
-24.7308
-104.109
1.5964
1.20996
-47.6653
16.1986
18.4225
-21.3753
-104.605
1.21773
-14.1989
15.9161
-82.6018
13.4095
16.6042
18.2562
-18.5339
6.84931
9.46963
-28.8084
17.4063
8.49987
-84.8836
10.5638
-119.26
47.1897
11.6932
18.2364
6.39552
16.8212
-9.1589
-6.30679
20.1104
-18.5233
5.77172
12.8608
-38.1395
4.784
17.5515
-49.2747
14.8738
1.92992
-67.4085
-14.1207
17.2134
19.3201
14.758
62.1706
8.53901
-2.26738
-23.8594
15.6438
-11.7512
15.4368
5.39176
15.5337
0.754617
9.89776
0.68036
-13.9155
58.9801
7.37181
59.3449
7.31029
12.8221
4.00932
20.197
-9.42126
17.8316
11.1536
1.52417
59.8417
16.8626
9.16431
-8.49916
0.615102
-108.849
15.8783
-5.64085
10.5649
-21.8935
-61.8481
0.984398
-73.4242
9.57468
2.87576
-25.8044
18.3598
15.7719
14.1297
12.3501
21.4502
16.2202
12.7669
17.6367
1.19761
-68.3145
17.6313
20.2583
17.6982
7.98804
-72.9979
1.28165
-24.5783
15.7635
-43.4072
0.85004
25.0282
-67.3221
17.0396
0.709136
40.1527
1.38276
22.8056
4.1431
1.73626
16.0115
10.5042
-107.323
13.6971
-1.34879
-39.1505
1.37779
15.8701
11.0255
30.9466
2.80577
1.22673
-79.1591
15.9013
16.4935
17.0222
-20.0452
-35.8626
13.9778
12.7409
15.1395
1.10626
1.60025
49.3214
0.474941
-65.6601
2.10317
-58.9988
0.524138
0.62807
32.3211
51.0437
13.0299
60.1241
45.5424
18.3655
17.6195
6.29093
14.5315
18.5648
2.22975
1.86002
19.7016
1.66036
10.3022
19.1943
9.05448
18.5239
28.8022
1.47294
-5.50676
-120.777
17.8692
12.1154
-50.6262
7.7206
22.4436
14.0605
10.9783
2.27203
17.3876
-2.22268
1.47148
30.4109
12.8363
0.763048
16.7893
17.4634
15.6428
5.78456
15.5487
17.0039
-3.57612
18.5342
20.6361
-76.53
-28.9057
-18.5745
14.7168
1.47977
-50.675
17.0717
1.459
1.11015
-125.99
0.669854
16.7644
8.71873
31.3913
-1.05575
1.15254
9.15944
46.4
1.56427
16.1559
1.02055
16.6414
53.9363
14.2276
-21.0883
16.8303
0.915511
-69.4929
15.7136
42.4014
4.16885
13.0649
18.7659
29.5929
11.0058
19.7399
1.94535
16.1983
10.7275
-123.151
4.42178
18.6506
19.9779
-65.0142
-82.3776
16.808
18.172
12.5114
11.3811
-59.496
24.6394
-58.7807
17.8547
11.3459
17.3547
-12.063
5.56569
17.4574
0.688172
1.39875
-89.3701
-62.2947
8.2565
-2.78753
-74.6463
18.2931
18.4293
18.4789
7.49559
18.9565
2.37528
18.2404
9.58207
-1.85965
-25.1865
2.44219
12.7432
1.36116
36.3534
16.7302
19.6527
-104.08
15.6011
15.5568
20.1132
12.5007
-73.6538
-7.03451
1.64979
17.2245
17.0733
17.7207
-4.23622
20.2663
-17.8705
8.38476
8.66
13.5523
9.3941
15.6327
10.9941
10.6685
9.79959
-1.67157
-10.4645
2.77571
-86.7948
11.9086
16.781
0.95527
-91.2876
41.2083
1.75744
23.7301
15.9784
13.1864
11.8771
16.674
60.812
-8.26125
0.996162
-94.7795
16.8687
27.9259
-37.1398
3.46151
-51.7432
1.21459
30.9781
1.43801
16.7061
-22.9542
-13.2835
-38.1283
-8.53481
17.8304
1.3657
7.75726
22.5283
13.2774
19.5763
8.8749
56.7789
20.5055
16.6304
43.9388
10.7832
15.6703
18.4765
20.4527
-10.6333
1.23609