/*--------------------------------*- C++ -*----------------------------------*\
| =========                 |                                                 |
| \\      /  F ield         | OpenFOAM: The Open Source CFD Toolbox           |
|  \\    /   O peration     | Version:  2.3.1                                 |
|   \\  /    A nd           | Web:      www.OpenFOAM.org                      |
|    \\/     M anipulation  |                                                 |
\*---------------------------------------------------------------------------*/
FoamFile
{
    version     2.0;
    format      ascii;
    class       surfaceScalarField;
    location    "0.91";
    object      phi;
}
// * * * * * * * * * * * * * * * * * * * * * * * * * * * * * * * * * * * * * //

dimensions      [0 3 -1 0 0 0 0];

internalField   nonuniform List<scalar> 
15416
(
-0.000699561
-2.54535e-06
0.000705652
-0.000696486
-3.0768e-06
-0.00069348
-3.00779e-06
-0.000691492
-1.99014e-06
-0.000690849
-6.45251e-07
-0.000691832
9.8099e-07
-0.00069515
3.31574e-06
-0.000701169
6.018e-06
-0.000710011
8.84063e-06
-0.000722008
1.19946e-05
-0.000737549
1.55395e-05
-0.000756829
1.9278e-05
-0.000779961
2.31299e-05
-0.000807008
2.70443e-05
-0.000838046
3.1036e-05
-0.000872987
3.4938e-05
-0.000911636
3.86458e-05
-0.000953782
4.2142e-05
-0.000999278
4.54928e-05
-0.0010478
4.8518e-05
-0.00109908
5.12797e-05
-0.00115288
5.37899e-05
-0.00120883
5.59454e-05
-0.00126657
5.774e-05
-0.00132587
5.9294e-05
-0.00138648
6.06105e-05
-0.00144812
6.16316e-05
-0.00151046
6.23374e-05
-0.00157329
6.2826e-05
-0.00163644
6.31388e-05
-0.00169961
6.31648e-05
-0.0017626
6.29866e-05
-0.00182532
6.27168e-05
-0.00188753
6.22111e-05
-0.00194905
6.15126e-05
-0.00200981
6.07636e-05
-0.00206972
5.99061e-05
-0.0021286
5.88689e-05
-0.00218621
5.76076e-05
-0.00224254
5.63308e-05
-0.00229758
5.50398e-05
-0.00235116
5.35725e-05
-0.00240315
5.19891e-05
-0.0024536
5.04512e-05
-0.00250223
4.86357e-05
-0.00254903
4.67947e-05
-0.00259409
4.50631e-05
-0.00263743
4.33341e-05
-0.00267882
4.13865e-05
-0.00271828
3.94648e-05
-0.00275571
3.74335e-05
-0.0027913
3.55878e-05
-0.00282455
3.3251e-05
-0.00285592
3.13696e-05
-0.0028852
2.92814e-05
-0.00291276
2.75522e-05
-0.00293763
2.48787e-05
-0.00296026
2.26243e-05
-0.00298098
2.07264e-05
-0.00299997
1.89888e-05
1.72907e-05
-0.00301726
-0.000402244
-4.1684e-06
0.000403868
-0.000402907
-2.41309e-06
-0.00040617
2.5622e-07
-0.000412085
3.92714e-06
-0.000422614
9.88559e-06
-0.00043716
1.55289e-05
-0.000455908
2.20651e-05
-0.000478531
2.86428e-05
-0.000505692
3.60037e-05
-0.000536886
4.31899e-05
-0.000572259
5.09128e-05
-0.000611645
5.86652e-05
-0.000654927
6.64116e-05
-0.000701968
7.40852e-05
-0.000752467
8.15348e-05
-0.000806284
8.8754e-05
-0.000863156
9.55171e-05
-0.000922873
0.000101857
-0.000985082
0.0001077
-0.00104958
0.000113017
-0.00111616
0.000117855
-0.00118438
0.000122007
-0.00125405
0.000125615
-0.00132496
0.000128647
-0.0013968
0.000131131
-0.00146933
0.000133137
-0.00154222
0.000134518
-0.00161541
0.000135531
-0.00168861
0.000136022
-0.00176149
0.000136016
-0.00183406
0.000135737
-0.00190617
0.000135088
-0.00197741
0.000133959
-0.00204777
0.000132566
-0.00211724
0.000130979
-0.00218543
0.000128957
-0.00225238
0.000126854
-0.00231795
0.000124435
-0.00238213
0.000121785
-0.00244471
0.000118912
-0.0025054
0.000115723
-0.00256447
0.000112639
-0.00262172
0.000109246
-0.00267691
0.000105633
-0.00273019
0.000101916
-0.00278138
9.79854e-05
-0.00283056
9.4235e-05
-0.00287728
9.00566e-05
-0.00292195
8.60532e-05
-0.00296445
8.1958e-05
-0.00300483
7.7814e-05
-0.00304339
7.41463e-05
-0.0030785
6.83612e-05
-0.00311292
6.57908e-05
-0.00314354
5.99024e-05
-0.00317262
5.66301e-05
-0.00319737
4.96214e-05
-0.00322194
4.71948e-05
-0.00324424
4.30224e-05
-0.00326437
3.91191e-05
3.30914e-05
-0.00328017
-0.000259178
1.99884e-06
0.00025301
-0.000268535
6.9446e-06
-0.000281966
1.3687e-05
-0.000300135
2.20974e-05
-0.000321914
3.16657e-05
-0.000348335
4.19519e-05
-0.000378979
5.27106e-05
-0.000414097
6.37623e-05
-0.000453581
7.54888e-05
-0.000497505
8.71146e-05
-0.000545574
9.89823e-05
-0.000597397
0.000110488
-0.000653082
0.000122096
-0.000712242
0.000133246
-0.000774675
0.000143966
-0.000840094
0.000154172
-0.000908278
0.0001637
-0.000978952
0.000172529
-0.0010518
0.000180544
-0.00112666
0.000187874
-0.00120307
0.000194268
-0.00128096
0.000199898
-0.00136003
0.000204682
-0.00144002
0.00020863
-0.00152063
0.000211738
-0.00160162
0.000214128
-0.00168283
0.00021573
-0.001764
0.000216692
-0.00184483
0.000216851
-0.00192543
0.000216616
-0.00200533
0.000215639
-0.00208433
0.000214086
-0.00216262
0.000212246
-0.00223972
0.000209666
-0.00231555
0.000206801
-0.00239005
0.000203461
-0.00246307
0.00019987
-0.00253445
0.000195812
-0.00260415
0.000191482
-0.00267206
0.000186824
-0.00273824
0.000181895
-0.00280211
0.000176513
-0.00286406
0.000171197
-0.00292384
0.000165412
-0.00298144
0.000159515
-0.00303688
0.000153423
-0.00308991
0.000147264
-0.00314065
0.000140794
-0.00318884
0.000134246
-0.00323524
0.000128351
-0.00327795
0.000120522
-0.00331807
0.000114271
-0.00335657
0.000106862
-0.00339278
0.000101999
-0.00342685
9.39648e-05
-0.00345664
8.64226e-05
-0.00348628
7.92573e-05
-0.0035116
7.25206e-05
-0.0035347
6.61209e-05
-0.00355355
5.7961e-05
5.1823e-05
-0.00357228
-0.000190168
1.53117e-05
0.000176855
-0.000207983
2.47598e-05
-0.000230258
3.59637e-05
-0.000256901
4.87417e-05
-0.000287966
6.2733e-05
-0.000323578
7.75656e-05
-0.000363654
9.27888e-05
-0.000408546
0.000108657
-0.000457817
0.000124762
-0.000511548
0.000140847
-0.000569293
0.000156729
-0.00063122
0.000172416
-0.000696897
0.000187773
-0.000765898
0.000202247
-0.000838157
0.000216225
-0.000913317
0.000229332
-0.00099109
0.000241472
-0.00107117
0.000252613
-0.00115335
0.000262718
-0.0012372
0.000271727
-0.00132272
0.00027978
-0.00140939
0.000286569
-0.00149712
0.000292417
-0.00158559
0.0002971
-0.00167462
0.00030076
-0.00176377
0.000303281
-0.00185296
0.000304912
-0.00194197
0.000305705
-0.00203068
0.000305557
-0.00211861
0.000304542
-0.00220584
0.00030287
-0.00229224
0.000300488
-0.00237729
0.000297287
-0.00246118
0.000293556
-0.00254371
0.00028933
-0.00262472
0.000284467
-0.00270388
0.000279028
-0.00278136
0.000273292
-0.00285694
0.000267061
-0.00293065
0.000260537
-0.00300207
0.000253312
-0.00307158
0.000246018
-0.00313852
0.000238137
-0.00320326
0.000230144
-0.0032655
0.000221756
-0.00332524
0.000213167
-0.00338244
0.000204461
-0.00343739
0.00019574
-0.00348899
0.000185844
-0.00353806
0.000177415
-0.00358572
0.00016818
-0.00362929
0.000157844
-0.00367065
0.00014822
-0.00370789
0.000139243
-0.00374478
0.00013085
-0.00377754
0.000119178
-0.00380804
0.000109753
-0.0038363
0.000100779
-0.00386037
9.01912e-05
-0.0038822
7.97898e-05
6.94631e-05
-0.00389984
-0.000158952
3.58986e-05
0.000138365
-0.000183603
4.94117e-05
-0.000212886
6.52469e-05
-0.000246886
8.27433e-05
-0.000285642
0.000101491
-0.00032935
0.000121275
-0.000378174
0.000141616
-0.000431595
0.00016208
-0.000489842
0.000183011
-0.000552528
0.000203535
-0.00061968
0.000223882
-0.000690979
0.000243717
-0.000765891
0.000262686
-0.000844441
0.000280798
-0.000926417
0.000298201
-0.00101081
0.000313726
-0.00109792
0.000328579
-0.0011873
0.00034199
-0.00127857
0.00035399
-0.00137158
0.00036474
-0.00146598
0.000374182
-0.00156166
0.000382244
-0.0016582
0.000388958
-0.00175535
0.000394242
-0.00185271
0.000398122
-0.00195036
0.000400932
-0.0020478
0.000402348
-0.00214486
0.000402769
-0.00224138
0.000402071
-0.00233723
0.000400389
-0.00243209
0.000397734
-0.00252574
0.000394133
-0.00261817
0.000389719
-0.00270922
0.0003846
-0.00279853
0.000378646
-0.00288607
0.000372004
-0.00297201
0.000364965
-0.00305581
0.000357089
-0.0031375
0.000348755
-0.00321688
0.000339914
-0.00329422
0.000330651
-0.00336902
0.000320811
-0.00344143
0.000310544
-0.0035112
0.000299914
-0.00357831
0.000288869
-0.00364339
0.000278244
-0.00370372
0.000264787
-0.00376199
0.000254011
-0.0038186
0.000242451
-0.00387126
0.000230068
-0.00392162
0.000218541
-0.00396979
0.000206009
-0.00401399
0.000192419
-0.00405593
0.000181189
-0.0040919
0.000166817
-0.00412742
0.000154692
-0.0041607
0.000143037
-0.00418981
0.000129884
-0.00421476
0.000115146
-0.00423946
0.000104481
8.99867e-05
-0.00425998
-0.000146423
6.29613e-05
0.00011936
-0.000178009
8.09985e-05
-0.000214301
0.00010154
-0.000255908
0.000124352
-0.000302768
0.000148352
-0.000354728
0.000173237
-0.000411816
0.000198706
-0.000474207
0.000224473
-0.000541391
0.000250197
-0.000613593
0.00027574
-0.000690298
0.000300588
-0.000771039
0.000324459
-0.00085583
0.000347478
-0.000943872
0.000368841
-0.00103497
0.000389296
-0.00112913
0.000407889
-0.00122585
0.000425298
-0.00132494
0.000441084
-0.00142573
0.000454779
-0.00152808
0.000467091
-0.00163193
0.00047803
-0.00173668
0.000486993
-0.00184236
0.000494638
-0.00194855
0.000500436
-0.00205501
0.000504576
-0.00216131
0.000507233
-0.0022674
0.000508438
-0.00237293
0.000508294
-0.00247777
0.000506916
-0.00258175
0.000504365
-0.00268462
0.0005006
-0.00278605
0.000495563
-0.00288609
0.000489756
-0.00298452
0.000483035
-0.00308104
0.000475157
-0.00317571
0.000466677
-0.00326823
0.000457477
-0.00335859
0.000447447
-0.00344677
0.000436934
-0.00353268
0.00042582
-0.00361581
0.000413788
-0.00369647
0.000401461
-0.00377428
0.000388352
-0.00384885
0.000374484
-0.00392088
0.000360904
-0.00399027
0.000347626
-0.00405761
0.000332128
-0.00412092
0.000317323
-0.00418028
0.000301801
-0.00423736
0.000287154
-0.00429048
0.000271657
-0.00433953
0.000255055
-0.00438812
0.000241009
-0.00443092
0.000223989
-0.00447331
0.000209199
-0.00451158
0.000192961
-0.00454371
0.000175169
-0.00457355
0.000159726
-0.00460318
0.000144775
-0.00462677
0.000128067
0.00011137
-0.00464816
-0.000147304
9.63381e-05
0.000113928
-0.000185925
0.00011962
-0.000229906
0.000145522
-0.00027962
0.000174067
-0.000334681
0.000203416
-0.000395532
0.00023409
-0.000461831
0.000265007
-0.000533349
0.000295994
-0.000610346
0.000327197
-0.00069193
0.000357326
-0.000778501
0.000387161
-0.000869447
0.000415408
-0.000964051
0.000442084
-0.00106206
0.000466848
-0.00116376
0.000491
-0.00126825
0.000512376
-0.00137494
0.000531994
-0.00148401
0.00055015
-0.00159474
0.000565515
-0.00170717
0.000579516
-0.00182083
0.000591697
-0.00193542
0.000601578
-0.0020509
0.000610117
-0.00216671
0.000616252
-0.00228254
0.0006204
-0.00239823
0.000622918
-0.0025132
0.000623417
-0.00262779
0.000622878
-0.00274154
0.000620661
-0.00285397
0.000616795
-0.0029653
0.000611933
-0.00307508
0.000605338
-0.00318286
0.000597539
-0.00328901
0.000589179
-0.00339329
0.000579439
-0.00349515
0.000568535
-0.00359491
0.000557237
-0.00369217
0.000544707
-0.00378689
0.000531647
-0.00387903
0.000517957
-0.0039686
0.000503358
-0.0040546
0.000487457
-0.00413831
0.000472068
-0.00421888
0.000455046
-0.00429669
0.000438719
-0.00437052
0.000421449
-0.00444045
0.000402064
-0.00450798
0.000384848
-0.00457321
0.000367028
-0.0046327
0.000346642
-0.00468995
0.000328906
-0.00474494
0.00031004
-0.00479416
0.000290234
-0.00484129
0.00027112
-0.00488441
0.000252309
-0.0049233
0.000231855
-0.0049617
0.000213562
-0.00499399
0.00019202
-0.00502232
0.000173103
-0.00504668
0.000152426
0.000133507
-0.00506882
-0.000158936
0.0001362
0.000119075
-0.000204972
0.000165658
-0.000256923
0.000197474
-0.000315601
0.000232746
-0.000379982
0.0002678
-0.000450141
0.000304251
-0.000526224
0.000341092
-0.000607327
0.000377099
-0.000694537
0.000414409
-0.00078647
0.000449262
-0.000884059
0.000484753
-0.000985388
0.000516738
-0.00109147
0.00054817
-0.00119998
0.000575354
-0.00131201
0.00060304
-0.00142768
0.000628043
-0.00154536
0.00064967
-0.00166518
0.000669976
-0.00178714
0.000687479
-0.0019095
0.000701876
-0.00203394
0.000716136
-0.00215864
0.000726276
-0.00228483
0.000736309
-0.00241117
0.000742589
-0.00253696
0.000746187
-0.00266283
0.000748791
-0.00278724
0.000747822
-0.00291122
0.00074686
-0.00303443
0.00074387
-0.00315556
0.000737925
-0.00327601
0.000732388
-0.00339465
0.000723975
-0.00351062
0.000713509
-0.00362501
0.00070356
-0.00373757
0.000692
-0.00384677
0.000677731
-0.00395395
0.000664418
-0.00405845
0.000649205
-0.00415954
0.000632738
-0.00425836
0.000616775
-0.00435471
0.00059971
-0.00444819
0.000580937
-0.00453603
0.000559906
-0.00462314
0.000542149
-0.00470523
0.00052081
-0.00478293
0.000499153
-0.00486032
0.000479446
-0.00493141
0.000455935
-0.00499893
0.000434546
-0.0050636
0.000411311
-0.00512317
0.000388476
-0.00518009
0.000366962
-0.00523305
0.000343196
-0.00528428
0.000322342
-0.00532991
0.000297941
-0.00537282
0.00027476
-0.00540974
0.000250483
-0.00544197
0.000224251
-0.0054725
0.000203628
-0.00549952
0.000179439
0.000156106
-0.00552212
-0.000179012
0.000133458
0.000181753
-0.000233671
0.000220316
-0.000292944
0.000256747
-0.00036211
0.000301916
-0.000435766
0.00034146
-0.000516333
0.000384822
-0.000603072
0.000427837
-0.00069328
0.000467313
-0.000793199
0.000514334
-0.000894443
0.000550511
-0.00100547
0.000595789
-0.00111671
0.000627976
-0.00123762
0.000669082
-0.0013547
0.000692438
-0.00147939
0.000727743
-0.00160772
0.000756371
-0.00173508
0.00077703
-0.00186831
0.000803204
-0.00200156
0.000820735
-0.00213416
0.000834477
-0.00227333
0.000855303
-0.00240666
0.000859617
-0.00254536
0.000875
-0.00268327
0.000880503
-0.00281925
0.00088217
-0.00295775
0.00088729
-0.00309063
0.000880705
-0.00322521
0.000881436
-0.00335957
0.000878238
-0.00348867
0.000867017
-0.00361963
0.000863348
-0.00374732
0.000851667
-0.00387153
0.000837715
-0.00399461
0.000826643
-0.0041176
0.000814985
-0.00423235
0.000792483
-0.00434877
0.000780843
-0.00446065
0.00076108
-0.00456774
0.000739833
-0.00467538
0.000724413
-0.004775
0.000699329
-0.00487533
0.000681265
-0.00496967
0.000654253
-0.00506071
0.000633183
-0.00515077
0.000610875
-0.00523338
0.000581758
-0.00531479
0.000560861
-0.00538915
0.000530294
-0.0054615
0.000506891
-0.00552763
0.000477446
-0.00559373
0.000454575
-0.00565281
0.000426044
-0.00570884
0.000399223
-0.00576093
0.000374433
-0.00581065
0.000347661
-0.00585256
0.000316667
-0.00589292
0.00029084
-0.00592678
0.000258112
-0.005958
0.000234852
-0.00598576
0.000207201
-0.00600787
0.000178208
-0.00303099
1.3724e-05
-0.00304288
1.18925e-05
-0.00305308
1.02055e-05
-0.00306142
8.33331e-06
-0.0030675
6.07999e-06
-0.00307096
3.46505e-06
-0.00307269
1.72714e-06
-0.00307233
-3.63141e-07
-0.00306999
-2.34688e-06
-0.00306521
-4.77682e-06
-0.00305855
-6.6656e-06
-0.00304985
-8.70114e-06
-0.00303909
-1.07686e-05
-0.00302626
-1.28332e-05
-0.00301167
-1.45922e-05
-0.00299524
-1.64367e-05
-0.00297678
-1.84623e-05
-0.00295627
-2.05104e-05
-0.00293406
-2.22158e-05
-0.00290997
-2.40977e-05
-0.00288408
-2.58933e-05
-0.00285657
-2.75202e-05
-0.00282731
-2.92679e-05
-0.00279621
-3.11039e-05
-0.00276347
-3.27452e-05
-0.00272934
-3.41306e-05
-0.00269354
-3.58032e-05
-0.00265608
-3.74711e-05
-0.00261707
-3.90138e-05
-0.00257668
-4.03979e-05
-0.00253479
-4.18922e-05
-0.00249146
-4.33426e-05
-0.00244687
-4.45942e-05
-0.00240096
-4.59131e-05
-0.00235372
-4.72463e-05
-0.00230531
-4.84111e-05
-0.00225581
-4.95091e-05
-0.00220518
-5.06401e-05
-0.00215334
-5.18445e-05
-0.00210046
-5.28845e-05
-0.00204668
-5.3784e-05
-0.00199196
-5.47226e-05
-0.00193631
-5.56475e-05
-0.00187991
-5.64038e-05
-0.00182261
-5.73056e-05
-0.00176449
-5.81203e-05
-0.00170574
-5.87556e-05
-0.00164643
-5.93059e-05
-0.00158646
-5.99768e-05
-0.00152591
-6.05469e-05
-0.00146492
-6.09978e-05
-0.00140358
-6.13347e-05
-0.00134173
-6.18559e-05
-0.00127964
-6.20817e-05
-0.00121732
-6.23229e-05
-0.00115497
-6.23536e-05
-0.00109232
-6.26504e-05
-0.00102961
-6.27104e-05
-0.000967016
-6.25902e-05
-0.000904622
-6.23938e-05
-6.21585e-05
-0.000842463
-0.00329585
2.94051e-05
-0.00330692
2.29544e-05
-0.00331599
1.9278e-05
-0.00332285
1.51933e-05
-0.00332958
1.28067e-05
-0.00333211
5.99732e-06
-0.00333311
2.72148e-06
-0.00333031
-3.1575e-06
-0.00332688
-5.78219e-06
-0.00331986
-1.18005e-05
-0.003311
-1.55251e-05
-0.00329984
-1.98605e-05
-0.00328662
-2.39932e-05
-0.00327153
-2.79248e-05
-0.00325397
-3.21484e-05
-0.00323437
-3.604e-05
-0.00321263
-4.02002e-05
-0.00318894
-4.42034e-05
-0.00316302
-4.81418e-05
-0.00313515
-5.1963e-05
-0.00310552
-5.55324e-05
-0.00307367
-5.93681e-05
-0.0030399
-6.30393e-05
-0.00300437
-6.66318e-05
-0.002967
-7.01149e-05
-0.00292778
-7.33572e-05
-0.00288675
-7.68351e-05
-0.00284422
-8.00055e-05
-0.0028
-8.32274e-05
-0.00275396
-8.64472e-05
-0.00270647
-8.93792e-05
-0.00265759
-9.22255e-05
-0.00260702
-9.5159e-05
-0.00255502
-9.79153e-05
-0.00250179
-0.000100483
-0.00244705
-0.000103147
-0.00239103
-0.000105539
-0.00233374
-0.000107931
-0.00227534
-0.000110245
-0.00221576
-0.000112464
-0.00215488
-0.000114665
-0.00209308
-0.000116518
-0.00203032
-0.000118412
-0.00196648
-0.000120246
-0.00190181
-0.000121981
-0.00183625
-0.000123679
-0.00176993
-0.000125078
-0.00170268
-0.000126557
-0.00163484
-0.000127809
-0.00156641
-0.000128978
-0.00149741
-0.000130005
-0.00142804
-0.0001307
-0.0013577
-0.0001322
-0.0012876
-0.00013218
-0.00121656
-0.000133359
-0.00114554
-0.000133375
-0.00107371
-0.000134486
-0.00100248
-0.000133933
-0.000931208
-0.000133867
-0.000859943
-0.00013366
-0.00013386
-0.000788242
-0.00358666
4.37824e-05
-0.00360119
3.74898e-05
-0.00361126
2.93458e-05
-0.00361906
2.29867e-05
-0.00362257
1.63213e-05
-0.00362616
9.58675e-06
-0.00362542
1.9792e-06
-0.0036226
-5.97859e-06
-0.0036175
-1.08764e-05
-0.00361069
-1.86098e-05
-0.00360141
-2.48057e-05
-0.00358839
-3.28847e-05
-0.00357366
-3.87252e-05
-0.00355629
-4.52887e-05
-0.00353661
-5.18279e-05
-0.00351452
-5.81327e-05
-0.00349025
-6.44678e-05
-0.00346377
-7.06835e-05
-0.00343502
-7.68888e-05
-0.00340431
-8.26795e-05
-0.00337108
-8.87562e-05
-0.00333594
-9.45077e-05
-0.00329876
-0.000100223
-0.00325957
-0.000105823
-0.00321831
-0.000111367
-0.00317504
-0.000116629
-0.00312994
-0.000121932
-0.00308294
-0.000127012
-0.00303397
-0.000132198
-0.00298355
-0.000136859
-0.00293125
-0.000141679
-0.00287715
-0.00014633
-0.00282174
-0.000150568
-0.00276462
-0.000155031
-0.00270595
-0.00015916
-0.00264585
-0.000163242
-0.00258429
-0.000167099
-0.0025213
-0.000170921
-0.00245702
-0.000174526
-0.00239149
-0.00017799
-0.00232488
-0.000181272
-0.00225687
-0.000184533
-0.0021879
-0.00018738
-0.00211785
-0.000190299
-0.00204683
-0.000192996
-0.00197493
-0.000195582
-0.00190209
-0.000197918
-0.00182844
-0.000200204
-0.00175396
-0.000202287
-0.00167913
-0.000203817
-0.001603
-0.000206133
-0.00152628
-0.000207417
-0.00144943
-0.000209053
-0.00137221
-0.000209402
-0.0012947
-0.000210864
-0.00121628
-0.000211799
-0.00113845
-0.000212319
-0.00105991
-0.000212467
-0.000981408
-0.000212373
-0.000902485
-0.000212584
-0.000212134
-0.000824211
-0.00391721
6.11481e-05
-0.0039305
5.0777e-05
-0.00394151
4.0359e-05
-0.00394827
2.97469e-05
-0.00395285
2.08979e-05
-0.00395505
1.17884e-05
-0.0039528
-2.71301e-07
-0.00395064
-8.13961e-06
-0.00394443
-1.70894e-05
-0.0039362
-2.684e-05
-0.00392371
-3.7296e-05
-0.00391002
-4.65779e-05
-0.00389381
-5.49339e-05
-0.00387418
-6.49229e-05
-0.00385234
-7.36625e-05
-0.00382796
-8.25179e-05
-0.00380107
-9.13613e-05
-0.00377163
-0.000100115
-0.00373997
-0.000108555
-0.00370562
-0.000117031
-0.00366932
-0.000125058
-0.00363049
-0.000133337
-0.00358956
-0.000141147
-0.0035464
-0.000148978
-0.00350122
-0.000156554
-0.00345364
-0.000164203
-0.00340403
-0.000171539
-0.00335248
-0.000178566
-0.00329911
-0.000185563
-0.00324349
-0.000192479
-0.00318618
-0.000198995
-0.0031272
-0.000205304
-0.00306619
-0.000211582
-0.00300365
-0.000217576
-0.00293949
-0.000223312
-0.00287377
-0.000228967
-0.00280629
-0.000234578
-0.00273742
-0.000239788
-0.00266712
-0.000244828
-0.00259555
-0.00024956
-0.00252249
-0.000254336
-0.00244844
-0.000258583
-0.00237299
-0.000262831
-0.00229652
-0.000266762
-0.00221893
-0.000270584
-0.0021403
-0.000274218
-0.0020607
-0.000277519
-0.00198037
-0.000280529
-0.00189887
-0.000283795
-0.00181664
-0.000286048
-0.00173435
-0.00028842
-0.00165075
-0.00029102
-0.00156678
-0.000293017
-0.00148175
-0.000294433
-0.00139721
-0.000295411
-0.00131184
-0.000297161
-0.00122639
-0.000297779
-0.00114096
-0.00029789
-0.00105503
-0.000298308
-0.000969282
-0.000298332
-0.000298171
-0.000883245
-0.0042763
7.74611e-05
-0.00428844
6.29229e-05
-0.00430035
5.22611e-05
-0.00430807
3.74675e-05
-0.0043116
2.44268e-05
-0.00431284
1.30313e-05
-0.00431415
1.04124e-06
-0.004309
-1.32962e-05
-0.00430171
-2.43785e-05
-0.00429051
-3.80406e-05
-0.00427723
-5.058e-05
-0.00426175
-6.20518e-05
-0.00424225
-7.44325e-05
-0.00422128
-8.58975e-05
-0.00419844
-9.65019e-05
-0.00417058
-0.000110376
-0.00414079
-0.000121151
-0.00410832
-0.000132586
-0.00407315
-0.000143724
-0.00403562
-0.000154564
-0.00399542
-0.000165251
-0.00395312
-0.000175645
-0.0039082
-0.000186059
-0.00386085
-0.000196331
-0.00381092
-0.000206487
-0.003759
-0.000216123
-0.00370477
-0.00022576
-0.00364823
-0.000235113
-0.00358959
-0.000244201
-0.00352901
-0.00025306
-0.00346628
-0.000261724
-0.00340151
-0.000270063
-0.003335
-0.000278096
-0.00326671
-0.000285864
-0.00319653
-0.000293497
-0.00312452
-0.00030097
-0.00305111
-0.000307987
-0.00297585
-0.000315046
-0.00289904
-0.000321644
-0.00282062
-0.000327974
-0.00274104
-0.000333921
-0.00266001
-0.000339606
-0.00257785
-0.000344999
-0.00249441
-0.000350199
-0.00240983
-0.000355166
-0.0023245
-0.00035954
-0.00223697
-0.000365056
-0.00214896
-0.000368538
-0.00206072
-0.000372029
-0.00197108
-0.000375693
-0.00188095
-0.000378549
-0.00179047
-0.000381504
-0.00169888
-0.000384603
-0.00160699
-0.000386324
-0.00151346
-0.00038894
-0.00142054
-0.000390081
-0.00132758
-0.000390741
-0.00123414
-0.000391337
-0.00114027
-0.000392172
-0.0010472
-0.000391412
-0.000391541
-0.000953827
-0.00466537
9.4675e-05
-0.0046804
7.79489e-05
-0.00468927
6.11356e-05
-0.00469794
4.61318e-05
-0.00470441
3.08968e-05
-0.00470474
1.33647e-05
-0.00470103
-2.67583e-06
-0.00469701
-1.73149e-05
-0.00468703
-3.43604e-05
-0.00467685
-4.82176e-05
-0.00466263
-6.47978e-05
-0.00464441
-8.0279e-05
-0.00462406
-9.47794e-05
-0.00459977
-0.000110185
-0.00457147
-0.000124809
-0.00454124
-0.000140599
-0.00450842
-0.000153977
-0.00447309
-0.000167913
-0.00443441
-0.000182398
-0.00439296
-0.000196013
-0.00434902
-0.000209191
-0.00430215
-0.000222514
-0.00425276
-0.000235448
-0.00420086
-0.000248235
-0.00414648
-0.000260869
-0.00408937
-0.000273227
-0.00403005
-0.000285081
-0.00396823
-0.00029693
-0.0039041
-0.000308333
-0.0038379
-0.000319262
-0.00376933
-0.000330291
-0.0036986
-0.000340788
-0.00362595
-0.000350749
-0.00355144
-0.000360372
-0.00347479
-0.000370151
-0.00339644
-0.000379311
-0.00331604
-0.000388385
-0.0032339
-0.00039719
-0.00315018
-0.000405367
-0.00306492
-0.000413231
-0.0029779
-0.000420937
-0.00288963
-0.000427872
-0.00279998
-0.00043465
-0.00270878
-0.000441401
-0.00261665
-0.000447295
-0.00252337
-0.000452819
-0.00242959
-0.000458841
-0.00233411
-0.00046402
-0.00223734
-0.000468792
-0.00214008
-0.000472961
-0.00204158
-0.000477045
-0.00194204
-0.000481045
-0.00184287
-0.000483778
-0.00174209
-0.0004871
-0.00164166
-0.000489373
-0.00154058
-0.000491158
-0.0014382
-0.000493122
-0.00133618
-0.000493361
-0.00123482
-0.000493531
-0.00113283
-0.000493407
-0.000493271
-0.0010311
-0.00508683
0.000112682
-0.00510263
9.37503e-05
-0.00511434
7.28469e-05
-0.00512192
5.3711e-05
-0.00512345
3.24221e-05
-0.00512485
1.47646e-05
-0.0051221
-5.41916e-06
-0.00511524
-2.41767e-05
-0.00510629
-4.33123e-05
-0.00509154
-6.29661e-05
-0.00507475
-8.15913e-05
-0.00505574
-9.92902e-05
-0.00503084
-0.00011968
-0.0050039
-0.000137116
-0.00497499
-0.000153728
-0.00494208
-0.000173504
-0.00490513
-0.000190928
-0.00486533
-0.000207712
-0.00482234
-0.000225391
-0.00477744
-0.000240906
-0.00472884
-0.00025779
-0.00467771
-0.000273649
-0.00462366
-0.000289491
-0.00456669
-0.000305209
-0.00450691
-0.000320649
-0.00444446
-0.000335673
-0.00437929
-0.000350247
-0.00431184
-0.000364382
-0.00424201
-0.000378165
-0.00416958
-0.000391686
-0.00409469
-0.000405178
-0.00401765
-0.000417828
-0.00393822
-0.000430182
-0.00385695
-0.000441638
-0.00377366
-0.000453439
-0.00368822
-0.000464746
-0.00360077
-0.00047584
-0.00351123
-0.000486725
-0.00341987
-0.000496731
-0.00332671
-0.000506387
-0.00323202
-0.000515628
-0.00313534
-0.000524549
-0.00303786
-0.000532137
-0.00293906
-0.000540198
-0.00283924
-0.000547113
-0.00273742
-0.000554636
-0.00263423
-0.000562035
-0.00253038
-0.000567869
-0.00242628
-0.000572893
-0.00231995
-0.000579293
-0.00221317
-0.000583828
-0.0021062
-0.000588015
-0.00199736
-0.000592612
-0.00188843
-0.000596036
-0.00177838
-0.000599425
-0.00166786
-0.00060168
-0.00155782
-0.000603156
-0.00144712
-0.00060407
-0.00133599
-0.000604655
-0.001225
-0.000604397
-0.000604025
-0.00111425
-0.00554078
0.000131347
-0.0055551
0.00010807
-0.00556562
8.33612e-05
-0.00557379
6.18773e-05
-0.00557816
3.67956e-05
-0.00557671
1.33149e-05
-0.00557324
-8.88504e-06
-0.0055634
-3.40201e-05
-0.00555153
-5.51878e-05
-0.00553624
-7.8248e-05
-0.00551885
-9.89872e-05
-0.00549551
-0.000122625
-0.0054698
-0.000145389
-0.00544038
-0.000166537
-0.0054056
-0.000188505
-0.00537017
-0.00020894
-0.00533081
-0.000230279
-0.00528546
-0.000253067
-0.00523962
-0.000271224
-0.00518883
-0.000291695
-0.00513481
-0.000311812
-0.00507879
-0.000329667
-0.00501996
-0.000348317
-0.00495742
-0.000367754
-0.00489193
-0.00038613
-0.00482346
-0.000404144
-0.00475223
-0.000421479
-0.00467835
-0.000438264
-0.0046019
-0.000454609
-0.00452294
-0.000470645
-0.00444109
-0.000487027
-0.00435721
-0.000501707
-0.00427066
-0.000516727
-0.00418271
-0.000529587
-0.00409207
-0.000544081
-0.0039992
-0.000557612
-0.0039042
-0.000570836
-0.00380665
-0.000584283
-0.00370682
-0.000596553
-0.00360551
-0.000607696
-0.00350259
-0.000618547
-0.00339784
-0.0006293
-0.00329089
-0.000639088
-0.00318409
-0.000646998
-0.00307506
-0.000656141
-0.00296384
-0.000665854
-0.00285333
-0.00067255
-0.00274002
-0.00068118
-0.00262644
-0.000686467
-0.00251194
-0.000693793
-0.00239538
-0.000700395
-0.00227901
-0.000704381
-0.00216132
-0.000710299
-0.00204375
-0.000713615
-0.00192376
-0.00071941
-0.00180439
-0.000721056
-0.00168339
-0.000724149
-0.0015631
-0.00072436
-0.00144258
-0.000725175
-0.00132259
-0.000724393
-0.000724714
-0.0012019
-0.00602719
0.000150667
-0.00604126
0.000122139
-0.00605226
9.43647e-05
-0.00605649
6.61025e-05
-0.00605948
3.97841e-05
-0.00605867
1.25114e-05
-0.00605342
-1.41423e-05
-0.00604336
-4.40784e-05
-0.00602812
-7.04236e-05
-0.0060122
-9.41651e-05
-0.00599026
-0.000120932
-0.00596469
-0.000148194
-0.00593676
-0.000173314
-0.00590197
-0.000201326
-0.00586791
-0.000222568
-0.00582659
-0.000250262
-0.0057809
-0.000275967
-0.00573384
-0.000300123
-0.00568017
-0.000324891
-0.0056255
-0.000346366
-0.0055682
-0.000369109
-0.00550513
-0.000392738
-0.00544204
-0.000411412
-0.00537319
-0.000436602
-0.00530074
-0.000458572
-0.0052267
-0.000478187
-0.00514783
-0.000500344
-0.00506796
-0.000518139
-0.00498258
-0.000539982
-0.00489856
-0.00055467
-0.00480717
-0.000578415
-0.00471733
-0.000591543
-0.00462138
-0.000612674
-0.00452765
-0.00062331
-0.00442955
-0.000642182
-0.00432838
-0.000658784
-0.00422649
-0.000672726
-0.00411959
-0.000691184
-0.00401057
-0.000705573
-0.00390207
-0.00071619
-0.0037882
-0.000732418
-0.00367291
-0.000744591
-0.00355889
-0.000753114
-0.00344001
-0.000765875
-0.00332515
-0.000770998
-0.00320251
-0.000788492
-0.00308359
-0.000791474
-0.00295872
-0.000806051
-0.00283798
-0.000807199
-0.00271394
-0.000817834
-0.00258701
-0.000827329
-0.00246318
-0.000828212
-0.00233402
-0.000839467
-0.00220816
-0.000839468
-0.00207539
-0.000852189
-0.00194761
-0.000848833
-0.00181348
-0.000858286
-0.00168705
-0.000850791
-0.00155351
-0.000858708
-0.00142578
-0.000852128
-0.00129149
-0.000859006
-0.000780105
-6.23578e-05
-0.000718101
-6.20032e-05
-0.000656471
-6.16293e-05
-0.000595252
-6.12176e-05
-0.000534506
-6.07457e-05
-0.000474277
-6.02283e-05
-0.000414822
-5.94536e-05
-0.000356191
-5.86299e-05
-0.000298593
-5.75979e-05
-0.00024216
-5.64316e-05
-0.00018676
-5.53995e-05
-0.000130565
-5.61948e-05
-7.26239e-05
-5.79401e-05
-1.35083e-05
-5.91152e-05
4.4572e-05
-5.80799e-05
0.000100041
-5.54688e-05
0.000153216
-5.31752e-05
0.000204619
-5.14022e-05
0.000254439
-4.98199e-05
0.000302691
-4.82516e-05
0.000349393
-4.67018e-05
0.000394489
-4.50959e-05
0.000437914
-4.34256e-05
0.00047954
-4.16255e-05
0.000519304
-3.97648e-05
0.000557145
-3.7841e-05
0.000592944
-3.57988e-05
0.000626569
-3.36246e-05
0.000657904
-3.13354e-05
0.00068686
-2.89552e-05
0.000713237
-2.63772e-05
0.000736879
-2.36413e-05
0.000757662
-2.07831e-05
0.000775343
-1.76805e-05
0.000789705
-1.43615e-05
0.000800556
-1.085e-05
0.000807642
-7.08468e-06
0.000810659
-3.01566e-06
0.000810267
3.93368e-07
0.000806334
3.93492e-06
0.000798984
7.35291e-06
0.000787533
1.14531e-05
0.000771471
1.60649e-05
0.000750369
2.11039e-05
0.000723592
2.67797e-05
0.00069051
3.3085e-05
0.000650499
4.00141e-05
0.000602815
4.7687e-05
0.000546594
5.62229e-05
0.000481064
6.55329e-05
0.00040549
7.55764e-05
0.000319297
8.61955e-05
0.000221902
9.73975e-05
0.000112481
0.000109424
-1.50578e-05
0.00012754
-0.000155364
0.000140306
-0.000285178
0.000129814
-0.000392826
0.000107647
-0.000474381
8.15535e-05
-0.000535313
6.0931e-05
5.10421e-05
-0.000586357
-0.00071716
-0.00013344
-0.00064577
-0.000133394
-0.000574597
-0.000132803
-0.000503681
-0.000132134
-0.000433383
-0.000131044
-0.000363206
-0.000130406
-0.000293568
-0.000129092
-0.000224326
-0.000127872
-0.000155812
-0.000126112
-8.78593e-05
-0.000124385
-1.95491e-05
-0.00012371
4.9186e-05
-0.00012493
0.000116881
-0.000125635
0.000183293
-0.000125528
0.000248964
-0.000123752
0.000314011
-0.000120516
0.000377985
-0.00011715
0.000440644
-0.000114062
0.0005019
-0.000111076
0.000561769
-0.000108122
0.000620258
-0.000105192
0.000677228
-0.000102068
0.000732654
-9.88522e-05
0.000786527
-9.55005e-05
0.000838747
-9.19864e-05
0.000889252
-8.83487e-05
0.000937913
-8.44613e-05
0.000984746
-8.04603e-05
0.00102961
-7.61966e-05
0.00107231
-7.16668e-05
0.00111289
-6.69601e-05
0.00115124
-6.19866e-05