/*--------------------------------*- C++ -*----------------------------------*\
| =========                 |                                                 |
| \\      /  F ield         | OpenFOAM: The Open Source CFD Toolbox           |
|  \\    /   O peration     | Version:  2.3.1                                 |
|   \\  /    A nd           | Web:      www.OpenFOAM.org                      |
|    \\/     M anipulation  |                                                 |
\*---------------------------------------------------------------------------*/
FoamFile
{
    version     2.0;
    format      ascii;
    class       volVectorField;
    location    "0.91";
    object      U;
}
// * * * * * * * * * * * * * * * * * * * * * * * * * * * * * * * * * * * * * //

dimensions      [0 1 -1 0 0 0 0];

internalField   nonuniform List<vector> 
9648
(
(0.164834 -4.76172 9.43889e-25)
(0.281928 -4.73575 -1.10355e-22)
(0.399637 -4.70133 0)
(0.519488 -4.67191 0)
(0.640283 -4.64723 1.03947e-20)
(0.762201 -4.62936 1.61668e-20)
(0.887736 -4.62142 -2.85315e-20)
(1.01943 -4.62619 -1.31008e-20)
(1.15859 -4.64472 1.3068e-20)
(1.30553 -4.6789 3.94164e-20)
(1.46234 -4.7303 -3.925e-20)
(1.63089 -4.79984 -5.62955e-20)
(1.81316 -4.88805 2.99079e-19)
(2.01116 -4.99477 7.71467e-20)
(2.22659 -5.11914 -7.23565e-19)
(2.46066 -5.25987 0)
(2.71454 -5.4152 0)
(2.98905 -5.58306 1.3103e-19)
(3.28488 -5.76085 4.22065e-19)
(3.6021 -5.94577 -1.2138e-18)
(3.94074 -6.13523 -2.105e-20)
(4.30066 -6.32615 3.34224e-19)
(4.68113 -6.51567 3.94758e-19)
(5.08144 -6.70101 -1.79323e-18)
(5.50069 -6.87949 0)
(5.93784 -7.04851 1.07292e-18)
(6.39159 -7.20557 -1.12489e-18)
(6.86057 -7.34863 0)
(7.34335 -7.47551 0)
(7.83831 -7.58456 -6.82396e-19)
(8.34396 -7.67408 -1.50933e-18)
(8.85849 -7.74263 2.36982e-18)
(9.38031 -7.78908 0)
(9.90764 -7.81223 0)
(10.4387 -7.81138 1.81513e-18)
(10.9718 -7.7857 -1.95308e-18)
(11.505 -7.73475 0)
(12.0369 -7.65826 4.1929e-18)
(12.5656 -7.55583 1.13084e-18)
(13.0893 -7.42735 -3.34793e-18)
(13.6062 -7.27284 6.29891e-20)
(14.1148 -7.09279 2.38193e-18)
(14.6136 -6.88707 -3.16393e-18)
(15.1005 -6.65623 6.36427e-19)
(15.5746 -6.40103 0)
(16.0344 -6.1216 0)
(16.4783 -5.81865 4.80067e-18)
(16.905 -5.49299 7.0257e-19)
(17.3139 -5.14554 -2.17105e-18)
(17.7043 -4.77631 -7.30819e-19)
(18.0742 -4.38588 -7.60129e-19)
(18.4217 -3.97662 7.55406e-19)
(18.7467 -3.55027 3.90237e-19)
(19.0482 -3.10759 -3.88124e-19)
(19.3251 -2.6503 1.98114e-18)
(19.5769 -2.17947 -1.9508e-18)
(19.8028 -1.69656 -2.16503e-20)
(20.0024 -1.20279 0)
(20.1751 -0.699599 -3.96262e-19)
(20.3205 -0.188671 -5.12448e-20)
(20.4386 0.328791 -4.85901e-20)
(-0.0593501 -2.48554 1.04802e-22)
(0.00485054 -2.48271 0)
(0.0721954 -2.49332 0)
(0.145798 -2.51703 6.08295e-21)
(0.224206 -2.56074 -6.30009e-21)
(0.311731 -2.62834 -3.80703e-20)
(0.410303 -2.71879 0)
(0.521583 -2.82952 0)
(0.647237 -2.96085 -4.47791e-20)
(0.787743 -3.11277 0)
(0.944381 -3.284 -1.06724e-19)
(1.11798 -3.47291 8.39468e-20)
(1.30947 -3.67811 -4.53352e-20)
(1.51981 -3.89786 0)
(1.74978 -4.13016 2.81348e-19)
(1.99969 -4.37291 1.66368e-19)
(2.26989 -4.62383 -1.6367e-19)
(2.5605 -4.88068 2.12283e-19)
(2.87173 -5.14094 -6.46453e-19)
(3.20334 -5.40216 5.1415e-19)
(3.55501 -5.662 -5.68959e-19)
(3.92649 -5.91793 -3.06442e-19)
(4.31698 -6.16763 -3.14254e-19)
(4.7257 -6.40877 1.07947e-18)
(5.15176 -6.63917 3.73726e-19)
(5.59424 -6.85666 4.44012e-19)
(6.05198 -7.05925 -3.93727e-19)
(6.52372 -7.24518 0)
(7.00823 -7.41269 0)
(7.50399 -7.56041 0)
(8.00966 -7.68688 0)
(8.52362 -7.79091 0)
(9.04437 -7.8715 0)
(9.57039 -7.92766 0)
(10.0999 -7.95881 -8.13165e-19)
(10.6314 -7.96418 7.38599e-19)
(11.1631 -7.94348 8.14545e-19)
(11.6936 -7.89642 -4.13778e-18)
(12.2212 -7.82266 -8.78205e-19)
(12.7441 -7.72217 2.70074e-18)
(13.2607 -7.59504 1.89507e-18)
(13.7695 -7.44171 -1.9558e-18)
(14.2688 -7.26206 9.34118e-19)
(14.7571 -7.05677 9.85757e-19)
(15.2328 -6.82649 -1.04781e-18)
(15.6948 -6.57145 1.03852e-18)
(16.1413 -6.2925 -2.22606e-18)
(16.5712 -5.99047 0)
(16.983 -5.66631 -5.68689e-19)
(17.3761 -5.32018 1.14279e-18)
(17.7497 -4.95272 -5.74259e-19)
(18.1026 -4.56581 0)
(18.4336 -4.16084 1.18035e-18)
(18.7418 -3.73861 0)
(19.0263 -3.30059 0)
(19.2864 -2.84795 2.79794e-18)
(19.5212 -2.382 -1.26104e-18)
(19.7302 -1.90435 -3.06781e-19)
(19.913 -1.41587 3.2381e-19)
(20.0689 -0.91829 0)
(20.1977 -0.412848 8.14281e-20)
(0.0475433 -1.43284 -2.49641e-22)
(0.101496 -1.47194 0)
(0.162618 -1.53027 -5.35295e-22)
(0.232504 -1.61223 -3.04725e-22)
(0.310558 -1.71478 0)
(0.400115 -1.83618 3.2721e-20)
(0.502281 -1.97842 2.18596e-20)
(0.618284 -2.14041 0)
(0.749735 -2.3216 2.2599e-21)
(0.898377 -2.52045 4.57022e-20)
(1.0652 -2.73575 9.08427e-20)
(1.25085 -2.96551 -3.14557e-20)
(1.4559 -3.2079 0)
(1.68074 -3.46077 0)
(1.92565 -3.72202 2.13507e-19)
(2.19058 -3.98951 -1.35547e-19)
(2.47552 -4.26099 -1.45173e-19)
(2.7803 -4.53428 0)
(3.10469 -4.80713 5.58306e-19)
(3.44836 -5.07733 -5.79343e-19)
(3.81083 -5.34283 -4.32816e-19)
(4.19157 -5.60151 -4.76395e-19)
(4.58982 -5.85134 0)
(5.00468 -6.09035 -8.53354e-19)
(5.43523 -6.31662 -2.99975e-19)
(5.88048 -6.52831 3.56321e-19)
(6.33935 -6.7237 3.93488e-19)
(6.81064 -6.90127 0)
(7.2931 -7.05958 0)
(7.78534 -7.19739 0)
(8.28597 -7.3135 0)
(8.79351 -7.40691 0)
(9.30652 -7.47671 0)
(9.82347 -7.52216 0)
(10.3428 -7.54273 -1.78042e-18)
(10.8629 -7.53787 5.91454e-19)
(11.3823 -7.50732 -6.52408e-19)
(11.8994 -7.45085 3.28349e-18)
(12.4127 -7.3683 0)
(12.9206 -7.25973 1.39691e-18)
(13.4214 -7.12533 1.44475e-18)
(13.9137 -6.9654 7.15808e-19)
(14.396 -6.78009 -8.2002e-19)
(14.8667 -6.56993 -1.57942e-18)
(15.3247 -6.33548 2.4609e-18)
(15.7684 -6.07724 -8.32455e-19)
(16.1966 -5.79601 -1.69816e-18)
(16.6081 -5.49257 0)
(17.0016 -5.16794 0)
(17.3761 -4.8231 -4.63575e-19)
(17.7307 -4.45916 -4.53287e-19)
(18.0643 -4.07702 -9.27141e-19)
(18.3764 -3.67776 -9.70508e-19)
(18.6658 -3.26281 0)
(18.9319 -2.83297 -9.59939e-19)
(19.1738 -2.38995 -1.00042e-18)
(19.3912 -1.93451 0)
(19.5832 -1.46882 1.62334e-20)
(19.7492 -0.993198 0)
(19.8891 -0.509406 0)
(20.0027 -0.0184581 -6.19821e-20)
(0.0142964 -0.930989 5.38008e-22)
(0.0722579 -1.00788 -6.78308e-22)
(0.143077 -1.10487 -1.46906e-22)
(0.226369 -1.22129 -2.05229e-21)
(0.321864 -1.35596 0)
(0.429165 -1.50857 -1.36719e-20)
(0.549512 -1.67928 -1.88663e-20)
(0.684117 -1.86752 0)
(0.834402 -2.07241 3.06421e-21)
(1.00131 -2.29272 -3.90201e-20)
(1.18577 -2.52695 8.73567e-20)
(1.38819 -2.77335 1.05197e-19)
(1.60899 -3.0299 0)
(1.8484 -3.29454 -8.23098e-20)
(2.10669 -3.56522 -1.74406e-19)
(2.38363 -3.83992 -9.28075e-20)
(2.67912 -4.11653 3.56632e-19)
(2.99294 -4.39297 -2.57466e-19)
(3.32473 -4.66718 2.88384e-19)
(3.67419 -4.93714 4.90753e-19)
(4.0409 -5.20105 7.0986e-19)
(4.42416 -5.45706 4.001e-19)
(4.82335 -5.70333 1.92455e-19)
(5.23751 -5.93817 6.98901e-19)
(5.6658 -6.15976 2.29517e-19)
(6.10726 -6.36648 2.61019e-19)
(6.56089 -6.55679 3.07832e-19)
(7.02567 -6.72928 -9.2127e-19)
(7.50038 -6.88273 6.61226e-19)
(7.98371 -7.01597 7.46932e-19)
(8.47444 -7.12794 -1.52688e-18)
(8.97113 -7.21774 7.79601e-19)
(9.47242 -7.28451 -8.35089e-19)
(9.97701 -7.32758 4.16239e-19)
(10.4833 -7.3465 4.56196e-19)
(10.99 -7.34078 5.0621e-19)
(11.4955 -7.31012 -4.99827e-19)
(11.9984 -7.2544 -5.44596e-19)
(12.4973 -7.17348 -1.63246e-18)
(12.9906 -7.06744 -1.17767e-18)
(13.4769 -6.93652 -2.38757e-18)
(13.9546 -6.78092 -3.093e-18)
(14.4224 -6.60093 1.26811e-18)
(14.8789 -6.39695 2.86293e-20)
(15.3228 -6.16951 -7.10109e-19)
(15.7528 -5.91917 -6.96634e-19)
(16.1676 -5.6466 4.21189e-18)
(16.5661 -5.35257 -7.05995e-19)
(16.9473 -5.03789 0)
(17.3102 -4.70345 0)
(17.6537 -4.3503 -7.09188e-19)
(17.9769 -3.97962 3.16347e-20)
(18.2792 -3.5924 7.60974e-19)
(18.5596 -3.18979 0)
(18.8174 -2.77306 8.10461e-19)
(19.0518 -2.34352 0)
(19.2622 -1.90235 0)
(19.4482 -1.45049 6.17716e-19)
(19.6091 -0.989494 1.96479e-19)
(19.7448 -0.520817 -2.00227e-19)
(19.8549 -0.0459325 1.02462e-19)
(0.101712 -0.683536 4.05856e-23)
(0.162369 -0.783555 5.93767e-22)
(0.237502 -0.900656 -7.10453e-22)
(0.327642 -1.03534 1.15303e-21)
(0.432188 -1.18747 -3.2114e-21)
(0.551317 -1.35667 5.5479e-21)
(0.685352 -1.54255 2.34171e-21)
(0.834856 -1.74422 -1.3984e-20)
(1.00084 -1.96074 4.07055e-20)
(1.18353 -2.1908 -5.86229e-20)
(1.38358 -2.43285 6.57088e-20)
(1.60084 -2.68514 -8.13609e-20)
(1.83565 -2.94562 -4.68013e-20)
(2.08789 -3.21229 0)
(2.35791 -3.48312 8.51605e-20)
(2.64518 -3.75639 8.17055e-20)
(2.94953 -4.03006 0)
(3.27075 -4.30213 2.01709e-19)
(3.6083 -4.57075 0)
(3.96202 -4.83395 -2.66662e-19)
(4.33154 -5.0902 2.90854e-19)
(4.71605 -5.3379 1.01068e-20)
(5.11502 -5.57533 -1.69208e-20)
(5.52739 -5.80107 2.87855e-20)
(5.9524 -6.01333 -8.16066e-19)
(6.38919 -6.21063 -4.68234e-19)
(6.83673 -6.39157 9.63761e-19)
(7.29425 -6.55481 1.04543e-18)
(7.76051 -6.69938 -5.65829e-19)
(8.23432 -6.82414 0)
(8.71457 -6.92812 0)
(9.19977 -7.01056 0)
(9.68879 -7.07054 7.15905e-19)
(10.1804 -7.1075 -2.95666e-18)
(10.6731 -7.12111 1.54719e-18)
(11.1656 -7.11087 -7.86814e-19)
(11.6565 -7.07645 -1.69725e-18)
(12.1445 -7.01788 1.72169e-18)
(12.6281 -6.93497 3.95819e-20)
(13.1061 -6.82786 -9.72053e-19)
(13.5769 -6.69682 1.0042e-18)
(14.0392 -6.54205 1.03839e-18)
(14.4914 -6.36383 0)
(14.9325 -6.16246 -1.05455e-18)
(15.3611 -5.93851 0)
(15.7759 -5.69252 -1.68484e-18)
(16.1759 -5.42515 5.20882e-19)
(16.5599 -5.13712 0)
(16.927 -4.82911 -6.11118e-19)
(17.2761 -4.50214 -1.46288e-20)
(17.6064 -4.15703 1.30201e-18)
(17.917 -3.79497 -6.18772e-19)
(18.2072 -3.41703 -3.44139e-19)
(18.4763 -3.02431 6.30248e-19)
(18.7234 -2.61817 -4.8119e-21)
(18.9477 -2.19959 3.28705e-19)
(19.1485 -1.76987 1.58802e-19)
(19.3255 -1.32995 3.35186e-19)
(19.4784 -0.881033 -8.42118e-19)
(19.6068 -0.424625 3.38262e-19)
(19.7103 0.0377226 -4.32864e-20)
(0.179276 -0.553627 -2.79073e-22)
(0.253741 -0.66972 0)
(0.343816 -0.801497 1.42184e-21)
(0.449832 -0.949606 0)
(0.570528 -1.1139 9.06777e-22)
(0.706485 -1.29379 7.86524e-21)
(0.857678 -1.48882 8.79317e-21)
(1.02444 -1.69784 2.70152e-20)
(1.20769 -1.91987 3.71668e-21)
(1.40699 -2.15372 5.7142e-21)
(1.62308 -2.39772 1.13456e-21)
(1.85513 -2.65034 -3.09819e-20)
(2.10365 -2.90948 4.52952e-20)
(2.36781 -3.17314 -1.37926e-19)
(2.64872 -3.43935 1.17033e-19)
(2.94534 -3.70695 -8.33243e-21)
(3.25729 -3.97363 -1.44714e-19)
(3.58472 -4.23766 -1.74094e-19)
(3.92663 -4.49736 0)
(4.28315 -4.75068 2.06904e-19)
(4.65419 -4.99641 8.22771e-21)
(5.03846 -5.2333 -5.35544e-19)
(5.43598 -5.4596 -2.29027e-20)
(5.84524 -5.67431 -2.9012e-19)
(6.26556 -5.8755 1.02326e-18)
(6.69629 -6.06181 3.49013e-20)
(7.13627 -6.232 -3.80398e-19)
(7.5852 -6.38466 -4.04994e-20)
(8.04173 -6.51925 0)
(8.50462 -6.63458 0)
(8.97315 -6.7297 0)
(9.4456 -6.80415 0)
(9.92092 -6.85679 0)
(10.3983 -6.8871 5.65112e-20)
(10.8763 -6.89503 -6.62563e-19)
(11.3532 -6.88007 -3.8571e-20)
(11.8283 -6.84165 2.87478e-20)
(12.3 -6.78014 6.83958e-19)
(12.7672 -6.69522 1.56321e-18)
(13.2287 -6.58702 -2.358e-18)
(13.6829 -6.45609 1.64138e-18)
(14.1286 -6.30244 -8.2847e-19)
(14.5642 -6.12645 0)
(14.9887 -5.92814 9.20367e-19)
(15.4011 -5.70821 0)
(15.7999 -5.46721 9.69026e-19)
(16.1842 -5.20557 -9.9166e-19)
(16.5527 -4.92435 4.65861e-19)
(16.9047 -4.62382 4.97662e-19)
(17.2393 -4.30502 -5.1937e-19)
(17.5557 -3.96881 3.71469e-20)
(17.853 -3.61641 -1.05899e-20)
(18.1306 -3.24858 1.05678e-18)
(18.3878 -2.86673 -1.08774e-18)
(18.6239 -2.47207 -5.36752e-19)
(18.8378 -2.06591 -2.6283e-19)
(19.0288 -1.64903 -8.36179e-19)
(19.1966 -1.22227 0)
(19.3413 -0.786734 5.64981e-19)
(19.4624 -0.344251 -1.45062e-19)
(19.5595 0.103908 0)
(0.278871 -0.492548 0)
(0.36788 -0.620001 0)
(0.473785 -0.762772 -8.45654e-22)
(0.597562 -0.921174 9.65536e-23)
(0.735889 -1.09457 -2.30421e-21)
(0.890312 -1.28185 -1.24511e-20)
(1.05991 -1.48254 6.38194e-21)
(1.24435 -1.69518 -1.93541e-20)
(1.44577 -1.91906 -1.25644e-21)
(1.66154 -2.15302 4.90984e-20)
(1.89405 -2.39545 -8.95511e-20)
(2.14042 -2.64516 0)
(2.40246 -2.89975 0)
(2.67735 -3.15749 1.56984e-19)
(2.96876 -3.4159 1.00135e-19)
(3.27394 -3.67521 -2.2039e-19)
(3.59234 -3.93251 3.57048e-19)
(3.9253 -4.1862 1.48979e-19)
(4.27036 -4.43522 -2.9799e-19)
(4.6284 -4.67675 -1.80238e-19)
(5.00041 -4.91004 2.07122e-19)
(5.38311 -5.13471 -5.04412e-21)
(5.77861 -5.34818 0)
(6.18371 -5.55089 5.33406e-19)
(6.59823 -5.74001 -8.7825e-19)
(7.02217 -5.91424 2.92474e-19)
(7.45318 -6.07292 6.46583e-19)
(7.89267 -6.21386 -1.79845e-18)
(8.33862 -6.33765 3.66267e-19)
(8.78938 -6.4429 0)
(9.24551 -6.52823 0)
(9.70418 -6.59433 0)
(10.1646 -6.63921 5.02263e-19)
(10.6269 -6.66207 1.55491e-18)
(11.0893 -6.66384 -1.05164e-18)
(11.5494 -6.64409 5.80386e-19)
(12.0078 -6.60094 6.36012e-19)
(12.4623 -6.53619 -1.26172e-18)
(12.9117 -6.44894 0)
(13.3558 -6.33906 -1.29594e-18)
(13.7925 -6.20803 6.73072e-19)
(14.2207 -6.05526 3.48082e-20)
(14.6384 -5.88163 -3.12822e-20)
(15.0455 -5.68614 7.41503e-19)
(15.4406 -5.4701 3.12661e-20)
(15.8222 -5.23434 -2.36818e-18)
(16.1899 -4.97842 8.02475e-19)
(16.5419 -4.70421 -1.66701e-18)
(16.878 -4.41107 0)
(17.1969 -4.10086 0)
(17.4985 -3.77348 1.76081e-18)
(17.7815 -3.43119 -4.20685e-19)
(18.0454 -3.07389 -9.12552e-19)
(18.2901 -2.70287 -4.38682e-19)
(18.5145 -2.32022 1.40095e-18)
(18.7173 -1.92695 7.06708e-19)
(18.8978 -1.52336 2.44293e-19)
(19.0556 -1.11059 -4.59533e-21)
(19.1911 -0.68875 -2.44497e-19)
(19.3045 -0.260286 0)
(19.3948 0.172934 0)
(0.395422 -0.474554 3.27662e-22)
(0.502281 -0.61023 0)
(0.625151 -0.760964 0)
(0.769267 -0.927309 -3.83496e-22)
(0.925598 -1.10745 0)
(1.09946 -1.29951 4.97948e-21)
(1.2877 -1.50315 6.14967e-21)
(1.4889 -1.71648 -1.26452e-20)
(1.70978 -1.93952 0)
(1.94074 -2.17108 -2.93769e-20)
(2.19074 -2.40954 3.81524e-21)
(2.44991 -2.65444 0)
(2.72633 -2.90263 0)
(3.00905 -3.15293 -6.60756e-20)
(3.3114 -3.4004 7.20963e-20)
(3.62492 -3.65015 -9.01125e-20)
(3.94793 -3.89671 -1.03498e-19)
(4.28642 -4.13843 0)
(4.63326 -4.37642 1.33159e-19)
(4.99132 -4.60488 -2.81001e-19)
(5.36507 -4.82429 -3.14623e-19)
(5.74388 -5.03646 -3.68441e-19)
(6.13766 -5.23553 -3.27586e-20)
(6.53768 -5.42637 -4.67491e-19)
(6.94539 -5.603 4.48625e-19)
(7.36267 -5.76437 5.0009e-19)
(7.7826 -5.91163 -5.68876e-19)
(8.21234 -6.03947 3.10775e-20)
(8.64737 -6.1521 4.18349e-20)
(9.08406 -6.24732 -6.56324e-19)
(9.52758 -6.32186 0)
(9.97152 -6.38005 -7.9853e-19)
(10.4158 -6.41679 1.584e-18)
(10.8626 -6.43105 -4.42322e-20)
(11.309 -6.42689 9.29266e-19)
(11.7499 -6.40355 -9.24645e-19)
(12.1918 -6.35435 1.01915e-18)
(12.628 -6.28647 1.06309e-18)
(13.0582 -6.1968 -2.10173e-18)
(13.4841 -6.08441 1.14972e-18)
(13.9017 -5.95376 1.13075e-18)
(14.312 -5.80146 1.78609e-18)
(14.7102 -5.6306 -6.3573e-19)
(15.0987 -5.43678 0)
(15.4758 -5.22475 3.40053e-20)
(15.8386 -4.99522 6.90565e-19)
(16.1894 -4.74463 -6.71348e-19)
(16.5232 -4.4788 7.22896e-19)
(16.8423 -4.193 0)
(17.1441 -3.89241 0)
(17.4301 -3.57376 -3.95612e-20)
(17.6977 -3.24261 7.76668e-19)
(17.9468 -2.89517 0)
(18.1781 -2.53477 3.85846e-19)
(18.3903 -2.16527 3.8922e-19)
(18.5814 -1.78599 -7.9295e-19)
(18.7509 -1.39626 -3.88999e-19)
(18.8972 -0.998589 -2.06686e-19)
(19.0225 -0.589978 0)
(19.1279 -0.176587 0)
(19.2108 0.240251 2.47594e-20)
(0.529095 -0.4834 -9.31797e-22)
(0.660077 -0.623884 1.79922e-21)
(0.799511 -0.778018 -1.94246e-23)
(0.970119 -0.950331 -1.21119e-21)
(1.14072 -1.13396 8.84122e-22)
(1.33368 -1.33057 -5.23117e-22)
(1.54126 -1.53324 0)
(1.75544 -1.74332 1.4136e-21)
(2.00092 -1.96415 -1.48109e-20)
(2.2413 -2.18996 0)
(2.51458 -2.42336 5.95603e-20)
(2.77941 -2.66303 -3.69944e-20)
(3.07376 -2.90497 3.76436e-20)
(3.35695 -3.14814 4.78041e-20)
(3.673 -3.37901 -6.2327e-20)
(3.99451 -3.62026 -7.59733e-20)
(4.31792 -3.85599 2.50518e-19)
(4.66638 -4.08222 -2.60746e-19)
(5.00845 -4.31176 0)
(5.36168 -4.52866 -9.08511e-21)
(5.74387 -4.73282 7.73419e-19)
(6.11062 -4.93523 -2.91884e-20)
(6.51038 -5.11447 -3.66178e-19)
(6.8992 -5.29644 7.01821e-19)
(7.29817 -5.46299 0)
(7.71199 -5.61144 -4.3144e-19)
(8.11441 -5.74898 -4.42098e-19)
(8.5362 -5.86213 9.80052e-19)
(8.96136 -5.96452 -6.51084e-21)
(9.37971 -6.05133 5.81564e-19)
(9.81332 -6.11219 -1.18849e-18)
(10.2385 -6.16496 1.88974e-18)
(10.6642 -6.19521 -1.35499e-18)
(11.0963 -6.20074 -1.42096e-18)
(11.5294 -6.18984 0)
(11.9463 -6.1636 8.09224e-19)
(12.3771 -6.10557 0)
(12.7914 -6.03769 -3.00554e-21)
(13.1998 -5.94757 9.58811e-19)
(13.6102 -5.82943 -1.78364e-18)
(14.0064 -5.69833 -6.61196e-21)
(14.4 -5.54656 -1.97276e-18)
(14.7726 -5.38123 0)
(15.1417 -5.19039 -5.64985e-19)
(15.5017 -4.98368 2.16789e-18)
(15.8411 -4.76154 -5.51383e-19)
(16.1786 -4.51566 5.83932e-19)
(16.4902 -4.2594 0)
(16.7944 -3.97995 6.01034e-19)
(17.0764 -3.68814 -1.81419e-18)
(17.3479 -3.37445 -2.52897e-20)
(17.5985 -3.05458 0)
(17.8296 -2.71986 6.23736e-19)
(18.0481 -2.3706 -1.87454e-20)
(18.2493 -2.0118 0)
(18.4256 -1.64502 3.51655e-19)
(18.5859 -1.27681 -3.19287e-19)
(18.718 -0.896361 3.34928e-19)
(18.8312 -0.502191 3.32239e-19)
(18.9316 -0.100239 -1.66859e-19)
(19.0037 0.300837 -6.31596e-20)
(20.5287 0.851867 1.51156e-19)
(20.5901 1.37884 -5.12464e-20)
(20.6235 1.90924 0)
(20.6288 2.44057 0)
(20.6063 2.97108 8.1443e-19)
(20.5563 3.49966 1.17194e-18)
(20.4788 4.02452 -1.20671e-18)
(20.3742 4.54421 -3.977e-19)
(20.2423 5.05725 3.97641e-19)
(20.084 5.56257 7.78272e-19)
(19.8993 6.05955 -7.78733e-19)
(19.6885 6.54636 -7.57196e-19)
(19.453 7.02191 3.76606e-18)
(19.1941 7.48506 7.32514e-19)
(18.9121 7.93431 -6.46416e-18)
(18.6078 8.36817 0)
(18.2818 8.78572 0)
(17.9356 9.18599 6.7246e-19)
(17.5699 9.56845 1.98632e-18)
(17.1854 9.93174 -5.10606e-18)
(16.7837 10.2752 -7.47705e-20)
(16.3655 10.5984 1.17039e-18)
(15.932 10.9001 1.2042e-18)
(15.4843 11.1799 -4.49352e-18)
(15.0238 11.4375 0)
(14.5516 11.6732 2.11078e-18)
(14.0677 11.8862 -1.95595e-18)
(13.5743 12.0748 0)
(13.073 12.2387 0)
(12.5654 12.3776 -8.96351e-19)
(12.0527 12.4915 -1.63891e-18)
(11.5361 12.58 2.33605e-18)
(11.0173 12.6435 0)
(10.4972 12.6818 0)
(9.97742 12.6948 1.17907e-18)
(9.45898 12.683 -1.12103e-18)
(8.94328 12.6462 0)
(8.43161 12.5851 1.76725e-18)
(7.92499 12.4999 3.68321e-19)
(7.42469 12.3909 -1.01891e-18)
(6.93193 12.2586 3.55733e-20)
(6.44811 12.1035 4.29317e-19)
(5.97402 11.9266 -4.24919e-19)
(5.51086 11.7279 7.43738e-20)
(5.0598 11.5085 0)
(4.62158 11.2692 0)
(4.19724 11.0105 -1.72164e-19)
(3.7877 10.7334 -3.70974e-20)
(3.39398 10.4388 2.20958e-19)
(3.01676 10.1278 9.19047e-20)
(2.65667 9.80136 1.43723e-19)
(2.31454 9.46025 -1.45599e-19)
(1.99112 9.10576 -9.75506e-20)
(1.68672 8.73908 9.8883e-20)
(1.40205 8.36114 -5.90597e-19)
(1.13751 7.97337 6.44415e-19)
(0.893525 7.57689 -1.3329e-21)
(0.670402 7.17321 0)
(0.468312 6.76338 1.64142e-19)
(0.287608 6.3485 2.22954e-20)
(0.128371 5.9298 2.35982e-20)
(20.2987 0.098846 -8.15104e-20)
(20.3712 0.614744 0)
(20.4159 1.13226 0)
(20.4334 1.65113 9.3607e-19)
(20.4233 2.17001 -6.25928e-19)
(20.3862 2.68768 -2.20578e-18)
(20.322 3.20245 0)
(20.2309 3.7132 0)
(20.1131 4.21837 -1.20133e-18)
(19.9687 4.71644 0)
(19.798 5.20672 -1.76044e-18)
(19.6016 5.68693 1.16805e-18)
(19.381 6.15527 -5.79872e-19)
(19.1373 6.61144 0)
(18.8706 7.05503 2.29371e-18)
(18.5812 7.4847 1.07439e-18)
(18.2701 7.89927 -1.07657e-18)
(17.9382 8.29756 1.02414e-18)
(17.5864 8.67892 -3.02652e-18)
(17.2156 9.04215 2.03823e-18)
(16.8272 9.38612 -1.97961e-18)
(16.422 9.71038 -1.00933e-18)
(16.0013 10.0137 -9.12941e-19)
(15.5661 10.2954 2.649e-18)
(15.1177 10.5547 8.49058e-19)
(14.6569 10.7914 7.76932e-19)
(14.1847 11.0058 -7.01968e-19)
(13.7032 11.1968 0)
(13.2134 11.3638 0)
(12.7167 11.5062 0)
(12.2142 11.624 0)
(11.7075 11.7169 0)
(11.1979 11.7848 0)
(10.6865 11.8278 0)
(10.1749 11.8457 -4.90068e-19)
(9.66421 11.8386 4.34937e-19)
(9.15578 11.8067 3.48353e-19)
(8.65083 11.7503 -1.691e-18)
(8.1505 11.6697 -2.63923e-19)
(7.65611 11.5651 7.87464e-19)
(7.16888 11.4371 4.33433e-19)
(6.69019 11.286 -3.45635e-19)
(6.22091 11.1127 1.28191e-19)
(5.76238 10.9174 9.39345e-20)
(5.3157 10.7008 -7.3951e-21)
(4.88169 10.4639 7.47832e-21)
(4.46141 10.2071 9.32822e-20)
(4.05584 9.93132 0)
(3.66604 9.63751 8.06759e-20)
(3.29278 9.32666 -1.83011e-19)
(2.93674 8.99963 1.02627e-19)
(2.59882 8.65732 0)
(2.27987 8.30085 -3.05756e-19)
(1.98015 7.93141 0)
(1.70058 7.54991 0)
(1.44139 7.15778 -9.50044e-19)
(1.20324 6.7562 4.58277e-19)
(0.986331 6.34659 1.26698e-19)
(0.791221 5.92996 -1.32535e-19)
(0.618226 5.50757 0)
(0.467582 5.08067 -3.73872e-20)
(20.0898 0.477625 6.20306e-20)
(20.1507 0.977656 0)
(20.185 1.47816 -2.4753e-19)
(20.1916 1.97903 -1.63092e-20)
(20.1714 2.47892 0)
(20.1252 2.97714 1.98655e-18)
(20.0529 3.47283 9.69951e-19)
(19.9542 3.96573 0)
(19.8293 4.45359 3.20351e-20)
(19.6785 4.93423 9.39283e-19)
(19.5029 5.40596 1.42697e-18)
(19.3034 5.86739 -4.69123e-19)
(19.0807 6.31688 0)
(18.8349 6.75359 0)
(18.5667 7.17704 1.72839e-18)
(18.2768 7.58637 -8.52858e-19)
(17.9663 7.98056 -7.99283e-19)
(17.636 8.35865 0)
(17.2867 8.71985 2.41452e-18)
(16.9197 9.06318 -2.31703e-18)
(16.5359 9.38774 -1.47997e-18)
(16.1364 9.6928 -1.43219e-18)
(15.7222 9.97746 0)
(15.2945 10.241 -2.04658e-18)
(14.8544 10.4828 -6.67825e-19)
(14.4031 10.7023 6.10117e-19)
(13.9419 10.8988 6.00535e-19)
(13.472 11.0724 0)
(12.9945 11.2225 0)
(12.5108 11.349 0)
(12.022 11.4515 0)
(11.5294 11.53 0)
(11.0343 11.5844 0)
(10.5381 11.6146 0)
(10.042 11.6208 -1.04908e-18)
(9.54714 11.6028 3.3589e-19)
(9.05488 11.561 -2.6772e-19)
(8.56635 11.4954 1.27525e-18)
(8.08267 11.4065 0)
(7.60507 11.2947 3.58006e-19)
(7.13473 11.1603 2.91773e-19)
(6.6729 11.0039 1.2481e-19)
(6.22057 10.826 -7.44179e-20)
(5.77891 10.6271 -9.30327e-20)
(5.34897 10.4078 2.76684e-20)
(4.93162 10.1689 -5.95998e-22)
(4.52776 9.91095 1.0385e-19)
(4.13834 9.63488 0)
(3.76428 9.3416 0)
(3.40643 9.03195 8.08188e-20)
(3.06552 8.70684 9.75777e-20)
(2.74223 8.36721 2.10215e-19)
(2.43734 8.01402 2.40692e-19)
(2.15126 7.64839 0)
(1.88471 7.27119 2.99493e-19)
(1.63794 6.8839 3.30373e-19)
(1.41145 6.48754 0)
(1.20562 6.0836 -1.8202e-21)
(1.02098 5.673 0)
(0.857757 5.25702 0)
(0.716225 4.83678 2.86879e-20)
(19.9392 0.4341 -1.02526e-19)
(19.9978 0.9177 2.00572e-19)
(20.0305 1.40436 -3.9554e-19)
(20.0369 1.89207 -2.1272e-19)
(20.0171 2.37929 0)
(19.9708 2.86483 -8.2409e-19)
(19.8977 3.34804 -8.18286e-19)
(19.7991 3.8273 0)
(19.6761 4.30227 3.39358e-20)
(19.5289 4.77102 -7.91145e-19)
(19.3578 5.23134 1.49399e-18)
(19.1628 5.68223 1.47086e-18)
(18.9447 6.12255 0)
(18.7039 6.55115 -7.16936e-19)
(18.4413 6.96674 -1.42407e-18)
(18.1577 7.36814 -7.0233e-19)
(17.8538 7.75447 2.05734e-18)
(17.5306 8.12485 -1.32196e-18)
(17.189 8.47854 1.28639e-18)
(16.8301 8.81466 1.86763e-18)
(16.4548 9.13242 2.42509e-18)
(16.0643 9.43101 1.19893e-18)
(15.6596 9.70961 5.51965e-19)
(15.2418 9.9675 1.66848e-18)
(14.8118 10.2042 5.10779e-19)
(14.3708 10.4192 5.11343e-19)
(13.92 10.6119 4.6334e-19)
(13.4607 10.7821 -1.34938e-18)
(12.9941 10.9294 8.36722e-19)
(12.5214 11.0535 7.80852e-19)
(12.0437 11.1542 -1.51534e-18)
(11.5624 11.2315 7.34415e-19)
(11.0786 11.2852 -6.39067e-19)
(10.5937 11.3154 3.00002e-19)
(10.1091 11.3219 2.89792e-19)
(9.62573 11.305 2.35315e-19)
(9.14493 11.2646 -2.36873e-19)
(8.66774 11.2011 -2.23183e-19)
(8.1953 11.1148 -5.09862e-19)
(7.72882 11.0061 -2.95568e-19)
(7.26946 10.8754 -4.61145e-19)
(6.81834 10.7233 -4.27737e-19)
(6.37663 10.5502 1.22885e-19)
(5.94537 10.3566 7.22164e-21)
(5.52558 10.1432 -9.35259e-22)
(5.11818 9.91055 3.16253e-20)
(4.72388 9.65935 -2.69482e-19)
(4.34368 9.39043 5.82084e-20)
(3.97842 9.10475 0)
(3.62903 8.80308 0)
(3.29611 8.48626 1.49468e-19)
(2.98048 8.15536 7.88194e-22)
(2.68277 7.81121 -1.95825e-19)
(2.40343 7.45484 0)
(2.14308 7.08707 -2.43189e-19)
(1.90192 6.70936 0)
(1.6805 6.32284 0)
(1.47904 5.92877 -2.33838e-19)
(1.29835 5.5283 -8.32749e-20)
(1.1384 5.12257 8.65266e-20)
(0.999769 4.71277 -4.59067e-20)
(19.7888 0.504863 1.85358e-21)
(19.842 0.975553 -1.73199e-19)
(19.8699 1.44888 5.07659e-19)
(19.8724 1.92327 3.36847e-19)
(19.8495 2.39756 -4.96247e-19)
(19.8011 2.87047 3.32469e-19)
(19.7282 3.34009 -2.39069e-21)
(19.6305 3.80416 -6.43897e-19)
(19.5081 4.26264 9.80843e-19)
(19.3623 4.71464 -1.2778e-18)
(19.1933 5.15912 1.20273e-18)
(19.0014 5.59461 -1.27878e-18)
(18.7872 6.02001 -6.14466e-19)
(18.5512 6.43427 0)
(18.2942 6.83604 6.3277e-19)
(18.0169 7.2241 5.40187e-19)
(17.72 7.59772 0)
(17.4043 7.95593 1.06418e-18)
(17.0707 8.29801 0)
(16.7203 8.62323 -1.05289e-18)
(16.3543 8.93069 9.29932e-19)
(15.9735 9.21962 -4.03316e-20)
(15.5792 9.48912 -4.52114e-20)
(15.1722 9.73846 1.71969e-21)
(14.7534 9.96722 -1.75105e-18)
(14.324 10.1749 -7.96395e-19)
(13.8851 10.3611 1.55645e-18)
(13.4379 10.5256 1.43922e-18)
(12.9837 10.6679 -7.17789e-19)
(12.5236 10.7876 0)
(12.0588 10.8846 0)
(11.5903 10.9589 0)
(11.1195 11.0105 5.47191e-19)
(10.6476 11.0393 -1.91614e-18)
(10.1761 11.0452 8.89307e-19)
(9.70586 11.0283 -4.24e-19)
(9.23811 10.9886 -6.78119e-19)
(8.77387 10.9264 6.36617e-19)
(8.31414 10.8421 2.14115e-20)
(7.8602 10.7361 -2.0028e-19)
(7.41317 10.6088 2.1997e-19)
(6.97412 10.4609 1.42629e-19)
(6.54427 10.2926 0)
(6.12462 10.1046 -3.89506e-20)
(5.71617 9.89744 0)
(5.31986 9.6714 7.85425e-20)
(4.93618 9.42745 -4.07764e-20)
(4.56613 9.16632 0)
(4.21038 8.88899 9.47566e-20)
(3.87023 8.59615 1.95623e-20)
(3.54596 8.28852 -2.48326e-19)
(3.23839 7.96724 1.45998e-19)
(2.94833 7.63308 9.60481e-20)
(2.67596 7.28703 -1.76131e-19)
(2.42218 6.92984 8.11099e-21)
(2.18658 6.56282 -1.06847e-19)
(1.97019 6.18719 -5.76083e-20)
(1.77291 5.80425 -1.28058e-19)
(1.59587 5.41508 3.3955e-19)
(1.43869 5.02082 -1.44426e-19)
(1.30248 4.62257 1.91217e-20)
(19.6324 0.556542 3.638e-20)
(19.6809 1.01249 0)
(19.7048 1.47063 -5.67307e-19)
(19.7042 1.92979 0)
(19.6791 2.38863 2.8235e-19)
(19.6297 2.84579 8.26161e-19)
(19.5562 3.29988 5.42022e-19)
(19.4587 3.75021 1.09929e-18)
(19.3375 4.19501 9.60049e-21)
(19.1936 4.63334 -6.70052e-21)
(19.0273 5.06381 -5.93246e-20)
(18.839 5.4854 -5.22989e-19)
(18.629 5.89709 5.05059e-19)
(18.398 6.29793 -1.48089e-18)
(18.1469 6.68669 1.00487e-18)
(17.8763 7.06211 -4.81707e-20)
(17.5867 7.42341 -9.11478e-19)
(17.2788 7.7697 -9.33861e-19)
(16.9536 8.10045 0)
(16.6121 8.41506 8.36326e-19)
(16.2555 8.71255 -3.74615e-20)
(15.885 8.99216 -1.6457e-18)
(15.5014 9.25292 -5.75541e-21)
(15.1057 9.49396 -6.83063e-19)
(14.6986 9.71507 2.07922e-18)
(14.2812 9.91578 -3.44617e-20)
(13.8546 10.0957 -6.64031e-19)
(13.42 10.2548 -7.00773e-20)
(12.9788 10.3924 0)
(12.5319 10.5082 0)
(12.0806 10.6019 0)
(11.6254 10.6737 0)
(11.1681 10.7235 0)
(10.7097 10.7517 5.37008e-20)
(10.252 10.7575 -3.44703e-19)
(9.79542 10.7412 3.90014e-20)
(9.34131 10.7027 5.29648e-20)
(8.89058 10.6422 2.21054e-19)
(8.444 10.5604 4.20255e-19)
(8.00299 10.4577 -5.22875e-19)
(7.56872 10.3344 3.07154e-19)
(7.14203 10.1912 -9.46251e-20)
(6.72436 10.0284 0)
(6.3167 9.84669 3.39852e-20)
(5.91993 9.64654 0)
(5.53525 9.42788 -4.10041e-20)
(5.16238 9.19196 7.79509e-20)
(4.80293 8.93941 -5.40623e-20)
(4.45695 8.6714 -6.81363e-20)
(4.12636 8.38829 1.02123e-19)
(3.811 8.09075 1.9184e-20)
(3.51171 7.78008 1.53447e-20)
(3.22952 7.4568 -2.81269e-19)
(2.96431 7.12202 3.20616e-19)
(2.71728 6.77612 1.75607e-19)
(2.48732 6.42072 9.18513e-20)
(2.27614 6.05682 3.05564e-19)
(2.08271 5.68592 0)
(1.90926 5.30893 -2.33826e-19)
(1.75466 4.9271 6.21091e-20)
(1.62076 4.54127 0)
(19.4617 0.610475 0)
(19.5049 1.05103 0)
(19.5246 1.49372 2.45869e-19)
(19.5206 1.9371 -4.71079e-19)
(19.4932 2.3802 -2.43134e-19)
(19.4425 2.82175 -1.18067e-18)
(19.3686 3.26005 4.55975e-19)
(19.2714 3.6941 -9.42943e-19)
(19.1515 4.1235 1.52564e-20)
(19.0097 4.54697 1.33699e-18)
(18.8467 4.96256 -1.78501e-18)
(18.6622 5.36938 0)
(18.4568 5.76636 0)
(18.2311 6.15326 1.69121e-18)
(17.9864 6.5286 8.17528e-19)
(17.7231 6.89043 -1.65945e-18)
(17.4412 7.23863 2.37643e-18)
(17.1416 7.57226 7.56033e-19)
(16.825 7.89099 -1.48225e-18)
(16.4927 8.19454 -7.4404e-19)
(16.1462 8.48144 6.86578e-19)
(15.7863 8.75131 -7.028e-20)
(15.4141 9.00304 0)
(15.0306 9.2351 1.28655e-18)
(14.6356 9.44806 -1.81531e-18)
(14.2308 9.64139 5.84888e-19)
(13.8171 9.81461 1.05266e-18)
(13.3956 9.96807 -2.55627e-18)
(12.9682 10.1006 5.00305e-19)
(12.5353 10.2125 0)
(12.0984 10.3024 0)
(11.6572 10.3719 0)
(11.2144 10.4199 3.4708e-19)
(10.7701 10.4477 9.82226e-19)
(10.3273 10.4537 -5.79066e-19)
(9.88531 10.4381 2.5257e-19)
(9.44578 10.4012 2.42044e-19)
(9.00969 10.3424 -4.30547e-19)
(8.57697 10.2633 0)
(8.14956 10.1641 -2.40689e-19)
(7.72888 10.0448 1.2535e-19)
(7.31497 9.90651 1.41827e-20)
(6.9099 9.74958 9.70337e-21)
(6.51484 9.57451 2.91203e-20)
(6.13015 9.38216 -1.0512e-20)
(5.75821 9.1712 1.53261e-19)
(5.39654 8.94404 -6.54567e-20)
(5.04855 8.7005 2.22677e-19)
(4.7124 8.44272 0)
(4.3924 8.17029 0)
(4.08647 7.88351 -4.00546e-19)
(3.79565 7.58435 1.09013e-19)
(3.5223 7.27285 2.49999e-19)
(3.26434 6.95025 1.47812e-19)
(3.0252 6.61628 -4.65684e-19)
(2.80076 6.27315 -2.60683e-19)
(2.59539 5.92153 -9.59346e-20)
(2.40544 5.56361 -2.10665e-21)
(2.23631 5.19973 1.02808e-19)
(2.08387 4.83113 0)
(1.95277 4.4585 0)
(19.2712 0.6617 -2.47921e-20)
(19.3086 1.08579 0)
(19.3235 1.51217 0)
(19.3156 1.9391 2.08671e-19)
(19.2855 2.3655 0)
(19.2335 2.79041 8.0419e-19)
(19.16 3.21212 3.96797e-19)
(19.0633 3.62901 -7.79467e-19)
(18.944 4.04291 0)
(18.8047 4.45172 -7.9166e-19)
(18.646 4.85082 4.35001e-20)
(18.466 5.24206 0)
(18.2659 5.62315 0)
(18.0457 5.99524 -7.38894e-19)
(17.8075 6.35727 6.82441e-19)
(17.5529 6.7043 -7.07044e-19)
(17.2794 7.03869 -6.89523e-19)
(16.9884 7.35932 0)
(16.6811 7.66489 6.51936e-19)
(16.3583 7.95682 -1.18911e-18)
(16.0226 8.23222 -1.14916e-18)
(15.674 8.49194 -1.18041e-18)
(15.3136 8.73486 -9.46601e-21)
(14.9438 8.95671 -9.74998e-19)
(14.5614 9.16099 1.03438e-18)
(14.1693 9.34683 9.32549e-19)
(13.7697 9.51234 -9.46823e-19)
(13.3614 9.66017 5.93915e-20)
(12.9487 9.78691 1.06885e-21)
(12.5298 9.89566 -7.9206e-19)
(12.109 9.98049 0)
(11.6816 10.0483 -6.31849e-19)
(11.2548 10.0936 1.21739e-18)
(10.8244 10.1223 -4.61274e-20)
(10.3986 10.1288 5.21339e-19)
(9.97247 10.1141 -4.2435e-19)
(9.54863 10.0791 3.60764e-19)
(9.12926 10.0218 2.585e-19)
(8.71115 9.94545 -5.68886e-19)
(8.29787 9.85001 2.39256e-19)
(7.89242 9.73497 1.52748e-19)
(7.49115 9.60163 1.61597e-19)
(7.09876 9.4505 -3.47383e-20)