/*--------------------------------*- C++ -*----------------------------------*\
| =========                 |                                                 |
| \\      /  F ield         | OpenFOAM: The Open Source CFD Toolbox           |
|  \\    /   O peration     | Version:  2.3.1                                 |
|   \\  /    A nd           | Web:      www.OpenFOAM.org                      |
|    \\/     M anipulation  |                                                 |
\*---------------------------------------------------------------------------*/
FoamFile
{
    version     2.0;
    format      ascii;
    class       volScalarField;
    location    "0.4";
    object      epsilon;
}
// * * * * * * * * * * * * * * * * * * * * * * * * * * * * * * * * * * * * * //

dimensions      [0 2 -3 0 0 0 0];

internalField   nonuniform List<scalar> 
15166
(
1077.58
1003.38
1000.01
1063.68
1106.23
1135.2
1106.06
1022.96
922.192
805.508
688.39
589.284
1078.15
882.308
930.922
1001.14
1045.55
1068.88
1036.97
959.686
864.04
756.411
648.933
550.757
1090.22
787.704
864.526
940.068
986.837
1006.47
974.195
902.221
812.245
712.518
612.651
517.76
1106.09
716.61
805.289
883.319
931.351
948.341
916.928
849.958
765.7
672.9
579.157
486.655
1123.39
663.126
753.656
831.924
880.014
894.84
864.782
802.437
723.634
636.973
548.553
459.793
1142.14
622.01
708.391
785.466
832.778
845.801
817.259
759.151
685.448
604.221
520.471
434.983
1162.47
589.849
668.424
743.318
789.29
800.805
773.828
719.621
650.603
574.213
494.488
411.279
1184.01
564.472
633.012
704.982
749.224
759.469
734.032
683.4
618.675
546.627
470.585
390.469
1206.56
544.38
601.574
670.058
712.296
721.444
697.475
650.104
589.314
521.197
448.559
371.451
1229.79
528.461
573.584
638.173
678.231
686.41
663.818
619.428
562.223
497.693
428.291
354.576
1253.46
515.885
548.596
608.987
646.765
654.073
632.754
591.085
537.164
475.928
409.588
339.053
1277.47
506.009
526.218
582.209
617.657
624.169
604.018
564.829
513.917
455.74
392.444
325.765
1301.64
498.344
506.13
557.576
590.68
596.456
577.373
540.447
492.303
436.985
376.669
313.839
1325.85
492.498
488.051
534.868
565.641
570.728
552.613
517.76
472.158
419.502
361.883
301.221
1349.95
488.157
471.746
513.893
542.362
546.792
529.56
496.598
453.354
403.203
348.21
290.697
1373.91
485.07
457.008
494.482
520.684
524.49
508.059
476.835
435.759
387.955
335.48
280.81
1397.56
483.03
443.659
476.484
500.467
503.671
487.965
458.33
419.271
373.679
323.572
271.36
1420.95
481.868
431.55
459.774
481.583
484.201
469.15
440.987
403.802
360.285
312.408
262.492
1443.96
481.436
420.544
444.231
463.92
465.967
451.511
424.693
389.258
347.695
301.943
254.333
1466.48
481.622
410.529
429.755
447.374
448.864
434.942
409.371
375.561
335.85
292.107
246.631
1488.45
482.318
401.399
416.254
431.856
432.796
419.358
394.938
362.651
324.672
282.809
239.129
1509.92
483.449
393.066
403.647
417.283
417.683
404.681
381.325
350.458
314.112
273.997
231.956
1530.92
484.928
385.449
391.859
403.581
403.448
390.837
368.467
338.931
304.116
265.602
224.829
1551.17
486.714
378.481
380.828
390.686
390.024
377.764
356.306
328.019
294.644
257.616
218.159
1570.86
488.758
372.099
370.495
378.535
377.35
365.405
344.797
317.676
285.645
250.003
211.734
1589.84
490.988
366.248
360.804
367.076
365.373
353.71
333.888
307.861
277.096
242.754
205.741
1608.14
493.384
360.878
351.708
356.256
354.04
342.627
323.538
298.536
268.957
235.851
200.022
1625.8
495.905
355.944
343.162
346.034
343.307
332.114
313.708
289.667
261.207
229.273
194.688
1642.73
498.541
351.412
335.127
336.366
333.133
322.136
304.36
281.225
253.821
223.02
189.7
1659.01
501.285
347.242
327.566
327.214
323.48
312.652
295.469
273.18
246.777
217.041
184.766
1674.61
504.061
343.401
320.444
318.545
314.313
303.634
286.998
265.508
240.049
211.344
180.178
1689.35
506.902
339.86
313.731
310.327
305.601
295.048
278.927
258.186
233.623
205.886
175.672
1703.23
509.782
336.603
307.401
302.531
297.315
286.871
271.225
251.192
227.478
200.675
171.502
1716.67
512.66
333.596
301.427
295.131
289.429
279.074
263.873
244.507
221.601
195.685
167.407
1729.15
515.54
330.829
295.784
288.101
281.918
271.636
256.849
238.115
215.974
190.911
163.588
1740.84
518.429
328.276
290.454
281.42
274.759
264.534
250.135
231.996
210.582
186.331
159.793
1752
521.303
325.926
285.413
275.064
267.931
257.75
243.712
226.134
205.411
181.933
156.199
1762.25
524.159
323.761
280.644
269.017
261.414
251.263
237.562
220.515
200.452
177.72
152.875
1771.85
526.997
321.767
276.129
263.259
255.193
245.059
231.67
215.127
195.695
173.678
149.601
1780.79
529.802
319.93
271.854
257.773
249.248
239.121
226.026
209.959
191.128
169.813
146.6
1788.76
532.604
318.238
267.805
252.547
243.567
233.435
220.612
204.997
186.738
166.073
143.404
1796.09
535.509
316.691
263.97
247.566
238.134
227.988
215.419
200.23
182.515
162.448
140.184
1802.52
538.421
315.271
260.335
242.814
232.937
222.767
210.432
195.648
178.451
158.962
137.341
1808.34
541.396
314.004
256.893
238.282
227.962
217.76
205.645
191.244
174.539
155.597
134.487
1813.45
544.288
312.905
253.639
233.956
223.197
212.955
201.045
187.007
170.769
152.36
131.889
1817.75
547.002
311.947
250.571
229.824
218.632
208.342
196.623
182.927
167.137
149.229
129.19
1821.3
549.767
311.108
247.688
225.884
214.259
203.915
192.369
179
163.635
146.219
126.815
1824.29
552.357
310.381
244.962
222.123
210.071
199.66
188.275
175.215
160.257
143.31
124.368
1826.53
554.861
309.723
242.394
218.538
206.055
195.57
184.335
171.565
156.995
140.506
122.144
1828.04
557.292
309.182
239.972
215.119
202.206
191.638
180.538
168.045
153.846
137.789
119.838
1828.84
559.561
308.72
237.686
211.857
198.513
187.857
176.88
164.647
150.802
135.172
117.77
1829.01
561.878
308.335
235.537
208.747
194.974
184.22
173.356
161.368
147.863
132.645
115.758
1828.55
564.006
308.018
233.503
205.78
191.578
180.723
169.958
158.204
145.022
130.191
113.616
1827.34
566.089
307.765
231.596
202.952
188.321
177.356
166.683
155.148
142.276
127.82
111.694
1825.61
568.093
307.575
229.798
200.255
185.197
174.118
163.524
152.196
139.621
125.528
109.856
1823.33
570.022
307.442
228.108
197.682
182.201
171.001
160.477
149.345
137.054
123.322
108.161
1820.28
571.758
307.359
226.519
195.231
179.327
168
157.539
146.59
134.57
121.184
106.418
1816.7
573.549
307.331
225.035
192.895
176.57
165.114
154.704
143.928
132.169
119.122
104.813
1812.6
575.143
307.351
223.644
190.672
173.93
162.333
151.968
141.356
129.846
117.108
102.97
1807.72
576.676
307.393
222.332
188.551
171.395
159.659
149.33
138.87
127.598
115.157
101.354
1802.38
578.064
307.505
221.116
186.534
168.966
157.085
146.782
136.467
125.422
113.273
99.8833
1796.53
579.471
307.658
219.982
184.618
166.64
154.607
144.326
134.144
123.315
111.457
98.5021
1790.08
580.698
307.848
218.928
182.792
164.408
152.223
141.955
131.899
121.279
109.699
97.0688
1782.99
581.867
308.051
217.958
181.06
162.273
149.929
139.667
129.729
119.308
107.999
95.7244
1775.38
582.884
308.321
217.053
179.416
160.227
147.722
137.461
127.631
117.401
106.348
94.3267
1767.14
583.867
308.599
216.221
177.86
158.268
145.601
135.331
125.603
115.555
104.747
93.0292
1758.78
584.811
308.916
215.467
176.384
156.396
143.56
133.278
123.643
113.767
103.191
91.689
1749.19
585.588
309.257
214.772
174.989
154.606
141.598
131.297
121.748
112.035
101.683
90.4766
1739.63
586.309
309.64
214.146
173.675
152.898
139.714
129.388
119.918
110.359
100.221
89.267
1729.72
586.919
310.053
213.586
172.432
151.265
137.905
127.547
118.149
108.737
98.8092
88.1485
1718.92
587.524
310.485
213.096
171.268
149.708
136.167
125.775
116.441
107.169
97.4387
86.9891
1707.71
587.831
310.955
212.664
170.173
148.227
134.499
124.065
114.79
105.651
96.1108
85.9294
1695.96
588.291
311.421
212.275
169.147
146.816
132.902
122.42
113.196
104.183
94.8296
84.8985
1683.77
588.514
311.993
211.982
168.203
145.479
131.373
120.838
111.659
102.764
93.5869
83.8609
1671.04
588.644
312.518
211.727
167.313
144.208
129.907
119.315
110.175
101.391
92.3816
82.8794
1658.31
588.845
313.098
211.539
166.498
143.003
128.506
117.851
108.743
100.064
91.2118
81.8509
1644.67
588.814
313.684
211.403
165.751
141.868
127.169
116.446
107.364
98.7801
90.0763
80.8994
1630.27
588.576
314.284
211.328
165.067
140.798
125.894
115.096
106.034
97.5413
88.9761
79.9377
1615.89
588.455
314.933
211.308
164.448
139.791
124.679
113.802
104.756
96.3446
87.9114
79.05
1601.3
588.17
315.595
211.349
163.891
138.848
123.524
112.562
103.525
95.1909
86.878
78.1206
1585.81
587.777
316.303
211.443
163.4
137.969
122.427
111.377
102.341
94.0765
85.8791
77.2801
1570.06
587.313
316.994
211.602
162.976
137.154
121.387
110.243
101.204
93.0007
84.9144
76.5014
1553.87
586.725
317.704
211.806
162.609
136.395
120.407
109.163
100.114
91.9665
83.9862
75.717
1537.22
586.055
318.46
212.067
162.309
135.701
119.484
108.135
99.07
90.9731
83.0878
74.9011
1520.16
585.315
319.236
212.385
162.076
135.066
118.615
107.158
98.0707
90.0164
82.2215
74.1667
1503.08
584.495
320.041
212.783
161.898
134.492
117.804
106.228
97.116
89.0999
81.3857
73.4069
1485.2
583.526
320.858
213.226
161.787
133.983
117.049
105.352
96.2045
88.2185
80.58
72.7452
1466.99
582.454
321.69
213.714
161.75
133.535
116.352
104.525
95.3369
87.377
79.8079
72.0445
1448.4
581.28
322.539
214.268
161.768
133.151
115.713
103.75
94.5146
86.5729
79.0651
71.3731
1429.43
580.021
323.447
214.895
161.859
132.83
115.128
103.024
93.7372
85.8063
78.3462
70.6512
1410.11
578.641
324.322
215.559
162.008
132.564
114.6
102.347
93.0009
85.0746
77.664
70.1471
1390.4
577.144
325.213
216.302
162.232
132.37
114.129
101.721
92.3118
84.3864
77.0242
69.5902
1370.73
575.657
326.164
217.103
162.523
132.237
113.715
101.148
91.6666
83.7333
76.4147
69.0942
1349.97
573.889
327.116
217.963
162.884
132.176
113.362
100.626
91.0662
83.1198
75.8386
68.5881
1329.59
572.145
328.079
218.884
163.322
132.174
113.069
100.158
90.51
82.5446
75.296
68.1288
1308.53
570.205
329.041
219.862
163.821
132.246
112.837
99.7412
90.001
82.0112
74.7859
67.6388
1287.15
568.242
330.058
220.924
164.405
132.387
112.667
99.3798
89.5384
81.5151
74.3062
67.2267
1265.42
566.04
331.072
222.047
165.064
132.605
112.563
99.0714
89.1228
81.0592
73.8606
66.8008
1243.77
563.904
332.093
223.232
165.808
132.89
112.523
98.8208
88.7547
80.6447
73.4499
66.4376
1221.47
561.477
333.149
224.502
166.633
133.263
112.551
98.6315
88.4389
80.2738
73.0738
66.0421
1198.87
558.99
334.198
225.833
167.537
133.706
112.65
98.5001
88.172
79.9444
72.7301
65.733
1175.96
556.36
335.248
227.251
168.536
134.236
112.82
98.4284
87.9571
79.6583
72.4284
65.4741
1152.78
553.574
336.335
228.734
169.621
134.85
113.068
98.4244
87.7994
79.4226
72.1686
65.2013
1129.35
550.7
337.411
230.284
170.805
135.557
113.393
98.4858
87.6986
79.234
71.947
64.9599
1105.95
547.75
338.523
231.926
172.082
136.361
113.797
98.6173
87.6548
79.0929
71.7664
64.8048
1082.01
544.6
339.62
233.661
173.468
137.257
114.288
98.8197
87.6716
79.0064
71.634
64.6517
1058.12
541.366
340.748
235.466
174.952
138.252
114.872
99.1002
87.7526
78.9695
71.5416
64.5753
1033.72
537.901
341.848
237.343
176.551
139.359
115.548
99.4627
87.9031
78.9929
71.5031
64.532
1008.74
534.251
342.968
239.342
178.262
140.583
116.327
99.9084
88.124
79.0768
71.5131
64.5022
984.118
530.609
344.116
241.399
180.097
141.921
117.213
100.442
88.4205
79.2211
71.5732
64.5296
959.059
526.751
345.242
243.582
182.068
143.391
118.208
101.078
88.799
79.4345
71.6901
64.572
933.763
522.699
346.377
245.847
184.161
144.989
119.326
101.813
89.2626
79.7215
71.8723
64.7156
908.586
518.57
347.489
248.215
186.401
146.74
120.569
102.659
89.8209
80.0895
72.13
64.911
882.989
514.218
348.605
250.672
188.788
148.635
121.954
103.618
90.4749
80.5342
72.4396
65.0631
857.192
509.664
349.755
253.269
191.336
150.692
123.479
104.704
91.2307
81.061
72.8153
65.3392
831.269
504.994
350.832
255.949
194.032
152.911
125.158
105.92
92.0962
81.6821
73.2763
65.6717
805.189
500.129
351.942
258.754
196.906
155.324
127.003
107.282
93.0844
82.4056
73.8161
66.0989
779.248
495.151
353.022
261.658
199.964
157.925
129.038
108.805
94.2113
83.243
74.4577
66.605
753.24
489.935
354.116
264.718
203.222
160.739
131.265
110.497
95.4821
84.2074
75.2113
67.244
726.696
484.455
355.146
267.882
206.686
163.783
133.714
112.384
96.9116
85.3057
76.0817
67.9524
700.221
478.86
356.169
271.203
210.36
167.07
136.388
114.472
98.515
86.54
77.0473
68.6576
673.949
473.087
357.179
274.648
214.284
170.625
139.317
116.78
100.308
87.9334
78.1495
69.5656
647.699
467.088
358.164
278.247
218.461
174.469
142.527
119.345
102.317
89.5138
79.4212
70.6083
621.027
460.854
359.114
282.025
222.905
178.628
146.054
122.182
104.561
91.2888
80.8393
71.7874
594.652
454.455
360.057
285.963
227.661
183.141
149.917
125.333
107.071
93.2834
82.449
73.0977
568.389
447.834
360.984
290.1
232.74
188.041
154.165
128.826
109.877
95.5238
84.2542
74.6024
541.81
441
361.907
294.479
238.214
193.384
158.857
132.723
113.028
98.0545
86.3093
76.3167
515.538
433.987
362.873
299.115
244.118
199.23
164.04
137.071
116.568
100.917
88.6359
78.2229
489.253
426.813
363.919
304.103
250.536
205.657
169.802
141.935
120.549
104.142
91.2614
80.3627
463.124
419.512
365.15
309.538
257.571
212.777
176.22
147.387
125.035
107.778
94.2146
82.8045
436.949
412.219
366.727
315.613
265.404
220.713
183.424
153.529
130.101
111.894
97.5734
85.5713
410.861
405.229
369.055
322.661
274.286
229.669
191.552
160.474
135.827
116.546
101.357
88.707
384.62
399.344
372.863
331.222
284.546
239.85
200.734
168.314
142.307
121.797
105.608
92.1327
358.219
397.524
380.263
342.6
296.876
251.685
211.29
177.312
149.715
127.786
110.407
95.9549
328.087
400.118
389.165
355.331
309.463
263.613
221.963
186.708
157.487
134.186
115.565
100.234
204.004
0.00127399
6.60816
4.94199
4.90521
11.9972
11.4352
81.1059
45.1224
26.4073
7.60149
0.00269605
0.0225513
574.402
12.1706
0.000851294
481.164
0.218137
0.207232
0.000828298
2.43255
5.66505
0.255091
0.0183437
209.769
6.56555
4.01466
16.2187
16.913
48.3333
14.6022
364.478
0.00108561
7.41788
0.0211324
2.32441
87.3144
12.6791
29.7399
0.00290671
0.238842
0.000794115
0.119349
23.9263
23.6774
5.44928
0.0575272
0.0148212
23.9302
2.39898
2.27138
77.6407
18.4238
0.000749082
215.396
0.00118078
0.0042799
0.000793078
12.7139
11.2973
3.50543
378.973
0.000746609
0.00893998
0.713245
0.00121368
75.8653
18.0052
321.668
18.7504
185.349
0.0484946
28.4015
43.4192
0.0188299
0.000739207
41.18
0.000696182
0.0790014
11.2074
0.2111
0.000699383
75.357
20.5198
0.00844409
70.1314
75.0053
0.000739954
5.18997
25.7441
19.5247
26.1003
0.000741583
0.000984122
53.6264
0.000751816
15.1795
0.00907266
0.000728962
76.7502
144.448
1.15013
0.000785146
0.00113993
0.000707794
68.0857
66.1234
101.29
19.2518
0.0282573
0.526935
0.000709762
8.28707
0.000913521
0.000734492
8.34856
0.0108476
1.92506
69.1988
0.648681
120.009
0.0204573
176.277
0.994345
0.319788
53.2906
0.00104645
1333.1
0.0233181
0.000742466
123.05
0.000758846
87.345
0.0011423
4.1922
0.00146127
28.4137
13.1955
8.70767
0.00176142
0.00876749
2.76326
14.1803
0.128461
31.2741
198.356
17.2528
0.0012177
61.6287
21.7542
0.583425
8.01099
0.000693001
0.265757
0.615999
0.000716835
12.5468
0.000726989
88.9793
0.00234048
0.0178267
0.000857426
0.32582
0.00607986
2.60391
0.190849
314.806
30.1663
18.4555
0.000686877
205.544
47.3163
216.997
0.00946543
0.000680122
18.4829
0.000705939
20.4726
0.722976
34.7056
330.639
3.28657
0.0833717
26.3659
0.000796682
13.451
0.00072405
0.000721552
30.1189
0.000736009
9.20559
0.00069769
199.411
0.001305
16.1373
14.1845
10.8624
4.55666
0.000709809
409.648
63.7799
19.7572
54.8148
9.17261
20.1064
0.142108
0.180902
1.48485
39.2356
1.55715
139.78
52.5578
48.1534
34.3
0.000722342
15.4603
0.00601613
11.1898
426.654
20.977
20.2901
64.0045
24.5956
0.000718565
0.000730991
55.5367
70.2071
0.000758393
1484.72
0.0228123
167.456
0.297276
0.000704629
88.9549
10.2693
12.2024
11.7493
70.451
34.7002
20.4989
0.507058
0.393421
32.6198
95.3917
196.085
132.836
82.9246
0.00083733
44.8647
16.2123
17.1839
43.0867
5.5366
4008.97
21.7581
1.83176
4.02023
19.1578
14.4848
24.6156
1.55081
12.6842
0.00757374
0.174769
577.527
13.1536
58.3559
48.4827
8.00967
164.432
10.7317
0.0432085
174.497
87.6281
85.5429
186.069
30.0899
105.965
29.1317
27.2162
178.823
29.6846
26.8188
21.0135
25.2378
11.0098
12.5044
82.2639
85.9864
1.9505
26.818
170.812
99.5058
98.9
16.1965
191.464
0.677477
85.171
0.0704686
54.5379
6.57773
1.01603
336.816
214.201
0.568592
53.9948
32.9443
0.00073701
0.689962
0.522018
0.708104
40.7849
0.000720423
97.8789
20.0203
0.0940362
93.3655
43.0278
0.000721189
442.661
0.029245
14.5045
10.7273
9244.3
50.2999
42.6127
18.4543
0.000714311
0.000717276
39.9838
13.476
0.000683664
11.0446
0.000703638
0.000717363
0.000740018
0.000705936
0.231706
0.00072532
0.00175224
122.998
49.8715
0.000755472
19.1194
0.00381662
75.8136
147.309
90.503
1101.05
15.0544
0.000661092
0.000744323
0.0951319
0.71008
96.1914
0.000682239
0.178032
24.526
51.4819
5.43317
27.703
25.1822
71.2216
1008.45
2.59145
4.96469
0.000883294
0.000735548
1.60651
4.12217
0.24273
28.1324
50.7799
5051.4
174.92
2.94395
22.8855
65.9449
0.000734735
8.92424
49.7825
0.00151375
0.000714513
51.8844
3770.1
81.0782
0.000685495
0.0499001
3.97326
0.0155956
0.00073045
53.1274
6.85866
17.6065
16.0754
0.00091925
920.52
0.00071463
1.66627
18.8431
0.00204484
0.00469129
92.6786
0.00319368
45.434
313.807
85.3744
26.0974
41.2569
98.9954
0.00071496
0.000689728
0.00072924
74.799
0.0842682
315.284
5353.87
4.53371
59.7409
0.000724169
0.0432613
14.482
0.000689966
0.00072571
97.5235
0.000680365
1.72099
55.0753
27.6892
0.000668172
0.00255698
0.259043
0.239261
10.9769
0.407149
0.000700723
809.491
54.1251
0.813376
0.00544415
33.3735
88.9624
0.00234327
15.3604
0.00225077
65.1406
0.000843941
12.7226
1.03165
0.000705391
77.0088
11.1069
172.068
0.00351598
10.0245
2.70046
0.00146926
89.4822
51.114
2.51566
210.784
0.0152197
0.0466819
0.00487908
116.931
31.623
0.202334
2.45246
4.16996
171.004
0.829701
83.3662
1148.46
0.000673926
210.896
56.3409
10.4206
0.000697362
19.7113
94.3894
0.150229
84.5176
23.3719
2.41786
0.326452
30.0509
120.67
0.000863175
0.0103516
55.2535
0.0327812
0.00190211
240.862
1086.78
0.0331203
22.7839
52.1264
0.62997
46.2265
26.9913
52.0793
19.3137
24.4787
0.000738971
0.189083
44.9698
18.594
116.573
21.7175
98.0576
175.892
990.724
74.9847
2.57551
0.000727142
216.627
91.0678
46.2198
10.379
1.11642
0.149477
11.147
0.000731131
17.0751
0.00073215
35.7008
10.6744
92.1744
29.3751
77.9898
111.05
119.856
29.6706
220.854
0.000734483
0.340325
58.0602
1423.94
7.72887
23.8953
0.000875235
0.0194229
6.1923
118.1
18.1906
0.000699175
0.0653175
0.000708429
0.0540885
19.8481
0.0280438
66.0784
2.82781
72.0943
0.445626
0.441935
298.265
658.758
0.000740135
0.000740699
5.49722
185.918
17.5877
13.2161
3.26862
30.8698
19.507
0.000665694
0.751267
12.2379
0.00134286
77.4342
12.8422
26.9414
17.4265
0.00563917
0.000665803
0.0148002
0.00071365
26.9144
20.2964
122.77
22.9072
0.000731584
139.298
0.123118
118.67
1.79474
193.965
0.0303625
0.507522
0.000685153
38.9093
566.795
19.5461
4.59575
0.0006598
104.372
44.8908
50.5708
0.000700564
0.618176
56.7209
26.8689
0.00187114
1071.13
0.000917919
59.0644
28.9425
0.000879687
2.05163
0.141053
1.08945
0.000700504
0.000741847
75.4466
36.4558
19.7885
54.0778
0.00135186
1.92119
0.220514
44.7139
8.30461
0.00100806
1.5716
403.345
0.000689001
0.00288904
26.3039
130.892
88.4288
0.000720239
696.071
23.8611
115.693
0.0201682
2.51907
144.843
0.000735693
101.377
2.47723
18.1097
7.83853
45.2697
7.96476
94.2932
96.8207
15.9428
4966.09
0.000746634
0.000719179
142.732
47.2607
0.00130312
0.000723312
9.36516
0.000745337
51.9361
52.5807
1.13766
0.000701388
39.8796
0.401517
21.4585
66.5536
25.6031
0.266742
2.35683
118.912
0.000738987
2.36634
61.4886
21.5234
18.1666
0.00232376
10.6975
2.74067
2789.34
0.000711221
2.56525
35.7135
18.3461
0.000771026
0.166196
28.8084
55.7428
77.2828
0.0606614
204.884
31.8968
0.303756
31.5726
0.000712597
0.0024657
9.08152
0.000684449
26.5458
0.000726287
115.096
0.00454336
57.1287
0.000732345
0.924201
51.939
126.921
7.57708
31.0594
0.387653
241.641
0.00778326
0.155415
18.3825
0.000697677
0.000745103
27.9557
0.382789
94.8453
25.909
0.000758592
90.8111
105.9
81.2796
7.19756
170.38
95.8273
0.000740884
2399.11
4211.47
49.7664
0.000759723
0.00435528
273.361
54.2361
0.000704653
90.8157
0.000698261
0.111381
303.403
0.000851801
16.9061
0.00072004
0.0641618
121.442
0.000762143
0.00101767
0.000734967
0.000938411
0.0137056
1017.82
51.4294
0.309523
11.3908
0.000726474
49.2426
0.000729746
8.98717
1.82264
0.0157749
4.43981
0.00628091
73.8943
0.000725006
10696
4.24358
30.1983
208.237
4.79151
0.000697109
26.0491
180.124
1.98995
49.6485
58.3194
184.696
23.1203
0.0364235
28.5792
0.17477
0.00103682
0.292185
4115.76
154.974
1.03259
0.0289386
20.6499
0.000924173
9.39753
52.2321
174.475
64.3727
60.4762
0.030106
0.00176314
32.5536
24.4088
0.0490488
42.7741
0.000720305
120.896
218.84
0.000766898
176.288
48.8194
1.15415
0.15259
140
0.0155221
0.316554
13.3941
3.00085
2.84237
0.000752868
27.1096
0.111358
150.157
28.1078
79.9031
6.17251
0.00223459
39.1729
0.000730491
0.000724027
10.5809
0.149388
1.7211
211.847
0.0006695
72.7004
0.148586
0.0585387
0.000791241
166.279
8.11101
0.348165
40.6531
0.0584921
309.42
3.96127
0.000716369
236.638
270.542
0.00159255
0.00318051
77.6643
26.5724
0.418401
233.416
0.0277464
2.01787
0.245845
0.391234
32.0313
94.347
0.000736747
96.1326
22.0692
0.00734748
1.29083
1497.38
15.9882
0.000731445
0.000683629
35.4246
23.5363
66.9247
0.000683119
34.2973
2.88949
32.2615
0.000926169
167.455
46.6131
0.00156295
16.44
0.000740935
86.8094
32.1908
28.3532
40.2297
0.000716155
0.000718333
9.8281
110.317
5.67392
37.9643
0.0006667
0.0435804
0.000734233
0.00194182
39.7604
0.0886136
0.347855
0.916848
21.7604
152.273
24.7997
65.6311
0.00072896
29.4342
37.8645
20.6685
0.000738997
44.0959
0.000735296
0.000726961
0.158755
20.7657
0.0161805
336.742
35.119
328.164
0.000762527
0.00132056
0.0372161
110.285
4.59878
145.823
0.000725832
0.000715953
0.00196105
0.00296759
139.665
44.822
83.126
0.308475
0.0359935
3.85938
3.79046
57.3012
15.2987
61.2326
18.9422
0.000690187
182.537
0.0015554
1.82975
62.091
26.2582
1.3093
0.619112
0.000943154
106.244
7.47106
19.9978
28.5211
0.0007226
67.2922
43.0058
171.57
0.00439622
59.0899
47.6339
56.6231
191.08
22.0801
55.837
0.277205
814.028
4.28016
0.188622
121.146
0.000729529
93.9833
173.517
0.000703865
35.7983
0.00130954
102.248
102.353
1.77101
18.8188
106.403
97.388
13.3813
0.942937
50.2329
9.34964
0.00559901
0.000696488
24.6627
0.0860988
19.487
58.1515
4.48001
53.8876
105.084
0.000717033
15.9881
461.725
243.572
10.3981
99.7768
18.2011
208.435
97.3486
1.65013
0.0159361
0.221572
68.1382
83.9655
0.221957
53.8263
59.847
52.95
11.0939
2.07075
10.6298
32.9631
0.000738547
238.592
88.8174
1.51725
0.000738418
26.7719
15.54
17.1686
0.000720202
149.675
0.000728792
12.0527
0.18039
0.000733673
39.3765
81.5265
0.000701059
50.5319
27.9216
24.827
12.708
40.4092
15.4374
40.6956
52.8729
1.71635
0.00070868
0.00128122
33.7027
5.62491
0.124562
0.00073853
84.1889
0.00185263
0.976667
0.250511
10.8633
8.66935
0.0644503
0.523287
394.739
173.076
24.3453
1420.8
56.9038
0.0007061
51.5661
18.0232
182.186
0.000709431
5.48204
0.000737103
0.000866492
17.4658
3.99455
0.0327062
0.000802578
56.936
3019.66
0.00246793
0.00072891
1.63779
9.49815
0.0158552
0.0870945
3168.28
0.553159
0.00079572
0.000727646
66.7958
20.7818
0.306144
0.0667314
64.2502
193.188
29.5474
103.474
35.26
0.000730546
16.6024
0.000723071
130.363
15.4983
2934.84
6.15396
0.146388
0.000951711
97.2922
0.000739878
0.000712126
0.00176096
13.7159
18.5139
61.639
0.00071901
16.6721
0.000727245
529.622
61.7013
0.000744625
126.196
6.27134
0.000729062
0.000766816
0.0263176
139.611
5.64211
0.0173762
0.000727484
0.000709704
134.692
91.5379
20.8831
34.5563
0.474312
34.4971
0.00071845
0.00406166
6.88064
209.965
48.0829
0.00325528
0.000731395
33.2708
0.000727485
87.944
140.615
7.22301
0.0381715
91.8402
16.5906
3.15322
0.000727964
7.43388
94.9938
85.2147
0.00217154
0.0221063
31.7944
3012.09
0.0535443
4.55903
0.000703036
0.000689922
0.000740603
0.01026
31.9951
69.9072
0.041385
99.6698
22.5525
420.003
8.16107
0.0109687
0.00276631
0.00617039
2.58906
48.0817
20.1615
0.000753059
96.2468
0.000716159
0.00631563
65.5981
49.679
0.026659
5.3182
9.81782
0.00104939
0.740065
2.525
0.000722277
0.000931105
146.858
0.000888773
0.000753606
110.977
25.2511
3163.4
8.83028
1375.12
0.000851821
0.000700287
3519.51
17.3062
1.17799
3.71852
0.0572271
18.5583
1.0236
986.554
47.0038
66.6575
143.508
104.546
1.05614
27.2043
99.3876
0.00692869
80.734
0.000980778
37.0374
6.32022
0.735746
7.87656
6.98838
3.49655
2.03735
39.232
60.9972
45.076
28.7141
50.225
36.1288
6.27129
0.00109187
0.000724307
0.236731
252.22
0.000725512
80.03
0.000705553
0.00379025
189.904
112.731
45.0109
74.941
979.658
77.5033
19.0664
40.2917
0.000724375
16.7231
74.4402
0.000760093
198.507
0.00253769
719.449
250.272
294.808
14.1565
84.1597
4.52605
0.500925
16.051
94.3288
20.5368
12.2163
5.38799
77.2966
0.135632
124.34
335.494
0.00367776
34.5385
0.000739834
0.000987855
17.527
133.253
168.916
14.6338
0.61195
0.21836
0.319986
0.00084845
22.853
0.000847938
154.778
0.000802612
0.120798
258.616
5.55322
2.89506
192.067
157.801
0.0019459
0.000740066
0.194103
13.625
0.165914
112.998
0.037161
25.7689
5.12106
27.1093
56.1315
0.00086733
0.000719445
130.389
0.722093
5.57473
56.2577
29.2416
38.7836
0.00388721
164.529
56.161
90.4947
0.000828262
1.28596
24.7646
79.1537
1.00269
14.0364
0.000737657
11.8471
0.000710633
221.819
0.00435966
34.7331
0.172394
10.1322
0.000761946
1960.8
0.000739093
142.654
0.0160486
0.000727359
0.00677684
14.573
0.000729275
0.000733365
10.3137
0.0268493
20.472
0.0633777
0.000772326
22.421
6.4479
39.7028
0.000782198
111.687
4.55519
351.912
37.4756
29.9498
57.4972
93.0135
4.62858
299.245
249.174
98.3337
0.000753326
2.42033
25.6198
18.2216
0.00128535
0.0163097
20.6408
482.305
0.000735472
1.66215
105.065
0.000675784
57.8306
66.7899
182.189
73.3885
52.5197
12.3136
0.341415
202.239
9.26694
73.7246
51.7392
52.4108
0.488781
0.000727257
34.1969
0.00182309
0.000750513
0.000711661
177.941
0.00072755
0.000913078
18.3663
9463.89
2.85247
2.58622
52.7044
11.1682
0.000728488
42.3237
223.853
0.0161753
4.73861
55.7521
49.0373
0.282237
0.0208326
0.000717025
0.000726203
0.0172936
0.0416443
25.2542
21.2294
88.1244
14.1393
13.9404
0.000995316
197.922
28.2753
0.00074783
23.1057
826.585
0.000734612
6.94935
119.797
43.7048
91.7536
0.716667
143.871
0.000856623
0.924155
0.000773797
0.00198704
0.000746828
63.3223
18.1298
0.0966158
0.000739345
0.000686726
188.265
28.647
2.73124
19.9898
6.23468
36.3377
18.4285
24.4597
26.5711
0.000732269
0.48178
0.878732
0.353557
19.0579
77.1464
49.5288
84.0902
27.8281
88.0358
161.606
95.2852
46.5778
32.1342
0.131421
56.7417
29.6253
0.0202408
79.5608
53.8722
10.9172
0.000699454
0.000742731
0.000873339
0.00118242
49.9144
0.000674535
109.756
50.5079
229.915
28.9244
0.000726428
12.4597
15.8939
58.0837
15.3699
29.4807
13.7202
0.000754654
0.000742226
0.00345067
0.175828
0.000710763
84.5416
13.9627
1.74069
47.6149
15.0526
39.0386
118.308
0.000728217
19.0943
30.9492
0.000944426
0.0906769
52.8404
168.827
20.2575
4.75178
0.000753892
33.6967
39.6482
0.000959302
0.0116122
0.000722845
39.7583
0.00116565
0.517465
112.634
0.763449
0.0998102
21.7901
2877.45
0.000758126
30.1783
0.000675749
10.2403
23.0516
22.2957
17.053
60.8697
31.6904
58.2605
188.9
45.3086
0.000732408
0.000718148
0.0474801
0.206644
53.1522
4.54829
0.000730191
164.303
2.8935
0.00301694
52.2948
0.0545236
0.0028696
0.0322516
74.1547
0.00203643
0.000734248
21.3614
83.4677
25.1191
1.62129
53.9689
8.24958
0.000737422
16.8048
0.145992
0.0684875
0.000791032
34.7075
20.0236
5.5103
139.03
94.5463
16.4175
2.89762
0.000725722
25.866
0.000726169
223.028
0.00407224
33.4156
0.157826
53.6532
0.00809833
0.00356459
4.54419
3.73669
386.605
0.000853082
1.89073
46.3998
91.2397
6.40591
114.722
1.32738
0.000812221
0.000744797
58.168
24.5796
313.141
2.24444
0.164303
54.9363
21.1025
59.4677
0.0667688
0.00072598
0.000734803
1.27372
767.768
18.5883
105.887
0.000842709
0.00452976
1.10863
48.9289
22.834
45.0344
57.9282
60.8075
0.000741921
0.000735509
178.954
135.869
61.5461
426.981
48.0883
0.0160886
132.904
0.000724638
226.246
0.017714
0.0209863
0.000727203
0.0346661
0.1729
53.6535
48.3897
0.000754517
116.319
0.000719013
82.8706
148.42
0.000718105
0.469745
0.0007544
16.4767
0.32374
5.61766
0.000691758
13.1899
90.9395
13.1438
45.0889
1.23916
60.5743
1.57929
62.6071
33.3942
83.9713
30.7792
0.000954933
0.000736157
27.2264
0.480244
61.5837
0.0007319
123.271
0.000724325
0.00131011
0.247572
0.000720442
273.588
97.5835
0.000762186
21.8553
2.56738
0.174994
33.169
0.00188029
0.00070826
43.0127
9.1441
0.0205453
46.5582
2370.99
108.313
1.62832
182.91
0.225124
0.000735777
0.000900386
0.0276322
1.55152
57.661
140.671
312.511
52.3809
55.0487
10.5948
1.97753
37.2926
154.06
56.1062
0.0351861
0.0853745
13.0545
83.8087
0.000793136
1.00225
17.5135
192.449
0.000726895
49.1033
0.000680785
0.00643898
129.567
0.00079046
65.1918
1155.28
0.000738013
175.2
0.000870163
8.89603
0.00652176
0.00103361
47.4892
16.2117
64.588
8.45883
79.5055
350.457
105.557
5.96007
36.6476
20.335
0.000705296
162.939
0.0564786
88.5406
4.0301
10.5229
0.0344335
0.00108841
167.206
116.542
12.6447
48.3464
18.0963
0.0102898
0.000694829
0.000744443
1.65667
75.3319
17.2349
0.000703902
1167.59
20.4539
0.00959974
0.141655
20.1704
0.000666086
0.391871
0.000762217
0.000723747
21.4392
30.0157
0.0546038
0.00623589
0.000708802
29.0515
1.77133
20.7308
0.00231411
0.0321394
0.00737565
61.1216
103.279
1.23255
0.000729296
160.129
0.000780763
0.0336959
0.00415884
0.00141209
34.8349
64.8025
0.000725211
49.9424
0.000748745
0.000696257
0.000880714
53.4008
15.4299
53.2255
42.4486
20.0596
61.8451
0.0441844
0.00072878
0.00706401
0.00161773
2.86901
0.000713531
61.5502
11.7142
0.0330598
101.06
0.353543
22.2823
1.87804
0.00184093
125.499
56.7337
20.1992
0.00723925
0.146295
214.712
0.000732765
8.91339
57.7172
0.00072465
0.708062
0.00279638
19.5343
0.000691648
81.5063
37.2379
1.71638
0.430523
94.1788
365.902
4.71816
125.466
0.0010463
18.2743
0.000742358
0.00189161
3.87151