/*--------------------------------*- C++ -*----------------------------------*\
| =========                 |                                                 |
| \\      /  F ield         | OpenFOAM: The Open Source CFD Toolbox           |
|  \\    /   O peration     | Version:  2.3.1                                 |
|   \\  /    A nd           | Web:      www.OpenFOAM.org                      |
|    \\/     M anipulation  |                                                 |
\*---------------------------------------------------------------------------*/
FoamFile
{
    version     2.0;
    format      ascii;
    class       volVectorField;
    location    "0.04";
    object      U;
}
// * * * * * * * * * * * * * * * * * * * * * * * * * * * * * * * * * * * * * //

dimensions      [0 1 -1 0 0 0 0];

internalField   nonuniform List<vector> 
15166
(
(6.37451 0.573904 4.39721e-20)
(7.51537 1.07537 6.78933e-19)
(8.49916 0.902027 -4.92009e-19)
(9.42083 0.931079 4.34577e-19)
(10.1051 0.966104 4.91898e-19)
(10.7667 0.997082 2.81712e-19)
(11.307 1.06563 -5.82489e-19)
(11.7419 1.10656 5.68888e-19)
(12.0457 1.17035 -2.99538e-19)
(12.2741 1.20602 1.21006e-18)
(12.4366 1.23964 -8.97776e-19)
(12.5436 1.2762 9.14663e-19)
(7.09743 1.07041 2.478e-19)
(7.93947 1.49975 6.1063e-20)
(8.78536 1.2272 3.31627e-20)
(9.59638 1.22104 2.83344e-19)
(10.2433 1.20914 -2.29109e-19)
(10.8578 1.20792 0)
(11.3637 1.23938 2.88421e-19)
(11.766 1.25795 -1.46362e-21)
(12.0545 1.29014 2.98095e-19)
(12.2716 1.30762 -6.11607e-19)
(12.4265 1.32585 1.21606e-18)
(12.5366 1.34521 -9.19493e-19)
(7.66566 1.31702 -2.23785e-19)
(8.38718 1.6541 -1.43961e-18)
(9.13789 1.40135 3.03486e-19)
(9.84749 1.41384 -5.85506e-19)
(10.4406 1.38773 -1.86088e-20)
(10.9987 1.37417 5.95698e-19)
(11.4615 1.38378 -8.62087e-19)
(11.8272 1.38633 -3.12496e-19)
(12.0939 1.39729 5.95765e-19)
(12.294 1.40021 7.07492e-21)
(12.4376 1.40465 -9.1833e-19)
(12.5428 1.41074 1.2241e-18)
(7.98583 1.44194 0)
(8.70853 1.71513 -6.90888e-19)
(9.42864 1.5064 1.65118e-18)
(10.0802 1.5374 -9.55132e-19)
(10.6357 1.50908 6.22861e-19)
(11.1486 1.49476 9.48777e-19)
(11.5735 1.49407 -2.90147e-19)
(11.9068 1.4877 3.14943e-19)
(12.1517 1.48549 -6.20338e-19)
(12.3345 1.47806 6.22165e-19)
(12.4669 1.47161 3.14664e-19)
(12.5668 1.46652 6.32991e-19)
(8.20502 1.52092 -4.16994e-19)
(8.95541 1.75157 -3.93254e-19)
(9.66173 1.58443 -1.05635e-18)
(10.2789 1.62357 1.01003e-18)
(10.8107 1.59521 -3.22774e-19)
(11.2909 1.58305 -3.18592e-19)
(11.6859 1.57721 -3.1638e-19)
(11.9931 1.56593 3.34977e-19)
(12.219 1.55568 -3.18145e-19)
(12.3865 1.54143 -3.15327e-19)
(12.5083 1.52776 -9.58324e-19)
(12.601 1.5161 -5.61488e-21)
(8.39827 1.5763 8.26582e-19)
(9.17662 1.77387 8.09888e-19)
(9.86773 1.64341 -7.67595e-19)
(10.4581 1.68528 1.46764e-18)
(10.9709 1.65837 -1.42205e-18)
(11.425 1.64871 6.87773e-19)
(11.7958 1.63985 0)
(12.0816 1.62559 6.75323e-19)
(12.2913 1.61028 -1.32651e-18)
(12.4453 1.59145 6.53736e-19)
(12.5574 1.57281 0)
(12.6431 1.55636 9.75352e-19)
(8.57525 1.61351 -4.78302e-19)
(9.38206 1.783 4.46451e-19)
(10.058 1.68461 0)
(10.6261 1.72704 0)
(11.1214 1.70319 3.84895e-19)
(11.5532 1.69616 3.72857e-19)
(11.9031 1.68565 -7.14314e-19)
(12.1708 1.66968 1.04967e-18)
(12.3662 1.65111 3.4984e-19)
(12.5087 1.62903 0)
(12.6123 1.60653 3.41274e-19)
(12.6923 1.58629 0)
(8.73279 1.63614 -9.76981e-19)
(9.5695 1.78176 9.13768e-19)
(10.2329 1.711 4.18107e-19)
(10.783 1.75259 4.22062e-19)
(11.263 1.73268 -1.95947e-18)
(11.6755 1.72819 3.88362e-19)
(12.0074 1.71707 0)
(12.2594 1.70035 -3.5563e-19)
(12.4425 1.67985 3.64242e-19)
(12.575 1.65569 4.00702e-21)
(12.6712 1.63055 -6.81565e-19)
(12.7447 1.60792 6.84286e-19)
(8.87226 1.6473 1.02621e-18)
(9.7393 1.77287 -9.59426e-19)
(10.3926 1.72591 4.38027e-19)
(10.9286 1.76563 -1.27628e-18)
(11.3953 1.74984 1.64693e-18)
(11.7913 1.74753 -1.58942e-18)
(12.1078 1.73644 7.70646e-19)
(12.3463 1.71962 0)
(12.5188 1.69818 3.74549e-19)
(12.6427 1.67295 0)
(12.7323 1.64643 7.243e-19)
(12.8005 1.62223 -3.48257e-19)
(8.99701 1.64946 1.07544e-18)
(9.89415 1.75821 0)
(10.5392 1.73182 4.79243e-19)
(11.0637 1.76901 4.56445e-19)
(11.5187 1.75715 4.36703e-19)
(11.9005 1.75657 4.20668e-19)
(12.2038 1.74584 0)
(12.4308 1.72931 0)
(12.5942 1.70755 -1.13595e-18)
(12.7106 1.68182 1.87252e-18)
(12.7943 1.65455 -7.24266e-19)
(12.8574 1.6309 -1.08631e-18)
(9.10993 1.64449 1.11249e-18)
(10.0367 1.73904 -1.54201e-18)
(10.6748 1.73042 1.47241e-18)
(11.1896 1.76468 -1.38414e-18)
(11.6341 1.75645 -4.35266e-19)
(12.0036 1.75716 -4.197e-19)
(12.2954 1.74695 8.26289e-19)
(12.5125 1.73089 -8.05635e-19)
(12.668 1.70917 -1.18298e-18)
(12.778 1.68331 -3.77599e-19)
(12.8567 1.65521 1.51967e-18)
(12.9144 1.63066 -7.35799e-19)
(9.21288 1.6336 -1.15707e-18)
(10.1686 1.71609 -1.589e-18)
(10.8011 1.72283 -2.49608e-19)
(11.3076 1.75398 9.61402e-19)
(11.7424 1.74905 6.81713e-19)
(12.1011 1.75068 -1.76616e-18)
(12.3827 1.74108 1.70781e-18)
(12.5913 1.72559 -3.48506e-21)
(12.7398 1.70424 -1.21882e-18)
(12.8442 1.67879 7.92439e-19)
(12.9184 1.65084 -3.82752e-19)
(12.9716 1.62571 7.53367e-19)
(9.30706 1.61782 -8.90481e-19)
(10.291 1.69 -2.7971e-19)
(10.9191 1.71001 2.55088e-19)
(11.4183 1.73795 0)
(11.8443 1.73596 2.32458e-19)
(12.1934 1.73822 -2.30761e-19)
(12.466 1.72926 0)
(12.667 1.71438 0)
(12.8094 1.69353 2.10555e-19)
(12.9087 1.66866 0)
(12.978 1.64132 0)
(13.0258 1.61601 -7.69466e-19)
(9.39356 1.5979 -3.02211e-19)
(10.4052 1.66123 2.78466e-19)
(11.0298 1.69268 0)
(11.5225 1.71742 0)
(11.9404 1.71801 9.6801e-19)
(12.2809 1.72066 -7.07817e-19)
(12.5455 1.71229 9.00009e-19)
(12.7398 1.69798 -8.79129e-19)
(12.8769 1.67752 6.39814e-19)
(12.9719 1.65276 -5.25606e-21)
(13.0376 1.62542 -1.62949e-18)
(13.082 1.60515 9.9864e-19)
(9.47317 1.57444 -1.26078e-18)
(10.5119 1.63012 0)
(11.1339 1.67144 1.09001e-18)
(11.6208 1.69303 -1.30928e-18)
(12.0312 1.69588 0)
(12.3639 1.69871 2.42763e-19)
(12.6214 1.69093 9.22503e-19)
(12.8098 1.6772 -2.02368e-18)
(12.9422 1.65744 1.74837e-18)
(13.0335 1.63357 -8.56235e-19)
(13.0962 1.6063 8.31684e-19)
(13.1379 1.57915 -1.01843e-18)
(9.5466 1.54795 3.95366e-21)
(10.6118 1.59695 5.97266e-19)
(11.232 1.64679 0)
(11.7136 1.66531 2.62987e-19)
(12.1172 1.67012 0)
(12.4428 1.673 7.35099e-19)
(12.6939 1.66578 -7.98515e-21)
(12.877 1.65261 -6.96146e-19)
(13.0053 1.63349 0)
(13.093 1.61044 -2.20539e-19)
(13.1524 1.58409 2.1556e-19)
(13.1918 1.55534 0)
(9.6145 1.51885 3.22127e-19)
(10.7055 1.56198 -9.1703e-19)
(11.3247 1.61913 8.59321e-19)
(11.8015 1.63467 -4.97172e-21)
(12.1986 1.64119 2.58981e-19)
(12.5179 1.644 -2.50287e-19)
(12.7631 1.6373 0)
(12.9415 1.62464 0)
(13.0661 1.60612 9.10258e-19)
(13.1507 1.58376 -6.74898e-19)
(13.2071 1.55849 -4.35673e-19)
(13.2431 1.53098 -2.13744e-19)
(9.67726 1.48742 3.33182e-19)
(10.7937 1.52531 3.05765e-19)
(11.4125 1.58876 -2.88617e-19)
(11.8849 1.60147 5.52995e-19)
(12.276 1.60945 -1.32736e-18)
(12.5893 1.6121 2.61261e-19)
(12.8293 1.60587 0)
(13.0033 1.59374 4.77492e-19)
(13.1246 1.57587 -4.68752e-19)
(13.2066 1.55422 -6.82785e-19)
(13.2603 1.52998 2.2394e-19)
(13.2938 1.50422 6.48842e-19)
(9.73537 1.45397 0)
(10.8767 1.48715 0)
(11.4956 1.55599 0)
(11.9641 1.56598 2.85891e-19)
(12.3495 1.57521 0)
(12.6574 1.57763 5.19514e-19)
(12.8925 1.57184 -7.61606e-19)
(13.0627 1.56019 0)
(13.1809 1.543 -4.73501e-19)
(13.2604 1.52208 4.61697e-19)
(13.3119 1.4986 0)
(13.3433 1.47336 0)
(9.78922 1.41875 1.74866e-18)
(10.9549 1.44761 -1.28446e-18)
(11.5746 1.52104 6.07527e-19)
(12.0393 1.52844 -8.58498e-19)
(12.4195 1.53873 1.10429e-18)
(12.7223 1.54086 -7.94881e-19)
(12.9529 1.53545 7.70716e-19)
(13.1196 1.52426 2.4436e-19)
(13.235 1.50773 -9.69138e-19)
(13.3122 1.48759 7.08889e-19)
(13.3616 1.46496 0)
(13.3911 1.4393 0)
(9.8391 1.38194 -1.42366e-18)
(11.0287 1.4068 0)
(11.6495 1.48413 0)
(12.1108 1.48906 -5.82825e-19)
(12.4861 1.50022 5.64264e-19)
(12.7842 1.502 -8.05797e-19)
(13.0107 1.49693 5.34056e-21)
(13.1741 1.48614 7.60651e-19)
(13.287 1.47022 4.90561e-19)
(13.3619 1.45082 -4.8319e-19)
(13.4091 1.42925 -2.36676e-19)
(13.4364 1.40381 0)
(9.88518 1.34373 -1.08367e-18)
(11.0983 1.36483 1.00003e-18)
(11.7208 1.44545 0)
(12.1789 1.44799 -5.91838e-19)
(12.5495 1.45987 8.60822e-19)
(12.8433 1.46127 0)
(13.066 1.45648 0)
(13.2264 1.44602 2.59723e-19)
(13.337 1.4306 4.98581e-19)
(13.4101 1.41164 -4.91212e-19)
(13.4555 1.39058 4.77206e-19)
(13.4812 1.36733 0)
(9.92798 1.30416 -4.80796e-21)
(11.1641 1.32165 -1.009e-18)
(11.7887 1.40509 0)
(12.2437 1.40539 9.04632e-19)
(12.61 1.41786 -8.69015e-19)
(12.8997 1.41885 2.81109e-19)
(13.1189 1.4143 2.71814e-19)
(13.2766 1.40418 -7.80096e-19)
(13.3852 1.3893 5.11736e-19)
(13.4566 1.37098 -2.50071e-19)
(13.5007 1.3506 3.69224e-21)
(13.5246 1.32895 0)
(9.96699 1.26332 -7.4027e-19)
(11.226 1.27738 6.85351e-19)
(11.8532 1.36327 0)
(12.3055 1.3614 -3.03555e-19)
(12.6677 1.37434 0)
(12.9536 1.37491 -2.80751e-19)
(13.1696 1.37059 4.11134e-21)
(13.3248 1.36079 2.67458e-19)
(13.4315 1.34648 -2.60198e-19)
(13.5013 1.32882 -3.68287e-21)
(13.5441 1.30908 -2.53279e-21)
(13.5667 1.28958 -9.66043e-19)
(10.0029 1.22172 -3.80316e-19)
(11.2845 1.23249 -6.87378e-19)
(11.9145 1.32017 6.53284e-19)
(12.3643 1.31616 3.12121e-19)
(12.7227 1.32947 0)
(13.0051 1.32959 2.88788e-19)
(13.218 1.32548 -5.54838e-19)
(13.371 1.31598 -5.31828e-19)
(13.4759 1.30222 7.87042e-19)
(13.5443 1.28519 -3.54697e-21)
(13.5858 1.26586 -3.4325e-21)
(13.607 1.2469 2.44826e-19)
(10.0363 1.17915 3.74832e-19)
(11.3398 1.1866 -7.02841e-19)
(11.9729 1.27579 -3.31776e-19)
(12.4204 1.26977 -3.1156e-19)
(12.7752 1.28335 -3.03306e-19)
(13.0542 1.28302 2.89373e-19)
(13.2644 1.27908 -1.12835e-18)
(13.4152 1.26985 3.08099e-21)
(13.5184 1.2566 0)
(13.5855 1.24021 7.72571e-19)
(13.626 1.22153 -2.5755e-19)
(13.6464 1.20436 -2.46743e-19)
(10.0667 1.13565 -3.89692e-19)
(11.3918 1.13984 0)
(12.0285 1.23028 3.54951e-21)
(12.4739 1.2223 3.1891e-19)
(12.8252 1.23608 6.09708e-19)
(13.1011 1.23529 2.89007e-19)
(13.3086 1.2315 -1.14222e-18)
(13.4575 1.22253 2.80645e-19)
(13.5592 1.20979 8.11561e-19)
(13.6251 1.1941 0)
(13.6644 1.17601 0)
(13.6838 1.15882 0)
(10.094 1.09128 1.56704e-18)
(11.441 1.09227 -7.11858e-19)
(12.0814 1.18372 6.80543e-19)
(12.5248 1.17383 -3.19766e-19)
(12.8729 1.18774 6.23595e-19)
(13.1459 1.18648 8.87349e-19)
(13.3509 1.18281 -8.65826e-19)
(13.4979 1.17408 6.23541e-21)
(13.5983 1.16178 1.09232e-18)
(13.663 1.14664 -8.01419e-19)
(13.7012 1.12916 2.61084e-19)
(13.7196 1.11293 -5.01711e-19)
(10.1187 1.04663 -3.93775e-19)
(11.4872 1.04436 -3.6289e-19)
(12.1316 1.13616 -3.38618e-19)
(12.5733 1.12443 -6.45412e-19)
(12.9183 1.13841 -3.03321e-19)
(13.1885 1.13669 3.02334e-19)
(13.3913 1.13312 2.86384e-19)
(13.5366 1.1246 -8.47062e-19)
(13.6357 1.11273 2.80154e-19)
(13.6995 1.09812 5.37444e-19)
(13.7369 1.08121 -2.61159e-19)
(13.7545 1.06731 -2.5856e-19)
(10.1409 1.0017 -7.95393e-19)
(11.5305 0.99598 1.46262e-18)
(12.1793 1.08768 0)
(12.6194 1.07419 0)
(12.9616 1.08819 0)
(13.2292 1.086 6.07752e-19)
(13.4298 1.08251 5.88734e-19)
(13.5735 1.07422 -2.84368e-19)
(13.6715 1.06279 2.79989e-19)
(13.7344 1.04879 2.94814e-21)
(13.7711 1.03229 -5.28266e-19)
(13.7878 1.01871 5.21615e-19)
(10.1613 0.956354 8.08657e-19)
(11.5713 0.946957 -1.81052e-19)
(12.2246 1.0383 -1.74537e-19)
(12.6633 1.02319 0)
(13.0027 1.03715 0)
(13.2678 1.03448 -3.05297e-19)
(13.4665 1.03107 2.95655e-19)
(13.6088 1.02299 -5.81155e-19)
(13.7057 1.01201 2.79758e-19)
(13.7677 0.998607 -8.25774e-19)
(13.8037 0.982754 0)
(13.8199 0.970312 -2.61358e-19)
(10.1791 0.910291 -1.6278e-18)
(11.6094 0.897087 5.6274e-19)
(12.2676 0.988082 1.74326e-19)
(12.7049 0.971437 -4.96371e-19)
(13.0419 0.985312 6.44992e-19)
(13.3046 0.982177 0)
(13.5014 0.978837 5.97188e-19)
(13.6423 0.970971 -5.86925e-19)
(13.7382 0.9604 0)
(13.7995 0.947596 0)
(13.8347 0.932261 0)
(13.8501 0.919012 5.24238e-19)
(10.1945 0.864135 0)
(11.6448 0.847046 0)
(12.3081 0.937229 -3.51453e-19)
(12.7444 0.919003 1.94208e-21)
(13.079 0.932758 0)
(13.3396 0.929166 -6.21808e-19)
(13.5346 0.925884 1.36444e-18)
(13.6742 0.918197 -4.44532e-19)
(13.7692 0.908007 -5.70717e-19)
(13.8298 0.895723 1.47139e-19)
(13.8644 0.881099 6.28545e-21)
(13.8792 0.868687 5.40746e-19)
(10.2079 0.817538 4.12949e-19)
(11.6779 0.796345 -1.90409e-19)
(12.3465 0.885667 1.78922e-19)
(12.7818 0.865964 -1.68719e-19)
(13.1142 0.879552 8.16496e-19)
(13.3727 0.875499 -1.58714e-19)
(13.5661 0.872263 -4.56192e-19)
(13.7046 0.86476 -2.93788e-19)
(13.7987 0.85496 2.91275e-19)
(13.8586 0.843205 -2.82802e-19)
(13.8927 0.829174 1.389e-19)
(13.9068 0.816561 -1.32815e-19)
(10.2193 0.770493 6.26746e-19)
(11.7086 0.74513 -5.72426e-19)
(12.3827 0.833501 -1.78762e-19)
(12.8173 0.812307 1.71643e-19)
(13.1475 0.82573 -4.90904e-19)
(13.404 0.821227 4.77498e-19)
(13.5959 0.81803 -3.45138e-21)
(13.7333 0.810722 -1.52215e-19)
(13.8267 0.801332 -2.90498e-19)
(13.8861 0.790123 4.29066e-19)
(13.9196 0.776889 1.3855e-19)
(13.9335 0.765456 -4.1261e-19)
(10.2282 0.723301 2.12017e-19)
(11.7368 0.69368 0)
(12.4167 0.780821 -1.81567e-19)
(12.8507 0.758109 1.37259e-21)
(13.179 0.77133 0)
(13.4336 0.766376 1.60789e-19)
(13.624 0.763218 0)
(13.7604 0.756116 0)
(13.8531 0.747159 0)
(13.9119 0.73656 0)
(13.9449 0.724097 -2.79903e-19)
(13.9582 0.712542 5.50024e-19)
(10.2357 0.675891 -4.25534e-19)
(11.7628 0.64192 0)
(12.4487 0.72765 3.64226e-19)
(12.8822 0.703361 -1.72739e-19)
(13.2086 0.716393 -3.31945e-19)
(13.4614 0.710986 1.63747e-19)
(13.6505 0.707849 -3.11282e-19)
(13.7859 0.700913 3.06245e-19)
(13.8779 0.692314 -2.95217e-19)
(13.9361 0.68219 3.33745e-21)
(13.9685 0.670501 1.4566e-19)
(13.9811 0.660393 2.77549e-19)
(10.2411 0.62796 0)
(11.7866 0.589554 -1.95006e-19)
(12.4787 0.673928 -1.82678e-19)
(12.9118 0.64808 0)
(13.2365 0.660945 -3.34209e-19)
(13.4876 0.655068 6.49792e-19)
(13.6754 0.651941 -3.17027e-19)
(13.8099 0.645146 0)
(13.9013 0.636857 0)
(13.9591 0.627071 -1.46612e-19)
(13.9909 0.615788 -1.42458e-19)
(14.0025 0.609307 0)
(10.2445 0.580031 4.28863e-19)
(11.8081 0.537176 -5.01565e-21)
(12.5066 0.619831 -3.27199e-21)
(12.9395 0.592323 -3.75562e-21)
(13.2626 0.605037 -5.09535e-19)
(13.5122 0.59869 0)
(13.6988 0.595556 0)
(13.8325 0.588892 0)
(13.9234 0.580913 0)
(13.9809 0.571432 1.46666e-19)
(14.0128 0.559806 -1.41756e-19)
(14.0247 0.555938 3.02982e-21)
(10.2465 0.531641 -5.40612e-19)
(11.8273 0.484283 5.92075e-19)
(12.5325 0.565267 3.69116e-19)
(12.9654 0.536109 -3.55417e-19)
(13.2871 0.548724 8.42415e-20)
(13.5351 0.541904 0)
(13.7207 0.53879 3.17618e-19)
(13.8537 0.532291 -3.54491e-21)
(13.9441 0.524756 -3.05026e-19)
(14.0012 0.516091 0)
(14.033 0.505022 -2.17347e-19)
(14.045 0.494353 0)
(10.2465 0.483213 2.07608e-21)
(11.8444 0.431251 3.98211e-19)
(12.5564 0.510286 9.35987e-20)
(12.9894 0.47953 2.6453e-19)
(13.3098 0.492069 -2.58592e-19)
(13.5565 0.484758 0)
(13.741 0.481656 3.19562e-19)
(13.8733 0.475297 -3.56609e-21)
(13.9633 0.468052 -2.3045e-19)
(14.0201 0.459837 0)
(14.0514 0.449902 1.46018e-19)
(14.0633 0.443803 0)
(10.2453 0.434841 1.34401e-21)
(11.8593 0.377944 2.99937e-19)
(12.5783 0.454789 -9.35629e-20)
(13.0117 0.422653 1.78612e-19)
(13.3308 0.435113 0)
(13.5762 0.42727 0)
(13.7598 0.424184 -8.10242e-20)
(13.8915 0.417968 -7.88904e-20)
(13.9811 0.411056 -7.6546e-20)
(14.0377 0.403303 -7.52486e-20)
(14.0687 0.393876 -1.45682e-19)
(14.0797 0.388364 1.43841e-19)
(10.2424 0.386218 -1.10213e-19)
(11.8721 0.324089 -9.97078e-20)
(12.5984 0.398798 1.87526e-19)
(13.0322 0.365494 -4.48709e-19)
(13.3503 0.377839 1.73745e-19)
(13.5944 0.369463 0)
(13.7771 0.366391 8.10257e-20)
(13.9083 0.360313 7.88999e-20)
(13.9976 0.353743 -1.53519e-19)
(14.0539 0.346435 2.27125e-19)
(14.0847 0.337473 1.47356e-19)
(14.0954 0.332704 -1.45915e-19)
(10.2379 0.337869 0)
(11.8826 0.270333 0)
(12.6166 0.342453 9.49906e-20)
(13.051 0.308018 0)
(13.3681 0.3203 -8.70694e-20)
(13.6111 0.311356 8.42612e-20)
(13.7929 0.308297 1.62399e-19)
(13.9236 0.302346 -2.39675e-19)
(14.0126 0.296111 0)
(14.0687 0.289286 -7.60862e-20)
(14.0993 0.280837 7.36626e-20)
(14.1097 0.275109 -2.18442e-19)
(10.2319 0.289338 5.59424e-20)
(11.891 0.216198 2.01185e-19)
(12.6328 0.285664 -2.85943e-19)
(13.068 0.250249 0)
(13.3844 0.262525 4.33252e-20)
(13.6262 0.25298 8.37287e-20)
(13.8073 0.24993 -3.28203e-19)
(13.9375 0.244092 3.99418e-19)
(14.0262 0.238166 -1.56933e-19)
(14.0822 0.231775 1.14355e-19)
(14.1127 0.223982 0)
(14.1232 0.218572 7.33089e-20)
(10.2242 0.240935 -5.59627e-20)
(11.8975 0.162109 0)
(12.647 0.228591 -4.7137e-20)
(13.0835 0.192274 9.14991e-20)
(13.3991 0.204569 1.30857e-19)
(13.6399 0.194332 -8.52969e-20)
(13.8203 0.191308 -4.12911e-20)
(13.95 0.185592 4.02271e-20)
(14.0385 0.179998 7.79375e-20)
(14.0943 0.174123 -1.15379e-19)
(14.1246 0.167203 -3.76317e-20)
(14.1348 0.160587 -3.66852e-20)
(10.2151 0.192539 -8.3759e-20)
(11.902 0.107822 1.2783e-19)
(12.659 0.171432 -7.19105e-20)
(13.0973 0.134292 1.13757e-19)
(13.4123 0.146338 -1.97922e-19)
(13.6521 0.1354 1.70343e-19)
(13.8318 0.132443 -6.26547e-20)
(13.9612 0.126827 3.99443e-20)
(14.0494 0.12152 -1.57481e-19)
(14.1051 0.115965 5.81836e-20)
(14.1352 0.109675 3.76556e-20)
(14.1453 0.103649 3.70484e-20)
(10.2045 0.144321 -8.44495e-20)
(11.9047 0.0535075 2.58817e-20)
(12.6693 0.114149 2.4028e-20)
(13.1094 0.0762982 -2.28692e-20)
(13.4239 0.0879045 -2.18716e-20)
(13.6628 0.0762178 4.29831e-20)
(13.8419 0.07336 2.07335e-20)
(13.9709 0.0678465 0)
(14.0591 0.0628526 0)
(14.1147 0.0577142 1.93044e-20)
(14.1447 0.0521997 0)
(14.1546 0.0462163 0)
(10.1928 0.0961165 -1.41953e-20)
(11.9058 -0.00107181 1.27651e-20)
(12.6778 0.0566227 6.4682e-22)
(13.1198 0.0183229 -1.192e-20)
(13.434 0.029302 0)
(13.6719 0.0167783 0)
(13.8506 0.0141119 1.10178e-20)
(13.9793 0.00867896 -2.03176e-20)
(14.0674 0.00398766 9.97947e-21)
(14.123 -0.000823687 6.07751e-22)
(14.153 -0.00579718 0)
(14.1628 -0.0107831 0)
(10.1794 0.0481581 4.27602e-20)
(11.9051 -0.0560121 2.56071e-20)
(12.6845 -0.00101318 -1.293e-20)
(13.1287 -0.0396297 3.5968e-22)
(13.4423 -0.0297657 -1.11254e-20)
(13.6796 -0.0427996 1.07718e-20)
(13.8579 -0.0452054 -1.11267e-20)
(13.9864 -0.0506109 -3.04815e-20)
(14.0743 -0.0549949 -9.74415e-21)
(14.1299 -0.0593768 9.23638e-21)
(14.1599 -0.0636361 -9.56372e-21)
(14.1696 -0.0681759 0)
(10.1646 0.000555252 4.25659e-20)
(11.9025 -0.110891 -7.74066e-20)
(12.6895 -0.0584714 1.22923e-20)
(13.136 -0.0977799 -2.28648e-20)
(13.449 -0.0892798 3.38968e-20)
(13.686 -0.102343 3.26234e-20)
(13.8638 -0.104607 1.04769e-20)
(13.9921 -0.110063 1.02127e-20)
(14.08 -0.114167 9.97793e-21)
(14.1356 -0.118245 2.93465e-20)
(14.1655 -0.122069 -9.62112e-21)
(14.1746 -0.124861 5.64263e-20)
(10.1485 -0.0469166 -5.66244e-20)
(11.8979 -0.165861 -7.6577e-20)
(12.6928 -0.115934 1.22021e-19)
(13.1414 -0.156194 -2.31414e-20)
(13.4542 -0.148832 -1.11114e-19)
(13.691 -0.161744 1.73038e-19)
(13.8684 -0.164259 -4.2501e-20)
(13.9965 -0.169693 0)
(14.0844 -0.173482 4.01358e-20)
(14.1402 -0.177318 -1.95935e-20)
(14.1703 -0.181219 1.92063e-20)
(14.1799 -0.182342 -1.88828e-20)
(10.1309 -0.0942041 -1.15698e-19)
(11.8916 -0.220789 -6.15804e-22)
(12.6945 -0.173458 0)
(13.1452 -0.214701 -9.2429e-20)
(13.4581 -0.20836 8.99345e-20)
(13.6944 -0.221219 0)
(13.8715 -0.223998 8.60965e-23)
(13.9996 -0.229294 0)
(14.0876 -0.232755 -4.01531e-20)
(14.1435 -0.236033 0)
(14.174 -0.239406 0)
(14.1839 -0.23957 -7.47089e-20)
(10.1119 -0.141155 5.76138e-20)
(11.8834 -0.275471 5.11762e-20)
(12.6944 -0.230921 -3.90742e-19)
(13.1474 -0.273212 3.72364e-19)
(13.4605 -0.267914 -1.80176e-19)
(13.6965 -0.280775 0)
(13.8732 -0.283782 -4.22032e-20)
(14.0013 -0.288908 0)
(14.0894 -0.292062 0)
(14.1455 -0.294845 0)
(14.1759 -0.297788 0)
(14.1859 -0.297588 -1.50249e-19)
(10.0916 -0.187888 1.15676e-19)
(11.8736 -0.330057 2.08054e-19)
(12.6926 -0.288407 0)
(13.148 -0.331752 2.78796e-19)
(13.4614 -0.327458 -9.06077e-20)
(13.697 -0.340381 0)
(13.8736 -0.343609 -8.36088e-20)
(14.0016 -0.348582 8.44578e-20)
(14.0899 -0.351482 1.6227e-19)
(14.146 -0.353831 2.36149e-19)
(14.1765 -0.356247 -1.55842e-19)
(14.1866 -0.356898 7.54858e-20)
(10.0702 -0.234243 -4.63395e-19)
(11.8619 -0.384394 -1.04147e-19)
(12.6892 -0.345916 9.8166e-20)
(13.1471 -0.390318 1.0942e-22)
(13.4609 -0.386983 -8.98381e-20)
(13.6962 -0.400016 8.71225e-20)
(13.8726 -0.403467 8.38221e-20)
(14.0007 -0.408306 -2.48791e-19)
(14.089 -0.410995 0)
(14.1454 -0.41302 -2.3634e-19)
(14.1761 -0.41491 3.10301e-19)
(14.1864 -0.415284 -3.05589e-19)
(10.0472 -0.280593 2.32146e-19)
(11.8487 -0.438784 2.08041e-19)
(12.684 -0.403383 -1.97079e-19)
(13.1446 -0.448872 -9.34166e-20)
(13.4588 -0.446481 1.79002e-19)
(13.6939 -0.459652 -8.90341e-20)
(13.8702 -0.463303 -8.57127e-20)
(13.9984 -0.468001 8.27541e-20)
(14.087 -0.470462 0)
(14.1436 -0.472095 0)
(14.1745 -0.473315 0)
(14.1848 -0.473695 8.63454e-22)
(10.0229 -0.326277 -2.32523e-19)
(11.8334 -0.492619 0)
(12.677 -0.460761 5.68201e-23)
(13.1405 -0.507373 0)
(13.4554 -0.505916 9.00866e-20)
(13.6903 -0.51924 -3.4705e-19)
(13.8665 -0.52308 2.56527e-19)
(13.9948 -0.527642 -8.27619e-20)
(14.0836 -0.529875 0)
(14.1406 -0.531236 -3.15259e-19)
(14.1719 -0.532158 3.12767e-19)
(14.183 -0.53143 -7.66292e-20)
(9.99746 -0.372017 -3.49366e-19)
(11.8166 -0.546515 2.09251e-19)
(12.6684 -0.518018 -2.9531e-19)
(13.1348 -0.565786 1.87264e-19)
(13.4504 -0.565261 -2.70331e-19)
(13.6852 -0.578774 0)
(13.8615 -0.582774 0)
(13.9899 -0.587172 3.29492e-19)
(14.079 -0.589085 -4.87798e-19)
(14.1363 -0.589845 -1.56833e-19)
(14.168 -0.589811 1.57401e-19)
(14.1795 -0.590185 0)
(9.97041 -0.417365 0)
(11.7979 -0.600048 -1.41473e-21)
(12.6581 -0.575119 -1.984e-19)
(13.1276 -0.62411 -1.81651e-21)
(13.444 -0.62449 -1.82119e-19)
(13.6788 -0.638211 5.21935e-19)
(13.855 -0.642381 -3.41651e-19)
(13.9836 -0.646644 1.63866e-19)
(14.0729 -0.648316 -1.63897e-19)
(14.1305 -0.648744 1.56892e-19)
(14.1623 -0.648042 -1.57454e-19)
(14.1737 -0.645519 3.02083e-19)
(9.94238 -0.462351 7.00102e-19)
(11.7778 -0.653257 2.09528e-19)
(12.6461 -0.632049 0)
(13.1189 -0.682307 3.74799e-19)
(13.4361 -0.683619 3.5871e-19)
(13.6709 -0.697577 -1.78477e-19)
(13.8472 -0.701923 -3.41682e-19)
(13.9759 -0.706079 4.12875e-23)
(14.0656 -0.707527 0)
(14.1234 -0.70766 0)
(14.1555 -0.706613 0)
(14.1667 -0.703048 0)
(9.91324 -0.507129 -7.00754e-19)
(11.7559 -0.706329 -2.09536e-19)
(12.6324 -0.688903 0)
(13.1086 -0.740408 -1.87475e-19)
(13.4268 -0.742644 -1.80253e-19)
(13.6617 -0.75686 -1.72753e-19)
(13.8381 -0.761385 3.77811e-21)
(13.967 -0.765465 8.28561e-19)
(14.057 -0.76673 -3.2591e-19)
(14.1152 -0.766616 0)
(14.1477 -0.765623 3.09457e-19)
(14.1594 -0.762253 -3.07385e-19)
(9.88251 -0.551731 -2.33842e-19)
(11.7322 -0.759212 1.42317e-21)
(12.617 -0.745551 1.98585e-19)
(13.0967 -0.798375 0)
(13.416 -0.801523 1.93592e-21)
(13.6511 -0.816006 3.50859e-19)
(13.8276 -0.820712 -3.37703e-19)
(13.9568 -0.824714 4.98726e-19)
(14.0472 -0.825763 0)
(14.1058 -0.825225 0)
(14.1388 -0.823604 0)
(14.1512 -0.820612 4.5367e-19)
(9.85039 -0.595883 -9.35069e-19)
(11.7068 -0.811627 -6.27527e-19)
(12.5999 -0.801901 5.92693e-19)
(13.0832 -0.856134 0)
(13.4038 -0.86022 -3.60342e-19)
(13.6391 -0.874986 -1.74509e-19)
(13.8158 -0.879857 0)
(13.9454 -0.883782 3.29046e-19)
(14.0362 -0.884646 -3.25591e-19)
(14.0953 -0.883831 0)
(14.1287 -0.881891 0)
(14.1416 -0.877719 -1.52793e-19)
(9.81706 -0.639744 9.32591e-19)
(11.6798 -0.863748 -2.12026e-19)
(12.581 -0.858004 -1.9499e-19)
(13.0682 -0.913672 1.89431e-19)
(13.3901 -0.918697 1.80169e-19)
(13.6257 -0.933754 -5.20807e-19)
(13.8027 -0.93879 3.4097e-19)
(13.9326 -0.942628 -3.3075e-19)
(14.0239 -0.943269 -3.21603e-19)
(14.0835 -0.942035 3.1865e-19)
(14.1175 -0.939528 0)
(14.1309 -0.935203 -1.51435e-19)
(9.78244 -0.683136 4.64559e-19)
(11.6512 -0.915399 -6.30862e-19)
(12.5606 -0.913815 -1.96986e-19)
(13.0517 -0.970976 1.11886e-18)
(13.375 -0.976949 -7.23091e-19)
(13.611 -0.992304 1.74234e-19)
(13.7882 -0.997501 6.73634e-19)
(13.9185 -1.00126 -4.99216e-19)
(14.0103 -1.00168 1.61412e-19)
(14.0705 -1.00011 0)
(14.105 -0.997218 0)
(14.1189 -0.992475 1.52258e-19)
(9.74704 -0.726144 -4.43837e-22)
(11.6208 -0.966631 0)
(12.5384 -0.96938 5.85893e-19)
(13.0336 -1.02804 -9.38849e-19)
(13.3585 -1.03495 -7.1481e-19)
(13.5949 -1.05064 6.99317e-19)
(13.7724 -1.05598 5.03757e-19)
(13.9031 -1.05964 -8.28591e-19)
(13.9954 -1.05985 -1.61466e-19)
(14.0561 -1.05785 -7.86285e-19)
(14.0911 -1.05424 4.68846e-19)
(14.1056 -1.05032 0)
(9.70975 -0.769122 -2.33797e-19)
(11.5888 -1.01788 0)
(12.5145 -1.02468 9.78162e-19)
(13.0139 -1.08486 -1.49368e-18)
(13.3404 -1.09273 3.62799e-19)
(13.5773 -1.10872 -3.4683e-19)
(13.7553 -1.11422 1.69033e-19)
(13.8864 -1.11781 4.90992e-19)
(13.9792 -1.11785 -6.47929e-19)
(14.0404 -1.1156 1.57921e-19)
(14.076 -1.11152 4.61209e-19)
(14.0908 -1.10798 -6.10412e-19)
(9.67094 -0.811251 4.66035e-19)
(11.555 -1.06826 4.17223e-19)
(12.4888 -1.07952 7.80568e-19)
(12.9927 -1.14132 -1.4918e-18)
(13.3209 -1.1502 1.07878e-18)
(13.5584 -1.16653 -3.42419e-19)
(13.7368 -1.17221 3.41241e-19)
(13.8684 -1.17573 3.29203e-19)
(13.9617 -1.17554 0)
(14.0236 -1.17294 0)
(14.0597 -1.16798 -3.05176e-19)
(14.0751 -1.16497 7.08229e-21)
(9.63143 -0.853006 -1.30904e-21)
(11.5197 -1.1182 -1.1527e-21)
(12.4615 -1.13399 0)
(12.9698 -1.19748 -3.69021e-19)
(13.2999 -1.20738 1.07565e-18)
(13.5381 -1.22405 -3.45428e-19)
(13.7169 -1.22991 -6.68012e-19)
(13.849 -1.23339 3.32344e-19)
(13.9429 -1.23301 3.17597e-19)
(14.0054 -1.23021 -9.45999e-19)
(14.0422 -1.22468 0)
(14.0579 -1.22216 -3.0246e-19)
(9.59065 -0.894385 -1.42726e-21)
(11.4825 -1.16773 4.12868e-19)
(12.4325 -1.18815 -3.94326e-19)
(12.9454 -1.2533 -1.11126e-18)
(13.2775 -1.26425 -3.49897e-19)
(13.5164 -1.2813 1.38416e-18)
(13.6957 -1.28732 1.02681e-21)
(13.8284 -1.29074 1.00157e-21)
(13.9229 -1.29015 3.2053e-19)
(13.986 -1.28705 3.14037e-19)
(14.0235 -1.28068 0)
(14.0401 -1.27703 8.98248e-19)
(9.54861 -0.935484 -4.65512e-19)
(11.4441 -1.21695 -4.14881e-19)
(12.4017 -1.24186 -3.90844e-19)
(12.9194 -1.30877 -3.67635e-19)
(13.2536 -1.32079 7.15463e-19)
(13.4933 -1.33823 -1.0296e-18)
(13.6732 -1.34442 3.4268e-19)
(13.8064 -1.34781 6.57763e-19)
(13.9016 -1.34701 0)
(13.9653 -1.34372 3.09676e-19)
(14.0034 -1.33697 -1.22684e-18)
(14.0201 -1.33265 6.071e-19)
(9.5049 -0.976044 4.60241e-19)
(11.4035 -1.26568 -4.1847e-19)
(12.3693 -1.29527 -1.16279e-18)
(12.8918 -1.36391 4.07891e-21)
(13.2282 -1.37697 0)
(13.4689 -1.3948 -3.42715e-19)
(13.6493 -1.4012 -3.33182e-19)
(13.7831 -1.40457 3.26162e-19)
(13.879 -1.40362 0)
(13.9434 -1.40012 3.12384e-19)
(13.9823 -1.39321 6.08406e-19)
(13.9999 -1.38842 -7.09721e-21)
(9.45965 -1.01586 4.64041e-19)
(11.3615 -1.31356 0)
(12.3348 -1.34799 7.74091e-19)
(12.8625 -1.41853 -3.72198e-19)
(13.2013 -1.43274 -3.53427e-19)
(13.443 -1.45098 1.02408e-18)
(13.6241 -1.45759 -9.97708e-19)
(13.7586 -1.46096 9.76795e-19)
(13.8551 -1.45983 0)
(13.9204 -1.45599 -3.07923e-19)
(13.96 -1.4485 9.17609e-19)
(13.9784 -1.443 2.98088e-19)
(9.41378 -1.05515 -9.23803e-19)
(11.318 -1.36084 4.10644e-19)
(12.2989 -1.40024 -5.22411e-21)
(12.8317 -1.47276 -7.39214e-19)
(13.173 -1.48813 7.05873e-19)
(13.4157 -1.50678 0)
(13.5976 -1.51362 -3.30913e-19)
(13.7327 -1.51699 -3.24084e-19)
(13.83 -1.51573 0)
(13.896 -1.51172 3.0552e-19)
(13.9365 -1.50414 -9.15529e-19)
(13.9556 -1.49828 -2.99023e-19)
(9.36687 -1.09413 0)
(11.2726 -1.40778 1.84741e-21)
(12.2613 -1.45212 1.15489e-18)
(12.7993 -1.52655 -7.61246e-21)
(13.1432 -1.54311 -1.75967e-18)
(13.3871 -1.56218 1.3601e-18)
(13.5697 -1.56922 -1.32044e-18)
(13.7056 -1.57259 6.48215e-19)
(13.8037 -1.57117 0)
(13.8705 -1.56682 0)
(13.9118 -1.55866 -3.00105e-19)
(13.9321 -1.55263 5.93912e-19)
(9.3182 -1.13257 0)
(11.2255 -1.45412 1.98863e-21)
(12.2218 -1.50348 -1.14899e-18)
(12.7653 -1.57986 7.34701e-19)
(13.1119 -1.59759 0)
(13.3571 -1.61714 6.739e-19)
(13.5405 -1.62439 -3.32043e-19)
(13.6772 -1.62774 0)
(13.7761 -1.62621 -6.24142e-19)
(13.8438 -1.62167 6.18359e-19)
(13.8859 -1.61336 -3.0229e-19)
(13.9068 -1.60701 0)
(9.26806 -1.17051 9.16603e-19)
(11.1771 -1.49994 4.09911e-19)
(12.1806 -1.55419 7.66674e-19)
(12.7296 -1.63264 0)
(13.0791 -1.65161 6.94692e-19)
(13.3256 -1.67162 -3.43967e-19)
(13.5099 -1.67908 -6.59386e-19)
(13.6474 -1.68245 0)
(13.7472 -1.68075 3.11686e-19)
(13.8159 -1.67587 0)
(13.859 -1.667 0)
(13.8809 -1.66024 0)
(9.21646 -1.20766 4.53536e-19)
(11.1265 -1.54498 -8.19278e-19)
(12.1375 -1.60434 -3.82952e-19)
(12.6922 -1.68488 0)
(13.0447 -1.7051 6.91947e-19)
(13.2927 -1.7256 -3.38818e-19)
(13.4779 -1.73328 -6.49144e-19)
(13.6163 -1.73663 9.57557e-19)
(13.717 -1.73479 -9.3061e-19)
(13.7866 -1.72969 9.16909e-19)
(13.8307 -1.72064 -8.92744e-19)
(13.8535 -1.71368 6.95677e-21)
(9.16373 -1.24404 1.81628e-18)
(11.0744 -1.58909 -4.11265e-19)
(12.0926 -1.65378 0)
(12.6531 -1.73651 1.07854e-18)
(13.0088 -1.75807 -7.22896e-21)
(13.2583 -1.77904 -6.72763e-19)
(13.4446 -1.78695 -3.2391e-19)
(13.5838 -1.79031 -1.83905e-21)
(13.6855 -1.78825 6.15757e-19)
(13.756 -1.78274 -6.11828e-19)
(13.8012 -1.77286 1.18656e-18)
(13.8251 -1.76539 -1.16289e-18)
(9.10992 -1.27996 -9.06876e-19)
(11.0207 -1.6326 -4.05478e-19)
(12.0458 -1.70259 -3.77487e-19)
(12.6124 -1.78754 -2.19776e-21)
(12.9713 -1.81047 -3.4374e-19)
(13.2225 -1.83195 -6.62307e-19)
(13.4098 -1.84012 6.52096e-19)
(13.55 -1.84351 -1.93689e-21)
(13.6526 -1.84131 0)
(13.724 -1.83558 -9.02651e-19)
(13.7698 -1.82527 5.93616e-19)
(13.794 -1.8165 0)
(9.05475 -1.3153 4.57679e-19)
(10.9653 -1.67549 8.0909e-19)
(11.9975 -1.75077 1.12804e-18)
(12.5699 -1.83797 -1.07857e-18)
(12.9323 -1.8623 -3.38358e-19)
(13.1852 -1.88434 9.96124e-19)
(13.3737 -1.8928 3.22592e-19)
(13.5148 -1.89623 -3.14499e-19)
(13.6184 -1.89399 -1.21874e-18)
(13.6907 -1.88823 1.20718e-18)
(13.7375 -1.87809 -2.95247e-19)
(13.7625 -1.86883 -1.15376e-18)
(8.99804 -1.34997 -8.95003e-19)
(10.9081 -1.71768 1.60374e-18)
(11.9472 -1.79829 -3.79053e-19)
(12.5257 -1.88778 3.54723e-19)
(12.8917 -1.91356 3.40135e-19)
(13.1465 -1.93614 -2.2401e-21)
(13.3362 -1.94489 9.53605e-19)
(13.4784 -1.94837 -1.25411e-18)
(13.583 -1.94606 0)
(13.6565 -1.94008 2.97353e-19)
(13.7047 -1.92989 0)
(13.7313 -1.92081 2.87054e-19)
(8.93983 -1.38388 -1.78184e-18)
(10.8491 -1.75903 1.60262e-18)
(11.895 -1.84504 -3.74476e-19)
(12.4799 -1.9369 -3.55328e-19)