/*--------------------------------*- C++ -*----------------------------------*\
| =========                 |                                                 |
| \\      /  F ield         | OpenFOAM: The Open Source CFD Toolbox           |
|  \\    /   O peration     | Version:  2.3.1                                 |
|   \\  /    A nd           | Web:      www.OpenFOAM.org                      |
|    \\/     M anipulation  |                                                 |
\*---------------------------------------------------------------------------*/
FoamFile
{
    version     2.0;
    format      ascii;
    class       volScalarField;
    location    "0.35";
    object      epsilon;
}
// * * * * * * * * * * * * * * * * * * * * * * * * * * * * * * * * * * * * * //

dimensions      [0 2 -3 0 0 0 0];

internalField   nonuniform List<scalar> 
15166
(
1077.24
1002.85
999.283
1062.76
1105.16
1134
1104.79
1021.68
920.954
804.347
687.328
588.325
1077.82
881.818
930.221
1000.25
1044.52
1067.73
1035.77
958.475
862.87
755.313
647.927
549.852
1089.9
787.245
863.855
939.216
985.847
1005.38
973.048
901.074
811.138
711.478
611.696
516.903
1105.78
716.171
804.647
882.504
930.405
947.298
915.84
848.87
764.651
671.913
578.25
485.843
1123.08
662.699
753.039
831.143
879.109
893.847
863.748
801.405
722.638
636.035
547.691
459.022
1141.85
621.59
707.797
784.718
831.912
844.855
816.276
758.17
684.5
603.328
519.65
434.249
1162.19
589.434
667.85
742.6
788.462
799.903
772.892
718.688
649.701
573.362
493.706
410.58
1183.74
564.06
632.457
704.291
748.431
758.608
733.141
682.511
617.815
545.815
469.838
389.803
1206.29
543.969
601.034
669.393
711.535
720.622
696.625
649.255
588.493
520.421
447.845
370.814
1229.53
528.05
573.059
637.532
677.502
685.623
663.006
618.618
561.438
496.951
427.608
353.966
1253.21
515.473
548.083
608.369
646.064
653.319
631.976
590.31
536.413
475.218
408.934
338.467
1277.22
505.596
525.718
581.611
616.983
623.446
603.274
564.087
513.197
455.059
391.816
325.201
1301.4
497.929
505.639
556.997
590.031
595.762
576.659
539.735
491.613
436.331
376.065
313.294
1325.62
492.081
487.57
534.307
565.015
570.06
551.927
517.077
471.495
418.874
361.302
300.697
1349.72
487.739
471.273
513.349
541.758
546.15
528.901
495.942
452.717
402.599
347.651
290.191
1373.68
484.65
456.543
493.952
520.1
523.872
507.425
476.204
435.146
387.373
334.94
280.321
1397.34
482.609
443.2
475.97
499.902
503.074
487.354
457.723
418.681
373.118
323.051
270.887
1420.73
481.445
431.097
459.272
481.037
483.625
468.561
440.402
403.233
359.744
311.904
262.034
1443.75
481.012
420.098
443.741
463.389
465.41
450.943
424.129
388.709
347.173
301.457
253.889
1466.27
481.196
410.087
429.277
446.86
448.326
434.393
408.826
375.032
335.345
291.636
246.201
1488.25
481.892
400.962
415.786
431.357
432.274
418.827
394.411
362.14
324.184
282.353
238.711
1509.73
483.022
392.634
403.189
416.796
417.178
404.168
380.816
349.963
313.64
273.555
231.551
1530.73
484.5
385.02
391.411
403.108
402.958
390.34
367.974
338.452
303.659
265.174
224.436
1550.98
486.286
378.056
380.389
390.224
389.547
377.282
355.829
327.555
294.201
257.201
217.777
1570.69
488.33
371.678
370.063
378.086
376.886
364.938
344.335
317.226
285.216
249.599
211.364
1589.67
490.56
365.83
360.38
366.637
364.922
353.256
333.439
307.425
276.679
242.362
205.381
1607.98
492.955
360.463
351.291
355.827
353.601
342.186
323.102
298.113
268.552
235.47
199.671
1625.65
495.478
355.532
342.752
345.614
342.88
331.685
313.285
289.256
260.813
228.903
194.347
1642.59
498.114
351.003
334.723
335.955
332.716
321.718
303.949
280.825
253.438
222.66
189.367
1658.88
500.859
346.835
327.168
326.812
323.074
312.246
295.069
272.791
246.405
216.691
184.443
1674.49
503.636
342.997
320.051
318.151
313.916
303.238
286.609
265.13
239.687
211.002
179.862
1689.23
506.479
339.459
313.344
309.941
305.213
294.662
278.547
257.818
233.271
205.553
175.364
1703.12
509.361
336.204
307.019
302.152
296.935
286.494
270.855
250.833
227.134
200.35
171.201
1716.56
512.242
333.2
301.05
294.758
289.058
278.706
263.512
244.157
221.266
195.368
167.113
1729.05
515.124
330.436
295.412
287.735
281.554
271.277
256.497
237.774
215.647
190.603
163.301
1740.75
518.015
327.885
290.086
281.06
274.403
264.183
249.791
231.664
210.264
186.03
159.513
1751.92
520.892
325.538
285.049
274.71
267.582
257.407
243.377
225.81
205.101
181.638
155.924
1762.18
523.752
323.375
280.284
268.669
261.071
250.927
237.234
220.198
200.148
177.433
152.607
1771.79
526.592
321.384
275.773
262.915
254.857
244.729
231.35
214.817
195.398
173.397
149.338
1780.73
529.401
319.549
271.501
257.435
248.918
238.798
225.713
209.656
190.838
169.538
146.343
1788.71
532.207
317.86
267.456
252.213
243.243
233.119
220.305
204.7
186.454
165.804
143.152
1796.05
535.117
316.315
263.624
247.236
237.815
227.678
215.118
199.939
182.237
162.185
139.937
1802.49
538.032
314.898
259.992
242.489
232.622
222.462
210.137
195.364
178.179
158.704
137.099
1808.32
541.013
313.633
256.554
237.961
227.652
217.46
205.355
190.965
174.272
155.344
134.25
1813.44
543.908
312.536
253.302
233.639
222.893
212.661
200.76
186.733
170.508
152.112
131.657
1817.75
546.626
311.581
250.237
229.512
218.332
208.053
196.344
182.659
166.882
148.986
128.962
1821.3
549.396
310.744
247.357
225.574
213.964
203.631
192.096
178.738
163.384
145.981
126.592
1824.3
551.99
310.02
244.633
221.818
209.78
199.381
188.008
174.958
160.012
143.077
124.15
1826.55
554.499
309.364
242.067
218.236
205.768
195.296
184.072
171.314
156.755
140.278
121.929
1828.07
556.934
308.825
239.648
214.819
201.923
191.368
180.28
167.798
153.61
137.565
119.626
1828.87
559.209
308.365
237.365
211.56
198.234
187.59
176.625
164.404
150.571
134.952
117.562
1829.06
561.531
307.983
235.218
208.454
194.697
183.958
173.105
161.129
147.635
132.428
115.553
1828.6
563.665
307.669
233.187
205.489
191.305
180.463
169.711
157.968
144.798
129.977
113.415
1827.4
565.752
307.419
231.281
202.664
188.05
177.1
166.439
154.915
142.055
127.609
111.495
1825.69
567.763
307.23
229.486
199.969
184.929
173.864
163.283
151.967
139.403
125.322
109.661
1823.42
569.694
307.099
227.797
197.398
181.937
170.75
160.24
149.119
136.839
123.118
107.969
1820.38
571.436
307.017
226.209
194.95
179.065
167.753
157.305
146.369
134.36
120.985
106.23
1816.8
573.232
306.99
224.727
192.615
176.312
164.87
154.474
143.711
131.963
118.926
104.628
1812.7
574.829
307.014
223.338
190.395
173.674
162.094
151.742
141.142
129.644
116.916
102.788
1807.82
576.367
307.058
222.028
188.275
171.142
159.423
149.107
138.661
127.4
114.968
101.174
1802.49
577.761
307.174
220.815
186.261
168.715
156.851
146.563
136.259
125.226
113.087
99.7056
1796.64
579.177
307.332
219.683
184.347
166.39
154.375
144.108
133.939
123.121
111.273
98.3259
1790.19
580.414
307.527
218.631
182.522
164.161
151.993
141.739
131.695
121.086
109.516
96.8942
1783.11
581.592
307.735
217.663
180.792
162.026
149.7
139.453
129.526
119.117
107.818
95.5518
1775.53
582.621
308.007
216.76
179.149
159.982
147.495
137.247
127.431
117.211
106.168
94.1564
1767.3
583.614
308.288
215.929
177.595
158.025
145.375
135.12
125.405
115.368
104.57
92.8617
1758.96
584.566
308.609
215.176
176.12
156.154
143.336
133.07
123.448
113.583
103.016
91.5244
1749.39
585.351
308.953
214.483
174.726
154.366
141.376
131.092
121.556
111.854
101.512
90.3146
1739.82
586.078
309.34
213.86
173.413
152.659
139.494
129.185
119.729
110.181
100.053
89.107
1729.9
586.695
309.761
213.304
172.174
151.028
137.687
127.346
117.961
108.562
98.6426
87.9898
1719.07
587.307
310.2
212.821
171.012
149.473
135.951
125.575
116.255
106.995
97.2734
86.8316
1707.84
587.62
310.68
212.393
169.922
147.994
134.284
123.867
114.605
105.478
95.9466
85.7732
1696.08
588.087
311.153
212.01
168.899
146.585
132.689
122.223
113.012
104.011
94.6666
84.7438
1683.89
588.315
311.73
211.72
167.957
145.251
131.162
120.642
111.477
102.593
93.4254
83.7079
1671.2
588.451
312.258
211.467
167.069
143.981
129.697
119.12
109.993
101.221
92.2218
82.728
1658.5
588.659
312.836
211.279
166.254
142.777
128.297
117.657
108.563
99.8955
91.0537
81.7013
1644.9
588.633
313.423
211.141
165.507
141.642
126.961
116.254
107.186
98.6138
89.9198
80.7513
1630.53
588.403
314.021
211.066
164.823
140.574
125.687
114.905
105.858
97.3767
88.8213
79.7911
1616.16
588.29
314.673
211.046
164.205
139.567
124.473
113.612
104.581
96.1815
87.758
78.9047
1601.57
588.012
315.341
211.09
163.649
138.625
123.318
112.373
103.351
95.0289
86.7258
77.9765
1586.04
587.628
316.056
211.189
163.16
137.747
122.222
111.188
102.167
93.9153
85.7279
77.1372
1570.27
587.17
316.757
211.353
162.739
136.933
121.183
110.055
101.03
92.8401
84.7641
76.3596
1554.07
586.588
317.474
211.563
162.375
136.176
120.203
108.975
99.9406
91.8062
83.8365
75.5761
1537.42
585.922
318.236
211.827
162.077
135.482
119.281
107.948
98.8975
90.8132
82.9388
74.7611
1520.37
585.186
319.015
212.146
161.844
134.849
118.413
106.971
97.8988
89.8573
82.0731
74.0275
1503.33
584.371
319.818
212.543
161.666
134.275
117.604
106.043
96.9451
88.9415
81.2381
73.2685
1485.49
583.407
320.634
212.983
161.554
133.766
116.849
105.167
96.0346
88.0611
80.4332
72.6076
1467.31
582.343
321.464
213.469
161.515
133.317
116.152
104.342
95.168
87.2206
79.6621
71.9079
1448.74
581.176
322.314
214.021
161.532
132.932
115.513
103.567
94.3466
86.4174
78.9203
71.2374
1429.77
579.926
323.227
214.649
161.622
132.611
114.928
102.841
93.5695
85.6516
78.2021
70.5163
1410.43
578.557
324.107
215.317
161.771
132.345
114.399
102.164
92.8334
84.9202
77.5205
70.0126
1390.7
577.067
325.009
216.063
161.998
132.15
113.927
101.538
92.1441
84.2321
76.881
69.4562
1371.01
575.588
325.968
216.871
162.29
132.018
113.513
100.964
91.4984
83.5788
76.2715
68.9604
1350.25
573.826
326.928
217.735
162.653
131.958
113.16
100.442
90.8976
82.9649
75.6953
68.4545
1329.88
572.089
327.898
218.659
163.093
131.955
112.867
99.9731
90.3409
82.3895
75.1525
67.9953
1308.84
570.156
328.863
219.639
163.592
132.028
112.634
99.5561
89.8318
81.8559
74.6424
67.5055
1287.48
568.2
329.884
220.702
164.176
132.168
112.465
99.1947
89.3693
81.3599
74.1628
67.0936
1265.77
566.008
330.899
221.825
164.835
132.386
112.36
98.8862
88.9537
80.904
73.7173
66.6679
1244.14
563.881
331.925
223.011
165.579
132.671
112.32
98.6353
88.5852
80.4894
73.3066
66.3047
1221.85
561.464
332.985
224.284
166.405
133.043
112.348
98.4452
88.2688
80.118
72.9301
65.9091
1199.24
558.985
334.042
225.618
167.31
133.487
112.446
98.3129
88.001
79.7879
72.5859
65.5997
1176.32
556.364
335.099
227.041
168.312
134.018
112.616
98.2404
87.7852
79.5009
72.2835
65.3404
1153.14
553.584
336.193
228.53
169.4
134.633
112.864
98.2358
87.6267
79.2642
72.023
65.0672
1129.7
550.716
337.275
230.084
170.587
135.341
113.188
98.2969
87.5251
79.0749
71.8008
64.8254
1106.31
547.772
338.393
231.73
171.865
136.145
113.593
98.428
87.4807
78.933
71.6194
64.6696
1082.38
544.626
339.494
233.467
173.252
137.043
114.084
98.6301
87.4969
78.8457
71.4861
64.5157
1058.5
541.4
340.625
235.273
174.737
138.037
114.667
98.91
87.5772
78.8079
71.3927
64.4383
1034.11
537.942
341.729
237.152
176.336
139.144
115.343
99.2717
87.7267
78.8302
71.353
64.394
1009.15
534.301
342.854
239.153
178.046
140.366
116.121
99.7163
87.9466
78.9129
71.3619
64.3631
984.524
530.667
344.008
241.211
179.882
141.705
117.006
100.249
88.2418
79.056
71.4207
64.3894
959.468
526.817
345.139
243.398
181.854
143.174
118.001
100.883
88.619
79.268
71.5363
64.4306
934.17
522.771
346.279
245.666
183.948
144.772
119.117
101.617
89.0811
79.5536
71.7171
64.5729
908.989
518.648
347.397
248.038
186.189
146.523
120.359
102.462
89.6378
79.9199
71.9732
64.7668
883.387
514.3
348.52
250.499
188.578
148.418
121.743
103.419
90.2898
80.3628
72.281
64.9175
857.586
509.752
349.676
253.1
191.128
150.474
123.266
104.503
91.0434
80.8873
72.6547
65.1919
831.658
505.087
350.759
255.785
193.826
152.693
124.944
105.717
91.9063
81.506
73.1134
65.5224
805.574
500.228
351.876
258.594
196.702
155.105
126.787
107.076
92.8919
82.2268
73.6507
65.9473
779.629
495.256
352.964
261.504
199.761
157.706
128.82
108.597
94.0159
83.0612
74.2896
66.451
753.617
490.046
354.064
264.567
203.021
160.52
131.045
110.286
95.2837
84.0226
75.0402
67.0871
727.068
484.57
355.1
267.736
206.487
163.562
133.492
112.17
96.7101
85.1177
75.9075
67.7926
700.587
478.98
356.129
271.062
210.163
166.849
136.164
114.255
98.3103
86.3487
76.8698
68.4951
674.307
473.212
357.145
274.511
214.088
170.403
139.09
116.561
100.099
87.7385
77.9686
69.3998
648.047
467.217
358.137
278.114
218.267
174.247
142.299
119.122
102.105
89.3151
79.2365
70.4388
621.364
460.986
359.093
281.898
222.713
178.407
145.824
121.956
104.345
91.0858
80.6504
71.614
594.976
454.591
360.042
285.841
227.473
182.919
149.684
125.103
106.851
93.076
82.2557
72.9202
568.699
447.972
360.976
289.985
232.555
187.82
153.931
128.593
109.653
95.3115
84.0561
74.4203
542.106
441.141
361.907
294.37
238.033
193.163
158.621
132.486
112.798
97.8371
86.1061
76.1297
515.818
434.13
362.88
299.013
243.941
199.01
163.802
136.83
116.334
100.694
88.4273
78.0308
489.516
426.958
363.934
304.01
250.364
205.439
169.562
141.69
120.31
103.914
91.047
80.1651
463.369
419.66
365.174
309.453
257.405
212.561
175.979
147.139
124.791
107.544
93.9941
82.6008
437.173
412.37
366.761
315.538
265.245
220.5
183.182
153.277
129.852
111.654
97.3466
85.3612
411.063
405.381
369.099
322.597
274.136
229.46
191.31
160.219
135.572
116.3
101.124
88.4902
384.799
399.499
372.919
331.171
284.406
239.646
200.494
168.057
142.047
121.545
105.367
91.9089
358.373
397.683
380.334
342.565
296.749
251.49
211.052
177.053
149.452
127.527
110.159
95.7241
328.213
400.286
389.253
355.316
309.352
263.429
221.731
186.45
157.22
133.922
115.311
99.9952
203.807
0.00127299
6.5841
4.92407
4.88745
11.9864
11.4259
81.1306
45.0181
26.3314
7.57858
0.00269229
0.0224976
573.422
12.1425
0.00085104
480.298
0.217438
0.206572
0.000828078
2.43144
5.66348
0.254397
0.0183059
209.566
6.5417
4.0126
16.1723
16.8621
48.2291
14.5577
364.52
0.00108494
7.39548
0.0210825
2.32126
87.3264
12.6399
29.7515
0.00290263
0.238273
0.000793906
0.11905
23.8429
23.7019
5.44781
0.0573776
0.014781
23.9548
2.39802
2.26846
77.6653
18.446
0.000749082
214.944
0.00117988
0.00426939
0.000792872
12.6746
11.2704
3.50339
379.015
0.000746609
0.00891858
0.711452
0.00121272
75.6546
18.0267
321.739
18.6942
184.947
0.0483748
28.4124
43.2977
0.0187911
0.000739175
41.0822
0.00069618
0.0788008
11.2127
0.210479
0.000699364
75.3821
20.5433
0.00842293
69.9633
74.7989
0.000739953
5.17243
25.7663
19.5354
26.0309
0.000741582
0.000983559
53.6688
0.000751708
15.1355
0.00902305
0.00072895
76.5447
144.186
1.14738
0.000784971
0.00113907
0.000707788
68.1332
66.0596
101.335
19.1966
0.0280481
0.526601
0.00070975
8.28803
0.000913163
0.000734491
8.34637
0.0108266
1.91682
69.0355
0.646472
119.763
0.0204072
175.919
0.991905
0.318764
53.1518
0.00104523
1333.14
0.0232328
0.000742466
123.07
0.000758846
87.4008
0.00114148
4.18981
0.00145983
28.4361
13.1547
8.70955
0.00175907
0.0087498
2.76407
14.1949
0.128056
31.2903
197.941
17.2678
0.00121683
61.4906
21.7641
0.579626
8.0091
0.000693004
0.265028
0.614594
0.000716813
12.5502
0.000726986
88.7705
0.00233769
0.0177861
0.000857181
0.324773
0.00606979
2.60192
0.190428
314.809
30.1949
18.4662
0.000686975
205.124
47.1981
216.543
0.00944653
0.000680479
18.4289
0.000705937
20.4956
0.721778
34.622
330.643
3.27717
0.0831228
26.3846
0.000796513
13.457
0.000724009
0.000721548
30.1357
0.000736009
9.17607
0.000697674
199.452
0.00130414
16.143
14.1865
10.8682
4.55823
0.000709801
408.873
63.6334
19.7755
54.8531
9.17632
20.1193
0.141737
0.180294
1.47958
39.1306
1.55111
139.882
52.4387
48.1725
34.3333
0.000722341
15.4717
0.00600592
11.1534
425.841
20.9965
20.3135
63.8575
24.6213
0.000718514
0.00073093
55.3918
70.0391
0.000758263
1482.68
0.0227313
167.419
0.296329
0.0007046
88.726
10.2354
12.2115
11.7547
70.2897
34.5857
20.5061
0.505358
0.392369
32.5442
95.1628
195.886
132.929
82.9753
0.000837046
44.7586
16.226
17.132
42.9678
5.51765
4005.24
21.7802
1.82511
4.00225
19.1643
14.4402
24.6407
1.54478
12.6948
0.00755759
0.174188
577.483
13.1654
58.2313
48.4997
7.98049
164.397
10.7007
0.0430985
174.16
87.6533
85.5693
185.711
30.1177
105.973
29.1608
27.235
178.866
29.7116
26.8403
21.0264
25.1719
11.0154
12.4655
82.2826
85.8128
1.95055
26.8367
170.468
99.5164
98.9111
16.214
191.504
0.676593
85.1984
0.0702676
54.5803
6.57737
1.00987
336.747
213.737
0.567287
53.8654
32.9758
0.000737009
0.68811
0.520494
0.705958
40.8103
0.000720393
97.6855
20.0388
0.0937795
93.3708
42.9322
0.000721188
442.431
0.0291529
14.4599
10.6923
9232.4
50.3324
42.5181
18.4021
0.000714293
0.000717261
40.0088
13.4316
0.000685736
11.0096
0.000703608
0.000717345
0.000739946
0.000705929
0.23108
0.000725309
0.001751
122.747
49.8898
0.000755472
19.13
0.00380795
75.8359
147.267
90.2907
1099.34
15.0084
0.000666236
0.000744227
0.0948899
0.70892
96.1802
0.000682463
0.17752
24.5533
51.3669
5.41467
27.7187
25.2085
71.0727
1006.84
2.58882
4.94677
0.000883007
0.000735545
1.59814
4.11256
0.241941
28.1483
50.8121
5050.41
174.565
2.94308
22.8945
65.7993
0.00073467
8.8951
49.633
0.00151257
0.000714519
51.9041
3766.62
81.1153
0.000686189
0.0497481
3.97239
0.0155535
0.000730403
53.0159
6.83553
17.6278
16.0928
0.000918866
919.048
0.000714596
1.66028
18.7901
0.00204215
0.00468396
92.4417
0.00318889
45.3263
313.728
85.1935
26.0279
41.2708
99.04
0.000714946
0.000690525
0.00072923
74.6462
0.0840567
315.358
5350
4.53523
59.7674
0.000724129
0.0428126
14.4926
0.000690012
0.000725664
97.5528
0.000682941
1.71448
54.9522
27.7144
0.000670511
0.00255347
0.258177
0.238498
10.9812
0.405775
0.000700721
808.247
54.0115
0.812889
0.00543368
33.4053
88.9803
0.00233961
15.3665
0.00224702
64.9656
0.000843696
12.7261
1.03045
0.000705384
76.814
11.1113
172.017
0.0035116
9.99197
2.7014
0.00146821
89.5034
51.1528
2.50778
210.856
0.0151827
0.0465359
0.00486884
116.703
31.546
0.201854
2.45204
4.16754
170.955
0.826796
83.4088
1148.21
0.0006753
210.439
56.2181
10.4227
0.000697361
19.7343
94.1566
0.147713
84.5422
23.3905
2.4088
0.325419
30.0658
120.641
0.000862927
0.0103296
55.1372
0.0326948
0.00189967
240.895
1085.09
0.0330312
22.8025
52.003
0.625901
46.244
27.0163
51.9692
19.3233
24.5054
0.000738942
0.188668
45.0094
18.6018
116.34
21.7379
97.8179
175.931
989.217
74.787
2.56666
0.000727136
216.398
91.0816
46.1187
10.3448
1.1144
0.14898
11.1107
0.000731274
17.0898
0.000732145
35.7339
10.6396
92.1943
29.3901
77.7942
111.061
119.591
29.5951
220.4
0.000734396
0.339521
57.9335
1422.68
7.72962
23.8261
0.000874906
0.0193753
6.17051
117.824
18.1369
0.000699161
0.0651354
0.000708426
0.0539463
19.859
0.0279781
65.9093
2.82706
72.1338
0.444147
0.441044
298.341
658.642
0.000740134
0.000740698
5.4969
185.639
17.6094
13.1752
3.2594
30.7937
19.5298
0.000668863
0.749344
12.2469
0.00134184
77.278
12.8517
26.9571
17.4484
0.00562413
0.000669737
0.0147637
0.000713622
26.8445
20.2371
122.821
22.8424
0.000731522
139.02
0.122777
118.711
1.79365
193.593
0.0300034
0.505832
0.000685459
38.9301
566.773
19.5648
4.5805
0.00066564
104.149
44.79
50.5942
0.000700615
0.613355
56.5897
26.7986
0.00186862
1071.23
0.000917507
58.8908
28.8555
0.000879356
2.05142
0.140632
1.0856
0.00070049
0.000741847
75.2677
36.4839
19.8012
54.1048
0.00135068
1.92128
0.219713
44.6154
8.30548
0.00100693
1.56798
403.388
0.000689063
0.00288415
26.3312
130.953
88.2546
0.000720206
695.964
23.8832
115.466
0.0200959
2.51955
144.882
0.000735629
101.4
2.4768
18.1175
7.81192
45.1308
7.93665
94.0939
96.6304
15.9483
4962.44
0.000746539
0.000719164
142.446
47.158
0.00130203
0.000723311
9.33487
0.000745337
51.8262
52.6013
1.13401
0.000701409
39.7807
0.395344
21.4829
66.382
25.6254
0.266022
2.35521
118.674
0.000738987
2.36215
61.3509
21.5453
18.1139
0.0023198
10.6636
2.73025
2788.96
0.000711213
2.56346
35.6223
18.3527
0.000770935
0.165719
28.839
55.7841
77.0888
0.0604781
204.467
31.9208
0.303225
31.5844
0.000712582
0.00246174
9.04586
0.000684618
26.5618
0.000726278
115.111
0.00453617
57.0071
0.000732443
0.923705
51.978
126.62
7.54944
30.9829
0.386621
241.128
0.00776952
0.154964
18.3289
0.000697662
0.000745103
27.9663
0.381781
94.847
25.9231
0.000758515
90.8162
105.897
81.3001
7.17437
170.143
95.8445
0.000740883
2398.82
4208.67
49.7892
0.000759723
0.0043454
272.842
54.2755
0.000704615
90.6023
0.000698257
0.111048
302.79
0.000851491
16.9121
0.000720037
0.0639736
121.481
0.000762143
0.00101718
0.000734967
0.000938088
0.0136763
1016.27
51.3178
0.308977
11.3959
0.000726473
49.1067
0.000729737
8.97802
1.8157
0.0157154
4.44036
0.00626478
73.7184
0.000724932
10687.3
4.22514
30.1128
208.051
4.79167
0.000697106
26.0676
179.926
1.99013
49.4986
58.1992
184.34
23.131
0.0363326
28.5051
0.174288
0.00103616
0.291552
4112.9
154.687
1.03175
0.0285806
20.6734
0.00092376
9.36691
52.1178
174.28
64.1979
60.3525
0.0300327
0.0017619
32.5855
24.4317
0.0489233
42.8091
0.000720253
120.847
218.391
0.000766768
175.931
48.7103
1.15397
0.152176
139.728
0.0154893
0.315951
13.3521
2.99041
2.83233
0.000752868
27.0372
0.111051
150.128
28.1182
79.9268
6.15097
0.00223235
39.0447
0.000730489
0.000724016
10.5832
0.148982
1.71873
211.414
0.000671482
72.5276
0.148261
0.058359
0.000791207
165.922
8.08158
0.347659
40.5576
0.0583192
309.468
3.96054
0.000716358
236.724
270.028
0.0015906
0.00317448
77.6874
26.503
0.417749
233.478
0.0276723
2.00997
0.245275
0.390014
31.9533
94.3636
0.000736745
95.943
22.0915
0.00732608
1.28555
1495.32
16.0066
0.000731438
0.000684044
35.3346
23.5535
66.7789
0.000683334
34.2148
2.87929
32.2855
0.000925897
167.41
46.5106
0.00156101
16.46
0.000740856
86.6344
32.2085
28.3833
40.2521
0.000716132
0.000718331
9.82769
110.067
5.65466
37.8761
0.000671375
0.0434753
0.000734175
0.00193935
39.6556
0.0883585
0.34726
0.915858
21.7825
152.219
24.8088
65.462
0.000728945
29.4634
37.7767
20.6908
0.000738996
43.9794
0.000735216
0.000726955
0.158281
20.7847
0.0161422
336.672
35.1429
327.502
0.000762391
0.00131996
0.0370697
110.328
4.58125
145.883
0.000725805
0.00071591
0.00195901
0.00296326
139.384
44.7214
83.1619
0.307488
0.0358893
3.84562
3.79185
57.3269
15.3034
61.1076
18.9501
0.00069023
182.376
0.00155419
1.82092
61.9649
26.2745
1.30661
0.618019
0.000942718
106.011
7.44728
19.9265
28.5505
0.00072258
67.3169
42.9107
171.505
0.00437374
58.9666
47.6699
56.5032
190.977
22.0887
55.8136
0.276333
813.737
4.27048
0.188001
121.142
0.000729491
93.785
173.56
0.000703827
35.7074
0.00130856
102.284
102.359
1.7646
18.8411
106.435
97.1512
13.3869
0.94184
50.2469
9.3534
0.00558631
0.000696485
24.5988
0.085814
19.4363
58.1732
4.46078
53.7744
105.12
0.000717017
16.0065
461.824
243.618
10.4002
99.8375
18.148
208.009
97.3605
1.64421
0.0158989
0.221139
68.1836
83.7734
0.221259
53.7135
59.7
52.812
11.0991
2.06231
10.5952
32.8839
0.000738546
238.138
88.8491
1.51387
0.000738418
26.6883
15.4892
17.1856
0.000720135
149.664
0.000728776
12.0561
0.179779
0.000733614
39.2758
81.5317
0.000701059
50.5526
27.9467
24.7622
12.7187
40.4187
15.4431
40.5594
52.8838
1.71402
0.000708659
0.00128013
33.7359
5.62587
0.121325
0.000738505
84.1926
0.00185005
0.975898
0.249716
10.8287
8.67149
0.06429
0.522968
395.009
172.74
24.3721
1418.86
56.7859
0.000706091
51.5881
17.9701
181.836
0.000709422
5.48062
0.000737103
0.000866177
17.487
3.97901
0.0326191
0.000802401
56.7807
3016.76
0.00246434
0.000728876
1.63786
9.47118
0.0158049
0.0868468
3165.22
0.552021
0.000795577
0.000727595
66.659
20.8047
0.305218
0.066562
64.2827
193.263
29.5676
103.484
35.17
0.000730545
16.5528
0.000723054
130.38
15.516
2931.31
6.15388
0.145951
0.000951163
97.0996
0.000739877
0.000712111
0.0017587
13.7228
18.5358
61.502
0.000718998
16.6231
0.000727212
529.355
61.5642
0.000744625
126.246
6.26221
0.000729047
0.000766694
0.0262134
139.329
5.62289
0.0173354
0.000727447
0.000709664
134.733
91.5653
20.8911
34.4687
0.473441
34.5131
0.000718434
0.00405615
6.85745
209.981
47.9522
0.00324975
0.00073139
33.3017
0.000727411
87.9536
140.653
7.19694
0.0380671
91.8424
16.5418
3.15059
0.000727952
7.4102
94.77
85.2509
0.00216736
0.0220598
31.7162
3011.67
0.0533799
4.54364
0.000703033
0.000690076
0.000740523
0.0102401
32.0226
69.7472
0.0409236
99.6555
22.4888
420.045
8.16181
0.0109448
0.00276173
0.00616022
2.5864
48.0952
20.1829
0.000753059
96.0196
0.00071614
0.00630506
65.4303
49.5688
0.0265754
5.30002
9.78592
0.00104878
0.739169
2.51837
0.000722274
0.000930831
146.571
0.000888448
0.000753606
111.005
25.2736
3163.06
8.83246
1373.91
0.000851691
0.00070032
3516.62
17.3232
1.17389
3.70874
0.0570606
18.5791
1.01995
986.327
46.9005
66.6802
143.5
104.553
1.05607
27.2336
99.4182
0.00691532
80.7387
0.000980538
37.0532
6.315
0.735224
7.84985
6.98818
3.48579
2.03309
39.2546
60.9404
45.114
28.7333
50.2491
36.0442
6.24736
0.00109111
0.000724304
0.236023
251.692
0.000725511
79.8491
0.000705541
0.00378275
189.768
112.755
44.9081
74.918
979.386
77.3263
19.0093
40.3293
0.000724335
16.729
74.2834
0.000760093
198.254
0.00253342
719.535
250.304
294.852
14.1701
84.1869
4.50735
0.500544
16.0674
94.125
20.5469
12.1884
5.38769
77.3256
0.135257
124.352
335.423
0.00367133
34.4432
0.000739833
0.000987354
17.5353
132.965
168.84
14.6476
0.609879
0.217671
0.319239
0.000848489
22.8611
0.000848006
154.702
0.000802139
0.120543
258.646
5.55258
2.88501
191.935
157.658
0.00194302
0.000739988
0.193617
13.638
0.16547
113.011
0.0370624
25.789
5.09995
27.1309
56.1362
0.000867017
0.000719444
130.08
0.720151
5.57421
56.1277
29.1656
38.6848
0.00387926
164.181
56.1885
90.5011
0.000827978
1.28072
24.7774
79.1824
0.999201
14.0413
0.000737577
11.8099
0.000710612
221.731
0.00435281
34.7498
0.171939
10.0985
0.000761946
1958.95
0.000739092
142.364
0.0159878
0.000727319
0.00675784
14.5835
0.000729273
0.000733361
10.2765
0.0267433
20.4848
0.063205
0.00077221
22.4421
6.44663
39.7343
0.000782018
111.684
4.55715
352
37.3869
29.9704
57.5422
93.0131
4.61091
299.173
249.154
98.3509
0.000753326
2.41864
25.6293
18.2388
0.00128463
0.0162662
20.6623
482.414
0.000735472
1.65478
104.858
0.000676801
57.7094
66.6565
182.089
73.4279
52.4006
12.3221
0.340302
201.839
9.23655
73.5258
51.6297
52.4227
0.488071
0.000727254
34.2227
0.00182104
0.000750513
0.000711642
178.059
0.000727549
0.000912891
18.3143
9456.44
2.84423
2.58094
52.5935
11.1731
0.000728428
42.3386
223.929
0.0161393
4.73724
55.6124
49.061
0.281513
0.0207782
0.000717016
0.000726179
0.0172542
0.0415105
25.2822
21.2534
87.9228
14.1539
13.949
0.000994842
197.801
28.2944
0.000747831
23.1141
825.314
0.000734552
6.92512
119.825
43.5971
91.7989
0.714245
143.611
0.000856318
0.921011
0.000773642
0.00198525
0.000746828
63.1617
18.077
0.0963335
0.000739344
0.000686801
188.336
28.6578
2.72162
20.0111
6.21281
36.3531
18.4354
24.4235
26.5989
0.000732268
0.480168
0.877823
0.352381
19.0653
76.9883
49.3999
84.1418
27.8564
87.8626
161.651
95.0452
46.6185
32.043
0.131146
56.617
29.6467
0.020172
79.5586
53.7591
10.8825
0.000699526
0.00074273
0.000873002
0.00118172
49.9564
0.000675373
109.771
50.5189
229.955
28.8433
0.000726394
12.4209
15.9102
58.0882
15.3749
29.4918
13.6779
0.000754542
0.000742226
0.00344373
0.175279
0.000710744
84.5836
13.9691
1.73595
47.4947
15.0073
39.0698
118.323
0.000728216
19.1036
30.8733
0.000943978
0.0904448
52.8783
168.758
20.1988
4.75353
0.000753777
33.7266
39.6842
0.000958786
0.0115868
0.000722834
39.7745
0.00116485
0.516328
112.413
0.763019
0.099521
21.7344
2877.08
0.000758001
30.0922
0.000677384
10.2423
23.0654
22.3194
16.9926
60.8909
31.6131
58.2648
188.619
45.1926
0.000732402
0.000718145
0.0473606
0.205984
53.0471
4.55038
0.000730134
163.984
2.88142
0.00301293
52.1692
0.0543673
0.00286462
0.0321464
74.0085
0.00203351
0.00073419
21.3851
83.4949
25.0517
1.61196
53.981
8.25171
0.000737334
16.811
0.14557
0.0682973
0.000790886
34.7304
19.9655
5.51164
138.759
94.3233
16.4252
2.88937
0.000725716
25.8901
0.000726101
222.631
0.00406328
33.431
0.157373
53.5406
0.00807323
0.00355974
4.53422
3.72335
386.666
0.000852951
1.88203
46.4318
91.292
6.40478
114.752
1.32701
0.000812014
0.000744797
58.108
24.5136
313.058
2.2367
0.163905
54.963
21.122
59.3216
0.0665926
0.000725951
0.000734802
1.273
767.534
18.5325
105.637
0.00084257
0.00452262
1.10659
48.971
22.8586
44.9322
57.9564
60.6836
0.00074192
0.00073544
178.739
135.816
61.4213
426.585
48.1213
0.016055
132.644
0.000724563
226.288
0.017655
0.0209136
0.000727175
0.034551
0.172425
53.5409
48.2852
0.000754517
116.354
0.000718957
82.9213
148.111
0.000718102
0.468578
0.0007544
16.4967
0.322716
5.61628
0.000691763
13.1992
90.9529
13.1483
44.9656
1.2369
60.4151
1.57595
62.4389
33.4152
83.7986
30.6954
0.00095449
0.000736074
27.2477
0.478806
61.4084
0.000731896
123.02
0.000724324
0.00130938
0.241601
0.000720394
273.468
97.345
0.000762186
21.7918
2.55754
0.174455
33.0876
0.00187859
0.000708219
43.0518
9.11216
0.0204943
46.4555
2368.27
108.075
1.62623
182.633
0.224459
0.000735776
0.000900005
0.0275611
1.5514
57.5389
140.396
312.4
52.2617
55.0739
10.5613
1.97203
37.17
153.706
56.0813
0.0351026
0.08515
13.0272
83.5977
0.000792989
0.998703
17.4605
192.335
0.000726856
49.1456
0.00068111
0.00642578
129.609
0.000790439
65.2103
1154.42
0.000738013
175.054
0.000870155
8.89568
0.00650284
0.00103331
47.3793
16.2312
64.4587
8.43063
79.333
350.516
105.574
5.96015
36.5589
20.3185
0.000705291
163.029
0.0563089
88.338
4.02698
10.4887
0.0340777
0.00108762
167.247
116.273
12.6493
48.2392
18.1048
0.0102425
0.000694843
0.000744355
1.65456
75.3456
17.185
0.000703868
1166.49
20.4617
0.00957459
0.141245
20.1161
0.000671588
0.391267
0.000762217
0.000723747
21.4594
29.9392
0.0544551
0.00622047
0.000708787
28.9781
1.76399
20.7383
0.00231202
0.0320314
0.00735776
60.992
103.323
1.23142
0.000729251
159.792
0.000780587
0.0336195
0.00414937
0.00141071
34.8671
64.6662
0.000725163
49.8352
0.000748745
0.000696238
0.000880486
53.2877
15.4431
53.2373
42.4633
20.0055
61.696
0.0440757
0.000728779
0.00704916
0.0016157
2.86994
0.000713505
61.3965
11.6775
0.032977
100.853
0.352935
22.217
1.87571
0.0018388
125.546
56.6072
20.2226
0.00722368
0.1459
214.263
0.000732765
8.88361
57.5984
0.000724622
0.706152
0.00279201
19.554
0.00069167
81.5132
37.144
1.71469
0.429862
94.2253
365.909
4.71694
125.225
0.00104597
18.29
0.000742271
0.00188948