/*--------------------------------*- C++ -*----------------------------------*\
| =========                 |                                                 |
| \\      /  F ield         | OpenFOAM: The Open Source CFD Toolbox           |
|  \\    /   O peration     | Version:  2.3.1                                 |
|   \\  /    A nd           | Web:      www.OpenFOAM.org                      |
|    \\/     M anipulation  |                                                 |
\*---------------------------------------------------------------------------*/
FoamFile
{
    version     2.0;
    format      ascii;
    class       volScalarField;
    location    "0.35";
    object      nut;
}
// * * * * * * * * * * * * * * * * * * * * * * * * * * * * * * * * * * * * * //

dimensions      [0 2 -1 0 0 0 0];

internalField   nonuniform List<scalar> 
15166
(
9.72404e-05
0.000157176
0.000262059
0.000376137
0.000476231
0.000590752
0.000708807
0.0008369
0.000956407
0.00107931
0.00119593
0.00129599
9.72549e-05
0.000171088
0.000282761
0.000396681
0.000500373
0.000613892
0.00073062
0.000853866
0.000971041
0.00108943
0.00120172
0.00130259
9.76184e-05
0.0001824
0.00029901
0.000413625
0.000520192
0.000633086
0.000748524
0.000868033
0.000983001
0.00109759
0.0012063
0.00130698
9.80918e-05
0.000192532
0.000312864
0.000428234
0.000536841
0.000649175
0.000763342
0.000879863
0.000992704
0.00110402
0.00120973
0.00131025
9.85977e-05
0.000201693
0.000325119
0.000441203
0.000551171
0.000662905
0.000775761
0.00088977
0.00100056
0.001109
0.00121221
0.00131214
9.91449e-05
0.000209932
0.00033611
0.000452844
0.000563691
0.000674744
0.000786278
0.000898092
0.00100689
0.00111276
0.00121374
0.00131295
9.97281e-05
0.000217336
0.000346095
0.000463387
0.000574708
0.000685039
0.00079525
0.00090507
0.00101195
0.00111548
0.00121446
0.00131338
0.000100346
0.00022399
0.000355278
0.000472996
0.000584497
0.000694052
0.000802951
0.00091093
0.00101595
0.00111736
0.00121471
0.00131395
0.000100978
0.000229958
0.000363809
0.00048186
0.000593286
0.000702004
0.0008096
0.000915863
0.00101909
0.00111856
0.00121449
0.00131367
0.00010162
0.00023528
0.000371777
0.000490074
0.000601249
0.000709086
0.000815378
0.000919998
0.00102151
0.00111921
0.00121395
0.00131289
0.000102271
0.00024001
0.000379249
0.000497734
0.000608501
0.000715421
0.000820423
0.000923468
0.00102334
0.00111946
0.00121331
0.00131311
0.000102919
0.000244178
0.000386259
0.000504909
0.000615149
0.000721123
0.000824848
0.000926378
0.00102469
0.0011194
0.0012126
0.00131249
0.000103563
0.000247829
0.000392846
0.000511641
0.000621288
0.000726289
0.000828742
0.00092881
0.00102563
0.00111908
0.00121168
0.00131083
0.0001042
0.000251021
0.000399031
0.000517976
0.000626971
0.000730973
0.000832182
0.00093083
0.00102625
0.00111853
0.00121033
0.0013083
0.00010483
0.000253764
0.00040483
0.000523962
0.000632255
0.000735257
0.00083523
0.000932515
0.00102659
0.00111777
0.00120886
0.00130608
0.000105446
0.000256113
0.000410241
0.000529613
0.000637188
0.000739172
0.000837929
0.000933889
0.0010267
0.00111685
0.00120719
0.00130316
0.000106051
0.000258088
0.00041527
0.000534956
0.000641806
0.000742771
0.000840331
0.000935017
0.00102661
0.00111577
0.00120533
0.00130025
0.000106637
0.000259735
0.000419939
0.000540019
0.000646151
0.000746099
0.000842481
0.000935909
0.00102634
0.00111454
0.00120326
0.00129686
0.000107206
0.000261088
0.000424239
0.000544804
0.000650228
0.000749165
0.000844385
0.000936619
0.00102593
0.0011132
0.00120108
0.00129353
0.000107761
0.000262163
0.000428191
0.000549325
0.000654081
0.000752008
0.000846094
0.000937154
0.00102539
0.00111174
0.00119879
0.00129021
0.000108301
0.000263001
0.000431786
0.000553592
0.000657706
0.000754647
0.000847613
0.000937532
0.00102472
0.00111018
0.00119633
0.00128642
0.000108822
0.000263611
0.000435036
0.000557621
0.000661139
0.000757095
0.000848963
0.000937774
0.00102395
0.00110851
0.00119372
0.00128253
0.000109316
0.000264034
0.000437957
0.000561398
0.000664376
0.000759377
0.00085017
0.000937903
0.00102308
0.00110675
0.00119103
0.00127944
0.000109803
0.000264279
0.000440549
0.000564941
0.000667435
0.000761509
0.00085125
0.000937931
0.00102213
0.00110489
0.00118825
0.0012758
0.000110264
0.000264363
0.000442822
0.000568265
0.000670329
0.000763502
0.000852206
0.000937853
0.0010211
0.00110297
0.00118545
0.00127277
0.000110708
0.000264319
0.000444785
0.00057136
0.000673063
0.000765359
0.000853051
0.000937692
0.00101999
0.00110097
0.00118262
0.00126926
0.000111136
0.000264146
0.00044645
0.00057422
0.000675643
0.000767096
0.0008538
0.00093745
0.00101882
0.00109894
0.00117984
0.00126651
0.000111542
0.00026388
0.000447843
0.00057686
0.000678066
0.000768715
0.000854461
0.000937134
0.00101759
0.00109687
0.00117715
0.00126397
0.000111927
0.000263516
0.000448953
0.000579291
0.000680345
0.000770229
0.000855027
0.000936758
0.00101631
0.00109478
0.00117444
0.00126059
0.000112293
0.000263053
0.000449814
0.000581497
0.000682484
0.000771636
0.00085552
0.000936313
0.00101499
0.00109268
0.00117177
0.00125779
0.000112635
0.000262542
0.000450413
0.000583489
0.000684477
0.000772949
0.000855938
0.000935822
0.00101364
0.00109057
0.00116906
0.00125438
0.000112967
0.000261957
0.000450792
0.000585263
0.000686334
0.000774166
0.000856293
0.000935273
0.00101225
0.00108845
0.00116637
0.0012515
0.000113286
0.000261319
0.000450938
0.000586841
0.000688059
0.000775296
0.000856575
0.000934686
0.00101084
0.00108631
0.00116365
0.00124792
0.000113574
0.000260647
0.000450891
0.000588208
0.000689644
0.000776337
0.000856804
0.000934058
0.0010094
0.00108417
0.00116093
0.00124486
0.00011385
0.000259938
0.000450639
0.000589387
0.000691098
0.000777288
0.000856974
0.000933392
0.00100794
0.00108201
0.00115818
0.00124125
0.000114117
0.000259201
0.00045022
0.000590352
0.000692416
0.000778162
0.000857094
0.00093269
0.00100646
0.00107985
0.00115547
0.00123848
0.000114351
0.000258435
0.000449619
0.000591137
0.000693605
0.000778949
0.000857154
0.000931947
0.00100496
0.0010777
0.00115283
0.00123599
0.00011458
0.000257652
0.000448864
0.000591727
0.000694659
0.000779661
0.000857169
0.000931182
0.00100345
0.00107554
0.00115019
0.0012327
0.000114787
0.000256856
0.000447966
0.000592138
0.000695588
0.000780284
0.000857136
0.00093039
0.00100193
0.0010734
0.00114756
0.00122952
0.000114974
0.000256053
0.000446937
0.000592376
0.000696393
0.000780842
0.000857056
0.000929567
0.0010004
0.00107125
0.00114491
0.00122616
0.000115154
0.000255231
0.000445785
0.000592436
0.000697067
0.000781312
0.00085693
0.000928726
0.000998859
0.0010691
0.00114215
0.0012223
0.000115308
0.000254329
0.000444499
0.000592333
0.000697611
0.00078171
0.000856759
0.000927856
0.000997308
0.00106693
0.00113938
0.00121952
0.000115453
0.000253396
0.000443117
0.000592072
0.000698035
0.000782029
0.000856544
0.000926971
0.000995749
0.00106475
0.00113661
0.00121616
0.000115574
0.000252398
0.000441591
0.000591646
0.000698331
0.000782268
0.000856287
0.000926059
0.000994176
0.00106256
0.00113388
0.00121342
0.000115677
0.000251395
0.000439902
0.000591069
0.000698507
0.000782428
0.000855986
0.000925127
0.000992595
0.00106037
0.00113115
0.00120998
0.000115769
0.00025043
0.000438088
0.00059032
0.000698554
0.000782517
0.000855651
0.000924176
0.000991008
0.00105818
0.00112846
0.00120746
0.000115848
0.000249409
0.000436182
0.000589365
0.000698454
0.000782527
0.000855267
0.000923206
0.000989409
0.00105599
0.00112577
0.0012041
0.000115903
0.000248421
0.000434184
0.000588272
0.000698222
0.000782449
0.000854838
0.000922216
0.000987803
0.00105381
0.00112312
0.00120151
0.000115947
0.000247436
0.000432145
0.00058701
0.000697851
0.000782292
0.000854369
0.000921195
0.000986188
0.00105163
0.00112049
0.0011983
0.000115979
0.000246456
0.000429997
0.000585603
0.000697353
0.000782037
0.00085385
0.00092016
0.000984558
0.00104944
0.00111787
0.00119572
0.000116
0.000245519
0.000427794
0.000584057
0.000696729
0.00078171
0.000853284
0.0009191
0.000982927
0.00104726
0.00111521
0.00119215
0.000116003
0.000244543
0.000425537
0.000582356
0.000695965
0.000781281
0.000852667
0.000918012
0.000981285
0.00104509
0.00111257
0.00118881
0.000115992
0.000243622
0.000423238
0.000580551
0.000695073
0.000780769
0.000851999
0.000916907
0.00097964
0.00104293
0.00110997
0.00118652
0.000115974
0.000242705
0.000420902
0.000578601
0.000694045
0.000780171
0.000851287
0.000915781
0.00097799
0.00104077
0.00110741
0.00118381
0.000115934
0.000241798
0.000418533
0.000576537
0.000692892
0.000779475
0.000850522
0.000914629
0.000976338
0.00103862
0.00110489
0.00118114
0.000115879
0.000240897
0.000416137
0.000574363
0.000691614
0.000778684
0.0008497
0.000913456
0.000974682
0.00103648
0.00110237
0.00117782
0.00011582
0.000240051
0.000413725
0.000572086
0.000690203
0.000777802
0.000848831
0.000912258
0.000973019
0.00103437
0.00109985
0.00117494
0.000115744
0.000239172
0.000411295
0.000569691
0.000688671
0.000776832
0.000847897
0.000911035
0.000971361
0.00103225
0.0010973
0.00117126
0.000115651
0.000238345
0.000408852
0.000567204
0.000687009
0.00077575
0.000846919
0.000909793
0.000969696
0.00103014
0.00109479
0.00116933
0.000115556
0.000237531
0.000406435
0.000564657
0.000685248
0.000774588
0.000845871
0.000908513
0.000968015
0.00102803
0.00109228
0.00116656
0.000115441
0.000236753
0.000403979
0.000562007
0.000683358
0.000773322
0.000844766
0.000907208
0.00096633
0.00102592
0.00108978
0.00116347
0.000115311
0.000235952
0.000401522
0.00055928
0.000681344
0.000771952
0.000843594
0.000905862
0.000964629
0.00102382
0.00108727
0.00116003
0.00011517
0.000235202
0.000399074
0.000556488
0.000679237
0.000770489
0.000842353
0.000904489
0.000962919
0.00102171
0.00108477
0.0011571
0.000115023
0.000234466
0.000396667
0.00055361
0.000677009
0.000768919
0.000841051
0.000903081
0.000961205
0.00101961
0.00108224
0.00115366
0.000114859
0.000233774
0.000394237
0.0005507
0.000674678
0.000767254
0.000839678
0.000901637
0.000959478
0.00101752
0.00107971
0.00115084
0.000114691
0.00023309
0.00039185
0.000547733
0.000672232
0.000765493
0.000838233
0.000900165
0.000957744
0.00101542
0.00107717
0.00114759
0.000114487
0.000232398
0.000389471
0.000544694
0.000669699
0.000763625
0.000836726
0.00089865
0.00095599
0.00101331
0.00107465
0.00114494
0.000114314
0.000231761
0.000387124
0.000541628
0.000667069
0.000761662
0.000835149
0.000897097
0.000954226
0.0010112
0.0010721
0.00114167
0.000114096
0.000231143
0.000384786
0.000538525
0.000664331
0.000759598
0.000833494
0.000895501
0.000952433
0.00100909
0.00106957
0.00113872
0.000113855
0.000230541
0.000382472
0.000535376
0.000661526
0.00075745
0.000831764
0.000893863
0.000950627
0.00100696
0.00106701
0.00113534
0.000113629
0.000229932
0.000380193
0.000532183
0.000658619
0.000755202
0.000829968
0.000892173
0.000948792
0.00100482
0.00106446
0.00113243
0.000113384
0.000229417
0.000377925
0.000528978
0.00065564
0.000752848
0.000828092
0.000890435
0.000946932
0.00100266
0.00106187
0.00112897
0.000113129
0.000228839
0.000375733
0.000525791
0.000652594
0.000750409
0.00082613
0.000888648
0.000945048
0.00100049
0.00105926
0.00112558
0.000112857
0.000228349
0.000373493
0.000522521
0.000649432
0.00074786
0.000824079
0.000886801
0.000943128
0.000998314
0.00105666
0.00112255
0.000112576
0.000227878
0.000371363
0.000519279
0.000646245
0.000745228
0.000821965
0.000884904
0.000941188
0.000996125
0.00105407
0.00111929
0.000112257
0.000227363
0.000369239
0.000516011
0.000642963
0.000742512
0.000819761
0.00088296
0.00093922
0.00099392
0.00105148
0.00111655
0.000111956
0.000226919
0.000367172
0.000512749
0.00063961
0.000739689
0.000817473
0.000880946
0.000937207
0.000991697
0.00104886
0.00111326
0.000111662
0.000226549
0.000365152
0.000509473
0.000636209
0.000736774
0.000815103
0.000878882
0.000935168
0.000989454
0.00104624
0.00111033
0.000111328
0.00022613
0.000363151
0.000506207
0.000632742
0.000733784
0.000812653
0.000876755
0.000933083
0.000987187
0.00104359
0.00110695
0.000110965
0.000225751
0.000361201
0.000502934
0.000629237
0.000730706
0.000810119
0.000874567
0.000930961
0.00098489
0.00104096
0.00110425
0.000110624
0.000225405
0.000359262
0.000499681
0.000625669
0.000727541
0.000807499
0.000872303
0.000928795
0.000982565
0.0010383
0.00110108
0.000110257
0.000225066
0.000357408
0.000496419
0.000622045
0.000724281
0.000804802
0.000869974
0.000926577
0.000980213
0.0010356
0.00109751
0.000109877
0.00022476
0.000355605
0.000493196
0.000618399
0.000720967
0.000802009
0.000867577
0.000924311
0.000977842
0.00103289
0.0010942
0.000109487
0.000224476
0.000353829
0.000490001
0.000614707
0.000717565
0.000799128
0.000865101
0.000922
0.000975435
0.0010302
0.0010915
0.000109084
0.000224212
0.00035211
0.00048683
0.000610969
0.000714087
0.00079617
0.000862555
0.000919637
0.000973004
0.00102748
0.00108828
0.000108642
0.000223957
0.00035043
0.000483639
0.000607229
0.000710539
0.000793114
0.000859949
0.000917219
0.00097053
0.00102476
0.00108546
0.000108218
0.000223737
0.000348801
0.000480501
0.000603449
0.000706897
0.00078998
0.000857248
0.000914751
0.00096803
0.001022
0.00108201
0.000107779
0.000223545
0.000347231
0.000477418
0.000599614
0.000703197
0.000786743
0.000854473
0.000912231
0.000965501
0.00101927
0.00107923
0.000107327
0.000223382
0.000345714
0.000474356
0.000595795
0.000699418
0.000783418
0.000851617
0.000909642
0.000962937
0.00101654
0.0010765
0.000106862
0.00022324
0.00034421
0.000471304
0.000591936
0.000695569
0.000780015
0.000848677
0.000906976
0.000960315
0.00101381
0.00107418
0.000106384
0.000223122
0.000342806
0.000468331
0.000588091
0.000691691
0.000776528
0.000845662
0.000904261
0.000957667
0.00101103
0.00107044
0.000105892
0.000223034
0.000341456
0.000465367
0.000584214
0.000687725
0.000772966
0.000842568
0.000901479
0.000954985
0.00100826
0.00106752
0.00010536
0.000222909
0.000340122
0.000462455
0.000580342
0.000683713
0.000769316
0.000839377
0.000898626
0.000952257
0.0010054
0.00106394
0.000104867
0.00022289
0.000338857
0.000459603
0.000576469
0.000679623
0.000765576
0.0008361
0.000895702
0.00094947
0.00100251
0.00106064
0.000104306
0.00022283
0.000337658
0.000456804
0.000572584
0.000675524
0.000761743
0.000832729
0.000892711
0.00094663
0.000999543
0.00105695
0.000103758
0.000222818
0.000336529
0.000454074
0.000568745
0.000671347
0.000757836
0.000829278
0.000889639
0.000943728
0.000996562
0.0010539
0.000103197
0.000222799
0.000335429
0.000451371
0.000564893
0.000667137
0.000753844
0.000825729
0.000886479
0.000940757
0.000993493
0.00105022
0.00010262
0.000222869
0.000334403
0.000448743
0.000561065
0.000662867
0.000749762
0.000822101
0.000883242
0.000937735
0.000990422
0.00104704
0.000102002
0.000222857
0.000333446
0.000446185
0.000557239
0.000658591
0.000745612
0.000818372
0.000879927
0.000934636
0.00098726
0.00104336
0.000101395
0.000222948
0.000332521
0.000443665
0.000553447
0.000654242
0.000741387
0.000814532
0.000876509
0.000931466
0.000984113
0.0010405
0.000100774
0.000223032
0.000331676
0.000441231
0.0005497
0.000649903
0.000737074
0.000810607
0.000873001
0.000928208
0.000980899
0.00103704
0.000100136
0.000223161
0.000330908
0.000438847
0.000545969
0.000645523
0.000732702
0.000806603
0.000869409
0.000924901
0.000977607
0.00103321
9.94809e-05
0.000223326
0.000330173
0.000436555
0.000542294
0.000641134
0.00072825
0.000802488
0.000865719
0.000921511
0.000974291
0.00102992
9.88101e-05
0.000223484
0.000329524
0.000434356
0.000538646
0.000636715
0.00072374
0.000798284
0.000861925
0.000918032
0.000970944
0.00102683
9.80951e-05
0.000223629
0.000328917
0.000432219
0.000535062
0.000632277
0.00071917
0.000793973
0.000858033
0.000914478
0.000967532
0.00102312
9.73888e-05
0.000223837
0.000328397
0.000430147
0.000531515
0.000627851
0.000714525
0.000789578
0.000854048
0.000910833
0.000964065
0.00101967
9.66378e-05
0.000224029
0.00032792
0.000428187
0.000528053
0.000623442
0.000709813
0.000785074
0.000849944
0.000907092
0.000960465
0.00101564
9.58935e-05
0.00022429
0.000327544
0.000426339
0.000524648
0.000619028
0.000705059
0.00078047
0.000845729
0.000903245
0.000956768
0.00101151
9.51623e-05
0.000224628
0.000327218
0.000424536
0.000521331
0.00061462
0.000700248
0.000775787
0.000841416
0.000899297
0.000953014
0.00100778
9.43592e-05
0.000224884
0.000326952
0.000422892
0.000518085
0.000610251
0.000695392
0.000771023
0.000836984
0.000895237
0.000949112
0.00100357
9.35567e-05
0.000225214
0.000326784
0.000421296
0.000514914
0.000605904
0.000690516
0.00076614
0.000832435
0.000891067
0.000945182
0.00099994
9.27379e-05
0.000225599
0.000326671
0.000419833
0.000511864
0.000601616
0.000685603
0.000761193
0.000827787
0.000886788
0.000941155
0.000995736
9.18711e-05
0.000225925
0.000326658
0.000418472
0.000508898
0.000597343
0.00068068
0.00075616
0.000823025
0.000882421
0.000937061
0.000991444
9.10058e-05
0.000226335
0.000326716
0.00041725
0.000506036
0.000593145
0.00067571
0.000751052
0.000818133
0.000877892
0.000932788
0.000987572
9.01219e-05
0.000226803
0.000326797
0.000416098
0.000503284
0.000589009
0.000670749
0.000745834
0.000813104
0.00087321
0.000928377
0.000983034
8.9216e-05
0.00022724
0.000327043
0.000415108
0.000500692
0.000584976
0.000665789
0.00074057
0.000807982
0.000868424
0.000923901
0.000978899
8.82855e-05
0.000227754
0.000327322
0.000414246
0.000498226
0.000581007
0.000660866
0.000735246
0.000802737
0.000863475
0.000919241
0.000974107
8.73026e-05
0.000228217
0.000327726
0.000413548
0.000495907
0.000577172
0.000655943
0.000729863
0.00079737
0.000858426
0.000914533
0.000969716
8.62887e-05
0.000228748
0.000328164
0.000412947
0.000493743
0.000573451
0.000651095
0.000724465
0.000791924
0.000853235
0.000909673
0.000964802
8.53051e-05
0.000229389
0.000328745
0.000412526
0.000491749
0.000569859
0.000646273
0.000719012
0.000786393
0.000847934
0.000904683
0.000959771
8.42779e-05
0.000229997
0.000329415
0.000412234
0.000489961
0.000566422
0.000641551
0.000713541
0.000780727
0.00084244
0.000899415
0.000954751
8.31881e-05
0.000230619
0.000330183
0.000412136
0.000488335
0.000563156
0.000636925
0.000708089
0.000774975
0.000836804
0.000894027
0.000949323
8.20625e-05
0.000231266
0.000331051
0.000412205
0.000486923
0.000560083
0.000632414
0.000702634
0.00076916
0.000831054
0.000888558
0.000944336
8.09618e-05
0.000232042
0.000332026
0.000412433
0.000485766
0.000557221
0.00062803
0.00069724
0.000763272
0.000825129
0.00088282
0.000938363
7.97866e-05
0.00023277
0.000333121
0.000412887
0.000484826
0.000554603
0.000623844
0.000691889
0.00075734
0.000819092
0.000876904
0.000932499
7.85647e-05
0.000233535
0.000334338
0.000413554
0.000484181
0.000552258
0.000619864
0.000686657
0.000751384
0.000812917
0.000870765
0.0009261
7.73614e-05
0.000234432
0.000335682
0.00041441
0.000483799
0.000550207
0.0006161
0.000681531
0.000745436
0.000806641
0.000864458
0.000919649
7.60793e-05
0.000235287
0.000337171
0.000415538
0.000483739
0.000548493
0.00061264
0.000676578
0.000739509
0.000800249
0.000857953
0.000912869
7.47698e-05
0.000236202
0.0003388
0.000416897
0.000484028
0.000547142
0.000609469
0.000671822
0.000733617
0.000793752
0.000851285
0.000906487
7.33958e-05
0.000237129
0.000340563
0.000418573
0.000484692
0.000546186
0.000606675
0.00066729
0.000727764
0.000787143
0.00084435
0.000899222
7.19921e-05
0.000238107
0.000342539
0.00042054
0.000485781
0.000545695
0.000604247
0.000663011
0.000722008
0.000780459
0.00083725
0.000892118
7.05116e-05
0.000239039
0.000344676
0.000422853
0.000487285
0.000545629
0.000602198
0.000658988
0.000716356
0.000773672
0.000829873
0.000884226
6.89824e-05
0.000240024
0.000346995
0.000425476
0.000489196
0.000545988
0.000600534
0.000655207
0.000710737
0.000766739
0.000822157
0.000876247
6.73811e-05
0.000240888
0.000349417
0.000428423
0.000491443
0.000546705
0.000599237
0.000651783
0.000705328
0.000759776
0.000814214
0.000868151
6.54201e-05
0.000239934
0.000349847
0.000430268
0.000492582
0.00054666
0.000597414
0.000648149
0.000699735
0.000752997
0.000806289
0.00085967
0.000476111
0.00154615
0.0016389
0.00188114
0.00188279
0.000623469
0.0006115
0.000464005
0.00137372
0.00205851
0.00381102
0.00201777
0.00423607
0.00142551
0.000563979
0.00133194
0.00149672
0.00503973
0.00502441
0.00131808
0.000727068
0.00049085
0.00737837
0.00354666
0.000476852
0.00164094
0.000570975
0.000776282
0.00194138
0.00122727
0.0017803
0.00033598
0.00146193
0.00377558
0.00412062
0.00105845
0.000154722
0.00156931
0.000467188
0.00207081
0.00186243
0.0012924
0.00386139
0.00105764
0.000274353
0.00049284
0.00577826
0.00374168
0.000277426
0.000731453
0.00105926
0.000466514
0.000338354
0.00124158
0.0016483
0.00150616
0.00238619
0.00129175
0.00156969
0.000561743
0.000619152
0.000336973
0.00124141
0.00286411
0.00423413
0.00152244
0.000933778
0.000318824
0.000656476
0.0022756
0.00172057
0.00531449
0.000465471
0.00109788
0.0035753
0.00127022
0.00138672
0.00123814
0.00560193
0.000466124
0.00455636
0.0012397
0.000196773
0.000382882
0.00284922
0.00160378
0.000935281
0.00124135
0.00264588
0.000198043
0.000576272
0.00147006
0.00124139
0.00140599
0.000350526
0.00127353
0.000774724
0.00163217
0.00124228
0.000944503
0.000763198
0.00322905
0.00128862
0.00148647
0.00123884
0.000350543
0.000356165
0.000422311
0.0013243
0.000246742
0.0015203
0.00123992
0.000444565
0.00136783
0.00124078
0.000519689
0.00315773
0.00225817
0.00155136
0.00429641
0.000784136
0.00378081
0.00147247
0.00359096
0.00443926
0.00281649
0.00141262
0.000260615
0.00403572
0.00124136
3.92633e-05
0.00124223
5.6061e-05
0.00148667
0.000565917
0.00163153
0.000172742
0.00241785
0.00044624
0.00175077
0.00296912
0.000686212
0.000461334
0.000449252
8.79004e-05
0.00163051
0.000466113
0.00152435
0.0014081
0.000578794
0.000622327
0.000513014
0.00124177
0.00444832
0.00356408
0.0012436
0.000442388
0.0012691
0.0016539
0.00192841
0.00368549
0.00133684
0.00452502
0.00261041
0.000770412
0.00335087
0.000277029
0.000254244
0.000547559
0.00123743
0.00155842
0.00109075
0.00164402
0.00304706
0.00123877
0.00160346
0.00123853
0.000411813
0.00235888
0.00133937
0.000277054
0.00524711
0.00426803
0.000470295
0.00129823
0.000461144
0.00125531
0.00124028
9.20533e-05
0.00124087
0.00231999
0.00124496
0.000395863
0.00155997
0.000449522
0.000556829
0.000610983
0.000536965
0.00123981
0.00221234
0.00146466
0.000461367
0.000281641
0.000462142
0.000472346
0.00696635
0.00416413
0.00317107
0.00113113
0.00271672
5.35337e-05
0.00138385
0.000468053
0.000412932
0.00123977
0.000467974
0.0025125
0.00146465
0.00222818
0.000190145
0.000385548
0.0014628
0.000420572
0.0012482
0.00125138
0.00277151
0.00160008
0.00126892
0.00107099
0.00413116
5.24713e-05
0.00445563
0.00124156
0.000905142
0.00149873
0.000474271
0.000463901
0.00148398
0.00111469
0.000455331
0.00424525
0.00593842
0.00434101
0.0026811
6.46262e-05
5.3846e-05
5.64464e-05
0.00132074
0.00390398
0.000466423
0.00221328
0.00109946
0.00232955
0.000350223
0.00023221
0.00283486
0.000985514
0.000452428
0.00207196
0.00042721
0.00271386
0.00047277
0.0029442
0.00416275
7.28653e-05
0.000469111
0.00130794
0.000476746
0.00146222
0.00121607
0.000691659
0.00525477
0.00138366
4.49161e-05
4.56824e-05
0.00138845
0.000175974
5.7625e-05
0.000281828
0.000137364
0.000377442
0.000173214
0.000466075
0.000470771
0.00134114
0.00060892
0.00161612
4.73333e-05
0.00131187
0.000759657
0.000136782
0.00146445
4.63327e-05
4.60228e-05
0.000445295
0.000397506
0.00189405
4.48872e-05
0.00585078
0.000380987
0.000459991
0.000992616
0.000498219
0.00177585
0.00375153
0.00151392
0.000286309
0.00124093
0.00527266
0.00474796
0.00565776
0.000184475
0.00124556
0.00129127
0.000460551
0.00433413
4.91555e-05
0.00121198
0.0012398
8.29276e-05
0.00463051
0.00207999
0.00149409
0.000236383
0.000453312
0.00121132
0.00141304
0.0012413
0.00125522
0.00018316
0.0013304
0.00124853
0.00217605
0.00124167
0.00125454
0.00126447
0.0012387
0.00763535
0.00124193
0.00173124
0.000785888
0.000473317
0.00124211
0.0005275
0.00229348
4.55488e-05
5.33936e-05
0.00164733
0.0014034
0.00137908
0.00123917
0.00126817
0.00633902
0.00227136
4.08651e-05
0.00123877
0.00493519
0.000366462
0.00134596
0.00235922
0.000102744
0.000267366
0.0013273
0.00148834
0.000851522
0.00191633
0.00135631
0.00124133
0.00141329
0.00144338
0.00501248
9.64607e-05
0.000453491
0.00013413
0.0014763
0.000629137
0.000463307
0.00140057
0.00125293
0.00177314
0.00102273
0.00165037
0.00125998
0.000469455
0.00034932
0.00059916
0.00124599
0.0043049
0.000540042
0.00379447
0.00126065
0.00117331
0.00191719
0.0003937
0.00044554
0.00137493
0.00142045
0.00124391
0.00299864
0.00141346
0.00185194
0.00237507
0.000896957
0.00217793
0.00392952
0.000168672
0.00139393
0.00146923
6.48251e-05
0.000422278
0.00124075
0.00124973
0.00124195
0.00129446
0.00606803
0.000454679
0.000128214
0.000536859
0.000527652
0.00125597
0.000243017
0.000467522
0.00123812
0.00124759
0.00045625
0.00124762
0.00271229
0.00136907
0.000449729
0.00123843
0.00197506
0.00424399
0.00505776
0.000460034
0.00463782
0.00123831
0.00124103
0.00116124
0.00132024
0.00253522
0.000289415
4.03147e-05
0.00194332
0.000457809
0.00190355
0.000986087
0.00132713
0.000442498
0.00153742
0.001239
0.00198004
0.000460021
5.42789e-05
0.00221206
0.00198968
0.000690014
0.00163498
4.75786e-05
0.000423049
0.00443427
0.0005247
0.00341824
0.00498105
0.00245508
0.00132246
0.00129825
0.00175931
0.000691042
0.000571885
5.90211e-05
0.00359452
0.000282083
9.53935e-05
0.00123979
0.00178951
0.00133398
0.00044282
0.0012387
0.000327533
0.00088176
0.00037601
0.000203245
0.000468656
0.00244949
0.00442156
9.41689e-05
5.02013e-05
0.00134074
0.00310898
0.00124566
0.00420104
0.000909927
0.000318197
0.00138187
0.00424493
0.000158155
0.00107145
0.00116451
0.000469905
0.000224428
0.00122693
0.000480132
0.000311725
0.00127058
0.00344158
0.000401179
0.000706727
0.0013688
0.000190449
0.00185712
0.00044952
0.00127706
0.000944789
0.00336368
0.00124133
0.0006619
4.12141e-05
0.00124802
0.00149929
0.00214926
0.00428102
0.00146413
0.00127215
0.000466303
0.00124136
0.00029335
0.00149413
4.44066e-05
9.41012e-05
0.00186459
4.71817e-05
0.000814604
0.00124899
0.00159124
0.00126869
0.0040412
0.00134676
0.000378721
0.000446585
0.00193525
0.00134495
0.00369033
0.00177857
0.00262798
0.00173119
0.00123895
0.00466305
0.00123871
0.00571766
0.000559307
0.00452343
0.000973622
0.000647122
0.000434002
0.00489605
0.00317815
0.000456314
6.86735e-05
0.0012414
0.00124142
0.00108619
0.000715685
0.000389212
0.0024348
0.0053537
0.00129496
0.000328463
0.00123859
0.00419506
0.000473202
0.00158139
0.00127686
0.000492569
0.000104142
0.000389112
0.00259011
0.0012403
0.00341504
0.00124285
0.00139667
0.0029608
0.000369041
0.00159619
0.00125415
0.00140907
0.00588941
0.000418471
0.000914809
0.0013899
0.000216826
0.00423551
0.00124168
0.000571134
8.15219e-05
0.000458901
0.00327984
0.00123932
0.00145823
0.00129882
0.000464404
0.00124778
0.000725694
0.00104816
0.0012748
0.00179021
0.000396586
0.00137018
0.000984152
0.00117003
0.00134774
0.000757586
0.00490297
0.00338254
0.00123901
0.00124142
0.00159566
0.000460184
0.000471722
0.000461385
0.00158465
0.000764735
0.00393733
0.00118666
0.000469681
0.00139788
0.00248721
0.000325903
0.00123755
0.00209784
0.000280889
0.000277531
0.00126522
0.00124622
6.87946e-05
0.000185233
0.00132947
0.00397098
0.000820613
0.000414046
0.0012525
3.53067e-05
0.000687593
0.0007027
0.00168276
0.00104383
0.000859
0.0014108
0.00128495
0.00044946
0.000132793
0.00126256
0.00124199
0.00141049
0.00116602
0.0015628
0.00123993
0.00214922
0.00124132
0.00117265
0.000499521
0.00485934
0.00124663
0.00147051
0.000613268
0.000356588
0.00199643
0.000195168
0.00742291
0.000800439
0.00137015
0.00124096
0.00309578
0.00140705
0.00023044
0.00153458
0.00175519
0.00238942
0.00227222
0.000133177
0.00123983
0.000773115
0.00117403
0.000458116
0.0012872
0.00491113
0.00036617
0.000311731
0.00187416
0.0051964
0.00154398
0.00046591
0.0025435
0.000467145
0.00124065
0.00198252
0.0013007
0.00123741
0.00010441
0.00124153
4.6829e-05
0.0022985
0.00110754
0.001272
0.00118667
0.000422928
0.00183665
0.00150805
0.00129646
0.00619237
0.0022298
0.00281126
0.00505407
0.00159688
0.00123914
0.00124153
0.000465352
0.00570514
5.87736e-05
0.00052984
0.00127946
4.63551e-05
4.06801e-05
4.47505e-05
0.00302596
0.000694206
3.76141e-05
0.00124133
0.000132991
0.000125587
0.000464483
0.0012423
0.00242101
0.001441
0.000112769
0.0012431
0.00165731
0.0012391
0.00522235
0.00223318
0.00132971
0.000451863
0.00123977
0.00448372
0.00041829
0.00124246
0.0014264
0.00124071
0.00138432
0.00308162
0.00128259
0.00113114
0.00255388
0.000462723
0.00124019
0.0010673
0.00124198
0.000613178
0.00267042
0.0034988
0.000515453
0.00276663
0.00161042
0.00125867
0.000157444
0.00100476
0.00117538
5.33837e-05
0.000497324
0.00123808
0.000129491
0.000600273
0.00075346
0.00102241
0.00120848
0.00139539
0.000475776
0.00434319
0.0012372
0.00363097
0.00143403
0.00349304
0.000133432
0.000764098
0.00124873
0.000215793
0.000386139
0.00137321
0.00188114
0.00130694
0.000607067
0.000990038
0.00119252
0.00412978
0.00173483
0.000294169
0.000186243
0.00428544
0.000153137
0.0012485
5.08755e-05
0.00158649
0.00127975
0.00146752
0.00112773
0.00101936
0.0061112
0.00135028
0.00323937
0.00291215
0.00140272
0.00288942
0.00273401
0.00124195
0.00150425
0.00469927
4.41343e-05
0.000469543
4.4637e-05
0.000719869
0.00189222
0.00108596
0.0012407
0.00124167
0.0004432
0.00661906
0.00133196
0.00156123
0.00123835
0.00160789
0.0025216
0.00513577
0.0013061
0.00160286
0.00146382
0.00208387
0.00135924
0.00548785
0.000391195
0.000540683
0.00124067
0.000541699
0.00144978
0.00168524
0.00216945
4.80332e-05
0.00364158
0.00211522
0.000676214
0.00402496
0.00242754
0.0039562
0.00565846
0.00129909
3.9424e-05
0.00124135
0.00129153
0.000441415
0.00281013
0.00270476
0.00108721
0.000430556
0.00124162
0.00124171
0.00147985
0.000129853
0.00137853
0.00123818
0.00133825
0.00272292
0.000465511
0.0013784
5.29795e-05
0.00116328
0.00166788
0.00036648
0.00125649
0.00130547
0.000124822
0.000379033
0.000154229
0.00124386
0.00123962
0.00109213
0.00160944
0.00235812
0.00126821
0.00124233
0.00425164
0.00126157
0.00181521
0.00304065
0.00557867
0.00243031
0.00152272
0.000438204
5.5226e-05
0.000460721
0.00200511
0.00124287
0.0002836
0.00127007
0.000263032
0.00124124
0.00181201
0.00125758
0.00124113
0.00443537