/*--------------------------------*- C++ -*----------------------------------*\
| =========                 |                                                 |
| \\      /  F ield         | OpenFOAM: The Open Source CFD Toolbox           |
|  \\    /   O peration     | Version:  2.3.1                                 |
|   \\  /    A nd           | Web:      www.OpenFOAM.org                      |
|    \\/     M anipulation  |                                                 |
\*---------------------------------------------------------------------------*/
FoamFile
{
    version     2.0;
    format      ascii;
    class       volScalarField;
    location    "0.35";
    object      p;
}
// * * * * * * * * * * * * * * * * * * * * * * * * * * * * * * * * * * * * * //

dimensions      [0 2 -2 0 0 0 0];

internalField   nonuniform List<scalar> 
15166
(
-17.258
-22.2881
-25.059
-27.2702
-29.1494
-30.7477
-32.1805
-33.4381
-34.5254
-35.3323
-36.0745
-36.6478
-21.9778
-24.4912
-25.8527
-27.5203
-29.0944
-30.5202
-31.8248
-33.004
-34.036
-34.8657
-35.6071
-36.2005
-27.1668
-28.0554
-28.3305
-29.2662
-30.2642
-31.2797
-32.2789
-33.2111
-34.0607
-34.7866
-35.4319
-35.9694
-30.1442
-30.5564
-30.551
-31.1117
-31.7031
-32.3718
-33.0763
-33.7642
-34.415
-34.994
-35.5135
-35.9422
-32.0134
-32.2681
-32.2422
-32.6421
-33.0189
-33.4734
-33.9676
-34.4652
-34.9482
-35.3901
-35.7932
-36.1423
-33.662
-33.7815
-33.7238
-33.9982
-34.2341
-34.5432
-34.8846
-35.2349
-35.5809
-35.9035
-36.2
-36.4625
-35.253
-35.253
-35.1458
-35.2989
-35.416
-35.6037
-35.8184
-36.0453
-36.2737
-36.4888
-36.6842
-36.8468
-36.7266
-36.639
-36.4941
-36.5464
-36.5662
-36.65
-36.7565
-36.8774
-37.0036
-37.1241
-37.2324
-37.3191
-38.0647
-37.9111
-37.7428
-37.718
-37.6633
-37.663
-37.6803
-37.7122
-37.7515
-37.7903
-37.8229
-37.8405
-39.2878
-39.081
-38.897
-38.8119
-38.6998
-38.632
-38.5769
-38.5353
-38.5015
-38.47
-38.4348
-38.3877
-40.4179
-40.1677
-39.9716
-39.837
-39.679
-39.5559
-39.4413
-39.3382
-39.2427
-39.1515
-39.0596
-38.9489
-41.4722
-41.1848
-40.9784
-40.8018
-40.6059
-40.4363
-40.2718
-40.117
-39.969
-39.8266
-39.6893
-39.546
-42.4578
-42.1393
-41.9243
-41.712
-41.4841
-41.2748
-41.0681
-40.8691
-40.6758
-40.4879
-40.3064
-40.1319
-43.3823
-43.0369
-42.8146
-42.5717
-42.3167
-42.0737
-41.8306
-41.5928
-41.359
-41.1276
-40.8899
-40.6333
-44.2521
-43.8834
-43.6547
-43.3851
-43.1069
-42.8348
-42.5607
-42.2901
-42.0229
-41.7614
-41.5084
-41.2454
-45.0723
-44.6832
-44.4488
-44.1561
-43.8579
-43.5607
-43.2602
-42.9617
-42.6655
-42.3736
-42.0909
-41.8146
-45.8473
-45.4405
-45.2009
-44.8878
-44.5722
-44.253
-43.9294
-43.6062
-43.2843
-42.9649
-42.6513
-42.3495
-46.5819
-46.1587
-45.9139
-45.5827
-45.2516
-44.9131
-44.5692
-44.2245
-43.8805
-43.5386
-43.2002
-42.8715
-47.2778
-46.8404
-46.5909
-46.2435
-45.8988
-45.5433
-45.1815
-44.8177
-44.4542
-44.0933
-43.7366
-43.3874
-47.9386
-47.4882
-47.2343
-46.8723
-46.5153
-46.1444
-45.7667
-45.3858
-45.0048
-44.6261
-44.253
-43.8933
-48.5663
-48.1041
-47.8459
-47.4709
-47.1028
-46.7181
-46.3259
-45.9295
-45.532
-45.1357
-44.7434
-44.3663
-49.1624
-48.6899
-48.428
-48.041
-47.6627
-47.2655
-46.8603
-46.4497
-46.0371
-45.6242
-45.211
-44.8056
-49.7323
-49.2485
-48.9822
-48.5841
-48.1967
-47.7883
-47.3712
-46.9482
-46.5227
-46.0977
-45.6742
-45.2584
-50.2732
-49.7793
-49.5096
-49.1017
-48.7059
-48.2873
-47.8597
-47.4257
-46.9888
-46.5521
-46.1158
-45.6812
-50.7819
-50.2831
-50.0111
-49.5943
-49.191
-48.7634
-48.3265
-47.8825
-47.4352
-46.9878
-46.5415
-46.0955
-51.2721
-50.7643
-50.4887
-50.0634
-49.6534
-49.2175
-48.7722
-48.3191
-47.8624
-47.4052
-46.9488
-46.4904
-51.7377
-51.2219
-50.9435
-50.5104
-50.094
-49.6505
-49.1974
-48.7361
-48.271
-47.8058
-47.3436
-46.8791
-52.1808
-51.6567
-51.3757
-50.9355
-50.5134
-50.0629
-49.6025
-49.1336
-48.6605
-48.1862
-47.7138
-47.2447
-52.597
-52.0689
-51.7865
-51.3396
-50.912
-50.4551
-49.9882
-49.5122
-49.0316
-48.5492
-48.066
-47.5783
-52.9938
-52.46
-52.1764
-51.7232
-51.2909
-50.8282
-50.3553
-49.8729
-49.3858
-48.8972
-48.4095
-47.9159
-53.3703
-52.8336
-52.5468
-52.0875
-51.6508
-51.1826
-50.7041
-50.216
-49.723
-49.2283
-48.7346
-48.2344
-53.7306
-53.1887
-52.8986
-52.4331
-51.992
-51.5187
-51.0352
-50.5417
-50.0433
-49.5429
-49.0448
-48.5433
-54.0613
-53.5213
-53.2298
-52.7593
-52.3145
-51.8367
-51.3486
-50.8504
-50.3468
-49.8406
-49.3349
-48.8253
-54.3812
-53.8367
-53.5419
-53.067
-52.619
-52.1371
-51.6449
-51.1424
-50.6345
-50.1242
-49.6152
-49.1055
-54.6819
-54.133
-53.8365
-53.3569
-52.9057
-52.4201
-51.9244
-51.4181
-50.9066
-50.3928
-49.8797
-49.3646
-54.9598
-54.4103
-54.113
-53.6292
-53.1753
-52.6861
-52.1869
-51.6771
-51.1622
-50.6456
-50.1318
-49.618
-55.2218
-54.67
-54.3723
-53.884
-53.4274
-52.935
-52.4325
-51.9192
-51.4003
-50.8786
-50.3582
-49.8435
-55.4718
-54.9138
-54.6149
-54.1218
-53.6628
-53.1671
-52.6613
-52.1443
-51.6213
-51.0945
-50.5643
-50.0278
-55.6951
-55.138
-54.8404
-54.3425
-53.8814
-53.3828
-52.874
-52.3538
-51.8275
-51.2975
-50.763
-50.2037
-55.9102
-55.3468
-55.0495
-54.5462
-54.0834
-53.5822
-53.0711
-52.5486
-52.0205
-51.4913
-50.9698
-50.4442
-56.1024
-55.5377
-55.2415
-54.733
-54.2692
-53.7657
-53.2523
-52.7275
-52.1966
-51.6615
-51.1259
-50.5903
-56.2794
-55.7148
-55.4156
-54.9027
-54.4386
-53.9329
-53.4174
-52.8904
-52.3573
-51.8206
-51.2843
-50.7419
-56.445
-55.8767
-55.5739
-55.0568
-54.5925
-54.0846
-53.5673
-53.0384
-52.5035
-51.9655
-51.4277
-50.8805
-56.5852
-56.0206
-55.7178
-55.1942
-54.7313
-54.2214
-53.7026
-53.172
-52.6356
-52.096
-51.5584
-51.0177
-56.7173
-56.1496
-55.8445
-55.3176
-54.856
-54.3434
-53.8231
-53.2911
-52.7531
-52.2115
-51.6702
-51.1243
-56.827
-56.2606
-55.9537
-55.4263
-54.967
-54.4503
-53.9288
-53.3958
-52.8567
-52.3144
-51.7746
-51.2409
-56.9231
-56.3572
-56.0467
-55.5223
-55.0617
-54.5406
-54.0195
-53.4856
-52.9453
-52.4007
-51.8548
-51.3099
-57.0018
-56.4402
-56.1219
-55.6047
-55.1353
-54.6179
-54.096
-53.5608
-53.0193
-52.4741
-51.9292
-51.3928
-57.0683
-56.5073
-56.184
-55.6707
-55.197
-54.6802
-54.1574
-53.6211
-53.0785
-52.5319
-51.9835
-51.4374
-57.1184
-56.5596
-56.2314
-55.7199
-55.2447
-54.7279
-54.2038
-53.6665
-53.1229
-52.5754
-52.0279
-51.4898
-57.1491
-56.594
-56.2645
-55.7539
-55.2774
-54.7604
-54.2353
-53.697
-53.1521
-52.6027
-52.0497
-51.4964
-57.169
-56.6144
-56.2835
-55.7734
-55.2957
-54.7785
-54.2525
-53.7136
-53.168
-52.6182
-52.065
-51.5035
-57.1727
-56.6194
-56.2875
-55.7776
-55.2991
-54.782
-54.2557
-53.7168
-53.172
-52.6245
-52.0793
-51.5325
-57.1573
-56.6094
-56.2766
-55.7672
-55.2881
-54.7709
-54.2446
-53.7063
-53.162
-52.6146
-52.0678
-51.5162
-57.1308
-56.5856
-56.2511
-55.7422
-55.2627
-54.7457
-54.2197
-53.6817
-53.1378
-52.5902
-52.0435
-51.4991
-57.0889
-56.5468
-56.211
-55.7026
-55.2229
-54.7066
-54.181
-53.6439
-53.1006
-52.5531
-52.0039
-51.4525
-57.0366
-56.4928
-56.1562
-55.6485
-55.169
-54.6535
-54.129
-53.5933
-53.0513
-52.5052
-51.9585
-51.4168
-56.9599
-56.4236
-56.0866
-55.58
-55.1008
-54.5867
-54.0637
-53.5294
-52.9888
-52.4435
-51.8948
-51.3368
-56.8774
-56.3394
-56.0021
-55.4969
-55.0188
-54.506
-53.9845
-53.4519
-52.9129
-52.3709
-51.8336
-51.3114
-56.7738
-56.2397
-55.9027
-55.3991
-54.9221
-54.4111
-53.8909
-53.3592
-52.8206
-52.2771
-51.7315
-51.1935
-56.656
-56.1256
-55.7892
-55.2875
-54.8115
-54.3016
-53.782
-53.2504
-52.7115
-52.1674
-51.6199
-51.0746
-56.5282
-55.9996
-55.6625
-55.1621
-54.6871
-54.1779
-53.6587
-53.1273
-52.5885
-52.0451
-51.4987
-50.9457
-56.3848
-55.8573
-55.521
-55.0222
-54.5479
-54.0399
-53.5213
-52.9909
-52.4535
-51.9125
-51.3727
-50.8379
-56.2227
-55.6997
-55.3647
-54.8679
-54.3947
-53.8875
-53.3702
-52.8411
-52.3056
-51.7663
-51.2248
-50.6795
-56.0489
-55.5283
-55.1941
-54.6992
-54.2269
-53.7212
-53.2054
-52.6786
-52.1457
-51.6098
-51.0747
-50.5427
-55.8591
-55.343
-55.0096
-54.5161
-54.0451
-53.541
-53.0273
-52.5031
-51.9731
-51.4398
-50.9051
-50.367
-55.6566
-55.1447
-54.8111
-54.3191
-53.8491
-53.3469
-52.8358
-52.3144
-51.7873
-51.2571
-50.7277
-50.2063
-55.4458
-54.9321
-54.5981
-54.1075
-53.6391
-53.1391
-52.6305
-52.112
-51.5874
-51.0583
-50.5265
-49.9953
-55.2074
-54.7015
-54.3695
-53.8817
-53.4151
-52.9179
-52.4119
-51.8961
-51.3739
-50.8475
-50.3208
-49.8088
-54.9597
-54.4577
-54.1271
-53.6416
-53.1777
-52.6831
-52.1799
-51.6663
-51.1463
-50.6216
-50.0938
-49.5735
-54.6997
-54.2011
-53.871
-53.3887
-52.9269
-52.435
-51.9343
-51.4228
-50.9048
-50.3825
-49.8591
-49.3562
-54.425
-53.9286
-53.6009
-53.122
-52.663
-52.1734
-51.6746
-51.1652
-50.649
-50.1282
-49.603
-49.0833
-54.1363
-53.6436
-53.3166
-52.841
-52.3848
-51.8978
-51.4013
-50.8939
-50.3799
-49.8621
-49.3407
-48.8261
-53.8263
-53.3409
-53.018
-52.5465
-52.0928
-51.6086
-51.1146
-50.6101
-50.0995
-49.5861
-49.0719
-48.5699
-53.5047
-53.0251
-52.705
-52.2368
-51.786
-51.3047
-50.8137
-50.3127
-49.8058
-49.2955
-48.7821
-48.2725
-53.1784
-52.7008
-52.3801
-51.9141
-51.465
-50.9867
-50.499
-50.0018
-49.4989
-48.9932
-48.4871
-47.9963
-52.8327
-52.3596
-52.0404
-51.5771
-51.1304
-50.6548
-50.1709
-49.6776
-49.1785
-48.6754
-48.1679
-47.6629
-52.4733
-52.0029
-51.6856
-51.2253
-50.7814
-50.3092
-49.829
-49.34
-48.8451
-48.3468
-47.8469
-47.3626
-52.0984
-51.6332
-51.317
-50.8596
-50.4185
-49.95
-49.474
-48.989
-48.4983
-48.0038
-47.5053
-47.0086
-51.7046
-51.2468
-50.9334
-50.48
-50.0424
-49.5778
-49.1057
-48.6245
-48.138
-47.6481
-47.1588
-46.6871
-51.3014
-50.8477
-50.5363
-50.0872
-49.6531
-49.1926
-48.7241
-48.2462
-47.763
-47.2754
-46.7838
-46.3047
-50.8845
-50.4351
-50.1262
-49.6814
-49.2513
-48.7944
-48.3292
-47.8547
-47.3743
-46.8895
-46.3988
-45.9092
-50.4518
-50.0073
-49.7013
-49.2617
-48.8356
-48.383
-47.9214
-47.4511
-46.9752
-46.4964
-46.0157
-45.5392
-50.0036
-49.565
-49.2625
-48.8281
-48.4062
-47.9579
-47.5008
-47.0351
-46.5646
-46.0921
-45.6217
-45.1679
-49.5406
-49.1084
-48.8095
-48.3801
-47.9627
-47.5186
-47.066
-46.6051
-46.1389
-45.6696
-45.1973
-44.7308
-49.0628
-48.6387
-48.3431
-47.9184
-47.5048
-47.065
-46.6169
-46.161
-45.6999
-45.2359
-44.7715
-44.3276
-48.58
-48.1577
-47.8633
-47.443
-47.0329
-46.5976
-46.1546
-45.7037
-45.2479
-44.7887
-44.3246
-43.8588
-48.0776
-47.6611
-47.3692
-46.9534
-46.5472
-46.1168
-45.679
-45.234
-44.7842
-44.3324
-43.8814
-43.4475
-47.5595
-47.1492
-46.8603
-46.4492
-46.0478
-45.6225
-45.1905
-44.7514
-44.3074
-43.8613
-43.4152
-42.9932
-47.0271
-46.6236
-46.3381
-45.9321
-45.5352
-45.1153
-44.6887
-44.2551
-43.8161
-43.3739
-42.9292
-42.5093
-46.4816
-46.0838
-45.8016
-45.4011
-45.0092
-44.595
-44.1739
-43.7453
-43.3115
-42.8732
-42.4264
-41.9811
-45.922
-45.5303
-45.2521
-44.8576
-44.4711
-44.0624
-43.6471
-43.2246
-42.798
-42.3704
-41.9454
-41.5571
-45.3493
-44.9647
-44.6895
-44.3012
-43.92
-43.517
-43.1074
-42.6908
-42.2704
-41.8481
-41.421
-41.0056
-44.7641
-44.3835
-44.1127
-43.731
-43.3555
-42.9583
-42.5541
-42.1431
-41.7284
-41.3114
-40.8919
-40.4954
-44.1581
-43.7878
-43.522
-43.1469
-42.7769
-42.3857
-41.9873
-41.5828
-41.1744
-40.7642
-40.3499
-39.9405
-43.5473
-43.1805
-42.9176
-42.5485
-42.1846
-41.7994
-41.4077
-41.0101
-40.6092
-40.2076
-39.8074
-39.432
-42.9214
-42.5599
-42.3003
-41.937
-41.5785
-41.1997
-40.8147
-40.4243
-40.0303
-39.6345
-39.2341
-38.8355
-42.2714
-41.9208
-41.6674
-41.3111
-40.9588
-40.5868
-40.2085
-39.8255
-39.4392
-39.0517
-38.6643
-38.3002
-41.6191
-41.2731
-41.0219
-40.6717
-40.3255
-39.9605
-39.5897
-39.2141
-38.8358
-38.456
-38.073
-37.6933
-40.949
-40.6103
-40.3634
-40.0197
-39.6802
-39.322
-38.9587
-38.5909
-38.2205
-37.8492
-37.4805
-37.1365
-40.2677
-39.9343
-39.6912
-39.3544
-39.0216
-38.6712
-38.3152
-37.9553
-37.5922
-37.2267
-36.8567
-36.4987
-39.5673
-39.2428
-39.0054
-38.6767
-38.351
-38.0081
-37.66
-37.3077
-36.9526
-36.5959
-36.2356
-35.8839
-38.8551
-38.5387
-38.3067
-37.9861
-37.6679
-37.3332
-36.9935
-36.6496
-36.3036
-35.9583
-35.6152
-35.2876
-38.1353
-37.8236
-37.5958
-37.2831
-36.9725
-36.6458
-36.3145
-35.9791
-35.6419
-35.3047
-34.9687
-34.6541
-37.3982
-37.0951
-36.8725
-36.5673
-36.2646
-35.9459
-35.6226
-35.2955
-34.9665
-34.6364
-34.3033
-33.9788
-36.6496
-36.353
-36.1356
-35.839
-35.5439
-35.2336
-34.9183
-34.6002
-34.2808
-33.9618
-33.6451
-33.3561
-35.8858
-35.5982
-35.386
-35.0976
-34.8104
-34.5087
-34.2024
-33.8933
-33.5831
-33.2728
-32.9594
-32.6508
-35.1131
-34.8314
-34.6237
-34.3436
-34.0647
-33.7718
-33.475
-33.1758
-32.8755
-32.5758
-32.2758
-31.9899
-34.3269
-34.0514
-33.8495
-33.5781
-33.3074
-33.0237
-32.7367
-32.4481
-32.1591
-31.8719
-31.5874
-31.3232
-33.5251
-33.2591
-33.0629
-32.8
-32.5381
-32.2646
-31.9877
-31.7097
-31.4316
-31.1548
-30.8763
-30.6033
-32.7141
-32.4552
-32.2648
-32.0109
-31.7582
-31.4947
-31.2288
-30.9617
-30.6954
-30.4307
-30.1689
-29.9281
-31.8897
-31.6393
-31.455
-31.2104
-30.9669
-30.714
-30.4593
-30.2042
-29.9502
-29.6974
-29.4431
-29.2028
-31.0591
-30.8147
-30.6352
-30.3997
-30.1657
-29.9235
-29.6802
-29.4372
-29.1963
-28.9589
-28.7247
-28.5246
-30.2155
-29.9783
-29.8038
-29.5779
-29.3539
-29.1229
-28.8907
-28.6593
-28.4303
-28.2052
-27.9824
-27.7688
-29.3582
-29.1303
-28.963
-28.7467
-28.5325
-28.3122
-28.0914
-27.8709
-27.6519
-27.4339
-27.2135
-26.993
-28.4974
-28.2735
-28.1113
-27.9048
-27.7009
-27.492
-27.2832
-27.075
-26.8686
-26.6651
-26.4664
-26.2949
-27.6194
-27.4053
-27.2504
-27.0543
-26.8612
-26.6641
-26.4679
-26.2733
-26.081
-25.8916
-25.7021
-25.5173
-26.736
-26.5293
-26.3803
-26.1947
-26.0129
-25.8289
-25.6462
-25.4661
-25.2888
-25.1159
-24.9476
-24.8011
-25.8434
-25.6463
-25.5038
-25.3283
-25.1577
-24.9862
-24.8174
-24.6527
-24.4922
-24.3359
-24.1824
-24.0465
-24.9485
-24.7558
-24.6189
-24.4541
-24.2956
-24.1376
-23.9834
-23.8339
-23.6901
-23.5521
-23.4197
-23.322
-24.0434
-23.8576
-23.7277
-23.5734
-23.4267
-23.2825
-23.1437
-23.0099
-22.8817
-22.7594
-22.6394
-22.5216
-23.1283
-22.952
-22.8295
-22.687
-22.5528
-22.4231
-22.2997
-22.1822
-22.07
-21.9622
-21.8551
-21.7491
-22.2124
-22.0433
-21.9269
-21.7957
-21.6753
-21.5609
-21.4545
-21.3555
-21.263
-21.1778
-21.1028
-21.0649
-21.294
-21.1301
-21.0207
-20.9014
-20.7949
-20.6971
-20.6086
-20.5289
-20.4565
-20.3899
-20.3251
-20.2684
-20.3677
-20.2123
-20.1108
-20.0045
-19.913
-19.8326
-19.7635
-19.7041
-19.6525
-19.6073
-19.567
-19.5563
-19.4414
-19.2934
-19.1991
-19.1057
-19.0305
-18.9692
-18.9208
-18.8835
-18.8549
-18.8322
-18.8101
-18.7949
-18.5154
-18.373
-18.2872
-18.2083
-18.1505
-18.1101
-18.0846
-18.0716
-18.0685
-18.0727
-18.0809
-18.1034
-17.5862
-17.4515
-17.3748
-17.3119
-17.2737
-17.2563
-17.2565
-17.2709
-17.2962
-17.3297
-17.3695
-17.424
-16.6603
-16.5316
-16.4649
-16.4198
-16.4038
-16.4124
-16.4411
-16.4849
-16.5398
-16.6026
-16.6716
-16.7597
-15.7334
-15.613
-15.5581
-15.5339
-15.5446
-15.5832
-15.6438
-15.72
-15.8059
-15.896
-15.9843
-16.0759
-14.8107
-14.6968
-14.6569
-14.659
-14.7021
-14.777
-14.8746
-14.9873
-15.1079
-15.231
-15.3531
-15.4902
-13.8875
-13.7828
-13.7645
-13.8028
-13.8886
-14.0077
-14.148
-14.3
-14.4569
-14.6127
-14.7614
-14.9094
-12.9602
-12.8694
-12.888
-12.9806
-13.123
-13.2947
-13.4826
-13.6765
-13.8694
-14.0564
-14.2317
-14.4014
-12.0214
-11.9634
-12.0511
-12.2269
-12.4429
-12.6746
-12.9094
-13.1396
-13.3652
-13.58
-13.7725
-13.931
-11.049
-11.1354
-11.3732
-11.6773
-11.9747
-12.2538
-12.5242
-12.7814
-13.0252
-13.2685
-13.4694
-13.6528
-1.50188
9.70618
-10.3076
-19.2146
-19.8547
-7.19276
-4.75108
32.7404
-44.7816
-39.9361
-35.0185
-14.8458
16.5854
-41.2077
1.38757
-6.75303
-41.2331
-30.5818
-30.0218
-6.48473
27.9785
26.3215
17.7835
-16.1141
-0.847121
-10.8515
24.362
0.646736
-42.4954
-37.8067
-42.4635
30.8994
9.57885
-34.6277
16.7907
18.0428
33.6536
-30.8145
33.227
-14.7506
2.32481
-1.9878
24.6715
-0.417747
33.427
26.121
19.0497
19.9845
33.3583
27.9671
18.7585
32.5579
30.9327
1.49316
-36.9267
9.41564
12.8977
-2.36556
-31.5702
0.922689
24.1665
30.3142
1.53865
-3.95857
17.525
9.70911
-13.6931
30.4874
16.3162
-39.3911
-37.0235
13.9377
33.1261
-13.2591
-15.4872
2.61942
-44.3192
-1.6772
10.0159
28.7979
2.67333
-1.93146
33.9039
32.5519
1.97003
-44.3755
-13.7181
0.921608
-39.555
33.5364
27.9749
-41.3138
-0.224428
7.82628
34.3162
-4.18502
0.517936
-1.90628
-0.639911
-13.3442
-15.8665
14.578
5.57196
8.90976
-1.70797
33.9621
1.83633
33.2403
-13.662
0.355643
17.962
-2.06797
30.5143
-7.72663
1.68912
15.6665
-19.894
-6.19931
-45.6788
-33.3177
-10.6095
-21.5153
-41.9933
15.4073
-18.1182
-40.2917
-1.92158
11.5839
19.3584
1.03283
31.59
1.40236
21.4151
8.84513
23.5158
10.7767
34.0212
-39.3769
31.5388
10.3857
-19.1384
28.7091
27.1199
0.541143
30.8912
-37.0988
31.6659
-10.677
-47.9075
3.35967
0.324616
16.6466
-1.66741
4.77122
22.1765
3.22932
31.8232
-1.35031
-41.6871
-14.5737
-22.0785
-6.32207
-30.1738
-15.0568
24.1384
26.3678
31.5788
34.3048
10.9028
1.4917
-38.08
-18.0671
-36.8863
-19.2398
-1.10359
-41.2404
1.95782
32.3849
25.2101
-36.9779
31.0524
-32.2537
-7.56334
33.3947
6.30598
31.4804
3.49656
-1.70389
31.7718
1.62379
-40.3594
-1.74396
31.9022
-5.89755
32.0405
8.06232
26.9401
30.3921
2.38469
-61.3693
-47.5493
32.4082
34.3463
31.1631
32.8609
14.1217
-7.97203
-36.236
-13.8286
-15.9279
4.31214
-46.9699
33.4045
34.2208
1.94188
31.18
-11.1862
-13.1301
-63.476
30.54
32.4304
-47.8112
33.5619
-3.23654
-3.26405
-39.8854
-44.7842
-2.07041
-56.3821
20.0162
33.7275
-17.1078
-2.29982
-13.0105
-13.3743
27.4008
31.2328
-47.3469
-1.80485
32.8875
-33.3188
19.4533
-40.7029
-45.8946
33.0522
2.45595
19.882
6.01757
-42.44
31.337
-40.1037
-13.3949
-40.3523
-71.4833
28.2555
-31.6832
0.0957485
32.6609
-42.1796
33.3932
-15.2324
27.0906
17.3223
-8.6069
-14.3296
27.5802
-46.571
32.7099
-3.68086
6.44212
0.17858
18.6103
-45.2624
33.0866
32.8789
-44.3892
21.856
34.4431
34.2466
32.657
32.6266
23.3628
33.6928
33.1909
-25.4639
27.4531
-33.0616
33.2213
-50.0815
29.499
32.6393
-42.296
34.9478
34.9408
30.451
31.9962
28.0373
30.6955
23.9705
34.2385
29.0764
-0.740179
-10.8192
-37.532
22.343
-46.4865
34.4917
1.55253
14.3873
16.6636
-27.9127
34.6991
3.44865
-50.9074
32.4976
24.365
34.8958
-31.426
2.01501
27.7979
22.0364
-41.8019
-15.3295
69.6985
34.2312
-30.7876
-26.2019
-2.31424
2.57839
34.7318
-4.08216
0.647209
-41.8084
-2.26873
2.64053
4.25077
-1.70631
14.9901
2.15981
6.52519
-0.315364
33.0068
0.123666
29.3848
12.906
31.6184
33.6128
-42.1099
-60.6804
-12.6692
-0.172847
-4.06002
13.8567
26.007
34.789
-1.17923
-25.3383
33.5321
-46.13
-39.9973
30.0963
33.6958
-48.9896
-61.3191
21.2599
-21.6312
-3.18033
0.326711
-1.55117
0.714166
-29.7718
30.242
33.9861
-33.2436
-41.7013
28.7257
33.172
-48.2608
3.57298
-35.7954
-11.0495
-11.076
-1.39349
33.1405
-67.0115
28.0245
-0.867636
21.7609
28.6186
19.7396
3.50733
-37.2347
-35.6813
30.76
30.2862
-3.02231
-55.7144
-2.8036
-33.8443
-26.829
13.1484
-14.363
-12.9849
14.1037
-43.3894
30.9128
-48.7772
-41.2266
31.3095
33.302
-2.21647
-0.823717
1.55846
-49.2532
12.7159
28.7721
-62.4711
30.3962
30.6276
3.41426
0.20796
30.6346
1.70162
-2.99851
32.5215
0.591529
-21.6398
-47.3002
33.9034
0.587793
-14.0756
-11.2334
-31.4496
29.421
-32.5336
1.96703
-41.4552
-37.3292
28.6012
-6.83291
34.5623
33.2456
12.98
32.065
8.54719
-14.4545
-6.82344
31.8853
27.005
2.13001
-37.4985
29.71
33.4545
10.745
-41.8169
28.3559
9.66219
34.7901
34.2248
-32.407
28.5947
-10.4097
22.848
-4.51816
-50.1194
-28.1408
2.28475
29.3246
22.8482
33.3422
-25.8467
33.646
19.1192
0.832215
-37.9821
-46.7676
30.8358
1.99509
31.8732
-13.1564
0.118598
33.4997
33.2764
-23.2088
-20.6241
30.2033
34.1641
-6.22185
-19.3923
-42.8904
-22.3372
0.949255
32.3982
-57.6798
-17.2563
30.5397
-23.7877
-1.0261
33.1254
33.9208
-40.5045
31.0692
33.6174
2.45669
26.2837
34.3837
22.9486
-48.3027
31.0943
-37.6446
31.6893
-49.4949
-13.7731
-36.8153
2.00801
-15.7172
31.4341
-37.6441
-13.9782
21.4074
15.8578
-12.5251
1.31668
31.5506
-0.692001
3.77597
-14.804
33.6741
30.2538
-38.9554
34.9453
-15.2468
-17.4598
-37.2509
-2.15764
25.9648
-47.3894
-36.3511
30.3831
-42.5448
-7.7069
-17.7992
-21.4683
-48.2038
-43.2923
-1.82828
-26.3623
1.96021
19.6086
9.06893
13.8123
-17.3877
28.4689
33.6623
-30.3673
26.2183
29.0453
-13.8744
0.0100755
-0.104126
16.6384
-13.4311
30.6405
-39.096
-31.4997
-25.9513
31.7832
0.512185
16.999
27.6763
10.8596
-49.6634
24.3546
29.9982
30.3159
12.4514
0.460574
-9.37607
-2.67214
-36.0422
-36.0955
33.06
-43.7357
4.26669
-45.8058
25.0371
32.9939
27.5485
-43.9353
0.137197
-32.4488
1.3135
28.5153
-13.397
32.2768
-36.6849
-0.0924013
-46.0684
-40.8452
33.4523
1.84286
-0.659878
-26.6598
-17.3402
11.7075
11.9734
8.30295
-12.8006
-6.26389
7.62001
29.7341
-29.2327
-33.8607
-1.86013
0.822958
-44.4229
34.1544
32.6893
33.5902
10.7149
29.3548
-6.83456
-30.697
25.6731
-1.78503
11.3497
30.2272
1.5648
14.4079
33.8669
-50.3467
-50.6994
3.39675
-13.0622
29.1719
-49.7168
19.3611
25.1549
32.2009
-2.11927
31.9792
29.401
23.5399
-22.151
-9.39132
-0.319484
-48.2133
-50.9431
32.1932
-60.76
4.45275
2.76468
-45.881
-31.0173
10.4417
1.96673
-41.907
-1.11859
-36.3022
31.7058
-31.2395
2.02717
-45.8938
-0.0539321
32.8794
-37.7669
33.5745
17.075
25.4783
-48.4316
-1.14169
19.0731
-48.101
31.7485
-36.8341
-3.9795
-40.3153
-17.965
1.31954
2.36147
24.1711
-15.0305
32.2568
4.0669
-25.4022
34.2265
34.2954
-38.6911
23.5301
-38.4461
33.8061
27.3976
33.0744
-2.17757
13.5279
-1.13121
1.50907
30.1543
2.13988
34.8808
-10.6934
-35.4065
1.46274
28.6707
34.1041
-37.1102
-5.31192
-26.7268
18.892
-52.7554
-17.3472
-28.5932
-40.6026
-1.86444
0.847074
33.1981
20.6256
34.3304
29.6417
3.83003
34.8279
34.9073
32.886
-37.0288
-16.6463
32.8813
-0.53096
4.4391
-56.5366
33.4897
1.26375
15.1349
-38.4077
6.45015
-2.36955
-41.5154
2.058
-26.5885
-57.8687
6.34932
32.1452
-1.61769
23.0227
32.7827
1.41922
-8.69293
-1.28231
7.3456
-9.46868
-52.3821
-32.0874
27.5922
29.3651
1.92386
-13.8787
-0.632587
-0.643663
-21.234
14.8892
30.6103
16.4995
-43.6311
-2.86705
-109.868
-0.505488
-10.2926
32.9875
30.0999
-1.65947
31.6882
-17.5025
29.2759
-10.4878
-42.706
-43.9038
31.3792
-24.7312
-15.0093
17.3279
8.05527
27.352
-57.9706
-13.3483
29.0296
0.131668
32.554
-8.11316
-39.5285
-44.9394
-16.1803
-13.9732
-43.1385
-23.8543
6.0836
34.3661
29.1859
-12.404
7.35352
-3.32944
33.8314
-37.3746
-5.30303
-42.2299
-28.3816
25.9312
24.2378
-48.3172
-11.1402
27.6777
-12.2065
-38.9057
-38.7023
0.211663
-43.2084
-15.7574
34.1269
32.4766
30.5624
0.115195
-10.7327
-2.81965
1.75084
2.38464
31.0412
23.1949
20.4809
-37.8434
0.671658
-43.774
15.5513
23.5884
1.96035
-38.5447
-4.19017
26.4295
-42.689
23.7689
30.6219
28.5152
-2.12205
26.3357
-38.1345
10.239
14.1285
31.9663
-39.9328
28.0002
16.0614
-15.3713
-13.9867
26.9727
-26.8819
-28.8899
30.8699
0.419533
-50.586
15.3058
12.6082
-9.0538
-58.3472
26.8657
-0.422809
1.20391
-45.3346
29.9332
-48.5997
1.39378
-36.3549
-38.1785
33.7543
6.52124
33.5753
-29.9323
6.56068
29.3239
-2.04668
-50.3159
34.0783
34.0151
34.6307
3.19495
1.9976
15.4101
-41.306
-40.5776
-32.0386
0.333747
-14.3811
3.89158
12.773
-39.6814
25.0361
27.7081
28.0026
16.894
33.3423
32.6164
-37.4947
0.00886979
34.2845
-32.3065
31.6881
1.15342
-41.6674
-4.33444
1.98291
4.48197
29.8273
-20.809
-10.8122
26.3695
-54.7069
-4.69938
3.80258
16.3129
23.1256
-11.7435
27.9007
2.61572
-3.12515
-13.7328
13.9189
-12.9832
-40.8999
33.2379
-16.5703
22.233
-35.6676
28.3059
30.4424
32.3637
-40.4871
31.8685
1.67351
32.7962
-10.5678
-2.26156
-41.3758
30.0106
21.1315
25.7193
-8.21451
-43.9877
-35.8362
-0.412325
34.1173
2.74099
33.1809
-31.5347
33.1921
-2.03428
-45.3577
34.2458
-35.5528
33.1061
32.9846
-15.1008
-29.5278
23.7163
0.634031
15.0964
34.912
-1.37674
-48.2754
32.2705
-2.32659
-15.4477
10.6829
33.2567
33.6659
-31.4917
31.429
32.6414
-10.2958
31.5535
27.0159
30.5804
31.2904
1.56608
-1.61533
-40.2253
-6.00464
-38.847
32.9905
-0.807195
-36.8753
33.2137
-2.27542
30.0598
25.2347
31.1346
31.057
18.4321
-41.1623
-38.144
30.7968
-33.0912
-21.2746
26.1101
33.8589
-45.5224
-30.688
-38.591
-21.5087
-15.8917
28.5277
-9.88077
-18.2677
-31.118
-0.439668
-40.5532
33.0299
12.6602
1.7117
-3.20415
-3.20531
31.4974
-2.11097
32.6714
-0.162153
31.7842
-7.39853
3.35045
-46.3659
33.721
1.88638
31.4798
33.7491
-25.0781
27.0564
-17.8602
32.2655
-1.61559
30.3491
21.4506
2.93193
10.3876
34.475
30.9513
-0.141611
2.31583
33.7228
2.33033
28.6894
-31.3472
-31.5338
31.3286
-19.259
18.7944
-100.797
-44.9102
33.5095
-53.6996
-41.4515
2.31365
31.1239
-43.0598
-44.4487
2.47095
26.4018
-1.20198
-7.24831
30.6173
-10.4818
-17.3429
6.32771
-13.8761
-61.9925
13.9476
-1.15622
25.0215
0.474311
10.4776
24.7216
-64.5986
24.6534
5.48306
-3.15397
-47.6546
26.8658
4.72439
7.88442
27.862
24.5317
33.6594
34.7188
-15.0221
-1.39615
-13.6565
2.63497
39.3174
26.7158
-87.7401
29.5188
-29.8592
1.10658
-50.7178
-0.328174
2.74878
11.6224
30.7594
31.6813
-48.1198
2.64413
-16.9657
-1.91098
27.2377
-48.2099
0.951473
32.9881
1.39043
1.11118
5.79112
16.4082
-13.2166
-40.5919
-22.1666
2.97969
-2.63152
31.381
32.4163
32.13
-44.8297
27.5949
31.3108
2.88355
11.4034
-35.2409
32.4676
-14.2186
14.0988
1.29224
34.1176
-2.04876
31.9439
32.1789
-7.64779
-12.1618
33.2085
-16.4522
21.7982
1.67204
-35.9738
-40.754
33.152
-2.861
-17.8684
-35.3386
-20.361
23.3131
-38.7132
1.96033
1.53888
0.318468
-19.6387
33.9657
-46.9996
0.246781
34.8526
-43.537
29.7522
25.6934
-19.079
14.097
1.7184
20.5024
30.4573
31.2432
-1.03701
-40.5008
-2.35183
-16.8409
-17.0887
-44.2196
21.6008
-39.8589
-41.5069
8.90133
14.5248
2.26269
-1.66326
6.32697
-12.655
-7.34703
0.965953
-44.0219
33.3867
-0.609814
31.4864
-34.863
3.53611
1.89941
-62.3128
31.4335
-35.7465
-20.7815
23.5461
30.287
-27.0056
20.1946
-40.0682
33.0417
32.6336
34.7873
25.8316
33.7652
31.7934
-18.4814
33.6985
3.71973
33.3207
15.4211
28.4388
-22.9006
29.3599
-32.9695
11.3414
34.4902
23.0023
34.2875
33.3665
34.5917
-28.1194
-3.82662
8.57631
2.1009
-20.3448
-39.3355
1.93655
-45.0454
2.59906
15.4134
32.8842
30.9581
-43.4581
-22.7068
22.825
-46.3167
-7.21114
34.5317
-2.81127
32.3561
-49.239
0.77791
-15.9616
-4.18805
21.4035
32.1918
30.8506
25.3477
31.5526
-1.8016
21.1732
30.5544
-46.6937
5.90241
14.3606
29.3214
31.4792
-19.0256
32.0421
-16.8505
-7.38753
-12.583
1.22053
-8.94518
32.4745
-41.5493
33.2946
29.7183
-26.7472
-29.9954
25.8058
1.45372
32.8926
1.24423
1.63796
-0.748795
16.0194
32.1298
28.637
-38.4251
33.0618
32.6497
6.31703
3.50061
26.5239
26.6272
19.8688
33.0899
-22.4413
33.5549
-0.837281
33.7072
7.66278
7.34098
1.93458
-37.5377
-19.1264
28.7822
-26.2808
-42.0427
-45.9859
2.01861
-40.1339
34.5352
33.8258
-0.333052
-9.59631
28.0639
32.7246
-35.0959
31.8919
-1.74604
-37.1761
3.0921
32.3308
-16.3128
31.1339
13.6592
-12.3278
-0.660289
43.604
-0.891684
-45.0728
18.1912
3.31474
16.3151
30.7001
-1.39345
-0.599926
-1.89842
16.0467
32.9099
-25.9092
-3.49615
31.6048
25.0798
34.0913
1.85294
34.4674
25.8975
27.798
-21.8925
33.6659
-16.0055
34.8188
-11.0347
30.8122
32.2798
33.9174
-0.740633
25.9992
32.5774
31.8974
7.62496
0.814555
31.3734
23.9553
1.73712
-4.78451
-50.7091
0.921616
-37.146
-45.3268
32.9656
33.5648
-27.229
24.6945
-31.6891
-52.1245
-25.8346
-13.3684
-35.9573
34.7725
28.4256
-1.48441
33.8244
-5.6082
-0.814329
2.92721
-0.211253
1.90158
4.17882
-25.6952
-100.213
-31.3732
8.13309
-37.8216
29.1138
-3.7107
30.9779
28.3946
-21.3817
27.1166
-43.3949
34.6766
24.7208
20.2456
-2.00046
2.23567
16.4945
21.3846
33.6386
32.8153
-44.0593
27.9025
30.9206
-9.00191
32.8633
33.3621
-1.13519
32.796
-42.3754
4.05745
-18.5817
14.8196
-18.3186
33.0113
-32.1398
-15.9572
7.04647
-33.0113
5.31219
-10.4756
1.19932
-18.6861
-40.3474
-25.6082
-0.639962
-1.44473
25.6281
32.4731
-38.1982
31.2317
-24.4699
33.2972
32.1756
2.02896
33.6134
-1.26567
-33.1637
27.9809
-31.7596
24.2219
-49.5291
-16.0628
33.5838
33.8435
-50.5539
32.4785
-14.2934
34.6148
-38.7694
22.838
-31.6134
33.915
12.0528
5.39978
-41.0584
-32.2142
1.71394
-0.120474
-6.95795
-5.50108
34.3966
-0.922201
33.039
30.2845
31.871
-43.1808
2.92533
-33.827
30.4044
34.1731
32.1905
32.9003
-42.3502
-5.0478
1.62728
3.4383
-28.8398
2.91213
33.5179
31.3365
5.20589
-17.6188
-35.9781
34.0468
33.0314
1.88199
31.1985
-27.0646
8.71613
11.5492
34.2453
33.5181
-9.85323
26.548
-1.45669
2.73264
34.6323
7.32323
-19.6699
2.46372
32.593
-9.87497
23.7457
-50.122
16.2076
-28.049
-40.5281
6.41144
3.44014
-9.85758
0.816008
30.7784
33.4119
32.4182
-1.11524
22.8699
-27.9169
8.37691
-13.1676
-16.8201
-0.312751
2.12903
14.6169
-11.7737
0.714508
28.8755
4.03946
-46.0466
-5.95076
-7.49056
-22.5224
23.2105
13.9028
21.3796
-48.2526
12.3519
-1.9168
32.4487
30.9336
-40.2969
0.022151
34.7829
31.3318
-4.36025
32.1771
-28.2014
-26.5561
5.69282
26.4866
-9.29186
30.8943
-48.0233
-40.0912
11.0586
-30.3376
-1.51517
33.5339
-1.83083
-23.4252
14.6199
31.212
-27.8222
-38.2363
16.6721
-13.8868
-0.795416
-32.9443
-10.6237
3.23483
-3.68477
34.1077
33.6453
25.1447
13.9872
29.3907
-6.39027
1.55894
2.42249
-40.4477
-15.2339
-36.1867
26.4094
33.6491
32.8068
-21.215
17.2294
2.80111
-1.23981
29.4048
-26.7174
-38.8737
-14.5296
4.11276
-16.1067
20.427
34.3458
33.1826
-25.6324
34.4127
-40.5914
-0.703227
4.20068
-17.5211
33.8006
-41.0035
32.8241
34.6733
8.05347
-48.8283
-2.70845
31.6671
19.7878
19.9941
-1.61769
21.4932
17.6999
-37.6576
-32.9104
-1.0052
32.3727
-3.21956
33.5428
-42.9509
-1.67991
21.1527
-0.383469
29.3429
-26.3597
26.8727
-1.64421
29.4977
33.7564
31.6082
-38.4482
19.8933
-36.9
3.59099
-14.4759
34.3163
-49.8522
-12.4308
-8.48146
-4.31324
33.6244
6.55742
-13.567
1.34313
-24.4175
1.91536
7.58971
-0.031284
-3.16088
-16.5878
-13.2669
1.19848
-43.6644
-17.302
-26.1473
-38.0184
-8.67678
-2.5383
34.3504
-6.49413
0.911946
-29.5451
-10.9615
-43.9233
21.8614
-12.2759
10.5253
-0.946441
-7.57813
-22.6925
20.3942
-36.0639
-12.5876
-11.2148
-26.8779
33.6577
-41.0084
3.48099
-0.303019
-43.1151
-11.8156
12.1327
18.4351
1.48786
-40.4912
5.66948
-30.6877
-40.472
32.9989
-2.41612
34.4388
1.24698
-14.1329
31.2917
1.82145
34.4891
-30.0094
1.69033
32.8158
1.58208
13.6418
15.0605
3.99396
-23.8253
29.1071
-43.8067
-27.5996
-48.2463
11.8099
32.979
29.7987
-42.2988
-17.0512
2.0518
-58.2587
23.763
-43.6269
12.9926
-18.5096
0.256329
-2.65834
31.2763
-14.6415
31.1308
-28.5372
31.3093
-2.59932
1.96096
4.33151
22.5585
12.0282
-23.0997
-1.87902
-30.4561
32.0851
18.3022
-16.1492
-38.4529
0.229603
27.8884
0.858413
1.87632
30.9216
-41.2276
-25.5202
16.3828
-2.14181