/*--------------------------------*- C++ -*----------------------------------*\
| =========                 |                                                 |
| \\      /  F ield         | OpenFOAM: The Open Source CFD Toolbox           |
|  \\    /   O peration     | Version:  2.3.1                                 |
|   \\  /    A nd           | Web:      www.OpenFOAM.org                      |
|    \\/     M anipulation  |                                                 |
\*---------------------------------------------------------------------------*/
FoamFile
{
    version     2.0;
    format      ascii;
    class       surfaceScalarField;
    location    "0.6";
    object      phi;
}
// * * * * * * * * * * * * * * * * * * * * * * * * * * * * * * * * * * * * * //

dimensions      [0 3 -1 0 0 0 0];

internalField   nonuniform List<scalar> 
1460
(
-2.95202e-07
-6.04629e-07
1.14877e-07
-4.32067e-07
-6.42554e-07
-5.22476e-07
-6.39405e-07
-5.75238e-07
-6.32216e-07
-6.08008e-07
-6.3425e-07
-6.39803e-07
-6.50209e-07
-6.97486e-07
-6.60898e-07
-8.2702e-07
-6.21424e-07
-1.06107e-06
-4.94135e-07
-1.32426e-06
-3.62809e-07
-1.40547e-06
-4.17762e-07
-5.31041e-07
-1.18802e-06
-5.67877e-09
-4.84032e-07
-1.14919e-07
-1.05779e-07
-5.42454e-07
-1.74896e-07
-5.70288e-07
-2.22594e-07
-5.84518e-07
-2.63226e-07
-5.93618e-07
-3.14748e-07
-5.98687e-07
-3.9582e-07
-5.79825e-07
-5.32089e-07
-4.85155e-07
-7.66391e-07
-2.59834e-07
-1.09533e-06
-3.38704e-08
-1.3326e-06
-1.80487e-07
-6.33143e-07
-1.2305e-06
2.27019e-07
-3.89647e-07
-3.21403e-07
1.46801e-07
-4.62236e-07
8.20536e-08
-5.0554e-07
2.48731e-08
-5.27337e-07
-3.44057e-08
-5.3434e-07
-1.07303e-07
-5.25789e-07
-2.0203e-07
-4.85099e-07
-3.21899e-07
-3.65286e-07
-4.76569e-07
-1.05164e-07
-7.31119e-07
2.2068e-07
-1.0511e-06
1.39497e-07
-5.04603e-07
-1.17964e-06
3.29217e-07
-4.01341e-07
-3.17523e-07
2.58271e-07
-3.9129e-07
1.91026e-07
-4.38295e-07
1.24542e-07
-4.60853e-07
5.40898e-08
-4.63887e-07
-2.45346e-08
-4.47165e-07
-1.13682e-07
-3.95952e-07
-2.02775e-07
-2.76193e-07
-2.64327e-07
-4.36124e-08
-3.28644e-07
2.84997e-07
-5.34943e-07
3.45796e-07
-8.56508e-07
-1.83038e-07
-8.13931e-07
-2.26786e-07
-7.35945e-07
5.62373e-07
-5.69247e-07
8.85974e-07
-3.21277e-07
1.14081e-06
-6.06489e-08
1.3183e-06
2.16998e-07
1.37496e-06
4.66192e-07
1.25506e-06
5.95819e-07
9.23662e-07
5.35313e-07
4.49242e-07
3.16544e-07
-8.83125e-09
1.01581e-07
-3.13769e-07
-5.08119e-07
-1.03495e-07
-7.78872e-07
-6.78416e-07
-6.092e-07
3.92701e-07
-4.71867e-07
7.4864e-07
-2.43727e-07
9.12675e-07
-1.0757e-09
1.07564e-06
2.37136e-07
1.13675e-06
4.37381e-07
1.05481e-06
5.45245e-07
8.15798e-07
5.27787e-07
4.66699e-07
4.10584e-07
1.08372e-07
2.65262e-07
-1.68447e-07
-3.61427e-07
1.1857e-07
-7.96592e-07
-1.06147e-06
-5.43187e-07
1.39296e-07
-3.98897e-07
6.0435e-07
-2.15689e-07
7.29468e-07
-6.02429e-09
8.65979e-07
2.08056e-07
9.22669e-07
3.96482e-07
8.66388e-07
5.17404e-07
6.94876e-07
5.48319e-07
4.35784e-07
5.01587e-07
1.55104e-07
4.18016e-07
-8.48757e-08
-2.62474e-07
3.19062e-07
-6.60516e-07
-1.25746e-06
-4.82232e-07
-3.89875e-08
-3.29957e-07
4.52074e-07
-1.80523e-07
5.80034e-07
-1.30751e-08
6.98532e-07
1.59619e-07
7.49975e-07
3.21122e-07
7.04884e-07
4.42539e-07
5.7346e-07
5.0165e-07
3.76672e-07
5.00152e-07
1.56603e-07
4.58826e-07
-4.35496e-08
3.96434e-07
-2.00083e-07
-2.89703e-07
-6.00729e-07
-4.3324e-07
-6.34016e-07
-5.27341e-07
-6.28688e-07
-5.80066e-07
-6.23309e-07
-6.10494e-07
-6.29803e-07
-6.39826e-07
-6.4917e-07
-6.96339e-07
-6.61262e-07
-8.25854e-07
-6.2198e-07
-1.06033e-06
-4.94302e-07
-1.32388e-06
-3.62519e-07
-1.40525e-06
-4.17078e-07
-5.29981e-07
-5.6619e-09
-4.76497e-07
-1.07697e-07
-5.31982e-07
-1.78295e-07
-5.5809e-07
-2.25281e-07
-5.76322e-07
-2.64244e-07
-5.9084e-07
-3.14421e-07
-5.98994e-07
-3.94996e-07
-5.80687e-07
-5.31387e-07
-4.85588e-07
-7.65996e-07
-2.59693e-07
-1.0952e-06
-3.33126e-08
-1.33262e-06
-1.79657e-07
-6.32159e-07
2.24552e-07
-3.81987e-07
1.45453e-07
-4.52882e-07
8.14168e-08
-4.94054e-07
2.47519e-08
-5.19657e-07
-3.40254e-08
-5.32063e-07
-1.06481e-07
-5.26538e-07
-2.01489e-07
-4.85679e-07
-3.21601e-07
-3.65477e-07
-4.76483e-07
-1.04811e-07
-7.31247e-07
2.21451e-07
-1.05135e-06
1.40443e-07
-5.03762e-07
3.26345e-07
-3.11898e-07
2.57736e-07
-3.84273e-07
1.92054e-07
-4.28371e-07
1.26122e-07
-4.53726e-07
5.55374e-08
-4.61479e-07
-2.38477e-08
-4.47153e-07
-1.13407e-07
-3.9612e-07
-2.0277e-07
-2.76114e-07
-2.64435e-07
-4.31449e-08
-3.28834e-07
2.85849e-07
-5.35051e-07
3.4666e-07
-1.82384e-07
-8.12233e-07
-2.25632e-07
-7.34719e-07
5.63712e-07
-5.68864e-07
8.87473e-07
-3.21761e-07
1.14226e-06
-6.17055e-08
1.3198e-06
2.15641e-07
1.37704e-06
4.64644e-07
1.25792e-06
5.93608e-07
9.26881e-07
5.31716e-07
4.53206e-07
3.10245e-07
-4.21905e-09
9.15882e-08
-3.07679e-07
-5.05205e-07
-7.77329e-07
-6.76856e-07
-6.0767e-07
3.94053e-07
-4.70699e-07
7.50502e-07
-2.43022e-07
9.14586e-07
-6.96178e-10
1.07747e-06
2.37381e-07
1.13896e-06
4.37448e-07
1.05786e-06
5.44777e-07
8.19552e-07
5.26261e-07
4.71722e-07
4.07154e-07
1.14888e-07
2.59739e-07
-1.60264e-07
-3.60385e-07
-7.94922e-07
-1.05963e-06
-5.41979e-07
1.41109e-07
-3.97896e-07
6.06419e-07
-2.14912e-07
7.31602e-07
-5.38411e-09
8.67944e-07
2.08786e-07
9.24788e-07
3.97323e-07
8.6932e-07
5.18061e-07
6.98815e-07
5.48544e-07
4.4124e-07
5.01197e-07
1.62235e-07
4.18411e-07
-7.74775e-08
-2.63378e-07
-6.59159e-07
-1.2551e-06
-4.81117e-07
-3.69336e-08
-3.29058e-07
4.5436e-07
-1.79759e-07
5.82302e-07
-1.24346e-08
7.00619e-07
1.60161e-07
7.52193e-07
3.2195e-07
7.07531e-07
4.43673e-07
5.77092e-07
5.03301e-07
3.81611e-07
5.02568e-07
1.62969e-07
4.63651e-07
-3.85607e-08
-2.01068e-07
3.18369e-07
-2.61027e-07
-3.74866e-07
2.57451e-07
-3.30372e-07
1.94294e-07
-3.75137e-07
1.29155e-07
-3.95714e-07
6.15767e-08
-3.96309e-07
-8.94952e-09
-3.76638e-07
-8.17657e-08
-3.23135e-07
-1.4159e-07
-2.16369e-07
-1.5642e-07
-2.87824e-08
-8.04468e-08
2.09024e-07
2.68194e-08
2.3853e-07
-1.56219e-07
2.78741e-07
-2.15702e-07
-3.24067e-07
2.27167e-07
-2.78798e-07
1.71252e-07
-3.19223e-07
1.13394e-07
-3.37856e-07
5.43025e-08
-3.37218e-07
-5.39e-09
-3.16946e-07
-6.20723e-08
-2.66453e-07
-1.03059e-07
-1.75382e-07
-1.07037e-07
-2.48043e-08
-4.09828e-08
1.4297e-07
3.45227e-08
1.63024e-07
-1.21696e-07
2.48717e-07
-1.7811e-07
-2.86308e-07
2.04481e-07
-2.34562e-07
1.55751e-07
-2.70492e-07
1.05035e-07
-2.8714e-07
5.38257e-08
-2.86009e-07
3.25213e-09
-2.66372e-07
-4.19525e-08
-2.21249e-07
-7.13766e-08
-1.45958e-07
-6.72699e-08
-2.8911e-08
-1.36493e-08
8.93495e-08
3.92322e-08
1.10143e-07
-8.24641e-08
2.27709e-07
-1.47019e-07
-2.588e-07
1.89161e-07
-1.96013e-07
1.46396e-07
-2.27727e-07
1.01754e-07
-2.42498e-07
5.6793e-08
-2.41048e-07
1.33406e-08
-2.2292e-07
-2.38561e-08
-1.84052e-07
-4.7588e-08
-1.22226e-07
-4.36164e-08
-3.28826e-08
-3.75275e-09
4.94859e-08
3.25025e-08
7.38876e-08
-4.99616e-08
2.10303e-07
-1.20528e-07
-2.36795e-07
1.76834e-07
-1.62545e-07
1.39056e-07
-1.89949e-07
9.92736e-08
-2.02716e-07
5.94624e-08
-2.01236e-07
2.17533e-08
-1.85211e-07
-9.90626e-09
-1.52392e-07
-2.97706e-08
-1.02362e-07
-2.84137e-08
-3.42395e-08
-2.54604e-09
2.36182e-08
2.12103e-08
5.01313e-08
-2.87513e-08
1.95616e-07
-9.78146e-08
-2.18329e-07
1.66211e-07
-1.3314e-07
1.32494e-07
-1.56233e-07
9.68115e-08
-1.67033e-07
6.1263e-08
-1.65688e-07
2.80636e-08
-1.52011e-07
4.86647e-10
-1.24815e-07
-1.65336e-08
-8.53419e-08
-1.8147e-08
-3.26261e-08
-3.32691e-09
8.79817e-09
1.26254e-08
3.4179e-08
-1.61259e-08
1.83265e-07
-7.80402e-08
-2.0304e-07
1.571e-07
-1.06974e-07
1.26634e-07
-1.25767e-07
9.44143e-08
-1.34813e-07
6.22773e-08
-1.33551e-07
3.26313e-08
-1.22365e-07
8.23687e-09
-1.00421e-07
-7.06248e-09
-7.00426e-08
-1.0869e-08
-2.88196e-08
-2.97455e-09
9.03768e-10
7.68695e-09
2.35175e-08
-8.43898e-09
1.72997e-07
-6.05689e-08
-1.90468e-07
1.49411e-07
-8.33888e-08
1.21727e-07
-9.80823e-08
9.22162e-08
-1.05302e-07
6.29641e-08
-1.04299e-07
3.60241e-08
-9.54253e-08
1.39402e-08
-7.8337e-08
-6.71467e-10
-5.54309e-08
-5.25487e-09
-2.42362e-08
-1.68716e-09
-2.66394e-09
5.28323e-09
1.65471e-08
-3.15575e-09
1.65031e-07
-4.52544e-08
-1.80346e-07
1.43719e-07
-6.20763e-08
1.18574e-07
-7.29375e-08
9.14644e-08
-7.81928e-08
6.44739e-08
-7.73083e-08
3.97241e-08
-7.06754e-08
1.92467e-08
-5.78597e-08
5.0649e-09
-4.12491e-08
-3.44836e-10
-1.88264e-08
1.77864e-10
-3.18663e-09
4.65157e-09
1.20734e-08
1.49583e-09
1.6209e-07
-3.24087e-08
-1.74936e-07
1.43218e-07
-4.32048e-08
1.20376e-07
-5.00954e-08
9.53085e-08
-5.31251e-08
6.99568e-08
-5.19565e-08
4.63643e-08
-4.70828e-08
2.64933e-08
-3.79887e-08
1.20352e-08
-2.6791e-08
5.18896e-09
-1.19801e-08
3.14244e-09
-1.1401e-09
5.05183e-09
1.0164e-08
6.54766e-09
1.69089e-07
-2.03042e-08
-1.81193e-07
1.50573e-07
-2.46889e-08
1.27541e-07
-2.70634e-08
1.01829e-07
-2.74126e-08
7.55444e-08
-2.56724e-08
5.06921e-08
-2.22305e-08
2.95084e-08
-1.68049e-08
1.36643e-08
-1.09469e-08
5.16764e-09
-3.48344e-09
1.59373e-09
2.43382e-09
2.74701e-09
9.01071e-09
9.29468e-09
1.37564e-07
-1.57868e-07
1.12875e-07
8.58117e-08
5.8399e-08
3.27266e-08
1.04961e-08
-6.30886e-09
-1.72558e-08
-2.07392e-08
-1.83054e-08
-9.29468e-09
-4.07854e-07
-8.49604e-07
-3.84443e-07
-6.23987e-08
-2.6306e-07
3.30692e-07
-1.38676e-07
4.55649e-07
-4.55131e-09
5.64407e-07
1.31608e-07
6.13815e-07
2.59112e-07
5.7738e-07
3.59738e-07
4.72834e-07
4.1843e-07
3.17981e-07
4.32476e-07
1.42556e-07
4.12173e-07
-2.32465e-08
-1.57922e-07
3.70013e-07
-2.84106e-07
-5.65498e-07
-2.88857e-07
-5.76474e-08
-1.97808e-07
2.39643e-07
-9.89171e-08
3.56758e-07
7.91204e-09
4.57578e-07
1.18902e-07
5.02826e-07
2.206e-07
4.75682e-07
3.00588e-07
3.92846e-07
3.49461e-07
2.69108e-07
3.65054e-07
1.26963e-07
3.52291e-07
-1.04828e-08
-1.25738e-07
3.20107e-07
-1.88221e-07
-3.77277e-07
-2.04894e-07
-4.09739e-08
-1.41294e-07
1.76042e-07
-6.69141e-08
2.82379e-07
1.7467e-08
3.73197e-07
1.09656e-07
4.10637e-07
1.93653e-07
3.91684e-07
2.59693e-07
3.26806e-07
3.0162e-07
2.27181e-07
3.16668e-07
1.11914e-07
3.08079e-07
-1.89381e-09
-1.00298e-07
2.82639e-07
-1.2458e-07
-2.52697e-07
-1.41882e-07
-2.36715e-08
-9.85866e-08
1.32746e-07
-4.21831e-08
2.25975e-07
2.76122e-08
3.03401e-07
1.02826e-07
3.35423e-07
1.72563e-07
3.21947e-07
2.29159e-07
2.70209e-07
2.65831e-07
1.90509e-07
2.80802e-07
9.69432e-08
2.75915e-07
2.99341e-09
-7.98118e-08
2.55429e-07
-8.34912e-08
-1.69206e-07
-9.76416e-08
-9.52116e-09
-6.76115e-08
1.02716e-07
-2.34592e-08
1.81823e-07
3.44815e-08
2.45461e-07
9.7356e-08
2.72549e-07
1.56721e-07
2.62582e-07
2.05124e-07
2.21806e-07
2.37547e-07
1.58087e-07
2.52208e-07
8.22826e-08
2.49885e-07
5.31625e-09
-6.36407e-08
2.33714e-07
-5.70837e-08
-1.12122e-07
-6.72291e-08
6.24188e-10
-4.5428e-08
8.09152e-08
-9.38731e-09
1.45782e-07
3.91366e-08
1.96937e-07
9.30215e-08
2.18664e-07
1.43884e-07
2.1172e-07
1.85983e-07
1.79708e-07
2.15184e-07
1.28885e-07
2.29152e-07
6.83138e-08
2.28525e-07
5.94418e-09
-5.06026e-08
2.15486e-07
-3.99991e-08
-7.21232e-08
-4.65879e-08
7.21305e-09
-2.95518e-08
6.38791e-08
9.96469e-10
1.15234e-07
4.29307e-08
1.55002e-07
8.93165e-08
1.72278e-07
1.3379e-07
1.67247e-07
1.71083e-07
1.42414e-07
1.97322e-07
1.02647e-07
2.10649e-07
5.49869e-08
2.11127e-07
5.46625e-09
-3.98781e-08
2.00402e-07
-2.89811e-08
-4.31421e-08
-3.28669e-08
1.10989e-08
-1.87195e-08
4.97316e-08
7.79447e-09
8.87199e-08
4.48013e-08
1.17996e-07
8.58091e-08
1.3127e-07
1.25508e-07
1.27548e-07
1.59083e-07
1.08839e-07
1.82982e-07
7.87483e-08
1.95725e-07
4.22432e-08
1.96953e-07
4.23824e-09
-3.08931e-08
1.87968e-07
-2.25288e-08
-2.06132e-08
-2.49102e-08
1.34803e-08
-1.28424e-08
3.76638e-08
1.10153e-08
6.48623e-08
4.41341e-08
8.48768e-08
8.12611e-08
9.4143e-08
1.17367e-07
9.14415e-08
1.48339e-07
7.78671e-08
1.70779e-07
5.63085e-08
1.83292e-07
2.97303e-08
1.85354e-07
2.17601e-09
-2.3528e-08
1.77989e-07
-1.91118e-08
-1.50149e-09
-2.15183e-08
1.58868e-08
-1.15973e-08
2.77428e-08
9.8673e-09
4.33977e-08
4.01977e-08
5.45465e-08
7.45329e-08
5.98078e-08
1.08661e-07
5.73138e-08
1.38288e-07
4.82393e-08
1.60859e-07
3.3738e-08
1.74135e-07
1.64539e-08
1.77869e-07
-1.55751e-09
-1.83577e-08
1.72699e-07
-1.24395e-08
1.0938e-08
-1.21933e-08
1.56406e-08
-2.69853e-09
1.8248e-08
1.76836e-08
2.30155e-08
4.6306e-08
2.59241e-08
7.92952e-08
2.68186e-08
1.12455e-07
2.41541e-08
1.41917e-07
1.87769e-08
1.64622e-07
1.10335e-08
1.78672e-07
2.40373e-09
1.83345e-07
-6.23095e-09
-1.4152e-08
1.7914e-07
1.0938e-08
2.65786e-08
4.48267e-08
6.78422e-08
9.37662e-08
1.20585e-07
1.44739e-07
1.63516e-07
1.74549e-07
1.76953e-07
1.70722e-07
1.5657e-07
3.15869e-07
-2.57754e-07
2.56432e-07
-3.24836e-07
1.94909e-07
-3.66848e-07
1.30703e-07
-3.89519e-07
6.28512e-08
-3.93627e-07
-8.5532e-09
-3.75749e-07
-8.16796e-08
-3.22993e-07
-1.41724e-07
-2.1607e-07
-1.5664e-07
-2.82293e-08
-8.06518e-08
2.09862e-07
2.68306e-08
2.39177e-07
-1.55554e-07
2.75583e-07
-2.13231e-07
2.2516e-07
-2.74412e-07
1.7103e-07
-3.12719e-07
1.14131e-07
-3.3262e-07
5.50284e-08
-3.34525e-07
-5.01777e-09
-3.15703e-07
-6.20627e-08
-2.65949e-07
-1.03218e-07
-1.74915e-07
-1.0724e-07
-2.42077e-08
-4.114e-08
1.43762e-07
3.44336e-08
1.63604e-07
-1.2112e-07
2.45659e-07
-1.76251e-07
2.02051e-07
-2.30804e-07
1.54743e-07
-2.65411e-07
1.05061e-07
-2.82938e-07
5.40529e-08
-2.83517e-07
3.38175e-09
-2.65032e-07
-4.2023e-08
-2.20544e-07
-7.15427e-08
-1.45395e-07
-6.74503e-08
-2.83001e-08
-1.37305e-08
9.00421e-08
3.92063e-08
1.10667e-07
-8.19139e-08
2.24629e-07
-1.45452e-07
1.86889e-07
-1.93064e-07
1.45243e-07
-2.23765e-07
1.01364e-07
-2.39059e-07
5.66724e-08
-2.38825e-07
1.32593e-08
-2.21619e-07
-2.40009e-08
-1.83284e-07
-4.77687e-08
-1.21627e-07
-4.37759e-08
-3.22929e-08
-3.83123e-09
5.00974e-08
3.24649e-08
7.43706e-08
-4.9449e-08
2.07461e-07
-1.19199e-07
1.74677e-07
-1.6028e-07
1.37778e-07
-1.86866e-07
9.86486e-08
-1.9993e-07
5.91393e-08
-1.99316e-07
2.15263e-08
-1.84006e-07
-1.01465e-08
-1.51611e-07
-2.99818e-08
-1.01792e-07
-2.85819e-08
-3.36927e-08
-2.63582e-09
2.41513e-08
2.11628e-08
5.0572e-08
-2.82862e-08
1.93039e-07
-9.67516e-08
1.64135e-07
-1.31376e-07
1.31137e-07
-1.53867e-07
9.60146e-08
-1.64808e-07
6.07794e-08
-1.6408e-07
2.77228e-08
-1.50949e-07
2.12615e-10
-1.24101e-07
-1.67707e-08
-8.48087e-08
-1.82806e-08
-3.21828e-08
-3.44069e-09
9.31132e-09
1.25711e-08
3.45603e-08
-1.57152e-08
1.8086e-07
-7.7209e-08
1.55096e-07
-1.05612e-07
1.25236e-07
-1.24007e-07
9.35017e-08
-1.33074e-07
6.16786e-08
-1.32257e-07
3.22043e-08
-1.21475e-07
7.90296e-09
-9.97993e-08
-7.37543e-09
-6.95303e-08
-1.10794e-08
-2.84789e-08
-3.11034e-09
1.3423e-09
7.62396e-09
2.3826e-08
-8.09121e-09
1.70723e-07
-5.99636e-08
1.47513e-07
-8.24019e-08
1.20287e-07
-9.67819e-08
9.12407e-08
-1.04027e-07
6.22937e-08
-1.0331e-07
3.55389e-08
-9.47199e-08
1.35752e-08
-7.78357e-08
-9.12049e-10
-5.50431e-08
-5.47273e-09
-2.39182e-08
-1.75641e-09
-2.37403e-09
5.22032e-09
1.68492e-08
-2.8709e-09
1.62872e-07
-4.4847e-08
1.41881e-07
-6.14104e-08
1.17153e-07
-7.20542e-08
9.04421e-08
-7.7316e-08
6.37461e-08
-7.66144e-08
3.91963e-08
-7.01701e-08
1.8856e-08
-5.74953e-08
4.773e-09
-4.09601e-08
-5.55665e-10
-1.85895e-08
3.79444e-11
-2.96764e-09
4.58577e-09
1.23014e-08
1.71488e-09
1.60055e-07
-3.22035e-08
1.41441e-07
-4.27964e-08
1.18965e-07
-4.95783e-08
9.4267e-08
-5.26178e-08
6.91989e-08
-5.15464e-08
4.58119e-08
-4.67831e-08
2.60886e-08
-3.77721e-08
1.17289e-08
-2.66004e-08
4.96985e-09
-1.18304e-08
2.99881e-09
-9.966e-10
4.98819e-09
1.0312e-08
6.70307e-09
1.67177e-07
-2.02409e-08
1.48916e-07
-2.45356e-08
1.26212e-07
-2.68744e-08
1.00825e-07
-2.72299e-08
7.48026e-08
-2.55243e-08
5.014e-08
-2.21204e-08
2.91023e-08
-1.67344e-08
1.33498e-08
-1.08479e-08
4.94213e-09
-3.42274e-09
1.44738e-09
2.49816e-09
2.67228e-09
9.08712e-09
9.37536e-09
1.36329e-07
1.11794e-07
8.49192e-08
5.76892e-08
3.21649e-08
1.00444e-08
-6.68999e-09
-1.75379e-08
-2.09606e-08
-1.84625e-08
-9.37536e-09
-4.07273e-07
-8.47829e-07
-3.83674e-07
-6.05329e-08
-2.62262e-07
3.32948e-07
-1.37881e-07
4.57921e-07
-3.77408e-09
5.66513e-07
1.32447e-07
6.15971e-07
2.60058e-07
5.7992e-07
3.61132e-07
4.76018e-07
4.20688e-07
3.22055e-07
4.36483e-07
1.47173e-07
4.17391e-07
-1.94681e-08
-1.58543e-07
-2.83715e-07
-5.64114e-07
-2.88325e-07
-5.59231e-08
-1.97109e-07
2.41732e-07
-9.8107e-08
3.5892e-07
8.78903e-09
4.59617e-07
1.2002e-07
5.0474e-07
2.21836e-07
4.78104e-07
3.02151e-07
3.95704e-07
3.51847e-07
2.72358e-07
3.68558e-07
1.30463e-07
3.56823e-07
-7.73326e-09
-1.25786e-07
-1.88014e-07
-3.761e-07
-2.04528e-07
-3.94085e-08
-1.40671e-07
1.77875e-07
-6.60791e-08
2.84328e-07
1.84564e-08
3.75081e-07
1.10603e-07
4.12594e-07
1.94955e-07
3.93751e-07
2.61397e-07
3.29262e-07
3.03913e-07
2.29842e-07
3.19725e-07
1.14651e-07
3.1182e-07
1.71917e-10
-1.00275e-07
-1.24427e-07
-2.51673e-07
-1.41526e-07
-2.23095e-08
-9.8005e-08
1.34354e-07
-4.13701e-08
2.27693e-07
2.8539e-08
3.05172e-07
1.04168e-07
3.36965e-07
1.74041e-07
3.23879e-07
2.3098e-07
2.72323e-07
2.68029e-07
1.92794e-07
2.83636e-07
9.90443e-08
2.79264e-07
4.54404e-09
-7.98114e-08
-8.33558e-08
-1.68317e-07
-9.72879e-08
-8.37742e-09
-6.70737e-08
1.0414e-07
-2.2627e-08
1.83246e-07
3.54877e-08
2.47058e-07
9.8351e-08
2.74102e-07
1.58212e-07
2.64018e-07
2.06878e-07
2.23656e-07
2.39843e-07
1.59829e-07
2.54887e-07
8.40004e-08
2.52951e-07
6.4801e-09
-6.36553e-08
-5.69614e-08
-1.11355e-07
-6.69657e-08
1.62696e-09
-4.47986e-08
8.19725e-08
-8.55155e-09
1.46999e-07
4.03436e-08
1.98163e-07
9.43817e-08
2.20064e-07
1.45226e-07
2.13174e-07
1.87748e-07
1.81134e-07
2.17278e-07
1.30299e-07
2.31687e-07
6.95911e-08
2.31333e-07
6.83428e-09
-5.0651e-08
-3.98635e-08
-7.1492e-08
-4.62606e-08
8.0241e-09
-2.90123e-08
6.47242e-08
1.81249e-09
1.16174e-07
4.38561e-08
1.56119e-07
9.04003e-08
1.73519e-07
1.35356e-07
1.68217e-07
1.72926e-07
1.43565e-07
1.99386e-07
1.03839e-07
2.13048e-07
5.59287e-08
2.1375e-07
6.1326e-09
-3.99412e-08
-2.88286e-08
-4.26633e-08
-3.25548e-08
1.17502e-08
-1.82189e-08
5.03884e-08
8.28897e-09
8.96664e-08
4.57621e-08
1.18646e-07
8.71242e-08
1.32157e-07
1.2698e-07
1.28362e-07
1.60796e-07
1.09748e-07
1.851e-07
7.95357e-08
1.98017e-07
4.30115e-08
1.99444e-07
4.70551e-09
-3.09654e-08
-2.23683e-08
-2.02949e-08
-2.45745e-08
1.39565e-08
-1.2354e-08
3.81679e-08
1.18318e-08
6.54806e-08
4.50977e-08
8.53799e-08
8.25013e-08
9.47539e-08
1.18777e-07
9.2086e-08
1.50003e-07
7.85229e-08
1.72844e-07
5.66947e-08
1.85511e-07
3.03445e-08
1.87729e-07
2.48704e-09
-2.35819e-08
-1.89794e-08
-1.31544e-09
-2.11846e-08
1.61617e-08
-1.10666e-08
2.80499e-08
1.06798e-08
4.37342e-08
4.11706e-08
5.48891e-08
7.58419e-08
6.00826e-08
1.10115e-07
5.78131e-08
1.40102e-07
4.85354e-08
1.62718e-07
3.40785e-08
1.76256e-07
1.68068e-08
1.80105e-07
-1.36201e-09
-1.84122e-08
-1.23184e-08
1.1003e-08
-1.18923e-08
1.57355e-08
-2.21158e-09
1.83692e-08
1.83991e-08
2.31236e-08
4.72079e-08
2.60803e-08
8.0308e-08
2.69825e-08
1.13827e-07
2.42942e-08
1.43501e-07
1.88608e-08
1.66351e-07
1.12293e-08
1.80635e-07
2.52221e-09
1.85431e-07
-6.15793e-09
-1.41745e-08
1.1003e-08
2.67386e-08
4.51077e-08
6.82313e-08
9.43116e-08
1.21294e-07
1.45588e-07
1.64449e-07
1.75678e-07
1.78201e-07
1.72043e-07
)
;

boundaryField
{
    rotor
    {
        type            calculated;
        value           nonuniform 0();
    }
    stator
    {
        type            calculated;
        value           nonuniform List<scalar> 
96
(
-9.40395e-38
0
-3.61112e-35
6.01853e-36
0
-6.01853e-36
-4.17619e-53
-1.80556e-35
3.61112e-35
0
-1.32608e-34
1.20371e-35
-9.72486e-35
1.20371e-35
3.61112e-35
0
0
4.21297e-35
0
0
9.0278e-36
0
-3.0795e-35
7.8354e-35
2.64934e-34
0
-1.73532e-35
0
0
-6.21837e-36
2.40741e-35
-1.99834e-37
5.99855e-35
0
2.40741e-35
1.18372e-35
1.20371e-35
4.83481e-35
0
7.07177e-35
-1.80556e-35
-6.62038e-35
-8.92788e-36
-1.50463e-35
6.01853e-36
-2.06887e-35
0
-9.40395e-38
0
-6.01853e-36
-6.01853e-36
0
6.01853e-36
-9.0278e-36
0
1.20371e-35
0
0
0
0
-6.01853e-36
6.01853e-36
6.01853e-36
0
-6.01853e-36
0
0
-1.20371e-35
-1.80556e-35
0
0
0
0
-9.0278e-36
0
-9.0278e-36
0
0
6.01853e-36
0
0
0
0
1.20371e-35
0
6.01853e-36
6.01853e-36
0
-6.01853e-36
9.0278e-36
0
-1.20371e-35
0
0
0
0
)
;
    }
    AMI1
    {
        type            cyclicAMI;
        value           nonuniform 0();
    }
    AMI2
    {
        type            cyclicAMI;
        value           nonuniform List<scalar> 
48
(
7.86419e-07
7.79419e-07
7.29815e-07
6.84978e-07
6.6702e-07
6.82003e-07
7.18581e-07
7.50958e-07
7.28181e-07
6.26002e-07
4.98975e-07
3.1359e-07
-1.47306e-07
-6.40359e-07
-1.05267e-06
-1.38878e-06
-1.57892e-06
-1.65261e-06
-1.50425e-06
-1.05329e-06
-3.88736e-07
2.27599e-07
5.28733e-07
7.13194e-07
7.86938e-07
7.77553e-07
7.22789e-07
6.76034e-07
6.60231e-07
6.78502e-07
7.17776e-07
7.51495e-07
7.28781e-07
6.2607e-07
4.98442e-07
3.12455e-07
-1.48496e-07
-6.41226e-07
-1.05333e-06
-1.38937e-06
-1.57985e-06
-1.65438e-06
-1.50693e-06
-1.05585e-06
-3.91314e-07
2.2569e-07
5.26336e-07
7.1167e-07
)
;
    }
    front
    {
        type            empty;
        value           nonuniform 0();
    }
    back
    {
        type            empty;
        value           nonuniform 0();
    }
    procBoundary0to1
    {
        type            processor;
        value           nonuniform List<scalar> 8(-1.18772e-06 -1.23044e-06 -1.17974e-06 -8.56429e-07 1.18636e-06 1.22855e-06 1.17769e-06 8.54636e-07);
    }
}


// ************************************************************************* //
