/*--------------------------------*- C++ -*----------------------------------*\
| =========                 |                                                 |
| \\      /  F ield         | OpenFOAM: The Open Source CFD Toolbox           |
|  \\    /   O peration     | Version:  2.3.1                                 |
|   \\  /    A nd           | Web:      www.OpenFOAM.org                      |
|    \\/     M anipulation  |                                                 |
\*---------------------------------------------------------------------------*/
FoamFile
{
    version     2.0;
    format      ascii;
    class       surfaceVectorField;
    location    "0.6";
    object      Uf;
}
// * * * * * * * * * * * * * * * * * * * * * * * * * * * * * * * * * * * * * //

dimensions      [0 1 -1 0 0 0 0];

internalField   nonuniform List<vector> 
1460
(
(-0.0167458 0.012931 1.22736e-21)
(-0.0146735 0.00360429 -1.01286e-22)
(-0.0167176 0.00459506 -6.48266e-22)
(-0.0147046 0.0193677 4.94118e-21)
(-0.0147856 0.0101658 2.27956e-21)
(-0.0120696 0.0237093 3.80285e-21)
(-0.0133754 0.0149612 -9.70003e-22)
(-0.00972117 0.026426 -1.58404e-20)
(-0.0116105 0.0182796 0)
(-0.00793694 0.0283776 -1.9745e-20)
(-0.00995163 0.0206165 -3.1274e-21)
(-0.00634214 0.0303277 2.24711e-20)
(-0.00845766 0.0226611 -1.94765e-20)
(-0.00368276 0.0329236 2.61514e-20)
(-0.00638358 0.0250656 1.73137e-20)
(0.002015 0.0370351 2.4675e-20)
(-0.0022193 0.0280802 1.68405e-21)
(0.0118841 0.0431047 9.27927e-21)
(0.00572982 0.0320937 1.35573e-20)
(0.0228879 0.0492053 2.55412e-21)
(0.0178442 0.0401311 -1.54984e-20)
(0.0291322 0.0492269 9.45878e-20)
(0.0272581 0.0493153 1.5426e-20)
(0.0274076 0.048257 1.41419e-19)
(0.0297775 0.0374272 1.67448e-19)
(-0.0130958 0.00108598 9.40968e-22)
(-0.0115946 -0.00637886 -1.93419e-22)
(-0.011039 -0.00459675 3.23555e-23)
(-0.0133486 0.00602504 -3.53887e-21)
(-0.0129407 -0.00127787 1.01505e-22)
(-0.0127302 0.00966511 -4.83044e-21)
(-0.0131334 0.00275963 -1.30654e-21)
(-0.0117973 0.0123789 1.29047e-20)
(-0.0127148 0.00598671 2.8713e-21)
(-0.0106463 0.014733 -1.96713e-21)
(-0.0119176 0.00879 -5.19286e-21)
(-0.00890103 0.0173141 -2.27204e-20)
(-0.0106727 0.0116014 -3.45955e-21)
(-0.00542819 0.0203302 -6.24696e-21)
(-0.00830933 0.0146911 -3.33428e-20)
(0.00133796 0.0238037 -8.10899e-21)
(-0.00339104 0.0178521 1.25649e-20)
(0.0116263 0.0291008 -1.1358e-20)
(0.00513161 0.0198204 -1.00306e-20)
(0.0217179 0.0385605 0)
(0.0167182 0.0246973 1.00175e-21)
(0.0263802 0.0477634 6.20404e-20)
(0.0254308 0.0376762 -6.51875e-20)
(0.0243451 0.0477681 3.60883e-22)
(0.0253606 0.0442471 6.20404e-20)
(-0.01107 -0.00837466 -1.25987e-21)
(-0.00924589 -0.0128229 0)
(-0.00825009 -0.0128561 0)
(-0.012418 -0.00428787 2.6412e-21)
(-0.0113731 -0.00870836 1.85238e-21)
(-0.0128346 -0.000793492 6.7909e-21)
(-0.0124206 -0.00496994 3.92516e-21)
(-0.0125975 0.00234548 -1.58433e-20)
(-0.0126164 -0.00153356 1.33403e-20)
(-0.0117505 0.00544213 -7.26043e-21)
(-0.0121019 0.00177883 -1.90117e-20)
(-0.00992777 0.00875798 -1.41535e-20)
(-0.0107842 0.00513988 1.83666e-20)
(-0.00622533 0.0120804 -1.46794e-20)
(-0.00822209 0.00846398 8.05469e-21)
(0.000588362 0.0145282 1.37989e-20)
(-0.00332067 0.0113308 1.94266e-21)
(0.0102489 0.0160785 4.31455e-21)
(0.00442404 0.0116231 1.41794e-21)
(0.0187321 0.0224886 -6.9061e-20)
(0.0138817 0.0107947 1.01444e-21)
(0.0218211 0.036785 -1.25806e-19)
(0.0197143 0.0190437 -7.40598e-20)
(0.0185682 0.0365367 -4.83085e-20)
(0.0202168 0.0465138 -6.01974e-20)
(-0.00930424 -0.0125871 3.13941e-21)
(-0.00631216 -0.0160536 0)
(-0.00740421 -0.0143171 -6.20291e-22)
(-0.0110594 -0.00896398 3.13941e-21)
(-0.00966459 -0.0109761 2.08974e-22)
(-0.0118668 -0.00543028 1.04975e-20)
(-0.0109434 -0.00754409 0)
(-0.0118247 -0.00198898 1.04975e-20)
(-0.01129 -0.0041142 6.34781e-22)
(-0.0109463 0.00143091 6.75486e-21)
(-0.0108091 -0.000746302 -3.28202e-21)
(-0.00902124 0.00479896 4.0624e-20)
(-0.00945553 0.00259048 -1.16541e-20)
(-0.00545016 0.00775785 2.49906e-20)
(-0.00695374 0.00559731 4.17952e-20)
(0.000425968 0.00911983 -9.10983e-21)
(-0.00266917 0.00779713 -9.16407e-21)
(0.00807531 0.00732037 0)
(0.00338466 0.00724596 0)
(0.0135325 0.00618603 -9.35636e-21)
(0.00995759 0.0032143 1.1171e-20)
(0.0135029 0.0166188 1.2005e-20)
(0.0114005 0.00199192 2.89093e-20)
(0.011142 0.0373094 -4.49994e-20)
(0.00644584 0.0127276 1.24104e-20)
(0.0293152 0.0159505 6.89454e-20)
(0.0244751 0.0305208 8.87724e-20)
(0.0356517 0.00189472 6.60176e-20)
(0.0300293 0.0068564 -1.93671e-20)
(0.0349821 -0.0113697 4.84905e-20)
(0.0333506 -0.00275156 2.64039e-20)
(0.0286305 -0.0238874 -3.86137e-20)
(0.0287143 -0.0149911 -2.79285e-20)
(0.0185924 -0.0322167 -1.7071e-20)
(0.0211421 -0.025248 1.16012e-20)
(0.00533756 -0.0355678 -2.3178e-20)
(0.0104641 -0.0321672 -1.78762e-20)
(-0.00874323 -0.0322563 5.78255e-21)
(-0.00210062 -0.0335791 -1.79242e-21)
(-0.0187441 -0.0221287 2.32766e-21)
(-0.0136246 -0.0277332 9.88504e-21)
(-0.0202214 -0.00809727 -8.79527e-21)
(-0.0199544 -0.0159316 -8.85394e-21)
(-0.0134149 0.00489075 0)
(-0.0187289 -0.0028733 0)
(-0.00493537 0.0131732 1.60275e-21)
(-0.0123751 0.00649011 2.28327e-22)
(-0.00449139 0.0122834 1.23068e-21)
(0.00413978 0.0167616 1.42963e-21)
(0.0236109 0.0203282 0)
(0.0181967 0.038896 0)
(0.0288259 0.00246212 -6.73172e-20)
(0.0256253 0.00908665 -1.5441e-20)
(0.0275494 -0.00725713 -5.17488e-20)
(0.0273974 -0.00202038 -1.09026e-19)
(0.0213349 -0.0174549 2.78571e-20)
(0.0230466 -0.0109361 6.35985e-20)
(0.0127913 -0.0258409 1.04465e-20)
(0.0163872 -0.0199153 4.89067e-20)
(0.00227755 -0.0302851 1.27167e-21)
(0.00715547 -0.0260983 6.90158e-21)
(-0.00860222 -0.0290865 -4.20364e-22)
(-0.0034024 -0.0277777 -7.91541e-22)
(-0.0167157 -0.0218829 -1.3209e-21)
(-0.0129738 -0.0239781 2.23652e-21)
(-0.0193271 -0.0110501 0)
(-0.0189442 -0.0156837 -1.06055e-21)
(-0.0164663 -0.000750404 2.2986e-22)
(-0.0198589 -0.00586105 0)
(-0.0110649 0.00658604 -1.05573e-21)
(-0.0168355 0.00232123 1.58947e-22)
(-0.011875 0.00811302 -7.96189e-22)
(-0.00474281 0.0109733 -7.98236e-22)
(0.0186292 0.0270836 -1.55407e-20)
(0.00934257 0.0416755 -5.69822e-20)
(0.0238411 0.004621 -5.4563e-20)
(0.0220314 0.0140011 -7.39297e-20)
(0.02274 -0.00531295 6.69573e-21)
(0.0219186 -0.00112571 1.16833e-20)
(0.0175008 -0.0130572 8.57669e-20)
(0.0186971 -0.00782075 -7.83401e-21)
(0.0100986 -0.0199331 4.48004e-20)
(0.0132215 -0.0151632 4.70975e-20)
(0.000840244 -0.0237756 5.35335e-21)
(0.00563556 -0.0203794 7.31794e-21)
(-0.00879333 -0.0234339 -3.50413e-23)
(-0.00332627 -0.0222097 -5.2716e-21)
(-0.0164245 -0.0186666 9.94396e-22)
(-0.0117353 -0.0199993 2.96287e-21)
(-0.0201767 -0.0109886 -1.0674e-21)
(-0.0177355 -0.0142659 -7.09344e-22)
(-0.0198434 -0.00298654 -7.28548e-23)
(-0.020144 -0.0068848 0)
(-0.0169898 0.00355866 3.07991e-22)
(-0.019345 2.55167e-05 -5.52689e-22)
(-0.0164903 0.0054056 -5.3563e-22)
(-0.0127625 0.00816824 6.48666e-22)
(0.0107952 0.0277614 -1.15992e-19)
(-0.00335868 0.0344659 -1.99459e-20)
(0.0189716 0.00696188 -3.29367e-21)
(0.0171047 0.0151385 -4.56075e-21)
(0.0182689 -0.00358504 -1.76794e-21)
(0.0170786 9.68482e-05 7.3874e-21)
(0.0141415 -0.010052 -4.67528e-20)
(0.0146511 -0.00580057 -5.74697e-20)
(0.00828734 -0.0156226 9.8336e-21)
(0.0103964 -0.0117343 -3.16314e-20)
(0.000843747 -0.0187212 -2.90282e-21)
(0.00445315 -0.0159571 -1.8566e-20)
(-0.00722977 -0.0186623 -1.21861e-21)
(-0.00274075 -0.0174736 6.94085e-21)
(-0.0141948 -0.0154178 3.40064e-21)
(-0.00971968 -0.0160309 5.00439e-21)
(-0.0184948 -0.00987549 1.5174e-21)
(-0.0151653 -0.0119797 1.52643e-21)
(-0.0196957 -0.00366848 -4.82364e-22)
(-0.0180756 -0.00644934 2.28149e-22)
(-0.0185168 0.00189763 -1.23464e-21)
(-0.0184228 -0.000859164 -9.5932e-23)
(-0.0158574 0.00622054 -1.70067e-21)
(-0.016853 0.0038186 -2.34242e-22)
(0.0127073 0.0166965 7.85971e-22)
(0.00339342 0.0145849 3.31135e-22)
(0.0193914 0.0145247 9.59088e-22)
(0.0101149 0.0145808 2.06282e-21)
(0.0238539 0.0117994 0)
(0.015058 0.0130938 -3.97612e-21)
(0.02656 0.00947511 9.36711e-21)
(0.0184003 0.0113587 -2.86517e-21)
(0.0284372 0.00780335 2.74837e-20)
(0.0206945 0.00981436 -7.93184e-23)
(0.030317 0.00631404 5.30835e-20)
(0.022672 0.00842648 1.80935e-20)
(0.0328832 0.00370462 2.60572e-20)
(0.0250395 0.00640517 7.17809e-21)
(0.0369957 -0.00198998 2.99741e-20)
(0.0280488 0.00225147 -2.0242e-20)
(0.0430746 -0.0118763 5.35104e-20)
(0.0320694 -0.00570992 1.30051e-20)
(0.0491799 -0.0228963 -6.58303e-20)
(0.040116 -0.0178421 1.54853e-20)
(0.0491991 -0.0291503 -7.85863e-20)
(0.0493003 -0.0272674 -2.28691e-20)
(0.0482352 -0.0274228 0)
(0.00107149 0.012885 1.40976e-21)
(-0.00631874 0.0114154 6.37339e-22)
(0.00606773 0.0130852 -2.89812e-21)
(-0.00126219 0.0126918 -1.39247e-21)
(0.00975266 0.0124736 -6.88723e-21)
(0.00279214 0.0128374 -4.8463e-22)
(0.0124474 0.0116374 -1.25186e-20)
(0.00601404 0.0125106 -4.60398e-23)
(0.0147586 0.0105947 -9.62401e-21)
(0.00879577 0.0118476 -1.59704e-20)
(0.0173046 0.00891217 -2.71463e-20)
(0.0115903 0.0106846 3.42213e-21)
(0.0203073 0.00545614 -3.82488e-20)
(0.0146743 0.00833916 -2.73204e-20)
(0.0237832 -0.0013172 -3.56591e-20)
(0.0178356 0.00341145 -1.8941e-21)
(0.0290857 -0.0116205 -2.44555e-20)
(0.019806 -0.00512652 -1.37349e-20)
(0.0385486 -0.0217251 6.1587e-20)
(0.024687 -0.016727 1.32234e-20)
(0.0477498 -0.0263969 6.1587e-20)
(0.037667 -0.0254484 -3.13078e-21)
(0.047754 -0.0243636 0)
(-0.00828915 0.0108663 -2.28245e-21)
(-0.0126511 0.00906676 -4.54389e-22)
(-0.0042685 0.0121518 1.19835e-21)
(-0.00867771 0.0111573 1.62905e-21)
(-0.000814511 0.0125983 6.74395e-21)
(-0.00499937 0.0121619 3.89253e-21)
(0.00231826 0.0124772 -3.2794e-21)
(-0.00159427 0.012452 -7.48198e-21)
(0.00542065 0.0117346 -2.84901e-21)
(0.00171837 0.0120664 -6.3643e-21)
(0.00873376 0.00995519 3.44422e-21)
(0.00510652 0.0108149 -3.22921e-21)
(0.0120666 0.00624614 9.40089e-21)
(0.0084479 0.0082438 -7.83602e-21)
(0.014518 -0.000582176 1.88884e-20)
(0.0113244 0.00332898 5.79218e-20)
(0.0160691 -0.0102568 2.42565e-20)
(0.0116175 -0.00443 1.2154e-20)
(0.0224806 -0.0187509 -5.6686e-20)
(0.0107869 -0.0138976 2.02276e-21)
(0.0367774 -0.0218446 -6.55331e-20)
(0.019038 -0.0197373 -1.38641e-20)
(0.0365248 -0.0185832 -4.74529e-20)
(-0.0124835 0.00912771 3.59515e-21)
(-0.0141497 0.00727585 -1.01714e-21)
(-0.00897094 0.0108426 4.48357e-21)
(-0.0109336 0.00950648 1.61617e-21)
(-0.00551079 0.0116728 -1.04395e-20)
(-0.00758259 0.0107302 0)
(-0.00207904 0.0117328 -1.04395e-20)
(-0.00420736 0.0111519 -3.42337e-21)
(0.00136853 0.0109426 -6.73629e-21)
(-0.000831448 0.01078 1.4973e-20)
(0.00477666 0.00903921 -1.44675e-20)
(0.002546 0.00947201 -2.57166e-22)
(0.00775005 0.00545918 4.08793e-20)
(0.00558207 0.00696468 -3.44532e-22)
(0.00911752 -0.000429573 5.09051e-20)
(0.00779603 0.0026678 1.10141e-20)
(0.00731633 -0.0080892 -8.46315e-21)
(0.00724616 -0.00339681 1.15263e-21)
(0.00618078 -0.0135518 3.96925e-20)
(0.00320833 -0.0099762 -4.35293e-20)
(0.0166123 -0.0135169 3.38362e-21)
(0.0019878 -0.0114215 8.48398e-20)
(0.0127134 -0.00645209 5.01078e-21)
(-0.0158597 0.0293045 -6.90228e-20)
(-0.0304619 0.0244535 -8.88674e-20)
(-0.00182014 0.0356471 3.27389e-21)
(-0.006787 0.0299964 1.93843e-20)
(0.0114127 0.0349924 -1.90952e-20)
(0.0028066 0.0333367 -1.92226e-20)
(0.0239057 0.0286635 0)
(0.0150293 0.0287199 -1.14665e-20)
(0.0322337 0.018648 2.45546e-20)
(0.0252774 0.0211649 3.70023e-21)
(0.0355967 0.0054083 1.57794e-20)
(0.0322058 0.0105019 2.18234e-20)
(0.0322965 -0.00866419 -1.91653e-20)
(0.033636 -0.0020531 -3.62275e-21)
(0.0221786 -0.0186392 -1.01902e-20)
(0.0277973 -0.0135647 -9.0521e-21)
(0.00816644 -0.0200609 8.02099e-21)
(0.0160099 -0.0198634 0)
(-0.00479706 -0.0131484 1.08162e-20)
(0.00296291 -0.0185793 6.24226e-21)
(-0.0130818 -0.00452881 2.05794e-21)
(-0.00636661 -0.0121097 1.83828e-21)
(-0.0122245 -0.00411369 -5.19165e-22)
(-0.0202679 0.0235816 0)
(-0.0388333 0.0181835 0)
(-0.00240137 0.0287954 0)
(-0.00901615 0.0255895 4.77217e-20)
(0.00731634 0.0275328 -1.15435e-20)
(0.00208287 0.0273854 1.93129e-21)
(0.017506 0.0213318 -7.07838e-21)
(0.0109936 0.0230392 -9.01245e-21)
(0.0258907 0.0127989 1.37861e-21)
(0.0199644 0.0163864 1.45915e-20)
(0.0303471 0.0022926 -1.0268e-21)
(0.0261538 0.00715901 4.74502e-21)
(0.0291634 -0.00857895 3.56699e-21)
(0.0278511 -0.00339419 7.82584e-21)
(0.0219762 -0.0166713 1.21417e-21)
(0.0240658 -0.0129589 -2.09497e-21)
(0.0111672 -0.0192415 -1.84453e-21)
(0.015797 -0.0189103 -2.33367e-22)
(0.000892097 -0.0163092 -3.17008e-21)
(0.00600463 -0.0197881 8.68962e-22)
(-0.00648344 -0.0108368 -5.19318e-22)
(-0.00214024 -0.0167102 -7.51826e-22)
(-0.00809183 -0.0117733 2.25982e-22)
(-0.0270097 0.0186052 4.80298e-20)
(-0.0416121 0.00933575 1.43926e-20)
(-0.00455902 0.0238277 5.24618e-20)
(-0.0139259 0.0220045 3.2124e-20)
(0.00537145 0.0227309 4.12672e-21)
(0.00118484 0.0219165 1.95576e-21)
(0.0131096 0.0174952 1.42414e-20)
(0.00788082 0.018692 2.63805e-21)
(0.0199844 0.0100953 1.91114e-20)
(0.015215 0.0132188 3.2727e-21)
(0.0238417 0.000835998 1.49723e-20)
(0.0204343 0.00563057 8.05628e-21)
(0.0235227 -0.00879877 2.58453e-21)
(0.0222823 -0.00333082 -7.86942e-21)
(0.0187818 -0.0164209 -7.31576e-22)
(0.0200941 -0.0117406 -1.81e-21)
(0.0111382 -0.0201561 2.26093e-21)
(0.0143941 -0.0177417 -1.93211e-21)
(0.00315122 -0.019806 2.73395e-21)
(0.00704964 -0.0201514 2.51122e-21)
(-0.00347652 -0.0170002 2.38148e-22)
(0.000146723 -0.019385 -5.06552e-22)
(-0.00542164 -0.0166256 0)
(-0.027694 0.0107821 -8.95967e-21)
(-0.0344116 -0.0033414 1.45682e-20)
(-0.00689956 0.0189631 -1.82287e-20)
(-0.0150717 0.0170939 -8.60373e-20)
(0.00364632 0.0182666 0)
(-3.79493e-05 0.0170821 1.30452e-20)
(0.0101083 0.0141387 -7.75511e-21)
(0.0058605 0.0146485 0)
(0.0156748 0.00828455 -6.50609e-21)
(0.0117882 0.0103921 -7.80129e-21)
(0.0187791 0.000844274 -1.41256e-20)
(0.0160135 0.0044459 5.80685e-21)
(0.0187419 -0.00723774 -1.34798e-20)
(0.0175389 -0.00275021 -9.03991e-21)
(0.015528 -0.0142122 -1.70632e-21)
(0.0161181 -0.00973388 -1.731e-21)
(0.0100233 -0.0185327 -1.70632e-21)
(0.012098 -0.0151978 6.93579e-22)
(0.00383239 -0.0197716 -7.87123e-22)
(0.00660204 -0.0181473 0)
(-0.00182676 -0.0187056 -7.87123e-22)
(0.000983672 -0.0185758 -1.979e-22)
(-0.00383255 -0.0170841 4.44056e-22)
(-0.00768757 -0.0122582 -3.66302e-21)
(-0.0059317 -0.0130373 -8.86182e-24)
(-0.00493525 -0.0149946 -1.77291e-22)
(-0.00940665 -0.0091485 -3.03901e-21)
(-0.00801388 -0.0103215 -3.05649e-21)
(-0.0102043 -0.00589425 -1.0158e-20)
(-0.00922115 -0.00731034 -8.60469e-21)
(-0.0101382 -0.0026319 -1.34597e-20)
(-0.009542 -0.00419171 -7.45875e-21)
(-0.00924905 0.00053852 -2.19933e-20)
(-0.00907515 -0.00114006 -6.08311e-21)
(-0.00741115 0.00345727 -1.09959e-20)
(-0.00780573 0.00179809 1.46855e-21)
(-0.00427952 0.00575713 7.65509e-21)
(-0.00555156 0.00425084 2.3326e-20)
(0.000286985 0.00637406 0)
(-0.00205492 0.00583027 -8.29155e-21)
(0.00540297 0.00391483 1.12379e-20)
(0.00237396 0.0049665 0)
(0.00695735 -0.00128252 4.63096e-20)
(0.00638999 0.00135328 1.13026e-20)
(0.00198311 -0.00316601 3.56512e-20)
(0.00407139 -0.00296428 3.58562e-20)
(-0.00423244 0.000297973 0)
(-0.0062878 -0.0107614 6.05086e-22)
(-0.00477201 -0.0114438 -1.51213e-22)
(-0.00389886 -0.0129627 1.71972e-22)
(-0.00781884 -0.00813571 -8.65444e-21)
(-0.00661404 -0.00919793 -4.61044e-21)
(-0.00852095 -0.00528937 -5.88082e-21)
(-0.00768348 -0.00660879 7.12888e-22)
(-0.00844389 -0.00243322 2.65165e-22)
(-0.00797651 -0.00389375 2.78904e-21)
(-0.00762541 0.000294645 1.74381e-20)
(-0.00755892 -0.00124864 -2.79386e-21)
(-0.00598322 0.00271169 3.56487e-20)
(-0.00643373 0.00123933 -4.01816e-20)
(-0.00338529 0.00443783 7.55492e-21)
(-0.00450264 0.00321733 5.2815e-20)
(0.00011124 0.00469586 -8.3395e-21)
(-0.00169989 0.0044004 -8.38585e-21)
(0.00360931 0.00273763 0)
(0.00158063 0.00349893 -9.38309e-21)
(0.00373033 -0.000796075 0)
(0.00418522 0.000839281 1.92032e-20)
(-0.00129058 -0.000704894 0)
(0.00202279 -0.00277125 -9.83465e-21)
(-0.00324046 0.000167537 0)
(-0.00513516 -0.00963344 -5.40011e-21)
(-0.00385022 -0.0102735 -1.95014e-23)
(-0.00307017 -0.0114523 -1.1141e-22)
(-0.00648507 -0.00739603 4.61167e-21)
(-0.00547309 -0.00838219 -1.10988e-21)
(-0.00711813 -0.0049362 9.37285e-21)
(-0.00642189 -0.00615419 7.57969e-22)
(-0.00706096 -0.00245763 0)
(-0.00670008 -0.00380127 7.34315e-21)
(-0.00635022 -0.000118083 -6.06149e-20)
(-0.0063503 -0.0015064 -8.75703e-21)
(-0.00494487 0.00190743 -2.37693e-20)
(-0.00538042 0.000615518 -6.76058e-20)
(-0.00283825 0.00327073 3.72172e-20)
(-0.00376516 0.00226086 -1.36951e-20)
(-0.000179246 0.00340023 -9.43553e-21)
(-0.00153589 0.00323188 -8.27134e-21)
(0.00220958 0.0017598 9.64205e-21)
(0.000875855 0.00248804 -1.19331e-21)
(0.00229732 -0.00107461 9.48312e-21)
(0.00252089 0.000493215 5.54405e-20)
(-0.000572077 -0.00158557 -9.88961e-21)
(0.000928257 -0.00229237 -9.9428e-21)
(-0.00226624 -4.09648e-05 0)
(-0.0042038 -0.00885238 4.29073e-21)
(-0.00311719 -0.00938778 7.45166e-22)
(-0.0024118 -0.010352 1.08239e-22)
(-0.00539628 -0.00692128 -5.16272e-21)
(-0.00452901 -0.00778389 3.56792e-21)
(-0.00597161 -0.00478272 -1.32929e-21)
(-0.00537599 -0.00585736 -3.15967e-22)
(-0.00594331 -0.00262124 -1.65615e-21)
(-0.00564326 -0.00380331 -2.31372e-21)
(-0.00533953 -0.000586511 -1.56415e-20)
(-0.00535645 -0.00179587 -2.2983e-20)
(-0.00416101 0.00114596 -5.84495e-20)
(-0.00453486 3.97874e-05 5.27552e-20)
(-0.00246484 0.00227949 -5.95343e-20)
(-0.00320473 0.00144579 -3.73567e-20)
(-0.000428519 0.0024454 -2.14491e-22)
(-0.00142368 0.00228937 2.91824e-20)
(0.00122735 0.00127819 4.45587e-20)
(0.000370476 0.00178525 8.38126e-21)
(0.00120809 -0.000737793 3.62209e-20)
(0.00146884 0.000426899 1.46554e-21)
(-0.000738074 -0.00108195 0)
(0.000479243 -0.00164084 -3.56019e-20)
(-0.00144175 -0.000143239 0)
(-0.00344856 -0.00820414 0)
(-0.00251714 -0.00865673 0)
(-0.00190555 -0.00947178 0)
(-0.00449715 -0.00654234 8.45989e-21)
(-0.00374303 -0.00728611 9.97646e-22)
(-0.00501296 -0.00467408 -1.30912e-21)
(-0.00449264 -0.005612 7.50482e-21)
(-0.00500523 -0.00276988 -2.39967e-20)
(-0.00474331 -0.00380694 -7.259e-21)
(-0.00450026 -0.000984162 4.54235e-20)
(-0.00451325 -0.00203724 2.65811e-20)
(-0.00352359 0.000517697 7.43654e-20)
(-0.00382745 -0.000429934 2.94667e-20)
(-0.00215508 0.00150458 5.17186e-20)
(-0.00274051 0.000791248 2.05672e-20)
(-0.000589125 0.00171517 3.77384e-20)
(-0.00132224 0.0015485 8.50896e-21)
(0.000618366 0.000953734 -3.51542e-20)
(3.50535e-05 0.0012574 -8.03534e-21)
(0.000740077 -0.000439512 -7.09426e-20)
(0.000832003 0.000409984 -2.72915e-20)
(-0.000402927 -0.000775089 -3.57883e-20)
(0.000337433 -0.00105258 -1.43142e-21)
(-0.000857441 -0.000136411 0)
(-0.00281989 -0.00765659 1.00271e-21)
(-0.00202288 -0.00804569 0)
(-0.0014986 -0.00873316 0)
(-0.00373132 -0.00621457 6.468e-23)
(-0.00308121 -0.0068635 2.00132e-21)
(-0.00419271 -0.00456962 1.56948e-21)
(-0.00373778 -0.00539642 -2.00167e-21)
(-0.0042024 -0.00288304 4.38285e-20)
(-0.00396944 -0.00379951 2.58497e-21)
(-0.00378612 -0.00130264 1.0262e-20)
(-0.00378848 -0.00222732 1.73059e-20)
(-0.00298203 2.01654e-05 -2.4776e-20)
(-0.00322223 -0.000802815 -3.43223e-20)
(-0.00188179 0.000906292 -2.31216e-20)
(-0.00233747 0.000278293 -6.44575e-21)
(-0.000672051 0.00115166 -3.76149e-20)
(-0.00121653 0.000978836 -6.43942e-20)
(0.000248548 0.000706934 3.2713e-23)
(-0.000164287 0.000846577 2.18194e-20)
(0.000459054 -0.000184505 4.28304e-20)
(0.000455939 0.000364704 8.12084e-21)
(-0.000209413 -0.000488057 3.47492e-20)
(0.000268015 -0.000642035 1.00002e-19)
(-0.000513203 -0.000123832 0)
(-0.00228874 -0.00719633 9.98592e-22)
(-0.00161052 -0.00754025 0)
(-0.00116351 -0.00812159 0)
(-0.00307636 -0.00593321 5.22926e-23)
(-0.00251846 -0.00650965 1.98846e-21)
(-0.00348455 -0.00447147 -9.98777e-22)
(-0.00308694 -0.00521334 6.35548e-21)
(-0.00350794 -0.00296984 -2.40574e-20)
(-0.00330119 -0.00378944 2.44953e-21)
(-0.00316836 -0.00155519 -2.76389e-20)
(-0.00315985 -0.00238167 -5.94252e-21)
(-0.0025117 -0.000372412 -1.67373e-20)
(-0.00269849 -0.0011028 -9.39327e-21)
(-0.00163341 0.000438151 -4.76257e-20)
(-0.00198168 -0.000124111 1.80885e-20)
(-0.000686858 0.00072276 -4.79897e-21)
(-0.0010992 0.000538535 1.91387e-20)
(3.72719e-05 0.000497975 3.00826e-20)
(-0.000268765 0.000520935 5.87586e-20)
(0.000281588 -6.60964e-05 6.54032e-20)
(0.000222224 0.000283015 7.72471e-21)
(-0.000102137 -0.000319395 6.54032e-20)
(0.000195923 -0.000408697 5.72071e-20)
(-0.000319085 -0.000125081 0)
(-0.00183847 -0.00681422 9.89827e-22)
(-0.00126245 -0.00713176 0)
(-0.000885745 -0.00761873 0)
(-0.00251388 -0.00569706 8.42937e-21)
(-0.00203634 -0.00622985 9.94411e-22)
(-0.00287188 -0.00439321 9.85549e-21)
(-0.00252647 -0.00507891 -6.90645e-22)
(-0.00290477 -0.00304044 2.09507e-20)
(-0.00272261 -0.00380268 2.47265e-21)
(-0.00263235 -0.00176615 1.23037e-20)
(-0.00261907 -0.0025332 1.8446e-20)
(-0.00209984 -0.000689904 2.48643e-20)
(-0.00224778 -0.00137241 -1.18508e-20)
(-0.00139979 6.85763e-05 8.57041e-20)
(-0.00167233 -0.000467968 3.72085e-20)
(-0.000647354 0.000404764 8.31771e-20)
(-0.000976792 0.000169154 2.84433e-20)
(-8.67343e-05 0.000310753 3.64833e-20)
(-0.000329412 0.000249554 2.12488e-20)
(0.00015372 -3.28886e-05 -6.5608e-22)
(6.79033e-05 0.000172414 7.33349e-20)
(-5.6431e-05 -0.000231594 -8.48884e-21)
(0.000117539 -0.000299662 -6.94684e-20)
(-0.000207048 -0.000142679 6.11937e-20)
(-0.00145534 -0.00652002 0)
(-0.0009729 -0.00686896 0)
(-0.00065399 -0.00721383 0)
(-0.0020321 -0.00553082 -8.16295e-21)
(-0.00163041 -0.00609099 3.65919e-21)
(-0.00234639 -0.00436915 -8.16295e-21)
(-0.00205879 -0.0050727 -1.62364e-20)
(-0.00238939 -0.0031474 2.84286e-23)
(-0.00224178 -0.00392564 2.33759e-21)
(-0.0021763 -0.00198474 -5.80859e-21)
(-0.002175 -0.00277024 -2.45087e-20)
(-0.00175178 -0.00099427 -3.48418e-22)
(-0.0018863 -0.00169709 1.26796e-20)
(-0.00119622 -0.000268484 -2.05566e-20)
(-0.00142824 -0.000836069 -1.81517e-20)
(-0.000603322 0.00011439 -3.39724e-20)
(-0.000879196 -0.000199238 -2.03926e-20)
(-0.000167171 0.000128289 5.82028e-20)
(-0.000378944 -2.04063e-05 -6.1934e-20)
(5.81514e-05 -5.35888e-05 4.68957e-21)
(-4.65627e-05 2.54033e-05 1.64933e-20)
(-4.6646e-05 -0.000206569 3.25771e-22)
(3.65326e-05 -0.000269895 -6.86268e-20)
(-0.000131833 -0.000176906 2.08527e-21)
(-0.00113939 -0.00642282 3.67575e-21)
(-0.000748145 -0.00692016 0)
(-0.000465718 -0.00699742 0)
(-0.00163751 -0.00556258 -4.3973e-21)
(-0.00131169 -0.00622728 -7.04974e-21)
(-0.00192221 -0.00452703 -5.72488e-21)
(-0.00169007 -0.00528968 -2.72357e-22)
(-0.00198153 -0.00341588 -2.21813e-20)
(-0.00185918 -0.00421025 2.35847e-21)
(-0.00182694 -0.00233494 -6.20966e-21)
(-0.00181412 -0.00310123 -2.72925e-20)
(-0.00149507 -0.00138809 -5.8531e-21)
(-0.00158073 -0.0020498 5.62429e-21)
(-0.00105571 -0.000660969 -1.82393e-20)
(-0.00120329 -0.00117505 -4.6613e-20)
(-0.000589004 -0.000215821 -4.83677e-20)
(-0.00075397 -0.000496365 -6.14399e-21)
(-0.000240515 -8.89211e-05 -1.04379e-19)
(-0.000357456 -0.0002099 1.08144e-20)
(-3.12777e-05 -0.000134438 -5.69375e-20)
(-6.82596e-05 -6.37706e-05 -1.86447e-21)
(-4.97515e-05 -0.000225141 -6.70773e-20)
(2.57935e-05 -0.000226292 -7.26296e-21)
(-4.15252e-05 -0.000198412 -6.01086e-20)
(-0.000923452 -0.00671754 -1.07856e-20)
(-0.000531228 -0.00650099 -1.62195e-21)
(-0.00034617 -0.00724774 0)
(-0.00135794 -0.00589611 -2.91772e-21)
(-0.000950128 -0.00569893 -1.08825e-20)
(-0.00160927 -0.00488148 7.86788e-21)
(-0.00120576 -0.00469918 7.90151e-21)
(-0.00166106 -0.00377175 -2.52381e-21)
(-0.0012805 -0.00359968 2.21551e-21)
(-0.00152544 -0.00267331 -1.5787e-20)
(-0.00118012 -0.00250418 -4.75146e-21)
(-0.00123561 -0.00168294 -3.52929e-20)
(-0.00093504 -0.00149519 -3.89147e-20)
(-0.000857182 -0.000893341 -3.46334e-20)
(-0.000594122 -0.000673052 7.17428e-20)
(-0.00046411 -0.000363174 5.31933e-20)
(-0.000225239 -5.74191e-05 -1.24312e-20)
(-0.000164335 -0.000138798 1.14398e-19)
(6.28239e-05 0.00020442 1.51695e-20)
(2.83563e-05 -0.000102113 4.84247e-20)
(0.000253302 0.000287993 -4.62405e-21)
(4.87465e-05 -0.000188898 0)
(0.000259477 9.35537e-05 -5.48808e-20)
(0.000115519 -8.97703e-05 5.56768e-20)
(-0.000532175 -0.00547948 -1.64133e-21)
(-0.000152198 -0.00631472 -6.41297e-23)
(-0.0007689 -0.00445273 -1.24191e-23)
(-0.000843305 -0.00333197 2.22502e-21)
(-0.000759474 -0.00221486 1.139e-22)
(-0.000547089 -0.00119672 -2.80845e-20)
(-0.000250616 -0.000350627 6.85564e-20)
(6.15826e-05 0.000251002 9.46405e-20)
(0.000335409 0.000603361 -5.1078e-20)
(0.00049231 0.000668762 -1.04526e-19)
(0.000510168 0.000531472 -1.08564e-19)
(0.000323487 0.000210813 7.9937e-22)
(0.00419637 0.0199579 1.13476e-19)
(-0.00503083 0.0198242 1.07422e-19)
(0.0140965 0.00688969 8.42911e-21)
(0.0123743 0.0118568 4.52507e-20)
(0.0140439 -0.00207832 -4.85932e-20)
(0.0130746 0.000793908 1.03011e-20)
(0.0108613 -0.00771821 -4.25708e-20)
(0.0110298 -0.00445093 0)
(0.0062817 -0.0123264 -6.05603e-20)
(0.00787904 -0.00927799 -4.28156e-20)
(0.000462976 -0.014874 -8.87484e-21)
(0.00316739 -0.012769 1.20389e-20)
(-0.0058855 -0.0149059 1.33303e-20)
(-0.00253451 -0.0139574 2.36849e-20)
(-0.0115407 -0.0125266 4.1298e-21)
(-0.00807244 -0.0128636 -2.98952e-21)
(-0.0154044 -0.00834897 2.29516e-22)
(-0.0125456 -0.00980743 1.33219e-21)
(-0.0169926 -0.00346175 4.07143e-22)
(-0.0152059 -0.00555599 4.56056e-21)
(-0.0165967 0.00113545 8.47597e-22)
(-0.0158872 -0.00107239 -1.17502e-22)
(-0.0149301 0.00284172 1.11596e-21)
(-0.0148005 0.00488109 4.39277e-22)
(0.00336035 0.0134039 3.87672e-20)
(-0.00296753 0.0130075 -1.92348e-21)
(0.0104059 0.00541878 4.84863e-20)
(0.00864621 0.00861526 -1.22371e-20)
(0.0104105 -0.00133863 5.9354e-20)
(0.00959623 0.000869485 5.96839e-20)
(0.00806247 -0.00605124 0)
(0.00813015 -0.00350428 0)
(0.00451347 -0.00986796 3.10674e-20)
(0.00581476 -0.00746359 0)
(-0.000183704 -0.0119847 4.41771e-20)
(0.00201766 -0.0103337 6.25252e-20)
(-0.00523378 -0.0120333 6.87805e-21)
(-0.00257599 -0.0113255 -3.28214e-20)
(-0.00971735 -0.0101897 -5.08201e-21)
(-0.00703501 -0.0104986 2.67639e-21)
(-0.0128735 -0.00693171 5.69465e-21)
(-0.0106594 -0.0081157 1.34734e-21)
(-0.0143274 -0.00304438 3.81972e-21)
(-0.0129058 -0.0047527 2.0526e-22)
(-0.0141689 0.000718417 1.4683e-22)
(-0.0135988 -0.00112474 -2.48835e-21)
(-0.0129285 0.00214011 -2.77817e-22)
(-0.0128043 0.00387139 1.85298e-21)
(0.00223785 0.00886686 -4.97208e-20)
(-0.00184654 0.00846313 -6.07017e-21)
(0.00733835 0.00389951 0)
(0.00597178 0.00594609 5.30339e-20)
(0.00752284 -0.00108586 0)
(0.00682676 0.000621531 -4.98236e-20)
(0.00590987 -0.00488307 0)
(0.00597397 -0.00284188 3.53053e-20)
(0.00315857 -0.00798463 3.146e-20)
(0.0041917 -0.0061035 0)
(-0.000706769 -0.00975548 -1.60254e-20)
(0.00108548 -0.00839756 3.76612e-20)
(-0.00483388 -0.00985811 -3.65948e-20)
(-0.00266342 -0.00925467 -3.09345e-20)
(-0.00849494 -0.00843153 9.79796e-21)
(-0.00633448 -0.00865553 -1.66717e-21)
(-0.0111357 -0.00585903 -3.82542e-21)
(-0.00934604 -0.00677896 1.7493e-21)
(-0.0124177 -0.0027216 -5.91214e-21)
(-0.0112651 -0.00409649 -4.4879e-21)
(-0.0123748 0.000385043 -2.92182e-21)
(-0.0119326 -0.00113774 9.2556e-22)
(-0.0114532 0.00160382 -8.28504e-22)
(-0.0113055 0.00305005 -1.50013e-21)
(0.00157028 0.00576721 9.74762e-20)
(-0.00113617 0.00554945 4.16534e-20)
(0.00514969 0.00261145 2.81523e-21)
(0.00413979 0.00398239 1.17281e-20)
(0.0054043 -0.000990062 -1.45968e-20)
(0.00483194 0.000342967 -2.95196e-21)
(0.00426798 -0.00401771 3.54962e-20)
(0.00437863 -0.00236029 -4.12354e-20)
(0.00199954 -0.00655188 6.05038e-21)
(0.00291063 -0.00501577 2.93673e-20)
(-0.00114331 -0.00798766 2.16185e-20)
(0.000354376 -0.0068737 6.30189e-21)
(-0.00453298 -0.00812001 4.35812e-21)
(-0.00274916 -0.00760571 1.39409e-20)
(-0.00760675 -0.00702732 -9.26758e-21)
(-0.00581561 -0.00715794 9.48244e-21)
(-0.00985015 -0.00498414 1.11338e-21)
(-0.00835722 -0.00568536 -9.69288e-23)
(-0.0110077 -0.00244064 2.41405e-21)
(-0.0100247 -0.00353197 -6.4874e-22)
(-0.0110691 0.000135109 2.94595e-21)
(-0.0106674 -0.00110811 3.31712e-21)
(-0.0103346 0.00118706 -1.8657e-21)
(-0.0102171 0.00239411 -4.19806e-22)
(0.00113747 0.00376806 -4.31762e-20)
(-0.000663127 0.00367318 -4.23198e-20)
(0.00363714 0.00167574 5.91813e-21)
(0.00292118 0.0026255 -4.179e-20)
(0.00388013 -0.00093913 -2.9569e-20)
(0.00343378 0.000119913 4.77381e-20)
(0.00301073 -0.00333801 -4.77258e-20)
(0.00317816 -0.00198969 -3.73189e-20)
(0.00111894 -0.00538745 2.97827e-20)
(0.00190753 -0.00413586 -3.48471e-20)
(-0.00149498 -0.00656694 -2.03771e-21)
(-0.000229289 -0.00564639 -2.95249e-20)
(-0.00434159 -0.00671254 1.91183e-20)
(-0.0028349 -0.00626392 9.33179e-22)
(-0.0069238 -0.00586162 1.88596e-20)
(-0.00542232 -0.00593827 5.10507e-21)
(-0.00884645 -0.00423094 -1.87462e-21)
(-0.00758963 -0.00477646 5.48713e-23)
(-0.00989075 -0.00216186 3.57686e-22)
(-0.00904574 -0.00303822 -7.64299e-22)
(-0.0100155 -2.041e-05 -1.54173e-21)
(-0.00965134 -0.00104952 1.50248e-21)
(-0.00942521 0.000870909 -2.354e-21)
(-0.00934855 0.00189259 -3.53994e-21)
(0.000868756 0.00247243 -4.02397e-20)
(-0.000336986 0.00244622 -1.14004e-19)
(0.002595 0.00103557 0)
(0.00211596 0.00172201 -8.0256e-20)
(0.00277377 -0.00088052 4.0462e-20)
(0.002451 -3.33011e-05 1.68614e-20)
(0.00204193 -0.00278574 -2.44213e-20)
(0.00226015 -0.00168088 6.33409e-20)
(0.00043989 -0.00443147 -9.46731e-20)
(0.00112698 -0.00341226 -1.01126e-20)
(-0.00178686 -0.00540923 -2.61529e-20)
(-0.000699157 -0.0046327 -2.45247e-20)
(-0.00419218 -0.00555517 -1.25275e-20)
(-0.00291643 -0.00516472 -2.21092e-21)
(-0.00639023 -0.00489458 -1.38235e-20)
(-0.00512715 -0.00493153 -1.61441e-20)
(-0.00806169 -0.00359095 1.18062e-21)
(-0.00699392 -0.00401006 1.95836e-21)
(-0.00899451 -0.00190414 4.76004e-22)
(-0.00826966 -0.00261012 5.14563e-21)
(-0.00915216 -0.000128662 6.38046e-22)
(-0.00883129 -0.00097719 1.95267e-21)
(-0.00867664 0.000626195 1.05137e-21)
(-0.00861946 0.00148814 1.13178e-21)
(0.000705476 0.00162215 -1.54581e-19)
(-0.000104292 0.00162813 -2.10676e-21)
(0.00187367 0.000619346 -6.35178e-20)
(0.00158132 0.00113479 -7.95161e-20)
(0.00195672 -0.000800767 3.97908e-20)
(0.00175607 -0.000114116 -4.73934e-20)
(0.0012917 -0.00231701 7.80114e-20)
(0.00155839 -0.00140083 -6.63661e-20)