/*--------------------------------*- C++ -*----------------------------------*\
| =========                 |                                                 |
| \\      /  F ield         | OpenFOAM: The Open Source CFD Toolbox           |
|  \\    /   O peration     | Version:  2.3.1                                 |
|   \\  /    A nd           | Web:      www.OpenFOAM.org                      |
|    \\/     M anipulation  |                                                 |
\*---------------------------------------------------------------------------*/
FoamFile
{
    version     2.0;
    format      ascii;
    class       volScalarField;
    location    "0.44";
    object      k;
}
// * * * * * * * * * * * * * * * * * * * * * * * * * * * * * * * * * * * * * //

dimensions      [0 2 -2 0 0 0 0];

internalField   nonuniform List<scalar> 
15166
(
1.07913
1.32432
1.7073
2.10964
2.42089
2.73142
2.95331
3.08622
3.13253
3.11011
3.02654
2.91504
1.0795
1.29569
1.71114
2.10186
2.4125
2.70187
2.90327
3.0194
3.05528
3.02796
2.94563
2.82533
1.08754
1.26412
1.69574
2.07981
2.38977
2.6625
2.84831
2.95181
2.98049
2.94979
2.86757
2.74401
1.09808
1.23879
1.67413
2.05138
2.3585
2.61712
2.79055
2.88451
2.9081
2.875
2.79205
2.66364
1.10948
1.21972
1.65101
2.02075
2.32299
2.56898
2.73201
2.81846
2.83827
2.80351
2.72007
2.59097
1.12179
1.20522
1.62752
1.98928
2.28532
2.51981
2.67384
2.75419
2.77109
2.73512
2.65123
2.52089
1.13506
1.19418
1.60427
1.95759
2.24651
2.47052
2.61663
2.69193
2.70652
2.6696
2.58498
2.45166
1.14906
1.18598
1.5818
1.92612
2.20732
2.4217
2.56078
2.6318
2.6445
2.6069
2.522
2.38936
1.16359
1.18012
1.56044
1.89534
2.16837
2.37379
2.50653
2.57384
2.58498
2.54691
2.46206
2.33021
1.17847
1.17613
1.54032
1.86541
2.13005
2.3271
2.45402
2.51805
2.52788
2.48956
2.40526
2.276
1.19356
1.17369
1.52147
1.83645
2.09257
2.28176
2.40333
2.46441
2.47312
2.43479
2.35156
2.22582
1.20874
1.17247
1.50385
1.80853
2.0561
2.23787
2.35445
2.41286
2.42061
2.38253
2.30115
2.18126
1.22393
1.17224
1.4874
1.78163
2.02071
2.19545
2.30737
2.36331
2.37026
2.33267
2.25358
2.13961
1.23905
1.17283
1.47206
1.75576
1.98645
2.15451
2.26205
2.3157
2.32196
2.28497
2.20768
2.09414
1.25403
1.17403
1.45775
1.73092
1.95334
2.11502
2.21842
2.26994
2.27564
2.23939
2.16426
2.0555
1.26882
1.17572
1.44437
1.70706
1.92137
2.07696
2.17644
2.22596
2.23117
2.19575
2.12288
2.01799
1.28336
1.17778
1.43182
1.68415
1.89052
2.04028
2.13602
2.18367
2.18847
2.15393
2.08326
1.98153
1.29762
1.18011
1.42008
1.66217
1.86079
2.00494
2.09713
2.14298
2.14745
2.11382
2.04525
1.94635
1.31157
1.18266
1.40902
1.64107
1.8321
1.97087
2.05966
2.10383
2.108
2.07532
2.00889
1.91341
1.32517
1.18533
1.39862
1.6208
1.80447
1.93804
2.02356
2.06612
2.07004
2.03833
1.97402
1.8818
1.3384
1.18809
1.38878
1.60133
1.77781
1.90638
1.98877
2.02979
2.0335
2.00272
1.94036
1.85025
1.35125
1.19087
1.37946
1.58263
1.75212
1.87585
1.95522
1.99477
1.99828
1.96841
1.90781
1.81953
1.3637
1.19365
1.37061
1.56463
1.72734
1.84639
1.92286
1.96099
1.96431
1.93531
1.87626
1.78921
1.37574
1.1964
1.36219
1.54732
1.70344
1.81796
1.89164
1.92839
1.93154
1.90334
1.84568
1.75997
1.38734
1.19911
1.35414
1.53067
1.68038
1.79053
1.86149
1.89692
1.89989
1.87242
1.81606
1.73181
1.3985
1.20174
1.34643
1.51464
1.65813
1.76403
1.83237
1.86652
1.8693
1.84252
1.78741
1.70478
1.40924
1.20428
1.33903
1.49917
1.63664
1.73844
1.80424
1.83713
1.83972
1.81359
1.75975
1.6791
1.41954
1.20675
1.33192
1.48425
1.61589
1.7137
1.77703
1.80871
1.8111
1.78559
1.73306
1.6549
1.42938
1.20912
1.32506
1.46986
1.59584
1.68978
1.75072
1.78121
1.7834
1.7585
1.70731
1.63138
1.43878
1.21138
1.31844
1.45595
1.57646
1.66665
1.72527
1.75459
1.75657
1.73227
1.68236
1.60825
1.44773
1.21355
1.312
1.44251
1.55771
1.64427
1.70062
1.72881
1.73059
1.70685
1.65821
1.586
1.45622
1.21561
1.30577
1.42949
1.53958
1.6226
1.67676
1.70383
1.70539
1.68221
1.63478
1.56426
1.46426
1.21757
1.29971
1.41691
1.52203
1.60163
1.65364
1.67962
1.68097
1.65832
1.61208
1.54337
1.47188
1.21944
1.29383
1.40471
1.50503
1.58131
1.63124
1.65615
1.65728
1.63514
1.59006
1.52297
1.47902
1.22119
1.2881
1.3929
1.48858
1.56162
1.60952
1.63338
1.63429
1.61265
1.56869
1.50332
1.48575
1.22287
1.28252
1.38143
1.47262
1.54254
1.58846
1.61129
1.61198
1.59081
1.54795
1.48413
1.49203
1.22444
1.27708
1.3703
1.45715
1.52403
1.56802
1.58984
1.5903
1.5696
1.52783
1.46587
1.49788
1.22593
1.27176
1.35948
1.44214
1.50607
1.54818
1.56902
1.56925
1.54899
1.50832
1.44827
1.50331
1.22734
1.26657
1.34897
1.42759
1.48865
1.52892
1.54879
1.54879
1.52898
1.48936
1.43083
1.50832
1.22867
1.2615
1.33876
1.41346
1.47174
1.51023
1.52914
1.52891
1.50953
1.471
1.41448
1.51286
1.22994
1.25654
1.32883
1.39974
1.45531
1.49206
1.51004
1.50958
1.4906
1.45297
1.39678
1.51697
1.2311
1.25167
1.31917
1.38641
1.43936
1.47441
1.49147
1.49078
1.47216
1.43529
1.37944
1.52064
1.23217
1.24692
1.30976
1.37346
1.42386
1.45726
1.47341
1.47247
1.45419
1.41808
1.3635
1.52388
1.23314
1.24227
1.30061
1.36087
1.4088
1.44057
1.45584
1.45466
1.43668
1.4013
1.34774
1.52672
1.23396
1.23772
1.29172
1.34864
1.39414
1.42434
1.43874
1.4373
1.41962
1.38498
1.33277
1.52913
1.23465
1.23328
1.28307
1.33673
1.37989
1.40856
1.4221
1.42041
1.40299
1.36904
1.31769
1.53114
1.23524
1.22894
1.27464
1.32513
1.36604
1.3932
1.4059
1.40395
1.38679
1.35356
1.30372
1.53276
1.23569
1.22469
1.26644
1.31384
1.35256
1.37825
1.39012
1.3879
1.37099
1.33846
1.2897
1.53399
1.23603
1.22052
1.25843
1.30285
1.33944
1.3637
1.37474
1.37226
1.35557
1.32376
1.27642
1.53484
1.23627
1.21642
1.25063
1.29216
1.32666
1.34952
1.35976
1.357
1.34052
1.30938
1.26296
1.53531
1.23642
1.21239
1.24301
1.28175
1.31422
1.3357
1.34515
1.34211
1.32583
1.29535
1.25014
1.5354
1.23651
1.20843
1.23558
1.27161
1.30209
1.32224
1.3309
1.32758
1.3115
1.28167
1.23768
1.53513
1.23651
1.20454
1.22833
1.26173
1.29029
1.30912
1.31701
1.31341
1.2975
1.26828
1.225
1.53449
1.23645
1.20072
1.22124
1.25211
1.27879
1.29634
1.30346
1.29957
1.28382
1.25522
1.2132
1.5335
1.23631
1.19696
1.21433
1.24273
1.26758
1.28387
1.29024
1.28606
1.27047
1.2425
1.20183
1.53218
1.23608
1.19328
1.20757
1.23359
1.25665
1.27172
1.27734
1.27286
1.25743
1.23012
1.19084
1.5305
1.23579
1.18965
1.20098
1.22468
1.246
1.25987
1.26476
1.25999
1.24471
1.21803
1.17977
1.52849
1.23544
1.1861
1.19453
1.21598
1.23562
1.24831
1.25249
1.24744
1.2323
1.20622
1.16902
1.52614
1.23501
1.18262
1.18824
1.2075
1.2255
1.23705
1.24053
1.23519
1.22019
1.19463
1.15775
1.52345
1.23454
1.1792
1.18209
1.19922
1.21562
1.22606
1.22885
1.22323
1.20835
1.18329
1.14728
1.52045
1.234
1.17585
1.17608
1.19114
1.20599
1.21534
1.21746
1.21155
1.19679
1.17225
1.13743
1.51712
1.23341
1.17256
1.17021
1.18325
1.19659
1.20489
1.20634
1.20016
1.1855
1.16149
1.12786
1.51348
1.23274
1.16934
1.16448
1.17556
1.18743
1.19469
1.1955
1.18903
1.17447
1.15097
1.11821
1.50951
1.23204
1.16619
1.15889
1.16806
1.17849
1.18475
1.18491
1.17817
1.1637
1.14068
1.10879
1.50522
1.23129
1.16311
1.15343
1.16075
1.16978
1.17504
1.17459
1.16756
1.15316
1.1306
1.09931
1.50062
1.23051
1.1601
1.14812
1.15361
1.16128
1.16558
1.1645
1.15719
1.14287
1.12073
1.09018
1.49572
1.22966
1.15717
1.14293
1.14666
1.15299
1.15634
1.15466
1.14708
1.13282
1.11106
1.08106
1.49051
1.22878
1.15431
1.13788
1.13987
1.14491
1.14733
1.14506
1.1372
1.12299
1.10162
1.07236
1.48499
1.22789
1.15154
1.13297
1.13326
1.13702
1.13855
1.13569
1.12756
1.11341
1.0924
1.06381
1.47918
1.22693
1.14885
1.12818
1.12681
1.12933
1.12997
1.12655
1.11816
1.10404
1.08339
1.05557
1.47309
1.22594
1.14622
1.12353
1.12052
1.12183
1.12161
1.11764
1.10898
1.0949
1.07457
1.04726
1.4667
1.2249
1.14368
1.119
1.11441
1.11451
1.11346
1.10895
1.10003
1.08596
1.06593
1.03927
1.46002
1.22384
1.14121
1.11461
1.10845
1.1074
1.10552
1.10047
1.09128
1.07723
1.05751
1.03147
1.45302
1.22276
1.13885
1.11036
1.10267
1.10047
1.09779
1.09221
1.08276
1.0687
1.04926
1.02376
1.44573
1.22163
1.13655
1.10625
1.09706
1.09374
1.09025
1.08415
1.07443
1.06037
1.0412
1.01628
1.43817
1.22044
1.13434
1.10228
1.09161
1.08718
1.08291
1.0763
1.06631
1.05224
1.03332
1.00872
1.43031
1.21919
1.13221
1.09844
1.08633
1.08081
1.07577
1.06865
1.05839
1.04431
1.02559
1.00136
1.42215
1.21793
1.13016
1.09474
1.0812
1.07461
1.06882
1.06119
1.05068
1.03657
1.01804
0.994094
1.41371
1.21666
1.12822
1.09117
1.07624
1.06859
1.06205
1.05394
1.04316
1.02901
1.01066
0.987061
1.40501
1.21534
1.12637
1.08775
1.07143
1.06274
1.05547
1.04687
1.03585
1.02165
1.00344
0.980051
1.39603
1.214
1.1246
1.08447
1.06678
1.05707
1.04907
1.04
1.02871
1.01447
0.996388
0.973371
1.38678
1.21262
1.12293
1.08132
1.0623
1.05157
1.04285
1.03331
1.02177
1.00745
0.989496
0.966886
1.37725
1.2112
1.12135
1.07833
1.05799
1.04625
1.03682
1.02682
1.01501
1.00063
0.982791
0.960473
1.36744
1.20975
1.11988
1.07549
1.05385
1.04112
1.03099
1.02052
1.00845
0.993988
0.976252
0.954109
1.35733
1.20827
1.11851
1.07281
1.04989
1.03617
1.02533
1.0144
1.00206
0.987516
0.969867
0.94802
1.34695
1.20673
1.11724
1.07029
1.0461
1.0314
1.01987
1.00847
0.995863
0.981226
0.963649
0.941933
1.3363
1.20511
1.11605
1.06792
1.04249
1.02681
1.01459
1.00273
0.989845
0.975103
0.957579
0.93619
1.32537
1.20347
1.11497
1.06571
1.03906
1.02242
1.0095
0.997173
0.984017
0.969175
0.951708
0.930479
1.31416
1.20179
1.11399
1.06366
1.03581
1.0182
1.0046
0.991811
0.978377
0.963429
0.946006
0.924966
1.30268
1.20009
1.11312
1.06178
1.03274
1.01418
0.99988
0.986634
0.972922
0.957854
0.940438
0.919289
1.29094
1.19834
1.11234
1.06006
1.02985
1.01033
0.995351
0.981641
0.967649
0.952454
0.935059
0.914416
1.27892
1.19656
1.11167
1.05851
1.02716
1.00669
0.991018
0.976848
0.96258
0.947274
0.929929
0.90954
1.26665
1.19468
1.11112
1.05715
1.02466
1.00324
0.986884
0.972249
0.957698
0.942261
0.924938
0.90478
1.25409
1.19279
1.11066
1.05596
1.02237
1
0.982952
0.967847
0.953007
0.937434
0.920126
0.900066
1.24126
1.19082
1.11032
1.05496
1.02029
0.996975
0.979225
0.963644
0.948508
0.932789
0.915472
0.895488
1.22816
1.18875
1.11008
1.05415
1.01842
0.994165
0.975709
0.959646
0.944209
0.928344
0.911006
0.890979
1.21478
1.18664
1.10997
1.05354
1.01677
0.991578
0.972411
0.955858
0.940107
0.924075
0.906682
0.88671
1.20111
1.1845
1.10995
1.05314
1.01536
0.989221
0.969334
0.95228
0.936213
0.92001
0.902565
0.882565
1.18718
1.18221
1.11006
1.05292
1.01418
0.987094
0.966484
0.948922
0.932528
0.916143
0.898621
0.878622
1.17297
1.17989
1.11026
1.05293
1.01323
0.985213
0.963867
0.94579
0.929063
0.912489
0.894895
0.874807
1.1585
1.17748
1.11059
1.05314
1.01253
0.983572
0.961483
0.942882
0.925805
0.909026
0.891334
0.871311
1.14373
1.17504
1.11104
1.05358
1.01209
0.98219
0.959348
0.940205
0.922773
0.905783
0.887994
0.867989
1.12869
1.17252
1.11159
1.05425
1.01192
0.981079
0.957476
0.937785
0.919988
0.902785
0.884898
0.864802
1.11339
1.16988
1.11227
1.05514
1.01202
0.980252
0.955877
0.935619
0.917446
0.900013
0.882024
0.86191
1.0978
1.16712
1.11307
1.05629
1.01241
0.979724
0.954555
0.933717
0.915149
0.897474
0.879373
0.859327
1.08194
1.16429
1.11399
1.05768
1.01311
0.979501
0.953528
0.932093
0.913116
0.895202
0.876993
0.85687
1.06579
1.16131
1.11501
1.05933
1.01412
0.979593
0.952809
0.930758
0.911349
0.89316
0.874796
0.85468
1.04936
1.15826
1.11616
1.06124
1.01545
0.980023
0.952412
0.929726
0.909872
0.891402
0.872881
0.852656
1.03264
1.15518
1.11742
1.06344
1.01713
0.980809
0.952354
0.929012
0.908692
0.889926
0.871231
0.850886
1.01564
1.15188
1.11882
1.06593
1.01916
0.981961
0.952656
0.928629
0.90782
0.888727
0.869811
0.849291
0.99835
1.14853
1.12036
1.06871
1.02158
0.983512
0.953336
0.928606
0.907286
0.887847
0.868718
0.848034
0.98077
1.14507
1.122
1.0718
1.02439
0.985474
0.95442
0.928965
0.907108
0.887312
0.867969
0.847194
0.96292
1.14136
1.12377
1.0752
1.02762
0.987885
0.955932
0.92973
0.907322
0.88717
0.867635
0.846647
0.944774
1.13759
1.12567
1.07893
1.03127
0.990747
0.957896
0.930909
0.907915
0.88735
0.867517
0.84599
0.926338
1.13371
1.12766
1.08301
1.03538
0.994098
0.960324
0.932525
0.908899
0.887877
0.867713
0.84584
0.907625
1.12959
1.12982
1.08742
1.03996
0.997957
0.963258
0.934615
0.910326
0.888834
0.868362
0.84621
0.888602
1.12541
1.13208
1.09222
1.04505
1.00239
0.966741
0.937222
0.912229
0.89022
0.869359
0.846882
0.86929
1.12093
1.13451
1.09741
1.05067
1.0074
0.970822
0.940395
0.914665
0.892117
0.870894
0.848203
0.849681
1.1163
1.13702
1.103
1.05689
1.01306
0.975544
0.944173
0.917669
0.894556
0.872964
0.850102
0.829803
1.1116
1.13968
1.109
1.0637
1.01941
0.980956
0.948617
0.921284
0.897573
0.875592
0.852341
0.809625
1.10662
1.14248
1.11546
1.07116
1.02648
0.987097
0.953748
0.925528
0.901114
0.878566
0.854514
0.789137
1.10142
1.14543
1.12238
1.07931
1.03435
0.994042
0.959634
0.930469
0.905301
0.882179
0.857704
0.768362
1.09594
1.14851
1.12981
1.08821
1.04309
1.00187
0.966375
0.936216
0.910264
0.886611
0.861842
0.747311
1.09043
1.15172
1.13776
1.09791
1.05275
1.01067
0.974043
0.942805
0.915968
0.891606
0.866263
0.725942
1.08453
1.15513
1.1463
1.10849
1.06346
1.02054
0.982735
0.950345
0.922536
0.897424
0.871403
0.704275
1.07837
1.15872
1.15549
1.12004
1.07531
1.0316
0.992569
0.958935
0.930031
0.904021
0.877306
0.682326
1.07216
1.16253
1.16538
1.13268
1.08846
1.044
1.00371
0.968736
0.938634
0.911667
0.884238
0.66004
1.06554
1.16665
1.17611
1.14655
1.10306
1.05791
1.01631
0.979883
0.948462
0.920398
0.891913
0.637438
1.05875
1.17114
1.1878
1.16187
1.11933
1.07354
1.03055
0.992506
0.95959
0.9303
0.90087
0.61446
1.05172
1.17616
1.20076
1.17886
1.13754
1.09114
1.04662
1.00677
0.972131
0.941382
0.910789
0.59111
1.04468
1.18211
1.21532
1.19799
1.15803
1.11099
1.06477
1.0229
0.986314
0.953987
0.922224
0.567271
1.03781
1.18954
1.23218
1.21974
1.18121
1.1334
1.08528
1.04107
1.00223
0.968025
0.934815
0.542877
1.03237
1.19966
1.25226
1.24476
1.2075
1.15864
1.10829
1.06144
1.01997
0.983519
0.948395
0.517803
1.03186
1.21572
1.27797
1.27434
1.23772
1.18742
1.13455
1.08457
1.03999
1.00076
0.963397
0.48829
1.03317
1.2306
1.30428
1.30255
1.26664
1.21518
1.16096
1.10794
1.06096
1.01888
0.979829
1.0405
0.00467977
0.34732
0.321726
0.320664
0.288831
0.279258
0.646826
0.830819
0.777822
0.567722
0.00777863
0.0326101
3.01837
0.276929
0.00354989
2.83073
0.110603
0.107639
0.0034833
0.140547
0.176084
0.144787
0.0269036
1.05596
0.34641
0.159972
0.374882
0.604563
0.812826
0.537983
1.1668
0.00420038
0.558211
0.0311339
0.165876
0.387306
0.470748
0.393035
0.00818228
0.0704485
0.00337725
0.0716598
0.531364
0.268468
0.173058
0.0608361
0.0248487
0.271406
0.139994
0.164033
0.634569
0.263018
0.00321463
1.98767
0.00444663
0.010662
0.00337419
0.471446
0.266297
0.155693
1.19154
0.0032091
0.0168806
0.183546
0.00453251
0.888657
0.252383
1.5322
0.6891
1.88381
0.0535648
0.383391
0.72892
0.0273676
0.00323007
0.797445
0.00309477
0.0701947
0.241047
0.103465
0.00310385
0.405751
0.295321
0.0163636
1.11893
0.884305
0.00319468
0.390933
0.237809
0.353782
0.653678
0.00319826
0.00392189
0.456875
0.00326187
0.362323
0.0128368
0.00317208
0.898823
1.1085
0.203629
0.00335318
0.00434035
0.00312134
0.514847
0.512147
0.689479
0.533025
0.00884574
0.0944646
0.00312704
0.202546
0.00372669
0.00318215
0.21988
0.0195219
0.219933
1.09318
0.176101
1.02427
0.0293387
1.69965
0.199636
0.125648
1.29221
0.00405406
1.96531
0.0323781
0.00320012
0.23168
0.00323636
0.233199
0.00434514
0.162742
0.00514885
0.233331
0.595875
0.208005
0.00585666
0.017019
0.145367
0.269578
0.0254234
0.17462
1.89713
0.298922
0.00454269
0.982952
0.374146
0.063956
0.214004
0.00309224
0.114708
0.156504
0.00314727
0.248522
0.00320193
1.27982
0.00708476
0.0270389
0.00356918
0.128064
0.0132871
0.14973
0.0844293
0.984636
0.291723
0.335174
0.00307306
1.88804
0.758331
1.99245
0.0179139
0.00305943
0.574473
0.00311686
0.30595
0.137987
0.719552
1.00915
0.438004
0.0629155
0.371207
0.0033903
0.262727
0.00317797
0.00315336
0.175364
0.00318555
0.487545
0.00310668
0.936781
0.00475726
0.284084
0.296474
0.271753
0.165124
0.00312701
3.17529
1.01981
0.31822
0.413999
0.217242
0.3249
0.104992
0.0915304
0.228895
0.703303
0.216933
0.28827
0.899928
0.500552
0.396588
0.00315442
0.283572
0.0129669
0.42732
3.2521
0.210329
0.294684
1.02095
0.338915
0.00315695
0.00318818
1.30859
1.11824
0.00327018
4.2059
0.0324009
0.312483
0.121368
0.00311781
0.947252
0.414088
0.253639
0.246297
1.07884
0.656769
0.322185
0.15475
0.161358
1.25507
1.68679
0.375279
0.281836
0.227999
0.00350587
1.39582
0.289874
0.650604
0.726638
0.378893
3.95158
0.236729
0.240372
0.210305
0.310488
0.577976
0.341729
0.216376
0.258164
0.0157535
0.0899508
0.683904
0.261857
0.92191
0.506946
0.361269
1.49122
0.287946
0.050278
1.63927
0.209102
0.208352
1.69566
0.242313
0.26047
0.301841
0.20362
0.866166
0.238783
0.372661
0.331599
0.614071
0.273128
0.474397
0.207985
1.12064
0.128569
0.201696
1.66854
0.226325
0.224879
0.283022
0.91982
0.119683
0.20608
0.0677604
0.480376
0.183614
0.106067
1.36659
2.05735
0.154256
0.953967
0.323542
0.00318779
0.201409
0.166099
0.211139
0.288935
0.00315764
1.18616
0.320048
0.0673845
0.225814
0.762173
0.00315195
0.638757
0.0388357
0.579487
0.422559
4.9296
0.503346
0.758284
0.538973
0.00313881
0.00316292
0.285062
0.447045
0.00307774
0.517213
0.00311576
0.00316225
0.00322459
0.00311707
0.140366
0.0031637
0.00580739
1.03828
0.512284
0.003229
0.334955
0.00987029
0.195854
0.29564
1.28817
4.14613
0.480989
0.00301213
0.00323871
0.0819408
0.134186
0.208969
0.00306428
0.0988595
0.315859
0.878415
0.377716
0.177664
0.273319
1.02592
4.08628
0.157065
0.325459
0.00364898
0.00318514
0.159015
0.258016
0.116357
0.173478
0.505847
2.74397
1.69529
0.143792
0.343357
1.01405
0.00319833
0.41975
0.753418
0.00527021
0.00316286
0.520367
3.8271
0.734958
0.00308019
0.0489184
0.154732
0.0256685
0.00319879
0.83323
0.382614
0.277396
0.28204
0.00374809
3.81403
0.00314284
0.235786
0.544699
0.00649005
0.0111326
0.962494
0.00879638
1.40923
0.767058
1.15102
0.653456
0.172255
0.681595
0.00313953
0.00309425
0.00317226
1.03828
0.0754521
1.26247
2.76251
0.164692
0.592044
0.00317907
0.010895
0.274328
0.00308086
0.00317181
0.703316
0.0030687
0.227884
0.916293
0.371914
0.00303025
0.00749466
0.110569
0.116037
0.237013
0.144951
0.00310504
3.34322
0.836676
0.109474
0.0123922
0.327406
0.199607
0.00711748
0.279649
0.00690394
0.846039
0.00352812
0.250287
0.133097
0.00311625
1.30262
0.238407
0.322174
0.00930064
0.47121
0.144104
0.00516789
0.21748
0.490103
0.352303
1.1089
0.024062
0.0508904
0.0115451
1.31199
0.676282
0.0630171
0.13755
0.163172
0.334913
0.182134
0.511041
1.10339
0.0030458
2.04925
0.914823
0.226618
0.00309809
0.267666
0.963008
0.025425
0.436746
0.34887
0.25672
0.126699
0.177152
0.259426
0.00358636
0.0189238
0.875502
0.0391496
0.00438418
0.923001
4.08743
0.0395572
0.199909
0.788803
0.0904143
0.491421
0.259236
0.843592
0.321184
0.290999
0.00323001
0.0851675
0.447609
0.382326
1.33273
0.214186
1.42356
0.937587
3.75179
0.888511
0.310492
0.00316689
1.26387
0.204169
0.801549
0.416369
0.163721
0.084405
0.426429
0.00321463
0.297439
0.00317781
0.340894
0.421522
0.213243
0.175085
1.27214
0.241274
1.04325
0.642606
1.97757
0.00321789
0.123831
0.933104
2.44917
0.196066
0.717445
0.0036171
0.0282436
0.350196
1.85817
0.592124
0.00310243
0.0582187
0.00312257
0.0586804
0.351297
0.0375778
0.846629
0.142939
0.589649
0.155819
0.12517
1.23013
0.709034
0.00319514
0.00319639
0.257752
1.21755
0.275657
0.598422
0.441215
0.667346
0.266653
0.00302396
0.187507
0.253722
0.00485902
1.0492
0.265178
0.17639
0.274351
0.0127513
0.00302541
0.0237173
0.00313933
0.647065
0.817692
0.709543
0.638071
0.00319302
1.47808
0.0898683
0.742938
0.135435
1.73216
0.00863925
0.154642
0.00307428
0.497127
0.716694
0.315657
0.409551
0.00300846
1.3016
0.805837
0.510921
0.0031165
0.0708346
0.813797
0.617802
0.00610397
2.17322
0.00373895
0.805014
0.61444
0.00363006
0.131717
0.0877202
0.202483
0.00310546
0.00319887
1.15761
0.431727
0.322111
0.526596
0.00488048
0.128028
0.098262
0.768804
0.208396
0.00395818
0.20899
1.20888
0.00307798
0.00821159
0.286329
0.635141
1.11606
0.00315808
0.729473
0.221397
1.30848
0.0298691
0.151736
0.816482
0.00319985
0.199388
0.137894
0.376237
0.383271
0.725849
0.276409
1.21692
1.17685
0.282348
2.70757
0.00323654
0.00315036
1.49693
0.783485
0.00475848
0.00315675
0.473331
0.00320625
0.823613
0.540422
0.248023
0.00311692
0.808073
0.0528467
0.291428
1.21599
0.23543
0.148502
0.145189
1.34669
0.0031921
0.285533
0.981468
0.234562
0.557198
0.00673524
0.533365
0.263257
2.03173
0.00313014
0.148874
0.683568
0.30577
0.00332094
0.0952845
0.342202
0.439245
1.2696
0.0592527
1.87627
0.406351
0.0928208
0.404951
0.00313421
0.00737444
0.362906
0.00306755
0.175316
0.00316529
0.244709
0.0107775
0.839469
0.00321716
0.110624
0.493976
1.6106
0.356814
0.669777
0.163554
2.44836
0.0156018
0.0934809
0.571737
0.00309935
0.00320601
0.380321
0.156007
0.248861
0.390751
0.00328411
0.216262
0.21875
0.201012
0.492296
1.14807
0.20008
0.00319667
1.88294
2.42475
0.506885
0.00323832
0.0108332
2.0937
0.260451
0.00311981
1.29429
0.00310058
0.0804577
2.74553
0.00354806
0.291522
0.00314941
0.0566103
0.751415
0.00324368
0.00401689
0.00318308
0.0037998
0.0216772
3.81097
0.804974
0.0938891
0.242126
0.00316397
0.765348
0.0031734
0.247989
0.232703
0.0247943
0.159737
0.0139086
1.15092
0.00318438
4.32684
0.218147
0.629019
0.351555
0.163
0.00309675
0.193417
1.09759
0.129316
0.752292
0.885933
1.69361
0.349795
0.0419564
0.627723
0.0840643
0.00406555
0.106676
2.47083
1.14869
0.119984
0.00842413
0.297517
0.00375579
0.443637
0.871896
1.08637
0.84274
0.896178
0.0371956
0.00583145
0.326001
0.224533
0.0483579
0.269526
0.00316114
0.261373
1.96559
0.00330248
1.69684
0.783131
0.114518
0.101917
1.45056
0.0236519
0.101392
0.457555
0.310636
0.294082
0.00322322
0.673872
0.076295
0.271375
0.383109
0.199048
0.22287
0.00685691
0.688757
0.00317337
0.00316055
0.228451
0.104941
0.160107
1.9185
0.0030335
1.14068
0.0646006
0.0578671
0.00338872
1.72223
0.363741
0.0899495
0.784464
0.05979
1.16007
0.15459
0.00314251
1.19381
2.08922
0.00546341
0.00876228
0.20357
1.03752
0.0993539
1.3247
0.0352554
0.233458
0.104125
0.156957
0.68085
0.203267
0.00318776
1.17565
0.32889
0.0151618
0.197067
4.25568
0.276475
0.00317662
0.00307081
0.764023
0.184096
1.0135
0.00306549
0.715007
0.295908
0.408496
0.00376677
0.313995
0.777191
0.00538444
0.258601
0.00321637
1.12324
0.211114
0.345408
0.262376
0.00314611
0.00314548
0.345537
1.40574
0.385903
0.732343
0.00302899
0.0454022
0.00320824
0.0062613
1.15974
0.0742023
0.0971001
0.124859
0.32539
0.305701
0.356459
1.21014
0.00317283
0.304358
0.731912
0.245587
0.00319248
0.943052
0.00320552
0.00316624
0.088564
0.212014
0.0251585
1.36386
0.203256
2.80205
0.00328518
0.00475996
0.0397696
0.903246
0.305977
0.962716
0.00316825
0.00314851
0.00629121
0.00835819
1.10555
0.805691
0.640747
0.123522
0.0448861
0.315484
0.164191
0.578052
0.275855
0.879397
0.312594
0.00308097
0.332965
0.00536858
0.194567
0.888927
0.184429
0.231693
0.133262
0.00380953
1.34367
0.516281
0.488871
0.314553
0.00315935
0.588624
0.762395
0.334193
0.00824951
0.912954
0.479546
0.838413
0.328758
0.336669
0.590028
0.120044
0.861566
0.258485
0.0979533
0.236259
0.00317893
1.21436
0.862538
0.00311819
0.684499
0.00477368
0.538052
0.204625
0.237224
0.266712
0.730702
0.95294
0.262289
0.131332
0.174766
0.219528
0.0125449
0.00310403
1.02777
0.0615739
0.93793
0.549791
0.224494
0.834467
0.544982
0.00314509
0.278264
1.53425
1.06105
0.226787
0.239324
0.5706
1.89705
0.190825
0.234633
0.0249283
0.0837414
0.546913
1.1961
0.111623
0.842003
0.821124
0.785748
0.239814
0.231264
0.425395
0.692547
0.00319155
1.94149
0.669897
0.204934
0.00319069
0.592302
0.474309
0.294882
0.00317433
0.591398
0.00317258
0.243192
0.0912145
0.00319455
0.823189
0.347656
0.00310567
0.531859
0.373569
0.608747
0.258805
0.519361
0.279628
0.705723
0.169215
0.157325
0.0031293
0.00470794
0.343445
0.173379
0.0242083
0.00322957
0.354903
0.00604278
0.119753
0.118539
0.445647
0.207225
0.0574894
0.0943116
0.549448
1.63688
0.329548
4.11854
0.870021
0.00311844
0.541061
0.588959
1.67733
0.00312663
0.173348
0.00318786
0.00359149
0.2773
0.289713
0.0391261
0.00340816
0.80587
3.726
0.00739157
0.00317653
0.129305
0.26289
0.0240168
0.0740353
3.85282
0.140547
0.00339051
0.0031776
0.969042
0.262644
0.135674
0.0592783
0.651838
1.13163
0.392036
0.247354
0.679348
0.00317322
0.502165
0.00315978
0.231099
0.274231
5.38232
0.178296
0.089794
0.00382895
1.1855
0.0031945
0.00313403
0.00585682
0.272509
0.287305
0.976973
0.00314931
0.507566
0.00317251
0.692918
0.977103
0.00320493
0.725384
0.224976
0.00317312
0.00330202
0.031963
1.10711
0.383616
0.026432
0.00317449
0.00313268
0.848826
0.685848
0.327448
0.753827
0.117729
0.438689
0.00314897
0.0103086
0.382819
0.81078
0.759303
0.00887489
0.00317631
0.397876
0.00319766
0.203653
0.805825
0.353847
0.0431356
0.200872
0.506298
0.157186
0.00316975
0.513276
1.33271
0.648212
0.00643993
0.0306035
0.690237
3.69246
0.0548376
0.37365
0.00311028
0.00308661
0.00321467
0.0187759
0.401779
1.07541
0.0106454
0.220962
0.633852
1.23459
0.206193
0.0197106
0.00796556
0.00757808
0.158477
0.171383
0.23681
0.00322348
1.34447
0.00314332
0.0136493
0.844179
0.852872
0.0364454
0.372661
0.46806
0.00409974
0.13031
0.255567
0.0031548
0.00378119
1.12375
0.00365638
0.0032248
0.707198
0.235393
2.09313
0.209242
2.41303
0.00356012
0.00311456
3.24565
0.296057
0.225202
0.498383
0.0603909
0.232659
0.196465
1.02129
0.814524
0.588441
0.582161
0.233364
0.11121
0.321612
0.728489
0.0146475
0.351359
0.00392229
0.439644
0.366658
0.107047
0.384241
0.188528
0.413294
0.20786
0.262196
1.11059
0.459688
0.215629
0.317331
0.710677
0.326091
0.00421316
0.00315953
0.110982
2.22826
0.00316167
1.78878
0.00312462
0.00989639
0.340456
0.221512
0.820438
0.68055
0.902938
1.13987
0.522479
0.386301
0.00316722
0.290812
1.05809
0.00323919
1.24763
0.00714181
1.70949
0.940752
1.13399
0.274176
0.206246
0.283861
0.0918377
0.284539
1.23604
0.360719
0.780155
0.169794
0.203112
0.0853664
0.231788
0.954644
0.00955156
0.666294
0.00319427
0.00393374
0.30019
1.51824
0.338427
0.273873
0.164411
0.110667
0.121732
0.00346911
0.341062
0.00346713
0.706294
0.00341783
0.0580604
0.943379
0.17176
0.306252
0.33415
0.318426
0.006239
0.00321489
0.0992241
0.266846
0.114804
0.517123
0.0424923
0.366001
0.240274
0.374549
0.791902
0.00359422
0.00314782
1.68899
0.226547
0.171983
0.810922
0.688134
0.817578
0.00987804
1.68521
0.335809
0.213181
0.00347795
0.196904
0.403693
0.205469
0.207708
0.266018
0.00323053
0.472866
0.00313412
0.628375
0.0106731
0.439917
0.11804
0.40952
0.00324326
6.54538
0.00319251
1.51045
0.0256276
0.00317521
0.0145908
0.274988
0.0031708
0.00318046
0.396769
0.0328043
0.327485
0.056979
0.00332659
0.219
0.186446
0.445032
0.00334118
0.224018
0.189921
1.35629
0.70712
0.394662
0.415635
0.215743
0.30656
0.7787
0.83221
0.211255
0.00322413
0.145
0.362376
0.306289
0.00471748
0.00855552
0.234344
1.574
0.00318406
0.206237
1.23533
0.00305016
0.849569
0.935739
0.357301
0.594758
0.796794
0.259117
0.130031
2.59068
0.411487
0.885139
0.821709
0.222442
0.107485
0.0031663
0.420481
0.00587406
0.00321787
0.00313425
0.300496
0.00316628
0.00373362
0.537643
4.05826
0.406903
0.212557
0.83375
0.239576
0.00318231
0.165944
1.14393
0.0252595
0.164326
1.01894
0.313018
0.125577
0.0312074
0.00314371
0.00316817
0.0272943
0.0449094
0.302849
0.300013
1.23622
0.267418
0.268768
0.00395533
0.503356
0.213639
0.0032118
0.342787
3.37858
0.00320845
0.362642
1.01676
0.739291
0.656229
0.189849
1.10307
0.00356295
0.210196
0.00331892
0.00633623
0.00320971
0.835032
0.568459
0.0741282
0.00319328
0.00307302
1.11329
0.386815
0.289173
0.235328
0.354486
0.435299
0.306074
0.349843
0.350053
0.0031772
0.151158
0.123585
0.136304
0.385275
1.05911
0.76762
0.59084
0.363245
1.11599
0.826544
0.962904
0.416042
0.881355
0.0646997
0.825199
0.393179
0.0281147
1.01264
0.855729
0.447106
0.0031141
0.00320084
0.00361072
0.00444236
0.472249
0.00304524
0.49435
0.165101
0.996363
0.766724
0.00317141
0.474167
0.283358
0.18689
0.275988
0.390331
0.552646
0.00326538
0.00319927
0.00911122
0.100514
0.0031325
0.637529
0.26732
0.252945
0.760237
0.514512
0.441402
0.532103
0.00316788
0.319225
0.668976
0.00381439
0.0789268
0.40924
0.315009
0.537456
0.193268
0.00325604
0.375592
0.358467
0.00385263
0.0204895
0.0031579
0.1788
0.00440664
0.143926
1.2874
0.111589
0.0735051
1.00134
1.81234
0.00326943
0.628761
0.00305244
0.224954
0.346929
0.247821
0.484013
0.690993
0.676778
0.802298
1.22333
0.746635
0.00317862
0.00314518
0.0531708
0.10137
0.606407
0.172295
0.00319366
1.58803
0.253906
0.00825264
0.788336
0.0586926
0.00816775
0.0403832
0.997629
0.006469
0.00319498
0.258402
0.205958
0.640743
0.118117
0.226232
0.20292
0.00321393
0.291314
0.0902647
0.060025
0.00337572
0.202613
0.534227
0.173639
1.44914
1.33518
0.316567
0.413368
0.00316339
0.359727
0.00319505
2.7301
0.010335
0.430711
0.0942249
0.84026
0.0163738
0.00933642
0.248265
0.307711
1.30278
0.00356452
0.212077
0.482243
0.6091
0.185508
0.99936
0.12066
0.00343504
0.00320506
0.479069
0.635496
1.06294
0.289412
0.0848674
0.530366
0.328537
0.818895
0.0460037
0.00316921
0.00318278
0.122259
0.707408
0.689828
0.992865
0.00353328
0.0109597
0.167927
0.452408
0.268503
0.759013
0.349936
0.87905
0.00319888
0.00320952
1.13646
0.275253
0.885195
2.87783
0.360013
0.0246317
1.41135
0.00318403
1.02329
0.027716
0.0308234
0.00317113
0.0417926
0.0845565
0.837209
0.794121
0.00322673
0.758389
0.0031601
0.601097
1.5659
0.00314505
0.157333
0.00322657
0.259056
0.127522
0.174672
0.00308785
0.26205
0.211773
0.257318
1.02354
0.170167
1.22463
0.217429
0.833348
0.237378
1.11746
0.637835
0.00384238
0.00320861
0.375461
0.195076
0.823492
0.00317726
2.11162
0.00315893
0.00478183
0.0387254
0.00316024
1.14225
0.974377
0.00324379
0.665363
0.256624
0.102514
0.709213
0.00608313
0.00312918
0.422982
0.385861
0.00976811
0.776293
6.66869
1.35815
0.155285
1.19715
0.104333
0.00318524
0.00368805
0.0351739
0.137056
0.844161
1.08991
1.31555
0.795527
0.53162
0.509117
0.257727
0.651787
1.94361
0.591017
0.043042
0.0783068
0.278669
1.50649
0.00338232
0.19426
0.655381
0.333459
0.00317285
0.423965
0.00305912
0.0138639
0.843723
0.00338751
0.298132
1.84981
0.00318984
0.352628
0.0035143
0.337245
0.0141136
0.00406709
0.766918
0.25521
0.9154
0.399668
1.12051
1.64648
0.489664
0.175843
0.752046
0.388423
0.0031157
0.577506