/*--------------------------------*- C++ -*----------------------------------*\
| =========                 |                                                 |
| \\      /  F ield         | OpenFOAM: The Open Source CFD Toolbox           |
|  \\    /   O peration     | Version:  2.3.1                                 |
|   \\  /    A nd           | Web:      www.OpenFOAM.org                      |
|    \\/     M anipulation  |                                                 |
\*---------------------------------------------------------------------------*/
FoamFile
{
    version     2.0;
    format      ascii;
    class       volVectorField;
    location    "0.6";
    object      U;
}
// * * * * * * * * * * * * * * * * * * * * * * * * * * * * * * * * * * * * * //

dimensions      [0 1 -1 0 0 0 0];

internalField   nonuniform List<vector> 
768
(
(-0.116598 -0.0639354 -4.06736e-19)
(-0.114646 -0.0590813 -1.33938e-19)
(-0.107514 -0.051477 9.21567e-19)
(-0.101617 -0.0400967 -6.44556e-19)
(-0.0995344 -0.0273775 -2.55985e-19)
(-0.102263 -0.015118 3.18948e-19)
(-0.109478 -0.0049247 -3.83873e-19)
(-0.119735 0.00320786 0)
(-0.130695 0.0101162 6.45267e-20)
(-0.139367 0.0166546 -6.28631e-20)
(-0.143705 0.0224162 0)
(-0.144724 0.0286149 -5.99847e-20)
(-0.115516 -0.0913454 4.59519e-19)
(-0.101407 -0.0949842 -6.66044e-19)
(-0.0947558 -0.0862693 -3.32445e-19)
(-0.0957335 -0.0692197 4.42448e-19)
(-0.101222 -0.0488833 1.14046e-19)
(-0.109815 -0.0283228 3.35249e-19)
(-0.12147 -0.00922931 -1.67114e-19)
(-0.135202 0.00567489 0)
(-0.149511 0.0140848 0)
(-0.161988 0.0149349 -2.77528e-20)
(-0.172206 0.0145807 1.27293e-19)
(-0.181202 0.0239542 -4.79671e-20)
(-0.123202 -0.109065 -6.00117e-19)
(-0.108248 -0.112591 5.82059e-19)
(-0.110447 -0.0984296 -1.95172e-19)
(-0.12159 -0.0752298 -2.13615e-19)
(-0.136386 -0.047838 2.16915e-19)
(-0.151582 -0.0211611 -1.06062e-19)
(-0.165069 0.00185579 0)
(-0.176823 0.0194995 0)
(-0.18727 0.0281179 -2.24157e-20)
(-0.198768 0.0313295 4.36102e-20)
(-0.213476 0.0414559 0)
(-0.231354 0.064055 0)
(-0.132894 -0.130703 -1.73416e-19)
(-0.128876 -0.128998 0)
(-0.145385 -0.110378 1.86548e-19)
(-0.165916 -0.0845431 1.92246e-19)
(-0.185559 -0.0538464 4.70369e-21)
(-0.202526 -0.0215434 -8.21275e-21)
(-0.216456 0.00592932 0)
(-0.226732 0.0257712 0)
(-0.236199 0.0385154 -8.8337e-20)
(-0.249241 0.0522607 1.61196e-20)
(-0.266546 0.0762319 1.58291e-20)
(-0.285985 0.110407 1.09845e-19)
(-0.150154 -0.139169 -8.36937e-19)
(-0.162957 -0.133816 5.85049e-19)
(-0.188735 -0.115731 1.26271e-20)
(-0.21491 -0.0888816 -4.56952e-19)
(-0.237818 -0.0571145 0)
(-0.255531 -0.0247678 -2.87699e-19)
(-0.267925 0.00413759 1.30804e-19)
(-0.276405 0.0275877 -1.2803e-19)
(-0.28444 0.0481685 3.00795e-20)
(-0.29439 0.0721774 1.72501e-21)
(-0.304977 0.103543 0)
(-0.313743 0.139605 -7.92604e-20)
(-0.172778 -0.137507 3.48313e-20)
(-0.200999 -0.132215 0)
(-0.232689 -0.115423 0)
(-0.262053 -0.0903807 2.6371e-19)
(-0.286241 -0.0604436 -1.17113e-19)
(-0.303269 -0.0293585 7.47608e-21)
(-0.313067 -8.90204e-05 -9.4919e-20)
(-0.317617 0.0263271 0)
(-0.319398 0.0518194 0)
(-0.319153 0.0796358 0)
(-0.315637 0.110794 0)
(-0.307659 0.141801 0)
(-0.19669 -0.127237 -1.49407e-19)
(-0.235474 -0.122569 -1.84484e-19)
(-0.270243 -0.108584 3.5922e-19)
(-0.300874 -0.0874783 -7.63367e-20)
(-0.324587 -0.0615774 8.69942e-20)
(-0.339378 -0.0340011 -9.48114e-21)
(-0.345053 -0.0070508 8.76136e-20)
(-0.34306 0.0185376 0)
(-0.335178 0.0437011 0)
(-0.322196 0.0697921 0)
(-0.303985 0.0965123 0)
(-0.280852 0.120438 3.77402e-20)
(-0.218025 -0.114786 1.53522e-19)
(-0.261027 -0.109387 1.67422e-20)
(-0.294231 -0.0967186 -1.27592e-19)
(-0.323788 -0.079581 1.12787e-19)
(-0.345843 -0.0591458 0)
(-0.357899 -0.0377522 -7.09858e-20)
(-0.35925 -0.016742 0)
(-0.350935 0.00379476 0)
(-0.334799 0.0246156 0)
(-0.312462 0.0461579 0)
(-0.285015 0.0674513 5.4987e-21)
(-0.253735 0.0854989 3.20418e-20)
(-0.233535 -0.104654 9.98326e-21)
(-0.27615 -0.095078 1.16317e-20)
(-0.303831 -0.0809752 -9.20503e-20)
(-0.329592 -0.0662421 -1.70574e-20)
(-0.348421 -0.0512434 0)
(-0.357338 -0.037531 -4.01455e-20)
(-0.355127 -0.0250634 -4.66761e-20)
(-0.342678 -0.0125288 0)
(-0.322271 0.00170932 -1.39254e-20)
(-0.296301 0.0179991 0)
(-0.2666 0.0352047 -5.58993e-21)
(-0.234692 0.0502848 -8.72035e-21)
(-0.242441 -0.102157 1.52999e-19)
(-0.282453 -0.0849558 -1.27485e-19)
(-0.301892 -0.0653161 1.21926e-19)
(-0.321959 -0.0500373 -1.2763e-19)
(-0.336407 -0.0388526 -3.22462e-20)
(-0.341594 -0.0325623 5.04445e-20)
(-0.335819 -0.0296009 0)
(-0.320336 -0.0265182 -3.13524e-20)
(-0.298104 -0.0199573 1.40356e-20)
(-0.271765 -0.00791493 -3.87373e-22)
(-0.243431 0.00759599 -2.49249e-21)
(-0.214892 0.0226658 -3.86134e-21)
(-0.245102 -0.10643 3.83765e-20)
(-0.276823 -0.0765629 -3.68916e-20)
(-0.28646 -0.0526008 0)
(-0.297523 -0.0332139 0)
(-0.30422 -0.0234861 6.19177e-20)
(-0.301324 -0.0241863 1.68332e-19)
(-0.289022 -0.0317731 -3.47768e-20)
(-0.270816 -0.0393892 3.12384e-20)
(-0.249806 -0.0403713 0)
(-0.227544 -0.0319199 8.49548e-22)
(-0.205379 -0.0169977 2.18754e-21)
(-0.184368 -0.000680839 0)
(-0.246714 -0.153671 1.86618e-20)
(-0.27333 -0.0922062 -1.08918e-20)
(-0.267835 -0.0488146 -1.41178e-20)
(-0.260293 -0.0184742 1.20088e-20)
(-0.251846 -0.00539436 2.87548e-20)
(-0.236419 -0.00950727 -4.43904e-21)
(-0.215015 -0.0254284 2.81777e-20)
(-0.194141 -0.0431555 -2.63186e-21)
(-0.17773 -0.0514238 2.75632e-21)
(-0.16477 -0.0468287 -3.50705e-21)
(-0.153394 -0.0333346 0)
(-0.142701 -0.0169447 2.56133e-21)
(-0.144533 0.0378538 6.11352e-20)
(-0.144357 0.0501291 -1.14376e-19)
(-0.145174 0.0626203 0)
(-0.147357 0.0730311 -4.28287e-19)
(-0.148984 0.0814506 7.28271e-19)
(-0.147182 0.0882976 -8.97314e-19)
(-0.140442 0.0936324 2.9494e-19)
(-0.128553 0.0968983 0)
(-0.112883 0.0981245 -3.66091e-19)
(-0.0963806 0.100178 5.72509e-19)
(-0.0820189 0.105496 -6.62158e-19)
(-0.0732621 0.109246 1.96174e-19)
(-0.191855 0.0413221 0)
(-0.203544 0.0631469 9.28066e-20)
(-0.214697 0.0867852 3.24469e-19)
(-0.224345 0.108039 -2.42744e-19)
(-0.230085 0.123356 0)
(-0.229911 0.130818 0)
(-0.223154 0.130742 -1.20278e-19)
(-0.207954 0.12475 0)
(-0.182997 0.116993 -2.53532e-19)
(-0.149275 0.111187 4.13338e-19)
(-0.114844 0.109598 0)
(-0.0953613 0.112889 4.59125e-19)
(-0.251677 0.0955077 0)
(-0.271935 0.129671 0)
(-0.289624 0.159038 1.1004e-19)
(-0.303301 0.17757 -5.80593e-20)
(-0.31215 0.182798 9.85371e-20)
(-0.315675 0.17608 0)
(-0.313198 0.161456 9.0443e-21)
(-0.302877 0.143853 0)
(-0.279893 0.126861 0)
(-0.237793 0.115007 8.66189e-20)
(-0.173814 0.113115 1.00448e-19)
(-0.10744 0.121734 0)
(-0.304875 0.148223 -1.04175e-19)
(-0.320832 0.180788 4.24682e-20)
(-0.332639 0.200442 -1.77441e-19)
(-0.340329 0.204162 0)
(-0.344574 0.194272 -2.58505e-19)
(-0.346239 0.176271 1.71228e-19)
(-0.346965 0.155526 7.96366e-20)
(-0.347347 0.135216 6.81073e-20)
(-0.343244 0.116941 0)
(-0.323208 0.104151 -7.21013e-20)
(-0.265765 0.106032 -8.18229e-20)
(-0.151698 0.130599 1.89937e-19)
(-0.318799 0.172799 7.68946e-20)
(-0.319543 0.194378 -1.03595e-19)
(-0.316695 0.199014 2.28034e-19)
(-0.311706 0.18741 -8.2191e-20)
(-0.30632 0.165422 -8.54129e-20)
(-0.302947 0.140718 1.69183e-19)
(-0.304021 0.120049 -1.79413e-20)
(-0.309858 0.104318 -6.84642e-20)
(-0.321522 0.0924 0)
(-0.333983 0.082822 0)
(-0.324337 0.0849942 0)
(-0.232356 0.128302 0)
(-0.295385 0.165465 0)
(-0.280578 0.174497 6.47136e-20)
(-0.265917 0.165986 0)
(-0.253862 0.143339 -2.177e-19)
(-0.246333 0.11519 -6.49634e-20)
(-0.244094 0.091406 4.09467e-19)
(-0.247041 0.0755697 -2.68102e-19)
(-0.254006 0.0672735 -1.92223e-19)
(-0.265749 0.0651501 9.85312e-20)
(-0.286307 0.0645185 0)
(-0.314868 0.0629654 8.07773e-20)
(-0.291538 0.111918 -8.55062e-20)
(-0.25474 0.135625 -3.85683e-20)
(-0.229127 0.136845 0)
(-0.207922 0.123296 -1.03984e-19)
(-0.194097 0.0997159 2.03436e-19)
(-0.188941 0.074995 1.29858e-19)
(-0.191777 0.056758 -2.27019e-20)
(-0.200421 0.0468747 -9.11148e-20)
(-0.212525 0.0448868 8.60515e-20)
(-0.226625 0.0488065 0)
(-0.243602 0.0576311 0)
(-0.26997 0.0587746 0)
(-0.302963 0.101068 0)
(-0.220954 0.0959469 -2.32769e-20)
(-0.19077 0.0950381 0)
(-0.167468 0.0834235 0)
(-0.153932 0.0660034 -8.33232e-20)
(-0.150736 0.0496137 5.34964e-20)
(-0.155797 0.0385571 9.93707e-20)
(-0.166392 0.035032 -5.22791e-20)
(-0.180122 0.0386313 -2.08663e-20)
(-0.195993 0.0474533 -1.47061e-20)
(-0.215758 0.0601574 1.47072e-20)
(-0.23855 0.0701375 -1.46966e-20)
(-0.282554 0.105984 -1.15993e-20)
(-0.202904 0.0597617 0)
(-0.174576 0.0614206 1.50559e-20)
(-0.153279 0.0559077 -1.4885e-20)
(-0.141301 0.0469219 0)
(-0.138086 0.0387657 -4.86147e-20)
(-0.141904 0.0344357 -3.83075e-20)
(-0.150246 0.0355746 -1.40561e-20)
(-0.161126 0.0423995 2.14044e-20)
(-0.173783 0.0541372 0)
(-0.189835 0.0706273 0)
(-0.212728 0.0874666 1.40488e-20)
(-0.251918 0.122056 3.27128e-20)
(-0.18808 0.0339686 3.76088e-21)
(-0.16508 0.0397497 -6.96859e-21)
(-0.147924 0.0404435 6.8573e-21)
(-0.137672 0.0382044 1.23963e-20)
(-0.134095 0.0358958 -1.06495e-20)
(-0.135843 0.0359777 2.01283e-20)
(-0.141127 0.0400604 -2.01663e-20)
(-0.148477 0.0489699 -3.74631e-20)
(-0.157171 0.0627734 3.32295e-20)
(-0.168035 0.0823435 1.40218e-19)
(-0.184146 0.10523 -6.62039e-20)
(-0.213568 0.142171 -1.83792e-19)
(-0.16541 0.0130605 0)
(-0.149427 0.0223873 1.51573e-21)
(-0.137319 0.0274196 -1.49622e-21)
(-0.129666 0.0297185 -1.14501e-20)
(-0.126401 0.0314667 8.91357e-21)
(-0.126812 0.0347221 9.88684e-22)
(-0.129805 0.0410534 -3.88092e-20)
(-0.134326 0.0517301 1.06192e-19)
(-0.139461 0.0675439 -6.41249e-20)
(-0.145231 0.0908111 -1.00047e-19)
(-0.152479 0.119148 -9.04858e-20)
(-0.166559 0.165456 4.24952e-20)
(-0.132738 -0.00217772 -2.55902e-21)
(-0.124078 0.00889699 0)
(-0.117401 0.016221 0)
(-0.11316 0.0209885 -5.37294e-21)
(-0.111385 0.0249545 0)
(-0.111704 0.0299147 -4.08922e-20)
(-0.11345 0.0374193 4.32461e-20)
(-0.115886 0.0489477 1.28402e-20)
(-0.117869 0.0657161 -9.37248e-20)
(-0.1186 0.0920032 -1.30053e-19)
(-0.113169 0.12832 1.73025e-19)
(-0.0972285 0.210129 3.30592e-19)
(-0.0639578 0.11658 1.35818e-19)
(-0.0591045 0.114584 0)
(-0.0514834 0.10743 0)
(-0.0400938 0.101518 -2.56692e-19)
(-0.0273746 0.0994215 0)
(-0.0151155 0.102135 -2.54814e-19)
(-0.00491489 0.109349 3.20635e-19)
(0.00323171 0.119614 9.56012e-20)
(0.0101475 0.130602 -1.95212e-19)
(0.0166826 0.139316 6.4857e-20)
(0.0224415 0.14369 -1.57854e-20)
(0.0286023 0.144698 0)
(-0.0914044 0.115476 2.33173e-19)
(-0.0950424 0.101332 0)
(-0.0863026 0.0946869 0)
(-0.0692391 0.0956662 7.81907e-19)
(-0.0488953 0.10115 -5.64471e-19)
(-0.0283343 0.109729 -2.22692e-19)
(-0.00922475 0.121355 3.33274e-19)
(0.00571886 0.135065 0)
(0.0141857 0.149377 5.3253e-20)
(0.0150789 0.161876 -5.14567e-20)
(0.0146098 0.172104 1.2636e-19)
(0.0237979 0.181063 -5.1552e-20)
(-0.10915 0.123163 2.05104e-19)
(-0.112651 0.108226 -5.74373e-19)
(-0.0984736 0.110472 5.98752e-19)
(-0.0752894 0.121632 -1.0357e-18)
(-0.0479268 0.136409 3.21776e-19)
(-0.0212472 0.151588 2.13555e-19)
(0.00180018 0.165041 -1.02786e-19)
(0.0195171 0.176769 9.40934e-20)
(0.0282233 0.187187 -9.21551e-20)
(0.0313958 0.198624 0)
(0.0413291 0.213263 -1.01604e-19)
(0.0637226 0.231055 3.76032e-20)
(-0.130753 0.13289 6.762e-19)
(-0.129004 0.128937 -1.60804e-19)
(-0.110401 0.145502 -1.86562e-19)
(-0.0846313 0.16604 -5.75058e-19)
(-0.0539988 0.185669 5.99738e-21)
(-0.0217081 0.202627 1.83675e-19)
(0.00581602 0.216533 -8.12029e-20)
(0.0257446 0.226773 7.45558e-20)
(0.0385303 0.23616 1.03652e-21)
(0.0521654 0.249095 -3.64938e-20)
(0.0759347 0.266309 0)
(0.109931 0.285686 8.44054e-20)
(-0.139155 0.150185 -2.88437e-19)
(-0.133779 0.163078 2.85917e-19)
(-0.115737 0.188905 0)
(-0.0889673 0.21511 3.11481e-19)
(-0.0572784 0.238025 7.58031e-21)
(-0.0249699 0.255733 1.03541e-20)
(0.00395971 0.268093 7.78193e-21)
(0.0274606 0.276503 -6.53178e-20)
(0.0480378 0.284424 2.80295e-21)
(0.0719411 0.294257 2.83825e-20)
(0.103157 0.304768 2.02472e-20)
(0.139121 0.313512 -5.64743e-20)
(-0.137424 0.172855 2.14258e-19)
(-0.132111 0.201174 -2.16784e-19)
(-0.115375 0.232917 0)
(-0.0904352 0.262313 -2.40349e-19)
(-0.0606063 0.286513 0)
(-0.0295945 0.303525 1.20558e-19)
(-0.000346131 0.313273 5.63259e-20)
(0.0260766 0.317729 4.29005e-20)
(0.0515497 0.31939 1.89513e-20)
(0.0792973 0.319043 2.04247e-21)
(0.110379 0.315475 -1.90069e-20)
(0.141383 0.307505 0)
(-0.127093 0.196794 -3.8457e-19)
(-0.122399 0.235669 5.62595e-19)
(-0.108461 0.270485 6.76982e-21)
(-0.0874723 0.301138 1.03656e-19)
(-0.0617119 0.324847 -8.69525e-20)
(-0.0342567 0.339611 -8.49673e-20)
(-0.00737999 0.345224 7.48466e-20)
(0.0181753 0.343141 -8.35786e-20)
(0.0433164 0.335159 -4.52003e-21)
(0.0693815 0.322106 -1.97324e-21)
(0.0960972 0.303874 0)
(0.120093 0.280764 -3.77193e-20)
(-0.114608 0.218129 -1.36255e-20)
(-0.109164 0.261195 1.3275e-19)
(-0.0965239 0.294413 3.46985e-21)
(-0.0795026 0.323964 -2.5624e-19)
(-0.059233 0.346 2.40309e-19)
(-0.038004 0.358018 0)
(-0.0171169 0.359319 5.25473e-20)
(0.00335222 0.35094 -3.02831e-20)
(0.0241499 0.334748 -1.31908e-20)
(0.0457048 0.312382 0)
(0.0670515 0.284945 0)
(0.0852119 0.253697 -8.90189e-21)
(-0.104468 0.233625 -2.18929e-19)
(-0.0948272 0.276286 0)
(-0.0807261 0.303961 9.1924e-20)
(-0.0660891 0.329701 -8.94316e-20)
(-0.0512544 0.348491 -1.08333e-19)
(-0.0377291 0.357355 0)
(-0.0254197 0.35508 -5.12678e-20)
(-0.0129758 0.342579 0)
(0.00124194 0.322136 0)
(0.0175605 0.296159 0)
(0.0348516 0.266498 0)
(0.0500546 0.234641 1.26739e-20)
(-0.101971 0.242497 7.22306e-20)
(-0.0847008 0.282548 -6.13848e-20)
(-0.0650428 0.301969 5.99068e-20)
(-0.049846 0.322003 0)
(-0.0388307 0.336401 6.23613e-20)
(-0.0327518 0.341516 0)
(-0.0299844 0.33567 -3.59903e-20)
(-0.0270138 0.320131 0)
(-0.0204668 0.29789 0)
(-0.00834238 0.271575 1.37229e-21)
(0.00730177 0.24331 -3.80564e-21)
(0.0225029 0.214837 -3.64397e-21)
(-0.106307 0.245109 3.83131e-20)
(-0.0763101 0.276837 -7.60039e-20)
(-0.0523193 0.286464 0)
(-0.0329992 0.297476 0)
(-0.0234282 0.304105 -9.1738e-20)
(-0.0243551 0.301121 3.0465e-20)
(-0.0321668 0.288737 3.67447e-20)
(-0.0398861 0.270516 0)
(-0.0408434 0.249556 0)
(-0.0322757 0.227375 5.01794e-22)
(-0.0172204 0.205309 1.50869e-21)
(-0.000787917 0.184377 0)
(-0.153607 0.246674 -8.96647e-21)
(-0.0919769 0.273269 3.0348e-20)
(-0.0485114 0.267772 6.86971e-21)
(-0.0182325 0.260183 2.89463e-20)
(-0.00530711 0.251679 -2.88832e-20)
(-0.00962135 0.236183 0)
(-0.0257393 0.214717 0)
(-0.0435968 0.193861 0)
(-0.0518171 0.17755 0)
(-0.0470771 0.16472 -4.35166e-22)
(-0.0334428 0.153466 5.72399e-22)
(-0.0169589 0.142857 2.75299e-21)
(0.037775 0.14446 -5.88974e-20)
(0.049981 0.144211 0)
(0.0624291 0.144922 -2.24231e-19)
(0.0728027 0.146988 -5.33229e-19)
(0.0811771 0.148545 5.2996e-19)
(0.0879855 0.146723 1.97431e-19)
(0.093316 0.140007 -2.12991e-19)
(0.0966226 0.128174 -1.7343e-19)
(0.0979254 0.112591 -5.40242e-19)
(0.100076 0.096194 7.49811e-19)
(0.105492 0.0819159 -4.74985e-19)
(0.10927 0.0732068 -8.36672e-20)
(0.0410341 0.191618 4.91954e-20)
(0.0627158 0.203228 0)
(0.0862558 0.214288 7.99072e-21)
(0.107485 0.223848 1.549e-19)
(0.12285 0.229533 0)
(0.130422 0.229327 2.11546e-19)
(0.130482 0.222547 -4.04375e-19)
(0.124618 0.207335 1.87017e-20)
(0.116965 0.182402 -1.17044e-19)
(0.111232 0.148785 1.26467e-19)
(0.109676 0.114576 2.89751e-19)
(0.112946 0.0952866 1.5928e-19)
(0.0950021 0.251289 -6.56802e-20)
(0.129079 0.271497 0)
(0.15848 0.289169 6.2466e-20)
(0.177144 0.302851 -1.61512e-19)
(0.182545 0.311713 -9.87579e-20)
(0.175987 0.315245 1.04631e-19)
(0.161482 0.312752 8.80398e-20)
(0.143957 0.302356 9.3188e-20)
(0.127019 0.279256 0)
(0.115192 0.237056 -1.8744e-19)
(0.113258 0.173162 -1.00839e-19)
(0.121786 0.107299 -1.31023e-19)
(0.147662 0.30456 -4.92049e-20)
(0.180285 0.32056 0)
(0.200124 0.332459 0)
(0.204085 0.340271 9.19178e-20)
(0.194408 0.344641 -7.86041e-20)
(0.176537 0.346403 1.71437e-19)
(0.155842 0.347162 -7.97739e-20)
(0.135535 0.347502 0)
(0.117245 0.343239 0)
(0.104454 0.322925 7.23307e-20)
(0.106299 0.265188 8.21176e-20)
(0.130672 0.151192 -1.01236e-19)
(0.172352 0.318607 7.69235e-20)
(0.19412 0.319439 0)
(0.199038 0.316712 -1.48406e-19)
(0.187711 0.311853 1.53837e-19)
(0.165917 0.306586 7.6215e-20)
(0.141267 0.303307 0)
(0.120558 0.304452 0)
(0.104754 0.310339 -1.17247e-19)
(0.0927531 0.321998 -1.0323e-19)
(0.0831406 0.334304 1.13773e-20)
(0.0853529 0.324237 -1.97122e-19)
(0.128529 0.231784 1.3699e-19)
(0.165177 0.295283 -4.53952e-20)
(0.174466 0.280551 -5.80721e-20)
(0.166249 0.26596 6.03701e-20)
(0.143815 0.253953 1.41167e-19)
(0.11573 0.246466 -3.78203e-19)
(0.0918988 0.244246 9.47462e-21)
(0.0759837 0.247213 2.48533e-19)
(0.0676036 0.254217 -8.34645e-20)
(0.065402 0.26604 1.07172e-19)
(0.064693 0.286692 9.38e-20)
(0.0632008 0.315192 8.7547e-20)
(0.112146 0.291306 -7.59497e-20)
(0.13546 0.254693 8.55712e-20)
(0.136936 0.22911 0)
(0.123629 0.207914 0)
(0.100176 0.19409 9.51889e-20)
(0.0754154 0.188905 0)
(0.0570867 0.191726 9.48182e-20)
(0.0470934 0.20039 -9.16057e-20)
(0.045016 0.21253 8.66232e-20)
(0.0488874 0.226669 0)
(0.0576758 0.24368 0)
(0.0588317 0.270205 0)
(0.101181 0.302971 1.25137e-19)
(0.0958428 0.220943 0)
(0.0951528 0.190747 -1.9866e-20)
(0.0837152 0.167388 4.80805e-20)
(0.0663662 0.153771 -1.51447e-19)
(0.0499295 0.150495 6.60318e-20)
(0.0387565 0.155531 5.36109e-20)
(0.0351223 0.166157 -1.19019e-20)
(0.0386428 0.179956 -1.91175e-20)
(0.0474234 0.195906 -1.51289e-20)
(0.0601152 0.215735 1.51293e-20)
(0.0701235 0.238573 8.03626e-21)
(0.106013 0.282597 -7.96114e-21)
(0.0596888 0.202884 0)
(0.0615076 0.17453 1.84778e-20)
(0.0561052 0.153148 -8.72422e-21)
(0.0471441 0.14107 -6.16087e-21)
(0.038943 0.137775 0)
(0.0345258 0.141559 0)
(0.0355835 0.149917 -1.15806e-20)
(0.0423556 0.160851 -1.98035e-20)
(0.0540741 0.173579 0)
(0.070568 0.189711 -2.57056e-20)
(0.0874418 0.212689 -6.79979e-20)
(0.122082 0.251907 0)
(0.0339289 0.188053 0)
(0.039815 0.165033 -6.56438e-21)
(0.0405745 0.147816 2.81898e-20)
(0.0383522 0.137487 -4.39038e-20)
(0.0360176 0.133838 0)
(0.0360488 0.135548 6.89974e-21)
(0.0400802 0.140833 4.02117e-21)
(0.0489523 0.148211 5.33442e-20)
(0.0627392 0.156949 -5.26884e-20)
(0.0823109 0.167866 3.47808e-20)
(0.105231 0.184038 9.04919e-20)
(0.142208 0.213533 0)
(0.0130506 0.165455 0)
(0.022457 0.149464 5.98595e-21)
(0.0275422 0.137309 -9.69406e-21)
(0.0298597 0.12959 0)
(0.0315968 0.126263 -6.60588e-22)
(0.0348229 0.126634 0)
(0.0411214 0.129611 -1.34814e-20)
(0.0517697 0.134131 -4.9935e-20)
(0.0675656 0.139278 8.70299e-20)
(0.0908233 0.145065 6.89092e-20)
(0.119182 0.152342 -3.39597e-19)
(0.165493 0.166502 9.60088e-20)
(-0.00212735 0.132923 0)
(0.00899812 0.124246 -1.74352e-21)
(0.0163597 0.117523 -3.26567e-21)
(0.0211472 0.113225 3.76465e-21)
(0.0251146 0.111396 -1.06755e-20)
(0.0300621 0.111672 7.52171e-21)
(0.0375455 0.113386 2.83843e-20)
(0.0490495 0.115799 0)
(0.0657923 0.117764 1.13816e-20)
(0.0920602 0.118477 7.66206e-20)
(0.128374 0.113032 8.95504e-20)
(0.210069 0.097083 -3.16132e-19)
(-0.140564 -0.0282495 9.15517e-20)
(-0.170992 -0.0490153 2.52916e-20)
(-0.195873 -0.0403979 1.46554e-20)
(-0.196267 -0.0158323 -4.11897e-20)
(-0.180162 -0.000376508 -8.27394e-21)
(-0.154585 -0.00404209 -4.64124e-20)
(-0.127319 -0.0222513 0)
(-0.108091 -0.0425851 -4.16273e-20)
(-0.10028 -0.0533062 8.16141e-21)
(-0.0995815 -0.0509153 -2.19331e-21)
(-0.100795 -0.0392918 3.04102e-22)
(-0.101085 -0.0243509 -6.06684e-21)
(-0.0891291 0.014482 -4.65504e-20)
(-0.0885782 0.0187348 -7.35546e-20)
(-0.0970372 0.0185794 2.26352e-20)
(-0.0969669 0.020415 1.11519e-20)
(-0.0824487 0.019375 -3.82402e-20)
(-0.058987 0.00778978 1.39977e-20)
(-0.0386742 -0.0132314 0)
(-0.0315044 -0.0347196 1.76928e-20)
(-0.0368003 -0.0463661 -9.59113e-21)
(-0.0480245 -0.0454847 0)
(-0.0591787 -0.0362541 0)
(-0.0672594 -0.0241771 2.67792e-21)
(-0.0649711 0.0156614 0)
(-0.0528753 0.0325377 5.05319e-20)
(-0.0418547 0.0427801 -5.77477e-20)
(-0.028251 0.0451992 0)
(-0.0103182 0.0379425 4.19014e-20)
(0.00709394 0.0206198 -9.60744e-21)
(0.0152612 -0.00240322 -2.33952e-20)
(0.0104288 -0.0236776 0)
(-0.00330683 -0.0349621 3.97614e-21)
(-0.0197979 -0.0352739 1.49675e-22)
(-0.0343545 -0.0287234 0)
(-0.0447999 -0.0200068 -3.17009e-21)
(-0.0505717 0.0147063 0)
(-0.0413341 0.0280349 0)
(-0.0273108 0.0374932 2.18503e-20)
(-0.00977417 0.0408814 0)
(0.00876638 0.0350488 -8.04699e-21)
(0.0224616 0.0206834 -8.04639e-21)
(0.0250757 0.00209925 3.04879e-20)
(0.0171413 -0.0137788 -1.08885e-20)
(0.00449146 -0.0227512 -3.50772e-21)
(-0.00910766 -0.0247403 -1.43621e-22)
(-0.0212267 -0.0217431 -2.3017e-22)
(-0.0303676 -0.0165215 -2.87632e-21)
(-0.0997791 -0.0104923 3.20524e-21)
(-0.0974229 0.000233526 8.00985e-21)
(-0.0949626 0.00766643 0)
(-0.0931856 0.0128085 1.46093e-20)
(-0.0924619 0.0172001 8.86342e-21)
(-0.0927265 0.0224739 4.34628e-20)
(-0.0935619 0.0300897 -4.62458e-20)
(-0.0942689 0.0413204 5.36467e-21)
(-0.09334 0.0570164 4.86872e-20)
(-0.0876937 0.0796671 1.21487e-19)
(-0.0712486 0.104742 -2.28205e-19)
(-0.0177009 0.152051 2.50728e-20)
(-0.0718586 -0.0129555 0)
(-0.0739081 -0.00419443 -7.47804e-21)
(-0.0746181 0.00202076 -1.95657e-20)
(-0.0749047 0.00652943 -2.89626e-20)
(-0.0752081 0.0106086 1.16199e-20)
(-0.0755143 0.0156212 0)
(-0.0754954 0.0227707 -2.06977e-20)
(-0.0745028 0.0328288 -2.77924e-20)
(-0.0713216 0.0462488 0)
(-0.0627135 0.0628943 -4.38356e-20)
(-0.0473864 0.08146 -2.17673e-19)
(-0.00713322 0.100529 5.37181e-20)
(-0.0512371 -0.012007 3.19814e-21)
(-0.0549164 -0.00581833 4.72376e-21)
(-0.0571271 -0.0013933 -7.30877e-21)
(-0.0587164 0.00199862 1.30082e-20)
(-0.0600365 0.00542614 -1.30067e-20)
(-0.0609667 0.0100208 0)
(-0.0609901 0.0166848 -2.69463e-20)
(-0.0593143 0.0256216 8.40266e-20)
(-0.0550424 0.0362683 7.05569e-20)
(-0.0458073 0.0476343 9.25781e-20)
(-0.0309281 0.0608569 1.0027e-19)
(-0.00676682 0.0712814 0)
(-0.0363322 -0.0113346 -4.15943e-21)
(-0.0399711 -0.00728806 -1.38398e-20)
(-0.042362 -0.00448398 4.62638e-20)
(-0.0443783 -0.00230828 -1.34162e-20)
(-0.0465825 0.00035052 1.3425e-20)
(-0.0491068 0.00479706 0)
(-0.0513179 0.0118983 4.40194e-20)
(-0.051378 0.0210428 -2.55565e-20)
(-0.0470924 0.0301709 -9.63572e-20)
(-0.0363645 0.0373375 3.83873e-20)
(-0.0212236 0.0441586 -7.53647e-20)
(-0.00263785 0.0513257 -3.07123e-20)
(-0.0282865 0.140566 3.87563e-20)
(-0.0490142 0.171087 0)
(-0.0402105 0.195924 -2.40973e-21)
(-0.0156011 0.196212 2.383e-21)
(-0.000268623 0.180002 -2.51059e-20)
(-0.00416303 0.154336 4.23534e-20)
(-0.0225683 0.127044 0)
(-0.0429828 0.107938 0)
(-0.0536236 0.100295 0)
(-0.0510662 0.0997464 0)
(-0.0393064 0.10107 2.09057e-22)
(-0.0243031 0.101414 -2.5039e-21)
(0.0145117 0.0891768 -6.28899e-20)
(0.018763 0.0886763 -3.8936e-20)
(0.0186225 0.0971466 0)
(0.0204836 0.0970075 1.12464e-20)
(0.0193948 0.0823792 1.10279e-20)
(0.00766072 0.0588382 -3.78111e-20)
(-0.013527 0.0385727 0)
(-0.0350624 0.0315992 -1.39888e-20)
(-0.0466034 0.0371129 -4.18954e-21)
(-0.0455453 0.0484793 0)
(-0.0361956 0.0596899 -4.70101e-22)
(-0.0241023 0.0677576 -3.32123e-21)
(0.0157279 0.0650111 -2.06249e-21)
(0.0326218 0.052921 3.62212e-20)
(0.042864 0.0418996 0)
(0.0452553 0.0282655 0)
(0.0379238 0.0102901 0)
(0.0204966 -0.00711314 0)
(-0.00262265 -0.0151454 1.24432e-20)
(-0.0239106 -0.0100925 7.44208e-22)
(-0.0351164 0.00383741 3.93529e-21)
(-0.0352974 0.0204335 0)
(-0.0286497 0.0349951 2.61706e-22)
(-0.019953 0.045364 0)
(0.0147435 0.0506051 5.89285e-20)
(0.0280986 0.0413597 0)
(0.0375795 0.0273186 0)
(0.040954 0.00975545 -9.19662e-21)
(0.0350636 -0.0087948 -8.14707e-21)
(0.0206219 -0.022437 0)
(0.00198777 -0.0249158 -1.42399e-20)
(-0.0138924 -0.0167927 -8.11609e-21)
(-0.0228367 -0.00398069 -2.75806e-21)
(-0.0247757 0.00966774 -9.19508e-23)
(-0.0217926 0.0217488 0)
(-0.0166361 0.0308019 -5.17638e-21)
(-0.0104147 0.100101 0)
(0.000340601 0.0977032 0)
(0.00780365 0.0951894 -2.52668e-21)
(0.0129705 0.0933566 3.44024e-20)
(0.017376 0.0925817 1.50557e-20)
(0.0226504 0.0928031 -1.86705e-20)
(0.0302537 0.0936035 6.61563e-20)
(0.041462 0.0942805 6.60343e-20)
(0.0571218 0.0933181 -8.74081e-20)
(0.079758 0.0876505 1.15995e-19)
(0.104783 0.0711161 0)
(0.152079 0.0175447 1.19539e-19)
(-0.0128862 0.0722881 3.35396e-21)
(-0.00410968 0.0742548 0)
(0.00213546 0.0748941 9.59365e-21)
(0.00667639 0.0751229 -3.84546e-20)
(0.0107789 0.0753795 -1.08039e-20)
(0.0158003 0.0756485 5.69385e-20)
(0.0229425 0.0755982 -1.13204e-19)
(0.03298 0.0745784 -6.20519e-20)
(0.046367 0.0713651 8.03271e-20)
(0.0629828 0.0627329 -5.29999e-20)
(0.0815102 0.0473173 -1.1035e-19)
(0.100517 0.00695354 -4.59602e-20)
(-0.0119917 0.0516799 -7.58906e-21)
(-0.0057871 0.0552485 9.15333e-21)
(-0.00131921 0.0573824 0)
(0.00211672 0.0589196 -2.4585e-20)
(0.00557486 0.0602041 2.9725e-20)
(0.0101813 0.061107 -7.14495e-20)
(0.0168381 0.0611076 -6.67155e-22)
(0.025751 0.0594109 2.4443e-20)
(0.0363645 0.0551186 -4.24378e-20)
(0.0476948 0.0458631 3.80603e-20)
(0.0608891 0.0309399 4.48404e-20)
(0.0712421 0.0066941 9.49398e-20)
(-0.0114669 0.036632 1.01539e-20)
(-0.00737266 0.0401644 -1.35237e-20)
(-0.00448306 0.0425091 -2.80472e-20)
(-0.00222532 0.0445079 3.46511e-20)
(0.000484695 0.0466999 -2.82018e-20)
(0.00494722 0.0492089 3.50983e-20)
(0.0120375 0.0514035 4.39435e-20)
(0.021154 0.0514495 -5.46333e-20)
(0.0302481 0.0471523 -6.13474e-20)
(0.0373838 0.0364106 -2.20886e-19)
(0.0441756 0.0212359 0)
(0.0512934 0.00259448 0)
)
;

boundaryField
{
    rotor
    {
        type            movingWallVelocity;
        value           nonuniform List<vector> 
96
(
(-0.103961 -0.0704544 2.9338e-21)
(-0.108346 -0.0635042 -2.9338e-21)
(-0.112268 -0.0562821 2.35922e-16)
(-0.115708 -0.0488189 -2.35925e-16)
(-0.118654 -0.0411467 2.35919e-16)
(-0.121091 -0.0332982 1.4669e-21)
(-0.123009 -0.0253072 -2.35924e-16)
(-0.124401 -0.0172079 2.35922e-16)
(-0.12526 -0.00903481 -2.35922e-16)
(-0.125583 -0.000823057 -2.35922e-16)
(-0.125368 0.00739222 0)
(-0.124616 0.0155758 -2.35922e-16)
(-0.12333 0.0236928 -2.35921e-16)
(-0.121517 0.0317082 4.71845e-16)
(-0.119183 0.0395879 2.35922e-16)
(-0.116338 0.0472981 -2.35922e-16)
(-0.112996 0.0548057 -2.9338e-21)
(-0.109169 0.0620786 -2.9338e-21)
(-0.104876 0.0690857 -2.35925e-16)
(-0.100133 0.075797 0)
(-0.0949609 0.0821837 2.35922e-16)
(-0.0893825 0.0882185 4.71845e-16)
(-0.0834213 0.0938755 -2.35919e-16)
(-0.077103 0.0991305 0)
(-0.0704544 0.103961 2.35925e-16)
(-0.0635042 0.108346 0)
(-0.0562821 0.112268 -2.35922e-16)
(-0.0488189 0.115708 2.35919e-16)
(-0.0411467 0.118654 0)
(-0.0332982 0.121091 0)
(-0.0253072 0.123009 -2.35921e-16)
(-0.0172079 0.124401 -7.33449e-22)
(-0.00903481 0.12526 0)
(-0.000823056 0.125583 4.58406e-23)
(0.00739222 0.125368 -3.66725e-22)
(0.0155758 0.124616 0)
(0.0236928 0.12333 0)
(0.0317082 0.121517 0)
(0.0395879 0.119183 -2.35925e-16)
(0.0472981 0.116338 -2.35922e-16)
(0.0548057 0.112996 2.35925e-16)
(0.0620786 0.109169 -4.71848e-16)
(0.0690857 0.104876 0)
(0.075797 0.100133 2.35922e-16)
(0.0821837 0.0949609 0)
(0.0882185 0.0893825 0)
(0.0938755 0.0834213 2.35919e-16)
(0.0991305 0.077103 -2.35919e-16)
(-0.108914 -0.0772263 2.35922e-16)
(-0.121728 -0.0863118 -2.35922e-16)
(-0.134541 -0.0953972 -2.35922e-16)
(-0.147355 -0.104483 -2.35922e-16)
(-0.160168 -0.113568 2.35922e-16)
(-0.172982 -0.122654 2.35922e-16)
(-0.185795 -0.131739 -2.23344e-33)
(-0.198609 -0.140824 2.35922e-16)
(-0.211422 -0.14991 -2.35922e-16)
(-0.224236 -0.158995 0)
(-0.237049 -0.168081 0)
(-0.249863 -0.177166 2.35922e-16)
(-0.0772263 0.108914 -2.35922e-16)
(-0.0863118 0.121728 3.64403e-33)
(-0.0953972 0.134541 0)
(-0.104483 0.147355 -2.35922e-16)
(-0.113568 0.160168 -2.35922e-16)
(-0.122654 0.172982 -2.35922e-16)
(-0.131739 0.185795 0)
(-0.140824 0.198609 -4.71845e-16)
(-0.14991 0.211422 -2.35922e-16)
(-0.158995 0.224236 5.40727e-33)
(-0.168081 0.237049 -2.35922e-16)
(-0.177166 0.249863 -2.35922e-16)
(-0.0772263 0.108914 -2.35922e-16)
(-0.0863118 0.121728 2.35922e-16)
(-0.0953972 0.134541 0)
(-0.104483 0.147355 -4.71845e-16)
(-0.113568 0.160168 -2.35922e-16)
(-0.122654 0.172982 -2.35922e-16)
(-0.131739 0.185795 0)
(-0.140824 0.198609 -5.87747e-34)
(-0.14991 0.211422 -5.87747e-33)
(-0.158995 0.224236 -5.64237e-33)
(-0.168081 0.237049 -4.71845e-16)
(-0.177166 0.249863 -2.35922e-16)
(0.108914 0.0772263 0)
(0.121728 0.0863118 -4.71845e-16)
(0.134541 0.0953972 -2.35922e-16)
(0.147355 0.104483 -2.35922e-16)
(0.160168 0.113568 -2.35922e-16)
(0.172982 0.122654 -2.35922e-16)
(0.185795 0.131739 -2.35099e-34)
(0.198609 0.140824 -4.71845e-16)
(0.211422 0.14991 -2.35922e-16)
(0.224236 0.158995 -2.35922e-16)
(0.237049 0.168081 -2.35922e-16)
(0.249863 0.177166 -4.71845e-16)
)
;
    }
    stator
    {
        type            movingWallVelocity;
        value           nonuniform 0();
    }
    AMI1
    {
        type            cyclicAMI;
        value           nonuniform List<vector> 
48
(
(-0.0430573 0.0123154 -1.59843e-20)
(-0.0355547 0.0253759 -2.8416e-20)
(-0.0237008 0.0344839 2.13738e-20)
(-0.00849342 0.0381358 -1.2896e-20)
(0.00766877 0.0338753 -3.73991e-21)
(0.0197298 0.0219182 -3.5294e-21)
(0.0225183 0.00577157 1.53499e-20)
(0.0161705 -0.00873926 -4.36762e-21)
(0.00545964 -0.0176719 3.71119e-23)
(-0.006082 -0.0206972 1.38052e-22)
(-0.0164702 -0.0193177 -9.47378e-23)
(-0.0244695 -0.0156906 9.41165e-23)
(-0.0298303 -0.0117302 -1.80221e-21)
(-0.0331584 -0.00849716 -1.00029e-20)
(-0.0353626 -0.00620977 2.03144e-20)
(-0.0373063 -0.00438548 -1.15368e-20)
(-0.0396225 -0.00185892 2.28888e-20)
(-0.0427359 0.00293899 3.02714e-20)
(-0.0468652 0.0112683 1.36836e-20)
(-0.0502488 0.0216118 -4.37577e-20)
(-0.0482775 0.0294433 -8.91776e-20)
(-0.0370721 0.0329502 -6.30339e-20)
(-0.0198646 0.0368884 -8.29052e-20)
(-0.0025609 0.0430473 -1.15708e-20)
(0.0123552 0.0430863 1.82895e-20)
(0.0254341 0.0355765 0)
(0.0345597 0.0237085 9.75114e-21)
(0.038206 0.00848203 7.15904e-21)
(0.0339093 -0.00768394 -1.24156e-20)
(0.0219034 -0.0196988 -6.07265e-21)
(0.00572939 -0.0223781 -3.98411e-21)
(-0.00877197 -0.0158732 1.80375e-21)
(-0.0176855 -0.00499355 -1.56426e-23)
(-0.0207009 0.00661306 -4.50315e-22)
(-0.0193631 0.0168973 5.05108e-22)
(-0.0158256 0.0247279 -4.17617e-22)
(-0.011915 0.0299487 7.37847e-21)
(-0.00864703 0.0332229 -1.30994e-20)