/*--------------------------------*- C++ -*----------------------------------*\
| =========                 |                                                 |
| \\      /  F ield         | OpenFOAM: The Open Source CFD Toolbox           |
|  \\    /   O peration     | Version:  2.3.1                                 |
|   \\  /    A nd           | Web:      www.OpenFOAM.org                      |
|    \\/     M anipulation  |                                                 |
\*---------------------------------------------------------------------------*/
FoamFile
{
    version     2.0;
    format      ascii;
    class       volVectorField;
    location    "2220";
    object      D;
}
// * * * * * * * * * * * * * * * * * * * * * * * * * * * * * * * * * * * * * //

dimensions      [0 1 0 0 0 0 0];

internalField   nonuniform List<vector> 
11800
(
(7.53825e-06 0.000216117 0)
(-9.55822e-06 0.000240688 0)
(5.3238e-06 7.31229e-05 0)
(-6.08774e-06 9.9317e-05 0)
(-8.73365e-06 0.000240282 0)
(-3.94913e-06 9.95107e-05 0)
(-1.46009e-06 0.000162403 0)
(-1.39148e-06 0.000125341 0)
(6.37277e-07 1.93844e-05 0)
(1.15014e-06 7.58318e-05 0)
(8.37165e-06 0.000215607 0)
(-7.59093e-06 8.47253e-05 0)
(-7.57033e-09 -6.02784e-09 0)
(4.73071e-06 7.26838e-05 0)
(-5.40109e-06 9.97334e-05 0)
(5.25589e-06 1.19096e-05 0)
(-8.23544e-07 0.000161932 0)
(-7.98888e-07 0.000124894 0)
(3.57407e-07 1.95984e-05 0)
(7.0613e-07 7.5458e-05 0)
(-4.64518e-06 9.91461e-05 0)
(-6.95657e-06 8.506e-05 0)
(-1.16079e-06 4.22059e-06 0)
(-1.23876e-06 4.39473e-06 0)
(4.6856e-06 1.35989e-05 0)
(-1.85371e-06 6.98946e-06 0)
(-7.46149e-06 5.06944e-05 0)
(1.07472e-05 0.000145634 0)
(-6.65917e-06 3.85057e-05 0)
(-5.77537e-06 2.77269e-05 0)
(1.1377e-05 0.000183918 0)
(4.64113e-08 3.28817e-06 0)
(2.40502e-06 8.97882e-06 0)
(-5.81788e-06 0.000246967 0)
(4.69111e-06 0.000245859 0)
(-1.29913e-05 0.000196357 0)
(4.36896e-06 0.000246704 0)
(2.36665e-06 9.23051e-06 0)
(-1.42773e-06 0.000171486 0)
(1.15221e-06 8.32342e-05 0)
(-7.33616e-06 5.12596e-05 0)
(-6.55392e-06 3.90105e-05 0)
(1.0499e-05 0.000144806 0)
(-5.69082e-06 2.81702e-05 0)
(1.11242e-05 0.000183047 0)
(5.01303e-06 1.20043e-05 0)
(1.32955e-06 4.99536e-06 0)
(1.48262e-06 4.91591e-06 0)
(-2.23418e-06 0.000171632 0)
(1.8012e-06 8.33505e-05 0)
(-1.23609e-05 0.000126994 0)
(-1.31919e-05 0.000164066 0)
(-1.22848e-06 0.000213819 0)
(6.57733e-08 3.1208e-06 0)
(-6.44881e-06 1.41764e-05 0)
(8.81124e-07 7.37228e-07 0)
(-1.62103e-05 0.000250341 0)
(-4.10224e-06 7.04125e-05 0)
(4.64988e-06 0.000102428 0)
(-2.98513e-06 6.76586e-05 0)
(1.7563e-06 2.34631e-06 0)
(-2.10239e-06 0.000213978 0)
(-3.56877e-06 7.02544e-05 0)
(4.05281e-06 0.000102616 0)
(4.38882e-06 1.33918e-05 0)
(-1.54756e-05 0.000221418 0)
(-1.28232e-05 0.000126443 0)
(-1.3732e-05 0.000163461 0)
(-1.53975e-05 0.000249938 0)
(-1.94496e-06 7.2157e-06 0)
(-5.18823e-06 0.000247658 0)
(-9.14627e-06 0.000246323 0)
(-9.41168e-06 0.000245451 0)
(-8.35579e-08 9.43693e-08 0)
(1.8755e-06 2.44677e-06 0)
(-1.22382e-05 0.000196905 0)
(5.74294e-06 1.87662e-05 0)
(-1.57265e-05 0.000222241 0)
(-1.25265e-05 0.00022411 0)
(-1.17042e-05 0.000224856 0)
(-6.14791e-06 1.39833e-05 0)
(9.15975e-07 8.64083e-05 0)
(8.59244e-06 0.000244401 0)
(7.66794e-06 0.000244552 0)
(-1.1284e-06 8.87903e-05 0)
(-5.54712e-06 3.1206e-05 0)
(1.0284e-05 0.000177275 0)
(-6.32335e-06 4.24666e-05 0)
(-7.03251e-06 5.51124e-05 0)
(9.67972e-06 0.000139337 0)
(-2.97139e-07 0.000209217 0)
(2.5573e-06 8.53662e-06 0)
(-7.78746e-06 0.000225549 0)
(1.60523e-05 0.000252249 0)
(2.53933e-06 0.000109363 0)
(-2.01709e-09 -1.53461e-09 0)
(5.20712e-11 -3.25483e-10 0)
(2.01443e-09 -1.53297e-09 0)
(-1.83731e-07 0.000216435 0)
(-7.20647e-06 8.65872e-05 0)
(1.3814e-05 0.000251351 0)
(8.37391e-06 9.50778e-05 0)
(-3.10582e-06 1.24568e-05 0)
(-7.04145e-07 9.62491e-06 0)
(-4.66524e-07 0.000239209 0)
(8.44334e-07 2.02731e-05 0)
(-1.78224e-06 0.000123519 0)
(-1.85012e-06 0.000160386 0)
(2.72251e-06 4.66862e-06 0)
(6.35553e-06 4.24475e-05 0)
(5.57708e-06 3.11888e-05 0)
(7.06764e-06 5.50907e-05 0)
(-1.04576e-05 0.000177297 0)
(-9.84591e-06 0.000139367 0)
(1.48934e-06 7.4297e-05 0)
(2.1543e-06 4.25848e-06 0)
(1.53099e-05 0.000222319 0)
(-6.28541e-06 0.000228177 0)
(2.19411e-06 4.10348e-06 0)
(-1.06542e-06 7.67689e-05 0)
(-6.43161e-07 1.88751e-05 0)
(1.38675e-06 0.000163589 0)
(1.31726e-06 0.000126405 0)
(-1.95063e-06 0.000156918 0)
(-7.83815e-06 0.000226395 0)
(-7.01554e-07 0.000215762 0)
(-5.04119e-06 0.000239304 0)
(-1.18529e-06 0.000238656 0)
(-1.7396e-05 0.000258599 0)
(-1.80173e-05 0.000257975 0)
(-5.18078e-07 2.33852e-07 0)
(-2.33673e-06 5.51688e-06 0)
(1.05513e-05 0.000172037 0)
(-5.95095e-06 3.4103e-05 0)
(9.89557e-06 0.000134415 0)
(-6.73332e-06 4.57485e-05 0)
(-7.44771e-06 5.87466e-05 0)
(9.73425e-06 0.000172193 0)
(-5.48471e-06 3.4002e-05 0)
(9.13023e-06 0.000134559 0)
(-6.20737e-06 4.56369e-05 0)
(-6.86728e-06 5.86252e-05 0)
(-1.45651e-06 1.74885e-05 0)
(3.40908e-06 0.000166704 0)
(3.18347e-06 0.000129409 0)
(-2.73635e-06 7.92565e-05 0)
(1.31892e-05 8.69421e-05 0)
(-1.31373e-05 8.50584e-05 0)
(8.23648e-06 9.57627e-05 0)
(-9.84813e-07 1.02113e-05 0)
(-8.66628e-06 0.000208257 0)
(-8.59152e-06 0.000209354 0)
(4.20478e-06 0.000243986 0)
(-9.68991e-06 0.000196629 0)
(3.86631e-06 0.000139268 0)
(4.19199e-06 0.000177183 0)
(-1.0797e-05 0.000156243 0)
(-1.00289e-05 0.000119662 0)
(5.13242e-06 2.23315e-05 0)
(-8.09901e-07 0.000209997 0)
(2.96004e-06 4.7511e-06 0)
(-8.85704e-06 0.000196822 0)
(6.0112e-06 1.90361e-05 0)
(-3.98845e-06 5.73478e-05 0)
(-3.59817e-06 4.44751e-05 0)
(-3.17098e-06 3.29668e-05 0)
(5.38037e-06 0.000136149 0)
(5.73034e-06 0.000173894 0)
(-2.62119e-06 3.26746e-06 0)
(-4.72101e-06 2.14878e-05 0)
(1.00437e-05 0.000157963 0)
(9.32195e-06 0.000121277 0)
(2.22963e-06 0.00016021 0)
(-1.47975e-05 0.000195449 0)
(-1.49466e-05 0.000196614 0)
(5.39639e-06 1.36221e-05 0)
(5.40262e-06 1.3996e-05 0)
(5.88221e-06 4.12276e-05 0)
(6.55557e-06 5.37361e-05 0)
(5.14655e-06 3.01134e-05 0)
(-9.26056e-06 0.000141232 0)
(-9.82421e-06 0.000179292 0)
(3.93343e-06 0.000138402 0)
(4.21537e-06 0.000176292 0)
(4.29471e-06 8.47215e-05 0)
(-2.07492e-06 7.9079e-05 0)
(-1.10952e-06 1.75783e-05 0)
(2.57596e-06 0.000166482 0)
(2.4044e-06 0.000129202 0)
(-3.39006e-06 0.000205426 0)
(-1.16363e-06 3.65107e-05 0)
(-1.3099e-06 4.84749e-05 0)
(-1.27372e-05 0.000219723 0)
(-3.60754e-07 8.38699e-06 0)
(-1.23304e-05 0.000104072 0)
(1.06483e-05 6.92107e-05 0)
(1.26481e-07 1.22489e-07 0)
(-7.63137e-06 0.000247359 0)
(1.52031e-05 0.000223209 0)
(-4.51742e-07 2.71943e-07 0)
(1.00077e-05 0.000233893 0)
(1.25064e-05 0.000200059 0)
(1.34148e-05 0.000200222 0)
(-4.11838e-07 0.000240416 0)
(-1.03861e-06 0.000241182 0)
(7.11713e-06 6.75505e-05 0)
(6.28476e-06 6.78474e-05 0)
(-8.41526e-06 0.00010583 0)
(-7.41638e-06 0.000105461 0)
(5.0974e-07 2.29984e-07 0)
(-1.423e-06 1.22406e-05 0)
(-1.60537e-06 6.84093e-06 0)
(-3.77936e-08 1.42362e-08 0)
(4.87121e-06 8.09764e-06 0)
(-1.17583e-07 3.73889e-08 0)
(6.29231e-07 6.71956e-06 0)
(-8.65324e-06 0.000239157 0)
(-4.24298e-06 3.04625e-05 0)
(-4.83395e-06 4.16366e-05 0)
(-5.38415e-06 5.41952e-05 0)
(7.9243e-06 0.000178582 0)
(7.48645e-06 0.000140579 0)
(4.96142e-07 0.000166176 0)
(4.60845e-07 0.000128913 0)
(-2.3299e-07 1.77033e-05 0)
(-4.39009e-07 7.88454e-05 0)
(-1.72606e-07 2.86253e-08 0)
(6.53034e-07 2.21063e-05 0)
(-1.32161e-06 0.000119886 0)
(-3.94631e-06 7.61769e-05 0)
(9.14291e-07 2.17836e-05 0)
(-1.85283e-06 0.000120515 0)
(-5.92054e-06 0.000226364 0)
(7.32669e-06 8.53365e-05 0)
(6.82526e-06 8.46867e-05 0)
(3.75577e-08 1.41384e-08 0)
(1.72017e-07 2.84989e-08 0)
(-1.14616e-05 0.000210769 0)
(-1.1027e-05 0.000211658 0)
(-1.08891e-05 7.23663e-05 0)
(1.2193e-05 0.000100392 0)
(9.72518e-06 0.000179216 0)
(9.16383e-06 0.000141165 0)
(-5.15786e-06 3.01577e-05 0)
(-5.89805e-06 4.12749e-05 0)
(-6.57352e-06 5.37889e-05 0)
(-3.71057e-07 0.000214904 0)
(-4.36415e-06 2.05631e-05 0)
(9.49359e-06 0.000159925 0)
(8.82454e-06 0.000123098 0)
(5.84807e-06 8.62207e-05 0)
(4.9058e-06 0.000202728 0)
(7.71522e-06 0.000252551 0)
(8.06412e-07 6.62259e-06 0)
(-2.89944e-06 6.83474e-05 0)
(-9.95641e-09 2.45917e-06 0)
(1.17031e-07 3.71909e-08 0)
(2.76376e-06 7.20851e-05 0)
(2.37653e-06 7.13389e-05 0)
(-3.022e-06 0.000100576 0)
(-2.59138e-06 0.000101313 0)
(5.35451e-06 5.41785e-05 0)
(4.80796e-06 4.16217e-05 0)
(4.21106e-06 3.04547e-05 0)
(-7.53944e-06 0.00014058 0)
(-8.00198e-06 0.000178605 0)
(-4.24753e-06 0.000247433 0)
(1.4799e-06 1.81701e-06 0)
(-1.59189e-08 0.00014275 0)
(-2.23323e-08 2.91713e-05 0)
(5.60465e-06 0.000238788 0)
(4.59179e-06 8.41134e-05 0)
(-1.78373e-05 0.00023597 0)
(5.27799e-06 8.68378e-05 0)
(2.11639e-07 1.56303e-07 0)
(1.4643e-05 0.000193046 0)
(1.47277e-05 0.000191968 0)
(-8.99763e-06 0.000123254 0)
(-9.67848e-06 0.000160086 0)
(-8.04008e-06 0.000122946 0)
(-8.65066e-06 0.000159757 0)
(4.38772e-06 2.04875e-05 0)
(3.93293e-06 2.06224e-05 0)
(4.35736e-06 0.000113292 0)
(5.18612e-06 0.000113162 0)
(4.7201e-06 0.000149352 0)
(5.62002e-06 0.000149209 0)
(-2.45243e-06 2.56768e-05 0)
(-2.91957e-06 2.57597e-05 0)
(-5.20273e-07 1.16044e-05 0)
(2.60326e-06 7.41815e-06 0)
(2.43723e-06 7.16282e-06 0)
(2.49106e-06 5.42807e-06 0)
(4.19208e-06 0.000203594 0)
(-1.456e-05 0.000193401 0)
(-1.46379e-05 0.000192281 0)
(5.57066e-06 1.52053e-05 0)
(5.46187e-06 1.47742e-05 0)
(1.15702e-05 8.69613e-05 0)
(1.17253e-05 8.79287e-05 0)
(-1.15193e-05 8.49919e-05 0)
(-1.15809e-05 8.40401e-05 0)
(5.1915e-06 0.000243823 0)
(-1.42897e-05 0.00024699 0)
(-1.37353e-05 0.00020808 0)
(3.30352e-06 3.75236e-06 0)
(-8.40006e-06 0.000243903 0)
(-7.50271e-06 0.00024307 0)
(3.54189e-06 0.000114578 0)
(-2.22192e-06 0.000103055 0)
(1.9549e-06 6.98783e-05 0)
(-9.87978e-06 8.7284e-05 0)
(9.65124e-06 8.45876e-05 0)
(-4.74743e-06 1.49444e-05 0)
(-1.40811e-07 8.98368e-08 0)
(7.50818e-07 3.09104e-06 0)
(8.70948e-07 7.45307e-05 0)
(-8.32917e-06 7.50543e-05 0)
(8.91769e-06 9.71959e-05 0)
(-4.80525e-06 6.83746e-05 0)
(5.66334e-06 0.000104845 0)
(2.85159e-06 0.000181992 0)
(3.94104e-06 0.000181603 0)
(-1.71806e-06 3.9546e-05 0)
(-2.36781e-06 3.97828e-05 0)
(-1.92148e-06 5.18729e-05 0)
(-2.64681e-06 5.21363e-05 0)
(4.5101e-07 2.01353e-05 0)
(-9.80889e-07 0.000123794 0)
(-9.92251e-07 0.000160697 0)
(-1.59711e-06 0.000234833 0)
(2.2779e-06 5.3937e-06 0)
(-4.609e-07 0.00010043 0)
(-6.793e-06 0.0002407 0)
(9.49595e-07 7.64658e-07 0)
(6.04743e-06 0.000143429 0)
(-3.33493e-06 2.88524e-05 0)
(-1.02858e-05 0.000101486 0)
(-9.66158e-06 0.000100983 0)
(8.9908e-06 7.13543e-05 0)
(8.47384e-06 7.17847e-05 0)
(-1.01658e-05 0.000250966 0)
(-1.02776e-05 0.000249893 0)
(-1.70875e-06 1.16766e-05 0)
(-2.02536e-06 1.16326e-05 0)
(8.22085e-07 3.23911e-06 0)
(-1.95577e-06 3.36087e-06 0)
(4.64262e-07 0.00010535 0)
(2.97417e-06 2.08589e-05 0)
(2.49965e-06 2.09912e-05 0)
(-6.05325e-06 0.000122411 0)
(-5.07775e-06 0.000122124 0)
(-6.51446e-06 0.000159191 0)
(-5.46559e-06 0.000158883 0)
(-1.31802e-05 0.000201405 0)
(-1.21978e-05 0.000201485 0)
(-2.91741e-06 6.12236e-05 0)
(-2.70189e-06 4.79704e-05 0)
(-2.39848e-06 3.60632e-05 0)
(4.14712e-06 0.000187993 0)
(-7.30387e-07 0.000212826 0)
(8.68191e-06 8.45069e-05 0)
(8.21901e-06 8.52365e-05 0)
(3.82616e-06 0.000162749 0)
(3.66268e-06 0.000125674 0)
(-1.76191e-06 1.92364e-05 0)
(1.64312e-06 2.15268e-05 0)
(1.35039e-06 2.1944e-05 0)
(-3.00116e-06 0.000156887 0)
(-3.56751e-06 0.000157692 0)
(-3.30931e-06 0.000121034 0)
(-2.7e-06 0.000120211 0)
(-3.49746e-06 1.9742e-05 0)
(7.22158e-06 0.000124713 0)
(7.75912e-06 0.000161664 0)
(-9.65808e-08 9.19122e-07 0)
(1.29029e-05 9.63498e-05 0)
(-1.1902e-05 7.60522e-05 0)
(-5.46456e-08 8.55273e-07 0)
(-3.89924e-06 0.00017918 0)
(-4.57014e-06 0.000180161 0)
(-3.58122e-06 0.0001412 0)
(-4.19104e-06 0.00014213 0)
(2.28904e-06 2.95525e-05 0)
(1.97019e-06 3.00688e-05 0)
(2.69858e-06 4.06492e-05 0)
(2.31418e-06 4.12369e-05 0)
(3.01072e-06 5.31016e-05 0)
(2.57893e-06 5.37565e-05 0)
(1.44994e-05 0.000201792 0)
(1.47697e-05 0.000202814 0)
(-1.39414e-06 6.89671e-06 0)
(5.43632e-06 0.000144139 0)
(-2.97881e-06 2.8456e-05 0)
(4.82668e-06 2.25228e-05 0)
(-9.38918e-06 0.000119268 0)
(-1.01323e-05 0.000155795 0)
(-1.37093e-07 4.16375e-08 0)
(1.86869e-06 0.000210272 0)
(4.76754e-06 2.14917e-05 0)
(-9.51899e-06 0.000121272 0)
(-1.02649e-05 0.000157924 0)
(3.64565e-06 6.29942e-06 0)
(-7.18245e-06 0.00022785 0)
(4.58182e-06 1.71694e-05 0)
(-1.13314e-05 0.000187186 0)
(-2.46454e-06 9.25263e-06 0)
(-2.62878e-06 9.59093e-06 0)
(2.57103e-06 9.49084e-06 0)
(-1.24048e-06 0.000100275 0)
(-9.66862e-09 -7.1162e-09 0)
(-7.62595e-06 0.000249595 0)
(-1.22902e-07 4.89259e-08 0)
(1.36389e-07 4.13954e-08 0)
(-3.5893e-06 2.0822e-05 0)
(7.74397e-06 0.000159308 0)
(7.19453e-06 0.000122521 0)
(5.95831e-06 0.000210602 0)
(-1.71746e-05 0.000225905 0)
(2.19371e-06 9.38909e-05 0)
(-1.43377e-06 9.14487e-05 0)
(-3.99272e-07 9.68065e-06 0)
(-1.11847e-06 1.1774e-06 0)
(-6.97929e-09 -6.28525e-09 0)
(-4.3114e-06 6.90098e-05 0)
(5.07585e-06 0.000104115 0)
(3.8053e-07 1.33282e-07 0)
(-5.85096e-07 9.01089e-05 0)
(-5.52758e-07 8.92427e-05 0)
(-2.703e-08 7.5713e-05 0)
(-1.09506e-07 1.94807e-05 0)
(1.7712e-07 0.000125136 0)
(1.57155e-07 0.000162251 0)
(-3.82927e-07 1.34228e-07 0)
(1.55325e-06 1.04683e-05 0)
(-5.93754e-06 0.000184148 0)
(3.41311e-06 3.82981e-05 0)
(3.8255e-06 5.04747e-05 0)
(4.19893e-06 6.3959e-05 0)
(1.24316e-05 0.000239605 0)
(-4.65284e-06 1.86354e-05 0)
(1.06628e-05 0.000164263 0)
(9.94399e-06 0.000127142 0)
(-7.07231e-06 0.000221071 0)
(1.05022e-06 2.70326e-06 0)
(9.49901e-06 0.000216978 0)
(-2.0883e-06 3.31025e-06 0)
(6.65125e-06 0.000240555 0)
(-5.12036e-06 0.000184168 0)
(2.9372e-06 3.82817e-05 0)
(3.29221e-06 5.04575e-05 0)
(3.61593e-06 6.39366e-05 0)
(9.17302e-07 2.5623e-06 0)
(4.38254e-06 0.000147775 0)
(-2.31763e-06 2.64964e-05 0)
(-7.91185e-07 1.04252e-05 0)
(-1.25051e-05 0.000217747 0)
(-4.68604e-06 5.75591e-05 0)
(-4.22886e-06 4.46673e-05 0)
(-3.72838e-06 3.31381e-05 0)
(6.28238e-06 0.000135927 0)
(6.69173e-06 0.000173657 0)
(1.71399e-05 0.000253901 0)
(9.97162e-06 0.000222901 0)
(1.10572e-05 0.000222519 0)
(1.43033e-07 1.00713e-07 0)
(6.22965e-06 6.86259e-05 0)
(-7.29949e-06 0.000104538 0)
(-3.18878e-06 6.9601e-05 0)
(3.69091e-06 0.000103454 0)
(-1.08062e-06 0.000111393 0)
(-8.23143e-07 0.000180345 0)
(5.08894e-07 5.29652e-05 0)
(4.56298e-07 4.05247e-05 0)
(2.02332e-08 2.85727e-05 0)
(-1.89806e-07 0.000108264 0)
(-9.26839e-08 0.000143876 0)
(7.83649e-06 0.000253559 0)
(4.49201e-07 1.07365e-05 0)
(-1.99058e-07 2.49529e-06 0)
(1.49215e-06 0.000152701 0)
(7.56791e-08 2.58034e-06 0)
(-1.18566e-06 8.02847e-06 0)
(2.93524e-06 2.85032e-05 0)
(-5.50172e-06 0.000144046 0)
(-1.12017e-07 1.24629e-07 0)
(-1.15836e-05 0.000217645 0)
(-9.83529e-07 1.91101e-05 0)
(2.04251e-06 0.000163113 0)
(2.02793e-06 0.000125917 0)
(2.67659e-07 6.40696e-08 0)
(-3.50088e-06 6.40366e-06 0)
(3.80818e-06 5.17182e-05 0)
(3.40524e-06 3.94104e-05 0)
(-5.83941e-06 0.000182254 0)
(1.12072e-06 7.17334e-05 0)
(-7.84179e-06 0.000246391 0)
(-1.34638e-07 1.8822e-08 0)
(-4.57493e-06 1.00005e-05 0)
(2.96626e-06 5.51867e-06 0)
(-2.9996e-06 3.30774e-06 0)
(8.73961e-06 8.6046e-05 0)
(6.63338e-06 0.000104558 0)
(-5.73389e-06 6.86026e-05 0)
(4.06256e-07 2.82824e-05 0)
(-9.62268e-07 0.000108673 0)
(-8.0702e-07 0.000144409 0)
(8.30728e-06 0.000214521 0)
(7.76022e-06 9.4198e-05 0)
(4.01879e-06 0.00024829 0)
(3.87102e-06 0.000249214 0)
(1.11732e-06 0.000104073 0)
(1.53444e-06 7.1199e-05 0)
(1.34169e-07 1.87354e-08 0)
(-1.11955e-05 0.000194587 0)
(4.12447e-06 1.42584e-05 0)
(1.41913e-08 1.99729e-07 0)
(2.13005e-06 0.0001392 0)
(2.78753e-06 0.00013968 0)
(3.90133e-09 1.74627e-08 0)
(-2.18083e-06 5.34095e-06 0)
(5.33483e-06 5.25788e-05 0)
(4.77749e-06 4.01853e-05 0)
(4.17135e-06 2.91506e-05 0)
(-7.6353e-06 0.00014276 0)
(-8.09192e-06 0.00018099 0)
(7.05648e-06 8.96775e-05 0)
(1.01481e-06 0.000210497 0)
(-4.56984e-06 0.000237271 0)
(-4.32745e-06 0.000238519 0)
(-4.53775e-07 0.000183253 0)
(-3.91202e-07 0.000184256 0)
(3.05684e-07 3.81963e-05 0)
(2.77927e-07 3.87583e-05 0)
(3.42295e-07 5.03651e-05 0)
(3.10821e-07 5.09939e-05 0)
(2.20157e-07 6.38372e-05 0)
(2.65376e-07 6.45081e-05 0)
(5.43904e-07 0.000104419 0)
(1.00858e-06 0.000106085 0)
(1.7578e-06 0.000161226 0)
(-4.63055e-07 0.000111122 0)
(-2.68641e-07 6.43636e-08 0)
(-3.00178e-07 2.38007e-06 0)
(3.85874e-06 0.000146995 0)
(-2.06077e-06 2.69051e-05 0)
(1.04412e-06 3.30058e-06 0)
(1.50928e-05 0.000240779 0)
(-1.16544e-06 0.000185056 0)
(7.13356e-07 3.77688e-05 0)
(8.00047e-07 4.98862e-05 0)
(7.8579e-07 6.32826e-05 0)
(-1.15592e-05 0.000202442 0)
(3.989e-06 7.2888e-05 0)
(5.87741e-06 0.000255524 0)
(6.64847e-06 0.000254957 0)
(-1.1784e-06 8.27732e-06 0)
(-7.47679e-07 0.000142006 0)
(3.82905e-07 2.95854e-05 0)
(1.75641e-07 1.81089e-07 0)
(1.48096e-05 0.000247548 0)
(-2.09432e-07 4.19706e-06 0)
(-2.8232e-06 4.28327e-05 0)
(-3.1382e-06 5.55291e-05 0)
(-3.75288e-06 5.61086e-05 0)
(-3.37933e-06 4.33561e-05 0)
(-2.45024e-06 3.15046e-05 0)
(-2.9622e-06 3.19786e-05 0)
(4.89561e-06 0.000137839 0)
(5.21059e-06 0.000175699 0)
(2.1784e-06 2.99513e-06 0)
(-1.4089e-07 8.60072e-08 0)
(-1.28083e-05 0.000167706 0)
(-1.33406e-05 0.000247046 0)
(4.34719e-06 0.000106002 0)
(-3.83547e-07 4.29444e-06 0)
(-6.94029e-06 0.00013759 0)
(-7.38039e-06 0.000175426 0)
(3.98931e-06 3.21714e-05 0)
(4.53407e-06 4.3571e-05 0)
(5.03238e-06 5.63437e-05 0)
(6.40386e-06 0.000211299 0)
(1.45622e-05 0.000248425 0)
(-7.89047e-06 8.68146e-05 0)
(3.26945e-06 2.88445e-05 0)
(-6.09944e-06 0.000143423 0)
(4.15886e-06 0.000106822 0)
(-1.59861e-06 7.63008e-05 0)
(4.21823e-06 5.21561e-05 0)
(3.7748e-06 3.98036e-05 0)
(-6.43522e-06 0.000181601 0)
(-1.17244e-05 8.78048e-05 0)
(1.1416e-05 8.42116e-05 0)
(1.14147e-05 8.51445e-05 0)
(-1.15715e-05 8.68142e-05 0)
(-5.48502e-06 1.47666e-05 0)
(-5.64468e-06 1.52238e-05 0)
(-5.44578e-06 8.51331e-05 0)
(-2.82634e-06 3.38693e-06 0)
(-8.80296e-06 8.57814e-05 0)
(-1.29387e-06 0.00020361 0)
(-1.15799e-06 1.3972e-06 0)
(8.86171e-06 5.02107e-05 0)
(7.90353e-06 3.80794e-05 0)
(-1.24347e-05 0.000128094 0)
(2.01009e-06 5.21886e-05 0)
(1.79907e-06 3.98291e-05 0)
(-3.09607e-06 0.000181519 0)
(4.18996e-06 1.27453e-05 0)
(6.86208e-06 0.000103717 0)
(-5.97098e-06 6.93346e-05 0)
(-3.33458e-06 3.77026e-06 0)
(3.51055e-06 0.000161867 0)
(3.35831e-06 0.000124885 0)
(-1.63503e-06 1.96142e-05 0)
(1.0205e-05 0.0001529 0)
(-5.07573e-06 2.39486e-05 0)
(9.43379e-06 0.000116587 0)
(-5.80269e-06 1.45712e-05 0)
(7.18246e-06 0.000237746 0)
(8.23971e-06 0.0002374 0)
(7.93929e-06 0.000180996 0)
(7.52981e-06 0.000142775 0)
(-4.17351e-06 2.92335e-05 0)
(-4.7578e-06 4.01811e-05 0)
(-5.3137e-06 5.25744e-05 0)
(-1.22017e-06 1.21151e-06 0)
(-6.33055e-06 0.000220846 0)
(6.89108e-06 0.000141201 0)
(-3.87905e-06 3.01055e-05 0)
(-7.41761e-07 9.31679e-07 0)
(5.88056e-06 0.000240399 0)
(1.47186e-06 1.21852e-06 0)
(1.22129e-06 9.24311e-07 0)
(3.08274e-06 4.42073e-06 0)
(7.11354e-06 0.000193418 0)
(-1.20794e-05 0.000198716 0)
(1.60504e-05 0.000241085 0)
(3.1214e-06 4.64621e-06 0)
(7.06529e-06 9.41696e-05 0)
(9.65781e-06 0.000205023 0)
(-1.55513e-05 0.000193916 0)
(5.79965e-06 1.46025e-05 0)
(-3.5808e-06 0.000206305 0)
(1.45374e-06 5.23497e-05 0)
(1.30158e-06 3.99731e-05 0)
(-2.25218e-06 0.000181272 0)
(-5.5159e-07 2.66515e-06 0)
(4.1188e-06 0.000111804 0)
(1.21526e-07 4.83616e-08 0)
(-4.83691e-06 9.90422e-06 0)
(-8.53349e-07 9.20134e-05 0)
(-2.16057e-06 1.79288e-05 0)
(-2.51365e-06 1.80464e-05 0)
(4.68233e-06 0.000128478 0)
(5.43771e-06 0.000128241 0)
(5.8267e-06 0.00016545 0)
(5.01669e-06 0.000165705 0)
(1.42609e-07 5.39685e-07 0)
(-3.94678e-08 6.68971e-06 0)
(-8.45358e-06 0.00011551 0)
(-9.15262e-06 0.000151738 0)
(4.55631e-06 2.45114e-05 0)
(-2.69695e-06 1.46323e-05 0)
(-1.59287e-06 0.000155993 0)
(-2.45178e-06 6.29211e-06 0)
(4.91651e-06 0.000238125 0)
(-4.00208e-06 7.84504e-05 0)
(-4.63541e-06 7.82541e-05 0)
(1.40119e-07 1.43361e-07 0)
(-2.65479e-06 8.11191e-05 0)
(-1.36096e-06 1.65011e-05 0)
(3.06695e-06 0.000131607 0)
(3.27862e-06 0.000169053 0)
(-3.70702e-06 0.000156018 0)
(-3.26753e-06 0.000119413 0)
(1.65626e-06 2.23601e-05 0)
(2.21888e-06 8.43359e-06 0)
(2.06099e-06 8.12859e-06 0)
(1.05146e-06 7.8223e-05 0)
(-1.3881e-06 0.00016539 0)
(-1.30302e-06 0.000128162 0)
(5.72696e-07 1.80505e-05 0)
(-1.28355e-06 3.10084e-05 0)
(-2.30875e-06 6.46713e-06 0)
(9.1705e-06 0.0002437 0)
(-8.97997e-06 0.000146107 0)
(6.93093e-06 6.90622e-05 0)
(-8.08349e-06 0.000104048 0)
(9.77605e-06 0.000205944 0)
(-9.05975e-06 6.35123e-05 0)
(-8.26458e-06 5.00633e-05 0)
(1.10113e-05 0.000110713 0)
(-7.36763e-06 3.79456e-05 0)
(-6.3892e-06 2.72566e-05 0)
(1.20068e-05 0.000146561 0)
(1.26848e-05 0.000184943 0)
(-3.30979e-06 0.000177013 0)
(-3.11718e-06 0.000139079 0)
(1.98971e-06 4.25576e-05 0)
(1.74731e-06 3.12735e-05 0)
(2.21199e-06 5.52249e-05 0)
(1.90223e-06 4.31661e-05 0)
(-3.14426e-06 0.000176026 0)
(2.11243e-06 5.59003e-05 0)
(1.67292e-06 3.18089e-05 0)
(-2.95948e-06 0.00013815 0)
(-1.75408e-06 0.000224303 0)
(-3.6018e-06 4.74164e-06 0)
(-3.88222e-06 2.21494e-05 0)
(8.11563e-06 0.000156506 0)
(7.5237e-06 0.000119921 0)
(-2.43802e-06 2.97862e-05 0)
(4.36659e-06 0.000141739 0)
(1.20419e-05 0.000175404 0)
(1.13202e-05 0.00013758 0)
(-6.59801e-06 3.22555e-05 0)
(-7.49991e-06 4.36528e-05 0)
(-8.32378e-06 5.64237e-05 0)
(1.26867e-05 0.000191363 0)
(1.38481e-05 0.000191121 0)
(3.14307e-07 5.71187e-06 0)
(-1.296e-06 9.05168e-05 0)
(-3.47898e-06 9.65652e-06 0)
(1.78679e-07 3.36639e-07 0)
(-3.4215e-06 1.22536e-05 0)
(-5.5159e-07 0.000204015 0)
(1.40273e-07 5.46717e-06 0)
(-2.80655e-06 9.69597e-05 0)
(1.15148e-05 0.00012817 0)
(-5.30942e-06 1.81968e-05 0)
(1.2337e-05 0.00016536 0)
(-1.18488e-08 -8.21234e-09 0)
(7.57514e-07 0.000152846 0)
(2.24951e-07 9.47104e-08 0)
(1.53476e-07 1.13843e-07 0)
(2.03673e-06 0.000110021 0)
(-2.57235e-07 2.09398e-07 0)
(9.3723e-06 0.000245517 0)
(6.89735e-07 0.00013964 0)
(-3.84953e-07 3.09147e-05 0)
(2.07787e-06 1.24723e-05 0)
(1.28148e-06 0.000139208 0)
(-7.41219e-07 3.11396e-05 0)
(-1.27568e-07 2.77531e-06 0)
(-8.87415e-06 5.01859e-05 0)
(-7.9129e-06 3.80578e-05 0)
(-6.86311e-06 2.7362e-05 0)
(-5.71993e-06 1.82406e-05 0)
(1.23961e-05 0.000128122 0)
(1.2878e-05 0.000146401 0)
(1.32815e-05 0.000165305 0)
(1.36102e-05 0.000184776 0)
(-6.04306e-06 0.0001993 0)
(-5.37154e-06 0.000236812 0)
(-1.73302e-05 0.000195675 0)
(6.32845e-06 1.39864e-05 0)
(3.93977e-06 0.000251014 0)
(4.58492e-06 0.000249935 0)
(1.21901e-06 0.000136141 0)
(1.32177e-06 0.000173907 0)
(-9.63889e-07 5.74146e-05 0)
(-8.69309e-07 4.45321e-05 0)
(-7.65732e-07 3.30134e-05 0)
(-5.03668e-06 1.46098e-05 0)
(1.83124e-06 1.0489e-05 0)
(-6.76162e-06 6.01344e-05 0)
(8.87076e-06 0.000132525 0)
(-6.12484e-06 4.70038e-05 0)
(-5.42732e-06 3.52132e-05 0)
(9.47248e-06 0.000170024 0)
(-3.82603e-06 1.61851e-05 0)
(9.59035e-06 0.00018965 0)
(1.61079e-06 8.67171e-05 0)
(-1.02096e-06 0.000211758 0)
(1.01434e-06 5.07418e-07 0)
(-7.50257e-07 0.000186031 0)
(4.70611e-07 3.72087e-05 0)
(5.282e-07 4.92586e-05 0)
(4.88076e-07 6.25919e-05 0)
(2.99184e-06 0.000219358 0)
(-4.20504e-07 2.67812e-07 0)
(1.52225e-05 0.000215857 0)
(-2.30711e-06 9.18823e-05 0)
(-7.10968e-08 1.53957e-07 0)
(5.44465e-06 0.000130473 0)
(-2.43882e-06 1.70276e-05 0)
(5.82394e-06 0.000167839 0)
(1.22455e-07 9.60613e-08 0)
(-3.27026e-06 2.05294e-05 0)
(6.60211e-06 0.00012309 0)
(7.10309e-06 0.000159921 0)
(1.141e-06 1.50616e-06 0)
(-4.66744e-06 8.01738e-05 0)
(9.73536e-07 8.5695e-05 0)
(-1.05636e-05 0.000230649 0)
(9.61187e-07 0.000136879 0)
(1.02454e-06 0.000174675 0)
(-8.15547e-07 5.68645e-05 0)
(-6.45143e-07 3.25769e-05 0)
(-7.34832e-07 4.40351e-05 0)
(1.5597e-06 8.7355e-05 0)
(-2.25442e-07 8.61262e-07 0)
(-2.00301e-07 2.92037e-06 0)
(4.49635e-07 0.000203683 0)
(1.04057e-05 9.38925e-05 0)
(-9.79633e-06 7.82599e-05 0)
(-7.41847e-06 0.000258016 0)
(-1.68262e-05 0.00016886 0)
(-1.5748e-05 0.000131455 0)
(-1.63344e-05 0.000149847 0)
(-1.50644e-05 0.000113788 0)
(8.33953e-06 2.56398e-05 0)
(9.67163e-06 3.60516e-05 0)
(1.08909e-05 4.79215e-05 0)
(1.20038e-05 6.11234e-05 0)
(1.6769e-05 0.000168858 0)
(1.62779e-05 0.000149847 0)
(-8.36795e-06 2.56415e-05 0)
(-9.70534e-06 3.60539e-05 0)
(1.56921e-05 0.000131454 0)
(-1.09303e-05 4.79232e-05 0)
(1.50117e-05 0.000113787 0)
(-1.20477e-05 6.11254e-05 0)
(-4.84842e-06 1.4203e-05 0)
(-2.61936e-06 0.000211309 0)
(-1.87192e-06 0.000211108 0)
(-2.32572e-06 0.000239225 0)
(3.82582e-06 0.000145191 0)
(-2.08255e-06 2.78715e-05 0)
(-7.53724e-07 1.11799e-06 0)
(-3.00565e-06 0.000252793 0)
(-3.31326e-06 5.47996e-05 0)
(-4.05681e-06 5.45943e-05 0)
(-2.97733e-06 4.2176e-05 0)
(-3.64441e-06 4.19926e-05 0)
(4.84716e-06 0.000177951 0)
(5.82469e-06 0.000178034 0)
(1.28184e-05 0.00017495 0)
(1.20465e-05 0.000137156 0)
(-7.0501e-06 3.25198e-05 0)
(-8.00815e-06 4.39497e-05 0)
(-8.88326e-06 5.67505e-05 0)
(-7.79177e-06 0.000115915 0)
(-8.43305e-06 0.000152178 0)
(4.17532e-06 2.42784e-05 0)
(-2.45924e-06 0.000103874 0)
(2.07037e-06 6.91775e-05 0)
(2.51854e-06 0.000182967 0)
(-1.50316e-06 3.89079e-05 0)
(-1.68336e-06 5.11604e-05 0)
(-1.82095e-06 6.45775e-05 0)
(4.80706e-06 6.83573e-05 0)
(4.07149e-06 6.85313e-05 0)
(-5.65792e-06 0.00010482 0)
(-4.7928e-06 0.000104606 0)
(-5.68554e-06 0.000250906 0)
(3.88973e-07 1.07351e-06 0)
(9.4181e-06 0.000216092 0)
(3.40137e-06 7.58861e-05 0)
(9.23882e-06 0.000149691 0)
(-4.75937e-06 2.55588e-05 0)
(8.51785e-06 0.00011362 0)
(-7.95822e-06 9.09033e-05 0)
(1.94221e-06 1.93711e-05 0)
(-4.43598e-06 0.000162405 0)
(-4.13358e-06 0.0001254 0)
(5.40773e-07 7.89416e-05 0)
(-6.9847e-07 0.000129013 0)
(-7.4151e-07 0.000166297 0)
(2.9177e-07 1.76571e-05 0)
(5.3512e-06 7.15315e-05 0)
(-6.11749e-06 0.000101161 0)
(-2.92972e-06 0.0002243 0)
(-1.35142e-05 0.000222162 0)
(2.40739e-06 9.65248e-05 0)
(6.06424e-06 9.68263e-05 0)
(-4.98169e-06 1.88273e-05 0)
(1.13619e-05 0.000163858 0)
(1.05929e-05 0.000126766 0)
(-5.56949e-07 2.37035e-06 0)
(-1.84066e-06 0.000187318 0)
(1.01761e-06 3.6465e-05 0)
(1.14457e-06 4.84238e-05 0)
(1.25115e-06 6.16825e-05 0)
(-2.81218e-06 9.14356e-05 0)
(-1.25278e-05 0.000222237 0)
(-3.64464e-06 3.65089e-05 0)
(-4.10135e-06 4.84681e-05 0)
(-4.50273e-06 6.17555e-05 0)
(6.36508e-06 0.000187253 0)
(1.18717e-08 1.56326e-08 0)
(7.85722e-06 9.01787e-05 0)
(9.90565e-08 7.12986e-06 0)
(-3.81176e-07 6.6823e-07 0)
(-7.907e-07 3.06521e-06 0)
(-3.76776e-06 1.30648e-05 0)
(-3.89591e-07 1.43345e-07 0)
(1.54966e-06 4.11941e-05 0)
(1.36286e-06 3.00553e-05 0)
(1.72691e-06 5.371e-05 0)
(-2.63131e-06 0.000179241 0)
(-2.49416e-06 0.000141213 0)
(-7.6679e-06 7.48933e-05 0)
(8.27166e-06 9.74052e-05 0)
(-7.7172e-07 4.56167e-07 0)
(1.00145e-05 0.000237827 0)
(7.21894e-06 0.00021285 0)
(-1.54236e-05 0.000200392 0)
(5.71068e-06 9.60823e-05 0)
(2.04981e-06 0.000104311 0)
(-3.89416e-06 0.000252679 0)
(-1.08296e-05 0.000109256 0)
(-1.0302e-05 0.000108777 0)
(1.52004e-05 0.000252605 0)
(-1.23307e-06 0.000225414 0)
(-3.44456e-06 6.88999e-05 0)
(4.1013e-06 0.00010429 0)
(1.23576e-07 7.37912e-06 0)
(1.92201e-06 2.61434e-06 0)
(3.86497e-07 1.42088e-07 0)
(3.62283e-06 0.000111078 0)
(1.33946e-05 0.000257775 0)
(-7.36297e-06 0.000179272 0)
(-6.9351e-06 0.000141209 0)
(3.84506e-06 3.0091e-05 0)
(4.90295e-06 5.3722e-05 0)
(4.39916e-06 4.12103e-05 0)
(-1.41913e-07 9.96911e-08 0)
(-5.66382e-07 0.000234592 0)
(6.87805e-06 9.71102e-05 0)
(-6.29275e-06 7.52722e-05 0)
(-1.1025e-05 0.000228922 0)
(-1.64583e-05 0.000169721 0)
(-1.59806e-05 0.000150679 0)
(-1.54136e-05 0.000132258 0)
(-1.47493e-05 0.000114557 0)
(8.08598e-06 2.52022e-05 0)
(9.39267e-06 3.55469e-05 0)
(1.05887e-05 4.73551e-05 0)
(1.16808e-05 6.05006e-05 0)
(1.63996e-05 0.000169715 0)
(1.59241e-05 0.000150678 0)
(-8.11372e-06 2.52055e-05 0)
(-9.4252e-06 3.55506e-05 0)
(1.53557e-05 0.000132255 0)
(-1.06268e-05 4.73583e-05 0)
(1.46953e-05 0.000114553 0)
(-1.17232e-05 6.05044e-05 0)
(-2.45082e-06 3.30346e-06 0)
(9.64238e-07 9.12336e-07 0)
(-1.29108e-06 2.373e-06 0)
(6.12298e-06 9.52943e-05 0)
(-6.74779e-06 9.8107e-05 0)
(1.22926e-06 1.48985e-06 0)
(-1.91484e-07 3.1903e-08 0)
(-1.48321e-05 0.000200874 0)
(8.46638e-06 0.000255182 0)
(9.50348e-06 0.000255662 0)
(1.90886e-07 3.17751e-08 0)
(2.76506e-06 3.70465e-06 0)
(1.32692e-05 0.000232369 0)
(-5.07353e-06 0.000108395 0)
(-3.39199e-07 2.98918e-07 0)
(-7.66771e-07 1.19653e-06 0)
(-1.19983e-07 3.0639e-08 0)
(2.24367e-07 1.7543e-07 0)
(1.37672e-05 8.65077e-05 0)
(-1.37644e-05 8.55135e-05 0)
(4.22108e-06 6.5352e-05 0)
(-5.20028e-06 0.000106424 0)
(4.38246e-06 6.70195e-05 0)
(-2.32919e-07 3.95162e-06 0)
(-3.20268e-06 0.000169687 0)
(2.51939e-06 8.16516e-05 0)
(-1.79383e-06 0.000167854 0)
(-1.71829e-06 0.00013039 0)
(7.38432e-07 1.70364e-05 0)
(1.37888e-06 8.01803e-05 0)
(-5.65697e-06 0.000107846 0)
(2.94656e-06 3.92426e-06 0)
(4.72939e-06 6.58422e-05 0)
(1.74376e-06 9.66716e-05 0)
(1.3335e-05 0.000239943 0)
(-4.09107e-06 9.74637e-05 0)
(-4.70167e-06 9.81219e-05 0)
(-3.86515e-06 8.29302e-06 0)
(-4.55942e-06 0.000101219 0)
(-3.9013e-06 0.000100521 0)
(4.04246e-06 7.14149e-05 0)
(3.54908e-06 7.21145e-05 0)
(-4.31742e-06 2.01002e-05 0)
(8.84105e-06 0.000124038 0)
(9.50403e-06 0.000160935 0)
(-1.20253e-06 1.34561e-06 0)
(-5.66768e-06 0.000106986 0)
(4.76204e-06 6.65721e-05 0)
(-3.61371e-06 0.000137444 0)
(-3.84236e-06 0.000175275 0)
(2.06491e-06 3.22235e-05 0)
(2.60326e-06 5.64202e-05 0)
(2.34603e-06 4.36356e-05 0)
(-1.90848e-06 8.95521e-06 0)
(-1.18091e-05 0.0001449 0)
(-1.11915e-05 0.000144445 0)
(6.30696e-06 2.81352e-05 0)
(5.99858e-06 2.83783e-05 0)
(7.76657e-06 0.000115175 0)
(8.54051e-06 0.000114611 0)
(-4.25785e-06 2.46827e-05 0)
(-4.71353e-06 2.50077e-05 0)
(8.41235e-06 0.000151377 0)
(9.25517e-06 0.000150765 0)
(-3.40535e-06 0.00022348 0)
(6.74744e-06 0.000204147 0)
(6.84485e-06 0.000203199 0)
(-5.04702e-06 6.70258e-05 0)
(5.878e-06 0.000106398 0)
(-1.77643e-05 0.000248904 0)
(-5.12486e-06 0.000198734 0)
(-4.9223e-06 0.000197807 0)
(1.72889e-06 1.29926e-05 0)
(1.77733e-06 1.26631e-05 0)
(1.53036e-05 0.000200933 0)
(-6.81528e-06 8.58581e-05 0)
(-5.85285e-06 8.58879e-05 0)
(1.514e-05 0.00022676 0)
(-1.53441e-05 0.000239001 0)
(-1.53243e-05 0.000240135 0)
(-4.80175e-07 2.45231e-06 0)