/*--------------------------------*- C++ -*----------------------------------*\
| =========                 |                                                 |
| \\      /  F ield         | OpenFOAM: The Open Source CFD Toolbox           |
|  \\    /   O peration     | Version:  2.3.1                                 |
|   \\  /    A nd           | Web:      www.OpenFOAM.org                      |
|    \\/     M anipulation  |                                                 |
\*---------------------------------------------------------------------------*/
FoamFile
{
    version     2.0;
    format      ascii;
    class       volScalarField;
    location    "2220";
    object      sigmaEq;
}
// * * * * * * * * * * * * * * * * * * * * * * * * * * * * * * * * * * * * * //

dimensions      [1 -1 -2 0 0 0 0];

internalField   nonuniform List<scalar> 
11800
(
153420
116076
470786
402019
111811
286925
145485
154651
163301
174113
151596
571428
77189.9
423500
366082
1.60705e+06
116546
113950
202252
121918
322290
517459
711962
637263
1.31415e+06
834289
843076
419183
923090
1.00485e+06
282452
111924
830309
123910
128119
273697
129139
884005
126028
130703
873875
956661
440613
1.0421e+06
297699
1.50407e+06
678132
788094
145270
203412
598139
424785
126555
199631
1.71371e+06
1.43547e+06
61881.6
395862
307558
298646
1.42669e+06
136988
315343
260367
1.2888e+06
196299
614735
439134
62209.2
770735
130512
109098
105219
1.38755e+06
1.41227e+06
267321
1.34149e+06
185349
154385
159525
1.74375e+06
110358
112469
115195
111795
967659
301810
887141
810492
434997
124451
988292
136880
59594
158570
131645
17039.9
131427
126985
503079
75073.7
553292
937919
331519
134443
279470
155502
139147
1.38644e+06
890334
971539
813463
305907
442056
185236
1.25266e+06
184085
130917
1.17686e+06
180456
175324
147008
158498
124527
134065
125414
127152
126271
95024
29195.4
1.61713e+06
1.06314e+06
326044
968757
462046
885920
808735
287222
829366
402012
758631
692855
427035
168163
203449
272721
983039
1.01028e+06
575819
317171
178676
171672
126837
219502
198914
160800
386740
528253
1.06822e+06
131325
1.59286e+06
196064
1.36513e+06
392127
427242
464595
234637
182741
1.72459e+06
1.05422e+06
367829
502508
138496
306276
305989
1.50178e+06
1.51835e+06
787990
720233
860297
386831
269378
211231
176295
366032
181475
286032
135691
147595
144655
204561
190029
181643
179202
743012
947870
1.43087e+06
116802
186190
1.68101e+06
122864
235750
264434
130804
134597
687030
576346
527898
437421
1.61306e+06
490601
722016
2.20093e+06
1.80135e+06
1.86673e+06
292157
119405
683790
623891
571129
219337
307842
117534
114296
201654
120886
1.06636e+06
219243
122661
382332
180633
151780
125519
530303
541327
2.19425e+06
1.0634e+06
188196
197310
930834
760739
269854
386277
863317
793915
725345
133499
942661
326248
444019
416720
134821
119029
343045
297548
135052
1.86155e+06
234322
268500
198166
226481
567947
621087
676211
307539
221277
129514
1.4049e+06
140799
81750.3
126554
337456
127106
438897
1.65137e+06
317887
314947
472047
343573
394491
288637
987212
826585
263679
326533
213568
253740
458105
600316
233485
979492
1.05104e+06
1.26776e+06
148577
315151
313314
1.45063e+06
1.46428e+06
851595
838318
871786
863085
123782
85353.8
240924
1.90496e+06
113919
119714
247510
207744
217928
746930
762133
1.3036e+06
1.86934e+06
577998
158557
714013
588267
414934
338285
147593
151206
218182
381448
202477
351802
112539
147070
144864
133003
1.04647e+06
143924
118560
1.54249e+06
253542
580021
628673
612567
772783
744228
98935.7
98039.4
532153
692573
481914
1.24995e+06
107075
676621
528578
343121
260939
257731
198788
264609
230098
301546
332149
359940
134047
126818
620111
658318
155827
184836
384834
320653
361562
167480
158207
195968
198605
739167
348737
262276
314671
865117
1.00897e+06
302816
169594
162015
208334
194985
357502
415704
337479
396488
309424
363741
276052
260507
546920
271182
594233
1.02202e+06
505201
372588
1.71128e+06
123705
1.07396e+06
519529
380015
1.62223e+06
128350
1.1024e+06
273982
940807
867956
840482
161194
72666.8
115615
1.97632e+06
1.70715e+06
737806
263137
349788
154707
191630
219022
126366
183634
1.30153e+06
52754
449206
342065
1.44269e+06
97676.8
151747
130774
134854
130117
133752
1.44587e+06
474881
195444
535470
490706
450251
103008
1.05244e+06
339313
469453
145272
707256
157131
1.3714e+06
122584
168310
388490
356625
327826
716366
190032
394959
357719
188121
539369
589119
642465
306935
225606
58522.2
144650
158552
1.79243e+06
585073
461497
338103
278337
154567
135877
99393
101156
168055
90159.2
103548
116112
139782
280248
130149
172038
481741
564868
268405
1.28802e+06
169878
304540
132984
149092
1.24156e+06
1.59793e+06
483268
528481
203409
180133
111152
1.08862e+06
1.5454e+06
1.37109e+06
1.99626e+06
620902
434148
574355
106777
155451
145180
160528
566146
131668
129722
108048
149151
1.08579e+06
238093
1.06871e+06
668081
142871
181384
916357
1.12018e+06
563266
616395
670113
305171
221757
512678
128882
129357
126576
142962
116133
162047
87029.5
154840
85732.3
151698
77770.6
148603
136675
144076
101054
1.24498e+06
199735
201075
448457
722030
103565
134608
114498
110957
99704.6
235563
332538
121298
119978
470520
107056
157975
1.34958e+06
72438.2
142969
409706
376086
395448
429812
441631
467574
216831
168195
1.5424e+06
1.93369e+06
384515
80668.7
274960
285186
293678
212465
627827
577851
528518
147881
76032.4
600712
568910
254450
280023
146999
480579
524985
191467
843283
851583
861792
856273
1.49331e+06
1.46124e+06
450070
1.81429e+06
630666
123577
1.27441e+06
1.07114e+06
1.17148e+06
592273
242247
263571
159664
1.27277e+06
409581
519788
1.91853e+06
175425
207978
419797
395719
1.05098e+06
534284
1.57824e+06
123466
119780
219016
305029
680832
622214
569152
1.47567e+06
132383
311340
671817
1.05269e+06
121011
1.72753e+06
1.61696e+06
1.6592e+06
192520
261094
102618
1.6966e+06
469795
197498
327523
1.57108e+06
129259
199327
213078
126918
397322
235210
1.97217e+06
1.69203e+06
170982
479820
612559
232600
271249
208086
186888
534105
171252
461742
344370
888802
787748
145167
1.03896e+06
128469
318454
388949
1.41152e+06
261031
356686
201136
171909
153964
178197
336731
785398
866123
121855
120607
119176
158476
283267
1.05391e+06
103873
353235
632060
490807
184001
838658
932603
599759
1.02109e+06
1.11359e+06
454965
302369
138656
157491
289860
309940
267915
294033
164206
269965
317771
191366
126467
1.97775e+06
834268
311436
415247
391898
192158
333766
481756
1.05334e+06
964596
880501
273991
322387
175423
179317
1.22593e+06
923823
1.04129e+06
135126
170957
230709
526373
1.19701e+06
376466
78412
136746
1.821e+06
1.71262e+06
201210
1.57009e+06
104048
139540
109697
581148
112559
191938
217027
1.05647e+06
1.15649e+06
1.26072e+06
1.37052e+06
603248
516038
430231
342461
164947
121702
335341
1.6813e+06
130880
129034
132981
130316
131220
136821
143279
1.30436e+06
661387
658808
385465
720811
788429
276530
933521
224351
190283
134973
1.79933e+06
126214
143708
137451
142359
125510
1.63845e+06
225518
224785
896959
279965
594509
217182
1.66973e+06
711868
348683
265859
1.11913e+06
388000
158846
137179
121367
121282
196801
219899
208185
148768
414519
143804
123732
676612
758190
112469
483164
690094
587737
792730
1.50902e+06
1.38623e+06
1.26694e+06
1.15195e+06
482308
586081
1.51545e+06
1.39189e+06
688220
1.27276e+06
791925
1.15616e+06
1.36762e+06
140166
122830
134365
200443
433945
974059
130492
358827
485184
389430
529773
166064
208697
350931
507765
1.10479e+06
1.01184e+06
923487
437445
327803
830082
173968
216295
147137
280911
259568
235296
469447
369299
379353
283466
123558
593749
166642
287302
356317
892424
474587
554593
463087
170039
216331
158815
141458
137746
153802
493464
420285
128241
180317
190954
384124
1.17238e+06
377968
524459
420697
142235
184717
173330
159230
215353
162270
516942
473216
430905
175331
1.31558e+06
577707
193809
803522
537069
1.13082e+06
1.57876e+06
193384
215853
180762
133346
135598
612971
521857
1.63937e+06
117367
160640
293253
425127
190227
131033
618159
611050
60144.3
124395
303374
245771
87646.6
1.42047e+06
1.57577e+06
249264
114844
232442
318103
676538
565408
618927
1.80321e+06
125634
485837
546490
146365
502138
612662
719912
826212
1.58031e+06
1.45201e+06
1.3272e+06
1.2073e+06
501585
610869
1.58558e+06
1.45643e+06
716832
1.33208e+06
824610
1.21067e+06
1.51656e+06
1.31085e+06
989425
400010
456543
1.30834e+06
985059
282363
114061
109404
982434
1.71735e+06
132371
345597
1.43722e+06
978123
1.5797e+06
1.60747e+06
975099
979962
450019
359741
467558
221211
156835
253107
139875
163408
193565
168198
342513
1.66294e+06
467333
168429
106016
303907
326499
1.5041e+06
309468
279726
348638
370680
966070
443550
324189
1.27386e+06
347626
448321
168995
146592
318391
272872
296234
746137
468455
453412
1.10991e+06
1.06186e+06
448205
471184
843284
906337
337919
351758
125549
158167
165443
457473
355010
65897
145395
164816
544112
520487
276663
531258
412333
168722
107882
109058
446896
1.05755e+06
112392
1.5756e+06
225531
610871
558830
179596
222314
368229
134356
120078
1.31782e+06
324314
841020
771948
705911
262742
375241
144918
1.21894e+06
1.56214e+06
152170
132058
855802
308483
416362
720250
787862
869208
267881
379922
57545.9
640574
321748
1.55297e+06
279786
898768
722633
809637
130852
129418
128382
140555
136430
124131
1.29846e+06
391363
152987
179049
195820
220723
267233
297092
611182
593394
561719
543271
498225
514336
940604
146995
126669
125769
157752
185607
133210
145641
1.1124e+06
223454
408674
336466
873232
450692
163025
170787
372914
290918
510452
419055
1.04535e+06
909455
833769
761373
424676
1.20863e+06
582174
1.234e+06
215131
181672
232260
229459
162701
154127
160165
1.23857e+06
1.64823e+06
281017
106107
210017
469623
362336
108730
136548
217977
204661
204812
193666
248361
234709
181653
398352
442674
431557
479893
363194
404427
466737
122765
973403
766690
411474
1.01388e+06
953730
555065
1.64512e+06
302951
287494
327243
353069
162924
140888
153349
313337
131374
1.34743e+06
185105
131522
647660
54921.2
110192
1.369e+06
158119
338659
1.08235e+06
490535
991885
905573
1.23422e+06
822015
133923
495305
397035
179558
1.13548e+06
507311
188519
924150
838931
1.01023e+06
127599
129709
135081
1.98715e+06
235832
355036
431719
203931
128115
123569
346240
375628
156156
1.3724e+06
345778
1.33844e+06
205533
680296
125888
518468
622409
841436
333699
444815
533890
224409
1.90887e+06
145075
105799
125537
1.6419e+06
1.08989e+06
265484
384507
881433
811795
741979
1.69e+06
495761
403461
1.71897e+06
1.93532e+06
1.32099e+06
84703.9
455945
1.10372e+06
818828
440325
331270
805630
718578
335968
1.12434e+06
271824
232511
415202
363431
282509
1.34144e+06
2.02114e+06
113705
127212
148340
1.94711e+06
139699
158691
575070
437570
1.73224e+06
1.81432e+06
128440
509928
183919
173259
421432
183261
113535
456021
117995
134567
2.02783e+06
860096
472465
356689
320963
234773
650242
597499
545396
186251
1.83374e+06
361870
324773
353155
1.53858e+06
616125
893327
127878
200883
151061
687002
400232
532304
115660
231807
312924
673177
237004
163131
142183
273873
1.70931e+06
240370
320370
666262
1.10738e+06
1.56511e+06
1.03036e+06
710719
538344
637448
73516.1
198153
266094
565112
518649
474684
1.56204e+06
127928
159541
171229
170827
170869
169860
237476
127558
126300
553430
1.39524e+06
380923
849718
778938
712303
266504
1.57988e+06
485956
551578
658188
566901
956281
1.54153e+06
470651
133280
620456
110763
699251
418490
765346
837231
302244
985634
244890
2.12112e+06
720738
127677
1.43052e+06
2.12405e+06
1.82917e+06
426540
126776
805122
145521
134000
109469
235886
134393
134304
120001
120603
1.29548e+06
1.3596e+06
126082
915192
152489
143685
125846
192530
895181
902641
212765
911211
916045
1.22828e+06
406287
156447
187611
252281
505134
550912
194029
51638.5
140164
630988
284324
684518
770466
845751
923829
471448
335999
258039
146423
129707
1.58881e+06
867306
122266
183465
758595
594328
318555
346398
170551
146182
270914
239582
108630
180433
132514
1.3273e+06
492720
1.20819e+06
123351
122338
2.12735e+06
126193
1.64562e+06
1.61621e+06
123270
738808
365351
1.30737e+06
135648
687412
816033
1.78266e+06
196050
129844
116493
403199
191392
253397
504378
460138
420712
131534
119837
147673
140017
876545
966589
661708
1.13829e+06
1.04092e+06
1.21731e+06
1.77595e+06
220244
566040
1.69159e+06
516689
1.61257e+06
731219
799755
873895
384917
266356
332252
396256
1.50017e+06
145364
161936
230071
217671
201768
158754
301029
276301
258872
653654
642363
1.98077e+06
212474
111538
155641
1.58405e+06
454751
239891
230700
1.54766e+06
758357
524012
99795.3
169902
115995
745519
953444
250504
1.1064e+06
156683
152694
2.05392e+06
1.35199e+06
1.65684e+06
309763
404722
721523
239460
557249
1.69227e+06
1.82305e+06
154791
177714
292976
242779
813576
907530
616806
695075
1.87182e+06
1.7554e+06
223253
156736
99872.9
1.23661e+06
111983
1.62849e+06
338079
243252
872073
274602
124548
1.5319e+06
179956
222235
102788
119738
1.14782e+06
376279
129861
610921
286390
165539
128861
119328
544424
119916
1.54785e+06
1.42071e+06
251923
665669
380883
126875
139738
1.21479e+06
151760
807802
208205
439850
892990
1.02346e+06
1.47486e+06
161929
261693
1.63227e+06
204589
137163
123099
147272
122909
1.68786e+06
1.29112e+06
289867
392186
695874
679779
914490
317288
430137
316348
453570
973386
892024
814200
1.30603e+06
597160
429579
1.30327e+06
432862
1.41713e+06
519547
555248
1.54738e+06
2.12688e+06
1.80413e+06
339933
359074
946519
438511
322941
122606
295295
1.5046e+06
134214
152077
1.88866e+06
1.40716e+06
1.6498e+06
719047
892150
901337
776846
114864
106164
160212
108483
564583
616286
673339
309364
221984
494121
1.67055e+06
132584
177001
148748
137421
813464
735685
166383
1.48017e+06
1.689e+06
942614
766771
1.35059e+06
1.55504e+06
113800
747683
477732
1.0165e+06
140684
214563
229794
1.30021e+06
1.2956e+06
612949
296811
109719
128324
191126
399075
1.37467e+06
184134
1.04347e+06
129647
297083
210089
270189
467618
242807
380887
36932.8
10683.4
379760
1.9879e+06
170296
144365
150846
121987
116396
158220
165296
123935
129927
423042
122463
132626
159300
784764
970326
694677
1.40081e+06
1.76453e+06
131519
174974
311901
144896
1.22758e+06
188410
1.84109e+06
195859
249842
484434
352719
196257
198929
461255
121646
140257
167469
112889
159491
109430
1.60185e+06
101500
135597
232727
116960
90655.1
1.57713e+06
171641
1.35889e+06
1.42975e+06
521751
347877
266722
381222
863573
800956
732075
123464
968359
517741
122489
1.68305e+06
127939
132269
300804
917941
698166
777979
1.10189e+06
161815
129322
334870
491484
1.0843e+06
570420
1.18117e+06
414109
992937
906721
330739
1.17625e+06
407050
1.07607e+06
481912
986422
900558
560085
1.23392e+06
158660
486118
375804
131737
163182
1.3593e+06
806079
1.09613e+06
1.01821e+06
888725
1.10437e+06
809886
311516
342172
505596
1.23023e+06
133863
1.90019e+06
159507
131632
1.43912e+06
166690
256466
516889
520703
1.52909e+06
107575
950443
872497
796926
293187
424412
1.86904e+06
306745
238927
553636
153578
577944
266214
296233
114619
172538
181263
155629
434731
117106
540421
291034
223016
719812
961110
967944
719438
358545
1.75049e+06
127807
128350
1.57221e+06
1.43278e+06
863552
2.11272e+06
898178
771878
831569
1.88021e+06
888912
706356
1.66747e+06
361096
373991
531660
1.4609e+06
105813
1.26443e+06
150738
221499
327616
546908
597948
652300
317301
231609
390415
71343.2
75821.3
132364
136432
184720
151947
126509
175645
909654
1.70621e+06
200373
157913
1.57392e+06
1.09815e+06
430333
579856
131075
138072
1.36033e+06
908584
201733
709309
663701
905972
117443
130159
140592
121504
1.04585e+06
1.71806e+06
1.69289e+06
1.14163e+06
1.83997e+06
230457
113592
289319
871531
796256
951242
429738
295360
1.89209e+06
405931
507049
662944
221824
194233
797197
286886
147291
595662
227214
288315
1.77734e+06
296747
264219
924608
849286
776142
390986
1.20398e+06
1.13008e+06
1.4775e+06
461301
479860
590481
1.24817e+06
576754
416500
1.10879e+06
214955
2.12091e+06
147156
1.62045e+06
425900
488959
117618
517496
983778
129847
149518
143598
1.87528e+06
527413
480493
572453
281295
207298
270652
507249
1.23006e+06
512878
1.00456e+06
1.19819e+06
1.10009e+06
345651
1.10674e+06
835540
886672
1.04956e+06
1.106e+06
836191
895140
1.05887e+06
613861
531297
41760.6
257584
161735
354500
518300
434065
599846
1.23021e+06
1.13088e+06
1.03541e+06
945319
349944
986928
476611
146924
103043
109786
182541
99199.9
415529
973028
999354
360846
1.69378e+06
149895
131839
1.32863e+06
1.65349e+06
94857.5
1.03416e+06
406561
546075
761285
454033
275309
133442
405657
607451
65996.9
129304
1.71815e+06
228150
177412
409345
374676
444979
294097
128370
132513
302307
1.04949e+06
1.6441e+06
1.90389e+06
283217
314021
1.32934e+06
1.19851e+06
1.57089e+06
113504
893416
1.5267e+06
1.9142e+06
1.97663e+06
1.91423e+06
479150
841355
360258
1.78272e+06
1.32136e+06
536235
1.16153e+06
136655
127550
1.38228e+06
1.38432e+06
127718
378629
1.75123e+06
1.45453e+06
1.37679e+06
1.42452e+06
1.98456e+06
1.341e+06
1.70161e+06
1.4882e+06
138999
236088
1.08214e+06
544476
895767
190747
128990
163206
151033
145300
181559
162220
363491
1.7023e+06
1.03332e+06
356116
488131
1.10983e+06
154039
516125
367358
2.03473e+06
274243
262953
502599
278573
463361
203113
165229
1.65519e+06
13571.6
132811
132389
27315.2
388719
442392
158592
173917
186233
135483
481347
454879
123305
1.74598e+06
1.49773e+06
510709
1.10337e+06
370260
120835
1.28835e+06
284747
1.73848e+06
462153
564526
664116
764394
1.4749e+06
1.35658e+06
1.23997e+06
1.12976e+06
461426
561784
1.479e+06
1.35937e+06
660638
1.24318e+06
761363
1.13126e+06
256357
200925
487150
516663
453067
218850
183950
159920
133948
126908
136604
122139
124835
207473
802215
862146
744714
418010
812241
895196
1.42374e+06
590147
474146
1.55508e+06
519628
178419
109749
154247
133526
244705
223095
227197
134533
337845
264260
325960
660559
133687
182071
827362
139987
109912
132857
113156
1.19549e+06
153399
185839
550825
439477
231211
554267
194945
117155
107027
1.8536e+06
1.88601e+06
1.09561e+06
894436
870332
1.11268e+06
1.83286e+06
939706
125465
605505
330999
257045
367599
180830
1.77439e+06
191606
1.00713e+06
925686
845709
443290
304147
531795
306207
236934
1.79369e+06
204356
125502
589024
587297
259784
170224
202043
335112
702853
1.32838e+06
536741
425515
846356
1.0727e+06
286554
411852
908708
832554
760647
426953
461008
766977
611373
862627
459231
952014
1.0421e+06
304048
1.1365e+06
2.08949e+06
1.48306e+06
113101
677257
742108
810456
256143
179949
1.26092e+06
215825
282906
360662
391279
167045
211941
177791
142615
1.1604e+06
885246
930342
1.11526e+06
274258
1.48858e+06
1.84625e+06
679324
126240
665496
728023
795302
762638
901425
248923
1.43233e+06
628452
563584
513720
613459
225851
308037
183784
173130
385340
458287
419863
480303
525301
573456
347877
344361
490403
493152
1.00878e+06
1.00312e+06
841920
923016
837031
917987
502908
549543
203577
135436
149957
171115
1.05182e+06
637669
130234
1.01421e+06
839771
802385
1.04383e+06
177360
368831
1.32939e+06
553320
1.21903e+06
1.11338e+06
101491
221924
929461
533602
381803
1.22716e+06
440949
69758.8
922044
842777
1.00721e+06
447723
306414
1.28623e+06
475803
386341
1.689e+06
477994
672275
166414
133939
283098
263551
240371
1.43201e+06
348229
247179
400076
366196
432703
218167
171560
956889
1.08117e+06
177789
605231
134665
834188
1.66482e+06
1.05464e+06
489140
369816
889746
447197
401173
330743
220354
145227
342774
170911
407330
169112
292180
129449
139113
1.753e+06
340934
1.45112e+06
810673
877663
472660
356923
858249
1.59541e+06
109595
132652
137208
130050
317455
30664.6
10155.2
316516
656560
126514
681597
300930
223333
146645
447063
621641
1.32526e+06
121299
101514
148811
167919
360094
229997
880679
782867
199642
134198
114932
1.76964e+06
657054
121639
260746
130975
2.03434e+06
1.61992e+06
261317
190774
686557
335401
470557
934938
779710
855563
1.874e+06
1.48658e+06
134198
1.40937e+06
1.92329e+06
1.48062e+06
1.63712e+06
721353
153479
982652
231420
150888
180429
349826
372420
277848
273731
631487
208935
147745
117727
927939
1.09714e+06
1.20101e+06
1.30935e+06
1.41127e+06
616171
528137
437452
347153
220728
115475
444748
20764.1
219884
219221
11293.1
471243
236049
186714
89367.5
292331
333258
130474
313980
951292
691188
477815
340934
389099
1.73174e+06
1.33487e+06
174400
569963
128720
136184
470352
555281
594410
1.1926e+06
332745
366124
133494
1.56406e+06
138812
269451
315999
294125
1.09979e+06
1.20283e+06
619037
699563
697545
468728
605686
1.1619e+06
1.10573e+06
1.09732e+06
371448
510769
103611
117511
107808
234635
117207
518245
1.04011e+06
924309
1.13333e+06
825091
1.14381e+06
823826
563481
394766
998694
730704
1.00213e+06
733106
250322
1.13025e+06
925314
809844
1.05529e+06
934424
1.15288e+06
837073
1.15516e+06
836054
1.07536e+06
2.0341e+06
423320
591956
1.27785e+06
478142
123861
137595
204323
20182.8
203699
17869.9
126889
360886
1.11316e+06
1.01694e+06
1.21564e+06
534113
371910
1.78386e+06
68957.5
122956
237131
794724
249212
688694
335933
1.82547e+06
1.84208e+06
1.11652e+06
134055
252768
1.22093e+06
630878
506382
362088
630672
575455
686789
244035
335669
1.88835e+06
442747
1.67414e+06
126159
126509
124276
125406
91609.7
1.65099e+06
137852
1.1983e+06
90144.6
873021
1.14171e+06
135562
132694
175687
501527
185077
415021
379903
281360
305217
332052
149560
298800
402651
497294
337443
1.14592e+06
1.0525e+06
961238
1.23475e+06
1.65612e+06
1.82955e+06
114755
114370
117131
126456
236241
141305
252367
1.82857e+06
1.87152e+06
1.83584e+06
1.44054e+06
56781
1.00674e+06
1.69e+06
1.10908e+06
870611
891460
1.09509e+06
556935
509888
992380
635845
1.19993e+06
97849.5
216806
268263
520360
213956
209374
240556
166833
192872
141807
164862
358619
363168
395350
391397
426271
428993
505026
501365
130936
130793
461455
305124
106947
179886
728641
1.20369e+06
131621
701410
1.5205e+06
460141
1.43911e+06
643582
189610
1.37516e+06
695260
584083
925387
1.61658e+06
1.97517e+06
778442
315400
1.66863e+06
234758
176021
152838
379407
89730.9
706385
1.21771e+06
306626
471276
193893
129985
204943
1.79202e+06
308778
357047
345073
260106
746933
233743
188427
754868
165753
1.59895e+06
136569
943993
341534
370255
1.4772e+06
1.22615e+06
735664
1.34311e+06
1.46615e+06
630945
1.59163e+06
529276
423340
1.22292e+06
1.33868e+06
1.59016e+06
1.46177e+06
424765
634431
738993
531068
1.65922e+06
167702
1.30201e+06
145065
110401
130469
7472.76
56858.6
702318
78917
1.25344e+06
250189
192776
466825
505795
427396
381242
238543
1.05874e+06
237214
253447
973376
97090
371322
342700
340004
1.06991e+06
977718
1.16821e+06
506821
456219
190061
319441
609869
1.24996e+06
72997.8
307768
188159
125859
412571
1.33381e+06
733992
636530
1.39799e+06
169298
754435
1.62518e+06
814587
1.50067e+06
140846
1.68119e+06
204836
1.13022e+06
392898
484924
129860
13131.9
131927
131475
22486.5
215847
1.1746e+06
165051
1.39738e+06
647831
229656
1.05843e+06
1.016e+06
1.1605e+06
1.11411e+06
1.26769e+06
1.21735e+06
581199
561966
399904
387641
442324
302167
1.01272e+06
931157
850343
271555
320300
294541
154312
937631
815321
92684.5
168648
129518
148109
154357
1.65644e+06
1.36614e+06
348456
1.14195e+06
1.04411e+06
1.2443e+06
119738
622461
1.11538e+06
1.14924e+06
133164
125273
1.34866e+06
438355
154661
236871
277411
257187
156797
449743
413145
381021
1.50327e+06
2.03017e+06
1.4762e+06
1.02829e+06
495349
359331
160869
174970
253679
185592
131192
120498
191922
542082
430445
125316
1.23712e+06
1.42442e+06
561690
508579
154449
151806
137573
141902
398715
1.34519e+06
995339
762558
786920
938407
125647
131346
197771
123175
122368
250845
2.10235e+06
1.66529e+06
130419
162842
673353
581640
407405
1.26853e+06
1.37769e+06
1.05963e+06
1.16084e+06
722495
362467
308480
336034
165580
199024
1.53083e+06
393319
965532
80847.8
1.42782e+06
132902
534112
617690
2.09632e+06
124210
548884
144635
514026
150306
327175
1.01365e+06
451386
1.14035e+06
735284
1.25141e+06
1.36757e+06
637609
1.48773e+06
538123
440315
540878
440812
212212
637275
721488
940162
125795
200752
1.1976e+06
525342
1.91239e+06
1.5663e+06
1.75494e+06
319986
1.35519e+06
648014
486161
236455
182799
1.84535e+06
971434
120332
2.02007e+06
1.68014e+06
59368.2
566564
465093
75275.4
802647
623489
107603
158000
1.33152e+06
1.93979e+06
129763
653730
670950
1.37564e+06
1.33203e+06
477482
489475
478842
491851
130660
132288
131747
124738
96596.2
2.0209e+06
1.54341e+06
1.4132e+06
1.78176e+06
661073
346175
1.41476e+06
775693
850792
929258
76884
1.48749e+06
254220
1.10588e+06
1.60481e+06
469806
324493
2.02344e+06
517135
543026
382663
404253
1.04596e+06
1.01142e+06
187819
186077
105944
126680
339440
1.23255e+06
1.13029e+06
1.0322e+06
509575
2.0147e+06
132060
235342
114005
1.01896e+06
1.11689e+06
645163
1.2193e+06
552389
1.33673e+06
468842
1.2542e+06
1.04766e+06
1.14781e+06
1.36278e+06
377937
665547
574601
472636
124983
167255
175533
219145
401912
337393
368473
1.63197e+06
730931
891724
1.52553e+06
183980
267815
126019
423123
584883
205064
280626
1.55996e+06
165811
122948
128428
130659
123590
85441
194663
145984
158070
1.31399e+06
1.56024e+06
142736
123182
153004
265889
570471
1.70359e+06
1.58353e+06
720158
133919
169394
1.33619e+06
132469
134785
2.06665e+06
782306
1.543e+06
418256
1.03941e+06
637549
637352
183998
755249
1.0849e+06
514280
371613
154680
347866
126208
91753.1
114018
1.67958e+06
939804
956212
1.61675e+06
255866
275099
149359
514578
135656
125357
137936
317142
262544
26676.4
261777
18294
127836
1.02848e+06
301744
432878
922355
845102
771170
162650
1.88062e+06
634059
350086
1.59455e+06
924859
965989
168636
16529.1
168101
17418.3
1.42337e+06
369337
575663
688506
632433
137209
1.56404e+06
347967
253447
796389
610456
122731
35640.8
1.13442e+06
231963
1.14224e+06
280725
369146
688311
755611
632569
145122
568366
234992
297051
151799
163238
542219
564420
189187
333978
126334
127511
896422
443012
327553
138592
494183
12778.2
47780.5
492729
585311
473558
698566
829632
107279
1.88999e+06
1.97631e+06
241491
129581
139122
205228
228348
23561.6
227691
20336.1
967830
327435
452045
1.84146e+06
1.86793e+06
1.55785e+06
1.44108e+06
816230
722811
691215
614369
1.56333e+06
221398
434410
162629
111388
125265
308611
429262
612239
1.7704e+06
1.79172e+06
224169
116297
575485
628420
216553
961307
388479
321410
1.45309e+06
148063
140553
181859
918082
920685
978989
620061
313674
435513
89739
89134.6
1.10018e+06
119660
963276
124065
463801
752946
659850
1.13006e+06
1.32104e+06
132135
162679
355725
1.56501e+06
7770.82
96429.2
28593.9
96720.5
253338
235905
90277.1
1.74766e+06
31212.5
1.6588e+06
432045
41765.9
13481.9
430779
272826
140365
16128.3
140017
346996
1.51803e+06
347774
1.72447e+06
1.96028e+06
57551.8
541161
646689
594139
780119
369270
270716
846839
552976
96848.8
208913
322082
234508
569416
758025
216565
217377
1.88697e+06
650962
754378
706856
815299
1.20014e+06
121992
120817
1.00407e+06
1.23072e+06
423419
225789
258973
140277
277132
392382
135464
212259
301160
132296
92238.1
1.09517e+06
1.28475e+06
241939
526210
411847
422570
1.32827e+06
590581
259267
206601
515225
442034
114228
303555
1.23361e+06
1.5556e+06
401451
283095
703811
841793
771461
87030
124722
294408
213888
1.16523e+06
422496
100550
48987.5
71126
392933
279462
680908
814100
746424
130820
1.69821e+06
1.93294e+06
143331
134971
127616
123818
1.6855e+06
324732
246207
705955
2.08651e+06
1.6863e+06
457886
170590
429337
393918
244964
227376
261787
150203
137650
136738
348838
1.65477e+06
110190
868741
940835
1.52452e+06
1.09493e+06
1.06844e+06
404166
398143
539636
548299
265569
284023
248538
122376
124559
635696
210412
1.52831e+06
1.04308e+06
261243
122924
665749
1.96558e+06
120736
996155
827752
783524
1.02893e+06
728373
309023
423651
962013
175312
702711
301294
335351
178313
380427
215549
278158
766677
375842
168624
147613
190203
960879
788946
182987
174018
167383
189110
128612
511074
392640
119731
372997
133177
216555
344927
1.79536e+06
1.58108e+06
1.08134e+06
302187
221106
675873
621730
568672
276358
279344
132087
974454
138956
519871
683065
207308
197746
1.60899e+06
96484.6
306671
285332
144888
1.68586e+06
93115.5
130481
452942
535803
170450
160605
179805
132578
130994
1.07825e+06
110205
132689
16465.4
132317
1.07517e+06
1.00785e+06
1.90535e+06
1.1703e+06
1.45862e+06
134322
1.50952e+06
1.01442e+06
14895.7
108106
247255
192882
418661
456135
494830
655425
360208
1.51634e+06
866809
946229
158583
110736
106987
123894
139210
141090
208638
892376
108375
1.90913e+06
473335
186733
975624
626023
321141
444828
211420
182138
257697
394805
251924
525202
483083
189457
133458
653903
951925
91996.2
97689.7
173686
104594
112109
1.46168e+06
366890
274574
799881
1.40271e+06
384466
268778
657913
564260
613784
515700
301255
221095
132325
8762.46
69333.7
631236
520714
738244
1.56295e+06
1.31138e+06
1.43469e+06
520594
628610
1.57022e+06
1.44037e+06
736516
1.3168e+06
182020
349247
290728
295642
122077
200317
175859
518986
247548
196743
232709
409079
1.14816e+06
558938
131632
206101
122004
134710
221142
340018
123262
122872
122173
837702
306318
404366
276085
358238
746044
634188
758437
607755
1.05268e+06
314029
182566
265094
655271
494050
237432
320639
455661
132824
267026
160711
157238
529249
530663
193004
673346
206291
219529
1.21012e+06
1.01237e+06
121081
141765
1.62217e+06
101646
169253
107345
203603
250389
811494
741802
674193
441412
445984
807938
188188
137082
127538
1.08592e+06
205248
191783
190941
182623
178076
174306
101790
160737
1.27788e+06
1.279e+06
388872
306180
132708
869753
742259
311036
430850
615195
124019
91346.4
136828
1.63495e+06
618493
743864
63490.3
527597
203808
83663.1
198275
214567
189283
514456
129551
313601
243399
135881
2.01581e+06
331511
966781
273049
1.54529e+06
669317
782968
410360
298225
932253
109914
138468
168801
361647
439642
288224
201205
120077
86126.6
731312
314837
234983
110440
118617
122299
128921
315641
264620
292256
68696.5
151413
1.45495e+06
136818
1.98969e+06
450114
166645
719916
149577
110057
529883
195379
193587
894259
115555
614944
1.26267e+06
1.15421e+06
1.37217e+06
102932
185222
404459
1.2117e+06
1.14664e+06
321590
134475
344574
348994
501481
584873
1.08687e+06
500857
572741
1.19012e+06
1.07331e+06
1.15703e+06
908426
995260
896858
982618
1.45189e+06
286591
231662
1.66504e+06
111335
157634
598813
1.38436e+06
444814
244461
193469
116378
106721
136478
154660
113202
1.10571e+06
280702
367477