/*--------------------------------*- C++ -*----------------------------------*\
| =========                 |                                                 |
| \\      /  F ield         | OpenFOAM: The Open Source CFD Toolbox           |
|  \\    /   O peration     | Version:  2.3.1                                 |
|   \\  /    A nd           | Web:      www.OpenFOAM.org                      |
|    \\/     M anipulation  |                                                 |
\*---------------------------------------------------------------------------*/
FoamFile
{
    version     2.0;
    format      ascii;
    class       volScalarField;
    location    "0.43";
    object      k;
}
// * * * * * * * * * * * * * * * * * * * * * * * * * * * * * * * * * * * * * //

dimensions      [0 2 -2 0 0 0 0];

internalField   nonuniform List<scalar> 
15166
(
1.07912
1.32429
1.70724
2.10956
2.4208
2.73131
2.95319
3.08608
3.13239
3.10996
3.02639
2.91489
1.07949
1.29566
1.71108
2.10178
2.41241
2.70176
2.90315
3.01927
3.05514
3.02781
2.94548
2.82518
1.08753
1.26409
1.69568
2.07973
2.38967
2.66239
2.84818
2.95168
2.98035
2.94964
2.86743
2.74386
1.09807
1.23876
1.67407
2.0513
2.3584
2.617
2.79043
2.88438
2.90796
2.87486
2.79191
2.6635
1.10947
1.21968
1.65095
2.02067
2.32289
2.56887
2.73189
2.81833
2.83813
2.80337
2.71993
2.59083
1.12178
1.20518
1.62746
1.9892
2.28523
2.51971
2.67372
2.75406
2.77096
2.73498
2.65109
2.52075
1.13505
1.19414
1.60421
1.95751
2.24641
2.47041
2.61652
2.69181
2.70639
2.66947
2.58485
2.45152
1.14905
1.18594
1.58173
1.92604
2.20723
2.4216
2.56067
2.63168
2.64438
2.60676
2.52186
2.38922
1.16358
1.18008
1.56038
1.89526
2.16828
2.37369
2.50641
2.57371
2.58486
2.54678
2.46193
2.33008
1.17846
1.17609
1.54026
1.86533
2.12996
2.327
2.45391
2.51793
2.52775
2.48943
2.40513
2.27587
1.19355
1.17365
1.52141
1.83637
2.09248
2.28166
2.40321
2.4643
2.47299
2.43466
2.35143
2.22569
1.20873
1.17242
1.50378
1.80846
2.056
2.23777
2.35434
2.41274
2.42049
2.38241
2.30102
2.18113
1.22392
1.17219
1.48733
1.78156
2.02062
2.19535
2.30726
2.3632
2.37014
2.33255
2.25346
2.13949
1.23904
1.17278
1.472
1.75568
1.98636
2.15441
2.26194
2.31559
2.32185
2.28486
2.20756
2.09402
1.25402
1.17398
1.45769
1.73084
1.95325
2.11493
2.21832
2.26983
2.27553
2.23928
2.16415
2.05538
1.26881
1.17567
1.4443
1.70698
1.92128
2.07686
2.17633
2.22585
2.23106
2.19563
2.12276
2.01787
1.28335
1.17773
1.43176
1.68407
1.89043
2.04018
2.13592
2.18356
2.18836
2.15382
2.08314
1.98142
1.29761
1.18006
1.42001
1.66209
1.8607
2.00485
2.09702
2.14288
2.14734
2.11371
2.04514
1.94624
1.31156
1.18261
1.40895
1.64099
1.83202
1.97078
2.05956
2.10372
2.10789
2.07521
2.00878
1.9133
1.32516
1.18528
1.39855
1.62072
1.80438
1.93795
2.02347
2.06602
2.06994
2.03822
1.97391
1.88169
1.33839
1.18804
1.38871
1.60125
1.77773
1.90629
1.98867
2.02969
2.03339
2.00262
1.94026
1.85014
1.35124
1.19082
1.37939
1.58255
1.75204
1.87575
1.95513
1.99467
1.99817
1.96831
1.90771
1.81943
1.36369
1.1936
1.37055
1.56456
1.72726
1.8463
1.92277
1.96089
1.96421
1.93521
1.87615
1.78911
1.37573
1.19635
1.36212
1.54724
1.70335
1.81788
1.89154
1.9283
1.93144
1.90324
1.84557
1.75986
1.38734
1.19906
1.35407
1.5306
1.68029
1.79044
1.8614
1.89683
1.89979
1.87232
1.81596
1.7317
1.3985
1.20169
1.34636
1.51456
1.65804
1.76395
1.83228
1.86642
1.86921
1.84242
1.78731
1.70467
1.40924
1.20423
1.33896
1.49909
1.63656
1.73835
1.80414
1.83704
1.83963
1.81349
1.75965
1.679
1.41954
1.2067
1.33185
1.48417
1.61581
1.71361
1.77694
1.80862
1.81101
1.7855
1.73297
1.6548
1.42937
1.20907
1.32499
1.46979
1.59576
1.6897
1.75063
1.78112
1.78331
1.7584
1.70721
1.63129
1.43878
1.21133
1.31837
1.45588
1.57638
1.66657
1.72518
1.7545
1.75648
1.73217
1.68226
1.60815
1.44772
1.2135
1.31194
1.44244
1.55763
1.64418
1.70054
1.72872
1.73049
1.70676
1.65811
1.58591
1.45622
1.21556
1.30571
1.42942
1.5395
1.62252
1.67667
1.70374
1.7053
1.68212
1.63469
1.56416
1.46425
1.21752
1.29965
1.41684
1.52195
1.60155
1.65356
1.67953
1.68088
1.65823
1.61199
1.54328
1.47188
1.21938
1.29377
1.40464
1.50496
1.58123
1.63116
1.65606
1.65719
1.63505
1.58997
1.52288
1.47901
1.22114
1.28803
1.39283
1.4885
1.56154
1.60944
1.6333
1.63421
1.61256
1.5686
1.50322
1.48574
1.22282
1.28246
1.38135
1.47254
1.54246
1.58838
1.61121
1.61189
1.59073
1.54786
1.48404
1.49202
1.22439
1.27701
1.37023
1.45708
1.52395
1.56794
1.58976
1.59022
1.56951
1.52774
1.46578
1.49787
1.22588
1.2717
1.35941
1.44207
1.50599
1.5481
1.56893
1.56916
1.5489
1.50823
1.44818
1.50331
1.22729
1.26651
1.3489
1.42751
1.48857
1.52884
1.5487
1.5487
1.52889
1.48927
1.43074
1.50831
1.22862
1.26144
1.33869
1.41338
1.47165
1.51014
1.52905
1.52882
1.50944
1.47091
1.41439
1.51286
1.22989
1.25648
1.32876
1.39966
1.45523
1.49198
1.50995
1.50949
1.49051
1.45288
1.39669
1.51697
1.23105
1.25161
1.3191
1.38633
1.43928
1.47433
1.49138
1.49069
1.47207
1.4352
1.37935
1.52064
1.23213
1.24686
1.30969
1.37338
1.42378
1.45717
1.47332
1.47239
1.45411
1.418
1.36342
1.52388
1.23309
1.24221
1.30054
1.3608
1.40872
1.44049
1.45576
1.45458
1.43661
1.40123
1.34766
1.52672
1.23391
1.23766
1.29165
1.34856
1.39407
1.42427
1.43867
1.43724
1.41955
1.3849
1.33269
1.52913
1.2346
1.23321
1.283
1.33665
1.37982
1.40849
1.42203
1.42034
1.40293
1.36897
1.31761
1.53114
1.23519
1.22887
1.27457
1.32505
1.36597
1.39313
1.40583
1.40388
1.38672
1.35349
1.30364
1.53276
1.23564
1.22462
1.26636
1.31376
1.35249
1.37819
1.39005
1.38784
1.37091
1.33838
1.28961
1.53399
1.23597
1.22045
1.25836
1.30277
1.33937
1.36362
1.37467
1.37218
1.35549
1.32367
1.27633
1.53484
1.23622
1.21635
1.25055
1.29208
1.32659
1.34944
1.35968
1.35692
1.34044
1.30929
1.26287
1.5353
1.23637
1.21232
1.24294
1.28168
1.31414
1.33562
1.34506
1.34202
1.32574
1.29526
1.25005
1.5354
1.23646
1.20837
1.23551
1.27154
1.30202
1.32216
1.33081
1.32749
1.3114
1.28158
1.2376
1.53514
1.23646
1.20448
1.22825
1.26166
1.29021
1.30903
1.31692
1.31331
1.29741
1.26819
1.22492
1.5345
1.2364
1.20065
1.22117
1.25204
1.27871
1.29625
1.30337
1.29948
1.28374
1.25515
1.21313
1.53352
1.23627
1.1969
1.21425
1.24265
1.2675
1.28378
1.29016
1.28598
1.2704
1.24244
1.20176
1.53219
1.23605
1.19321
1.20749
1.23351
1.25657
1.27164
1.27727
1.2728
1.25738
1.23007
1.19078
1.53052
1.23574
1.18958
1.20089
1.22459
1.24592
1.25979
1.2647
1.25994
1.24466
1.21797
1.17971
1.5285
1.2354
1.18602
1.19444
1.2159
1.23554
1.24825
1.25244
1.24739
1.23225
1.20616
1.16895
1.52615
1.23497
1.18253
1.18815
1.20741
1.22542
1.23699
1.24047
1.23514
1.22013
1.19456
1.15767
1.52346
1.23449
1.17911
1.182
1.19914
1.21555
1.226
1.22879
1.22317
1.20828
1.18321
1.1472
1.52045
1.23394
1.17576
1.17599
1.19106
1.20592
1.21527
1.21739
1.21148
1.1967
1.17216
1.13734
1.51713
1.23335
1.17247
1.17013
1.18318
1.19652
1.20481
1.20626
1.20007
1.1854
1.16139
1.12777
1.51349
1.23269
1.16926
1.1644
1.17549
1.18735
1.1946
1.1954
1.18893
1.17437
1.15087
1.11813
1.50952
1.232
1.16611
1.15881
1.16798
1.17841
1.18465
1.18481
1.17807
1.1636
1.14059
1.10871
1.50525
1.23126
1.16305
1.15336
1.16067
1.16969
1.17494
1.17449
1.16746
1.15308
1.13052
1.09924
1.50066
1.23049
1.16004
1.14804
1.15352
1.16118
1.16548
1.1644
1.15711
1.1428
1.12066
1.09012
1.49577
1.22965
1.15711
1.14285
1.14656
1.15289
1.15624
1.15457
1.147
1.13275
1.11101
1.08099
1.49056
1.22877
1.15425
1.1378
1.13978
1.14481
1.14724
1.14498
1.13713
1.12293
1.10155
1.07229
1.48503
1.22788
1.15148
1.13288
1.13317
1.13693
1.13846
1.13562
1.1275
1.11334
1.09232
1.06373
1.47922
1.2269
1.14878
1.12811
1.12673
1.12925
1.12989
1.12648
1.11809
1.10397
1.08331
1.05548
1.47309
1.2259
1.14616
1.12346
1.12046
1.12175
1.12154
1.11757
1.10891
1.09482
1.07449
1.04718
1.46668
1.22484
1.14361
1.11894
1.11435
1.11445
1.11339
1.10887
1.09995
1.08588
1.06585
1.03919
1.45999
1.22377
1.14115
1.11456
1.1084
1.10733
1.10545
1.10039
1.0912
1.07715
1.05743
1.03139
1.45298
1.22269
1.1388
1.11031
1.10262
1.1004
1.09771
1.09213
1.08267
1.06863
1.04919
1.02369
1.44571
1.22156
1.13649
1.1062
1.09699
1.09366
1.09017
1.08407
1.07435
1.0603
1.04113
1.01621
1.43816
1.22038
1.13428
1.10221
1.09154
1.08709
1.08282
1.07621
1.06624
1.05218
1.03325
1.00865
1.43033
1.21915
1.13215
1.09837
1.08624
1.08072
1.07568
1.06857
1.05832
1.04424
1.02553
1.00129
1.42219
1.2179
1.13011
1.09466
1.08112
1.07452
1.06872
1.06111
1.05061
1.0365
1.01797
0.994022
1.41376
1.21664
1.12817
1.0911
1.07616
1.0685
1.06196
1.05386
1.04309
1.02895
1.01059
0.986988
1.40505
1.21532
1.12632
1.08769
1.07136
1.06267
1.05538
1.04679
1.03577
1.02158
1.00337
0.979977
1.39605
1.21397
1.12456
1.08442
1.06673
1.05701
1.04899
1.03992
1.02863
1.01439
0.996311
0.973295
1.38677
1.21257
1.12288
1.08129
1.06227
1.05152
1.04278
1.03323
1.02168
1.00737
0.989416
0.966809
1.37722
1.21113
1.1213
1.0783
1.05796
1.04621
1.03676
1.02674
1.01493
1.00054
0.98271
0.960395
1.3674
1.20967
1.11983
1.07546
1.05383
1.04108
1.03093
1.02045
1.00837
0.993906
0.976171
0.954032
1.3573
1.20819
1.11846
1.07278
1.04986
1.03613
1.02528
1.01433
1.00199
0.987438
0.96979
0.947945
1.34693
1.20665
1.11718
1.07025
1.04607
1.03136
1.01981
1.00841
0.995792
0.981154
0.963576
0.941861
1.3363
1.20505
1.11599
1.06788
1.04245
1.02677
1.01454
1.00267
0.98978
0.975036
0.957511
0.93612
1.32539
1.20341
1.11491
1.06566
1.03902
1.02237
1.00944
0.997114
0.983954
0.96911
0.951641
0.930409
1.31419
1.20175
1.11393
1.06361
1.03576
1.01816
1.00454
0.991752
0.978313
0.963363
0.945938
0.924895
1.30271
1.20006
1.11306
1.06174
1.0327
1.01413
0.999829
0.986574
0.972858
0.957784
0.940367
0.919217
1.29095
1.1983
1.11229
1.06002
1.02982
1.0103
0.995304
0.981583
0.96758
0.952381
0.934984
0.914341
1.27892
1.1965
1.11162
1.05849
1.02714
1.00666
0.990977
0.976787
0.962509
0.947196
0.929851
0.909465
1.26664
1.19462
1.11107
1.05712
1.02465
1.00322
0.986846
0.97219
0.957624
0.942179
0.924857
0.904703
1.25406
1.19272
1.11061
1.05595
1.02236
0.999989
0.982918
0.967788
0.952933
0.937353
0.920044
0.899988
1.24123
1.19074
1.11027
1.05495
1.02028
0.996961
0.979191
0.96359
0.948437
0.932712
0.915394
0.895413
1.22814
1.18868
1.11003
1.05413
1.01841
0.994146
0.975675
0.959593
0.944142
0.928271
0.910932
0.890905
1.21477
1.18658
1.10992
1.05352
1.01675
0.991553
0.972373
0.955805
0.940043
0.924006
0.90661
0.886637
1.20111
1.18445
1.10991
1.0531
1.01533
0.98919
0.969291
0.952226
0.936149
0.919942
0.902494
0.88249
1.18719
1.18217
1.11002
1.05289
1.01414
0.987057
0.966438
0.948865
0.932464
0.916073
0.898548
0.878546
1.17299
1.17986
1.11023
1.05289
1.0132
0.985175
0.963819
0.945734
0.928997
0.912418
0.89482
0.874731
1.15851
1.17746
1.11056
1.05311
1.0125
0.983536
0.96144
0.942826
0.925741
0.908955
0.891261
0.871237
1.14374
1.17501
1.11101
1.05355
1.01206
0.982162
0.959309
0.940155
0.922711
0.905714
0.887922
0.867918
1.1287
1.1725
1.11156
1.05422
1.0119
0.981055
0.957443
0.937738
0.919929
0.902718
0.884827
0.864732
1.11338
1.16986
1.11224
1.05512
1.012
0.980231
0.955844
0.935572
0.917387
0.899946
0.881954
0.861839
1.0978
1.16708
1.11304
1.05626
1.01239
0.9797
0.95452
0.93367
0.915089
0.897407
0.879301
0.859253
1.08194
1.16426
1.11395
1.05765
1.01308
0.979471
0.95349
0.932041
0.913054
0.895131
0.876919
0.856793
1.06579
1.16129
1.11498
1.0593
1.01409
0.979558
0.952766
0.930702
0.911284
0.893088
0.874721
0.854602
1.04937
1.15823
1.11612
1.06121
1.01542
0.979986
0.952364
0.929669
0.909807
0.89133
0.872806
0.85258
1.03266
1.15516
1.11739
1.06341
1.01709
0.980768
0.952306
0.928956
0.908628
0.889858
0.871159
0.850813
1.01566
1.15187
1.11879
1.06589
1.01913
0.98192
0.95261
0.928575
0.907761
0.888662
0.869744
0.849221
0.998367
1.14851
1.12033
1.06867
1.02155
0.983472
0.953292
0.928557
0.907231
0.887788
0.868654
0.847966
0.980788
1.14506
1.12197
1.07176
1.02435
0.985434
0.954377
0.928919
0.907057
0.887256
0.867907
0.847128
0.962937
1.14134
1.12374
1.07516
1.02757
0.987843
0.955891
0.929685
0.907272
0.887114
0.867573
0.84658
0.94479
1.13757
1.12563
1.07889
1.03122
0.990706
0.957853
0.930863
0.907864
0.887291
0.867453
0.84592
0.926352
1.13368
1.12762
1.08296
1.03533
0.994054
0.96028
0.932477
0.908845
0.887816
0.867646
0.845769
0.907636
1.12956
1.12977
1.08737
1.03991
0.997912
0.963212
0.934564
0.910269
0.88877
0.868293
0.846139
0.888612
1.12537
1.13203
1.09217
1.045
1.00234
0.966692
0.93717
0.912169
0.890155
0.869291
0.846811
0.869298
1.12089
1.13446
1.09735
1.05063
1.00735
0.970772
0.94034
0.914605
0.892053
0.870827
0.848134
0.849689
1.11626
1.13697
1.10294
1.05683
1.01301
0.975491
0.944118
0.91761
0.894493
0.872899
0.850035
0.82981
1.11156
1.13963
1.10894
1.06365
1.01935
0.980901
0.94856
0.921225
0.897512
0.875529
0.852275
0.809632
1.10658
1.14242
1.1154
1.0711
1.02642
0.987039
0.95369
0.925469
0.901054
0.878503
0.854447
0.789142
1.10137
1.14537
1.12232
1.07925
1.03429
0.993982
0.959575
0.93041
0.905241
0.882115
0.857635
0.768367
1.0959
1.14845
1.12973
1.08813
1.04302
1.00181
0.966315
0.936155
0.910201
0.886545
0.861772
0.747313
1.09039
1.15166
1.13769
1.09784
1.05268
1.01061
0.97398
0.942742
0.915903
0.891537
0.866191
0.725943
1.08449
1.15506
1.14623
1.10841
1.06339
1.02047
0.982669
0.950279
0.922468
0.897354
0.87133
0.704274
1.07833
1.15865
1.15541
1.11995
1.07524
1.03152
0.992499
0.958866
0.92996
0.903949
0.877232
0.682325
1.07212
1.16246
1.1653
1.1326
1.08838
1.04392
1.00364
0.968664
0.938561
0.911594
0.884164
0.660038
1.0655
1.16658
1.17603
1.14647
1.10298
1.05783
1.01623
0.979808
0.948387
0.920324
0.891838
0.637435
1.05871
1.17108
1.18772
1.16178
1.11924
1.07346
1.03047
0.992428
0.959515
0.930226
0.900795
0.614456
1.05168
1.1761
1.20068
1.17877
1.13745
1.09105
1.04653
1.00669
0.972054
0.941306
0.910713
0.591106
1.04465
1.18204
1.21524
1.1979
1.15794
1.11089
1.06469
1.02282
0.986234
0.953909
0.922146
0.567266
1.03778
1.18948
1.2321
1.21965
1.18112
1.13331
1.08519
1.04099
1.00215
0.967944
0.934735
0.542871
1.03234
1.19961
1.25219
1.24467
1.2074
1.15854
1.10819
1.06135
1.01988
0.983436
0.948313
0.517797
1.03183
1.21566
1.2779
1.27424
1.23763
1.18732
1.13445
1.08448
1.03991
1.00067
0.963312
0.488283
1.03314
1.23055
1.3042
1.30246
1.26654
1.21508
1.16087
1.10785
1.06087
1.01879
0.979742
1.04043
0.00467964
0.347279
0.321691
0.320629
0.288803
0.279231
0.646821
0.83075
0.777761
0.56768
0.0077783
0.0326074
3.01821
0.276882
0.00354985
2.83058
0.110594
0.10763
0.00348327
0.140531
0.17607
0.144773
0.026902
1.05588
0.346368
0.159955
0.374821
0.604511
0.812753
0.537934
1.16679
0.00420029
0.55817
0.0311314
0.16585
0.387311
0.4707
0.393032
0.00818193
0.0704383
0.00337722
0.0716528
0.531279
0.26848
0.173043
0.0608305
0.0248465
0.271417
0.139979
0.164008
0.634564
0.263029
0.00321463
1.98755
0.00444652
0.0106612
0.00337417
0.471398
0.266249
0.155675
1.19153
0.0032091
0.0168795
0.183522
0.00453239
0.888546
0.252394
1.53218
0.689045
1.88369
0.0535601
0.383387
0.728834
0.027366
0.00323007
0.797378
0.00309477
0.0701882
0.241043
0.103457
0.00310384
0.405757
0.295331
0.0163624
1.11884
0.884198
0.00319468
0.390899
0.23782
0.353776
0.653619
0.00319826
0.00392181
0.456884
0.00326186
0.362263
0.0128349
0.00317208
0.898729
1.10839
0.2036
0.00335315
0.00434024
0.00312134
0.514855
0.512113
0.68948
0.532963
0.00884228
0.094459
0.00312704
0.202537
0.00372664
0.00318215
0.219865
0.0195208
0.219909
1.09309
0.176086
1.02416
0.0293367
1.69954
0.199609
0.125638
1.29213
0.0040539
1.96529
0.0323745
0.00320012
0.231681
0.00323636
0.233204
0.00434503
0.162725
0.00514868
0.233341
0.595827
0.207997
0.00585641
0.017018
0.145359
0.269583
0.0254169
0.174627
1.89701
0.298925
0.00454259
0.982875
0.374143
0.0639256
0.21399
0.00309223
0.1147
0.156485
0.00314727
0.248516
0.00320191
1.27973
0.00708451
0.0270371
0.00356915
0.128054
0.0132864
0.149711
0.0844209
0.984625
0.291734
0.335173
0.00307306
1.88793
0.758255
1.99233
0.0179128
0.00305943
0.57442
0.00311686
0.305959
0.13797
0.719485
1.00914
0.437973
0.0629106
0.371209
0.00339027
0.262721
0.00317796
0.00315336
0.175371
0.00318555
0.487503
0.00310668
0.936774
0.00475716
0.284077
0.296464
0.271747
0.165116
0.00312701
3.17512
1.01973
0.318225
0.414009
0.217234
0.3249
0.104982
0.0915229
0.228875
0.703223
0.216912
0.288277
0.899856
0.500549
0.396598
0.00315442
0.283573
0.0129662
0.427269
3.25192
0.21034
0.294695
1.02087
0.338924
0.00315694
0.00318817
1.30851
1.11816
0.00327017
4.20571
0.0323973
0.31248
0.121359
0.00311781
0.947156
0.41404
0.253639
0.24629
1.07875
0.656675
0.32218
0.154737
0.161341
1.25499
1.68669
0.375271
0.281843
0.228004
0.00350583
1.39574
0.289877
0.650552
0.726554
0.378858
3.95145
0.236741
0.24035
0.210262
0.310483
0.577927
0.341738
0.216355
0.258166
0.0157524
0.0899435
0.683896
0.26186
0.921834
0.506941
0.36122
1.49119
0.287893
0.0502735
1.63917
0.209103
0.208354
1.69556
0.242326
0.26047
0.301853
0.203629
0.866162
0.238796
0.372666
0.331599
0.614009
0.273121
0.474349
0.207986
1.12056
0.128559
0.201705
1.66844
0.226326
0.224879
0.283029
0.919813
0.11967
0.206082
0.0677538
0.480385
0.183603
0.106043
1.36652
2.05723
0.154237
0.953893
0.323554
0.00318779
0.201385
0.166086
0.211122
0.288944
0.00315764
1.18608
0.320053
0.0673778
0.225814
0.762103
0.00315195
0.638748
0.0388318
0.579438
0.422511
4.92943
0.50335
0.758214
0.538917
0.0031388
0.00316291
0.285071
0.446985
0.00307785
0.517169
0.00311575
0.00316225
0.00322458
0.00311707
0.140352
0.0031637
0.00580724
1.03817
0.51228
0.003229
0.33495
0.00986961
0.195856
0.295638
1.28808
4.14593
0.480932
0.00301266
0.00323869
0.0819332
0.134169
0.208969
0.00306428
0.0988522
0.31587
0.878343
0.377681
0.177672
0.273331
1.02585
4.08608
0.157043
0.325424
0.00364894
0.00318514
0.15899
0.257968
0.116347
0.173486
0.50585
2.74395
1.69518
0.143778
0.343354
1.01398
0.00319832
0.419709
0.753317
0.00527008
0.00316285
0.520364
3.82698
0.734951
0.0030802
0.0489134
0.154718
0.0256662
0.00319878
0.833156
0.382576
0.277406
0.282047
0.00374804
3.81385
0.00314284
0.235765
0.544642
0.00648977
0.0111321
0.962397
0.00879594
1.40915
0.767049
1.15094
0.653398
0.172261
0.681596
0.00313953
0.00309426
0.00317226
1.0382
0.0754452
1.26246
2.76245
0.164684
0.592038
0.00317906
0.0108885
0.274328
0.00308086
0.00317181
0.703312
0.00306884
0.227862
0.91622
0.371921
0.0030304
0.00749435
0.11056
0.116027
0.237008
0.144939
0.00310504
3.34306
0.836601
0.109464
0.0123915
0.327418
0.199609
0.00711713
0.279645
0.00690359
0.845955
0.00352808
0.25028
0.133081
0.00311624
1.30253
0.238402
0.322171
0.00930024
0.471167
0.144097
0.00516775
0.217481
0.49011
0.352275
1.10889
0.0240604
0.0508852
0.0115444
1.3119
0.676216
0.0630081
0.137537
0.163154
0.334909
0.182118
0.511048
1.10338
0.00304587
2.04912
0.914747
0.22661
0.00309808
0.267677
0.962919
0.0254
0.436752
0.348873
0.256694
0.126689
0.17716
0.259425
0.00358632
0.0189226
0.875427
0.0391467
0.00438409
0.922994
4.08724
0.0395542
0.199918
0.788731
0.0903957
0.491417
0.259247
0.84352
0.321178
0.291011
0.00323001
0.085159
0.447619
0.382319
1.33264
0.214196
1.42346
0.937578
3.75161
0.888424
0.310465
0.00316689
1.26377
0.204172
0.801478
0.41632
0.163698
0.0843976
0.426379
0.00321464
0.297442
0.00317781
0.340908
0.421474
0.213244
0.175093
1.27205
0.241275
1.04313
0.642537
1.97745
0.00321787
0.123817
0.933028
2.44909
0.196057
0.717387
0.00361705
0.0282416
0.350158
1.85805
0.592071
0.00310243
0.0582142
0.00312257
0.058675
0.351296
0.0375747
0.846553
0.142925
0.589652
0.155805
0.125156
1.23012
0.709025
0.00319514
0.00319639
0.257744
1.21744
0.275667
0.598373
0.441185
0.667279
0.266664
0.00302421
0.187483
0.253721
0.00485889
1.04912
0.265178
0.176398
0.274362
0.0127503
0.00302575
0.0237157
0.00313933
0.647003
0.817632
0.709545
0.638015
0.00319301
1.47798
0.0898594
0.742936
0.135419
1.73205
0.00863147
0.154629
0.00307429
0.497121
0.716682
0.315663
0.409517
0.00300912
1.30151
0.805766
0.51092
0.0031165
0.0708106
0.813724
0.617735
0.00610371
2.17319
0.00373889
0.804909
0.614358
0.00363001
0.131705
0.0877133
0.202465
0.00310546
0.00319887
1.15752
0.431732
0.322111
0.526597
0.00488034
0.128018
0.0982535
0.768733
0.208387
0.00395802
0.208958
1.20887
0.00307798
0.00821114
0.286341
0.635154
1.11598
0.00315807
0.729463
0.221409
1.30839
0.0298658
0.151729
0.816478
0.00319984
0.19939
0.137881
0.37623
0.38323
0.72575
0.276356
1.21683
1.17677
0.282342
2.70751
0.00323653
0.00315036
1.49683
0.783414
0.00475834
0.00315675
0.47329
0.00320625
0.823538
0.540416
0.248003
0.00311692
0.808006
0.0528044
0.291439
1.2159
0.235441
0.148487
0.145171
1.3466
0.0031921
0.285517
0.98139
0.234573
0.557144
0.0067349
0.533321
0.26323
2.03171
0.00313014
0.148855
0.683493
0.305764
0.00332092
0.0952775
0.342213
0.439254
1.26951
0.0592467
1.87615
0.406355
0.0928115
0.404947
0.00313421
0.00737406
0.36285
0.00306756
0.175324
0.00316528
0.244709
0.010777
0.839398
0.00321716
0.110614
0.493983
1.61049
0.356768
0.66971
0.163536
2.44822
0.015601
0.0934738
0.571684
0.00309934
0.00320601
0.380317
0.15599
0.248861
0.390745
0.00328409
0.216262
0.218751
0.201014
0.492256
1.14796
0.200082
0.00319667
1.88293
2.4247
0.506884
0.00323832
0.0108324
2.09357
0.260464
0.00311981
1.2942
0.00310058
0.0804512
2.74538
0.00354802
0.291516
0.00314941
0.0566046
0.751413
0.00324368
0.00401683
0.00318308
0.00379974
0.0216759
3.81079
0.804902
0.0938798
0.242122
0.00316397
0.765262
0.00317339
0.247961
0.232681
0.0247917
0.159726
0.0139075
1.15083
0.00318437
4.32674
0.218104
0.62894
0.351547
0.162989
0.00309675
0.193426
1.0975
0.129307
0.752191
0.885858
1.69351
0.349789
0.0419534
0.627653
0.0840572
0.00406546
0.106664
2.47078
1.14858
0.119972
0.00841542
0.297527
0.00375573
0.443596
0.87182
1.08629
0.842654
0.896103
0.0371931
0.00583129
0.326013
0.224545
0.0483545
0.26954
0.00316113
0.261373
1.96547
0.00330246
1.69673
0.783059
0.11451
0.101906
1.45046
0.0236505
0.101382
0.457501
0.310608
0.294055
0.00322322
0.673813
0.0762895
0.271374
0.383104
0.19905
0.222821
0.0068567
0.688659
0.00317337
0.00316055
0.228443
0.104931
0.160082
1.91838
0.00303362
1.1406
0.0645953
0.0578612
0.00338871
1.72212
0.363692
0.0899411
0.784395
0.0597841
1.16006
0.154576
0.00314251
1.1938
2.08909
0.00546319
0.00876176
0.203572
1.03746
0.099344
1.32469
0.0352528
0.233434
0.104114
0.156945
0.680783
0.203269
0.00318776
1.17557
0.3289
0.0151606
0.197047
4.25549
0.276484
0.00317662
0.00307083
0.763958
0.184105
1.01342
0.00306549
0.714941
0.295881
0.4085
0.00376672
0.313993
0.777119
0.00538424
0.258611
0.00321636
1.12316
0.211122
0.345419
0.262384
0.0031461
0.00314548
0.345528
1.40565
0.385868
0.732275
0.00302941
0.0453992
0.00320823
0.00626104
1.15966
0.0741949
0.0970903
0.124844
0.3254
0.305698
0.356454
1.21006
0.00317283
0.304369
0.731843
0.245599
0.00319248
0.942981
0.00320551
0.00316624
0.0885538
0.212025
0.0251568
1.36378
0.203266
2.80189
0.00328516
0.00475987
0.0397654
0.903237
0.305942
0.962707
0.00316825
0.00314851
0.00629101
0.00835779
1.10544
0.80562
0.640746
0.123513
0.0448817
0.315454
0.164184
0.578046
0.275849
0.879323
0.312588
0.00308097
0.332957
0.00536845
0.194541
0.888854
0.184438
0.231678
0.133246
0.00380948
1.34357
0.51624
0.488792
0.314565
0.00315935
0.588621
0.762325
0.334189
0.00824846
0.912876
0.479552
0.838341
0.328753
0.336666
0.589999
0.120035
0.861557
0.258436
0.0979449
0.23626
0.00317893
1.21427
0.862534
0.00311818
0.684424
0.00477355
0.538056
0.204626
0.237202
0.266723
0.730697
0.952823
0.262283
0.131316
0.174772
0.219521
0.0125441
0.00310403
1.02771
0.0615686
0.937871
0.549788
0.224451
0.834392
0.544987
0.00314509
0.278272
1.53424
1.06104
0.22678
0.239329
0.570548
1.89693
0.190827
0.234612
0.0249266
0.0837333
0.546919
1.19602
0.111614
0.841929
0.821052
0.785669
0.23981
0.231239
0.425347
0.69248
0.00319155
1.94138
0.669895
0.204902
0.00319069
0.592221
0.474244
0.294888
0.00317432
0.591395
0.00317257
0.243185
0.0912069
0.00319455
0.823122
0.34766
0.00310567
0.531853
0.373576
0.608685
0.258806
0.519357
0.279624
0.70562
0.16922
0.157302
0.0031293
0.00470781
0.343456
0.17337
0.0241813
0.00322957
0.354908
0.00604253
0.11974
0.11853
0.445602
0.207217
0.0574854
0.094306
0.549461
1.63677
0.329558
4.11836
0.869948
0.00311844
0.541055
0.588906
1.67722
0.00312663
0.173334
0.00318786
0.00359145
0.277311
0.28968
0.0391232
0.00340813
0.805784
3.72587
0.00739122
0.00317652
0.129298
0.26284
0.0240148
0.074028
3.85269
0.14053
0.00339048
0.00317759
0.968965
0.262656
0.135658
0.0592728
0.651831
1.13162
0.392039
0.247355
0.679273
0.00317322
0.502106
0.00315977
0.2311
0.274239
5.38211
0.178285
0.089787
0.00382888
1.18542
0.0031945
0.00313403
0.00585658
0.272503
0.287315
0.976894
0.00314931
0.507509
0.00317251
0.692908
0.977026
0.00320493
0.725385
0.224942
0.00317312
0.003302
0.0319595
1.107
0.383581
0.0264302
0.00317448
0.00313267
0.848818
0.685843
0.327443
0.753763
0.117715
0.438684
0.00314896
0.0103081
0.382782
0.810775
0.759218
0.00887441
0.00317631
0.397884
0.00319765
0.203656
0.805821
0.353803
0.0431324
0.200874
0.506241
0.157165
0.00316975
0.513235
1.33262
0.648211
0.00643953
0.0306016
0.690171
3.69241
0.054832
0.373618
0.00311028
0.00308662
0.00321466
0.0187748
0.401785
1.07533
0.0106381
0.220963
0.633796
1.23458
0.206184
0.0197093
0.00796513
0.00757764
0.158454
0.171389
0.236822
0.00322348
1.34438
0.00314332
0.0136486
0.844103
0.852798
0.0364417
0.372627
0.468018
0.00409966
0.130302
0.255522
0.0031548
0.00378115
1.12364
0.00365633
0.0032248
0.707201
0.235403
2.09312
0.209234
2.41295
0.0035601
0.00311456
3.24555
0.296063
0.225182
0.498351
0.0603849
0.23267
0.196448
1.02128
0.814452
0.588438
0.582159
0.233364
0.111202
0.321624
0.728483
0.0146467
0.351364
0.00392224
0.439641
0.366644
0.107037
0.3842
0.188518
0.413262
0.207826
0.262205
1.11055
0.459696
0.215639
0.317339
0.710608
0.326048
0.00421306
0.00315953
0.110974
2.22812
0.00316167
1.78868
0.00312462
0.00989576
0.340449
0.221513
0.820366
0.680526
0.90293
1.13978
0.522412
0.386312
0.00316722
0.290806
1.05801
0.00323919
1.24752
0.00714145
1.70947
0.940745
1.13398
0.27418
0.206248
0.283822
0.0918317
0.284545
1.23595
0.360717
0.780105
0.169783
0.203114
0.0853602
0.231789
0.954607
0.00955107
0.666213
0.00319427
0.00393368
0.300187
1.51814
0.338425
0.273877
0.164397
0.110658
0.121719
0.00346911
0.341058
0.00346713
0.706271
0.0034177
0.0580557
0.943372
0.171747
0.306224
0.334145
0.318419
0.00623873
0.00321488
0.0992139
0.26685
0.114792
0.517125
0.0424891
0.366005
0.240229
0.374553
0.791887
0.00359417
0.00314782
1.68888
0.226531
0.17197
0.810849
0.688074
0.817511
0.00987746
1.6851
0.335817
0.213181
0.00347791
0.196884
0.403687
0.205471
0.20769
0.266013
0.00323052
0.47282
0.00313412
0.628366
0.0106726
0.439912
0.118029
0.409472
0.00324326
6.54517
0.00319251
1.51035
0.0256247
0.00317521
0.0145896
0.274988
0.0031708
0.00318046
0.396713
0.0328007
0.327485
0.0569747
0.00332657
0.219011
0.186432
0.445038
0.00334116
0.224017
0.189914
1.35628
0.707049
0.394664
0.415651
0.215743
0.306524
0.77869
0.832201
0.211256
0.00322413
0.144982
0.362372
0.306294
0.00471738
0.00855448
0.234355
1.57399
0.00318406
0.206213
1.23524
0.0030502
0.849491
0.935664
0.357295
0.59476
0.796722
0.259116
0.130021
2.59054
0.411443
0.885045
0.821634
0.222447
0.107474
0.0031663
0.420485
0.00587386
0.00321787
0.00313424
0.300503
0.00316628
0.00373359
0.537587
4.05817
0.406874
0.212521
0.833676
0.239572
0.00318231
0.165949
1.14392
0.0252579
0.164312
1.01886
0.313027
0.125563
0.0312047
0.00314371
0.00316817
0.0272922
0.0449047
0.30286
0.300024
1.23613
0.267423
0.268767
0.00395527
0.503349
0.213648
0.0032118
0.342783
3.37841
0.00320844
0.362601
1.01675
0.739217
0.656231
0.189833
1.10296
0.00356291
0.210178
0.00331889
0.00633605
0.00320971
0.834957
0.568406
0.0741223
0.00319328
0.00307302
1.11328
0.38681
0.289147
0.235339
0.354448
0.435297
0.306068
0.349798
0.350063
0.0031772
0.151145
0.123571
0.136292
0.385267
1.05903
0.767541
0.590846
0.363254
1.11591
0.826541
0.962787
0.416053
0.881288
0.0646936
0.825125
0.393182
0.0281122
1.01262
0.855657
0.447061
0.00311411
0.00320084
0.00361068
0.00444227
0.472258
0.00304526
0.494353
0.165106
0.996355
0.766662
0.00317141
0.47412
0.283363
0.186893
0.275982
0.390327
0.552598
0.00326536
0.00319927
0.0091107
0.100506
0.0031325
0.637531
0.267316
0.252905
0.760161
0.514462
0.441408
0.532105
0.00316788
0.31922
0.66891
0.00381433
0.0789195
0.40925
0.315007
0.53739
0.193261
0.00325603
0.375604
0.358478
0.00385256
0.0204882
0.0031579
0.178806
0.00440654
0.143909
1.28731
0.111583
0.0734994
1.00128
1.81233
0.00326942
0.628681
0.00305253
0.224947
0.346929
0.247833
0.48394
0.690983
0.676712
0.802282
1.22322
0.746559
0.00317862
0.00314518
0.053166
0.101362
0.606336
0.172288
0.00319365
1.58793
0.253876
0.00825232
0.788263
0.0586868
0.0081673
0.040379
0.997554
0.0064687
0.00319498
0.258414
0.20596
0.640685
0.118079
0.226237
0.202911
0.00321392
0.291308
0.0902578
0.0600204
0.00337569
0.202623
0.534161
0.17363
1.44905
1.33509
0.316563
0.413339
0.00316339
0.359734
0.00319504
2.72995
0.0103343
0.430706
0.0942178
0.840186
0.0163723
0.00933603
0.248219
0.307681
1.30272
0.0035645
0.212051
0.482248
0.609106
0.185495
0.999347
0.120649
0.00343501
0.00320506
0.479035
0.635439
1.06289
0.289387
0.0848589
0.530366
0.328543
0.818823
0.0459994
0.0031692
0.00318278
0.122246
0.707403
0.689773
0.992745
0.00353325
0.0109592
0.167903
0.452418
0.268515
0.75894
0.349943
0.878977
0.00319888
0.00320951
1.13636
0.275253
0.885122
2.87773
0.360023
0.0246299
1.41126
0.00318401
1.02328
0.0277131
0.0308201
0.00317113
0.0417882
0.0845494
0.837135
0.794049
0.00322673
0.758384
0.00316009
0.601103
1.5658
0.00314505
0.157315
0.00322657
0.259066
0.127512
0.174658
0.00308784
0.26205
0.211774
0.257313
1.02346
0.170143
1.22455
0.217396
0.833264
0.237387
1.11737
0.637758
0.00384232
0.0032086
0.375464
0.195054
0.823391
0.00317726
2.1115
0.00315893
0.00478173
0.0386789
0.00316023
1.14219
0.974288
0.00324379
0.665306
0.256598
0.102505
0.709148
0.00608295
0.00312917
0.422992
0.385812
0.00976688
0.77622
6.66844
1.35805
0.155262
1.19704
0.104325
0.00318524
0.003688
0.0351714
0.13705
0.844088
1.08981
1.31546
0.795454
0.53162
0.509073
0.257684
0.651687
1.94349
0.590988
0.0430384
0.0782994
0.278622
1.50639
0.00338229
0.194243
0.655328
0.333453
0.00317285
0.423975
0.00305913
0.013863
0.843716
0.00338751
0.298138
1.84975
0.00318984
0.352622
0.00351429
0.337236
0.0141124
0.00406703
0.766846
0.25522
0.915326
0.399626
1.12043
1.64646
0.489667
0.175832
0.75198
0.388392