/*--------------------------------*- C++ -*----------------------------------*\
| =========                 |                                                 |
| \\      /  F ield         | OpenFOAM: The Open Source CFD Toolbox           |
|  \\    /   O peration     | Version:  2.3.1                                 |
|   \\  /    A nd           | Web:      www.OpenFOAM.org                      |
|    \\/     M anipulation  |                                                 |
\*---------------------------------------------------------------------------*/
FoamFile
{
    version     2.0;
    format      ascii;
    class       volVectorField;
    location    "0.43";
    object      U;
}
// * * * * * * * * * * * * * * * * * * * * * * * * * * * * * * * * * * * * * //

dimensions      [0 1 -1 0 0 0 0];

internalField   nonuniform List<vector> 
15166
(
(5.97415 0.55995 3.19262e-19)
(7.18687 1.0344 1.59833e-18)
(8.26912 0.902224 -8.93918e-19)
(9.30114 0.956287 8.01658e-19)
(10.0961 1.02018 8.23904e-19)
(10.8728 1.07497 4.34219e-19)
(11.5267 1.17339 -8.59447e-19)
(12.0688 1.23916 8.32934e-19)
(12.4641 1.3335 -4.22514e-19)
(12.7711 1.39298 1.67136e-18)
(12.997 1.44844 -1.22759e-18)
(13.1507 1.50675 1.2217e-18)
(6.66626 1.02634 4.88962e-19)
(7.60233 1.42494 5.24176e-20)
(8.55511 1.20941 2.74531e-20)
(9.47687 1.22949 4.56062e-19)
(10.2373 1.24939 -3.95974e-19)
(10.9651 1.27588 0)
(11.5823 1.3375 4.24996e-19)
(12.0879 1.38343 1.45102e-21)
(12.4664 1.44386 4.18281e-19)
(12.76 1.48567 -8.43315e-19)
(12.9763 1.52572 1.65656e-18)
(13.1343 1.56466 -1.23419e-18)
(7.20881 1.25744 -4.63315e-19)
(8.03772 1.56824 -2.47784e-18)
(8.89949 1.37643 4.88098e-19)
(9.72206 1.41051 -9.2523e-19)
(10.4314 1.41722 -1.65947e-20)
(11.1024 1.4329 8.83959e-19)
(11.6751 1.4725 -1.26953e-18)
(12.1419 1.5034 -4.35678e-19)
(12.4972 1.54161 8.31575e-19)
(12.7724 1.56901 5.99649e-21)
(12.9765 1.59526 -1.23782e-18)
(13.13 1.62005 1.62274e-18)
(7.51497 1.37415 0)
(8.35051 1.62662 -1.08475e-18)
(9.1812 1.47817 2.54395e-18)
(9.94686 1.5264 -1.44503e-18)
(10.6199 1.53135 9.25217e-19)
(11.2455 1.54614 1.36572e-18)
(11.7793 1.57483 -4.23921e-19)
(12.2125 1.59687 4.35687e-19)
(12.5453 1.62121 -8.51509e-19)
(12.8022 1.638 8.41199e-19)
(12.9948 1.65294 4.17392e-19)
(13.1436 1.66611 8.27378e-19)
(7.72626 1.44769 -6.25605e-19)
(8.59213 1.66234 -5.80139e-19)
(9.4074 1.55332 -1.57518e-18)
(10.1389 1.60714 1.48592e-18)
(10.7879 1.61245 -4.70691e-19)
(11.3802 1.62865 -4.56004e-19)
(11.8832 1.65149 -4.44765e-19)
(12.2893 1.66818 4.51098e-19)
(12.6024 1.68382 -4.29768e-19)
(12.8433 1.69333 -4.2341e-19)
(13.0254 1.70074 -1.26302e-18)
(13.1673 1.70715 -4.66303e-21)
(7.91394 1.49912 1.23982e-18)
(8.809 1.68488 1.17536e-18)
(9.6077 1.6096 -1.09921e-18)
(10.3125 1.66477 2.07584e-18)
(10.9416 1.67168 -1.98427e-18)
(11.5069 1.68943 9.50148e-19)
(11.9844 1.70865 0)
(12.3682 1.72173 9.05103e-19)
(12.6643 1.73167 -1.76269e-18)
(12.8914 1.73605 8.61686e-19)
(13.0637 1.73803 0)
(13.1986 1.73918 1.25607e-18)
(8.08673 1.53348 -6.74561e-19)
(9.01015 1.69518 6.20858e-19)
(9.79251 1.64856 0)
(10.475 1.70357 0)
(11.0855 1.71329 5.19044e-19)
(11.6276 1.73265 4.97747e-19)
(12.0831 1.74964 -9.51082e-19)
(12.4478 1.7603 1.38421e-18)
(12.729 1.76635 4.54177e-19)
(12.9442 1.76688 0)
(13.1081 1.76441 4.35618e-19)
(13.2377 1.76129 0)
(8.2413 1.55408 -1.36301e-18)
(9.19344 1.69576 1.25571e-18)
(9.96195 1.67312 5.74764e-19)
(10.6262 1.72708 5.61859e-19)
(11.2202 1.74014 -2.61898e-18)
(11.7421 1.76103 5.09623e-19)
(12.1786 1.77682 0)
(12.5268 1.78597 -4.65743e-19)
(12.7951 1.78948 4.6485e-19)
(13 1.78738 2.75893e-21)
(13.1564 1.78195 -8.70967e-19)
(13.2797 1.77622 8.59055e-19)
(8.37886 1.56384 1.40249e-18)
(9.35934 1.6891 -1.29109e-18)
(10.1165 1.6865 5.90131e-19)
(10.766 1.73876 -1.69057e-18)
(11.3454 1.75508 2.1563e-18)
(11.85 1.77722 -2.06472e-18)
(12.2701 1.79242 9.94019e-19)
(12.6042 1.80071 0)
(12.8613 1.80264 4.72815e-19)
(13.0573 1.79882 0)
(13.2072 1.79134 9.01304e-19)
(13.3251 1.78315 -4.37021e-19)
(8.50257 1.56511 1.44215e-18)
(9.5105 1.67691 0)
(10.2581 1.69109 6.23212e-19)
(10.8953 1.74124 5.88049e-19)
(11.4617 1.76049 5.58627e-19)
(11.9514 1.78352 5.34331e-19)
(12.3573 1.79846 0)
(12.6792 1.80627 0)
(12.9268 1.80723 -1.4273e-18)
(13.1151 1.80232 2.33094e-18)
(13.2592 1.79355 -9.02375e-19)
(13.372 1.78519 -1.33966e-18)
(8.61515 1.55966 1.47152e-18)
(9.64944 1.66036 -2.01463e-18)
(10.3889 1.68854 1.89418e-18)
(11.0155 1.73636 -1.77345e-18)
(11.57 1.75811 -5.56649e-19)
(12.0466 1.7817 -5.33013e-19)
(12.4402 1.79653 1.03605e-18)
(12.7515 1.80408 -1.00409e-18)
(12.9908 1.8045 -1.46305e-18)
(13.1726 1.79894 -4.67484e-19)
(13.3117 1.78905 1.85645e-18)
(13.4196 1.77932 -8.93815e-19)
(8.7183 1.54867 -1.50751e-18)
(9.77784 1.64011 -2.05007e-18)
(10.5104 1.67997 -3.18125e-19)
(11.1276 1.72538 1.21225e-18)
(11.6713 1.74921 8.56838e-19)
(12.1362 1.77308 -2.20012e-18)
(12.5188 1.78789 2.11541e-18)
(12.821 1.79532 -3.85526e-21)
(13.053 1.79553 -1.49091e-18)
(13.2291 1.78985 9.65915e-19)
(13.3634 1.7798 -4.66314e-19)
(13.4666 1.76923 9.05375e-19)
(8.81316 1.53309 -1.14845e-18)
(9.89688 1.61676 -3.53596e-19)
(10.6237 1.6663 3.22582e-19)
(11.2324 1.70926 0)
(11.7661 1.73477 2.89654e-19)
(12.2206 1.75871 -2.82756e-19)
(12.5935 1.77352 0)
(12.8876 1.7809 0)
(13.113 1.78105 2.54169e-19)
(13.2838 1.77545 0)
(13.413 1.76581 0)
(13.5104 1.75536 -9.15785e-19)
(8.90072 1.51365 -3.86903e-19)
(10.0077 1.59072 3.51946e-19)
(10.7296 1.64826 0)
(11.3305 1.68878 0)
(11.8551 1.71561 1.18755e-18)
(12.3002 1.7394 -8.60595e-19)
(12.6645 1.75416 1.09228e-18)
(12.9513 1.76145 -1.06067e-18)
(13.1711 1.76141 7.67867e-19)
(13.3374 1.75534 -5.67747e-21)
(13.4631 1.74486 -1.93841e-18)
(13.5578 1.7372 1.17929e-18)
(8.98173 1.4909 -1.59e-18)
(10.111 1.5623 0)
(10.8289 1.62643 1.34309e-18)
(11.4227 1.66457 -1.5964e-18)
(11.9388 1.69237 0)
(12.3753 1.71588 2.91867e-19)
(12.7319 1.73057 1.10936e-18)
(13.0123 1.73782 -2.41964e-18)
(13.2272 1.73791 2.08195e-18)
(13.3896 1.7322 -1.01445e-18)
(13.5123 1.72174 9.81245e-19)
(13.6039 1.70849 -1.19471e-18)
(9.05685 1.46534 3.47832e-21)
(10.2075 1.5318 7.35605e-19)
(10.9223 1.60132 0)
(11.5094 1.63713 3.19709e-19)
(12.0176 1.66562 0)
(12.4464 1.68875 8.79674e-19)
(12.7959 1.70334 -7.81706e-21)
(13.0707 1.71057 -8.23948e-19)
(13.2811 1.71079 0)
(13.4399 1.70541 -2.58301e-19)
(13.5592 1.6954 2.51257e-19)
(13.6479 1.68079 0)
(9.12666 1.43738 4.02375e-19)
(10.2979 1.49944 -1.11947e-18)
(11.01 1.57331 1.03882e-18)
(11.5911 1.60685 -4.57407e-21)
(12.0919 1.6358 3.09101e-19)
(12.5136 1.65845 -2.97815e-19)
(12.8568 1.67291 0)
(13.1264 1.6801 0)
(13.3329 1.68041 1.06748e-18)
(13.4885 1.67524 -7.85936e-19)
(13.6046 1.66575 -5.05968e-19)
(13.6901 1.65216 -2.45538e-19)
(9.19155 1.40725 4.11439e-19)
(10.3828 1.46534 3.72738e-19)
(11.0929 1.54272 -3.47705e-19)
(11.6682 1.57408 6.59443e-19)
(12.1622 1.60326 -1.57331e-18)
(12.5772 1.62538 3.06277e-19)
(12.9146 1.63968 0)
(13.1796 1.64683 5.58357e-19)
(13.3825 1.64726 -5.45084e-19)
(13.5353 1.6423 -7.90394e-19)
(13.6489 1.63325 2.58653e-19)
(13.7321 1.62086 7.43763e-19)
(9.25196 1.37527 0)
(10.4625 1.42969 0)
(11.171 1.50984 0)
(11.741 1.5391 3.37054e-19)
(12.2285 1.56833 0)
(12.6374 1.58985 6.08617e-19)
(12.9695 1.60396 -8.86125e-19)
(13.2304 1.61107 0)
(13.4301 1.6117 -5.47638e-19)
(13.5803 1.60707 5.32745e-19)
(13.6917 1.59845 0)
(13.773 1.58635 0)
(9.30825 1.34165 2.12251e-18)
(10.5373 1.39261 -1.53818e-18)
(11.2449 1.4749 7.18567e-19)
(11.8098 1.50213 -1.0105e-18)
(12.2912 1.53125 1.29022e-18)
(12.6945 1.55214 -9.25287e-19)
(13.0217 1.56602 8.92897e-19)
(13.2787 1.5731 2.83124e-19)
(13.4754 1.57393 -1.11308e-18)
(13.6232 1.56971 8.11204e-19)
(13.7325 1.56171 0)
(13.8118 1.54928 0)
(9.36068 1.30657 -1.71728e-18)
(10.6078 1.3542 0)
(11.3147 1.43812 0)
(11.8749 1.46337 -6.81255e-19)
(12.3505 1.49223 6.54585e-19)
(12.7486 1.51244 -9.3286e-19)
(13.0713 1.52606 5.11634e-21)
(13.3247 1.53306 8.724e-19)
(13.5187 1.53403 5.60479e-19)
(13.6642 1.5301 -5.48958e-19)
(13.7713 1.52261 -2.67084e-19)
(13.8486 1.50987 0)
(9.40941 1.2702 -1.29986e-18)
(10.6741 1.31461 1.18162e-18)
(11.3808 1.39967 0)
(11.9365 1.42297 -6.8776e-19)
(12.4067 1.45146 9.92253e-19)
(12.7998 1.47097 0)
(13.1183 1.48427 0)
(13.3685 1.49113 2.95256e-19)
(13.5601 1.49215 5.66461e-19)
(13.7036 1.48832 -5.54954e-19)
(13.8091 1.48098 5.37074e-19)
(13.8853 1.47006 0)
(9.45492 1.23257 -4.25463e-21)
(10.7366 1.27376 -1.18795e-18)
(11.4433 1.35966 0)
(11.9947 1.38109 1.04425e-18)
(12.4598 1.40913 -9.98043e-19)
(12.8483 1.42788 3.20473e-19)
(13.163 1.44085 3.08611e-19)
(13.4103 1.44758 -8.8577e-19)
(13.5996 1.44871 5.77477e-19)
(13.7415 1.44517 -2.80482e-19)
(13.8457 1.43823 2.6849e-21)
(13.9206 1.42848 0)
(9.49673 1.19377 -8.79804e-19)
(10.7952 1.2318 8.01658e-19)
(11.5024 1.31828 0)
(12.0499 1.33787 -3.49571e-19)
(12.5102 1.36536 0)
(12.8943 1.38336 -3.2008e-19)
(13.2055 1.39598 3.08982e-21)
(13.45 1.40257 3.00979e-19)
(13.6373 1.40381 -2.9164e-19)
(13.7776 1.40049 -2.69195e-21)
(13.8806 1.39375 -2.53356e-21)
(13.9547 1.38522 -1.07124e-18)
(9.53549 1.15426 -4.48018e-19)
(10.8503 1.18915 -8.02037e-19)
(11.5583 1.27571 7.51753e-19)
(12.1021 1.29344 3.55941e-19)
(12.5578 1.32031 0)
(12.9379 1.33755 3.26038e-19)
(13.2457 1.34981 -6.25377e-19)
(13.4877 1.35625 -5.98998e-19)
(13.6731 1.35757 8.80363e-19)
(13.8121 1.35451 -2.58026e-21)
(13.914 1.348 -2.47308e-21)
(13.9872 1.33992 2.68964e-19)
(9.57173 1.11385 4.42954e-19)
(10.9022 1.14548 -8.14517e-19)
(11.6112 1.23196 -3.79419e-19)
(12.1515 1.24791 -3.553e-19)
(12.6028 1.27412 -3.42383e-19)
(12.9791 1.29058 3.25765e-19)
(13.2838 1.30244 -1.26445e-18)
(13.5235 1.30872 2.92174e-21)
(13.7073 1.31011 0)
(13.845 1.30729 8.57343e-19)
(13.9461 1.30102 -2.83115e-19)
(14.0188 1.29391 -2.71761e-19)
(9.60504 1.07256 -4.54976e-19)
(10.9509 1.10092 0)
(11.6611 1.18716 3.14502e-21)
(12.1981 1.20135 3.61125e-19)
(12.6454 1.22685 6.86773e-19)
(13.018 1.24253 3.2539e-19)
(13.3199 1.254 -1.27447e-18)
(13.5574 1.26011 3.11998e-19)
(13.7396 1.26162 8.98365e-19)
(13.8762 1.25912 0)
(13.9765 1.25323 0)
(14.0489 1.246 0)
(9.63536 1.03043 1.82558e-18)
(10.9966 1.0555 -8.19832e-19)
(11.7083 1.1414 7.71359e-19)
(12.2422 1.15385 -3.60552e-19)
(12.6856 1.1786 6.97409e-19)
(13.0548 1.19349 9.92244e-19)
(13.3539 1.20455 -9.62413e-19)
(13.5895 1.21049 5.93809e-21)
(13.7703 1.21205 1.20432e-18)
(13.9058 1.20981 -8.79746e-19)
(14.0052 1.20442 2.84966e-19)
(14.0768 1.198 -5.44872e-19)
(9.66306 0.987818 -4.57775e-19)
(11.0392 1.00955 -4.15249e-19)
(11.7527 1.09481 -3.84055e-19)
(12.2838 1.10549 -7.25732e-19)
(12.7235 1.12946 -3.40774e-19)
(13.0895 1.14355 3.3632e-19)
(13.386 1.15418 3.18453e-19)
(13.6198 1.15992 -9.35492e-19)
(13.7992 1.16149 3.06906e-19)
(13.9339 1.15939 5.88303e-19)
(14.0327 1.15417 -2.85075e-19)
(14.1036 1.14934 -2.79693e-19)
(9.68824 0.944626 -9.20638e-19)
(11.0791 0.963003 1.66943e-18)
(11.7946 1.04746 0)
(12.323 1.05634 0)
(12.7592 1.0795 0)
(13.1221 1.0928 6.73436e-19)
(13.4163 1.10298 6.49806e-19)
(13.6483 1.10852 -3.1328e-19)
(13.8266 1.11013 3.06036e-19)
(13.9605 1.10825 2.05542e-21)
(14.0588 1.10326 -5.73554e-19)
(14.1293 1.09874 5.60808e-19)
(9.71132 0.901094 9.31149e-19)
(11.1165 0.915922 -2.07196e-19)
(11.834 0.99929 -1.95763e-19)
(12.36 1.00645 0)
(12.7928 1.0288 0)
(13.1527 1.04128 -3.37674e-19)
(13.4447 1.05102 3.25017e-19)
(13.6752 1.05636 -6.36138e-19)
(13.8524 1.058 3.05077e-19)
(13.9855 1.05634 -8.97241e-19)
(14.0835 1.05163 0)
(14.1536 1.04766 -2.81516e-19)
(9.73177 0.857052 -1.86883e-18)
(11.1512 0.868141 6.36703e-19)
(11.871 0.950311 1.95552e-19)
(12.3946 0.955833 -5.52511e-19)
(12.8243 0.977374 7.12027e-19)
(13.1815 0.989059 0)
(13.4714 0.998363 6.54902e-19)
(13.7003 1.0035 -6.40199e-19)
(13.8766 1.00515 0)
(14.0091 1.00374 0)
(14.1065 0.999397 0)
(14.1763 0.99486 5.60433e-19)
(9.74986 0.813012 0)
(11.1831 0.820215 0)
(11.9055 0.900749 -3.92721e-19)
(12.4271 0.9046 1.69413e-21)
(12.8538 0.92532 0)
(13.2083 0.936213 -6.82268e-19)
(13.4962 0.945071 1.48976e-18)
(13.7239 0.94998 -4.83395e-19)
(13.8993 0.951621 -6.18833e-19)
(14.0312 0.950346 1.57706e-19)
(14.1282 0.946265 6.05186e-21)
(14.1976 0.942022 5.77301e-19)
(9.7659 0.768578 4.7117e-19)
(11.2127 0.771644 -2.14335e-19)
(11.9378 0.850552 1.98746e-19)
(12.4574 0.852825 -1.86243e-19)
(12.8813 0.872701 8.95834e-19)
(13.2333 0.882796 -1.73406e-19)
(13.5194 0.891205 -4.97102e-19)
(13.7458 0.8959 -3.19062e-19)
(13.9204 0.897549 3.14365e-19)
(14.0519 0.896476 -3.04091e-19)
(14.1487 0.892782 1.48345e-19)
(14.2178 0.888564 -1.41532e-19)
(9.77989 0.723732 7.12093e-19)
(11.2399 0.722571 -6.42897e-19)
(11.9678 0.799821 -1.98604e-19)
(12.4858 0.800504 1.88622e-19)
(12.9068 0.819552 -5.37671e-19)
(13.2565 0.828862 5.19826e-19)
(13.5408 0.836827 -3.22758e-21)
(13.7661 0.841326 -1.64028e-19)
(13.9401 0.843013 -3.12967e-19)
(14.0712 0.842137 4.5994e-19)
(14.1678 0.838783 1.47662e-19)
(14.2369 0.8351 -4.38246e-19)
(9.79134 0.678748 2.39685e-19)
(11.2645 0.673262 0)
(11.9956 0.748653 -2.0051e-19)
(12.5119 0.747707 9.26281e-22)
(12.9305 0.76591 0)
(13.2779 0.774437 1.74352e-19)
(13.5606 0.781973 0)
(13.7848 0.786301 0)
(13.9581 0.788064 0)
(14.0889 0.787502 0)
(14.1853 0.784656 -2.97728e-19)
(14.2546 0.780791 5.80739e-19)
(9.80123 0.633564 -4.80327e-19)
(11.287 0.623652 0)
(12.0212 0.697068 4.01711e-19)
(12.5362 0.694433 -1.89305e-19)
(12.9523 0.711815 -3.61323e-19)
(13.2976 0.719567 1.76732e-19)
(13.5787 0.726666 -3.36005e-19)
(13.8019 0.73079 3.28826e-19)
(13.9745 0.732568 -3.16158e-19)
(14.1049 0.732225 3.16188e-21)
(14.201 0.729992 1.53787e-19)
(14.2701 0.727316 2.91535e-19)
(9.80891 0.587891 0)
(11.3071 0.573484 -2.16941e-19)
(12.0448 0.645018 -2.01226e-19)
(12.5585 0.640697 0)
(12.9723 0.65729 -3.62764e-19)
(13.3155 0.664257 7.01581e-19)
(13.5952 0.670907 -3.4072e-19)
(13.8174 0.674798 0)
(13.9895 0.676513 0)
(14.1196 0.676169 -1.55535e-19)
(14.2154 0.673968 -1.50782e-19)
(14.2837 0.673971 0)
(9.81448 0.542248 4.81887e-19)
(11.325 0.523336 -4.21833e-21)
(12.0662 0.592666 -2.93478e-21)
(12.5788 0.586556 -3.37232e-21)
(12.9906 0.602392 -5.50575e-19)
(13.3318 0.608572 0)
(13.61 0.614757 0)
(13.8314 0.618397 0)
(14.0032 0.620042 0)
(14.1332 0.619659 1.55613e-19)
(14.2294 0.616902 -1.49794e-19)
(14.2988 0.618759 2.944e-21)
(9.81825 0.496154 -6.0548e-19)
(11.3407 0.472715 6.55986e-19)
(12.0856 0.539937 4.04402e-19)
(12.5973 0.532021 -3.85392e-19)
(13.007 0.547171 9.12516e-20)
(13.3464 0.552574 0)
(13.6234 0.558324 3.40035e-19)
(13.844 0.561758 -3.30589e-21)
(14.0153 0.56349 -3.23555e-19)
(14.1453 0.563613 0)
(14.2415 0.561608 -2.28544e-19)
(14.3105 0.558216 0)
(9.82007 0.449959 2.05161e-21)
(11.3543 0.42198 4.39731e-19)
(12.1029 0.486892 1.02048e-19)
(12.6138 0.477161 2.86854e-19)
(13.0217 0.491683 -2.77865e-19)
(13.3593 0.496295 0)
(13.6351 0.501594 3.41232e-19)
(13.855 0.504786 -3.32221e-21)
(14.026 0.506435 -2.43872e-19)
(14.1558 0.506596 0)
(14.2519 0.504965 1.53058e-19)
(14.3213 0.505084 0)
(9.82057 0.403784 1.21323e-21)
(11.3657 0.370965 3.3041e-19)
(12.1182 0.433379 -1.02036e-19)
(12.6285 0.422051 1.92962e-19)
(13.0347 0.435979 0)
(13.3706 0.439749 0)
(13.6452 0.444594 -8.61253e-20)
(13.8645 0.447531 -8.35397e-20)
(14.0353 0.449124 -8.09434e-20)
(14.1651 0.449408 -7.8992e-20)
(14.2613 0.448006 -1.52591e-19)
(14.331 0.448486 1.4893e-19)
(9.81918 0.357358 -1.22538e-19)
(11.3749 0.319427 -1.09854e-19)
(12.1316 0.37941 2.04009e-19)
(12.6414 0.366705 -4.83664e-19)
(13.046 0.38005 1.85917e-19)
(13.3803 0.382961 0)
(13.6539 0.387348 8.61396e-20)
(13.8726 0.390029 8.35629e-20)
(14.0431 0.391591 -1.61814e-19)
(14.1729 0.391994 2.38149e-19)
(14.2694 0.390744 1.53535e-19)
(14.3391 0.391309 -1.51194e-19)
(9.81609 0.311196 0)
(11.3817 0.26803 0)
(12.1429 0.325101 1.0287e-19)
(12.6525 0.311092 0)
(13.0557 0.323968 -9.29016e-20)
(13.3885 0.325943 8.94941e-20)
(13.661 0.329874 1.7213e-19)
(13.8792 0.332311 -2.52667e-19)
(14.0496 0.333848 0)
(14.1794 0.334442 -7.94784e-20)
(14.276 0.333576 7.66083e-20)
(14.3461 0.333417 -2.25075e-19)
(9.81142 0.264838 6.1744e-20)
(11.3866 0.216245 2.20468e-19)
(12.152 0.270501 -3.09396e-19)
(12.6619 0.255371 0)
(13.0638 0.26769 4.63492e-20)
(13.3951 0.268676 8.88478e-20)
(13.6666 0.272191 -3.46803e-19)
(13.8843 0.274378 4.2054e-19)
(14.0546 0.275875 -1.6441e-19)
(14.1846 0.27656 1.1937e-19)
(14.2814 0.275922 0)
(14.3518 0.275596 7.57684e-20)
(9.80494 0.218599 -6.17642e-20)
(11.3896 0.164397 0)
(12.1591 0.215828 -5.10641e-20)
(12.6695 0.199716 9.78622e-20)
(13.0702 0.211205 1.3931e-19)
(13.4001 0.211127 -9.02191e-20)
(13.6708 0.21432 -4.34794e-20)
(13.8881 0.216297 4.21964e-20)
(14.0583 0.217793 8.15618e-20)
(14.1884 0.218718 -1.20106e-19)
(14.2854 0.218738 -3.89068e-20)
(14.3564 0.217462 -3.75841e-20)
(9.79687 0.172421 -9.22889e-20)
(11.3906 0.112343 1.39274e-19)
(12.1643 0.161164 -7.74903e-20)
(12.6754 0.14407 1.21562e-19)
(13.0748 0.154361 -2.10035e-19)
(13.4036 0.153388 1.79911e-19)
(13.6735 0.156368 -6.57681e-20)
(13.8904 0.15807 4.1858e-20)
(14.0605 0.159518 -1.64333e-19)
(14.1908 0.160468 6.04057e-20)
(14.2881 0.16069 3.89361e-20)
(14.3591 0.159578 3.81094e-20)
(9.78728 0.126585 -9.27751e-20)
(11.3899 0.0600967 2.80821e-20)
(12.1677 0.106486 2.58581e-20)
(12.6796 0.0882665 -2.44049e-20)
(13.0777 0.0972545 -2.31631e-20)
(13.4056 0.0957735 4.52465e-20)
(13.6747 0.098281 2.17805e-20)
(13.8913 0.0997368 0)
(14.0614 0.101181 0)
(14.1919 0.102292 2.0022e-20)
(14.2896 0.103056 0)
(14.3612 0.102158 0)
(9.77624 0.0808104 -1.55435e-20)
(11.3873 0.0076267 1.38725e-20)
(12.1694 0.0517692 7.13488e-22)
(12.682 0.0323831 -1.2664e-20)
(13.0792 0.0400185 0)
(13.4061 0.0381088 0)
(13.6744 0.0401171 1.15362e-20)
(13.8907 0.0413279 -2.11772e-20)
(14.0609 0.0427414 1.03522e-20)
(14.1916 0.0439069 6.27146e-22)
(14.2897 0.044815 0)
(14.3614 0.0444365 0)
(9.76338 0.0352171 4.67027e-20)
(11.3826 -0.0449336 2.77747e-20)
(12.1693 -0.00309957 -1.38507e-20)
(12.6826 -0.0235341 3.82242e-22)
(13.0791 -0.0172275 -1.17061e-20)
(13.405 -0.0196197 1.12792e-20)
(13.6727 -0.0181117 -1.16024e-20)
(13.8887 -0.017125 -3.16891e-20)
(14.0589 -0.0157452 -1.01005e-20)
(14.1899 -0.0144395 9.5126e-21)
(14.2883 -0.0130559 -9.78334e-21)
(14.3608 -0.0128805 0)
(9.74899 -0.0100958 4.6454e-20)
(11.3762 -0.0972746 -8.3759e-20)
(12.1675 -0.0579359 1.31312e-20)
(12.6815 -0.0795159 -2.42774e-20)
(13.0775 -0.074474 3.55513e-20)
(13.4024 -0.0773683 3.40615e-20)
(13.6695 -0.076377 1.09189e-20)
(13.8853 -0.075643 1.06007e-20)
(14.0556 -0.0743829 1.03121e-20)
(14.1869 -0.0731569 3.01343e-20)
(14.2855 -0.0718602 -9.79215e-21)
(14.3576 -0.0708077 5.72904e-20)
(9.73321 -0.055342 -6.17933e-20)
(11.3678 -0.149598 -8.28387e-20)
(12.1638 -0.112752 1.30183e-19)
(12.6788 -0.135531 -2.44986e-20)
(13.0742 -0.131706 -1.16695e-19)
(13.3983 -0.135127 1.80546e-19)
(13.6648 -0.134643 -4.41215e-20)
(13.8804 -0.134182 0)
(14.051 -0.133074 4.12807e-20)
(14.1827 -0.131923 -2.00952e-20)
(14.2821 -0.130922 1.95799e-20)
(14.3553 -0.128498 -1.91358e-20)
(9.71565 -0.100421 -1.255e-19)
(11.3577 -0.201778 -5.53106e-22)
(12.1584 -0.167531 0)
(12.6744 -0.191544 -9.76289e-20)
(13.0694 -0.188871 9.41389e-20)
(13.3927 -0.19284 0)
(13.6587 -0.192856 -1.5278e-24)
(13.8743 -0.192643 0)
(14.045 -0.191588 -4.12828e-20)
(14.1773 -0.190199 0)
(14.2774 -0.188861 0)
(14.3518 -0.186077 -7.5061e-20)
(9.69657 -0.145062 6.24917e-20)
(11.3457 -0.253595 5.52291e-20)
(12.1512 -0.222203 -4.15617e-19)
(12.6683 -0.247503 3.92306e-19)
(13.063 -0.245976 -1.88263e-19)
(13.3856 -0.250508 0)
(13.6512 -0.251024 -4.37047e-20)
(13.8666 -0.251068 0)
(14.0377 -0.250101 0)
(14.1703 -0.248617 0)
(14.2709 -0.247134 0)
(14.3458 -0.244497 -1.50779e-19)
(9.67616 -0.18946 1.24968e-19)
(11.332 -0.305257 2.23486e-19)
(12.1422 -0.276811 0)
(12.6606 -0.303396 2.93311e-19)
(13.0551 -0.302985 -9.45449e-20)
(13.377 -0.308135 0)
(13.6421 -0.309161 -8.65397e-20)
(13.8576 -0.309488 8.65101e-20)
(14.0289 -0.308634 1.65907e-19)
(14.162 -0.307037 2.4027e-19)
(14.2631 -0.30515 -1.57461e-19)
(14.3385 -0.302931 7.53981e-20)
(9.65443 -0.233578 -5.00143e-19)
(11.3164 -0.356702 -1.11787e-19)
(12.1315 -0.33132 1.03933e-19)
(12.6512 -0.359192 -8.28416e-23)
(13.0456 -0.359905 -9.37005e-20)
(13.3669 -0.365697 9.01535e-20)
(13.6318 -0.367256 8.64145e-20)
(13.8472 -0.367879 -2.55223e-19)
(14.0188 -0.367145 0)
(14.1524 -0.365556 -2.40162e-19)
(14.2541 -0.363551 3.13052e-19)
(14.3296 -0.361328 -3.06022e-19)
(9.63096 -0.277736 2.50078e-19)
(11.2991 -0.408184 2.22793e-19)
(12.1189 -0.385681 -2.08631e-19)
(12.6402 -0.414898 -9.80445e-20)
(13.0345 -0.416724 1.86341e-19)
(13.3554 -0.423179 -9.18895e-20)
(13.6199 -0.425252 -8.81498e-20)
(13.8355 -0.426136 8.46504e-20)
(14.0074 -0.425492 0)
(14.1416 -0.423775 0)
(14.2439 -0.421341 0)
(14.3201 -0.418894 7.76146e-22)
(9.60598 -0.321273 -2.50015e-19)
(11.2798 -0.459093 0)
(12.1047 -0.439875 -1.43038e-22)
(12.6274 -0.470482 0)
(13.022 -0.473431 9.34544e-20)
(13.3424 -0.480535 -3.58439e-19)
(13.6068 -0.483092 2.63094e-19)
(13.8224 -0.484227 -8.4675e-20)
(13.9948 -0.483651 0)
(14.1296 -0.481976 -3.19063e-19)
(14.2328 -0.479854 3.14172e-19)
(14.3098 -0.477547 -7.66868e-20)
(9.57965 -0.364831 -3.7483e-19)
(11.2588 -0.510017 2.23017e-19)
(12.0885 -0.493879 -3.11372e-19)
(12.6131 -0.525922 1.9552e-19)
(13.0079 -0.529998 -2.8016e-19)
(13.328 -0.53774 0)
(13.5922 -0.540732 0)
(13.8079 -0.54203 3.36326e-19)
(13.9807 -0.541386 -4.94866e-19)
(14.1162 -0.539286 -1.58682e-19)
(14.2203 -0.536227 1.57879e-19)
(14.2997 -0.53456 0)
(9.55155 -0.408001 0)
(11.236 -0.560558 -1.30504e-21)
(12.0708 -0.54768 -2.0854e-19)
(12.5972 -0.581209 -1.66728e-21)
(12.9923 -0.586376 -1.88083e-19)
(13.3122 -0.594733 5.36906e-19)
(13.5761 -0.598134 -3.49338e-19)
(13.792 -0.599612 1.67232e-19)
(13.9652 -0.599008 -1.65738e-19)
(14.1012 -0.596874 1.58158e-19)
(14.2058 -0.593565 -1.57354e-19)
(14.2855 -0.590086 2.99386e-19)
(9.52225 -0.450801 7.48456e-19)
(11.2117 -0.610747 2.23011e-19)
(12.0513 -0.601251 0)
(12.5797 -0.636301 3.90483e-19)
(12.9752 -0.642553 3.70955e-19)
(13.2948 -0.651507 -1.82945e-19)
(13.5587 -0.655318 -3.48776e-19)
(13.7746 -0.657006 3.51834e-22)
(13.9482 -0.656508 0)
(14.0848 -0.654455 0)
(14.1902 -0.651101 0)
(14.2701 -0.646916 0)
(9.49164 -0.493379 -7.48291e-19)
(11.1854 -0.660767 -2.22243e-19)
(12.03 -0.654661 0)
(12.5605 -0.691184 -1.9521e-19)
(12.9565 -0.698475 -1.85804e-19)
(13.2761 -0.708025 -1.77519e-19)
(13.5397 -0.712245 3.38259e-21)
(13.7559 -0.71419 8.41136e-19)
(13.93 -0.713855 -3.29004e-19)
(14.0673 -0.71193 0)
(14.1735 -0.708913 3.09046e-19)
(14.254 -0.704962 -3.044e-19)
(9.45925 -0.535751 -2.4942e-19)
(11.1574 -0.710546 1.31323e-21)
(12.007 -0.707785 2.08195e-19)
(12.5397 -0.745781 0)
(12.9364 -0.754095 1.70597e-21)
(13.2558 -0.764222 3.58567e-19)
(13.5194 -0.768873 -3.44104e-19)
(13.7358 -0.771107 5.05049e-19)
(13.9103 -0.770912 0)
(14.0485 -0.768957 0)
(14.1556 -0.765609 0)
(14.2372 -0.761863 4.47429e-19)
(9.42527 -0.577628 -9.94698e-19)
(11.1276 -0.759808 -6.64502e-19)
(11.9822 -0.760494 6.20436e-19)
(12.5172 -0.800031 0)
(12.9145 -0.809374 -3.70689e-19)
(13.234 -0.820102 -1.78543e-19)
(13.4976 -0.825221 0)
(13.7142 -0.827767 3.32871e-19)
(13.8894 -0.827802 -3.2765e-19)
(14.0283 -0.82599 0)
(14.1363 -0.822821 0)
(14.2186 -0.818436 -1.51036e-19)
(9.38991 -0.619192 9.90716e-19)
(11.0961 -0.808708 -2.23884e-19)
(11.9556 -0.812841 -2.04395e-19)
(12.493 -0.853909 1.95994e-19)
(12.8912 -0.864303 1.85243e-19)
(13.2107 -0.875676 -5.31667e-19)
(13.4743 -0.881277 3.45878e-19)
(13.6913 -0.88417 -3.34139e-19)
(13.8671 -0.88438 -3.23483e-19)
(14.0068 -0.882511 3.18374e-19)
(14.1158 -0.879067 0)
(14.1995 -0.87458 -1.48613e-19)
(9.35306 -0.66025 4.92381e-19)
(11.0629 -0.85707 -6.65378e-19)
(11.9274 -0.86477 -2.05792e-19)
(12.4672 -0.907426 1.1576e-18)
(12.8662 -0.918913 -7.41217e-19)
(13.1858 -0.930951 1.77732e-19)
(13.4497 -0.937081 6.83212e-19)
(13.667 -0.940307 -5.02875e-19)
(13.8434 -0.940684 1.61823e-19)
(13.984 -0.938841 0)
(14.094 -0.935417 0)
(14.1786 -0.931092 1.49812e-19)
(9.31522 -0.700873 -9.30806e-22)
(11.028 -0.904932 0)
(11.8973 -0.916326 6.11606e-19)
(12.4397 -0.960587 -9.68982e-19)
(12.8397 -0.973184 -7.3276e-19)
(13.1595 -0.985957 7.11047e-19)
(13.4236 -0.992591 5.10362e-19)
(13.6413 -0.996117 -8.33681e-19)
(13.8184 -0.996628 -1.61908e-19)
(13.9599 -0.994619 -7.8336e-19)
(14.0709 -0.990662 4.63751e-19)
(14.1569 -0.986889 0)
(9.27536 -0.741407 -2.47221e-19)
(10.9912 -0.952709 0)
(11.8654 -0.967507 1.019e-18)
(12.4105 -1.0134 -1.54012e-18)
(12.8115 -1.02715 3.70921e-19)
(13.1318 -1.04063 -3.52082e-19)
(13.3961 -1.04779 1.70932e-19)
(13.6143 -1.05161 4.94369e-19)
(13.7921 -1.05225 -6.47561e-19)
(13.9344 -1.05031 1.57179e-19)
(14.0463 -1.04634 4.56237e-19)
(14.133 -1.04334 -5.97557e-19)
(9.23375 -0.781026 4.91097e-19)
(10.9526 -0.99956 4.37735e-19)
(11.8318 -1.01814 8.12035e-19)
(12.3796 -1.06575 -1.53605e-18)
(12.7819 -1.08072 1.10168e-18)
(13.1026 -1.09493 -3.47532e-19)
(13.3672 -1.10258 3.44071e-19)
(13.5859 -1.10667 3.30665e-19)
(13.7644 -1.10737 0)
(13.9077 -1.10531 0)
(14.0207 -1.10072 -3.00979e-19)
(14.1087 -1.09787 6.29061e-21)
(9.19128 -0.820261 -2.23869e-21)
(10.9124 -1.04595 -1.98541e-21)
(11.7963 -1.06835 0)
(12.3471 -1.11777 -3.80326e-19)
(12.7507 -1.13393 1.09621e-18)
(13.0719 -1.14883 -3.49594e-19)
(13.3369 -1.15694 -6.72518e-19)
(13.5561 -1.16128 3.32834e-19)
(13.7354 -1.16205 3.17196e-19)
(13.8795 -1.16008 -9.36893e-19)
(13.9935 -1.15544 0)
(14.0821 -1.15347 -2.95311e-19)
(9.14723 -0.859068 -2.3501e-21)
(10.8702 -1.09189 4.32303e-19)
(11.7592 -1.11825 -4.08686e-19)
(12.3128 -1.16939 -1.14204e-18)
(12.7179 -1.18675 -3.57678e-19)
(13.0397 -1.20232 1.3995e-18)
(13.3051 -1.21082 1.66917e-21)
(13.5248 -1.21539 1.60857e-21)
(13.7048 -1.21625 3.19247e-19)
(13.8499 -1.21424 3.11008e-19)
(13.9651 -1.20907 0)
(14.0555 -1.2059 8.74332e-19)
(9.10174 -0.897538 -4.89089e-19)
(10.8266 -1.13749 -4.33394e-19)
(11.7201 -1.16767 -4.04909e-19)
(12.277 -1.2206 -3.77816e-19)
(12.6836 -1.23913 7.27139e-19)
(13.006 -1.25536 -1.04065e-18)
(13.2719 -1.26426 3.43438e-19)
(13.4921 -1.26909 6.5702e-19)
(13.6729 -1.2701 0)
(13.8189 -1.26831 3.06527e-19)
(13.935 -1.26348 -1.20385e-18)
(14.0255 -1.26055 5.91475e-19)
(9.05436 -0.935458 4.8351e-19)
(10.7807 -1.18262 -4.35898e-19)
(11.6794 -1.21673 -1.20221e-18)
(12.2395 -1.2714 3.49577e-21)
(12.6477 -1.29102 0)
(12.9709 -1.30786 -3.45307e-19)
(13.2372 -1.31719 -3.33684e-19)
(13.458 -1.32232 3.25515e-19)
(13.6397 -1.32357 0)
(13.7867 -1.32193 3.08385e-19)
(13.9041 -1.31729 5.96406e-19)
(13.9962 -1.31396 -6.4097e-21)
(9.00519 -0.97256 4.86052e-19)
(10.7332 -1.22681 0)
(11.6367 -1.26503 8.00479e-19)
(12.2 -1.32154 -3.79626e-19)
(12.6101 -1.34234 -3.58075e-19)
(12.9342 -1.3598 1.03209e-18)
(13.2011 -1.3696 -9.98355e-19)
(13.4226 -1.37505 9.71775e-19)
(13.605 -1.3765 0)
(13.7532 -1.37487 -3.03837e-19)
(13.8719 -1.37001 8.97015e-19)
(13.9655 -1.36636 2.88685e-19)
(8.95522 -1.0091 -9.65226e-19)
(10.6843 -1.27038 4.28224e-19)
(11.5923 -1.3127 -3.6335e-21)
(12.1591 -1.37112 -7.54255e-19)
(12.5709 -1.39309 7.14814e-19)
(12.896 -1.41122 0)
(13.1635 -1.42152 -3.30458e-19)
(13.3857 -1.42732 -3.22464e-19)
(13.5691 -1.42902 0)
(13.7184 -1.42753 3.00422e-19)
(13.8383 -1.42289 -8.94046e-19)
(13.9332 -1.41937 -2.9003e-19)
(8.90395 -1.04523 0)
(10.6333 -1.31345 2.73391e-21)
(11.5462 -1.35984 1.1899e-18)
(12.1163 -1.42004 -6.63019e-21)
(12.5302 -1.44327 -1.78002e-18)
(12.8562 -1.46211 1.36588e-18)
(13.1245 -1.47292 -1.31733e-18)
(13.3475 -1.47908 6.4299e-19)
(13.5318 -1.48093 0)
(13.6822 -1.47938 0)
(13.8034 -1.47432 -2.93187e-19)
(13.9005 -1.47056 5.72108e-19)
(8.85082 -1.08074 0)
(10.5806 -1.3558 2.8774e-21)
(11.4981 -1.40624 -1.18143e-18)
(12.0718 -1.46831 7.47633e-19)
(12.4877 -1.49279 0)
(12.8149 -1.51246 6.76367e-19)
(13.0839 -1.52381 -3.30193e-19)
(13.3077 -1.5303 0)
(13.4931 -1.53238 -6.15581e-19)
(13.6446 -1.53099 6.05614e-19)
(13.7671 -1.52627 -2.94507e-19)
(13.8651 -1.52288 0)
(8.79603 -1.11564 9.52951e-19)
(10.5264 -1.39748 4.25178e-19)
(11.4483 -1.45186 7.87009e-19)
(12.0255 -1.5159 0)
(12.4435 -1.54171 7.01284e-19)
(12.7719 -1.56221 -3.4322e-19)
(13.0419 -1.57413 -6.55829e-19)
(13.2666 -1.58095 0)
(13.453 -1.58317 3.06472e-19)
(13.6058 -1.58171 0)
(13.7298 -1.57661 0)
(13.8298 -1.5727 0)
(8.73961 -1.14967 4.71844e-19)
(10.4699 -1.43829 -8.47114e-19)
(11.3965 -1.49678 -3.92933e-19)
(11.9774 -1.56281 0)
(12.3977 -1.59001 6.97587e-19)
(12.7274 -1.61135 -3.38056e-19)
(12.9984 -1.62379 -6.45577e-19)
(13.224 -1.63095 9.45512e-19)
(13.4114 -1.63333 -9.15079e-19)
(13.5655 -1.632 8.95028e-19)
(13.6909 -1.62725 -8.66151e-19)
(13.792 -1.62387 6.32461e-21)
(8.68188 -1.18288 1.88293e-18)
(10.4118 -1.47811 -4.24703e-19)
(11.3428 -1.54092 0)
(11.9275 -1.60903 1.09426e-18)
(12.3503 -1.63766 -6.24904e-21)
(12.6814 -1.65981 -6.7146e-19)
(12.9533 -1.67278 -3.21156e-19)
(13.1799 -1.68025 -2.39039e-21)
(13.3684 -1.68273 6.04486e-19)
(13.5238 -1.68131 -5.96888e-19)
(13.6507 -1.67607 1.14964e-18)
(13.7543 -1.67255 -1.1142e-18)
(8.6228 -1.21553 -9.38378e-19)
(10.352 -1.51726 -4.18704e-19)
(11.2873 -1.58441 -3.85545e-19)
(11.8759 -1.65458 -2.91671e-21)
(12.3012 -1.68465 -3.44978e-19)
(12.6338 -1.70757 -6.61066e-19)
(12.9068 -1.72106 6.46371e-19)
(13.1344 -1.72888 -2.48143e-21)
(13.3239 -1.73159 0)
(13.4805 -1.73036 -8.79565e-19)
(13.6086 -1.72511 5.73277e-19)
(13.7131 -1.72086 0)
(8.56216 -1.24754 4.72665e-19)
(10.2903 -1.55579 8.32945e-19)
(11.23 -1.62721 1.15267e-18)
(11.8225 -1.69947 -1.09081e-18)
(12.2504 -1.73093 -3.3963e-19)
(12.5846 -1.75465 9.91287e-19)
(12.8588 -1.76868 3.19511e-19)
(13.0874 -1.77685 -3.09663e-19)
(13.2781 -1.77989 -1.19281e-18)
(13.4359 -1.77905 1.173e-18)
(13.5656 -1.7744 -2.85349e-19)
(13.6709 -1.77019 -1.10788e-18)
(8.49972 -1.2788 -9.23919e-19)
(10.2266 -1.59355 1.64961e-18)
(11.1707 -1.66932 -3.86459e-19)
(11.7673 -1.74364 3.58001e-19)
(12.1979 -1.7765 3.40377e-19)
(12.5339 -1.80096 -2.85915e-21)
(12.8093 -1.81553 9.43433e-19)
(13.039 -1.82405 -1.23094e-18)
(13.231 -1.82736 0)
(13.3904 -1.82668 2.88408e-19)
(13.5219 -1.82231 0)
(13.6295 -1.81844 2.74585e-19)
(8.43556 -1.30923 -1.83664e-18)
(10.1611 -1.63042 1.64524e-18)
(11.1095 -1.71058 -3.81611e-19)