/*--------------------------------*- C++ -*----------------------------------*\
| =========                 |                                                 |
| \\      /  F ield         | OpenFOAM: The Open Source CFD Toolbox           |
|  \\    /   O peration     | Version:  2.3.1                                 |
|   \\  /    A nd           | Web:      www.OpenFOAM.org                      |
|    \\/     M anipulation  |                                                 |
\*---------------------------------------------------------------------------*/
FoamFile
{
    version     2.0;
    format      ascii;
    class       volScalarField;
    location    "0.37";
    object      epsilon;
}
// * * * * * * * * * * * * * * * * * * * * * * * * * * * * * * * * * * * * * //

dimensions      [0 2 -3 0 0 0 0];

internalField   nonuniform List<scalar> 
1000
(
0.00119825
0.00122454
0.00122484
0.00122478
0.00122475
0.00122474
0.00122473
0.00122473
0.00122471
0.00122147
0.00122489
0.00122624
0.00122625
0.00122622
0.0012262
0.00122619
0.00122618
0.00122618
0.00122611
0.0012218
0.00122563
0.00122673
0.00122676
0.00122674
0.00122673
0.00122671
0.00122671
0.00122671
0.00122664
0.00122224
0.00122615
0.00122735
0.00122741
0.00122741
0.0012274
0.00122739
0.00122738
0.00122739
0.00122731
0.00122286
0.00122694
0.00122833
0.00122842
0.00122843
0.00122844
0.00122842
0.00122843
0.0012284
0.00122834
0.00122369
0.00122431
0.00122587
0.00122604
0.00122609
0.0012261
0.00122611
0.00122611
0.00122612
0.00122605
0.00122185
0.0012262
0.000708646
0.000692886
0.000692409
0.000692352
0.000692325
0.000692309
0.000692464
0.000707049
0.00122446
0.00122674
0.00069173
0.000675565
0.000675174
0.000675165
0.000675164
0.000675163
0.000675339
0.000690547
0.00122501
0.00122732
0.000691283
0.00067519
0.000674808
0.000674803
0.0006748
0.000674803
0.00067498
0.000690233
0.0012256
0.00122813
0.000691455
0.000675369
0.000674993
0.000674987
0.000674986
0.000674989
0.000675167
0.000690468
0.0012264
0.0012251
0.00122626
0.00122641
0.00122646
0.00122649
0.0012265
0.00122651
0.00122652
0.00122645
0.00122219
0.00122647
0.00069289
0.000676707
0.000676269
0.000676234
0.000676217
0.000676206
0.000676372
0.000691533
0.00122489
0.00122696
0.000675801
0.000658912
0.0006585
0.000658494
0.000658493
0.000658494
0.000658678
0.000674496
0.00122541
0.00122751
0.00067542
0.000658552
0.000658144
0.000658139
0.000658138
0.000658139
0.000658325
0.000674175
0.00122593
0.00122823
0.000675591
0.000658732
0.000658327
0.000658322
0.00065832
0.000658323
0.000658506
0.000674386
0.00122662
0.00122548
0.00122655
0.00122667
0.0012267
0.00122673
0.00122674
0.00122675
0.00122675
0.00122669
0.00122242
0.00122671
0.000691954
0.000675905
0.000675501
0.000675479
0.000675468
0.000675462
0.00067563
0.00069082
0.0012251
0.00122712
0.000675358
0.000658513
0.000658105
0.000658099
0.000658098
0.0006581
0.000658284
0.000674114
0.00122557
0.0012276
0.000675022
0.000658175
0.000657767
0.000657762
0.000657761
0.000657763
0.000657946
0.0006738
0.00122603
0.00122823
0.000675152
0.000658318
0.000657913
0.000657907
0.000657906
0.000657907
0.00065809
0.000673949
0.00122662
0.00122567
0.00122672
0.00122681
0.00122683
0.00122685
0.00122686
0.00122687
0.00122687
0.00122681
0.00122253
0.00122685
0.000691435
0.000675445
0.000675055
0.000675041
0.000675035
0.000675032
0.000675201
0.000690405
0.0012252
0.0012272
0.000675291
0.000658485
0.00065808
0.000658073
0.000658073
0.000658075
0.000658257
0.000674087
0.00122563
0.00122763
0.000674983
0.000658169
0.000657763
0.000657757
0.000657757
0.000657759
0.00065794
0.000673782
0.00122604
0.00122818
0.000675087
0.000658289
0.000657885
0.000657879
0.000657878
0.000657878
0.000658059
0.000673894
0.00122657
0.00122572
0.00122678
0.00122686
0.00122687
0.00122689
0.00122689
0.0012269
0.0012269
0.00122684
0.00122254
0.0012269
0.000691133
0.000675176
0.000674801
0.000674796
0.000674797
0.000674799
0.000674972
0.000690184
0.00122521
0.00122725
0.00067527
0.000658492
0.00065809
0.000658085
0.000658086
0.000658088
0.000658268
0.000674094
0.00122565
0.00122767
0.000674986
0.000658201
0.000657799
0.000657794
0.000657794
0.000657796
0.000657975
0.000673809
0.00122606
0.00122821
0.000675088
0.000658323
0.000657923
0.000657917
0.000657917
0.000657917
0.000658094
0.000673913
0.00122659
0.00122566
0.00122674
0.00122682
0.00122683
0.00122684
0.00122684
0.00122685
0.00122685
0.00122678
0.00122245
0.00122688
0.000691121
0.000675182
0.000674808
0.000674803
0.000674803
0.000674805
0.000674976
0.000690188
0.00122517
0.00122727
0.0006753
0.000658545
0.000658144
0.000658139
0.000658139
0.000658141
0.00065832
0.000674139
0.00122565
0.00122775
0.000675049
0.000658284
0.000657884
0.000657879
0.000657879
0.00065788
0.000658056
0.000673877
0.00122613
0.00122835
0.000675183
0.000658439
0.00065804
0.000658034
0.000658035
0.000658033
0.000658207
0.000674005
0.00122672
0.00122548
0.00122659
0.00122667
0.00122668
0.00122668
0.00122669
0.00122669
0.00122668
0.00122662
0.00122225
0.00122675
0.000691328
0.000675407
0.000675034
0.000675029
0.000675029
0.000675031
0.000675203
0.000690409
0.00122502
0.00122723
0.000675571
0.000658834
0.000658435
0.000658429
0.000658431
0.000658432
0.000658609
0.000674418
0.00122559
0.00122779
0.000675377
0.000658636
0.000658238
0.000658233
0.000658234
0.000658234
0.000658408
0.000674212
0.00122614
0.00122851
0.000675615
0.000658907
0.000658511
0.000658505
0.000658507
0.000658502
0.000658672
0.00067444
0.00122686
0.00122517
0.00122626
0.00122633
0.00122634
0.00122635
0.00122635
0.00122635
0.00122635
0.00122628
0.00122191
0.00122648
0.000707393
0.000692098
0.000691749
0.000691748
0.000691753
0.000691756
0.000691922
0.000706706
0.00122469
0.00122704
0.000692636
0.00067659
0.000676219
0.00067622
0.000676225
0.000676225
0.000676396
0.000691737
0.00122533
0.00122769
0.000693157
0.000677141
0.000676779
0.000676781
0.000676788
0.000676783
0.000676941
0.000692246
0.00122597
0.00122858
0.000694738
0.000678831
0.000678483
0.000678492
0.000678496
0.000678481
0.000678623
0.000693828
0.00122686
0.00122155
0.00122158
0.00122159
0.00122159
0.00122159
0.00122159
0.00122159
0.00122159
0.00122157
0.00121813
0.00122201
0.0012244
0.00122456
0.00122457
0.00122457
0.00122457
0.00122457
0.00122457
0.00122446
0.00121866
0.00122258
0.00122511
0.00122529
0.0012253
0.00122531
0.00122531
0.0012253
0.00122529
0.00122516
0.00121923
0.00122331
0.00122584
0.00122602
0.00122603
0.00122604
0.00122604
0.00122603
0.00122601
0.00122586
0.00121998
0.00122443
0.0012269
0.00122709
0.0012271
0.00122711
0.00122711
0.0012271
0.00122706
0.00122691
0.00122113
0.0012292
0.00123028
0.00123037
0.00123038
0.00123039
0.00123039
0.00123038
0.00123032
0.00123025
0.00122605
0.00123275
0.00123399
0.00123411
0.00123415
0.00123416
0.00123416
0.00123415
0.00123412
0.00123408
0.00122973
0.00124325
0.00124865
0.00124881
0.00124867
0.00124861
0.00124863
0.00124864
0.00124889
0.00124886
0.00124051
0.00137589
0.00152094
0.00151546
0.00151189
0.0015109
0.00151077
0.00151168
0.00151463
0.00152392
0.00137969
0.0033649
0.00504158
0.0051206
0.00512307
0.00512305
0.00512286
0.00512185
0.00511934
0.0050746
0.00342143
0.00122931
0.000698759
0.000683282
0.000682978
0.000682996
0.000682998
0.000682974
0.000683076
0.000697919
0.0012276
0.00123078
0.000706503
0.000691522
0.000691291
0.000691322
0.000691324
0.000691291
0.000691333
0.000705806
0.00122916
0.00123318
0.000737125
0.000724201
0.000724366
0.000724491
0.000724499
0.00072437
0.000724106
0.000736924
0.00123152
0.00127217
0.000943899
0.000939186
0.000939405
0.00093951
0.000939495
0.000939411
0.000939294
0.000947955
0.0012735
0.00450732
0.0100992
0.0103199
0.0103161
0.0103125
0.0103121
0.0103147
0.0103234
0.0101975
0.00461914
0.00122858
0.000675898
0.000659191
0.000658796
0.00065879
0.000658789
0.000658784
0.000658948
0.000674728
0.00122699
0.00122932
0.00067655
0.000659896
0.000659513
0.000659509
0.000659509
0.000659503
0.000659658
0.000675417
0.0012278
0.00123004
0.000680253
0.000663961
0.000663661
0.000663677
0.000663679
0.000663652
0.000663749
0.000679234
0.0012285
0.00126009
0.000869156
0.00086182
0.00086224
0.000862407
0.000862407
0.000862256
0.000861925
0.000872478
0.00126137
0.00465056
0.0104693
0.0106907
0.0106925
0.0106904
0.0106902
0.0106919
0.010697
0.0105726
0.00477038
0.00122812
0.000674829
0.000658021
0.000657615
0.000657607
0.000657606
0.000657603
0.000657779
0.000673637
0.00122653
0.00122858
0.000674823
0.000658008
0.000657602
0.000657594
0.000657593
0.000657591
0.000657769
0.000673645
0.00122703
0.00122897
0.000675539
0.000658772
0.00065838
0.000658375
0.000658375
0.000658371
0.000658542
0.000674401
0.00122742
0.00125765
0.000852734
0.000843913
0.00084399
0.000844067
0.000844069
0.000843997
0.000843975
0.000855748
0.0012589
0.00470975
0.0106501
0.0108784
0.0108841
0.0108833
0.0108833
0.0108841
0.0108862
0.0107565
0.0048329
0.00122787
0.00067466
0.000657821
0.000657413
0.000657406
0.000657405
0.000657403
0.000657585
0.000673472
0.00122627
0.00122828
0.000674622
0.000657775
0.000657366
0.000657358
0.000657356
0.000657357
0.00065754
0.000673442
0.0012267
0.00122863
0.000675173
0.000658354
0.000657949
0.000657941
0.00065794
0.000657941
0.000658124
0.000674025
0.00122705
0.00125719
0.000849894
0.000840688
0.000840668
0.000840719
0.000840723
0.000840678
0.000840743
0.000852849
0.00125843
0.00473103
0.0107163
0.0109481
0.0109558
0.0109558
0.0109558
0.0109561
0.0109565
0.0108239
0.00485545
0.00122786
0.000674673
0.000657794
0.000657384
0.000657376
0.000657375
0.000657374
0.00065756
0.000673472
0.00122625
0.00122832
0.000674692
0.000657791
0.000657382
0.000657374
0.000657373
0.000657375
0.000657559
0.000673506
0.00122671
0.00122875
0.000675358
0.000658478
0.000658078
0.000658073
0.000658075
0.000658072
0.000658255
0.000674206
0.00122713
0.00126047
0.000867623
0.000860585
0.000861526
0.000861963
0.000861991
0.000861625
0.000860821
0.000871129
0.00126193
0.00473562
0.0107262
0.0109583
0.0109666
0.0109668
0.0109668
0.010967
0.0109668
0.0108342
0.00486054
0.001228
0.000674814
0.000657878
0.000657468
0.000657461
0.000657458
0.000657462
0.000657646
0.000673615
0.00122639
0.00122861
0.00067496
0.000657962
0.000657556
0.000657548
0.000657551
0.000657548
0.000657739
0.000673777
0.00122695
0.00122924
0.000676038
0.00065901
0.000658628
0.000658636
0.000658634
0.000658629
0.000658786
0.000674886
0.00122756
0.00127068
0.000920391
0.000919807
0.000923365
0.000924743
0.000924813
0.0009236
0.000920424
0.00092526
0.0012728
0.00472961
0.0106942
0.0109237
0.0109318
0.010932
0.010932
0.0109322
0.0109323
0.0108027
0.00485501
0.00122822
0.00067522
0.000658216
0.00065781
0.000657802
0.000657804
0.000657803
0.000657995
0.000674026
0.00122656
0.00122898
0.0006757
0.000658538
0.000658132
0.000658129
0.000658127
0.000658132
0.000658311
0.000674516
0.00122725
0.00123015
0.000679325
0.000662072
0.000661742
0.00066176
0.000661762
0.000661734
0.000661852
0.000678191
0.0012284
0.00129581
0.00101804
0.00102993
0.00103868
0.0010418
0.00104193
0.00103915
0.00103114
0.00102457
0.0012996
0.00470735
0.0105846
0.0108071
0.010815
0.0108152
0.0108152
0.0108154
0.0108162
0.0106933
0.00483355
0.00122834
0.000690623
0.000674159
0.00067377
0.000673765
0.000673764
0.00067377
0.000673951
0.000689644
0.00122662
0.00122946
0.000692033
0.000675286
0.000674893
0.000674886
0.000674886
0.000674888
0.000675078
0.000691045
0.00122762
0.00123196
0.000707357
0.000690532
0.000690446
0.000690545
0.000690545
0.000690445
0.000690343
0.000706524
0.00123023
0.00132128
0.00092283
0.000921177
0.000925795
0.000927297
0.000927341
0.000926022
0.000921617
0.000925952
0.00132539
0.00455896
0.00986796
0.0100545
0.0100601
0.0100602
0.0100603
0.0100603
0.010062
0.00994965
0.00466362
0.00122456
0.00122787
0.00122815
0.00122819
0.00122819
0.00122819
0.00122817
0.00122816
0.00122792
0.00122115
0.00122643
0.00123053
0.00123092
0.00123094
0.00123094
0.00123093
0.00123092
0.00123089
0.00123047
0.00122304
0.00123148
0.00123827
0.00123877
0.00123882
0.00123879
0.00123877
0.00123884
0.00123866
0.00123834
0.00122839
0.00125235
0.00128085
0.00128396
0.00128454
0.00128469
0.00128474
0.00128452
0.00128411
0.00128178
0.00125037
0.0031715
0.00444557
0.00449809
0.0045047
0.0045063
0.0045063
0.00450508
0.00449983
0.00446451
0.00321078
)
;

boundaryField
{
    walls
    {
        type            epsilonWallFunction;
        value           nonuniform List<scalar> 
500
(
0.00119825
0.00119825
0.00119825
0.00122454
0.00122454
0.00122484
0.00122484
0.00122478
0.00122478
0.00122475
0.00122475
0.00122474
0.00122474
0.00122473
0.00122473
0.00122473
0.00122473
0.00122471
0.00122471
0.00122147
0.00122147
0.00122147
0.00122489
0.00122489
0.00122624
0.00122625
0.00122622
0.0012262
0.00122619
0.00122618
0.00122618
0.00122611
0.0012218
0.0012218
0.00122563
0.00122563
0.00122673
0.00122676
0.00122674
0.00122673
0.00122671
0.00122671
0.00122671
0.00122664
0.00122224
0.00122224
0.00122615
0.00122615
0.00122735
0.00122741
0.00122741
0.0012274
0.00122739
0.00122738
0.00122739
0.00122731
0.00122286
0.00122286
0.00122694
0.00122694
0.00122833
0.00122842
0.00122843
0.00122844
0.00122842
0.00122843
0.0012284
0.00122834
0.00122369
0.00122369
0.00122431
0.00122431
0.00122587
0.00122604
0.00122609
0.0012261
0.00122611
0.00122611
0.00122612
0.00122605
0.00122185
0.00122185
0.0012262
0.00122446
0.00122674
0.00122501
0.00122732
0.0012256
0.00122813
0.0012264
0.0012251
0.0012251
0.00122626
0.00122641
0.00122646
0.00122649
0.0012265
0.00122651
0.00122652
0.00122645
0.00122219
0.00122219
0.00122647
0.00122489
0.00122696
0.00122541
0.00122751
0.00122593
0.00122823
0.00122662
0.00122548
0.00122548
0.00122655
0.00122667
0.0012267
0.00122673
0.00122674
0.00122675
0.00122675
0.00122669
0.00122242
0.00122242
0.00122671
0.0012251
0.00122712
0.00122557
0.0012276
0.00122603
0.00122823
0.00122662
0.00122567
0.00122567
0.00122672
0.00122681
0.00122683
0.00122685
0.00122686
0.00122687
0.00122687
0.00122681
0.00122253
0.00122253
0.00122685
0.0012252
0.0012272
0.00122563
0.00122763
0.00122604
0.00122818
0.00122657
0.00122572
0.00122572
0.00122678
0.00122686
0.00122687
0.00122689
0.00122689
0.0012269
0.0012269
0.00122684
0.00122254
0.00122254
0.0012269
0.00122521
0.00122725
0.00122565
0.00122767
0.00122606
0.00122821
0.00122659
0.00122566
0.00122566
0.00122674
0.00122682
0.00122683
0.00122684
0.00122684
0.00122685
0.00122685
0.00122678
0.00122245
0.00122245
0.00122688
0.00122517
0.00122727
0.00122565
0.00122775
0.00122613
0.00122835
0.00122672
0.00122548
0.00122548
0.00122659
0.00122667
0.00122668
0.00122668
0.00122669
0.00122669
0.00122668
0.00122662
0.00122225
0.00122225
0.00122675
0.00122502
0.00122723
0.00122559
0.00122779
0.00122614
0.00122851
0.00122686
0.00122517
0.00122517
0.00122626
0.00122633
0.00122634
0.00122635
0.00122635
0.00122635
0.00122635
0.00122628
0.00122191
0.00122191
0.00122648
0.00122469
0.00122704
0.00122533
0.00122769
0.00122597
0.00122858
0.00122686
0.00122155
0.00122155
0.00122155
0.00122158
0.00122158
0.00122159
0.00122159
0.00122159
0.00122159
0.00122159
0.00122159
0.00122159
0.00122159
0.00122159
0.00122159
0.00122159
0.00122159
0.00122157
0.00122157
0.00121813
0.00121813
0.00121813
0.00122201
0.00122201
0.0012244
0.00122456
0.00122457
0.00122457
0.00122457
0.00122457
0.00122457
0.00122446
0.00121866
0.00121866
0.00122258
0.00122258
0.00122511
0.00122529
0.0012253
0.00122531
0.00122531
0.0012253
0.00122529
0.00122516
0.00121923
0.00121923
0.00122331
0.00122331
0.00122584
0.00122602
0.00122603
0.00122604
0.00122604
0.00122603
0.00122601
0.00122586
0.00121998
0.00121998
0.00122443
0.00122443
0.0012269
0.00122709
0.0012271
0.00122711
0.00122711
0.0012271
0.00122706
0.00122691
0.00122113
0.00122113
0.0012292
0.0012292
0.00123028
0.00123037
0.00123038
0.00123039
0.00123039
0.00123038
0.00123032
0.00123025
0.00122605
0.00122605
0.00123275
0.00123275
0.00123399
0.00123411
0.00123415
0.00123416
0.00123416
0.00123415
0.00123412
0.00123408
0.00122973
0.00122973
0.00124325
0.00124325
0.00124865
0.00124881
0.00124867
0.00124861
0.00124863
0.00124864
0.00124889
0.00124886
0.00124051
0.00124051
0.00137589
0.00137589
0.00152094
0.00151546
0.00151189
0.0015109
0.00151077
0.00151168
0.00151463
0.00152392
0.00137969
0.00137969
0.0033649
0.0033649
0.00504158
0.0051206
0.00512307
0.00512305
0.00512286
0.00512185
0.00511934
0.0050746
0.00342143
0.00342143
0.00122931
0.0012276
0.00123078
0.00122916
0.00123318
0.00123152
0.00127217
0.0012735
0.00450732
0.00461914
0.00122858
0.00122699
0.00122932
0.0012278
0.00123004
0.0012285
0.00126009
0.00126137
0.00465056
0.00477038
0.00122812
0.00122653
0.00122858
0.00122703
0.00122897
0.00122742
0.00125765
0.0012589
0.00470975
0.0048329
0.00122787
0.00122627
0.00122828
0.0012267
0.00122863
0.00122705
0.00125719
0.00125843
0.00473103
0.00485545
0.00122786
0.00122625
0.00122832
0.00122671
0.00122875
0.00122713
0.00126047
0.00126193
0.00473562
0.00486054
0.001228
0.00122639
0.00122861
0.00122695
0.00122924
0.00122756
0.00127068
0.0012728
0.00472961
0.00485501
0.00122822
0.00122656
0.00122898
0.00122725
0.00123015
0.0012284
0.00129581
0.0012996
0.00470735
0.00483355
0.00122834
0.00122662
0.00122946
0.00122762
0.00123196
0.00123023
0.00132128
0.00132539
0.00455896
0.00466362
0.00122456
0.00122456
0.00122787
0.00122815
0.00122819
0.00122819
0.00122819
0.00122817
0.00122816
0.00122792
0.00122115
0.00122115
0.00122643
0.00122643
0.00123053
0.00123092
0.00123094
0.00123094
0.00123093
0.00123092
0.00123089
0.00123047
0.00122304
0.00122304
0.00123148
0.00123148
0.00123827
0.00123877
0.00123882
0.00123879
0.00123877
0.00123884
0.00123866
0.00123834
0.00122839
0.00122839
0.00125235
0.00125235
0.00128085
0.00128396
0.00128454
0.00128469
0.00128474
0.00128452
0.00128411
0.00128178
0.00125037
0.00125037
0.0031715
0.0031715
0.00444557
0.00449809
0.0045047
0.0045063
0.0045063
0.00450508
0.00449983
0.00446451
0.00321078
0.00321078
)
;
        Cmu             0.09;
        kappa           0.41;
        E               9.8;
    }
    lid
    {
        type            epsilonWallFunction;
        value           nonuniform List<scalar> 
100
(
0.0033649
0.00504158
0.0051206
0.00512307
0.00512305
0.00512286
0.00512185
0.00511934
0.0050746
0.00342143
0.00450732
0.0100992
0.0103199
0.0103161
0.0103125
0.0103121
0.0103147
0.0103234
0.0101975
0.00461914
0.00465056
0.0104693
0.0106907
0.0106925
0.0106904
0.0106902
0.0106919
0.010697
0.0105726
0.00477038
0.00470975
0.0106501
0.0108784
0.0108841
0.0108833
0.0108833
0.0108841
0.0108862
0.0107565
0.0048329
0.00473103
0.0107163
0.0109481
0.0109558
0.0109558
0.0109558
0.0109561
0.0109565
0.0108239
0.00485545
0.00473562
0.0107262
0.0109583
0.0109666
0.0109668
0.0109668
0.010967
0.0109668
0.0108342
0.00486054
0.00472961
0.0106942
0.0109237
0.0109318
0.010932
0.010932
0.0109322
0.0109323
0.0108027
0.00485501
0.00470735
0.0105846
0.0108071
0.010815
0.0108152
0.0108152
0.0108154
0.0108162
0.0106933
0.00483355
0.00455896
0.00986796
0.0100545
0.0100601
0.0100602
0.0100603
0.0100603
0.010062
0.00994965
0.00466362
0.0031715
0.00444557
0.00449809
0.0045047
0.0045063
0.0045063
0.00450508
0.00449983
0.00446451
0.00321078
)
;
        Cmu             0.09;
        kappa           0.41;
        E               9.8;
    }
}


// ************************************************************************* //
