/*--------------------------------*- C++ -*----------------------------------*\
| =========                 |                                                 |
| \\      /  F ield         | OpenFOAM: The Open Source CFD Toolbox           |
|  \\    /   O peration     | Version:  2.3.1                                 |
|   \\  /    A nd           | Web:      www.OpenFOAM.org                      |
|    \\/     M anipulation  |                                                 |
\*---------------------------------------------------------------------------*/
FoamFile
{
    version     2.0;
    format      ascii;
    class       volScalarField;
    location    "0.37";
    object      k;
}
// * * * * * * * * * * * * * * * * * * * * * * * * * * * * * * * * * * * * * //

dimensions      [0 2 -2 0 0 0 0];

internalField   nonuniform List<scalar> 
1000
(
0.00273833
0.00278695
0.00278751
0.00278741
0.00278737
0.00278736
0.00278734
0.00278735
0.00278729
0.00278221
0.00278766
0.00279082
0.00279088
0.00279084
0.00279082
0.0027908
0.00279079
0.00279079
0.00279062
0.00278288
0.00278911
0.00279185
0.00279197
0.00279194
0.00279192
0.0027919
0.00279189
0.00279189
0.00279171
0.00278375
0.00279011
0.00279312
0.00279329
0.00279328
0.00279327
0.00279325
0.00279323
0.00279323
0.00279305
0.00278497
0.00279168
0.00279508
0.00279533
0.00279536
0.00279536
0.00279534
0.00279533
0.0027953
0.00279512
0.00278664
0.00278655
0.00279008
0.00279044
0.00279052
0.00279055
0.00279057
0.00279057
0.00279058
0.00279042
0.00278298
0.00279072
0.00298402
0.00299296
0.00299333
0.00299337
0.00299339
0.00299339
0.0029933
0.00298701
0.00278792
0.00279178
0.00299369
0.00300304
0.00300338
0.0030034
0.00300339
0.00300339
0.00300329
0.00299663
0.00278901
0.0027929
0.00299446
0.00300377
0.00300411
0.00300413
0.00300412
0.00300412
0.00300402
0.00299736
0.00279015
0.00279448
0.0029952
0.00300452
0.00300487
0.00300488
0.00300488
0.00300488
0.00300478
0.00299809
0.00279174
0.00278814
0.0027909
0.00279122
0.00279131
0.00279136
0.00279138
0.00279139
0.0027914
0.00279124
0.00278365
0.00279129
0.00299307
0.00300243
0.0030028
0.00300284
0.00300285
0.00300286
0.00300276
0.00299611
0.00278878
0.00279226
0.00300305
0.00301298
0.00301335
0.00301336
0.00301336
0.00301337
0.00301325
0.00300621
0.00278978
0.00279332
0.00300375
0.00301367
0.00301403
0.00301405
0.00301404
0.00301404
0.00301393
0.00300688
0.00279079
0.0027947
0.00300423
0.00301413
0.0030145
0.00301452
0.00301451
0.00301452
0.00301439
0.00300735
0.00279216
0.00278885
0.00279148
0.00279172
0.00279179
0.00279183
0.00279185
0.00279187
0.00279188
0.00279171
0.00278411
0.00279176
0.00299376
0.00300306
0.00300341
0.00300344
0.00300345
0.00300346
0.00300335
0.00299669
0.0027892
0.00279258
0.0030035
0.00301342
0.00301378
0.0030138
0.0030138
0.0030138
0.00301368
0.00300663
0.00279011
0.00279351
0.00300412
0.00301404
0.0030144
0.00301442
0.00301441
0.00301442
0.0030143
0.00300724
0.002791
0.00279471
0.00300446
0.00301436
0.00301472
0.00301474
0.00301473
0.00301473
0.00301461
0.00300755
0.00279217
0.00278922
0.00279179
0.002792
0.00279205
0.00279208
0.0027921
0.00279211
0.00279212
0.00279195
0.00278434
0.00279204
0.00299407
0.00300334
0.00300368
0.00300371
0.00300371
0.00300372
0.00300361
0.00299694
0.0027894
0.00279277
0.00300358
0.00301347
0.00301384
0.00301385
0.00301385
0.00301386
0.00301373
0.00300667
0.00279025
0.00279361
0.00300414
0.00301404
0.00301441
0.00301442
0.00301442
0.00301442
0.00301429
0.00300723
0.00279106
0.00279467
0.0030044
0.00301427
0.00301464
0.00301465
0.00301465
0.00301464
0.00301451
0.00300746
0.0027921
0.00278931
0.0027919
0.0027921
0.00279213
0.00279216
0.00279217
0.00279219
0.00279218
0.00279202
0.00278436
0.00279214
0.00299427
0.00300352
0.00300386
0.00300388
0.00300388
0.00300389
0.00300377
0.00299709
0.00278945
0.00279287
0.00300366
0.00301354
0.00301391
0.00301392
0.00301392
0.00301393
0.00301379
0.00300673
0.00279032
0.00279371
0.00300421
0.00301409
0.00301446
0.00301448
0.00301447
0.00301448
0.00301434
0.00300727
0.00279114
0.00279477
0.00300444
0.00301429
0.00301466
0.00301467
0.00301467
0.00301466
0.00301452
0.00300746
0.00279217
0.00278917
0.00279185
0.00279204
0.00279206
0.00279208
0.00279209
0.0027921
0.00279209
0.00279193
0.00278417
0.00279209
0.00299436
0.0030036
0.00300394
0.00300395
0.00300396
0.00300396
0.00300383
0.00299716
0.00278936
0.00279293
0.00300378
0.00301364
0.00301401
0.00301403
0.00301403
0.00301403
0.0030139
0.00300683
0.00279033
0.00279389
0.00300436
0.00301423
0.0030146
0.00301462
0.00301462
0.00301462
0.00301447
0.0030074
0.00279127
0.00279508
0.00300462
0.00301446
0.00301483
0.00301484
0.00301484
0.00301483
0.00301468
0.0030076
0.00279243
0.0027888
0.00279155
0.00279173
0.00279175
0.00279177
0.00279177
0.00279178
0.00279177
0.0027916
0.00278376
0.00279183
0.00299427
0.00300351
0.00300385
0.00300386
0.00300386
0.00300387
0.00300374
0.00299707
0.00278905
0.00279283
0.00300372
0.00301358
0.00301395
0.00301397
0.00301397
0.00301397
0.00301383
0.00300676
0.00279019
0.00279396
0.00300435
0.00301421
0.00301458
0.0030146
0.0030146
0.0030146
0.00301445
0.00300736
0.00279129
0.0027954
0.00300468
0.0030145
0.00301486
0.00301488
0.00301488
0.00301487
0.00301471
0.00300761
0.0027927
0.00278816
0.00279085
0.00279103
0.00279104
0.00279105
0.00279106
0.00279106
0.00279105
0.00279089
0.00278307
0.00279124
0.00298735
0.00299621
0.00299653
0.00299654
0.00299655
0.00299655
0.00299642
0.00298998
0.00278836
0.00279239
0.00299633
0.00300576
0.00300612
0.00300613
0.00300614
0.00300613
0.003006
0.00299918
0.00278963
0.00279372
0.00299674
0.00300616
0.00300651
0.00300652
0.00300653
0.00300652
0.00300637
0.00299954
0.00279091
0.00279547
0.00299668
0.00300602
0.00300635
0.00300636
0.00300636
0.00300634
0.00300619
0.00299937
0.00279265
0.00278235
0.00278242
0.00278243
0.00278244
0.00278244
0.00278245
0.00278244
0.00278244
0.00278239
0.00277701
0.00278328
0.0027878
0.00278811
0.00278814
0.00278814
0.00278815
0.00278814
0.00278813
0.0027879
0.00277805
0.00278443
0.00278924
0.00278958
0.00278962
0.00278963
0.00278964
0.00278963
0.0027896
0.00278932
0.00277919
0.00278591
0.0027907
0.00279107
0.00279111
0.00279113
0.00279114
0.00279111
0.00279107
0.00279074
0.00278066
0.00278814
0.00279286
0.00279325
0.0027933
0.00279332
0.00279331
0.00279329
0.00279321
0.00279285
0.00278295
0.00279629
0.00279905
0.00279935
0.00279941
0.00279943
0.00279943
0.0027994
0.00279926
0.00279896
0.00279131
0.00280316
0.00280659
0.00280699
0.00280708
0.00280709
0.00280709
0.00280707
0.00280699
0.00280668
0.00279842
0.00282801
0.00284652
0.00284675
0.00284629
0.00284611
0.00284613
0.00284624
0.00284679
0.00284701
0.00282402
0.00314901
0.0035185
0.00351242
0.00350329
0.00350033
0.00350013
0.00350275
0.00351116
0.00352687
0.00316119
0.00633563
0.00886794
0.00900744
0.00901241
0.00901254
0.00901161
0.00900892
0.00900147
0.00890977
0.00641877
0.00279697
0.00299331
0.00300231
0.00300262
0.00300263
0.00300263
0.00300261
0.00300245
0.00299587
0.00279416
0.00279994
0.00299541
0.00300457
0.00300494
0.00300495
0.00300495
0.00300495
0.00300475
0.00299812
0.0027973
0.00280553
0.00303093
0.00304372
0.00304499
0.00304525
0.00304527
0.003045
0.00304413
0.00303423
0.00280298
0.00290182
0.00333665
0.00335897
0.00335961
0.00335971
0.00335964
0.00335956
0.00335935
0.00334649
0.00290592
0.00793377
0.0153542
0.0156509
0.0156383
0.0156302
0.0156285
0.0156329
0.0156472
0.0154799
0.00809829
0.00279565
0.003004
0.00301382
0.00301418
0.00301419
0.00301419
0.00301417
0.003014
0.00300692
0.00279304
0.00279717
0.00300467
0.00301457
0.00301496
0.00301498
0.00301498
0.00301497
0.00301479
0.0030077
0.0027947
0.00279886
0.00301326
0.00302433
0.00302497
0.00302504
0.00302505
0.00302498
0.00302465
0.00301661
0.00279642
0.00287099
0.00335052
0.00337851
0.00338092
0.00338142
0.00338141
0.00338094
0.00337931
0.0033616
0.00287445
0.00814811
0.0157623
0.0160431
0.0160413
0.0160368
0.0160359
0.0160388
0.0160473
0.0158969
0.00832302
0.00279473
0.00300393
0.00301381
0.00301417
0.00301418
0.00301418
0.00301417
0.00301402
0.00300691
0.00279215
0.0027957
0.00300394
0.00301383
0.00301419
0.00301421
0.0030142
0.0030142
0.00301405
0.00300698
0.0027932
0.00279665
0.00300695
0.00301714
0.00301756
0.00301759
0.00301759
0.00301757
0.00301741
0.00301018
0.00279419
0.00286511
0.00331715
0.00334163
0.00334319
0.00334346
0.00334346
0.00334322
0.00334243
0.00332808
0.00286833
0.00825288
0.0160422
0.0163326
0.0163387
0.0163369
0.0163365
0.0163379
0.0163412
0.0161844
0.0084347
0.00279421
0.00300368
0.00301358
0.00301394
0.00301395
0.00301395
0.00301394
0.00301381
0.0030067
0.00279165
0.00279508
0.00300361
0.0030135
0.00301386
0.00301387
0.00301387
0.00301386
0.00301373
0.00300666
0.00279256
0.00279594
0.00300611
0.00301616
0.00301655
0.00301656
0.00301656
0.00301655
0.00301642
0.00300931
0.00279343
0.00286393
0.00330826
0.0033314
0.00333264
0.00333282
0.00333283
0.00333268
0.0033322
0.00331913
0.00286708
0.00829287
0.0161501
0.0164462
0.0164562
0.0164558
0.0164557
0.0164564
0.0164567
0.0162955
0.00847754
0.00279415
0.0030037
0.00301363
0.003014
0.00301401
0.00301401
0.003014
0.00301388
0.00300677
0.00279159
0.00279513
0.00300376
0.00301368
0.00301406
0.00301407
0.00301406
0.00301407
0.00301393
0.00300686
0.00279257
0.00279619
0.00300649
0.00301664
0.00301704
0.00301707
0.00301707
0.00301706
0.00301692
0.00300971
0.00279362
0.00287369
0.00332863
0.00335431
0.00335666
0.0033573
0.00335733
0.00335682
0.00335533
0.00334012
0.00287745
0.00830177
0.0161649
0.0164612
0.0164724
0.0164725
0.0164725
0.0164729
0.0164726
0.0163114
0.00848783
0.0027944
0.00300396
0.00301393
0.00301431
0.00301432
0.00301431
0.00301432
0.00301418
0.00300709
0.00279186
0.00279569
0.00300426
0.00301428
0.00301469
0.0030147
0.00301471
0.00301469
0.00301457
0.00300738
0.00279305
0.00279721
0.00300802
0.00301848
0.00301898
0.00301904
0.00301903
0.00301901
0.00301875
0.00301124
0.00279455
0.00290314
0.00339484
0.00342912
0.00343474
0.00343652
0.00343661
0.00343505
0.0034306
0.00340789
0.00290863
0.00829178
0.0161101
0.0164017
0.0164124
0.0164127
0.0164127
0.0164133
0.0164137
0.0162574
0.00847987
0.00279481
0.00300425
0.00301429
0.00301469
0.0030147
0.00301471
0.00301469
0.00301458
0.00300741
0.00279222
0.00279641
0.00300522
0.00301543
0.00301586
0.00301589
0.00301587
0.00301588
0.00301568
0.00300833
0.00279367
0.0027992
0.00301591
0.00302772
0.00302846
0.00302856
0.00302856
0.00302844
0.00302799
0.00301919
0.00279645
0.00296998
0.00352716
0.00357975
0.0035918
0.00359569
0.00359583
0.00359241
0.00358204
0.00354226
0.00297909
0.00825496
0.0159275
0.016207
0.0162169
0.0162172
0.0162172
0.0162181
0.0162203
0.0160743
0.00844746
0.00279507
0.00299814
0.00300787
0.00300827
0.0030083
0.00300829
0.00300829
0.00300815
0.00300118
0.00279234
0.00279732
0.00300189
0.00301214
0.00301258
0.0030126
0.00301259
0.00301257
0.0030124
0.00300483
0.0027944
0.00280326
0.00304415
0.00305926
0.00306079
0.00306115
0.00306114
0.00306078
0.0030596
0.00304755
0.00280063
0.00300419
0.00340853
0.00345926
0.00346944
0.00347232
0.00347239
0.00346994
0.00346102
0.00341879
0.00301109
0.00801778
0.0149523
0.015207
0.0152257
0.0152302
0.0152305
0.015228
0.0152209
0.015071
0.00819131
0.00278842
0.00279498
0.00279555
0.00279563
0.00279565
0.00279564
0.00279561
0.00279557
0.00279511
0.00278312
0.00279193
0.00280013
0.00280094
0.00280103
0.00280104
0.00280104
0.002801
0.00280094
0.00280013
0.00278663
0.00280405
0.00281826
0.00281956
0.00281976
0.00281977
0.00281974
0.00281983
0.00281948
0.00281852
0.00279926
0.0028529
0.00291774
0.00292585
0.00292752
0.00292799
0.00292809
0.00292757
0.00292629
0.00291998
0.0028505
0.00594607
0.00778337
0.00786296
0.0078761
0.00788003
0.00788013
0.00787725
0.00786703
0.00781267
0.00600761
)
;

boundaryField
{
    walls
    {
        type            kqRWallFunction;
        value           nonuniform List<scalar> 
500
(
0.00273833
0.00273833
0.00273833
0.00278695
0.00278695
0.00278751
0.00278751
0.00278741
0.00278741
0.00278737
0.00278737
0.00278736
0.00278736
0.00278734
0.00278734
0.00278735
0.00278735
0.00278729
0.00278729
0.00278221
0.00278221
0.00278221
0.00278766
0.00278766
0.00279082
0.00279088
0.00279084
0.00279082
0.0027908
0.00279079
0.00279079
0.00279062
0.00278288
0.00278288
0.00278911
0.00278911
0.00279185
0.00279197
0.00279194
0.00279192
0.0027919
0.00279189
0.00279189
0.00279171
0.00278375
0.00278375
0.00279011
0.00279011
0.00279312
0.00279329
0.00279328
0.00279327
0.00279325
0.00279323
0.00279323
0.00279305
0.00278497
0.00278497
0.00279168
0.00279168
0.00279508
0.00279533
0.00279536
0.00279536
0.00279534
0.00279533
0.0027953
0.00279512
0.00278664
0.00278664
0.00278655
0.00278655
0.00279008
0.00279044
0.00279052
0.00279055
0.00279057
0.00279057
0.00279058
0.00279042
0.00278298
0.00278298
0.00279072
0.00278792
0.00279178
0.00278901
0.0027929
0.00279015
0.00279448
0.00279174
0.00278814
0.00278814
0.0027909
0.00279122
0.00279131
0.00279136
0.00279138
0.00279139
0.0027914
0.00279124
0.00278365
0.00278365
0.00279129
0.00278878
0.00279226
0.00278978
0.00279332
0.00279079
0.0027947
0.00279216
0.00278885
0.00278885
0.00279148
0.00279172
0.00279179
0.00279183
0.00279185
0.00279187
0.00279188
0.00279171
0.00278411
0.00278411
0.00279176
0.0027892
0.00279258
0.00279011
0.00279351
0.002791
0.00279471
0.00279217
0.00278922
0.00278922
0.00279179
0.002792
0.00279205
0.00279208
0.0027921
0.00279211
0.00279212
0.00279195
0.00278434
0.00278434
0.00279204
0.0027894
0.00279277
0.00279025
0.00279361
0.00279106
0.00279467
0.0027921
0.00278931
0.00278931
0.0027919
0.0027921
0.00279213
0.00279216
0.00279217
0.00279219
0.00279218
0.00279202
0.00278436
0.00278436
0.00279214
0.00278945
0.00279287
0.00279032
0.00279371
0.00279114
0.00279477
0.00279217
0.00278917
0.00278917
0.00279185
0.00279204
0.00279206
0.00279208
0.00279209
0.0027921
0.00279209
0.00279193
0.00278417
0.00278417
0.00279209
0.00278936
0.00279293
0.00279033
0.00279389
0.00279127
0.00279508
0.00279243
0.0027888
0.0027888
0.00279155
0.00279173
0.00279175
0.00279177
0.00279177
0.00279178
0.00279177
0.0027916
0.00278376
0.00278376
0.00279183
0.00278905
0.00279283
0.00279019
0.00279396
0.00279129
0.0027954
0.0027927
0.00278816
0.00278816
0.00279085
0.00279103
0.00279104
0.00279105
0.00279106
0.00279106
0.00279105
0.00279089
0.00278307
0.00278307
0.00279124
0.00278836
0.00279239
0.00278963
0.00279372
0.00279091
0.00279547
0.00279265
0.00278235
0.00278235
0.00278235
0.00278242
0.00278242
0.00278243
0.00278243
0.00278244
0.00278244
0.00278244
0.00278244
0.00278245
0.00278245
0.00278244
0.00278244
0.00278244
0.00278244
0.00278239
0.00278239
0.00277701
0.00277701
0.00277701
0.00278328
0.00278328
0.0027878
0.00278811
0.00278814
0.00278814
0.00278815
0.00278814
0.00278813
0.0027879
0.00277805
0.00277805
0.00278443
0.00278443
0.00278924
0.00278958
0.00278962
0.00278963
0.00278964
0.00278963
0.0027896
0.00278932
0.00277919
0.00277919
0.00278591
0.00278591
0.0027907
0.00279107
0.00279111
0.00279113
0.00279114
0.00279111
0.00279107
0.00279074
0.00278066
0.00278066
0.00278814
0.00278814
0.00279286
0.00279325
0.0027933
0.00279332
0.00279331
0.00279329
0.00279321
0.00279285
0.00278295
0.00278295
0.00279629
0.00279629
0.00279905
0.00279935
0.00279941
0.00279943
0.00279943
0.0027994
0.00279926
0.00279896
0.00279131
0.00279131
0.00280316
0.00280316
0.00280659
0.00280699
0.00280708
0.00280709
0.00280709
0.00280707
0.00280699
0.00280668
0.00279842
0.00279842
0.00282801
0.00282801
0.00284652
0.00284675
0.00284629
0.00284611
0.00284613
0.00284624
0.00284679
0.00284701
0.00282402
0.00282402
0.00314901
0.00314901
0.0035185
0.00351242
0.00350329
0.00350033
0.00350013
0.00350275
0.00351116
0.00352687
0.00316119
0.00316119
0.00633563
0.00633563
0.00886794
0.00900744
0.00901241
0.00901254
0.00901161
0.00900892
0.00900147
0.00890977
0.00641877
0.00641877
0.00279697
0.00279416
0.00279994
0.0027973
0.00280553
0.00280298
0.00290182
0.00290592
0.00793377
0.00809829
0.00279565
0.00279304
0.00279717
0.0027947
0.00279886
0.00279642
0.00287099
0.00287445
0.00814811
0.00832302
0.00279473
0.00279215
0.0027957
0.0027932
0.00279665
0.00279419
0.00286511
0.00286833
0.00825288
0.0084347
0.00279421
0.00279165
0.00279508
0.00279256
0.00279594
0.00279343
0.00286393
0.00286708
0.00829287
0.00847754
0.00279415
0.00279159
0.00279513
0.00279257
0.00279619
0.00279362
0.00287369
0.00287745
0.00830177
0.00848783
0.0027944
0.00279186
0.00279569
0.00279305
0.00279721
0.00279455
0.00290314
0.00290863
0.00829178
0.00847987
0.00279481
0.00279222
0.00279641
0.00279367
0.0027992
0.00279645
0.00296998
0.00297909
0.00825496
0.00844746
0.00279507
0.00279234
0.00279732
0.0027944
0.00280326
0.00280063
0.00300419
0.00301109
0.00801778
0.00819131
0.00278842
0.00278842
0.00279498
0.00279555
0.00279563
0.00279565
0.00279564
0.00279561
0.00279557
0.00279511
0.00278312
0.00278312
0.00279193
0.00279193
0.00280013
0.00280094
0.00280103
0.00280104
0.00280104
0.002801
0.00280094
0.00280013
0.00278663
0.00278663
0.00280405
0.00280405
0.00281826
0.00281956
0.00281976
0.00281977
0.00281974
0.00281983
0.00281948
0.00281852
0.00279926
0.00279926
0.0028529
0.0028529
0.00291774
0.00292585
0.00292752
0.00292799
0.00292809
0.00292757
0.00292629
0.00291998
0.0028505
0.0028505
0.00594607
0.00594607
0.00778337
0.00786296
0.0078761
0.00788003
0.00788013
0.00787725
0.00786703
0.00781267
0.00600761
0.00600761
)
;
    }
    lid
    {
        type            kqRWallFunction;
        value           nonuniform List<scalar> 
100
(
0.00633563
0.00886794
0.00900744
0.00901241
0.00901254
0.00901161
0.00900892
0.00900147
0.00890977
0.00641877
0.00793377
0.0153542
0.0156509
0.0156383
0.0156302
0.0156285
0.0156329
0.0156472
0.0154799
0.00809829
0.00814811
0.0157623
0.0160431
0.0160413
0.0160368
0.0160359
0.0160388
0.0160473
0.0158969
0.00832302
0.00825288
0.0160422
0.0163326
0.0163387
0.0163369
0.0163365
0.0163379
0.0163412
0.0161844
0.0084347
0.00829287
0.0161501
0.0164462
0.0164562
0.0164558
0.0164557
0.0164564
0.0164567
0.0162955
0.00847754
0.00830177
0.0161649
0.0164612
0.0164724
0.0164725
0.0164725
0.0164729
0.0164726
0.0163114
0.00848783
0.00829178
0.0161101
0.0164017
0.0164124
0.0164127
0.0164127
0.0164133
0.0164137
0.0162574
0.00847987
0.00825496
0.0159275
0.016207
0.0162169
0.0162172
0.0162172
0.0162181
0.0162203
0.0160743
0.00844746
0.00801778
0.0149523
0.015207
0.0152257
0.0152302
0.0152305
0.015228
0.0152209
0.015071
0.00819131
0.00594607
0.00778337
0.00786296
0.0078761
0.00788003
0.00788013
0.00787725
0.00786703
0.00781267
0.00600761
)
;
    }
}


// ************************************************************************* //
