/*--------------------------------*- C++ -*----------------------------------*\
| =========                 |                                                 |
| \\      /  F ield         | OpenFOAM: The Open Source CFD Toolbox           |
|  \\    /   O peration     | Version:  2.3.1                                 |
|   \\  /    A nd           | Web:      www.OpenFOAM.org                      |
|    \\/     M anipulation  |                                                 |
\*---------------------------------------------------------------------------*/
FoamFile
{
    version     2.0;
    format      ascii;
    class       volScalarField;
    location    "0.37";
    object      nut;
}
// * * * * * * * * * * * * * * * * * * * * * * * * * * * * * * * * * * * * * //

dimensions      [0 2 -1 0 0 0 0];

internalField   nonuniform List<scalar> 
1000
(
0.000563205
0.000570858
0.000570946
0.000570933
0.000570931
0.00057093
0.000570929
0.000570929
0.000570918
0.000570351
0.000570987
0.000571651
0.000571674
0.00057167
0.000571668
0.000571667
0.000571666
0.000571664
0.000571627
0.00057047
0.00057123
0.000571847
0.00057188
0.000571877
0.000571875
0.000571873
0.00057187
0.000571869
0.000571827
0.000570621
0.0005714
0.000572073
0.000572115
0.000572115
0.000572115
0.000572111
0.000572109
0.000572105
0.000572065
0.000570831
0.000571677
0.000572422
0.00057248
0.000572486
0.000572487
0.000572486
0.00057248
0.000572478
0.000572434
0.000571127
0.000570804
0.00057152
0.000571585
0.000571599
0.000571606
0.000571608
0.00057161
0.00057161
0.000571576
0.000570486
0.000571626
0.00113088
0.00116354
0.00116464
0.00116476
0.00116482
0.00116485
0.00116452
0.00113571
0.000571293
0.000571813
0.00116605
0.00120143
0.00120239
0.00120242
0.00120243
0.00120243
0.00120203
0.00117035
0.00057148
0.000572001
0.00116741
0.00120268
0.00120363
0.00120366
0.00120365
0.00120365
0.00120325
0.00117145
0.000571676
0.000572268
0.00116769
0.00120296
0.00120391
0.00120393
0.00120393
0.00120393
0.00120353
0.00117162
0.000571954
0.000571083
0.000571676
0.000571734
0.000571748
0.000571755
0.000571759
0.000571761
0.000571762
0.000571725
0.000570602
0.000571739
0.00116363
0.00119892
0.00119999
0.00120008
0.00120012
0.00120014
0.00119977
0.00116828
0.000571442
0.000571906
0.00120102
0.00123996
0.00124104
0.00124106
0.00124107
0.00124107
0.00124062
0.00120588
0.000571612
0.00057208
0.00120225
0.0012412
0.00124227
0.00124229
0.00124229
0.00124229
0.00124185
0.00120698
0.000571784
0.000572314
0.00120234
0.00124125
0.00124232
0.00124234
0.00124233
0.00124233
0.00124188
0.00120699
0.000572023
0.0005712
0.000571773
0.000571822
0.000571832
0.000571838
0.000571841
0.000571844
0.000571844
0.000571807
0.000570683
0.000571819
0.00116573
0.00120084
0.00120184
0.0012019
0.00120193
0.00120194
0.00120156
0.00116993
0.000571517
0.000571964
0.00120216
0.00124107
0.00124214
0.00124217
0.00124217
0.00124217
0.00124172
0.00120689
0.000571671
0.000572117
0.00120326
0.00124222
0.00124329
0.00124331
0.00124331
0.00124331
0.00124286
0.00120795
0.000571822
0.000572321
0.0012033
0.00124221
0.00124328
0.0012433
0.0012433
0.0012433
0.00124285
0.00120793
0.000572025
0.000571261
0.000571826
0.00057187
0.000571877
0.000571881
0.000571884
0.000571886
0.000571887
0.00057185
0.000570724
0.000571868
0.00116685
0.00120188
0.00120285
0.00120289
0.00120291
0.00120292
0.00120253
0.00117083
0.000571556
0.000572
0.00120235
0.00124117
0.00124224
0.00124226
0.00124226
0.00124226
0.00124181
0.00120698
0.000571703
0.000572142
0.00120335
0.00124223
0.0012433
0.00124332
0.00124332
0.00124332
0.00124287
0.00120797
0.000571841
0.000572325
0.00120337
0.0012422
0.00124326
0.00124328
0.00124328
0.00124328
0.00124283
0.00120795
0.000572021
0.000571274
0.000571846
0.000571888
0.000571893
0.000571897
0.000571899
0.000571901
0.000571901
0.000571864
0.000570728
0.000571886
0.00116752
0.00120251
0.00120345
0.00120347
0.00120347
0.00120347
0.00120306
0.00117133
0.000571566
0.000572022
0.00120245
0.00124121
0.00124227
0.0012423
0.00124229
0.00124229
0.00124184
0.00120701
0.00057172
0.00057217
0.00120339
0.00124221
0.00124328
0.0012433
0.0012433
0.0012433
0.00124284
0.00120795
0.000571863
0.000572354
0.0012034
0.00124215
0.00124321
0.00124323
0.00124323
0.00124322
0.00124277
0.00120792
0.000572041
0.000571248
0.000571838
0.000571879
0.000571884
0.000571886
0.000571888
0.000571889
0.000571889
0.000571851
0.000570694
0.000571875
0.0011676
0.00120256
0.0012035
0.00120352
0.00120352
0.00120352
0.00120311
0.00117137
0.00057155
0.000572032
0.00120249
0.0012412
0.00124226
0.00124228
0.00124228
0.00124228
0.00124183
0.00120701
0.000571723
0.000572204
0.0012034
0.00124217
0.00124324
0.00124326
0.00124326
0.00124326
0.0012428
0.00120793
0.000571889
0.000572412
0.00120337
0.00124207
0.00124312
0.00124315
0.00124315
0.00124314
0.00124269
0.00120787
0.000572088
0.000571178
0.000571785
0.000571826
0.00057183
0.000571832
0.000571834
0.000571834
0.000571833
0.000571795
0.00057062
0.000571826
0.00116719
0.00120208
0.00120302
0.00120304
0.00120304
0.00120304
0.00120263
0.00117093
0.000571495
0.000572012
0.00120196
0.0012406
0.00124166
0.00124168
0.00124168
0.00124168
0.00124123
0.00120646
0.000571696
0.000572216
0.00120281
0.00124149
0.00124255
0.00124257
0.00124257
0.00124257
0.00124212
0.00120731
0.000571891
0.000572468
0.00120265
0.00124122
0.00124227
0.00124229
0.00124229
0.00124229
0.00124184
0.0012071
0.000572133
0.000571059
0.000571652
0.000571692
0.000571695
0.000571697
0.000571698
0.000571698
0.000571697
0.00057166
0.000570496
0.000571709
0.00113541
0.0011674
0.00116824
0.00116825
0.00116824
0.00116824
0.00116786
0.00113852
0.000571363
0.000571923
0.00116658
0.00120179
0.00120273
0.00120274
0.00120273
0.00120273
0.00120232
0.00117032
0.000571588
0.000572161
0.00116603
0.00120112
0.00120205
0.00120205
0.00120205
0.00120205
0.00120165
0.00116974
0.000571814
0.000572467
0.00116333
0.00119802
0.0011989
0.00119889
0.00119889
0.0011989
0.00119852
0.00116694
0.00057211
0.000570368
0.000570382
0.000570384
0.000570385
0.000570386
0.000570387
0.000570386
0.000570386
0.000570375
0.000569774
0.000570534
0.000571272
0.000571327
0.000571331
0.000571332
0.000571333
0.000571333
0.00057133
0.000571283
0.000569953
0.000570738
0.000571527
0.000571589
0.000571596
0.000571598
0.0005716
0.000571598
0.000571592
0.000571537
0.000570154
0.000571002
0.000571791
0.000571859
0.000571868
0.000571871
0.000571873
0.000571868
0.00057186
0.000571793
0.000570411
0.000571393
0.000572178
0.000572252
0.000572265
0.00057227
0.000572269
0.000572265
0.000572246
0.000572169
0.000570807
0.000572512
0.000573139
0.000573217
0.000573237
0.000573241
0.000573244
0.000573236
0.000573205
0.000573119
0.000571941
0.000573674
0.000574502
0.000574606
0.000574623
0.000574626
0.000574625
0.000574623
0.000574601
0.000574494
0.000573137
0.000578956
0.000584022
0.000584045
0.000583922
0.00058387
0.000583871
0.000583912
0.000584021
0.000584127
0.000578599
0.000648644
0.000732563
0.000732675
0.000730594
0.000729839
0.000729814
0.000730469
0.000732552
0.000734614
0.000651869
0.00107362
0.00140385
0.00142602
0.0014269
0.00142695
0.00142671
0.00142614
0.00142448
0.0014079
0.00108377
0.00057274
0.00115403
0.00118728
0.00118806
0.00118803
0.00118802
0.00118805
0.00118775
0.0011574
0.000572385
0.000573268
0.00114298
0.0011749
0.00117558
0.00117554
0.00117553
0.00117559
0.00117537
0.00114619
0.000572941
0.00057444
0.00112164
0.00115131
0.00115201
0.001152
0.00115201
0.00115201
0.00115177
0.00112439
0.000574174
0.000595717
0.00106154
0.0010812
0.00108135
0.0010813
0.00108127
0.00108131
0.00108132
0.00106325
0.000596776
0.00125685
0.00210091
0.00213623
0.00213355
0.00213208
0.00213171
0.00213238
0.00213449
0.00211489
0.00127782
0.000572535
0.0012016
0.00124012
0.00124117
0.00124119
0.00124119
0.00124118
0.00124073
0.00120603
0.00057221
0.000572817
0.00120098
0.00123942
0.00124046
0.00124048
0.00124048
0.00124048
0.00124004
0.00120543
0.000572514
0.000573171
0.00120129
0.00123982
0.0012409
0.00124094
0.00124094
0.00124093
0.00124047
0.00120576
0.000572893
0.000588712
0.00116244
0.001192
0.00119312
0.00119324
0.00119323
0.00119311
0.00119242
0.00116568
0.000589534
0.00128485
0.00213582
0.00216677
0.00216594
0.00216514
0.00216494
0.00216537
0.00216664
0.00215123
0.00130693
0.000572378
0.00120345
0.00124232
0.00124339
0.00124341
0.00124341
0.00124341
0.00124295
0.00120797
0.00057206
0.00057256
0.00120347
0.00124236
0.00124343
0.00124346
0.00124346
0.00124345
0.001243
0.00120801
0.000572258
0.000572764
0.00120461
0.00124365
0.00124474
0.00124477
0.00124477
0.00124477
0.00124431
0.00120923
0.000572478
0.000587441
0.00116134
0.00119086
0.00119187
0.00119195
0.00119195
0.00119188
0.00119134
0.00116489
0.000588176
0.00130153
0.00217478
0.00220693
0.00220742
0.00220708
0.00220699
0.0022072
0.00220766
0.00219161
0.00132487
0.000572281
0.00120355
0.00124251
0.00124358
0.0012436
0.0012436
0.0012436
0.00124314
0.0012081
0.000571974
0.000572445
0.00120357
0.00124253
0.0012436
0.00124363
0.00124363
0.00124362
0.00124317
0.00120813
0.000572146
0.000572633
0.00120458
0.00124363
0.00124472
0.00124474
0.00124474
0.00124474
0.00124428
0.00120921
0.000572343
0.000587173
0.00115898
0.00118812
0.00118904
0.00118909
0.0011891
0.00118905
0.00118862
0.00116257
0.000587884
0.00130827
0.00219053
0.00222348
0.00222461
0.00222452
0.00222451
0.0022246
0.00222463
0.00220797
0.00133215
0.000572261
0.00120355
0.00124261
0.00124368
0.00124371
0.00124371
0.0012437
0.00124325
0.00120816
0.000571963
0.000572447
0.00120356
0.00124265
0.00124373
0.00124376
0.00124376
0.00124376
0.0012433
0.00120817
0.000572148
0.000572681
0.00120456
0.00124379
0.00124488
0.00124491
0.00124491
0.0012449
0.00124444
0.0012092
0.000572382
0.000589644
0.00114933
0.00117667
0.00117704
0.00117688
0.00117687
0.00117701
0.00117706
0.00115261
0.000590502
0.0013098
0.00219252
0.00222549
0.00222681
0.00222681
0.00222681
0.00222689
0.00222683
0.00221017
0.00133399
0.000572298
0.0012035
0.00124269
0.00124378
0.00124381
0.0012438
0.0012438
0.00124334
0.00120816
0.000572008
0.000572539
0.00120348
0.00124282
0.00124392
0.00124395
0.00124395
0.00124394
0.00124348
0.0012081
0.000572233
0.000572867
0.00120457
0.00124431
0.00124544
0.00124548
0.00124547
0.00124546
0.00124495
0.00120921
0.000572562
0.000596958
0.00112696
0.00115056
0.00114989
0.00114937
0.00114934
0.00114981
0.00115079
0.00112967
0.000598217
0.00130832
0.0021842
0.00221643
0.00221767
0.0022177
0.0022177
0.00221782
0.00221791
0.00220196
0.001333
0.000572364
0.00120301
0.00124235
0.00124345
0.00124347
0.00124347
0.00124346
0.00124301
0.00120768
0.000572073
0.000572664
0.00120293
0.00124268
0.0012438
0.00124383
0.00124382
0.00124382
0.00124332
0.00120754
0.000572349
0.000573258
0.00120504
0.00124614
0.00124738
0.00124743
0.00124742
0.00124737
0.00124678
0.00120969
0.00057295
0.000612646
0.00109983
0.0011198
0.00111785
0.00111691
0.00111687
0.00111773
0.00111992
0.00110221
0.00061461
0.00130286
0.00215706
0.00218746
0.00218852
0.00218857
0.00218857
0.00218876
0.00218919
0.00217469
0.0013287
0.000572411
0.0011714
0.00120781
0.00120883
0.00120886
0.00120885
0.00120885
0.0012084
0.00117544
0.000572097
0.000572812
0.00117194
0.00120922
0.00121028
0.00121031
0.0012103
0.00121027
0.0012098
0.00117591
0.000572475
0.000574082
0.00117906
0.00121981
0.00122118
0.00122129
0.00122128
0.00122118
0.00122041
0.00118309
0.000573806
0.000614754
0.00113307
0.00116914
0.00117016
0.00117021
0.0011702
0.00117021
0.00116977
0.00113605
0.000615667
0.00126907
0.00203907
0.00207001
0.00207395
0.00207516
0.00207521
0.00207451
0.00207223
0.00205457
0.00129487
0.000571447
0.000572595
0.000572698
0.000572713
0.00057272
0.000572716
0.000572714
0.000572703
0.000572623
0.00057087
0.000572016
0.000573465
0.000573616
0.000573642
0.000573647
0.00057365
0.000573641
0.000573628
0.000573493
0.000571428
0.000574628
0.000577282
0.000577584
0.000577642
0.000577657
0.000577657
0.000577658
0.000577605
0.000577355
0.000574105
0.000584912
0.000598187
0.000600061
0.000600475
0.000600601
0.000600612
0.000600505
0.00060017
0.000598673
0.00058485
0.00100332
0.00122645
0.00123705
0.00123936
0.00124016
0.00124019
0.00123962
0.00123785
0.00123046
0.00101166
)
;

boundaryField
{
    walls
    {
        type            nutkWallFunction;
        Cmu             0.09;
        kappa           0.41;
        E               9.8;
        value           nonuniform List<scalar> 
500
(
7.1073e-05
7.1073e-05
7.1073e-05
7.16903e-05
7.16903e-05
7.16974e-05
7.16974e-05
7.16961e-05
7.16961e-05
7.16956e-05
7.16956e-05
7.16955e-05
7.16955e-05
7.16953e-05
7.16953e-05
7.16953e-05
7.16953e-05
7.16946e-05
7.16946e-05
7.16305e-05
7.16305e-05
7.16305e-05
7.16994e-05
7.16994e-05
7.17392e-05
7.174e-05
7.17395e-05
7.17392e-05
7.1739e-05
7.17388e-05
7.17388e-05
7.17366e-05
7.16389e-05
7.16389e-05
7.17176e-05
7.17176e-05
7.17523e-05
7.17538e-05
7.17534e-05
7.17531e-05
7.17529e-05
7.17527e-05
7.17527e-05
7.17505e-05
7.16499e-05
7.16499e-05
7.17302e-05
7.17302e-05
7.17682e-05
7.17704e-05
7.17703e-05
7.17701e-05
7.17699e-05
7.17697e-05
7.17697e-05
7.17673e-05
7.16653e-05
7.16653e-05
7.17501e-05
7.17501e-05
7.17929e-05
7.17961e-05
7.17965e-05
7.17966e-05
7.17963e-05
7.17962e-05
7.17958e-05
7.17935e-05
7.16864e-05
7.16864e-05
7.16853e-05
7.16853e-05
7.17299e-05
7.17344e-05
7.17354e-05
7.17359e-05
7.17361e-05
7.17361e-05
7.17362e-05
7.17342e-05
7.16402e-05
7.16402e-05
7.17379e-05
7.17026e-05
7.17514e-05
7.17163e-05
7.17655e-05
7.17308e-05
7.17855e-05
7.17509e-05
7.17054e-05
7.17054e-05
7.17403e-05
7.17443e-05
7.17454e-05
7.1746e-05
7.17463e-05
7.17465e-05
7.17466e-05
7.17445e-05
7.16486e-05
7.16486e-05
7.17452e-05
7.17135e-05
7.17574e-05
7.1726e-05
7.17708e-05
7.17389e-05
7.17882e-05
7.17561e-05
7.17144e-05
7.17144e-05
7.17475e-05
7.17506e-05
7.17514e-05
7.1752e-05
7.17523e-05
7.17525e-05
7.17526e-05
7.17505e-05
7.16545e-05
7.16545e-05
7.17511e-05
7.17188e-05
7.17614e-05
7.17302e-05
7.17732e-05
7.17415e-05
7.17884e-05
7.17562e-05
7.1719e-05
7.1719e-05
7.17515e-05
7.17542e-05
7.17547e-05
7.17551e-05
7.17553e-05
7.17555e-05
7.17556e-05
7.17535e-05
7.16574e-05
7.16574e-05
7.17547e-05
7.17213e-05
7.17638e-05
7.17321e-05
7.17744e-05
7.17423e-05
7.17879e-05
7.17554e-05
7.17201e-05
7.17201e-05
7.17529e-05
7.17554e-05
7.17558e-05
7.17561e-05
7.17563e-05
7.17565e-05
7.17564e-05
7.17544e-05
7.16576e-05
7.16576e-05
7.17559e-05
7.17219e-05
7.17651e-05
7.17329e-05
7.17758e-05
7.17432e-05
7.17891e-05
7.17563e-05
7.17184e-05
7.17184e-05
7.17522e-05
7.17546e-05
7.17549e-05
7.17551e-05
7.17552e-05
7.17554e-05
7.17553e-05
7.17532e-05
7.16552e-05
7.16552e-05
7.17553e-05
7.17207e-05
7.17659e-05
7.1733e-05
7.1778e-05
7.17449e-05
7.17929e-05
7.17595e-05
7.17137e-05
7.17137e-05
7.17484e-05
7.17507e-05
7.1751e-05
7.17512e-05
7.17513e-05
7.17514e-05
7.17512e-05
7.17491e-05
7.165e-05
7.165e-05
7.1752e-05
7.17169e-05
7.17646e-05
7.17313e-05
7.17789e-05
7.17452e-05
7.1797e-05
7.1763e-05
7.17056e-05
7.17056e-05
7.17396e-05
7.17418e-05
7.1742e-05
7.17422e-05
7.17422e-05
7.17422e-05
7.17422e-05
7.17401e-05
7.16414e-05
7.16414e-05
7.17445e-05
7.17081e-05
7.17591e-05
7.17242e-05
7.17759e-05
7.17404e-05
7.17979e-05
7.17623e-05
7.16323e-05
7.16323e-05
7.16323e-05
7.16331e-05
7.16331e-05
7.16332e-05
7.16332e-05
7.16333e-05
7.16333e-05
7.16333e-05
7.16333e-05
7.16334e-05
7.16334e-05
7.16334e-05
7.16334e-05
7.16333e-05
7.16333e-05
7.16326e-05
7.16326e-05
7.15646e-05
7.15646e-05
7.15646e-05
7.1644e-05
7.1644e-05
7.17011e-05
7.1705e-05
7.17053e-05
7.17054e-05
7.17055e-05
7.17054e-05
7.17053e-05
7.17023e-05
7.15777e-05
7.15777e-05
7.16585e-05
7.16585e-05
7.17192e-05
7.17236e-05
7.17241e-05
7.17242e-05
7.17243e-05
7.17242e-05
7.17238e-05
7.17203e-05
7.15922e-05
7.15922e-05
7.16771e-05
7.16771e-05
7.17378e-05
7.17424e-05
7.17429e-05
7.17432e-05
7.17432e-05
7.17429e-05
7.17424e-05
7.17382e-05
7.16108e-05
7.16108e-05
7.17053e-05
7.17053e-05
7.1765e-05
7.17699e-05
7.17705e-05
7.17708e-05
7.17707e-05
7.17705e-05
7.17694e-05
7.17649e-05
7.16398e-05
7.16398e-05
7.18083e-05
7.18083e-05
7.18431e-05
7.18468e-05
7.18475e-05
7.18478e-05
7.18478e-05
7.18474e-05
7.18457e-05
7.18419e-05
7.17454e-05
7.17454e-05
7.18949e-05
7.18949e-05
7.19381e-05
7.19431e-05
7.19442e-05
7.19444e-05
7.19443e-05
7.19441e-05
7.1943e-05
7.19391e-05
7.18351e-05
7.18351e-05
7.22071e-05
7.22071e-05
7.24386e-05
7.24416e-05
7.24358e-05
7.24335e-05
7.24337e-05
7.24351e-05
7.2442e-05
7.24448e-05
7.2157e-05
7.2157e-05
7.61099e-05
7.61099e-05
8.03368e-05
8.02694e-05
8.01679e-05
8.0135e-05
8.01327e-05
8.01619e-05
8.02554e-05
8.04297e-05
7.62535e-05
7.62535e-05
0.000106572
0.000106572
0.000124956
0.000125878
0.00012591
0.000125911
0.000125905
0.000125887
0.000125838
0.000125233
0.000107235
0.000107235
7.18168e-05
7.17813e-05
7.18542e-05
7.1821e-05
7.19247e-05
7.18926e-05
7.31255e-05
7.31761e-05
0.000118563
0.000119718
7.18002e-05
7.17673e-05
7.18194e-05
7.17882e-05
7.18406e-05
7.18099e-05
7.27434e-05
7.27865e-05
0.000120065
0.000121275
7.17886e-05
7.1756e-05
7.18008e-05
7.17692e-05
7.18128e-05
7.17817e-05
7.26703e-05
7.27104e-05
0.000120791
0.00012204
7.17821e-05
7.17496e-05
7.1793e-05
7.17611e-05
7.18038e-05
7.17722e-05
7.26557e-05
7.26949e-05
0.000121067
0.000122332
7.17813e-05
7.1749e-05
7.17936e-05
7.17614e-05
7.1807e-05
7.17745e-05
7.2777e-05
7.28237e-05
0.000121128
0.000122402
7.17844e-05
7.17524e-05
7.18006e-05
7.17674e-05
7.18198e-05
7.17863e-05
7.31418e-05
7.32096e-05
0.00012106
0.000122348
7.17896e-05
7.17569e-05
7.18097e-05
7.17753e-05
7.18449e-05
7.18103e-05
7.39622e-05
7.40731e-05
0.000120806
0.000122127
7.17929e-05
7.17584e-05
7.18212e-05
7.17844e-05
7.18961e-05
7.18629e-05
7.4378e-05
7.44616e-05
0.000119154
0.000120365
7.17089e-05
7.17089e-05
7.17918e-05
7.1799e-05
7.18e-05
7.18002e-05
7.18e-05
7.17997e-05
7.17992e-05
7.17934e-05
7.1642e-05
7.1642e-05
7.17532e-05
7.17532e-05
7.18566e-05
7.18669e-05
7.18679e-05
7.18682e-05
7.18681e-05
7.18677e-05
7.18669e-05
7.18567e-05
7.16864e-05
7.16864e-05
7.1906e-05
7.1906e-05
7.20847e-05
7.21011e-05
7.21035e-05
7.21037e-05
7.21033e-05
7.21044e-05
7.21001e-05
7.2088e-05
7.18457e-05
7.18457e-05
7.25183e-05
7.25183e-05
7.33219e-05
7.34217e-05
7.34422e-05
7.34481e-05
7.34492e-05
7.34428e-05
7.34271e-05
7.33495e-05
7.24883e-05
7.24883e-05
0.000103401
0.000103401
0.000117495
0.000118062
0.000118155
0.000118183
0.000118183
0.000118163
0.00011809
0.000117704
0.000103909
0.000103909
)
;
    }
    lid
    {
        type            nutkWallFunction;
        Cmu             0.09;
        kappa           0.41;
        E               9.8;
        value           nonuniform List<scalar> 
100
(
0.000106572
0.000124956
0.000125878
0.00012591
0.000125911
0.000125905
0.000125887
0.000125838
0.000125233
0.000107235
0.000118563
0.000161569
0.000163015
0.000162953
0.000162914
0.000162906
0.000162927
0.000162997
0.000162184
0.000119718
0.000120065
0.000163553
0.000164902
0.000164894
0.000164872
0.000164868
0.000164882
0.000164923
0.000164202
0.000121275
0.000120791
0.000164898
0.00016628
0.000166309
0.0001663
0.000166298
0.000166305
0.00016632
0.000165576
0.00012204
0.000121067
0.000165413
0.000166816
0.000166863
0.000166862
0.000166861
0.000166864
0.000166866
0.000166104
0.000122332
0.000121128
0.000165484
0.000166887
0.00016694
0.00016694
0.000166941
0.000166942
0.000166941
0.000166179
0.000122402
0.00012106
0.000165223
0.000166606
0.000166657
0.000166658
0.000166658
0.000166661
0.000166663
0.000165923
0.000122348
0.000120806
0.000164348
0.000165684
0.000165731
0.000165732
0.000165733
0.000165737
0.000165747
0.000165052
0.000122127
0.000119154
0.000159586
0.000160846
0.000160938
0.000160961
0.000160962
0.000160949
0.000160914
0.000160175
0.000120365
0.000103401
0.000117495
0.000118062
0.000118155
0.000118183
0.000118183
0.000118163
0.00011809
0.000117704
0.000103909
)
;
    }
}


// ************************************************************************* //
