/*--------------------------------*- C++ -*----------------------------------*\
| =========                 |                                                 |
| \\      /  F ield         | OpenFOAM: The Open Source CFD Toolbox           |
|  \\    /   O peration     | Version:  2.3.1                                 |
|   \\  /    A nd           | Web:      www.OpenFOAM.org                      |
|    \\/     M anipulation  |                                                 |
\*---------------------------------------------------------------------------*/
FoamFile
{
    version     2.0;
    format      ascii;
    class       volScalarField;
    location    "0.74";
    object      nut;
}
// * * * * * * * * * * * * * * * * * * * * * * * * * * * * * * * * * * * * * //

dimensions      [0 2 -1 0 0 0 0];

internalField   nonuniform List<scalar> 
15166
(
9.72569e-05
0.000157296
0.000262298
0.000376502
0.000476716
0.00059136
0.000709539
0.000837758
0.000957385
0.00108041
0.00119716
0.00129733
9.72684e-05
0.00017123
0.000283031
0.000397077
0.000500891
0.000614533
0.000731382
0.000854748
0.000972041
0.00109055
0.00120296
0.00130395
9.76318e-05
0.000182561
0.000299307
0.000414049
0.000520739
0.000633754
0.000749311
0.000868936
0.00098402
0.00109873
0.00120756
0.00130835
9.81045e-05
0.00019271
0.000313184
0.000428682
0.000537414
0.000649867
0.00076415
0.000880785
0.00099374
0.00110517
0.001211
0.00131163
9.86101e-05
0.000201889
0.00032546
0.000441675
0.000551767
0.000663618
0.000776589
0.000890709
0.00100162
0.00111016
0.00121349
0.00131354
9.91567e-05
0.000210144
0.000336471
0.000453337
0.000564308
0.000675477
0.000787123
0.000899046
0.00100795
0.00111393
0.00121504
0.00131436
9.97395e-05
0.000217564
0.000346476
0.0004639
0.000575344
0.00068579
0.000796111
0.000906038
0.00101302
0.00111666
0.00121577
0.00131481
0.000100357
0.000224232
0.000355677
0.000473527
0.00058515
0.000694819
0.000803826
0.000911911
0.00101704
0.00111856
0.00121602
0.00131538
0.000100988
0.000230212
0.000364225
0.000482409
0.000593957
0.000702786
0.000810489
0.000916855
0.00102019
0.00111977
0.00121582
0.00131512
0.00010163
0.000235547
0.00037221
0.000490641
0.000601935
0.000709882
0.000816279
0.000921001
0.00102262
0.00112043
0.00121528
0.00131435
0.00010228
0.000240288
0.000379698
0.000498316
0.000609202
0.000716231
0.000821336
0.000924482
0.00102446
0.00112068
0.00121466
0.00131458
0.000102928
0.000244466
0.000386723
0.000505507
0.000615864
0.000721946
0.000825773
0.000927402
0.00102581
0.00112063
0.00121395
0.00131397
0.000103572
0.000248126
0.000393324
0.000512253
0.000622016
0.000727123
0.000829677
0.000929842
0.00102676
0.00112032
0.00121304
0.00131231
0.000104209
0.000251326
0.000399523
0.000518603
0.000627712
0.000731819
0.000833127
0.000931872
0.00102739
0.00111977
0.00121169
0.00130979
0.000104839
0.000254078
0.000405334
0.000524601
0.000633009
0.000736114
0.000836184
0.000933565
0.00102774
0.00111902
0.00121023
0.00130759
0.000105454
0.000256434
0.000410758
0.000530266
0.000637953
0.00074004
0.000838893
0.000934947
0.00102785
0.00111811
0.00120857
0.00130467
0.000106059
0.000258416
0.000415798
0.000535622
0.000642583
0.000743648
0.000841304
0.000936083
0.00102778
0.00111704
0.00120671
0.00130176
0.000106645
0.000260069
0.000420477
0.000540697
0.000646939
0.000746987
0.000843462
0.000936983
0.00102751
0.00111582
0.00120465
0.00129838
0.000107214
0.000261428
0.000424788
0.000545493
0.000651027
0.000750062
0.000845375
0.000937701
0.00102711
0.00111448
0.00120248
0.00129505
0.000107768
0.000262508
0.000428749
0.000550025
0.000654891
0.000752915
0.000847092
0.000938242
0.00102657
0.00111303
0.0012002
0.00129174
0.000108308
0.000263351
0.000432353
0.000554302
0.000658526
0.000755563
0.000848618
0.000938628
0.00102591
0.00111147
0.00119774
0.00128796
0.000108829
0.000263966
0.00043561
0.000558342
0.000661969
0.00075802
0.000849976
0.000938877
0.00102515
0.00110981
0.00119514
0.00128408
0.000109323
0.000264392
0.000438539
0.000562129
0.000665216
0.000760311
0.000851192
0.000939013
0.00102429
0.00110806
0.00119246
0.00128099
0.000109809
0.000264641
0.000441138
0.000565681
0.000668285
0.000762452
0.00085228
0.000939048
0.00102334
0.00110621
0.00118968
0.00127736
0.00011027
0.000264728
0.000443417
0.000569013
0.000671188
0.000764454
0.000853243
0.000938976
0.00102232
0.00110429
0.00118688
0.00127434
0.000110714
0.000264686
0.000445386
0.000572117
0.000673931
0.000766318
0.000854095
0.000938822
0.00102121
0.0011023
0.00118406
0.00127084
0.000111141
0.000264516
0.000447056
0.000574985
0.00067652
0.000768064
0.000854851
0.000938586
0.00102005
0.00110027
0.00118128
0.0012681
0.000111547
0.000264253
0.000448454
0.000577632
0.000678951
0.000769691
0.00085552
0.000938277
0.00101882
0.00109821
0.0011786
0.00126556
0.000111932
0.00026389
0.000449568
0.00058007
0.000681239
0.000771213
0.000856093
0.000937908
0.00101755
0.00109613
0.0011759
0.00126218
0.000112297
0.000263429
0.000450433
0.000582283
0.000683386
0.000772628
0.000856594
0.00093747
0.00101624
0.00109403
0.00117323
0.00125939
0.000112639
0.000262918
0.000451036
0.000584281
0.000685386
0.000773949
0.000857019
0.000936985
0.00101489
0.00109192
0.00117053
0.00125599
0.000112971
0.000262334
0.000451418
0.000586059
0.00068725
0.000775173
0.000857381
0.000936442
0.00101351
0.00108981
0.00116785
0.00125311
0.00011329
0.000261696
0.000451566
0.000587643
0.000688982
0.000776311
0.00085767
0.000935862
0.0010121
0.00108768
0.00116513
0.00124954
0.000113578
0.000261025
0.000451521
0.000589015
0.000690573
0.000777358
0.000857906
0.00093524
0.00101067
0.00108554
0.00116241
0.00124649
0.000113853
0.000260316
0.000451271
0.000590198
0.000692034
0.000778317
0.000858083
0.00093458
0.00100922
0.00108339
0.00115968
0.00124288
0.000114121
0.000259579
0.000450854
0.000591166
0.000693358
0.000779197
0.00085821
0.000933884
0.00100774
0.00108124
0.00115697
0.00124012
0.000114355
0.000258812
0.000450255
0.000591955
0.000694552
0.000779992
0.000858276
0.000933148
0.00100625
0.00107909
0.00115434
0.00123763
0.000114583
0.000258029
0.0004495
0.000592547
0.000695612
0.00078071
0.000858298
0.000932388
0.00100474
0.00107694
0.0011517
0.00123435
0.00011479
0.000257232
0.000448603
0.000592961
0.000696545
0.000781338
0.000858271
0.000931603
0.00100323
0.0010748
0.00114907
0.00123117
0.000114976
0.000256427
0.000447574
0.000593201
0.000697355
0.000781902
0.000858197
0.000930786
0.00100171
0.00107266
0.00114644
0.00122782
0.000115156
0.000255604
0.000446422
0.000593263
0.000698033
0.000782378
0.000858077
0.000929952
0.00100017
0.00107051
0.00114368
0.00122397
0.000115309
0.0002547
0.000445136
0.000593161
0.000698581
0.000782782
0.000857913
0.000929089
0.000998626
0.00106835
0.00114092
0.0012212
0.000115455
0.000253766
0.000443753
0.000592901
0.000699008
0.000783106
0.000857705
0.000928211
0.000997074
0.00106617
0.00113816
0.00121784
0.000115575
0.000252766
0.000442226
0.000592476
0.000699307
0.000783351
0.000857454
0.000927305
0.000995506
0.00106399
0.00113543
0.00121512
0.000115678
0.000251761
0.000440537
0.0005919
0.000699487
0.000783516
0.000857159
0.000926378
0.000993931
0.00106181
0.0011327
0.00121168
0.00011577
0.000250794
0.000438722
0.000591151
0.000699537
0.000783609
0.000856829
0.000925433
0.000992348
0.00105962
0.00113001
0.00120916
0.000115849
0.000249771
0.000436816
0.000590197
0.000699438
0.000783623
0.00085645
0.000924467
0.000990753
0.00105744
0.00112734
0.00120581
0.000115903
0.000248781
0.000434816
0.000589104
0.000699208
0.000783549
0.000856025
0.000923481
0.000989151
0.00105526
0.00112469
0.00120322
0.000115947
0.000247793
0.000432777
0.000587842
0.000698839
0.000783395
0.00085556
0.000922466
0.000987542
0.00105308
0.00112206
0.00120003
0.00011598
0.00024681
0.000430627
0.000586434
0.000698342
0.000783143
0.000855046
0.000921435
0.000985918
0.0010509
0.00111945
0.00119745
0.000116
0.00024587
0.000428421
0.000584886
0.000697718
0.000782818
0.000854484
0.000920382
0.000984294
0.00104873
0.0011168
0.00119388
0.000116003
0.000244891
0.000426161
0.000583184
0.000696953
0.000782393
0.000853872
0.0009193
0.00098266
0.00104656
0.00111416
0.00119055
0.000115992
0.000243965
0.00042386
0.000581376
0.000696062
0.000781883
0.00085321
0.000918203
0.000981023
0.00104441
0.00111157
0.00118828
0.000115974
0.000243045
0.00042152
0.000579424
0.000695033
0.000781288
0.000852504
0.000917083
0.00097938
0.00104225
0.00110902
0.00118556
0.000115934
0.000242134
0.000419148
0.000577357
0.000693881
0.000780596
0.000851743
0.000915938
0.000977733
0.00104011
0.00110651
0.0011829
0.000115878
0.000241229
0.000416749
0.000575183
0.000692604
0.000779806
0.000850927
0.000914769
0.000976082
0.00103798
0.00110398
0.00117958
0.000115819
0.00024038
0.000414334
0.000572905
0.000691193
0.000778928
0.000850061
0.000913575
0.000974422
0.00103587
0.00110147
0.00117671
0.000115743
0.000239497
0.000411902
0.000570508
0.000689662
0.000777959
0.00084913
0.000912355
0.000972766
0.00103376
0.00109892
0.00117303
0.000115649
0.000238667
0.000409457
0.000568021
0.000688
0.000776879
0.000848154
0.000911116
0.000971105
0.00103165
0.00109642
0.00117111
0.000115554
0.00023785
0.000407039
0.000565475
0.000686238
0.000775717
0.000847107
0.000909838
0.000969428
0.00102954
0.00109392
0.00116835
0.000115439
0.00023707
0.000404581
0.000562822
0.000684347
0.00077445
0.000846003
0.000908536
0.000967749
0.00102744
0.00109143
0.00116526
0.000115308
0.000236267
0.000402123
0.000560093
0.000682329
0.000773079
0.000844832
0.000907196
0.000966056
0.00102535
0.00108893
0.00116182
0.000115168
0.000235514
0.000399671
0.000557297
0.00068022
0.000771614
0.000843595
0.000905829
0.000964356
0.00102325
0.00108643
0.0011589
0.00011502
0.000234774
0.00039726
0.000554416
0.000677988
0.000770045
0.000842297
0.000904429
0.000962651
0.00102116
0.00108391
0.00115547
0.000114857
0.000234078
0.000394824
0.000551501
0.000675656
0.000768382
0.000840928
0.000902992
0.00096093
0.00101907
0.00108138
0.00115265
0.000114689
0.00023339
0.000392432
0.000548531
0.000673209
0.000766622
0.000839488
0.000901525
0.000959201
0.00101697
0.00107885
0.0011494
0.000114484
0.000232692
0.000390048
0.000545489
0.000670677
0.000764757
0.000837984
0.000900013
0.000957449
0.00101487
0.00107633
0.00114675
0.000114311
0.00023205
0.000387697
0.000542423
0.000668046
0.000762797
0.000836409
0.000898462
0.000955685
0.00101276
0.00107379
0.00114349
0.000114092
0.000231427
0.000385357
0.000539319
0.000665311
0.000760733
0.000834755
0.000896867
0.000953895
0.00101065
0.00107126
0.00114055
0.00011385
0.000230823
0.000383041
0.000536171
0.000662505
0.000758584
0.000833026
0.00089523
0.000952093
0.00100853
0.00106871
0.00113718
0.000113624
0.000230212
0.000380762
0.000532978
0.000659596
0.000756333
0.000831227
0.000893542
0.000950263
0.0010064
0.00106616
0.00113427
0.000113378
0.000229697
0.000378494
0.000529772
0.000656613
0.000753974
0.00082935
0.000891806
0.000948409
0.00100425
0.00106358
0.00113081
0.000113124
0.000229118
0.000376301
0.000526582
0.000653563
0.000751532
0.000827387
0.000890022
0.000946532
0.00100209
0.00106098
0.00112744
0.000112853
0.000228626
0.000374059
0.000523308
0.000650397
0.000748979
0.000825337
0.00088818
0.000944617
0.000999914
0.00105838
0.00112441
0.000112572
0.000228153
0.000371923
0.000520061
0.000647205
0.000746347
0.000823224
0.000886287
0.000942682
0.000997729
0.00105579
0.00112115
0.000112254
0.000227633
0.000369794
0.000516788
0.000643921
0.00074363
0.000821022
0.000884346
0.000940717
0.000995526
0.0010532
0.00111842
0.000111952
0.000227183
0.000367719
0.000513522
0.000640566
0.000740808
0.000818736
0.000882333
0.000938706
0.000993306
0.00105059
0.00111513
0.000111658
0.000226807
0.000365693
0.000510243
0.000637164
0.000737895
0.000816368
0.000880271
0.000936669
0.000991065
0.00104797
0.00111221
0.000111322
0.000226382
0.000363688
0.000506975
0.000633699
0.000734905
0.000813918
0.000878146
0.000934585
0.000988802
0.00104533
0.00110884
0.000110958
0.000226001
0.000361735
0.000503701
0.000630192
0.000731826
0.000811384
0.000875957
0.000932467
0.00098651
0.0010427
0.00110614
0.000110615
0.000225653
0.000359796
0.000500448
0.000626623
0.000728658
0.000808762
0.000873695
0.000930305
0.00098419
0.00104005
0.00110298
0.000110247
0.000225315
0.000357942
0.000497186
0.000622996
0.000725394
0.000806063
0.000871367
0.000928091
0.000981846
0.00103735
0.0010994
0.000109868
0.00022501
0.000356139
0.000493961
0.000619347
0.000722076
0.000803267
0.000868971
0.00092583
0.00097948
0.00103465
0.00109611
0.000109479
0.000224726
0.000354362
0.000490763
0.000615651
0.00071867
0.000800384
0.000866496
0.000923521
0.000977078
0.00103197
0.00109341
0.000109077
0.00022446
0.000352639
0.000487588
0.000611908
0.000715189
0.000797425
0.00086395
0.000921161
0.00097465
0.00102925
0.00109019
0.000108636
0.000224202
0.000350954
0.000484392
0.000608166
0.00071164
0.000794368
0.000861345
0.000918743
0.000972179
0.00102653
0.00108738
0.000108212
0.000223977
0.000349319
0.00048125
0.000604384
0.000707998
0.000791235
0.000858644
0.000916276
0.00096968
0.00102378
0.00108393
0.000107772
0.00022378
0.000347743
0.000478164
0.000600548
0.000704298
0.000787997
0.000855869
0.000913756
0.000967151
0.00102105
0.00108116
0.000107318
0.000223612
0.00034622
0.000475099
0.000596729
0.000700519
0.000784673
0.000853012
0.000911167
0.000964588
0.00101832
0.00107843
0.000106852
0.000223466
0.000344712
0.000472045
0.00059287
0.000696671
0.000781269
0.000850072
0.000908502
0.000961968
0.0010156
0.00107612
0.000106372
0.000223346
0.000343306
0.00046907
0.000589024
0.000692791
0.000777781
0.000847057
0.000905788
0.000959324
0.00101282
0.00107238
0.000105881
0.000223257
0.000341954
0.000466104
0.000585145
0.000688822
0.000774217
0.000843962
0.000903008
0.000956645
0.00101005
0.00106946
0.000105348
0.000223131
0.000340618
0.00046319
0.00058127
0.000684807
0.000770565
0.00084077
0.000900156
0.000953921
0.0010072
0.00106589
0.000104856
0.000223112
0.000339351
0.000460335
0.000577393
0.000680714
0.000766822
0.000837493
0.000897234
0.000951137
0.00100432
0.00106259
0.000104295
0.00022305
0.000338149
0.000457532
0.000573504
0.000676612
0.000762988
0.000834121
0.000894245
0.0009483
0.00100135
0.0010589
0.000103748
0.000223035
0.000337014
0.000454797
0.000569663
0.000672433
0.000759079
0.00083067
0.000891172
0.000945398
0.000998371
0.00105586
0.000103187
0.000223012
0.000335909
0.00045209
0.000565808
0.000668222
0.000755085
0.00082712
0.000888011
0.000942427
0.000995303
0.00105218
0.000102609
0.000223077
0.000334877
0.000449457
0.000561977
0.00066395
0.000751003
0.00082349
0.000884773
0.000939405
0.000992232
0.001049
0.000101991
0.00022306
0.000333914
0.000446894
0.00055815
0.000659673
0.000746852
0.00081976
0.000881458
0.000936305
0.000989071
0.00104533
0.000101382
0.000223147
0.000332983
0.00044437
0.000554356
0.000655324
0.000742625
0.000815919
0.000878039
0.000933137
0.000985927
0.00104247
0.00010076
0.000223229
0.000332134
0.000441934
0.000550607
0.000650983
0.000738311
0.000811993
0.000874532
0.00092988
0.000982716
0.00103902
0.000100122
0.000223356
0.000331364
0.000439547
0.000546873
0.0006466
0.000733935
0.000807986
0.000870938
0.000926574
0.000979427
0.00103519
9.94666e-05
0.000223521
0.000330627
0.000437252
0.000543194
0.000642207
0.000729479
0.000803868
0.000867246
0.000923184
0.000976111
0.0010319
9.87957e-05
0.000223679
0.000329976
0.000435049
0.000539543
0.000637784
0.000724965
0.00079966
0.00086345
0.000919705
0.000972766
0.00102881
9.80809e-05
0.000223822
0.000329366
0.000432908
0.000535955
0.000633341
0.000720391
0.000795347
0.000859557
0.000916151
0.000969355
0.0010251
9.73746e-05
0.000224029
0.000328843
0.000430833
0.000532404
0.000628913
0.000715744
0.00079095
0.000855571
0.000912506
0.000965889
0.00102165
9.66235e-05
0.000224219
0.000328363
0.000428869
0.000528939
0.000624502
0.000711031
0.000786446
0.000851467
0.000908765
0.00096229
0.00101763
9.58789e-05
0.000224478
0.000327982
0.000427017
0.000525531
0.000620087
0.000706277
0.00078184
0.000847251
0.000904918
0.000958593
0.00101349
9.51473e-05
0.000224814
0.000327653
0.00042521
0.000522213
0.000615678
0.000701465
0.000777158
0.000842937
0.000900969
0.000954839
0.00100976
9.43436e-05
0.000225068
0.000327383
0.000423563
0.000518965
0.000611309
0.00069661
0.000772393
0.000838505
0.000896908
0.000950936
0.00100555
9.35406e-05
0.000225397
0.000327213
0.000421965
0.000515792
0.000606962
0.000691733
0.000767509
0.000833954
0.000892736
0.000947004
0.00100192
9.27212e-05
0.000225782
0.000327099
0.0004205
0.000512742
0.000602673
0.000686819
0.00076256
0.000829303
0.000888454
0.000942975
0.000997718
9.1854e-05
0.000226107
0.000327084
0.000419137
0.000509774
0.000598399
0.000681896
0.000757526
0.000824539
0.000884086
0.00093888
0.000993425
9.09883e-05
0.000226516
0.000327141
0.000417914
0.000506911
0.000594201
0.000676925
0.000752417
0.000819646
0.000879555
0.000934607
0.000989555
9.01043e-05
0.000226985
0.00032722
0.00041676
0.000504158
0.000590064
0.000671963
0.000747198
0.000814616
0.000874873
0.000930195
0.000985017
8.91983e-05
0.000227421
0.000327464
0.000415767
0.000501563
0.00058603
0.000667003
0.000741933
0.000809493
0.000870087
0.00092572
0.000980884
8.82677e-05
0.000227936
0.000327741
0.000414902
0.000499095
0.00058206
0.00066208
0.00073661
0.000804249
0.000865138
0.00092106
0.000976091
8.72848e-05
0.000228398
0.000328143
0.000414201
0.000496774
0.000578223
0.000657157
0.000731227
0.000798882
0.000860089
0.000916352
0.0009717
8.62708e-05
0.000228928
0.000328579
0.000413597
0.000494607
0.000574502
0.000652309
0.00072583
0.000793437
0.000854897
0.00091149
0.000966782
8.5287e-05
0.000229569
0.000329158
0.000413173
0.000492611
0.000570909
0.000647489
0.000720379
0.000787906
0.000849596
0.000906498
0.000961749
8.42596e-05
0.000230177
0.000329827
0.000412879
0.000490822
0.000567473
0.000642768
0.000714909
0.000782241
0.000844101
0.000901228
0.000956728
8.31696e-05
0.000230799
0.000330594
0.00041278
0.000489195
0.000564207
0.000638143
0.000709458
0.000776489
0.000838464
0.000895839
0.000951298
8.2044e-05
0.000231447
0.000331462
0.000412847
0.000487782
0.000561135
0.000633634
0.000704005
0.000770674
0.000832714
0.000890369
0.000946311
8.09432e-05
0.000232224
0.000332437
0.000413075
0.000486625
0.000558273
0.000629251
0.000698612
0.000764788
0.000826789
0.00088463
0.000940335
7.97681e-05
0.000232953
0.000333532
0.000413528
0.000485684
0.000555655
0.000625066
0.000693262
0.000758857
0.000820753
0.000878715
0.000934469
7.85464e-05
0.00023372
0.00033475
0.000414194
0.000485038
0.00055331
0.000621087
0.000688033
0.000752904
0.00081458
0.000872575
0.000928068
7.73435e-05
0.000234619
0.000336094
0.000415049
0.000484654
0.000551259
0.000617325
0.000682909
0.000746959
0.000808307
0.000866269
0.000921613
7.60618e-05
0.000235476
0.000337584
0.000416177
0.000484593
0.000549545
0.000613866
0.00067796
0.000741036
0.000801917
0.000859765
0.000914831
7.47528e-05
0.000236394
0.000339214
0.000417535
0.000484882
0.000548194
0.000610698
0.000673208
0.000735148
0.000795424
0.000853098
0.000908449
7.33794e-05
0.000237322
0.000340977
0.000419211
0.000485545
0.000547238
0.000607906
0.00066868
0.0007293
0.000788819
0.000846165
0.000901183
7.19764e-05
0.000238303
0.000342954
0.000421177
0.000486632
0.000546747
0.00060548
0.000664405
0.000723549
0.000782139
0.000839067
0.000894081
7.04968e-05
0.000239238
0.000345093
0.000423489
0.000488135
0.000546681
0.000603432
0.000660386
0.000717902
0.000775358
0.000831694
0.000886189
6.89686e-05
0.000240225
0.000347413
0.000426111
0.000490044
0.000547039
0.000601769
0.000656608
0.000712288
0.00076843
0.000823982
0.000878213
6.73687e-05
0.00024109
0.000349834
0.000429056
0.000492288
0.000547753
0.000600472
0.000653187
0.000706884
0.000761472
0.000816045
0.000870122
6.54094e-05
0.000240135
0.00035026
0.000430896
0.000493421
0.000547703
0.000598646
0.000649554
0.000701296
0.000754702
0.000808127
0.000861645
0.000477608
0.00154682
0.00164148
0.00188329
0.00188491
0.000625864
0.000613833
0.00046432
0.0013761
0.00206053
0.00381321
0.00201917
0.00424153
0.00142693
0.000567012
0.00133217
0.0014982
0.00504311
0.00502781
0.00131829
0.000731009
0.000492683
0.00739134
0.00354941
0.000478385
0.00164348
0.00057383
0.000779495
0.00194353
0.00122971
0.00178258
0.000336193
0.00146245
0.00377776
0.00412582
0.00106546
0.000154622
0.00157188
0.000467558
0.00207225
0.00186928
0.00129258
0.00387005
0.00106133
0.000274027
0.000494742
0.00578649
0.00374696
0.000277099
0.000735435
0.00106626
0.000466836
0.000338035
0.00124158
0.00165
0.0015068
0.00238907
0.00129193
0.00157223
0.000564827
0.000622502
0.000337192
0.00124141
0.00286701
0.00424886
0.00152311
0.000936324
0.000318486
0.000656895
0.00227761
0.00172229
0.00532161
0.000465858
0.00110072
0.00357805
0.00127029
0.00138911
0.00123815
0.00560972
0.000466711
0.00456069
0.00123973
0.000196636
0.000382636
0.0028522
0.00160582
0.000937817
0.00124135
0.002648
0.000197737
0.000577051
0.00147254
0.00124139
0.00140645
0.000350384
0.00127365
0.00077799
0.00163165
0.00124229
0.000946849
0.000765375
0.00324342
0.00128879
0.00148709
0.00123884
0.000350446
0.000356988
0.000422455
0.0013274
0.000249026
0.00152399
0.00123993
0.000445635
0.00136814
0.00124078
0.000521296
0.00316044
0.00225872
0.00155343
0.00429895
0.000786512
0.00378456
0.00147424
0.00360571
0.00443923
0.00281827
0.00141303
0.00026077
0.00404264
0.00124136
3.92605e-05
0.00124223
5.60454e-05
0.00148727
0.000568712
0.00163241
0.000172472
0.0024199
0.000447281
0.00175202
0.00297182
0.000688409
0.000461393
0.000452974
8.77533e-05
0.00163224
0.00046625
0.00152494
0.0014103
0.000579267
0.000631013
0.00051462
0.0012418
0.00445306
0.00357705
0.00124362
0.000443121
0.00126919
0.00165583
0.00192958
0.003689
0.00133707
0.00452643
0.00261236
0.000775044
0.00335989
0.000277182
0.000253951
0.000547988
0.0012374
0.00156013
0.00109329
0.00164572
0.00304978
0.00123866
0.00160589
0.00123854
0.000411625
0.0023698
0.00134199
0.000277211
0.00524984
0.00426957
0.00047047
0.00129841
0.000461949
0.00125536
0.00124028
9.18983e-05
0.00124087
0.00232209
0.001245
0.000396101
0.00156055
0.000450179
0.00055782
0.000611997
0.000538676
0.00123982
0.00221414
0.0014668
0.00046142
0.000281458
0.000463167
0.000472614
0.00697678
0.00416405
0.00317279
0.00113401
0.00271707
5.35157e-05
0.00138614
0.000468358
0.000412801
0.00123977
0.000468239
0.00251427
0.00146759
0.00222997
0.000189833
0.000385303
0.00146494
0.000420427
0.00124826
0.00125143
0.00277329
0.00160212
0.00126904
0.00107197
0.00413819
5.24769e-05
0.00445564
0.00124159
0.000907369
0.00150161
0.000474631
0.000464778
0.00148608
0.00111799
0.000455823
0.0042469
0.00595251
0.00434358
0.00268289
6.46244e-05
5.38269e-05
5.64284e-05
0.001321
0.00390611
0.000466593
0.00221532
0.00110229
0.00233165
0.000350479
0.000231854
0.00283618
0.000989145
0.000452963
0.00207409
0.00042709
0.00271418
0.000473048
0.00294754
0.00416275
7.28879e-05
0.000469316
0.00131021
0.000477134
0.00146526
0.0012171
0.000695073
0.00526209
0.00138538
4.49103e-05
4.56761e-05
0.00139015
0.000175647
5.76236e-05
0.000281535
0.000137118
0.000377626
0.000172894
0.000466164
0.00047105
0.00134397
0.000609924
0.00161862
4.73285e-05
0.00131389
0.000762884
0.000136537
0.00146623
4.63308e-05
4.60208e-05
0.000445247
0.000397741
0.00190266
4.48806e-05
0.00585998
0.000380887
0.00046139
0.000994809
0.000499057
0.00177754
0.00376471
0.00151608
0.000286036
0.00124093
0.00528839
0.00475317
0.00566181
0.000184243
0.0012456
0.00129318
0.0004606
0.00434292
4.91546e-05
0.00121454
0.0012398
8.29445e-05
0.00463788
0.00208211
0.00149693
0.000236515
0.000453412
0.00121388
0.00141582
0.00124132
0.00125526
0.00018293
0.00133375
0.00124749
0.00217819
0.0012417
0.00125458
0.00126456
0.00123871
0.00764786
0.00124194
0.00173196
0.000788564
0.000473669
0.00124211
0.000528238
0.00229607
4.55399e-05
5.33956e-05
0.00164926
0.00140464
0.00138217
0.00123749
0.00126828
0.0063481
0.00228173
4.08553e-05
0.00123871
0.00493686
0.000366205
0.00134829
0.00236131
0.00010255
0.000267048
0.00132943
0.00148965
0.000856903
0.00191845
0.00135659
0.00124134
0.0014144
0.00145324
0.0050159
9.6282e-05
0.000453601
0.000134142
0.00147806
0.000632251
0.000463713
0.00140274
0.00125299
0.00177546
0.00102558
0.00165107
0.00126005
0.000469774
0.000349576
0.000599692
0.00124573
0.00431285
0.000542455
0.00379976
0.00126072
0.00117563
0.0019194
0.000393468
0.000445493
0.00137527
0.00142174
0.00124395
0.00300006
0.00141623
0.00185327
0.00237673
0.000899169
0.00217972
0.00393164
0.00016874
0.00139598
0.00147171
6.47275e-05
0.000422418
0.00124076
0.00124943
0.00124196
0.00129656
0.00607648
0.000455011
0.000128265
0.000538576
0.000528137
0.00125603
0.000246729
0.000467811
0.00123811
0.00124764
0.000456547
0.00124636
0.00271301
0.00137134
0.000449709
0.00123756
0.0019764
0.00424357
0.0050607
0.000460692
0.00464048
0.00123831
0.00124226
0.00116352
0.00132616
0.00253749
0.000289141
4.03098e-05
0.00194495
0.000458302
0.00190516
0.00098841
0.00132735
0.000443226
0.0015454
0.00123901
0.00198188
0.000460666
5.42864e-05
0.00221355
0.00199188
0.00069224
0.00163567
4.75738e-05
0.000423028
0.00443694
0.000525097
0.00342171
0.00498923
0.00245743
0.00132431
0.001301
0.00176558
0.00069451
0.000574773
5.90291e-05
0.00359495
0.00028198
9.54025e-05
0.00123922
0.0017912
0.00133626
0.000443633
0.00123871
0.000327219
0.000883831
0.000387072
0.000203132
0.000468797
0.00245076
0.00442173
9.39912e-05
5.01923e-05
0.00134098
0.00311192
0.00124799
0.00420527
0.000908891
0.00031835
0.00138309
0.00424925
0.000157883
0.00107379
0.00116552
0.000470244
0.000224125
0.00122929
0.00048081
0.000311422
0.00127065
0.00345084
0.000401071
0.00070762
0.0013707
0.000190147
0.00185893
0.000449843
0.00127826
0.00094704
0.00336594
0.00124133
0.000663565
4.11972e-05
0.0012505
0.00150215
0.00216045
0.00428599
0.00146709
0.0012721
0.000466442
0.00124136
0.00029302
0.00149697
4.44024e-05
9.39233e-05
0.00186647
4.71798e-05
0.000816931
0.00125195
0.00159293
0.0012688
0.00405311
0.00134902
0.000379063
0.000447739
0.00193734
0.00134524
0.00369411
0.00178089
0.00262975
0.00173347
0.00123896
0.00466698
0.00123871
0.00572591
0.000559731
0.00452917
0.000975771
0.000650441
0.000434112
0.00489949
0.0031895
0.000456652
6.86795e-05
0.0012414
0.00124143
0.0010877
0.000717468
0.000388966
0.00243683
0.00535641
0.00129776
0.000328147
0.00123742
0.00420977
0.000473564
0.00158208
0.00127892
0.000492955
0.000103942
0.00038886
0.00259333
0.00123876
0.00341857
0.00124288
0.00139929
0.00296272
0.000369115
0.00159855
0.00125422
0.00141092
0.00589987
0.000418657
0.000919995
0.00139159
0.000220897
0.00423707
0.00124154
0.000571743
8.1562e-05
0.000458923
0.00328203
0.00123742
0.00146019
0.0013013
0.000464643
0.00124777
0.000729014
0.00105033
0.0012778
0.00179152
0.00039685
0.00137054
0.000986879
0.00117328
0.00134804
0.000761254
0.00490604
0.00338389
0.00123903
0.00124142
0.00159768
0.000460249
0.000471998
0.000461584
0.00158542
0.000768034
0.00393659
0.00118917
0.00047076
0.00139829
0.00250047
0.000326106
0.00123754
0.00209973
0.000280579
0.000277413
0.00126717
0.00124626
6.87997e-05
0.000184913
0.00133134
0.00397777
0.000822699
0.000414271
0.00125256
3.52958e-05
0.000690997
0.000703592
0.00168525
0.00104678
0.000862789
0.00141281
0.00128686
0.000450119
0.000132834
0.00126266
0.001242
0.00141232
0.00116847
0.00156353
0.00123993
0.00215137
0.00124132
0.00117499
0.000499974
0.00486259
0.00124663
0.00147283
0.000624793
0.000356312
0.0019983
0.000194869
0.00743583
0.000805145
0.00137203
0.00124096
0.00309953
0.00140925
0.000230111
0.00153708
0.00175614
0.0023915
0.00227359
0.000133185
0.00123984
0.000777773
0.00117695
0.000458739
0.00128732
0.00491293
0.000365935
0.000311562
0.00187603
0.00520507
0.0015457
0.000466014
0.00255187
0.000467525
0.00124066
0.00198422
0.00130399
0.00123736
0.000104211
0.00124154
4.68267e-05
0.00230001
0.00110971
0.00127198
0.00119177
0.000422914
0.00183841
0.00151093
0.00129925
0.0062066
0.00223153
0.0028135
0.00505675
0.00159932
0.00123916
0.00124153
0.000465739
0.00571887
5.87675e-05
0.00053049
0.00127956
4.63518e-05
4.0666e-05
4.4744e-05
0.00302805
0.000696105
3.75987e-05
0.00124133
0.000133
0.000125624
0.000464724
0.0012423
0.00242381
0.00144261
0.000112578
0.00124314
0.00165924
0.00123911
0.00522688
0.00223496
0.00132999
0.000452502
0.00123978
0.00449209
0.00041849
0.00124246
0.00142681
0.00124071
0.00138463
0.00308402
0.00128378
0.00113346
0.0025623
0.000463317
0.00124019
0.00106999
0.00124199
0.00061591
0.00267119
0.00350413
0.000517369
0.00277024
0.00161244
0.00125876
0.000157499
0.00100828
0.00117854
5.34046e-05
0.000499176
0.00123809
0.000129266
0.00060186
0.000756485
0.00102528
0.00121073
0.0013971
0.000476384
0.004347
0.00124024
0.00363673
0.00143454
0.00350364
0.000133477
0.000766053
0.00125481
0.000220362
0.000385902
0.00137355
0.0018834
0.00130929
0.000608715
0.000992411
0.00119471
0.00413344
0.00173555
0.000293886
0.000185922
0.00428804
0.00015287
0.00124855
5.0851e-05
0.00158818
0.00127988
0.00146928
0.00113013
0.00102273
0.00612244
0.00135207
0.00324185
0.00292175
0.00140577
0.0028915
0.00273599
0.00124195
0.00150665
0.00470104
4.41384e-05
0.000470036
4.46301e-05
0.000723908
0.00189321
0.00108917
0.00124071
0.00124168
0.000444004
0.00663029
0.00134054
0.00156293
0.00123761
0.0016099
0.00252647
0.00514442
0.00130619
0.00160462
0.00146683
0.00209095
0.00136169
0.00549653
0.000391464
0.0005431
0.00124068
0.000542103
0.00145141
0.00168635
0.0021716
4.80266e-05
0.00364356
0.00212275
0.000676689
0.00402907
0.00242831
0.00396703
0.00566283
0.00130183
3.94155e-05
0.00124135
0.00129345
0.00044125
0.00281384
0.0027046
0.00108821
0.000430431
0.00124163
0.00124152
0.00148219
0.000129608
0.00138071
0.0012381
0.00134086
0.00272488
0.000465622
0.00137867
5.29861e-05
0.00116574
0.00166896
0.000366219
0.00125657
0.00130747
0.000124615
0.000378812
0.00015402
0.00124388
0.00123962
0.00109337
0.00161134
0.00236021
0.00127084
0.00124034
0.00425438
0.00126164
0.00181647
0.0030425
0.0055882
0.00243861
0.00153029
0.00043804
5.52299e-05
0.000461198
0.00200697
0.00124288
0.000283307
0.00127269
0.000262694
0.00124124
0.00181404
0.00125767
0.00124113