/*--------------------------------*- C++ -*----------------------------------*\
| =========                 |                                                 |
| \\      /  F ield         | OpenFOAM: The Open Source CFD Toolbox           |
|  \\    /   O peration     | Version:  2.3.1                                 |
|   \\  /    A nd           | Web:      www.OpenFOAM.org                      |
|    \\/     M anipulation  |                                                 |
\*---------------------------------------------------------------------------*/
FoamFile
{
    version     2.0;
    format      ascii;
    class       volScalarField;
    location    "0.74";
    object      p;
}
// * * * * * * * * * * * * * * * * * * * * * * * * * * * * * * * * * * * * * //

dimensions      [0 2 -2 0 0 0 0];

internalField   nonuniform List<scalar> 
15166
(
-17.302
-22.3304
-25.0988
-27.3086
-29.187
-30.7849
-32.2171
-33.4744
-34.5613
-35.3679
-36.1099
-36.683
-22.0186
-24.5303
-25.8908
-27.5573
-29.1309
-30.5563
-31.8606
-33.0394
-34.0711
-34.9005
-35.6417
-36.2349
-27.2042
-28.0917
-28.367
-29.3019
-30.2994
-31.3147
-32.3136
-33.2456
-34.0949
-34.8206
-35.4657
-36.0031
-30.1793
-30.5911
-30.586
-31.1462
-31.7373
-32.4058
-33.1102
-33.7978
-34.4484
-35.0272
-35.5465
-35.9751
-32.0476
-32.3019
-32.2761
-32.6757
-33.0523
-33.5066
-34.0007
-34.4981
-34.9809
-35.4227
-35.8256
-36.1745
-33.6953
-33.8147
-33.7569
-34.031
-34.2667
-34.5756
-34.917
-35.2671
-35.613
-35.9354
-36.2319
-36.4942
-35.2855
-35.2854
-35.1781
-35.331
-35.4479
-35.6355
-35.8501
-36.0769
-36.3052
-36.5202
-36.7154
-36.8779
-36.7582
-36.6707
-36.5257
-36.5778
-36.5975
-36.6811
-36.7876
-36.9084
-37.0345
-37.1549
-37.2631
-37.3497
-38.0956
-37.942
-37.7738
-37.7488
-37.694
-37.6935
-37.7108
-37.7427
-37.7819
-37.8206
-37.8531
-37.8705
-39.318
-39.1113
-38.9274
-38.8421
-38.73
-38.662
-38.6069
-38.5652
-38.5314
-38.4997
-38.4644
-38.4173
-40.4476
-40.1974
-40.0014
-39.8667
-39.7087
-39.5855
-39.4708
-39.3677
-39.2721
-39.1808
-39.0889
-38.9781
-41.5013
-41.214
-41.0076
-40.8311
-40.6351
-40.4654
-40.3009
-40.146
-39.998
-39.8556
-39.7182
-39.5748
-42.4864
-42.1681
-41.9531
-41.7408
-41.5129
-41.3036
-41.0968
-40.8978
-40.7045
-40.5166
-40.335
-40.1603
-43.4104
-43.0652
-42.843
-42.6001
-42.3451
-42.1021
-41.859
-41.6212
-41.3874
-41.1559
-40.9181
-40.6613
-44.2799
-43.9113
-43.6827
-43.4132
-43.135
-42.8629
-42.5888
-42.3182
-42.0509
-41.7893
-41.5363
-41.2732
-45.0997
-44.7108
-44.4764
-44.1838
-43.8856
-43.5885
-43.288
-42.9895
-42.6932
-42.4013
-42.1185
-41.8421
-45.8743
-45.4677
-45.2281
-44.9151
-44.5995
-44.2805
-43.9569
-43.6336
-43.3117
-42.9924
-42.6786
-42.3767
-46.6084
-46.1855
-45.9408
-45.6096
-45.2786
-44.9402
-44.5964
-44.2517
-43.9077
-43.5657
-43.2272
-42.8984
-47.304
-46.8668
-46.6174
-46.2701
-45.9255
-45.5701
-45.2084
-44.8446
-44.4811
-44.1201
-43.7633
-43.4141
-47.9643
-47.5142
-47.2604
-46.8985
-46.5416
-46.1709
-45.7932
-45.4124
-45.0313
-44.6526
-44.2794
-43.9197
-48.5917
-48.1297
-47.8717
-47.4969
-47.1288
-46.7442
-46.3521
-45.9558
-45.5582
-45.1619
-44.7696
-44.3923
-49.1875
-48.7152
-48.4534
-48.0665
-47.6884
-47.2913
-46.8861
-46.4756
-46.063
-45.6501
-45.2368
-44.8313
-49.757
-49.2735
-49.0073
-48.6094
-48.2221
-47.8138
-47.3968
-46.9738
-46.5483
-46.1232
-45.6996
-45.2838
-50.2976
-49.804
-49.5344
-49.1267
-48.731
-48.3125
-47.885
-47.4509
-47.0141
-46.5774
-46.141
-45.7063
-50.806
-50.3075
-50.0356
-49.619
-49.2158
-48.7883
-48.3515
-47.9075
-47.4602
-47.0127
-46.5664
-46.1203
-51.2959
-50.7884
-50.5129
-50.0879
-49.678
-49.2422
-48.7969
-48.3438
-47.8871
-47.4299
-46.9733
-46.5149
-51.7612
-51.2457
-50.9674
-50.5346
-50.1183
-49.6749
-49.2218
-48.7605
-48.2954
-47.8302
-47.3679
-46.9034
-52.2039
-51.6802
-51.3993
-50.9594
-50.5373
-50.0869
-49.6267
-49.1578
-48.6847
-48.2104
-47.7379
-47.2688
-52.6198
-52.0921
-51.8098
-51.3631
-50.9357
-50.4789
-50.0121
-49.5361
-49.0555
-48.5731
-48.0898
-47.602
-53.0162
-52.4828
-52.1994
-51.7464
-51.3143
-50.8516
-50.3788
-49.8965
-49.4094
-48.9208
-48.4331
-47.9394
-53.3925
-52.856
-52.5694
-52.1104
-51.6737
-51.2057
-50.7274
-50.2393
-49.7463
-49.2516
-48.7578
-48.2575
-53.7524
-53.2108
-52.9208
-52.4556
-52.0146
-51.5415
-51.058
-50.5647
-50.0662
-49.5658
-49.0677
-48.5661
-54.0828
-53.543
-53.2516
-52.7814
-52.3367
-51.859
-51.3711
-50.873
-50.3693
-49.8631
-49.3573
-48.8477
-54.4023
-53.8581
-53.5634
-53.0887
-52.6408
-52.159
-51.667
-51.1645
-50.6566
-50.1463
-49.6372
-49.1274
-54.7027
-54.154
-53.8576
-53.3782
-52.9271
-52.4416
-51.946
-51.4397
-50.9282
-50.4143
-49.9012
-49.386
-54.9802
-54.4309
-54.1337
-53.6501
-53.1962
-52.7071
-52.2079
-51.6981
-51.1832
-50.6665
-50.1528
-49.639
-55.2419
-54.6903
-54.3926
-53.9044
-53.4478
-52.9554
-52.4529
-51.9396
-51.4207
-50.899
-50.3786
-49.864
-55.4915
-54.9337
-54.6348
-54.1418
-53.6827
-53.187
-52.6811
-52.1642
-51.6412
-51.1145
-50.5843
-50.048
-55.7144
-55.1575
-54.8599
-54.3621
-53.9009
-53.4023
-52.8935
-52.3733
-51.8471
-51.3173
-50.7829
-50.2237
-55.9291
-55.3659
-55.0686
-54.5654
-54.1025
-53.6014
-53.0903
-52.5681
-52.0401
-51.5111
-50.9898
-50.4642
-56.1208
-55.5563
-55.2602
-54.7519
-54.2881
-53.7847
-53.2716
-52.7471
-52.2164
-51.6816
-51.1461
-50.6104
-56.2973
-55.733
-55.4339
-54.9213
-54.4574
-53.952
-53.4369
-52.9103
-52.3775
-51.8409
-51.3046
-50.7622
-56.4625
-55.8945
-55.5918
-55.0751
-54.6111
-54.1037
-53.5869
-53.0584
-52.5238
-51.9858
-51.4479
-50.9005
-56.6023
-56.038
-55.7354
-55.2123
-54.7497
-54.2403
-53.7219
-53.1918
-52.6554
-52.1158
-51.5779
-51.0369
-56.734
-56.1666
-55.8617
-55.3353
-54.8741
-54.362
-53.842
-53.3102
-52.7722
-52.2303
-51.6887
-51.1425
-56.8433
-56.2771
-55.9705
-55.4435
-54.9846
-54.4682
-53.9469
-53.4137
-52.8745
-52.3318
-51.7918
-51.258
-56.939
-56.3734
-56.0631
-55.5391
-55.0787
-54.5577
-54.0365
-53.5024
-52.9617
-52.4168
-51.8708
-51.326
-57.0174
-56.4561
-56.1379
-55.6211
-55.1517
-54.6342
-54.112
-53.5764
-53.0346
-52.4893
-51.9445
-51.4085
-57.0836
-56.5229
-56.1996
-55.6865
-55.2128
-54.6958
-54.1726
-53.6359
-53.0932
-52.5468
-51.9987
-51.4531
-57.1334
-56.5749
-56.2466
-55.7353
-55.26
-54.7429
-54.2185
-53.6811
-53.1376
-52.5905
-52.0436
-51.5059
-57.1638
-56.6089
-56.2794
-55.7687
-55.2921
-54.775
-54.2498
-53.7119
-53.1675
-52.6186
-52.0661
-51.5129
-57.1833
-56.6289
-56.2979
-55.7878
-55.31
-54.7929
-54.2674
-53.7291
-53.1842
-52.635
-52.0821
-51.5205
-57.1865
-56.6334
-56.3014
-55.7916
-55.3133
-54.7966
-54.271
-53.7332
-53.1891
-52.6421
-52.0968
-51.5498
-57.1706
-56.6229
-56.29
-55.781
-55.3022
-54.7858
-54.2605
-53.7231
-53.1794
-52.6321
-52.085
-51.533
-57.1436
-56.5984
-56.264
-55.7556
-55.2767
-54.7607
-54.2356
-53.6984
-53.1547
-52.6068
-52.0595
-51.5146
-57.1008
-56.5589
-56.2233
-55.7157
-55.2368
-54.7214
-54.1965
-53.6597
-53.1161
-52.568
-52.0182
-51.4663
-57.048
-56.5041
-56.168
-55.6613
-55.1825
-54.6678
-54.1436
-53.6075
-53.0649
-52.518
-51.9709
-51.4291
-56.9707
-56.4346
-56.0981
-55.5924
-55.114
-54.6001
-54.0769
-53.5419
-53.0003
-52.4545
-51.9057
-51.348
-56.8879
-56.3501
-56.0134
-55.509
-55.0312
-54.5183
-53.996
-53.4625
-52.9228
-52.3805
-51.8436
-51.3221
-56.7841
-56.2502
-55.9139
-55.4107
-54.9337
-54.422
-53.9009
-53.3684
-52.8296
-52.2864
-51.7417
-51.2045
-56.6663
-56.1362
-55.8001
-55.2985
-54.8221
-54.3114
-53.7911
-53.2592
-52.7208
-52.1776
-51.6311
-51.0865
-56.5385
-56.0101
-55.673
-55.1724
-54.6967
-54.187
-53.6676
-53.1367
-52.599
-52.0568
-51.5112
-50.9586
-56.3952
-55.8677
-55.5311
-55.0318
-54.557
-54.0487
-53.5308
-53.0015
-52.4655
-51.9257
-51.3863
-50.8514
-56.2328
-55.7098
-55.3744
-54.8771
-54.4034
-53.8967
-53.3804
-52.8529
-52.3187
-51.7801
-51.2386
-50.6928
-56.0585
-55.5379
-55.2031
-54.7078
-54.2357
-53.7308
-53.2164
-52.691
-52.159
-51.6232
-51.0876
-50.5549
-55.8678
-55.3517
-55.018
-54.5246
-54.054
-53.5511
-53.0386
-52.5153
-51.9854
-51.4516
-50.9162
-50.3776
-55.6642
-55.1525
-54.819
-54.3275
-53.8585
-53.3574
-52.847
-52.3259
-51.7982
-51.2672
-50.7372
-50.2155
-55.4526
-54.9391
-54.6056
-54.1162
-53.6488
-53.1497
-52.6413
-52.1224
-51.5969
-51.0669
-50.5348
-50.0038
-55.2134
-54.708
-54.377
-53.8904
-53.4249
-52.9282
-52.422
-51.9055
-51.3824
-50.8555
-50.3289
-49.8176
-54.9656
-54.464
-54.1345
-53.6503
-53.187
-52.6925
-52.1889
-51.6746
-51.1542
-50.6295
-50.1022
-49.5826
-54.7057
-54.2078
-53.8784
-53.3968
-52.9353
-52.4431
-51.942
-51.4303
-50.9124
-50.3906
-49.8679
-49.3654
-54.4317
-53.9356
-53.6082
-53.1293
-52.6699
-52.18
-51.6812
-51.1721
-50.6566
-50.1366
-49.6119
-49.0924
-54.1438
-53.6511
-53.3237
-52.8473
-52.3903
-51.9032
-51.407
-50.9006
-50.3876
-49.8706
-49.3495
-48.8348
-53.8341
-53.3486
-53.0247
-52.5519
-52.0974
-51.6132
-51.12
-50.6167
-50.1072
-49.5943
-49.0802
-48.578
-53.5126
-53.0325
-52.711
-52.2417
-51.7901
-51.3092
-50.8192
-50.3193
-49.8131
-49.3031
-48.7895
-48.2797
-53.1854
-52.7074
-52.3856
-51.9187
-51.4694
-50.9916
-50.5049
-50.0083
-49.5057
-48.9999
-48.4937
-48.0029
-52.8384
-52.3651
-52.0453
-51.5818
-51.1355
-50.6605
-50.1771
-49.684
-49.1846
-48.6813
-48.1737
-47.6689
-52.4774
-52.0072
-51.69
-51.2304
-50.7873
-50.3157
-49.8356
-49.3461
-48.8507
-48.3519
-47.8521
-47.3682
-52.101
-51.6364
-51.3211
-50.8649
-50.425
-49.9569
-49.4806
-48.9949
-48.5033
-48.0085
-47.5101
-47.0138
-51.7064
-51.2493
-50.9371
-50.4853
-50.0487
-49.5844
-49.1119
-48.63
-48.1428
-47.6527
-47.1635
-46.6922
-51.3028
-50.8499
-50.5398
-50.0921
-49.6588
-49.1984
-48.7295
-48.2513
-47.7677
-47.2802
-46.7886
-46.3096
-50.8862
-50.4374
-50.1294
-49.6854
-49.2557
-48.7989
-48.3337
-47.8593
-47.3792
-46.8946
-46.4039
-45.9143
-50.4542
-50.01
-49.7043
-49.2647
-48.8386
-48.3861
-47.925
-47.4553
-46.98
-46.5016
-46.0211
-45.5445
-50.0066
-49.5681
-49.2651
-48.8302
-48.408
-47.9599
-47.5036
-47.0389
-46.5693
-46.0974
-45.6271
-45.1732
-49.5439
-49.1115
-48.8117
-48.3816
-47.9637
-47.52
-47.0683
-46.6085
-46.1432
-45.6745
-45.2023
-44.7358
-49.0658
-48.6414
-48.3449
-47.9195
-47.5057
-47.0664
-46.6192
-46.1642
-45.7038
-45.2402
-44.7758
-44.3319
-48.5821
-48.1596
-47.8647
-47.4441
-47.0342
-46.5995
-46.1571
-45.7067
-45.2512
-44.7919
-44.3278
-43.862
-48.0785
-47.662
-47.3701
-46.9547
-46.5492
-46.1194
-45.6818
-45.2368
-44.7868
-44.3346
-43.8836
-43.4498
-47.5589
-47.1491
-46.8608
-46.4508
-46.0503
-45.6256
-45.1936
-44.754
-44.3094
-43.8629
-43.4168
-42.9951
-47.0255
-46.6226
-46.3382
-45.9338
-45.5379
-45.1185
-44.6917
-44.2574
-43.8178
-43.3752
-42.9306
-42.5111
-46.4792
-46.0823
-45.8014
-45.4024
-45.0116
-44.5978
-44.1764
-43.7473
-43.313
-42.8746
-42.428
-41.983
-45.9196
-45.5287
-45.2515
-44.8584
-44.4727
-44.0643
-43.649
-43.2263
-42.7997
-42.3721
-41.9474
-41.5593
-45.3471
-44.963
-44.6886
-44.3012
-43.9205
-43.5179
-43.1086
-42.6923
-42.2723
-41.8503
-41.4235
-41.008
-44.7622
-44.382
-44.1115
-43.7302
-43.355
-42.9583
-42.5547
-42.1445
-41.7305
-41.3139
-40.8944
-40.4979
-44.1565
-43.7863
-43.5204
-43.1454
-42.7757
-42.385
-41.9875
-41.5838
-41.1762
-40.7663
-40.3521
-39.9426
-43.5455
-43.1788
-42.9157
-42.5466
-42.183
-41.7985
-41.4076
-41.0108
-40.6104
-40.209
-39.8087
-39.4334
-42.9191
-42.5577
-42.298
-41.935
-41.5771
-41.199
-40.8148
-40.4248
-40.031
-39.6351
-39.2346
-38.8361
-42.2683
-41.9179
-41.6648
-41.3092
-40.9577
-40.5865
-40.2088
-39.826
-39.4396
-39.0518
-38.6643
-38.3003
-41.6152
-41.2696
-41.0191
-40.67
-40.3249
-39.9608
-39.5904
-39.2146
-38.836
-38.4558
-38.0727
-37.6933
-40.9444
-40.6064
-40.3604
-40.0182
-39.6799
-39.3226
-38.9594
-38.5913
-38.2205
-37.8489
-37.4801
-37.1365
-40.2629
-39.9301
-39.6882
-39.3528
-39.0212
-38.6714
-38.3156
-37.9552
-37.5918
-37.2261
-36.8562
-36.4984
-39.5624
-39.2385
-39.0021
-38.6746
-38.3499
-38.0075
-37.6594
-37.3069
-36.9516
-36.595
-36.2348
-35.8834
-38.8503
-38.5344
-38.3031
-37.9834
-37.6659
-37.3315
-36.9919
-36.648
-36.3021
-35.9569
-35.6141
-35.2868
-38.1307
-37.8194
-37.592
-37.2798
-36.9696
-36.6431
-36.312
-35.9768
-35.6399
-35.3031
-34.9675
-34.6532
-37.3938
-37.091
-36.8685
-36.5636
-36.261
-35.9425
-35.6195
-35.2928
-34.9643
-34.6347
-34.3021
-33.978
-36.6455
-36.349
-36.1316
-35.835
-35.54
-35.2299
-34.915
-34.5975
-34.2787
-33.9602
-33.6439
-33.3552
-35.8819
-35.5943
-35.382
-35.0935
-34.8064
-34.5051
-34.1994
-33.891
-33.5813
-33.2715
-32.9582
-32.6498
-35.1093
-34.8276
-34.6197
-34.3397
-34.061
-33.7686
-33.4725
-33.174
-32.8741
-32.5747
-32.2748
-31.9889
-34.3231
-34.0476
-33.8456
-33.5743
-33.304
-33.0211
-32.7347
-32.4467
-32.158
-31.8708
-31.5863
-31.3222
-33.5212
-33.2553
-33.059
-32.7965
-32.5351
-32.2623
-31.9861
-31.7084
-31.4304
-31.1535
-30.8749
-30.6019
-32.7102
-32.4514
-32.261
-32.0076
-31.7554
-31.4926
-31.2271
-30.9603
-30.6938
-30.4289
-30.167
-29.9263
-31.8857
-31.6355
-31.4514
-31.2072
-30.9643
-30.7119
-30.4575
-30.2024
-29.9481
-29.6951
-29.4407
-29.2007
-31.0553
-30.8111
-30.6318
-30.3967
-30.1631
-29.9212
-29.678
-29.435
-29.1939
-28.9563
-28.7223
-28.5225
-30.212
-29.975
-29.8006
-29.5751
-29.3513
-29.1205
-28.8883
-28.6568
-28.4277
-28.2027
-27.9801
-27.7669
-29.355
-29.1273
-28.9601
-28.744
-28.5299
-28.3096
-28.0887
-27.8683
-27.6493
-27.4317
-27.2117
-26.9915
-28.4945
-28.2708
-28.1086
-27.9021
-27.6983
-27.4894
-27.2806
-27.0726
-26.8665
-26.6634
-26.4651
-26.294
-27.6168
-27.4028
-27.2479
-27.0519
-26.8586
-26.6615
-26.4656
-26.2712
-26.0794
-25.8905
-25.7013
-25.5167
-26.7337
-26.5271
-26.3781
-26.1924
-26.0106
-25.8266
-25.6442
-25.4646
-25.2878
-25.1152
-24.9472
-24.8008
-25.8414
-25.6443
-25.5018
-25.3263
-25.1557
-24.9844
-24.8159
-24.6517
-24.4916
-24.3356
-24.1821
-24.046
-24.9468
-24.7541
-24.6172
-24.4524
-24.294
-24.1363
-23.9825
-23.8333
-23.6898
-23.5518
-23.4193
-23.3215
-24.0419
-23.8562
-23.7263
-23.5722
-23.4256
-23.2817
-23.1432
-23.0096
-22.8814
-22.759
-22.6388
-22.521
-23.1271
-22.9509
-22.8285
-22.6861
-22.5522
-22.4228
-22.2995
-22.1821
-22.0698
-21.9618
-21.8546
-21.7486
-22.2116
-22.0426
-21.9263
-21.7954
-21.6752
-21.5609
-21.4545
-21.3554
-21.2628
-21.1774
-21.1024
-21.0647
-21.2936
-21.1299
-21.0206
-20.9014
-20.7951
-20.6974
-20.6089
-20.529
-20.4564
-20.3897
-20.325
-20.2685
-20.3679
-20.2127
-20.1112
-20.0051
-19.9136
-19.8332
-19.764
-19.7043
-19.6527
-19.6075
-19.5674
-19.5568
-19.4422
-19.2943
-19.2001
-19.1067
-19.0315
-18.9702
-18.9215
-18.8841
-18.8555
-18.8328
-18.8109
-18.7957
-18.5169
-18.3745
-18.2887
-18.2099
-18.152
-18.1115
-18.0858
-18.0727
-18.0696
-18.0738
-18.0821
-18.1045
-17.5884
-17.4538
-17.3771
-17.314
-17.2758
-17.2582
-17.2582
-17.2725
-17.2978
-17.3313
-17.3711
-17.4254
-16.6632
-16.5346
-16.4678
-16.4226
-16.4065
-16.4149
-16.4434
-16.4871
-16.5419
-16.6046
-16.6734
-16.7613
-15.7371
-15.6168
-15.5618
-15.5374
-15.5479
-15.5863
-15.6467
-15.7228
-15.8084
-15.8983
-15.9863
-16.0776
-14.8153
-14.7014
-14.6614
-14.6633
-14.7062
-14.7808
-14.8781
-14.9905
-15.1108
-15.2335
-15.3553
-15.492
-13.893
-13.7883
-13.7698
-13.8079
-13.8934
-14.0121
-14.152
-14.3037
-14.4601
-14.6155
-14.7638
-14.9114
-12.9666
-12.8757
-12.8942
-12.9864
-13.1284
-13.2997
-13.4871
-13.6805
-13.8729
-14.0594
-14.2342
-14.4036
-12.0289
-11.9707
-12.0581
-12.2334
-12.4488
-12.68
-12.9142
-13.1438
-13.3688
-13.5831
-13.7752
-13.9332
-11.0576
-11.1437
-11.3809
-11.6842
-11.9809
-12.2594
-12.5292
-12.7857
-13.029
-13.2718
-13.4722
-13.6551
-1.51205
9.7087
-10.3086
-19.2165
-19.8568
-7.19871
-4.75608
32.7499
-44.7908
-39.9599
-35.0469
-14.8549
16.5881
-41.2453
1.3859
-6.75734
-41.2706
-30.5991
-30.0392
-6.48881
27.9829
26.3245
17.7849
-16.12
-0.858216
-10.8525
24.3646
0.646019
-42.5138
-37.8094
-42.4767
30.9143
9.5812
-34.6555
16.7936
18.0436
33.6641
-30.818
33.2344
-14.7594
2.3228
-1.99091
24.6822
-0.420064
33.4337
26.1239
19.053
19.9916
33.365
27.9715
18.7596
32.5676
30.9376
1.49089
-36.9584
9.41822
12.904
-2.36878
-31.5739
0.921409
24.1691
30.3288
1.53636
-3.96667
17.5256
9.71178
-13.6888
30.4918
16.3348
-39.4147
-37.0552
13.9387
33.1334
-13.2575
-15.4928
2.61656
-44.3283
-1.67792
10.0153
28.8016
2.66453
-1.93248
33.9139
32.558
1.96524
-44.3981
-13.7145
0.919601
-39.5738
33.5432
27.9869
-41.3219
-0.226464
7.82804
34.3247
-4.18767
0.516207
-1.90754
-0.642107
-13.3445
-15.8568
14.5778
5.57201
8.91219
-1.70933
33.9713
1.83138
33.2502
-13.662
0.350455
17.9786
-2.06974
30.5197
-7.73156
1.68689
15.6672
-19.9035
-6.20098
-45.7002
-33.3358
-10.6064
-21.5295
-42.0199
15.4074
-18.1222
-40.3264
-1.92272
11.6043
19.3703
1.03078
31.5955
1.40013
21.4109
8.84734
23.5179
10.78
34.0286
-39.3994
31.5452
10.3896
-19.1498
28.7192
27.122
0.538208
30.8958
-37.1297
31.6715
-10.684
-47.9226
3.35943
0.321629
16.6475
-1.66769
4.76357
22.1788
3.22722
31.8296
-1.35023
-41.7124
-14.5817
-22.0909
-6.32603
-30.1839
-15.0632
24.141
26.3773
31.5945
34.3123
10.9038
1.48672
-38.1094
-18.0675
-36.9177
-19.2509
-1.10228
-41.249
1.95426
32.391
25.2137
-36.9813
31.0679
-32.283
-7.56589
33.4017
6.30573
31.4886
3.49402
-1.70586
31.7774
1.62158
-40.3785
-1.74512
31.9149
-5.90088
32.0477
8.06226
26.9524
30.4001
2.38178
-61.4217
-47.5672
32.4142
34.355
31.1707
32.8672
14.1223
-7.97457
-36.2493
-13.828
-15.9303
4.31811
-46.9816
33.4127
34.2282
1.93904
31.1852
-11.1908
-13.1307
-63.531
30.5443
32.4364
-47.8287
33.5687
-3.23901
-3.26706
-39.9198
-44.8067
-2.07334
-56.4284
20.0275
33.7383
-17.1117
-2.30151
-13.0107
-13.375
27.4034
31.241
-47.3664
-1.80764
32.8942
-33.3319
19.4549
-40.7458
-45.9341
33.0707
2.46081
19.8776
6.01822
-42.4808
31.3422
-40.1264
-13.3935
-40.3663
-71.5373
28.2587
-31.6902
0.0948937
32.6676
-42.1989
33.4001
-15.2347
27.0929
17.3272
-8.60953
-14.3249
27.5827
-46.58
32.7186
-3.68269
6.48024
0.177228
18.6136
-45.2873
33.0932
32.8854
-44.4148
21.8561
34.4527
34.254
32.6633
32.6384
23.3637
33.6995
33.1971
-25.4647
27.4652
-33.0658
33.2281
-50.0973
29.507
32.6455
-42.3223
34.9561
34.949
30.4557
32.0086
28.043
30.6993
23.9775
34.247
29.0809
-0.741187
-10.825
-37.5654
22.3454
-46.5048
34.4992
1.55035
14.387
16.6655
-27.937
34.7071
3.44692
-50.9237
32.5038
24.3754
34.9042
-31.4261
2.01231
27.8126
22.0459
-41.8215
-15.3304
69.7059
34.2389
-30.7881
-26.2038
-2.31631
2.57494
34.7397
-4.08418
0.640486
-41.8267
-2.27028
2.63707
4.24884
-1.70753
14.9906
2.15797
6.52427
-0.323466
33.0154
0.121624
29.3956
12.9122
31.6226
33.6236
-42.1351
-60.7289
-12.6694
-0.170173
-4.06264
13.8573
26.0111
34.797
-1.17875
-25.3458
33.5389
-46.1391
-40.0121
30.0997
33.7029
-49.0017
-61.3684
21.2618
-21.6336
-3.18211
0.324707
-1.5528
0.707856
-29.7901
30.2457
33.9941
-33.199
-41.728
28.7305
33.1788
-48.2764
3.57205
-35.8021
-11.0468
-11.0818
-1.39271
33.149
-67.0624
28.0376
-0.864861
21.773
28.6231
19.7464
3.50475
-37.2366
-35.6885
30.7648
30.2907
-3.02419
-55.7602
-2.8058
-33.8536
-26.831
13.1527
-14.3692
-12.9851
14.1072
-43.432
30.9285
-48.7957
-41.2342
31.3146
33.3118
-2.2185
-0.821389
1.55667
-49.2653
12.7162
28.7864
-62.5202
30.4041
30.6387
3.4116
0.20236
30.6394
1.69702
-3.00131
32.5317
0.58379
-21.6433
-47.3117
33.9103
0.580236
-14.0845
-11.2361
-31.4653
29.4252
-32.5511
1.96324
-41.4936
-37.3308
28.6093
-6.84176
34.5697
33.251
12.985
32.0709
8.5498
-14.456
-6.82786
31.8917
27.0095
2.12662
-37.5272
29.7143
33.4659
10.7459
-41.8301
28.3661
9.66299
34.798
34.2329
-32.4326
28.6084
-10.4217
22.8582
-4.52606
-50.1393
-28.1419
2.28269
29.3302
22.8502
33.3538
-25.8523
33.6561
19.1351
0.823458
-38.0158
-46.7775
30.8414
1.99117
31.8788
-13.1579
0.115692
33.5102
33.2829
-23.2123
-20.6289
30.2067
34.1741
-6.22569
-19.4047
-42.8954
-22.3527
0.944871
32.4123
-57.7266
-17.2721
30.544
-23.7875
-1.02658
33.1337
33.9281
-40.5081
31.0783
33.6242
2.45378
26.2929
34.3916
22.9634
-48.3234
31.0991
-37.6736
31.7014
-49.5376
-13.7744
-36.8347
2.00606
-15.709
31.4395
-37.6471
-13.9788
21.4093
15.8632
-12.5255
1.31241
31.5561
-0.694138
3.77729
-14.8047
33.6811
30.2572
-38.9823
34.9538
-15.2388
-17.4602
-37.2815
-2.15891
25.9694
-47.4006
-36.3898
30.3884
-42.5656
-7.71204
-17.8138
-21.4705
-48.2451
-43.3062
-1.82927
-26.3763
1.95674
19.6121
9.06998
13.8134
-17.3888
28.4737
33.6714
-30.388
26.223
29.0594
-13.8707
0.00804704
-0.106161
16.6566
-13.4306
30.6451
-39.1189
-31.5295
-25.952
31.7888
0.499623
16.9994
27.6789
10.8619
-49.6758
24.3565
30.0016
30.3202
12.4572
0.449939
-9.38795
-2.67425
-36.0462
-36.1241
33.0708
-43.7467
4.26547
-45.8297
25.0432
33.0043
27.5529
-43.9612
0.130066
-32.4613
1.3078
28.5275
-13.3946
32.2828
-36.7076
-0.0879457
-46.0909
-40.8495
33.4607
1.83863
-0.660869
-26.6584
-17.3407
11.7117
11.9934
8.30436
-12.7972
-6.2651
7.62098
29.7405
-29.2459
-33.8715
-1.86127
0.820953
-44.4461
34.1616
32.6956
33.5987
10.7178
29.3628
-6.83675
-30.6973
25.6755
-1.78591
11.3486
30.2421
1.56011
14.4132
33.874
-50.3676
-50.7109
3.39484
-13.0606
29.1754
-49.7366
19.3727
25.1676
32.2123
-2.12202
31.9849
29.4066
23.5544
-22.1531
-9.39071
-0.321462
-48.233
-50.9597
32.2003
-60.809
4.45211
2.76264
-45.905
-31.0175
10.4446
1.96408
-41.9239
-1.12056
-36.3037
31.7156
-31.2633
2.02346
-45.9065
-0.055702
32.8857
-37.7949
33.5813
17.0764
25.4815
-48.4525
-1.14368
19.0922
-48.1161
31.7541
-36.8396
-3.98166
-40.3364
-17.9672
1.34441
2.35867
24.1737
-15.0303
32.2643
4.06471
-25.4101
34.2336
34.3041
-38.7183
23.5395
-38.4751
33.8133
27.4066
33.0819
-2.17944
13.5332
-1.13204
1.50346
30.1579
2.13796
34.8893
-10.6978
-35.406
1.45858
28.6792
34.1123
-37.1408
-5.31355
-26.7274
18.8935
-52.8
-17.3548
-28.6038
-40.6107
-1.8653
0.845038
33.2053
20.6277
34.3398
29.6525
3.82771
34.8361
34.9154
32.8926
-37.0519
-16.6343
32.8878
-0.533015
4.46234
-56.5848
33.4981
1.26157
15.142
-38.4371
6.45094
-2.37116
-41.5409
2.05413
-26.6074
-57.9178
6.35007
32.1525
-1.61945
23.034
32.7933
1.41697
-8.69812
-1.28427
7.34551
-9.47229
-52.4264
-32.0871
27.601
29.3693
1.92137
-13.8787
-0.634743
-0.647386
-21.2372
14.8981
30.6166
16.5074
-43.6546
-2.86909
-109.937
-0.506581
-10.2914
33.0053
30.1056
-1.66014
31.6936
-17.4877
29.2846
-10.4855
-42.7104
-43.9296
31.3882
-24.7434
-15.0094
17.3421
8.05721
27.3583
-58.0192
-13.3477
29.0358
0.119185
32.5601
-8.11884
-39.5385
-44.9466
-16.1673
-13.9743
-43.1427
-23.866
6.08243
34.3736
29.1894
-12.4078
7.35334
-3.33206
33.8416
-37.4048
-5.30661
-42.2564
-28.3809
25.9428
24.2428
-48.3394
-11.1443
27.6851
-12.2067
-38.9228
-38.7161
0.209622
-43.2187
-15.7616
34.1371
32.4845
30.5661
0.113583
-10.7377
-2.82309
1.74866
2.38273
31.0468
23.1992
20.4824
-37.8732
0.665595
-43.7972
15.5697
23.5981
1.95703
-38.5733
-4.19207
26.4397
-42.696
23.7773
30.6363
28.5197
-2.12411
26.3503
-38.164
10.2427
14.1345
31.9708
-39.9677
28.0087
16.0801
-15.3864
-13.9887
26.9792
-26.905
-28.8909
30.8743
0.417527
-50.6022
15.308
12.6141
-9.05572
-58.3944
26.8681
-0.42494
1.19822
-45.3466
29.9367
-48.6148
1.38821
-36.3583
-38.1919
33.7615
6.52055
33.5864
-29.9321
6.56179
29.3272
-2.04939
-50.3314
34.0857
34.0222
34.6386
3.19282
1.9948
15.4295
-41.3322
-40.5928
-32.0392
0.32307
-14.3855
3.88937
12.7773
-39.7156
25.0439
27.7164
28.0079
16.896
33.3535
32.6237
-37.523
0.00678609
34.2918
-32.3074
31.6936
1.15137
-41.6908
-4.33765
1.98092
4.47973
29.8305
-20.8226
-10.8184
26.3716
-54.7525
-4.70325
3.80045
16.3247
23.141
-11.7448
27.9145
2.61426
-3.12746
-13.7404
13.9225
-12.9837
-40.9045
33.2474
-16.5739
22.2404
-35.6763
28.3164
30.4534
32.3705
-40.4894
31.8766
1.66869
32.8125
-10.5734
-2.2625
-41.3779
30.0139
21.1451
25.7233
-8.22019
-44.0119
-35.861
-0.414676
34.1246
2.73919
33.19
-31.5351
33.2042
-2.03545
-45.3648
34.2537
-35.5527
33.1187
32.9914
-15.1179
-29.5381
23.731
0.626876
15.0991
34.9204
-1.3792
-48.295
32.2824
-2.32813
-15.4478
10.6852
33.2676
33.6729
-31.4991
31.4342
32.6516
-10.2932
31.5616
27.0203
30.5849
31.2981
1.5617
-1.61595
-40.2613
-6.00688
-38.8825
32.9994
-0.808337
-36.8767
33.2247
-2.27764
30.0637
25.2494
31.1483
31.0625
18.4319
-41.1714
-38.1733
30.8015
-33.1002
-21.288
26.1203
33.868
-45.5449
-30.7039
-38.5937
-21.5082
-15.8928
28.5313
-9.88255
-18.2688
-31.1194
-0.441722
-40.581
33.0397
12.6594
1.70923
-3.20593
-3.20697
31.5026
-2.11191
32.6853
-0.164244
31.7906
-7.40097
3.3494
-46.3816
33.7313
1.88259
31.4897
33.7561
-25.0792
27.0585
-17.8662
32.2717
-1.61937
30.3527
21.4524
2.92913
10.3906
34.4824
30.9576
-0.140327
2.31266
33.7328
2.32833
28.6955
-31.3624
-31.5377
31.3349
-19.2651
18.8104
-100.828
-44.9352
33.5163
-53.7446
-41.4548
2.31051
31.1342
-43.0732
-44.4742
2.46809
26.4048
-1.20395
-7.25326
30.6219
-10.4831
-17.3582
6.32743
-13.8764
-62.0408
13.9522
-1.1586
25.0339
0.472781
10.4802
24.7293
-64.648
24.657
5.48179
-3.15686
-47.6633
26.8686
4.7218
7.8832
27.875
24.5466
33.6665
34.7276
-15.0224
-1.39811
-13.6566
2.63321
39.3275
26.7182
-87.8048
29.5236
-29.8722
1.10469
-50.7338
-0.330222
2.74622
11.6267
30.7686
31.6866
-48.1347
2.64201
-16.9662
-1.91353
27.2522
-48.2244
0.949421
32.9989
1.38734
1.10938
5.79049
16.4224
-13.2162
-40.6066
-22.1801
2.97835
-2.63345
31.3927
32.4264
32.1379
-44.8415
27.6005
31.3205
2.88153
11.4045
-35.2477
32.4819
-14.219
14.1039
1.29034
34.1249
-2.04978
31.9497
32.1903
-7.64907
-12.1768
33.2152
-16.4526
21.8002
1.6702
-35.9982
-40.78
33.1617
-2.86247
-17.875
-35.3418
-20.3018
23.3232
-38.7319
1.95659
1.53402
0.316515
-19.6482
33.9727
-47.0193
0.244617
34.8609
-43.5483
29.7668
25.6958
-19.0919
14.1024
1.71593
20.504
30.4618
31.2484
-1.03899
-40.5272
-2.35403
-16.8486
-17.0899
-44.2259
21.6102
-39.8731
-41.5204
8.90318
14.5455
2.25827
-1.66519
6.32614
-12.6561
-7.35182
0.963858
-44.0355
33.3935
-0.583712
31.4928
-34.9015
3.53394
1.89537
-62.3613
31.4388
-35.7655
-20.8093
23.5531
30.2912
-27.0114
20.2101
-40.0719
33.0507
32.6472
34.7958
25.8431
33.7725
31.804
-18.4931
33.7085
3.71744
33.3286
15.4459
28.4472
-22.9028
29.3644
-32.9958
11.3408
34.4981
23.0339
34.2954
33.3733
34.6
-28.1201
-3.82831
8.57858
2.09861
-20.3498
-39.3706
1.93388
-45.0919
2.59577
15.4197
32.8993
30.9627
-43.4651
-22.7276
22.8399
-46.338
-7.21163
34.5394
-2.81394
32.3633
-49.2541
0.775831
-15.9537
-4.1904
21.4192
32.206
30.8647
25.3498
31.5567
-1.8028
21.1877
30.5592
-46.7152
5.90257
14.3474
29.3262
31.4844
-19.0308
32.048
-16.8393
-7.39591
-12.5815
1.21846
-8.95105
32.4807
-41.5756
33.3064
29.7225
-26.7536
-30.0121
25.8105
1.44962
32.8996
1.24003
1.62764
-0.748799
16.0367
32.1445
28.6413
-38.4424
33.0745
32.6656
6.31787
3.49973
26.5305
26.6293
19.8714
33.1017
-22.4574
33.5615
-0.838762
33.714
7.6895
7.34187
1.93171
-37.5701
-19.1506
28.7867
-26.28
-42.0509
-46.0018
2.01519
-40.1613
34.544
33.8331
-0.33552
-9.59822
28.0762
32.7309
-35.1127
31.8977
-1.74654
-37.183
3.08949
32.348
-16.3209
31.1437
13.6595
-12.3285
-0.662319
43.5762
-0.893727
-45.0971
18.203
3.3135
16.3237
30.705
-1.39553
-0.602056
-1.90019
16.0583
32.9164
-25.9223
-3.49834
31.6102
25.082
34.0988
1.85162
34.4752
25.9101
27.8123
-21.893
33.673
-16.0095
34.8269
-11.0359
30.828
32.2955
33.9234
-0.742657
26.0025
32.5849
31.9031
7.62452
0.810915
31.3787
23.9705
1.73462
-4.78632
-50.7254
0.913521
-37.1465
-45.3316
32.9796
33.574
-27.2279
24.6964
-31.7014
-52.18
-25.8372
-13.3685
-35.9584
34.7805
28.4326
-1.48647
33.8316
-5.61116
-0.816346
2.92485
-0.208507
1.89896
4.17678
-25.6968
-100.279
-31.4013
8.13142
-37.8239
29.1178
-3.71376
30.9827
28.4087
-21.3936
27.1201
-43.4175
34.6849
24.725
20.2513
-2.00244
2.23405
16.4974
21.3967
33.6456
32.8215
-44.083
27.9055
30.9254
-9.00733
32.8815
33.3689
-1.13715
32.8031
-42.4143
4.0554
-18.5833
14.8394
-18.3191
33.0214
-32.1606
-15.9464
7.04733
-33.0322
5.31206
-10.4806
1.19719
-18.6869
-40.3558
-25.6266
-0.64203
-1.44465
25.6427
32.4812
-38.2122
31.2369
-24.4728
33.305
32.1831
2.02422
33.6205
-1.26768
-33.1772
27.9863
-31.777
24.2363
-49.5411
-16.0639
33.5935
33.8505
-50.566
32.4904
-14.2882
34.6228
-38.7947
22.8508
-31.6125
33.922
12.0563
5.43027
-41.0619
-32.2184
1.70961
-0.122501
-6.96304
-5.50415
34.4046
-0.920189
33.0505
30.2882
31.8842
-43.2017
2.92392
-33.8315
30.409
34.1807
32.1972
32.9078
-42.3673
-5.05123
1.62492
3.43625
-28.8578
2.9097
33.5273
31.342
5.20312
-17.6193
-35.9835
34.0543
33.0433
1.87951
31.2075
-27.0653
8.71776
11.5491
34.2539
33.5292
-9.85345
26.5603
-1.45936
2.73295
34.64
7.32474
-19.6829
2.46179
32.5992
-9.8816
23.7488
-50.1418
16.2257
-28.063
-40.5652
6.43353
3.43942
-9.85592
0.808714
30.7838
33.4185
32.4242
-1.1171
22.8853
-27.9176
8.40248
-13.1678
-16.8209
-0.314861
2.12633
14.6182
-11.7766
0.710503
28.8856
4.03745
-46.071
-5.95238
-7.49411
-22.522
23.2173
13.9085
21.3904
-48.2611
12.3564
-1.91945
32.4548
30.9374
-40.3041
0.021834
34.7909
31.3383
-4.36341
32.1844
-28.2123
-26.5697
5.69197
26.489
-9.2922
30.9012
-48.0456
-40.1177
11.0595
-30.3659
-1.51732
33.5408
-1.83125
-23.4753
14.6268
31.2215
-27.8324
-38.2385
16.6817
-13.8929
-0.801229
-32.9513
-10.6314
3.23254
-3.68601
34.1154
33.6552
25.1471
14.0077
29.3979
-6.39458
1.55665
2.42137
-40.4553
-15.2268
-36.2059
26.4182
33.6576
32.813
-21.215
17.2451
2.79973
-1.2418
29.4112
-26.6839
-38.8976
-14.5222
4.11053
-16.1145
20.4285
34.3539
33.189
-25.6318
34.4216
-40.5936
-0.705275
4.19885
-17.5074
33.8108
-41.0059
32.858
34.6815
8.05266
-48.8497
-2.71043
31.6803
19.7979
20.0049
-1.62021
21.5041
17.7118
-37.6597
-32.9105
-1.00719
32.3834
-3.22186
33.5525
-42.9767
-1.68165
21.1549
-0.385502
29.3464
-26.3672
26.8759
-1.64427
29.5017
33.7636
31.6137
-38.4748
19.8947
-36.9298
3.58803
-14.4773
34.3239
-49.8682
-12.4295
-8.48694
-4.31644
33.6314
6.55516
-13.565
1.34118
-24.4642
1.9126
7.58916
-0.0297731
-3.16343
-16.5774
-13.2687
1.19632
-43.6827
-17.3043
-26.168
-38.0227
-8.68085
-2.54001
34.3582
-6.49575
0.908959
-29.5449
-11.0285
-43.9477
21.8633
-12.278
10.5231
-0.948507
-7.58358
-22.7074
20.4095
-36.0639
-12.5903
-11.2218
-26.877
33.6661
-41.0269
3.47672
-0.30712
-43.1523
-11.833
12.1332
18.4376
1.4855
-40.5263
5.66855
-30.6958
-40.4943
33.0122
-2.41885
34.4471
1.24168
-14.1449
31.3033
1.81776
34.4982
-30.0484
1.68795
32.8311
1.57837
13.6626
15.0688
3.99185
-23.8252
29.1101
-43.8114
-27.6025
-48.2649
11.8313
32.9905
29.8038
-42.3062
-17.0633
2.0483
-58.2833
23.7717
-43.6508
13.0169
-18.5109
0.253171
-2.66247
31.2888
-14.6354
31.1362
-28.5368
31.3179
-2.6009
1.95687
4.33091
22.5606
12.0501
-23.1011
-1.87958
-30.4942
32.0928
18.31
-16.1674
-38.4866
0.220728
27.8972
0.856324
1.87358
30.9263
-41.2347
-25.5342