/*--------------------------------*- C++ -*----------------------------------*\
| =========                 |                                                 |
| \\      /  F ield         | OpenFOAM: The Open Source CFD Toolbox           |
|  \\    /   O peration     | Version:  2.3.1                                 |
|   \\  /    A nd           | Web:      www.OpenFOAM.org                      |
|    \\/     M anipulation  |                                                 |
\*---------------------------------------------------------------------------*/
FoamFile
{
    version     2.0;
    format      ascii;
    class       surfaceScalarField;
    location    "0.3";
    object      phi;
}
// * * * * * * * * * * * * * * * * * * * * * * * * * * * * * * * * * * * * * //

dimensions      [0 3 -1 0 0 0 0];

internalField   nonuniform List<scalar> 
1460
(
4.80197e-07
-4.80197e-07
1.06144e-06
-5.81247e-07
1.44688e-06
-3.85436e-07
1.5884e-06
-1.41515e-07
1.50935e-06
7.90462e-08
1.24655e-06
2.62803e-07
8.19938e-07
4.26609e-07
2.03873e-07
6.16065e-07
-6.29812e-07
8.33685e-07
-1.60016e-06
9.70349e-07
-2.57718e-06
9.77014e-07
8.68143e-07
-3.44532e-06
4.80632e-07
-9.60829e-07
8.03349e-07
-9.03964e-07
8.13157e-07
-3.95244e-07
5.28228e-07
1.43414e-07
-1.67342e-08
6.24009e-07
-7.97215e-07
1.04328e-06
-1.77078e-06
1.40017e-06
-2.80167e-06
1.64695e-06
-3.71581e-06
1.74782e-06
-4.42518e-06
1.67972e-06
-4.91184e-06
1.46367e-06
1.15275e-06
-5.19644e-06
1.52743e-07
-1.11357e-06
-8.25376e-08
-6.68683e-07
-5.74484e-07
9.67023e-08
-1.21195e-06
7.80876e-07
-1.97824e-06
1.3903e-06
-2.78779e-06
1.85283e-06
-3.51179e-06
2.12418e-06
-4.05143e-06
2.1866e-06
-4.36916e-06
2.06555e-06
-4.50695e-06
1.81751e-06
-4.54869e-06
1.50541e-06
1.17334e-06
-4.56928e-06
-3.21417e-07
-7.92155e-07
-9.25663e-07
-6.44366e-08
-1.58121e-06
7.52245e-07
-2.27969e-06
1.47936e-06
-2.90754e-06
2.01815e-06
-3.37576e-06
2.32105e-06
-3.6417e-06
2.39012e-06
-3.73507e-06
2.27996e-06
-3.74001e-06
2.0705e-06
-3.74952e-06
1.82702e-06
-3.81865e-06
1.57454e-06
1.2995e-06
-3.94481e-06
-5.48882e-07
-2.43274e-07
-1.22629e-06
6.12972e-07
-1.87733e-06
1.40328e-06
-2.40596e-06
2.00799e-06
-2.7444e-06
2.3566e-06
-2.87791e-06
2.45455e-06
-2.86439e-06
2.3766e-06
-2.80771e-06
2.22328e-06
-2.80646e-06
2.06925e-06
-2.9129e-06
1.93346e-06
-3.12419e-06
1.78583e-06
1.57528e-06
-3.39997e-06
-4.94287e-07
2.51013e-07
-1.0702e-06
1.18889e-06
-1.55253e-06
1.88561e-06
-1.85548e-06
2.31094e-06
-1.95712e-06
2.45823e-06
-1.91156e-06
2.40899e-06
-1.82386e-06
2.28891e-06
-1.79806e-06
2.19748e-06
-1.89699e-06
2.16817e-06
-2.13448e-06
2.17095e-06
-2.48874e-06
2.14009e-06
2.00054e-06
-2.914e-06
-2.32239e-07
4.83251e-07
-6.09378e-07
1.56602e-06
-8.86793e-07
2.16303e-06
-1.00108e-06
2.42523e-06
-9.67571e-07
2.42472e-06
-8.68205e-07
2.30963e-06
-8.02598e-07
2.2233e-06
-8.43784e-07
2.23867e-06
-1.02666e-06
2.35105e-06
-1.35675e-06
2.50104e-06
-1.81705e-06
2.60039e-06
2.54597e-06
-2.36247e-06
1.05173e-07
3.78079e-07
-2.38445e-08
1.69504e-06
-1.11305e-07
2.25049e-06
-8.72774e-08
2.4012e-06
1.2974e-08
2.32447e-06
1.13345e-07
2.20926e-06
1.48347e-07
2.1883e-06
7.41782e-08
2.31284e-06
-1.36203e-07
2.56143e-06
-4.96746e-07
2.86158e-06
-1.00063e-06
3.10427e-06
3.14779e-06
-1.60244e-06
3.88454e-07
-1.0375e-08
5.53676e-07
1.52982e-06
6.47436e-07
2.15673e-06
7.85006e-07
2.26364e-06
9.2675e-07
2.18273e-06
1.0264e-06
2.1096e-06
1.05782e-06
2.15688e-06
9.97218e-07
2.37344e-06
8.17753e-07
2.7409e-06
4.98243e-07
3.18109e-06
3.87464e-08
3.56377e-06
3.70733e-06
-5.20791e-07
4.19201e-07
-4.29576e-07
9.47487e-07
1.00153e-06
1.31492e-06
1.78929e-06
1.59257e-06
1.98599e-06
1.78382e-06
1.99147e-06
1.8972e-06
1.99623e-06
1.95042e-06
2.10366e-06
1.9399e-06
2.38395e-06
1.84113e-06
2.83967e-06
1.62921e-06
3.39302e-06
1.30111e-06
3.89186e-06
4.11989e-06
8.88554e-07
2.21576e-07
-6.51152e-07
1.08766e-06
1.35448e-07
1.83524e-06
1.04172e-06
2.33833e-06
1.48289e-06
2.62094e-06
1.70887e-06
2.76112e-06
1.85604e-06
2.83701e-06
2.02778e-06
2.88604e-06
2.33492e-06
2.8993e-06
2.82641e-06
2.84824e-06
3.44408e-06
2.71732e-06
4.02278e-06
4.31761e-06
2.5196e-06
5.04788e-07
-1.15594e-06
1.06024e-06
-4.20003e-07
1.9656e-06
1.3635e-07
2.79133e-06
6.57161e-07
3.31979e-06
1.18041e-06
3.60201e-06
1.57383e-06
3.74153e-06
1.88825e-06
3.83852e-06
2.23794e-06
3.9474e-06
2.71753e-06
4.06558e-06
3.3259e-06
4.16565e-06
3.92271e-06
4.22909e-06
4.25417e-06
-4.12436e-06
6.79043e-07
-4.56747e-06
4.4311e-07
-4.75851e-06
1.91041e-07
-4.72597e-06
-3.25404e-08
-4.40383e-06
-3.22145e-07
-3.82938e-06
-5.74451e-07
-3.0344e-06
-7.94979e-07
-2.07309e-06
-9.61309e-07
-1.06572e-06
-1.00737e-06
-2.36654e-07
-8.29062e-07
1.34058e-07
-3.70712e-07
1.34058e-07
-5.31723e-06
7.99826e-07
-5.31476e-06
4.40639e-07
-5.20568e-06
8.19632e-08
-4.98068e-06
-2.57534e-07
-4.70514e-06
-5.97687e-07
-4.30678e-06
-9.72807e-07
-3.74475e-06
-1.35701e-06
-2.99389e-06
-1.71217e-06
-2.05925e-06
-1.94201e-06
-1.04052e-06
-1.84779e-06
-2.23933e-07
-1.1873e-06
-8.98748e-08
-4.60269e-06
8.33236e-07
-4.63655e-06
4.74506e-07
-4.64497e-06
9.03777e-08
-4.56431e-06
-3.38189e-07
-4.38033e-06
-7.81668e-07
-4.11565e-06
-1.23749e-06
-3.76336e-06
-1.7093e-06
-3.2862e-06
-2.18933e-06
-2.60731e-06
-2.6209e-06
-1.65922e-06
-2.79588e-06
-5.80602e-07
-2.26592e-06
-6.70477e-07
-4.08474e-06
9.73158e-07
-4.18826e-06
5.78026e-07
-4.20971e-06
1.11833e-07
-4.14658e-06
-4.01324e-07
-3.98099e-06
-9.47252e-07
-3.72761e-06
-1.49087e-06
-3.41871e-06
-2.01819e-06
-3.07112e-06
-2.53693e-06
-2.63462e-06
-3.0574e-06
-1.95093e-06
-3.47957e-06
-9.03113e-07
-3.31374e-06
-1.57359e-06
-3.68369e-06
1.25687e-06
-3.91307e-06
8.07413e-07
-4.03623e-06
2.34992e-07
-4.00661e-06
-4.30946e-07
-3.82628e-06
-1.12758e-06
-3.51672e-06
-1.80044e-06
-3.12751e-06
-2.4074e-06
-2.72387e-06
-2.94057e-06
-2.3443e-06
-3.43696e-06
-1.8909e-06
-3.93297e-06
-1.06518e-06
-4.13946e-06
-2.63877e-06
-3.34392e-06
1.68679e-06
-3.69948e-06
1.16298e-06
-3.90855e-06
4.44062e-07
-3.92652e-06
-4.12976e-07
-3.74219e-06
-1.31191e-06
-3.38451e-06
-2.15811e-06
-2.91286e-06
-2.87906e-06
-2.40616e-06
-3.44727e-06
-1.95237e-06
-3.89075e-06
-1.57922e-06
-4.30612e-06
-1.02007e-06
-4.6986e-06
-3.65884e-06
-2.9148e-06
2.23912e-06
-3.37594e-06
1.62411e-06
-3.65503e-06
7.23153e-07
-3.7022e-06
-3.65807e-07
-3.5111e-06
-1.50301e-06
-3.12066e-06
-2.54856e-06
-2.60276e-06
-3.39696e-06
-2.0414e-06
-4.00863e-06
-1.52358e-06
-4.40857e-06
-1.14018e-06
-4.68952e-06
-8.01642e-07
-5.03714e-06
-4.46048e-06
-2.21293e-06
2.8496e-06
-2.72291e-06
2.13409e-06
-3.03256e-06
1.03281e-06
-3.0969e-06
-3.01466e-07
-2.91356e-06
-1.68636e-06
-2.52619e-06
-2.93592e-06
-2.01763e-06
-3.90552e-06
-1.47808e-06
-4.54818e-06
-9.85548e-07
-4.9011e-06
-6.21223e-07
-5.05385e-06
-4.48887e-07
-5.20948e-06
-4.90937e-06
-1.09533e-06
3.42415e-06
-1.57921e-06
2.61797e-06
-1.87905e-06
1.33265e-06
-1.95357e-06
-2.26952e-07
-1.80318e-06
-1.83675e-06
-1.47005e-06
-3.26905e-06
-1.04226e-06
-4.33332e-06
-6.10543e-07
-4.97989e-06
-2.4736e-07
-5.26429e-06
-8.23965e-09
-5.29297e-06
1.22911e-08
-5.23001e-06
-4.89708e-06
4.52755e-07
3.85994e-06
7.0084e-08
3.00064e-06
-1.90581e-07
1.59331e-06
-2.70957e-07
-1.46576e-07
-1.66393e-07
-1.94131e-06
6.84829e-08
-3.50392e-06
3.50807e-07
-4.61564e-06
5.96706e-07
-5.22579e-06
7.40826e-07
-5.40841e-06
7.3334e-07
-5.28548e-06
5.29433e-07
-5.0261e-06
-4.36765e-06
2.29477e-06
4.08477e-06
2.09054e-06
3.20487e-06
1.93825e-06
1.74561e-06
1.87763e-06
-8.59628e-08
1.91312e-06
-1.97679e-06
2.00083e-06
-3.59164e-06
2.0843e-06
-4.69911e-06
2.10536e-06
-5.24684e-06
2.00317e-06
-5.30622e-06
1.6954e-06
-4.97771e-06
1.13095e-06
-4.46165e-06
-3.2367e-06
4.25598e-06
4.05788e-06
4.25532e-06
3.20553e-06
4.23679e-06
1.76414e-06
4.21193e-06
-6.11069e-08
4.1766e-06
-1.94146e-06
4.1028e-06
-3.51783e-06
3.97255e-06
-4.56886e-06
3.77883e-06
-5.05312e-06
3.5031e-06
-5.03049e-06
3.05193e-06
-4.52654e-06
2.07379e-06
-3.48351e-06
-1.16291e-06
4.80049e-07
-4.80049e-07
1.06108e-06
-5.81028e-07
1.44631e-06
-3.85234e-07
1.58767e-06
-1.41356e-07
1.50848e-06
7.91828e-08
1.24558e-06
2.629e-07
8.18837e-07
4.26747e-07
2.02517e-07
6.1632e-07
-6.31421e-07
8.33938e-07
-1.60193e-06
9.70511e-07
-2.57902e-06
9.77085e-07
8.6815e-07
-3.44717e-06
4.80434e-07
-9.60483e-07
8.02985e-07
-9.03578e-07
8.12607e-07
-3.94856e-07
5.27496e-07
1.43755e-07
-1.76481e-08
6.24326e-07
-7.9837e-07
1.04362e-06
-1.77214e-06
1.40052e-06
-2.8031e-06
1.64728e-06
-3.71725e-06
1.74808e-06
-4.42662e-06
1.67988e-06
-4.91329e-06
1.46375e-06
1.15276e-06
-5.1979e-06
1.52724e-07
-1.11321e-06
-8.25853e-08
-6.68269e-07
-5.74522e-07
9.70809e-08
-1.21205e-06
7.81287e-07
-1.97846e-06
1.39074e-06
-2.78812e-06
1.85328e-06
-3.51223e-06
2.12462e-06
-4.05194e-06
2.187e-06
-4.36975e-06
2.0659e-06
-4.50768e-06
1.81781e-06
-4.5496e-06
1.50567e-06
1.17354e-06
-4.57038e-06
-3.21272e-07
-7.91935e-07
-9.25339e-07
-6.42022e-08
-1.58083e-06
7.52574e-07
-2.2793e-06
1.47975e-06
-2.9072e-06
2.01863e-06
-3.37552e-06
2.32161e-06
-3.64161e-06
2.39071e-06
-3.73517e-06
2.28056e-06
-3.74037e-06
2.07109e-06
-3.75017e-06
1.82761e-06
-3.81959e-06
1.57509e-06
1.29997e-06
-3.94601e-06
-5.48702e-07
-2.43233e-07
-1.22596e-06
6.13058e-07
-1.87687e-06
1.40348e-06
-2.40548e-06
2.00836e-06
-2.74399e-06
2.35715e-06
-2.87763e-06
2.45525e-06
-2.86431e-06
2.37738e-06
-2.80787e-06
2.22412e-06
-2.80691e-06
2.07014e-06
-2.91369e-06
1.93438e-06
-3.12533e-06
1.78673e-06
1.57609e-06
-3.40145e-06
-4.94199e-07
2.50966e-07
-1.07e-06
1.18885e-06
-1.55224e-06
1.88573e-06
-1.8552e-06
2.31132e-06
-1.95692e-06
2.45886e-06
-1.91148e-06
2.40981e-06
-1.82395e-06
2.28985e-06
-1.79837e-06
2.19854e-06
-1.89757e-06
2.16934e-06
-2.13541e-06
2.17222e-06
-2.49008e-06
2.1414e-06
2.00178e-06
-2.91578e-06
-2.32317e-07
4.83283e-07
-6.09414e-07
1.56595e-06
-8.86785e-07
2.1631e-06
-1.00108e-06
2.42562e-06
-9.67618e-07
2.4254e-06
-8.68324e-07
2.31051e-06
-8.02818e-07
2.22435e-06
-8.44163e-07
2.23988e-06
-1.02729e-06
2.35247e-06
-1.35773e-06
2.50266e-06
-1.81847e-06
2.60215e-06
2.54766e-06
-2.36435e-06
1.04853e-07
3.7843e-07
-2.41988e-08
1.695e-06
-1.11578e-07
2.25048e-06
-8.75189e-08
2.40156e-06
1.27352e-08
2.32515e-06
1.13101e-07
2.21015e-06
1.48072e-07
2.18938e-06
7.38058e-08
2.31415e-06
-1.36769e-07
2.56304e-06
-4.97608e-07
2.8635e-06
-1.00186e-06
3.1064e-06
3.14984e-06
-1.60404e-06
3.88075e-07
-9.64529e-09
5.53198e-07
1.52988e-06
6.472e-07
2.15648e-06
7.84901e-07
2.26385e-06
9.26697e-07
2.18335e-06
1.02636e-06
2.11049e-06
1.05772e-06
2.15801e-06
9.97018e-07
2.37485e-06
8.17401e-07
2.74266e-06
4.97698e-07
3.1832e-06
3.79946e-08
3.5661e-06
3.70952e-06
-5.21691e-07
4.18857e-07
-4.28502e-07
9.47093e-07
1.00164e-06
1.31492e-06
1.78865e-06
1.59279e-06
1.98598e-06
1.78411e-06
1.99203e-06
1.89744e-06
1.99716e-06
1.95054e-06
2.1049e-06
1.93992e-06
2.38548e-06
1.84106e-06
2.84152e-06
1.62908e-06
3.39518e-06
1.30101e-06
3.89417e-06
4.12194e-06
8.88593e-07
2.21467e-07
-6.49969e-07
1.08753e-06
1.35585e-07
1.83551e-06
1.04067e-06
2.33897e-06
1.48252e-06
2.62166e-06
1.70934e-06
2.76166e-06
1.85717e-06
2.83729e-06
2.02927e-06
2.88619e-06
2.33658e-06
2.89945e-06
2.82827e-06
2.84848e-06
3.44615e-06
2.71779e-06
4.02486e-06
4.31929e-06
2.52044e-06
5.05331e-07
-1.1553e-06
1.06092e-06
-4.2e-07
1.96564e-06
1.35943e-07
2.79204e-06
6.56124e-07
3.32107e-06
1.18031e-06
3.60295e-06
1.57529e-06
3.74181e-06
1.89041e-06
3.8385e-06
2.23988e-06
3.94751e-06
2.71926e-06
4.06601e-06
3.32765e-06
4.1665e-06
3.92436e-06
4.23046e-06
4.25534e-06
-4.12617e-06
6.79006e-07
-4.56921e-06
4.43039e-07
-4.76016e-06
1.90946e-07
-4.7275e-06
-3.26598e-08
-4.40522e-06
-3.22282e-07
-3.83064e-06
-5.74574e-07
-3.03556e-06
-7.95085e-07
-2.07415e-06
-9.61409e-07
-1.06664e-06
-1.00751e-06
-2.37326e-07
-8.29313e-07
1.33775e-07
-3.71102e-07
1.33775e-07
-5.31868e-06
7.9979e-07
-5.3162e-06
4.40554e-07
-5.20706e-06
8.18089e-08
-4.982e-06
-2.57719e-07
-4.70635e-06
-5.97933e-07
-4.30786e-06
-9.73067e-07
-3.7457e-06
-1.35725e-06
-2.99472e-06
-1.71238e-06
-2.05997e-06
-1.94226e-06
-1.04108e-06
-1.8482e-06
-2.24214e-07
-1.18797e-06
-9.04383e-08
-4.60394e-06
8.3335e-07
-4.63788e-06
4.74495e-07
-4.6463e-06
9.02299e-08
-4.56553e-06
-3.38488e-07
-4.3814e-06
-7.82063e-07
-4.11654e-06
-1.23793e-06
-3.76405e-06
-1.70973e-06
-3.28673e-06
-2.1897e-06
-2.60776e-06
-2.62123e-06
-1.65964e-06
-2.79633e-06
-5.80904e-07
-2.26671e-06
-6.71343e-07
-4.08613e-06
9.73465e-07
-4.18976e-06
5.78123e-07
-4.21122e-06
1.1169e-07
-4.148e-06
-4.01709e-07
-3.98222e-06
-9.47841e-07
-3.72857e-06
-1.49158e-06
-3.41936e-06
-2.01894e-06
-3.07148e-06
-2.53759e-06
-2.63479e-06
-3.05791e-06
-1.9511e-06
-3.48002e-06
-9.03316e-07
-3.31449e-06
-1.57466e-06
-3.68545e-06
1.25746e-06
-3.91501e-06
8.0769e-07
-4.03821e-06
2.34887e-07
-4.00847e-06
-4.31452e-07
-3.82789e-06
-1.12842e-06
-3.51796e-06
-1.8015e-06
-3.12836e-06
-2.40854e-06
-2.72429e-06
-2.94165e-06
-2.34438e-06
-3.43782e-06
-1.89083e-06
-3.93357e-06
-1.06521e-06
-4.14011e-06
-2.63987e-06
-3.34606e-06
1.68774e-06
-3.70182e-06
1.16346e-06
-3.91093e-06
4.43993e-07
-3.92871e-06
-4.13668e-07
-3.74405e-06
-1.31308e-06
-3.38596e-06
-2.15959e-06
-2.91386e-06
-2.88065e-06
-2.40671e-06
-3.4488e-06
-1.9525e-06
-3.89203e-06
-1.57905e-06
-4.30702e-06
-1.01993e-06
-4.69923e-06
-3.6598e-06
-2.91704e-06
2.24043e-06
-3.37833e-06
1.62475e-06
-3.65733e-06
7.2299e-07
-3.70425e-06
-3.66743e-07
-3.51279e-06
-1.50455e-06
-3.12193e-06
-2.55045e-06
-2.60363e-06
-3.39895e-06
-2.04191e-06
-4.01052e-06
-1.52374e-06
-4.4102e-06
-1.14003e-06
-4.69073e-06
-8.0142e-07
-5.03785e-06
-4.46122e-06
-2.21475e-06
2.85114e-06
-2.72474e-06
2.13474e-06
-3.03419e-06
1.03244e-06
-3.09822e-06
-3.02714e-07
-2.9145e-06
-1.68826e-06
-2.52681e-06
-2.93814e-06
-2.01799e-06
-3.90777e-06
-1.47825e-06
-4.55026e-06
-9.85551e-07
-4.90289e-06
-6.2104e-07
-5.05524e-06
-4.48632e-07
-5.21025e-06
-4.90985e-06
-1.09624e-06
3.42569e-06
-1.57994e-06
2.61844e-06
-1.87945e-06
1.33195e-06
-1.95365e-06
-2.2851e-07
-1.80295e-06
-1.83896e-06
-1.46965e-06
-3.27144e-06
-1.04182e-06
-4.3356e-06
-6.10174e-07
-4.98191e-06
-2.47061e-07
-5.26601e-06
-7.93906e-09
-5.29436e-06
1.25692e-08
-5.23076e-06
-4.89728e-06
4.53071e-07
3.86121e-06
7.07199e-08
3.00079e-06
-1.89499e-07
1.59217e-06
-2.6963e-07
-1.48379e-07
-1.64903e-07
-1.94369e-06
6.99391e-08
-3.50629e-06
3.52035e-07
-4.61769e-06
5.97612e-07
-5.22749e-06
7.4143e-07
-5.40982e-06
7.3371e-07
-5.28664e-06
5.29695e-07
-5.02675e-06
-4.36759e-06
2.29608e-06
4.08557e-06
2.09237e-06
3.2045e-06
1.94037e-06
1.74417e-06
1.88004e-06
-8.80472e-08
1.91549e-06
-1.97914e-06
2.00296e-06
-3.59376e-06
2.08601e-06
-4.70074e-06
2.10658e-06
-5.24806e-06
2.00395e-06
-5.3072e-06
1.69584e-06
-4.97853e-06
1.13137e-06
-4.46228e-06
-3.23622e-06
4.25789e-06
4.05813e-06
4.25771e-06
3.20468e-06
4.23946e-06
1.76242e-06
4.21474e-06
-6.33267e-08
4.17926e-06
-1.94366e-06
4.10507e-06
-3.51957e-06
3.97431e-06
-4.56999e-06
3.78006e-06
-5.05381e-06
3.50388e-06
-5.03101e-06
3.05233e-06
-4.52699e-06
2.07395e-06
-3.48389e-06
-1.16227e-06
4.68788e-06
-8.57337e-07
4.46961e-06
-2.01734e-07
4.12292e-06
4.83044e-07
3.91784e-06
8.62238e-07
4.00733e-06
1.09093e-06
4.24717e-06
1.33398e-06
4.49088e-06
1.64454e-06
4.70564e-06
2.02318e-06
4.92947e-06
2.4937e-06
5.19701e-06
3.05836e-06
5.50464e-06
3.61508e-06
3.93889e-06
5.81992e-06
5.89606e-06
-9.40475e-07
5.93351e-06
-2.39186e-07
5.92516e-06
4.91402e-07
5.7167e-06
1.07069e-06
5.43737e-06
1.37026e-06
5.26309e-06
1.50827e-06
5.26936e-06
1.63826e-06
5.43726e-06
1.85528e-06
5.72957e-06
2.20138e-06
6.12495e-06
2.66298e-06
6.6033e-06
3.13673e-06
3.4175e-06
7.12468e-06
6.67653e-06
-9.19068e-07
6.71269e-06
-2.75352e-07
6.84599e-06
3.58106e-07
6.94862e-06
9.68059e-07
6.90645e-06
1.41243e-06
6.73611e-06
1.67861e-06
6.54684e-06
1.82753e-06
6.46063e-06
1.94149e-06
6.56383e-06
2.09818e-06
6.88479e-06
2.34203e-06
7.39427e-06
2.62725e-06
2.79127e-06
8.0205e-06
7.31664e-06
7.34626e-06
7.44567e-06
7.61362e-06
7.7745e-06
7.85861e-06
7.8454e-06
7.77253e-06
7.73228e-06
7.83371e-06
8.14657e-06
8.66167e-06
6.10247e-06
3.77533e-06
6.31576e-06
2.99224e-06
6.43799e-06
1.64191e-06
6.45444e-06
-7.75545e-08
6.35441e-06
-1.84144e-06
6.12355e-06
-3.28696e-06
5.79152e-06
-4.23684e-06
5.41128e-06
-4.67287e-06
5.01735e-06
-4.63656e-06
4.6365e-06
-4.1457e-06
4.39169e-06
-3.2387e-06
-1.75619e-06
4.98497e-06
7.62614e-06
3.27387e-06
8.03158e-06
2.5868e-06
8.28746e-06
1.38603e-06
8.34644e-06
-1.36537e-07
8.19111e-06
-1.68611e-06
7.83354e-06
-2.92939e-06
7.35336e-06
-3.75666e-06
6.84877e-06
-4.16828e-06
6.38198e-06
-4.16977e-06
5.99257e-06
-3.75628e-06
5.71815e-06
-2.96428e-06
-1.85083e-06
5.81279e-06
8.65782e-06
2.63655e-06
9.21003e-06
2.03459e-06
9.54868e-06
1.04738e-06
9.64138e-06
-2.2923e-07
9.491e-06
-1.53573e-06
9.10093e-06
-2.53932e-06
8.57623e-06
-3.23196e-06
8.0452e-06
-3.63726e-06
7.55512e-06
-3.67969e-06
7.12969e-06
-3.33084e-06
6.80657e-06
-2.64116e-06
-1.74271e-06
6.69845e-06
9.28883e-06
9.87046e-06
1.0231e-05
1.03693e-05
1.03164e-05
9.99168e-06
9.5226e-06
9.03985e-06
8.56196e-06
8.09415e-06
7.68464e-06
7.42464e-06
4.6889e-06
-8.59236e-07
4.47201e-06
-2.03108e-07
4.12529e-06
4.82666e-07
3.91975e-06
8.61663e-07
4.00944e-06
1.09062e-06
4.2491e-06
1.33562e-06
4.4918e-06
1.64771e-06
4.70572e-06
2.02597e-06
4.9294e-06
2.49558e-06
5.19731e-06
3.05974e-06
5.50553e-06
3.61614e-06
3.93944e-06
5.82143e-06
5.89573e-06
-9.42178e-07
5.93398e-06
-2.41355e-07
5.92732e-06
4.89322e-07
5.71967e-06
1.06932e-06
5.4399e-06
1.37039e-06
5.26475e-06
1.51078e-06
5.27012e-06
1.64233e-06
5.43746e-06
1.85863e-06
5.72963e-06
2.20341e-06
6.12523e-06
2.66414e-06
6.60405e-06
3.13732e-06
3.4175e-06
7.12599e-06
6.6763e-06
-9.20029e-07
6.71202e-06
-2.77081e-07
6.8472e-06
3.54147e-07
6.95252e-06
9.64002e-07
6.91106e-06
1.41184e-06
6.739e-06
1.68285e-06
6.54727e-06
1.83406e-06
6.45986e-06
1.94605e-06
6.56326e-06
2.1e-06
6.88481e-06
2.34259e-06
7.39486e-06
2.62728e-06
2.79083e-06
8.02153e-06
7.31677e-06
7.34519e-06
7.44669e-06
7.61947e-06
7.78376e-06
7.86615e-06
7.84805e-06
7.77186e-06
7.73107e-06
7.83314e-06
8.14672e-06
8.66232e-06
6.10452e-06
3.77504e-06
6.31818e-06
2.99102e-06
6.44059e-06
1.64001e-06
6.45701e-06
-7.9747e-08
6.35673e-06
-1.84338e-06
6.12543e-06
-3.28827e-06
5.79293e-06
-4.23749e-06
5.41225e-06
-4.67313e-06
5.01797e-06
-4.63673e-06
4.63683e-06
-4.14585e-06
4.39184e-06
-3.2389e-06
-1.75598e-06
7.62789e-06
3.27314e-06
8.03357e-06
2.58534e-06
8.28948e-06
1.38409e-06
8.34832e-06
-1.38592e-07
8.19265e-06
-1.6877e-06
7.83471e-06
-2.93033e-06
7.35422e-06
-3.757e-06
6.84942e-06
-4.16833e-06
6.38244e-06
-4.16975e-06
5.99283e-06
-3.75624e-06
5.71814e-06
-2.96421e-06
-1.85063e-06
8.65912e-06
2.63555e-06
9.21139e-06
2.03307e-06
9.54984e-06
1.04564e-06
9.64236e-06
-2.31108e-07
9.49172e-06
-1.53706e-06
9.10144e-06
-2.54005e-06
8.57674e-06
-3.23231e-06
8.04571e-06
-3.6373e-06
7.55555e-06
-3.67959e-06
7.12993e-06
-3.33062e-06
6.80659e-06
-2.64088e-06
-1.74237e-06
9.28971e-06
9.87126e-06
1.02315e-05
1.03698e-05
1.03168e-05
9.99215e-06
9.52311e-06
9.04052e-06
8.56252e-06
8.09447e-06
7.68473e-06
)
;

boundaryField
{
    rotor
    {
        type            calculated;
        value           nonuniform List<scalar> 
96
(
-6.30445e-23
-1.54472e-23
-2.43651e-23
-2.86508e-25
7.69439e-24
2.18945e-23
3.10688e-23
4.30177e-23
-1.57682e-23
-7.15086e-25
1.39952e-23
1.41358e-22
4.02496e-23
-1.9486e-23
-2.63945e-23
-5.91951e-23
3.09719e-23
1.55419e-23
6.72196e-25
-3.88324e-23
5.49416e-25
2.25815e-23
-4.14085e-23
4.63113e-23
1.36032e-23
3.34968e-24
-4.89869e-23
-6.78968e-24
3.42504e-24
6.32237e-24
9.96699e-24
4.71106e-23
5.07358e-23
1.99644e-23
2.54896e-23
-4.39339e-25
-4.61585e-23
4.94069e-23
-1.2576e-22
-1.78705e-23
-1.62759e-22
-1.98544e-23
1.04386e-22
5.12121e-23
-3.4496e-23
6.13814e-23
6.18685e-23
-1.20038e-22
8.47033e-22
0
0
0
8.47033e-22
0
0
0
-8.47033e-22
0
-1.69407e-21
0
4.23516e-22
0
-8.47033e-22
0
-8.47033e-22
0
0
0
0
8.47033e-22
0
1.69407e-21
-4.23516e-22
-4.23516e-22
8.47033e-22
0
0
0
-8.47033e-22
0
0
8.47033e-22
-8.47033e-22
0
-4.23516e-22
4.23516e-22
0
0
8.47033e-22
0
0
8.47033e-22
-8.47033e-22
-8.47033e-22
0
0
)
;
    }
    stator
    {
        type            calculated;
        value           nonuniform 0();
    }
    AMI1
    {
        type            cyclicAMI;
        value           nonuniform List<scalar> 
48
(
-8.12049e-07
-3.0498e-07
2.58694e-07
8.00115e-07
1.25154e-06
1.5945e-06
1.84074e-06
2.01437e-06
2.13843e-06
2.2406e-06
2.31439e-06
2.27618e-06
2.00939e-06
1.45295e-06
6.86809e-07
-3.6746e-07
-1.48283e-06
-2.21464e-06
-2.76288e-06
-3.15451e-06
-3.2018e-06
-2.86303e-06
-2.23165e-06
-1.4827e-06
-8.12163e-07
-3.05498e-07
2.52649e-07
7.91215e-07
1.24756e-06
1.60045e-06
1.85216e-06
2.02223e-06
2.14079e-06
2.24052e-06
2.3137e-06
2.27523e-06
2.00816e-06
1.45152e-06
6.85393e-07
-3.69381e-07
-1.48406e-06
-2.21542e-06
-2.76327e-06
-3.1547e-06
-3.20158e-06
-2.86257e-06
-2.23113e-06
-1.48221e-06
)
;
    }
    AMI2
    {
        type            cyclicAMI;
        value           nonuniform 0();
    }
    front
    {
        type            empty;
        value           nonuniform 0();
    }
    back
    {
        type            empty;
        value           nonuniform 0();
    }
    procBoundary2to3
    {
        type            processor;
        value           nonuniform List<scalar> 8(-4.98648e-06 -5.81292e-06 -6.69793e-06 -7.42365e-06 4.98554e-06 5.81279e-06 6.69834e-06 7.42457e-06);
    }
}


// ************************************************************************* //
