/*--------------------------------*- C++ -*----------------------------------*\
| =========                 |                                                 |
| \\      /  F ield         | OpenFOAM: The Open Source CFD Toolbox           |
|  \\    /   O peration     | Version:  2.3.1                                 |
|   \\  /    A nd           | Web:      www.OpenFOAM.org                      |
|    \\/     M anipulation  |                                                 |
\*---------------------------------------------------------------------------*/
FoamFile
{
    version     2.0;
    format      ascii;
    class       volScalarField;
    location    "0.16";
    object      nut;
}
// * * * * * * * * * * * * * * * * * * * * * * * * * * * * * * * * * * * * * //

dimensions      [0 2 -1 0 0 0 0];

internalField   nonuniform List<scalar> 
15166
(
9.65725e-05
0.000151691
0.000251165
0.000359526
0.00045434
0.000563311
0.000675779
0.000798206
0.00091231
0.00102959
0.0011404
0.00123521
9.66109e-05
0.000164627
0.000270506
0.00037872
0.000476997
0.00058506
0.000696325
0.000814149
0.000925999
0.00103893
0.00114563
0.00124111
9.69986e-05
0.000175075
0.000285606
0.000394478
0.000495542
0.000603052
0.000713146
0.000827409
0.000937142
0.00104641
0.0011497
0.00124494
9.7496e-05
0.000184398
0.000298424
0.000408008
0.000511073
0.000618087
0.000727021
0.000838432
0.000946131
0.00105224
0.00115263
0.00124765
9.80276e-05
0.000192802
0.00030972
0.00041998
0.000524399
0.000630878
0.000738607
0.000847618
0.000953364
0.00105669
0.00115464
0.00124904
9.86003e-05
0.000200335
0.000319815
0.000430692
0.000536008
0.000641872
0.000748378
0.000855292
0.000959132
0.00105997
0.00115574
0.00124935
9.92082e-05
0.00020708
0.000328957
0.000440366
0.00054619
0.000651399
0.000756677
0.000861686
0.00096369
0.00106226
0.00115603
0.00124924
9.98488e-05
0.000213121
0.00033734
0.000449158
0.000555208
0.000659709
0.000763764
0.000867015
0.000967245
0.00106374
0.00115588
0.00124935
0.000100502
0.000218518
0.000345109
0.00045725
0.000563279
0.000667012
0.00076985
0.000871462
0.000969971
0.00106457
0.00115528
0.00124867
0.000101165
0.00022331
0.000352352
0.000464731
0.000570566
0.000673489
0.000775105
0.000875149
0.000972012
0.00106488
0.00115438
0.0012475
0.000101835
0.000227547
0.000359132
0.000471691
0.00057718
0.000679258
0.000779664
0.000878204
0.000973483
0.00106479
0.00115339
0.00124731
0.000102501
0.000231259
0.000365485
0.000478199
0.000583224
0.000684427
0.000783632
0.000880725
0.000974495
0.00106441
0.00115234
0.00124641
0.000103162
0.000234489
0.000371447
0.000484292
0.000588785
0.000689086
0.000787094
0.00088279
0.000975121
0.00106379
0.00115113
0.00124454
0.000103815
0.000237291
0.00037704
0.000490017
0.000593916
0.00069329
0.000790125
0.000884463
0.000975437
0.00106295
0.00114949
0.00124164
0.000104461
0.000239678
0.000382279
0.000495417
0.000598671
0.000697114
0.000792782
0.000885817
0.000975488
0.00106192
0.00114776
0.00123922
0.000105092
0.000241699
0.000387163
0.000500508
0.000603094
0.000700587
0.000795107
0.000886873
0.000975319
0.00106074
0.00114585
0.00123612
0.000105711
0.000243377
0.000391699
0.000505314
0.000607221
0.000703761
0.000797149
0.000887695
0.000974964
0.00105941
0.00114377
0.001233
0.000106312
0.000244753
0.000395907
0.000509862
0.000611091
0.000706678
0.000798951
0.000888291
0.000974436
0.00105795
0.00114149
0.00122939
0.000106895
0.000245861
0.000399778
0.000514156
0.00061471
0.000709346
0.000800518
0.000888714
0.000973771
0.00105638
0.0011391
0.0012259
0.000107463
0.000246716
0.000403332
0.000518208
0.000618119
0.000711803
0.000801899
0.00088897
0.000972986
0.00105471
0.00113663
0.00122241
0.000108016
0.000247357
0.00040656
0.000522028
0.000621316
0.000714067
0.000803098
0.000889077
0.000972081
0.00105294
0.00113398
0.00121844
0.00010855
0.000247794
0.000409472
0.000525632
0.000624334
0.00071615
0.000804138
0.000889054
0.000971084
0.00105108
0.0011312
0.00121436
0.000109057
0.000248063
0.000412084
0.000529008
0.000627169
0.000718076
0.000805042
0.000888925
0.000969997
0.00104912
0.00112834
0.00121102
0.000109557
0.000248176
0.000414395
0.000532171
0.000629841
0.000719861
0.000805823
0.000888699
0.000968829
0.00104708
0.00112537
0.00120714
0.00011003
0.000248146
0.000416412
0.000535136
0.00063236
0.000721514
0.000806488
0.000888373
0.000967583
0.00104497
0.00112239
0.00120387
0.000110487
0.000248006
0.000418145
0.000537895
0.000634733
0.000723039
0.000807045
0.000887968
0.000966269
0.00104279
0.00111938
0.00120014
0.000110927
0.000247754
0.000419604
0.00054044
0.000636965
0.000724453
0.000807513
0.000887486
0.000964892
0.00104058
0.00111641
0.00119715
0.000111345
0.000247425
0.000420812
0.000542786
0.000639052
0.000725756
0.000807897
0.000886934
0.000963461
0.00103833
0.00111353
0.00119441
0.000111743
0.000247012
0.000421759
0.000544944
0.00064101
0.00072696
0.000808191
0.000886325
0.000961986
0.00103607
0.00111065
0.00119088
0.000112121
0.000246516
0.000422476
0.000546898
0.000642841
0.000728066
0.000808416
0.000885651
0.00096047
0.00103378
0.00110779
0.00118786
0.000112475
0.000245983
0.000422951
0.000548658
0.000644539
0.000729086
0.00080857
0.000884933
0.000958921
0.0010315
0.0011049
0.00118428
0.000112819
0.000245389
0.000423222
0.000550219
0.000646116
0.000730016
0.000808665
0.000884159
0.000957341
0.0010292
0.00110204
0.00118121
0.000113151
0.000244754
0.000423278
0.000551604
0.000647574
0.000730868
0.000808692
0.00088335
0.000955736
0.00102689
0.00109914
0.00117746
0.000113451
0.000244094
0.000423155
0.000552796
0.000648905
0.000731637
0.000808669
0.000882501
0.000954109
0.00102457
0.00109625
0.00117423
0.000113738
0.000243407
0.000422843
0.000553817
0.000650121
0.000732325
0.000808591
0.000881616
0.000952456
0.00102224
0.00109334
0.00117046
0.000114018
0.000242702
0.000422375
0.000554642
0.000651213
0.000732944
0.000808467
0.000880697
0.000950785
0.00101991
0.00109046
0.00116748
0.000114264
0.000241976
0.00042174
0.000555304
0.00065219
0.000733485
0.000808287
0.00087974
0.000949097
0.00101758
0.00108765
0.00116481
0.000114504
0.000241242
0.00042096
0.000555786
0.000653047
0.000733958
0.000808067
0.000878761
0.000947397
0.00101526
0.00108485
0.00116141
0.000114723
0.000240501
0.000420049
0.000556103
0.000653791
0.000734351
0.000807802
0.000877758
0.000945692
0.00101294
0.00108205
0.00115809
0.000114921
0.000239758
0.000419017
0.000556262
0.000654426
0.000734687
0.000807495
0.000876726
0.000943972
0.00101063
0.00107926
0.00115464
0.000115112
0.000238997
0.00041787
0.000556257
0.000654942
0.000734945
0.000807146
0.000875677
0.000942245
0.00100831
0.00107635
0.00115058
0.000115276
0.000238168
0.000416599
0.000556101
0.000655342
0.00073514
0.000806758
0.000874602
0.00094051
0.00100597
0.00107342
0.0011475
0.000115433
0.000237317
0.00041524
0.000555799
0.000655634
0.000735264
0.000806331
0.000873514
0.000938768
0.00100363
0.0010705
0.00114396
0.000115563
0.000236408
0.000413759
0.000555345
0.000655812
0.000735319
0.000805865
0.0008724
0.000937011
0.00100127
0.00106759
0.00114098
0.000115676
0.0002355
0.000412122
0.00055475
0.000655882
0.000735304
0.000805362
0.000871269
0.000935248
0.000998917
0.00106469
0.00113737
0.000115779
0.000234632
0.000410356
0.00055401
0.000655837
0.000735226
0.000804828
0.00087012
0.000933477
0.000996557
0.00106182
0.00113459
0.000115867
0.000233718
0.000408502
0.000553071
0.000655674
0.000735079
0.000804251
0.000868954
0.000931695
0.000994202
0.00105897
0.00113109
0.000115931
0.000232839
0.000406566
0.000551995
0.000655374
0.000734854
0.000803644
0.000867771
0.000929909
0.000991849
0.00105615
0.00112829
0.000115985
0.000231966
0.000404595
0.00055076
0.000654947
0.000734561
0.00080299
0.00086656
0.000928114
0.000989499
0.00105335
0.00112495
0.000116027
0.000231101
0.00040252
0.000549386
0.000654406
0.000734181
0.000802295
0.000865337
0.000926305
0.000987147
0.00105056
0.00112218
0.000116056
0.00023028
0.000400393
0.00054788
0.000653749
0.000733738
0.000801559
0.000864093
0.000924496
0.000984797
0.00104774
0.00111851
0.000116069
0.000229426
0.000398218
0.000546227
0.000652964
0.000733205
0.000800781
0.000862824
0.000922676
0.000982455
0.00104494
0.00111505
0.000116068
0.000228628
0.000396005
0.000544474
0.000652064
0.000732599
0.000799959
0.000861543
0.000920854
0.000980119
0.00104216
0.00111252
0.000116058
0.000227834
0.000393758
0.000542584
0.000651036
0.000731918
0.000799101
0.000860242
0.000919026
0.000977784
0.00103942
0.00110966
0.000116028
0.000227054
0.000391484
0.000540583
0.000649894
0.00073115
0.000798196
0.000858921
0.000917194
0.000975461
0.00103673
0.00110687
0.000115982
0.000226283
0.000389186
0.000538479
0.000648637
0.000730296
0.000797244
0.000857579
0.000915359
0.000973145
0.00103404
0.00110348
0.000115931
0.000225566
0.000386877
0.000536277
0.000647254
0.000729364
0.000796251
0.000856216
0.000913516
0.000970848
0.00103137
0.0011005
0.000115864
0.00022482
0.000384553
0.00053396
0.000645761
0.000728351
0.0007952
0.000854831
0.000911679
0.000968555
0.00102866
0.00109676
0.00011578
0.000224127
0.000382221
0.000531557
0.000644143
0.000727237
0.000794112
0.000853432
0.000909837
0.000966268
0.00102598
0.00109454
0.000115694
0.000223449
0.000379919
0.000529096
0.000642432
0.00072605
0.000792962
0.000852
0.000907982
0.000963976
0.0010233
0.00109161
0.000115589
0.000222807
0.00037758
0.000526534
0.000640599
0.000724768
0.000791764
0.000850549
0.000906128
0.000961693
0.00102065
0.00108844
0.000115468
0.000222144
0.000375244
0.000523897
0.000638646
0.000723392
0.000790508
0.000849065
0.000904262
0.000959424
0.00101799
0.00108494
0.000115337
0.000221532
0.000372918
0.000521196
0.000636607
0.000721931
0.000789194
0.000847561
0.000902392
0.000957151
0.00101534
0.0010819
0.000115199
0.000220933
0.000370634
0.000518413
0.000634451
0.000720374
0.000787828
0.000846028
0.00090052
0.000954889
0.00101266
0.00107841
0.000115045
0.000220377
0.000368331
0.000515598
0.000632198
0.000718731
0.000786399
0.000844466
0.000898636
0.000952629
0.00100999
0.00107543
0.000114887
0.000219829
0.000366071
0.00051273
0.000629836
0.000717
0.000784908
0.000842879
0.000896749
0.000950362
0.00100731
0.00107209
0.000114692
0.000219275
0.000363823
0.000509793
0.000627392
0.00071517
0.000783361
0.000841256
0.000894842
0.000948097
0.00100464
0.00106929
0.000114529
0.000218773
0.00036161
0.000506832
0.000624853
0.000713253
0.000781752
0.000839599
0.00089293
0.000945828
0.00100196
0.00106592
0.000114319
0.000218291
0.000359409
0.000503835
0.000622212
0.000711239
0.000780072
0.000837907
0.000890996
0.000943559
0.000999284
0.00106284
0.000114088
0.000217827
0.000357236
0.000500797
0.000619503
0.000709145
0.000778325
0.000836179
0.000889055
0.000941283
0.000996592
0.00105939
0.000113872
0.000217358
0.000355102
0.000497715
0.000616694
0.000706956
0.000776517
0.000834408
0.000887093
0.000938999
0.000993904
0.00105633
0.000113636
0.00021698
0.00035298
0.000494621
0.000613814
0.000704666
0.000774638
0.000832598
0.000885112
0.000936703
0.00099119
0.00105277
0.000113393
0.000216543
0.000350934
0.000491544
0.000610867
0.000702297
0.000772682
0.000830746
0.000883114
0.000934403
0.00098846
0.00104928
0.000113132
0.000216188
0.000348843
0.000488386
0.000607808
0.000699822
0.000770646
0.000828845
0.000881086
0.000932092
0.000985733
0.00104613
0.000112863
0.000215851
0.000346857
0.000485256
0.000604722
0.000697272
0.000768554
0.0008269
0.000879043
0.000929774
0.000983013
0.00104279
0.000112555
0.000215472
0.000344881
0.0004821
0.000601546
0.000694642
0.000766381
0.000824916
0.000876976
0.000927443
0.000980297
0.00103991
0.000112265
0.000215157
0.00034296
0.000478953
0.000598301
0.00069191
0.000764132
0.000822868
0.000874873
0.000925101
0.000977563
0.00103653
0.000111982
0.000214913
0.000341089
0.000475795
0.000595008
0.000689091
0.000761806
0.000820778
0.000872749
0.000922742
0.000974824
0.00103348
0.000111657
0.000214625
0.000339239
0.000472648
0.000591653
0.000686198
0.000759405
0.000818633
0.000870586
0.000920368
0.000972064
0.00103002
0.000111305
0.000214376
0.000337444
0.000469497
0.000588258
0.000683218
0.000756925
0.000816434
0.000868397
0.00091797
0.000969318
0.00102716
0.000110973
0.000214159
0.000335664
0.000466367
0.0005848
0.000680152
0.000754365
0.000814168
0.000866171
0.000915551
0.000966551
0.00102389
0.000110618
0.000213952
0.000333968
0.000463231
0.000581285
0.000676993
0.000751732
0.000811845
0.000863901
0.000913112
0.000963757
0.00102027
0.000110251
0.000213776
0.000332324
0.000460131
0.000577746
0.00067378
0.000749008
0.00080946
0.000861592
0.000910658
0.000960955
0.0010169
0.000109874
0.00021362
0.000330708
0.00045706
0.000574162
0.000670481
0.000746202
0.000807005
0.000859243
0.000908175
0.000958171
0.00101406
0.000109484
0.000213481
0.000329145
0.000454014
0.00057053
0.000667108
0.000743324
0.000804486
0.00085685
0.000905671
0.000955361
0.00101077
0.000109056
0.000213348
0.000327623
0.000450949
0.000566899
0.000663668
0.000740352
0.000801914
0.000854407
0.000903131
0.00095255
0.00100782
0.000108645
0.000213247
0.000326149
0.000447937
0.000563227
0.000660135
0.000737308
0.000799254
0.000851923
0.000900569
0.000949714
0.00100431
0.000108218
0.000213172
0.000324735
0.000444982
0.000559502
0.000656545
0.000734164
0.000796526
0.000849392
0.000897983
0.000946891
0.00100138
0.000107777
0.000213123
0.000323375
0.000442051
0.000555793
0.000652877
0.000730936
0.000793723
0.0008468
0.000895367
0.000944072
0.000998519
0.000107324
0.000213096
0.000322032
0.000439132
0.000552044
0.000649138
0.000727632
0.000790842
0.000844141
0.0008927
0.000941248
0.000995978
0.000106858
0.000213092
0.000320787
0.000436292
0.000548307
0.000645367
0.000724244
0.000787893
0.000841438
0.000890014
0.000938395
0.000992281
0.00010638
0.000213117
0.000319598
0.000433464
0.000544537
0.000641507
0.000720782
0.000784867
0.000838676
0.000887299
0.000935548
0.000989269
0.000105862
0.000213107
0.000318425
0.000430689
0.000540771
0.0006376
0.000717235
0.000781751
0.000835849
0.000884546
0.000932641
0.000985692
0.000105383
0.000213197
0.000317321
0.000427972
0.000537004
0.000633613
0.000713597
0.000778554
0.000832958
0.000881744
0.000929709
0.000982367
0.000104836
0.000213246
0.000316281
0.000425311
0.000533223
0.000629616
0.00070987
0.000775266
0.000830007
0.000878896
0.000926713
0.000978682
0.000104304
0.000213338
0.000315308
0.000422716
0.000529489
0.000625541
0.000706067
0.000771902
0.000826979
0.000875993
0.000923702
0.000975551
0.000103757
0.000213422
0.000314364
0.000420152
0.000525743
0.000621431
0.000702181
0.000768443
0.000823871
0.000873029
0.000920617
0.000971864
0.000103194
0.000213587
0.000313493
0.000417663
0.000522019
0.000617261
0.000698204
0.000764907
0.000820691
0.000870022
0.000917528
0.000968627
0.00010259
0.000213674
0.000312689
0.000415245
0.0005183
0.000613082
0.000694158
0.000761273
0.00081744
0.000866947
0.000914364
0.000964961
0.000101997
0.000213859
0.000311919
0.000412868
0.000514614
0.000608829
0.000690035
0.000757532
0.000814092
0.000863809
0.000911209
0.000961991
0.00010139
0.000214037
0.000311227
0.000410578
0.000510971
0.000604581
0.000685823
0.000753706
0.000810661
0.000860591
0.000907997
0.000958522
0.000100766
0.000214256
0.000310612
0.00040834
0.000507345
0.000600289
0.000681546
0.000749798
0.000807145
0.000857326
0.000904719
0.000954739
0.000100126
0.00021451
0.000310031
0.000406193
0.000503772
0.000595985
0.000677186
0.000745781
0.000803537
0.000853985
0.000901417
0.000951422
9.94704e-05
0.000214756
0.000309533
0.000404139
0.000500227
0.000591647
0.000672765
0.000741674
0.000799827
0.000850561
0.000898086
0.000948288
9.87706e-05
0.000214986
0.000309076
0.000402148
0.000496746
0.000587288
0.00066828
0.000737459
0.000796024
0.000847066
0.000894703
0.000944639
9.80794e-05
0.000215274
0.000308703
0.000400223
0.000493303
0.00058294
0.000663719
0.000733159
0.000792127
0.000843485
0.00089127
0.000941206
9.73432e-05
0.000215544
0.000308372
0.000398409
0.000489944
0.000578605
0.000659087
0.000728749
0.000788116
0.000839816
0.000887726
0.000937281
9.66136e-05
0.000215877
0.000308136
0.000396707
0.000486642
0.000574263
0.000654409
0.000724235
0.000783994
0.000836048
0.000884093
0.000933232
9.58969e-05
0.000216282
0.000307951
0.000395052
0.00048343
0.000569925
0.000649667
0.000719639
0.000779773
0.000832181
0.000880408
0.000929539
9.51077e-05
0.000216607
0.000307823
0.000393554
0.000480288
0.000565623
0.000644876
0.000714955
0.000775433
0.00082821
0.00087659
0.000925437
9.43191e-05
0.000216999
0.00030779
0.000392107
0.000477223
0.000561341
0.000640056
0.000710148
0.000770973
0.000824128
0.000872735
0.00092183
9.35137e-05
0.000217443
0.000307811
0.000390791
0.000474277
0.000557113
0.000635193
0.000705267
0.000766409
0.000819934
0.000868786
0.000917728
9.26599e-05
0.000217827
0.000307927
0.000389578
0.000471417
0.000552897
0.000630314
0.000700292
0.000761725
0.000815652
0.000864773
0.00091354
9.18075e-05
0.000218288
0.000308111
0.000388501
0.000468661
0.000548754
0.00062538
0.000695237
0.00075691
0.000811215
0.000860594
0.000909673
9.0936e-05
0.000218802
0.000308317
0.000387497
0.000466015
0.00054467
0.00062045
0.000690065
0.000751955
0.000806627
0.00085628
0.000905241
9.0042e-05
0.000219282
0.000308679
0.00038665
0.000463527
0.000540686
0.000615513
0.000684836
0.000746897
0.000801928
0.000851894
0.000901161
8.91225e-05
0.000219832
0.000309072
0.00038593
0.000461165
0.000536763
0.000610604
0.000679536
0.000741708
0.000797063
0.000847333
0.000896499
8.81496e-05
0.000220328
0.000309583
0.000385369
0.000458951
0.000532969
0.000605687
0.000674165
0.000736383
0.000792085
0.000842706
0.00089218
8.71445e-05
0.000220884
0.000310126
0.000384906
0.00045689
0.000529288
0.000600835
0.000668764
0.000730963
0.000786951
0.000837926
0.000887404
8.61686e-05
0.000221542
0.000310802
0.00038462
0.000455
0.000525735
0.000596003
0.000663294
0.000725442
0.000781696
0.000833015
0.000882501
8.51476e-05
0.000222163
0.000311563
0.000384461
0.000453316
0.000522335
0.000591262
0.000657793
0.000719774
0.000776243
0.000827834
0.000877553
8.4062e-05
0.000222791
0.000312415
0.000384492
0.000451795
0.000519103
0.000586609
0.000652295
0.000714001
0.00077063
0.000822514
0.000872239
8.29387e-05
0.000223438
0.000313361
0.000384687
0.000450488
0.000516064
0.000582064
0.000646779
0.000708141
0.000764881
0.000817086
0.000867301
8.18383e-05
0.000224203
0.000314407
0.000385039
0.000449434
0.000513235
0.000577637
0.000641306
0.00070219
0.00075894
0.000811396
0.000861483
8.06607e-05
0.000224914
0.000315564
0.00038561
0.000448598
0.000510648
0.0005734
0.000635859
0.00069617
0.000752863
0.000805511
0.000855739
7.94332e-05
0.000225654
0.000316834
0.000386388
0.000448055
0.000508333
0.000569363
0.000630515
0.000690102
0.000746624
0.000799388
0.00084947
7.82213e-05
0.000226512
0.000318222
0.000387354
0.000447776
0.000506314
0.000565537
0.000625261
0.000684014
0.000740252
0.000793068
0.000843129
7.69263e-05
0.000227321
0.000319744
0.000388584
0.000447818
0.000504633
0.00056201
0.000620164
0.000677921
0.000733731
0.00078652
0.000836422
7.55993e-05
0.000228179
0.000321397
0.000390041
0.000448211
0.000503319
0.000558773
0.000615252
0.000671839
0.000727073
0.000779767
0.000830011
7.42023e-05
0.000229039
0.000323175
0.00039181
0.000448982
0.000502407
0.000555914
0.000610556
0.000665774
0.000720271
0.000772717
0.000822756
7.27694e-05
0.000229938
0.000325155
0.000393868
0.000450183
0.000501969
0.00055343
0.00060611
0.000659784
0.000713356
0.000765448
0.00081556
7.12522e-05
0.000230784
0.000327292
0.000396276
0.000451813
0.000501979
0.000551344
0.000601924
0.000653886
0.000706309
0.00075787
0.000807601
6.96769e-05
0.000231678
0.000329618
0.000399011
0.000453878
0.000502445
0.000549673
0.000598001
0.000648021
0.000699097
0.000749922
0.000799481
6.80179e-05
0.000232491
0.000332096
0.000402116
0.000456331
0.000503324
0.000548414
0.000594457
0.000642367
0.000691825
0.000741689
0.000791113
6.5985e-05
0.000231591
0.000332702
0.00040423
0.000457799
0.000503557
0.000546726
0.000590772
0.000636547
0.000684674
0.000733386
0.00078235
0.000419644
0.00152088
0.00154436
0.00180113
0.00180387
0.000551865
0.000541613
0.000452276
0.00127466
0.00196762
0.00371051
0.0019557
0.00401127
0.00136071
0.000471802
0.0013247
0.00142884
0.00489067
0.00487361
0.00131199
0.000582504
0.000430639
0.00683136
0.00342106
0.000419181
0.00154764
0.000473646
0.000672577
0.0018467
0.00113048
0.00168257
0.000326834
0.00144317
0.00367552
0.00390598
0.000806295
0.000160852
0.00146538
0.00045524
0.00200692
0.00158974
0.0012854
0.00346595
0.000932674
0.000293377
0.000429975
0.00543778
0.00351538
0.000296588
0.000585173
0.000806802
0.000454519
0.000358637
0.00124157
0.00157098
0.00148197
0.00225981
0.00128489
0.0014663
0.000468814
0.000503513
0.000327525
0.0012414
0.00273024
0.00361582
0.00149701
0.000839128
0.000339779
0.000638677
0.00218481
0.00164213
0.00502408
0.000452883
0.000994003
0.00344975
0.00127271
0.00128664
0.00123992
0.00528619
0.000451676
0.00435553
0.00124105
0.000205181
0.000400074
0.00271146
0.00151354
0.000840991
0.00124128
0.00255359
0.000215092
0.000545248
0.00136651
0.00124134
0.0013894
0.000360695
0.00127229
0.00067007
0.00164738
0.00124188
0.000855905
0.000679058
0.00264344
0.0012837
0.00146308
0.00123963
0.000358339
0.000333678
0.000418364
0.00120698
0.000174748
0.00135784
0.00124051
0.000408802
0.00135708
0.00124074
0.000471895
0.00303369
0.00225566
0.00146052
0.00418966
0.000694076
0.00360649
0.00139387
0.00298268
0.00444713
0.00273369
0.00140236
0.000253651
0.00373166
0.00124132
3.94635e-05
0.00124223
5.69958e-05
0.00146426
0.000471247
0.00159717
0.000187781
0.00232581
0.000409813
0.00169898
0.00284535
0.000597835
0.000469444
0.000331564
9.59213e-05
0.00155244
0.000468136
0.00150009
0.00131436
0.000575316
0.000410785
0.000464946
0.00124375
0.00422686
0.00301978
0.00124386
0.000417638
0.00127026
0.00156721
0.0018772
0.00352365
0.00133031
0.00447156
0.00252281
0.000605875
0.00294163
0.000270584
0.000271154
0.000544794
0.0012402
0.00148112
0.000995303
0.00156697
0.00292179
0.00124176
0.00150137
0.00123952
0.000426897
0.00190992
0.00123382
0.000270385
0.00512196
0.00419523
0.000468465
0.0012943
0.00043155
0.0012564
0.00124032
0.000100482
0.00124083
0.00222749
0.00124674
0.000386272
0.00153949
0.000426406
0.000533304
0.000570308
0.000471467
0.00124056
0.00212972
0.00137208
0.000466385
0.000293119
0.000424501
0.000467329
0.00653661
0.00416416
0.00310389
0.00102512
0.00271925
5.45363e-05
0.00128732
0.000457895
0.000423957
0.00123988
0.000464954
0.0024346
0.00135304
0.00214553
0.00020768
0.00040281
0.00137035
0.000433138
0.00124822
0.00124982
0.00268931
0.00150998
0.00126463
0.00102569
0.00382341
5.22873e-05
0.00446079
0.00124259
0.000820026
0.0013894
0.000470189
0.000431395
0.00139247
0.000998218
0.000439085
0.00418196
0.0053359
0.00421826
0.00259833
6.47358e-05
5.49102e-05
5.74801e-05
0.00131192
0.00380324
0.000467382
0.00212154
0.000995827
0.00224104
0.000338231
0.000253151
0.00278929
0.000879933
0.000434413
0.00197785
0.000438735
0.00271771
0.000472176
0.0028049
0.00415919
7.19908e-05
0.000471269
0.00121417
0.000462656
0.0013541
0.00117009
0.000587994
0.00495223
0.00130767
4.52913e-05
4.6084e-05
0.00131316
0.00019442
5.78347e-05
0.000299089
0.000150831
0.00037049
0.000191247
0.00046814
0.000465026
0.0012298
0.000568659
0.00151409
4.76643e-05
0.00122653
0.000631269
0.000150164
0.00138565
4.65268e-05
4.62211e-05
0.000455926
0.00038809
0.00153532
4.52908e-05
0.00545916
0.000389402
0.000413426
0.000929838
0.000463714
0.00169882
0.00319522
0.00142012
0.000302558
0.0012409
0.00460628
0.00450263
0.00546935
0.000197729
0.00124551
0.00120999
0.000465628
0.0039354
4.93058e-05
0.00111238
0.00123993
8.20795e-05
0.00431323
0.00198636
0.0013853
0.000229868
0.000452941
0.00111156
0.00130253
0.00124153
0.00125761
0.000196287
0.00120956
0.00125065
0.00208232
0.00124277
0.00125674
0.00126446
0.00123961
0.00711318
0.00124167
0.00170752
0.000686703
0.000460901
0.0012421
0.000498725
0.00218114
4.60738e-05
5.34244e-05
0.00156092
0.00134621
0.00126238
0.00124051
0.00126723
0.00596694
0.00184417
4.14841e-05
0.00124167
0.0048631
0.000383374
0.00124929
0.00227034
0.00011348
0.000285736
0.00123739
0.0014277
0.000660845
0.00183644
0.00134998
0.00124121
0.00138614
0.00108649
0.00486117
0.000106257
0.000452648
0.000133598
0.00139762
0.000515585
0.000450785
0.00130803
0.00125123
0.00167791
0.000919807
0.00162181
0.00126169
0.00045851
0.000337309
0.000577263
0.00124772
0.0039471
0.000454878
0.00356784
0.00126186
0.00108156
0.00182697
0.000411156
0.000456169
0.00136658
0.00136104
0.00124405
0.0029475
0.0013031
0.00179818
0.00230153
0.000812198
0.0021055
0.00382878
0.000165485
0.00130554
0.00136562
7.01313e-05
0.000418534
0.00124099
0.00125091
0.00124163
0.00120673
0.0057225
0.000440392
0.000125785
0.000471212
0.000508483
0.00125718
0.000173168
0.000463998
0.00124063
0.0012466
0.000445047
0.00124892
0.00269707
0.00127345
0.000456587
0.00124094
0.00191593
0.00426336
0.00493097
0.000442196
0.00452599
0.00123981
0.0011852
0.00107097
0.00107263
0.00243173
0.000305734
4.06223e-05
0.00187595
0.00044354
0.00183462
0.000898319
0.00132006
0.000417835
0.0012192
0.00124009
0.00189624
0.000442514
5.39959e-05
0.00215426
0.00189571
0.000600369
0.00161124
4.79256e-05
0.000428175
0.00431252
0.000507994
0.00325664
0.00462347
0.00234763
0.00124282
0.00119011
0.00150974
0.000561318
0.000474396
5.87193e-05
0.00359067
0.000289344
9.49323e-05
0.00124256
0.00171248
0.001239
0.000416585
0.00124056
0.000347123
0.000801491
0.000265625
0.000210398
0.00046889
0.00240817
0.0044217
0.00010398
5.08416e-05
0.00133417
0.00297395
0.00115175
0.00400344
0.000915454
0.000312128
0.00132566
0.00404213
0.0001733
0.000982077
0.001138
0.000458273
0.000241625
0.00113214
0.000454662
0.000330047
0.00127323
0.00302146
0.000410485
0.000669797
0.00128658
0.000207349
0.00177494
0.000436228
0.00122222
0.000859229
0.00326543
0.00124115
0.00059583
4.21654e-05
0.00114953
0.00139043
0.00170444
0.00404649
0.00135231
0.00127805
0.00046827
0.00124118
0.00031498
0.00138521
4.47045e-05
0.000103917
0.00177975
4.73727e-05
0.000725694
0.00113723
0.00151473
0.00126934
0.00352563
0.0012522
0.000362963
0.000407567
0.0018423
0.00133475
0.00351321
0.00168959
0.00254595
0.001633
0.00124047
0.00448238
0.00123949
0.00537606
0.000557068
0.00428896
0.000891152
0.000526364
0.000432329
0.00474437
0.00269128
0.000441775
6.84663e-05
0.00124133
0.00124136
0.00102194
0.000644634
0.000407227
0.00234319
0.00523009
0.0011859
0.000348152
0.00124072
0.00357892
0.000468879
0.00155649
0.00119107
0.000488884
0.000115216
0.000407402
0.00244594
0.00124151
0.00325027
0.00124309
0.00129016
0.00287232
0.00036785
0.00149572
0.00125328
0.00132821
0.00543806
0.000412169
0.000719768
0.00131511
0.000139823
0.00417643
0.00124493
0.000546724
7.99084e-05
0.000465344
0.00318211
0.00124035
0.00137245
0.0011986
0.000457333
0.00125099
0.000639052
0.000963815
0.00116121
0.00173672
0.000384742
0.00135819
0.000884661
0.00105377
0.00133826
0.00061583
0.00476668
0.00333519
0.00124039
0.00124137
0.00150628
0.000462362
0.000466449
0.000456134
0.0015554
0.000633803
0.00396615
0.00108917
0.000438092
0.0013882
0.0019642
0.000317154
0.00124012
0.00201923
0.000299006
0.000289671
0.00118341
0.0012462
6.86139e-05
0.000203492
0.00124913
0.00367363
0.00073415
0.000405577
0.0012505
3.59318e-05
0.000559839
0.000665842
0.00158548
0.000937978
0.000743227
0.00132404
0.00120384
0.000426321
0.000130738
0.00126017
0.00124198
0.00133035
0.00107093
0.00153515
0.00124
0.00205538
0.00124132
0.00108047
0.000482143
0.00471164
0.0012495
0.00137152
0.000422148
0.000374638
0.00191132
0.000211801
0.00687808
0.000630295
0.00128855
0.00124094
0.002919
0.00131334
0.000249117
0.0014314
0.00172092
0.00229697
0.00222817
0.000132804
0.00124045
0.000607424
0.00106576
0.000435968
0.00128733
0.00483248
0.000381769
0.000322826
0.00178966
0.0048164
0.00146692
0.000466697
0.00217038
0.000454563
0.00124101
0.00191184
0.00118869
0.00124036
0.000115348
0.00124132
4.70439e-05
0.00223297
0.001022
0.00127742
0.000973495
0.000427727
0.00175661
0.00140472
0.00118771
0.00558346
0.00214973
0.00271014
0.00493643
0.00149447
0.00124073
0.00124149
0.000452815
0.00511609
5.92588e-05
0.000504439
0.00128002
4.66293e-05
4.15339e-05
4.51631e-05
0.00293226
0.000620071
3.84902e-05
0.00124128
0.000132594
0.000123808
0.000457405
0.0012423
0.00230031
0.00136862
0.000123599
0.00124413
0.00157105
0.00124091
0.00501297
0.00215142
0.00132006
0.000429348
0.00123994
0.0041072
0.000411315
0.00124245
0.00141205
0.00124069
0.00137649
0.00297572
0.00122786
0.00104063
0.00217844
0.000447507
0.0012402
0.000968304
0.00124165
0.000528827
0.00265292
0.00325205
0.000445118
0.00260954
0.00152096
0.00125916
0.000154702
0.000898514
0.00106081
5.23059e-05
0.00043094
0.00123974
0.000141823
0.000538116
0.000632095
0.000919145
0.00111806
0.00131964
0.000453121
0.00416759
0.00112343
0.00336249
0.0014151
0.00302649
0.000131238
0.000686962
0.0010019
0.000130787
0.000402982
0.00136027
0.00178647
0.00121046
0.000542781
0.000900765
0.00110425
0.00396151
0.00171163
0.000310984
0.000204541
0.00416618
0.000168509
0.00124832
5.24122e-05
0.00151013
0.00127679
0.00138932
0.00103509
0.000877167
0.0056276
0.00127264
0.00312798
0.00248731
0.00128767
0.0028013
0.00265267
0.00124194
0.00140278
0.0046189
4.40111e-05
0.000451865
4.50582e-05
0.000604991
0.00185029
0.000972514
0.00124064
0.00124146
0.000417204
0.00614232
0.00101257
0.00148453
0.001241
0.00151846
0.00229377
0.00475564
0.00131007
0.00152344
0.00135655
0.00177018
0.00125792
0.00511379
0.000379655
0.000455197
0.00124082
0.000524634
0.00137694
0.00163983
0.00207834
4.84374e-05
0.00354841
0.00178408
0.00065616
0.00383222
0.0024117
0.00347723
0.00545845
0.00119139
3.99263e-05
0.00124124
0.00120977
0.000459521
0.00264198
0.00273056
0.00104101
0.000445779
0.00124138
0.00124494
0.00138006
0.000143406
0.00128609
0.00124119
0.00123267
0.00264223
0.000465958
0.00137248
5.27408e-05
0.0010679
0.0016227
0.000385251
0.00125398
0.00122091
0.000136261
0.000394172
0.000165978
0.0012442
0.00123985
0.00103847
0.00152456
0.00226865
0.00116455
0.00124223
0.00412602
0.00126216
0.00176468
0.00295454
0.00516318