/*--------------------------------*- C++ -*----------------------------------*\
| =========                 |                                                 |
| \\      /  F ield         | OpenFOAM: The Open Source CFD Toolbox           |
|  \\    /   O peration     | Version:  2.3.1                                 |
|   \\  /    A nd           | Web:      www.OpenFOAM.org                      |
|    \\/     M anipulation  |                                                 |
\*---------------------------------------------------------------------------*/
FoamFile
{
    version     2.0;
    format      ascii;
    class       volScalarField;
    location    "0.16";
    object      p;
}
// * * * * * * * * * * * * * * * * * * * * * * * * * * * * * * * * * * * * * //

dimensions      [0 2 -2 0 0 0 0];

internalField   nonuniform List<scalar> 
15166
(
-15.1721
-20.313
-23.139
-25.3893
-27.2949
-28.9143
-30.3631
-31.6315
-32.7276
-33.5464
-34.297
-34.8799
-20.012
-22.5893
-23.9768
-25.6754
-27.2736
-28.7197
-30.0405
-31.2318
-32.2742
-33.1153
-33.8659
-34.4698
-25.3308
-26.2418
-26.5173
-27.4715
-28.4855
-29.5168
-30.5301
-31.4746
-32.3352
-33.0722
-33.7275
-34.2745
-28.3894
-28.8104
-28.7987
-29.3714
-29.9719
-30.6515
-31.3669
-32.0653
-32.7263
-33.3155
-33.8451
-34.2844
-30.3129
-30.5722
-30.5406
-30.9501
-31.3323
-31.7947
-32.2974
-32.8035
-33.2954
-33.7464
-34.1589
-34.5171
-32.0083
-32.1293
-32.0661
-32.3483
-32.5874
-32.9028
-33.2511
-33.6086
-33.9624
-34.2932
-34.5985
-34.8693
-33.6434
-33.642
-33.5289
-33.6878
-33.8065
-33.9993
-34.2196
-34.4527
-34.6881
-34.9107
-35.1142
-35.2858
-35.1579
-35.0669
-34.9158
-34.9721
-34.9921
-35.0799
-35.1908
-35.3171
-35.4496
-35.5769
-35.6926
-35.7866
-36.5336
-36.3751
-36.2008
-36.1786
-36.1231
-36.1257
-36.1465
-36.1831
-36.2279
-36.273
-36.3128
-36.3385
-37.7916
-37.5787
-37.389
-37.3052
-37.1918
-37.1261
-37.0737
-37.036
-37.0072
-36.9815
-36.9529
-36.9133
-38.9544
-38.6972
-38.4956
-38.3613
-38.2016
-38.08
-37.9674
-37.8677
-37.7766
-37.6906
-37.6046
-37.5002
-40.0397
-39.7445
-39.5329
-39.3558
-39.1578
-38.9892
-38.8262
-38.6743
-38.5301
-38.3926
-38.2608
-38.1231
-41.0549
-40.728
-40.5081
-40.2944
-40.0642
-39.8555
-39.6499
-39.4533
-39.2635
-39.0801
-38.9038
-38.7337
-42.0078
-41.6534
-41.4265
-41.1815
-40.9241
-40.6812
-40.4389
-40.2033
-39.9727
-39.7455
-39.5132
-39.2635
-42.905
-42.5268
-42.2938
-42.0215
-41.7407
-41.4683
-41.1948
-40.926
-40.6616
-40.4041
-40.1561
-39.8972
-43.7517
-43.3526
-43.1141
-42.8181
-42.5173
-42.2195
-41.9193
-41.6222
-41.3285
-41.0402
-40.7621
-40.4908
-44.5523
-44.1352
-43.8918
-43.5748
-43.2565
-42.9364
-42.6127
-42.2908
-41.9712
-41.6552
-41.3458
-41.0491
-45.3118
-44.878
-44.6297
-44.294
-43.9602
-43.6205
-43.2763
-42.9326
-42.5908
-42.252
-41.9179
-41.5946
-46.0321
-45.5837
-45.331
-44.9787
-44.6312
-44.2742
-43.9119
-43.5488
-43.1872
-42.8291
-42.476
-42.1311
-46.7167
-46.2551
-45.9981
-45.6307
-45.2709
-44.8982
-44.5198
-44.1394
-43.7599
-43.3837
-43.0139
-42.6575
-47.3677
-46.8941
-46.633
-46.2522
-45.8812
-45.4945
-45.1013
-44.7052
-44.309
-43.9151
-43.5262
-43.1535
-47.9867
-47.5027
-47.238
-46.8447
-46.4635
-46.064
-45.6577
-45.2472
-44.8356
-44.4249
-44.0146
-43.613
-48.5791
-48.0836
-47.8146
-47.4099
-47.0196
-46.6086
-46.1903
-45.7671
-45.3425
-44.9194
-44.4986
-44.0861
-49.1421
-48.6364
-48.3642
-47.9493
-47.5505
-47.1291
-46.7001
-46.2657
-45.8297
-45.3948
-44.9613
-44.5306
-49.6725
-49.1618
-48.8875
-48.4634
-48.057
-47.6264
-47.1879
-46.7434
-46.2967
-45.851
-45.4073
-44.9639
-50.1842
-49.6645
-49.3865
-48.9537
-48.5406
-48.1015
-47.6544
-47.2005
-46.7442
-46.2885
-45.8345
-45.3796
-50.6711
-50.1432
-49.8625
-49.4216
-49.002
-48.5551
-48.1
-47.6378
-47.1729
-46.7089
-46.2487
-45.7867
-51.135
-50.5988
-50.3157
-49.8674
-49.442
-48.9878
-48.5254
-48.0554
-47.5822
-47.1089
-46.6382
-46.1706
-51.5717
-51.0318
-50.7472
-50.2919
-49.861
-49.4003
-48.9312
-48.4539
-47.9732
-47.4917
-47.0104
-46.5253
-51.9887
-51.4434
-51.1577
-50.6958
-50.2601
-49.7934
-49.3181
-48.8343
-48.347
-47.8592
-47.3734
-46.8815
-52.385
-51.8378
-51.5484
-51.0801
-50.6399
-50.1676
-49.6867
-49.197
-48.7035
-48.2095
-47.7175
-47.2197
-52.7656
-52.2129
-51.92
-51.4455
-51.0009
-50.5233
-50.0371
-49.542
-49.0429
-48.543
-48.0463
-47.5459
-53.1164
-52.5653
-52.271
-51.7914
-51.343
-50.8606
-50.3698
-49.8697
-49.3653
-48.8593
-48.355
-47.8476
-53.4562
-52.9004
-52.6028
-52.1186
-51.6668
-51.1802
-50.6851
-50.1805
-49.6717
-49.1613
-48.6534
-48.1447
-53.7766
-53.2163
-52.917
-52.4278
-51.9728
-51.4823
-50.9834
-50.4748
-49.9621
-49.4481
-48.936
-48.4229
-54.0739
-53.513
-53.2129
-52.7193
-52.2615
-51.7671
-51.2645
-50.7522
-50.2359
-49.7188
-49.2056
-48.6929
-54.3553
-53.7921
-53.4915
-52.9932
-52.5325
-52.0347
-51.5286
-51.0126
-50.4921
-49.9699
-49.4497
-48.9353
-54.6246
-54.0552
-53.7533
-53.25
-52.7867
-52.2854
-51.7759
-51.256
-50.7314
-50.204
-49.6743
-49.1392
-54.8669
-54.2985
-53.9978
-53.4896
-53.0241
-52.5198
-52.0071
-51.484
-50.956
-50.4254
-49.8913
-49.333
-55.1011
-54.5263
-54.2259
-53.7122
-53.2449
-52.7379
-52.2229
-51.6974
-51.1674
-50.6374
-50.1161
-49.589
-55.312
-54.7361
-54.4366
-53.9178
-53.4495
-52.9401
-52.4229
-51.8951
-51.3623
-50.8264
-50.2912
-49.7575
-55.5077
-54.9321
-54.6295
-54.1063
-53.6378
-53.1262
-52.6069
-52.0768
-51.5418
-51.0041
-50.4677
-49.9256
-55.6919
-55.1127
-54.8064
-54.2793
-53.8104
-53.2966
-52.7754
-52.2434
-51.7063
-51.167
-50.6288
-50.0817
-55.8507
-55.2754
-54.9688
-54.4356
-53.9677
-53.4518
-52.9289
-52.395
-51.8561
-51.3148
-50.7764
-50.2346
-56.0016
-55.4231
-55.1147
-54.5767
-54.1103
-53.5919
-53.0674
-52.5317
-51.9909
-51.4473
-50.9051
-50.3593
-56.1297
-55.5525
-55.2423
-54.7039
-54.2389
-53.7168
-53.1907
-52.6535
-52.1113
-51.5667
-51.0258
-50.491
-56.2441
-55.6673
-55.3544
-54.8159
-54.3521
-53.8257
-53.2989
-52.7603
-52.2165
-51.6695
-51.1224
-50.5774
-56.3411
-55.768
-55.4484
-54.9168
-54.4467
-53.9182
-53.3923
-52.8523
-52.3074
-51.7597
-51.2136
-50.6763
-56.4262
-55.8538
-55.5281
-55.0025
-54.5246
-53.9991
-53.471
-52.9298
-52.3838
-51.8349
-51.2855
-50.7395
-56.4949
-55.9251
-55.5933
-55.07
-54.5897
-54.0648
-53.5353
-52.9931
-52.4461
-51.8965
-51.3479
-50.8087
-56.544
-55.978
-55.6446
-55.1222
-54.6403
-54.1153
-53.5848
-53.0419
-52.4939
-51.9425
-51.3885
-50.8352
-56.5821
-56.0169
-55.6816
-55.1599
-54.6765
-54.1515
-53.6204
-53.0771
-52.5285
-51.9765
-51.4217
-50.8589
-56.6039
-56.04
-55.7037
-55.1822
-54.6981
-54.1734
-53.6421
-53.099
-52.551
-52.0009
-51.4535
-50.9049
-56.6068
-56.0477
-55.7107
-55.1899
-54.7053
-54.1808
-53.6496
-53.1068
-52.559
-52.0085
-51.4594
-50.9061
-56.5981
-56.0419
-55.7032
-55.183
-54.698
-54.1738
-53.6426
-53.0999
-52.5518
-52.0006
-51.4509
-50.9034
-56.5736
-56.0211
-55.681
-55.1614
-54.6762
-54.1525
-53.6214
-53.0788
-52.5307
-51.9791
-51.4268
-50.8735
-56.5391
-55.9847
-55.644
-55.1253
-54.6401
-54.117
-53.5863
-53.0443
-52.4969
-51.9463
-51.3965
-50.8522
-56.48
-55.9336
-55.5924
-55.0747
-54.5897
-54.0673
-53.5373
-52.9963
-52.4499
-51.9001
-51.3485
-50.7901
-56.4157
-55.8674
-55.5259
-55.0095
-54.5249
-54.0034
-53.4743
-52.9344
-52.3896
-51.8431
-51.3025
-50.7769
-56.3301
-55.7859
-55.4446
-54.9294
-54.4454
-53.925
-53.3968
-52.8579
-52.3138
-51.7663
-51.2181
-50.6783
-56.2305
-55.6901
-55.349
-54.8353
-54.3518
-53.8322
-53.3047
-52.7663
-52.2224
-51.6749
-51.125
-50.5774
-56.1209
-55.5823
-55.2401
-54.7273
-54.2444
-53.7256
-53.1989
-52.6613
-52.1179
-51.5711
-51.0219
-50.4659
-55.9958
-55.4581
-55.1163
-54.6048
-54.1226
-53.6052
-53.0797
-52.5435
-52.0017
-51.457
-50.9137
-50.375
-55.8515
-55.3183
-54.9776
-54.468
-53.9869
-53.4709
-52.947
-52.4124
-51.8723
-51.3286
-50.7832
-50.2347
-55.6953
-55.1645
-54.8244
-54.3167
-53.837
-53.3228
-52.8006
-52.2679
-51.7298
-51.1888
-50.649
-50.1125
-55.5226
-54.9964
-54.6572
-54.1514
-53.6732
-53.1607
-52.6403
-52.1096
-51.5734
-51.0343
-50.4946
-49.9528
-55.337
-54.8152
-54.4762
-53.9722
-53.4954
-52.9846
-52.4661
-51.9375
-51.4033
-50.8667
-50.3321
-49.8058
-55.1434
-54.6197
-54.2807
-53.7787
-53.3034
-52.7945
-52.2779
-51.7513
-51.219
-50.6834
-50.1466
-49.6122
-54.922
-54.4065
-54.0699
-53.5707
-53.0971
-52.5905
-52.0759
-51.5515
-51.0215
-50.4886
-49.9569
-49.4408
-54.6919
-54.1803
-53.8452
-53.3483
-52.8767
-52.3722
-51.8601
-51.3377
-50.8102
-50.2794
-49.7468
-49.2232
-54.4498
-53.9418
-53.6068
-53.1125
-52.6425
-52.1402
-51.6304
-51.1104
-50.5853
-50.0572
-49.5289
-49.0212
-54.1935
-53.6874
-53.3541
-52.8625
-52.3947
-51.8945
-51.3868
-50.8694
-50.3465
-49.8201
-49.2901
-48.7672
-53.9232
-53.4205
-53.0873
-52.5981
-52.1324
-51.6349
-51.1297
-50.6148
-50.0943
-49.5706
-49.0437
-48.5241
-53.631
-53.1355
-52.8057
-52.3201
-51.8568
-51.362
-50.8597
-50.3477
-49.8303
-49.3106
-48.7903
-48.283
-53.3269
-52.8369
-52.5095
-52.0272
-51.5668
-51.0751
-50.5758
-50.067
-49.5528
-49.0357
-48.5157
-48.0007
-53.0172
-52.5292
-52.2014
-51.7215
-51.2632
-50.7747
-50.2784
-49.7728
-49.262
-48.7489
-48.236
-47.7388
-52.6876
-52.2042
-51.8783
-51.4019
-50.9464
-50.4605
-49.9675
-49.4652
-48.9575
-48.4468
-47.9328
-47.4232
-52.3437
-51.8634
-51.5402
-51.0675
-50.6152
-50.1326
-49.6427
-49.1439
-48.64
-48.1337
-47.627
-47.1366
-51.9844
-51.5097
-51.1882
-50.719
-50.2697
-49.7906
-49.3044
-48.8092
-48.309
-47.8065
-47.3013
-46.7999
-51.6065
-51.1395
-50.8212
-50.3563
-49.9102
-49.4347
-48.9521
-48.4606
-47.9648
-47.4667
-46.9703
-46.4927
-51.2197
-50.7569
-50.4406
-49.9797
-49.5369
-49.0651
-48.5861
-48.0982
-47.6057
-47.1102
-46.6115
-46.1262
-50.8199
-50.3611
-50.0468
-49.5897
-49.1502
-48.682
-48.2065
-47.7222
-47.233
-46.7402
-46.2421
-45.7462
-50.4043
-49.9502
-49.6381
-49.1854
-48.7494
-48.2854
-47.8137
-47.3339
-46.8494
-46.3625
-45.8742
-45.3908
-49.973
-49.5245
-49.2152
-48.767
-48.3349
-47.8751
-47.4082
-46.9333
-46.4541
-45.9736
-45.4953
-45.0343
-49.5264
-49.084
-48.7779
-48.3344
-47.9065
-47.451
-46.9886
-46.5184
-46.0435
-45.566
-45.0857
-44.6126
-49.0641
-48.6298
-48.3269
-47.8882
-47.4643
-47.0131
-46.555
-46.0894
-45.6191
-45.1465
-44.6736
-44.2213
-48.5963
-48.1637
-47.8624
-47.4285
-47.0083
-46.5615
-46.1082
-45.647
-45.1815
-44.7131
-44.2406
-43.7685
-48.1081
-47.6816
-47.3833
-46.9545
-46.5386
-46.0967
-45.648
-45.192
-44.7319
-44.2704
-43.8104
-43.3691
-47.6037
-47.1839
-46.8891
-46.4658
-46.0549
-45.6179
-45.1746
-44.7239
-44.269
-43.813
-43.3577
-42.9277
-47.0852
-46.6724
-46.3815
-45.9637
-45.5573
-45.1256
-44.6873
-44.2418
-43.7918
-43.3396
-42.8857
-42.4581
-46.5537
-46.1467
-45.8594
-45.4471
-45.0456
-44.6194
-44.1864
-43.746
-43.3011
-42.8529
-42.3969
-41.9438
-46.0084
-45.6076
-45.3239
-44.9175
-44.521
-44.1001
-43.6731
-43.2389
-42.8015
-42.3638
-41.9291
-41.5316
-45.4501
-45.0561
-44.7751
-44.3744
-43.9829
-43.5677
-43.1466
-42.7187
-42.2877
-41.8557
-41.4193
-40.9962
-44.879
-44.4888
-44.2118
-43.8172
-43.4311
-43.0217
-42.6062
-42.1844
-41.7593
-41.3324
-40.9031
-40.497
-44.2866
-43.9065
-43.6341
-43.2459
-42.8651
-42.4618
-42.0523
-41.6368
-41.218
-40.7977
-40.3735
-39.9562
-43.6887
-43.3121
-43.0424
-42.6601
-42.2855
-41.8882
-41.4852
-41.0765
-40.6648
-40.2527
-39.8421
-39.457
-43.0749
-42.7036
-42.4373
-42.0612
-41.6921
-41.3013
-40.9048
-40.5029
-40.0976
-39.6911
-39.2804
-38.8736
-42.436
-42.0758
-41.8162
-41.4475
-41.0849
-40.7009
-40.311
-39.9161
-39.5182
-39.1196
-38.7214
-38.3472
-41.7945
-41.4392
-41.1822
-40.8201
-40.4638
-40.0869
-39.7041
-39.3163
-38.9262
-38.5353
-38.1418
-37.7541
-41.1348
-40.787
-40.5346
-40.1795
-39.83
-39.4599
-39.0844
-38.7042
-38.3218
-37.9394
-37.5601
-37.2072
-40.4639
-40.1213
-39.8729
-39.5247
-39.1819
-38.8193
-38.4511
-38.0786
-37.7036
-37.327
-36.9468
-36.58
-39.773
-39.4396
-39.1968
-38.8566
-38.5207
-38.1654
-37.8049
-37.4402
-37.0732
-36.7054
-36.3343
-35.9727
-39.0701
-38.7446
-38.5071
-38.1748
-37.846
-37.4989
-37.1468
-36.7906
-36.4328
-36.0764
-35.7225
-35.3855
-38.3591
-38.0382
-37.8046
-37.4799
-37.1585
-36.8193
-36.4757
-36.1282
-35.7795
-35.4316
-35.0851
-34.761
-37.63
-37.3178
-37.0891
-36.7717
-36.458
-36.1268
-35.7914
-35.4524
-35.1122
-34.7715
-34.4279
-34.0944
-36.8886
-36.5827
-36.3592
-36.0504
-35.7443
-35.4216
-35.0944
-34.7646
-34.4339
-34.1042
-33.7767
-33.4769
-36.131
-35.8343
-35.6159
-35.3154
-35.0172
-34.7035
-34.3854
-34.0649
-33.7434
-33.4224
-33.0986
-32.7813
-35.3636
-35.0729
-34.8589
-34.567
-34.2775
-33.9727
-33.6644
-33.3538
-33.0422
-32.7316
-32.4207
-32.1247
-34.5817
-34.2971
-34.0893
-33.8063
-33.5253
-33.2301
-32.9316
-32.6316
-32.3312
-32.033
-31.7375
-31.4636
-33.7828
-33.508
-33.306
-33.0321
-32.7601
-32.4753
-32.1871
-31.8976
-31.6082
-31.3204
-31.0312
-30.7496
-32.9738
-32.7063
-32.5103
-32.2457
-31.9832
-31.7085
-31.4313
-31.1528
-30.875
-30.5993
-30.3267
-30.0771
-32.1501
-31.8913
-31.7019
-31.4468
-31.1937
-30.9298
-30.6638
-30.3971
-30.1316
-29.8679
-29.6028
-29.3529
-31.3193
-31.0667
-30.8822
-30.6365
-30.3931
-30.1398
-29.8854
-29.631
-29.3788
-29.1304
-28.8852
-28.6727
-30.4743
-30.229
-30.0497
-29.8139
-29.5806
-29.3388
-29.0957
-28.8533
-28.6136
-28.3784
-28.146
-27.9249
-29.614
-29.3783
-29.2064
-28.9805
-28.7572
-28.5264
-28.2951
-28.0643
-27.8354
-27.6084
-27.3794
-27.1523
-28.749
-28.5174
-28.3506
-28.1348
-27.9221
-27.7033
-27.4845
-27.2666
-27.0511
-26.839
-26.6318
-26.4522
-27.8648
-27.6431
-27.4841
-27.2791
-27.0775
-26.871
-26.6656
-26.4619
-26.2611
-26.0638
-25.8666
-25.6758
-26.9735
-26.7596
-26.6067
-26.4126
-26.223
-26.0301
-25.8389
-25.6505
-25.4652
-25.2847
-25.1086
-24.9556
-26.0712
-25.8672
-25.721
-25.5377
-25.3599
-25.1803
-25.0037
-24.8313
-24.6633
-24.4998
-24.3388
-24.1962
-25.165
-24.9654
-24.8253
-24.6533
-24.4883
-24.323
-24.1618
-24.0052
-23.8545
-23.7098
-23.5702
-23.464
-24.2462
-24.054
-23.9213
-23.7606
-23.6081
-23.4576
-23.3125
-23.1725
-23.0382
-22.91
-22.7844
-22.6628
-23.3152
-23.133
-23.0082
-22.8601
-22.7211
-22.586
-22.4572
-22.3345
-22.2171
-22.1046
-21.993
-21.8847
-22.3816
-22.2069
-22.0887
-21.9528
-21.8284
-21.7096
-21.5988
-21.4955
-21.399
-21.31
-21.231
-21.1893
-21.4433
-21.2741
-21.1634
-21.0402
-20.9307
-20.8297
-20.738
-20.6553
-20.5802
-20.5114
-20.4446
-20.3873
-20.4945
-20.3343
-20.2321
-20.1229
-20.0294
-19.9471
-19.8763
-19.8153
-19.7627
-19.7169
-19.6757
-19.6641
-19.5434
-19.3909
-19.2966
-19.2014
-19.1255
-19.0637
-19.0152
-18.9783
-18.9503
-18.9287
-18.9076
-18.8943
-18.5901
-18.4436
-18.3585
-18.279
-18.2219
-18.1828
-18.1591
-18.1485
-18.1481
-18.1551
-18.1657
-18.191
-17.6308
-17.4927
-17.4175
-17.3553
-17.3196
-17.3055
-17.3098
-17.3288
-17.359
-17.3974
-17.4416
-17.5004
-16.6723
-16.5407
-16.4764
-16.4337
-16.4222
-16.4366
-16.472
-16.5231
-16.5855
-16.6555
-16.7308
-16.8251
-15.7099
-15.5873
-15.536
-15.5162
-15.5339
-15.5811
-15.6515
-15.738
-15.8342
-15.9344
-16.0318
-16.1325
-14.7489
-14.6334
-14.5988
-14.6078
-14.661
-14.748
-14.8588
-14.9851
-15.1192
-15.2551
-15.3886
-15.5362
-13.7843
-13.6791
-13.6681
-13.7169
-13.8167
-13.9519
-14.1094
-14.2788
-14.4525
-14.6244
-14.7875
-14.9486
-12.8121
-12.7223
-12.7519
-12.8597
-13.0212
-13.214
-13.4235
-13.6387
-13.852
-14.0582
-14.2508
-14.436
-11.8243
-11.7705
-11.8754
-12.0737
-12.3152
-12.5731
-12.8337
-13.089
-13.3383
-13.5752
-13.788
-13.9667
-10.7962
-10.8987
-11.166
-11.5024
-11.8308
-12.1397
-12.4384
-12.7225
-12.9925
-13.2605
-13.4823
-13.6855
-1.18943
9.56928
-10.3701
-19.2239
-19.8552
-6.83083
-4.43094
32.3304
-44.4371
-38.8301
-33.6069
-14.4511
16.4598
-39.3067
1.39099
-6.57496
-39.3378
-29.7969
-29.2266
-6.31472
27.85
26.2421
17.7301
-15.9108
-0.488675
-10.9089
24.2924
0.614678
-41.6993
-37.7922
-41.9317
30.1425
9.44733
-33.2546
16.6552
18.0412
33.1907
-30.7426
32.9632
-14.3698
2.34096
-1.8604
24.1999
-0.403746
33.2566
26.042
18.9062
19.6746
33.188
27.8356
18.7493
32.1439
30.8124
1.5226
-35.3394
9.27853
12.6086
-2.23339
-31.4868
0.914226
24.0968
29.5737
1.56716
-3.56041
17.5218
9.56748
-14.0378
30.3744
15.4033
-38.293
-35.4364
13.8726
32.8672
-13.4568
-15.2954
2.62593
-43.9786
-1.59149
10.0145
28.7074
3.12449
-1.83977
33.4759
32.4032
2.2088
-43.3611
-14.0287
0.963603
-38.7333
33.3618
27.4092
-41.0178
-0.159371
7.72372
33.9899
-4.06302
0.529928
-1.85966
-0.563839
-13.4705
-16.4763
14.6171
5.52895
8.78033
-1.61312
33.5903
1.97918
32.8041
-13.7745
0.378573
17.1652
-1.96412
30.3653
-7.52167
1.71508
15.7053
-19.5076
-6.21085
-44.7413
-32.5049
-10.9486
-20.8628
-40.7286
15.4325
-18.021
-38.5292
-1.85356
10.5835
18.8107
1.07296
31.4444
1.43387
21.4177
8.72316
23.4624
10.6084
33.8195
-38.343
31.3346
10.2016
-18.6352
28.265
27.0411
0.578769
30.762
-35.5597
31.5311
-10.376
-47.2854
3.58414
0.368574
16.6712
-1.58208
5.16357
22.109
3.23369
31.6257
-1.2782
-40.5051
-14.2389
-21.5341
-6.16055
-29.7784
-14.8195
24.0664
25.9616
30.7809
34.0868
11.0299
1.49418
-36.6196
-18.1733
-35.3175
-18.7553
-1.04219
-40.9199
1.97434
32.2332
25.093
-36.9049
30.2641
-30.7863
-7.51918
33.1806
6.25875
31.158
3.50324
-1.61095
31.6308
1.65064
-39.5278
-1.64505
31.2791
-5.77915
31.7803
8.19906
26.3594
30.0743
2.39625
-58.6671
-46.7973
32.2566
34.0083
30.8742
32.688
14.0855
-7.93711
-35.6927
-13.9797
-15.9134
4.60302
-46.499
33.0861
33.9815
1.95983
31.0542
-11.0332
-13.2116
-60.6414
30.4192
32.2853
-47.072
33.3785
-3.11665
-3.13677
-38.1426
-43.7835
-1.95237
-54.0128
19.505
33.241
-17.0153
-2.19206
-13.1417
-13.4504
27.3254
30.9079
-46.5141
-1.8128
32.663
-32.777
19.4067
-38.5023
-43.8737
32.109
2.77245
19.9097
5.95851
-40.3558
31.2134
-39.0652
-13.5813
-39.78
-68.7176
28.115
-31.4392
0.0887549
32.4335
-41.3407
33.2072
-15.2187
27.0168
17.1008
-8.56758
-14.7035
27.5004
-46.2248
32.3579
-3.69878
4.52504
0.176733
18.4658
-44.1204
32.9166
32.714
-43.203
21.833
34.0592
34.0352
32.5012
32.0495
23.3131
33.4996
33.0187
-25.5315
26.8862
-32.9511
33.0468
-49.4751
29.1769
32.4845
-41.0501
34.654
34.6533
30.338
31.3926
27.84
30.5395
23.6811
33.912
28.9653
-0.723465
-10.7001
-35.8542
22.2691
-45.7161
34.2559
1.58132
14.4167
16.5719
-26.7113
34.4216
3.44284
-50.2508
32.3415
23.9049
34.5947
-31.5067
2.03104
27.0492
21.628
-40.945
-15.3949
69.2438
33.9414
-30.86
-26.2141
-2.21101
2.599
34.4556
-4.10482
0.68311
-41.0185
-2.16343
2.66079
4.24503
-1.61379
14.9705
2.17777
6.50479
-0.0934583
32.6669
0.181702
28.8976
12.6244
31.41
33.1315
-40.9338
-58.177
-12.7727
-0.171026
-3.93922
13.812
25.8787
34.5229
-1.11126
-25.0689
33.3512
-45.7811
-39.3807
29.9409
33.5088
-48.4705
-58.7798
21.2146
-21.6165
-3.09467
0.381655
-1.5322
0.981316
-28.924
30.1109
33.6841
-35.4284
-40.4278
28.5857
32.9518
-47.6185
3.56647
-35.5684
-11.329
-10.8452
-1.32135
32.7995
-64.3633
27.3861
-0.817097
21.2086
28.4924
19.445
3.51555
-37.2438
-35.4287
30.6431
30.1756
-2.9357
-53.3627
-2.69445
-33.4959
-26.8363
12.9406
-14.1329
-13.1195
13.9301
-41.2098
30.1073
-48.0053
-40.9513
31.1746
32.8757
-2.11276
-0.77711
1.58776
-48.7812
12.6852
28.0635
-59.9331
30.0866
30.1169
3.42343
0.282892
30.5233
1.7127
-2.87773
32.067
0.58972
-21.5718
-46.8377
33.7035
0.580058
-13.6863
-11.1906
-30.7584
29.3198
-31.7479
1.98384
-39.5115
-37.3517
28.2757
-6.40512
34.3275
32.9744
12.7418
31.9049
8.42165
-14.5197
-6.6397
31.6848
26.8642
2.14653
-36.0832
29.6061
32.9251
10.6703
-41.2867
27.9035
9.58157
34.5505
33.9191
-31.1521
27.919
-9.82094
22.4054
-4.13277
-49.293
-28.193
2.3017
29.1457
22.796
32.7897
-25.6747
33.2098
18.3293
0.825033
-36.2836
-46.3877
30.6839
2.0101
31.7396
-13.2253
0.149684
33.0397
33.0964
-23.1364
-20.4868
30.0592
33.7441
-6.0655
-18.8317
-42.7411
-21.6131
1.00121
31.6929
-55.2743
-16.4847
30.4167
-23.9156
-1.0244
32.7995
33.7226
-40.4265
30.6879
33.4369
2.46378
25.8899
34.0998
22.2336
-47.3965
30.969
-36.2178
31.1127
-47.3289
-13.8492
-35.9425
2.03019
-16.2538
31.2938
-37.6159
-14.054
21.3577
15.5965
-12.6123
1.34671
31.4178
-0.616375
4.026
-14.8783
33.4908
30.1052
-37.6504
34.632
-15.7759
-17.5564
-35.7246
-2.06759
25.8019
-46.9524
-34.3716
30.2329
-41.6282
-7.48898
-17.1035
-21.4652
-46.0918
-42.729
-1.73431
-25.749
1.977
19.4582
9.22391
13.743
-17.4716
28.3286
33.2923
-29.3815
26.0558
28.3455
-14.2049
0.0708168
-0.0411743
15.7539
-13.6025
30.5271
-38.0366
-30.0037
-26.0265
31.6517
0.479774
17.0078
27.6028
10.7281
-49.1937
24.3027
29.8389
30.2051
12.1799
0.443127
-8.79158
-2.56575
-35.9433
-34.6804
32.5639
-43.3015
4.24866
-44.736
24.7937
32.5189
27.4181
-42.7286
0.0817574
-31.934
1.30933
27.9352
-13.6676
32.1273
-35.6281
-0.0886129
-45.0732
-40.7244
33.1251
1.87132
-0.624726
-26.818
-17.4346
11.5052
10.9847
8.20512
-13.1063
-6.35188
7.53703
29.504
-28.6742
-33.4414
-1.76563
0.866825
-43.3842
33.9076
32.5162
33.2606
10.5615
29.0379
-6.8106
-30.7772
25.607
-1.71631
11.436
29.4746
1.56808
14.1609
33.6708
-49.1336
-50.1607
3.39611
-13.2962
29.0094
-48.8825
18.8368
24.5583
31.6592
-2.01038
31.8328
29.2196
22.8429
-22.1543
-9.58402
-0.291054
-47.3576
-50.3004
31.9401
-58.2657
4.42989
2.77283
-44.8016
-31.1028
10.2901
1.98397
-41.1927
-1.03664
-36.3352
31.2774
-30.0819
2.03853
-45.3751
0.0208557
32.7238
-36.3945
33.3999
17.0217
25.3896
-47.5165
-1.05936
18.1241
-47.493
31.6141
-36.6601
-3.90583
-39.373
-17.957
0.101651
2.37271
24.0975
-15.1562
31.978
4.06856
-25.1153
34.0212
33.9573
-37.3684
23.1242
-37.0152
33.5692
27.0227
32.8002
-2.07907
13.2814
-1.1704
1.52488
30.0256
2.1603
34.559
-10.5451
-35.4886
1.48084
28.3211
33.7929
-35.587
-5.34472
-26.8054
18.8428
-50.4674
-17.0508
-28.1711
-40.3044
-1.77651
0.890617
32.9441
20.5587
33.9514
29.1494
3.83329
34.538
34.6202
32.7196
-35.95
-17.3648
32.717
-0.459644
3.2991
-54.1516
33.1653
1.29823
14.8139
-36.9465
6.68655
-2.26336
-40.3183
2.07208
-25.6947
-55.3473
6.28436
31.8819
-1.52724
22.517
32.2994
1.45036
-8.48122
-1.19679
7.29226
-9.36773
-50.1271
-32.1824
27.2257
29.264
1.94302
-14.0064
-0.558274
-0.393624
-21.1814
14.4667
30.3984
16.1444
-42.5727
-2.7552
-106.207
-0.501057
-10.4916
32.0792
29.9271
-1.57423
31.5525
-18.3783
28.9162
-10.7529
-42.5817
-42.7082
31.0075
-24.2077
-15.1227
16.6337
7.94661
27.1098
-55.5515
-13.5258
28.8105
0.0371925
32.4035
-7.87068
-39.1441
-44.6744
-16.9763
-14.0547
-43.0258
-23.3583
6.06962
34.132
29.0249
-12.3066
7.55906
-3.20484
33.4006
-35.8725
-5.15043
-40.9735
-28.5083
25.401
24.0434
-47.3454
-11.0218
27.3851
-12.305
-38.1753
-38.1332
0.268055
-42.8114
-15.6422
33.7006
32.1728
30.4055
0.130575
-10.5487
-2.80359
1.77713
2.39962
30.8883
23.0283
20.4469
-36.3622
0.669607
-42.7309
14.661
23.1677
1.98595
-37.1366
-4.20835
25.9828
-42.4359
23.4134
29.8979
28.3863
-2.01945
25.6142
-36.666
10.0627
13.8525
31.744
-38.157
27.6512
15.1388
-14.636
-13.9894
26.7258
-25.7435
-28.9393
30.7333
0.473404
-49.936
15.3711
12.3322
-9.05593
-55.9169
26.7721
-0.35143
1.19608
-44.8525
29.8007
-48.004
1.40283
-36.2839
-37.6359
33.514
6.48692
33.069
-30.0426
6.5039
29.2185
-1.93992
-49.716
33.8752
33.8112
34.3651
3.19595
2.01697
14.4675
-40.0684
-39.9411
-32.0912
0.289956
-14.2509
3.89195
12.5674
-37.9514
24.7092
27.3688
27.8273
16.9366
32.8212
32.3472
-36.1071
0.073731
34.073
-32.3484
31.5547
1.19129
-40.6005
-4.19474
2.00453
4.51815
29.6789
-20.1927
-10.6811
26.2652
-52.3644
-4.53612
3.81235
15.7439
22.3711
-11.7856
27.2267
2.62412
-3.01127
-13.416
13.7396
-13.1091
-40.765
32.8361
-16.4905
21.918
-35.3517
27.8353
29.9384
32.1404
-40.4757
31.5566
1.6855
31.9675
-10.3496
-2.27849
-41.3354
29.866
20.4458
25.5909
-7.97386
-42.8888
-34.6444
-0.392842
33.9093
2.75042
32.8101
-31.6025
32.6084
-1.98378
-45.0984
33.9556
-35.6269
32.4892
32.7638
-14.452
-29.1255
22.9753
0.924802
14.9693
34.5982
-1.28351
-47.4321
31.6913
-2.22055
-15.5612
10.5502
32.7553
33.483
-31.2317
31.3039
32.1823
-10.5998
31.2385
26.8731
30.4485
30.9974
1.78121
-1.52863
-38.3936
-5.96897
-37.044
32.6332
-0.802189
-36.9076
32.7059
-2.16993
29.9623
24.4999
30.4513
30.9108
18.4843
-40.8238
-36.6918
30.6585
-32.7589
-20.6714
25.6678
33.4908
-44.5282
-29.9865
-38.5853
-21.6479
-15.9674
28.4374
-9.89402
-18.3211
-31.1434
-0.369848
-39.2003
32.6055
12.7308
1.73599
-3.25082
-3.24273
31.378
-2.02167
31.9796
-0.0958147
31.5803
-7.36544
3.34802
-45.7154
33.2766
1.89443
31.0462
33.5421
-25.1332
26.9881
-17.3111
32.0952
-1.58403
30.2056
21.4056
2.93988
10.2323
34.24
30.7406
-0.208524
2.33145
33.2984
2.42968
28.4724
-30.6844
-31.4403
31.1203
-19.0567
18.0311
-98.5167
-43.7611
33.3314
-51.405
-41.3765
2.3236
30.6622
-42.5172
-43.2724
2.48261
26.3222
-1.11829
-7.03817
30.5037
-10.5212
-16.6013
6.28014
-13.9871
-59.4732
13.7327
-1.06823
24.4407
0.479551
10.3629
24.4014
-62.0145
24.538
5.46311
-3.03106
-47.3173
26.7559
4.78698
7.89773
27.2327
23.797
33.4314
34.3799
-15.1298
-1.3085
-13.7611
2.64503
38.8292
26.6286
-84.3966
29.387
-29.3127
1.18243
-50.055
-0.260255
2.75869
11.4154
30.3761
31.5592
-47.5314
2.65397
-17.0501
-1.80963
26.4953
-47.6366
0.992882
32.4865
1.60003
1.15154
5.75439
15.7242
-13.381
-39.9853
-21.557
2.98589
-2.52152
30.8285
31.9666
31.8315
-44.36
27.3983
30.8941
2.88994
11.3179
-35.0073
31.7529
-14.3309
13.8633
1.3284
33.8822
-1.96009
31.7974
31.6442
-7.69794
-11.4152
33.0345
-16.5404
21.749
1.70166
-34.8103
-39.5181
32.7393
-2.80613
-17.6307
-35.2845
-23.3245
22.8737
-37.8901
1.97636
1.56516
0.382651
-19.2418
33.7397
-46.1579
0.37992
34.5515
-43.0888
29.0083
25.6282
-18.4844
13.85
1.73509
20.4699
30.3263
31.1152
-0.956543
-39.2437
-2.24468
-16.542
-17.1662
-43.9937
21.1936
-39.2748
-40.9581
8.78787
13.514
2.4785
-1.57151
6.29689
-12.7604
-7.1477
1.00684
-42.9164
33.2122
-1.88589
31.2736
-32.9076
3.53954
1.9181
-59.7832
31.3077
-34.8951
-19.3852
23.2545
30.1692
-26.8269
19.4245
-39.9855
32.67
31.9577
34.4697
25.3085
33.5613
31.3083
-17.9508
33.2786
3.73068
33.0318
14.1733
28.0923
-22.8962
29.2447
-31.6777
11.4096
34.225
21.3956
34.0019
33.1909
34.2842
-28.1921
-3.84709
8.45416
2.11893
-20.1969
-37.5591
1.95468
-42.6532
2.61273
15.1282
32.1255
30.8187
-43.2066
-21.9086
22.0802
-45.3864
-7.31653
34.2608
-2.69609
32.0955
-48.651
0.822552
-16.4801
-4.11256
20.6212
31.4801
30.1418
25.2841
31.3507
-1.82549
20.4875
30.4405
-45.7524
6.09184
15.028
29.1873
31.3378
-18.8695
31.8896
-17.5286
-6.99051
-12.7816
1.25709
-8.69648
32.3018
-40.3021
32.7357
29.6132
-26.5345
-29.2468
25.6384
1.48266
32.6476
1.2809
2.00377
-0.643191
15.1802
31.3907
28.5242
-37.6812
32.4363
31.848
6.27521
3.49359
26.2633
26.5538
19.7642
32.5247
-21.6854
33.3617
-0.824585
33.5054
6.34678
7.26202
1.95379
-35.9146
-17.8937
28.664
-26.4259
-41.7427
-45.3249
2.18102
-38.807
34.1899
33.6314
-0.234333
-9.59988
27.4856
32.5642
-34.3648
31.7319
-1.66921
-36.9381
3.09745
31.4553
-15.9883
30.7089
13.6351
-12.4037
-0.586962
44.9953
-0.814539
-43.9654
17.6475
3.31183
15.9261
30.5845
-1.306
-0.525429
-1.91847
15.4897
32.7303
-25.34
-3.39004
31.4718
25.0204
33.8264
1.88902
34.2427
25.3042
27.0824
-21.9913
33.4362
-15.4324
34.5516
-11.0803
30.0053
31.4816
33.6192
-0.66582
25.9097
32.2988
31.7592
7.58586
0.859316
31.2424
23.1991
1.76093
-4.79837
-49.9813
0.913206
-37.2045
-45.1608
32.265
33.1873
-27.3659
24.6427
-31.1864
-49.2643
-25.8103
-13.5036
-36.0062
34.4969
28.154
-1.39535
33.5801
-5.50892
-0.738094
2.92638
0.152388
1.92003
4.18101
-25.7203
-96.7489
-29.9665
8.2531
-37.8227
29.0171
-3.57739
30.8447
27.6899
-20.8627
27.0241
-42.3833
34.3722
24.5724
20.0006
-1.90216
2.25586
16.3557
20.8371
33.4515
32.6618
-42.9868
27.806
30.8116
-8.77915
31.938
33.1884
-1.05313
32.5434
-40.404
4.05444
-18.6105
13.8503
-18.4247
32.5761
-31.1671
-16.6166
6.97147
-32.0359
5.2749
-10.2913
1.23543
-18.7904
-40.0361
-24.7394
-0.566026
-1.36749
24.9074
32.1634
-37.6189
31.1043
-24.4331
33.0114
31.8932
2.15696
33.4149
-1.18104
-32.6007
27.7995
-30.9748
23.5267
-49.0089
-16.1361
33.171
33.6414
-50.0068
31.906
-14.6828
34.3263
-37.5669
22.247
-31.7402
33.6952
11.8901
3.88718
-40.9844
-32.1072
1.74095
-0.056986
-6.74087
-5.38783
34.0978
-0.867795
32.4929
30.1386
31.2177
-42.2618
2.92829
-33.7005
30.2934
33.965
31.9627
32.6242
-41.628
-4.90025
1.65369
3.53841
-28.0106
2.91042
33.1218
31.197
5.36252
-17.7269
-35.8059
33.7835
32.4553
1.9026
30.8267
-27.1335
8.60946
11.5355
33.9108
33.0077
-9.96865
25.9671
-1.35239
2.98643
34.3669
7.23282
-19.0803
2.47592
32.4388
-9.58806
23.647
-49.3227
15.3344
-27.4419
-38.6416
5.32842
3.43889
-10.0756
0.828121
30.6353
33.219
32.273
-1.13208
22.1185
-27.9843
7.11873
-13.3085
-16.909
-0.243522
2.14405
14.5477
-11.7205
0.807512
28.4321
4.03684
-44.9442
-5.96831
-7.37569
-22.6644
22.93
13.6421
20.8992
-47.9479
12.1342
-1.81262
32.2989
30.7611
-40.0419
0.0202122
34.5063
31.116
-4.2206
31.9075
-27.7662
-25.9649
5.6602
26.3755
-9.4011
30.6481
-47.0451
-38.8268
11.1667
-28.9207
-1.42518
33.3375
-1.75558
-20.8528
14.3081
30.8049
-27.4223
-38.2478
16.2311
-13.6551
-0.52287
-32.7063
-10.4166
3.24124
-3.70228
33.8226
33.218
25.0813
12.9852
29.117
-6.20917
1.58715
2.38261
-40.1744
-15.724
-35.328
26.0397
33.3188
32.6465
-21.3375
16.4808
2.80492
-1.15557
29.1728
-28.4481
-37.754
-15.0267
4.1197
-15.7972
20.3905
34.0409
33.0212
-25.7613
34.0643
-40.5749
-0.628162
4.19229
-18.3244
33.3677
-40.9582
31.0657
34.3663
8.04585
-47.8931
-2.598
31.0173
19.3391
19.5103
-1.51976
21.0044
17.114
-37.6599
-32.9803
-0.925273
31.882
-3.1044
33.1377
-41.7464
-1.58809
21.0827
-0.315269
29.2363
-26.0928
26.79
-1.56361
29.402
33.5675
31.4664
-37.1633
19.8641
-35.4191
3.6553
-14.5451
34.0943
-49.2181
-12.6167
-8.2514
-4.17266
33.4153
6.64846
-13.8022
1.37855
-22.0202
1.93372
7.55423
-0.0735643
-3.04132
-17.2288
-13.324
1.23436
-42.8838
-17.2902
-25.1464
-37.9005
-8.53273
-2.43293
34.071
-6.53461
0.939531
-29.6663
-7.51929
-42.8084
21.8109
-12.3314
10.6423
-0.866524
-7.34465
-22.0108
19.6605
-36.1417
-12.6053
-11.0409
-27.0148
33.3326
-40.2091
3.64233
-0.226213
-41.2167
-11.1785
12.09
18.3239
1.51995
-38.7144
5.63889
-30.3948
-39.4564
32.3413
-2.30312
34.1274
1.24439
-13.5632
30.742
1.85374
34.1364
-28.0702
1.71538
32.0433
1.60972
12.6261
14.6758
4.00119
-23.944
29.0021
-43.6829
-27.5596
-47.4696
10.7557
32.4395
29.6525
-42.0286
-16.4751
2.06896
-56.8841
23.3957
-42.5391
11.7888
-18.552
0.376737
-2.47494
30.6929
-15.0793
30.9928
-28.6591
30.9607
-2.55309
1.96928
4.30906
22.5034
10.9541
-23.1422
-1.79181
-28.5737
31.7912
17.9586
-15.242
-36.7464
0.193474
27.5226
0.901435
1.89738
30.7968
-40.9755
-24.8989
16.0425
-2.03895
-34.9226