/*--------------------------------*- C++ -*----------------------------------*\
| =========                 |                                                 |
| \\      /  F ield         | OpenFOAM: The Open Source CFD Toolbox           |
|  \\    /   O peration     | Version:  2.3.1                                 |
|   \\  /    A nd           | Web:      www.OpenFOAM.org                      |
|    \\/     M anipulation  |                                                 |
\*---------------------------------------------------------------------------*/
FoamFile
{
    version     2.0;
    format      ascii;
    class       volVectorField;
    location    "2840";
    object      D;
}
// * * * * * * * * * * * * * * * * * * * * * * * * * * * * * * * * * * * * * //

dimensions      [0 1 0 0 0 0 0];

internalField   nonuniform List<vector> 
11800
(
(8.61663e-06 0.000245654 0)
(-1.08986e-05 0.000273688 0)
(6.06322e-06 8.26668e-05 0)
(-6.92413e-06 0.000112466 0)
(-9.95736e-06 0.000273225 0)
(-4.48829e-06 0.000112687 0)
(-1.65567e-06 0.000184374 0)
(-1.57613e-06 0.000142113 0)
(7.24055e-07 2.17771e-05 0)
(1.31755e-06 8.57457e-05 0)
(9.5679e-06 0.000245073 0)
(-8.62942e-06 9.58605e-05 0)
(-8.47026e-09 -6.74434e-09 0)
(5.38859e-06 8.21675e-05 0)
(-6.14216e-06 0.00011294 0)
(5.92484e-06 1.33573e-05 0)
(-9.29238e-07 0.000183837 0)
(-9.00414e-07 0.000141604 0)
(4.0809e-07 2.20184e-05 0)
(8.12479e-07 8.53208e-05 0)
(-5.28104e-06 0.000112272 0)
(-7.90764e-06 9.62412e-05 0)
(-1.30253e-06 4.71701e-06 0)
(-1.39022e-06 4.91224e-06 0)
(5.28575e-06 1.52584e-05 0)
(-2.08304e-06 7.82389e-06 0)
(-8.45904e-06 5.71999e-05 0)
(1.22715e-05 0.00016525 0)
(-7.53765e-06 4.3388e-05 0)
(-6.52597e-06 3.11963e-05 0)
(1.29967e-05 0.000208918 0)
(5.37738e-08 3.67216e-06 0)
(2.71058e-06 1.00594e-05 0)
(-6.62916e-06 0.000280851 0)
(5.36664e-06 0.000279587 0)
(-1.48176e-05 0.00022311 0)
(4.99893e-06 0.000280551 0)
(2.66767e-06 1.03423e-05 0)
(-1.61891e-06 0.000194735 0)
(1.32075e-06 9.41637e-05 0)
(-8.31737e-06 5.78409e-05 0)
(-7.41895e-06 4.39595e-05 0)
(1.19882e-05 0.000164305 0)
(-6.43086e-06 3.16972e-05 0)
(1.27082e-05 0.000207924 0)
(5.65159e-06 1.34636e-05 0)
(1.49668e-06 5.586e-06 0)
(1.66864e-06 5.49697e-06 0)
(-2.53929e-06 0.000194901 0)
(2.05931e-06 9.42961e-05 0)
(-1.40841e-05 0.000143998 0)
(-1.50428e-05 0.000186271 0)
(-1.39015e-06 0.000243032 0)
(7.54675e-08 3.48473e-06 0)
(-7.26595e-06 1.59093e-05 0)
(9.88011e-07 8.21391e-07 0)
(-1.84905e-05 0.0002847 0)
(-4.65488e-06 7.95862e-05 0)
(5.30726e-06 0.000116008 0)
(-3.38419e-06 7.64567e-05 0)
(1.97217e-06 2.61891e-06 0)
(-2.38774e-06 0.000243214 0)
(-4.04831e-06 7.94065e-05 0)
(4.62713e-06 0.000116222 0)
(4.95097e-06 1.5025e-05 0)
(-1.76532e-05 0.000251702 0)
(-1.46109e-05 0.00014337 0)
(-1.56588e-05 0.000185581 0)
(-1.7563e-05 0.000284241 0)
(-2.18585e-06 8.07799e-06 0)
(-5.91038e-06 0.000281639 0)
(-1.04283e-05 0.000280116 0)
(-1.07312e-05 0.000279121 0)
(-9.3412e-08 1.04684e-07 0)
(2.10601e-06 2.7314e-06 0)
(-1.3958e-05 0.000223735 0)
(6.48679e-06 2.10816e-05 0)
(-1.79395e-05 0.000252642 0)
(-1.4287e-05 0.000254775 0)
(-1.33484e-05 0.000255625 0)
(-6.92661e-06 1.56916e-05 0)
(1.05218e-06 9.77744e-05 0)
(9.81991e-06 0.000277924 0)
(8.76462e-06 0.000278096 0)
(-1.27484e-06 0.000100485 0)
(-6.27148e-06 3.51286e-05 0)
(1.17486e-05 0.00020134 0)
(-7.16087e-06 4.78734e-05 0)
(-7.9759e-06 6.22114e-05 0)
(1.10522e-05 0.000158069 0)
(-3.26996e-07 0.000237782 0)
(2.88145e-06 9.56249e-06 0)
(-8.87731e-06 0.000256415 0)
(1.8334e-05 0.000286877 0)
(2.90386e-06 0.000123907 0)
(-2.25676e-09 -1.71688e-09 0)
(5.83043e-11 -3.6449e-10 0)
(2.25591e-09 -1.71662e-09 0)
(-1.97592e-07 0.000246017 0)
(-8.19277e-06 9.79785e-05 0)
(1.57795e-05 0.000285852 0)
(9.54573e-06 0.000107641 0)
(-3.49705e-06 1.39714e-05 0)
(-7.90048e-07 1.07851e-05 0)
(-5.20699e-07 0.000272001 0)
(9.5814e-07 2.27796e-05 0)
(-2.02156e-06 0.000140036 0)
(-2.1007e-06 0.000182073 0)
(3.06109e-06 5.22051e-06 0)
(7.21136e-06 4.78523e-05 0)
(6.3169e-06 3.51096e-05 0)
(8.03183e-06 6.21874e-05 0)
(-1.19245e-05 0.000201365 0)
(-1.12201e-05 0.000158103 0)
(1.7031e-06 8.40009e-05 0)
(2.42233e-06 4.76029e-06 0)
(1.74872e-05 0.00025273 0)
(-7.16272e-06 0.000259414 0)
(2.46677e-06 4.58661e-06 0)
(-1.20254e-06 8.68111e-05 0)
(-7.21726e-07 2.12026e-05 0)
(1.59309e-06 0.000185728 0)
(1.51252e-06 0.000143326 0)
(-2.21513e-06 0.000178118 0)
(-8.93519e-06 0.000257381 0)
(-7.88706e-07 0.00024525 0)
(-5.74259e-06 0.000272108 0)
(-1.34113e-06 0.00027137 0)
(-1.9843e-05 0.000294119 0)
(-2.05518e-05 0.000293408 0)
(-5.79637e-07 2.61007e-07 0)
(-2.62488e-06 6.17118e-06 0)
(1.2053e-05 0.000195364 0)
(-6.73132e-06 3.84052e-05 0)
(1.12969e-05 0.000152457 0)
(-7.62857e-06 5.15923e-05 0)
(-8.45014e-06 6.63361e-05 0)
(1.11206e-05 0.000195542 0)
(-6.20346e-06 3.82908e-05 0)
(1.04241e-05 0.000152621 0)
(-7.0321e-06 5.14657e-05 0)
(-7.7909e-06 6.61982e-05 0)
(-1.63968e-06 1.96393e-05 0)
(3.90116e-06 0.00018928 0)
(3.64087e-06 0.00014675 0)
(-3.10372e-06 8.96398e-05 0)
(1.50214e-05 9.8384e-05 0)
(-1.4941e-05 9.62407e-05 0)
(9.3896e-06 0.000108421 0)
(-1.10623e-06 1.14445e-05 0)
(-9.88078e-06 0.000236687 0)
(-9.79542e-06 0.000237939 0)
(4.81149e-06 0.00027745 0)
(-1.10493e-05 0.00022342 0)
(4.42088e-06 0.00015799 0)
(4.79549e-06 0.000201234 0)
(-1.23086e-05 0.000177348 0)
(-1.14225e-05 0.000135641 0)
(5.80297e-06 2.51033e-05 0)
(-9.12321e-07 0.000238673 0)
(3.32791e-06 5.31319e-06 0)
(-1.00986e-05 0.00022364 0)
(6.78994e-06 2.13862e-05 0)
(-4.521e-06 6.47477e-05 0)
(-4.07278e-06 5.01485e-05 0)
(-3.58358e-06 3.71193e-05 0)
(6.14743e-06 0.000154434 0)
(6.55101e-06 0.000197482 0)
(-2.9408e-06 3.64997e-06 0)
(-5.32787e-06 2.41507e-05 0)
(1.14715e-05 0.00017931 0)
(1.0638e-05 0.000137481 0)
(2.55496e-06 0.000181873 0)
(-1.6879e-05 0.000222073 0)
(-1.70492e-05 0.000223402 0)
(6.08667e-06 1.5285e-05 0)
(6.09442e-06 1.57059e-05 0)
(6.67367e-06 4.64703e-05 0)
(7.44939e-06 6.06503e-05 0)
(5.82858e-06 3.38936e-05 0)
(-1.05529e-05 0.00016023 0)
(-1.12019e-05 0.00020364 0)
(4.49733e-06 0.000157002 0)
(4.82209e-06 0.000200218 0)
(4.89736e-06 9.58557e-05 0)
(-2.35116e-06 8.94379e-05 0)
(-1.24806e-06 1.97404e-05 0)
(2.9503e-06 0.000189027 0)
(2.75237e-06 0.000146514 0)
(-3.85774e-06 0.000233457 0)
(-1.31152e-06 4.11287e-05 0)
(-1.47847e-06 5.4682e-05 0)
(-1.45275e-05 0.000249769 0)
(-4.03371e-07 9.39361e-06 0)
(-1.40373e-05 0.000117882 0)
(1.21136e-05 7.82221e-05 0)
(1.41716e-07 1.36166e-07 0)
(-8.69919e-06 0.000281298 0)
(1.73652e-05 0.000253746 0)
(-5.05585e-07 3.02947e-07 0)
(1.14352e-05 0.000265935 0)
(1.42869e-05 0.000227334 0)
(1.53236e-05 0.00022752 0)
(-4.58295e-07 0.000273377 0)
(-1.17371e-06 0.000274252 0)
(8.09857e-06 7.63348e-05 0)
(7.15272e-06 7.66719e-05 0)
(-9.57802e-06 0.000119883 0)
(-8.43979e-06 0.000119463 0)
(5.70854e-07 2.5699e-07 0)
(-1.60043e-06 1.37277e-05 0)
(-1.8036e-06 7.65704e-06 0)
(-4.22908e-08 1.59155e-08 0)
(5.48288e-06 9.07092e-06 0)
(-1.31566e-07 4.18057e-08 0)
(7.10375e-07 7.5207e-06 0)
(-9.86559e-06 0.000271942 0)
(-4.79529e-06 3.42877e-05 0)
(-5.47219e-06 4.69329e-05 0)
(-6.10417e-06 6.11704e-05 0)
(9.05558e-06 0.00020283 0)
(8.55065e-06 0.000159485 0)
(5.76736e-07 0.000188678 0)
(5.36017e-07 0.000146184 0)
(-2.58737e-07 1.98813e-05 0)
(-4.9e-07 8.91722e-05 0)
(-1.9307e-07 3.20405e-08 0)
(7.42585e-07 2.48479e-05 0)
(-1.49619e-06 0.000135896 0)
(-4.47935e-06 8.61381e-05 0)
(1.03764e-06 2.44838e-05 0)
(-2.10184e-06 0.000136613 0)
(-6.74625e-06 0.000257346 0)
(8.34839e-06 9.65559e-05 0)
(7.77737e-06 9.58166e-05 0)
(4.20691e-08 1.58272e-08 0)
(1.92592e-07 3.19393e-08 0)
(-1.30716e-05 0.000239553 0)
(-1.25755e-05 0.000240567 0)
(-1.23725e-05 8.1808e-05 0)
(1.38985e-05 0.000113692 0)
(1.1111e-05 0.000203554 0)
(1.04642e-05 0.000160153 0)
(-5.8301e-06 3.39434e-05 0)
(-6.67787e-06 4.65235e-05 0)
(-7.45394e-06 6.07097e-05 0)
(-4.11434e-07 0.00024427 0)
(-4.92402e-06 2.31072e-05 0)
(1.08442e-05 0.000181547 0)
(1.00716e-05 0.000139557 0)
(6.66597e-06 9.75616e-05 0)
(5.61186e-06 0.000230378 0)
(8.81859e-06 0.000287221 0)
(9.0965e-07 7.41186e-06 0)
(-3.28694e-06 7.72395e-05 0)
(-9.80739e-09 2.7441e-06 0)
(1.31074e-07 4.16381e-08 0)
(3.15178e-06 8.14869e-05 0)
(2.71132e-06 8.06387e-05 0)
(-3.43235e-06 0.0001139 0)
(-2.94189e-06 0.000114739 0)
(6.08643e-06 6.11519e-05 0)
(5.45659e-06 4.69164e-05 0)
(4.77056e-06 3.42791e-05 0)
(-8.58951e-06 0.000159486 0)
(-9.12224e-06 0.000202856 0)
(-4.83656e-06 0.000281382 0)
(1.66122e-06 2.02691e-06 0)
(-7.51317e-09 0.000161961 0)
(-1.9665e-08 3.28276e-05 0)
(6.40942e-06 0.00027152 0)
(5.23528e-06 9.5164e-05 0)
(-2.03483e-05 0.000268306 0)
(6.01733e-06 9.82636e-05 0)
(2.37137e-07 1.74093e-07 0)
(1.67249e-05 0.000219333 0)
(1.68215e-05 0.000218102 0)
(-1.02481e-05 0.000139734 0)
(-1.10331e-05 0.000181732 0)
(-9.15625e-06 0.000139383 0)
(-9.86023e-06 0.000181357 0)
(4.95966e-06 2.30223e-05 0)
(4.44628e-06 2.31743e-05 0)
(4.97648e-06 0.000128383 0)
(5.92104e-06 0.000128234 0)
(5.39615e-06 0.00016949 0)
(6.42284e-06 0.000169327 0)
(-2.76743e-06 2.88793e-05 0)
(-3.29557e-06 2.8973e-05 0)
(-5.82963e-07 1.30116e-05 0)
(2.93165e-06 8.30595e-06 0)
(2.74457e-06 8.01911e-06 0)
(2.80254e-06 6.07201e-06 0)
(4.79718e-06 0.000231367 0)
(-1.66078e-05 0.000219736 0)
(-1.66966e-05 0.000218459 0)
(6.28614e-06 1.70681e-05 0)
(6.16269e-06 1.65825e-05 0)
(1.3179e-05 9.84053e-05 0)
(1.33564e-05 9.9506e-05 0)
(-1.30999e-05 9.61646e-05 0)
(-1.31692e-05 9.50819e-05 0)
(5.93781e-06 0.000277265 0)
(-1.62986e-05 0.000280877 0)
(-1.56669e-05 0.000236485 0)
(3.71022e-06 4.19438e-06 0)
(-9.57661e-06 0.000277356 0)
(-8.55236e-06 0.000276406 0)
(4.04727e-06 0.000129848 0)
(-2.52117e-06 0.000116722 0)
(2.23163e-06 7.8979e-05 0)
(-1.12357e-05 9.87718e-05 0)
(1.09933e-05 9.57044e-05 0)
(-5.35004e-06 1.67732e-05 0)
(-1.57545e-07 1.00099e-07 0)
(8.44844e-07 3.4516e-06 0)
(9.99841e-07 8.42665e-05 0)
(-9.4637e-06 8.48627e-05 0)
(1.01661e-05 0.000110052 0)
(-5.45335e-06 7.72706e-05 0)
(6.46247e-06 0.000118761 0)
(3.26575e-06 0.000206721 0)
(4.50929e-06 0.000206276 0)
(-1.94008e-06 4.45648e-05 0)
(-2.67644e-06 4.4833e-05 0)
(-2.17294e-06 5.85355e-05 0)
(-2.99623e-06 5.88343e-05 0)
(5.13912e-07 2.2624e-05 0)
(-1.1079e-06 0.00014035 0)
(-1.12174e-06 0.000182429 0)
(-1.81123e-06 0.000267008 0)
(2.56297e-06 6.03333e-06 0)
(-5.14976e-07 0.000113733 0)
(-7.74223e-06 0.000273701 0)
(1.06472e-06 8.52091e-07 0)
(6.90961e-06 0.000162735 0)
(-3.76698e-06 3.24674e-05 0)
(-1.17067e-05 0.000114936 0)
(-1.09954e-05 0.000114363 0)
(1.02315e-05 8.06575e-05 0)
(9.64411e-06 8.11465e-05 0)
(-1.15919e-05 0.000285414 0)
(-1.17195e-05 0.000284189 0)
(-1.92226e-06 1.30931e-05 0)
(-2.279e-06 1.30436e-05 0)
(9.24999e-07 3.61743e-06 0)
(-2.19462e-06 3.75406e-06 0)
(5.39123e-07 0.000119336 0)
(3.36378e-06 2.34409e-05 0)
(2.82797e-06 2.35899e-05 0)
(-6.89092e-06 0.000138774 0)
(-5.7787e-06 0.000138447 0)
(-7.42269e-06 0.00018071 0)
(-6.22589e-06 0.00018036 0)
(-1.50331e-05 0.000228869 0)
(-1.39118e-05 0.00022896 0)
(-3.30573e-06 6.91475e-05 0)
(-3.0575e-06 5.41102e-05 0)
(-2.71003e-06 4.06224e-05 0)
(4.74483e-06 0.000213567 0)
(-8.21586e-07 0.0002419 0)
(9.89015e-06 9.56124e-05 0)
(9.36383e-06 9.64422e-05 0)
(4.37689e-06 0.000184769 0)
(4.18676e-06 0.000142493 0)
(-1.98487e-06 2.16102e-05 0)
(1.86084e-06 2.41942e-05 0)
(1.53037e-06 2.46649e-05 0)
(-3.41377e-06 0.000178083 0)
(-4.06006e-06 0.000179001 0)
(-3.76237e-06 0.000137204 0)
(-3.06764e-06 0.000136267 0)
(-3.94473e-06 2.21807e-05 0)
(8.24457e-06 0.000141398 0)
(8.86523e-06 0.000183532 0)
(-1.07622e-07 1.02287e-06 0)
(1.4704e-05 0.00010909 0)
(-1.35278e-05 8.59982e-05 0)
(-6.0623e-08 9.51638e-07 0)
(-4.43977e-06 0.000203512 0)
(-5.20548e-06 0.000204631 0)
(-4.07448e-06 0.000160193 0)
(-4.77012e-06 0.000161253 0)
(2.59533e-06 3.32587e-05 0)
(2.23488e-06 3.38423e-05 0)
(3.06526e-06 4.58144e-05 0)
(2.62989e-06 4.64799e-05 0)
(3.42531e-06 5.99295e-05 0)
(2.93547e-06 6.06725e-05 0)
(1.65617e-05 0.000229311 0)
(1.68703e-05 0.000230477 0)
(-1.56601e-06 7.71962e-06 0)
(6.21255e-06 0.000163545 0)
(-3.36394e-06 3.20194e-05 0)
(5.45788e-06 2.53192e-05 0)
(-1.06931e-05 0.000135192 0)
(-1.15501e-05 0.000176838 0)
(-1.53387e-07 4.65614e-08 0)
(2.14531e-06 0.000238987 0)
(5.3898e-06 2.41555e-05 0)
(-1.08418e-05 0.000137476 0)
(-1.17018e-05 0.000179266 0)
(4.10138e-06 7.05065e-06 0)
(-8.18669e-06 0.000259041 0)
(5.17436e-06 1.92808e-05 0)
(-1.29225e-05 0.000212646 0)
(-2.77206e-06 1.03669e-05 0)
(-2.95724e-06 1.07473e-05 0)
(2.89807e-06 1.06351e-05 0)
(-1.40299e-06 0.000113557 0)
(-1.08178e-08 -7.96197e-09 0)
(-8.6929e-06 0.000283849 0)
(-1.37524e-07 5.46724e-08 0)
(1.52747e-07 4.6351e-08 0)
(-4.04924e-06 2.33991e-05 0)
(8.84761e-06 0.000180844 0)
(8.21304e-06 0.0001389 0)
(6.81334e-06 0.000239363 0)
(-1.95922e-05 0.000256822 0)
(2.50791e-06 0.000106289 0)
(-1.6227e-06 0.00010351 0)
(-4.46686e-07 1.08478e-05 0)
(-1.25322e-06 1.31186e-06 0)
(-7.80922e-09 -7.03259e-09 0)
(-4.89218e-06 7.79923e-05 0)
(5.79296e-06 0.00011793 0)
(4.26058e-07 1.49149e-07 0)
(-6.56354e-07 0.000101985 0)
(-6.19535e-07 0.000100999 0)
(-2.14063e-08 8.56106e-05 0)
(-1.19155e-07 2.18856e-05 0)
(2.12453e-07 0.000141879 0)
(1.89916e-07 0.000184201 0)
(-4.28343e-07 1.50023e-07 0)
(1.75285e-06 1.17339e-05 0)
(-6.76608e-06 0.00020918 0)
(3.87341e-06 4.31524e-05 0)
(4.34852e-06 5.69502e-05 0)
(4.78004e-06 7.22544e-05 0)
(1.42019e-05 0.000272452 0)
(-5.24792e-06 2.09331e-05 0)
(1.21792e-05 0.000186496 0)
(1.13496e-05 0.000144166 0)
(-8.06103e-06 0.000251307 0)
(1.18063e-06 3.01765e-06 0)
(1.08547e-05 0.000246637 0)
(-2.34327e-06 3.69746e-06 0)
(7.6041e-06 0.000273536 0)
(-5.83337e-06 0.000209202 0)
(3.33426e-06 4.31338e-05 0)
(3.74338e-06 5.69305e-05 0)
(4.11755e-06 7.22289e-05 0)
(1.03129e-06 2.85982e-06 0)
(5.01083e-06 0.000167691 0)
(-2.61535e-06 2.9805e-05 0)
(-8.88143e-07 1.1685e-05 0)
(-1.42626e-05 0.000247514 0)
(-5.31325e-06 6.49876e-05 0)
(-4.78801e-06 5.03664e-05 0)
(-4.21464e-06 3.73132e-05 0)
(7.17624e-06 0.000154181 0)
(7.64829e-06 0.000197212 0)
(1.9575e-05 0.000288762 0)
(1.13942e-05 0.000253394 0)
(1.26333e-05 0.000252959 0)
(1.60244e-07 1.12246e-07 0)
(7.09055e-06 7.75564e-05 0)
(-8.30625e-06 0.000118411 0)
(-3.61613e-06 7.8664e-05 0)
(4.21503e-06 0.000117177 0)
(-1.22134e-06 0.00012622 0)
(-9.28821e-07 0.000204842 0)
(5.85556e-07 5.97746e-05 0)
(5.24029e-07 4.56731e-05 0)
(2.8432e-08 3.21511e-05 0)
(-2.06105e-07 0.000122655 0)
(-9.50629e-08 0.000163244 0)
(8.95703e-06 0.000288372 0)
(5.09278e-07 1.20353e-05 0)
(-2.22114e-07 2.7845e-06 0)
(1.71337e-06 0.000173309 0)
(8.63908e-08 2.8797e-06 0)
(-1.33187e-06 8.99082e-06 0)
(3.32562e-06 3.20729e-05 0)
(-6.26542e-06 0.000163438 0)
(-1.25257e-07 1.38294e-07 0)
(-1.32107e-05 0.000247399 0)
(-1.10602e-06 2.14677e-05 0)
(2.34143e-06 0.000185184 0)
(2.32282e-06 0.000142769 0)
(2.99655e-07 7.17715e-08 0)
(-3.93427e-06 7.167e-06 0)
(4.32963e-06 5.83605e-05 0)
(3.86528e-06 4.44117e-05 0)
(-6.6541e-06 0.00020702 0)
(1.28352e-06 8.1087e-05 0)
(-8.93937e-06 0.000280195 0)
(-1.50603e-07 2.10713e-08 0)
(-5.14821e-06 1.12087e-05 0)
(3.33654e-06 6.17401e-06 0)
(-3.36494e-06 3.69546e-06 0)
(9.95686e-06 9.73634e-05 0)
(7.56748e-06 0.000118434 0)
(-6.50905e-06 7.75298e-05 0)
(4.65046e-07 3.18229e-05 0)
(-1.08635e-06 0.00012312 0)
(-9.09955e-07 0.000163852 0)
(9.49441e-06 0.000243834 0)
(8.84648e-06 0.00010664 0)
(4.59922e-06 0.00028236 0)
(4.43054e-06 0.000283414 0)
(1.28306e-06 0.000117882 0)
(1.75385e-06 8.04798e-05 0)
(1.5022e-07 2.10016e-08 0)
(-1.27679e-05 0.00022109 0)
(4.6544e-06 1.60007e-05 0)
(1.60891e-08 2.21366e-07 0)
(2.44033e-06 0.000157912 0)
(3.19034e-06 0.00015846 0)
(4.37985e-09 1.92936e-08 0)
(-2.44951e-06 5.97374e-06 0)
(6.06288e-06 5.93371e-05 0)
(5.4208e-06 4.52896e-05 0)
(4.7244e-06 3.28049e-05 0)
(-8.69923e-06 0.000161972 0)
(-9.22499e-06 0.000205578 0)
(8.04309e-06 0.000101495 0)
(1.17058e-06 0.000239243 0)
(-5.20454e-06 0.00026979 0)
(-4.92786e-06 0.000271213 0)
(-5.07011e-07 0.00020816 0)
(-4.35498e-07 0.000209303 0)
(3.5297e-07 4.30366e-05 0)
(3.21616e-07 4.36729e-05 0)
(3.96103e-07 5.68253e-05 0)
(3.60476e-07 5.75384e-05 0)
(2.58857e-07 7.21156e-05 0)
(3.10316e-07 7.28777e-05 0)
(6.29799e-07 0.000118275 0)
(1.15934e-06 0.000120173 0)
(2.01652e-06 0.000183031 0)
(-5.17532e-07 0.00012591 0)
(-3.00475e-07 7.20122e-08 0)
(-3.35671e-07 2.65558e-06 0)
(4.41311e-06 0.000166801 0)
(-2.32503e-06 3.02668e-05 0)
(1.17441e-06 3.68637e-06 0)
(1.72393e-05 0.000273791 0)
(-1.31916e-06 0.000210216 0)
(8.14711e-07 4.25527e-05 0)
(9.15396e-07 5.62823e-05 0)
(9.01493e-07 7.14857e-05 0)
(-1.3183e-05 0.000230052 0)
(4.54525e-06 8.23996e-05 0)
(6.72079e-06 0.000290613 0)
(7.60095e-06 0.000289966 0)
(-1.32377e-06 9.27044e-06 0)
(-8.42275e-07 0.000161112 0)
(4.3886e-07 3.32956e-05 0)
(1.96852e-07 2.01272e-07 0)
(1.69159e-05 0.000281515 0)
(-2.33495e-07 4.69054e-06 0)
(-3.19351e-06 4.82875e-05 0)
(-3.55495e-06 6.26836e-05 0)
(-4.25305e-06 6.33413e-05 0)
(-3.8242e-06 4.88805e-05 0)
(-2.76723e-06 3.54656e-05 0)
(-3.34683e-06 3.60016e-05 0)
(5.59478e-06 0.000156361 0)
(5.95797e-06 0.000199542 0)
(2.44687e-06 3.34527e-06 0)
(-1.57639e-07 9.58689e-08 0)
(-1.46057e-05 0.000190424 0)
(-1.52155e-05 0.000280941 0)
(4.9633e-06 0.000120079 0)
(-4.29163e-07 4.7997e-06 0)
(-7.90558e-06 0.000156077 0)
(-8.41266e-06 0.00019923 0)
(4.52116e-06 3.62202e-05 0)
(5.14767e-06 4.91245e-05 0)
(5.72222e-06 6.36087e-05 0)
(7.32187e-06 0.000240158 0)
(1.66335e-05 0.000282515 0)
(-8.97136e-06 9.82374e-05 0)
(3.70393e-06 3.24587e-05 0)
(-6.94723e-06 0.000162728 0)
(4.74889e-06 0.000121012 0)
(-1.809e-06 8.62789e-05 0)
(4.79529e-06 5.88573e-05 0)
(4.28431e-06 4.48571e-05 0)
(-7.33414e-06 0.000206274 0)
(-1.33355e-05 9.93648e-05 0)
(1.30011e-05 9.52771e-05 0)
(1.30005e-05 9.63385e-05 0)
(-1.31607e-05 9.82377e-05 0)
(-6.18115e-06 1.65734e-05 0)
(-6.36185e-06 1.70884e-05 0)
(-6.18829e-06 9.6324e-05 0)
(-3.17103e-06 3.78394e-06 0)
(-1.00093e-05 9.70621e-05 0)
(-1.46503e-06 0.000231385 0)
(-1.29778e-06 1.55721e-06 0)
(1.00624e-05 5.66524e-05 0)
(8.95961e-06 4.29066e-05 0)
(-1.41686e-05 0.000145252 0)
(2.28924e-06 5.88937e-05 0)
(2.04554e-06 4.48855e-05 0)
(-3.52304e-06 0.000206181 0)
(4.72584e-06 1.42971e-05 0)
(7.8277e-06 0.000117476 0)
(-6.77891e-06 7.83616e-05 0)
(-3.74165e-06 4.21378e-06 0)
(4.0167e-06 0.000183763 0)
(3.83962e-06 0.000141594 0)
(-1.84171e-06 2.20362e-05 0)
(1.16547e-05 0.000173536 0)
(-5.73113e-06 2.69284e-05 0)
(1.07637e-05 0.000132137 0)
(-6.5388e-06 1.63534e-05 0)
(8.21042e-06 0.000270332 0)
(9.41725e-06 0.000269937 0)
(9.07284e-06 0.000205584 0)
(8.60057e-06 0.000161989 0)
(-4.7158e-06 3.28984e-05 0)
(-5.38492e-06 4.52845e-05 0)
(-6.02324e-06 5.93317e-05 0)
(-1.36715e-06 1.35006e-06 0)
(-7.21433e-06 0.00025105 0)
(7.87163e-06 0.000160194 0)
(-4.3833e-06 3.3884e-05 0)
(-8.30967e-07 1.0373e-06 0)
(6.72437e-06 0.000273358 0)
(1.6505e-06 1.35885e-06 0)
(1.36916e-06 1.03049e-06 0)
(3.46479e-06 4.94296e-06 0)
(8.1311e-06 0.000219756 0)
(-1.37766e-05 0.000225801 0)
(1.83322e-05 0.00027414 0)
(3.50876e-06 5.19575e-06 0)
(8.05518e-06 0.000106607 0)
(1.10359e-05 0.000232997 0)
(-1.77392e-05 0.000220324 0)
(6.54299e-06 1.63893e-05 0)
(-4.07545e-06 0.00023446 0)
(1.65783e-06 5.90764e-05 0)
(1.48183e-06 4.50485e-05 0)
(-2.55984e-06 0.000205899 0)
(-6.17935e-07 2.97461e-06 0)
(4.70427e-06 0.000126687 0)
(1.36121e-07 5.41132e-08 0)
(-5.4428e-06 1.11007e-05 0)
(-9.61839e-07 0.000104152 0)
(-2.43448e-06 2.01357e-05 0)
(-2.83307e-06 2.02684e-05 0)
(5.34998e-06 0.000145689 0)
(6.21136e-06 0.000145418 0)
(6.66028e-06 0.00018785 0)
(5.73583e-06 0.000188141 0)
(1.60303e-07 5.99878e-07 0)
(-4.19538e-08 7.4871e-06 0)
(-9.62531e-06 0.00013091 0)
(-1.04316e-05 0.00017221 0)
(5.1548e-06 2.7564e-05 0)
(-3.0378e-06 1.64209e-05 0)
(-1.80687e-06 0.000177063 0)
(-2.75501e-06 7.04119e-06 0)
(5.62389e-06 0.000270764 0)
(-4.54347e-06 8.87233e-05 0)
(-5.26389e-06 8.85001e-05 0)
(1.57015e-07 1.59319e-07 0)
(-3.01124e-06 9.17581e-05 0)
(-1.53158e-06 1.85263e-05 0)
(3.50817e-06 0.000149256 0)
(3.75233e-06 0.00019196 0)
(-4.21907e-06 0.000177092 0)
(-3.71459e-06 0.000135357 0)
(1.87612e-06 2.51346e-05 0)
(2.50048e-06 9.44654e-06 0)
(2.32245e-06 9.10375e-06 0)
(1.2056e-06 8.84645e-05 0)
(-1.57357e-06 0.000187781 0)
(-1.47539e-06 0.000145328 0)
(6.5076e-07 2.02729e-05 0)
(-1.44678e-06 3.49044e-05 0)
(-2.59437e-06 7.2376e-06 0)
(1.04797e-05 0.000277125 0)
(-1.02337e-05 0.000165789 0)
(7.88798e-06 7.80524e-05 0)
(-9.19924e-06 0.000117854 0)
(1.11709e-05 0.000234048 0)
(-1.02853e-05 7.17479e-05 0)
(-9.36952e-06 5.64846e-05 0)
(1.25587e-05 0.000125445 0)
(-8.33946e-06 4.27541e-05 0)
(-7.2194e-06 3.06652e-05 0)
(1.37086e-05 0.000166306 0)
(1.44894e-05 0.000210088 0)
(-3.767e-06 0.00020104 0)
(-3.54511e-06 0.000157774 0)
(2.26262e-06 4.7976e-05 0)
(1.98323e-06 3.52043e-05 0)
(2.51943e-06 6.23386e-05 0)
(2.16368e-06 4.86654e-05 0)
(-3.57808e-06 0.000199914 0)
(2.40662e-06 6.3105e-05 0)
(1.89928e-06 3.58097e-05 0)
(-3.36519e-06 0.000156715 0)
(-1.99027e-06 0.000254995 0)
(-4.04401e-06 5.30256e-06 0)
(-4.3811e-06 2.48971e-05 0)
(9.27129e-06 0.000177648 0)
(8.58748e-06 0.000135936 0)
(-2.75278e-06 3.35228e-05 0)
(4.99184e-06 0.000160808 0)
(1.37545e-05 0.000199205 0)
(1.29227e-05 0.000156066 0)
(-7.46163e-06 3.63158e-05 0)
(-8.49558e-06 4.92177e-05 0)
(-9.44288e-06 6.36998e-05 0)
(1.44921e-05 0.000217412 0)
(1.58176e-05 0.000217135 0)
(3.55719e-07 6.38956e-06 0)
(-1.46576e-06 0.000102449 0)
(-3.91435e-06 1.08214e-05 0)
(2.00489e-07 3.73922e-07 0)
(-3.85255e-06 1.37429e-05 0)
(-6.17692e-07 0.000231847 0)
(1.59925e-07 6.11496e-06 0)
(-3.18659e-06 0.000109782 0)
(1.31411e-05 0.000145338 0)
(-5.98823e-06 2.04389e-05 0)
(1.40898e-05 0.000187748 0)
(-1.3257e-08 -9.18834e-09 0)
(8.75086e-07 0.000173474 0)
(2.51958e-07 1.0592e-07 0)
(1.7195e-07 1.26812e-07 0)
(2.3312e-06 0.000124656 0)
(-2.8785e-07 2.32841e-07 0)
(1.071e-05 0.000279197 0)
(7.97353e-07 0.000158415 0)
(-4.29865e-07 3.47985e-05 0)
(2.3455e-06 1.39888e-05 0)
(1.47236e-06 0.000157922 0)
(-8.33051e-07 3.50527e-05 0)
(-1.41777e-07 3.0979e-06 0)
(-1.00612e-05 5.66238e-05 0)
(-8.95711e-06 4.28814e-05 0)
(-7.75529e-06 3.07845e-05 0)
(-6.45142e-06 2.04885e-05 0)
(1.41459e-05 0.000145283 0)
(1.47024e-05 0.000166124 0)
(1.51675e-05 0.000187685 0)
(1.55456e-05 0.000209897 0)
(-6.88652e-06 0.000226468 0)
(-6.11967e-06 0.000269265 0)
(-1.97695e-05 0.000222332 0)
(7.13738e-06 1.56959e-05 0)
(4.50901e-06 0.000285468 0)
(5.24543e-06 0.000284237 0)
(1.40094e-06 0.000154425 0)
(1.51924e-06 0.000197497 0)
(-1.08639e-06 6.48234e-05 0)
(-9.78577e-07 5.0213e-05 0)
(-8.60862e-07 3.71718e-05 0)
(-5.67561e-06 1.63965e-05 0)
(2.06599e-06 1.17573e-05 0)
(-7.672e-06 6.79114e-05 0)
(1.01276e-05 0.000150302 0)
(-6.93966e-06 5.30149e-05 0)
(-6.13956e-06 3.9661e-05 0)
(1.08216e-05 0.000193068 0)
(-4.31249e-06 1.81707e-05 0)
(1.09579e-05 0.000215457 0)
(1.8431e-06 9.81258e-05 0)
(-1.15326e-06 0.000240681 0)
(1.13549e-06 5.66655e-07 0)
(-8.45189e-07 0.000211328 0)
(5.39607e-07 4.19187e-05 0)
(6.06851e-07 5.55706e-05 0)
(5.63145e-07 7.07013e-05 0)
(3.42718e-06 0.000249352 0)
(-4.70633e-07 2.98244e-07 0)
(1.73875e-05 0.000245358 0)
(-2.61714e-06 0.000104003 0)
(-7.94304e-08 1.70582e-07 0)
(6.21971e-06 0.000147963 0)
(-2.74808e-06 1.91198e-05 0)
(6.65731e-06 0.000190575 0)
(1.37189e-07 1.06964e-07 0)
(-3.68873e-06 2.30689e-05 0)
(7.53776e-06 0.000139548 0)
(8.11635e-06 0.000181543 0)
(1.2808e-06 1.67927e-06 0)
(-5.30098e-06 9.06832e-05 0)
(1.11765e-06 9.6963e-05 0)
(-1.2046e-05 0.000262234 0)
(1.10689e-06 0.000155266 0)
(1.18e-06 0.000198373 0)
(-9.17918e-07 6.4199e-05 0)
(-7.24346e-07 3.66781e-05 0)
(-8.2607e-07 4.96498e-05 0)
(1.78503e-06 9.88516e-05 0)
(-2.52152e-07 9.58314e-07 0)
(-2.23429e-07 3.26029e-06 0)
(5.25202e-07 0.000231469 0)
(1.18586e-05 0.000106292 0)
(-1.11347e-05 8.85077e-05 0)
(-8.45575e-06 0.000293455 0)
(-1.91905e-05 0.000191741 0)
(-1.79483e-05 0.000149083 0)
(-1.86245e-05 0.000170055 0)
(-1.71589e-05 0.000128949 0)
(9.43145e-06 2.88405e-05 0)
(1.09582e-05 4.06123e-05 0)
(1.23606e-05 5.40577e-05 0)
(1.36437e-05 6.90368e-05 0)
(1.91477e-05 0.000191738 0)
(1.8582e-05 0.000170055 0)
(-9.4532e-06 2.88417e-05 0)
(-1.09836e-05 4.06143e-05 0)
(1.79058e-05 0.000149083 0)
(-1.23903e-05 5.40591e-05 0)
(1.71193e-05 0.000128948 0)
(-1.36768e-05 6.90385e-05 0)
(-5.46284e-06 1.59382e-05 0)
(-2.97784e-06 0.000240169 0)
(-2.12462e-06 0.00023994 0)
(-2.64289e-06 0.000272019 0)
(4.37533e-06 0.000164744 0)
(-2.34997e-06 3.13587e-05 0)
(-8.44488e-07 1.24514e-06 0)
(-3.41882e-06 0.000287498 0)
(-3.7535e-06 6.18559e-05 0)
(-4.59757e-06 6.1623e-05 0)
(-3.36803e-06 4.75436e-05 0)
(-4.12411e-06 4.73359e-05 0)
(5.54339e-06 0.000202111 0)
(6.65913e-06 0.000202205 0)
(1.46406e-05 0.000198688 0)
(1.37509e-05 0.000155582 0)
(-7.97347e-06 3.66148e-05 0)
(-9.07199e-06 4.95543e-05 0)
(-1.00784e-05 6.40709e-05 0)
(-8.87112e-06 0.000131372 0)
(-9.61075e-06 0.000172712 0)
(4.724e-06 2.73008e-05 0)
(-2.79161e-06 0.000117655 0)
(2.36273e-06 7.81827e-05 0)
(2.88567e-06 0.000207833 0)
(-1.69645e-06 4.38423e-05 0)
(-1.90257e-06 5.77274e-05 0)
(-2.06054e-06 7.29565e-05 0)
(5.47337e-06 7.72511e-05 0)
(4.6373e-06 7.74486e-05 0)
(-6.43606e-06 0.000118733 0)
(-5.45033e-06 0.000118489 0)
(-6.4779e-06 0.000285344 0)
(4.37069e-07 1.19543e-06 0)
(1.07623e-05 0.000245626 0)
(3.87813e-06 8.58076e-05 0)
(1.05516e-05 0.000169876 0)
(-5.37517e-06 2.87465e-05 0)
(9.7185e-06 0.000128757 0)
(-9.05056e-06 0.00010289 0)
(2.19743e-06 2.17623e-05 0)
(-5.0515e-06 0.000184376 0)
(-4.70273e-06 0.00014218 0)
(6.24684e-07 8.92817e-05 0)
(-7.8602e-07 0.000146298 0)
(-8.35702e-07 0.000188816 0)
(3.33559e-07 1.98293e-05 0)
(6.09355e-06 8.0858e-05 0)
(-6.95857e-06 0.000114566 0)
(-3.33225e-06 0.000254991 0)
(-1.54145e-05 0.000252552 0)
(2.75173e-06 0.000109287 0)
(6.91629e-06 0.000109631 0)
(-5.61924e-06 2.11497e-05 0)
(1.29769e-05 0.000186034 0)
(1.20894e-05 0.000143738 0)
(-6.23936e-07 2.64473e-06 0)
(-2.08967e-06 0.000212797 0)
(1.15897e-06 4.10771e-05 0)
(1.30591e-06 5.46241e-05 0)
(1.4299e-06 6.96686e-05 0)
(-3.19213e-06 0.000103495 0)
(-1.42885e-05 0.000252637 0)
(-4.12163e-06 4.11269e-05 0)
(-4.64532e-06 5.46746e-05 0)
(-5.10688e-06 6.97518e-05 0)
(7.2764e-06 0.000212723 0)
(1.32913e-08 1.73336e-08 0)
(8.95492e-06 0.000102065 0)
(1.13999e-07 7.98135e-06 0)
(-4.2677e-07 7.43186e-07 0)
(-8.8647e-07 3.4225e-06 0)
(-4.24354e-06 1.46561e-05 0)
(-4.35821e-07 1.60173e-07 0)
(1.76336e-06 4.64313e-05 0)
(1.54773e-06 3.3827e-05 0)
(1.96828e-06 6.06196e-05 0)
(-2.99262e-06 0.000203581 0)
(-2.8345e-06 0.000160208 0)
(-8.71154e-06 8.46795e-05 0)
(9.4305e-06 0.00011029 0)
(-8.63759e-07 5.08318e-07 0)
(1.14431e-05 0.000270424 0)
(8.25218e-06 0.000241927 0)
(-1.75937e-05 0.000227713 0)
(6.51339e-06 0.000108784 0)
(2.34547e-06 0.000118152 0)
(-4.43304e-06 0.000287368 0)
(-1.23307e-05 0.000123786 0)
(-1.17292e-05 0.00012324 0)
(1.73617e-05 0.000287283 0)
(-1.39557e-06 0.000256262 0)
(-3.90675e-06 7.78672e-05 0)
(4.68274e-06 0.000118129 0)
(1.41649e-07 8.26129e-06 0)
(2.15852e-06 2.91889e-06 0)
(4.32766e-07 1.58965e-07 0)
(4.13888e-06 0.00012586 0)
(1.53007e-05 0.000293181 0)
(-8.39298e-06 0.000203617 0)
(-7.90023e-06 0.000160203 0)
(4.35613e-06 3.38679e-05 0)
(5.57352e-06 6.06339e-05 0)
(4.99294e-06 4.64502e-05 0)
(-1.58765e-07 1.10979e-07 0)
(-6.34685e-07 0.000266733 0)
(7.84322e-06 0.000109954 0)
(-7.14775e-06 8.511e-05 0)
(-1.25728e-05 0.000260264 0)
(-1.87709e-05 0.000192723 0)
(-1.82211e-05 0.000171003 0)
(-1.75673e-05 0.000149999 0)
(-1.68004e-05 0.000129825 0)
(9.14414e-06 2.8346e-05 0)
(1.06415e-05 4.00411e-05 0)
(1.2017e-05 5.34155e-05 0)
(1.32759e-05 6.83296e-05 0)
(1.87263e-05 0.000192716 0)
(1.81787e-05 0.000171003 0)
(-9.1652e-06 2.83492e-05 0)
(-1.06657e-05 4.00445e-05 0)
(1.75226e-05 0.000149996 0)
(-1.20453e-05 5.34186e-05 0)
(1.67592e-05 0.00012982 0)
(-1.33074e-05 6.83332e-05 0)
(-2.74988e-06 3.69013e-06 0)
(1.08153e-06 1.01655e-06 0)
(-1.44788e-06 2.64794e-06 0)
(6.98263e-06 0.000107887 0)
(-7.67549e-06 0.000111089 0)
(1.37967e-06 1.66119e-06 0)
(-2.14179e-07 3.571e-08 0)
(-1.69185e-05 0.000228263 0)
(9.67597e-06 0.000290223 0)
(1.08597e-05 0.000290771 0)
(2.1371e-07 3.56111e-08 0)
(3.10653e-06 4.1403e-06 0)
(1.51579e-05 0.000264196 0)
(-5.77105e-06 0.000122804 0)
(-3.79649e-07 3.32345e-07 0)
(-8.5915e-07 1.33281e-06 0)
(-1.34236e-07 3.42756e-08 0)
(2.51419e-07 1.95308e-07 0)
(1.56787e-05 9.78899e-05 0)
(-1.56551e-05 9.67586e-05 0)
(4.80592e-06 7.38367e-05 0)
(-5.91503e-06 0.000120559 0)
(4.9901e-06 7.5731e-05 0)
(-2.59918e-07 4.41545e-06 0)
(-3.64451e-06 0.000192683 0)
(2.87629e-06 9.23637e-05 0)
(-2.03665e-06 0.000190592 0)
(-1.94905e-06 0.000147868 0)
(8.37486e-07 1.91296e-05 0)
(1.57835e-06 9.06904e-05 0)
(-6.43577e-06 0.000122178 0)
(3.31067e-06 4.38651e-06 0)
(5.38384e-06 7.43936e-05 0)
(1.99593e-06 0.000109454 0)
(1.52331e-05 0.000272838 0)
(-4.64963e-06 0.000110356 0)
(-5.34517e-06 0.000111106 0)
(-4.34691e-06 9.28908e-06 0)
(-5.18375e-06 0.000114631 0)
(-4.43398e-06 0.000113837 0)
(4.60545e-06 8.07252e-05 0)
(4.04474e-06 8.15204e-05 0)
(-4.87081e-06 2.2585e-05 0)
(1.00908e-05 0.000140628 0)
(1.08563e-05 0.0001827 0)
(-1.34761e-06 1.49966e-06 0)
(-6.44775e-06 0.000121199 0)
(5.42131e-06 7.52228e-05 0)
(-4.11135e-06 0.00015591 0)
(-4.37484e-06 0.000199058 0)
(2.34314e-06 3.62786e-05 0)
(2.96413e-06 6.36951e-05 0)
(2.66703e-06 4.91974e-05 0)
(-2.1459e-06 1.00324e-05 0)
(-1.3461e-05 0.000164413 0)
(-1.27563e-05 0.000163894 0)
(7.13848e-06 3.16583e-05 0)
(6.7901e-06 3.19328e-05 0)
(8.86279e-06 0.000130528 0)
(9.74471e-06 0.000129886 0)
(-4.80756e-06 2.7757e-05 0)
(-5.32286e-06 2.81242e-05 0)
(9.60898e-06 0.000171799 0)
(1.05705e-05 0.000171101 0)
(-3.87519e-06 0.000254055 0)
(7.71401e-06 0.000231998 0)
(7.82517e-06 0.000230916 0)
(-5.72761e-06 7.57381e-05 0)
(6.70752e-06 0.000120529 0)
(-2.02639e-05 0.000283061 0)
(-5.83839e-06 0.000225822 0)
(-5.60718e-06 0.000224764 0)
(1.95257e-06 1.45744e-05 0)
(2.00692e-06 1.42035e-05 0)
(1.74794e-05 0.000228331 0)
(-7.74721e-06 9.71491e-05 0)
(-6.65186e-06 9.71828e-05 0)
(1.72931e-05 0.000257797 0)
(-1.75026e-05 0.000271763 0)
(-1.748e-05 0.000273057 0)
(-5.37747e-07 2.73642e-06 0)