/*--------------------------------*- C++ -*----------------------------------*\
| =========                 |                                                 |
| \\      /  F ield         | OpenFOAM: The Open Source CFD Toolbox           |
|  \\    /   O peration     | Version:  2.3.1                                 |
|   \\  /    A nd           | Web:      www.OpenFOAM.org                      |
|    \\/     M anipulation  |                                                 |
\*---------------------------------------------------------------------------*/
FoamFile
{
    version     2.0;
    format      ascii;
    class       volScalarField;
    location    "480";
    object      sigmaEq;
}
// * * * * * * * * * * * * * * * * * * * * * * * * * * * * * * * * * * * * * //

dimensions      [1 -1 -2 0 0 0 0];

internalField   nonuniform List<scalar> 
11800
(
84035.3
84522.4
126146
119081
80361.1
104459
83299.9
77357.4
89354.4
79156
82453.8
150477
32042
113269
116771
526720
76992.2
68511.2
113103
65265.8
105802
142296
282391
251183
423300
310292
224554
122459
259969
298630
99948.6
98228.1
290610
92424.6
91603.1
102381
90003.7
305678
81655.2
72663.6
233389
269416
129872
308819
104391
492435
258034
289716
83165.8
81313.2
152701
121788
90364.4
134085
558091
563637
49634.4
122317
97210.3
101313
539159
92793.2
103378
92360.1
415619
83003.6
155117
122940
52058.3
284438
95284.2
81853.7
78199.5
605548
532201
104970
414145
75688.2
84726.8
89964.8
572798
67711.5
79777.8
83394.6
71079.6
286582
103676
248424
218297
122514
85687.1
342620
84871
50572.7
70822.5
54644.7
6985.39
53880.6
88380.7
134576
64271
144277
325246
148163
92291.5
121422
73663.8
78661.7
501555
236932
275247
207116
103965
125617
71966.7
456868
77823.1
87396.8
431306
83344
95686.6
84474.1
76356.1
72304.9
82465.2
89411.6
90240.7
86975.6
79155.7
34546.9
666843
392854
104139
283457
122105
242686
213638
100372
244645
113417
209573
185425
164072
84836.8
78670.4
89105.9
234440
250265
147933
137532
91800.1
89090
89125.8
92289.9
79152.9
88496.9
118732
143028
321456
89444.1
574367
89515.2
419777
123780
137177
157741
85824.6
88573.3
650703
334421
111346
130180
81905.6
102359
105403
482484
488656
210914
183795
245545
114562
99020.8
84514.3
91721.9
108274
76241.6
131055
82335.4
72243
85682.7
98932.3
87315.2
88109.6
114965
176054
231657
599561
87391.3
76823.5
688312
77754.5
81849
91263.4
91998.8
92968.6
174859
155003
136613
117225
657014
191158
269148
912406
618170
774128
141902
82040.4
213963
184947
163677
91926.9
98263.5
75311
65251.2
114000
67489.2
444368
110511
69234
116965
92321.8
77520.2
81692.7
135135
137759
897543
437692
84828.3
90732.5
231882
189682
101332
115791
257264
225222
197322
90837.2
301643
103639
118552
114145
75921.6
90052.9
139686
96603.8
107891
762182
85830.9
92254.9
87938.4
93081.6
150404
172926
199932
98953.8
91251.8
92790.5
537656
76655.9
77705.4
90638.6
104977
53465.5
125846
675528
100604
99854.9
130327
106102
115321
95481.3
302639
258379
90423
100704
87250.3
93376.3
158663
197668
127770
342774
369399
455231
81761.2
103028
102854
460013
465310
205199
202471
218160
217045
86232.9
69153.9
89395.9
696342
84777.4
89585.1
87248.4
88623.4
80509.3
191216
183826
427765
781232
233042
78219.6
184136
150732
119184
99559.4
94403.2
90580.3
98100
139001
88182.9
124005
83414.5
77616.3
85459.5
91811.7
377119
81438.5
86476.5
607020
88183.3
189936
157969
156050
186747
182052
77868
77471.9
202016
248282
192239
477756
64895.7
211461
176354
109666
92759.6
92896.7
78616.2
99001.2
92958.1
104454
121347
138558
71743.1
88004
151016
162424
86461.3
76682.2
155155
119280
133815
77487.1
76033.6
84951
84514.1
245933
102126
97005.2
182055
211117
256690
176759
88141.8
89010.7
81548.9
80012.3
117728
136469
108187
124447
93570.2
108088
91185.7
82815.9
215262
96164.5
191294
309993
135621
111314
711586
86294.1
327988
140584
116065
571730
82652.6
345242
100417
336787
309221
289896
81749.3
30170
86412.6
819325
701059
243627
97030.7
101552
87261.1
72722.4
85687.2
72644.4
117710
518152
21894.8
132190
99986.6
592476
68534.3
81557.2
73601
96350.4
73337.6
82620.9
601046
177154
94422.1
154042
134119
120354
68291.7
337820
105245
122899
86017.9
276512
80878.4
521004
83487.5
90290.8
120064
105367
94826.7
276365
80011.5
143961
160553
87934.6
156763
175663
203075
97554.5
93566.5
45261.6
74929.8
75909.4
737178
153484
125233
108153
95482.7
72713.7
89642.7
68065.7
75696.3
102201
60781.8
66577.1
89299.8
89473.7
154300
83812
124018
195693
168687
92952.8
558247
87541.8
136886
80336.5
69523.7
511413
573454
127995
148772
98069.7
85254.9
82381.9
453948
530592
489751
751705
153559
114254
159351
78423.5
75139.8
76308.8
86515
146302
92449.5
90574
69170.8
73228.5
447214
95095
342087
334529
71834.1
83277.6
456056
413745
145661
168947
195848
100266
98289.4
136793
88999.9
88255.1
87477.1
91854.5
81184.9
94239.8
73104.6
83002.4
65700.3
76160.5
59063.4
77495.3
70990.2
82692.3
62184.7
519125
122666
81045.2
161444
280241
62459.8
85505.1
79708.6
70953.4
64036.7
93479
99760.8
95589.9
93247.4
182318
66935.2
97882.9
560214
54476.5
101100
132295
119202
128903
142567
151166
164158
79965.7
84344.6
574017
804806
114220
68786.8
90820.4
152521
94281.4
84911.6
187919
166522
145530
86770.6
57195.1
159386
173954
88251.7
89755.1
71829.2
130815
151209
93241
210046
202530
205803
212872
486375
475732
128688
680634
165466
81947.4
506059
273213
315794
150008
79897.9
92096.6
91570.5
414064
113060
144553
712888
87426.7
79101.9
161902
120574
325476
141503
515629
87529.8
82694.5
95530.3
99059.6
210477
185578
163035
585623
83888.4
102581
209392
427259
84714
674102
634624
599577
81576.3
104230
57501
613026
125995
84818.2
105440
501489
81748.3
83987.9
95316.9
84657.7
177113
83900.1
806887
581289
87115.7
175179
217317
86384.2
89836.7
91742.1
91131
258490
118165
125195
108217
267674
271399
81335.3
379058
92574.2
98513.4
109149
593223
97388.1
139236
87409.3
94275.8
73931.4
79652
131006
274190
305103
70700.6
76181.6
68394.8
99944.6
120265
386430
72223
110241
165738
127803
81165
213231
246984
150756
286283
331133
128334
103176
81053.9
69717.1
106324
118024
94190
99821.6
90482.6
88101.4
111569
79833.9
83300.6
725152
267682
108165
117804
142980
82087.6
105169
127252
305803
263651
231072
92003.8
102383
115157
86513.1
427660
399507
355595
85620
103174
91699.5
136316
381470
113709
32570.5
88685.8
745260
707231
79377.6
651790
77872.2
77018.3
85002.7
199590
67975.1
107154
134235
277829
321349
372976
434639
152965
142166
124876
112597
91347.4
84023.5
104544
540575
92121.2
94205
74238.3
83295.9
73157.9
78179.2
89275.3
427590
232926
177726
105654
200557
234535
93600.6
308471
86979
86674.7
90181.8
730569
81603.5
86286.9
76839.8
71647.4
79789.1
671308
88649.7
92161.4
419328
99149
203769
99640
690833
234120
105557
102003
433928
116498
79774.7
82553.7
68901.7
80018.3
89718.7
111249
97192.6
72819.5
204940
111523
82503.5
171422
194781
88070.9
137111
176151
159872
196033
435310
373041
319614
280177
134810
155879
450183
385562
171446
332691
193618
287832
450083
91722.9
85065.2
93089.6
82107
156483
398124
95610.9
121620
144017
134666
161814
90616.5
96937
105147
129927
319503
275856
242069
121689
104746
249666
78875.1
83613.6
90077.3
113431
100245
86838.5
127739
110955
112971
94085.8
91789.2
247557
86782.7
83902.4
111596
275721
128285
144143
165310
71026.6
75310.6
78102.4
72655.3
81019.7
91476.8
130573
123771
82332.2
89016.6
74691.3
107016
372295
115464
136949
186408
88113.4
88137.5
78997.1
69383.6
81136.1
86619.7
164337
141491
125054
79078.4
589548
153693
124094
344903
221731
382119
655475
88278.5
97733.3
78424.8
85104.1
68953.2
159243
139812
664828
75922.8
89743.1
102123
119551
79687.9
95337.9
160088
156332
57759.4
80322.7
101683
84967.5
85275
533650
646424
82809.1
87705.7
100651
104653
197261
146038
169026
753749
89479.9
133476
144596
88785.5
143424
171211
187653
207401
457435
389996
333726
292461
142942
167159
470589
402927
181630
347699
203790
301124
573376
512765
391918
113489
129732
503955
411202
100888
87470.6
83937.7
405060
628588
67011.4
106249
594301
396110
657096
659650
232435
241280
119945
107382
128383
136450
80791.4
91640.9
80043
77664.6
91070.3
81756.4
100999
607224
129049
81448.3
69725.1
101620
108388
527507
107321
99837.4
102597
108117
311697
113944
100578
505117
106012
122190
72690.3
82726.1
118028
94677.9
106834
272083
133818
126004
316399
305288
126224
126006
262042
282375
112891
109105
84407.2
78028.8
80179.3
129103
102594
40256
85363.3
89879.9
189025
189497
90085.9
142255
117831
69313.9
63248.8
65713.6
205060
414075
73599.8
647280
100183
181295
160139
79417.8
90187.3
130601
83955.4
88784.7
463704
101200
255099
221883
195547
99410.4
113160
80227.8
506006
510559
79116.2
84097.5
276300
101569
113660
183521
211388
250130
105037
115735
47058.4
257867
101517
496746
155711
304108
185689
203340
93064.6
80970.8
70997.9
95895.4
73886.4
78123.8
443447
111783
67514.7
79175.1
86544.7
96178.9
90304.6
99917.2
192974
192662
168509
166208
148598
150774
435917
87954.9
82156.5
89056.9
80723.2
113019
91132.6
76201.9
492974
91390.9
168406
111064
272113
126263
67068.9
72712.6
113373
97051.7
137173
119045
316746
255323
220451
192305
122600
377073
147602
474169
84708.1
78897.5
92527.1
103678
76663
90297.4
78267.7
430794
684857
91675.8
72237.8
74384.3
134766
102911
61722.2
82842.2
109626
96658.5
79268.2
86773.1
84035.7
82312
82441.2
120935
133643
133238
148886
104450
116915
192985
89366.8
248430
184265
121431
360548
343494
200396
675201
109236
104348
120405
138308
70611.5
82366.6
86918.3
140704
84973.4
468301
108441
92604.8
166733
46636.2
82120.9
563083
77616.2
107007
314873
130313
272488
238859
511636
348537
63840.1
137619
116882
106731
374723
141655
121799
234876
206547
271142
93359.2
94586.2
64290
814819
108282
110182
122340
90994.7
82579.4
74553.5
120434
133924
89688.4
571442
107808
414981
83468.5
278077
81728.4
137738
164979
263543
104446
120683
142711
88716.1
661810
75878.7
66141.4
73389
605226
441663
97873.4
114591
264662
232636
203645
623306
134266
117317
721882
795338
504075
89411.1
189872
363939
244529
124175
107247
193803
172602
101550
355331
98389.7
117285
120546
101346
98383.7
536933
754278
73154.5
87632.7
104228
774930
75757.8
77973.9
158696
114067
713793
745079
94753.2
201339
97836.8
86206.6
169209
85343
67921.9
182976
80489.8
92134.4
744869
254197
134130
115792
104070
94263.1
187748
166239
144296
110870
748961
161243
139268
104964
639294
228950
294751
64829.8
103653
75910.9
284104
112004
141393
78549.8
80964.6
94759.9
217902
85454.7
91693.3
87391.9
149526
698064
86572.7
99551.3
213152
463632
647873
354355
262085
143614
165317
49174.3
91388.8
92609.7
172872
150668
130826
639082
73588.1
75333.6
80963.6
77224.6
75601.4
90713.8
81722.4
89050.6
81742.5
212045
516588
111860
245962
212289
185755
98041.6
595014
137592
147762
165174
142353
328561
568272
201317
83283.2
303810
83098.3
187180
116547
211247
246453
104383
324031
95915.7
881855
286697
83731.8
510180
878469
757866
171494
92206.9
295035
77380.6
69861.5
87585.1
122405
81948.7
72136.6
77965.2
66433.2
452694
474317
82279.5
396083
88382.7
78336.9
83602.9
100028
213506
224153
84415.1
217859
226200
445559
160001
81157.3
73825.1
82511.5
153827
174194
93469.7
21421.5
81718.7
284020
93992.4
171693
189736
217140
250657
125589
102878
115904
72122.6
72513.7
659965
337696
92745.2
88697.4
255403
214219
110776
123410
98663
70006.2
125103
114550
80962.4
77567.8
79300.9
536996
138797
347103
71310.5
84076.4
883584
93669.5
670228
636075
73221.9
256409
115986
545285
79879.3
204615
337127
738326
84739
71784.6
79356.6
173404
88194.7
92539.3
152591
133753
115898
68141.9
91574.8
65312.4
62010.4
214288
237146
172057
303757
263907
346816
622041
80392.5
204515
592919
245515
635864
186825
214808
251900
114473
99067
128096
165612
616669
87667.1
76179.8
94789.6
87657.9
76646.8
90207.9
110662
97201.7
89166.1
257884
162455
745908
71586.7
70012.5
104747
649786
201771
90833.9
85034.4
645121
186863
134940
73088.5
83022.6
78609.8
178914
230859
98707.4
354627
73846.3
73708.4
813745
556770
682897
103203
112304
222532
124151
147396
608046
755689
75182.8
82395.1
120984
111277
211808
231635
152466
169969
647067
693935
93124.1
86962.9
76262.2
442641
84683.5
574525
170512
89966.5
302735
91822.4
78471.3
600021
93603
85424.6
83067.4
89990.4
474344
108725
82945.5
220552
99572.2
80531.3
73162.1
91270.4
140520
95312.8
555705
591358
91611
173954
113750
79057.5
83064.6
493479
81456.2
302828
90257.6
155449
217311
257667
518395
73427.7
127808
644807
87480.2
84655.3
66387.9
83603.5
91320.4
711952
470327
96421.2
105406
220436
170861
295791
103503
115634
105773
129341
271978
234324
203840
411941
149065
121739
537120
122046
582552
192632
146147
587258
894479
708408
104494
193539
306161
116664
105251
77690
138060
621380
82304.2
84382
688143
502333
671683
174847
212976
222425
190455
76584.8
66107
105392
68501.8
163935
183581
212250
94001.5
86739.4
186488
674832
77997
106220
92116.2
73525.3
197508
180979
104581
581050
701300
237270
188253
540782
620213
93851.4
311157
212666
351817
71434.1
80862.1
85051.6
435865
435130
258121
96330.2
84620.6
90795.9
80144.5
145105
502492
78052.2
346926
70598.9
94360.3
94949.9
92288.7
162466
96464.6
158587
15124.2
4411.81
156166
825212
73803.4
73188.7
91007
80420.7
84731
83132.4
92506.4
79470.2
94226.8
125265
77160.5
81028.9
93067.5
197578
245600
171165
615058
717350
80576.1
99335.5
106507
76916.9
402857
115598
722619
80046.6
86519.3
161427
104209
89226.4
81583.9
166448
86596.3
94572.5
92020
81843
81737.6
73881.1
533134
76193.3
68793.5
84252.3
89072.6
73624.3
655104
70545.5
549772
531445
214057
177964
101617
117575
259431
230282
201438
87398.5
333715
229712
90928
690060
91672.2
91456.4
100836
361918
176939
202490
377949
73733.6
75135.4
105289
134423
302777
151818
355987
123375
259325
226666
104637
368237
115911
313610
128281
271351
237629
140269
536140
85289.3
140494
103576
73489.5
81456.5
521042
194110
267162
245970
219020
277866
195583
95711
104759
143969
352279
85683.8
787467
90911.4
81307
615172
72028.6
84693.3
190354
216437
545044
83087.9
280258
244585
214465
101603
119753
642743
95436.6
88052.6
182667
85914.2
188387
94035.7
148399
76483.3
88936
100397
76699.4
127108
88786.4
172356
103264
87854.1
177869
234275
244164
177770
113572
560534
92618.4
91996.6
526864
516845
297767
865652
227586
192682
304570
780754
227695
171896
682159
169642
157058
144328
575569
82749.9
561700
71384
109953
102197
155525
174683
201318
99300.3
92421.5
198891
60842.1
61535.1
80538
71814.2
101183
75103
89116.3
115134
301780
692338
78936.1
92458.5
645629
321028
127732
154727
78885.1
81348.2
533006
378438
120511
257242
237060
372626
70627.5
72850.5
98055.6
89758.9
358236
661238
694143
449806
775417
98223.8
79101.7
92351.2
230273
201045
267790
122398
100297
651639
121808
134734
170112
86380.2
100454
305112
131345
69173.5
205740
90928.2
90620.3
682813
96743.4
95127.8
276513
243947
212001
118374
438138
399017
503321
169745
183581
153721
394174
142679
117604
348443
80421.8
868908
81782.2
672639
164346
191846
61467.5
194997
331868
81810.3
82888
78873.6
776722
154347
131148
171746
85914.5
80430.6
130032
131738
525236
138445
265957
352911
305532
110177
277507
198607
215183
250320
269695
197476
220063
260562
163057
194830
17321.6
113592
80501.5
110828
141153
129443
158323
370548
316034
270507
236356
108905
312305
125852
88358.9
63130.5
71818
109301
64474.6
119677
229720
250254
114352
538078
83596.9
72681.7
452434
577373
75891.8
302339
125160
148454
195542
215657
89731.2
74152.3
117649
260732
58117.7
89191.8
556983
84921.8
85890.7
124930
109013
139823
124001
92724.3
92896.2
132568
394526
671090
778402
96298.5
103933
417436
376955
524620
90109.1
359534
498897
776185
811481
730095
132803
243078
106470
614472
378693
151030
402193
78403.8
85910.2
475754
478494
80465.5
161221
700533
535122
489004
505067
813035
533690
552397
536633
82518.9
96521.7
349930
277710
319601
83688.9
69833.7
83537.2
80216.8
91664.1
97631.2
78068.9
112140
541042
328085
105643
124324
365021
86196.1
182969
156370
846752
95583
86409.7
203067
91679.9
177008
81088.5
87548.2
687121
5553.52
55203.5
54335.6
11321.7
106820
200156
77096.7
85295.5
96938.2
80580.3
244910
178053
82313.1
657608
587957
128224
349332
107409
99686.1
410375
101482
666966
132182
158513
172542
192514
428584
367791
313938
275148
132922
153836
443016
379795
166986
326934
188353
283383
83335.4
81786
172732
144545
119158
78032.4
79093.1
77581.1
78026.6
78035.3
70250.9
76718
70163.9
110627
282077
304742
183500
112660
200607
220432
456015
158567
128612
623174
220061
78726.7
50510
75195.8
83688.4
108061
88291.1
95908.6
92680.6
169106
129494
101973
172553
91674.9
85560.6
348656
86750.7
85852.5
92893.8
79017.7
371562
93240.1
127954
142518
115841
123270
153816
116879
72514.9
67534.9
764932
707884
271824
217309
205632
269411
637560
304978
92314.9
198448
98140.7
91231.7
113662
79350.9
731217
82780.7
298523
260826
228510
125236
103228
175668
93933
86852
742336
89099.7
92005.2
245491
241780
94102.8
83962.2
82965.9
121890
278501
498454
149942
116342
402092
375867
95672.3
111824
269065
233044
205242
117894
129177
267355
155108
219851
130548
253067
293775
103505
340190
791174
593076
88169.8
168628
191444
219780
103135
88764.9
458341
80154.5
97408.1
150784
148913
71660.3
84123.3
91666.9
81336.8
292804
209592
224419
266042
131303
610470
754021
278336
73756.5
167489
187905
216391
259122
350292
97199.9
522173
237103
157347
135477
177489
88263.8
96616.9
78860.3
81409.2
115756
152294
131818
139335
157720
182851
106941
103803
127831
130071
279356
275520
209438
239674
206813
236642
147663
167993
95632.6
83694.6
84126.5
73971.8
434223
162571
89813.8
251399
207038
189234
254536
88599.2
118597
391073
150478
336220
291343
68877.2
81555.3
314777
139969
117972
392199
185722
60128.1
244876
213792
286276
127293
103730
501941
130931
113216
587912
132808
169195
65606.8
86339.9
112858
100563
88071.5
477768
105175
123602
127050
111094
140509
78220.8
80845
355620
422339
89592.4
201138
72635.5
343117
650100
440749
130470
114164
271091
122269
117500
99156.1
83741.6
76590.5
135195
75483
119455
74129.9
135680
81469.9
71675.1
716461
109936
452526
194753
225057
122559
109426
261365
647170
66538
80976.1
91095.2
80406.1
132139
12554.6
4196.31
130114
245973
72147.8
215851
98379.9
127352
70365.5
127382
162232
402185
81007.8
82692
78338.7
73137.9
141586
87938.4
224401
195266
95426.1
69853.9
81445.1
697572
249948
80035.3
123013
73506.6
845651
556287
127155
78512
170693
104343
124008
255900
192310
220487
641383
493617
85819.7
522101
787891
535465
562385
301006
95658.7
454677
86817.5
77367.9
77034.3
135114
110678
103666
93496.8
220837
94126.2
76148.8
78428.7
350387
286447
332365
387271
448122
157917
145207
127981
113435
77690.1
81581.4
184246
8496.55
91496.9
90088.1
4685.05
162954
89711.4
76277.6
76592.1
94325.3
110089
95063.5
151905
465877
172899
127478
104450
115541
616311
512123
63820.3
215424
92284
90737.3
128383
149842
226851
483878
98406.8
113692
92156.2
556812
88737.9
94111.3
118729
107524
279044
323094
158079
291511
287062
123465
165022
395514
374340
349322
108781
128519
62952.9
88042.5
64745.4
83377.1
68076.9
204418
248836
228049
275892
199085
287066
197980
147956
170088
241912
181003
250672
181553
101845
363601
226598
198107
254562
230331
279463
205302
288405
203692
360893
834828
118285
153273
389063
183695
66829.5
87106.3
84989.2
8260.03
83676.6
7400.42
81863.6
113637
291321
253963
341769
145174
108724
668608
58051.4
85914.7
141107
387121
89208.9
218480
106155
724710
731173
501060
68980.7
148918
407055
160575
135018
161447
175235
151650
199112
93560.7
104080
798278
193337
684462
74187.3
82724.9
95688.7
76157.5
73537.1
665592
74033.5
433625
74794.8
307829
508237
64859.4
96344.5
90884
187117
98361.5
134552
118433
95660.2
107916
123431
81972
89367.7
113268
134434
108204
337889
293597
256532
496621
677842
756888
71288.9
77153.4
86740.9
80737.7
86462.9
63267.6
84116.6
727084
765221
618990
614471
23575.5
482575
619955
270975
203343
218264
270284
204267
241167
337192
165237
496198
71479.9
102372
96573.9
182765
82769
79057.2
91655.4
84890.7
94934.6
74356.4
82352.3
111382
120592
135015
126472
145638
154898
181793
191437
83398.2
88218.6
124755
109804
84143.9
73220.7
358493
503676
86692.7
232065
501869
132466
451729
164130
92085.4
552040
176405
152680
229076
520480
794549
330112
90172.1
691344
100252
81589.9
79243.1
195655
67359.3
311216
474219
98683.9
171656
90474.8
94859.9
82614
732120
95874.6
99785.9
100103
98259.9
251519
83824.1
83491.6
299681
73112.8
554958
81435.1
323856
101322
106652
491566
317316
179703
364581
426020
158106
493627
143282
118368
305259
349481
481187
409888
118641
162655
182502
143943
686981
95961.2
541945
72234.5
90248.8
72946.4
3068.04
23298.7
262312
48509.1
521936
87109.7
90528.4
141989
157762
124681
190135
88857.8
338423
87819.7
85907
365320
80304.2
116655
104330
106879
281463
245409
329932
136231
207018
80419.2
120289
154555
514083
64983.7
105879
78540.9
73892.4
183033
597973
268034
255836
598901
112782
288831
660531
311560
549835
96369.8
582544
93787.5
415303
115546
140097
85202.2
5372.75
54855.1
53984.7
9318.94
88277
509443
71142.6
455829
262436
83068.4
272458
260876
312221
298800
363326
348122
148616
143385
117587
114641
124600
102636
298262
261281
227983
92989.9
121363
105845
80841.1
239689
199740
80003.5
81317.8
72380.6
82692
77151.1
667672
481470
107704
303885
264259
354762
92745.3
298629
431791
399430
98378.9
94588.5
565294
221629
93244.7
81063.7
100806
90718.6
81199.7
153908
134410
119099
462755
832828
545305
312617
135554
109368
81330.2
87948
92800.1
82557.2
91941.7
94361.3
74772.2
150720
116775
79876.1
543928
585956
147344
196039
79725.1
95972.8
85873.6
76715.9
178365
557273
252005
182239
192064
224670
89243.4
70445.5
112132
78236.8
69309.4
87131.7
873231
681476
67892.5
84464.1
172134
152185
119669
352156
411707
263347
300354
309058
125667
100616
113724
88104.2
80353.7
605949
117001
354369
63273.5
594720
71495.4
144331
154551
859337
80359.5
141614
83611.9
133119
78717.7
101183
328623
116183
289039
177661
332221
387297
162135
452791
144867
128159
150548
127951
77478
163057
184761
226697
70614.3
106435
415667
212932
747121
649828
726505
157524
504064
289327
167438
84391.8
74613.2
647375
395132
74619.6
765720
556173
24661.1
146772
129445
40570.3
382016
225134
85195.1
63510.8
595220
731731
88427.6
161321
166686
422644
408327
131746
135757
133970
142865
78182.2
81011.2
83066.5
81136.6
56470.2
838865
548025
569321
708583
234243
108554
439021
193152
219826
253151
68661.7
581583
91885.8
406053
662830
185894
112486
777485
133630
140937
112422
120874
320885
312948
109178
106736
66296.5
81942.9
113791
363031
312921
270216
142330
825554
88174.8
82750
70563.3
264344
302479
158052
351103
140688
412309
127281
347508
259880
296803
406920
110107
171480
151607
135316
81927.6
96008.7
88688.6
84443.2
128697
99577.7
114500
566524
178410
214259
593499
96285.5
94817
84224.4
152827
187339
84385.4
97676.5
659365
89484.8
81126.5
92783.6
93620.6
81818.3
73343
127963
84379.8
90992.4
466367
578631
73781.3
65538.8
70656.5
121325
218669
685331
626747
339214
95397.5
69496.8
474359
88567.6
91114.6
827271
265664
563231
112644
361003
166372
208044
90494
353616
332863
138546
110915
77206.5
142009
76208.2
45381
68793.7
683684
231248
228305
523160
101542
110920
81972.3
183707
75996.2
87190.9
101124
94717.5
109192
10922.5
107523
7563.43
90570.2
387835
98980.1
122317
257444
221872
192975
75403.7
681383
283320
110618
504029
220520
241575
70113.6
6762.05
69014.8
7215
494950
193386
149217
196754
175349
73648.7
665329
100023
90258.1
196204
151999
82235.8
14769
440296
88132.4
472442
94730.6
108627
214023
193858
161802
69445.9
191820
94586.6
96198.9
80519.5
86327.5
191989
197823
79795.4
102167
74272.3
75713.5
275473
127352
106214
87085.2
205741
5264.52
19568.6
202612
151288
127601
172555
203089
69673.8
737699
794943
87644.4
87115.7
81110.8
90336.5
94929.8
9646.1
93472.8
8411.81
299663
100956
125108
740997
747669
534114
589403
203980
179488
172146
157650
640595
88099.5
151057
76347
68672.4
82234.9
96788
117106
154393
592445
613222
85358.2
49589.1
167739
190059
95133.4
298728
113476
106521
608030
79641.5
88901.5
103926
224807
217322
246654
158333
96882.2
119037
77197.1
68793.9
387296
69360.7
301580
47664.5
123481
189081
167160
366711
427085
88746.7
99177.9
114763
491086
3169.39
40077.9
11864.4
39690.5
92639.5
97364.7
75038.4
715020
12928.8
689245
179805
17100.5
5559.81
177061
90699
58307.1
6605.48
57435.3
112738
475197
108067
713490
733742
23862.1
141558
186663
165920
244089
108106
90071.4
294686
258954
54340.9
83954.6
94289.6
85700
143208
198591
81817.5
82091.7
716837
166921
188197
185733
210492
471507
87464
62704.9
394909
507660
217984
80064.7
86267
72292.2
122819
120830
89940.2
86667.5
97885
87614.7
62417
424077
512321
82942.6
139463
117471
126503
418828
153823
86772.8
93844.5
182836
208808
73592.4
97877.1
515090
583364
115647
96276.1
177764
237014
205005
74676.7
79584.7
95374.1
85275.1
466542
177329
67773.5
38626.7
29505.4
118163
100393
171648
228012
198216
84008.4
688594
763721
90168.4
76084.7
67448.5
62840.4
642225
104097
102360
239079
805887
681553
126924
90496.4
144364
126608
97561.9
86360.8
108879
73451.9
84781.8
83297.1
110505
679007
86509
214196
230728
486951
338466
329793
122969
119661
142216
145360
126997
90243.5
91346.1
69155
82507.4
163542
77561.5
596089
361412
88908.1
81567
305853
803534
75322.9
245211
205794
184047
252437
253693
108576
119108
315685
88236.1
235363
104077
106968
82848.3
208994
81304.3
94049.3
237737
112064
79727.7
73340.5
90673.9
228174
191547
90176.6
84848.5
92372.6
93516.6
83597.5
141843
111199
91180.1
109890
90466.2
77838.8
101693
725007
640727
467255
98976.3
98580.4
201811
174152
151085
102568
118766
52691.4
405422
78232.7
130462
182628
89519.2
135563
671849
62817.7
98768.7
91235.5
73779
667877
59542.8
96688
123427
145661
84437
76890.4
93310.1
69136.7
82262.3
449103
86175.6
55088.3
6747.24
54251.1
442301
372093
685806
529603
600961
96281.3
639052
376031
6108.11
44305.1
90486.9
92975.6
131751
145734
166825
237071
113899
471686
206572
239365
76398.2
72199.6
66143.6
81263.9
87093.1
74340.4
84729
352511
44971.3
669033
192107
66258.1
304452
160307
99879.1
122580
84172.8
71578.9
90709.1
156311
92184.9
200920
202681
81156.7
90079.4
167370
379473
71840.8
70882.8
104311
66598.7
85504
609393
105062
101242
266814
542236
165123
88079.6
167550
160029
180300
139536
99684.4
90875.9
80752.3
3593.48
28413.8
170265
144998
185947
448535
332667
385221
144213
164251
463952
396672
182899
344086
104978
106115
90529
123794
84037.1
91223.5
76371.4
186666
88605.6
92362.6
76872
122470
356650
145587
78043.4
77308.2
72401.7
82063.4
82205.6
103111
91098.7
77604.4
60206.2
292661
101832
117338
98662
112061
227745
193010
186083
154708
356145
101606
79323.3
130945
168686
127815
88624.9
99466.8
126579
81211.5
127654
87666
80737.1
139126
136203
85626.9
198310
80518.1
75037.1
424651
357985
77459
94247.1
647600
83496.4
104217
67982
82457.5
96492
237669
205711
178122
122803
117271
269469
88380.7
75602.5
84731.9
433578
91544.5
81947.3
105633
93594.2
74683.4
86202.8
66235.3
76216.3
504215
473373
117721
101802
93437.7
293980
258244
102562
122105
158797
93667.3
62612.5
78802.3
663525
159126
182268
59880.5
141363
82006.7
34700.9
72189.7
81622.2
91600
140041
84819.9
102396
91084.2
88459.4
775467
107030
303231
91249
595505
166478
196134
110823
98899.8
305296
70380.3
83617.4
74903.3
102519
129344
131148
78613.3
47118.1
47493.6
250794
99868.5
97660.6
71877.8
76475.6
74078.3
74106.9
129166
99741
113258
49112.4
64971.9
560094
69785.4
825724
123348
121646
346689
87825
77397.7
263717
85872.8
79702.2
360850
88838.2
158776
337615
293105
390427
83085.7
120529
116837
412542
391408
95993.3
76781.9
105927
107256
135292
153177
302403
135048
148365
356985
299304
347731
226493
259296
224155
256401
507687
170090
92818.8
670272
87294.3
90772.9
218798
586141
148602
87551.7
77834.9
81592.7
74135.1
91765.1
96446.5
72686.1
432285
97830.4
110079
204405
88913.4
269080
89747.8
131894
132489
205641
78348.8
84632.3
95200.2
73854.2
84605.3
96339.8
85029.9
77791.5
699918
101454
80309.4
102892
131593
71153
83947.2
81367.3
447896
84959.8
90060.4
89543.1
92741.7
65647.4
674109
96452.4
96064.6
222419
92447.8
94737.5
631523
434220
444476
124009
91884.2
557851
160590
178572
83284.2
290917
238957
236267
193699
414420
236479
510316
352061
467526
317948
165303
135224
62302.1
73409.9
543012
71996.1
81458
80042.7
84415.7
79371.9
71380.4
221924
230862
81960.4
167309
15980
2217.14
164758
93047.9
58769.1
501680
127992
190170
91134.8
85524.9
90208.2
76632.4
80584.7
127646
141122
77407.5
91116.9
146906
112138
94344.9
142263
373613
312657
64021.5
207895
177361
745966
325888
189290
374548
438255
167971
507962
152413
128157
315068
360283
422833
496273
170655
126498
190544
153403
83642.1
266035
62297.3
372537
366886
736852
83205
149855
370029
84893.2
182598
53281.4
62197.7
409854
76614.7
90615.4
224048
279778
643634
101672
116982
134414
78441.9
100477
109017
264654
149666
97467.2
88605.6
91457.1
91293.6
585924
208588
203103
473310
461129
97755.1
91029.3
114914
104147
232296
217842
426598
493198
238492
273117
320010
378002
113008
157732
128302
142965
390247
333204
288906
253061
110228
120609
135537
146317
84514.5
100807
362675
616816
96152.5
98012.3
96989.2
216707
217326
191237
164975
144019
91433.7
105929
852708
68450.1
94076.5
292690
535575
451886
123088
156617
92740.2
38353.1
88282.3
460921
173651
681275
85081.9
95626.2
382461
533854
83868.6
242413
280442
213065
687832
186978
93344.7
103827
183752
96196.3
90409.3
208828
288960
161937
237338
198954
90974.7
175251
232489
201483
122985
145902
756249
602130
125570
83844.2
608751
81338.6
98524.2
104971
118991
124969
259481
265125
92888.7
85959.8
180360
158086
137788
174140
72043.8
414424
536310
270262
83666.1
87787.5
498408
191483
183514
226243
217331
595277
94051.1
116988
97383.5
81843.1
82045.6
130926
286954
86186.3
72343.1
72384.6
750112
588327
142464
101284
81466.1
114511
74808
162602
131565
146391
168230
85079.9
88009.4
90978.3
81814.1
665103
40146.7
522852
96436.3
107276
83839.3
92941
82094.7
84986.2
536710
73782.3
839528
180607
137068
259244
188797
215726
164218
97042.8
112506
721761
152592
169059
98235.4
96216.3
196121
148583
812424
191444
167277
219671
104758
90736.1
92311.8
656885
583409
501675