/*--------------------------------*- C++ -*----------------------------------*\
| =========                 |                                                 |
| \\      /  F ield         | OpenFOAM: The Open Source CFD Toolbox           |
|  \\    /   O peration     | Version:  2.3.1                                 |
|   \\  /    A nd           | Web:      www.OpenFOAM.org                      |
|    \\/     M anipulation  |                                                 |
\*---------------------------------------------------------------------------*/
FoamFile
{
    version     2.0;
    format      ascii;
    class       volScalarField;
    location    "0.63";
    object      epsilon;
}
// * * * * * * * * * * * * * * * * * * * * * * * * * * * * * * * * * * * * * //

dimensions      [0 2 -3 0 0 0 0];

internalField   nonuniform List<scalar> 
9648
(
2423.34
2413.37
2412.42
2406.34
2395.29
2378.86
2357.63
2331.19
2299.44
2262.45
2220.41
2173.45
2122.38
2068.16
2011.59
1953.6
1895.32
1837.78
1781.69
1727.63
1676.16
1627.64
1582.23
1540.14
1501.4
1465.93
1433.63
1404.41
1378.17
1354.72
1333.94
1315.68
1299.8
1286.15
1274.63
1265.11
1257.45
1251.58
1247.45
1244.99
1244.07
1244.7
1246.83
1250.39
1255.44
1262
1270.06
1279.58
1290.66
1303.43
1317.91
1334.07
1352.12
1372.03
1393.75
1417.03
1441.6
1467
1492.49
1517.5
1541.66
605.076
597.041
588.345
578.494
569.882
564.862
562.533
562.113
563.503
566.774
571.715
577.682
584.266
591.092
597.823
604.087
609.705
614.645
618.902
622.418
625.302
627.628
629.457
630.914
632.137
633.192
634.139
635.059
636.037
637.124
638.347
639.762
641.411
643.292
645.438
647.878
650.601
653.608
656.912
660.542
664.487
668.734
673.292
678.169
683.349
688.858
694.689
700.811
707.204
713.856
720.725
727.775
734.95
742.274
749.604
756.912
764.048
771.112
777.972
784.561
790.839
239.734
243.303
248.024
254.842
263.609
274.045
286.235
299.851
314.842
330.835
347.634
364.797
381.985
398.864
415.143
430.586
445.028
458.382
470.596
481.663
491.616
500.499
508.397
515.402
521.617
527.133
532.038
536.426
540.373
543.954
547.235
550.275
553.123
555.823
558.415
560.926
563.387
565.813
568.223
570.633
573.057
575.511
577.991
580.506
583.057
585.635
588.235
590.835
593.43
595.996
598.529
601.021
603.433
605.815
608.054
610.246
612.297
614.34
616.221
617.982
619.616
133.256
143.863
155.664
168.923
183.663
199.83
217.368
236.082
255.742
276.001
296.543
316.99
337.023
356.339
374.696
391.892
407.803
422.358
435.529
447.334
457.808
467.013
475.037
481.979
487.95
493.058
497.406
501.092
504.201
506.82
509.024
510.881
512.457
513.799
514.952
515.956
516.846
517.644
518.374
519.055
519.707
520.344
520.98
521.62
522.268
522.925
523.589
524.255
524.923
525.583
526.216
526.848
527.449
528.033
528.55
529.059
529.554
530.026
530.456
530.851
531.247
96.7537
110.259
125.3
141.862
159.894
179.306
199.93
221.52
243.767
266.285
288.712
310.668
331.844
351.965
370.826
388.244
404.132
418.452
431.203
442.435
452.202
460.574
467.658
473.558
478.408
482.331
485.44
487.844
489.627
490.884
491.699
492.144
492.293
492.199
491.903
491.454
490.889
490.23
489.505
488.733
487.93
487.12
486.317
485.533
484.77
484.033
483.324
482.64
481.975
481.332
480.695
480.063
479.444
478.828
478.211
477.591
476.994
476.395
475.778
475.152
474.525
82.5182
97.8748
115.093
134.029
154.491
176.305
199.199
222.847
246.871
270.834
294.351
317.025
338.583
358.764
377.433
394.394
409.596
423.055
434.78
444.879
453.424
460.474
466.182
470.633
474.002
476.432
478.036
478.948
479.232
478.995
478.335
477.31
476.018
474.513
472.822
471.004
469.111
467.146
465.146
463.128
461.101
459.096
457.13
455.22
453.356
451.549
449.798
448.113
446.482
444.889
443.334
441.803
440.3
438.819
437.351
435.925
434.531
433.143
431.745
430.348
428.937
77.5647
94.4661
113.5
134.412
156.862
180.601
205.252
230.418
255.693
280.53
304.6
327.427
348.834
368.554
386.602
402.673
416.775
429.008
439.345
447.999
455.06
460.531
464.666
467.471
469.204
470.026
470.033
469.414
468.17
466.434
464.332
461.876
459.214
456.389
453.39
450.307
447.223
444.086
440.969
437.875
434.792
431.775
428.838
426.001
423.23
420.547
417.954
415.447
413.026
410.67
408.366
406.103
403.893
401.689
399.515
397.392
395.315
393.281
391.236
389.16
387.098
77.0467
95.3518
116.003
138.634
162.729
187.98
213.97
240.249
266.368
291.65
315.872
338.381
359.215
378.029
395.184
410.077
422.802
433.614
442.295
449.285
454.718
458.414
460.921
461.937
461.938
461.09
459.448
457.321
454.538
451.315
447.837
443.991
440.036
435.967
431.727
427.463
423.261
418.984
414.823
410.732
406.659
402.686
398.875
395.197
391.592
388.136
384.766
381.533
378.393
375.351
372.375
369.456
366.59
363.709
360.875
358.134
355.415
352.799
350.134
347.422
344.794
78.6501
98.0452
120.1
144.006
169.526
195.86
222.722
249.925
276.409
301.96
325.962
348.029
367.896
385.501
401.537
415.149
426.415
435.652
442.897
448.246
451.81
453.677
454.297
453.713
452.05
449.386
446.202
442.616
438.187
433.525
428.6
423.528
418.551
413.236
407.639
402.376
396.945
391.48
386.351
381.119
375.934
370.747
366.224
361.714
357.2
353.145
348.844
344.97
340.919
337.16
333.286
329.752
326.286
322.649
319.116
315.896
312.411
309.477
306.117
302.639
299.541
1565.11
1587.74
1609.26
1629.66
1649.15
1668.13
1686.71
1705.2
1723.37
1740.57
1756.48
1771.63
1786.26
1800.75
1815.28
1830.52
1847.02
1865.28
1885.71
1908.85
1934.51
1962.18
1991.43
2021.8
2052.94
2084.78
2117.46
2150.66
2184.34
2218.52
2253.38
2288.79
2324.77
2361.48
2398.92
2436.99
2475.82
2515.52
2556.15
2597.58
2639.84
2683.16
2727.52
2772.78
2819.24
2866.77
2915.28
2964.8
3015.53
3067.53
3120.72
3174.98
3230.86
3287.97
3346.68
3406.78
3468.99
3533.31
3599.75
3668.19
3738.74
796.792
802.818
808.667
814.266
819.639
824.902
830.196
835.381
840.636
845.65
850.621
855.49
860.368
865.274
870.203
875.201
880.288
885.51
890.865
896.329
901.866
907.415
912.951
918.448
923.895
929.269
934.503
939.568
944.458
949.197
953.801
958.247
962.553
966.739
970.803
974.745
978.588
982.324
985.955
989.482
992.92
996.293
999.57
1002.75
1005.87
1008.9
1011.83
1014.65
1017.4
1020.07
1022.64
1025.12
1027.51
1029.96
1032.22
1034.59
1036.93
1039.48
1041.93
1044.44
1047.07
621.221
622.754
624.329
625.874
627.393
628.817
630.306
631.696
633.062
634.287
635.461
636.583
637.723
638.833
639.917
640.963
641.967
642.928
643.836
644.678
645.442
646.126
646.719
647.217
647.616
647.913
648.103
648.184
648.146
647.998
647.728
647.342
646.843
646.227
645.51
644.688
643.763
642.733
641.6
640.361
639.022
637.588
636.065
634.438
632.719
630.897
628.96
626.901
624.726
622.438
620.01
617.489
614.836
612.082
609.146
606.133
603.039
599.876
596.633
593.341
590.062
531.617
531.984
532.316
532.633
532.916
533.166
533.371
533.566
533.684
533.699
533.649
533.553
533.392
533.145
532.843
532.473
532.037
531.528
530.939
530.262
529.5
528.651
527.719
526.7
525.589
524.381
523.077
521.677
520.181
518.59
516.904
515.115
513.225
511.243
509.175
507.021
504.781
502.455
500.038
497.534
494.949
492.294
489.573
486.793
483.955
481.055
478.073
475.011
471.86
468.64
465.321
461.913
458.429
454.853
451.157
447.349
443.475
439.522
435.517
431.497
427.485
473.897
473.238
472.551
471.829
471.071
470.248
469.366
468.479
467.584
466.633
465.643
464.605
463.504
462.343
461.118
459.827
458.499
457.098
455.625
454.076
452.455
450.769
449.024
447.224
445.36
443.429
441.427
439.356
437.222
435.023
432.757
430.412
427.989
425.494
422.939
420.324
417.647
414.901
412.08
409.188
406.238
403.235
400.198
397.138
394.062
390.97
387.829
384.662
381.436
378.171
374.847
371.452
368.009
364.5
360.904
357.213
353.445
349.598
345.733
341.857
337.987
427.531
426.108
424.672
423.184
421.665
420.105
418.497
416.871
415.197
413.494
411.748
409.974
408.159
406.29
404.375
402.422
400.441
398.397
396.285
394.109
391.878
389.602
387.296
384.967
382.602
380.191
377.735
375.236
372.711
370.16
367.578
364.941
362.253
359.508
356.731
353.922
351.064
348.159
345.189
342.155
339.071
335.946
332.803
329.67
326.562
323.491
320.399
317.325
314.227
311.148
308.038
304.874
301.695
298.456
295.175
291.775
288.316
284.787
281.274
277.726
274.205
385.046
382.994
380.925
378.834
376.696
374.506
372.279
370.046
367.771
365.443
363.098
360.745
358.357
355.942
353.481
351.004
348.528
346.002
343.411
340.751
338.039
335.31
332.572
329.852
327.126
324.367
321.583
318.768
315.969
313.191
310.454
307.685
304.906
302.084
299.271
296.445
293.567
290.662
287.703
284.683
281.61
278.479
275.337
272.216
269.141
266.175
263.195
260.301
257.405
254.618
251.842
248.994
246.163
243.282
240.399
237.346
234.283
231.116
228.044
224.909
221.827
342.159
339.572
336.964
334.387
331.773
329.161
326.468
323.842
321.18
318.403
315.629
312.896
310.119
307.32
304.447
301.606
298.842
296.037
293.17
290.165
287.089
284.042
280.984
277.976
275.034
272.063
269.069
265.991
262.949
259.996
257.221
254.437
251.733
249.005
246.361
243.741
240.997
238.197
235.394
232.585
229.677
226.653
223.612
220.577
217.569
214.782
211.92
209.241
206.557
204.15
201.814
199.338
196.918
194.445
192.031
189.336
186.706
183.912
181.355
178.686
176.118
296.191
293.086
289.802
286.87
283.765
281.081
278.042
275.429
272.773
269.878
266.981
264.343
261.453
258.581
255.437
252.286
249.496
246.797
244.102
241.147
237.789
234.658
231.45
228.226
225.198
222.228
219.364
216.176
212.791
209.608
206.831
204.06
201.517
199.033
196.897
194.837
192.464
189.817
187.265
184.908
182.488
179.701
176.845
174.045
171.156
168.649
165.817
163.358
160.781
158.877
157.087
154.985
153.07
151.08
149.249
146.867
144.704
142.215
140.222
138.053
136.108
3812.46
3888.9
3967.42
4048.07
4131.3
4217.98
4307.63
4400.14
4495.26
4593.1
4694.01
4796.56
4901.29
5012.8
5153.12
5281.75
5409.61
5539.98
5672.84
5808.2
5946.38
6087.46
6231.05
6377.38
6526.17
6676.74
6828.77
6982.01
7136.24
7290.59
7444.96
7598.72
7750.97
7901.12
8048.62
8192.03
8330.19
8461.28
8576.17
8660.69
8718.08
8749.84
8755.85
8734.36
8683.8
8601.72
8484.11
8326.35
8124.18
7873
7566.63
7198.33
6762.99
6253.6
5625.6
4703.55
4294.32
4090.23
4009.85
3970.3
3886.98
1049.95
1052.94
1056.14
1059.41
1062.79
1066.41
1070.59
1075.18
1080.25
1085.62
1091.47
1095.03
1096.67
1099.92
1103.85
1109.24
1114.78
1120.25
1125.85
1131.7
1137.83
1144.26
1150.97
1157.96
1165.22
1172.72
1180.5
1188.58
1197.02
1205.85
1215.13
1224.92
1235.35
1246.53
1258.58
1271.74
1286.18
1302.27
1321.93
1352.3
1388.99
1428.36
1470.98
1516.97
1567.01
1621.44
1680.33
1743.96
1812.61
1885.82
1962.71
2041.67
2121.21
2200.08
2270.77
2337.81
2399.55
2487.9
2593.41
2700.57
2652.39
586.764
583.475
580.158
576.825
573.444
570.096
566.864
563.794
560.795
557.773
554.259
548.827
543.173
538.327
533.994
530.279
526.655
522.93
519.144
515.35
511.587
507.854
504.146
500.462
496.797
493.15
489.529
485.937
482.396
478.9
475.472
472.133
468.895
465.802
462.881
460.182
457.75
455.658
454.068
453.439
453.982
458.896
467.564
479.557
495.339
515.569
540.967
572.551
611.314
658.325
714.59
780.908
858.517
947.773
1048.52
1157.46
1266.18
1385.3
1531.23
1719.62
1907.52
423.482
419.496
415.514
411.52
407.485
403.458
399.488
395.624
391.744
387.778
382.994
377.215
371.669
366.658
362.033
357.758
353.591
349.439
345.284
341.152
337.045
332.946
328.862
324.797
320.748
316.723
312.724
308.753
304.809
300.896
297.016
293.173
289.38
285.646
281.982
278.407
274.94
271.597
268.407
265.429
262.741
260.655
259.873
260.769
263.247
267.65
274.444
284.28
298.004
316.638
341.589
374.175
416.051
468.326
531.658
604.115
681.744
766.104
865.561
993.848
1153.9
334.141
330.362
326.607
322.833
318.997
315.168
311.362
307.644
303.904
300.061
295.435
290.337
285.544
281.153
277.013
273.108
269.302
265.585
261.923
258.323
254.764
251.194
247.645
244.124
240.619
237.144
233.698
230.282
226.885
223.512
220.162
216.841
213.553
210.309
207.117
203.987
200.929
197.956
195.074
192.301
189.663
187.222
185.108
183.672
183.014
183.164
184.343
186.853
191.124
197.694
207.357
221.114
240.161
265.753
298.897
339.732
386.917
440.032
501.384
576.584
671.904
270.687
267.293
263.931
260.571
257.075
253.588
250.099
246.731
243.341
239.894
235.752
231.434
227.402
223.716
220.17
216.789
213.467
210.292
207.204
204.214
201.274
198.296
195.354
192.458
189.573
186.73
183.906
181.115
178.33
175.56
172.801
170.069
167.364
164.7
162.081
159.519
157.019
154.59
152.235
149.963
147.788
145.732
143.83
142.17
140.99
140.19
139.89
140.208
141.351
143.589
147.292
152.978
161.317
173.076
189.126
210.038
235.955
266.964
303.7
347.83
402.473
218.666
215.702
212.782
209.912
206.789
203.698
200.548
197.6
194.639
191.712
188.116
184.536
181.184
178.196
175.229
172.402
169.562
166.94
164.408
161.995
159.635
157.179
154.805
152.519
150.226
147.987
145.742
143.539
141.31
139.095
136.869
134.683
132.521
130.412
128.339
126.328
124.369
122.481
120.656
118.911
117.247
115.686
114.236
112.929
111.826
111.072
110.576
110.404
110.654
111.458
113
115.529
119.361
124.923
132.686
143.145
156.718
173.737
194.673
220.312
251.935
173.302
170.767
168.318
166.016
163.285
160.626
157.812
155.343
152.859
150.528
147.452
144.53
141.758
139.435
136.981
134.708
132.302
130.219
128.2
126.286
124.438
122.4
120.524
118.845
117.094
115.389
113.626
111.949
110.178
108.43
106.635
104.932
103.242
101.643
100.056
98.5459
97.0608
95.6534
94.3023
93.0448
91.8585
90.7793
89.8078
88.9393
88.2038
87.6986
87.3892
87.2615
87.3787
87.8104
88.6521
90.0231
92.0899
95.0464
99.1391
104.652
111.882
121.167
132.875
147.509
165.727
133.599
131.424
129.464
127.813
125.47
123.268
120.743
118.837
116.861
115.158
112.548
110.189
107.856
106.171
104.114
102.403
100.334
98.8
97.2274
95.6689
94.2458
92.4792
91.0485
90.0651
88.7563
87.4272
85.9916
84.794
83.3202
81.919
80.3876
79.1387
77.8327
76.7058
75.4995
74.4135
73.2432
72.2092
71.2407
70.4027
69.6402
68.978
68.4349
67.9794
67.5615
67.2481
67.1145
67.0879
67.2765
67.6023
68.2989
69.285
70.7648
72.6973
75.2921
78.5848
82.8607
88.2139
95.0306
103.582
114.215
3742.46
3584.15
3414.47
3236.27
3058.49
2886.41
2723.36
2573.69
2441.1
2327.66
2233.8
2158.5
2100.21
2056.76
2025.49
2003.84
1989.68
1981.44
1977.7
1977.23
1979.36
1983.52
1989.29
1996.56
2005.15
2015.1
2026.13
2038.33
2051.73
2066.21
2081.75
2098.29
2115.7
2133.77
2152.38
2171.25
2190.03
2208.48
2226.36
2243.35
2258.99
2273.04
2285.33
2295.65
2304.07
2310.84
2316.08
2320.03
2323.27
2326.59
2330.38
2334.89
2340.72
2348.08
2356.71
2366.35
2376.71
2387.78
2398.55
2408.02
2415.69
2460.3
2256.73
2057.78
1867.51
1700.58
1546.4
1403.87
1273.79
1156.39
1052.5
962.263
885.169
820.291
766.121
722.418
688.409
662.257
642.075
626.363
614.046
604.37
596.751
590.8
586.437
583.069
580.966
579.796
579.633
580.42
582.158
584.858
588.504
593.094
598.6
604.974
612.141
619.99
628.415
637.261
646.333
655.369
664.033
671.9
678.509
683.425
686.218
686.509
684.113
679.12
671.901
663.062
653.438
644.013
635.67
628.852
623.967
620.748
618.787
616.913
614.125
609.939
1993.54
1980.01
1878.2
1704.62
1525.86
1352.58
1183.99
1031.15
894.474
773.366
668.775
580.211
506.517
446.438
399.042
362.58
334.395
312.049
294.314
280.358
269.361
260.647
253.703
248.115
243.655
240.008
237.115
234.86
233.192
232.072
231.473
231.39
231.805
232.684
234.004
235.726
237.814
240.224
242.901
245.769
248.736
251.697
254.527
257.058
259.127
260.526
261.053
260.517
258.803
255.851
251.746
246.797
241.466
236.364
232.027
229.075
227.8
228.242
230.044
232.775
236.169
1320.43
1468.3
1566.18
1583.7
1515.44
1391
1223.42
1053.93
897.307
752.822
626.925
521.411
434.297
364.388
309.47
266.707
233.404
207.054
186.317
170.153
157.633
147.983
140.548
134.76
130.221
126.59
123.676
121.337
119.475
118.02
116.931
116.184
115.748
115.586
115.661
115.937
116.378
116.946
117.6
118.293
118.971
119.583
120.07
120.373
120.432
120.191
119.602
118.63
117.262
115.495
113.363
110.973
108.51
106.239
104.489
103.753
104.484
106.9
111.004
116.749
124.165
788.591
924.293
1068.12
1196.44
1279.3
1299.05
1250.58
1146.3
1010.73
856.927
710.222
584.097
475.567
386.808
316.342
260.503
216.671
182.33
155.459
134.654
118.731
106.718
97.7269
90.9698
85.8306
81.853
78.7427
76.2952
74.3694
72.8557
71.6905
70.8367
70.2548
69.8997
69.7297
69.7064
69.7932
69.9535
70.151
70.3455
70.4944
70.5573
70.4949
70.2699
69.8492
69.2078
68.3361
67.2358
65.9125
64.3941
62.7282
60.9993
59.3514
57.9787
57.1736
57.2357
58.6987
61.9906
67.4303
75.1643
85.0188
470.706
555.706
658.534
775.344
894.039
996.894
1063.64
1078.65
1039.5
953.888
838.576
712.746
585.595
474.16
382.975
307.603
247.789
200.419
162.644
133.417
111.315
94.9772
83.0642
74.3496
67.8878
63.0135
59.2997
56.4547
54.2714
52.584
51.2969
50.3546
49.7042
49.2891
49.0604
48.9763
48.9972
49.0881
49.2135
49.3364
49.4187
49.4273
49.3281
49.0925
48.6914
48.1091
47.3402
46.394
45.2767
44.0141
42.6473
41.2504
39.9394
38.8832
38.3429
38.6844
40.3854
43.9658
49.8753
58.3385
69.3059
291.276
340.594
402.265
477.848
566.51
663.674
759.464
839.741
890.024
899.59
865.999
796.366
702.622
598.714
496.543
399.874
319.814
254.416
199.748
156.92
124.377
100.625
83.6881
71.5591
62.7475
56.2215
51.3485
47.701
44.9713
42.8981
41.335
40.1952
39.4068
38.8936
38.5949
38.46
38.4448
38.5123
38.6264
38.7511
38.8495
38.8946
38.8528
38.7007
38.4069
37.9631
37.362
36.6166
35.7264
34.719
33.6267
32.5166
31.49
30.6906
30.3522
30.8443
32.6214
36.2815
42.4044
51.3461
63.1539
188.491
217.018
252.884
297.735
352.94
418.805
493.69
572.703
647.966
708.736
744.404
748.428
720.722
665.545
591.606
507.164
422.225
342.11
266.237
205.041
156.535
121.204
96.4716
78.9644
66.33
57.0363
50.1749
45.1488
41.4854
38.742
36.6951
35.2016
34.1629
33.4695
33.0416
32.8134
32.7319
32.7547
32.8433
32.9608
33.0689
33.1476
33.1619
33.0922
32.901
32.588
32.1397
31.5751
30.8853
30.1
29.2448
28.3841
27.6075
27.0425
26.9095
27.5482
29.4185
33.1854
39.5259
48.9329
61.5316
127.601
144.261
165.138
191.498
224.416
264.962
313.57
369.801
431.26
493.978
550.148
593.656
618.04
620.374
598.898
555.737
496.768
426.134
352.858
278.088
208.478
157.739
122.371
97.1232
78.4826
64.7394
54.6124
47.335
42.1436
38.2947
35.4625
33.3841
31.9332
30.9431
30.3014
29.9147
29.7159
29.652
29.6815
29.7591
29.8502
29.9385
29.9879
29.9787
29.8703
29.6638
29.3466
28.9339
28.4161
27.8178
27.1679
26.5263
25.9818
25.6487
25.7307
26.5572
28.5891
32.5225
39.0912
48.9234
62.1645
1.55093
216.67
193.64
2.27405
2.23835
0.202589
0.000719238
91.399
0.0007971
0.0146354
94.5482
6.96018
0.000720232
247.594
0.165896
131.879
0.000757655
92.7779
119.261
0.000714837
2.26854
236.103
205.031
0.000766759
0.000781733
0.206592
0.000716056
7.92119
0.0007534
0.000820428
6.47545
0.000740931
0.00874782
63.1243
3.97183
113.134
72.5346
15.5217
0.000723068
44.4303
64.3262
28.9712
0.000743423
99.9235
173.557
0.714064
0.000867097
0.00866714
1.2864
7.17716
374.247
358.447
0.000697548
0.00102742
0.0630309
0.0333252
0.000817603
9.1087
59.2753
286.207
140.384
0.000907004
1.5123
0.0249312
202.429
2.45122
38.8221
64.215
0.00113038
0.000747691
9.69203
39.416
55.4782
0.0401287
0.0511601
79.0743
232.938
53.7186
0.000699457
5.45417
0.00234565
47.0528
0.0125834
106.084
0.000749945
8.46296
0.000791721
36.6266
0.011011
0.00136983
0.227591
0.000697948
0.000935207
310.238
143.369
0.000868443
1.57968
1.86055
0.00184636
205.835
1.06399
31.8416
5.63051
0.000696652
0.000725855
0.000693619
1.35941
0.209011
0.000747874
172.838
221.414
0.00474419
237.205
26.4945
115.323
53.3269
28.1986
0.000976375
0.110146
0.00110588
0.00164931
190.694
0.00313191
286.857
418.781
28.5884
0.000746105
6.98442
6.88384
0.000744025
0.0297846
0.0267962
91.7796
0.00188304
62.507
0.000748937
0.000723661
397.16
353.903
0.00074907
0.765608
148.727
0.225956
0.90379
26.5519
119.771
0.297377
27.504
0.00525772
281.106
10.9747
0.0357508
47.2084
103.76
188.584
0.000765633
0.000757906
0.508888
0.000696646
41.5572
0.113605
0.00144861
0.000740161
0.000747594
0.00075857
39.2721
71.0738
34.0414
0.000766306
289.517
308.499
403.861
166.22
0.00689858
158.359
42.5628
28.1562
0.000750591
0.00169899
193.933
68.1154
29.8093
71.4714
0.000745586
0.00084297
241.038
0.029477
2.48146
0.00075784
0.000865518
0.171371
0.000797429
336.818
3.84111
0.000692993
0.673889
91.1958
144.878
0.00119655
53.0804
0.00074682
0.000750417
107.093
31.2447
307.05
0.00121341
0.000801502
0.00284912
40.1239
77.5786
9.50592
125.087
14.2525
230.466
0.804975
82.9897
80.2575
27.5249
10.6365
38.9794
0.00144857
0.0292951
0.000747879
0.000724975
28.3023
0.0100119
0.0117348
0.00200494
0.00626206
45.3979
196.915
0.0110901
173.924
7.38473
2.96723
0.00073253
0.537153
36.9992
7.09486
0.00106173
13.117
35.9915
0.858049
2.41477
270.096
7.20778
5.02547
119.253
0.000955096
0.000723636
0.0010284
0.00427492
28.6073
0.000784287
0.0025291
0.000723536
1.69185
75.4816
76.0169
49.073
11.9485
11.2988
325.885
0.00113806
48.416
98.7049
0.000744
80.5878
0.000749618
332.116
1.68969
49.9381
0.00154989
0.000748581
19.88
7.72498
0.000759625
0.000750878
0.000755635
0.000751651
1.18238
35.3348
42.7472
0.0108043
0.000760434
0.000724362
0.000695574
100.619
1.17453
0.00119261
18.2889
0.116015
0.0951576
0.000691892
0.774657
0.000760155
0.11139
47.3928
275.966
3.12454
0.000975195
0.00185088
54.3845
0.350692
129.954
322.775
0.000838712
0.000739973
0.00073406
152.196
0.00077419
136.287
0.000749897
24.0437
12.2329
0.0240917
139.136
241.95
0.00127428
49.935
50.0567
89.0456
90.5102
9.79375
351.997
38.5339
71.2109
142.832
91.8994
55.6833
0.335028
339.585
279.759
62.6626
33.3807
0.000997477
274.089
124.041
226.677
0.0187728
0.000868324
0.00074586
0.000812373
0.684063
1.55926
6.42002
0.124284
0.000726124
169.494
0.000746457
26.4484
22.3997
189.927
42.2996
18.0672
0.0019351
0.00110818
0.458807
84.3174
0.00437935
7.89909
261.453
35.9939
80.7055
197.02
61.1125
0.000822203
282.283
142.482
96.1596
0.000750695
194.666
151.493
0.000782002
30.3784
0.000751842
401.499
172.111
27.981
78.2993
112.201
147.454
0.000764508
146.304
0.000966291
68.3215
78.0185
28.1803
278.468
3.61861
0.490914
2.56117
0.00110184
441.391
1.46845
0.00290306
0.00179923
258.27
0.00095461
88.9537
0.00073726
0.000750246
0.00183529
30.4481
0.19104
20.6939
0.0020068
80.319
0.306899
222.323
280.84
36.5567
343.59
0.000793001
277.98
40.9925
0.000742631
75.5524
24.409
0.000695833
0.000727372
116.981
0.00205783
27.0623
0.456125
74.3378
0.017665
3.28899
37.9897
120.67
31.3053
83.8679
67.395
0.000996994
0.0335182
28.6748
21.9756
330.743
345.363
144.064
0.0840424
122.167
121.147
3.2394
91.9759
44.4028
24.7072
0.000819683
80.9789
386.711
0.00107707
90.561
18.8276
45.0564
0.0153119
0.0888095
270.652
0.00193784
326.931
0.00124892
1.8272
0.000738123
7.60167
167.965
0.553886
0.00132344
0.000900492
74.3662
26.7204
0.389976
5.53688
296.993
543.416
0.00138094
11.5287
27.1566
71.0265
26.0654
450.163
28.7104
153.612
50.0965
3.39614
7.12055
301.535
53.451
354.644
169.192
0.230923
173.891
59.2698
0.000791245
92.8312
28.8042
12.983
0.00974104
96.3456
44.8482
3.96307
52.4162
0.00159171
0.000747223
0.166214
28.5051
108.711
73.6903
0.000750238
0.000731167
0.000744203
28.1485
0.0277593
0.000745845
0.242659
94.1013
275.517
0.00441269
0.00453895
0.000720993
0.000738857
0.00194736
28.459
100.261
21.5632
1.87951
300.644
389.464
0.00150898
63.0201
27.7933
28.3631
72.7332
441.079
0.000821587
0.00447503
0.000751248
397.27
0.754171
0.000726895
10.4099
0.348422
302.093
0.000759332
328.102
8.42223
0.0665335
200.119
0.000748521
0.000737044
0.00102581
407.373
51.2129
128.055
323.583
10.9293
28.5402
0.000708253
0.0018495
0.460375
0.0162107
0.0163283
176.75
41.0526
0.00074802
25.4127
45.356
184.362
409.932
0.00295164
412.952
0.00182989
0.0217813
147.378
0.0007398
142.062
0.000759585
0.000792351
0.0210825
34.1819
2.92281
321.931
61.0997
0.000885206
28.3559
502.836
0.22354
2.19083
7.29108
0.000775385
0.000760098
0.00230671
130.955
5.51831
0.00078215
272.039
280.773
215.174
0.11831
60.3157
0.0010878
28.9023
0.547802
0.130123
123.914
29.6468
149.573
171.409
0.000761032
0.000711088
0.00497288
72.8376
102.977
5.85923
0.00659076
0.000770323
0.000750418
0.00345117
0.120206
0.00211811
73.2706
21.345
0.00497284
26.2394
171.822
0.000760794
38.1058
0.000742739
3.20004
0.00076249
0.0132152
38.4421
0.0116385
0.000744614
4.01814
367.528
267.232
0.000730877
0.000745672
1.50381
0.129755
0.000747795
100.659
0.000906668
31.9081
379.948
29.0583
88.007
294.514
133.049
335.695
0.000747984
0.00249998
0.0110276
293.905
60.6879
201.744
5.52281
4.36225
99.7251
166.239
128.944
4.9757
47.4294
0.000750593
1.46391
38.9717
32.2903
312.629
27.1145
1.14899
39.3511
0.2006
0.00966229
39.3478
0.000751394
175.857
0.000886017
2.7006
291.926
186.081
2.89945
0.00251193
6.8284
0.000769446
0.000736327
0.197053
0.0134833
49.6464
0.00878517
28.5682
0.000750546
0.0190223
0.000725438
92.4081
0.0017951
85.9453
300.073
0.0143161
166.746
379.205
0.000757416
98.1085
223.956
0.000784989
286.199
0.268433
0.000822426
0.00078844
286.185
0.000731653
0.00112036
0.121322
0.211515
436.911
269.768
0.000751503
0.000754447
9.17191
26.6934
0.00710236
2.27811
21.7365
0.000747745
0.000955293
0.000910613
165.853
269.552
3.27814
300.261
0.017139
26.4919
0.00077076
0.00718599
0.0159989
0.0431477
0.000749837
301.105
0.000741965
0.0160617
0.000771684
1.37565
0.0148173
0.0421344
2.45905
4.86233
34.871
2.13799
8.97559
27.81
189.679
0.000816819
164.935
327.806
12.1107
72.485
0.000761881
269.084
79.3781
0.000745834
416.176
66.6491
0.00659655
0.0256087
157.263
155.411
0.232883
316.312
414.583
4.4029
436.245
266.678
123.099
50.8816
21.525
28.3976
265.064
293.676
0.0142778
314.264
41.8007
407.238
0.000813649
1.51957
2.8099
222.017
164.85
0.011833
445.284
191.601
7.01857
0.0544244
2.72732
28.02
0.00155011
28.1651
445.282
0.029214
218.157
13.6135
90.6253
187.929
0.000746236
0.00167858
7.20059
5.0704
0.0132497
0.000748361
0.822959
1.82964
0.00120968
0.000758694
269.317
6.78891
51.4777
10.1614
0.00315201
0.00107705
0.43529
87.702
0.00082471
20.5988
29.5944
1.84521
165.352
0.00100616
0.39638
0.000740697
1.76337
83.5955
0.00163763
0.184586
40.9669
170.013
0.501237
91.5367
4.98133
0.924643
0.000988219
31.5349
336.473
0.000744182
0.000753764
145.669
0.0157906
0.000758244
70.7823
2.05588
162.74
29.5349
37.9446
0.307843
16.8888
205.267
165.677
245.416
0.000763548
276.766
0.000967131
37.9519
0.000794806
0.00150122
45.2131
0.0020924
257.136
0.0121664
0.0322704
44.8349
7.60046
0.563599
0.000898442
185.184
0.000887901
0.000718982
347.421
160.208
39.5505
28.5751
0.000814715
0.000684343
18.7875
146.674
0.000732432
222.985
36.8125
0.000753132
164.826
0.000701631
3.40123
6.30902
10.6009
1.4622
75.9983
21.0194
0.000699864
269.797
333.071
0.000744757
0.0132811
28.8263
0.000708141
235.727
160.916
404.979
0.000745755
0.00072786
201.573
0.0960912
0.00083704
30.0775
80.0096
256.483
0.000720655
0.000793709
0.0157613
0.0115939
0.00074695
0.00202746
121.451
50.6653
0.000746826
12.6442
0.000747089
10.1315
0.00108941
0.000867995
26.0629
0.000745782
0.347838
0.000730552
48.6591
2.10264
19.3396
181.616
362.49
146.906
4.99428
14.8649
0.000758249
5.60531
277.155
529.225
0.155736
0.000827315
126.799
0.000746165
0.114216
0.000720401
446.151
15.1785
3.1709
197.713
50.9947
5.01618
77.0701
7.66617
220.153
109.023
0.000774307
0.000755169
0.0030977
0.000735047
0.0140481
100.719
0.000931238
253.529
0.00187011
0.307356
2.92517
152.601
0.00135677
39.8574
0.0135171
57.1729
29.1114
441.91
0.000793701
0.000953773
1.4811
81.5886
65.0144
63.1462
1.86146
7.89669
19.591
0.0621233
10.5235
1.71513
30.1152
0.000754942
394.839
1.4305
53.7919
0.000788681
51.01
16.2865
0.00189776
88.2764
16.984
0.0840874
0.000714386
0.000746193
203.554
46.0935
14.8699
0.000738326
0.00954116
50.8062
183.951
3.35024
0.00586028
0.000733278
148.411
128.586
35.8317
34.0741
0.00074393
100.607
439.297
0.000746927
0.000749312
18.0135
0.00128875
0.00387256
0.218537
46.6513
0.00104968
36.2916
345.144
0.000730478
0.00082105
0.000727251
0.000770704
63.7035
517.63
338.639
0.0205693
32.3598
47.349
0.131971
42.5293
0.000821518
31.3099
0.52961
30.417
4.9958
81.5688
100.232
0.137989
0.000759139
156.513
84.7377
282.232
5.62328
29.691
0.512203
20.7456
0.00353422
0.00133672
151.22
141.41
0.0335263
1.19338
0.000754204
0.0989175
19.0786
0.0278865
13.4264
4.41264
387.009
36.6074
1.73567
278.072
134.965
56.4107
15.0093
200.294
189.958
3.06741
36.9423
0.00378212
45.4453
43.8704
0.000743483
0.000710333
0.350517
0.000748628
0.000774537
57.4012
299.268
0.000744786
84.1307
0.000745143
0.000736881
0.000741348
0.000752073
0.00181483
29.4705
45.3649
248.108
0.000718048
0.00107533
6.45103
0.000856194
0.0282099
0.000762781
0.000862773
166.267
0.000984179
0.00467385
183.363
0.0042578
0.000749487
186.551
0.000745469
0.00076081
1.44276
0.000871759
6.51891
0.00123569
0.0240261
0.000743863
0.000753609
303.894
424.622
43.4474
0.0236417
107.738
15.1876
0.00129855
27.5442
311.075
231.489
478.014
0.000700136
27.6857
54.1373
0.260674
28.4297
101.134
0.350162
31.4929
1.01899
28.3473
0.283371
7.30713
0.00075762
223.574
0.000754833
28.6239
30.665
0.000747897
0.916147
0.00245999
0.0309909
0.00072625
3.87838
0.000894835
0.000741808
40.1709
0.0336749
0.16453
226.815
150.972
0.000818039
0.000967152
28.9832
260.864
0.000690294
0.000754208
0.196314
23.7071
141.706
0.00209463
15.2181
0.000745592
0.00081897
0.000718077
0.0278094
23.949
0.00408189
276.248
29.5519
258.853
171.919
0.000844094
304.834
63.5833
0.000732705
0.000754066
0.000750341
0.00115917
0.000740326
122.992
0.000745413
0.00075083
355.636
1.16622
0.00268103
0.0365862
56.9664
7.21153
0.0076062
0.000824585
183.719
0.00076269
6.64165
0.000754861
0.000846425
162.014
167.564
0.00335046
0.000832882
3.91253
0.000744287
373.898
0.000752971
152.487
0.0275235
8.46283
0.126056
3.18924
1.94922
29.3837
0.000760949
0.00086097
0.00489808
60.4336
0.289277
303.279
0.000747191
0.00123923
0.00164346
256.674
59.3722
272.892
0.00225891
0.00349961
0.800277
0.000751344
19.5551
36.4029
0.00876403
270.984
175.442
41.1689
0.0015477
1.41615
170.834
226.022
27.8161
0.0105512
119.295
0.530188
134.591
0.142981
2.24713
42.9293
0.000761952
28.3594
0.00122378
0.00509427
0.00658794
0.0477136
0.000908232
10.7216
0.000746135
46.266
0.131882
0.000864218
1.5451
0.000756578
0.761666
0.224631
40.3111
3.75261
92.3738
0.780464
0.000748422
0.000732681
4.7612
0.158314
40.9731
262.023
0.000751658