/*--------------------------------*- C++ -*----------------------------------*\
| =========                 |                                                 |
| \\      /  F ield         | OpenFOAM: The Open Source CFD Toolbox           |
|  \\    /   O peration     | Version:  2.3.1                                 |
|   \\  /    A nd           | Web:      www.OpenFOAM.org                      |
|    \\/     M anipulation  |                                                 |
\*---------------------------------------------------------------------------*/
FoamFile
{
    version     2.0;
    format      ascii;
    class       volScalarField;
    location    "0.63";
    object      k;
}
// * * * * * * * * * * * * * * * * * * * * * * * * * * * * * * * * * * * * * //

dimensions      [0 2 -2 0 0 0 0];

internalField   nonuniform List<scalar> 
9648
(
2.71077
2.70296
2.70218
2.69777
2.68968
2.6773
2.66126
2.64132
2.61732
2.58917
2.55691
2.52076
2.48113
2.43861
2.39387
2.34767
2.30077
2.25392
2.20776
2.16286
2.11967
2.07854
2.03973
2.0034
1.96964
1.93849
1.90993
1.88392
1.86038
1.83924
1.8204
1.80375
1.78921
1.77667
1.76604
1.75723
1.75015
1.74473
1.7409
1.73859
1.73776
1.73836
1.74036
1.74372
1.74845
1.75451
1.76194
1.77078
1.78104
1.79276
1.80599
1.82077
1.83717
1.85513
1.87466
1.89555
1.91744
1.93978
1.96208
1.98399
2.00521
1.7607
1.75801
1.75445
1.75014
1.7476
1.74897
1.75648
1.77114
1.79298
1.82215
1.85847
1.90141
1.95014
2.00369
2.06109
2.12137
2.18365
2.24714
2.31119
2.37527
2.43894
2.50189
2.56391
2.62483
2.68458
2.74313
2.80055
2.85685
2.91207
2.9663
3.01967
3.07223
3.12405
3.17527
3.22594
3.2761
3.32587
3.37534
3.4245
3.47332
3.52189
3.5703
3.61853
3.66654
3.71443
3.76206
3.80943
3.85667
3.90381
3.95071
3.99722
4.0433
4.089
4.13395
4.17839
4.22208
4.26518
4.30703
4.34787
4.38775
4.42674
1.45267
1.50334
1.55455
1.60988
1.67181
1.74111
1.81751
1.90101
1.9911
2.08738
2.18878
2.29451
2.40353
2.51473
2.62705
2.73946
2.85109
2.96114
3.06896
3.17405
3.27602
3.37463
3.46971
3.56122
3.64922
3.73381
3.81516
3.89339
3.96872
4.04135
4.11143
4.17922
4.24493
4.30867
4.37062
4.43098
4.48983
4.54735
4.60359
4.65867
4.71267
4.76564
4.81771
4.86891
4.91923
4.96866
5.01716
5.06481
5.11146
5.15714
5.20181
5.24553
5.28847
5.32997
5.37094
5.41037
5.44901
5.4858
5.52192
5.55698
5.59103
1.36932
1.46997
1.57447
1.68451
1.80102
1.92427
2.05406
2.18974
2.33037
2.47496
2.62217
2.77085
2.91971
3.0677
3.21367
3.35662
3.49578
3.63048
3.76024
3.8847
4.00365
4.11691
4.22455
4.32669
4.42358
4.51548
4.60271
4.68557
4.76437
4.8394
4.91105
4.97962
5.0454
5.10868
5.16966
5.22859
5.28567
5.34107
5.39493
5.4474
5.49862
5.5487
5.59774
5.64585
5.69304
5.73933
5.78477
5.82937
5.87306
5.91584
5.95783
5.99868
6.03862
6.07745
6.11567
6.15274
6.18869
6.22352
6.2573
6.29006
6.3216
1.39885
1.54139
1.69152
1.84844
2.01173
2.18117
2.35606
2.53523
2.71747
2.90124
3.08503
3.2673
3.44686
3.62258
3.79341
3.95826
4.11648
4.26766
4.41141
4.54768
4.67634
4.79738
4.91102
5.01751
5.11733
5.21098
5.29885
5.38142
5.45903
5.53215
5.60122
5.66662
5.72883
5.78812
5.84475
5.89906
5.95131
6.00163
6.05024
6.09729
6.14295
6.18736
6.23071
6.27308
6.31451
6.35505
6.39472
6.43354
6.47157
6.50861
6.5448
6.58003
6.61416
6.64722
6.67937
6.71069
6.74088
6.77004
6.79806
6.82484
6.85039
1.48047
1.65998
1.85048
2.04932
2.25458
2.46522
2.67996
2.89729
3.11547
3.33253
3.54679
3.75639
3.96032
4.15732
4.34682
4.52753
4.69879
4.86062
5.01263
5.15515
5.28826
5.41186
5.52656
5.63248
5.73053
5.82138
5.90557
5.98379
6.05627
6.12363
6.18648
6.24514
6.30033
6.35241
6.40152
6.44814
6.49268
6.53516
6.5759
6.61501
6.65257
6.68891
6.7242
6.75862
6.79211
6.8248
6.85681
6.88789
6.91828
6.94781
6.97643
7.0041
7.03079
7.05632
7.08092
7.10456
7.12731
7.14907
7.16958
7.18861
7.20654
1.5934
1.80637
2.03369
2.27072
2.51389
2.76155
3.01172
3.26251
3.51202
3.75729
3.99705
4.22865
4.45155
4.6644
4.8678
5.05941
5.23888
5.40678
5.56233
5.70663
5.84006
5.96201
6.07391
6.17521
6.26755
6.35194
6.42883
6.49951
6.56362
6.62207
6.67579
6.72468
6.77001
6.81219
6.851
6.88721
6.92164
6.95379
6.98435
7.01335
7.04061
7.06669
7.09184
7.11632
7.13975
7.16247
7.18465
7.20608
7.22699
7.24705
7.26628
7.28453
7.30184
7.31791
7.33281
7.34703
7.36052
7.37306
7.38414
7.3936
7.40194
1.72539
1.96867
2.22968
2.50148
2.77885
3.05908
3.3404
3.62066
3.89724
4.16648
4.42757
4.67641
4.91357
5.13697
5.35009
5.54854
5.73226
5.90289
6.05797
6.19996
6.33019
6.44656
6.55298
6.64607
6.72896
6.80342
6.86954
6.92988
6.98254
7.02911
7.07125
7.10744
7.1401
7.16973
7.19552
7.21865
7.24024
7.25898
7.27681
7.29338
7.30786
7.32106
7.33361
7.34573
7.35659
7.36714
7.37687
7.38618
7.39503
7.40333
7.41073
7.41723
7.42308
7.42725
7.43025
7.43286
7.43441
7.43603
7.43562
7.43306
7.43002
1.86732
2.13531
2.42678
2.72717
3.03639
3.34396
3.65091
3.95858
4.2561
4.54689
4.82441
5.08925
5.33591
5.56562
5.78305
5.98519
6.17029
6.34057
6.4964
6.63314
6.75533
6.86368
6.96056
7.04633
7.11694
7.17729
7.23042
7.27773
7.31554
7.34781
7.37594
7.39859
7.41651
7.43023
7.43967
7.44812
7.45212
7.45404
7.45655
7.45698
7.45556
7.45173
7.4501
7.44711
7.44247
7.43945
7.43255
7.42709
7.41934
7.41194
7.40265
7.39369
7.38528
7.3748
7.36334
7.35213
7.33772
7.32778
7.31302
7.29493
7.2785
2.02551
2.04478
2.06319
2.08072
2.09743
2.11347
2.12909
2.14464
2.15991
2.17428
2.18746
2.20008
2.21223
2.22414
2.23607
2.24862
2.26218
2.27706
2.29362
2.31236
2.33304
2.35523
2.37863
2.40278
2.42737
2.45239
2.47799
2.50386
2.52994
2.55629
2.58301
2.61
2.63726
2.66496
2.69301
2.72141
2.75026
2.77962
2.80945
2.83968
2.87041
2.90173
2.93363
2.96605
2.99912
3.03267
3.06671
3.10139
3.13673
3.17263
3.20912
3.24628
3.28423
3.32274
3.36215
3.40237
3.44372
3.4859
3.52926
3.57392
3.61996
4.46489
4.50106
4.53636
4.57088
4.60437
4.63641
4.66656
4.69547
4.7222
4.74821
4.77253
4.79589
4.81818
4.83949
4.85969
4.87866
4.89652
4.91324
4.92886
4.94334
4.95677
4.96915
4.98036
4.99047
4.99948
5.00737
5.01401
5.01914
5.02287
5.02517
5.02605
5.02554
5.02369
5.02049
5.01597
5.01021
5.00317
4.99493
4.98546
4.9748
4.96299
4.95007
4.93612
4.92109
4.90496
4.88767
4.8691
4.84933
4.82825
4.80592
4.78228
4.75726
4.73101
4.70308
4.67418
4.64373
4.61235
4.57957
4.54644
4.51281
4.47883
5.6235
5.65494
5.6849
5.71399
5.74209
5.76963
5.7953
5.81963
5.84185
5.86282
5.88224
5.90047
5.91737
5.93325
5.9479
5.96125
5.97331
5.98409
5.99355
6.0017
6.00859
6.01419
6.01852
6.02158
6.02334
6.0238
6.023
6.02087
6.01739
6.01249
6.00622
5.9985
5.98937
5.97887
5.96699
5.95377
5.93919
5.92328
5.90603
5.88749
5.86771
5.84679
5.82477
5.8017
5.77751
5.75217
5.72551
5.6975
5.66807
5.63722
5.60491
5.57089
5.53526
5.49787
5.45891
5.41809
5.37566
5.33186
5.28716
5.24165
5.19544
6.35217
6.38148
6.40957
6.43618
6.46163
6.48596
6.50888
6.53005
6.54971
6.5678
6.58435
6.59937
6.61289
6.62499
6.63555
6.64474
6.65251
6.65882
6.66365
6.66701
6.66893
6.6695
6.66871
6.66661
6.66312
6.65822
6.65189
6.64418
6.6351
6.62462
6.61268
6.59924
6.58429
6.56786
6.55002
6.53076
6.51004
6.48784
6.46416
6.43905
6.41264
6.38502
6.35638
6.3268
6.2963
6.26484
6.23221
6.19834
6.16317
6.12671
6.08881
6.04931
6.00819
5.96533
5.92066
5.87401
5.82558
5.77567
5.72477
5.67291
5.62051
6.8747
6.89785
6.91961
6.93983
6.9584
6.97543
6.99095
7.005
7.01774
7.02916
7.03911
7.04761
7.05468
7.06024
7.06433
7.06706
7.06828
7.06799
7.06613
7.06269
7.05779
7.05154
7.04404
7.03533
7.02531
7.01394
7.00124
6.98725
6.97206
6.95566
6.938
6.91889
6.89835
6.87638
6.85311
6.82847
6.80239
6.77481
6.74563
6.71492
6.68283
6.64951
6.61522
6.58022
6.54461
6.50842
6.47128
6.43322
6.39411
6.3541
6.3128
6.27001
6.22579
6.17988
6.13215
6.08213
6.0303
5.97679
5.92232
5.86682
5.81087
7.22317
7.23852
7.25234
7.26474
7.27546
7.28451
7.29205
7.2979
7.30224
7.30514
7.30672
7.30698
7.30583
7.3032
7.2991
7.29369
7.28693
7.27863
7.26862
7.25688
7.24362
7.22905
7.21334
7.19664
7.17876
7.15958
7.13915
7.11752
7.095
7.07168
7.04753
7.02213
6.99554
6.96766
6.93877
6.9087
6.8772
6.84429
6.80972
6.77351
6.73579
6.69667
6.65658
6.61596
6.5751
6.53432
6.49278
6.45092
6.40833
6.36561
6.32192
6.27676
6.23059
6.18283
6.1335
6.08145
6.0276
5.97177
5.91544
5.85788
5.79994
7.40912
7.41503
7.41943
7.42228
7.42346
7.42292
7.42067
7.41701
7.4118
7.40486
7.39665
7.38738
7.3768
7.36475
7.35114
7.33651
7.32092
7.3038
7.28484
7.26378
7.24103
7.21708
7.19208
7.16643
7.13987
7.11196
7.08282
7.05233
7.02129
6.99001
6.9589
6.92682
6.89418
6.86045
6.82643
6.79155
6.75504
6.71725
6.67789
6.63689
6.59421
6.54966
6.50392
6.45768
6.41143
6.36629
6.32023
6.27485
6.22897
6.18453
6.13973
6.09311
6.04612
5.99765
5.94827
5.89509
5.84061
5.78351
5.72711
5.66897
5.61086
7.42565
7.4204
7.41354
7.40557
7.39593
7.38491
7.37185
7.35838
7.34354
7.3262
7.30766
7.28873
7.26843
7.24681
7.22291
7.19831
7.17407
7.14863
7.1214
7.09102
7.0582
7.02473
6.99006
6.95491
6.91973
6.88318
6.84537
6.80505
6.76394
6.72327
6.68492
6.64574
6.6075
6.56848
6.53086
6.49333
6.45293
6.41054
6.36736
6.32353
6.27751
6.22877
6.17836
6.12701
6.07542
6.0268
5.97594
5.92738
5.87801
5.83315
5.78923
5.74212
5.69551
5.64761
5.60011
5.54655
5.49292
5.43527
5.3809
5.32394
5.26805
7.25905
7.24033
7.21851
7.19781
7.17444
7.15346
7.12835
7.10585
7.0832
7.05794
7.03095
7.00443
6.9758
6.94715
6.91315
6.87696
6.84431
6.81286
6.78205
6.74651
6.70291
6.66196
6.61938
6.57441
6.53074
6.48692
6.44453
6.39633
6.34266
6.29038
6.24432
6.19678
6.15283
6.10878
6.07146
6.03626
5.99533
5.94805
5.9015
5.85783
5.81285
5.76249
5.70861
5.65426
5.5984
5.54835
5.49172
5.44029
5.38595
5.34318
5.30281
5.25571
5.21119
5.16622
5.12335
5.06983
5.01854
4.96036
4.91012
4.8564
4.80599
3.66738
3.71584
3.7656
3.81666
3.86905
3.9229
3.97816
4.03493
4.09294
4.15213
4.21261
4.27382
4.33586
4.40127
4.48294
4.5573
4.63064
4.70467
4.77947
4.85519
4.93186
5.00952
5.08806
5.16743
5.24742
5.32778
5.40839
5.48906
5.56959
5.64965
5.72912
5.80771
5.88498
5.96073
6.03459
6.106
6.17449
6.23917
6.29547
6.33665
6.36464
6.38011
6.38302
6.37271
6.34816
6.30794
6.25017
6.17254
6.07233
5.9464
5.79098
5.60163
5.37337
5.09991
4.75235
4.21792
3.96968
3.84265
3.79195
3.76706
3.71452
4.44421
4.40925
4.3735
4.33706
4.29993
4.26283
4.22552
4.18876
4.15202
4.11568
4.08048
4.03964
3.9954
3.95377
3.90687
3.86193
3.8169
3.77178
3.72703
3.68294
3.6395
3.59647
3.55372
3.51123
3.46893
3.42683
3.38494
3.34338
3.30217
3.26137
3.22112
3.18153
3.14274
3.10497
3.06849
3.0336
3.00072
2.97043
2.94348
2.92129
2.90148
2.88412
2.86962
2.85858
2.85191
2.85054
2.8555
2.86811
2.88982
2.92187
2.96547
3.02171
3.09187
3.17756
3.27031
3.40827
3.58817
3.86233
4.24858
4.74618
5.06359
5.14874
5.10153
5.05352
5.0044
4.95413
4.90324
4.85205
4.80102
4.74972
4.69812
4.64302
4.57985
4.5174
4.45813
4.39898
4.34057
4.28139
4.22146
4.16118
4.10097
4.04089
3.98068
3.9203
3.85973
3.79888
3.73777
3.67638
3.61471
3.55272
3.49041
3.42777
3.3648
3.30157
3.23809
3.17445
3.11075
3.04709
2.98358
2.92039
2.85773
2.79557
2.73364
2.6725
2.61291
2.55523
2.50006
2.44829
2.40117
2.3604
2.32816
2.30729
2.30141
2.3153
2.35429
2.42174
2.52844
2.6787
2.90272
3.245
3.75652
4.37336
5.56771
5.51484
5.4613
5.4067
5.35064
5.29393
5.2369
5.18021
5.12321
5.06532
5.00042
4.92968
4.86153
4.79673
4.73306
4.67018
4.60685
4.54324
4.47948
4.4159
4.35242
4.28859
4.22455
4.16034
4.09584
4.03111
3.96612
3.90085
3.8352
3.76914
3.70262
3.6357
3.56838
3.50072
3.43277
3.36462
3.29632
3.22792
3.15943
3.09087
3.0222
2.95337
2.88371
2.81322
2.74251
2.67171
2.60109
2.53107
2.46239
2.39614
2.3338
2.27759
2.23049
2.19633
2.17902
2.18477
2.22184
2.30772
2.47171
2.757
3.18951
5.75446
5.69842
5.64194
5.58452
5.52512
5.46498
5.40442
5.34456
5.28425
5.22276
5.15286
5.07938
5.00915
4.94234
4.87663
4.8117
4.74653
4.68186
4.61752
4.55375
4.49015
4.42591
4.36152
4.29709
4.23235
4.16748
4.10235
4.03697
3.97111
3.90479
3.83797
3.77077
3.70323
3.63548
3.56758
3.49964
3.43174
3.36394
3.29623
3.22864
3.16116
3.09381
3.02646
2.95855
2.88988
2.82058
2.75072
2.68038
2.60971
2.53905
2.46884
2.3997
2.33263
2.26891
2.21024
2.15972
2.12343
2.11205
2.14226
2.23923
2.43275
5.74117
5.68355
5.62578
5.56733
5.5059
5.44369
5.38067
5.31904
5.25706
5.19429
5.12246
5.04901
4.97897
4.91278
4.84705
4.78207
4.71671
4.65291
4.58994
4.52806
4.46643
4.40362
4.34097
4.27863
4.2159
4.15321
4.09013
4.02687
3.96289
3.89841
3.83334
3.76804
3.70253
3.63707
3.57167
3.50651
3.44166
3.37722
3.31317
3.24958
3.18645
3.12386
3.06179
3.0001
2.93834
2.87601
2.81312
2.74974
2.68592
2.62173
2.55729
2.49263
2.42777
2.36274
2.29745
2.23262
2.17074
2.11715
2.08074
2.07494
2.11856
5.55057
5.49271
5.43513
5.3777
5.31524
5.25221
5.18751
5.1257
5.0637
5.0022
4.93029
4.85881
4.79052
4.72727
4.66321
4.60018
4.53596
4.47485
4.41483
4.35645
4.29835
4.23794
4.17861
4.12046
4.06153
4.00283
3.94331
3.88384
3.82309
3.76187
3.69983
3.63806
3.57626
3.51505
3.45403
3.39369
3.33386
3.27488
3.21661
3.1593
3.10282
3.04741
2.99298
2.93951
2.8868
2.83444
2.78165
2.72845
2.67496
2.62133
2.5676
2.51375
2.45961
2.40474
2.34856
2.29051
2.23076
2.17106
2.11518
2.06958
2.0442
5.20686
5.1497
5.09385
5.04005
4.9778
4.91554
4.84989
4.78976
4.72964
4.67213
4.60137
4.53315
4.46749
4.4093
4.34792
4.28872
4.2265
4.16973
4.11394
4.05997
4.00633
3.94844
3.8935
3.84191
3.78809
3.73437
3.67892
3.62441
3.56723
3.50986
3.45121
3.39426
3.33731
3.282
3.22667
3.17267
3.11899
3.06692
3.0159
2.96669
2.91856
2.87219
2.82735
2.78374
2.74128
2.70004
2.65877
2.61708
2.57542
2.53401
2.49312
2.4527
2.4126
2.3723
2.3311
2.28808
2.24252
2.19428
2.14429
2.09488
2.05043
4.74465
4.68776
4.63564
4.58841
4.52782
4.4678
4.40161
4.34576
4.28986
4.23884
4.17026
4.10585
4.04273
3.99164
3.93305
3.87963
3.81963
3.76903
3.71835
3.66827
3.61914
3.56283
3.51325
3.47221
3.42378
3.37378
3.32159
3.27306
3.21815
3.16416
3.10776
3.05742
3.00572
2.95796
2.90845
2.86159
2.81329
2.76882
2.72588
2.68623
2.64758
2.61131
2.57709
2.54422
2.51157
2.47977
2.44861
2.41686
2.38671
2.35708
2.33032
2.3047
2.2809
2.25735
2.23386
2.20907
2.18237
2.15276
2.12025
2.0845
2.04701
3.62185
3.51862
3.40659
3.28718
3.16588
3.04594
2.93003
2.82169
2.724
2.63897
2.56748
2.50952
2.46419
2.43004
2.40531
2.3882
2.37699
2.37041
2.36737
2.367
2.36869
2.37201
2.37665
2.38245
2.38926
2.39714
2.40591
2.41558
2.42616
2.43758
2.44979
2.46274
2.47633
2.49041
2.50483
2.51942
2.53394
2.54818
2.56189
2.57486
2.58682
2.59753
2.60688
2.61478
2.62119
2.62625
2.63016
2.63318
2.63569
2.63814
2.64094
2.64441
2.64878
2.65427
2.66075
2.66807
2.67589
2.684
2.69192
2.69905
2.70506
5.05535
4.98228
4.86042
4.68822
4.49686
4.28829
4.06053
3.82055
3.57662
3.33657
3.1065
2.89272
2.69889
2.52629
2.3755
2.24798
2.14324
2.05849
1.99068
1.9372
1.89553
1.86339
1.83889
1.82093
1.80757
1.79889
1.79379
1.7921
1.79347
1.79766
1.80446
1.81365
1.82496
1.8381
1.85274
1.86851
1.88495
1.90162
1.91799
1.93345
1.94732
1.95878
1.96692
1.97079
1.96959
1.9626
1.94938
1.92999
1.90509
1.8761
1.84498
1.81422
1.78644
1.76388
1.74791
1.73924
1.73721
1.74045
1.74634
1.75232
1.75697
4.87633
5.23376
5.43083
5.44048
5.30865
5.11388
4.85747
4.56337
4.24841
3.92429
3.60286
3.29535
3.00914
2.74925
2.5189
2.31964
2.15006
2.00606
1.88538
1.78718
1.70911
1.64827
1.60166
1.56623
1.54005
1.52074
1.50737
1.49886
1.49446
1.49357
1.49574
1.5005
1.50739
1.51588
1.52545
1.53561
1.54583
1.5556
1.56434
1.57144
1.57626
1.57825
1.57682
1.5714
1.56145
1.54654
1.5263
1.50064
1.46977
1.43439
1.39596
1.35688
1.32036
1.29003
1.26922
1.26089
1.26631
1.28531
1.31597
1.35574
1.40234
3.72848
4.3212
4.88802
5.32397
5.54647
5.5905
5.47053
5.22415
4.91167
4.55353
4.17701
3.80573
3.45184
3.12628
2.83412
2.57549
2.34773
2.14967
1.98025
1.83878
1.72352
1.63226
1.56181
1.50837
1.46861
1.43949
1.41902
1.40557
1.39786
1.39484
1.39579
1.40006
1.40693
1.41564
1.42547
1.43573
1.44571
1.4547
1.46199
1.46682
1.46844
1.46618
1.45941
1.44758
1.43025
1.4072
1.37837
1.34396
1.30433
1.26021
1.21278
1.16409
1.11713
1.07601
1.04587
1.03252
1.03992
1.06962
1.12063
1.19033
1.27496
2.74262
3.17848
3.72554
4.32433
4.87496
5.29836
5.54296
5.58321
5.45521
5.18743
4.82967
4.44051
4.03992
3.65381
3.29723
2.97306
2.68299
2.42532
2.20173
2.01228
1.85535
1.72936
1.63111
1.55606
1.49956
1.45768
1.42761
1.40716
1.39453
1.38815
1.38702
1.39036
1.39726
1.40676
1.41796
1.42999
1.44199
1.45312
1.46251
1.46926
1.47247
1.47135
1.46512
1.45314
1.43483
1.40994
1.37837
1.34035
1.29618
1.24653
1.19249
1.13586
1.07941
1.02715
0.985277
0.961754
0.963343
0.995309
1.0591
1.1518
1.26747
2.23342
2.44317
2.76697
3.20818
3.73841
4.30164
4.82122
5.21475
5.43369
5.46523
5.3234
5.05218
4.68508
4.27965
3.8795
3.4941
3.14047
2.81987
2.53095
2.2803
2.07064
1.90136
1.76881
1.667
1.58948
1.53102
1.48803
1.45777
1.43785
1.42605
1.42106
1.42193
1.42762
1.43695
1.44882
1.46222
1.47614
1.48962
1.50164
1.5112
1.51725
1.51893
1.51532
1.50572
1.48933
1.46586
1.43509
1.39723
1.3524
1.30122
1.24459
1.18422
1.12265
1.06365
1.0133
0.980258
0.9734
1.00165
1.07022
1.1778
1.31763
2.05284
2.11332
2.24635
2.47179
2.80108
3.23007
3.73055
4.24802
4.7141
5.06292
5.24861
5.26086
5.11762
4.85148
4.50723
4.1103
3.7156
3.33787
2.9751
2.65009
2.37203
2.1455
1.96784
1.83033
1.7246
1.64345
1.58248
1.53831
1.50792
1.488
1.47679
1.47311
1.47581
1.4834
1.49461
1.50823
1.52309
1.5381
1.55212
1.56401
1.57261
1.57704
1.57627
1.56953
1.55582
1.53484
1.50623
1.47022
1.42676
1.37648
1.32014
1.25942
1.19674
1.13552
1.08144
1.04292
1.03004
1.05425
1.12461
1.24289
1.40282
2.01798
2.00777
2.03359
2.11231
2.2616
2.49604
2.82157
3.22772
3.68554
4.14571
4.54844
4.84153
4.99584
4.99992
4.86853
4.62485
4.30558
3.93819
3.52488
3.12821
2.7681
2.46874
2.23382
2.0507
1.908
1.79624
1.71003
1.646
1.60091
1.56942
1.54916
1.53842
1.53598
1.54003
1.54899
1.56144
1.57603
1.59147
1.60649
1.61981
1.63021
1.63682
1.6385
1.63453
1.62359
1.60542
1.57955
1.54619
1.50516
1.4571
1.40272
1.34367
1.28217
1.22144
1.16703
1.12678
1.11108
1.13323
1.20537
1.33266
1.51003
2.01058
1.97982
1.96254
1.96895
2.01216
2.10693
2.26737
2.50298
2.81342
3.18662
3.58831
3.98217
4.32497
4.58124
4.72051
4.73376
4.62275
4.39344
4.08074
3.68382
3.25129
2.87891
2.58255
2.34603
2.15391
1.99975
1.87799
1.7868
1.72121
1.67322
1.64024
1.61908
1.6087
1.60701
1.61184
1.62152
1.63444
1.6491
1.66401
1.67755
1.68894
1.69685
1.70047
1.69883
1.69066
1.67529
1.65268
1.62219
1.58435
1.53914
1.48793
1.43184
1.37316
1.31527
1.26279
1.22332
1.20751
1.23001
1.30428
1.43926
1.63016
0.287534
6.60148
6.26755
0.223328
0.352985
0.125994
0.00316131
2.49306
0.00337946
0.0232966
3.33748
1.08756
0.00316313
6.14581
0.110438
5.24572
0.00326122
2.60357
3.64171
0.00315647
0.223125
5.97529
6.43837
0.00329898
0.00333351
0.104578
0.00315882
0.515077
0.00324754
0.00346125
0.725565
0.00324164
0.0162714
2.49098
0.793748
3.4145
2.54761
1.58334
0.00316492
2.54818
1.83615
1.96238
0.00320912
4.52644
3.22625
0.280649
0.00361036
0.0151502
0.139587
1.11207
6.65904
7.66347
0.00310553
0.00405593
0.0372866
0.00850666
0.00345198
0.66939
2.41994
7.3556
2.50222
0.00369702
0.142969
0.0316487
6.38652
0.440412
1.98619
1.7879
0.00431863
0.00321287
1.1996
2.52996
1.67203
0.0150086
0.039123
3.98986
6.82092
3.23828
0.00310675
0.945704
0.00709967
2.5433
0.0106886
4.69668
0.00321772
1.07788
0.00336261
2.19518
0.0148422
0.00491406
0.117628
0.00310229
0.00378452
7.53266
5.31507
0.00359614
0.439327
0.305646
0.00603949
6.39939
0.206974
2.52525
0.728959
0.00309814
0.00316477
0.00309466
0.297776
0.124428
0.00324096
5.90975
6.59417
0.00931531
4.63466
1.5029
2.62702
2.69383
1.78711
0.00390519
0.0850816
0.00418746
0.00439676
3.48506
0.00730346
7.195
7.65525
1.01936
0.00321421
1.02623
1.03626
0.00320989
0.0339646
0.0331777
1.70226
0.00568469
3.0068
0.00321957
0.00316002
7.56499
7.74688
0.00322947
0.165852
5.44439
0.103396
0.30253
1.56275
4.77534
0.0399427
1.65205
0.0120759
7.15493
1.23413
0.00889268
2.77077
4.63909
6.13178
0.00330652
0.00326804
0.21565
0.00310942
1.95784
0.0302427
0.00510753
0.00319828
0.00321895
0.00323665
2.8149
1.81913
1.51988
0.00331865
6.86713
4.81905
3.14078
4.91958
0.0139435
3.73902
1.65842
1.89863
0.00324077
0.00568163
2.90297
3.07809
2.02068
3.54166
0.00321501
0.00352358
4.95687
0.0357587
0.569454
0.00323735
0.00360667
0.104276
0.00339158
7.73902
0.670733
0.00309823
0.254375
1.81473
5.40417
0.0044888
1.93871
0.00321742
0.00323294
4.87092
2.30609
7.35491
0.00453268
0.00339527
0.00765201
2.58956
2.22005
1.0812
4.95714
1.55534
6.71321
0.183427
4.20948
3.91489
1.93332
1.37556
2.29605
0.00489435
0.0368885
0.00322476
0.00319545
1.82469
0.0180927
0.0200676
0.00573128
0.0130898
2.73273
4.72524
0.0188316
5.93019
1.08263
0.387575
0.00318315
0.15748
2.73486
1.03307
0.00413797
1.17773
1.18045
0.175781
0.270547
7.07772
0.756484
0.475208
4.98241
0.00383899
0.00316066
0.00403468
0.0104798
1.75238
0.00336201
0.00652289
0.00316454
0.382448
3.98383
3.9379
2.74657
1.2838
1.4471
7.48603
0.00433954
2.08758
4.48512
0.00320949
1.99035
0.00321716
4.03501
0.380372
1.53842
0.00533568
0.00321963
1.89846
0.508546
0.0032389
0.00323639
0.00325075
0.00324577
0.360468
1.55656
2.92109
0.0147566
0.00324057
0.00316406
0.00309639
4.62074
0.226911
0.00446855
1.55243
0.0875327
0.0411434
0.00308923
0.264134
0.0032397
0.0511135
1.42877
4.74723
0.312335
0.00391616
0.00596441
3.22571
0.136695
1.92633
7.41921
0.00350244
0.0031973
0.00318713
5.63753
0.0033116
4.81257
0.00322118
1.77392
1.22479
0.0269153
2.96786
3.9542
0.00467714
2.7303
2.62892
1.61422
4.62802
1.09452
7.76277
2.45044
3.86671
3.62734
4.34353
1.6638
0.156953
7.62954
7.16055
3.01294
2.12333
0.00394908
7.06183
2.77164
6.66049
0.0274744
0.00358685
0.00321411
0.00342416
0.170189
0.422952
0.726784
0.0918485
0.00317439
5.84322
0.00321484
1.45092
1.84292
6.19105
2.65573
1.81251
0.00597023
0.00425705
0.0892507
2.79976
0.0103135
0.708815
5.26545
2.05852
4.07906
6.31079
3.25294
0.00346352
7.16272
5.2971
1.7013
0.00323455
6.24897
5.50447
0.00333308
1.97195
0.0032383
6.84095
5.69941
1.87314
4.07582
2.54223
5.46393
0.00329156
5.4625
0.00386395
3.61508
3.94338
1.912
7.13629
0.723701
0.213065
0.553745
0.00424123
4.27987
0.140161
0.0081379
0.00508017
4.52956
0.00383146
4.28632
0.00319182
0.00323549
0.00599715
1.74596
0.103161
1.75692
0.00573272
4.11786
0.162845
6.67228
4.36975
2.53063
6.29742
0.00338327
7.13871
2.88624
0.00321152
3.87523
1.96718
0.00310028
0.00316793
3.38845
0.00647978
1.97468
0.0887227
2.35415
0.0267417
0.584282
2.51856
5.00526
2.31717
4.07046
3.51536
0.00394822
0.0217851
1.68952
1.66493
7.41705
6.54258
5.41371
0.064743
4.91499
4.8903
0.48458
1.71987
2.70246
1.97841
0.00347562
4.06632
7.76115
0.00416236
4.387
1.8918
2.72455
0.0241077
0.0669869
6.30679
0.00597849
7.41169
0.00461826
0.254426
0.00320395
0.992144
2.28904
0.230118
0.0047983
0.00369926
2.69839
1.61013
0.0831578
0.418091
5.95733
4.06662
0.00449438
1.45841
1.65324
3.20545
1.5042
4.18005
1.95849
5.44973
3.21303
0.484765
0.967467
7.28536
1.86206
7.54206
5.87897
0.0332174
3.43541
2.82803
0.00337697
1.8078
1.59242
1.34999
0.0173227
4.75287
1.42231
0.682069
1.86426
0.00545048
0.00321497
0.0439348
2.35329
4.657
2.60301
0.00322113
0.00318915
0.0032157
1.71743
0.027566
0.00321545
0.122146
4.48367
5.03262
0.0105092
0.0107316
0.00315464
0.00320525
0.00600035
1.69278
1.70347
1.62214
0.459474
7.5103
5.88819
0.00525857
3.41975
1.83982
1.94279
3.91541
7.37329
0.00346148
0.0104664
0.00323845
3.84127
0.238485
0.00316906
1.37904
0.161241
7.32134
0.00323851
7.69005
1.13359
0.0471342
6.33194
0.00323229
0.0031957
0.00404877
7.69422
3.22358
5.08851
5.05327
1.02413
1.76507
0.00312553
0.00602513
0.0892315
0.0135998
0.0251039
1.9312
2.15368
0.0032247
1.24288
1.84237
6.07445
7.69023
0.00822439
7.64548
0.00591616
0.0302555
3.60711
0.00320195
5.4482
0.00324071
0.00336777
0.022189
2.12023
0.628934
2.52738
1.83535
0.00366
1.76812
4.61577
0.0525981
0.218243
0.851853
0.00331565
0.00326773
0.00692733
5.24641
0.52078
0.00335615
7.21707
6.0497
6.52019
0.0328817
2.04536
0.00420766
2.36665
0.159579
0.0905153
2.67274
1.67195
1.87284
5.91711
0.00327881
0.00313192
0.0104736
4.09829
4.40782
0.979393
0.0138292
0.00333392
0.00323952
0.008821
0.024909
0.00660383
2.19305
1.76805
0.0115539
1.56362
5.86182
0.00327138
2.38725
0.00321763
0.501039
0.00324483
0.0221489
2.45541
0.0200809
0.00320608
0.768826
7.8222
7.19711
0.00318944
0.0032639
0.384361
0.0259087
0.00321644
4.43972
0.00370202
1.67891
7.77496
2.37642
1.68931
2.41827
3.69722
7.43449
0.0032296
0.00743406
0.0148162
4.23264
1.42349
6.37437
0.680321
0.366871
4.28726
3.66213
5.0457
0.717582
2.74652
0.00322242
0.348513
1.64823
2.51998
3.95396
1.89432
0.224972
2.49326
0.101527
0.0092914
1.71908
0.00323988
5.85947
0.00366442
0.36535
7.2264
2.72899
0.553729
0.00741212
0.735597
0.00329976
0.00319176
0.104956
0.0224201
1.77451
0.0152946
1.74624
0.00322132
0.0278919
0.00316621
4.35484
0.00507789
4.09159
2.48279
0.0218446
1.88758
7.60867
0.00325859
1.67984
4.48525
0.00335757
7.19031
0.0618039
0.003481
0.00339482
7.33822
0.00317849
0.00429132
0.0863629
0.0996331
7.13962
7.07827
0.00322105
0.00327071
1.09832
2.26971
0.0145523
0.262153
2.02943
0.00321778
0.0038347
0.00372677
5.84042
7.07693
0.478132
7.27074
0.0259667
1.5959
0.00332276
0.01476
0.0247778
0.0359942
0.00323011
6.96468
0.00320093
0.024995
0.00332248
0.239885
0.0223694
0.0152814
0.418099
0.666795
2.28133
0.379532
1.06392
1.82663
5.09476
0.00343923
4.92434
7.57381
1.10013
3.89351
0.00327865
4.34476
3.75645
0.00321602
7.46525
2.32924
0.00821188
0.0111628
5.706
5.54459
0.0591219
7.44088
7.39572
0.802236
7.32629
7.20323
4.83108
1.93977
1.67287
1.04387
7.09978
7.43879
0.02181
7.48672
2.49057
4.36031
0.00343284
0.332729
0.376039
6.60208
5.73427
0.0202004
4.2568
6.22859
0.478883
0.0336
0.368357
1.81817
0.00534982
1.85463
6.93793
0.03368
6.55747
1.26753
4.2808
6.15304
0.00322241
0.00565529
1.05979
0.690548
0.0182017
0.00321838
0.18504
0.254351
0.00451169
0.00323647
4.22476
0.985709
2.91681
0.986109
0.00861499
0.00417363
0.0914708
3.38721
0.00346073
1.78967
1.66551
0.479102
2.29583
0.00397227
0.115006
0.00320223
0.345557
4.20921
0.00439079
0.118058
2.11351
5.87747
0.224114
3.92135
0.571681
0.165359
0.00392696
2.26821
7.73597
0.0032116
0.00328247
5.45544
0.0244786
0.00323561
3.64562
0.247597
1.8868
2.0098
1.43314
0.143131
1.73782
3.50855
5.76851
4.44801
0.00327579
5.66801
0.00389318
2.52684
0.0033987
0.00454465
2.12092
0.00655812
3.88317
0.0206725
0.0396498
1.78921
0.695938
0.0636621
0.00367516
6.09029
0.00364445
0.0031529
7.73163
5.67544
2.80892
1.92799
0.00343551
0.00306941
1.88139
5.44822
0.00319928
6.68411
1.63101
0.00324274
5.81318
0.00311536
0.351839
0.91756
1.37156
0.347539
1.55766
1.96505
0.00311117
7.11576
7.51233
0.00321573
0.0168057
1.92954
0.00313044
6.76505
5.51517
4.39626
0.00321793
0.00317069
3.5542
0.0412814
0.00350191
1.77476
1.6757
4.21449
0.00315343
0.00337905
0.0242901
0.0194001
0.00321718
0.0064135
5.05063
2.87655
0.00322256
1.25884
0.00321476
0.695649
0.00421245
0.00358696
2.22597
0.00326633
0.11958
0.00317617
2.79749
0.17668
1.60789
6.07573
4.37749
3.69927
0.812714
1.2481
0.00323547
0.938641
7.13729
4.05932
0.106345
0.00346741
5.06574
0.00321478
0.0304508
0.00315574
7.15756
0.773455
0.361013
6.29369
2.14384
0.474175
4.03814
0.690589
6.581
4.44462
0.00331072
0.00327341
0.00819759
0.00322939
0.0226508
4.35534
0.00377831
7.05741
0.00600946
0.0751499
0.575848
4.74612
0.00487571
2.59375
0.0169386
3.10856
2.37958
6.95644
0.0033967
0.00384295
0.248308
3.59552
1.72495
3.62543
0.40955
1.03069
1.54149
0.0502588
1.01895
0.254587
1.68829
0.0032833
4.33636
0.415836
3.09304
0.00336578
3.00622
0.958463
0.00464348
1.60731
1.80303
0.0646375
0.0031483
0.0032182
4.93932
2.77046
1.40251
0.00320777
0.0175103
2.00574
6.11594
0.457392
0.0125752
0.0032241
5.41837
5.06655
2.08571
2.57855
0.00321354
3.50858
7.40285
0.00321104
0.00321772
1.19564
0.00412288
0.00986673
0.032238
1.88064
0.00410585
2.2163
7.5218
0.00320353
0.003462
0.00316779
0.00330687
3.64942
4.63314
7.71352
0.0289479
2.25439
2.20868
0.0866744
2.7916
0.00347935
1.69339
0.221318
2.07784
0.672994
1.61364
3.10945
0.0267561
0.0032389
5.68982
4.42692
4.70646
0.911796
1.76214
0.172291
1.65722
0.00927646
0.00483429
3.45745
5.33727
0.021726
0.134166
0.00324539
0.0775496
1.89903
0.0275947
0.996259
0.682307
3.79388
2.12757
0.438064
6.92826
5.30106
2.95203
1.63009
4.25765
3.54853
0.561123
2.6481
0.00619544
2.76404
2.92367
0.00320399
0.00313547
0.120364
0.00322681
0.00332916
3.01433
4.37072
0.00322019
3.24752
0.00321494
0.00319238
0.00321631
0.00326169
0.00594268
1.93195
2.63666
6.88604
0.00315892
0.00391621
0.955502
0.00355554
0.0328914
0.00324572
0.0036112
4.42702
0.00391045
0.0109297
2.81217
0.010474
0.00321968
3.98542
0.00321429
0.00326685
0.252727
0.00360652
0.919033
0.00457501
0.029878
0.00320424
0.00325381
7.34277
7.58873
2.58811
0.0266226
2.95701
1.51384
0.00473178
1.76862
4.17246
6.71467
4.57337
0.00312189
1.98237
2.4695
0.145952
1.74182
4.46218
0.173023
2.04684
0.209904
1.71973
0.0392041
1.02642
0.00323486
6.67763
0.0032888
1.79866
2.42433
0.00321516
0.31321
0.00730244
0.019607
0.00317595
0.772027
0.00366417
0.00322118
2.51814
0.0089914
0.109973
6.66195
1.86889
0.00345791
0.00387833
2.35759
7.01059
0.00308966
0.00324671
0.0715448
1.31628
5.40209
0.00658487
1.63536
0.00321813
0.00344391
0.00314743
0.0346045
0.983702
0.0101272
6.61602
1.79757
6.99327
5.86479
0.00352001
7.41287
3.63872
0.00317929
0.00322625
0.00321814
0.0043994
0.00320268
3.8055
0.00320802
0.00323988
6.8121
0.318388
0.00774795
0.021955
1.95629
0.911867
0.00821825
0.00345985
6.09621
0.00324544
0.809938
0.00326171
0.00352436
5.71278
5.81953
0.00869667
0.00351018
0.341003
0.00320645
6.85755
0.00325491
5.50598
0.0249688
0.704181
0.0337718
0.36224
0.362438
1.46046
0.00324271
0.00356701
0.0115459
3.15929
0.117335
7.31612
0.00321954
0.00458538
0.00555713
6.96724
2.72624
3.05955
0.0069326
0.00898539
0.205992
0.00322349
1.24031
2.45801
0.0169277
6.00439
5.98032
1.92889
0.00533901
0.386391
2.86107
6.67284
1.80354
0.0187752
3.1146
0.0625901
5.12619
0.0903237
0.5217
2.53376
0.00324365
1.76525
0.00455417
0.0118486
0.00818502
0.049936
0.00370285
1.29369
0.00322658
3.06874
0.0953363
0.00361313
0.235883
0.00323205
0.283146
0.115493
2.31364
0.446634
4.60244
0.23639
0.00321698
0.00319093
0.710584
0.0901356
2.74027
7.01658
0.00322406
3.90634
2.62288
0.0231498
1.95513
0.574723
2.34949
2.141
0.0336402
0.00588384
7.14014
1.50801