/*--------------------------------*- C++ -*----------------------------------*\
| =========                 |                                                 |
| \\      /  F ield         | OpenFOAM: The Open Source CFD Toolbox           |
|  \\    /   O peration     | Version:  2.3.1                                 |
|   \\  /    A nd           | Web:      www.OpenFOAM.org                      |
|    \\/     M anipulation  |                                                 |
\*---------------------------------------------------------------------------*/
FoamFile
{
    version     2.0;
    format      ascii;
    class       surfaceScalarField;
    location    "0.63";
    object      phi;
}
// * * * * * * * * * * * * * * * * * * * * * * * * * * * * * * * * * * * * * //

dimensions      [0 3 -1 0 0 0 0];

internalField   nonuniform List<scalar> 
15416
(
-0.000707892
-7.37574e-06
0.000710818
-0.000703286
-4.61206e-06
-0.000700622
-2.66123e-06
-0.000699248
-1.37136e-06
-0.000699176
-6.76356e-08
-0.000700703
1.53106e-06
-0.000704552
3.85444e-06
-0.000710948
6.40251e-06
-0.000720095
9.15329e-06
-0.000732317
1.223e-05
-0.00074802
1.57125e-05
-0.000767416
1.9406e-05
-0.000790634
2.32297e-05
-0.000817753
2.71314e-05
-0.000848863
3.11244e-05
-0.000883885
3.50387e-05
-0.000922634
3.87664e-05
-0.000964902
4.2288e-05
-0.00101055
4.56682e-05
-0.00105925
4.8722e-05
-0.00111074
5.15114e-05
-0.00116476
5.40475e-05
-0.00122096
5.62253e-05
-0.00127898
5.80383e-05
-0.00133856
5.96075e-05
-0.00139946
6.09359e-05
-0.0014614
6.19648e-05
-0.00152405
6.26743e-05
-0.00158718
6.31636e-05
-0.00165062
6.34741e-05
-0.00171409
6.34941e-05
-0.00177737
6.33072e-05
-0.00184037
6.30272e-05
-0.00190285
6.25082e-05
-0.00196462
6.17945e-05
-0.00202562
6.10295e-05
-0.00208575
6.01544e-05
-0.00214483
5.90981e-05
-0.00220262
5.78156e-05
-0.00225911
5.65175e-05
-0.0023143
5.52049e-05
-0.002368
5.3715e-05
-0.00242009
5.21086e-05
-0.00247062
5.05482e-05
-0.00251932
4.87097e-05
-0.00256615
4.6847e-05
-0.00261123
4.50942e-05
-0.00265457
4.33476e-05
-0.00269597
4.14124e-05
-0.00273535
3.93942e-05
-0.00277271
3.73659e-05
-0.00280821
3.55047e-05
-0.00284135
3.31445e-05
-0.00287258
3.12451e-05
-0.00290171
2.91364e-05
-0.0029291
2.73925e-05
-0.00295379
2.46959e-05
-0.00297622
2.24262e-05
-0.00299673
2.05151e-05
-0.00301549
1.87669e-05
1.70493e-05
-0.00303254
-0.000407118
-5.79358e-06
0.000405518
-0.000409129
-2.60144e-06
-0.000413334
1.54289e-06
-0.000420602
5.89436e-06
-0.000432296
1.16245e-05
-0.000447732
1.69662e-05
-0.000467081
2.32018e-05
-0.000490182
2.95029e-05
-0.000517692
3.66627e-05
-0.000549156
4.36939e-05
-0.000584762
5.13186e-05
-0.000624368
5.90128e-05
-0.000667872
6.67341e-05
-0.000715148
7.44094e-05
-0.000765901
8.18796e-05
-0.000819995
8.91356e-05
-0.000877169
9.59439e-05
-0.000937211
0.000102334
-0.000999767
0.000108228
-0.00106463
0.000113591
-0.00113159
0.000118472
-0.0012002
0.00012266
-0.00127026
0.000126297
-0.00134157
0.00012935
-0.00141381
0.000131849
-0.00148673
0.000133863
-0.00156
0.000135245
-0.00163358
0.000136253
-0.00170714
0.000136733
-0.00178037
0.00013671
-0.00185328
0.00013641
-0.0019257
0.000135736
-0.00199725
0.000134577
-0.00206789
0.00013315
-0.00213762
0.000131528
-0.00220605
0.000129466
-0.00227321
0.000127323
-0.00233897
0.000124861
-0.00240331
0.000122166
-0.00246604
0.000119246
-0.00252684
0.000116009
-0.00258599
0.000112879
-0.00264332
0.000109436
-0.00269854
0.000105773
-0.00275183
0.000102007
-0.002803
9.80258e-05
-0.00285213
9.42282e-05
-0.00289879
9.00052e-05
-0.00294334
8.59673e-05
-0.00298574
8.1804e-05
-0.00302599
7.76153e-05
-0.00306439
7.39092e-05
-0.00309931
6.80664e-05
-0.00313353
6.54698e-05
-0.00316391
5.95266e-05
-0.00319275
5.62296e-05
-0.00321721
4.91595e-05
-0.0032415
4.67179e-05
-0.00326349
4.25122e-05
-0.0032833
3.85843e-05
3.2501e-05
-0.00329875
-0.000262504
2.97555e-06
0.000253743
-0.00027404
8.93697e-06
-0.000289128
1.6631e-05
-0.00030843
2.51941e-05
-0.000331276
3.44685e-05
-0.000358591
4.42801e-05
-0.000389944
5.45542e-05
-0.000425642
6.52016e-05
-0.000465614
7.66344e-05
-0.000509969
8.80502e-05
-0.00055844
9.97906e-05
-0.000610651
0.000111225
-0.000666731
0.000122815
-0.000726298
0.000133979
-0.000789153
0.000144737
-0.00085501
0.000154996
-0.000923649
0.000164586
-0.000994791
0.00017348
-0.00106811
0.000181556
-0.00114346
0.000188939
-0.00122036
0.000195375
-0.00129873
0.000201039
-0.00137828
0.000205847
-0.00145874
0.00020981
-0.0015398
0.000212921
-0.00162124
0.000215306
-0.00170289
0.000216894
-0.00178446
0.000217835
-0.00186569
0.000217962
-0.00194667
0.000217693
-0.00202693
0.000216674
-0.00210626
0.000215073
-0.00218486
0.000213182
-0.00226225
0.000210543
-0.00233834
0.000207618
-0.00241308
0.000204214
-0.00248631
0.000200555
-0.00255787
0.000196427
-0.00262772
0.000192024
-0.00269576
0.000187292
-0.00276204
0.000182287
-0.00282598
0.000176826
-0.00288797
0.000171435
-0.00294777
0.000165572
-0.00300535
0.000159598
-0.00306075
0.000153429
-0.00311371
0.000147194
-0.00316436
0.000140651
-0.00321242
0.000134029
-0.00325867
0.000128059
-0.00330119
0.000120146
-0.00334111
0.000113827
-0.00337938
0.000106344
-0.00341534
0.000101427
-0.00344913
9.33209e-05
-0.00347861
8.57166e-05
-0.00350794
7.84924e-05
-0.00353293
7.17059e-05
-0.00355567
6.52595e-05
-0.00357413
5.70466e-05
5.08564e-05
-0.00359249
-0.00019117
1.91222e-05
0.000175034
-0.000211495
2.92633e-05
-0.000235672
4.08067e-05
-0.000263838
5.33585e-05
-0.000296171
6.6799e-05
-0.000332857
8.09633e-05
-0.000373844
9.55397e-05
-0.000419525
0.000110882
-0.00046949
0.000126598
-0.000523856
0.000142417
-0.000582199
0.000158134
-0.000644714
0.00017374
-0.000710973
0.000189075
-0.000780556
0.000203563
-0.000853401
0.000217582
-0.000929152
0.000230748
-0.00100752
0.000242954
-0.0010882
0.000254161
-0.00117097
0.000264326
-0.00125541
0.000273381
-0.0013415
0.000281468
-0.00142874
0.000288278
-0.00151703
0.000294136
-0.00160603
0.000298819
-0.00169558
0.000302465
-0.00178523
0.00030496
-0.00187489
0.000306556
-0.00196436
0.000307305
-0.0020535
0.000307104
-0.00214183
0.000306029
-0.00222945
0.000304291
-0.00231621
0.000301838
-0.00240159
0.000298557
-0.00248578
0.000294742
-0.00256859
0.000290429
-0.00264985
0.000285473
-0.00272922
0.000279935
-0.00280689
0.000274099
-0.00288263
0.000267764
-0.00295646
0.000261133
-0.00302798
0.0002538
-0.00309755
0.0002464
-0.00316452
0.00023841
-0.00322925
0.000230308
-0.00329146
0.000221811
-0.00335115
0.000213114
-0.00340825
0.000204302
-0.00346308
0.000195478
-0.00351452
0.000185473
-0.0035634
0.000176942
-0.00361085
0.000167602
-0.00365418
0.000157156
-0.00369526
0.000147434
-0.0037322
0.000138366
-0.00376877
0.000129891
-0.00380117
0.000118123
-0.0038313
0.000108622
-0.00385917
9.95801e-05
-0.00388282
8.89162e-05
-0.00390422
7.84419e-05
6.80425e-05
-0.0039214
-0.00015767
4.22517e-05
0.00013454
-0.000184691
5.62816e-05
-0.000216029
7.21444e-05
-0.000251825
8.91531e-05
-0.000292133
0.000107105
-0.000337186
0.000126013
-0.000387193
0.000145545
-0.000441654
0.000165342
-0.000500843
0.000185785
-0.000564398
0.000205971
-0.000632374
0.00022611
-0.00070447
0.000245835
-0.000780154
0.000264759
-0.000859465
0.000282873
-0.000942191
0.000300308
-0.00102732
0.000315873
-0.00111515
0.000330785
-0.00120523
0.000344249
-0.00129721
0.000356296
-0.0013909
0.000367077
-0.00148596
0.00037653
-0.00158228
0.000384595
-0.00167944
0.000391296
-0.00177718
0.000396556
-0.00187511
0.000400397
-0.00197331
0.000403156
-0.00207126
0.000404511
-0.00216881
0.000404859
-0.00226579
0.000404081
-0.00236207
0.000402313
-0.00245734
0.000399564
-0.00255137
0.000395863
-0.00264415
0.000391341
-0.00273551
0.000386108
-0.00282511
0.000380034
-0.00291291
0.000373268
-0.00299907
0.000366098
-0.00308305
0.000358087
-0.0031649
0.000349614
-0.00324439
0.000340629
-0.00332181
0.000331226
-0.00339666
0.000321243
-0.00346908
0.000310835
-0.00353883
0.000300061
-0.00360589
0.000288872
-0.00367088
0.00027811
-0.00373108
0.000264497
-0.00378919
0.000253591
-0.00384561
0.000241896
-0.00389803
0.000229372
-0.00394814
0.000217708
-0.00399601
0.000205038
-0.00403989
0.000191309
-0.00408148
0.000179961
-0.00411704
0.000165458
-0.00415214
0.000153225
-0.00418499
0.000141474
-0.00421363
0.000128223
-0.00423809
0.00011338
-0.00426228
0.000102633
8.80417e-05
-0.00428228
-0.000142914
7.15945e-05
0.000113565
-0.000176747
9.01118e-05
-0.000215133
0.000110529
-0.000258673
0.000132691
-0.000307288
0.000155717
-0.00036083
0.000179552
-0.000419349
0.000204061
-0.000483044
0.000229035
-0.000551424
0.000254163
-0.000624746
0.000279291
-0.000702509
0.000303872
-0.000784261
0.000327586
-0.000870025
0.000350522
-0.000959002
0.000371849
-0.00105099
0.000392299
-0.00114603
0.000410906
-0.00124359
0.000428348
-0.00134351
0.000444165
-0.00144509
0.000457881
-0.00154821
0.000470196
-0.0016528
0.000481114
-0.00175825
0.000490049
-0.00186461
0.000497649
-0.00197145
0.000503398
-0.00207852
0.000507469
-0.0021854
0.000510039
-0.00229205
0.000511154
-0.00239809
0.000510901
-0.00250342
0.000509412
-0.00260786
0.000506748
-0.00271115
0.000502856
-0.00281297
0.000497689
-0.00291337
0.000491743
-0.00301214
0.000484873
-0.00310894
0.000476839
-0.00320387
0.000468203
-0.0032966
0.00045883
-0.00338715
0.000448629
-0.00347547
0.00043794
-0.00356148
0.000426641
-0.00364469
0.00041443
-0.00372537
0.000401922
-0.00380317
0.000388635
-0.00387768
0.000374581
-0.00394963
0.000360819
-0.00401888
0.000347368
-0.00408606
0.00033168
-0.00414917
0.000316703
-0.00420828
0.000301004
-0.00426509
0.000286187
-0.00431788
0.000270504
-0.00436656
0.00025372
-0.00441476
0.000239514
-0.00445712
0.000222327
-0.00449905
0.000207387
-0.00453683
0.000191004
-0.00456842
0.000173074
-0.00459772
0.000157517
-0.00462679
0.000142454
-0.00464977
0.000125622
0.000108812
-0.00467054
-0.000141573
0.000106992
0.000106171
-0.000182293
0.00013083
-0.000228338
0.000156572
-0.000280051
0.000184401
-0.000337004
0.000212668
-0.000399631
0.000242176
-0.000467591
0.000272019
-0.000540655
0.000302096
-0.0006191
0.000332606
-0.000702039
0.000362228
-0.000789897
0.000391728
-0.00088207
0.000419757
-0.000977838
0.000446289
-0.00107695
0.000470961
-0.00117971
0.000495055
-0.0012852
0.000516394
-0.00139285
0.000536001
-0.00150284
0.000554148
-0.00161446
0.000569501
-0.00172774
0.000583472
-0.00184221
0.000595581
-0.00195756
0.000605396
-0.00207376
0.000613849
-0.00219027
0.000619906
-0.00230675
0.00062395
-0.00242305
0.000626338
-0.00253861
0.000626713
-0.00265374
0.000626029
-0.00276799
0.000623665
-0.0028809
0.000619654
-0.00299267
0.000614629
-0.00310285
0.000607871
-0.003211
0.000599895
-0.00331747
0.000591346
-0.00342204
0.000581409
-0.00352415
0.000570314
-0.00362412
0.000558795
-0.00372155
0.000546056
-0.00381639
0.00053278
-0.00390861
0.000518856
-0.00399822
0.000504041
-0.0040842
0.000487906
-0.00416787
0.000472306
-0.00424834
0.000455052
-0.00432601
0.000438496
-0.00439965
0.000421006
-0.00446934
0.00040138
-0.0045366
0.000383962
-0.00460152
0.000365932
-0.00466066
0.000345328
-0.00471752
0.000327362
-0.00477206
0.00030827
-0.0048208
0.000288252
-0.00486741
0.000268942
-0.00490996
0.000249938
-0.00494825
0.000229297
-0.00498603
0.000210858
-0.00501768
0.000189172
-0.00504534
0.000170119
-0.005069
0.000149287
0.000130234
-0.00509042
-0.000151067
0.000148607
0.000109448
-0.000199011
0.000178773
-0.000252927
0.000210486
-0.000313597
0.00024507
-0.000379943
0.000279011
-0.000452011
0.000314241
-0.00052994
0.000349944
-0.000612792
0.000384945
-0.000701668
0.000421479
-0.000795171
0.000455728
-0.00089426
0.000490814
-0.000997008
0.000522502
-0.00110445
0.000553725
-0.00121423
0.000580736
-0.00132745
0.000608279
-0.00144425
0.000633187
-0.00156299
0.000654737
-0.00168381
0.000674974
-0.00180676
0.000692441
-0.00193004
0.000706749
-0.00205534
0.00072088
-0.00218084
0.000730899
-0.0023078
0.0007408
-0.00243487
0.000746979
-0.00256135
0.000750425
-0.00268786
0.00075285
-0.00281287
0.000751722
-0.00293741
0.000750561
-0.00306114
0.000747395
-0.00318275
0.000741267
-0.00330365
0.000735528
-0.0034227
0.000726924
-0.00353903
0.000716221
-0.00365372
0.000706033
-0.00376656
0.000694247
-0.003876
0.000679748
-0.00398335
0.000666142
-0.00408799
0.000650695
-0.00418918
0.000633966
-0.00428802
0.000617701
-0.00438436
0.000600386
-0.00447778
0.000581329
-0.0045655
0.00056003
-0.00465244
0.000542002
-0.00473431
0.000520368
-0.00481173
0.000498435
-0.00488879
0.000478443
-0.0049595
0.000454677
-0.00502662
0.000433047
-0.00509085
0.000409568
-0.00514993
0.000386442
-0.0052063
0.00036464
-0.00525865
0.00034061
-0.00530925
0.000319548
-0.00535422
0.000294908
-0.00539639
0.000271471
-0.00543255
0.000247027
-0.00546401
0.000220638
-0.00549377
0.000199883
-0.00551999
0.000175505
0.000152
-0.00554175
-0.000169165
0.000122106
0.00019567
-0.000225559
0.000235173
-0.000286622
0.000271554
-0.000357706
0.000316157
-0.00043333
0.000354637
-0.000515832
0.000396745
-0.000604537
0.000438652
-0.000696615
0.000477024
-0.000798378
0.000523246
-0.000901314
0.000558665
-0.00101403
0.000603534
-0.00112681
0.000635289
-0.00124925
0.000676168
-0.00136773
0.000699218
-0.00149373
0.000734282
-0.0016233
0.000762754
-0.00175179
0.000783232
-0.0018861
0.000809291
-0.00202041
0.000826754
-0.00215399
0.000840323
-0.00229409
0.000860973
-0.00242825
0.00086506
-0.00256772
0.000880278
-0.00270644
0.000885695
-0.00284312
0.000887106
-0.00298229
0.000892017
-0.0031158
0.000885233
-0.0032509
0.00088566
-0.00338581
0.000882299
-0.00351537
0.000870838
-0.00364679
0.000866951
-0.00377495
0.000855084
-0.00389947
0.000840726
-0.0040228
0.000829359
-0.00414608
0.000817524
-0.00426106
0.000794712
-0.00437757
0.000782652
-0.00448956
0.000762675
-0.00459667
0.000741078
-0.00470422
0.000725264
-0.00480372
0.000699897
-0.00490394
0.000681555
-0.00499806
0.000654155
-0.00508881
0.000632748
-0.00517857
0.000610134
-0.00526077
0.000580636
-0.00534171
0.000559381
-0.00541553
0.000528498
-0.0054873
0.000504821
-0.00555288
0.000475146
-0.00561838
0.000451944
-0.00567679
0.000423047
-0.00573198
0.000395798
-0.00578331
0.000370878
-0.0058323
0.000343908
-0.00587329
0.00031246
-0.00591275
0.000286488
-0.00594568
0.000253566
-0.005976
0.000230205
-0.00600284
0.000202346
-0.00602398
0.00017314
-0.00304598
1.34458e-05
-0.00305762
1.16418e-05
-0.00306757
9.94605e-06
-0.00307563
8.06365e-06
-0.00308144
5.80725e-06
-0.00308462
3.18696e-06
-0.00308605
1.42707e-06
-0.00308538
-6.67014e-07
-0.00308271
-2.66149e-06
-0.00307761
-5.09227e-06
-0.00307063
-6.98234e-06
-0.0030616
-9.02237e-06
-0.00305052
-1.10815e-05
-0.00303736
-1.31485e-05
-0.00302245
-1.49072e-05
-0.00300569
-1.675e-05
-0.00298691
-1.87735e-05
-0.00296609
-2.08194e-05
-0.00294356
-2.2521e-05
-0.00291915
-2.43998e-05
-0.00289295
-2.61921e-05
-0.00286513
-2.78147e-05
-0.00283557
-2.95582e-05
-0.00280417
-3.13899e-05
-0.00277113
-3.30262e-05
-0.00273672
-3.44076e-05
-0.00270064
-3.60726e-05
-0.00266289
-3.77383e-05
-0.00262361
-3.92766e-05
-0.00258294
-4.06557e-05
-0.00254079
-4.21448e-05
-0.00249719
-4.35894e-05
-0.00245235
-4.48344e-05
-0.00240619
-4.6147e-05
-0.00235871
-4.74739e-05
-0.00231007
-4.86319e-05
-0.00226034
-4.97231e-05
-0.00220949
-5.08473e-05
-0.00215744
-5.20452e-05
-0.00210435
-5.30783e-05
-0.00205038
-5.39708e-05
-0.00199547
-5.49029e-05
-0.00193964
-5.58214e-05
-0.00188307
-5.65715e-05
-0.0018256
-5.74682e-05
-0.00176732
-5.82782e-05
-0.00170841
-5.89092e-05
-0.00164895
-5.94554e-05
-0.00158883
-6.01233e-05
-0.00152814
-6.06908e-05
-0.001467
-6.11393e-05
-0.00140553
-6.14732e-05
-0.00134354
-6.19914e-05
-0.00128133
-6.22129e-05
-0.00121888
-6.24486e-05
-0.00115641
-6.24718e-05
-0.00109365
-6.27608e-05
-0.00103084
-6.2813e-05
-0.000968158
-6.26856e-05
-0.000905678
-6.24825e-05
-6.22409e-05
-0.000843441
-0.00331404
2.87317e-05
-0.00332476
2.23723e-05
-0.00333347
1.86519e-05
-0.00333994
1.45408e-05
-0.00334629
1.21566e-05
-0.00334845
5.34937e-06
-0.00334904
2.01266e-06
-0.00334583
-3.87556e-06
-0.00334196
-6.52442e-06
-0.00333451
-1.25451e-05
-0.00332522
-1.62696e-05
-0.00331362
-2.06207e-05
-0.00329998
-2.47204e-05
-0.00328446
-2.86621e-05
-0.00326648
-3.28866e-05
-0.00324646
-3.67739e-05
-0.0032243
-4.09287e-05
-0.00320019
-4.4925e-05
-0.00317386
-4.88557e-05
-0.00314559
-5.26687e-05
-0.00311555
-5.62293e-05
-0.0030833
-6.00563e-05
-0.00304914
-6.37176e-05
-0.00301323
-6.72993e-05
-0.00297549
-7.07714e-05
-0.00293589
-7.40027e-05
-0.00289449
-7.7469e-05
-0.0028516
-8.06283e-05
-0.00280704
-8.38389e-05
-0.00276065
-8.70468e-05
-0.00271283
-8.99653e-05
-0.00266362
-9.2797e-05
-0.00261274
-9.57152e-05
-0.00256043
-9.84559e-05
-0.00250689
-0.000101008
-0.00245187
-0.000103655
-0.00239556
-0.000106031
-0.002338
-0.000108407
-0.00227934
-0.000110704
-0.00221951
-0.000112906
-0.00215839
-0.00011509
-0.00209636
-0.000116928
-0.00203338
-0.000118806
-0.00196933
-0.000120624
-0.00190445
-0.000122345
-0.0018387
-0.000124031
-0.00177219
-0.000125419
-0.00170476
-0.000126887
-0.00163675
-0.00012813
-0.00156815
-0.000129293
-0.00149898
-0.000130314
-0.00142945
-0.000131002
-0.00135895
-0.000132496
-0.00128869
-0.000132467
-0.00121751
-0.000133634
-0.00114635
-0.000133635
-0.00107438
-0.00013473
-0.00100303
-0.00013416
-0.000931639
-0.00013408
-0.000860264
-0.000133859
-0.000134047
-0.00078846
-0.0036065
4.27503e-05
-0.00362059
3.64596e-05
-0.00363021
2.82808e-05
-0.00363756
2.18915e-05
-0.00364062
1.52099e-05
-0.00364384
8.57004e-06
-0.00364257
7.46997e-07
-0.00363929
-7.15459e-06
-0.00363368
-1.21384e-05
-0.00362639
-1.98359e-05
-0.00361662
-2.60357e-05
-0.00360311
-3.41292e-05
-0.00358787
-3.9957e-05
-0.00357001
-4.65204e-05
-0.00354984
-5.30568e-05
-0.00352726
-5.93544e-05
-0.00350251
-6.56798e-05
-0.00347556
-7.18834e-05
-0.00344634
-7.80756e-05
-0.00341515
-8.38514e-05
-0.00338147
-8.99137e-05
-0.00334588
-9.5649e-05
-0.00330825
-0.000101347
-0.00326862
-0.000106928
-0.00322694
-0.000112452
-0.00318325
-0.000117695
-0.00313774
-0.000122979
-0.00309033
-0.000128039
-0.00304097
-0.000133206
-0.00299017
-0.000137846
-0.00293749
-0.000142643
-0.00288302
-0.000147269
-0.00282726
-0.00015148
-0.0027698
-0.000155915
-0.0027108
-0.000160017
-0.00265038
-0.000164071
-0.00258851
-0.000167899
-0.00252523
-0.000171692
-0.00246067
-0.000175268
-0.00239487
-0.000178703
-0.00232801
-0.000181955
-0.00225975
-0.000185188
-0.00219055
-0.000188007
-0.00212028
-0.0001909
-0.00204905
-0.000193572
-0.00197695
-0.000196135
-0.00190392
-0.000198449
-0.00183009
-0.000200716
-0.00175544
-0.000202783
-0.00168044
-0.000204299
-0.00160415
-0.000206604
-0.00152728
-0.000207877
-0.00145028
-0.000209501
-0.00137291
-0.000209836
-0.00129526
-0.00021128
-0.00121671
-0.00021219
-0.00113876
-0.000212684
-0.00106011
-0.000212805
-0.000981508
-0.000212687
-0.000902491
-0.000212876
-0.000212407
-0.000824132
-0.00393832
5.96747e-05
-0.00395111
4.92572e-05
-0.00396162
3.87919e-05
-0.00396786
2.81314e-05
-0.00397191
1.92615e-05
-0.00397346
1.01282e-05
-0.00397069
-2.02777e-06
-0.00396798
-9.85497e-06
-0.00396125
-1.88701e-05
-0.00395245
-2.8627e-05
-0.00393939
-3.90935e-05
-0.00392514
-4.83789e-05
-0.00390837
-5.67281e-05
-0.00388817
-6.6716e-05
-0.00386578
-7.5447e-05
-0.00384084
-8.42902e-05
-0.0038134
-9.31179e-05
-0.00378343
-0.000101853
-0.00375124
-0.000110271
-0.00371636
-0.000118725
-0.00367955
-0.000126727
-0.00364021
-0.000134981
-0.0035988
-0.000142763
-0.00355516
-0.000150563
-0.0035095
-0.000158108
-0.00346147
-0.000165727
-0.00341142
-0.000173032
-0.00335943
-0.000180029
-0.00330564
-0.000186996
-0.0032496
-0.000193881
-0.00319188
-0.000200362
-0.00313252
-0.000206632
-0.00307113
-0.000212869
-0.00300822
-0.000218821
-0.00294373
-0.000224515
-0.00287767
-0.000230127
-0.00280987
-0.000235695
-0.00274071
-0.000240861
-0.00267012
-0.000245856
-0.00259828
-0.000250543
-0.00252496
-0.000255276
-0.00245066
-0.000259479
-0.00237499
-0.000263686
-0.00229831
-0.000267576
-0.00222052
-0.000271361
-0.0021417
-0.000274959
-0.00206192
-0.000278226
-0.00198144
-0.000281205
-0.00189978
-0.000284444
-0.0018174
-0.000286676
-0.00173497
-0.000289028
-0.00165124
-0.000291611
-0.00156715
-0.000293592
-0.001482
-0.000294989
-0.00139734
-0.000295943
-0.00131187
-0.000297658
-0.00122631
-0.000298238
-0.00114081
-0.00029831
-0.0010548
-0.000298694
-0.000968992
-0.000298688
-0.000298498
-0.000882901
-0.00429804
7.544e-05
-0.00430961
6.08279e-05
-0.00432093
5.01154e-05
-0.00432806
3.52594e-05
-0.00433097
2.21756e-05
-0.00433157
1.07358e-05
-0.00433229
-1.30403e-06
-0.00432647
-1.56775e-05
-0.00431855
-2.6786e-05
-0.0043067
-4.04695e-05
-0.00429278
-5.30179e-05
-0.00427666
-6.44887e-05
-0.00425653
-7.68652e-05
-0.00423492
-8.832e-05
-0.00421146
-9.89074e-05
-0.00418298
-0.000112768
-0.00415258
-0.000123516
-0.00411951
-0.000134921
-0.00408376
-0.000146026
-0.00404565
-0.000156832
-0.0040049
-0.000167482
-0.00396204
-0.000177837
-0.0039166
-0.000188208
-0.00386873
-0.000198434
-0.00381829
-0.000208542
-0.00376589
-0.000218131
-0.0037112
-0.000227722
-0.0036542
-0.000237032
-0.00359512
-0.000246078
-0.0035341
-0.000254893
-0.00347096
-0.000263508
-0.0034058
-0.000271793
-0.0033389
-0.000279766
-0.00327025
-0.000287475
-0.00319972
-0.000295048
-0.00312738
-0.000302461
-0.00305366
-0.000309417
-0.00297811
-0.000316414
-0.00290102
-0.000322949
-0.00282234
-0.000329217
-0.00274252
-0.000335102
-0.00266127
-0.000340726
-0.0025789
-0.00034606
-0.00249527
-0.000351204
-0.00241051
-0.000356118
-0.00232503
-0.000360442
-0.00223735
-0.000365909
-0.00214921
-0.000369346
-0.00206085
-0.000372798
-0.0019711
-0.00037643
-0.00188087
-0.000379257
-0.00179029
-0.000382187
-0.00169862
-0.000385264
-0.00160665
-0.000386962
-0.00151304
-0.000389548
-0.00142006
-0.000390646
-0.00132704
-0.000391256
-0.00123355
-0.000391801
-0.00113965
-0.000392591
-0.00104655
-0.00039179
-0.000391881
-0.000953165
-0.00468711
9.20152e-05
-0.00470148
7.52009e-05
-0.00470967
5.83051e-05
-0.00471765
4.32378e-05
-0.00472342
2.79473e-05
-0.00472303
1.03503e-05
-0.00471859
-5.74241e-06
-0.00471384
-2.0419e-05
-0.00470313
-3.74957e-05
-0.00469224
-5.13621e-05
-0.0046773
-6.79532e-05
-0.00465835
-8.3432e-05
-0.0046373
-9.79184e-05
-0.00461231
-0.000113309
-0.0045833
-0.00012791
-0.0045524
-0.00014367
-0.00451891
-0.000157007
-0.00448293
-0.000170897
-0.00444362
-0.000185333
-0.00440156
-0.000198898
-0.00435702
-0.000212021
-0.00430957
-0.000225289
-0.00425962
-0.000238161
-0.00420717
-0.000250879
-0.00415227
-0.000263442
-0.00409467
-0.00027573
-0.00403488
-0.000287517
-0.00397261
-0.000299306
-0.00390803
-0.000310649
-0.00384141
-0.000321522
-0.00377243
-0.000332486
-0.00370131
-0.000342909
-0.00362829
-0.000352788
-0.00355344
-0.000362332
-0.00347645
-0.000372033
-0.0033978
-0.000381113
-0.00331711
-0.000390105
-0.0032347
-0.000398827
-0.00315073
-0.000406921
-0.00306525
-0.000414701
-0.00297803
-0.000422324
-0.00288958
-0.000429178
-0.00279976
-0.000435877
-0.00270841
-0.000442552
-0.00261615
-0.000448376
-0.00252276
-0.000453836
-0.00242888
-0.000459792
-0.00233331
-0.000464912
-0.00223648
-0.000469628
-0.00213915
-0.000473755
-0.00204061
-0.000477798
-0.00194104
-0.000481763
-0.00184183
-0.000484468
-0.00174103
-0.000487764
-0.00164057
-0.000490006
-0.00153948
-0.000491738
-0.00143709
-0.000493643
-0.00133508
-0.000493814
-0.00123373
-0.000493931
-0.00113177
-0.000493755
-0.000493575
-0.00103007
-0.00510769
0.000109285
-0.00512274
9.02536e-05
-0.00513368
6.92504e-05
-0.00514047
5.00312e-05
-0.00514119
2.86667e-05
-0.00514178
1.09471e-05
-0.00513823
-9.29711e-06
-0.00513054
-2.81022e-05
-0.00512078
-4.72589e-05
-0.00510522
-6.69198e-05
-0.00508762
-8.55451e-05
-0.00506782
-0.000103231
-0.00504214
-0.000123598
-0.00501445
-0.000141002
-0.00498478
-0.000157574
-0.00495115
-0.000177304
-0.00491348
-0.000194669
-0.00487299
-0.000211387
-0.00482933
-0.000228993
-0.00478379
-0.000244435
-0.00473457
-0.000261242
-0.00468284
-0.000277025
-0.00462822
-0.00029278
-0.0045707
-0.000308399
-0.0045104
-0.000323739
-0.00444747
-0.000338664
-0.00438185
-0.000353139
-0.00431397
-0.000367189
-0.00424373
-0.000380889
-0.00417091
-0.000394341
-0.00409565
-0.000407748
-0.00401826
-0.000420304
-0.0039385
-0.00043255
-0.00385693
-0.000443903
-0.00377335
-0.000455606
-0.00368766
-0.000466813
-0.00359996
-0.000477803
-0.00351021
-0.000488579
-0.00341865
-0.000498481
-0.00332532
-0.00050803
-0.00323048
-0.000517164
-0.00313368
-0.000525981
-0.00303609
-0.000533467
-0.00293721
-0.00054143
-0.00283733
-0.000548256
-0.00273547
-0.000555703
-0.00263224
-0.000563018
-0.00252837
-0.000568778
-0.00242427
-0.000573728
-0.00231795
-0.000580074
-0.00221119
-0.000584557
-0.00210426
-0.000588692
-0.00199547
-0.000593254
-0.00188658
-0.000596651
-0.00177657
-0.000600014
-0.0016661
-0.000602208
-0.00155612
-0.00060362
-0.00144548
-0.00060445
-0.00133444
-0.000604975
-0.00122354
-0.000604656
-0.000604237
-0.00111287
-0.00555957
0.000127106
-0.00557302
0.000103715
-0.00558268
7.89077e-05
-0.00558997
5.73269e-05
-0.00559348
3.21773e-05
-0.00559114
8.61326e-06
-0.0055868
-1.36356e-05
-0.00557605
-3.8846e-05
-0.00556329
-6.00248e-05
-0.00554714
-8.3063e-05
-0.0055289
-0.000103789
-0.00550471
-0.000127416
-0.00547819
-0.000150124
-0.00544796
-0.000171232
-0.00541239
-0.000193137
-0.00537621
-0.000213488
-0.00533613
-0.000234745
-0.00529007
-0.000257447
-0.00524357
-0.000275493
-0.00519213
-0.000295874
-0.0051375
-0.000315879
-0.00508088
-0.000333643
-0.00502149
-0.00035217
-0.00495843
-0.000371463
-0.00489247
-0.000389703
-0.00482355
-0.000407585
-0.00475191
-0.000424778
-0.00467765
-0.000441453
-0.00460086
-0.000457675
-0.00452158
-0.000473628
-0.00443943
-0.000489899
-0.00435527
-0.000504464
-0.00426848
-0.000519342
-0.00418031
-0.000532073
-0.00408946
-0.000546458
-0.00399641
-0.000559871
-0.00390125
-0.000572962
-0.00380356
-0.000586274
-0.00370362
-0.000598417
-0.00360222
-0.00060943
-0.00349923
-0.000620158
-0.00339443
-0.000630782
-0.00328746
-0.000640435
-0.00318067
-0.000648226
-0.00307167
-0.000657255
-0.00296048
-0.000666888
-0.00285002
-0.000673478
-0.00273677
-0.000682028
-0.00262328
-0.000687215
-0.00250887
-0.000694485
-0.00239241
-0.00070102
-0.00227617
-0.00070493
-0.00215861
-0.000710805
-0.00204117
-0.00071409
-0.00192131
-0.000719879
-0.00180206
-0.000721452
-0.00168119
-0.00072449
-0.00156104
-0.000724595
-0.00144067
-0.000725349
-0.00132082
-0.000724495
-0.000724777
-0.00120028
-0.00604228
0.000145403
-0.00605538
0.000116813
-0.0060654
8.89355e-05
-0.00606867
6.05952e-05
-0.00607076
3.42738e-05
-0.00606906
6.91375e-06
-0.00606291
-1.97767e-05
-0.00605197
-4.97818e-05
-0.0060358
-7.61938e-05
-0.00601903
-9.98365e-05
-0.00599624
-0.000126577
-0.00596988
-0.000153784
-0.00594113
-0.000178871
-0.00590551
-0.00020685
-0.00587069
-0.000227964
-0.00582865
-0.000255527
-0.00578228
-0.000281116
-0.0057346
-0.000305127
-0.00568029
-0.0003298
-0.00562503
-0.000351141
-0.0055672
-0.000373711
-0.00550355
-0.00039729
-0.00543996
-0.000415763
-0.00537066
-0.000440755
-0.00529782
-0.000462543
-0.00522343
-0.000481977
-0.00514423
-0.000503988
-0.00506406
-0.000521619
-0.00497845
-0.00054329
-0.00489422
-0.000557864
-0.00480263
-0.000581486
-0.00471265
-0.00059445
-0.00461657
-0.000615418
-0.00452278
-0.000625875
-0.00442458
-0.000644652
-0.00432332
-0.000661135
-0.00422138
-0.000674906
-0.00411446
-0.000693194
-0.00400545
-0.000707427
-0.00389699
-0.000717897
-0.00378314
-0.000734006
-0.00366789
-0.000746027
-0.00355396
-0.000754371
-0.00343519
-0.000766996
-0.00332047
-0.000771973
-0.00319795
-0.000789405
-0.00307919
-0.000792232
-0.00295446
-0.00080676
-0.00283391
-0.000807768
-0.00271003
-0.000818362
-0.00258326
-0.000827782
-0.00245965
-0.00082854
-0.00233072
-0.000839738
-0.00220511
-0.000839695
-0.00207253
-0.000852451
-0.00194498
-0.000848997
-0.00181103
-0.00085844
-0.0016848
-0.000850823
-0.00155147
-0.000858672
-0.00142396
-0.000852003
-0.00128987
-0.000858871
-0.000781009
-6.24347e-05
-0.000718938
-6.20748e-05
-0.000657245
-6.16966e-05
-0.000595967
-6.12813e-05
-0.00053516
-6.08101e-05
-0.000474881
-6.02831e-05
-0.00041538
-5.95049e-05
-0.000356703
-5.86803e-05
-0.000299058
-5.76489e-05
-0.000242577
-5.64848e-05
-0.000187116
-5.54635e-05
-0.000130824
-5.62956e-05
-7.27701e-05
-5.80566e-05
-1.35522e-05
-5.92204e-05
4.46101e-05
-5.81645e-05
0.000100137
-5.55291e-05
0.000153349
-5.32133e-05
0.000204775
-5.14277e-05
0.000254613
-4.98395e-05
0.000302879
-4.82672e-05
0.000349591
-4.67131e-05
0.000394694
-4.51038e-05
0.000438116
-4.34229e-05
0.000479724
-4.16087e-05
0.00051946
-3.9736e-05
0.000557259
-3.77994e-05
0.000593003
-3.57434e-05
0.000626557
-3.35543e-05
0.000657806
-3.12489e-05
0.000686657
-2.88512e-05
0.000712911
-2.62538e-05
0.000736407
-2.34966e-05
0.000757023
-2.06154e-05
0.000774509
-1.74868e-05
0.000788648
-1.41394e-05
0.000799244
-1.05967e-05
0.000806035
-6.79186e-06
0.000808801
-2.76793e-06
0.000808146
6.5336e-07
0.000803986
4.15876e-06
0.000796335
7.64844e-06
0.000784589
1.17437e-05
0.00076822
1.63669e-05
0.000746795
2.14219e-05
0.000719682
2.71102e-05
0.000686254
3.34247e-05
0.000645892
4.03589e-05
0.000597859
4.803e-05
0.000541303
5.65536e-05
0.000475463
6.58371e-05
0.000399623
7.58365e-05
0.000313231
8.63903e-05
0.00021568
9.75487e-05
0.000105998
0.00010968
-2.14544e-05
0.000127452
-0.000160744
0.000139289
-0.000289263
0.000128519
-0.00039558
0.000106318
-0.000476103
8.05238e-05
-0.00053645
6.03483e-05
5.07673e-05
-0.000587215
-0.00071728
-0.000133616
-0.000645797
-0.00013356
-0.000574533
-0.000132962
-0.000503529
-0.000132287
-0.000433148
-0.000131192
-0.000362884
-0.000130548
-0.00029316
-0.000129231
-0.000223828
-0.000128014
-0.00015522
-0.000126259
-8.71665e-05
-0.00012454
-1.87183e-05
-0.000123913
5.01611e-05
-0.000125176
0.00011797
-0.000125867
0.000184498
-0.000125749
0.000250289
-0.000123957
0.000315464
-0.000120704
0.000379567
-0.000117317
0.000442355
-0.000114216
0.00050374
-0.000111224
0.000563741
-0.000108267
0.000622362
-0.000105334
0.000679462
-0.000102203
0.000735015
-9.89751e-05
0.000789017
-9.56085e-05
0.000841361
-9.20784e-05
0.000891987
-8.84232e-05
0.000940762
-8.45164e-05
0.000987706
-8.04947e-05
0.00103267
-7.62083e-05
0.00107547
-7.16531e-05