/*--------------------------------*- C++ -*----------------------------------*\
| =========                 |                                                 |
| \\      /  F ield         | OpenFOAM: The Open Source CFD Toolbox           |
|  \\    /   O peration     | Version:  2.3.1                                 |
|   \\  /    A nd           | Web:      www.OpenFOAM.org                      |
|    \\/     M anipulation  |                                                 |
\*---------------------------------------------------------------------------*/
FoamFile
{
    version     2.0;
    format      ascii;
    class       volVectorField;
    location    "0.63";
    object      U;
}
// * * * * * * * * * * * * * * * * * * * * * * * * * * * * * * * * * * * * * //

dimensions      [0 1 -1 0 0 0 0];

internalField   nonuniform List<vector> 
9648
(
(0.15291 -4.82016 -3.90613e-22)
(0.279247 -4.77773 1.98014e-23)
(0.404406 -4.74926 0)
(0.52679 -4.72236 0)
(0.649364 -4.70138 7.56587e-21)
(0.773375 -4.68665 1.16925e-20)
(0.901439 -4.68222 -2.39413e-20)
(1.03552 -4.68954 -1.15009e-20)
(1.17675 -4.70991 1.14719e-20)
(1.32574 -4.74533 3.60522e-20)
(1.48462 -4.79743 -3.5901e-20)
(1.65523 -4.86723 -5.28325e-20)
(1.83955 -4.95537 2.81781e-19)
(2.03962 -5.06181 7.36663e-20)
(2.25715 -5.18579 -6.92234e-19)
(2.49337 -5.32606 0)
(2.74946 -5.48095 0)
(3.02629 -5.64842 1.27773e-19)
(3.32453 -5.82589 4.12532e-19)
(3.64428 -6.01057 -1.18894e-18)
(3.98557 -6.19985 -2.13585e-20)
(4.34826 -6.39065 3.28189e-19)
(4.73158 -6.58008 3.89371e-19)
(5.13487 -6.76533 -1.77316e-18)
(5.55716 -6.94371 0)
(5.99744 -7.11258 1.06453e-18)
(6.45437 -7.26943 -1.11684e-18)
(6.92657 -7.41219 0)
(7.4126 -7.53867 0)
(7.9108 -7.64718 -6.79612e-19)
(8.41968 -7.73605 -1.50499e-18)
(8.93742 -7.80379 2.36435e-18)
(9.46239 -7.84929 0)
(9.99281 -7.87132 0)
(10.5268 -7.8692 1.81342e-18)
(11.0628 -7.84208 -1.95281e-18)
(11.5989 -7.78954 0)
(12.1334 -7.71129 4.19473e-18)
(12.6646 -7.60696 1.13203e-18)
(13.1907 -7.47642 -3.35109e-18)
(13.7098 -7.31971 6.37702e-20)
(14.2204 -7.13732 2.38522e-18)
(14.721 -6.92914 -3.16992e-18)
(15.2095 -6.69573 6.37687e-19)
(15.6851 -6.43784 0)
(16.1461 -6.15562 0)
(16.591 -5.84979 4.81198e-18)
(17.0187 -5.52114 7.04389e-19)
(17.4283 -5.17051 -2.17701e-18)
(17.8193 -4.79786 -7.32869e-19)
(18.1892 -4.40428 -7.62346e-19)
(18.5366 -3.99195 7.57634e-19)
(18.8612 -3.56256 3.91421e-19)
(19.1621 -3.11687 -3.89314e-19)
(19.4383 -2.65661 1.98731e-18)
(19.6892 -2.18286 -1.95663e-18)
(19.9139 -1.69708 -2.1877e-20)
(20.1121 -1.20049 0)
(20.2833 -0.694563 -3.97459e-19)
(20.4271 -0.180952 -5.1409e-20)
(20.5433 0.339138 -4.87261e-20)
(-0.0753643 -2.50648 3.55117e-22)
(0.000604802 -2.51691 0)
(0.0766743 -2.53462 0)
(0.152589 -2.56522 2.03436e-21)
(0.233023 -2.61634 -3.53055e-21)
(0.322702 -2.6906 -2.80744e-20)
(0.423073 -2.78501 0)
(0.536003 -2.89862 0)
(0.663178 -3.0322 -3.85784e-20)
(0.805262 -3.18566 0)
(0.963621 -3.35804 -9.71582e-20)
(1.1391 -3.54787 7.75745e-20)
(1.33264 -3.75388 -4.2177e-20)
(1.5452 -3.97439 0)
(1.77755 -4.20747 2.69212e-19)
(2.03 -4.45101 1.6035e-19)
(2.30288 -4.70278 -1.57778e-19)
(2.59633 -4.96051 2.06703e-19)
(2.91053 -5.22169 -6.30251e-19)
(3.24523 -5.48383 5.04237e-19)
(3.60009 -5.74459 -5.59683e-19)
(3.97486 -6.0014 -3.02196e-19)
(4.36872 -6.25192 -3.10011e-19)
(4.78088 -6.4938 1.06854e-18)
(5.21043 -6.72483 3.70217e-19)
(5.65644 -6.94284 4.41228e-19)
(6.11773 -7.1458 -3.90597e-19)
(6.59304 -7.33195 0)
(7.08111 -7.49951 0)
(7.58042 -7.64711 0)
(8.0896 -7.77329 0)
(8.60703 -7.87684 0)
(9.13118 -7.95676 0)
(9.66053 -8.01205 0)
(10.1933 -8.04215 -8.14981e-19)
(10.7279 -8.04626 7.39763e-19)
(11.2627 -8.02413 8.16548e-19)
(11.796 -7.97545 -4.14951e-18)
(12.3264 -7.8999 -8.81032e-19)
(12.8519 -7.79743 2.71049e-18)
(13.3709 -7.66816 1.90279e-18)
(13.8819 -7.51254 -1.96431e-18)
(14.3833 -7.33046 9.38153e-19)
(14.8735 -7.12261 9.90114e-19)
(15.3509 -6.88964 -1.05284e-18)
(15.8143 -6.6318 1.04357e-18)
(16.262 -6.34995 -2.23809e-18)
(16.6929 -6.04491 0)
(17.1055 -5.71754 -5.7179e-19)
(17.4993 -5.36798 1.14914e-18)
(17.8734 -4.9972 -5.77507e-19)
(18.2264 -4.60694 0)
(18.5574 -4.19859 1.18738e-18)
(18.8654 -3.77297 0)
(19.1494 -3.33154 0)
(19.4087 -2.87549 2.81537e-18)
(19.6426 -2.40614 -1.26893e-18)
(19.8505 -1.92514 -3.08716e-19)
(20.0319 -1.43336 3.25892e-19)
(20.1863 -0.932531 0)
(20.3133 -0.423941 8.19527e-20)
(0.0448473 -1.44399 -5.16361e-22)
(0.106395 -1.49684 0)
(0.17285 -1.5659 6.37804e-22)
(0.244443 -1.65516 -3.32517e-22)
(0.323868 -1.7634 0)
(0.414491 -1.89001 2.24453e-20)
(0.517605 -2.03641 1.65865e-20)
(0.634799 -2.20168 0)
(0.767792 -2.38546 2.30539e-21)
(0.918215 -2.58639 4.0242e-20)
(1.08704 -2.80345 8.27061e-20)
(1.27493 -3.03478 -2.87928e-20)
(1.48243 -3.2786 0)
(1.70992 -3.53286 0)
(1.95767 -3.79544 2.03443e-19)
(2.22562 -4.06422 -1.30813e-19)
(2.51374 -4.33696 -1.40576e-19)
(2.82185 -4.61145 0)
(3.14968 -4.88543 5.46443e-19)
(3.49688 -5.1567 -5.6815e-19)
(3.86296 -5.42315 -4.26077e-19)
(4.24738 -5.68266 -4.70393e-19)
(4.64934 -5.93318 0)
(5.06794 -6.17273 -8.46614e-19)
(5.50224 -6.39937 -2.98105e-19)
(5.95125 -6.61125 3.55268e-19)
(6.41385 -6.80664 3.92867e-19)
(6.88885 -6.98403 0)
(7.37497 -7.14195 0)
(7.87083 -7.27918 0)
(8.37499 -7.39451 0)
(8.88599 -7.48693 0)
(9.40236 -7.55556 0)
(9.92257 -7.59964 0)
(10.445 -7.61863 -1.78982e-18)
(10.9681 -7.61201 5.9475e-19)
(11.4904 -7.57952 -6.56656e-19)
(12.0102 -7.52093 3.30524e-18)
(12.526 -7.43609 0)
(13.0362 -7.32507 1.40721e-18)
(13.5392 -7.18807 1.45591e-18)
(14.0334 -7.02539 7.21323e-19)
(14.5174 -6.8372 -8.26994e-19)
(14.9897 -6.62405 -1.59304e-18)
(15.449 -6.3865 2.48298e-18)
(15.8938 -6.12507 -8.40148e-19)
(16.3228 -5.84057 -1.71397e-18)
(16.735 -5.53381 0)
(17.1289 -5.20584 0)
(17.5035 -4.85768 -4.68234e-19)
(17.8579 -4.49036 -4.57718e-19)
(18.1913 -4.10482 -9.36479e-19)
(18.5028 -3.70215 -9.80508e-19)
(18.7914 -3.28383 0)
(19.0565 -2.85062 -9.6987e-19)
(19.2972 -2.40429 -1.01095e-18)
(19.5132 -1.94557 0)
(19.7036 -1.4767 1.64673e-20)
(19.8678 -0.997967 0)
(20.0057 -0.511141 0)
(20.1172 -0.0172658 -6.26386e-20)
(0.024204 -0.928695 1.0165e-21)
(0.0867491 -1.01949 -1.68816e-21)
(0.160806 -1.1271 1.97307e-21)
(0.244881 -1.25162 -9.59672e-22)
(0.339703 -1.39303 0)
(0.44622 -1.55141 -9.19162e-21)
(0.566178 -1.727 -1.43073e-20)
(0.700993 -1.91936 0)
(0.852103 -2.12774 3.13638e-21)
(1.02037 -2.35104 -3.43838e-20)
(1.20664 -2.58792 7.80075e-20)
(1.41126 -2.83673 9.5992e-20)
(1.63455 -3.09551 0)
(1.87672 -3.36223 -7.80178e-20)
(2.13798 -3.63488 -1.66134e-19)
(2.41807 -3.91143 -8.8837e-20)
(2.71686 -4.18978 3.45743e-19)
(3.03409 -4.46785 -2.50635e-19)
(3.36939 -4.74358 2.82141e-19)
(3.72241 -5.01492 4.82457e-19)
(4.09273 -5.28007 7.00014e-19)
(4.47963 -5.53715 3.96043e-19)
(4.88247 -5.78434 1.90432e-19)
(5.30029 -6.01991 6.94939e-19)
(5.73222 -6.24205 2.2826e-19)
(6.17731 -6.44914 2.60345e-19)
(6.63452 -6.63962 3.07984e-19)
(7.10284 -6.81208 -9.2207e-19)
(7.58103 -6.96532 6.6273e-19)
(8.06779 -7.09815 7.50025e-19)
(8.56188 -7.20953 -1.53407e-18)
(9.06183 -7.29854 7.8369e-19)
(9.5663 -7.36433 -8.40307e-19)
(10.0739 -7.40624 4.18938e-19)
(10.5832 -7.42381 4.59668e-19)
(11.0927 -7.41658 5.10628e-19)
(11.6008 -7.38423 -5.04251e-19)
(12.1063 -7.32665 -5.50004e-19)
(12.6075 -7.24372 -1.64863e-18)
(13.103 -7.13552 -1.19032e-18)
(13.5913 -7.0023 -2.41371e-18)
(14.0709 -6.84426 -3.12801e-18)
(14.5403 -6.66172 1.28278e-18)
(14.9982 -6.45507 2.9299e-20)
(15.4433 -6.22488 -7.19134e-19)
(15.8742 -5.97169 -7.05331e-19)
(16.2899 -5.69618 4.2654e-18)
(16.689 -5.39915 -7.15045e-19)
(17.0706 -5.08141 0)
(17.4335 -4.74392 0)
(17.7769 -4.38768 -7.18382e-19)
(18.0999 -4.01389 3.23133e-20)
(18.4017 -3.62355 7.7132e-19)
(18.6813 -3.21783 0)
(18.9382 -2.79802 8.2191e-19)
(19.1714 -2.36544 0)
(19.3805 -1.92127 0)
(19.5649 -1.46647 6.26529e-19)
(19.7241 -1.00262 1.99232e-19)
(19.8579 -0.531188 -2.03058e-19)
(19.966 -0.0536442 1.03931e-19)
(0.119208 -0.671387 4.66969e-23)
(0.182313 -0.782675 1.47403e-21)
(0.259023 -0.909466 -3.44542e-21)
(0.349134 -1.05251 -7.45811e-22)
(0.452641 -1.21201 -3.0217e-22)
(0.570549 -1.38768 3.52293e-21)
(0.703724 -1.57923 2.26872e-21)
(0.853005 -1.78585 -9.94373e-21)
(1.01947 -2.00669 3.45214e-20)
(1.20329 -2.24058 -5.04794e-20)
(1.40501 -2.48606 5.752e-20)
(1.6244 -2.74147 -7.35566e-20)
(1.86169 -3.0048 -4.29626e-20)
(2.11669 -3.27411 0)
(2.3897 -3.54738 8.18234e-20)
(2.68012 -3.8229 7.83223e-20)
(2.98777 -4.09862 0)
(3.3124 -4.3726 1.95871e-19)
(3.65342 -4.64294 0)
(4.01066 -4.90769 -2.62155e-19)
(4.38371 -5.16531 2.86879e-19)
(4.77176 -5.41418 1.02331e-20)
(5.17427 -5.6526 -1.71974e-20)
(5.59018 -5.87912 2.92522e-20)
(6.01869 -6.09197 -8.13653e-19)
(6.45896 -6.28967 -4.68254e-19)
(6.90993 -6.47079 9.64734e-19)
(7.37082 -6.63403 1.04825e-18)
(7.8404 -6.7784 -5.68228e-19)
(8.31746 -6.90275 0)
(8.80088 -7.00615 0)
(9.28918 -7.08782 0)
(9.78119 -7.14684 7.21938e-19)
(10.2757 -7.18267 -2.98341e-18)
(10.7712 -7.19497 1.56232e-18)
(11.2662 -7.18324 -7.94856e-19)
(11.7597 -7.14718 -1.71613e-18)
(12.2499 -7.08681 1.74149e-18)
(12.7357 -7.00195 4.03712e-20)
(13.2157 -6.89275 -9.84555e-19)
(13.6883 -6.75948 1.01759e-18)
(14.1522 -6.60235 1.05264e-18)
(14.6059 -6.42165 0)
(15.0482 -6.2177 -1.06951e-18)
(15.4778 -5.99109 0)
(15.8935 -5.74235 -1.70994e-18)
(16.2941 -5.47216 5.28492e-19)
(16.6786 -5.18123 0)
(17.0458 -4.87029 -6.20772e-19)
(17.3948 -4.54038 -1.49095e-20)
(17.7249 -4.19232 1.32335e-18)
(18.0351 -3.82728 -6.28831e-19)
(18.3246 -3.44636 -3.49912e-19)
(18.5927 -3.05068 6.40683e-19)
(18.8386 -2.6416 -4.89735e-21)
(19.0616 -2.22012 3.34274e-19)
(19.261 -1.78754 1.61474e-19)
(19.4362 -1.34481 3.40932e-19)
(19.5872 -0.893174 -8.5662e-19)
(19.7136 -0.434142 3.44107e-19)
(19.8149 0.0307229 -4.40408e-20)
(0.205912 -0.5336 -4.69344e-22)
(0.281772 -0.658725 0)
(0.371866 -0.798969 4.6682e-21)
(0.476516 -0.954982 0)
(0.595099 -1.12665 -7.64884e-22)
(0.728969 -1.31333 2.62808e-21)
(0.878606 -1.51456 5.21147e-21)
(1.04458 -1.72916 1.98201e-20)
(1.22789 -1.95621 3.69413e-21)
(1.428 -2.19457 5.63759e-21)
(1.64556 -2.44264 9.57798e-22)
(1.87959 -2.69897 -2.75188e-20)
(2.13046 -2.96149 4.19199e-20)
(2.39728 -3.22824 -1.28076e-19)
(2.68105 -3.49726 1.10896e-19)
(2.98072 -3.7674 -8.49541e-21)
(3.29585 -4.03638 -1.39155e-19)
(3.62655 -4.30249 -1.69152e-19)
(3.97179 -4.56407 0)
(4.33166 -4.81906 2.02765e-19)
(4.70604 -5.06627 8.33143e-21)
(5.09365 -5.30441 -5.30039e-19)
(5.49449 -5.53175 -2.32818e-20)
(5.90707 -5.74729 -2.8808e-19)
(6.33067 -5.94912 1.02049e-18)
(6.76462 -6.13588 3.55176e-20)
(7.20779 -6.30631 -3.80611e-19)
(7.65984 -6.45902 -4.12981e-20)
(8.11942 -6.59347 0)
(8.58531 -6.70847 0)
(9.05677 -6.80307 0)
(9.53205 -6.87682 0)
(10.0101 -6.92861 0)
(10.4901 -6.95789 5.77003e-20)
(10.9706 -6.96463 -6.70002e-19)
(11.4498 -6.94832 -3.93697e-20)
(11.9272 -6.90841 2.93844e-20)
(12.401 -6.84526 6.92478e-19)
(12.8701 -6.75856 1.58491e-18)
(13.3333 -6.64846 -2.39147e-18)
(13.7891 -6.51548 1.66567e-18)
(14.2362 -6.35968 -8.40967e-19)
(14.673 -6.18141 0)
(15.0985 -5.98075 9.35363e-19)
(15.5117 -5.75837 0)
(15.9111 -5.51485 9.85537e-19)
(16.2958 -5.25064 -1.00889e-18)
(16.6645 -4.96678 4.73874e-19)
(17.0165 -4.66358 5.06509e-19)
(17.3508 -4.34211 -5.28794e-19)
(17.6668 -4.00322 3.80665e-20)
(17.9634 -3.64814 -1.08145e-20)
(18.2401 -3.27763 1.07658e-18)
(18.4962 -2.89312 -1.10842e-18)
(18.731 -2.49582 -5.4698e-19)
(18.9433 -2.08707 -2.67846e-19)
(19.1327 -1.66763 -8.5245e-19)
(19.2987 -1.23837 0)
(19.4413 -0.80043 5.76106e-19)
(19.5603 -0.355654 -1.47946e-19)
(19.6551 0.0947016 0)
(0.312173 -0.466178 0)
(0.402517 -0.600734 0)
(0.507854 -0.750646 -2.2689e-21)
(0.629582 -0.916157 3.05398e-21)
(0.76505 -1.09657 -7.28199e-22)
(0.91668 -1.2906 -4.63643e-21)
(1.0841 -1.4977 3.21895e-21)
(1.26719 -1.71631 -1.30555e-20)
(1.46822 -1.94567 -1.18928e-21)
(1.68441 -2.18463 3.95225e-20)
(1.91808 -2.43161 -7.69302e-20)
(2.16616 -2.68548 0)
(2.43032 -2.94386 0)
(2.70762 -3.20505 1.45359e-19)
(3.00167 -3.46656 9.46272e-20)
(3.30965 -3.72863 -2.10033e-19)
(3.631 -3.98841 3.42203e-19)
(3.96698 -4.24431 1.44559e-19)
(4.31514 -4.4953 -2.89519e-19)
(4.67628 -4.73861 -1.76664e-19)
(5.05133 -4.97346 2.04114e-19)
(5.43709 -5.19943 -5.2065e-21)
(5.83561 -5.41399 0)
(6.24375 -5.61756 5.30578e-19)
(6.66125 -5.80739 -8.75965e-19)
(7.08809 -5.98213 2.91897e-19)
(7.52198 -6.1411 6.46917e-19)
(7.96428 -6.28217 -1.80382e-18)
(8.41298 -6.40587 3.67674e-19)
(8.86644 -6.51087 0)
(9.32518 -6.59578 0)
(9.78639 -6.66128 0)
(10.2492 -6.70542 5.07281e-19)
(10.7139 -6.72739 1.57167e-18)
(11.1785 -6.72809 -1.06356e-18)
(11.6405 -6.70714 5.87779e-19)
(12.1009 -6.6627 6.44894e-19)
(12.5572 -6.59647 -1.27972e-18)
(13.0083 -6.50764 0)
(13.4538 -6.39608 -1.31555e-18)
(13.8917 -6.2632 6.83708e-19)
(14.321 -6.1085 3.56508e-20)
(14.7397 -5.93283 -3.20205e-20)
(15.1474 -5.73523 7.54426e-19)
(15.5431 -5.51701 3.2014e-20)
(15.925 -5.27899 -2.41172e-18)
(16.2928 -5.02077 8.17534e-19)
(16.6447 -4.74418 -1.69907e-18)
(16.9805 -4.44867 0)
(17.299 -4.13607 0)
(17.5999 -3.80636 1.79642e-18)
(17.882 -3.46173 -4.29193e-19)
(18.1447 -3.10209 -9.31525e-19)
(18.3881 -2.72874 -4.47776e-19)
(18.6109 -2.3438 1.43066e-18)
(18.812 -1.94828 7.21808e-19)
(18.9907 -1.54246 2.49577e-19)
(19.1464 -1.12752 -4.71753e-21)
(19.2798 -0.703618 -2.49846e-19)
(19.391 -0.273227 0)
(19.4789 0.161835 0)
(0.434146 -0.443466 4.69369e-22)
(0.542585 -0.584514 0)
(0.664709 -0.740993 0)
(0.806526 -0.913406 -1.66225e-21)
(0.959546 -1.09992 0)
(1.13012 -1.29838 -4.1452e-22)
(1.31572 -1.50832 3.32234e-21)
(1.51504 -1.72772 -7.07955e-21)
(1.73508 -1.95644 0)
(1.96599 -2.19326 -2.37323e-20)
(2.21679 -2.43655 3.87179e-21)
(2.47729 -2.68589 0)
(2.75551 -2.93814 0)
(3.04025 -3.19213 -6.08978e-20)
(3.34485 -3.44291 6.70217e-20)
(3.66084 -3.69558 -8.54046e-20)
(3.98644 -3.94472 -9.90804e-20)
(4.32764 -4.18873 0)
(4.67726 -4.42875 1.2943e-19)
(5.03806 -4.65907 -2.73979e-19)
(5.41447 -4.88011 -3.08401e-19)
(5.79597 -5.09361 -3.63506e-19)
(6.19241 -5.2938 -3.33607e-20)
(6.59515 -5.48552 -4.64863e-19)
(7.00548 -5.66292 4.46063e-19)
(7.42528 -5.82486 4.98762e-19)
(7.84775 -5.97249 -5.69301e-19)
(8.27991 -6.10054 3.17646e-20)
(8.71733 -6.21315 4.27058e-20)
(9.15639 -6.30819 -6.59593e-19)
(9.60217 -6.38242 0)
(10.0483 -6.44012 -8.05608e-19)
(10.4946 -6.47629 1.59873e-18)
(10.9433 -6.4898 -4.52477e-20)
(11.3916 -6.48472 9.40584e-19)
(11.8343 -6.46037 -9.36349e-19)
(12.2776 -6.41009 1.03346e-18)
(12.7153 -6.34089 1.07892e-18)
(13.1467 -6.24987 -2.13377e-18)
(13.5737 -6.13606 1.16858e-18)
(13.9923 -6.00374 1.14966e-18)
(14.4033 -5.84975 1.81738e-18)
(14.802 -5.67712 -6.47399e-19)
(15.1909 -5.48148 0)
(15.5682 -5.26756 3.48587e-20)
(15.9309 -5.03607 7.04353e-19)
(16.2813 -4.78352 -6.84879e-19)
(16.6147 -4.51563 7.37981e-19)
(16.9332 -4.22778 0)
(17.2342 -3.92514 0)
(17.5193 -3.60459 -4.05837e-20)
(17.7857 -3.27152 7.94011e-19)
(18.0333 -2.92216 0)
(18.263 -2.55981 3.94636e-19)
(18.4735 -2.18845 3.98157e-19)
(18.6626 -1.80735 -8.11343e-19)
(18.83 -1.41578 -3.98045e-19)
(18.9741 -1.01634 -2.11564e-19)
(19.0971 -0.606077 0)
(19.2002 -0.191233 0)
(19.2805 0.226997 2.5346e-20)
(0.572175 -0.44915 -1.2928e-21)
(0.705242 -0.593591 2.82021e-21)
(0.843852 -0.752229 -1.31152e-23)
(1.01235 -0.929313 -3.41328e-21)
(1.17943 -1.11847 5.3707e-21)
(1.3688 -1.32088 -2.71929e-21)
(1.57353 -1.52927 0)
(1.78532 -1.74529 1.38883e-21)
(2.02964 -1.97162 -9.96381e-21)
(2.26937 -2.20265 0)
(2.54316 -2.44086 4.97259e-20)
(2.80876 -2.68505 -3.21271e-20)
(3.10451 -2.9311 3.2918e-20)
(3.38914 -3.17808 4.31202e-20)
(3.70699 -3.41235 -5.79057e-20)
(4.03053 -3.65657 -7.17698e-20)
(4.35604 -3.8949 2.3847e-19)
(4.70677 -4.12349 -2.49418e-19)
(5.05111 -4.35511 0)
(5.40666 -4.57387 -9.14142e-21)
(5.79112 -4.77983 7.56764e-19)
(6.16009 -4.98347 -2.95795e-20)
(6.56202 -5.16396 -3.63171e-19)
(6.95308 -5.34693 6.95527e-19)
(7.35424 -5.51429 0)
(7.77022 -5.66348 -4.30555e-19)
(8.17476 -5.80141 -4.41605e-19)
(8.59853 -5.91488 9.81786e-19)
(9.02566 -6.01735 -6.62747e-21)
(9.44595 -6.10401 5.8498e-19)
(9.88141 -6.1649 -1.19753e-18)
(10.3084 -6.21748 1.90626e-18)
(10.7357 -6.24731 -1.36831e-18)
(11.1693 -6.25214 -1.43732e-18)
(11.6039 -6.24063 0)
(12.0221 -6.21358 8.20544e-19)
(12.454 -6.15474 0)
(12.8694 -6.08577 -3.06252e-21)
(13.2786 -5.99438 9.75634e-19)
(13.6896 -5.87518 -1.8159e-18)
(14.0862 -5.74263 -6.74836e-21)
(14.4799 -5.58966 -2.01215e-18)
(14.8528 -5.42294 0)
(15.2217 -5.23045 -5.76808e-19)
(15.5815 -5.02239 2.2151e-18)
(15.9204 -4.79864 -5.63389e-19)
(16.257 -4.55126 5.97437e-19)
(16.5678 -4.29314 0)
(16.8708 -4.01197 6.15434e-19)
(17.1518 -3.71829 -1.85754e-18)
(17.4219 -3.40338 -2.5999e-20)
(17.6711 -3.08207 0)
(17.9003 -2.7457 6.39166e-19)
(18.1168 -2.39476 -1.92615e-20)
(18.3162 -2.03489 0)
(18.4904 -1.6669 3.60779e-19)
(18.6481 -1.29729 -3.27739e-19)
(18.7779 -0.915351 3.43634e-19)
(18.8887 -0.519794 3.40998e-19)
(18.9865 -0.11706 -1.71346e-19)
(19.0562 0.285016 -6.4824e-20)
(20.6313 0.864808 1.51622e-19)
(20.6906 1.39434 -5.14125e-20)
(20.7218 1.92703 0)
(20.7248 2.46052 0)
(20.6999 2.9931 8.17052e-19)
(20.6475 3.52361 1.17546e-18)
(20.5675 4.05017 -1.21056e-18)
(20.4602 4.57143 -3.98933e-19)
(20.3256 5.08595 3.98891e-19)
(20.1644 5.59264 7.80646e-19)
(19.9769 6.09088 -7.8114e-19)
(19.7632 6.57882 -7.59466e-19)
(19.5248 7.05539 3.77741e-18)
(19.263 7.51937 7.34674e-19)
(18.9782 7.96934 -6.48289e-18)
(18.671 8.4038 0)
(18.3423 8.82182 0)
(17.9932 9.22247 6.74374e-19)
(17.6247 9.60519 1.99196e-18)
(17.2375 9.96863 -5.12016e-18)
(16.8331 10.3121 -7.53237e-20)
(16.4123 10.6353 1.17335e-18)
(15.9762 10.9368 1.20757e-18)
(15.526 11.2164 -4.50553e-18)
(15.0631 11.4738 0)
(14.5884 11.709 2.11648e-18)
(14.1023 11.9216 -1.96091e-18)
(13.6067 12.1097 0)
(13.1031 12.273 0)
(12.5934 12.4111 -8.98728e-19)
(12.0786 12.5243 -1.6432e-18)
(11.5601 12.6121 2.34213e-18)
(11.0394 12.6747 0)
(10.5176 12.7122 0)
(9.99607 12.7244 1.18186e-18)
(9.47601 12.7116 -1.1239e-18)
(8.95878 12.6739 0)
(8.44566 12.6119 1.77158e-18)
(7.93768 12.5258 3.69275e-19)
(7.43609 12.4158 -1.02138e-18)
(6.94212 12.2825 3.58636e-20)
(6.45718 12.1265 4.30323e-19)
(5.98203 11.9485 -4.26184e-19)
(5.51789 11.7489 7.4605e-20)
(5.06593 11.5286 0)
(4.62686 11.2884 0)
(4.20174 11.0288 -1.72231e-19)
(3.79148 10.7507 -3.71073e-20)
(3.39709 10.4552 2.21224e-19)
(3.01925 10.1434 9.2033e-20)
(2.6586 9.81599 1.43963e-19)
(2.31594 9.47397 -1.45846e-19)
(1.99205 9.11859 -9.77284e-20)
(1.68722 8.75104 9.90656e-20)
(1.40217 8.37226 -5.91722e-19)
(1.13728 7.98367 6.45738e-19)
(0.892991 7.58643 -1.37316e-21)
(0.669602 7.18202 0)
(0.467281 6.77152 1.64486e-19)
(0.286376 6.356 2.23397e-20)
(0.126962 5.93671 2.36498e-20)
(20.4123 0.0906505 -8.20355e-20)
(20.4827 0.609146 0)
(20.5253 1.1294 0)
(20.5405 1.65098 9.41944e-19)
(20.5281 2.1725 -6.29835e-19)
(20.4885 2.69265 -2.21989e-18)
(20.4218 3.20957 0)
(20.3279 3.72256 0)
(20.2073 4.22973 -1.20861e-18)
(20.0599 4.72976 0)
(19.8862 5.22182 -1.77092e-18)
(19.6869 5.70363 1.17494e-18)
(19.4633 6.17341 -5.83287e-19)
(19.2165 6.63096 0)
(18.9468 7.07581 2.30732e-18)
(18.6544 7.5066 1.08049e-18)
(18.3402 7.92216 -1.0827e-18)
(18.0053 8.3213 1.02985e-18)
(17.6504 8.70339 -3.04339e-18)
(17.2767 9.06721 2.04979e-18)
(16.8854 9.41166 -1.99075e-18)
(16.4774 9.73627 -1.01514e-18)
(16.0538 10.0399 -9.17871e-19)
(15.6158 10.3217 2.66343e-18)
(15.1647 10.581 8.53567e-19)
(14.7013 10.8177 7.80977e-19)
(14.2265 11.0319 -7.05339e-19)
(13.7425 11.2227 0)
(13.2502 11.3894 0)
(12.7512 11.5314 0)
(12.2465 11.6488 0)
(11.7375 11.7411 0)
(11.2258 11.8084 0)
(10.7124 11.8508 0)
(10.1989 11.868 -4.92673e-19)
(9.6863 11.8602 4.37007e-19)
(9.17612 11.8275 3.49967e-19)
(8.66952 11.7703 -1.69895e-18)
(8.16761 11.6889 -2.65112e-19)
(7.67174 11.5836 7.91199e-19)
(7.18312 11.4547 4.35534e-19)
(6.70313 11.3028 -3.47312e-19)
(6.23262 11.1286 1.28656e-19)
(5.77295 10.9325 9.43121e-20)
(5.32522 10.7151 -7.37894e-21)
(4.89023 10.4773 7.46202e-21)
(4.46905 10.2197 9.36321e-20)
(4.06264 9.94311 0)
(3.67207 9.64847 8.10579e-20)
(3.29811 9.33678 -1.83872e-19)
(2.94142 9.00891 1.03107e-19)
(2.60291 8.66575 0)
(2.28343 8.30845 -3.07205e-19)
(1.98323 7.93816 0)
(1.70321 7.55583 0)
(1.44364 7.16289 -9.54364e-19)
(1.20514 6.76055 4.60337e-19)
(0.987924 6.35021 1.27298e-19)
(0.792565 5.93288 -1.33122e-19)
(0.619365 5.50984 0)
(0.468554 5.08231 -3.75535e-20)
(20.2022 0.481469 6.26891e-20)
(20.2607 0.983771 0)
(20.2923 1.48654 -2.50147e-19)
(20.2961 1.98959 -1.65501e-20)
(20.2733 2.49152 0)
(20.2244 2.9918 2.00759e-18)
(20.1491 3.48977 9.80107e-19)
(20.0473 3.98465 0)
(19.9192 4.47433 3.24964e-20)
(19.7652 4.95646 9.48773e-19)
(19.5863 5.42954 1.44149e-18)
(19.3837 5.89215 -4.73891e-19)
(19.1577 6.34262 0)
(18.9087 6.7802 0)
(18.6372 7.20442 1.74515e-18)
(18.3441 7.61439 -8.61169e-19)
(18.0304 8.00909 -8.06711e-19)
(17.6969 8.38756 0)
(17.3446 8.74901 2.43741e-18)
(16.9745 9.09249 -2.33857e-18)
(16.5877 9.41707 -1.49347e-18)
(16.1853 9.72205 -1.44512e-18)
(15.7683 10.0065 0)
(15.3378 10.2698 -2.06478e-18)
(14.8951 10.5113 -6.73788e-19)
(14.4412 10.7303 6.15462e-19)
(13.9775 10.9263 6.05748e-19)
(13.5052 11.0992 0)
(13.0254 11.2487 0)
(12.5394 11.3743 0)
(12.0484 11.476 0)
(11.5538 11.5537 0)
(11.0567 11.6072 0)
(10.5586 11.6365 0)
(10.0608 11.6417 -1.05723e-18)
(9.56428 11.6228 3.38456e-19)
(9.07047 11.58 -2.69701e-19)
(8.58048 11.5134 1.28446e-18)
(8.09544 11.4236 0)
(7.61656 11.3108 3.60334e-19)
(7.14505 11.1754 2.93579e-19)
(6.68213 11.018 1.25479e-19)
(6.2288 10.8392 -7.49087e-20)
(5.78624 10.6393 -9.33555e-20)
(5.35546 10.4192 2.74264e-20)
(4.93736 10.1793 -4.96026e-22)
(4.53282 9.92056 1.04882e-19)
(4.14279 9.64365 0)
(3.76819 9.34954 0)
(3.40986 9.03908 8.14024e-20)
(3.06853 8.71318 9.83152e-20)
(2.74487 8.37277 2.11726e-19)
(2.43964 8.0188 2.423e-19)
(2.15326 7.65241 0)
(1.88645 7.27448 3.01531e-19)
(1.63945 6.88648 3.32509e-19)
(1.41275 6.48947 0)
(1.20676 6.08493 -1.79106e-21)
(1.02199 5.67376 0)
(0.858684 5.25727 0)
(0.717098 4.83655 2.88705e-20)
(20.0482 0.428982 -1.03999e-19)
(20.1044 0.915162 2.03422e-19)
(20.1346 1.40418 -4.01109e-19)
(20.1384 1.89409 -2.15845e-19)
(20.1158 2.38336 0)
(20.0665 2.8709 -8.35991e-19)
(19.9902 3.3563 -8.29954e-19)
(19.8887 3.8375 0)
(19.7627 4.31437 3.46236e-20)
(19.6125 4.7847 -8.02166e-19)
(19.4381 5.24645 1.51424e-18)
(19.24 5.69864 1.49065e-18)
(19.0186 6.14014 0)
(18.7746 6.56974 -7.26453e-19)
(18.5088 6.9862 -1.44301e-18)
(18.222 7.38832 -7.11527e-19)
(17.915 7.77525 2.08419e-18)
(17.5887 8.1461 -1.33888e-18)
(17.2441 8.50012 1.30267e-18)
(16.8821 8.83647 1.8911e-18)
(16.5039 9.15433 2.45517e-18)
(16.1106 9.45292 1.2138e-18)
(15.7031 9.73142 5.58505e-19)
(15.2826 9.98912 1.68853e-18)
(14.85 10.2255 5.16652e-19)
(14.4065 10.4401 5.17254e-19)
(13.9533 10.6324 4.6858e-19)
(13.4917 10.8021 -1.36434e-18)
(13.0228 10.9489 8.45788e-19)
(12.548 11.0723 7.89232e-19)
(12.0682 11.1723 -1.53137e-18)
(11.5849 11.2488 7.42062e-19)
(11.0993 11.3017 -6.45442e-19)
(10.6126 11.3311 3.02887e-19)
(10.1263 11.3369 2.92615e-19)
(9.64141 11.3191 2.37517e-19)
(9.15914 11.2779 -2.39059e-19)
(8.68059 11.2135 -2.25334e-19)
(8.20687 11.1263 -5.14122e-19)
(7.73921 11.0168 -2.98117e-19)
(7.27878 10.8853 -4.64705e-19)
(6.82666 10.7323 -4.30713e-19)
(6.38405 10.5585 1.23598e-19)
(5.95196 10.3642 7.40246e-21)
(5.53144 10.15 -8.6561e-22)
(5.12337 9.91661 3.20823e-20)
(4.72847 9.66472 -2.7282e-19)
(4.34775 9.39514 5.88727e-20)
(3.98203 9.10883 0)
(3.63225 8.80654 0)
(3.29899 8.48912 1.509e-19)
(2.98307 8.15765 8.63775e-22)
(2.6851 7.81293 -1.9748e-19)
(2.40554 7.45601 0)
(2.14497 7.08771 -2.45069e-19)
(1.90361 6.7095 0)
(1.68201 6.32253 0)
(1.4804 5.92806 -2.35545e-19)
(1.2996 5.52724 -8.38851e-20)
(1.13956 5.1212 8.71458e-20)
(1.00088 4.71112 -4.62259e-20)
(19.8909 0.5003 1.89376e-21)
(19.9417 0.973376 -1.7623e-19)
(19.9669 1.44896 5.16502e-19)
(19.9667 1.9255 3.42722e-19)
(19.9409 2.40183 -5.04863e-19)
(19.8895 2.8766 3.38244e-19)
(19.8136 3.34768 -2.45337e-21)
(19.7128 3.8131 -6.54759e-19)
(19.5873 4.27286 9.97395e-19)
(19.4383 4.7261 -1.29918e-18)
(19.2662 5.17169 1.22246e-18)
(19.0712 5.60815 -1.3e-18)
(18.8537 6.03439 -6.24523e-19)
(18.6146 6.44935 0)
(18.3544 6.8517 6.43115e-19)
(18.0741 7.24022 5.48603e-19)
(17.7741 7.61419 0)
(17.4554 7.97263 1.08052e-18)
(17.1189 8.31484 0)
(16.7657 8.64008 -1.06886e-18)
(16.3968 8.94747 9.43464e-19)
(16.0134 9.23623 -4.10606e-20)
(15.6165 9.50548 -4.60803e-20)
(15.207 9.75449 1.80554e-21)
(14.7858 9.98286 -1.77552e-18)
(14.354 10.1901 -8.0722e-19)
(13.9129 10.3758 1.57726e-18)
(13.4637 10.5397 1.458e-18)
(13.0075 10.6813 -7.27112e-19)
(12.5455 10.8004 0)
(12.0788 10.8966 0)
(11.6086 10.9702 0)
(11.1361 11.021 5.53664e-19)
(10.6627 11.0491 -1.93772e-18)
(10.1898 11.0542 8.99046e-19)
(9.71821 11.0365 -4.28522e-19)
(9.24921 10.996 -6.84912e-19)
(8.78382 10.933 6.42784e-19)
(8.32304 10.848 2.17755e-20)
(7.86814 10.7413 -2.01953e-19)
(7.42022 10.6133 2.21921e-19)
(6.98038 10.4646 1.43692e-19)
(6.54981 10.2958 0)
(6.12953 10.1072 -3.88332e-20)
(5.72051 9.8994 0)
(5.32371 9.67281 7.99744e-20)
(4.93959 9.42836 -4.14587e-20)
(4.56917 9.16676 0)
(4.21312 8.88899 9.57784e-20)
(3.87272 8.59574 1.97175e-20)
(3.54824 8.28773 -2.50685e-19)
(3.24052 7.96609 1.47375e-19)
(2.95032 7.63161 9.68549e-20)
(2.67784 7.28523 -1.77646e-19)
(2.42395 6.92774 8.1662e-21)
(2.18821 6.56045 -1.07701e-19)
(1.97169 6.18458 -5.80536e-20)
(1.77429 5.80146 -1.29012e-19)
(1.59717 5.41216 3.41995e-19)
(1.43993 5.01781 -1.45434e-19)
(1.30367 4.61951 1.92509e-20)
(19.7255 0.54944 3.71077e-20)
(19.7714 1.0074 0)
(19.7927 1.46743 -5.78618e-19)
(19.7893 1.92837 0)
(19.7613 2.38888 2.87984e-19)
(19.7089 2.84756 8.42521e-19)
(19.6323 3.30299 5.5254e-19)
(19.5317 3.7546 1.12053e-18)
(19.4074 4.20051 9.81603e-21)
(19.2604 4.63985 -6.86306e-21)
(19.091 5.07119 -6.07023e-20)
(18.8995 5.49354 -5.32786e-19)
(18.6864 5.90587 5.14388e-19)
(18.4524 6.3072 -1.50793e-18)
(18.1983 6.69635 1.02317e-18)
(17.9247 7.07205 -4.92322e-20)
(17.6322 7.43352 -9.27454e-19)
(17.3215 7.77988 -9.5019e-19)
(16.9935 8.11062 0)
(16.6493 8.42512 8.50319e-19)
(16.2902 8.72241 -3.82188e-20)
(15.9172 9.00174 -1.67258e-18)
(15.5313 9.26216 -5.91464e-21)
(15.1333 9.50281 -6.93491e-19)
(14.724 9.72348 2.11081e-18)
(14.3046 9.9237 -3.50344e-20)
(13.8761 10.1031 -6.7374e-19)
(13.4397 10.2616 -7.13412e-20)
(12.9968 10.3986 0)
(12.5483 10.5137 0)
(12.0954 10.6067 0)
(11.6388 10.6779 0)
(11.1801 10.727 0)
(10.7205 10.7545 5.45498e-20)
(10.2616 10.7596 -3.48596e-19)
(9.80396 10.7426 3.94971e-20)
(9.34886 10.7035 5.36739e-20)
(8.89723 10.6424 2.23103e-19)
(8.44983 10.56 4.24113e-19)
(8.00809 10.4568 -5.27208e-19)
(7.57316 10.3329 3.09527e-19)
(7.1459 10.1892 -9.51395e-20)
(6.72772 10.026 0)
(6.31963 9.84386 3.38849e-20)
(5.9225 9.64335 0)
(5.53751 9.42437 -4.17992e-20)
(5.16438 9.18816 7.9052e-20)
(4.80472 8.93536 -5.4716e-20)
(4.45858 8.66715 -6.89062e-20)
(4.1279 8.38387 1.03126e-19)
(3.81248 8.0862 1.93003e-20)
(3.51317 7.77543 1.54485e-20)
(3.23098 7.45207 -2.83597e-19)
(2.96578 7.11723 3.23117e-19)
(2.71874 6.77128 1.76902e-19)
(2.48872 6.41585 9.24917e-20)
(2.27747 6.05195 3.07643e-19)
(2.08396 5.68111 0)
(1.91046 5.30423 -2.35275e-19)
(1.75582 4.92253 6.2481e-20)
(1.62189 4.53686 0)
(19.5432 0.601123 0)
(19.5838 1.04334 0)
(19.6007 1.48756 2.51302e-19)
(19.594 1.93236 -4.81398e-19)
(19.5636 2.37678 -2.48479e-19)
(19.5099 2.81948 -1.20647e-18)
(19.4331 3.2588 4.65648e-19)
(19.3329 3.69376 -9.62972e-19)
(19.2098 4.12397 1.56409e-20)
(19.0651 4.54815 1.36474e-18)
(18.899 4.96433 -1.82176e-18)
(18.7115 5.37162 0)
(18.5032 5.76898 0)
(18.2746 6.15613 1.72474e-18)
(18.027 6.53163 8.33456e-19)
(17.761 6.89353 -1.69148e-18)
(17.4765 7.24171 2.4214e-18)
(17.1743 7.57525 7.70045e-19)
(16.8552 7.89381 -1.50925e-18)
(16.5204 8.1971 -7.57406e-19)
(16.1716 8.48369 6.98554e-19)
(15.8095 8.75317 -7.16485e-20)
(15.4353 9.00448 0)
(15.0498 9.2361 1.30761e-18)
(14.653 9.44859 -1.84418e-18)
(14.2465 9.64143 5.93931e-19)
(13.8312 9.81414 1.0684e-18)
(13.4083 9.96705 -2.59344e-18)
(12.9796 10.0991 5.0736e-19)
(12.5454 10.2104 0)
(12.1073 10.2996 0)
(11.6651 10.3685 0)
(11.2212 10.4159 3.51254e-19)
(10.776 10.4433 9.93657e-19)
(10.3323 10.4487 -5.85477e-19)
(9.88962 10.4327 2.55182e-19)
(9.4494 10.3952 2.44445e-19)
(9.0127 10.3361 -4.34535e-19)
(8.57945 10.2565 0)
(8.15156 10.157 -2.42433e-19)
(7.73047 10.0374 1.26186e-19)
(7.31622 9.89879 1.42673e-20)
(6.91087 9.74165 9.83438e-21)
(6.5156 9.56644 2.89831e-20)
(6.13075 9.37397 -1.06484e-20)
(5.75871 9.16293 1.55524e-19)
(5.39696 8.93573 -6.63172e-20)
(5.04893 8.69219 2.24933e-19)
(4.71277 8.43446 0)
(4.39283 8.16212 0)
(4.08697 7.87546 -4.03566e-19)
(3.79625 7.57646 1.09716e-19)
(3.52303 7.26516 2.51651e-19)
(3.26521 6.94278 1.48633e-19)
(3.0262 6.60901 -4.68301e-19)
(2.80176 6.26611 -2.62005e-19)
(2.59639 5.91474 -9.6401e-20)
(2.40636 5.55711 -2.09151e-21)
(2.23722 5.19355 1.0325e-19)
(2.08476 4.82531 0)
(1.95365 4.45304 0)
(19.3383 0.649731 -2.53798e-20)
(19.373 1.07508 0)
(19.3852 1.50256 0)
(19.3745 1.93051 2.13631e-19)
(19.3416 2.35783 0)
(19.2868 2.78351 8.23083e-19)
(19.2104 3.20586 4.05844e-19)
(19.1109 3.6233 -7.97074e-19)
(18.9888 4.03767 0)
(18.8466 4.44689 -8.09208e-19)
(18.6852 4.84628 4.45589e-20)
(18.5023 5.23773 0)
(18.2996 5.61893 0)
(18.0767 5.99105 -7.54261e-19)
(17.836 6.35304 6.96283e-19)
(17.5789 6.69996 -7.21197e-19)
(17.3031 7.03417 -7.03044e-19)
(17.0099 7.35456 0)
(16.7005 7.65981 6.64156e-19)
(16.3756 7.9514 -1.21072e-18)
(16.038 8.22641 -1.16952e-18)
(15.6876 8.48566 -1.20081e-18)
(15.3255 8.72813 -9.60235e-21)
(14.9541 8.94954 -9.9071e-19)
(14.5702 9.15339 1.05063e-18)
(14.1768 9.3388 9.46688e-19)
(13.776 9.50383 -9.6068e-19)
(13.3667 9.65121 6.02159e-20)
(12.9531 9.7775 9.84507e-22)
(12.5334 9.88578 -8.02289e-19)
(12.1118 9.97015 0)
(11.6837 10.0376 -6.39203e-19)
(11.2563 10.0825 1.23107e-18)
(10.8254 10.111 -4.65132e-20)
(10.3991 10.1171 5.26512e-19)
(9.97259 10.1021 -4.28391e-19)
(9.54838 10.0669 3.6383e-19)
(9.1287 10.0094 2.60543e-19)
(8.71034 9.93287 -5.73075e-19)
(8.29687 9.83733 2.4068e-19)
(7.89126 9.72222 1.5359e-19)
(7.48985 9.58886 1.62142e-19)