/*--------------------------------*- C++ -*----------------------------------*\
| =========                 |                                                 |
| \\      /  F ield         | OpenFOAM: The Open Source CFD Toolbox           |
|  \\    /   O peration     | Version:  2.3.1                                 |
|   \\  /    A nd           | Web:      www.OpenFOAM.org                      |
|    \\/     M anipulation  |                                                 |
\*---------------------------------------------------------------------------*/
FoamFile
{
    version     2.0;
    format      ascii;
    class       volScalarField;
    location    "0.22";
    object      k;
}
// * * * * * * * * * * * * * * * * * * * * * * * * * * * * * * * * * * * * * //

dimensions      [0 2 -2 0 0 0 0];

internalField   nonuniform List<scalar> 
15166
(
1.07454
1.31006
1.68381
2.07686
2.38029
2.68299
2.8984
3.02602
3.06881
3.04395
2.95907
2.84752
1.07505
1.28078
1.68664
2.0684
2.3713
2.65332
2.84869
2.96003
2.99263
2.96308
2.8796
2.75929
1.08323
1.24873
1.67067
2.046
2.34832
2.61411
2.79426
2.89335
2.91896
2.88619
2.80295
2.67944
1.0939
1.22292
1.64866
2.01739
2.31704
2.56907
2.73717
2.82701
2.8477
2.81268
2.7288
2.6005
1.10543
1.20336
1.62523
1.98668
2.28165
2.52139
2.67937
2.76195
2.77901
2.74245
2.65815
2.52917
1.11789
1.18837
1.60149
1.95518
2.24421
2.47274
2.62198
2.69867
2.71296
2.67528
2.59059
2.46037
1.13128
1.17687
1.57803
1.92353
2.20567
2.42401
2.56558
2.63741
2.6495
2.61096
2.52559
2.39239
1.14541
1.16822
1.55538
1.89213
2.16681
2.37578
2.51054
2.57825
2.58857
2.54942
2.4638
2.33127
1.16006
1.16192
1.53385
1.86145
2.12822
2.32848
2.45709
2.52125
2.53012
2.49056
2.405
2.27324
1.17504
1.15752
1.51358
1.83163
2.09027
2.28238
2.40538
2.4664
2.47404
2.43429
2.3493
2.22007
1.19022
1.15469
1.49459
1.8028
2.05317
2.23764
2.35546
2.41367
2.42027
2.38056
2.29664
2.17088
1.2055
1.15309
1.47683
1.77501
2.01707
2.19433
2.30734
2.363
2.36873
2.32931
2.24721
2.12722
1.22078
1.15251
1.46025
1.74825
1.98206
2.15249
2.261
2.3143
2.3193
2.2804
2.20059
2.08646
1.23599
1.15278
1.44479
1.72251
1.94817
2.11211
2.21638
2.26751
2.2719
2.23363
2.1556
2.04191
1.25105
1.15367
1.43037
1.69781
1.91541
2.07317
2.17344
2.22254
2.22644
2.18893
2.11306
2.00409
1.26591
1.15508
1.41687
1.67408
1.88379
2.03563
2.13212
2.17932
2.18279
2.14613
2.07252
1.96738
1.28053
1.15688
1.40423
1.6513
1.85328
1.99945
2.09235
2.13776
2.14088
2.10514
2.03371
1.93171
1.29487
1.15898
1.39239
1.62946
1.82388
1.96461
2.05406
2.09779
2.10062
2.06581
1.99649
1.89728
1.30889
1.16132
1.38125
1.60848
1.79551
1.93101
2.01719
2.05931
2.0619
2.02806
1.96088
1.86506
1.32256
1.16379
1.37078
1.58834
1.76818
1.89863
1.98166
2.02225
2.02465
1.9918
1.92673
1.83415
1.33587
1.16638
1.36088
1.56899
1.74182
1.86741
1.94741
1.98655
1.98878
1.95689
1.89377
1.80328
1.3488
1.16901
1.3515
1.55041
1.71641
1.83729
1.91439
1.95213
1.95421
1.92326
1.86191
1.77323
1.36133
1.17166
1.34261
1.53253
1.6919
1.80824
1.88254
1.91893
1.92088
1.89081
1.831
1.74356
1.37344
1.17431
1.33415
1.51533
1.66826
1.7802
1.8518
1.88689
1.88871
1.85947
1.80106
1.71493
1.38513
1.17693
1.32607
1.49879
1.64546
1.75314
1.82212
1.85596
1.85765
1.82916
1.77207
1.68738
1.39637
1.17949
1.31835
1.48287
1.62345
1.727
1.79345
1.82607
1.82762
1.79985
1.74401
1.66092
1.40719
1.18197
1.31094
1.46751
1.6022
1.70175
1.76574
1.79718
1.79858
1.77149
1.71691
1.63578
1.41757
1.1844
1.30383
1.4527
1.58167
1.67734
1.73895
1.76924
1.77049
1.74404
1.69078
1.61211
1.42749
1.18675
1.29698
1.43842
1.56184
1.65374
1.71304
1.74219
1.74329
1.71747
1.66556
1.58911
1.43698
1.189
1.29038
1.42462
1.54267
1.63091
1.68797
1.71602
1.71695
1.69175
1.64112
1.56647
1.44602
1.19118
1.28397
1.41129
1.52413
1.60883
1.66369
1.69067
1.69143
1.66682
1.61747
1.5447
1.4546
1.19326
1.27778
1.39838
1.50619
1.58744
1.64019
1.6661
1.66669
1.64266
1.59452
1.52342
1.46272
1.19526
1.27176
1.3859
1.48884
1.56674
1.61741
1.64229
1.6427
1.61923
1.57228
1.50299
1.47044
1.19716
1.26593
1.37381
1.47203
1.54669
1.59534
1.6192
1.61943
1.5965
1.55071
1.48303
1.47766
1.19898
1.26025
1.36211
1.45575
1.52725
1.57393
1.5968
1.59685
1.57443
1.52978
1.4638
1.48448
1.20072
1.25474
1.35075
1.43997
1.50841
1.55317
1.57506
1.57493
1.55301
1.50945
1.44502
1.49085
1.20237
1.24936
1.33973
1.42467
1.49013
1.53303
1.55396
1.55363
1.53219
1.48974
1.42714
1.49679
1.20395
1.24412
1.32902
1.40983
1.4724
1.51347
1.53346
1.53294
1.51197
1.47062
1.40993
1.50232
1.20546
1.23901
1.31863
1.39543
1.45519
1.49449
1.51355
1.51283
1.49233
1.45204
1.39287
1.50742
1.2069
1.23403
1.30853
1.38146
1.43849
1.47605
1.4942
1.49329
1.47325
1.43405
1.37689
1.51206
1.20828
1.22916
1.2987
1.36789
1.42227
1.45813
1.47539
1.47428
1.45466
1.41638
1.35956
1.51625
1.20957
1.22439
1.28916
1.35472
1.40652
1.44073
1.4571
1.45579
1.43656
1.39905
1.34257
1.52
1.21078
1.21975
1.27987
1.34192
1.39121
1.4238
1.43932
1.4378
1.41893
1.38219
1.32696
1.52333
1.21188
1.2152
1.27083
1.32948
1.37633
1.40735
1.42201
1.42028
1.40174
1.36574
1.31152
1.52625
1.21286
1.21077
1.26205
1.31738
1.36186
1.39134
1.40517
1.40322
1.38499
1.34974
1.29686
1.52875
1.21371
1.20644
1.25352
1.30561
1.34778
1.37577
1.38878
1.3866
1.36866
1.33411
1.28208
1.53084
1.21447
1.20222
1.24521
1.29415
1.3341
1.36062
1.37282
1.37041
1.35274
1.31893
1.26839
1.53254
1.21509
1.19809
1.23712
1.283
1.32078
1.34586
1.35727
1.35463
1.33722
1.30412
1.25465
1.53385
1.21559
1.19405
1.22923
1.27214
1.30782
1.33149
1.34211
1.33923
1.32207
1.28969
1.24164
1.53477
1.21602
1.19009
1.22155
1.26158
1.29519
1.31749
1.32733
1.3242
1.30728
1.27558
1.22844
1.53532
1.21635
1.18619
1.21406
1.2513
1.2829
1.30385
1.31292
1.30954
1.29284
1.26181
1.2159
1.53549
1.21663
1.18238
1.20675
1.24129
1.27092
1.29056
1.29887
1.29523
1.27874
1.24838
1.2037
1.5353
1.21682
1.17863
1.19962
1.23154
1.25926
1.2776
1.28517
1.28127
1.26498
1.23523
1.19126
1.53475
1.21695
1.17496
1.19266
1.22204
1.2479
1.26498
1.27181
1.26764
1.25153
1.22242
1.1797
1.53384
1.21702
1.17135
1.18587
1.21279
1.23682
1.25267
1.25877
1.25433
1.2384
1.20994
1.16854
1.53259
1.217
1.16781
1.17924
1.20376
1.22603
1.24067
1.24605
1.24134
1.22559
1.19778
1.15779
1.53099
1.2169
1.16434
1.17276
1.19497
1.2155
1.22896
1.23363
1.22866
1.21307
1.1859
1.14694
1.52905
1.21677
1.16094
1.16644
1.18639
1.20525
1.21755
1.22153
1.21629
1.20086
1.1743
1.13641
1.52678
1.21655
1.15761
1.16027
1.17803
1.19525
1.20642
1.20971
1.2042
1.18893
1.1629
1.12533
1.52418
1.2163
1.15435
1.15425
1.16987
1.1855
1.19557
1.19818
1.1924
1.17726
1.15175
1.11504
1.52124
1.21597
1.15116
1.14838
1.16191
1.17598
1.18497
1.18692
1.18088
1.16586
1.14088
1.10538
1.518
1.2156
1.14804
1.14264
1.15414
1.1667
1.17464
1.17594
1.16962
1.15472
1.13028
1.096
1.51443
1.21516
1.14499
1.13704
1.14657
1.15765
1.16456
1.16521
1.15863
1.14385
1.11993
1.08654
1.51054
1.21469
1.14201
1.13158
1.13918
1.14883
1.15472
1.15475
1.1479
1.13322
1.10981
1.0773
1.50633
1.21417
1.13911
1.12626
1.13198
1.14022
1.14513
1.14453
1.13742
1.12284
1.0999
1.06801
1.50181
1.21363
1.13627
1.12107
1.12496
1.13182
1.13577
1.13457
1.12719
1.1127
1.0902
1.05906
1.497
1.21301
1.13351
1.11602
1.11811
1.12364
1.12664
1.12484
1.1172
1.10279
1.08069
1.05009
1.49186
1.21236
1.13084
1.1111
1.11144
1.11565
1.11773
1.11535
1.10744
1.09309
1.07138
1.04155
1.48642
1.2117
1.12824
1.10632
1.10493
1.10787
1.10904
1.10608
1.09791
1.08363
1.06229
1.03313
1.4807
1.21097
1.12572
1.10167
1.0986
1.10028
1.10057
1.09704
1.08861
1.07437
1.0534
1.02502
1.47467
1.21022
1.12328
1.09715
1.09243
1.09288
1.0923
1.08822
1.07953
1.06533
1.0447
1.01685
1.46835
1.2094
1.12091
1.09276
1.08643
1.08567
1.08424
1.07961
1.07066
1.05649
1.03618
1.009
1.46173
1.20858
1.11863
1.08851
1.08059
1.07865
1.07638
1.07122
1.062
1.04786
1.02787
1.00133
1.45481
1.20773
1.11646
1.0844
1.07491
1.07181
1.06873
1.06303
1.05356
1.03943
1.01974
0.993747
1.44761
1.20684
1.11434
1.08042
1.0694
1.06515
1.06126
1.05504
1.04531
1.03119
1.01178
0.986383
1.44014
1.2059
1.11232
1.07657
1.06404
1.05868
1.054
1.04726
1.03727
1.02314
1.004
0.978941
1.43237
1.2049
1.11038
1.07287
1.05885
1.05238
1.04692
1.03968
1.02942
1.01529
0.996363
0.971698
1.42431
1.20389
1.10852
1.06929
1.05382
1.04626
1.04003
1.03229
1.02177
1.00762
0.988897
0.96453
1.41597
1.20288
1.10678
1.06586
1.04896
1.04031
1.03333
1.02509
1.01432
1.00013
0.981592
0.957597
1.40735
1.2018
1.10512
1.06258
1.04425
1.03455
1.02681
1.01808
1.00705
0.992831
0.974447
0.950671
1.39844
1.2007
1.10355
1.05944
1.03971
1.02895
1.02048
1.01126
0.999966
0.985697
0.967461
0.944071
1.38926
1.19956
1.10207
1.05644
1.03533
1.02353
1.01433
1.00463
0.993063
0.97873
0.960632
0.937672
1.37981
1.19837
1.10069
1.05358
1.03112
1.01829
1.00836
0.99818
0.986351
0.971952
0.953984
0.931341
1.37007
1.19716
1.09941
1.05088
1.02708
1.01323
1.00257
0.991921
0.979825
0.965354
0.947497
0.925044
1.36005
1.19592
1.09824
1.04833
1.0232
1.00834
0.996969
0.985845
0.973477
0.958922
0.941163
0.919022
1.34977
1.19462
1.09716
1.04593
1.0195
1.00363
0.991545
0.979947
0.967309
0.952668
0.934988
0.912989
1.33921
1.19326
1.09617
1.04369
1.01597
0.999098
0.986304
0.974234
0.961319
0.946575
0.928959
0.907299
1.32838
1.19187
1.09528
1.04161
1.01262
0.994751
0.981248
0.968704
0.955511
0.940669
0.923117
0.901624
1.31727
1.19044
1.09451
1.03969
1.00945
0.990588
0.976377
0.963361
0.949885
0.934937
0.917435
0.896139
1.30588
1.18899
1.09385
1.03795
1.00646
0.986612
0.971691
0.958199
0.944438
0.92937
0.911878
0.890477
1.29421
1.18749
1.09328
1.03637
1.00366
0.98282
0.96719
0.953218
0.939166
0.923969
0.906505
0.885629
1.28227
1.18594
1.09282
1.03497
1.00106
0.979227
0.962884
0.948431
0.934093
0.91878
0.90137
0.880761
1.27008
1.1843
1.09247
1.03374
0.998648
0.97583
0.958772
0.943836
0.929201
0.913754
0.896372
0.876015
1.2576
1.18265
1.09222
1.0327
0.996438
0.972639
0.954858
0.939432
0.924497
0.908909
0.891547
0.871313
1.24485
1.18091
1.09209
1.03184
0.994435
0.96965
0.951144
0.935226
0.919982
0.904245
0.886881
0.866747
1.23184
1.17909
1.09206
1.03116
0.992639
0.966873
0.947636
0.931218
0.915663
0.899776
0.882395
0.862232
1.21855
1.17722
1.09216
1.03069
0.991066
0.964314
0.944339
0.927415
0.911536
0.895477
0.878047
0.857956
1.20496
1.17532
1.09236
1.03042
0.989719
0.961982
0.941259
0.923815
0.907608
0.891374
0.873894
0.853788
1.19113
1.17328
1.09268
1.03034
0.988607
0.959877
0.938401
0.920429
0.903883
0.88746
0.869909
0.849824
1.17701
1.1712
1.09311
1.03049
0.987735
0.958017
0.935772
0.917265
0.900371
0.883753
0.86613
0.845965
1.16261
1.16904
1.09366
1.03085
0.987108
0.956399
0.933378
0.914321
0.897062
0.880231
0.862512
0.84242
1.14792
1.16683
1.09433
1.03144
0.986745
0.955041
0.931229
0.911606
0.893973
0.876922
0.859107
0.839051
1.13295
1.16455
1.09511
1.03226
0.986647
0.953949
0.92934
0.909141
0.891125
0.87385
0.855936
0.835802
1.11772
1.16214
1.09601
1.0333
0.986825
0.953138
0.927714
0.906922
0.888511
0.870996
0.852978
0.832829
1.10221
1.15961
1.09704
1.0346
0.987286
0.952618
0.92636
0.904959
0.886135
0.868366
0.850233
0.830164
1.08641
1.15701
1.09818
1.03614
0.988052
0.952398
0.925293
0.903265
0.884012
0.865991
0.847747
0.827612
1.07033
1.15426
1.09943
1.03795
0.989126
0.952491
0.924528
0.901853
0.882148
0.863841
0.845441
0.825325
1.05397
1.15143
1.10081
1.04001
0.990528
0.95292
0.92408
0.90074
0.880567
0.861966
0.843406
0.823197
1.03731
1.14858
1.1023
1.04237
0.992275
0.953703
0.923971
0.899939
0.879278
0.860367
0.84163
0.82131
1.02037
1.1455
1.10394
1.04502
0.994382
0.954852
0.924216
0.899464
0.87829
0.859038
0.840079
0.819597
1.00313
1.14236
1.10571
1.04796
0.996875
0.956397
0.924836
0.899343
0.877632
0.858019
0.83884
0.818198
0.985591
1.13912
1.10759
1.05122
0.999756
0.95835
0.925852
0.899594
0.877319
0.857331
0.837928
0.817196
0.967782
1.13563
1.1096
1.05479
1.00305
0.960749
0.92729
0.900242
0.877385
0.857019
0.837413
0.816475
0.94967
1.13206
1.11173
1.05869
1.00678
0.963599
0.929174
0.901295
0.87782
0.857021
0.83711
0.815643
0.931259
1.12839
1.11397
1.06294
1.01096
0.966935
0.931519
0.902778
0.878638
0.85736
0.837108
0.815303
0.912565
1.12447
1.11636
1.06754
1.01562
0.97078
0.934364
0.904726
0.879887
0.858116
0.837542
0.815459
0.893552
1.12048
1.11887
1.07253
1.0208
0.975194
0.937753
0.907184
0.881602
0.85929
0.838316
0.815911
0.874241
1.1162
1.12155
1.0779
1.02651
0.980196
0.941737
0.910199
0.883841
0.86096
0.839606
0.816982
0.854624
1.11176
1.12431
1.08369
1.03282
0.98584
0.946354
0.913811
0.886633
0.863157
0.841414
0.818612
0.834726
1.10724
1.12721
1.08989
1.03973
0.992168
0.951658
0.918078
0.890024
0.865917
0.843764
0.820572
0.814516
1.10245
1.13027
1.09656
1.04729
0.99923
0.957689
0.923026
0.894034
0.869191
0.846455
0.822471
0.793983
1.09742
1.13347
1.10371
1.05555
1.00709
0.964521
0.928721
0.89873
0.873095
0.849762
0.825341
0.77315
1.09212
1.13682
1.11135
1.06457
1.01582
0.972235
0.935265
0.904217
0.877754
0.85386
0.829126
0.752022
1.08677
1.1403
1.11955
1.07441
1.02549
0.980926
0.942727
0.910535
0.883142
0.858512
0.8332
0.730561
1.08104
1.14398
1.12834
1.08513
1.03621
0.990677
0.951208
0.917791
0.889375
0.863968
0.837978
0.708782
1.07503
1.14785
1.1378
1.09684
1.04809
1.00162
0.960824
0.926084
0.896521
0.870186
0.843491
0.686699
1.06897
1.15193
1.14796
1.10966
1.06126
1.01392
0.971741
0.935575
0.904755
0.877428
0.850008
0.664257
1.06249
1.15635
1.15898
1.12373
1.07592
1.02773
0.984118
0.946401
0.914197
0.885734
0.857248
0.641474
1.05583
1.16113
1.17099
1.13927
1.09226
1.04328
0.998131
0.958696
0.924925
0.89519
0.865737
0.618287
1.04891
1.16646
1.18429
1.15651
1.11057
1.0608
1.01398
0.972629
0.937056
0.905811
0.875168
0.594697
1.04199
1.17271
1.19921
1.17591
1.13118
1.0806
1.03193
0.988427
0.950815
0.91793
0.886077
0.570584
1.03521
1.18047
1.21645
1.19799
1.15453
1.103
1.05225
1.00627
0.966305
0.931471
0.898129
0.545874
1.02986
1.19094
1.23697
1.22338
1.18103
1.12826
1.07509
1.02633
0.983623
0.946474
0.911183
0.520434
1.02947
1.2074
1.26317
1.25339
1.21154
1.15712
1.10123
1.04917
1.00323
0.963215
0.925629
0.490495
1.03095
1.22276
1.2901
1.28222
1.24092
1.18512
1.12765
1.07235
1.02383
0.980872
0.941503
1.00764
0.00463419
0.331116
0.307834
0.306881
0.27936
0.27037
0.645751
0.802115
0.750934
0.548905
0.00763677
0.0315781
2.94692
0.260886
0.00353746
2.7613
0.106673
0.103826
0.00347285
0.134714
0.171269
0.139111
0.0262166
1.02214
0.330347
0.153818
0.35356
0.582361
0.78435
0.51737
1.16283
0.00416874
0.539671
0.0301622
0.156203
0.389832
0.451277
0.39246
0.00803231
0.0669563
0.00336662
0.0688117
0.500086
0.273839
0.16818
0.0587033
0.0239667
0.2768
0.134234
0.154585
0.633533
0.268365
0.00321462
1.93278
0.00440412
0.0103257
0.00336369
0.451999
0.25049
0.149144
1.18731
0.00320909
0.0163754
0.174499
0.00448744
0.847969
0.257741
1.52871
0.664922
1.8309
0.0517815
0.382703
0.695858
0.0266702
0.00324724
0.769442
0.00310468
0.0677577
0.240349
0.0998404
0.00311171
0.409337
0.3004
0.0158528
1.08306
0.844116
0.00319455
0.376042
0.242768
0.35242
0.629126
0.00319815
0.00389382
0.462001
0.00326188
0.3414
0.0121895
0.00317137
0.859954
1.06708
0.192487
0.00334475
0.0042993
0.00312305
0.519658
0.500481
0.691024
0.509197
0.0081346
0.0923143
0.0031281
0.199541
0.00370853
0.00318206
0.215022
0.0190358
0.210326
1.05803
0.169608
0.982383
0.0284382
1.6519
0.189045
0.121729
1.25387
0.00402574
1.9576
0.0308728
0.00320005
0.232269
0.00323636
0.23544
0.00430595
0.156477
0.00508449
0.238039
0.574579
0.205186
0.00575663
0.0165777
0.142571
0.272613
0.0238019
0.177877
1.84455
0.301175
0.00450052
0.950856
0.374622
0.0560962
0.209264
0.00311544
0.110818
0.148996
0.00314703
0.246432
0.0032386
1.24027
0.00697366
0.0262614
0.0035585
0.123811
0.0130045
0.142504
0.081045
0.980876
0.297154
0.336065
0.00309783
1.83603
0.727463
1.93747
0.0174542
0.00310332
0.552169
0.00311952
0.310722
0.13128
0.692804
1.0052
0.424281
0.0609116
0.373036
0.00338324
0.260771
0.00318309
0.00315318
0.178705
0.00318547
0.469424
0.00312978
0.934728
0.00472171
0.282272
0.293893
0.270081
0.162073
0.00312803
3.09848
0.986689
0.321188
0.419016
0.214836
0.325881
0.101183
0.0885106
0.220225
0.672307
0.208545
0.291411
0.869687
0.500308
0.401568
0.0031544
0.28481
0.0126921
0.40769
3.1732
0.215132
0.299762
0.987795
0.343576
0.00315683
0.00318522
1.26965
1.0824
0.0032636
4.12181
0.0309283
0.31158
0.117594
0.00312244
0.9074
0.395161
0.254565
0.244246
1.0442
0.621929
0.32097
0.149337
0.154405
1.22158
1.63962
0.371629
0.284858
0.230173
0.00349188
1.35842
0.291862
0.627478
0.694003
0.364039
3.89457
0.242283
0.231186
0.195641
0.309071
0.556702
0.346182
0.208013
0.259678
0.015315
0.0870104
0.681649
0.263845
0.891574
0.505872
0.342986
1.47925
0.270144
0.0485587
1.59414
0.209993
0.209302
1.64939
0.248362
0.260746
0.307367
0.207923
0.865304
0.244672
0.375353
0.33244
0.589277
0.271395
0.454944
0.208698
1.08655
0.124819
0.205969
1.6217
0.226668
0.225241
0.286686
0.917937
0.114355
0.207093
0.0651666
0.4852
0.179818
0.0980945
1.34752
2.00038
0.146966
0.922336
0.329099
0.00318772
0.191815
0.160146
0.203884
0.293565
0.00315686
1.15106
0.323036
0.0646711
0.226005
0.734329
0.0031519
0.634454
0.0372458
0.558194
0.403478
4.84689
0.505947
0.730538
0.516696
0.00313871
0.00317933
0.289633
0.424591
0.00315956
0.49789
0.00312145
0.00317653
0.00322577
0.00311944
0.134994
0.00316309
0.00576195
0.993026
0.511549
0.00322898
0.333557
0.00958269
0.196837
0.294755
1.24836
4.05691
0.45901
0.00310352
0.00323876
0.0790719
0.127757
0.209139
0.00310282
0.095857
0.321252
0.84872
0.363021
0.181414
0.278786
0.993477
3.99694
0.148776
0.311553
0.00364702
0.00318491
0.149865
0.240214
0.112162
0.177056
0.508327
2.73696
1.6477
0.138529
0.342715
0.981347
0.00319525
0.402683
0.716861
0.00521687
0.00319805
0.519928
3.77207
0.733736
0.00313725
0.0468745
0.149735
0.0247639
0.00320566
0.804545
0.367096
0.282322
0.285688
0.00374259
3.72987
0.00314272
0.226852
0.522272
0.00637976
0.0109109
0.922137
0.00862602
1.37143
0.762927
1.11548
0.628891
0.174908
0.683175
0.00313945
0.00315461
0.00317168
1.00585
0.0728597
1.25881
2.73476
0.161623
0.590855
0.00318528
0.00956763
0.27543
0.00310113
0.00316969
0.702235
0.00315394
0.219112
0.885733
0.375651
0.00310354
0.00736087
0.10702
0.112005
0.235829
0.139669
0.00311078
3.26974
0.807943
0.10541
0.0120882
0.332993
0.2003
0.00697415
0.278814
0.00675676
0.810058
0.00351596
0.248212
0.126778
0.00311886
1.26226
0.237257
0.32094
0.00915447
0.452829
0.141378
0.00512387
0.218214
0.494165
0.340155
1.10667
0.0233297
0.0487958
0.0112383
1.27421
0.650085
0.0599517
0.132586
0.156754
0.333654
0.175802
0.51519
1.10019
0.0031113
1.99252
0.884471
0.22435
0.00310749
0.272997
0.924198
0.0203553
0.439972
0.351102
0.246467
0.122761
0.180748
0.259177
0.00357584
0.0184091
0.846037
0.0378749
0.00442877
0.921126
3.99994
0.0382474
0.204362
0.758532
0.0840472
0.490863
0.264424
0.814736
0.319661
0.296489
0.00324885
0.081759
0.452611
0.380595
1.29397
0.218981
1.38014
0.93491
3.67115
0.851034
0.29877
0.00316648
1.22863
0.205202
0.773248
0.397393
0.154877
0.0810175
0.406793
0.00326194
0.299672
0.00317748
0.347697
0.402463
0.213934
0.178668
1.23233
0.241619
1.00027
0.615845
1.92337
0.00323558
0.118416
0.902315
2.41188
0.192881
0.691977
0.00360015
0.0273723
0.335053
1.80715
0.569823
0.00310964
0.0563033
0.00312429
0.0566027
0.352197
0.0364017
0.812536
0.137567
0.59196
0.150071
0.119565
1.22671
0.707121
0.00319501
0.00319626
0.255177
1.17872
0.280702
0.577082
0.427608
0.641091
0.271971
0.00310341
0.178143
0.254627
0.0048134
1.01675
0.266173
0.180184
0.279501
0.0123193
0.0031113
0.0229837
0.0031394
0.62222
0.790924
0.711623
0.614041
0.00319085
1.43584
0.086349
0.743252
0.129354
1.68513
0.00729115
0.149285
0.00311878
0.49609
0.713686
0.318869
0.394555
0.00310302
1.26243
0.777382
0.511515
0.00314571
0.0635575
0.783605
0.591705
0.00599849
2.16484
0.00371889
0.766606
0.584349
0.003614
0.127181
0.08481
0.195042
0.00311143
0.00319876
1.12081
0.434791
0.323041
0.527725
0.00482726
0.124262
0.0948668
0.740806
0.205585
0.00393514
0.196511
1.20477
0.00309884
0.00803203
0.29184
0.641777
1.08259
0.00315742
0.727742
0.226689
1.27072
0.0285014
0.149369
0.815611
0.0031966
0.200406
0.132974
0.374566
0.366666
0.689933
0.25833
1.17989
1.14203
0.280521
2.68193
0.00323213
0.00314982
1.45427
0.755255
0.00470858
0.00315668
0.455285
0.00320624
0.795042
0.539128
0.239184
0.00313994
0.779726
0.0430377
0.296684
1.17769
0.240344
0.142723
0.138394
1.30761
0.00319206
0.278166
0.949414
0.239692
0.535192
0.00661163
0.513808
0.252429
2.02807
0.0031308
0.141768
0.654509
0.304045
0.00332535
0.0923846
0.347669
0.444403
1.22992
0.0568585
1.82459
0.408947
0.0891097
0.404241
0.00313454
0.00722178
0.342305
0.00309762
0.179077
0.00316481
0.245137
0.0105664
0.810458
0.00326014
0.106726
0.497977
1.56279
0.339215
0.643504
0.156607
2.3843
0.0152472
0.0905046
0.549498
0.0031085
0.00320595
0.379635
0.149316
0.249137
0.38956
0.0032899
0.21653
0.2193
0.201821
0.474642
1.11067
0.20114
0.00319657
1.87977
2.40375
0.507459
0.00323832
0.010516
2.03865
0.266111
0.00312629
1.25433
0.00310931
0.0776428
2.67621
0.00353284
0.289747
0.00314941
0.0542932
0.751384
0.00324368
0.00399231
0.00318303
0.00378665
0.0211116
3.72903
0.776273
0.0901141
0.241319
0.00316389
0.731328
0.0031728
0.238487
0.223657
0.0236383
0.155891
0.0134459
1.11435
0.00319257
4.28074
0.203423
0.599662
0.347418
0.158947
0.00310541
0.197496
1.06554
0.12583
0.715606
0.856508
1.64732
0.348337
0.0406808
0.60085
0.0809047
0.00403311
0.102163
2.44799
1.10763
0.114966
0.00703821
0.302545
0.00373459
0.425988
0.842323
1.05396
0.80643
0.866677
0.0360841
0.00578721
0.331685
0.229927
0.0469421
0.275782
0.00316027
0.261332
1.91177
0.00329706
1.64928
0.754314
0.111717
0.0979235
1.40972
0.0230403
0.097174
0.436501
0.298685
0.28262
0.0032232
0.648938
0.0740334
0.270699
0.381765
0.199987
0.206905
0.00676804
0.652537
0.00317322
0.00315999
0.226205
0.100923
0.150861
1.86574
0.00310342
1.10447
0.0623904
0.0554964
0.00341707
1.6731
0.345471
0.0865503
0.756638
0.057445
1.15613
0.149639
0.00314232
1.19184
2.03421
0.00537808
0.00854783
0.204509
1.00728
0.0953737
1.32174
0.034096
0.224036
0.0997839
0.151379
0.654534
0.204053
0.00318756
1.14083
0.333879
0.0146027
0.189273
4.17027
0.2808
0.00317618
0.00311952
0.736767
0.188276
0.980865
0.00310101
0.688435
0.284374
0.411024
0.00375789
0.312911
0.748916
0.00529909
0.263526
0.00321234
1.08917
0.215011
0.350779
0.266583
0.00314609
0.00314551
0.342723
1.36331
0.370915
0.704994
0.00312023
0.0441262
0.00321161
0.00615885
1.12518
0.0712712
0.0931651
0.119216
0.330341
0.304505
0.355252
1.17214
0.00317195
0.309887
0.70467
0.250865
0.00319236
0.911621
0.0032023
0.00316588
0.0848161
0.216816
0.0244084
1.34469
0.207762
2.7313
0.00327829
0.00474807
0.0378676
0.90178
0.292155
0.961262
0.00316693
0.00314859
0.00620482
0.00820093
1.06458
0.777317
0.641604
0.119677
0.0431732
0.302829
0.161666
0.576906
0.274029
0.850297
0.310948
0.00310013
0.329107
0.00531418
0.184675
0.859738
0.188467
0.224784
0.126946
0.00378722
1.30307
0.498048
0.460009
0.32011
0.00315847
0.58834
0.73465
0.332542
0.00790874
0.882951
0.483335
0.809501
0.326434
0.335947
0.581247
0.116111
0.857466
0.24058
0.0941169
0.23683
0.00317697
1.17742
0.861657
0.00312577
0.655564
0.00473003
0.541208
0.205444
0.228203
0.272009
0.729647
0.910354
0.26028
0.12513
0.177238
0.21713
0.0121877
0.00312982
0.998154
0.0594639
0.910881
0.549409
0.209629
0.805784
0.548111
0.00314463
0.282369
1.52963
1.05775
0.224522
0.241516
0.548534
1.84485
0.191747
0.225772
0.0241949
0.0804401
0.550905
1.15862
0.107763
0.813189
0.789183
0.752829
0.239077
0.221536
0.406461
0.666174
0.00319141
1.88984
0.669672
0.192893
0.00319068
0.562276
0.450193
0.298018
0.00319285
0.590781
0.00317165
0.241028
0.0881857
0.00319173
0.794469
0.35015
0.00311117
0.5306
0.377207
0.584169
0.260375
0.5197
0.278579
0.667847
0.17134
0.148413
0.00313323
0.00465747
0.349136
0.16988
0.018549
0.00325075
0.357582
0.00593513
0.114692
0.114454
0.42722
0.204453
0.055842
0.0921705
0.555331
1.59173
0.334632
4.03618
0.84087
0.00312083
0.53983
0.566785
1.63153
0.00312783
0.168527
0.00318782
0.00357524
0.282222
0.276667
0.0378419
0.00340097
0.770674
3.66912
0.00725229
0.00317475
0.126802
0.246287
0.023095
0.0711504
3.79363
0.133984
0.00338737
0.00317515
0.938041
0.268336
0.129647
0.0572495
0.650897
1.13016
0.393901
0.247692
0.650412
0.00317314
0.479473
0.00315897
0.231608
0.278299
5.28419
0.174415
0.0868224
0.00380154
1.15037
0.00319438
0.00313455
0.00576056
0.270697
0.292229
0.945071
0.00314887
0.485323
0.00317082
0.688286
0.945187
0.00320487
0.727049
0.212991
0.00317223
0.00329779
0.0303845
1.06588
0.368656
0.0256501
0.00317268
0.00313577
0.846842
0.684633
0.325866
0.726978
0.112507
0.437463
0.00314844
0.0101295
0.367289
0.809321
0.725936
0.00868065
0.00317592
0.402357
0.00321853
0.204741
0.80495
0.336939
0.0416807
0.20167
0.484068
0.149605
0.0031691
0.495135
1.29174
0.64899
0.00630928
0.0298048
0.664141
3.66923
0.0525964
0.359498
0.00311438
0.00312362
0.00321064
0.0183104
0.405344
1.04096
0.00919563
0.221324
0.610071
1.23016
0.203285
0.0191603
0.00779572
0.00749225
0.149953
0.173847
0.241985
0.00322348
1.30315
0.00314291
0.0133529
0.810118
0.823606
0.0349635
0.358128
0.44986
0.00407121
0.12734
0.238573
0.00315467
0.00377268
1.08311
0.00363993
0.00322478
0.710355
0.240391
2.08921
0.206487
2.37616
0.00356821
0.00314035
3.20195
0.299181
0.216693
0.483675
0.058061
0.237863
0.189435
1.01816
0.785966
0.587749
0.581752
0.233696
0.108439
0.32721
0.726799
0.0142821
0.354164
0.00392555
0.439551
0.360805
0.103079
0.367641
0.184926
0.399356
0.19504
0.266538
1.09293
0.46422
0.219977
0.321668
0.683627
0.309689
0.00417606
0.00315934
0.107638
2.1683
0.00316162
1.74176
0.0031357
0.00964264
0.337257
0.222247
0.791813
0.673669
0.899201
1.10381
0.497539
0.391926
0.00316537
0.288984
1.02479
0.00323918
1.20951
0.00701043
1.70319
0.93865
1.13011
0.27677
0.207268
0.269107
0.0894806
0.287797
1.1983
0.36126
0.757274
0.165579
0.204247
0.0828458
0.232161
0.939502
0.00933822
0.635995
0.00319417
0.00390834
0.299904
1.47378
0.337582
0.276341
0.158857
0.106799
0.116467
0.00351295
0.3398
0.00351585
0.699213
0.00344576
0.0560803
0.941196
0.167462
0.294518
0.332294
0.314971
0.00612203
0.00321112
0.0951789
0.269267
0.110482
0.518834
0.0411015
0.368342
0.224735
0.377195
0.786966
0.00357899
0.00314789
1.63967
0.219539
0.16773
0.780796
0.662669
0.789183
0.00962318
1.63704
0.339864
0.213445
0.00346356
0.189157
0.40235
0.206563
0.199914
0.264794
0.00325567
0.453837
0.00313692
0.624408
0.0104554
0.438761
0.11369
0.390581
0.00324326
6.4489
0.00319244
1.46711
0.0243938
0.00317331
0.0140634
0.276054
0.00317061
0.00318016
0.375817
0.0312085
0.328379
0.0551518
0.00333114
0.223888
0.18201
0.448608
0.00333197
0.223984
0.187841
1.35259
0.679303
0.396545
0.423202
0.215757
0.29265
0.774354
0.828815
0.211861
0.00322412
0.138364
0.36118
0.309197
0.0046892
0.00838242
0.23947
1.56938
0.00318405
0.197095
1.19917
0.00311022
0.820629
0.905893
0.354723
0.596949
0.767353
0.259726
0.125611
2.52738
0.393952
0.846565
0.793176
0.224839
0.102975
0.00316608
0.423193
0.00579971
0.00321785
0.00313522
0.303483
0.00316623
0.00373669
0.515389
4.01576
0.39399
0.198854
0.805057
0.238668
0.00317962
0.168154
1.14164
0.0245483
0.159237
0.985521
0.317311
0.120252
0.030133
0.00314354
0.00316696
0.0264749
0.0429884
0.308478
0.305087
1.1978
0.270459
0.269179
0.0039314
0.499793
0.217963
0.0032118
0.341536
3.30449
0.00321056
0.346674
1.01341
0.70931
0.658262
0.182797
1.06202
0.00354794
0.202358
0.00331146
0.00626223
0.00320968
0.80172
0.546436
0.0715714
0.00319316
0.00309781
1.11173
0.385484
0.277959
0.240484
0.339331
0.435188
0.304377
0.334628
0.354923
0.00317711
0.145872
0.118053
0.131377
0.38345
1.02623
0.735363
0.594845
0.367928
1.0825
0.826278
0.920789
0.421583
0.851689
0.0622094
0.79585
0.395344
0.0269663
1.00626
0.826712
0.428659
0.00314634
0.00320074
0.00359336
0.00441474
0.477153
0.00309969
0.496541
0.167195
0.993615
0.739793
0.0031698
0.454783
0.286594
0.188506
0.27418
0.389512
0.532042
0.00326078
0.00319926
0.00888096
0.0969701
0.00313398
0.639368
0.266773
0.237731
0.729109
0.493888
0.444985
0.533902
0.0031678
0.31767
0.642862
0.00379272
0.0761643
0.414336
0.314317
0.512479
0.191087
0.0032502
0.3818
0.364134
0.00382687
0.0199158
0.00315734
0.181459
0.0043676
0.137209
1.25006
0.109372
0.0710637
0.972956
1.80927
0.00326319
0.599243
0.00312317
0.222669
0.347753
0.253193
0.457273
0.689057
0.650496
0.797342
1.18476
0.715564
0.00317823
0.00314517
0.0513643
0.0981836
0.579905
0.169813
0.00319462
1.54399
0.242278
0.00811887
0.757738
0.0564581
0.00798495
0.0386704
0.966702
0.00634999
0.00319205
0.263827
0.206987
0.616489
0.106723
0.228651
0.200092
0.00321111
0.28951
0.0873917
0.0580636
0.00337144
0.207078
0.509365
0.170382
1.40828
1.29424
0.316348
0.400469
0.00316302
0.363452
0.00321958
2.66572
0.0100422
0.42948
0.0912716
0.811488
0.0157213
0.009172
0.231413
0.29534
1.29225
0.00357378
0.202125
0.485163
0.612888
0.18111
0.996225
0.116271
0.00342466
0.00320504
0.467675
0.611499
1.04657
0.278489
0.0814455
0.531384
0.331672
0.786985
0.0442221
0.00316778
0.00318271
0.117419
0.704186
0.665682
0.950325
0.00353803
0.0107356
0.158784
0.457616
0.273901
0.730443
0.354057
0.849981
0.00319881
0.00320956
1.10189
0.27513
0.856099
2.83481
0.365014
0.0239709
1.37133
0.00319365
1.02019
0.0265276
0.0294549
0.00316967
0.0399843
0.0813697
0.808477
0.765826
0.00322673
0.757437
0.00316103
0.604799
1.52085
0.00314512
0.150183
0.00322656
0.263951
0.123461
0.169982
0.00310974
0.262875
0.21226
0.256037
0.989949
0.160729
1.18648
0.205026
0.7978
0.2417
1.08308
0.60905
0.00381984
0.00320541
0.377972
0.186534
0.785427
0.00317694
2.05835
0.00315889
0.00475318
0.0292883
0.00315902
1.12106
0.935323
0.00324379
0.641183
0.246121
0.098869
0.682845
0.00601405
0.00313325
0.428363
0.367054
0.00952183
0.747993
6.55177
1.31716
0.146602
1.15948
0.100514
0.00318512
0.00366847
0.0340541
0.13489
0.815181
1.05138
1.29507
0.766058
0.532305
0.490196
0.24151
0.614363
1.8895
0.582109
0.0416728
0.0755031
0.262981
1.4622
0.00337826
0.187246
0.632047
0.330858
0.00317091
0.429504
0.00309747
0.0135005
0.841873
0.0034199
0.301126
1.8245
0.00318982
0.349917
0.0035531
0.334417
0.0135891
0.00406553
0.737664
0.26005
0.885945