/*--------------------------------*- C++ -*----------------------------------*\
| =========                 |                                                 |
| \\      /  F ield         | OpenFOAM: The Open Source CFD Toolbox           |
|  \\    /   O peration     | Version:  2.3.1                                 |
|   \\  /    A nd           | Web:      www.OpenFOAM.org                      |
|    \\/     M anipulation  |                                                 |
\*---------------------------------------------------------------------------*/
FoamFile
{
    version     2.0;
    format      ascii;
    class       surfaceScalarField;
    location    "0.22";
    object      phi;
}
// * * * * * * * * * * * * * * * * * * * * * * * * * * * * * * * * * * * * * //

dimensions      [0 3 -1 0 0 0 0];

internalField   nonuniform List<scalar> 
23326
(
-1.24636e-05
0.000111905
-9.94413e-05
-2.13921e-05
0.000127292
-0.000118364
-2.70286e-05
0.000141602
-0.000135966
-3.06725e-05
0.000157087
-0.000153443
-3.37889e-05
0.00016963
-0.000166514
-3.59918e-05
0.000181852
-0.00017965
-3.75044e-05
0.000192369
-0.000190857
-3.82795e-05
0.000200953
-0.000200179
-3.86772e-05
0.000207438
-0.00020704
-3.87427e-05
0.000212434
-0.000212369
-3.8662e-05
0.000216162
-0.000216243
0.000218861
-3.85074e-05
-0.000219016
-6.93535e-06
0.00011884
-1.37056e-05
0.000134062
-1.9751e-05
0.000147647
-2.42407e-05
0.000161577
-2.79215e-05
0.000173311
-3.06404e-05
0.000184571
-3.25454e-05
0.000194274
-3.38067e-05
0.000202215
-3.46025e-05
0.000208233
-3.50657e-05
0.000212897
-3.5295e-05
0.000216391
0.000218963
-3.53965e-05
-5.59766e-06
0.000124437
-1.09041e-05
0.000139369
-1.59185e-05
0.000152662
-2.0031e-05
0.000165689
-2.35758e-05
0.000176856
-2.63481e-05
0.000187343
-2.84091e-05
0.000196335
-2.9877e-05
0.000203683
-3.095e-05
0.000209306
-3.1689e-05
0.000213636
-3.2168e-05
0.00021687
0.000219338
-3.25437e-05
-4.71327e-06
0.000129151
-9.28976e-06
0.000143945
-1.35787e-05
0.00015695
-1.72001e-05
0.00016931
-2.04015e-05
0.000180057
-2.30055e-05
0.000189947
-2.50743e-05
0.000198403
-2.66236e-05
0.000205232
-2.7801e-05
0.000210484
-2.87103e-05
0.000214545
-2.93901e-05
0.00021755
0.000219911
-2.99626e-05
-3.85733e-06
0.000133008
-7.89899e-06
0.000147987
-1.17063e-05
0.000160758
-1.49841e-05
0.000172588
-1.78815e-05
0.000182954
-2.03343e-05
0.0001924
-2.22977e-05
0.000200367
-2.38479e-05
0.000206782
-2.51101e-05
0.000211746
-2.60602e-05
0.000215496
-2.68807e-05
0.000218371
0.000220566
-2.75362e-05
-3.21037e-06
0.000136218
-6.77595e-06
0.000151552
-1.01709e-05
0.000164153
-1.31518e-05
0.000175569
-1.58454e-05
0.000185648
-1.80851e-05
0.00019464
-1.99549e-05
0.000202237
-2.15001e-05
0.000208327
-2.27254e-05
0.000212971
-2.37526e-05
0.000216523
-2.46119e-05
0.00021923
0.000221307
-2.53524e-05
-2.76153e-06
0.00013898
-5.92601e-06
0.000154717
-8.96248e-06
0.000167189
-1.16892e-05
0.000178296
-1.4114e-05
0.000188073
-1.622e-05
0.000196746
-1.79864e-05
0.000204003
-1.94414e-05
0.000209782
-2.06804e-05
0.00021421
-2.17306e-05
0.000217573
-2.26476e-05
0.000220147
0.000222127
-2.34677e-05
-2.42653e-06
0.000141406
-5.26735e-06
0.000157558
-7.99734e-06
0.000169919
-1.04449e-05
0.000180743
-1.26847e-05
0.000190312
-1.46354e-05
0.000198697
-1.63009e-05
0.000205669
-1.76858e-05
0.000211167
-1.8904e-05
0.000215428
-1.99588e-05
0.000218628
-2.08711e-05
0.000221059
0.000222934
-2.16784e-05
-2.16008e-06
0.000143567
-4.73589e-06
0.000160133
-7.21027e-06
0.000172394
-9.46828e-06
0.000183001
-1.15069e-05
0.000192351
-1.32877e-05
0.000200478
-1.48476e-05
0.000207229
-1.62033e-05
0.000212523
-1.73564e-05
0.000216582
-1.8377e-05
0.000219648
-1.92885e-05
0.000221971
0.000223811
-2.01656e-05
-1.93547e-06
0.000145502
-4.27883e-06
0.000162477
-6.54124e-06
0.000174656
-8.60718e-06
0.000185067
-1.05049e-05
0.000194249
-1.21608e-05
0.000202133
-1.36003e-05
0.000208668
-1.4857e-05
0.000213779
-1.5994e-05
0.000217719
-1.69938e-05
0.000220648
-1.79011e-05
0.000222878
0.000224634
-1.87235e-05
-1.74887e-06
0.000147251
-3.90149e-06
0.000164629
-5.97448e-06
0.000176729
-7.88031e-06
0.000186973
-9.61743e-06
0.000195986
-1.11541e-05
0.00020367
-1.25083e-05
0.000210022
-1.37006e-05
0.000214972
-1.47712e-05
0.000218789
-1.57395e-05
0.000221616
-1.66611e-05
0.0002238
0.00022543
-1.74577e-05
-1.58441e-06
0.000148835
-3.56112e-06
0.000166606
-5.47039e-06
0.000178638
-7.25984e-06
0.000188762
-8.84532e-06
0.000197571
-1.02818e-05
0.000205107
-1.15504e-05
0.000211291
-1.26805e-05
0.000216102
-1.3701e-05
0.00021981
-1.46372e-05
0.000222553
-1.54663e-05
0.000224629
0.000226232
-1.62682e-05
-1.44595e-06
0.000150281
-3.26742e-06
0.000168428
-5.04338e-06
0.000180414
-6.68776e-06
0.000190407
-8.18951e-06
0.000199073
-9.52958e-06
0.000206447
-1.0698e-05
0.000212459
-1.17724e-05
0.000217176
-1.27231e-05
0.00022076
-1.36121e-05
0.000223442
-1.44263e-05
0.000225443
0.000226919
-1.51132e-05
-1.3266e-06
0.000151608
-3.03361e-06
0.000170135
-4.67023e-06
0.000182051
-6.18632e-06
0.000191923
-7.58574e-06
0.000200473
-8.81746e-06
0.000207679
-9.9469e-06
0.000213589
-1.09394e-05
0.000218169
-1.18748e-05
0.000221696
-1.27535e-05
0.00022432
-1.35666e-05
0.000226256
0.000227756
-1.44031e-05
-1.21594e-06
0.000152824
-2.78853e-06
0.000171707
-4.33906e-06
0.000183601
-5.75773e-06
0.000193342
-7.04528e-06
0.00020176
-8.2268e-06
0.00020886
-9.26574e-06
0.000214628
-1.02382e-05
0.000219141
-1.10802e-05
0.000222538
-1.18868e-05
0.000225127
-1.26598e-05
0.000227029
0.000228432
-1.33365e-05
-1.1197e-06
0.000153944
-2.59047e-06
0.000173178
-4.02583e-06
0.000185037
-5.34964e-06
0.000194665
-6.56064e-06
0.000202971
-7.6483e-06
0.000209948
-8.63257e-06
0.000215612
-9.52388e-06
0.000220032
-1.03824e-05
0.000223396
-1.11848e-05
0.000225929
-1.19151e-05
0.00022776
0.000229104
-1.25869e-05
-1.03381e-06
0.000154977
-2.39291e-06
0.000174537
-3.73451e-06
0.000186378
-4.98499e-06
0.000195916
-6.12029e-06
0.000204107
-7.14547e-06
0.000210973
-8.07375e-06
0.00021654
-8.95434e-06
0.000220913
-9.74328e-06
0.000224185
-1.04658e-05
0.000226652
-1.11708e-05
0.000228465
0.000229772
-1.18385e-05
-9.44303e-07
0.000155922
-2.22748e-06
0.00017582
-3.49684e-06
0.000187648
-4.67237e-06
0.000197092
-5.74267e-06
0.000205177
-6.71449e-06
0.000211945
-7.5912e-06
0.000217417
-8.34827e-06
0.00022167
-9.10837e-06
0.000224945
-9.82412e-06
0.000227368
-1.05052e-05
0.000229146
0.000230422
-1.11559e-05
-8.76714e-07
0.000156798
-2.08203e-06
0.000177026
-3.25381e-06
0.00018882
-4.36266e-06
0.0001982
-5.34779e-06
0.000206162
-6.26283e-06
0.00021286
-7.07398e-06
0.000218228
-7.87083e-06
0.000222467
-8.56634e-06
0.000225641
-9.25059e-06
0.000228052
-9.87811e-06
0.000229773
0.000231048
-1.05038e-05
-8.15095e-07
0.000157613
-1.92707e-06
0.000178138
-3.05497e-06
0.000189947
-4.07947e-06
0.000199225
-5.03717e-06
0.00020712
-5.87844e-06
0.000213701
-6.67025e-06
0.00021902
-7.37698e-06
0.000223174
-8.06588e-06
0.00022633
-8.66424e-06
0.00022865
-9.28339e-06
0.000230392
0.000231605
-9.84046e-06
-7.5889e-07
0.000158372
-1.80415e-06
0.000179183
-2.84831e-06
0.000190992
-3.8195e-06
0.000200196
-4.6952e-06
0.000207995
-5.51656e-06
0.000214523
-6.24266e-06
0.000219746
-6.91766e-06
0.000223849
-7.54882e-06
0.000226961
-8.17426e-06
0.000229276
-8.74107e-06
0.000230959
0.00023217
-9.30556e-06
-6.82574e-07
0.000159055
-1.66806e-06
0.000180168
-2.65859e-06
0.000191982
-3.59621e-06
0.000201134
-4.42841e-06
0.000208828
-5.16005e-06
0.000215254
-5.84986e-06
0.000220436
-6.49051e-06
0.000224489
-7.1224e-06
0.000227593
-7.70066e-06
0.000229854
-8.26205e-06
0.000231521
0.0002327
-8.79243e-06
-6.40994e-07
0.000159696
-1.56672e-06
0.000181094
-2.50165e-06
0.000192917
-3.34547e-06
0.000201978
-4.13616e-06
0.000209618
-4.84881e-06
0.000215967
-5.50778e-06
0.000221095
-6.11606e-06
0.000225098
-6.69423e-06
0.000228171
-7.24955e-06
0.000230409
-7.77696e-06
0.000232048
0.000233212
-8.28906e-06
-5.80314e-07
0.000160276
-1.45024e-06
0.000181964
-2.33472e-06
0.000193802
-3.13318e-06
0.000202776
-3.88014e-06
0.000210365
-4.55956e-06
0.000216646
-5.18369e-06
0.000221719
-5.7665e-06
0.000225681
-6.29462e-06
0.000228699
-6.7945e-06
0.000230909
-7.31258e-06
0.000232566
0.000233717
-7.81718e-06
-5.35654e-07
0.000160812
-1.33735e-06
0.000182766
-2.17612e-06
0.00019464
-2.95723e-06
0.000203557
-3.64128e-06
0.000211049
-4.28671e-06
0.000217292
-4.85397e-06
0.000222286
-5.38538e-06
0.000226212
-5.91116e-06
0.000229225
-6.42249e-06
0.00023142
-6.88536e-06
0.000233029
0.000234202
-7.3703e-06
-5.03482e-07
0.000161315
-1.25545e-06
0.000183518
-2.02768e-06
0.000195413
-2.76927e-06
0.000204299
-3.41758e-06
0.000211698
-4.00478e-06
0.000217879
-4.54326e-06
0.000222825
-5.07079e-06
0.000226739
-5.55152e-06
0.000229706
-6.01004e-06
0.000231879
-6.49261e-06
0.000233511
0.000234648
-6.93858e-06
-4.46574e-07
0.000161762
-1.15406e-06
0.000184225
-1.88456e-06
0.000196143
-2.56361e-06
0.000204978
-3.203e-06
0.000212337
-3.75974e-06
0.000218436
-4.27108e-06
0.000223336
-4.74933e-06
0.000227218
-5.20412e-06
0.000230161
-5.66937e-06
0.000232344
-6.06429e-06
0.000233906
0.000235064
-6.48091e-06
-3.96781e-07
0.000162159
-1.08451e-06
0.000184913
-1.77396e-06
0.000196832
-2.39581e-06
0.0002056
-2.97525e-06
0.000212916
-3.50519e-06
0.000218966
-4.01474e-06
0.000223846
-4.44228e-06
0.000227645
-4.87565e-06
0.000230594
-5.29469e-06
0.000232763
-5.73035e-06
0.000234342
0.000235427
-6.09274e-06
-3.70489e-07
0.000162529
-9.90357e-07
0.000185533
-1.62313e-06
0.000197465
-2.25605e-06
0.000206233
-2.78469e-06
0.000213445
-3.28283e-06
0.000219464
-3.71673e-06
0.00022428
-4.17893e-06
0.000228107
-4.56278e-06
0.000230978
-4.96709e-06
0.000233168
-5.33389e-06
0.000234709
0.000235852
-5.75956e-06
-3.13586e-07
0.000162843
-8.81597e-07
0.000186101
-1.52275e-06
0.000198106
-2.07698e-06
0.000206787
-2.6e-06
0.000213968
-3.04819e-06
0.000219912
-3.48553e-06
0.000224717
-3.86736e-06
0.000228489
-4.26374e-06
0.000231374
-4.61653e-06
0.00023352
-5.019e-06
0.000235111
0.000236193
-5.35953e-06
-2.90565e-07
0.000163133
-8.41464e-07
0.000186652
-1.38053e-06
0.000198645
-1.92907e-06
0.000207335
-2.39694e-06
0.000214436
-2.84652e-06
0.000220361
-3.23646e-06
0.000225107
-3.62723e-06
0.00022888
-3.97262e-06
0.00023172
-4.33834e-06
0.000233886
-4.64487e-06
0.000235418
0.00023655
-5.00171e-06
-2.57053e-07
0.00016339
-7.41866e-07
0.000187136
-1.29327e-06
0.000199197
-1.76207e-06
0.000207804
-2.23095e-06
0.000214905
-2.63002e-06
0.000220761
-3.02091e-06
0.000225498
-3.3369e-06
0.000229196
-3.69559e-06
0.000232078
-4.01519e-06
0.000234206
-4.3523e-06
0.000235755
0.000236821
-4.62393e-06
-2.28287e-07
0.000163619
-6.63479e-07
0.000187572
-1.16006e-06
0.000199693
-1.65069e-06
0.000208295
-2.06866e-06
0.000215323
-2.44478e-06
0.000221137
-2.76267e-06
0.000225816
-3.11457e-06
0.000229548
-3.42464e-06
0.000232388
-3.73003e-06
0.000234511
-4.03333e-06
0.000236058
0.000237125
-4.33676e-06
-1.6877e-07
0.000163787
-6.12673e-07
0.000188016
-1.07997e-06
0.000200161
-1.49399e-06
0.000208709
-1.88716e-06
0.000215716
-2.24064e-06
0.00022149
-2.56528e-06
0.00022614
-2.86942e-06
0.000229852
-3.16421e-06
0.000232683
-3.42505e-06
0.000234772
-3.70976e-06
0.000236343
0.000237432
-4.01693e-06
-1.77292e-07
0.000163965
-5.41743e-07
0.00018838
-9.54757e-07
0.000200574
-1.39221e-06
0.000209146
-1.73448e-06
0.000216058
-2.03976e-06
0.000221795
-2.34428e-06
0.000226445
-2.63296e-06
0.000230141
-2.88031e-06
0.00023293
-3.15281e-06
0.000235044
-3.42616e-06
0.000236616
0.000237681
-3.67523e-06
-1.13906e-07
0.000164079
-4.72973e-07
0.000188739
-8.8091e-07
0.000200982
-1.21736e-06
0.000209483
-1.56354e-06
0.000216404
-1.87406e-06
0.000222106
-2.15736e-06
0.000226728
-2.39792e-06
0.000230381
-2.62832e-06
0.000233161
-2.88017e-06
0.000235296
-3.09617e-06
0.000236832
0.000237932
-3.3467e-06
-9.67885e-08
0.000164175
-4.02253e-07
0.000189045
-7.61586e-07
0.000201341
-1.12271e-06
0.000209844
-1.42112e-06
0.000216703
-1.68457e-06
0.000222369
-1.92287e-06
0.000226966
-2.14365e-06
0.000230602
-2.38613e-06
0.000233403
-2.62064e-06
0.000235531
-2.82444e-06
0.000237036
0.000238119
-3.01162e-06
-6.69614e-08
0.000164242
-3.40211e-07
0.000189318
-6.69206e-07
0.00020167
-9.82063e-07
0.000210157
-1.25852e-06
0.000216979
-1.52752e-06
0.000222638
-1.74943e-06
0.000227188
-1.95566e-06
0.000230808
-2.15297e-06
0.000233601
-2.34916e-06
0.000235727
-2.54503e-06
0.000237232
0.000238313
-2.73939e-06
-2.89897e-08
0.000164271
-2.75765e-07
0.000189565
-5.80687e-07
0.000201975
-8.70212e-07
0.000210446
-1.12585e-06
0.000217235
-1.32364e-06
0.000222836
-1.55269e-06
0.000227417
-1.74341e-06
0.000230999
-1.92892e-06
0.000233786
-2.08787e-06
0.000235886
-2.29051e-06
0.000237435
0.00023855
-2.52717e-06
-2.28294e-09
0.000164274
-2.17979e-07
0.00018978
-4.96053e-07
0.000202253
-7.61166e-07
0.000210711
-9.96334e-07
0.00021747
-1.20232e-06
0.000223042
-1.3606e-06
0.000227576
-1.50649e-06
0.000231145
-1.67292e-06
0.000233953
-1.83433e-06
0.000236047
-1.97773e-06
0.000237578
0.000238666
-2.09376e-06
7.78368e-09
0.000164266
-1.60946e-07
0.000189949
-4.11725e-07
0.000202504
-6.29321e-07
0.000210929
-8.43716e-07
0.000217684
-1.00296e-06
0.000223201
-1.1709e-06
0.000227744
-1.32821e-06
0.000231302
-1.4534e-06
0.000234078
-1.6088e-06
0.000236203
-1.74634e-06
0.000237716
0.000238847
-1.92788e-06
3.97374e-08
0.000164226
-9.83181e-08
0.000190087
-3.00674e-07
0.000202706
-5.23941e-07
0.000211152
-6.92233e-07
0.000217853
-8.62371e-07
0.000223372
-9.85673e-07
0.000227867
-1.09903e-06
0.000231416
-1.23849e-06
0.000234217
-1.34781e-06
0.000236312
-1.48664e-06
0.000237854
0.000238959
-1.5978e-06
6.35733e-08
0.000164163
-6.61717e-08
0.000190217
-2.46551e-07
0.000202887
-4.20668e-07
0.000211326
-5.71054e-07
0.000218003
-6.95385e-07
0.000223496
-8.0335e-07
0.000227975
-9.30127e-07
0.000231542
-1.02519e-06
0.000234312
-1.1219e-06
0.000236409
-1.22389e-06
0.000237956
0.000239068
-1.33333e-06
9.71146e-08
0.000164066
1.4383e-08
0.0001903
-1.37242e-07
0.000203038
-2.91973e-07
0.000211481
-4.24606e-07
0.000218136
-5.3191e-07
0.000223603
-6.23677e-07
0.000228067
-7.07164e-07
0.000231626
-7.88264e-07
0.000234393
-8.70319e-07
0.000236491
-9.51986e-07
0.000238038
0.000239145
-1.02937e-06
1.20801e-07
0.000163945
6.65149e-08
0.000190354
-5.80318e-08
0.000203163
-1.92379e-07
0.000211615
-3.07649e-07
0.000218251
-3.72282e-07
0.000223668
-4.47558e-07
0.000228142
-5.16025e-07
0.000231694
-5.83208e-07
0.000234461
-6.52894e-07
0.000236561
-7.31437e-07
0.000238117
0.000239244
-8.30389e-07
1.26589e-07
0.000163818
1.16182e-07
0.000190364
1.4237e-08
0.000203265
-7.49203e-08
0.000211704
-1.6919e-07
0.000218345
-2.41651e-07
0.00022374
-3.01484e-07
0.000228202
-3.27061e-07
0.00023172
-3.78879e-07
0.000234512
-4.04366e-07
0.000236586
-4.55415e-07
0.000238168
0.000239256
-4.67003e-07
1.73932e-07
0.000163644
1.63301e-07
0.000190375
1.11689e-07
0.000203316
1.57144e-08
0.0002118
-2.81391e-08
0.000218389
-8.54543e-08
0.000223798
-1.0261e-07
0.000228219
-1.41242e-07
0.000231759
-1.51775e-07
0.000234523
-1.94515e-07
0.000236629
-2.19125e-07
0.000238192
0.00023933
-2.93286e-07
1.83483e-07
0.000163461
2.19613e-07
0.000190339
1.59907e-07
0.000203376
1.12207e-07
0.000211848
8.04662e-08
0.000218421
6.68196e-08
0.000223811
3.81685e-08
0.000228247
4.21898e-08
0.000231755
4.57228e-08
0.000234519
4.60956e-08
0.000236628
1.56343e-08
0.000238223
0.000239323
2.2925e-08
2.07629e-07
0.000163253
2.42634e-07
0.000190304
2.54039e-07
0.000203365
2.27792e-07
0.000211874
1.88315e-07
0.00021846
1.90874e-07
0.000223809
2.32202e-07
0.000228206
2.2294e-07
0.000231764
2.40675e-07
0.000234502
2.54003e-07
0.000236615
2.57812e-07
0.000238219
0.000239341
2.3977e-07
2.32422e-07
0.000163021
3.1747e-07
0.000190219
3.25097e-07
0.000203357
3.17452e-07
0.000211882
3.47579e-07
0.00021843
3.39734e-07
0.000223816
3.69025e-07
0.000228177
4.2975e-07
0.000231703
4.61818e-07
0.00023447
4.622e-07
0.000236615
5.19266e-07
0.000238162
0.0002393
5.59829e-07
2.39387e-07
0.000162781
3.66547e-07
0.000190091
3.94653e-07
0.000203329
4.0597e-07
0.000211871
4.26196e-07
0.00021841
4.87291e-07
0.000223755
5.30903e-07
0.000228133
5.77412e-07
0.000231657
6.4978e-07
0.000234397
7.1627e-07
0.000236548
7.44626e-07
0.000238134
0.000239279
7.65562e-07
2.84686e-07
0.000162497
4.14206e-07
0.000189962
4.8826e-07
0.000203255
5.19309e-07
0.00021184
5.82964e-07
0.000218346
6.33306e-07
0.000223705
7.19061e-07
0.000228047
7.78919e-07
0.000231597
8.34432e-07
0.000234342
8.81216e-07
0.000236501
9.40738e-07
0.000238074
0.000239279
9.40948e-07
2.88626e-07
0.000162208
4.61501e-07
0.000189789
5.32332e-07
0.000203184
6.06648e-07
0.000211765
6.87126e-07
0.000218266
7.79675e-07
0.000223612
8.52348e-07
0.000227975
9.54394e-07
0.000231495
1.02514e-06
0.000234271
1.11857e-06
0.000236408
1.20819e-06
0.000237984
0.000239188
1.29924e-06
3.15468e-07
0.000161892
5.10092e-07
0.000189594
6.25478e-07
0.000203069
7.19135e-07
0.000211672
7.89872e-07
0.000218195
8.98e-07
0.000223504
1.01325e-06
0.00022786
1.13001e-06
0.000231378
1.24275e-06
0.000234158
1.34929e-06
0.000236302
1.41733e-06
0.000237916
0.000239111
1.49459e-06
3.39801e-07
0.000161553
5.56803e-07
0.000189377
6.94302e-07
0.000202931
8.05633e-07
0.00021156
9.19683e-07
0.000218081
1.04364e-06
0.00022338
1.17368e-06
0.00022773
1.30371e-06
0.000231248
1.43065e-06
0.000234031
1.54924e-06
0.000236183
1.66197e-06
0.000237804
0.000238993
1.78013e-06
3.65425e-07
0.000161187
6.04986e-07
0.000189138
7.61999e-07
0.000202774
8.92303e-07
0.00021143
1.04932e-06
0.000217924
1.18792e-06
0.000223242
1.33236e-06
0.000227585
1.47647e-06
0.000231104
1.64263e-06
0.000233865
1.77231e-06
0.000236053
1.88913e-06
0.000237687
0.000238896
1.98593e-06
3.68477e-07
0.000160819
6.51272e-07
0.000188855
8.29833e-07
0.000202595
1.00446e-06
0.000211255
1.15133e-06
0.000217777
1.30572e-06
0.000223087
1.49191e-06
0.000227399
1.67753e-06
0.000230918
1.80142e-06
0.000233741
1.97271e-06
0.000235882
2.10921e-06
0.00023755
0.00023872
2.28543e-06
4.15471e-07
0.000160403
6.98144e-07
0.000188572
9.2237e-07
0.000202371
1.09076e-06
0.000211087
1.25531e-06
0.000217613
1.47905e-06
0.000222864
1.65278e-06
0.000227225
1.82348e-06
0.000230747
2.01601e-06
0.000233549
2.16815e-06
0.00023573
2.35172e-06
0.000237367
0.000238652
2.41898e-06
4.19502e-07
0.000159984
7.47254e-07
0.000188245
9.91837e-07
0.000202127
1.20316e-06
0.000210876
1.41118e-06
0.000217405
1.57071e-06
0.000222704
1.78561e-06
0.00022701
2.00134e-06
0.000230532
2.20928e-06
0.000233341
2.41202e-06
0.000235527
2.58752e-06
0.000237191
0.000238438
2.80239e-06
4.45112e-07
0.000159539
7.71662e-07
0.000187918
1.03557e-06
0.000201863
1.26559e-06
0.000210646
1.48976e-06
0.00021718
1.74493e-06
0.000222449
1.97652e-06
0.000226779
2.2054e-06
0.000230303
2.43076e-06
0.000233115
2.64399e-06
0.000235314
2.84344e-06
0.000236992
0.000238255
3.02655e-06
4.57073e-07
0.000159082
8.44777e-07
0.00018753
1.13008e-06
0.000201577
1.37908e-06
0.000210397
1.62179e-06
0.000216938
1.86438e-06
0.000222206
2.11003e-06
0.000226533
2.35327e-06
0.00023006
2.61621e-06
0.000232852
2.84234e-06
0.000235088
3.05749e-06
0.000236777
0.000238037
3.27476e-06
4.99538e-07
0.000158582
8.92664e-07
0.000187137
1.20008e-06
0.00020127
1.49341e-06
0.000210103
1.75045e-06
0.000216681
2.0099e-06
0.000221947
2.29721e-06
0.000226246
2.55378e-06
0.000229803
2.77414e-06
0.000232632
3.03843e-06
0.000234823
3.25595e-06
0.000236559
0.00023782
3.47362e-06
5.054e-07
0.000158077
9.4128e-07
0.000186701
1.26782e-06
0.000200943
1.55493e-06
0.000209816
1.85578e-06
0.00021638
2.15716e-06
0.000221646
2.43015e-06
0.000225973
2.72804e-06
0.000229505
3.01784e-06
0.000232342
3.24105e-06
0.0002346
3.51316e-06
0.000236287
0.00023757
3.76324e-06
5.31804e-07
0.000157545
9.65673e-07
0.000186267
1.36453e-06
0.000200545
1.66939e-06
0.000209511
1.9878e-06
0.000216061
2.27667e-06
0.000221357
2.59453e-06
0.000225655
2.87874e-06
0.000229221
3.17951e-06
0.000232042
3.46859e-06
0.000234311
3.73742e-06
0.000236018
0.000237363
3.94373e-06
5.41238e-07
0.000157004
1.0396e-06
0.000185769
1.40967e-06
0.000200174
1.75932e-06
0.000209162
2.09474e-06
0.000215726
2.42735e-06
0.000221024
2.75871e-06
0.000225323
3.08297e-06
0.000228897
3.3737e-06
0.000231751
3.70482e-06
0.00023398
3.97335e-06
0.00023575
0.000237043
4.29376e-06
5.70137e-07
0.000156433
1.06857e-06
0.000185271
1.48117e-06
0.000199762
1.87721e-06
0.000208766
2.20225e-06
0.000215401
2.57924e-06
0.000220647
2.89671e-06
0.000225006
3.2313e-06
0.000228562
3.60338e-06
0.000231379
3.88855e-06
0.000233695
4.2084e-06
0.00023543
0.000236814
4.43678e-06
6.05562e-07
0.000155828
1.12062e-06
0.000184756
1.57488e-06
0.000199308
1.95063e-06
0.00020839
2.34044e-06
0.000215011
2.69741e-06
0.00022029
3.07334e-06
0.00022463
3.45578e-06
0.00022818
3.77961e-06
0.000231055
4.13154e-06
0.000233343
4.45406e-06
0.000235107
0.00023646
4.80821e-06
6.13346e-07
0.000155214
1.15855e-06
0.00018421
1.63514e-06
0.000198831
2.0464e-06
0.000207979
2.45338e-06
0.000214604
2.83222e-06
0.000219911
3.23443e-06
0.000224228
3.60191e-06
0.000227812
3.98614e-06
0.000230671
4.35669e-06
0.000232972
4.67679e-06
0.000234787
0.000236157
4.98046e-06
6.36442e-07
0.000154578
1.2186e-06
0.000183628
1.69979e-06
0.00019835
2.17221e-06
0.000207506
2.58021e-06
0.000214196
2.99791e-06
0.000219494
3.3931e-06
0.000223833
3.8255e-06
0.00022738
4.1691e-06
0.000230327
4.55557e-06
0.000232586
4.93065e-06
0.000234412
0.000235775
5.31267e-06
6.58265e-07
0.00015392
1.26526e-06
0.000183021
1.7856e-06
0.00019783
2.23367e-06
0.000207058
2.67786e-06
0.000213752
3.14248e-06
0.000219029
3.5477e-06
0.000223427
3.97288e-06
0.000226955
4.38579e-06
0.000229914
4.78508e-06
0.000232187
5.15816e-06
0.000234039
0.00023546
5.47293e-06
6.97321e-07
0.000153222
1.30478e-06
0.000182414
1.87382e-06
0.00019726
2.36328e-06
0.000206569
2.80443e-06
0.000213311
3.25967e-06
0.000218574
3.7319e-06
0.000222955
4.17221e-06
0.000226514
4.60011e-06
0.000229486
5.01557e-06
0.000231771
5.42051e-06
0.000233634
0.000235047
5.83305e-06
6.77954e-07
0.000152545
1.37005e-06
0.000181722
1.93648e-06
0.000196694
2.44715e-06
0.000206058
2.9554e-06
0.000212803
3.40115e-06
0.000218128
3.89164e-06
0.000222465
4.3465e-06
0.000226059
4.81396e-06
0.000229019
5.21501e-06
0.00023137
5.64991e-06
0.000233199
0.00023467
6.02696e-06
7.49067e-07
0.000151795
1.3833e-06
0.000181087
1.97419e-06
0.000196103
2.52982e-06
0.000205502
3.05718e-06
0.000212275
3.57134e-06
0.000217614
4.05064e-06
0.000221985
4.51942e-06
0.000225591
5.00196e-06
0.000228536
5.46602e-06
0.000230906
5.88312e-06
0.000232782
0.000234278
6.27512e-06
7.37387e-07
0.000151058
1.49997e-06
0.000180325
2.11365e-06
0.00019549
2.69126e-06
0.000204925
3.21252e-06
0.000211754
3.74412e-06
0.000217082
4.23946e-06
0.00022149
4.75074e-06
0.000225079
5.22142e-06
0.000228066
5.70394e-06
0.000230424
6.14468e-06
0.000232342
0.000233789
6.63404e-06
7.60326e-07
0.000150298
1.49582e-06
0.000179589
2.15127e-06
0.000194834
2.7232e-06
0.000204353
3.31583e-06
0.000211161
3.83803e-06
0.00021656
4.4019e-06
0.000220926
4.9014e-06
0.00022458
5.4135e-06
0.000227554
5.88022e-06
0.000229957
6.34914e-06
0.000231873
0.000233367
6.77061e-06
8.19116e-07
0.000149479
1.56474e-06
0.000178844
2.24555e-06
0.000194153
2.86342e-06
0.000203735
3.41855e-06
0.000210606
4.01406e-06
0.000215965
4.54161e-06
0.000220399
5.08346e-06
0.000224038
5.6383e-06
0.000226999
6.1502e-06
0.000229445
6.67923e-06
0.000231344
0.000232895
7.15176e-06
8.18284e-07
0.00014866
1.60377e-06
0.000178058
2.30785e-06
0.000193449
2.97791e-06
0.000203065
3.58139e-06
0.000210003
4.16124e-06
0.000215385
4.76327e-06
0.000219797
5.32116e-06
0.00022348
5.83633e-06
0.000226484
6.35887e-06
0.000228922
6.8547e-06
0.000230848
0.000232422
7.32736e-06
8.13251e-07
0.000147847
1.64964e-06
0.000177222
2.39992e-06
0.000192699
3.06288e-06
0.000202402
3.71139e-06
0.000209354
4.3198e-06
0.000214776
4.90234e-06
0.000219214
5.47624e-06
0.000222906
6.06649e-06
0.000225893
6.63337e-06
0.000228356
7.15802e-06
0.000230323
0.000231895
7.6852e-06
8.76751e-07
0.00014697
1.71626e-06
0.000176382
2.4697e-06
0.000191945
3.17929e-06
0.000201692
3.82292e-06
0.000208711
4.46995e-06
0.000214129
5.07513e-06
0.000218609
5.72516e-06
0.000222256
6.26662e-06
0.000225352
6.85328e-06
0.000227769
7.40567e-06
0.000229771
0.000231427
7.87412e-06
8.88582e-07
0.000146082
1.75739e-06
0.000175514
2.56555e-06
0.000191137
3.26464e-06
0.000200993
3.96219e-06
0.000208013
4.62802e-06
0.000213463
5.2507e-06
0.000217986
5.88564e-06
0.000221621
6.53777e-06
0.0002247
7.10557e-06
0.000227201
7.66774e-06
0.000229209
0.000230809
8.28565e-06
9.05976e-07
0.000145176
1.83827e-06
0.000174581
2.62992e-06
0.000190346
3.39317e-06
0.00020023
4.10357e-06
0.000207303
4.78835e-06
0.000212779
5.45451e-06
0.00021732
6.0798e-06
0.000220996
6.7412e-06
0.000224038
7.36383e-06
0.000226579
7.95712e-06
0.000228615
0.00023029
8.47619e-06
9.37317e-07
0.000144238
1.85569e-06
0.000173663
2.73686e-06
0.000189464
3.51486e-06
0.000199452
4.2712e-06
0.000206546
4.91418e-06
0.000212136
5.63369e-06
0.000216601
6.30065e-06
0.000220329
6.9484e-06
0.000223391
7.57286e-06
0.000225954
8.1681e-06
0.00022802
0.000229665
8.79241e-06
9.56507e-07
0.000143282
1.9038e-06
0.000172716
2.80069e-06
0.000188568
3.602e-06
0.000198651
4.3552e-06
0.000205793
5.11402e-06
0.000211377
5.81636e-06
0.000215898
6.52624e-06
0.000219619
7.16336e-06
0.000222753
7.83084e-06
0.000225287
8.44468e-06
0.000227406
0.000229095
9.01522e-06
9.82762e-07
0.000142299
1.97515e-06
0.000171723
2.87655e-06
0.000187666
3.72585e-06
0.000197802
4.51415e-06
0.000205005
5.28257e-06
0.000210608
6.02974e-06
0.000215151
6.73252e-06
0.000218916
7.44234e-06
0.000222044
8.07911e-06
0.00022465
8.79115e-06
0.000226694
0.000228453
9.43258e-06
1.01154e-06
0.000141288
2.02736e-06
0.000170707
2.95451e-06
0.000186739
3.86572e-06
0.00019689
4.65076e-06
0.00020422
5.41525e-06
0.000209844
6.22048e-06
0.000214346
6.94115e-06
0.000218196
7.64115e-06
0.000221344
8.37051e-06
0.00022392
9.01512e-06
0.00022605
0.00022787
9.59875e-06
1.04439e-06
0.000140243
2.08648e-06
0.000169665
3.09398e-06
0.000185731
3.9329e-06
0.000196051
4.77756e-06
0.000203375
5.62688e-06
0.000208995
6.34834e-06
0.000213624
7.17888e-06
0.000217365
7.92286e-06
0.0002206
8.65788e-06
0.000223185
9.32258e-06
0.000225385
0.000227156
1.00366e-05
1.06327e-06
0.00013918
2.14237e-06
0.000168586
3.16017e-06
0.000184714
4.0621e-06
0.000195149
4.97051e-06
0.000202467
5.76283e-06
0.000208202
6.60884e-06
0.000212778
7.36679e-06
0.000216607
8.12648e-06
0.00021984
8.8606e-06
0.000222451
9.55582e-06
0.00022469
0.00022649
1.02219e-05
1.0881e-06
0.000138092
2.19442e-06
0.00016748
3.21891e-06
0.000183689
4.23301e-06
0.000194135
5.08674e-06
0.000201613
5.98167e-06
0.000207307
6.80838e-06
0.000211952
7.57002e-06
0.000215845
8.39059e-06
0.000219019
9.14575e-06
0.000221696
9.91722e-06
0.000223918
0.000225829
1.05776e-05
1.11227e-06
0.00013698
2.25136e-06
0.000166341
3.32417e-06
0.000182616
4.30392e-06
0.000193156
5.26276e-06
0.000200654
6.16452e-06
0.000206406
7.01247e-06
0.000211104
7.83516e-06
0.000215023
8.63536e-06
0.000218219
9.43761e-06
0.000220894
1.01857e-05
0.00022317
0.00022509
1.09252e-05
1.13913e-06
0.00013584
2.34548e-06
0.000165134
3.44343e-06
0.000181518
4.45791e-06
0.000192141
5.42545e-06
0.000199687
6.32559e-06
0.000205505
7.2195e-06
0.00021021
8.10487e-06
0.000214137
8.94866e-06
0.000217375
9.74043e-06
0.000220102
1.05334e-05
0.000222377
0.000224326
1.12971e-05
1.16496e-06
0.000134675
2.36601e-06
0.000163933
3.4974e-06
0.000180387
4.55471e-06
0.000191084
5.52377e-06
0.000198718
6.51431e-06
0.000204515
7.40347e-06
0.000209321
8.28936e-06
0.000213252
9.14714e-06
0.000216518
9.94495e-06
0.000219304
1.07167e-05
0.000221605
0.000223646
1.13973e-05
1.18826e-06
0.000133487
2.42386e-06
0.000162698
3.63097e-06
0.00017918
4.7153e-06
0.000189999
5.73454e-06
0.000197698
6.68268e-06
0.000203567
7.61897e-06
0.000208384
8.552e-06
0.000212319
9.45225e-06
0.000215617
1.03072e-05
0.000218449
1.11217e-05
0.000220791
0.000222774
1.19929e-05
1.24956e-06
0.000132238
2.51773e-06
0.00016143
3.72214e-06
0.000177976
4.8361e-06
0.000188885
5.88248e-06
0.000196652
6.88002e-06
0.000202569
7.86458e-06
0.0002074
8.81531e-06
0.000211368
9.67256e-06
0.00021476
1.05907e-05
0.000217531
1.14241e-05
0.000219958
0.00022196
1.22383e-05
1.23192e-06
0.000131006
2.57523e-06
0.000160086
3.81291e-06
0.000176738
4.96646e-06
0.000187732
6.10272e-06
0.000195516
7.08037e-06
0.000201592
8.08573e-06
0.000206394
9.06301e-06
0.00021039
9.98466e-06
0.000213839
1.08762e-05
0.00021664
1.17646e-05
0.000219069
0.000221096
1.26286e-05
1.29692e-06
0.000129709
2.63228e-06
0.000158751
3.90812e-06
0.000175462
5.13721e-06
0.000186503
6.18898e-06
0.000194464
7.30744e-06
0.000200473
8.34002e-06
0.000205362
9.28988e-06
0.000209441
1.02571e-05
0.000212871
1.11926e-05
0.000215704
1.20816e-05
0.00021818
0.000220278
1.28996e-05
1.31228e-06
0.000128397
2.68806e-06
0.000157375
3.99966e-06
0.00017415
5.22157e-06
0.000185281
6.41926e-06
0.000193266
7.49346e-06
0.000199399
8.55098e-06
0.000204304
9.57421e-06
0.000208417
1.05881e-05
0.000211857
1.15246e-05
0.000214768
1.24646e-05
0.00021724
0.000219328
1.34145e-05
1.36456e-06
0.000127032
2.78274e-06
0.000155957
4.13702e-06
0.000172796
5.39824e-06
0.00018402
6.57941e-06
0.000192085
7.70788e-06
0.00019827
8.8153e-06
0.000203197
9.86143e-06
0.000207371
1.0874e-05
0.000210845
1.18511e-05
0.000213791
1.27828e-05
0.000216309
0.000218506
1.36046e-05
1.35827e-06
0.000125674
2.84352e-06
0.000154472
4.23317e-06
0.000171407
5.53179e-06
0.000182721
6.79671e-06
0.00019082
7.95113e-06
0.000197116
9.0126e-06
0.000202135
1.01323e-05
0.000206252
1.11429e-05
0.000209834
1.2144e-05
0.00021279
1.31167e-05
0.000215336
0.000217483
1.414e-05
1.45121e-06
0.000124223
2.90186e-06
0.000153021
4.33143e-06
0.000169977
5.71594e-06
0.000181337
6.9225e-06
0.000189613
8.15777e-06
0.000195881
9.2892e-06
0.000201004
1.03855e-05
0.000205155
1.14692e-05
0.000208751
1.25408e-05
0.000211718
1.35151e-05
0.000214362
0.000216625
1.43737e-05
1.43697e-06
0.000122786
3.00186e-06
0.000151456
4.4751e-06
0.000168504
5.85294e-06
0.000179959
7.19154e-06
0.000188275
8.36926e-06
0.000194703
9.59817e-06
0.000199775
1.0721e-05
0.000204032