/*--------------------------------*- C++ -*----------------------------------*\
| =========                 |                                                 |
| \\      /  F ield         | OpenFOAM: The Open Source CFD Toolbox           |
|  \\    /   O peration     | Version:  2.3.1                                 |
|   \\  /    A nd           | Web:      www.OpenFOAM.org                      |
|    \\/     M anipulation  |                                                 |
\*---------------------------------------------------------------------------*/
FoamFile
{
    version     2.0;
    format      ascii;
    class       volScalarField;
    location    "0.07";
    object      epsilon;
}
// * * * * * * * * * * * * * * * * * * * * * * * * * * * * * * * * * * * * * //

dimensions      [0 2 -3 0 0 0 0];

internalField   nonuniform List<scalar> 
9648
(
1756.83
1776.74
1746.92
1714.39
1680
1643.73
1605.4
1565.06
1523.04
1479.76
1435.7
1391.12
1346.64
1302.76
1259.85
1218.23
1178.31
1140.4
1104.67
1071.17
1040
1011.17
984.654
960.428
938.435
918.536
900.622
884.6
870.381
857.826
846.856
837.378
829.31
822.556
817.077
812.786
809.621
807.536
806.523
806.532
807.495
809.406
812.244
815.95
820.545
826.016
832.316
839.392
847.26
855.957
865.44
875.642
886.658
898.446
910.991
924.26
938.317
953.232
968.907
985.303
1002.43
489.76
477.187
463.131
453.225
444.727
437.246
430.87
425.32
420.561
416.468
413.043
410.057
407.46
405.214
403.287
401.587
400.112
398.901
397.965
397.249
396.793
396.589
396.614
396.886
397.421
398.195
399.187
400.396
401.828
403.473
405.316
407.37
409.636
412.096
414.76
417.634
420.703
423.964
427.421
431.091
434.964
439.033
443.305
447.777
452.407
457.232
462.242
467.416
472.74
478.238
483.893
489.69
495.616
501.721
507.942
514.31
520.767
527.439
534.272
541.263
548.373
263.671
260.792
259.521
259.791
260.861
262.47
264.709
267.376
270.48
273.836
277.468
281.248
285.13
289.062
293.005
296.934
300.827
304.681
308.485
312.23
315.912
319.519
323.053
326.512
329.896
333.202
336.428
339.579
342.652
345.653
348.59
351.468
354.294
357.078
359.827
362.545
365.243
367.923
370.587
373.242
375.892
378.543
381.189
383.832
386.481
389.146
391.831
394.532
397.257
400.002
402.766
405.55
408.338
411.179
414.001
416.88
419.756
422.73
425.697
428.71
431.754
198.531
200.049
202.907
206.666
210.94
215.579
220.512
225.652
230.938
236.275
241.629
246.936
252.169
257.29
262.277
267.114
271.79
276.3
280.638
284.803
288.789
292.591
296.208
299.641
302.893
305.969
308.874
311.612
314.187
316.612
318.896
321.053
323.097
325.037
326.887
328.659
330.364
332.009
333.603
335.155
336.676
338.175
339.66
341.137
342.613
344.093
345.58
347.072
348.576
350.089
351.602
353.136
354.677
356.237
357.784
359.361
360.964
362.582
364.197
365.808
367.429
177.137
180.846
185.667
191.18
197.096
203.245
209.512
215.807
222.053
228.181
234.148
239.917
245.469
250.79
255.873
260.704
265.287
269.622
273.711
277.562
281.172
284.537
287.659
290.541
293.195
295.629
297.852
299.871
301.689
303.323
304.786
306.095
307.269
308.319
309.258
310.102
310.865
311.555
312.182
312.756
313.287
313.79
314.273
314.745
315.21
315.675
316.143
316.613
317.084
317.563
318.039
318.517
319.004
319.494
319.985
320.475
320.983
321.487
321.978
322.462
322.939
170.966
175.865
181.769
188.298
195.16
202.162
209.155
216.029
222.697
229.092
235.176
240.921
246.328
251.399
256.148
260.558
264.64
268.411
271.878
275.067
277.978
280.601
282.951
285.024
286.85
288.441
289.807
290.961
291.899
292.64
293.205
293.61
293.883
294.035
294.072
294.02
293.896
293.699
293.445
293.142
292.798
292.432
292.055
291.674
291.289
290.909
290.534
290.177
289.824
289.473
289.129
288.786
288.446
288.11
287.775
287.463
287.164
286.859
286.546
286.237
285.919
171.537
177.153
183.72
190.873
198.298
205.789
213.156
220.273
227.05
233.391
239.293
244.711
249.686
254.223
258.384
262.11
265.442
268.416
271.03
273.354
275.383
277.089
278.517
279.637
280.513
281.16
281.585
281.818
281.824
281.637
281.284
280.772
280.154
279.427
278.58
277.665
276.707
275.683
274.618
273.515
272.378
271.234
270.094
268.964
267.831
266.717
265.62
264.545
263.485
262.437
261.399
260.373
259.363
258.34
257.334
256.36
255.41
254.48
253.542
252.591
251.659
175.432
181.472
188.44
195.958
203.689
211.407
218.92
226.08
232.751
238.823
244.323
249.182
253.509
257.292
260.683
263.511
265.894
267.889
269.445
270.735
271.731
272.369
272.772
272.808
272.63
272.226
271.627
270.879
269.885
268.731
267.436
265.981
264.466
262.845
261.099
259.326
257.526
255.661
253.803
251.919
250.013
248.111
246.265
244.428
242.591
240.82
239.06
237.364
235.678
234.024
232.389
230.783
229.192
227.58
226.002
224.497
223.015
221.589
220.139
218.677
217.292
180.95
187.162
194.332
201.971
209.891
217.643
225.137
232.323
238.696
244.435
249.335
253.565
257.066
259.962
262.432
264.162
265.493
266.311
266.785
266.994
266.701
266.153
265.277
264.22
262.977
261.328
259.68
257.826
255.641
253.498
251.136
248.782
246.473
243.853
241.082
238.53
235.723
232.906
230.235
227.398
224.573
221.693
219.252
216.67
214.113
211.817
209.313
207.094
204.695
202.475
200.165
198.086
195.989
193.811
191.744
189.869
187.85
186.228
184.31
182.388
180.734
1020.57
1039.8
1060.05
1081.47
1104.37
1128.51
1152.95
1178.21
1204.13
1230.92
1258.34
1286.6
1315.74
1345.75
1376.51
1408.17
1440.78
1474.29
1508.63
1543.95
1580.2
1617.41
1655.68
1695.03
1735.23
1776.41
1818.68
1862.08
1906.58
1952.2
1999.11
2047.25
2096.67
2147.49
2199.76
2253.44
2308.62
2365.42
2423.96
2484.17
2546.04
2609.81
2675.48
2742.92
2812.4
2883.85
2957.14
3032.23
3109.28
3188.36
3269.29
3351.85
3436.47
3522.81
3610.98
3700.8
3792.94
3887.8
3985.36
4085.57
4188.68
555.547
563.004
570.54
578.14
585.843
593.649
601.595
609.558
617.634
625.712
633.89
642.052
650.219
658.388
666.55
674.722
682.896
691.097
699.321
707.574
715.868
724.193
732.541
740.869
749.162
757.438
765.687
773.929
782.149
790.365
798.593
806.813
815.041
823.294
831.57
839.869
848.208
856.58
864.987
873.429
881.915
890.462
899.037
907.639
916.278
924.93
933.574
942.18
950.767
959.308
967.762
976.104
984.331
992.55
1000.53
1008.52
1016.45
1024.58
1032.68
1041
1049.75
434.865
438.001
441.189
444.363
447.525
450.636
453.709
456.773
459.848
462.884
465.922
468.925
471.924
474.876
477.797
480.686
483.544
486.372
489.168
491.931
494.657
497.355
500.02
502.657
505.26
507.826
510.349
512.83
515.269
517.67
520.025
522.337
524.609
526.836
529.029
531.182
533.293
535.359
537.377
539.344
541.261
543.129
544.949
546.705
548.4
550.019
551.54
552.948
554.24
555.408
556.414
557.286
557.977
558.494
558.755
558.845
558.767
558.55
558.225
557.887
557.652
369.044
370.668
372.269
373.862
375.46
377.002
378.487
379.96
381.39
382.77
384.111
385.43
386.718
387.962
389.184
390.369
391.521
392.638
393.715
394.75
395.745
396.698
397.614
398.494
399.339
400.144
400.91
401.634
402.315
402.954
403.552
404.103
404.607
405.071
405.5
405.889
406.235
406.535
406.782
406.978
407.126
407.232
407.297
407.325
407.311
407.251
407.118
406.906
406.606
406.226
405.733
405.124
404.403
403.539
402.494
401.262
399.877
398.33
396.683
395.002
393.357
323.407
323.841
324.251
324.658
325.095
325.54
325.971
326.381
326.781
327.149
327.507
327.851
328.17
328.47
328.745
328.992
329.235
329.447
329.63
329.78
329.902
329.997
330.069
330.123
330.155
330.163
330.145
330.097
330.024
329.927
329.801
329.638
329.441
329.213
328.965
328.692
328.389
328.048
327.661
327.233
326.769
326.271
325.752
325.221
324.682
324.133
323.535
322.909
322.22
321.488
320.681
319.786
318.818
317.746
316.542
315.17
313.647
311.952
310.176
308.341
306.505
285.609
285.294
284.983
284.649
284.321
283.992
283.68
283.375
283.057
282.735
282.402
282.073
281.737
281.385
281.022
280.655
280.289
279.899
279.483
279.043
278.584
278.109
277.628
277.147
276.656
276.154
275.639
275.107
274.573
274.036
273.493
272.923
272.335
271.723
271.112
270.491
269.848
269.184
268.478
267.736
266.966
266.168
265.36
264.562
263.787
263.045
262.274
261.514
260.722
259.945
259.119
258.222
257.296
256.282
255.191
253.918
252.525
250.959
249.337
247.616
245.89
250.743
249.837
248.935
248.031
247.133
246.258
245.397
244.562
243.726
242.879
242.049
241.236
240.42
239.607
238.782
237.965
237.166
236.354
235.518
234.651
233.765
232.88
231.994
231.131
230.27
229.403
228.535
227.649
226.784
225.941
225.142
224.321
223.51
222.679
221.88
221.08
220.246
219.406
218.533
217.629
216.699
215.727
214.75
213.794
212.872
212.043
211.176
210.383
209.571
208.865
208.14
207.324
206.525
205.648
204.752
203.623
202.444
201.058
199.693
198.186
196.698
215.92
214.59
213.263
211.965
210.684
209.445
208.224
207.067
205.923
204.738
203.587
202.478
201.375
200.265
199.115
198.009
196.958
195.9
194.832
193.668
192.481
191.326
190.155
189.017
187.911
186.8
185.702
184.525
183.378
182.286
181.337
180.358
179.459
178.537
177.721
176.912
175.997
175.05
174.113
173.191
172.218
171.16
170.1
169.056
168.031
167.186
166.23
165.435
164.604
164.049
163.5
162.793
162.159
161.446
160.787
159.786
158.835
157.627
156.589
155.343
154.185
178.947
177.336
175.667
174.251
172.767
171.548
170.17
169.008
167.841
166.621
165.451
164.404
163.297
162.182
160.84
159.543
158.429
157.389
156.463
155.278
153.872
152.673
151.382
150.09
148.822
147.594
146.564
145.227
143.772
142.4
141.387
140.239
139.336
138.385
137.832
137.281
136.44
135.396
134.451
133.675
132.875
131.805
130.716
129.7
128.628
127.877
126.744
125.962
124.99
124.706
124.401
123.779
123.363
122.852
122.51
121.57
120.835
119.713
119.071
118.107
117.381
4296.05
4407.74
4522.42
4639.83
4760.18
4882.1
5009.35
5154.99
5313.08
5459.51
5610.05
5763.33
5920.27
6081.54
6246.79
6415.55
6588.31
6765.17
6945.58
7129.01
7315.44
7504.61
7696.16
7890.2
8086.37
8283.77
8482.1
8681.08
8880.47
9079.13
9277.06
9473.51
9667.48
9858.32
10045.7
10228
10405
10572.2
10729.8
10865
10970.9
11049.4
11101
11124.7
11120.5
11087.5
11023.1
10924.4
10789.2
10615.1
10398.1
10133.1
9817.07
9444.71
9010.46
8508.78
7935.07
7284.74
6555.12
5467.24
4556.15
1059.13
1069.17
1079.92
1091.15
1102.01
1109.55
1117.13
1126.19
1136.45
1147.79
1159.11
1170.49
1182.12
1194.06
1206.33
1218.83
1231.56
1244.46
1257.47
1270.58
1283.75
1297.04
1310.43
1323.93
1337.55
1351.24
1365.07
1379.04
1393.2
1407.59
1422.24
1437.2
1452.56
1468.41
1484.8
1501.96
1520.08
1539.2
1559.49
1586.75
1622.72
1664.45
1708.4
1754.69
1803.91
1856.28
1911.71
1970.53
2033.48
2100.74
2172.47
2248.62
2329.84
2414.96
2503.21
2592.68
2681.76
2768.38
2846.58
2902.62
2952.12
557.561
557.694
557.977
558.486
557.727
554.875
552.782
551.47
550.858
550.722
550.553
550.325
550.055
549.791
549.534
549.248
548.899
548.464
547.937
547.304
546.578
545.752
544.824
543.797
542.678
541.471
540.189
538.842
537.454
536.022
534.572
533.122
531.679
530.282
528.948
527.713
526.609
525.682
524.98
524.784
525.366
527.52
533.628
542.416
553.913
568.412
586.19
607.854
633.982
665.355
702.877
747.444
800.768
862.95
936.106
1020.55
1118.36
1229.79
1356.08
1492.76
1634.56
391.773
390.309
388.88
387.503
384.829
381.276
378.404
376.062
374.195
372.655
371.164
369.655
368.118
366.589
365.038
363.439
361.756
359.998
358.166
356.271
354.307
352.266
350.144
347.949
345.682
343.357
340.983
338.565
336.112
333.631
331.126
328.604
326.074
323.544
321.021
318.521
316.058
313.637
311.274
309.002
306.874
304.976
303.555
303.386
304.327
306.437
309.903
315.01
322.122
331.68
344.443
361.098
382.824
410.641
446.393
491.65
548.228
617.702
701.17
797.626
903.407
304.677
302.958
301.235
299.483
296.741
293.639
291.018
288.801
286.937
285.344
283.806
282.286
280.771
279.287
277.771
276.212
274.552
272.827
271.045
269.222
267.348
265.396
263.38
261.309
259.185
257.024
254.835
252.625
250.392
248.142
245.878
243.603
241.319
239.033
236.752
234.484
232.236
230.016
227.83
225.689
223.606
221.606
219.738
218.122
217.1
216.538
216.531
217.205
218.74
221.328
225.301
231.084
239.23
250.456
265.77
286.555
314.256
350.534
396.967
454.058
520.706
244.097
242.432
240.767
239.104
236.711
234.21
232.015
230.161
228.573
227.229
225.881
224.575
223.29
222.079
220.835
219.547
218.129
216.665
215.154
213.622
212.049
210.383
208.671
206.927
205.143
203.351
201.543
199.737
197.912
196.079
194.231
192.379
190.517
188.657
186.8
184.956
183.131
181.33
179.555
177.815
176.118
174.475
172.904
171.436
170.151
169.184
168.478
168.072
168.058
168.548
169.681
171.668
174.782
179.369
185.973
195.27
208.166
225.815
249.49
280.138
318.324
195.01
193.498
192.009
190.632
188.666
186.738
184.967
183.537
182.292
181.31
180.192
179.128
178.08
177.179
176.219
175.235
174.062
172.894
171.674
170.449
169.193
167.805
166.416
165.041
163.632
162.251
160.858
159.49
158.092
156.694
155.268
153.847
152.414
150.993
149.572
148.174
146.79
145.433
144.096
142.795
141.53
140.32
139.164
138.079
137.082
136.282
135.625
135.125
134.827
134.788
135.084
135.82
137.118
139.174
142.226
146.629
152.855
161.502
173.332
189.174
209.774
152.636
151.309
150.048
149.025
147.458
146.039
144.632
143.623
142.723
142.162
141.23
140.374
139.503
138.898
138.169
137.465
136.468
135.579
134.602
133.622
132.636
131.452
130.359
129.387
128.351
127.382
126.369
125.434
124.415
123.409
122.332
121.295
120.237
119.228
118.205
117.223
116.237
115.284
114.348
113.462
112.608
111.82
111.1
110.43
109.819
109.295
108.931
108.635
108.452
108.414
108.573
108.982
109.724
110.881
112.582
114.993
118.342
122.948
129.207
137.612
148.694
116.014
114.846
113.861
113.17
111.949
110.931
109.777
109.164
108.559
108.488
107.619
106.918
106.109
105.808
105.201
104.77
103.838
103.235
102.388
101.517
100.749
99.6405
98.8505
98.4142
97.6922
97.0602
96.3107
95.801
95.0302
94.321
93.3972
92.6835
91.9171
91.2806
90.5751
89.9433
89.2129
88.5494
87.9329
87.3911
86.9115
86.4927
86.1813
85.919
85.6311
85.3836
85.1951
85.029
85.0094
84.9967
85.2483
85.6256
86.3326
87.2566
88.5719
90.2246
92.4653
95.3279
99.1328
104.087
110.461
4220.34
4138.75
4179.96
4202.61
4111.65
3989.42
3850.38
3706.73
3569
3441.48
3325.93
3224.1
3137.13
3065.2
3007.56
2962.98
2928.19
2899.88
2875.66
2854.33
2836.17
2822.2
2813.35
2810.46
2813.41
2821.59
2834.32
2850.94
2870.8
2893.12
2917.36
2942.8
2968.67
2994.09
3018.34
3040.45
3059.46
3074.42
3084.42
3088.26
3084.56
3072.12
3049.52
3015.27
2968.43
2908.35
2834.83
2748.64
2651.59
2546.8
2437.96
2329.76
2227.23
2134.62
2054.95
1989.07
1936.18
1893.51
1857.23
1823.51
1789.87
3026.38
3140.61
3302.81
3280.53
2982.54
2654.8
2334.72
2076.29
1860.02
1679.83
1530.52
1405.47
1301.97
1216.74
1147.89
1095.13
1054.97
1024.57
1001.16
982.426
967.075
954.615
945.216
938.91
936.332
937.013
939.997
944.706
950.767
957.768
965.293
973.03
980.702
987.929
994.431
999.984
1004.26
1006.96
1007.87
1006.9
1003.78
998.102
989.489
977.602
962.073
942.795
919.584
892.337
861.075
826.132
787.863
746.971
704.551
662.082
621.187
583.758
551.296
525.386
507.011
497.042
494.359
1782.71
1958.62
2202.84
2484.2
2617.71
2586.79
2355.38
2058.39
1781.7
1530.68
1326.69
1158.13
1019.47
907.83
818.955
750.5
699.622
661.656
632.749
610.275
592.509
578.59
568.189
561.089
557.053
555.502
555.766
557.365
559.885
562.945
566.252
569.574
572.699
575.438
577.615
579.059
579.632
579.188
577.61
574.834
570.743
565.169
557.906
548.719
537.479
524.155
508.704
491.126
471.522
450.038
426.897
402.59
377.799
353.573
330.745
310.604
293.856
281.331
272.91
268.182
265.834
1017.07
1146.25
1311.51
1530.19
1768.46
1990.77
2138.15
2129.1
1986.53
1732.94
1486.15
1265.31
1072.67
918.122
794.751
699.741
628.523
575.439
535.453
504.653
480.531
461.595
447.068
436.439
428.977
424.066
421.119
419.645
419.197
419.371
419.862
420.474
421.045
421.406
421.414
420.942
419.887
418.159
415.683
412.385
408.181
402.975
396.654
389.092
380.209
369.953
358.318
345.352
331.156
315.91
299.878
283.424
266.959
251.117
236.486
223.776
213.49
205.955
201.146
198.695
198.012
595.418
679.665
780.32
909.08
1070.69
1265.83
1482.08
1674.99
1798.46
1811
1704.59
1516.37
1288.66
1088.85
916.807
779.66
675.22
596.377
537.081
491.752
456.57
428.905
407.373
390.889
378.496
369.301
362.595
357.782
354.35
351.806
349.813
348.174
346.737
345.341
343.837
342.107
340.047
337.587
334.658
331.191
327.12
322.376
316.878
310.565
303.356
295.224
286.187
276.287
265.611
254.304
242.576
230.708
219.036
207.942
197.846
189.175
182.291
177.424
174.633
173.789
174.683
363.835
416.901
479.124
555.059
649.918
769.848
919.779
1095.36
1280.83
1446.39
1550.47
1564.12
1480.24
1325.93
1131.57
953.243
807.796
691.966
603.542
535.024
481.834
440.23
407.939
383.034
363.918
349.182
337.829
329.09
322.332
316.908
312.385
308.552
305.25
302.299
299.518
296.778
293.957
290.979
287.774
284.27
280.407
276.124
271.358
266.051
260.139
253.604
246.457
238.756
230.555
221.98
213.179
204.361
195.778
187.69
180.412
174.256
169.499
166.354
164.941
165.277
167.32
235.665
267.304
305.376
351.396
407.835
478.402
567.689
679.699
815.845
971.096
1129.79
1266.07
1349.16
1355.97
1283.53
1153.6
1000.17
851.093
729.518
628.412
548.319
485.478
437.393
400.699
372.558
350.585
333.304
319.715
309.022
300.287
292.929
286.692
281.43
276.889
272.845
269.138
265.608
262.164
258.73
255.212
251.553
247.68
243.527
239.035
234.156
228.859
223.175
217.118
210.768
204.184
197.502
190.856
184.422
178.424
173.085
168.668
165.404
163.501
163.108
164.312
167.141
163.027
181.137
203.647
231.357
265.475
307.719
360.649
427.337
511.211
614.638
736.739
870.845
1002.94
1110.6
1170.46
1168.25
1109.31
1012.61
895.168
766.139
654.646
562.665
493.107
440.841
400.908
369.518
344.477
324.718
309.203
296.449
285.698
276.603
269.086
262.741
257.273
252.488
248.18
244.205
240.504
236.925
233.417
229.868
226.231
222.391
218.339
214.031
209.491
204.728
199.79
194.722
189.63
184.596
179.762
175.28
171.37
168.233
166.076
165.102
165.46
167.275
170.6
118.749
129.187
142.288
158.816
179.386
205.019
236.94
277.02
327.405
390.61
468.29
561.396
667.406
779.315
883.05
962.439
1006.75
1011.24
980.94
898.429
784.236
664.8
572.727
503.856
449.293
406.148
370.617
343.008
321.447
303.544
288.598
275.867
265.671
257.06
249.875
243.7
238.459
233.738
229.691
225.892
222.493
219.12
215.953
212.583
209.232
205.643
202.078
198.261
194.496
190.544
186.715
182.93
179.295
176.005
173.141
170.983
169.611
169.336
170.188
172.397
175.926
1.45002
109.218
92.7697
2.083
3.08979
0.0826449
0.000749476
42.2061
0.00075749
0.0147141
385.324
3.84578
0.000749277
228.892
0.0642818
67.1118
0.000755076
41.2492
441.368
0.000753407
2.45077
232.229
128.322
0.000778539
0.000753143
0.304419
0.000753254
5.54227
0.000753317
0.000757413
22.8653
0.000754615
0.00998394
217.997
2.08247
455.146
412.856
14.6267
0.000746212
63.9757
67.2499
8.55869
0.000744211
45.7057
214.658
0.390363
0.000746147
0.00212281
1.01491
4.26887
252.996
196.766
0.000744081
0.000779868
0.0499697
0.00074791
0.000756988
8.73641
360.328
141.254
133.002
0.000800118
3.75132
0.0058006
90.4638
0.00101004
294.327
31.7484
0.00118526
0.000747674
1.87625
40.7273
56.2992
0.000743659
0.0660885
293.107
107.062
41.1141
0.000742932
3.10073
0.00122309
61.6367
0.024626
66.9813
0.000749413
9.40811
0.000756308
207.184
0.0117547
0.000907679
0.0500167
0.000742632
0.000786162
158.347
59.9616
0.000769992
0.974328
8.52413
0.00178319
105.59
0.000833626
56.5642
8.72203
0.000742226
0.000742634
0.000743318
2.05602
0.150343
0.00076461
81.3738
117.088
0.00519696
236.995
182.365
68.8671
226.514
227.157
0.00100676
0.0360645
0.000760272
0.000742898
220.009
0.00130312
162.38
234.346
14.6189
0.000744214
2.44357
2.60002
0.000744039
0.0408349
0.00610136
71.2492
0.000820833
236.468
0.000746726
0.000742462
227.56
188.842
0.000744007
4.15703
65.058
0.335235
0.913572
187.034
147.33
0.471489
193.378
0.00331046
181.009
6.49903
0.000756472
47.2863
65.6191
87.7849
0.000747448
0.000745869
0.150986
0.000743399
316.424
0.346049
0.00139514
0.000748897
0.000744228
0.000757764
24.4812
40.21
38.6044
0.000800872
213.472
248.319
328.51
278.874
0.010043
223.676
188.238
212.795
0.000744233
0.00117116
218.577
308.594
9.8627
25.0698
0.000744295
0.00076305
238.476
0.00705924
1.92572
0.000756607
0.000745153
0.213135
0.000799731
174.951
1.13786
0.000742836
0.190169
75.9702
78.267
0.00119179
369.25
0.000744985
0.000745285
167.936
11.8067
190.203
0.00121571
0.000756863
0.00353406
14.4648
451.379
12.0785
51.9862
9.33306
124.691
0.918756
42.9625
32.6712
12.8551
6.43656
211.274
0.000777281
0.0214676
0.000743961
0.000749977
224.63
0.0028696
0.00320869
0.000807181
0.00911326
45.1362
235.056
0.0153486
81.1681
2.80602
15.2843
0.000744643
0.232901
16.9465
2.51768
0.00109769
49.8639
18.1945
0.769817
1.05398
152.571
10.6345
4.60376
59.4082
0.00091626
0.000743603
0.000833822
0.00506704
211.734
0.000750167
0.000973888
0.000745339
2.59174
131.435
303.433
254.415
9.10652
5.9789
178.834
0.00119935
342.971
160.181
0.000743713
186.155
0.000749054
921.293
2.60658
177.667
0.00108895
0.000745798
15.3567
5.40356
0.000759002
0.000744254
0.000747818
0.000756112
1.01759
40.2637
18.6872
0.0115013
0.000759902
0.000743876
0.000742521
57.7746
3.13218
0.000887916
5.44496
0.0813331
0.0592045
0.00074287
1.0293
0.000759894
0.564699
44.817
243.963
3.24617
0.000759115
0.000959273
41.9638
0.0669582
91.9932
180.938
0.000794491
0.000743791
0.000744717
84.8169
0.000749941
112.292
0.000747265
6.40744
13.0581
0.0370084
208.174
746.85
0.000917846
260.459
63.0045
73.4675
142.928
12.7278
187.421
222.572
124.049
540.218
42.6255
56.3353
0.0863728
181.731
154.408
289.3
204.034
0.00101572
185.988
204.324
132.13
0.0120398
0.000786007
0.000743942
0.000763015
0.827503
1.22841
25.5221
0.0401948
0.000747667
78.0587
0.000744287
180.417
7.61182
101.626
89.455
6.92749
0.000915987
0.000832278
0.290925
221.603
0.00145692
9.58369
241.021
260.15
52.6673
129.885
79.4296
0.000758383
159.289
59.4199
83.4005
0.000745643
87.2021
66.266
0.000753756
198.443
0.000746635
255.871
232.922
197.355
40.4359
199.033
67.4626
0.000775017
68.854
0.000811958
298.982
54.8607
210.36
156.748
1.2874
0.435675
2.6801
0.000827512
555.682
4.11008
0.00231113
0.00159513
240.297
0.000811833
58.6118
0.000747305
0.000748794
0.00190468
41.5893
0.0387922
7.11828
0.000786422
39.4531
0.114269
101.648
537.202
13.7315
251.22
0.000815369
157.935
25.7885
0.000742857
52.9528
8.65948
0.000743506
0.000742811
474.386
0.00239546
56.2082
0.253808
206.139
0.0121906
0.899036
13.6925
171.408
11.8319
120.739
26.382
0.00100712
0.0313067
235.613
14.4139
189.472
247.195
84.7828
0.0182958
53.0652
52.4865
5.02658
70.7459
15.832
8.76349
0.000857686
53.8837
212.77
0.000910781
160.429
12.0109
15.9971
0.00528885
0.0185643
228.758
0.000906088
186.741
0.00087808
1.45801
0.000749342
9.15131
133.991
0.372591
0.000888457
0.000965483
221.72
188.691
0.00382604
3.88949
243.531
572.965
0.00133858
5.50205
191.724
241.369
183.737
553.862
209.337
234.246
31.4303
0.0520044
0.357106
171.575
60.1692
200.735
86.0616
0.0771372
218.426
230.421
0.000809986
80.5604
186.372
12.0985
0.0144782
153.313
43.0152
1.17875
59.4729
0.00153596
0.00074536
0.000751745
51.1106
100.546
411.949
0.000747418
0.000750796
0.00074287
199.506
0.0369197
0.000743721
0.0525667
156.456
244.652
0.00158586
0.00168149
0.000743021
0.000748675
0.000897199
39.2365
85.596
11.307
2.04422
150.01
261.191
0.00152604
87.699
213.626
205.059
35.706
252.321
0.000813306
0.0014562
0.000744335
405.277
0.183997
0.000743649
5.46154
0.0902326
166.358
0.00075857
169.68
2.93057
0.0225266
102.847
0.000743702
0.000743858
0.00078279
227.248
33.1542
58.2488
251.502
43.1894
233.609
0.000742491
0.00103131
0.354541
0.00207255
0.0090245
136.608
282.906
0.000744674
27.2831
338.925
83.575
228.654
0.00144932
231.844
0.000962945
0.00926097
222.452
0.000744769
78.8298
0.000758545
0.000754184
0.0228658
203.945
2.06767
242.796
64.5508
0.000764893
209.437
863.709
0.00153299
2.87657
2.55968
0.000750171
0.000746673
0.00209361
76.578
5.41315
0.000819008
133.932
237.237
108.509
0.000758174
395.873
0.00117478
12.6058
0.323794
0.0326682
576.137
249.407
112.793
87.2802
0.000768838
0.000742493
0.00143846
124.12
37.3859
2.31327
0.00219306
0.000746803
0.00074418
0.00124035
0.000743402
0.0011493
438.841
36.1753
0.00612658
185.605
78.455
0.000756697
227.682
0.00075103
0.684512
0.000762308
0.00929261
47.8486
0.00652421
0.000746223
1.45519
196.113
141.655
0.000751366
0.000744049
0.414352
0.000744644
0.0007456
83.8147
0.000783137
269.056
207.343
19.7481
66.9854
221.348
485.559
192.699
0.000743586
0.00242319
0.0121313
764.663
47.2656
90.1613
6.86042
2.89483
329.97
221.788
51.7273
0.0931519
29.6261
0.000748324
0.366991
188.666
22.4019
898.756
10.2995
3.77561
40.2358
0.298944
0.0170988
191.887
0.000744267
217.13
0.000763905
3.1201
165.84
193.591
0.823727
0.00179909
10.1828
0.000748116
0.000744226
0.0392504
0.0041269
190.511
0.00211062
205.76
0.000748072
0.00629459
0.000743691
42.8236
0.00169849
318.925
223.427
0.00338326
129.053
223.21
0.000746029
83.0583
233.8
0.000801639
162.774
0.243701
0.000866624
0.000746165
157.49
0.00074333
0.000830837
0.0306014
0.316015
256.731
147.089
0.000750936
0.000745753
3.98993
11.2133
0.00230041
0.738802
14.2475
0.0007447
0.000810202
0.000748543
85.2368
152.838
4.99026
192.491
0.00475146
185.903
0.00080549
0.00289118
0.0045124
0.0616901
0.000745505
213.603
0.000744424
0.00831613
0.000748412
0.00367042
0.00343657
0.000745384
0.488701
7.57604
211.679
0.417356
11.1851
215.896
204.742
0.000785358
251.919
174.816
17.8665
34.5097
0.000763736
718.237
26.853
0.000744025
243.134
409.54
0.000765571
0.000742581
90.9428
104.451
0.0458365
172.921
244.709
3.31391
252.489
127.111
93.1369
361.867
22.2288
15.0059
134.85
146.095
0.0034244
182.446
11.9257
942.812
0.00079585
2.36736
12.5743
128.865
72.42
0.00547
564.747
110.741
4.85555
0.0413286
3.20306
221.037
0.00100594
218.494
262.195
0.038138
126.662
3.59688
40.6719
94.6087
0.000746404
0.00160962
2.60032
7.94597
0.0165491
0.00074586
0.914053
1.51378
0.000990854
0.00075851
487.578
2.29276
17.0871
15.3259
0.00143257
0.000822123
0.0448385
354.976
0.000768739
7.29663
189.118
1.19876
130.775
0.000865857
0.376624
0.0007442
0.000751209
43.3002
0.000742507
0.141837
289.813
111.48
0.286342
82.44
6.78356
2.5031
0.000912681
11.2998
175.933
0.000744374
0.00074529
68.6611
0.00697027
0.000757786
28.8742
0.375641
131.593
210.834
38.9292
0.0691889
13.1225
738.16
70.849
237.293
0.000752034
241.316
0.000770011
87.5944
0.000838227
0.000750966
318.789
0.00246968
792.781
0.0120463
0.0116445
52.5214
9.37108
1.22877
0.000788272
83.8916
0.000785101
0.00074392
184.983
73.5039
26.9918
198.408
0.00075906
0.000742199
11.3919
68.4123
0.000742662
118.209
43.4376
0.000746521
97.9949
0.000744474
2.66606
7.0557
6.15269
0.365292
65.5533
29.5882
0.000744314
140.659
201.154
0.000743141
0.0145024
216.236
0.000744924
136.087
237.217
712.331
0.000743394
0.000743352
222.403
0.0638656
0.000815938
41.0424
72.7078
236.988
0.000742272
0.000792987
0.00724452
0.0163411
0.000744651
0.00233382
70.6915
257.398
0.000746119
3.63227
0.000745047
9.44748
0.0011186
0.000782133
10.875
0.00074388
0.255539
0.0007433
15.0108
5.3007
5.70497
105.434
765.038
225.229
1.62701
24.6254
0.000758272
2.16157
152.938
554.146
0.0495284
0.000772689
57.7476
0.000744183
0.280008
0.000743832
258.723
12.8915
2.73764
88.6731
65.6614
4.52399
37.8183
9.19564
130.233
89.9371
0.000751057
0.000785125
0.0011475
0.000762866
0.00366502
38.0305
0.000950773
118.631
0.000956801
0.796265
0.863948
254.632
0.00153532
14.3688
0.0145463
30.758
12.171
261.215
0.000836513
0.000988392
0.0101443
79.7999
35.2039
40.4436
0.476162
0.742805
4.90454
0.0921657
9.92789
0.00893985
254.307
0.000745473
931.331
0.526802
46.0428
0.000751772
44.8335
16.6864
0.000743469
72.3828
10.1893
0.0178778
0.00074763
0.000743567
236.206
45.2079
20.6525
0.000742506
0.00280023
361.673
106.014
0.113678
0.00194064
0.000743124
59.6959
55.564
253.055
14.1094
0.000743233
241.771
251.046
0.000747648
0.000747554
23.8597
0.000744637
0.00220329
0.0497823
56.1979
0.0011297
236.008
194.529
0.000766198
0.000821551
0.000743145
0.00074823
31.0929
873.384
177.32
0.00924102
11.126
320.246
0.170418
16.8633
0.000863812
264.428
0.527514
206.205
7.79705
71.1251
225.988
0.000746923
0.000758165
80.4391
168.4
244.776
2.0259
192.2
0.777026
55.8848
0.00256061
0.000919513
218.232
64.847
0.0364197
0.69695
0.000748137
0.0261761
8.26718
0.0365076
17.3856
0.015323
384.037
205.628
1.8019
201.359
82.011
273.86
5.79008
229.713
692.797
4.47296
28.1669
0.000745979
43.5204
32.68
0.000745093
0.000745067
0.385372
0.000744519
0.000800009
274.886
568.716
0.00074844
352.435
0.000743461
0.000744028
0.000742777
0.00077984
0.00146937
197.188
13.1733
136.843
0.000749528
0.000745354
2.16649
0.000771122
0.0364004
0.000762417
0.000749981
238.032
0.000844538
0.00163085
201.468
0.00269876
0.000746856
226.365
0.000744325
0.000750886
0.000808414
0.00076985
0.163618
0.00137649
0.00504915
0.000746053
0.000760179
165.565
239.222
13.0112
0.0362477
215.579
5.27618
0.00146476
196.86
843.692
135.071
828.59
0.000746216
49.1282
67.1353
0.0952923
217.721
230.268
0.301582
200.984
0.000743716
225.056
0.375027
6.77267
0.000756552
101.672
0.000777489
231.477
12.6295
0.000746185
0.546627
0.00128
0.00603357
0.000748735
2.13546
0.000791114
0.000758874
225.122
0.00074268
0.064373
133.28
124.181
0.000841816
0.000990739
12.1503
138.596
0.0007436
0.000749133
0.143355
28.7424
88.3034
0.00200487
5.82466
0.00074533
0.000764866
0.000742798
0.00703687
21.0412
0.00548811
219.494
192.929
138.09
78.5435
0.000768345
181.19
31.0177
0.000743731
0.000754278
0.000752036
0.000815881
0.000744627
241.441
0.00074613
0.000744251
244.179
0.301354
0.00134233
0.0213499
196.138
9.60944
0.011021
0.000779731
93.5632
0.000762337
1.32449
0.000767265
0.000776442
74.9568
73.1075
0.00128546
0.000884497
6.86631
0.000745
248.206
0.000765168
61.9046
0.0529195
9.35043
0.000797553
2.82037
0.000778149
34.9836
0.000760132
0.000776944
0.00197292
18.2156
0.0677818
168.082
0.000744021
0.00138393
0.000966936
137.032
69.7508
223.858
0.00216904
0.00479626
1.14147
0.000748895
32.2921
36.2488
0.0027519
236.187
104.533
42.444
0.00120635
0.418268
174.352
109.167
212.93
0.0102649
216.435
1.06315
53.4264
0.0317398
0.73727
12.0422
0.000761814
206.492
0.000824503
0.00265763
0.000749864
0.0184471
0.000790252
9.54858
0.00075061
77.9896
0.099444
0.000751784
0.00401987