/*--------------------------------*- C++ -*----------------------------------*\
| =========                 |                                                 |
| \\      /  F ield         | OpenFOAM: The Open Source CFD Toolbox           |
|  \\    /   O peration     | Version:  2.3.1                                 |
|   \\  /    A nd           | Web:      www.OpenFOAM.org                      |
|    \\/     M anipulation  |                                                 |
\*---------------------------------------------------------------------------*/
FoamFile
{
    version     2.0;
    format      ascii;
    class       volScalarField;
    location    "0.07";
    object      k;
}
// * * * * * * * * * * * * * * * * * * * * * * * * * * * * * * * * * * * * * //

dimensions      [0 2 -2 0 0 0 0];

internalField   nonuniform List<scalar> 
9648
(
2.1847
2.20151
2.17659
2.14946
2.12064
2.08987
2.0571
2.02244
1.98607
1.94827
1.90935
1.8697
1.82971
1.78979
1.75033
1.71172
1.67428
1.6383
1.60399
1.57153
1.54102
1.51254
1.48614
1.4618
1.43949
1.41916
1.40075
1.38419
1.36939
1.35626
1.34474
1.33473
1.32619
1.31903
1.31319
1.30863
1.30528
1.3031
1.30205
1.30209
1.30318
1.3053
1.3084
1.31245
1.31745
1.32333
1.33008
1.33769
1.34613
1.35536
1.36538
1.37619
1.38776
1.40006
1.41312
1.4269
1.44141
1.4566
1.47249
1.48914
1.50654
1.75767
1.74303
1.72217
1.70053
1.67974
1.66252
1.64979
1.64199
1.63914
1.6411
1.64751
1.658
1.67211
1.68937
1.70938
1.73178
1.75628
1.78261
1.81054
1.83988
1.87045
1.90209
1.93468
1.96806
2.00211
2.03673
2.07183
2.10732
2.1431
2.17909
2.2153
2.25164
2.2881
2.32469
2.36137
2.39814
2.43503
2.47207
2.50924
2.5465
2.5839
2.62153
2.65936
2.69737
2.73565
2.77393
2.81226
2.85072
2.88935
2.92799
2.96662
3.00529
3.04402
3.08254
3.12107
3.15946
3.19793
3.23598
3.2739
3.31173
3.34952
1.99016
1.96932
1.95935
1.95521
1.95619
1.96256
1.9739
1.99026
2.01122
2.03679
2.06624
2.09933
2.13555
2.17443
2.21555
2.25851
2.30305
2.34887
2.39572
2.44341
2.49173
2.54052
2.58958
2.63877
2.68793
2.73694
2.78571
2.83408
2.88199
2.92936
2.97612
3.02228
3.06785
3.11277
3.15706
3.2008
3.24396
3.28661
3.32875
3.3704
3.4116
3.45235
3.49271
3.53268
3.57229
3.61157
3.65053
3.68926
3.7277
3.76587
3.80375
3.84138
3.8789
3.91583
3.95288
3.98931
4.02567
4.06116
4.09677
4.13217
4.16752
2.29926
2.27169
2.2651
2.271
2.28538
2.30626
2.33239
2.36297
2.39744
2.43555
2.47668
2.52049
2.56644
2.61426
2.66351
2.71389
2.76517
2.81714
2.86961
2.92243
2.97544
3.02846
3.08134
3.13395
3.18616
3.23783
3.28889
3.33919
3.38865
3.43719
3.48484
3.53158
3.5774
3.62236
3.66645
3.70975
3.75231
3.79416
3.83537
3.876
3.91612
3.95579
3.99506
4.03401
4.07267
4.11108
4.14924
4.18719
4.2249
4.26237
4.2997
4.33667
4.37345
4.40991
4.44641
4.4826
4.5185
4.55405
4.58929
4.62417
4.65852
2.6474
2.61187
2.60491
2.61658
2.6403
2.67219
2.7097
2.75112
2.79563
2.84259
2.89145
2.94178
2.9933
3.04578
3.09887
3.15232
3.20598
3.25977
3.31358
3.36737
3.42099
3.4743
3.52716
3.57944
3.63108
3.68198
3.73199
3.78102
3.82893
3.8757
3.9213
3.96576
4.00914
4.05143
4.09267
4.13296
4.17236
4.2109
4.24865
4.28569
4.32211
4.358
4.39346
4.42854
4.46329
4.49775
4.53194
4.56587
4.59959
4.63299
4.66618
4.6991
4.73166
4.76389
4.79591
4.82776
4.85922
4.89033
4.92102
4.95118
4.98079
3.01905
2.97079
2.95839
2.97116
3.00028
3.03973
3.08549
3.13502
3.18664
3.23949
3.29291
3.34645
3.40004
3.45348
3.50673
3.55955
3.61174
3.66353
3.71479
3.76571
3.81618
3.86602
3.9152
3.96353
4.01107
4.05774
4.10343
4.14802
4.19128
4.23321
4.27384
4.31315
4.35132
4.3883
4.42409
4.45885
4.49271
4.52562
4.55768
4.58895
4.61952
4.64954
4.67914
4.70838
4.73726
4.76589
4.79432
4.8224
4.85028
4.87788
4.90519
4.93223
4.95894
4.98523
5.01129
5.0371
5.06265
5.08785
5.11253
5.13661
5.1603
3.41479
3.34875
3.32577
3.33465
3.36492
3.40857
3.45974
3.51465
3.57099
3.62703
3.68235
3.73618
3.7887
3.83983
3.89007
3.93871
3.98597
4.03219
4.07726
4.12173
4.16558
4.20841
4.25056
4.29145
4.33156
4.37082
4.40908
4.4464
4.48215
4.51646
4.54943
4.58093
4.61138
4.64066
4.66851
4.69539
4.72155
4.74666
4.77096
4.79446
4.81715
4.83933
4.86118
4.88275
4.90384
4.92475
4.94553
4.96607
4.98644
5.00649
5.02628
5.04581
5.06504
5.08372
5.10206
5.1204
5.13861
5.15647
5.17366
5.19018
5.20637
3.83675
3.74748
3.70802
3.7076
3.73444
3.77821
3.83186
3.89002
3.94876
4.00593
4.06076
4.1123
4.161
4.20652
4.25053
4.29149
4.33037
4.36771
4.40272
4.43695
4.47034
4.50232
4.53401
4.56377
4.59279
4.6209
4.64827
4.67517
4.70015
4.72386
4.74631
4.76702
4.78703
4.80582
4.82294
4.83936
4.85514
4.86976
4.88393
4.89729
4.90977
4.92164
4.93354
4.94518
4.95627
4.9676
4.97862
4.98975
5.00062
5.01134
5.02178
5.0321
5.04228
5.05166
5.06072
5.07008
5.07927
5.08878
5.09728
5.10479
5.11251
4.28803
4.1691
4.10656
4.08975
4.10928
4.14808
4.20086
4.26143
4.3196
4.37707
4.42883
4.47761
4.52047
4.55772
4.59174
4.62087
4.64804
4.67321
4.69671
4.71764
4.73511
4.75198
4.768
4.78437
4.79888
4.81064
4.82347
4.83603
4.84586
4.85604
4.8644
4.87185
4.8789
4.88353
4.88635
4.89018
4.89115
4.89189
4.89328
4.89258
4.89121
4.88816
4.88808
4.88656
4.8854
4.88572
4.88368
4.88335
4.88135
4.87968
4.87737
4.87559
4.87432
4.87304
4.87187
4.8705
4.86765
4.86918
4.8677
4.86483
4.86345
1.5247
1.54366
1.56363
1.58474
1.60716
1.63048
1.6539
1.67799
1.70255
1.72772
1.75323
1.77942
1.80621
1.83352
1.86131
1.88978
1.91887
1.94847
1.97855
2.00929
2.04059
2.07246
2.10503
2.13824
2.17185
2.20604
2.24088
2.27639
2.31247
2.34919
2.38663
2.42474
2.46353
2.50312
2.54349
2.58462
2.6266
2.66949
2.71327
2.7579
2.80345
2.85
2.89753
2.94601
2.99551
3.04588
3.09711
3.14929
3.20241
3.25633
3.31103
3.36653
3.42284
3.47976
3.53746
3.5959
3.65531
3.71565
3.77725
3.84029
3.90494
3.38718
3.42363
3.45967
3.49527
3.53028
3.56465
3.59799
3.63102
3.66322
3.69531
3.72655
3.75725
3.78722
3.81646
3.84492
3.87255
3.89945
3.92559
3.95098
3.97564
3.99964
4.02301
4.04562
4.06735
4.08811
4.10795
4.12689
4.14485
4.16189
4.17799
4.19313
4.20736
4.22071
4.23315
4.24471
4.25544
4.2653
4.27436
4.28258
4.28999
4.29663
4.30251
4.3077
4.31211
4.31572
4.31841
4.32003
4.32059
4.31994
4.31804
4.31471
4.30979
4.30327
4.29461
4.28425
4.27161
4.25726
4.24095
4.22391
4.20641
4.1891
4.20236
4.23698
4.27092
4.3043
4.3368
4.36858
4.3995
4.42969
4.45917
4.48838
4.51695
4.54494
4.57211
4.59863
4.62438
4.64936
4.67359
4.69704
4.7197
4.74153
4.7626
4.78289
4.8024
4.82118
4.83918
4.85633
4.87263
4.88805
4.90259
4.9162
4.92892
4.9407
4.95155
4.96152
4.97059
4.97877
4.98602
4.99236
4.99779
5.00232
5.00603
5.00895
5.01113
5.01257
5.01322
5.01297
5.01161
5.00907
5.00521
4.99996
4.99314
4.98442
4.97374
4.96074
4.94537
4.92718
4.90634
4.88314
4.85837
4.8325
4.80624
4.69257
4.72613
4.75923
4.79163
4.82329
4.8543
4.8845
4.9139
4.94267
4.97075
4.99802
5.0245
5.05024
5.07528
5.0995
5.12295
5.14558
5.16736
5.18824
5.20822
5.2273
5.2455
5.26285
5.27936
5.29504
5.30983
5.32371
5.33666
5.34872
5.35984
5.37001
5.37917
5.38735
5.39457
5.40089
5.40628
5.4107
5.41411
5.4165
5.41796
5.41856
5.41839
5.41758
5.4162
5.41426
5.41167
5.40815
5.40363
5.39798
5.39116
5.38288
5.37288
5.36105
5.34701
5.3305
5.311
5.28864
5.2636
5.23673
5.20843
5.17965
5.0098
5.03824
5.06598
5.09309
5.11973
5.14608
5.17201
5.19739
5.22209
5.24614
5.26952
5.29224
5.31428
5.3356
5.35617
5.37604
5.39511
5.41332
5.43062
5.44697
5.46244
5.47706
5.49088
5.50395
5.51622
5.52764
5.53821
5.5479
5.55679
5.56489
5.57213
5.57838
5.58367
5.58803
5.59158
5.59423
5.5959
5.59656
5.59612
5.59468
5.59237
5.58928
5.58563
5.58165
5.57741
5.57292
5.56771
5.56183
5.55509
5.54762
5.53891
5.52865
5.51688
5.50307
5.48691
5.46753
5.44526
5.41993
5.39265
5.36365
5.33404
5.18347
5.20611
5.22812
5.24949
5.27022
5.29055
5.31059
5.33025
5.34935
5.36783
5.38577
5.40318
5.41997
5.43602
5.45137
5.4661
5.48017
5.4934
5.50565
5.51687
5.52716
5.53662
5.54536
5.55347
5.56083
5.56739
5.57315
5.57806
5.58237
5.58612
5.58932
5.59159
5.59305
5.59362
5.59361
5.59277
5.59089
5.58805
5.58406
5.579
5.57305
5.56618
5.55879
5.55128
5.54387
5.53683
5.52922
5.52154
5.5133
5.50517
5.49608
5.48549
5.47398
5.46064
5.44542
5.42658
5.40503
5.37992
5.35318
5.32427
5.29466
5.22216
5.23744
5.2521
5.26605
5.2795
5.2927
5.30572
5.31862
5.33106
5.3428
5.35419
5.36525
5.37578
5.38558
5.39455
5.40314
5.41136
5.41881
5.42527
5.43039
5.4345
5.43787
5.44045
5.44261
5.44412
5.44481
5.44478
5.44365
5.44214
5.44041
5.43887
5.43643
5.43366
5.43003
5.42643
5.42204
5.41623
5.40948
5.4016
5.3927
5.38283
5.37169
5.35988
5.34809
5.3366
5.32653
5.31556
5.30553
5.29513
5.2865
5.27731
5.26623
5.25507
5.24228
5.22854
5.2101
5.18982
5.16518
5.14
5.11184
5.08338
5.1198
5.12676
5.13309
5.13886
5.14438
5.14997
5.15548
5.16143
5.16721
5.17199
5.17661
5.1813
5.18572
5.1893
5.19128
5.19314
5.19543
5.1973
5.19853
5.19738
5.19484
5.19212
5.18828
5.18396
5.1793
5.17387
5.16807
5.15994
5.15123
5.14268
5.13613
5.12825
5.12142
5.11365
5.10761
5.10111
5.09165
5.08044
5.06865
5.05664
5.04333
5.02806
5.0118
4.99537
4.97921
4.96621
4.95075
4.93793
4.92429
4.91576
4.90731
4.89549
4.88482
4.87275
4.86126
4.84281
4.82422
4.79999
4.7777
4.75122
4.72568
4.86089
4.85856
4.85542
4.85308
4.8501
4.84979
4.84857
4.84819
4.84827
4.84867
4.84889
4.84884
4.84955
4.85017
4.84555
4.83991
4.83596
4.83342
4.83377
4.82923
4.8193
4.81278
4.8044
4.79408
4.78272
4.77128
4.76343
4.74968
4.73198
4.71474
4.70359
4.68852
4.67769
4.66514
4.6606
4.65617
4.64531
4.6287
4.61288
4.59947
4.58535
4.56707
4.54638
4.52619
4.50566
4.49116
4.46928
4.45325
4.43382
4.4275
4.42119
4.40795
4.39827
4.38794
4.38016
4.36089
4.34405
4.31925
4.30167
4.27806
4.25787
3.9713
4.03935
4.10894
4.17991
4.25212
4.32431
4.39889
4.48329
4.57485
4.65845
4.7435
4.82955
4.91683
5.00553
5.09564
5.18703
5.27978
5.37371
5.46862
5.5644
5.66089
5.75795
5.85553
5.95351
6.05162
6.14959
6.24733
6.34465
6.44134
6.53701
6.6316
6.72478
6.81611
6.90543
6.99243
7.07664
7.15798
7.23445
7.30594
7.36681
7.41437
7.44949
7.47235
7.48289
7.48085
7.46558
7.4362
7.39149
7.33012
7.25047
7.15058
7.02807
6.8803
6.70409
6.49579
6.25116
5.96526
5.63214
5.24685
4.63603
4.11839
4.17217
4.15642
4.14159
4.12813
4.11524
4.09296
4.06965
4.04522
4.02015
3.99774
3.97531
3.95314
3.93139
3.90998
3.8886
3.86699
3.84473
3.82166
3.79771
3.77298
3.74753
3.72132
3.69439
3.66683
3.63866
3.60998
3.58083
3.55138
3.5217
3.49189
3.46208
3.4324
3.40295
3.37389
3.34542
3.31775
3.29133
3.26641
3.24315
3.22331
3.20691
3.19282
3.18059
3.17046
3.16295
3.15852
3.15763
3.16106
3.16982
3.18477
3.20688
3.23725
3.27727
3.32773
3.38961
3.46365
3.55068
3.65196
3.76162
3.88369
4.05963
4.78018
4.75509
4.73052
4.70712
4.67723
4.63901
4.60382
4.57066
4.53938
4.50946
4.47895
4.44777
4.41626
4.38456
4.35237
4.31934
4.28503
4.24936
4.21234
4.1741
4.13466
4.09395
4.05199
4.00883
3.96451
3.91912
3.87275
3.82547
3.77732
3.72838
3.67864
3.62815
3.57694
3.52501
3.47242
3.41922
3.36547
3.31127
3.25668
3.20183
3.14682
3.09149
3.03559
2.98016
2.92538
2.87139
2.81847
2.7671
2.71793
2.67186
2.63008
2.59412
2.56614
2.54834
2.54426
2.55752
2.59344
2.65745
2.75469
2.88886
3.07184
5.15086
5.12321
5.09583
5.06895
5.03248
4.99122
4.95415
4.91996
4.88826
4.85811
4.82745
4.79613
4.76434
4.73232
4.69957
4.66567
4.63013
4.59311
4.55472
4.51515
4.47441
4.43229
4.38886
4.34423
4.29842
4.2516
4.20384
4.15523
4.10576
4.05545
4.00428
3.95228
3.89941
3.84569
3.79114
3.7358
3.67971
3.62286
3.56528
3.50698
3.44797
3.38823
3.32758
3.2652
3.20176
3.13742
3.07218
3.00609
2.93927
2.87202
2.80467
2.73795
2.6728
2.61067
2.55344
2.50376
2.4653
2.44273
2.44148
2.46725
2.52886
5.30391
5.27505
5.2464
5.21791
5.17989
5.13919
5.10249
5.06906
5.03821
5.00921
4.97958
4.94947
4.91895
4.8884
4.85695
4.82408
4.78908
4.75257
4.71472
4.67583
4.63582
4.59424
4.55139
4.50745
4.46242
4.41657
4.36995
4.32264
4.27453
4.22561
4.17584
4.12523
4.07375
4.02144
3.96833
3.91449
3.85996
3.80477
3.74893
3.69248
3.63542
3.57778
3.51956
3.46063
3.40021
3.33857
3.27567
3.21148
3.14594
3.07916
3.01112
2.94192
2.8718
2.80117
2.73067
2.66107
2.59387
2.53105
2.47518
2.43
2.40196
5.26351
5.2341
5.20508
5.17673
5.13975
5.10169
5.06672
5.03548
5.00673
4.98021
4.95226
4.92397
4.89533
4.86724
4.83795
4.8071
4.77345
4.73853
4.70235
4.66542
4.62745
4.58757
4.54668
4.50508
4.46257
4.41964
4.37612
4.33218
4.2874
4.24185
4.19536
4.14808
4.09991
4.05102
4.00138
3.95115
3.90037
3.84909
3.79731
3.74512
3.69252
3.6396
3.5864
3.53285
3.47868
3.42335
3.36673
3.30884
3.24965
3.18919
3.12748
3.06453
3.00031
2.93493
2.86836
2.80078
2.73236
2.66328
2.59403
2.52584
2.46152
5.05122
5.02179
4.99318
4.96685
4.93212
4.89796
4.86558
4.83797
4.81246
4.79001
4.76391
4.73767
4.71094
4.68604
4.65932
4.63122
4.59908
4.56654
4.53275
4.49863
4.46363
4.42598
4.3882
4.35065
4.31228
4.27414
4.23542
4.19669
4.15674
4.11604
4.07409
4.03155
3.98809
3.94422
3.89964
3.85474
3.80938
3.7638
3.71787
3.67186
3.62568
3.57957
3.53348
3.48738
3.44106
3.39436
3.34641
3.29713
3.24663
3.195
3.14234
3.08871
3.03416
2.97866
2.92215
2.86452
2.80552
2.74491
2.68225
2.61728
2.55044
4.69273
4.66355
4.63611
4.61331
4.58142
4.55198
4.52253
4.49968
4.47832
4.46178
4.43709
4.41261
4.3872
4.36605
4.34161
4.31664
4.28543
4.2559
4.22467
4.19351
4.16193
4.12631
4.09262
4.06134
4.02865
3.9969
3.96398
3.932
3.89747
3.8623
3.825
3.78798
3.74992
3.71233
3.67381
3.63551
3.59653
3.55785
3.51901
3.48078
3.44255
3.40501
3.36802
3.33112
3.29414
3.25694
3.21909
3.17959
3.139
3.09746
3.05538
3.01282
2.96997
2.92674
2.8831
2.83882
2.79369
2.74727
2.69903
2.64816
2.59416
4.22525
4.19576
4.17097
4.15207
4.12359
4.09862
4.07157
4.05428
4.03764
4.02933
4.00447
3.9809
3.95526
3.93865
3.91521
3.89381
3.86234
3.8368
3.8073
3.77803
3.75
3.71517
3.68709
3.66635
3.64005
3.61475
3.5872
3.56321
3.53289
3.50249
3.46744
3.43652
3.40376
3.37347
3.34112
3.30991
3.27631
3.24466
3.21357
3.18427
3.15521
3.12742
3.10102
3.07474
3.04717
3.01899
2.98945
2.95782
2.92682
2.89467
2.86441
2.83407
2.80508
2.77602
2.74763
2.71874
2.68999
2.66066
2.63078
2.59848
2.56351
3.91992
3.87262
3.89924
3.91078
3.85306
3.77568
3.68691
3.59452
3.50505
3.42121
3.34431
3.27603
3.21722
3.16814
3.12863
3.09811
3.07422
3.05462
3.03777
3.02295
3.01032
3.00062
2.99458
2.9927
2.99486
3.00071
3.00978
3.02155
3.03551
3.0512
3.06814
3.08582
3.10371
3.12125
3.13785
3.15292
3.16585
3.17598
3.18259
3.1849
3.18206
3.17312
3.15711
3.13301
3.10001
3.05745
3.00519
2.94354
2.87356
2.79693
2.71638
2.63533
2.55751
2.48641
2.42458
2.37311
2.33129
2.2971
2.26768
2.24023
2.21252
4.321
4.72418
5.38625
5.91752
5.92675
5.81168
5.60815
5.37948
5.14965
4.92718
4.7149
4.5175
4.33819
4.17806
4.03762
3.91703
3.81916
3.74107
3.67558
3.61699
3.56353
3.51655
3.47884
3.45358
3.44103
3.44198
3.45608
3.48143
3.51597
3.55783
3.60532
3.6567
3.71026
3.76432
3.81728
3.86762
3.91397
3.95501
3.98936
4.01572
4.03289
4.03944
4.03358
4.01339
3.97697
3.92234
3.84792
3.75237
3.63456
3.49381
3.33077
3.14772
2.94902
2.74107
2.53406
2.33896
2.16647
2.02382
1.91455
1.83712
1.78547
3.32171
3.68922
4.28285
5.09978
5.80254
6.32225
6.5765
6.47938
6.28257
6.02908
5.76066
5.49254
5.23526
4.99807
4.78753
4.60878
4.46185
4.34669
4.25429
4.17608
4.10771
4.04904
4.00282
3.97105
3.95469
3.9552
3.97209
4.00319
4.04601
4.09804
4.15705
4.221
4.28782
4.35536
4.42166
4.48491
4.54336
4.5954
4.63933
4.67356
4.69659
4.70678
4.70236
4.68131
4.64126
4.58016
4.49619
4.38772
4.2535
4.09316
3.90762
3.69903
3.47142
3.23107
2.98726
2.75118
2.53544
2.35103
2.20545
2.09915
2.02695
2.64043
2.83037
3.15612
3.6831
4.37588
5.18575
6.00963
6.57558
6.85822
6.87497
6.68516
6.4211
6.11867
5.81811
5.53889
5.29764
5.09986
4.94157
4.81615
4.7152
4.63062
4.55953
4.50309
4.46193
4.43814
4.4327
4.445
4.47337
4.51534
4.56803
4.629
4.69612
4.76718
4.83989
4.91197
4.98137
5.04613
5.10446
5.15453
5.19451
5.22261
5.23699
5.23574
5.2169
5.17825
5.11767
5.03325
4.92351
4.78715
4.62385
4.43391
4.21914
3.98336
3.73206
3.47314
3.21648
2.97398
2.75827
2.57978
2.44361
2.34872
2.40151
2.4454
2.56229
2.79596
3.18073
3.74561
4.49519
5.33068
6.12671
6.75115
7.06882
7.11828
6.94764
6.66408
6.34497
6.04097
5.78021
5.56836
5.39988
5.26531
5.15681
5.06705
4.99368
4.93874
4.90342
4.88761
4.89062
4.91103
4.9466
4.99418
5.05119
5.11569
5.18566
5.25864
5.33222
5.40412
5.47217
5.53442
5.5889
5.63362
5.66663
5.68597
5.68949
5.6752
5.64111
5.58498
5.5051
5.39954
5.2676
5.1084
4.92243
4.71091
4.47666
4.22449
3.96099
3.69476
3.4365
3.19852
2.99295
2.82907
2.7111
2.40695
2.37169
2.37083
2.42805
2.57286
2.84071
3.26967
3.87322
4.62966
5.46973
6.25322
6.85531
7.18873
7.23733
7.06935
6.79019
6.50086
6.24053
6.02402
5.8471
5.70361
5.58508
5.4894
5.4161
5.36499
5.33451
5.32372
5.33156
5.35622
5.39411
5.44253
5.49995
5.56476
5.63457
5.7067
5.77872
5.84823
5.91311
5.97135
6.02074
6.05923
6.08458
6.09465
6.08702
6.05992
6.01123
5.93889
5.84167
5.71797
5.56762
5.39027
5.18694
4.95965
4.7119
4.44968
4.18016
3.91268
3.65888
3.43148
3.24249
3.10053
2.48382
2.42176
2.37171
2.34579
2.36137
2.44234
2.61964
2.92589
3.38811
4.0148
4.77289
5.58359
6.32978
6.88579
7.18585
7.22951
7.10273
6.89459
6.6718
6.46024
6.27823
6.12386
6.00031
5.90471
5.83489
5.78628
5.7575
5.74844
5.75829
5.78243
5.81802
5.8641
5.92016
5.98361
6.05168
6.12188
6.19134
6.25794
6.31963
6.37397
6.4187
6.45139
6.46949
6.47059
6.45261
6.41347
6.35184
6.26526
6.15369
6.01513
5.85009
5.6586
5.4414
5.20218
4.94505
4.67674
4.40518
4.14097
3.89622
3.68465
3.51761
2.53705
2.47795
2.41979
2.368
2.33133
2.32298
2.36186
2.47247
2.6838
3.02449
3.5128
4.14453
4.8818
5.63977
6.31192
6.80441
7.09165
7.20658
7.17439
7.03132
6.85173
6.67064
6.5233
6.40816
6.32086
6.25319
6.2025
6.17272
6.16461
6.17101
6.18961
6.21991
6.26353
6.31738
6.37861
6.44483
6.5129
6.58
6.64508
6.70463
6.75667
6.79781
6.82594
6.83754
6.83065
6.80341
6.75453
6.68192
6.58459
6.4609
6.31087
6.13358
5.93005
5.70161
5.45278
5.1896
4.91771
4.64747
4.38918
4.15769
3.9647
2.52515
2.48238
2.43667
2.38951
2.34435
2.30724
2.28821
2.30156
2.36644
2.50745
2.74867
3.11289
3.60913
4.22337
4.90656
5.59249
6.21355
6.73168
7.12181
7.29073
7.28111
7.15455
7.02548
6.91929
6.82499
6.74439
6.66744
6.61517
6.58655
6.5704
6.56841
6.57795
6.60573
6.64581
6.69698
6.75638
6.82168
6.88702
6.95542
7.02001
7.08089
7.13115
7.17219
7.19574
7.20276
7.18826
7.1559
7.09782
7.01896
6.91083
6.77924
6.61901
6.43099
6.21706
5.97814
5.72387
5.45311
5.18191
4.91182
4.66529
4.44485
0.19059
4.0284
3.61704
0.2197
0.340203
0.0701882
0.00322177
1.41244
0.00324566
0.0228433
9.01889
0.718311
0.00322115
7.12544
0.0595674
3.20484
0.00323841
1.44988
9.16096
0.0032334
0.257562
7.42296
4.82379
0.00330785
0.00323275
0.125297
0.00323294
0.43385
0.00323314
0.00324537
2.21503
0.0032366
0.0173666
8.50166
0.50481
9.12931
8.47417
1.4575
0.00321203
5.30711
2.2357
0.737292
0.00320546
2.59754
4.43049
0.185651
0.00321165
0.00627474
0.251575
0.771447
5.60951
4.74399
0.00320556
0.00331102
0.0365857
0.00321178
0.00324409
0.699536
8.40997
4.22341
2.16899
0.00337099
0.485205
0.0122911
3.38517
0.00329442
7.73505
1.19284
0.00441382
0.00321192
0.462545
2.48725
2.00923
0.0032035
0.0477786
10.8612
3.78447
2.62891
0.00320218
0.641782
0.00451687
4.79929
0.0122808
3.37288
0.00321571
1.10861
0.00324212
9.0032
0.015391
0.0036769
0.0446016
0.0032012
0.00333013
4.43428
2.7414
0.00328261
0.310804
1.05149
0.00582827
3.81978
0.00324032
7.20417
0.928937
0.00320001
0.00320118
0.00320327
0.373893
0.0962186
0.00326673
3.33997
4.01192
0.00971632
5.52147
7.09633
1.62298
9.719
7.44546
0.00394898
0.0416785
0.00325298
0.00320202
4.52777
0.00371883
4.56948
4.9887
0.779429
0.00320477
0.514016
0.54411
0.00320469
0.0403673
0.0127325
1.62956
0.00341548
10.1345
0.00321076
0.00320066
4.86976
4.75038
0.00320522
0.583242
2.92062
0.126643
0.287366
7.17946
5.33038
0.123076
7.38268
0.00880623
5.66295
1.431
0.00322122
2.69869
3.33752
3.38979
0.00321566
0.00321099
0.0992546
0.00320352
7.57111
0.0770162
0.00492198
0.00321713
0.00320494
0.0032343
2.03175
1.25024
1.8185
0.00337253
6.27593
4.66637
2.44326
5.18828
0.0172444
6.27003
6.52122
7.92319
0.00320613
0.00438047
2.7992
8.93243
0.809083
1.67732
0.00320534
0.00326209
5.94586
0.0140901
0.467358
0.0032336
0.00320868
0.112991
0.00336996
4.76313
0.302697
0.0032018
0.114606
1.62704
3.42598
0.00443456
7.00407
0.00320704
0.00320905
10.2841
1.20196
5.62903
0.00449578
0.00324376
0.00862493
1.30745
7.16349
1.217
2.48883
1.94112
4.16146
0.206814
2.6333
2.09438
0.990166
0.968782
9.18562
0.00330117
0.0295149
0.00320499
0.003223
7.57539
0.00794053
0.0085782
0.00333075
0.016192
2.6438
7.04995
0.022583
3.32612
0.570767
2.758
0.00320722
0.058433
1.59135
0.522462
0.00419103
5.72721
0.871395
0.175684
0.271377
4.50565
0.979457
0.474339
3.00977
0.00370143
0.00320368
0.0034685
0.0114988
7.44582
0.00322375
0.00349974
0.0032094
0.463059
9.63329
10.379
9.08476
1.89894
0.929607
4.60451
0.00445038
7.78126
6.13969
0.00320366
4.70179
0.00321488
7.04621
0.463645
5.12903
0.00416803
0.00320859
1.54267
0.42503
0.0032371
0.00320604
0.00321677
0.00324151
0.316366
1.86913
1.65783
0.0156156
0.00323903
0.00320501
0.00320083
3.09634
0.376861
0.0036221
0.70485
0.067096
0.0334931
0.00320188
0.290103
0.00323895
0.121439
1.68391
5.02216
0.733391
0.00325002
0.00381256
2.6426
0.0473931
1.8127
4.63041
0.00335462
0.00320385
0.00320746
3.66919
0.00322313
3.98087
0.00321177
0.713275
2.50932
0.0352751
4.90892
8.28191
0.00370618
8.95643
4.66803
1.83895
9.58998
2.55941
4.76875
9.19992
9.53902
9.26645
2.52152
1.99978
0.065413
4.63755
4.44009
8.95032
8.88183
0.00396114
5.85771
4.99457
4.40544
0.0202717
0.00332983
0.00320419
0.003262
0.196901
0.355658
2.56604
0.0444669
0.00321637
3.25086
0.00320484
6.87076
0.905836
3.84254
5.97497
0.957232
0.00368001
0.00346427
0.0608418
8.11133
0.00503516
0.843818
5.92561
7.98638
3.01912
4.92791
5.52042
0.00324825
4.52996
2.72103
2.04176
0.00321015
3.31112
2.94721
0.00323449
8.54555
0.00321317
5.40684
9.86109
8.17163
2.54588
4.85359
3.0625
0.00329745
3.12916
0.00340535
10.0959
3.04975
7.98718
4.51261
0.371384
0.187783
0.541469
0.00345043
3.93604
0.560222
0.00691617
0.00447871
4.99398
0.003405
3.18925
0.00321312
0.00321964
0.006087
2.19516
0.0374585
0.868842
0.00330077
2.49095
0.0852101
3.67667
6.30595
1.315
5.72623
0.00341541
4.56658
2.09075
0.00320168
2.99412
0.989552
0.0032038
0.00320161
9.15053
0.00710258
3.94702
0.0578038
6.95757
0.0207598
0.254685
1.27355
8.56398
1.20717
6.38755
1.83889
0.00393833
0.0192252
7.06885
1.10887
4.72005
5.86236
3.69417
0.0242561
2.67149
2.65115
0.625734
1.62846
1.34274
0.996389
0.00353425
3.04959
4.89388
0.00368596
6.51906
1.37421
1.34924
0.0118202
0.0245176
6.65276
0.0036552
4.69524
0.00359488
0.228372
0.00322141
1.06634
2.01495
0.171374
0.00362282
0.00383462
8.46174
7.3322
0.00429941
0.332708
6.05646
3.36355
0.00424999
0.87013
7.43097
10.2872
7.01181
3.79027
8.13127
10.744
2.32224
0.0178993
0.0979906
4.63207
2.26127
4.75767
3.54194
0.025884
4.86502
9.81372
0.00339981
1.66805
7.36269
2.40769
0.0217784
9.60324
1.67519
0.309221
2.26442
0.0052592
0.00320711
0.00321213
6.86113
4.72345
8.57455
0.00321167
0.00322565
0.00320177
7.5043
0.0342436
0.00320384
0.0460775
9.94005
5.38773
0.00534962
0.00555734
0.00320207
0.00321945
0.0036329
2.13248
2.02709
0.890554
0.458357
4.39436
4.84643
0.00525151
4.9026
7.72347
8.1866
2.37195
4.91869
0.00340933
0.00503682
0.00320628
3.12283
0.0959482
0.00320432
0.88583
0.0674574
4.51437
0.00323631
4.67004
0.564302
0.0160239
3.79512
0.0032045
0.00320426
0.00331965
4.94053
2.37733
2.8649
4.7548
5.24493
7.3458
0.00320083
0.00401314
0.0670222
0.00385866
0.0168008
2.11268
8.10338
0.0032071
1.44705
6.95055
3.28692
4.95334
0.00505862
4.93539
0.0038224
0.017168
6.50647
0.00320665
3.53801
0.0032377
0.00323576
0.0246474
8.86247
0.489478
2.23954
2.22725
0.00326734
7.53096
5.39891
0.00351836
0.303849
0.619571
0.00322381
0.0032134
0.00643925
3.54966
0.542283
0.00342584
4.10979
6.35339
3.82347
0.00321633
7.1452
0.00438496
1.33885
0.0684752
0.0367305
7.32817
6.94863
1.97314
3.56536
0.00327925
0.00320079
0.00482379
7.6505
2.08364
0.531309
0.00663938
0.00321367
0.00320592
0.00452166
0.00320318
0.00432352
7.22553
5.004
0.0129674
7.22147
3.21611
0.00324324
8.84958
0.0032264
0.187268
0.00324432
0.0173749
2.9821
0.0135468
0.00320901
0.398652
4.8989
4.64336
0.00322732
0.00320544
0.166601
0.00320584
0.00320778
4.03113
0.00332132
6.87873
4.87281
1.7971
1.59296
2.19243
9.21871
4.73818
0.00320409
0.00719066
0.0151209
7.46059
1.49014
3.37726
1.54464
0.269425
8.32404
5.693
2.46707
0.0299782
1.8448
0.00321433
0.143581
6.79524
1.92627
7.119
0.825536
0.466664
2.46759
0.123075
0.0100314
7.11347
0.00320606
9.03141
0.00326445
0.418083
4.5993
2.49989
0.243883
0.00586724
0.954409
0.00321774
0.00320593
0.0377345
0.0101813
6.41599
0.00625125
7.50057
0.00321313
0.0133143
0.00320441
2.52712
0.00458704
8.84794
2.19878
0.00865154
2.08085
5.54318
0.00321144
1.98003
5.57775
0.00337553
4.5906
0.0507059
0.00355934
0.00321174
4.9535
0.00320321
0.00346012
0.0351565
0.121947
5.09247
4.34947
0.00321904
0.00321061
0.93766
1.25912
0.00686611
0.198358
1.50032
0.0032058
0.00340044
0.00321875
3.55856
4.52911
0.617073
5.74003
0.0111044
7.43829
0.00338651
0.00798106
0.0107217
0.0456886
0.00320954
6.14676
0.00320502
0.0159341
0.00321851
0.00410242
0.00875799
0.00320621
0.145643
0.852322
9.06108
0.128582
1.17876
7.65677
3.92016
0.00332792
9.63938
4.57107
1.40197
2.31183
0.00326413
8.17362
1.68515
0.00320461
5.33488
8.01649
0.00324091
0.00320092
3.80991
4.14354
0.0184648
4.55342
5.36004
0.645075
5.10931
4.06363
3.90236
7.11341
1.65122
0.83186
4.12728
4.318
0.00872154
5.3659
0.952377
6.5365
0.00335861
0.417108
2.4196
4.34729
3.05049
0.0120555
3.94679
4.12809
0.38924
0.0306989
0.426065
7.57653
0.00394849
7.70337
4.92013
0.038723
4.32679
0.53472
2.43464
3.64116
0.00321252
0.0054334
0.542507
0.878409
0.0214721
0.00320854
0.205977
0.236785
0.00390714
0.00323592
5.77454
0.480731
1.35947
1.26852
0.00502043
0.00343487
0.0176431
9.03281
0.00327896
0.898173
7.61974
0.354637
2.00083
0.00356011
0.121256
0.00320558
0.00320744
2.6309
0.00320082
0.0966393
8.01181
4.48551
0.151999
3.59251
0.71375
0.646292
0.00369107
1.14818
4.80301
0.00320601
0.00320919
3.13335
0.0142197
0.00323426
1.96047
0.107638
2.22804
8.24757
1.69144
0.055217
1.41741
8.04041
2.97558
5.07857
0.00322936
6.08847
0.00328226
8.29575
0.00347944
0.00322379
7.95269
0.00725633
7.80016
0.0200624
0.0202933
2.17428
0.835975
0.271692
0.00333637
3.30396
0.00332708
0.00320516
4.72236
3.15842
2.12828
8.33681
0.00325024
0.00319996
1.32971
3.09616
0.00320137
4.29175
1.97703
0.0032128
3.9541
0.00320676
0.308192
0.941987
0.942734
0.143284
1.83014
4.68857
0.00320624
4.20863
5.58778
0.00320247
0.0186275
7.94837
0.00320813
4.42888
10.4757
5.30136
0.00320315
0.00320338
4.43814
0.0328789
0.00341707
2.212
2.0286
4.56691
0.00320014
0.00335025
0.0143939
0.0235341
0.00320597
0.00697821
3.40795
9.34997
0.00321153
0.566934
0.00320635
0.722046
0.00424707
0.00331842
1.23036
0.00320491
0.0555428
0.00320314
1.22712
0.865408
0.724775
4.04613
6.25843
6.82395
0.388087
3.75417
0.00323552
0.501367
4.42813
3.32683
0.0510083
0.00329057
2.85952
0.00320475
0.0591855
0.00320486
4.9454
0.785645
0.3413
3.34741
2.6496
0.467307
2.44358
0.817031
4.41218
3.81058
0.0032265
0.00332708
0.00429075
0.00326097
0.00939373
2.01917
0.00379636
3.92789
0.00380698
0.229835
0.259257
10.0726
0.00523595
1.31134
0.0184154
1.87103
1.31819
4.958
0.00347484
0.00389896
0.00605744
3.49151
1.18459
2.64834
0.171385
0.196148
0.594089
0.0621631
0.870445
0.00571853
6.99284
0.00320971
6.59152
0.21788
2.7359
0.00322859
2.69499
1.06974
0.00320368
1.82217
1.26074
0.0238944
0.00321621
0.00320362
7.15915
2.66143
3.56312
0.00320086
0.00781101
7.4092
4.04838
0.0354387
0.00609957
0.00320269
2.6727
2.73782
8.05211
1.42044
0.00320262
9.61726
4.93803
0.00321206
0.0032116
1.50168
0.00320711
0.00670876
0.0183234
2.29973
0.00426855
8.39269
4.71868
0.00327123
0.00343321
0.00320234
0.00321805
2.20284
5.36579
4.68076
0.0169343
1.10835
8.13729
0.0963153
1.49569
0.00355176
6.95826
0.209168
8.56995
0.864726
1.91668
8.0645
0.00320928
0.00323612
3.47631
7.85959
4.88706
0.466508
7.97252
0.210819
4.35489
0.00739433
0.00371029
5.7989
3.00079
0.0196073
0.182806
0.00321762
0.0324144
1.07036
0.0340177
1.23666
0.00752573
3.03222
8.84532
0.424693
6.17938
3.68611
9.12159
0.862378
5.81455
8.494
0.66052
2.14863
0.00321062
2.62023
2.3335
0.00320636
0.00320856
0.072907
0.0032067
0.00337065
9.23371
6.26448
0.0032186
8.94988
0.00320314
0.00320522
0.00320166
0.00331154
0.00511104
8.43403
1.00757
4.31941
0.00322188
0.00320916
0.464666
0.00328591
0.0375394
0.0032447
0.00322305
7.925
0.003499
0.00545669
2.66138
0.00767278
0.00321052
5.6966
0.00320571
0.0032259
0.00323543
0.0032822
0.0482015
0.00486095
0.0110449
0.0032086
0.00325356
4.49806
4.96573
1.11362
0.0347493
6.87243
0.753159
0.00507169
7.78332
7.37978
4.4401
5.36311
0.0032119
3.32118
2.90279
0.0754834
7.34534
6.72771
0.150589
8.70432
0.00320229
7.21766
0.103464
0.949583
0.00323171
3.59981
0.00330362
7.45966
1.33194
0.00320861
0.218649
0.00465132
0.00544781
0.00321953
0.515685
0.00334485
0.00324972
9.34072
0.00320128
0.0597064
4.43714
2.24125
0.00349153
0.00390535
1.30848
4.20968
0.00320412
0.00322072
0.069009
1.60045
3.82307
0.00631731
0.861784
0.00320914
0.0032675
0.00320157
0.0140883
1.06488
0.0119908
6.51521
8.07748
4.22701
3.2277
0.00327773
5.42066
2.19514
0.00320397
0.00322671
0.00322237
0.00341638
0.00320697
9.0277
0.00320855
0.00320609
5.85421
0.132708
0.0048077
0.0112794
6.62391
1.04796
0.00807085
0.00331143
3.64697
0.00324444
0.340446
0.00327458
0.00330173
3.20047
3.06021
0.00463413
0.00361102
1.30265
0.00320612
5.6996
0.00326836
2.72192
0.018251
0.797192
0.00323711
0.351027
0.00321972
1.76925
0.00324044
0.00330309
0.00623627
1.27392
0.0363051
4.53745
0.00320461
0.00488155
0.00383939
4.21766
3.05746
2.36866
0.00666658
0.0107525
0.253139
0.00321532
3.54347
2.36181
0.00777223
6.52168
4.06755
3.13961
0.00446992
0.17647
2.5665
3.74494
7.62043
0.0180279
6.56867
0.254767
2.51229
0.0342637
0.251934
0.97133
0.00324326
7.55648
0.00344077
0.00762035
0.00321932
0.0268603
0.00334229
1.15458
0.00322513
6.93397
0.077358
0.00322841
0.00425266
0.00323353
0.14653
0.0429988
8.44088
0.51613
9.16849
0.0934477
0.00320933
0.00320072
0.0145237
0.0312182
1.46594
4.22872
0.00321667
2.11864
1.45071
0.0120676
2.39259
1.15218