/*--------------------------------*- C++ -*----------------------------------*\
| =========                 |                                                 |
| \\      /  F ield         | OpenFOAM: The Open Source CFD Toolbox           |
|  \\    /   O peration     | Version:  2.3.1                                 |
|   \\  /    A nd           | Web:      www.OpenFOAM.org                      |
|    \\/     M anipulation  |                                                 |
\*---------------------------------------------------------------------------*/
FoamFile
{
    version     2.0;
    format      ascii;
    class       volVectorField;
    location    "0.07";
    object      U;
}
// * * * * * * * * * * * * * * * * * * * * * * * * * * * * * * * * * * * * * //

dimensions      [0 1 -1 0 0 0 0];

internalField   nonuniform List<vector> 
9648
(
(0.314168 -6.37625 9.49599e-22)
(0.458272 -6.49302 -5.1645e-22)
(0.606656 -6.5315 0)
(0.778269 -6.57501 0)
(0.959698 -6.61442 2.55407e-20)
(1.14804 -6.65674 3.69717e-20)
(1.34266 -6.70457 -5.77296e-20)
(1.54375 -6.75931 -2.4137e-20)
(1.75226 -6.82178 2.40339e-20)
(1.96905 -6.8925 6.50627e-20)
(2.19547 -6.97138 -6.47119e-20)
(2.43218 -7.05798 -8.47892e-20)
(2.68012 -7.15201 4.43295e-19)
(2.94025 -7.25271 1.07463e-19)
(3.21334 -7.35896 -9.8716e-19)
(3.4997 -7.4695 0)
(3.79986 -7.58315 0)
(4.11408 -7.69855 1.61068e-19)
(4.44272 -7.81403 5.1067e-19)
(4.7854 -7.92769 -1.43104e-18)
(5.142 -8.03816 -3.19299e-20)
(5.51242 -8.14363 3.76535e-19)
(5.89599 -8.24255 4.43575e-19)
(6.29219 -8.33332 -1.94938e-18)
(6.70036 -8.41442 0)
(7.11971 -8.48425 1.13342e-18)
(7.54925 -8.5413 -1.16267e-18)
(7.98797 -8.58444 0)
(8.43485 -8.61227 0)
(8.88856 -8.62377 -6.89121e-19)
(9.348 -8.61788 -1.49515e-18)
(9.81175 -8.59364 2.32883e-18)
(10.2786 -8.5504 0)
(10.7472 -8.4873 0)
(11.216 -8.40401 1.72309e-18)
(11.6838 -8.29989 -1.84895e-18)
(12.1491 -8.17476 0)
(12.6106 -8.02851 3.90284e-18)
(13.067 -7.86088 1.0435e-18)
(13.5167 -7.67178 -3.07849e-18)
(13.9584 -7.46128 6.72285e-20)
(14.3908 -7.2299 2.15878e-18)
(14.8131 -6.97744 -2.86291e-18)
(15.2239 -6.704 5.75372e-19)
(15.622 -6.40959 0)
(16.0054 -6.09528 0)
(16.3729 -5.7622 4.25422e-18)
(16.7233 -5.41117 6.22885e-19)
(17.0559 -5.04326 -1.91205e-18)
(17.3699 -4.65923 -6.42036e-19)
(17.6641 -4.25979 -6.60944e-19)
(17.9375 -3.84619 6.5784e-19)
(18.1897 -3.41971 3.36462e-19)
(18.42 -2.98086 -3.3512e-19)
(18.6274 -2.5313 1.69761e-18)
(18.8115 -2.07174 -1.66121e-18)
(18.9716 -1.6035 -2.1054e-20)
(19.1071 -1.12726 0)
(19.2175 -0.644461 -3.32477e-19)
(19.3027 -0.156299 -4.28486e-20)
(19.3631 0.335497 -4.00885e-20)
(0.0622699 -4.92569 -3.97155e-22)
(0.163703 -4.97816 0)
(0.272881 -5.05148 0)
(0.409057 -5.14437 1.76542e-20)
(0.559501 -5.2483 -1.57501e-20)
(0.721257 -5.36252 -7.98037e-20)
(0.893636 -5.48715 0)
(1.0768 -5.6214 0)
(1.27135 -5.76472 -7.43074e-20)
(1.4778 -5.9163 0)
(1.69706 -6.0753 -1.59917e-19)
(1.92939 -6.2405 1.21896e-19)
(2.17515 -6.41086 -6.4774e-20)
(2.43489 -6.58511 0)
(2.70902 -6.76187 3.76162e-19)
(2.99756 -6.9398 2.09095e-19)
(3.3006 -7.1175 -2.06605e-19)
(3.61811 -7.29363 2.54075e-19)
(3.95024 -7.46656 -7.69843e-19)
(4.29652 -7.63465 6.05024e-19)
(4.65659 -7.79656 -6.56048e-19)
(5.03034 -7.95077 -3.54778e-19)
(5.41704 -8.09595 -3.4937e-19)
(5.81608 -8.23065 1.18091e-18)
(6.22669 -8.35351 4.02618e-19)
(6.64817 -8.46314 4.63361e-19)
(7.07959 -8.55826 -4.0404e-19)
(7.51992 -8.63785 0)
(7.96821 -8.70069 0)
(8.42318 -8.74598 0)
(8.88375 -8.77266 0)
(9.34861 -8.77997 0)
(9.81654 -8.76726 0)
(10.2863 -8.73385 0)
(10.7565 -8.6794 -7.87008e-19)
(11.2258 -8.60333 7.08086e-19)
(11.6929 -8.50556 7.67896e-19)
(12.1565 -8.38595 -3.90573e-18)
(12.6151 -8.24425 -8.17686e-19)
(13.0675 -8.0805 2.5231e-18)
(13.5121 -7.8949 1.76092e-18)
(13.9476 -7.68792 -1.80735e-18)
(14.3727 -7.45932 8.57129e-19)
(14.7861 -7.2094 8.99968e-19)
(15.1871 -6.93841 -9.45547e-19)
(15.5746 -6.64713 9.38948e-19)
(15.947 -6.33635 -2.00708e-18)
(16.303 -6.00679 0)
(16.6417 -5.6595 -5.04236e-19)
(16.9623 -5.29511 1.01188e-18)
(17.2638 -4.91433 -5.07768e-19)
(17.5452 -4.51839 0)
(17.8057 -4.10845 1.0313e-18)
(18.0448 -3.68529 0)
(18.2615 -3.25007 0)
(18.4553 -2.80398 2.41772e-18)
(18.6252 -2.3481 -1.08562e-18)
(18.7707 -1.8845 -2.61376e-19)
(18.8913 -1.41404 2.76866e-19)
(18.9867 -0.939263 0)
(19.0578 -0.460672 6.89746e-20)
(0.212099 -4.29931 -1.05489e-22)
(0.330932 -4.37042 0)
(0.458901 -4.46774 -2.20433e-21)
(0.600503 -4.58229 -1.87937e-21)
(0.753094 -4.70758 0)
(0.916433 -4.84287 6.40348e-20)
(1.09062 -4.98826 3.8304e-20)
(1.27655 -5.1428 0)
(1.47473 -5.30575 5.8022e-21)
(1.6859 -5.4758 6.93028e-20)
(1.91035 -5.65197 1.34709e-19)
(2.14845 -5.83275 -4.60288e-20)
(2.40049 -6.01679 0)
(2.66671 -6.20266 0)
(2.94728 -6.38894 2.77473e-19)
(3.24216 -6.5743 -1.70961e-19)
(3.55133 -6.75736 -1.76056e-19)
(3.87458 -6.93676 0)
(4.21171 -7.11098 6.67198e-19)
(4.56232 -7.2786 -6.80559e-19)
(4.92595 -7.43833 -4.96332e-19)
(5.30224 -7.58893 -5.37424e-19)
(5.69053 -7.72913 0)
(6.09009 -7.85771 -9.40305e-19)
(6.50012 -7.97338 -3.28932e-19)
(6.9198 -8.07495 3.78784e-19)
(7.34825 -8.16131 4.14405e-19)
(7.7845 -8.23153 0)
(8.2275 -8.28468 0)
(8.6761 -8.31994 0)
(9.12913 -8.33651 0)
(9.58536 -8.33373 0)
(10.0436 -8.311 0)
(10.5026 -8.26785 0)
(10.9611 -8.20391 -1.74455e-18)
(11.4179 -8.11882 5.79068e-19)
(11.8715 -8.01247 -6.28165e-19)
(12.3208 -7.88473 3.15432e-18)
(12.7646 -7.73553 0)
(13.2014 -7.56499 1.32151e-18)
(13.6299 -7.37338 1.3591e-18)
(14.049 -7.16103 6.69954e-19)
(14.4572 -6.92811 -7.63631e-19)
(14.8533 -6.67525 -1.46275e-18)
(15.236 -6.40316 2.26802e-18)
(15.6045 -6.11213 -7.686e-19)
(15.9577 -5.80281 -1.55046e-18)
(16.2944 -5.47588 0)
(16.6137 -5.1323 0)
(16.9149 -4.77279 -4.17711e-19)
(17.197 -4.39829 -4.0406e-19)
(17.4591 -4.00971 -8.27972e-19)
(17.7008 -3.60804 -8.66102e-19)
(17.9211 -3.19472 0)
(18.1195 -2.77016 -8.46078e-19)
(18.2954 -2.33613 -8.81083e-19)
(18.4486 -1.89306 0)
(18.5785 -1.44366 1.5726e-20)
(18.6847 -0.988194 0)
(18.7668 -0.529419 0)
(18.8243 -0.0677121 -5.31297e-20)
(0.224026 -4.01537 4.16512e-22)
(0.348159 -4.10608 -4.13277e-22)
(0.480998 -4.21592 -1.33617e-21)
(0.627522 -4.34069 -4.59333e-21)
(0.786536 -4.47698 0)
(0.95726 -4.62363 -2.54385e-20)
(1.13965 -4.77993 -3.27402e-20)
(1.3339 -4.94494 0)
(1.54043 -5.11755 7.09784e-21)
(1.75957 -5.29658 -5.91745e-20)
(1.99168 -5.48072 1.23157e-19)
(2.23693 -5.66855 1.44481e-19)
(2.49545 -5.85858 0)
(2.76746 -6.04934 -1.07358e-19)
(3.05312 -6.2395 -2.26988e-19)
(3.35231 -6.42774 -1.19315e-19)
(3.66493 -6.61279 4.44158e-19)
(3.99078 -6.79331 -3.13218e-19)
(4.32951 -6.96787 3.4444e-19)
(4.68076 -7.13513 5.75218e-19)
(5.04418 -7.29397 8.21154e-19)
(5.41923 -7.44326 4.59092e-19)
(5.80534 -7.58184 2.15375e-19)
(6.20174 -7.70859 7.79403e-19)
(6.60766 -7.82232 2.50108e-19)
(7.02228 -7.92193 2.83896e-19)
(7.44477 -8.00643 3.25562e-19)
(7.87429 -8.07495 -9.70611e-19)
(8.3098 -8.1267 6.86775e-19)
(8.75019 -8.16093 7.66524e-19)
(9.19439 -8.17692 -1.56248e-18)
(9.64118 -8.17407 7.95698e-19)
(10.0895 -8.15183 -8.36846e-19)
(10.5381 -8.10975 4.14668e-19)
(10.9859 -8.04752 4.54166e-19)
(11.4315 -7.96483 4.95343e-19)
(11.8739 -7.86153 -4.90449e-19)
(12.3118 -7.73755 -5.35434e-19)
(12.744 -7.59288 -1.57339e-18)
(13.1693 -7.42765 -1.13385e-18)
(13.5864 -7.2421 -2.27788e-18)
(13.9941 -7.03645 -2.93244e-18)
(14.3912 -6.81097 1.19623e-18)
(14.7764 -6.5661 3.18143e-20)
(15.1488 -6.30242 -6.66164e-19)
(15.5072 -6.0204 -6.45542e-19)
(15.8506 -5.72065 3.89911e-18)
(16.178 -5.4039 -6.52306e-19)
(16.4885 -5.07094 0)
(16.7814 -4.72256 0)
(17.0558 -4.35965 -6.3881e-19)
(17.3109 -3.98328 3.28418e-20)
(17.5461 -3.59441 6.83992e-19)
(17.7606 -3.194 0)
(17.9539 -2.78339 7.26377e-19)
(18.1252 -2.36362 0)
(18.2743 -1.93585 0)
(18.4008 -1.50065 5.44837e-19)
(18.5044 -1.05962 1.70849e-19)
(18.5849 -0.613646 -1.74191e-19)
(18.6418 -0.16427 8.89698e-20)
(0.294914 -3.86158 2.05543e-22)
(0.430591 -3.96139 3.53928e-22)
(0.575023 -4.07684 -2.76331e-22)
(0.73121 -4.20588 2.24287e-21)
(0.899061 -4.3464 -4.9879e-21)
(1.07855 -4.49712 8.56929e-21)
(1.2696 -4.65704 3.13808e-21)
(1.4723 -4.82505 -2.00972e-20)
(1.68709 -5.00004 5.92112e-20)
(1.91402 -5.18076 -8.27391e-20)
(2.15344 -5.36585 8.57154e-20)
(2.40529 -5.55386 -1.14546e-19)
(2.66975 -5.74321 -6.29737e-20)
(2.94694 -5.93243 0)
(3.23709 -6.12016 1.12702e-19)
(3.53997 -6.30529 9.81661e-20)
(3.85549 -6.48655 0)
(4.18338 -6.66262 2.4075e-19)
(4.52313 -6.83218 0)
(4.87452 -6.9939 -3.15028e-19)
(5.2372 -7.14679 3.25372e-19)
(5.61061 -7.28984 4.93057e-21)
(5.99416 -7.42199 -2.53236e-20)
(6.387 -7.54225 3.10938e-20)
(6.78838 -7.64945 -8.99564e-19)
(7.19754 -7.74256 -5.02193e-19)
(7.61365 -7.82068 1.03037e-18)
(8.03599 -7.88299 1.09928e-18)
(8.46358 -7.92887 -5.96267e-19)
(8.89533 -7.95761 0)
(9.33021 -7.96861 0)
(9.76696 -7.96129 0)
(10.2047 -7.93508 7.2772e-19)
(10.6422 -7.8896 -2.9615e-18)
(11.0785 -7.82464 1.54207e-18)
(11.5121 -7.73988 -7.82612e-19)
(11.9423 -7.63513 -1.66191e-18)
(12.3677 -7.51045 1.68284e-18)
(12.7872 -7.36581 4.50483e-20)
(13.1997 -7.20136 -9.3521e-19)
(13.604 -7.01738 9.74729e-19)
(13.9988 -6.81412 9.95477e-19)
(14.383 -6.59183 0)
(14.7555 -6.35091 -9.94273e-19)
(15.1152 -6.09191 0)
(15.4611 -5.81529 -1.57373e-18)
(15.7923 -5.52166 4.80891e-19)
(16.1078 -5.21165 0)
(16.4068 -4.88597 -5.63271e-19)
(16.6885 -4.54555 -1.01784e-20)
(16.9521 -4.1911 1.19962e-18)
(17.1969 -3.82366 -5.62801e-19)
(17.4224 -3.44421 -3.1171e-19)
(17.6279 -3.05375 5.69766e-19)
(17.8126 -2.65353 -2.64932e-21)
(17.9761 -2.24439 2.9529e-19)
(18.1176 -1.82758 1.41141e-19)
(18.2371 -1.40391 2.97367e-19)
(18.3344 -0.974502 -7.43805e-19)
(18.4092 -0.540463 2.97055e-19)
(18.4611 -0.103178 -3.79189e-20)
(0.372702 -3.76982 -4.16347e-22)
(0.520812 -3.87412 0)
(0.677976 -3.99251 3.36689e-21)
(0.846195 -4.12359 0)
(1.0253 -4.2657 7.46579e-22)
(1.2156 -4.41743 8.32144e-21)
(1.41702 -4.57779 1.01013e-20)
(1.62957 -4.74554 3.57253e-20)
(1.85367 -4.91958 6.05172e-21)
(2.08909 -5.09872 6.95928e-21)
(2.3363 -5.28154 -4.89155e-21)
(2.59491 -5.46668 -4.0463e-20)
(2.86529 -5.6525 5.70244e-20)
(3.14713 -5.83743 -1.71078e-19)
(3.44134 -6.02013 1.48038e-19)
(3.74745 -6.19981 -1.63599e-20)
(4.06515 -6.37509 -1.71135e-19)
(4.39434 -6.54475 -2.09918e-19)
(4.73422 -6.70759 0)
(5.08471 -6.86215 2.35863e-19)
(5.44574 -7.00761 3.28335e-21)
(5.81638 -7.14316 -6.09825e-19)
(6.19646 -7.26776 -2.61931e-20)
(6.58468 -7.38064 -3.09269e-19)
(6.98044 -7.48057 1.10424e-18)
(7.38295 -7.56657 3.15279e-20)
(7.79143 -7.6378 -4.08656e-19)
(8.20547 -7.69343 -5.6564e-20)
(8.62401 -7.73313 0)
(9.04596 -7.75625 0)
(9.47044 -7.76217 0)
(9.89607 -7.75052 0)
(10.322 -7.7205 0)
(10.7474 -7.67183 7.03758e-20)
(11.1711 -7.6045 -6.58592e-19)
(11.5917 -7.51818 -3.21436e-20)
(12.0085 -7.4125 4.13232e-20)
(12.4205 -7.28773 6.60364e-19)
(12.8263 -7.14378 1.52371e-18)
(13.2252 -6.98085 -2.28181e-18)
(13.6159 -6.79934 1.58853e-18)
(13.997 -6.59941 -7.91321e-19)
(14.3676 -6.38138 0)
(14.7267 -6.14543 8.77544e-19)
(15.0732 -5.89222 0)
(15.4062 -5.62219 9.15211e-19)
(15.7247 -5.33579 -9.32281e-19)
(16.0278 -5.0339 4.32579e-19)
(16.3149 -4.7169 4.63336e-19)
(16.5852 -4.38574 -4.78639e-19)
(16.838 -4.04125 4.3566e-20)
(17.0726 -3.68438 -6.95036e-21)
(17.2884 -3.31582 9.63444e-19)
(17.485 -2.93694 -9.87508e-19)
(17.6616 -2.54882 -4.83326e-19)
(17.8175 -2.15257 -2.3542e-19)
(17.9522 -1.74888 -7.48928e-19)
(18.0655 -1.33856 0)
(18.1573 -0.9227 5.00443e-19)
(18.2275 -0.502849 -1.28237e-19)
(18.2757 -0.0800439 0)
(0.459587 -3.71105 0)
(0.621907 -3.817 0)
(0.792908 -3.93619 -2.28241e-21)
(0.974703 -4.06763 4.021e-21)
(1.16598 -4.20951 -2.22036e-21)
(1.36821 -4.3603 -9.37488e-21)
(1.58084 -4.519 4.39329e-21)
(1.80343 -4.68426 -2.19375e-20)
(2.03748 -4.85515 -1.04599e-22)
(2.28131 -5.03058 5.47202e-20)
(2.53661 -5.20903 -1.07059e-19)
(2.80178 -5.38947 0)
(3.07796 -5.56994 0)
(3.36366 -5.74898 1.87414e-19)
(3.66169 -5.92472 1.17579e-19)
(3.97056 -6.09739 -2.6546e-19)
(4.28965 -6.26525 4.17185e-19)
(4.61983 -6.4272 1.70269e-19)
(4.95896 -6.58233 -3.3853e-19)
(5.30768 -6.72869 -2.07296e-19)
(5.66656 -6.86552 2.29871e-19)
(6.03351 -6.99278 -1.77977e-20)
(6.40961 -7.10877 0)
(6.79249 -7.2138 5.87014e-19)
(7.18167 -7.30591 -9.50666e-19)
(7.57695 -7.38422 3.14327e-19)
(7.97662 -7.44812 6.77078e-19)
(8.38164 -7.4963 -1.88427e-18)
(8.79046 -7.52929 3.83404e-19)
(9.20166 -7.54643 0)
(9.61521 -7.54677 0)
(10.0288 -7.53062 0)
(10.4418 -7.49662 5.04975e-19)
(10.8545 -7.44418 1.55856e-18)
(11.265 -7.3742 -1.04219e-18)
(11.6714 -7.28639 5.72802e-19)
(12.0742 -7.17935 6.31216e-19)
(12.4717 -7.05425 -1.24319e-18)
(12.8629 -6.91087 0)
(13.2474 -6.74912 -1.24441e-18)
(13.6235 -6.57006 6.51626e-19)
(13.9903 -6.37346 3.99309e-20)
(14.3463 -6.15992 -3.07e-20)
(14.6912 -5.92886 7.07482e-19)
(15.0239 -5.68151 3.03814e-20)
(15.343 -5.41842 -2.22881e-18)
(15.6483 -5.13941 7.55179e-19)
(15.9383 -4.84584 -1.5574e-18)
(16.2128 -4.53753 0)
(16.471 -4.21612 0)
(16.7124 -3.8817 1.6234e-18)
(16.9359 -3.53587 -3.84126e-19)
(17.1414 -3.17863 -8.36376e-19)
(17.3289 -2.81126 -3.94452e-19)
(17.4971 -2.43575 1.26925e-18)
(17.6451 -2.05277 6.34609e-19)
(17.7724 -1.66249 2.18459e-19)
(17.8789 -1.26614 -5.49006e-21)
(17.9649 -0.863947 -2.17574e-19)
(18.0305 -0.45813 0)
(18.0747 -0.050082 0)
(0.553103 -3.67081 7.98718e-22)
(0.731662 -3.77575 0)
(0.91717 -3.89352 0)
(1.11463 -4.02382 -2.49703e-21)
(1.31851 -4.16386 0)
(1.5336 -4.31186 -3.24545e-21)
(1.75778 -4.46722 3.32867e-21)
(1.98971 -4.62811 -6.12931e-21)
(2.23497 -4.79424 0)
(2.48638 -4.96436 -3.20634e-20)
(2.75072 -5.13698 1.05214e-20)
(3.02136 -5.31145 0)
(3.30409 -5.48549 0)
(3.59143 -5.65781 -7.64373e-20)
(3.89355 -5.82455 7.65541e-20)
(4.20525 -5.98927 -1.03623e-19)
(4.52439 -6.14891 -1.18358e-19)
(4.8557 -6.30214 0)
(5.19305 -6.44961 1.50161e-19)
(5.53854 -6.5868 -3.00785e-19)
(5.89593 -6.71411 -3.35303e-19)
(6.25709 -6.83286 -4.05493e-19)
(6.62956 -6.93943 -3.90239e-20)
(7.00606 -7.03673 -4.85461e-19)
(7.38783 -7.12094 4.7779e-19)
(7.77581 -7.19117 5.18495e-19)
(8.16481 -7.24794 -6.00821e-19)
(8.56031 -7.28759 4.63906e-20)
(8.959 -7.31355 4.62601e-20)
(9.35783 -7.32487 -6.7468e-19)
(9.76017 -7.31912 0)
(10.1608 -7.29912 -8.02757e-19)
(10.5595 -7.26101 1.58744e-18)
(10.9589 -7.2039 -5.76135e-20)
(11.3557 -7.13175 9.29283e-19)
(11.7459 -7.04381 -9.06764e-19)
(12.1341 -6.93458 9.96982e-19)
(12.5162 -6.80925 1.02514e-18)
(12.8912 -6.66653 -2.04127e-18)
(13.2604 -6.50575 1.11923e-18)
(13.6207 -6.32961 1.0832e-18)
(13.9726 -6.13621 1.70984e-18)
(14.3125 -5.92769 -6.10144e-19)
(14.6424 -5.70064 0)
(14.9606 -5.45971 3.83393e-20)
(15.2646 -5.2048 6.53878e-19)
(15.556 -4.93331 -6.26841e-19)
(15.8314 -4.64958 6.78388e-19)
(16.0927 -4.35033 0)
(16.3377 -4.03986 0)
(16.5671 -3.71606 -4.25836e-20)
(16.7788 -3.38247 7.1588e-19)
(16.9731 -3.03615 0)
(17.1509 -2.6804 3.51935e-19)
(17.3108 -2.31902 3.53068e-19)
(17.4506 -1.95049 -7.13793e-19)
(17.5702 -1.57437 -3.46799e-19)
(17.6691 -1.1932 -1.84881e-19)
(17.7487 -0.804634 0)
(17.8098 -0.414327 0)
(17.8502 -0.0226375 2.15782e-20)
(0.651716 -3.64046 -2.41776e-21)
(0.849206 -3.74277 5.47631e-21)
(1.04923 -3.85463 6.48744e-22)
(1.26626 -3.98333 -8.13892e-21)
(1.48036 -4.11787 1.44686e-20)
(1.70754 -4.26336 -9.8768e-21)
(1.94337 -4.41347 0)
(2.18202 -4.56596 4.61088e-21)
(2.44234 -4.72752 -3.3682e-21)
(2.69738 -4.8896 0)
(2.97446 -5.05658 5.35323e-20)
(3.24549 -5.22408 -3.72476e-20)
(3.53718 -5.39178 3.52278e-20)
(3.82231 -5.55699 4.34194e-20)
(4.13022 -5.71132 -6.64252e-20)
(4.44434 -5.86974 -7.79676e-20)
(4.75991 -6.02026 2.59395e-19)
(5.09584 -6.16404 -2.68335e-19)
(5.42572 -6.30583 0)
(5.76296 -6.43425 -1.06251e-21)
(6.12484 -6.55261 8.10935e-19)
(6.47291 -6.66325 -3.63714e-20)
(6.8488 -6.75775 -3.86478e-19)
(7.21377 -6.849 7.38939e-19)
(7.58639 -6.92611 0)
(7.97037 -6.98998 -4.52444e-19)
(8.3432 -7.04033 -4.46667e-19)
(8.73046 -7.07031 1.00143e-18)
(9.11953 -7.09044 2.79493e-21)
(9.50197 -7.09628 5.95054e-19)
(9.89555 -7.08349 -1.19992e-18)
(10.2796 -7.06197 1.88939e-18)
(10.6616 -7.02073 -1.35971e-18)
(11.0484 -6.95885 -1.41222e-18)
(11.4339 -6.88479 0)
(11.8038 -6.79697 8.02909e-19)
(12.1817 -6.68432 0)
(12.5453 -6.56141 -1.203e-20)
(12.9019 -6.42024 9.32929e-19)
(13.2577 -6.258 -1.72746e-18)
(13.6002 -6.08289 -1.55723e-20)
(13.9375 -5.89319 -1.90737e-18)
(14.2564 -5.69219 0)
(14.5694 -5.47049 -5.37186e-19)
(14.8736 -5.23881 2.06304e-18)
(15.1591 -4.99312 -5.21761e-19)
(15.4392 -4.72954 5.52976e-19)
(15.6974 -4.45577 0)
(15.9464 -4.1649 5.59449e-19)
(16.177 -3.86366 -1.68023e-18)
(16.3948 -3.54832 -2.48296e-20)
(16.5941 -3.2268 0)
(16.7741 -2.89403 5.67591e-19)
(16.9424 -2.5506 -1.99006e-20)
(17.0955 -2.20226 0)
(17.2259 -1.84671 3.18906e-19)
(17.3384 -1.49269 -2.85394e-19)
(17.4285 -1.128 2.99425e-19)
(17.5002 -0.754133 2.93626e-19)
(17.5595 -0.376557 -1.47862e-19)
(17.5942 -2.54699e-05 -5.52532e-20)
(19.3981 0.829686 1.25104e-19)
(19.4077 1.32475 -4.24962e-20)
(19.3921 1.81951 0)
(19.3507 2.31246 0)
(19.2838 2.80192 6.62698e-19)
(19.1917 3.28693 9.4332e-19)
(19.0742 3.7667 -9.68294e-19)
(18.932 4.23988 -3.16074e-19)
(18.7651 4.7054 3.16381e-19)
(18.5747 5.16192 6.09586e-19)
(18.3616 5.60832 -6.1061e-19)
(18.1257 6.04276 -5.83443e-19)
(17.8683 6.46417 2.89343e-18)
(17.5902 6.87182 5.5385e-19)
(17.2916 7.26474 -4.85592e-18)
(16.9734 7.6416 0)
(16.6364 8.0016 0)
(16.2818 8.3439 4.84603e-19)
(15.9104 8.66808 1.41814e-18)
(15.523 8.97298 -3.58544e-18)
(15.1211 9.25816 -6.56751e-20)
(14.7055 9.52361 7.90292e-19)
(14.2769 9.76861 8.11119e-19)
(13.8359 9.99233 -2.90809e-18)
(13.3844 10.1932 0)
(12.9239 10.3709 1.29733e-18)
(12.4556 10.5252 -1.14547e-18)
(11.9809 10.6556 0)
(11.5007 10.7621 0)
(11.0166 10.8442 -4.75988e-19)
(10.5298 10.9022 -7.90857e-19)
(10.0414 10.9358 1.05433e-18)
(9.55289 10.9452 0)
(9.0653 10.9304 0)
(8.58005 10.8915 3.16604e-19)
(8.09821 10.8289 -2.42205e-19)
(7.62109 10.7426 0)
(7.14991 10.6333 -1.35619e-21)
(6.6857 10.5013 -7.79405e-20)
(6.22964 10.347 3.20651e-19)
(5.78286 10.1708 2.51423e-20)
(5.34669 9.97363 -4.68314e-19)
(4.92188 9.75608 7.13946e-19)
(4.50956 9.51856 -1.55361e-19)
(4.11078 9.26206 0)
(3.72623 8.98734 0)
(3.35687 8.69503 -1.78062e-18)
(3.00354 8.38609 -2.69953e-19)
(2.66717 8.06158 9.18273e-19)
(2.34841 7.72266 3.2571e-19)
(2.04779 7.37016 3.74245e-19)
(1.76604 7.0051 -3.79905e-19)
(1.50383 6.62879 -2.12643e-19)
(1.26143 6.24268 2.16011e-19)
(1.03942 5.84781 -1.16856e-18)
(0.838091 5.44588 1.2195e-18)
(0.657795 5.03832 4.6114e-22)
(0.498667 4.62701 0)
(0.360733 4.21328 2.77301e-19)
(0.243965 3.79853 3.62347e-20)
(0.14795 3.384 3.72532e-20)
(19.1039 0.0211459 -6.87169e-20)
(19.1251 0.504494 0)
(19.1213 0.988253 0)
(19.0922 1.47109 7.72257e-19)
(19.038 1.95181 -5.14046e-19)
(18.9587 2.42872 -1.8022e-18)
(18.8542 2.90084 0)
(18.7248 3.367 0)
(18.5712 3.82541 -9.57487e-19)
(18.3944 4.27418 0)
(18.1951 4.71341 -1.37971e-18)
(17.9734 5.1419 9.09941e-19)
(17.73 5.55854 -4.49941e-19)
(17.4654 5.96247 0)
(17.1801 6.35266 1.74579e-18)
(16.875 6.72779 7.97334e-19)
(16.5508 7.08684 -7.99707e-19)
(16.2088 7.42873 7.3915e-19)
(15.8496 7.75292 -2.17089e-18)
(15.4742 8.05831 1.44913e-18)
(15.084 8.34393 -1.38266e-18)
(14.6795 8.60953 -7.04946e-19)
(14.2617 8.8545 -6.12036e-19)
(13.832 9.07868 1.72844e-18)
(13.3919 9.2808 5.40804e-19)
(12.9423 9.46026 4.62872e-19)
(12.4843 9.61665 -3.98949e-19)
(12.0194 9.74958 0)
(11.5487 9.85883 0)
(11.0736 9.94394 0)
(10.5951 10.005 0)
(10.1147 10.0418 0)
(9.63376 10.0543 0)
(9.15326 10.0427 0)
(8.67477 10.0068 -1.35233e-19)
(8.19932 9.94703 9.06835e-20)
(7.72828 9.8634 1.54081e-21)
(7.26279 9.75637 6.22043e-20)
(6.80398 9.6264 8.76859e-20)
(6.35311 9.47381 -2.85631e-19)
(5.91136 9.29908 -2.89126e-19)
(5.48 9.1028 3.81179e-19)
(5.05992 8.8857 -2.29403e-19)
(4.65235 8.64823 -2.69953e-19)
(4.25833 8.39116 3.55495e-19)
(3.87863 8.11527 -3.60003e-19)
(3.51421 7.82124 8.36593e-19)
(3.166 7.50997 0)
(2.83496 7.18247 2.64324e-19)
(2.52184 6.83975 -5.53355e-19)
(2.22721 6.48272 2.89435e-19)
(1.95186 6.11236 0)
(1.69657 5.72984 -6.75357e-19)
(1.46153 5.33649 0)
(1.24751 4.93336 0)
(1.05465 4.52206 -1.78556e-18)
(0.883501 4.10399 8.30399e-19)
(0.734139 3.6809 2.17108e-19)
(0.607118 3.254 -2.25339e-19)
(0.502532 2.82471 0)
(0.420422 2.39427 -6.03386e-20)
(18.8575 0.395597 5.28986e-20)
(18.8668 0.859937 0)
(18.8521 1.3244 -2.08752e-19)
(18.8127 1.78879 -1.56537e-20)
(18.7491 2.25138 0)
(18.6611 2.71089 1.64492e-18)
(18.5485 3.16472 7.9507e-19)
(18.4126 3.61154 0)
(18.2542 4.05004 2.94304e-20)
(18.0736 4.47859 7.52106e-19)
(17.8706 4.89672 1.1359e-18)
(17.646 5.30359 -3.72058e-19)
(17.4006 5.69847 0)
(17.1352 6.08042 0)
(16.8503 6.44845 1.31583e-18)
(16.5467 6.80154 -6.39484e-19)
(16.2253 7.13872 -5.85475e-19)
(15.887 7.45914 0)
(15.5325 7.7621 1.74283e-18)
(15.163 8.04678 -1.64453e-18)
(14.7796 8.31235 -1.02488e-18)
(14.3832 8.55814 -9.70374e-19)
(13.9748 8.78326 0)
(13.5558 8.98712 -1.33026e-18)
(13.127 9.1695 -4.26436e-19)
(12.6896 9.32994 3.6335e-19)
(12.2447 9.46805 3.47523e-19)
(11.7935 9.58353 0)
(11.3372 9.67616 0)
(10.877 9.74564 0)
(10.4141 9.79188 0)
(9.94966 9.81484 0)
(9.48503 9.81451 0)
(9.02139 9.79096 0)
(8.56002 9.7442 -2.35704e-19)
(8.102 9.67442 6.39814e-20)
(7.64854 9.58183 6.37686e-21)
(7.20076 9.46677 -1.04659e-19)
(6.75975 9.3297 0)
(6.3267 9.17103 -1.96655e-19)
(5.90275 8.99123 -2.66023e-19)
(5.48906 8.79089 -1.5383e-19)
(5.08659 8.57061 2.12788e-19)
(4.69646 8.33096 4.72362e-19)
(4.31961 8.07262 -8.24467e-19)
(3.95688 7.79625 2.8737e-19)
(3.60906 7.50265 6.73794e-19)
(3.27707 7.19265 0)
(2.96171 6.86727 0)
(2.6638 6.52736 2.2375e-19)
(2.38393 6.17388 2.38122e-19)
(2.1227 5.80782 4.95211e-19)
(1.88079 5.43016 5.29148e-19)
(1.65849 5.04215 0)
(1.45639 4.64471 5.8205e-19)
(1.27452 4.23947 6.15497e-19)
(1.11335 3.8276 0)
(0.973031 3.41086 -3.54638e-21)
(0.854223 2.99032 0)
(0.756995 2.56738 0)
(0.681746 2.14308 4.5708e-20)
(18.6748 0.287191 -8.85479e-20)
(18.6835 0.739837 1.71669e-19)
(18.6676 1.19301 -3.35138e-19)
(18.6275 1.64525 -1.81189e-19)
(18.5643 2.09538 0)
(18.4783 2.54309 -6.90324e-19)
(18.3696 2.98596 -6.79524e-19)
(18.2382 3.42241 0)
(18.084 3.85119 3.21405e-20)
(17.9077 4.27167 -6.4127e-19)
(17.7098 4.68236 1.19112e-18)
(17.4908 5.08217 1.16107e-18)
(17.2514 5.46992 0)
(16.9923 5.84474 -5.52297e-19)
(16.7144 6.20574 -1.09142e-18)
(16.4183 6.55183 -5.34387e-19)
(16.1047 6.88219 1.53435e-18)
(15.7747 7.19602 -9.69771e-19)
(15.4289 7.49266 9.27855e-19)
(15.0685 7.77136 1.31897e-18)
(14.6945 8.03143 1.68324e-18)
(14.3078 8.27222 8.18778e-19)
(13.9096 8.49293 3.65081e-19)
(13.5009 8.69292 1.08354e-18)
(13.0827 8.87181 3.1833e-19)
(12.6561 9.02917 3.12738e-19)
(12.2223 9.16468 2.6032e-19)
(11.7823 9.27808 -7.39954e-19)
(11.3375 9.36908 4.26413e-19)
(10.8889 9.43748 3.60954e-19)
(10.4376 9.48313 -6.69259e-19)
(9.98498 9.50606 3.08101e-19)
(9.53217 9.50625 -2.11672e-19)
(9.08039 9.4838 8.66856e-20)
(8.63091 9.43866 7.05809e-20)
(8.18476 9.37099 1.40542e-20)
(7.74308 9.28103 -1.41503e-20)
(7.30692 9.1691 5.62495e-21)
(6.87736 9.03569 1.62917e-19)
(6.45562 8.88121 1.62483e-19)
(6.04278 8.70614 4.50508e-19)
(5.63991 8.51107 7.15679e-19)
(5.24813 8.29657 -3.35995e-19)
(4.86842 8.06322 2.69637e-21)
(4.50175 7.81165 2.33063e-19)
(4.14898 7.54245 2.61205e-19)
(3.8107 7.25646 -1.6537e-18)
(3.48789 6.9545 2.89938e-19)
(3.18127 6.63761 0)
(2.89175 6.30658 0)
(2.61978 5.96227 3.72327e-19)
(2.36606 5.60584 -3.12553e-21)
(2.13117 5.2381 -4.20638e-19)
(1.91535 4.86023 0)
(1.71914 4.47304 -4.68813e-19)
(1.54239 4.07811 0)
(1.38567 3.67666 0)
(1.24892 3.2702 -3.97508e-19)
(1.13313 2.86 -1.3579e-19)
(1.03817 2.44728 1.39515e-19)
(0.964895 2.03312 -7.22445e-20)
(18.4899 0.336367 1.82691e-21)
(18.4954 0.777018 -1.49988e-19)
(18.478 1.21731 4.36158e-19)
(18.4379 1.65505 2.87025e-19)
(18.3745 2.08929 -4.18877e-19)
(18.2883 2.51958 2.7732e-19)
(18.1801 2.94524 -4.19422e-21)
(18.0499 3.36513 -5.30305e-19)
(17.8981 3.77826 7.98945e-19)
(17.7251 4.18326 -1.03331e-18)
(17.5313 4.57903 9.55283e-19)
(17.3172 4.96436 -1.02307e-18)
(17.0835 5.33822 -4.84421e-19)
(16.8308 5.69979 0)
(16.5599 6.04795 4.89231e-19)
(16.2715 6.38165 4.00298e-19)
(15.9663 6.70024 0)
(15.645 7.00283 7.73682e-19)
(15.3086 7.2888 0)
(14.958 7.5575 -7.45997e-19)
(14.5944 7.80819 6.2377e-19)
(14.2187 8.04023 -3.97404e-20)
(13.8319 8.25285 -3.9208e-20)
(13.4351 8.44539 -3.20803e-21)
(13.0291 8.61752 -1.09028e-18)
(12.615 8.76881 -4.60427e-19)
(12.1939 8.89894 8.78968e-19)
(11.767 9.00775 7.548e-19)
(11.3354 9.09491 -3.67045e-19)
(10.9002 9.1602 0)
(10.4625 9.20343 0)
(10.0233 9.22476 0)
(9.58409 9.22413 1.81648e-19)
(9.14592 9.20169 -4.59502e-19)
(8.71011 9.15724 1.53635e-19)
(8.27755 9.09093 -5.36256e-20)
(7.84929 9.00299 6.45412e-20)
(7.42636 8.89371 -1.10663e-19)
(7.00971 8.76368 1.36323e-20)
(6.60063 8.61328 1.78478e-19)
(6.20018 8.44293 -1.69315e-19)
(5.80933 8.25328 -2.43453e-19)
(5.42929 8.04487 0)
(5.06101 7.81826 3.4086e-19)
(4.70542 7.57407 0)
(4.36346 7.31265 6.49562e-19)
(4.03544 7.03503 -2.25778e-19)
(3.72239 6.74196 0)
(3.42484 6.43449 2.84302e-19)
(3.14409 6.11335 1.69812e-20)
(2.88025 5.77928 -6.33553e-19)
(2.63405 5.4335 3.32059e-19)
(2.40623 5.07678 1.88701e-19)
(2.1967 4.7102 -3.6143e-19)
(2.00633 4.3345 6.25366e-21)
(1.8343 3.95108 -1.98702e-19)
(1.68169 3.56119 -1.02386e-19)
(1.54795 3.16633 -2.16884e-19)
(1.43458 2.76777 5.5947e-19)
(1.34113 2.3667 -2.30953e-19)
(1.26914 1.96404 2.98446e-20)
(18.3014 0.344661 3.17991e-20)
(18.3048 0.770149 0)
(18.2859 1.19527 -4.88065e-19)
(18.2448 1.61931 0)
(18.1815 2.04091 2.39758e-19)
(18.0964 2.45831 6.91266e-19)
(17.9898 2.87064 4.47957e-19)
(17.8619 3.27708 9.04452e-19)
(17.713 3.67672 7.53194e-21)
(17.5438 4.06854 -9.62501e-21)
(17.3547 4.45105 -5.93491e-20)
(17.1461 4.82339 -4.15783e-19)
(16.9183 5.18463 3.92329e-19)
(16.6723 5.53395 -1.14168e-18)
(16.4089 5.87032 7.69303e-19)
(16.1287 6.19265 -4.41457e-20)
(15.8321 6.50022 -6.69397e-19)
(15.5201 6.79221 -6.82314e-19)
(15.1933 7.06816 0)
(14.8529 7.32754 5.79555e-19)
(14.5 7.56953 -3.68407e-20)
(14.1355 7.79353 -1.1031e-18)
(13.7606 7.99874 -1.08784e-21)
(13.376 8.18439 -4.13851e-19)
(12.9826 8.35032 1.23772e-18)
(12.5814 8.49606 -3.7412e-20)
(12.1735 8.62137 -3.75528e-19)
(11.7599 8.72617 -5.74381e-20)
(11.342 8.81004 0)
(10.9207 8.87282 0)
(10.497 8.91413 0)
(10.0718 8.93447 0)
(9.64661 8.93363 0)
(9.22243 8.91198 3.97504e-20)
(8.80087 8.86895 -2.93799e-20)
(8.38237 8.80474 3.94347e-20)
(7.96808 8.71953 4.24736e-20)
(7.55888 8.61351 -8.96032e-20)
(7.15552 8.4875 -2.29076e-19)
(6.75948 8.34189 4.46626e-19)
(6.37182 8.17691 -3.48191e-19)
(5.99324 7.99338 2.28344e-19)
(5.6252 7.79182 0)
(5.26866 7.57274 -2.97241e-19)
(4.92441 7.33685 0)
(4.59372 7.084 -3.72033e-19)
(4.27605 6.81556 4.08368e-19)
(3.97311 6.53216 -2.14605e-19)
(3.68472 6.2351 -2.31472e-19)
(3.41294 5.92474 2.62615e-19)
(3.15735 5.6018 1.02808e-20)
(2.91872 5.26769 1.27979e-20)
(2.69811 4.92284 -5.9792e-19)
(2.4949 4.56853 6.34725e-19)
(2.31055 4.20502 3.29665e-19)
(2.14321 3.83406 1.68225e-19)
(1.99491 3.45656 5.34368e-19)
(1.86377 3.07423 0)
(1.75272 2.68824 -3.81786e-19)
(1.66045 2.29992 9.88154e-20)
(1.58963 1.90983 0)
(18.0974 0.359723 0)
(18.0984 0.770069 0)
(18.078 1.18002 2.12302e-19)
(18.0361 1.58863 -4.00032e-19)
(17.973 1.99493 -2.04651e-19)
(17.8893 2.39755 -9.84843e-19)
(17.7848 2.79497 3.75569e-19)
(17.6596 3.1864 -7.77083e-19)
(17.5141 3.57163 1.60225e-20)
(17.3492 3.94943 1.07417e-18)
(17.1654 4.31798 -1.42125e-18)
(16.9626 4.67663 0)
(16.7414 5.02429 0)
(16.5025 5.36087 1.29775e-18)
(16.2471 5.68506 6.13791e-19)
(15.9758 5.99516 -1.24345e-18)
(15.6886 6.29111 1.74577e-18)
(15.3863 6.57194 5.38608e-19)
(15.0697 6.83727 -1.04649e-18)
(14.7399 7.08702 -5.174e-19)
(14.3983 7.3198 4.56234e-19)
(14.0456 7.53545 -6.46715e-20)
(13.6831 7.73307 0)
(13.3117 7.91132 7.99538e-19)
(12.9314 8.07076 -1.07466e-18)
(12.5437 8.21075 3.38011e-19)
(12.1496 8.33084 5.54901e-19)
(11.7499 8.43159 -1.27973e-18)
(11.3465 8.51199 2.43103e-19)
(10.9397 8.57236 0)
(10.5311 8.61148 0)
(10.1203 8.63102 0)
(9.70998 8.62997 7.73427e-20)
(9.3003 8.60967 1.66593e-19)
(8.894 8.56841 -3.79862e-20)
(8.49041 8.50663 -2.33162e-20)
(8.09096 8.42458 -4.25038e-20)
(7.69662 8.32199 1.34643e-19)
(7.3072 8.20032 0)
(6.92484 8.05995 3.12145e-19)
(6.55085 7.90068 -1.57736e-19)
(6.18493 7.72364 7.39432e-21)
(5.82927 7.5294 1.21495e-20)
(5.48504 7.31841 -2.5601e-19)
(5.15239 7.09172 -1.25999e-20)
(4.83402 6.84784 1.0019e-18)
(4.52695 6.58941 -3.503e-19)
(4.23486 6.31618 7.88297e-19)
(3.95553 6.03045 0)
(3.69355 5.73181 0)
(3.44655 5.42064 -9.57809e-19)
(3.21546 5.0991 2.45531e-19)
(3.00285 4.76704 5.26959e-19)
(2.80587 4.42594 2.79686e-19)
(2.62857 4.07533 -8.70581e-19)
(2.46568 3.71758 -4.58201e-19)
(2.32238 3.35311 -1.60766e-19)
(2.1933 2.98418 -7.70596e-22)
(2.08512 2.61171 1.67256e-19)
(1.99342 2.23714 0)
(1.92418 1.86062 0)
(17.8698 0.371022 -2.14693e-20)
(17.8685 0.765283 0)
(17.8466 1.15922 0)
(17.8041 1.55212 1.78266e-19)
(17.7416 1.9425 0)
(17.6597 2.32944 6.69917e-19)
(17.5585 2.71105 3.25619e-19)
(17.4365 3.08657 -6.36395e-19)
(17.2944 3.45733 0)
(17.1345 3.82134 -6.36991e-19)
(16.9575 4.1745 4.13352e-20)
(16.7614 4.519 0)
(16.5478 4.85196 0)
(16.3164 5.17505 -5.65876e-19)
(16.0696 5.48728 5.07981e-19)
(15.8085 5.78418 -5.25169e-19)
(15.5313 6.06811 -5.03407e-19)
(15.2395 6.33766 0)
(14.9341 6.5913 4.57563e-19)
(14.6154 6.83117 -8.00658e-19)
(14.2861 7.05402 -7.53232e-19)
(13.9459 7.26104 -7.67915e-19)
(13.5963 7.45145 -2.33709e-21)
(13.2395 7.62137 -5.52256e-19)
(12.8726 7.77414 6.08047e-19)
(12.4988 7.90852 5.02326e-19)
(12.1198 8.02249 -4.9977e-19)
(11.7341 8.11943 4.8401e-20)
(11.3461 8.19576 -5.97435e-21)
(10.9539 8.25474 -3.35087e-19)
(10.5617 8.29046 0)
(10.1652 8.31019 -1.62401e-19)
(9.77101 8.30811 2.786e-19)
(9.37548 8.29053 -3.38078e-20)
(8.98633 8.2513 3.41889e-20)
(8.59878 8.192 5.37757e-20)
(8.21517 8.11375 -1.26433e-19)
(7.83761 8.01444 -2.25049e-19)
(7.46271 7.89748 4.0984e-19)
(7.09455 7.7628 -2.6169e-19)
(6.7359 7.60968 -3.37082e-19)
(6.38248 7.4394 -5.81333e-19)
(6.03928 7.25273 2.17626e-19)
(5.70834 7.05025 0)
(5.38649 6.83434 3.41391e-21)