/*--------------------------------*- C++ -*----------------------------------*\
| =========                 |                                                 |
| \\      /  F ield         | OpenFOAM: The Open Source CFD Toolbox           |
|  \\    /   O peration     | Version:  2.3.1                                 |
|   \\  /    A nd           | Web:      www.OpenFOAM.org                      |
|    \\/     M anipulation  |                                                 |
\*---------------------------------------------------------------------------*/
FoamFile
{
    version     2.0;
    format      ascii;
    class       volScalarField;
    location    "0.98";
    object      k;
}
// * * * * * * * * * * * * * * * * * * * * * * * * * * * * * * * * * * * * * //

dimensions      [0 2 -2 0 0 0 0];

internalField   nonuniform List<scalar> 
9648
(
2.70062
2.71192
2.7107
2.70754
2.70127
2.69086
2.67662
2.65856
2.63654
2.6105
2.58049
2.54675
2.50972
2.46996
2.42812
2.38493
2.34111
2.29735
2.25424
2.21229
2.17193
2.13348
2.09716
2.06313
2.03147
2.00221
1.97536
1.95087
1.92868
1.90872
1.89092
1.87518
1.86141
1.84954
1.83948
1.83115
1.82447
1.81937
1.81579
1.81367
1.81297
1.81365
1.81566
1.81898
1.82359
1.82949
1.8367
1.84524
1.85514
1.86642
1.87915
1.89337
1.90913
1.92643
1.9453
1.96558
1.98701
2.00908
2.03132
2.05331
2.07471
1.71204
1.7162
1.71826
1.71998
1.72322
1.73088
1.74513
1.76704
1.79645
1.83329
1.87727
1.92776
1.98387
2.04461
2.10898
2.17601
2.2448
2.31455
2.3846
2.4544
2.52352
2.59163
2.65851
2.72402
2.78805
2.85063
2.9118
2.97159
3.03006
3.08732
3.14349
3.19864
3.25287
3.30632
3.35906
3.41113
3.46267
3.51378
3.56446
3.61468
3.66454
3.71415
3.76348
3.8125
3.86133
3.90981
3.95796
4.0059
4.05368
4.10115
4.14825
4.19484
4.24103
4.28642
4.3313
4.37538
4.41889
4.4611
4.50228
4.54246
4.5817
1.39741
1.44537
1.49903
1.55886
1.62667
1.70355
1.78897
1.88248
1.98318
2.09031
2.20257
2.319
2.43846
2.5598
2.6819
2.80371
2.92435
3.043
3.15899
3.27182
3.3811
3.48659
3.5881
3.68562
3.77922
3.86901
3.9552
4.03789
4.11735
4.19378
4.26737
4.3384
4.40709
4.47357
4.53804
4.60071
4.66169
4.72117
4.77921
4.83594
4.89146
4.94582
4.99918
5.05157
5.103
5.15344
5.2029
5.25144
5.29892
5.34536
5.39073
5.43508
5.47862
5.52066
5.56214
5.60203
5.64108
5.67821
5.71464
5.74995
5.7842
1.3166
1.40866
1.51096
1.62286
1.74432
1.87524
2.0149
2.16203
2.31507
2.47254
2.63276
2.79435
2.95586
3.11615
3.27402
3.42841
3.57853
3.72369
3.86337
3.99722
4.12501
4.24657
4.36195
4.47129
4.57486
4.67294
4.76587
4.85397
4.93758
5.01701
5.09269
5.16493
5.23405
5.30038
5.36412
5.42556
5.4849
5.54235
5.59806
5.65219
5.70489
5.75632
5.80656
5.85575
5.9039
5.95107
5.99729
6.04258
6.08688
6.1302
6.17265
6.2139
6.25417
6.29328
6.33172
6.36896
6.40503
6.43993
6.47372
6.50643
6.53787
1.35162
1.4815
1.6251
1.7807
1.94713
2.12353
2.3084
2.49971
2.69549
2.89355
3.09194
3.2888
3.48274
3.67251
3.85694
4.0349
4.20567
4.36882
4.52393
4.67095
4.80973
4.94023
5.06268
5.17733
5.28471
5.38531
5.47956
5.56797
5.6509
5.72886
5.80232
5.87168
5.93747
5.99997
6.05948
6.11637
6.17092
6.22326
6.27367
6.32229
6.36932
6.41492
6.4593
6.50257
6.54477
6.58597
6.6262
6.66548
6.7039
6.74125
6.77768
6.81307
6.84729
6.88038
6.91251
6.94377
6.97386
7.00287
7.03071
7.05725
7.08254
1.4399
1.6031
1.7832
1.97761
2.18394
2.40041
2.62476
2.85448
3.08688
3.31924
3.54933
3.77488
3.99464
4.20715
4.41173
4.60698
4.79219
4.96733
5.13197
5.28645
5.43082
5.56494
5.68941
5.80439
5.91079
6.00932
6.10055
6.18519
6.2635
6.33612
6.40372
6.46664
6.52564
6.58112
6.63324
6.6825
6.72938
6.77388
6.81635
6.85695
6.89575
6.93312
6.96927
7.00437
7.03841
7.07152
7.10385
7.13514
7.16567
7.19526
7.22386
7.25144
7.27796
7.30326
7.32759
7.3509
7.3733
7.39469
7.41478
7.43337
7.45081
1.55922
1.75293
1.96655
2.19622
2.43827
2.69034
2.94937
3.21238
3.4764
3.73762
3.99411
4.24272
4.48262
4.71223
4.932
5.13943
5.33407
5.51647
5.68579
5.84316
5.98892
6.12237
6.24499
6.35618
6.45765
6.55047
6.63506
6.71279
6.78328
6.84747
6.90637
6.95986
7.0093
7.05514
7.09715
7.13615
7.17302
7.20723
7.23954
7.27
7.29841
7.3254
7.35125
7.37626
7.40005
7.42298
7.44524
7.46665
7.48746
7.50736
7.52634
7.54426
7.56118
7.57678
7.59115
7.6048
7.61767
7.62959
7.64002
7.64877
7.65636
1.69697
1.9186
2.16304
2.42474
2.69874
2.98173
3.27085
3.56274
3.85375
4.13918
4.41755
4.68413
4.93916
5.18025
5.41085
5.62628
5.82627
6.01247
6.18233
6.33837
6.48201
6.61085
6.72895
6.83275
6.92556
7.00924
7.0838
7.15195
7.21171
7.26464
7.31256
7.35383
7.39102
7.4247
7.45406
7.48028
7.50462
7.52564
7.54537
7.56354
7.57925
7.59338
7.60658
7.61919
7.63034
7.641
7.65068
7.65977
7.66835
7.6763
7.68329
7.68927
7.69452
7.69802
7.70031
7.70211
7.70277
7.7035
7.70216
7.69854
7.69437
1.84401
2.08834
2.36062
2.64831
2.95172
3.26017
3.5736
3.89181
4.20338
4.51001
4.80517
5.08792
5.3529
5.60066
5.83649
6.05682
6.25919
6.44603
6.61743
6.76889
6.90564
7.02758
7.13728
7.23443
7.31552
7.38605
7.44847
7.5045
7.55056
7.59011
7.62491
7.65326
7.67618
7.69469
7.70832
7.72026
7.72777
7.73264
7.7375
7.74
7.74022
7.73764
7.73678
7.73445
7.73031
7.72751
7.7207
7.715
7.70701
7.69917
7.68938
7.67971
7.67065
7.65936
7.64696
7.63479
7.61928
7.60819
7.59222
7.57258
7.55454
2.09522
2.11472
2.13333
2.15104
2.1679
2.18405
2.19974
2.21533
2.23083
2.24542
2.25879
2.27158
2.2839
2.29596
2.30806
2.32081
2.33458
2.3497
2.36649
2.38541
2.40616
2.42831
2.45158
2.47554
2.4999
2.52467
2.54999
2.57558
2.60135
2.62736
2.65373
2.68035
2.70723
2.73452
2.76215
2.79011
2.81849
2.84738
2.87672
2.90644
2.93663
2.96742
2.99875
3.0306
3.06307
3.09601
3.12942
3.16345
3.19814
3.23336
3.26915
3.30561
3.34285
3.38062
3.41927
3.45872
3.49927
3.54063
3.58314
3.62693
3.67209
4.62006
4.65634
4.6917
4.72629
4.75983
4.7919
4.82203
4.85088
4.87747
4.90329
4.92738
4.95044
4.97241
4.99335
5.01316
5.03171
5.04911
5.06532
5.08038
5.09427
5.10704
5.11872
5.12919
5.13851
5.1467
5.15372
5.15945
5.16364
5.16639
5.16766
5.16747
5.16585
5.16285
5.15846
5.15271
5.14569
5.13734
5.12777
5.11694
5.10489
5.09166
5.07729
5.06188
5.04536
5.02773
5.00891
4.98881
4.96748
4.94485
4.92095
4.89575
4.86917
4.84138
4.81191
4.78149
4.74953
4.71664
4.68235
4.64771
4.61258
4.57711
5.81679
5.84828
5.87819
5.90719
5.93514
5.96249
5.98795
6.0121
6.03404
6.0547
6.07371
6.09147
6.10783
6.12313
6.13716
6.14983
6.16117
6.17117
6.1798
6.18706
6.19301
6.19763
6.20093
6.2029
6.20354
6.20283
6.20079
6.19739
6.19259
6.18631
6.17861
6.16942
6.15875
6.14668
6.13317
6.11827
6.10197
6.0843
6.06525
6.04487
6.02322
6.0004
5.97645
5.95142
5.92526
5.89791
5.86923
5.83919
5.80771
5.7748
5.74044
5.70437
5.66671
5.62731
5.58638
5.54361
5.49924
5.45352
5.4069
5.35948
5.31138
6.56829
6.59744
6.6253
6.6516
6.67668
6.70056
6.72299
6.74384
6.763
6.78053
6.79644
6.81078
6.82357
6.83488
6.84459
6.85287
6.85967
6.86496
6.8687
6.87091
6.87164
6.87096
6.86887
6.86542
6.86053
6.85418
6.84635
6.83709
6.8264
6.81426
6.80061
6.7854
6.76863
6.75031
6.73053
6.70927
6.68651
6.66222
6.63639
6.60911
6.58048
6.55062
6.5197
6.48781
6.45499
6.42118
6.38617
6.34992
6.31234
6.27346
6.23314
6.19123
6.14773
6.10251
6.05555
6.00664
5.95599
5.90389
5.85081
5.79679
5.74226
7.10653
7.12936
7.15075
7.17057
7.1887
7.20526
7.22024
7.23357
7.24556
7.25619
7.26529
7.27288
7.27899
7.28351
7.2865
7.28806
7.28803
7.28643
7.28318
7.27828
7.27186
7.26404
7.2549
7.24449
7.23272
7.21954
7.20497
7.18906
7.1719
7.15348
7.13376
7.11254
7.08981
7.06559
7.04
7.01299
6.98447
6.95442
6.92272
6.88944
6.85475
6.8188
6.78187
6.74419
6.70589
6.667
6.62714
6.58634
6.54448
6.50171
6.45765
6.41211
6.36518
6.31659
6.26626
6.21373
6.15945
6.10354
6.04668
5.98885
5.93059
7.46694
7.48175
7.49501
7.5068
7.51687
7.52522
7.53198
7.53698
7.54035
7.54219
7.54266
7.54173
7.53932
7.53535
7.52982
7.52291
7.51456
7.50456
7.49277
7.47915
7.46392
7.44732
7.42951
7.41064
7.39053
7.36904
7.34624
7.3222
7.29722
7.27141
7.24474
7.2168
7.18759
7.15701
7.12535
7.09244
7.05806
7.02222
6.98468
6.94545
6.9047
6.86251
6.81935
6.77566
6.73173
6.68787
6.64327
6.59834
6.55268
6.50686
6.46009
6.41185
6.36264
6.31191
6.25971
6.20492
6.14844
6.09005
6.0312
5.97117
5.91082
7.66276
7.66788
7.67147
7.67348
7.67377
7.6723
7.66904
7.66422
7.65774
7.6494
7.63969
7.62883
7.61655
7.60272
7.58723
7.57063
7.55298
7.53367
7.51237
7.48883
7.46349
7.43686
7.4091
7.38065
7.3512
7.32031
7.28808
7.25445
7.22025
7.18582
7.15159
7.11642
7.08064
7.04369
7.00635
6.96808
6.92813
6.88687
6.84403
6.79952
6.75329
6.70519
6.65591
6.60617
6.55643
6.50782
6.45838
6.40963
6.36041
6.31259
6.26441
6.21442
6.1641
6.11236
6.05986
6.00378
5.94656
5.88683
5.82784
5.76718
5.7066
7.68881
7.68236
7.67424
7.665
7.65403
7.64165
7.62714
7.6121
7.59554
7.57628
7.55564
7.5345
7.51182
7.4877
7.46124
7.434
7.40709
7.37882
7.34852
7.31488
7.2786
7.24155
7.20323
7.16441
7.12556
7.08519
7.04336
6.99891
6.95361
6.90883
6.86654
6.82365
6.78172
6.73897
6.69746
6.65593
6.61145
6.56501
6.51781
6.46999
6.41994
6.36711
6.31268
6.25741
6.20194
6.14945
6.09494
6.04281
5.98996
5.94158
5.8941
5.8434
5.79326
5.74184
5.69095
5.63445
5.57807
5.51788
5.46097
5.40155
5.3432
7.53326
7.5128
7.48889
7.46619
7.44058
7.41729
7.38962
7.36481
7.33987
7.31183
7.28175
7.25221
7.21999
7.18757
7.14988
7.10991
7.07386
7.03897
7.00417
6.96449
6.91634
6.87059
6.82309
6.77321
6.72514
6.67685
6.62936
6.57587
6.51661
6.4587
6.40729
6.35549
6.3073
6.25934
6.21773
6.17813
6.13243
6.08045
6.02942
5.98148
5.93228
5.87728
5.81893
5.76035
5.70041
5.64591
5.58559
5.53048
5.47284
5.42669
5.38288
5.33205
5.28408
5.23537
5.18872
5.13243
5.07855
5.01821
4.9656
4.90969
4.8568
3.71862
3.76615
3.81497
3.86506
3.91648
3.96934
4.02358
4.07933
4.13632
4.19453
4.25408
4.31462
4.37605
4.44072
4.52057
4.59408
4.66621
4.73906
4.81266
4.88715
4.96257
5.03895
5.11616
5.19415
5.27273
5.35165
5.43079
5.50997
5.58898
5.6675
5.74542
5.82243
5.89813
5.9723
6.04458
6.11442
6.18135
6.24465
6.3
6.34042
6.36781
6.38286
6.3855
6.37505
6.35047
6.31032
6.25269
6.17524
6.07522
5.94942
5.79401
5.60446
5.37567
5.10125
4.74897
4.2145
3.9675
3.84174
3.79171
3.76653
3.71245
4.54101
4.50457
4.46737
4.42951
4.39102
4.35259
4.31399
4.27599
4.23807
4.20065
4.16451
4.12346
4.07881
4.03671
3.98958
3.94412
3.89868
3.85316
3.80799
3.76348
3.71962
3.67616
3.63299
3.59006
3.54729
3.50471
3.46231
3.4202
3.37839
3.33695
3.29599
3.25564
3.21602
3.17735
3.13988
3.10392
3.06987
3.03831
3.0099
2.98614
2.96452
2.94519
2.92853
2.91509
2.9058
2.90155
2.90338
2.91259
2.93065
2.95881
2.99832
3.05031
3.11613
3.19727
3.28564
3.4195
3.59643
3.86895
4.25617
4.75534
5.06054
5.2628
5.21373
5.16389
5.11298
5.06099
5.00844
4.95566
4.9031
4.85038
4.79746
4.74159
4.67783
4.61461
4.55473
4.49505
4.4361
4.37645
4.31609
4.25536
4.19472
4.1342
4.07356
4.01276
3.95178
3.89051
3.82898
3.76714
3.70501
3.64252
3.57968
3.51647
3.4529
3.38902
3.32485
3.26048
3.19599
3.13149
3.06711
3.00299
2.93936
2.87616
2.81305
2.75061
2.6896
2.63037
2.57349
2.51982
2.4706
2.42747
2.39259
2.36876
2.35955
2.36967
2.40439
2.46695
2.56833
2.7135
2.93356
3.27398
3.78623
4.39689
5.68735
5.6324
5.5768
5.5202
5.46223
5.40369
5.34492
5.28659
5.22807
5.16882
5.10314
5.03161
4.96259
4.89712
4.83287
4.76949
4.70574
4.64173
4.57759
4.51364
4.44979
4.38561
4.32123
4.25669
4.19186
4.12681
4.06146
3.99582
3.92976
3.86325
3.79626
3.72881
3.66093
3.59266
3.52405
3.4552
3.38615
3.31696
3.24764
3.1782
3.10861
3.03881
2.96811
2.89652
2.82467
2.75265
2.68073
2.60933
2.53916
2.47128
2.40714
2.34891
2.29951
2.26262
2.24199
2.24382
2.27669
2.35873
2.51999
2.80433
3.2353
5.87194
5.81367
5.755
5.69546
5.63405
5.57202
5.5097
5.44819
5.38639
5.32359
5.25289
5.17859
5.10756
5.04017
4.97402
4.90876
4.84334
4.77848
4.71395
4.65
4.58624
4.52188
4.45739
4.39286
4.32804
4.26308
4.19784
4.13232
4.06629
3.99977
3.93271
3.86521
3.79733
3.72919
3.66084
3.59241
3.52396
3.45556
3.38721
3.31892
3.25069
3.18255
3.11434
3.0455
2.97586
2.90555
2.83463
2.76317
2.69132
2.61944
2.54791
2.47734
2.40869
2.34314
2.28228
2.22911
2.18983
2.17544
2.20306
2.29837
2.49107
5.84973
5.78981
5.72978
5.66915
5.60571
5.54162
5.47688
5.4137
5.35035
5.28639
5.2138
5.13962
5.06896
5.00239
4.93649
4.87148
4.80619
4.7425
4.67964
4.61789
4.55643
4.49385
4.43146
4.3694
4.30697
4.24457
4.18177
4.11875
4.05498
3.99068
3.92573
3.8605
3.795
3.72951
3.664
3.5987
3.53363
3.46892
3.40453
3.34054
3.27696
3.21385
3.1512
3.08887
3.02639
2.96327
2.89954
2.83527
2.7705
2.70532
2.63982
2.57404
2.50795
2.44153
2.37463
2.3079
2.24384
2.18792
2.14925
2.1416
2.18402
5.644
5.58386
5.52401
5.4644
5.39999
5.33516
5.26888
5.20567
5.14252
5.08
5.00747
4.93542
4.86675
4.8034
4.73955
4.6769
4.61318
4.55257
4.49305
4.43518
4.37765
4.31792
4.25931
4.20191
4.14378
4.08589
4.02715
3.96842
3.90839
3.84785
3.78645
3.72524
3.66394
3.60317
3.54255
3.48254
3.42297
3.36417
3.30599
3.24871
3.19218
3.13666
3.08205
3.02834
2.97529
2.92247
2.86913
2.81531
2.76113
2.70675
2.65221
2.59748
2.54238
2.48644
2.42902
2.36953
2.30811
2.24656
2.18878
2.14137
2.11449
5.27985
5.22052
5.16248
5.10653
5.04249
4.97857
4.91152
4.85025
4.78931
4.73101
4.65985
4.59121
4.52545
4.46747
4.4068
4.3484
4.2872
4.23137
4.17649
4.12339
4.07074
4.01402
3.96031
3.91002
3.85762
3.8053
3.75117
3.69796
3.64213
3.58607
3.52865
3.47283
3.41696
3.36269
3.30839
3.25535
3.20253
3.15119
3.10081
3.05216
3.00456
2.95863
2.91416
2.87083
2.82854
2.78735
2.74592
2.70396
2.66194
2.62008
2.57867
2.53767
2.49691
2.45584
2.41374
2.36964
2.32281
2.27311
2.22153
2.17048
2.12446
4.79371
4.73493
4.68078
4.63138
4.56937
4.50783
4.44046
4.3838
4.32761
4.27602
4.20735
4.14257
4.07958
4.02895
3.97171
3.91946
3.86105
3.81177
3.76235
3.71335
3.66559
3.61089
3.56304
3.52385
3.47756
3.42951
3.37909
3.33239
3.27959
3.22752
3.17295
3.12425
3.07427
3.02813
2.98049
2.93536
2.88856
2.84532
2.80364
2.76516
2.72789
2.69274
2.65964
2.62776
2.59593
2.56475
2.53401
2.50248
2.47247
2.44282
2.41598
2.39017
2.36614
2.34217
2.31812
2.29261
2.26499
2.23425
2.20042
2.16323
2.12422
3.6195
3.51587
3.40321
3.28321
3.16133
3.04083
2.9245
2.816
2.71845
2.63384
2.56303
2.50591
2.4615
2.42826
2.40437
2.38798
2.37736
2.37122
2.3685
2.36834
2.37016
2.37351
2.37815
2.38391
2.39064
2.39844
2.40709
2.41662
2.42704
2.43828
2.45029
2.46301
2.47635
2.49016
2.50429
2.51856
2.53277
2.54669
2.56009
2.57278
2.58451
2.59508
2.60438
2.61234
2.61896
2.62438
2.62878
2.63239
2.63554
2.63863
2.64197
2.64582
2.65035
2.65575
2.66188
2.66863
2.67568
2.68282
2.68958
2.69541
2.6997
5.05196
4.97915
4.8564
4.68407
4.4921
4.28218
4.05234
3.81022
3.56426
3.32253
3.09138
2.87725
2.68384
2.51236
2.36343
2.23832
2.13625
2.0541
1.98869
1.93724
1.89719
1.86631
1.84261
1.8253
1.81215
1.80361
1.79838
1.79641
1.79733
1.80092
1.80697
1.81526
1.82551
1.83743
1.85067
1.86483
1.87944
1.89407
1.90816
1.92111
1.93225
1.94084
1.94607
1.94707
1.94319
1.93392
1.91902
1.89871
1.87377
1.84553
1.81576
1.78651
1.75987
1.73758
1.72058
1.70941
1.7036
1.70237
1.70431
1.70797
1.7111
4.89353
5.24522
5.43663
5.43959
5.30548
5.10819
4.84845
4.55153
4.23376
3.90711
3.58379
3.27506
2.98841
2.72883
2.49956
2.30212
2.13487
1.99361
1.87594
1.78075
1.70545
1.64693
1.60229
1.56815
1.54306
1.52433
1.5113
1.50282
1.49824
1.49697
1.49856
1.5026
1.50859
1.51603
1.52441
1.53322
1.54196
1.55006
1.55697
1.56208
1.56476
1.56445
1.56058
1.55266
1.54024
1.52298
1.50071
1.47353
1.4419
1.40678
1.36975
1.33313
1.29972
1.2724
1.25356
1.24515
1.24785
1.26152
1.28515
1.31713
1.35524
3.77176
4.36009
4.92
5.34454
5.55741
5.5935
5.46577
5.21394
4.89715
4.53504
4.15588
3.78265
3.4276
3.10172
2.80985
2.55211
2.32584
2.12988
1.96315
1.82476
1.71268
1.62444
1.55665
1.50544
1.46742
1.43959
1.42
1.40708
1.3996
1.39656
1.39725
1.40107
1.40732
1.41525
1.42416
1.43335
1.44212
1.44978
1.4556
1.45884
1.45877
1.45472
1.4461
1.43239
1.41322
1.38846
1.35815
1.32264
1.28248
1.23864
1.19259
1.14662
1.10382
1.06799
1.0433
1.03363
1.04115
1.06624
1.10793
1.16481
1.23507
2.80073
3.23624
3.78137
4.37402
4.9149
5.32623
5.55806
5.58638
5.44887
5.17255
4.80965
4.41675
4.01342
3.62603
3.26877
2.94451
2.65507
2.39888
2.17756
1.99102
1.83738
1.71479
1.61975
1.54756
1.49347
1.45354
1.42497
1.40561
1.3937
1.38772
1.38674
1.38997
1.39657
1.40558
1.41612
1.42733
1.43838
1.44842
1.4566
1.46202
1.4638
1.46117
1.45338
1.43983
1.42
1.39371
1.36097
1.32212
1.27763
1.22842
1.17583
1.12204
1.07009
1.0241
0.989565
0.972731
0.978048
1.00793
1.06251
1.13991
1.23712
2.29855
2.50881
2.83345
3.27436
3.80167
4.35809
4.86671
5.2462
5.45045
5.46816
5.31464
5.03454
4.66027
4.25132
3.84865
3.46147
3.10725
2.78696
2.49966
2.25171
2.0455
1.87999
1.75117
1.65283
1.57838
1.52253
1.48168
1.45309
1.43441
1.4235
1.41906
1.4202
1.42591
1.43503
1.44651
1.45933
1.47252
1.48512
1.49613
1.50456
1.50937
1.50973
1.50476
1.49378
1.47607
1.45138
1.41962
1.38108
1.33607
1.28541
1.23028
1.1727
1.11555
1.0628
1.0202
0.995275
0.994499
1.02337
1.08455
1.17687
1.29658
2.12218
2.1825
2.3162
2.54284
2.87306
3.30144
3.79825
4.30786
4.76196
5.09587
5.26568
5.26313
5.10733
4.83151
4.48017
4.07741
3.6796
3.29967
2.93699
2.6139
2.33913
2.11671
1.94334
1.80995
1.708
1.6302
1.57209
1.53024
1.50169
1.48317
1.47297
1.46996
1.47301
1.4807
1.49178
1.50506
1.51941
1.53374
1.54693
1.55786
1.5654
1.56869
1.56672
1.55879
1.54392
1.5219
1.49247
1.45595
1.41246
1.36282
1.30803
1.25008
1.19165
1.13642
1.08994
1.05987
1.05422
1.08119
1.14641
1.25057
1.38991
2.09068
2.07958
2.10517
2.1844
2.33487
2.57067
2.89684
3.30165
3.75487
4.20635
4.5965
4.87444
5.01294
5.00224
4.85804
4.6034
4.2749
3.89957
3.48274
3.08554
2.72742
2.43207
2.20174
2.02332
1.88513
1.77751
1.69493
1.63399
1.59142
1.56193
1.5432
1.53358
1.53189
1.53636
1.54548
1.55784
1.57212
1.58708
1.60146
1.614
1.62353
1.62916
1.62983
1.62485
1.61296
1.59395
1.56745
1.53377
1.49289
1.44562
1.39291
1.33664
1.27933
1.22442
1.17734
1.14542
1.13741
1.16369
1.23253
1.34714
1.50404
2.0863
2.05425
2.03601
2.04198
2.08539
2.181
2.3427
2.57941
2.88987
3.26096
3.65724
4.04219
4.37288
4.61486
4.73895
4.7365
4.61021
4.36684
4.04322
3.63981
3.20487
2.8353
2.5428
2.31077
2.12367
1.97441
1.85727
1.77005
1.70769
1.66244
1.63161
1.61211
1.60293
1.60205
1.60736
1.61721
1.63009
1.64447
1.65895
1.67191
1.68261
1.68974
1.69257
1.69013
1.68122
1.66524
1.64224
1.61166
1.57419
1.52997
1.48058
1.42736
1.37285
1.32062
1.27529
1.24402
1.236
1.26339
1.33561
1.45935
1.63005
0.301584
6.70296
6.40605
0.216874
0.366584
0.126639
0.00316215
2.45066
0.00337871
0.023425
3.29128
1.06945
0.00316388
5.9733
0.111002
5.45679
0.00326109
2.55301
3.59068
0.00315804
0.216596
5.79903
6.42005
0.00329984
0.00333285
0.105831
0.00316025
0.524142
0.0032474
0.00346
0.693717
0.00324713
0.0163566
2.51183
0.784162
3.36766
2.51432
1.55056
0.00316523
2.62807
1.91475
2.11079
0.00320903
4.73353
3.13711
0.281298
0.00360862
0.0151635
0.134123
1.09201
6.62197
7.93329
0.00310776
0.00405237
0.0378559
0.00900377
0.00345074
0.703501
2.39132
7.6299
2.54155
0.00369645
0.146551
0.0319765
6.69211
0.437409
1.9703
1.76241
0.00432599
0.00321287
1.22056
2.51197
1.74507
0.0145006
0.0398742
4.06147
7.02663
3.21251
0.0031085
0.930254
0.00711062
2.63394
0.010799
4.77203
0.00321773
1.05765
0.00336195
2.21852
0.0149375
0.00491514
0.119562
0.0031041
0.00378313
7.79741
5.64342
0.00359477
0.438147
0.294252
0.00605378
6.70853
0.20478
2.51076
0.736097
0.00310004
0.00316493
0.00309724
0.305773
0.124922
0.00324148
6.23353
6.89948
0.00936537
4.5201
1.5146
2.61943
2.73584
1.78093
0.00390983
0.0855828
0.00417952
0.00435878
3.39214
0.00725668
7.49632
7.85112
0.998031
0.00321413
1.0108
1.01981
0.00320981
0.0342464
0.0335397
1.76156
0.00565996
3.05478
0.0032195
0.00316024
7.82885
7.98601
0.00322917
0.160613
5.77447
0.10537
0.301874
1.55773
4.76095
0.0391939
1.64377
0.0121044
7.09702
1.23602
0.00933265
2.75979
4.70878
6.46836
0.00330582
0.00326718
0.216566
0.00311606
1.94072
0.0308465
0.0051152
0.0031986
0.00321883
0.00323668
2.78268
1.81373
1.59394
0.00332068
6.74267
4.77181
3.21737
4.85605
0.0140335
3.65187
1.69558
1.89172
0.00324014
0.00568546
2.95395
3.04188
2.16633
3.81269
0.00321476
0.00352235
4.83185
0.0361416
0.565158
0.00323739
0.00360498
0.104904
0.00339307
7.91937
0.671918
0.00310485
0.254906
1.856
5.48361
0.00449616
1.91711
0.00321721
0.0032327
4.80395
2.38811
7.32085
0.0045403
0.00339437
0.00768126
2.74714
2.18836
1.07139
5.15077
1.53927
7.01323
0.192852
4.29866
4.14692
2.04461
1.34646
2.32355
0.00487761
0.0370719
0.00322451
0.00320149
1.81803
0.0182081
0.0202104
0.00570006
0.0131705
2.71689
4.59834
0.0189541
6.07941
1.06516
0.390688
0.00318311
0.16403
2.73657
1.01844
0.00414431
1.14073
1.16312
0.18468
0.265446
7.37509
0.785274
0.500586
5.1785
0.0038414
0.00316134
0.00403418
0.0105285
1.74501
0.00336111
0.0064836
0.00316476
0.382733
3.95916
3.99547
2.7324
1.27459
1.4187
7.78629
0.00434696
2.06594
4.50363
0.0032094
1.97131
0.00321716
3.99794
0.381158
1.56316
0.0053389
0.00321956
1.85948
0.515782
0.00323893
0.00323601
0.00325046
0.00324581
0.359145
1.63265
2.95314
0.0148605
0.00324058
0.00316417
0.00309839
4.71307
0.228437
0.00446866
1.66294
0.0879235
0.0414913
0.00309187
0.26356
0.00323971
0.0502621
1.49135
4.66
0.299676
0.0039127
0.00595743
3.20239
0.140742
1.99869
7.72367
0.00350236
0.00319725
0.00318709
5.83589
0.00331091
4.77929
0.00322115
1.94017
1.19938
0.0272433
2.89281
3.91484
0.0046777
2.71148
2.71927
1.68098
4.68756
1.0746
7.98662
2.45738
3.87236
3.58154
4.51528
1.73621
0.157975
7.90482
7.47184
2.98221
2.13748
0.00395626
6.98115
2.71037
6.92123
0.0275705
0.00358626
0.00321401
0.00342347
0.178212
0.420843
0.688279
0.0924066
0.00317472
6.17155
0.00321477
1.46534
1.92546
6.4625
2.51999
1.80021
0.00595501
0.00425614
0.0883334
2.79316
0.0103192
0.751698
5.13931
2.04419
4.10143
6.27648
3.32662
0.0034623
7.46532
5.62395
1.77185
0.00323432
6.55942
5.83863
0.00333248
1.9791
0.00323804
6.85212
5.4663
1.86934
4.15314
2.48908
5.76982
0.00329232
5.75057
0.00386328
3.64561
3.95619
1.90521
7.43829
0.7142
0.213453
0.546698
0.00424008
4.31439
0.145138
0.00815757
0.00509148
4.43646
0.00383086
4.31989
0.00319222
0.00323525
0.00601261
1.80972
0.105148
1.82648
0.00570116
4.22401
0.163641
6.87404
4.37129
2.63494
6.21969
0.00338531
7.43546
2.85551
0.0032111
3.88367
2.04108
0.00310262
0.00316805
3.34219
0.00649799
1.90652
0.0881962
2.36378
0.0268645
0.597544
2.65812
4.77848
2.39342
3.91044
3.73413
0.00395479
0.0218575
1.68453
1.743
7.71691
6.46362
5.46515
0.0656581
5.21205
5.1894
0.496881
1.77864
2.88359
2.05701
0.00347838
4.08651
7.98757
0.00416307
4.42105
1.85088
2.91279
0.0242093
0.067984
6.1492
0.00596237
7.71363
0.00461866
0.265683
0.00320396
0.975738
2.3609
0.230826
0.00479857
0.00370384
2.70644
1.60467
0.0824587
0.411715
5.83521
4.12088
0.00450665
1.43089
1.64611
3.24959
1.50247
4.22009
1.95173
5.25029
3.19257
0.500107
0.99382
7.58767
1.94428
7.83136
6.15166
0.032278
3.34227
2.86921
0.00337888
1.85174
1.61185
1.32976
0.0174583
4.80057
1.48507
0.684586
1.94657
0.00546037
0.00321494
0.0425242
2.33059
4.59045
2.56869
0.00322112
0.00318945
0.00321531
1.70849
0.0279712
0.00321532
0.124343
4.37399
4.92951
0.0105417
0.0107712
0.00315543
0.00320523
0.00598323
1.75108
1.77441
1.71228
0.455606
7.74095
5.91101
0.00526872
3.32664
1.83331
1.9368
3.99691
7.56815
0.00346295
0.0104684
0.00323802
3.89676
0.24192
0.00316911
1.35147
0.162346
7.63267
0.00323854
7.88598
1.12079
0.0475304
6.63503
0.00323177
0.00319508
0.00404534
7.91323
3.20346
5.36661
5.0125
0.998732
1.75891
0.00312657
0.00602994
0.0879876
0.0133781
0.0251905
2.00762
2.13542
0.0032245
1.30558
1.82514
6.41224
7.90418
0.00823585
7.86821
0.0059104
0.0303717
3.52903
0.00320143
5.63105
0.00324077
0.0033669
0.0224385
2.13779
0.623413
2.60743
1.91408
0.00365852
1.76063
4.61913
0.0522218
0.211911
0.855967
0.00331493
0.00326718
0.00694217
5.39032
0.550827
0.00335834
7.50482
5.91139
6.84415
0.0321659
2.01997
0.00421472
2.35831
0.165929
0.0914281
2.63081
1.66637
1.94884
6.1924
0.00327929
0.00313281
0.0104468
4.15654
4.71735
0.964112
0.0138937
0.00333379
0.00323893
0.00881152
0.0268373
0.00661212
2.16246
1.72642
0.0116118
1.56127
6.1952
0.00327127
2.37964
0.00321761
0.536209
0.00324484
0.0222434
2.44164
0.0201419
0.00320607
0.758263
8.01355
7.27618
0.00318981
0.00326415
0.38547
0.0280703
0.00321639
4.41625
0.00370092
1.67144
8.00092
2.33346
1.74295
2.49745
3.64862
7.73378
0.00322913
0.00745881
0.0149044
4.20612
1.47865
6.66959
0.667996
0.363674
4.25984
3.5714
5.25981
0.732847
2.8254
0.0032224
0.355498
1.68511
2.47732
3.91522
2.01832
0.223635
2.48184
0.102889
0.00937553
1.75454
0.0032394
5.62356
0.00366296
0.387316
7.52771
2.78161
0.556534
0.00742366
0.761383
0.00329894
0.00319168
0.10709
0.0225591
1.80703
0.015299
1.73776
0.00322131
0.0280238
0.00316629
4.52968
0.00509275
4.0938
2.56463
0.0219959
1.96254
7.63858
0.00325809
1.75012
4.37044
0.00335923
7.48904
0.0611369
0.00348425
0.00339473
7.38338
0.00317847
0.00429013
0.0871965
0.101324
7.24835
7.39189
0.00322106
0.00327
1.08993
2.26409
0.014625
0.258705
1.98765
0.0032177
0.00383403
0.00372425
6.10122
7.37192
0.493893
7.21775
0.0261663
1.59966
0.00332479
0.0148015
0.0249564
0.0366172
0.00322992
6.85627
0.00320089
0.0250818
0.00332166
0.242572
0.0225216
0.0148655
0.448319
0.674417
2.28967
0.406159
1.05072
1.82022
5.03474
0.00343912
4.77501
7.85661
1.12305
3.99052
0.0032789
4.31752
4.03905
0.00321579
7.54215
2.29904
0.00811152
0.0107386
5.8942
5.67026
0.0572571
7.74584
7.46181
0.790322
7.45051
7.44853
4.89132
1.91887
1.71383
1.01533
7.42058
7.68237
0.0219723
7.49734
2.68585
4.33592
0.00343327
0.337336
0.381657
6.86149
6.06992
0.020264
4.29171
6.46157
0.474375
0.0339836
0.390474
1.81178
0.00535241
1.84786
7.06617
0.0339455
6.8133
1.37373
4.47366
6.45635
0.00322223
0.00566676
1.04287
0.695155
0.0183742
0.00321834
0.194734
0.266603
0.004514
0.00323648
4.23505
0.976149
3.15361
1.00573
0.00863048
0.00417247
0.0886671
3.34043
0.00346003
1.84091
1.68466
0.477125
2.36631
0.00397254
0.119935
0.00320214
0.352463
4.30118
0.0043499
0.118611
2.09541
5.86134
0.224928
3.93866
0.600967
0.165614
0.00392832
2.381
7.90372
0.00321145
0.0032823
5.74015
0.0245632
0.00323562
3.85148
0.246629
1.96065
2.00284
1.50127
0.145412
1.69986
3.4607
5.98012
4.34753
0.00327548
5.54023
0.00389039
2.51833
0.00340149
0.004524
2.10044
0.0065764
3.84177
0.0207797
0.0398399
1.87055
0.737088
0.0645042
0.00367412
6.4309
0.00364355
0.00315327
7.96952
5.99552
2.77225
1.92596
0.00343443
0.00307297
1.84152
5.74219
0.00319865
6.75281
1.70839
0.00324247
6.00001
0.00311715
0.365401
0.900589
1.34336
0.355273
1.62219
1.91602
0.00311315
7.43803
7.50679
0.00321542
0.0169538
1.92206
0.0031316
7.03728
5.30549
4.39937
0.00321765
0.00317071
3.46433
0.0414969
0.00350258
1.83063
1.7455
4.13839
0.00315381
0.00338028
0.0243733
0.0195268
0.00321704
0.00643198
5.17816
2.87309
0.00322238
1.33686
0.00321471
0.729574
0.00421896
0.0035862
2.22245
0.00326661
0.122978
0.00317615
3.03789
0.186305
1.73111
6.29304
4.36572
3.61866
0.805674
1.21722
0.00323548
0.925039
7.44841
4.11383
0.106997
0.00346686
5.33857
0.00321468
0.0308873
0.00315605
7.30692
0.799405
0.378821
6.61054
2.2287
0.498654
4.13387
0.731791
6.82979
4.47844
0.00331012
0.003275
0.00818262
0.00323257
0.0228386
4.56453
0.003782
7.30021
0.00600169
0.0746912
0.57523
4.62063
0.00488647
2.7452
0.017075
3.21159
2.3816
7.07619
0.0033994
0.00384738
0.251198
3.61254
1.71422
3.62256
0.417261
1.05529
1.68573
0.0508858
1.06351
0.264548
1.68197
0.003283
4.31097
0.414669
3.07421
0.00336464
2.98465
1.00852
0.00460174
1.67384
1.76587
0.0655497
0.00314927
0.00321798
4.80279
2.75337
1.36341
0.00320712
0.0176185
1.98405
6.34035
0.468373
0.0126326
0.00322425
5.72376
5.38053
2.07155
2.60323
0.00321318
3.48581
7.59276
0.00321104
0.00321772
1.25501
0.00410486
0.00988423
0.0315113
1.9646
0.00411257
2.2026
7.81599
0.00320503
0.00346396
0.00316808
0.0033059
3.70675
4.63935
7.93952
0.029057
2.38963
2.18637
0.0872714
2.89704
0.00348245
1.68607
0.221481
2.07479
0.682132
1.68101
3.08158
0.0290197
0.00323894
5.93747
4.49183
4.62968
0.898311
1.77659
0.175201
1.57464
0.00929477
0.00483539
3.37822
5.63237
0.0217872
0.129454
0.00324515
0.0782463
1.87124
0.0279842
1.04908
0.696614
3.8499
2.15184
0.434716
6.81257
5.4361
2.93198
1.61205
4.14532
3.5029
0.557239
2.60992
0.00612093
2.74432
2.88859
0.00320397
0.00313645
0.123108
0.00322659
0.00333092
2.99712
4.37661
0.00322004
3.20395
0.00321469
0.0031923
0.00321565
0.003263
0.00595222
1.93607
2.83379
7.18541
0.00315983
0.00390647
0.945059
0.00355451
0.0331454
0.00324573
0.00361027
4.31312
0.00391021
0.0109649
2.86077
0.0104956
0.00321966
3.88148
0.00321418
0.00326656
0.268114
0.00360507
0.946229
0.00458501
0.0301413
0.00320422
0.00325402
7.65483
7.7904
2.81125
0.0269437
2.92416
1.54302
0.00474247
1.76156
4.13962
6.97739
4.57793
0.00312647
1.93864
2.53526
0.146707
1.73565
4.45819
0.173611
2.05572
0.214705
1.71441
0.0380668
1.00731
0.00323489
6.95573
0.00329134
1.79196
2.43893
0.00321514
0.31336
0.00731157
0.0192395
0.00317636
0.762464
0.00366338
0.00322155
2.5299
0.00958206
0.110549
6.91817
1.94242
0.0034605
0.00388279
2.36263
7.33106
0.00309368
0.00324645
0.0734831
1.3841
5.53815
0.00660336
1.61955
0.00321794
0.00344317
0.00314808
0.0349421
1.01911
0.010174
6.47145
1.80945
7.31259
6.19734
0.00351904
7.40811
3.69853
0.00317934
0.00322625
0.00321814
0.00439519
0.00320256
3.74201
0.003208
0.00323933
6.74762
0.321765
0.00775915
0.0216038
1.98341
0.906146
0.00826759
0.00345946
6.38813
0.00324545
0.819614
0.00326226
0.00352367
6.03155
6.01773
0.00870045
0.00351381
0.334082
0.00320643
6.82139
0.00325536
5.79608
0.0248165
0.746774
0.0333017
0.381156
0.3736
1.53341
0.00324275
0.00356611
0.0115789
3.39782
0.120864
7.62646
0.00321937
0.00459541
0.00555923
7.28574
2.77817
3.13291
0.00695294
0.00902108
0.213311
0.00322349
1.29336
2.43151
0.0170164
5.85697
6.17938
2.01763
0.00534375
0.385357
2.90389
7.00533
1.79704
0.0188672
3.06806
0.06228
5.43354
0.0916919
0.517467
2.73962
0.00324365
1.75726
0.00454878
0.0118744
0.00807643
0.0501635
0.00370189
1.26564
0.00322646
3.08389
0.0957982
0.00361192
0.247174
0.00323205
0.284002
0.11761
2.29651
0.474468
4.67217
0.241089
0.00321697
0.0031903
0.726914
0.0919045
2.83501
7.33617
0.00322406
3.85797
2.65255
0.0232379
2.04011
0.577959
2.35526
2.16838
0.0336939
0.00588822
7.29939
1.57073
5.86316
0.00321077
1.65039
0.00321539
1.25698