/*--------------------------------*- C++ -*----------------------------------*\
| =========                 |                                                 |
| \\      /  F ield         | OpenFOAM: The Open Source CFD Toolbox           |
|  \\    /   O peration     | Version:  2.3.1                                 |
|   \\  /    A nd           | Web:      www.OpenFOAM.org                      |
|    \\/     M anipulation  |                                                 |
\*---------------------------------------------------------------------------*/
FoamFile
{
    version     2.0;
    format      ascii;
    class       volScalarField;
    location    "0.98";
    object      nut;
}
// * * * * * * * * * * * * * * * * * * * * * * * * * * * * * * * * * * * * * //

dimensions      [0 2 -1 0 0 0 0];

internalField   nonuniform List<scalar> 
9648
(
0.000272437
0.000272957
0.000272888
0.000272752
0.000272464
0.000271932
0.000271199
0.000270285
0.000269172
0.000267842
0.000266288
0.00026455
0.000262626
0.000260528
0.000258305
0.000256004
0.000253648
0.00025126
0.000248881
0.000246552
0.000244289
0.000242111
0.000240045
0.000238089
0.000236246
0.000234534
0.000232955
0.000231508
0.000230184
0.000228989
0.000227916
0.000226961
0.000226121
0.000225396
0.000224774
0.000224259
0.000223849
0.000223538
0.000223313
0.000223175
0.000223132
0.000223173
0.000223295
0.000223505
0.000223791
0.000224144
0.000224577
0.000225103
0.000225713
0.000226393
0.000227156
0.000228022
0.000228968
0.000229996
0.000231117
0.00023233
0.0002336
0.000234869
0.000236147
0.00023743
0.0002387
0.000446524
0.000452282
0.000458839
0.00046604
0.0004736
0.000480874
0.000489144
0.000499986
0.000513585
0.000529867
0.000548908
0.00057101
0.000596125
0.000624117
0.000654821
0.000688153
0.000723879
0.000761654
0.000801163
0.000842238
0.000884531
0.000927791
0.000971832
0.00101638
0.00106117
0.00110607
0.001151
0.00119578
0.00124027
0.00128436
0.00132807
0.00137124
0.00141381
0.00145581
0.00149717
0.0015378
0.00157776
0.00161707
0.00165567
0.00169338
0.00173027
0.00176643
0.00180175
0.00183615
0.00186975
0.00190228
0.00193373
0.00196429
0.00199403
0.00202276
0.00205057
0.00207738
0.00210342
0.00212822
0.00215242
0.00217583
0.00219908
0.00222117
0.00224276
0.00226411
0.0022854
0.000764976
0.00080648
0.000848621
0.000889701
0.000931796
0.000977494
0.00102579
0.0010778
0.0011329
0.00119172
0.00125355
0.00131894
0.00138781
0.00146008
0.00153556
0.00161398
0.00169503
0.00177822
0.00186312
0.00194931
0.00203636
0.00212394
0.00221162
0.00229908
0.00238603
0.00247229
0.00255772
0.00264206
0.00272526
0.0028072
0.00288779
0.00296702
0.00304492
0.00312136
0.00319634
0.00326995
0.0033421
0.00341291
0.00348232
0.00355033
0.00361696
0.00368214
0.00374605
0.00380864
0.00386983
0.00392964
0.00398801
0.00404516
0.00410087
0.00415531
0.00420846
0.00426041
0.00431173
0.00436096
0.0044104
0.00445771
0.00450478
0.00454888
0.00459315
0.00463661
0.0046794
0.00122529
0.00130624
0.00138824
0.00147009
0.00155322
0.00163913
0.00172782
0.00181959
0.00191421
0.00201221
0.00211324
0.00221773
0.00232546
0.00243655
0.00255062
0.00266734
0.00278631
0.00290698
0.00302888
0.00315151
0.00327445
0.00339719
0.00351937
0.0036407
0.00376092
0.00387979
0.00399719
0.00411295
0.00422701
0.0043392
0.00444965
0.00455829
0.0046651
0.00477019
0.00487346
0.00497503
0.00507486
0.00517307
0.00526964
0.00536461
0.00545801
0.00554989
0.00564021
0.00572912
0.00581652
0.00590244
0.00598693
0.00607003
0.00615156
0.00623159
0.00631059
0.00638748
0.00646305
0.00653672
0.00661016
0.00668146
0.00675073
0.00681804
0.00688379
0.00694793
0.0070095
0.00176359
0.0018751
0.00199015
0.00210702
0.00222598
0.00234801
0.00247334
0.00260181
0.00273357
0.00286877
0.00300728
0.00314914
0.00329433
0.00344277
0.00359399
0.00374741
0.00390247
0.00405874
0.00421563
0.00437271
0.00452945
0.00468538
0.00484009
0.0049933
0.00514481
0.0052945
0.00544215
0.00558769
0.00573102
0.00587208
0.00601089
0.00614749
0.00628199
0.00641435
0.00654456
0.00667279
0.00679905
0.00692328
0.00704559
0.00716598
0.00728454
0.00740123
0.00751619
0.00762939
0.00774082
0.00785046
0.00795824
0.00806422
0.0081686
0.00827073
0.00837126
0.00846979
0.00856577
0.00865944
0.00875125
0.00884136
0.00892852
0.00901334
0.00909585
0.00917547
0.00925213
0.00231156
0.00244501
0.00258791
0.00273692
0.00289063
0.00304877
0.00321124
0.00337783
0.00354813
0.00372205
0.0038993
0.00407954
0.00426286
0.00444888
0.00463737
0.00482757
0.00501854
0.0052101
0.00540144
0.00559221
0.00578201
0.00597016
0.00615643
0.00634034
0.00652191
0.00670104
0.00687765
0.00705165
0.00722279
0.00739112
0.00755672
0.00771952
0.00787977
0.00803751
0.00819265
0.00834532
0.00849566
0.0086436
0.00878918
0.00893236
0.00907307
0.00921149
0.00934768
0.00948166
0.00961337
0.00974289
0.00987044
0.00999493
0.0101173
0.0102373
0.0103547
0.0104695
0.0105815
0.0106903
0.0107967
0.0108997
0.0109998
0.0110972
0.0111915
0.0112816
0.0113691
0.00284093
0.00299253
0.00316282
0.00334472
0.00353473
0.0037311
0.00393307
0.00413997
0.00435112
0.00456561
0.00478329
0.00500321
0.00522534
0.00544937
0.00567572
0.00590301
0.00613013
0.00635706
0.00658264
0.0068067
0.00702918
0.00724903
0.00746626
0.00767988
0.0078902
0.00809751
0.0083016
0.00850277
0.00870025
0.00889414
0.00908472
0.00927152
0.00945515
0.0096359
0.00981332
0.00998758
0.0101592
0.0103277
0.0104934
0.0106561
0.0108155
0.0109716
0.0111249
0.0112753
0.0114225
0.0115668
0.0117084
0.0118468
0.0119824
0.0121146
0.0122437
0.0123695
0.0124916
0.0126102
0.0127248
0.0128363
0.0129444
0.0130486
0.0131487
0.0132446
0.0133366
0.00334723
0.00351515
0.00371329
0.00392913
0.00415733
0.00439306
0.00463594
0.00488493
0.00513797
0.00539465
0.00565406
0.00591491
0.0061763
0.00643787
0.00670158
0.00696627
0.00723007
0.00749308
0.00775327
0.00800987
0.00826462
0.00851582
0.00876427
0.00900724
0.00924466
0.00947855
0.0097084
0.00993527
0.0101577
0.0103755
0.0105896
0.0107979
0.0110017
0.0112025
0.0113994
0.0115919
0.0117813
0.0119669
0.0121493
0.0123287
0.0125036
0.0126738
0.0128393
0.0130016
0.0131594
0.0133133
0.0134634
0.0136091
0.0137516
0.0138903
0.0140248
0.0141551
0.0142822
0.0144048
0.0145223
0.0146356
0.0147448
0.0148509
0.0149518
0.0150471
0.0151374
0.00383694
0.00401683
0.00424214
0.00448824
0.00475592
0.00502915
0.00531126
0.00560365
0.00589553
0.00619508
0.00649497
0.00680036
0.00710082
0.0073993
0.00769541
0.00799685
0.00829713
0.00859685
0.0088968
0.00918335
0.00946823
0.0097519
0.0100325
0.0103102
0.0105715
0.0108302
0.0110838
0.0113339
0.0115812
0.0118219
0.0120615
0.012292
0.0125081
0.0127251
0.0129415
0.0131484
0.0133501
0.0135498
0.0137444
0.0139396
0.0141308
0.0143175
0.0144905
0.0146608
0.014828
0.0149856
0.0151406
0.0152855
0.0154314
0.0155681
0.0157042
0.015828
0.0159523
0.016077
0.0161944
0.0162993
0.016405
0.0165027
0.0166018
0.0166938
0.0167745
0.000239877
0.000240953
0.000242003
0.000243025
0.000244001
0.000244902
0.000245769
0.00024664
0.000247509
0.00024832
0.000249048
0.000249761
0.000250443
0.000251095
0.000251749
0.000252451
0.000253208
0.000254022
0.000254919
0.000255936
0.000257045
0.000258224
0.000259465
0.000260734
0.000262009
0.000263302
0.000264624
0.000265954
0.000267282
0.000268619
0.000269965
0.000271315
0.00027267
0.000274041
0.000275417
0.000276804
0.000278212
0.00027964
0.000281075
0.000282516
0.000283983
0.00028547
0.000286973
0.000288504
0.000290051
0.000291597
0.000293158
0.000294755
0.000296378
0.000297998
0.000299635
0.000301313
0.000303003
0.000304701
0.000306437
0.000308214
0.000310025
0.000311821
0.000313663
0.000315586
0.000317594
0.00230677
0.00232589
0.00234456
0.00236318
0.00238142
0.00239848
0.00241349
0.00242757
0.00243906
0.00245051
0.00246035
0.00246949
0.00247752
0.00248445
0.00249021
0.00249455
0.00249754
0.00249904
0.00249912
0.00249783
0.00249536
0.00249191
0.00248743
0.00248203
0.00247579
0.00246873
0.0024609
0.00245216
0.00244261
0.00243218
0.00242083
0.00240867
0.00239571
0.00238189
0.00236725
0.00235188
0.00233568
0.00231878
0.00230115
0.00228283
0.00226382
0.00224413
0.0022239
0.00220309
0.00218165
0.00215957
0.00213678
0.00211337
0.00208921
0.00206438
0.00203887
0.00201265
0.00198583
0.00195779
0.00192959
0.00190024
0.00187051
0.00183961
0.00180896
0.00177815
0.00174722
0.00471984
0.00475919
0.00479565
0.0048309
0.00486472
0.00489831
0.00492824
0.00495677
0.00498175
0.00500574
0.00502743
0.0050475
0.00506512
0.00508122
0.00509541
0.00510767
0.00511807
0.0051266
0.00513332
0.0051383
0.00514178
0.0051437
0.00514418
0.00514325
0.00514092
0.0051372
0.00513218
0.00512579
0.00511806
0.00510882
0.00509822
0.00508612
0.00507253
0.00505758
0.00504112
0.00502327
0.00500396
0.00498327
0.00496118
0.00493779
0.00491317
0.00488743
0.00486061
0.00483287
0.00480406
0.00477418
0.00474307
0.00471073
0.00467701
0.00464189
0.00460554
0.0045672
0.00452734
0.0044855
0.00444261
0.00439742
0.00435035
0.00430173
0.00425237
0.00420218
0.00415094
0.00706942
0.00712673
0.0071818
0.0072338
0.0072837
0.00733148
0.00737661
0.0074187
0.0074579
0.00749497
0.00752942
0.00756102
0.00759012
0.00761715
0.00764145
0.00766353
0.00768329
0.00770075
0.00771594
0.00772899
0.00774
0.00774915
0.00775639
0.00776188
0.00776555
0.00776741
0.00776743
0.00776567
0.00776222
0.00775696
0.0077498
0.0077407
0.00772964
0.00771657
0.00770154
0.00768455
0.00766551
0.00764437
0.00762121
0.00759613
0.00756931
0.00754082
0.00751102
0.00747999
0.00744781
0.0074144
0.00737957
0.00734319
0.00730522
0.00726538
0.0072238
0.00717999
0.00713373
0.00708499
0.00703405
0.00698037
0.00692368
0.00686488
0.00680466
0.00674256
0.00667915
0.00932567
0.00939693
0.00946513
0.00953001
0.00959124
0.00964973
0.00970539
0.00975684
0.009805
0.00985072
0.00989318
0.00993266
0.00996953
0.0100034
0.0100346
0.0100635
0.0100888
0.0101116
0.0101315
0.0101486
0.0101633
0.0101756
0.0101858
0.0101939
0.0101997
0.0102034
0.0102049
0.0102045
0.0102022
0.0101982
0.0101922
0.010184
0.0101736
0.0101609
0.010146
0.0101287
0.0101088
0.0100864
0.0100612
0.0100335
0.0100034
0.00997116
0.00993715
0.00990177
0.00986522
0.00982758
0.00978858
0.00974764
0.00970532
0.00966149
0.00961556
0.00956721
0.00951615
0.00946199
0.00940498
0.00934391
0.00927965
0.00921266
0.00914344
0.00907163
0.00899851
0.0114527
0.011533
0.0116092
0.0116825
0.0117515
0.0118166
0.0118782
0.0119353
0.0119888
0.0120385
0.0120853
0.0121287
0.0121688
0.0122058
0.0122395
0.0122701
0.0122972
0.0123213
0.0123418
0.0123587
0.0123723
0.0123832
0.0123915
0.0123974
0.0124007
0.0124014
0.0123995
0.0123953
0.0123893
0.0123818
0.012373
0.012362
0.012349
0.0123337
0.0123162
0.0122962
0.0122732
0.0122473
0.0122183
0.0121861
0.0121508
0.0121124
0.0120717
0.0120293
0.0119856
0.0119412
0.0118954
0.0118482
0.0117996
0.0117502
0.0116988
0.0116447
0.0115879
0.0115281
0.0114649
0.0113969
0.0113251
0.0112493
0.0111714
0.0110907
0.011008
0.0134246
0.0135085
0.013588
0.0136632
0.0137342
0.0138013
0.0138638
0.0139215
0.0139753
0.0140249
0.0140706
0.0141131
0.0141522
0.0141873
0.0142187
0.0142473
0.0142725
0.0142942
0.0143117
0.0143244
0.014333
0.0143383
0.0143404
0.0143398
0.0143364
0.0143297
0.0143196
0.0143062
0.0142907
0.0142742
0.0142574
0.0142391
0.0142196
0.0141982
0.0141757
0.014151
0.0141226
0.0140911
0.0140564
0.0140186
0.0139772
0.0139317
0.0138826
0.0138312
0.0137782
0.0137252
0.01367
0.0136139
0.0135565
0.0135
0.013442
0.0133806
0.0133175
0.0132513
0.0131823
0.0131071
0.0130278
0.0129434
0.0128575
0.012768
0.0126762
0.0152235
0.0153046
0.0153807
0.0154515
0.0155176
0.0155784
0.0156351
0.0156875
0.0157362
0.0157803
0.0158196
0.0158559
0.0158889
0.0159182
0.0159426
0.0159632
0.0159824
0.015999
0.0160115
0.0160181
0.0160185
0.0160154
0.0160087
0.0159983
0.0159854
0.0159687
0.0159482
0.015922
0.0158913
0.0158589
0.0158284
0.0157966
0.0157655
0.0157331
0.0157026
0.0156718
0.0156361
0.0155957
0.015553
0.0155089
0.0154618
0.0154103
0.0153531
0.0152925
0.0152301
0.0151683
0.0151022
0.0150358
0.014967
0.0149015
0.0148364
0.0147659
0.0146947
0.0146218
0.0145476
0.0144656
0.0143795
0.0142866
0.0141932
0.0140958
0.0139967
0.0168556
0.0169289
0.0169979
0.0170544
0.0171086
0.0171498
0.0171926
0.0172243
0.0172586
0.0172944
0.0173227
0.0173385
0.017359
0.0173786
0.017393
0.0173993
0.0174023
0.017406
0.0174118
0.017413
0.0174028
0.017391
0.017378
0.0173565
0.0173316
0.0173031
0.0172732
0.0172392
0.0171927
0.0171397
0.0170901
0.0170383
0.0169886
0.0169363
0.016891
0.0168519
0.0168078
0.0167537
0.0166978
0.016643
0.0165881
0.0165363
0.016473
0.0164043
0.0163378
0.0162686
0.0161966
0.01612
0.0160409
0.015964
0.0158905
0.0158085
0.0157244
0.0156455
0.0155635
0.0154784
0.0153853
0.0152875
0.0151855
0.0150824
0.0149754
0.000319601
0.00032159
0.000323659
0.000325805
0.000328001
0.0003302
0.000332436
0.000334736
0.000337079
0.000339448
0.000341838
0.000344275
0.000346727
0.00034927
0.00035239
0.000355257
0.00035805
0.00036083
0.000363611
0.000366417
0.000369233
0.000372063
0.000374914
0.000377767
0.000380608
0.000383444
0.000386276
0.000389092
0.000391873
0.000394622
0.000397328
0.000399982
0.000402571
0.000405095
0.000407532
0.000409875
0.000412117
0.00041423
0.000416058
0.00041738
0.000418283
0.000418779
0.000418865
0.000418536
0.000417735
0.000416398
0.000414479
0.000411913
0.000408577
0.000404313
0.000398984
0.000392418
0.000384321
0.000374371
0.000361213
0.000340298
0.000330184
0.000324874
0.000322725
0.000321662
0.000319395
0.00171575
0.00168424
0.00165221
0.00161999
0.00158757
0.00155525
0.00152248
0.00149002
0.00145747
0.00142534
0.00139392
0.00136227
0.00133111
0.0013002
0.00126582
0.00123152
0.00119767
0.00116445
0.00113196
0.00110023
0.00106924
0.00103881
0.00100893
0.000979555
0.000950677
0.000922331
0.000894488
0.0008672
0.000840441
0.000814219
0.000788569
0.000763512
0.000739041
0.000715202
0.000692051
0.000669607
0.000647968
0.000627211
0.0006069
0.000584418
0.00056129
0.000539178
0.000518094
0.000498223
0.000479666
0.000462625
0.000447376
0.000434184
0.000423319
0.000415118
0.00040995
0.000408254
0.000410454
0.000417007
0.000427104
0.000449872
0.00048529
0.000542119
0.000629569
0.000755078
0.000872646
0.00409918
0.00404671
0.00399334
0.00393854
0.00388251
0.00382554
0.00376758
0.00370909
0.00365001
0.00359095
0.00353024
0.00346951
0.00341149
0.00335345
0.00329276
0.00322968
0.00316522
0.00310055
0.003036
0.00297188
0.00290806
0.00284421
0.00278031
0.00271636
0.00265227
0.00258809
0.00252376
0.0024593
0.00239457
0.00232964
0.00226439
0.00219882
0.00213297
0.00206674
0.0020002
0.00193332
0.00186617
0.0017987
0.00173067
0.00166079
0.00158872
0.00150447
0.00141301
0.00131867
0.00122261
0.00112602
0.00103052
0.000937628
0.000849301
0.000767531
0.000694295
0.000631454
0.000580239
0.000541967
0.000516606
0.000508256
0.000519682
0.000556173
0.000627553
0.000747981
0.000911798
0.00661475
0.00655004
0.0064838
0.00641543
0.00634446
0.00627204
0.00619824
0.0061238
0.00604909
0.00597389
0.00589517
0.00581798
0.00574363
0.00566923
0.00559186
0.00551123
0.00542805
0.00534405
0.0052598
0.00517567
0.00509146
0.00500641
0.00492072
0.00483444
0.00474735
0.00465947
0.00457066
0.00448091
0.00438997
0.00429775
0.00420417
0.00410925
0.00401291
0.00391517
0.00381606
0.00371556
0.00361361
0.00351022
0.00340513
0.0032978
0.00318739
0.00307048
0.00293855
0.00278981
0.00262941
0.00245759
0.00227511
0.00208324
0.00188439
0.00168262
0.0014825
0.00129124
0.00111522
0.000961192
0.000833123
0.000736108
0.000673145
0.000644425
0.000652329
0.000704749
0.000809825
0.00892363
0.00884828
0.00877117
0.00869191
0.0086086
0.00852321
0.00843626
0.00834941
0.00826213
0.00817434
0.0080821
0.00799186
0.00790411
0.0078166
0.00772618
0.00763211
0.00753479
0.00743667
0.00733812
0.00723965
0.00714067
0.00704006
0.00693848
0.00683605
0.00673226
0.00662725
0.00652063
0.00641238
0.00630205
0.00618962
0.00607496
0.00595825
0.00583952
0.00571892
0.00559641
0.00547211
0.00534601
0.00521805
0.00508805
0.00495572
0.00482051
0.00468107
0.00453404
0.00436994
0.00418796
0.00398987
0.00377414
0.00353932
0.00328425
0.00300978
0.00271741
0.00241199
0.00210241
0.00180113
0.00152241
0.00128071
0.0010879
0.000946302
0.000853601
0.0008095
0.000817808
0.0109226
0.0108368
0.0107496
0.0106601
0.0105654
0.010468
0.0103682
0.0102693
0.0101705
0.0100716
0.00996751
0.0098653
0.00976524
0.00966634
0.00956415
0.00945844
0.00934916
0.00923982
0.00913005
0.0090204
0.00890977
0.00879636
0.00868213
0.0085673
0.00845058
0.00833223
0.00821156
0.00808866
0.00796271
0.00783401
0.00770242
0.00756859
0.00743263
0.00729491
0.0071553
0.00701407
0.00687116
0.00672664
0.00658035
0.00643218
0.00628164
0.00612821
0.00597036
0.00580423
0.00561917
0.00541868
0.00519992
0.00496129
0.00469961
0.00441201
0.00409641
0.00375148
0.00337922
0.00298764
0.00258952
0.00220611
0.00185998
0.00156641
0.00133158
0.00115675
0.00104183
0.0125801
0.0124841
0.0123873
0.0122888
0.0121832
0.012074
0.0119614
0.0118509
0.0117412
0.0116324
0.0115169
0.0114035
0.0112922
0.0111834
0.0110708
0.0109552
0.0108355
0.010717
0.0105981
0.0104796
0.0103595
0.0102349
0.0101105
0.00998642
0.00985934
0.00973009
0.00959738
0.00946218
0.0093226
0.00917985
0.00903378
0.00888623
0.00873687
0.00858665
0.00843488
0.00828223
0.00812833
0.00797374
0.0078182
0.0076619
0.00750422
0.0073449
0.00718317
0.00701695
0.00684141
0.00664729
0.00643719
0.00620901
0.00595998
0.00568709
0.00538641
0.00505395
0.00468713
0.00428466
0.00385163
0.00340011
0.00295008
0.00252476
0.00214245
0.00181526
0.00155066
0.0138906
0.0137842
0.0136783
0.0135719
0.0134567
0.0133364
0.0132118
0.0130896
0.0129699
0.0128521
0.0127263
0.0126024
0.0124815
0.0123645
0.0122433
0.0121191
0.011991
0.0118647
0.0117385
0.0116132
0.0114846
0.0113499
0.0112177
0.011087
0.0109509
0.0108113
0.0106672
0.0105206
0.0103678
0.0102119
0.0100528
0.00989466
0.00973517
0.00957664
0.00941684
0.0092575
0.00909736
0.00893875
0.00878064
0.008624
0.00846705
0.00831009
0.00815195
0.00799138
0.00782524
0.00764546
0.00744954
0.00723742
0.00700769
0.00675816
0.00648611
0.00618737
0.00585694
0.0054906
0.00508599
0.00464507
0.00417693
0.00369633
0.00322259
0.00277438
0.00236905
0.014865
0.0147459
0.0146332
0.0145165
0.0143962
0.0142642
0.0141317
0.0139949
0.0138675
0.0137396
0.0136074
0.013473
0.0133465
0.0132213
0.0130959
0.0129617
0.012831
0.012695
0.0125637
0.0124349
0.0122962
0.0121549
0.0120163
0.0118778
0.0117332
0.0115803
0.0114264
0.0112662
0.0111006
0.0109309
0.0107622
0.0105966
0.01043
0.0102662
0.0101025
0.00994043
0.00977904
0.00962455
0.00947223
0.00932498
0.00917615
0.00902936
0.00888153
0.00873163
0.00857822
0.00841675
0.00823732
0.00804176
0.00783321
0.00761435
0.00737646
0.00712083
0.00683609
0.00652328
0.00617233
0.00578654
0.00535866
0.00490002
0.00441414
0.00391672
0.00342796
0.000315372
0.000310778
0.00030575
0.000300336
0.000294741
0.000289062
0.000283467
0.000278162
0.00027331
0.000269025
0.000265374
0.000262408
0.000260078
0.000258306
0.000257026
0.000256156
0.000255594
0.00025526
0.000255105
0.000255098
0.000255195
0.000255372
0.000255628
0.000255946
0.000256294
0.000256716
0.000257181
0.000257697
0.000258253
0.000258854
0.000259493
0.000260165
0.000260867
0.000261594
0.00026233
0.000263074
0.000263818
0.000264548
0.000265241
0.000265891
0.000266499
0.000267046
0.000267525
0.000267943
0.000268286
0.000268554
0.00026877
0.000268961
0.00026913
0.000269279
0.00026944
0.000269645
0.000269872
0.000270137
0.000270446
0.000270801
0.000271166
0.0002715
0.000271822
0.000272127
0.000272388
0.000937613
0.000992727
0.00103569
0.00106128
0.00107195
0.00107147
0.00105739
0.00103071
0.000993912
0.00094919
0.000898861
0.000846355
0.000794353
0.000744825
0.00069835
0.000656545
0.000620954
0.000591548
0.000567857
0.000549241
0.000534881
0.00052398
0.000515742
0.00050977
0.000505309
0.000502363
0.000500504
0.000499632
0.000499585
0.000500238
0.000501474
0.000503176
0.000505211
0.000507435
0.000509712
0.000511901
0.000513849
0.000515421
0.00051646
0.000516818
0.000516356
0.00051494
0.000512453
0.000508789
0.000503893
0.00049777
0.000490501
0.000482274
0.000473369
0.000464192
0.000455231
0.000447019
0.000440041
0.000434663
0.000431146
0.000429516
0.000429668
0.00043133
0.000434236
0.000437971
0.00044211
0.00108295
0.0012547
0.00142327
0.00157088
0.00166988
0.00174709
0.00179937
0.00182171
0.00181838
0.00179234
0.00174462
0.00167977
0.00160185
0.00151453
0.0014201
0.00132378
0.00123237
0.00114957
0.00107722
0.0010172
0.000969571
0.000933208
0.000906494
0.000887204
0.000874247
0.000865841
0.000861325
0.000859863
0.000860851
0.00086376
0.000868171
0.000873597
0.000879544
0.000885527
0.000891045
0.000895655
0.000898908
0.000900374
0.000899637
0.000896334
0.000890168
0.000880949
0.000868574
0.000853096
0.000834617
0.000813426
0.000789911
0.000764619
0.000738212
0.000711622
0.000686039
0.000662843
0.000643638
0.000629851
0.000622756
0.000623003
0.000630771
0.000645725
0.000667276
0.000694614
0.000727028
0.000964257
0.00116179
0.00139066
0.00162763
0.00184311
0.00203759
0.00221626
0.00234285
0.00243015
0.00248707
0.00250994
0.00250197
0.00246754
0.00240831
0.00232619
0.00222484
0.00210872
0.00198987
0.00187452
0.00176895
0.00167776
0.00160388
0.00154744
0.00150679
0.00147953
0.00146329
0.00145625
0.00145681
0.00146352
0.00147511
0.00149058
0.00150888
0.00152883
0.00154921
0.0015689
0.00158678
0.00160174
0.00161268
0.00161859
0.00161845
0.00161141
0.0015968
0.00157417
0.00154334
0.00150433
0.00145766
0.00140407
0.00134466
0.00128063
0.00121381
0.00114653
0.00108184
0.00102356
0.000976204
0.000944538
0.000932235
0.000940478
0.000968517
0.00101441
0.00107568
0.00114828
0.000882888
0.00100838
0.00119486
0.0014323
0.00169727
0.00196953
0.00223475
0.00246927
0.00266991
0.00284441
0.00297029
0.00304941
0.00309627
0.00310933
0.00309139
0.00304718
0.00297828
0.00288701
0.00278587
0.00268284
0.00258387
0.00249614
0.00242452
0.00237095
0.00233469
0.00231442
0.00230867
0.00231581
0.00233384
0.00236081
0.00239521
0.00243537
0.00247934
0.00252505
0.00257057
0.00261393
0.0026532
0.0026865
0.00271186
0.00272743
0.00273146
0.00272262
0.00269963
0.0026617
0.00260812
0.00253915
0.00245517
0.00235726
0.00224677
0.00212582
0.0019973
0.00186558
0.00173637
0.00161766
0.00152017
0.00145618
0.0014311
0.00144488
0.00149385
0.00156804
0.00165996
0.000988757
0.00100003
0.00107925
0.00122801
0.00144075
0.00170461
0.00200032
0.00230097
0.00258621
0.00284566
0.00306568
0.00324388
0.00339083
0.00348853
0.00354429
0.00357467
0.00357939
0.00356277
0.0035316
0.00348993
0.00344469
0.00340032
0.00336197
0.00333438
0.00331921
0.00331765
0.00333055
0.00335799
0.00339865
0.00345058
0.00351237
0.00358208
0.00365734
0.00373544
0.00381377
0.00388964
0.0039604
0.00402335
0.00407567
0.00411469
0.00413783
0.00414307
0.00412837
0.00409223
0.00403296
0.00395043
0.0038442
0.00371487
0.00356309
0.00339071
0.00320009
0.0029956
0.00278324
0.00257203
0.00237624
0.00221608
0.00210232
0.00204618
0.00204937
0.00210305
0.00219458
0.00135352
0.00122666
0.00117229
0.00119249
0.00128795
0.00145678
0.00169164
0.00197626
0.00228811
0.00260305
0.00289813
0.00315905
0.00338167
0.00356013
0.00369915
0.00381436
0.00389057
0.00394139
0.00398304
0.00401867
0.00405823
0.00409989
0.00414332
0.00418873
0.00423834
0.00429363
0.00435748
0.00443157
0.00451604
0.0046095
0.00471135
0.00481995
0.00493321
0.00504844
0.00516293
0.00527374
0.00537785
0.00547191
0.00555248
0.00561626
0.00566008
0.00568144
0.00567782
0.00564727
0.00558718
0.00549679
0.00537483
0.00522133
0.00503634
0.00482085
0.00457638
0.0043064
0.00401544
0.00371104
0.00340698
0.0031243
0.00288681
0.00272069
0.00264123
0.00264654
0.00272005
0.00202026
0.00173889
0.00153188
0.00140369
0.00135607
0.00138917
0.00150143
0.00168763
0.00193714
0.00223212
0.00254864
0.0028626
0.003156
0.00341467
0.0036342
0.0038178
0.00396665
0.00408889
0.0042017
0.00429221
0.0043994
0.00451601
0.00464246
0.0047775
0.00492101
0.00506945
0.00521994
0.00537214
0.00552852
0.00568742
0.00584864
0.00601047
0.00617153
0.00633032
0.00648469
0.00663238
0.00677059
0.00689571
0.00700372
0.00709089
0.00715457
0.0071911
0.00719827
0.00717405
0.0071152
0.00701962
0.00688626
0.00671321
0.00650108
0.00624954
0.00595978
0.00563337
0.00527277
0.00488353
0.00447764
0.00407509
0.00370735
0.00341747
0.00323886
0.0031815
0.0032271
0.00296271
0.00254357
0.00218551
0.00189849
0.00169254
0.00157128
0.00153575
0.00158343
0.00171019
0.0019084
0.0021642
0.00246029
0.00277721
0.0030937
0.00339196
0.00366522
0.00389942
0.00409549
0.00425753
0.00439553
0.00456318
0.00472345
0.00489696
0.00509062
0.00530958
0.00554719
0.00579755
0.00605238
0.00630455
0.00655317
0.00679668
0.00703085
0.00725267
0.00746541
0.00766587
0.00785469
0.0080301
0.00818838
0.00832456
0.00843408
0.00851853
0.00856857
0.00858666
0.00856869
0.00851361
0.00841465
0.00827512
0.00808447
0.00785108
0.00756842
0.00724243
0.00686879
0.0064483
0.0059891
0.00549595
0.00498801
0.00450413
0.00410187
0.0038273
0.00370654
0.00371912
0.00534778
0.0189825
0.0193176
0.00185945
0.00553845
0.00707792
0.00125012
0.00598458
0.00128999
0.00335354
0.0105447
0.0149187
0.00124991
0.0133032
0.00664201
0.0193564
0.0012636
0.00640052
0.00996057
0.00125336
0.00184669
0.0131277
0.0186024
0.00127763
0.00127976
0.00475207
0.00125316
0.0031456
0.00126007
0.00131458
0.00701194
0.00127686
0.00273558
0.00871061
0.0140546
0.00924147
0.00804891
0.0139557
0.00124674
0.0137726
0.00494342
0.0136841
0.00124682
0.0191178
0.0052306
0.00993233
0.00134876
0.00240164
0.00126281
0.0151139
0.0107789
0.0156858
0.0012444
0.00143634
0.00203002
0.000203888
0.00131215
0.00480329
0.00887841
0.018213
0.00410539
0.00135708
0.00123515
0.00366468
0.0196836
0.0072446
0.00912603
0.00441038
0.00148615
0.00124255
0.0136374
0.0140533
0.00477813
0.00050114
0.00275302
0.0184309
0.019155
0.0168911
0.00124197
0.0144446
0.00194019
0.0129869
0.000826241
0.0184223
0.00124256
0.011889
0.00128577
0.0118994
0.00180871
0.00158968
0.00553203
0.00124141
0.00137952
0.0175627
0.0194748
0.00134113
0.0109418
0.00437142
0.00178174
0.0191614
0.00370727
0.017901
0.00826736
0.00124093
0.00124185
0.00124344
0.0058533
0.00668584
0.00126416
0.0196316
0.018872
0.00165019
0.00793553
0.00761353
0.00538313
0.0123206
0.0101302
0.00140649
0.00593894
0.00142232
0.0010539
0.00557233
0.00153329
0.0172935
0.013222
0.00318935
0.00124626
0.0130289
0.0135541
0.0012464
0.00350891
0.00375006
0.00296744
0.00154001
0.0131075
0.00124572
0.00124187
0.0137446
0.0161721
0.00125323
0.00315466
0.0195707
0.00427152
0.00907459
0.00819643
0.0171596
0.000467305
0.00883929
0.00250329
0.0165696
0.0123664
0.000203223
0.0141007
0.01835
0.0195184
0.00128423
0.00126878
0.00821119
0.00125522
0.00829082
0.000745473
0.00162328
0.00124364
0.00124746
0.00124292
0.0173949
0.0041961
0.0064727
0.00129126
0.0145459
0.00679714
0.00226992
0.01294
0.00254951
0.00760329
0.00570668
0.0114495
0.0012597
0.00171276
0.00400765
0.0124388
0.0140536
0.0174645
0.00124785
0.00132631
0.00890685
0.00395463
0.0116331
0.00124469
0.00134897
0.00571618
0.00129852
0.0168397
0.010174
0.00125399
0.00859462
0.00335335
0.0190719
0.00151728
0.00636375
0.00124764
0.00125365
0.0194535
0.0153327
0.0161031
0.00152559
0.00129509
0.00185313
0.0157398
0.00571019
0.0106404
0.0191792
0.0148988
0.0187145
0.00397862
0.0190224
0.0182111
0.0137542
0.0154994
0.0122469
0.00148439
0.00419895
0.00125154
0.00126946
0.0105231
0.00296824
0.00311834
0.00147628
0.00247455
0.014252
0.00978001
0.00289328
0.0193511
0.0137709
0.00466025
0.00124497
0.0045008
0.017529
0.0129941
0.00145249
0.00905247
0.00343582
0.00349338
0.00259459
0.0177327
0.00722191
0.00441115
0.019237
0.00138978
0.00124219
0.00142605
0.00232106
0.00957044
0.00129621
0.00151389
0.00124568
0.00757886
0.0186799
0.0186536
0.013808
0.0121361
0.0161204
0.0165508
0.00149038
0.00809648
0.0185392
0.00124612
0.00425204
0.00124267
0.00442246
0.00751077
0.00414924
0.00165558
0.00124635
0.0156586
0.00312964
0.00124292
0.00125563
0.00125879
0.00126165
0.00983104
0.0065277
0.0174774
0.0018235
0.00124287
0.00124389
0.00124124
0.0188978
0.00414598
0.00150885
0.0125617
0.00596363
0.00162128
0.00124263
0.00801622
0.00124266
0.00210309
0.00409941
0.00727315
0.00261303
0.0014091
0.00173095
0.0165473
0.00495053
0.00268438
0.0164125
0.00131695
0.00124339
0.00124549
0.0192005
0.0012753
0.0151695
0.00124535
0.0132754
0.0105874
0.00273176
0.00546387
0.00581952
0.00154733
0.013387
0.012983
0.00276215
0.0217123
0.010678
0.0162952
0.0140747
0.0188891
0.00826911
0.0188824
0.00471254
0.00661264
0.0164413
0.0176535
0.0129655
0.0121953
0.00140551
0.016458
0.00533851
0.0183695
0.00363143
0.00133419
0.00124659
0.00129948
0.00399125
0.0102414
0.0069616
0.00613423
0.00124895
0.0196356
0.00124616
0.00709619
0.01381
0.0191267
0.0140458
0.0156718
0.00165585
0.00147365
0.00152728
0.00812265
0.00219696
0.00611728
0.0093127
0.0105514
0.0180242
0.0185264
0.0161036
0.00131373
0.0174376
0.0194771
0.00284047
0.00125445
0.0196498
0.0196553
0.00127893
0.0115223
0.00125544
0.0107018
0.0160104
0.0112291
0.0188351
0.00496479
0.0195786
0.00127565
0.0195644
0.00139175
0.0174199
0.0173799
0.0116026
0.0175349
0.0127349
0.00832169
0.0105671
0.00147092
0.00379533
0.00125002
0.00205822
0.00127913
0.00704421
0.00138508
0.0181171
0.00124344
0.00125596
0.0017674
0.00914554
0.00510938
0.0134766
0.00147773
0.0189264
0.00779699
0.0192273
0.00615785
0.0159365
0.0103931
0.00129902
0.0175172
0.0175259
0.00125021
0.0173158
0.0142956
0.00124357
0.00124175
0.00881007
0.00184006
0.0126473
0.00153324
0.00650852
0.00365921
0.00921953
0.01556
0.0175857
0.0153962
0.0170727
0.0175215
0.00140495
0.00127146
0.00890002
0.0126404
0.0159624
0.0111678
0.0190944
0.00455594
0.0192239
0.019223
0.00646646
0.00301948
0.0157384
0.0143315
0.00132382
0.0178456
0.0148027
0.00144901
0.0194092
0.016427
0.0158317
0.00343182
0.00462649
0.0129178
0.00165738
0.0161443
0.00153956
0.00345498
0.00125181
0.0112131
0.0029166
0.00861492
0.00156847
0.00136736
0.0086178
0.00865172
0.0016672
0.00280129
0.010591
0.00279833
0.00131301
0.0160393
0.00897228
0.013066
0.00773607
0.00355552
0.0119554
0.0164311
0.0178203
0.00641157
0.0122961
0.016882
0.00612314
0.0153827
0.0193896
0.000397401
0.00589365
0.0121861
0.00129715
0.00327468
0.0078708
0.012213
0.00278837
0.0213873
0.00430077