/*--------------------------------*- C++ -*----------------------------------*\
| =========                 |                                                 |
| \\      /  F ield         | OpenFOAM: The Open Source CFD Toolbox           |
|  \\    /   O peration     | Version:  2.3.1                                 |
|   \\  /    A nd           | Web:      www.OpenFOAM.org                      |
|    \\/     M anipulation  |                                                 |
\*---------------------------------------------------------------------------*/
FoamFile
{
    version     2.0;
    format      ascii;
    class       volScalarField;
    location    "0.98";
    object      p;
}
// * * * * * * * * * * * * * * * * * * * * * * * * * * * * * * * * * * * * * //

dimensions      [0 2 -2 0 0 0 0];

internalField   nonuniform List<scalar> 
9648
(
-0.156217
-0.429788
-0.753428
-1.12405
-1.56903
-2.10133
-2.7326
-3.4713
-4.32498
-5.31151
-6.44204
-7.72942
-9.18622
-10.8232
-12.6496
-14.6756
-16.9092
-19.359
-22.0284
-24.9218
-28.0442
-31.3921
-34.9652
-38.759
-42.769
-46.9858
-51.3986
-55.9989
-60.7691
-65.7003
-70.7722
-75.9696
-81.2771
-86.6701
-92.1375
-97.6515
-103.199
-108.76
-114.309
-119.827
-125.29
-130.691
-135.99
-141.179
-146.246
-151.159
-155.905
-160.467
-164.851
-169.027
-172.954
-176.637
-180.08
-183.251
-186.153
-188.771
-191.092
-193.121
-194.836
-196.249
-197.349
0.372784
0.112462
-0.196728
-0.560923
-0.999889
-1.5154
-2.12008
-2.82887
-3.65361
-4.60308
-5.68835
-6.92128
-8.31295
-9.87379
-11.6136
-13.5414
-15.665
-17.9912
-20.5249
-23.2701
-26.2297
-29.4032
-32.7892
-36.3836
-40.1811
-44.1739
-48.3526
-52.7068
-57.2235
-61.8903
-66.6911
-71.6101
-76.6317
-81.7364
-86.908
-92.1261
-97.3743
-102.633
-107.881
-113.1
-118.268
-123.371
-128.382
-133.287
-138.068
-142.704
-147.179
-151.476
-155.582
-159.488
-163.189
-166.664
-169.902
-172.892
-175.618
-178.078
-180.253
-182.153
-183.755
-185.062
-186.06
0.18814
-0.049242
-0.33288
-0.669971
-1.0672
-1.5456
-2.11261
-2.77987
-3.55774
-4.45929
-5.49493
-6.67654
-8.01482
-9.51969
-11.2009
-13.0668
-15.1252
-17.3823
-19.8427
-22.5106
-25.3882
-28.4756
-31.7714
-35.2714
-38.9702
-42.86
-46.932
-51.1761
-55.5798
-60.1305
-64.813
-69.6116
-74.5106
-79.4925
-84.5397
-89.6339
-94.7578
-99.8924
-105.018
-110.117
-115.169
-120.155
-125.055
-129.853
-134.53
-139.069
-143.453
-147.666
-151.693
-155.52
-159.138
-162.535
-165.705
-168.624
-171.297
-173.702
-175.849
-177.704
-179.277
-180.565
-181.573
0.410858
0.172644
-0.10883
-0.441357
-0.834167
-1.2983
-1.84456
-2.48438
-3.22916
-4.09114
-5.08214
-6.21359
-7.49607
-8.93946
-10.5538
-12.3471
-14.3266
-16.4984
-18.8666
-21.4352
-24.2066
-27.1805
-30.3557
-33.7275
-37.2905
-41.0371
-44.9583
-49.045
-53.2849
-57.6652
-62.1721
-66.7895
-71.5024
-76.2949
-81.1491
-86.0475
-90.9738
-95.9092
-100.836
-105.735
-110.589
-115.379
-120.084
-124.69
-129.178
-133.531
-137.733
-141.771
-145.63
-149.296
-152.76
-156.01
-159.039
-161.831
-164.378
-166.672
-168.705
-170.466
-171.954
-173.162
-174.09
0.466848
0.261084
0.0115274
-0.290303
-0.652646
-1.08496
-1.59701
-2.19935
-2.90402
-3.72186
-4.66547
-5.74484
-6.97085
-8.35234
-9.9003
-11.6213
-13.5227
-15.6103
-17.8868
-20.3569
-23.0232
-25.8844
-28.9407
-32.1856
-35.6141
-39.2188
-42.9904
-46.9212
-50.9986
-55.2105
-59.5439
-63.9819
-68.511
-73.1169
-77.7813
-82.4869
-87.2198
-91.9599
-96.6916
-101.398
-106.061
-110.661
-115.179
-119.6
-123.908
-128.084
-132.116
-135.988
-139.687
-143.201
-146.519
-149.633
-152.535
-155.212
-157.653
-159.849
-161.79
-163.472
-164.895
-166.05
-166.934
0.555279
0.365646
0.136211
-0.142702
-0.478313
-0.881082
-1.36026
-1.92626
-2.59179
-3.36642
-4.26396
-5.29255
-6.46394
-7.7841
-9.26721
-10.9173
-12.7411
-14.7452
-16.9293
-19.2999
-21.8607
-24.6073
-27.5441
-30.6602
-33.9519
-37.4117
-41.0285
-44.7996
-48.7096
-52.7469
-56.9018
-61.1534
-65.4908
-69.9031
-74.3696
-78.8731
-83.4039
-87.939
-92.4657
-96.9705
-101.432
-105.833
-110.152
-114.379
-118.496
-122.485
-126.335
-130.028
-133.556
-136.906
-140.07
-143.035
-145.799
-148.351
-150.678
-152.766
-154.606
-156.197
-157.543
-158.633
-159.464
0.647001
0.474104
0.263692
0.00570515
-0.305216
-0.680713
-1.12928
-1.66026
-2.28848
-3.02097
-3.8746
-4.85427
-5.97336
-7.23223
-8.65215
-10.2316
-11.9777
-13.8992
-15.99
-18.2584
-20.713
-23.3421
-26.1594
-29.146
-32.2978
-35.6104
-39.0665
-42.6744
-46.4129
-50.2692
-54.2432
-58.3038
-62.4398
-66.6528
-70.9178
-75.2101
-79.5323
-83.8551
-88.1674
-92.4645
-96.7199
-100.917
-105.029
-109.053
-112.972
-116.766
-120.429
-123.936
-127.285
-130.462
-133.466
-136.275
-138.893
-141.317
-143.527
-145.505
-147.237
-148.727
-149.99
-151.018
-151.793
0.736853
0.58145
0.39191
0.153564
-0.132421
-0.482358
-0.903013
-1.39726
-1.99145
-2.68013
-3.49442
-4.4252
-5.50084
-6.69091
-8.05088
-9.56215
-11.2262
-13.0722
-15.0686
-17.2243
-19.5823
-22.0813
-24.7874
-27.6457
-30.6482
-33.8217
-37.0994
-40.5433
-44.1132
-47.7728
-51.5775
-55.445
-59.3549
-63.3686
-67.4467
-71.4984
-75.6121
-79.7197
-83.7981
-87.8941
-91.9329
-95.9364
-99.8167
-103.628
-107.361
-110.944
-114.428
-117.729
-120.901
-123.885
-126.736
-129.368
-131.824
-134.124
-136.23
-138.08
-139.707
-141.072
-142.253
-143.232
-143.941
0.831471
0.684289
0.530643
0.296638
0.0460809
-0.289673
-0.688695
-1.11951
-1.71154
-2.32246
-3.13409
-3.98457
-5.07196
-6.12622
-7.46951
-8.93019
-10.4699
-12.2858
-14.1651
-16.1756
-18.5201
-20.8038
-23.4634
-26.1659
-28.9981
-32.1103
-35.1258
-38.4409
-41.8791
-45.2639
-48.9688
-52.6118
-56.2586
-60.1256
-64.0625
-67.699
-71.7133
-75.6011
-79.3899
-83.3455
-87.0897
-90.9715
-94.54
-98.2117
-101.813
-105.069
-108.479
-111.466
-114.529
-117.206
-119.97
-122.323
-124.643
-126.899
-128.881
-130.539
-132.159
-133.301
-134.475
-135.407
-135.981
-198.112
-198.551
-198.672
-198.466
-197.952
-197.12
-195.975
-194.516
-192.733
-190.653
-188.252
-185.545
-182.567
-179.324
-175.805
-172.026
-167.992
-163.732
-159.237
-154.52
-149.616
-144.51
-139.227
-133.779
-128.193
-122.476
-116.613
-110.641
-104.565
-98.4197
-92.2036
-85.938
-79.6445
-73.3232
-67.0023
-60.6841
-54.3917
-48.1374
-41.9291
-35.7839
-29.7133
-23.7406
-17.8631
-12.1013
-6.46917
-0.969072
4.38317
9.57931
14.6042
19.4512
24.1154
28.5859
32.8517
36.9117
40.7551
44.3771
47.7725
50.936
53.8671
56.5614
59.0186
-186.748
-187.101
-187.186
-186.967
-186.449
-185.638
-184.529
-183.125
-181.415
-179.408
-177.103
-174.51
-171.667
-168.579
-165.233
-161.633
-157.792
-153.725
-149.436
-144.939
-140.251
-135.378
-130.333
-125.128
-119.777
-114.292
-108.704
-103.015
-97.2323
-91.3736
-85.4513
-79.4808
-73.4771
-67.4522
-61.4225
-55.3971
-49.3923
-43.4219
-37.4973
-31.6311
-25.8368
-20.1301
-14.5183
-9.01489
-3.63224
1.62268
6.7386
11.7049
16.5099
21.1463
25.6074
29.8842
33.9673
37.8537
41.5341
45.004
48.2563
51.289
54.0988
56.6829
59.0399
-182.284
-182.727
-182.828
-182.62
-182.124
-181.35
-180.261
-178.875
-177.168
-175.164
-172.894
-170.357
-167.543
-164.458
-161.125
-157.555
-153.754
-149.736
-145.509
-141.085
-136.477
-131.693
-126.745
-121.644
-116.402
-111.029
-105.544
-99.9606
-94.2902
-88.5467
-82.7436
-76.8959
-71.0171
-65.1212
-59.221
-53.3283
-47.4562
-41.6176
-35.8254
-30.0922
-24.4309
-18.8548
-13.3736
-7.99952
-2.74274
2.38812
7.38236
12.2297
16.9198
21.4455
25.7984
29.9714
33.9565
37.7493
41.3417
44.7287
47.9049
50.8665
53.6108
56.1347
58.4384
-174.732
-175.101
-175.171
-174.949
-174.43
-173.598
-172.475
-171.13
-169.527
-167.659
-165.506
-163.09
-160.409
-157.473
-154.29
-150.871
-147.226
-143.364
-139.298
-135.04
-130.603
-125.996
-121.229
-116.314
-111.262
-106.085
-100.797
-95.4119
-89.943
-84.4023
-78.8026
-73.1591
-67.4853
-61.7954
-56.1001
-50.4117
-44.742
-39.103
-33.5082
-27.9697
-22.5001
-17.112
-11.8158
-6.62254
-1.54181
3.41852
8.24713
12.9347
17.4702
21.8483
26.0596
30.097
33.9549
37.6269
41.1079
44.39
47.4703
50.3426
53.0057
55.4558
57.6938
-167.545
-167.883
-167.943
-167.727
-167.23
-166.453
-165.423
-164.069
-162.465
-160.615
-158.509
-156.152
-153.546
-150.701
-147.623
-144.318
-140.793
-137.06
-133.13
-129.017
-124.732
-120.286
-115.687
-110.943
-106.068
-101.072
-95.9699
-90.7757
-85.5005
-80.1565
-74.7541
-69.3104
-63.838
-58.3524
-52.8615
-47.3773
-41.9102
-36.4714
-31.0755
-25.7335
-20.4575
-15.2608
-10.1528
-5.1443
-0.244641
4.54145
9.19866
13.7219
18.097
22.3217
26.3858
30.2818
34.0058
37.5505
40.9137
44.0851
47.0643
49.8408
52.4176
54.7881
56.9555
-160.032
-160.336
-160.371
-160.139
-159.64
-158.878
-157.855
-156.564
-155.016
-153.222
-151.184
-148.903
-146.384
-143.639
-140.671
-137.485
-134.087
-130.486
-126.695
-122.732
-118.605
-114.328
-109.904
-105.338
-100.646
-95.8365
-90.9244
-85.9277
-80.8531
-75.7126
-70.5123
-65.2748
-60.009
-54.7364
-49.4572
-44.1848
-38.9274
-33.6955
-28.5054
-23.3665
-18.2905
-13.2919
-8.37801
-3.56125
1.15005
5.75757
10.2386
14.5938
18.8016
22.8683
26.7794
30.5279
34.1137
37.5244
40.7672
43.8228
46.6977
49.3741
51.8625
54.1482
56.2425
-152.315
-152.58
-152.591
-152.342
-151.842
-151.095
-150.092
-148.831
-147.328
-145.595
-143.628
-141.427
-138.996
-136.354
-133.503
-130.441
-127.173
-123.701
-120.051
-116.241
-112.279
-108.177
-103.935
-99.5526
-95.0485
-90.4282
-85.7115
-80.918
-76.0503
-71.1179
-66.1224
-61.0938
-56.0388
-50.9873
-45.9264
-40.8746
-35.8355
-30.816
-25.8375
-20.9094
-16.0392
-11.2436
-6.52941
-1.91068
2.60618
7.03134
11.3325
15.5175
19.5529
23.4557
27.2084
30.8046
34.2464
37.5178
40.6377
43.5744
46.3452
48.9175
51.3137
53.5096
55.5289
-144.417
-144.633
-144.621
-144.345
-143.851
-143.117
-142.14
-140.888
-139.418
-137.761
-135.873
-133.747
-131.403
-128.867
-126.147
-123.21
-120.074
-116.727
-113.226
-109.576
-105.776
-101.856
-97.8145
-93.6122
-89.2998
-84.8724
-80.3586
-75.7733
-71.1076
-66.388
-61.5915
-56.7775
-51.9307
-47.1141
-42.2755
-37.4645
-32.6641
-27.8486
-23.0824
-18.3846
-13.7154
-9.12264
-4.62143
-0.198736
4.10946
8.35734
12.4708
16.4915
20.3402
24.0765
27.6617
31.0929
34.3954
37.5184
40.5244
43.3366
46.0098
48.4635
50.7676
52.8623
54.8104
-136.415
-136.552
-136.528
-136.222
-135.736
-134.985
-134.052
-132.737
-131.343
-129.872
-127.99
-125.942
-123.65
-121.205
-118.715
-115.832
-112.822
-109.668
-106.29
-102.815
-99.0985
-95.342
-91.5979
-87.4802
-83.3717
-79.2142
-74.8395
-70.498
-65.9286
-61.5385
-56.8176
-52.3411
-47.5908
-43.1093
-38.4545
-33.9135
-29.4119
-24.6844
-20.1373
-15.7173
-11.1678
-6.8275
-2.57713
1.72877
5.68363
9.8944
13.6841
17.6575
21.1829
24.8264
28.2609
31.4313
34.7109
37.5712
40.5988
43.1603
45.8418
48.0291
50.3665
52.2614
54.2454
61.2399
63.2238
64.9711
66.4822
67.7567
68.7987
69.6124
70.2026
70.5738
70.7322
70.7002
70.5207
70.1867
69.6574
68.9582
68.0958
67.0343
65.7827
64.3631
62.7915
61.08
59.239
57.2808
55.2163
53.058
50.8187
48.5116
46.1511
43.7496
41.3226
38.8834
36.4471
34.029
31.6426
29.3049
27.0287
24.8291
22.7204
20.7254
18.8593
17.1466
15.5927
14.2105
13.02
12.0352
11.2657
10.7205
10.4009
10.301
10.4022
10.67
11.0505
11.4649
11.8119
11.9404
11.208
9.69665
8.18753
6.96284
6.04158
5.22261
61.1705
63.075
64.7536
66.2066
67.4342
68.4384
69.2228
69.7914
70.1484
70.2961
70.2489
70.0654
69.7461
69.2402
68.5601
67.7118
66.6759
65.4593
64.0798
62.5521
60.8876
59.0971
57.1924
55.1858
53.0892
50.9147
48.6747
46.3819
44.0492
41.6904
39.3188
36.9483
34.5934
32.2679
29.9866
27.7638
25.614
23.5484
21.5739
19.7173
17.9868
16.4187
15.0201
13.8044
12.7838
11.9682
11.3659
10.9789
10.8014
10.817
10.9943
11.2835
11.6086
11.868
11.8733
11.187
9.85566
8.51982
7.47763
6.67277
5.84154
60.5205
62.3831
64.0254
65.449
66.6534
67.6414
68.4162
68.9818
69.3408
69.4902
69.453
69.2936
68.9974
68.5134
67.8583
67.0404
66.0468
64.8827
63.5612
62.0953
60.4961
58.774
56.9409
55.0081
52.9867
50.8888
48.7261
46.511
44.2559
41.974
39.6783
37.3823
35.0996
32.8439
30.6289
28.4683
26.3755
24.3624
22.4413
20.6337
18.958
17.4244
16.048
14.8388
13.8079
12.9649
12.3161
11.8626
11.5983
11.508
11.5616
11.7128
11.8861
11.9782
11.81
11.125
9.95829
8.74051
7.72846
6.88607
6.0499
59.7175
61.5296
63.1285
64.5173
65.6938
66.6621
67.423
67.9822
68.3381
68.4862
68.4645
68.3343
68.0622
67.6065
66.981
66.1956
65.2444
64.1336
62.8717
61.4704
59.9401
58.2901
56.5331
54.6793
52.7391
50.7251
48.6481
46.5204
44.3533
42.1602
39.9532
37.7456
35.5499
33.3797
31.2476
29.1673
27.151
25.2114
23.3614
21.617
19.9931
18.5012
17.1527
15.9556
14.92
14.0535
13.3601
12.8386
12.4816
12.2737
12.186
12.1747
12.1715
12.0828
11.772
11.0948
10.0789
8.97721
7.9868
7.11979
6.29572
58.9147
60.6723
62.2238
63.5746
64.719
65.6647
66.4079
66.9572
67.306
67.4536
67.4492
67.3483
67.0983
66.6719
66.077
65.3262
64.4164
63.358
62.1545
60.8178
59.3571
57.7794
56.0998
54.3271
52.4696
50.5423
48.5532
46.5157
44.4389
42.3373
40.2212
38.1042
35.9973
33.9143
31.8665
29.8675
27.9287
26.0624
24.2799
22.5951
21.0203
19.5677
18.2467
17.0644
16.0266
15.139
14.4036
13.8172
13.3706
13.0481
12.8223
12.6531
12.483
12.2379
11.826
11.1662
10.2734
9.28595
8.3367
7.46308
6.63534
58.1327
59.8345
61.3349
62.6474
63.7571
64.6794
65.403
65.9421
66.2833
66.4354
66.4475
66.3735
66.1438
65.747
65.1822
64.468
63.5988
62.5931
61.4468
60.1747
58.7844
57.2783
55.677
53.9866
52.212
50.373
48.4727
46.527
44.5411
42.5323
40.5076
38.4822
36.4641
34.4687
32.5046
30.587
28.7248
26.9307
25.213
23.5855
22.0577
20.6418
19.3451
18.1736
17.1311
16.2196
15.4408
14.7897
14.2562
13.8256
13.4724
13.1621
12.8485
12.4771
11.988
11.3358
10.5266
9.63299
8.73618
7.87544
7.04651
57.3464
58.9909
60.4376
61.7113
62.7847
63.6852
64.3894
64.9184
65.2528
65.4134
65.4414
65.3923
65.1827
64.8148
64.2801
63.6035
62.7754
61.823
60.7326
59.5259
58.208
56.7738
55.2523
53.6444
51.9527
50.2044
48.3942
46.5421
44.6475
42.7333
40.8012
38.8685
36.9392
35.0315
33.1505
31.314
29.5284
27.8056
26.1505
24.5781
23.0945
21.7131
20.4389
19.276
18.2266
17.2907
16.4697
15.7565
15.1408
14.6114
14.1446
13.7125
13.2788
12.8051
12.2526
11.5951
10.8335
10.0056
9.15877
8.322
7.50295
56.5437
58.1361
59.5211
60.7612
61.7909
62.6746
63.3559
63.8785
64.2046
64.3822
64.42
64.3971
64.2045
63.8678
63.3604
62.7242
61.9331
61.0427
59.9997
58.8616
57.6212
56.2533
54.8212
53.2958
51.6793
50.0292
48.3073
46.5543
44.7468
42.9326
41.0911
39.2553
37.4119
35.5943
33.7913
32.0377
30.3271
28.6779
27.0809
25.5634
24.1175
22.7703
21.5157
20.3634
19.3057
18.3446
17.4874
16.7181
16.0266
15.4116
14.8453
14.3119
13.778
13.2218
12.6138
11.9425
11.2026
10.4168
9.60578
8.79401
7.9912
55.7643
57.4137
58.6379
59.9504
60.8267
61.7713
62.3239
62.9339
63.1722
63.4646
63.4123
63.4933
63.2391
63.0217
62.4657
61.9423
61.0874
60.3615
59.3162
58.2546
57.1262
55.7196
54.4472
53.0359
51.4081
49.9304
48.2273
46.6409
44.849
43.1942
41.3812
39.6942
37.89
36.211
34.4314
32.7991
31.1206
29.5822
28.0049
26.5768
25.1273
23.8408
22.5844
21.4531
20.3897
19.3873
18.5102
17.6889
16.921
16.2501
15.5869
14.9824
14.354
13.7396
13.0729
12.3923
11.6498
10.8998
10.1044
9.30473
8.52206
4.42464
3.70008
3.01564
2.32292
1.63316
0.98491
0.389563
-0.143161
-0.591696
-0.949593
-1.21412
-1.3908
-1.48097
-1.48196
-1.42342
-1.32759
-1.20861
-1.08682
-0.975988
-0.883027
-0.809683
-0.749291
-0.700811
-0.663391
-0.619344
-0.584117
-0.542482
-0.495512
-0.438807
-0.37112
-0.288221
-0.189173
-0.0749823
0.0541249
0.194457
0.34603
0.503682
0.663154
0.820884
0.971582
1.11054
1.23184
1.33491
1.41567
1.47084
1.5005
1.50386
1.48229
1.43676
1.37043
1.28732
1.19076
1.08367
0.971461
0.855052
0.736896
0.616755
0.493173
0.354153
0.183128
-0.00546539
5.01198
4.32739
3.70264
3.0547
2.39465
1.77767
1.21142
0.69938
0.268874
-0.0705294
-0.314842
-0.461291
-0.511788
-0.48049
-0.404007
-0.300285
-0.181364
-0.0637873
0.0402521
0.124725
0.190005
0.239925
0.279983
0.302169
0.335642
0.357065
0.384931
0.417261
0.457876
0.509639
0.575693
0.657385
0.754662
0.866603
0.991025
1.12462
1.26473
1.4076
1.54919
1.68552
1.81223
1.92486
2.01903
2.09148
2.13981
2.16302
2.16082
2.13358
2.0826
2.01037
1.92004
1.8151
1.69851
1.57592
1.44825
1.31947
1.18818
1.05454
0.912204
0.754755
0.578261
5.25431
4.57418
3.93323
3.2354
2.52665
1.8916
1.30311
0.753457
0.285517
-0.092922
-0.381573
-0.578859
-0.689112
-0.728995
-0.696661
-0.617505
-0.496213
-0.363612
-0.247091
-0.153619
-0.0826863
-0.0283928
0.0108535
0.0544916
0.0802982
0.114828
0.148305
0.187926
0.235418
0.293659
0.365424
0.452007
0.553162
0.667736
0.793761
0.928697
1.06903
1.21112
1.35094
1.4842
1.60645
1.71371
1.80243
1.86953
1.91255
1.93049
1.92315
1.89164
1.83769
1.76418
1.67438
1.57239
1.46194
1.34664
1.22892
1.11068
0.991001
0.866601
0.730615
0.573377
0.389098
5.52136
4.82798
4.15707
3.44312
2.73487
2.10097
1.49397
0.919744
0.44944
0.0776931
-0.210258
-0.401811
-0.495694
-0.507287
-0.441476
-0.31664
-0.178109
-0.0670518
0.0400056
0.134015
0.208035
0.263557
0.304438
0.339495
0.360828
0.384136
0.405914
0.431578
0.464024
0.506393
0.561611
0.631265
0.715657
0.813635
0.923617
1.04293
1.16863
1.2972
1.42504
1.54814
1.66229
1.7637
1.84885
1.91494
1.95965
1.98201
1.98166
1.95954
1.91698
1.8566
1.78061
1.69243
1.5945
1.48965
1.37879
1.26398
1.14674
1.02749
0.902845
0.762737
0.604643
5.85533
5.13165
4.43002
3.70813
2.99664
2.33588
1.70211
1.12314
0.651629
0.263976
-0.0509122
-0.257239
-0.361622
-0.391869
-0.352467
-0.264342
-0.158206
-0.0345111
0.0748175
0.166264
0.23569
0.288002
0.327772
0.361751
0.387152
0.411826
0.435554
0.462723
0.495615
0.536839
0.589174
0.654438
0.732796
0.823419
0.924747
1.03464
1.15016
1.26845
1.3861
1.49962
1.60487
1.69866
1.77736
1.83875
1.88022
1.90105
1.90034
1.87924
1.83828
1.78008
1.70666
1.62144
1.52767
1.42813
1.32483
1.22156
1.11937
1.01277
0.897563
0.774759
0.634589
6.25187
5.4946
4.76196
4.03031
3.31194
2.62916
1.98009
1.38827
0.887216
0.468288
0.140168
-0.0720264
-0.196915
-0.250798
-0.218989
-0.129193
-0.0177439
0.0979938
0.201569
0.282133
0.338767
0.38192
0.413704
0.441076
0.461687
0.480595
0.497806
0.518718
0.545141
0.57832
0.622098
0.677854
0.746141
0.825636
0.915461
1.01305
1.11627
1.22223
1.32811
1.43071
1.52591
1.61128
1.68297
1.73976
1.77844
1.79928
1.80056
1.78444
1.75053
1.70202
1.64021
1.5688
1.49056
1.40861
1.32572
1.23986
1.15019
1.0572
0.956365
0.84337
0.711566
6.70399
5.92797
5.17127
4.4272
3.70068
3.00721
2.35125
1.7513
1.22448
0.779076
0.426672
0.182094
0.023994
-0.0407372
-0.0123324
0.0636494
0.163679
0.268523
0.361399
0.427691
0.466818
0.494305
0.513261
0.531652
0.543246
0.554412
0.562541
0.57699
0.595739
0.619634
0.653824
0.699491
0.757359
0.825522
0.903424
0.988994
1.07952
1.17324
1.26737
1.35937
1.44463
1.52178
1.5865
1.63883
1.67459
1.69536
1.69847
1.68705
1.65973
1.62049
1.56944
1.51063
1.44563
1.37633
1.3055
1.2342
1.1608
1.0844
1.00035
0.903785
0.787402
7.1989
6.42074
5.65538
4.90979
4.17924
3.48827
2.83561
2.24311
1.71003
1.25193
0.880682
0.607588
0.406665
0.312078
0.304003
0.34478
0.434228
0.507332
0.565951
0.615371
0.623492
0.628803
0.625811
0.6354
0.632457
0.635863
0.631933
0.639778
0.652332
0.662645
0.686285
0.721517
0.771001
0.828595
0.896406
0.970488
1.04979
1.13207
1.21562
1.29862
1.37471
1.44522
1.50295
1.55222
1.5841
1.60527
1.60863
1.60162
1.57854
1.54688
1.50275
1.45343
1.39976
1.34149
1.28272
1.22411
1.16499
1.10476
1.03706
0.958604
0.858943
7.72822
6.96881
6.19923
5.4583
4.73006
4.06003
3.42383
2.87666
2.35237
1.913
1.55623
1.29851
1.01904
0.892136
0.848245
0.818957
0.869063
0.791371
0.788545
0.859831
0.805712
0.786972
0.739851
0.770349
0.727476
0.73871
0.697964
0.705747
0.723931
0.711645
0.711188
0.744841
0.792995
0.837048
0.896943
0.962031
1.02848
1.10344
1.17763
1.26054
1.32158
1.39687
1.43738
1.4954
1.51216
1.54317
1.53221
1.54319
1.51088
1.49366
1.44454
1.39733
1.3558
1.30784
1.26151
1.21365
1.16607
1.12409
1.06883
1.01527
0.92594
4.92313
-4.53587
-5.84931
14.8846
5.79777
19.4384
18.0478
10.8399
11.5696
29.1537
1.66373
23.7693
18.1575
2.59062
21.735
-102.298
20.5998
12.1787
1.46873
17.4923
15.1176
2.9843
0.85987
20.1798
11.4749
17.1917
17.5566
9.53393
20.3495
6.8745
10.4911
16.7218
28.4887
1.50379
23.0529
0.833352
0.708761
57.3965
18.6992
17.5257
7.80365
-2.86339
18.0697
-88.2795
0.164274
31.6658
11.6059
3.0521
16.2238
25.41
-3.81346
-45.8402
17.1363
9.54465
13.9953
16.2652
6.98201
7.72782
0.927533
-31.4156
3.80463
15.5408
17.134
-8.16016
-25.8373
14.8993
0.832746
8.7734
18.9106
18.1311
15.4078
59.6114
6.64025
13.4311
13.4109
6.35156
-12.7435
44.5009
17.1874
28.158
-0.735172
16.5182
16.7456
-36.6339
18.0216
50.316
12.041
1.65449
15.3802
1.6181
-13.8771
17.1771
5.15942
-31.8586
-37.1361
5.66043
44.2436
10.0086
25.5276
-101.568
14.5267
16.1682
25.1361
17.0644
18.1516
17.0328
15.2144
39.7189
19.8067
-78.0232
-109.183
15.9786
0.293933
1.28963
5.95228
2.04708
1.11496
19.569
-7.66437
11.3286
12.9082
-0.0731363
11.3186
-117.904
-26.7302
10.6408
15.3467
-47.1944
-34.9638
17.8747
21.3203
-7.99449
3.29021
11.0024
2.51918
10.8053
18.0568
-53.1779
-30.9311
11.6995
9.61624
-52.9632
14.9515
49.0756
1.40907
12.5325
16.6685
1.44104
31.8187
-0.880457
16.2733
16.2881
59.1938
-33.5586
-59.287
8.89214
8.30531
-27.9064
16.6459
0.752771
16.6846
26.4463
17.4376
12.5502
14.9551
13.1469
6.99443
9.76245
17.1635
0.0695601
-2.01376
1.61467
5.87114
17.4582
1.17689
1.25126
1.22073
8.8882
22.4563
1.6891
1.95654
-1.30996
-31.1334
9.75362
6.48497
0.576361
-10.4911
52.1619
9.85825
11.9029
25.5068
20.2807
-17.0546
-39.2783
16.6565
-31.7206
4.23194
0.308098
21.3628
0.815651
9.88231
15.0246
13.548
-58.8816
-1.93636
20.8928
8.51601
16.1294
-45.6169
0.908474
41.3006
-5.86524
16.3889
-117.441
11.2176
-77.7072
-65.4015
1.74376
33.3649
1.73016
11.3997
40.1785
12.0305
16.7595
1.11379
-7.70244
-9.26128
11.7528
17.0437
59.8114
1.21529
21.4812
-5.37059
-37.7122
13.6677
19.3234
3.17031
-57.3056
-46.7249
19.343
13.3794
8.76781
11.0536
16.0004
-123.649
16.7536
8.48337
-98.6752
23.972
17.307
8.86993
23.7992
1.36593
8.46555
11.372
18.6996
25.4126
15.3143
6.65769
2.02378
15.6987
9.52105
-64.6553
18.5968
0.712217
12.8428
17.5675
0.917992
17.5928
1.07562
24.1072
1.06208
22.8432
11.4322
52.9231
10.0086
14.3292
10.8002
16.0159
20.7557
50.3392
9.80188
-72.0343
15.35
14.922
18.669
17.0935
-61.7941
8.00471
7.95157
-26.1927
40.5479
14.4773
17.0276
35.1648
17.4388
9.56067
5.12059
-0.98981
16.3897
10.9753
5.5021
48.6126
-3.77517
2.88632
-78.8863
21.8602
18.6771
19.4328
-100.668
9.80185
11.9738
11.5189
-12.5467
16.5
14.2878
0.584736
1.16871
7.07074
1.98698
16.4795
3.59935
15.3619
15.0364
-26.865
1.91606
15.5514
0.949222
-90.5861
6.51624
-27.225
-44.5247
-101.331
2.21053
1.50864
16.8906
0.496501
0.67326
-124.21
35.1207
15.0683
14.8221
12.0339
11.7254
49.7916
11.3122
-9.34328
18.8192
-70.7964
14.9995
1.28436
-45.516
-113.885
10.7617
-61.9118
8.69796
2.75662
14.5106
1.60407
2.43892
10.3892
0.23375
1.06636
-6.63682
0.863521
16.0859
6.80736
-113.961
-33.9976
3.97294
16.6285
-26.218
-49.6927
12.6941
1.58636
15.7632
-5.94262
7.31088
1.51205
-73.8881
0.695041
-79.8609
20.3059
-89.3027
11.2846
4.88318
20.9992
1.27563
-117.453
-27.6825
47.4595
50.2262
3.28551
0.708309
17.2369
30.3111
16.7806
-0.535167
12.089
-10.1797
17.3349
18.8477
22.0168
21.5412
-7.66083
-46.8102
12.075
-83.063
0.31732
-11.3959
1.91642
-62.0172
-2.17049
18.8177
-124.247
9.72141
9.4292
23.3357
-52.9849
17.1134
18.2465
1.47517
17.7845
10.0533
14.3984
1.07957
35.9652
-26.1704
-51.7042
9.6837
-61.1607
9.25082
-54.4397
16.8727
15.7242
1.01084
4.04132
-93.4111
-1.92807
1.53667
-10.8305
-62.1327
-59.7301
18.4005
3.81521
-41.5684
-50.1602
17.1088
2.59572
-32.0732
22.8827
13.054
36.5024
-39.9948
-0.271718
-9.64714
0.355493
9.12112
-90.0756
2.34385
10.5729
19.9106
47.0965
1.44367
44.1094
2.09609
17.4662
1.63568
1.44136
13.7649
12.425
0.00190357
1.41833
16.8379
2.41754
1.43611
2.63692
1.38866
2.00223
1.42612
8.3162
4.8569
15.8668
15.7016
-110.973
10.1288
-67.8876
-107.039
16.2488
0.329927
2.2755
19.1579
3.84837
1.28428
16.3667
17.0784
15.2122
5.50632
-37.5942
10.5931
26.6127
13.6734
13.9783
15.5859
5.5197
0.752052
13.5327
19.2726
9.61557
1.43277
13.954
13.614
-12.7207
12.8201
-0.523372
-3.36479
-4.23755
17.2306
20.0419
9.45411
22.5815
3.54781
2.83989
48.7682
-22.0948
-5.54168
21.9914
8.3494
1.26983
1.4851
-80.3041
-27.4
21.0052
3.20498
10.403
0.693718
-21.117
18.7234
12.1099
-27.3523
-82.535
12.7466
-17.8512
-54.2008
4.65048
-105.488
9.36219
9.49307
9.1441
-32.2743
13.9574
-80.9471
-2.51827
13.0905
1.03416
17.325
-0.282358
14.9874
12.8344
31.8021
3.01298
0.985764
14.8917
7.28734
0.81468
-46.6864
-30.6554
8.11636
-34.2035
4.79875
28.7179
1.40445
9.45554
-95.7068
9.97061
8.578
14.47
1.40284
52.1999
1.79555
8.23532
8.5772
1.3932
1.23767
13.645
15.6913
16.0116
9.58211
10.2832
29.3145
-76.3259
8.53875
17.8777
-32.0707
0.454325
-87.1459
13.6816
0.826055
17.7428
-55.3164
4.31926
-21.0486
0.98975
0.906033
2.88923
-106.145
20.6004
17.3827
6.60569
16.0909
-26.9879
-22.4105
-6.38796
10.0626
9.12968
5.03916
16.3585
-0.219668
0.792542
16.2319
23.3023
1.37841
-58.3904
20.9737
1.6778
20.5691
-8.32744
17.2858
36.4136
6.7882
29.5763
18.5452
-30.1493
-21.5778
-4.78865
19.1164
10.6278
-32.4788
16.1597
12.5675
4.6043
5.63831
0.833579
-30.9506
40.6013
3.67271
2.17995
1.02859
-89.5962
9.60843
23.425
15.7458
0.901518
5.26471
-23.1029
14.5025
12.4347
6.19262
1.09324
-7.11124
15.2555
2.15156
11.0077
-21.0825
1.25323
39.1405
1.00086
0.159433
8.37649
57.3529
17.1324
16.752
1.1823
10.2736
7.13627
8.89491
10.4025
-115.952
1.87205
-34.9449
30.6058
17.6354
8.53571
19.3823
-6.22231
-10.8855
1.20373
3.98273
1.43774
12.9374
-2.57066
18.6197
-88.6868
16.8047
6.76847
2.2017
-3.45695
3.0152
-7.26739
10.6775
3.45639
0.583167
19.2914
-120.943
15.4413
17.1397
10.8369
-4.45806
18.9505
3.88432
-21.3631
15.696
-14.122
-97.5744
17.5279
8.94421
14.6014
-63.3051
-6.4756
15.8585
42.8619
12.6348
9.12626
11.6201
-111.133
-126.219
16.6162
-1.54759
-11.9294
1.39065
17.8437
6.96179
-11.4312
13.8707
15.3929
-0.12156
18.5781
19.6394
8.57936
14.8919
-3.01367
13.3829
-5.56392
23.2574
1.73293
-4.42709
42.7442
1.18862
6.79543
21.9609
4.21439
-45.2771
24.5964
-83.8656
20.9386
1.23819
-19.7003
10.1904
-9.93208
0.783199
12.9358
13.1635
-93.6927
-40.0856
13.5332
-65.1173
-9.20083
53.7009
-16.3399
-20.3304
21.4936
0.813964
6.0145
11.9485
-55.5851
-23.0052
-4.69607
-4.4577
-6.62758
1.03903
22.6753
19.1779
13.4064
-121.773
-44.5141
27.5545
2.25165
-112.252
11.2425
14.4882
10.6037
1.19311
4.82397
1.25493
-15.1101
21.4698
-121.366
-17.3019
-85.8976
-98.5086
18.8821
25.4188
-43.7043
26.2815
14.6074
12.3089
11.1965
10.4789
26.1169
17.9703
2.23523
-51.6648
-30.3401
24.6789
2.26575
3.55691
13.8389
1.52404
12.9538
-53.6049
1.22379
49.2638
2.33176
22.3273
11.6983
18.6381
15.7652
-76.9065
13.1845
44.8013
0.997568
0.800858
32.3085
61.2167
12.7434
13.2858
25.1201
-50.7027
-15.793
17.3198
10.0862
-91.6079
27.5085
17.447
-63.1937
15.7942
3.72759
1.4308
6.35124
-16.3218
53.8416
0.78229
-8.73614
-0.547314
17.8522
0.14601
9.59031
14.8976
17.3399
12.2742
0.995401
17.3594
0.676449
30.2927
0.149693
11.4466
10.4375
16.6994
8.48516
-49.9347
9.82006
18.1869
-29.6623
-70.867
34.1432
1.53746
7.556
16.8233
34.404
-84.7294
9.54117
-3.10139
11.2146
16.3675
-88.3899
17.2728
9.86374
50.0477
29.9212
-19.578
4.43546
15.8965
17.2132
-66.7333
-4.67706
10.1963
14.9421
1.30423
17.5749
-127.923
7.5189
0.819672
10.6043
18.8098
-0.197159
14.7735
23.0566
24.9846
4.68743
-0.864218
17.8193
20.7372
17.5097
20.4061
10.8462
18.2252
-70.5501
2.54484
18.1485
-25.7239
14.1493
7.27842
19.6965
11.6895
-62.2684
10.8304
5.12104
18.9302
-20.8351
16.7477
-24.8086
-104.279
1.56975
1.08297
-47.7503
16.2028
18.4633
-21.4542
-104.709
1.31028
-14.2432
15.9408
-82.7366
13.4357
16.6381
18.3029
-18.5616
7.09559
9.67568
-28.8463
17.5347
8.73213
-85.0311
10.6477
-119.453
47.2233
11.7144
18.2904
6.42149
16.8655
-9.16787
-6.38084
20.169
-18.5731
5.7948
12.8991
-38.1999
4.69305
17.6131
-49.3804
14.9345
1.89588
-67.5435
-14.1492
17.2615
19.3792
14.787
62.247
8.71183
-2.33714
-23.9022
15.6655
-11.7951
15.5206
5.4048
15.5824
0.871814
9.92254
0.754174
-13.9817
59.0058
7.39204
59.3711
7.40127
12.8469
4.06984
20.1277
-9.42987
17.8792
11.177
1.36486
59.886
16.8877
9.18769
-8.50975
0.69043
-109.024
15.9376
-5.64455
10.5902
-21.9455
-61.9327
1.08235
-73.5584
9.59739
2.79813
-25.8291
18.3992
15.8031
14.2145
12.3756
21.4642
16.274
12.8574
17.6953
1.29047
-68.3477
17.6804
20.315
17.7422
8.00784
-73.1403
1.372
-24.601
15.7593
-43.4962
0.923854
25.1006
-67.45
17.0853
0.824286
40.2165
1.45192
22.8949
4.22542
1.63811
16.0555
10.5279
-107.499
13.8045
-1.42048
-39.2508
1.35875
15.9461
11.0747
30.982
2.81061
1.12051
-79.2672
15.9462
16.5353
17.0534
-20.0811
-35.982
14.0603
12.8206
15.1723
1.12758
1.58781
49.3621
0.333565
-65.7758
2.22753
-59.1305
0.395964
0.634141
32.399
51.0298
13.0557
60.1664
45.526
18.4046
17.6654
6.32189
14.5586
18.6198
2.35479
1.9184
19.7417
1.80188
10.3251
19.236
9.07727
18.5776
28.8515
1.49769
-5.56265
-120.932
17.9176
12.1411
-50.7178
7.73587
22.513
14.0888
11.0043
2.13644
17.4114
-2.21806
1.59247
30.4432
12.8624
0.648765
16.8215
17.4942
15.6818
5.80083
15.5761
17.0622
-3.57178
18.5746
20.685
-76.5766
-28.933
-18.6456
14.8056
1.37668
-50.7736
17.1323
1.50861
1.09855
-126.194
0.747029
16.8078
8.74304
31.5157
-1.0921
1.26164
9.27862
46.4486
1.58633
16.2065
1.13896
16.6808
53.9668
14.2562
-21.1323
16.8752
1.02456
-69.6257
15.7444
42.4049
4.16912
13.0932
18.8156
29.5475
11.0215
19.7912
2.00828
16.2425
10.699
-123.351
4.48216
18.7072
20.0371
-65.15
-82.4454
16.8511
18.2053
12.6106
11.4592
-59.6101
24.6994
-58.9124
17.8886
11.3643
17.3974
-12.0778
5.79625
17.5306
0.524338
1.38776
-89.4559
-62.3584
8.2723
-2.90017
-74.7917
18.3377
18.47
18.5219
7.52006
18.995
2.27147
18.2789
9.60322
-1.94649
-25.2286
2.43992
12.7756
1.2923
36.4289
16.765
19.6837
-104.225
15.6324
15.6008
20.1659
12.5195
-73.7427
-7.11331
1.66452
17.2746
17.0811
17.7568
-4.32315
20.318
-17.9254
8.4191
8.75135
13.5776
9.60816
15.6739
11.0705
10.6924
9.81548
-1.68164
-10.5254
2.79457
-86.8612
11.9327
16.839
0.964584
-91.3749
41.3235
1.79925
23.7903
16.0475
13.2652
11.9021
16.69
60.8625
-8.27375
0.845489
-94.9507
16.909
27.9662
-37.2049
3.61685
-51.777
1.31581
31.0393
1.32956
16.7327
-23.0057
-13.3008
-38.2073
-8.59287
17.868
1.44904
7.78206
22.5407
13.3004
19.5702
8.88888
56.8
20.5489
16.6661
43.9866
10.8095
15.7178
18.5195
20.4314
-10.6459
1.3495