/*--------------------------------*- C++ -*----------------------------------*\
| =========                 |                                                 |
| \\      /  F ield         | OpenFOAM: The Open Source CFD Toolbox           |
|  \\    /   O peration     | Version:  2.3.1                                 |
|   \\  /    A nd           | Web:      www.OpenFOAM.org                      |
|    \\/     M anipulation  |                                                 |
\*---------------------------------------------------------------------------*/
FoamFile
{
    version     2.0;
    format      ascii;
    class       volSymmTensorField;
    location    "2320";
    object      sigma;
}
// * * * * * * * * * * * * * * * * * * * * * * * * * * * * * * * * * * * * * //

dimensions      [1 -1 -2 0 0 0 0];

internalField   nonuniform List<symmTensor> 
11800
(
(115819 66213.1 5.60458e-14 -2462.05 2.97107e-14 28126.2)
(-58960.5 60901.6 8.6036e-14 -1694.27 2.73118e-14 -15049.7)
(515208 80276 -1.38537e-15 1205.36 -6.26337e-14 128133)
(-449629 45307.8 0 462.393 0 -111447)
(-60834.5 58630.6 1.60526e-14 -6200.66 -4.53905e-14 -16632.8)
(-282042 84025.6 6.2455e-14 2671.34 3.27852e-14 -69317.6)
(-52161.6 81336.8 1.17791e-13 -692.541 -3.0651e-14 -13114.2)
(-73165.4 82957.5 -1.75568e-14 1194.86 7.07032e-14 -17857.4)
(160367 49552.7 2.37966e-14 417.582 -1.62869e-14 39893.8)
(107657 87065.2 -6.0686e-14 1241.73 -5.11587e-14 27019.9)
(133912 56200.6 -4.67551e-14 808.139 4.00527e-14 33426.9)
(-652164 34289.3 -5.61574e-14 -4980.64 -2.55061e-14 -163051)
(19251.7 -27984.2 1.04432e-16 -51926.1 8.11567e-17 -8107.17)
(477623 45456.7 5.09736e-14 3239.23 -1.39716e-14 119312)
(-383434 78603 -4.24011e-14 6728.75 3.29939e-14 -93468.2)
(1.82087e+06 -2206.08 0 -5406.94 0 450454)
(-34204.7 65742.7 3.98605e-14 2875.5 3.51872e-15 -7773.41)
(-52542.1 60236.8 -2.25122e-14 6093.82 1.29426e-13 -11524.8)
(110006 101767 -2.3346e-14 -15166.5 1.6628e-14 23531.6)
(81790.1 55437 -8.07708e-14 -8258.65 -2.61409e-14 18244.7)
(-354073 50891.8 2.51194e-14 -80.7036 2.63418e-14 -87872.6)
(-570125 74013.7 4.02123e-14 2771.66 -2.33984e-14 -140772)
(-777013 98134.1 -2.07149e-14 9765.41 1.33769e-14 -190370)
(-713154 60376.9 2.10882e-16 286.297 3.61635e-15 -176877)
(1.48153e+06 71063.1 2.50672e-15 -6529.99 2.99059e-14 365978)
(-922844 97061.4 -2.03127e-14 6240.65 -5.92984e-16 -227428)
(-948291 51283.1 0 8095.13 0 -233282)
(466720 39694.4 -6.64466e-14 -5475.61 -4.01552e-14 114444)
(-1.03795e+06 52824.1 -1.16773e-14 9240.48 -5.57918e-14 -255243)
(-1.12957e+06 53710 1.54529e-14 10075.1 -2.41078e-14 -277769)
(309193 42633.4 -8.2293e-14 -1614.25 -1.47602e-13 76316.5)
(61397.4 58896.9 -1.35633e-14 2170.37 -1.1278e-14 15772.5)
(935100 92925.5 -3.29007e-15 10747 -1.45299e-14 234684)
(-24078.3 71298.9 1.07653e-14 -1122.22 -8.0652e-14 -6252.76)
(16173.3 74522.3 -2.84591e-14 3250.08 -1.22273e-13 4819.33)
(-303109 33173.6 -7.47242e-14 1488.62 -5.43116e-14 -74838.1)
(17368.5 75062.5 1.01087e-13 2256.53 -1.20325e-13 4869.38)
(1.00247e+06 57571 -1.20804e-14 5229.41 -5.21844e-14 250031)
(-35958.4 71937.4 0 -2725.9 0 -9598.37)
(78143.4 67317.6 -3.50241e-14 4653.86 6.52845e-14 20543.7)
(-996416 40064.3 -6.25151e-14 -4797.06 -2.90917e-14 -248421)
(-1.09046e+06 40238.1 4.48362e-14 -4961.85 -2.57558e-14 -271795)
(490170 51770.9 -2.56034e-14 -2110.04 -8.53725e-14 121098)
(-1.18683e+06 41202.6 -8.64337e-15 -5352.85 -4.57514e-14 -295805)
(324821 52039.8 2.18763e-13 1649.8 -6.82987e-14 81004.1)
(1.70139e+06 46264.7 0 -6246.87 0 420600)
(739766 106059 -1.31015e-14 -3041.06 6.88997e-15 182796)
(882399 44138.2 -2.3085e-14 -9574.65 -1.61e-14 216565)
(-82826.5 74043.6 -8.67349e-14 -652.782 -5.34823e-14 -20712.9)
(189871 70494.5 0 2121.84 0 47637.4)
(-674912 42069.4 -4.17617e-15 2516.23 4.45782e-14 -166835)
(-474089 40414.6 1.45473e-13 4189.65 1.70608e-14 -116592)
(-9778.52 73832.1 8.15215e-14 108.291 5.08053e-14 -2399.38)
(34429 117369 -1.82847e-15 6805.55 1.59586e-14 10231.1)
(-1.95563e+06 6159.13 -2.83688e-15 -10198 -4.35936e-15 -487762)
(1.56152e+06 -63035.4 3.74105e-15 -71699.6 6.71408e-15 369655)
(-52978.2 22416.6 7.02081e-14 1800.46 2.60868e-14 -12698.2)
(-426140 82652.8 5.24854e-15 -4489.48 -4.37761e-14 -106848)
(340254 55093.2 -4.44447e-14 7138.64 6.51186e-14 86195.1)
(-303076 85644.4 3.65384e-14 -6463.3 -6.597e-15 -76803.1)
(1.6073e+06 24310.8 -3.28762e-14 -12256.9 -1.14037e-14 395764)
(-41527.7 77177.9 3.4502e-14 642.621 -5.61999e-14 -10144.4)
(-336257 68980.8 -2.00299e-14 -2715.43 3.44833e-14 -84105.9)
(267000 69218.8 6.06464e-14 1926.48 -3.46206e-14 66726.1)
(1.46405e+06 16033.5 3.61863e-15 59.856 -2.15768e-14 363275)
(-211308 33621.7 -9.87427e-14 2357.27 -1.19406e-13 -51844.8)
(-696785 20893 6.95736e-14 3237.28 2.32193e-14 -172083)
(-494766 23561.7 1.98236e-15 4066.33 -1.22063e-13 -121753)
(-54663.7 24086.8 0 -2903.25 0 -14283.5)
(-860461 57267 -1.56119e-15 8561.77 5.33022e-14 -211373)
(-19644.5 75478.2 -1.97789e-14 304.986 4.08664e-14 -4798.53)
(-42731.8 60180.7 -7.61995e-14 -3190.11 8.53132e-14 -11394.1)
(-37744.8 58617.4 5.34431e-14 -2798.73 -3.2732e-14 -10059.7)
(-1.32058e+06 295787 -4.72667e-15 169197 4.32243e-15 -285680)
(1.59249e+06 63916.3 -1.22905e-15 -5948.46 -1.31433e-14 393653)
(-285069 47692.9 -7.34118e-14 5113.62 -5.34202e-14 -69462.6)
(1.52777e+06 15828.3 -2.74159e-14 3488.57 2.44018e-14 379937)
(-205633 22629.2 6.4916e-14 395.764 -2.13123e-13 -50923.4)
(-152624 42685.5 1.2206e-14 1868.34 -1.16574e-14 -37405.5)
(-145342 53653.5 1.24607e-13 3004.89 1.25049e-13 -35316.6)
(-1.97297e+06 -35072 1.02304e-14 7890.69 4.73845e-14 -487577)
(83576.8 51615.6 0 7375.4 0 22567.1)
(46105.2 61388.7 -1.29556e-13 1080.34 -5.10862e-14 11707.7)
(31798.3 65438.1 4.49168e-14 1939.37 -3.55924e-16 8371.01)
(-66489.8 58221.6 3.08544e-14 -6835.18 8.73762e-14 -18193.4)
(-1.09887e+06 65596.9 -1.72305e-14 -6212.36 8.76841e-14 -274194)
(333361 48486.7 1.04572e-13 3369.62 -3.25505e-14 83549.7)
(-1.00754e+06 62460.2 0 -5415.51 0 -251334)
(-919920 60996.3 -3.63538e-14 -4919.05 -3.72229e-14 -229471)
(491635 45605.4 4.79422e-14 4434.31 2.92538e-15 123085)
(-10798 72698.1 -1.68894e-13 -2506.36 -1.08404e-13 -3301.08)
(1.10713e+06 86165.5 0 -3514.14 0 273828)
(-90331.4 64536.4 -3.58318e-14 1820.15 -5.94521e-14 -21961.4)
(59436.5 18962.8 -2.06702e-14 4153.27 -3.00099e-14 15777.9)
(134424 63095.8 1.58911e-13 575.181 2.8431e-15 33495.9)
(44551.1 -33606.8 -6.6474e-16 -94659.1 -4.92788e-16 -12432.8)
(-2359.15 9230.72 1.72849e-17 5542.56 -1.02826e-16 789.868)
(-44916.2 -33352.8 -4.20178e-16 94301.9 2.7997e-16 12253.6)
(-10781.7 74109.2 -5.25098e-14 -592.127 -7.6568e-16 -2822.07)
(-567831 48568.8 -1.29031e-14 -2351.21 5.16198e-14 -141474)
(41843 37800.8 2.8863e-14 -228.696 -8.08005e-14 10325.4)
(617036 54309.5 -6.25461e-14 -6037.94 -8.66501e-14 151601)
(-1.0492e+06 96386.3 4.27606e-15 334.59 8.69912e-15 -260244)
(-346865 69818.3 -2.63481e-15 5677.5 8.34611e-15 -84655.6)
(-363.94 78653.3 -8.10471e-15 -574.735 -4.03486e-14 -232.904)
(269413 89703.8 -1.69869e-14 2205.11 -2.94491e-14 67393.8)
(-126309 64483.7 -4.96723e-14 67.9493 1.09613e-13 -31323)
(-88703.3 67955.4 -1.68152e-13 -694.12 -8.11499e-14 -22181.3)
(1.57638e+06 22468.9 9.62837e-15 3754.23 2.02175e-14 392064)
(1.01167e+06 54684.1 1.55516e-14 3305.26 3.15868e-15 251836)
(1.10415e+06 56389.5 2.98153e-14 4107.92 4.16399e-14 274982)
(924416 53136.6 1.08773e-13 3619.26 6.45017e-14 230264)
(-338185 49651.9 4.90115e-14 -4134.23 7.65748e-14 -84936.4)
(-498553 47963 -1.29674e-13 -4073.52 4.66336e-14 -124712)
(178710 58618.9 5.55577e-14 179.48 -2.91455e-14 44386.1)
(1.41996e+06 35956.2 1.45592e-14 -148.667 8.60927e-15 352284)
(197896 30193.2 -4.03797e-14 -3213.35 -1.58799e-13 48304.6)
(-61667.6 69405.8 -1.3997e-13 1256.05 1.30976e-13 -14989.3)
(1.3297e+06 68621.6 -1.6769e-14 631.466 2.09123e-14 330081)
(-110708 90111.2 -4.55702e-14 420.167 -1.22727e-14 -27364.7)
(-177499 44573.8 -3.16506e-14 2337.12 -1.3356e-14 -43461.2)
(53646.8 81439.5 1.00227e-13 -3000.24 -1.43569e-13 12566.4)
(75968.6 84737 -6.99238e-14 -1432.09 4.81182e-14 18494)
(-53846.2 67551 -2.0333e-14 1581.69 -3.00127e-14 -12967.9)
(-94873.4 61338.6 -1.27453e-13 -156.242 -9.95207e-14 -23578.8)
(-2688.69 73332.7 -1.22496e-13 -2515.86 -9.22476e-14 -1291.36)
(-30195.2 72916.4 -7.34423e-14 -2817.82 8.07448e-14 -8191.2)
(-6011.47 73828.4 -4.80143e-14 -1700.68 -4.57914e-14 -1913.54)
(7861.9 53215.8 2.28598e-15 34596.2 1.02375e-13 10534.7)
(-32734.8 9527.08 -3.56186e-16 -7530.1 4.8704e-14 -9990.54)
(-1.69582e+06 -270857 1.52508e-14 71233.1 -7.74748e-15 -403094)
(-1.20708e+06 66595.8 1.09239e-14 -9141.11 -1.66317e-15 -301769)
(364707 44035.3 5.53384e-14 4049.81 -5.39976e-14 91496.1)
(-1.09383e+06 66952.4 -4.31448e-14 1879.89 2.71267e-14 -270935)
(524930 40227 -2.49753e-14 4893.52 7.55965e-14 131460)
(-1.00026e+06 62977.1 1.64565e-14 2097.53 1.65301e-14 -247665)
(-912253 60845.3 -9.44878e-14 2295.99 7.22701e-14 -225779)
(303443 59885.1 5.41684e-14 -2744.11 1.51096e-13 74609.6)
(-936172 31527.2 5.88894e-14 7213.1 -8.11672e-14 -230494)
(439989 61415.2 6.7317e-14 -3005.24 -5.36251e-14 108425)
(-856904 30750.5 4.86428e-14 6158.56 -8.39714e-14 -211087)
(-781915 31746.8 -5.04555e-14 6128.32 -4.54366e-14 -192488)
(-446984 82247.7 3.82355e-15 13112.2 3.83184e-14 -107652)
(132832 68628.1 -2.70377e-14 -5593.43 -1.803e-13 31570.4)
(189203 65399.1 -4.32606e-14 -6247.84 -1.25126e-13 45395)
(-277874 63879.3 -1.30452e-14 9015.9 7.53354e-14 -66709)
(1.11932e+06 40870.6 -8.27509e-14 1382.85 -2.79019e-14 278069)
(-1.15922e+06 -10775.4 7.96354e-14 -9650.17 2.46579e-14 -290021)
(649346 41750.2 5.60003e-14 -2926.01 -5.21725e-14 160390)
(-343925 45527.8 1.26986e-15 6126.45 7.55298e-15 -83814.6)
(-155187 65961.2 -7.01288e-14 2761.38 -5.79843e-14 -37820)
(-162491 56374.7 6.00175e-14 -1402.48 -5.43377e-14 -40665.3)
(16655.2 73727.3 4.56245e-14 1889.75 8.34006e-14 4601.38)
(-230113 48982 -1.02613e-13 626.012 1.06478e-13 -56940.3)
(193838 57393.1 -5.3834e-14 -4409.41 -5.69252e-14 47001.2)
(130911 66655.4 -4.93073e-14 1745.76 3.80339e-14 32914.8)
(-422402 53634.1 8.3484e-14 6854.6 -5.62324e-14 -103106)
(-589384 58567.5 3.04189e-14 2505.54 6.65326e-14 -145616)
(1.21538e+06 23623.3 1.90164e-14 1574.44 -2.667e-16 301952)
(-5282.63 76835.3 2.39503e-14 -5.75639 -1.16586e-13 -1312.16)
(1.79291e+06 71010.1 -2.23311e-14 -11598.4 -1.21882e-14 441979)
(-189569 59374.9 -8.86342e-14 1420.6 6.11132e-14 -46683.3)
(1.53606e+06 46393.1 0 -16410 0 377057)
(-434408 60203.8 2.6319e-14 -3573.12 1.09769e-13 -108672)
(-475810 60870.8 -2.69785e-14 -4372.06 3.20541e-14 -119143)
(-518573 63314.9 -4.31392e-15 -4633.12 1.16268e-13 -129818)
(236337 65350.5 -6.57702e-14 637.503 1.61907e-14 58798.1)
(160528 68238.3 -7.0105e-14 -82.4765 1.73228e-14 39809.8)
(-1.96251e+06 -11329 1.77429e-14 -8096.85 -1.01387e-14 -488949)
(-1.19774e+06 65117.1 -1.80276e-14 -6908.12 3.41295e-14 -298898)
(412563 47763.8 -6.99925e-14 4406.96 -4.09886e-14 103459)
(570239 44112.9 1.96933e-13 4097.92 -1.05909e-13 142505)
(65466 72504.4 3.84833e-14 -7008.57 -9.95658e-14 14504.5)
(-340365 34894 0 1763.54 0 -84013.9)
(-345991 21629.2 1.05233e-13 -718.732 -5.35254e-14 -86025.8)
(1.69338e+06 50154.2 2.88331e-14 -12241.7 1.92584e-14 417125)
(1.73464e+06 -6189.16 2.38793e-14 11241.1 2.11545e-14 433188)
(895590 26794.2 1.38024e-15 -472.864 5.02086e-14 222097)
(819079 27548.6 1.00768e-14 334.161 1.21577e-13 203313)
(976723 25374.6 2.60391e-14 -1387.44 -3.76241e-14 242001)
(-420730 62660.9 -6.35104e-14 3750.08 5.71835e-14 -103461)
(-281104 60949.4 -6.15851e-14 2280.8 6.75947e-14 -69181.7)
(182604 82063.2 0 1658.07 0 45719.2)
(123595 81945.2 -2.57396e-15 863.892 9.79798e-14 30880.8)
(398473 63611.3 -7.57877e-14 -400.817 6.20014e-14 98769.9)
(-169294 60512.8 -6.05931e-14 1842.84 1.43823e-13 -41548.1)
(-271152 91055.9 -1.21489e-14 3005.63 5.38583e-14 -66532.6)
(81709.6 67268.9 -2.24353e-13 -857.302 -5.95772e-14 20061.1)
(115775 62882.9 -1.55351e-13 -528.059 6.50457e-14 28595)
(-73692.2 75341.8 -3.02432e-14 1926.98 -4.22611e-16 -17806.4)
(-204776 54506.9 -2.53182e-14 4192.97 -1.58336e-14 -49768.7)
(-187190 54012.7 1.6683e-14 3357.17 -2.85234e-14 -45612.6)
(-190106 41801.9 0 -689.395 0 -47340.2)
(-93657.3 94713.8 3.54624e-16 -4339.69 -3.35987e-14 -24315)
(-852439 7099.1 7.36812e-14 -6463.91 -3.22674e-14 -213111)
(1.0725e+06 47749.1 -9.61083e-14 -4675.37 -9.6346e-15 264949)
(1.38309e+06 153314 5.84593e-15 -243786 2.96393e-15 282685)
(-33076.5 66245.9 2.00329e-14 -2696.1 -4.54411e-14 -8875.9)
(206883 25376.3 7.30963e-14 1545.48 -1.66985e-13 51715.4)
(-1.73791e+06 -210705 1.46326e-14 144171 -9.56472e-15 -395440)
(96013.3 53493.5 3.12918e-15 3675.17 8.48785e-14 24734.7)
(259928 37394.9 5.90268e-14 1925.34 -6.77928e-14 64971)
(286737 40463.7 8.24154e-14 -4450.16 -3.47902e-14 70041.2)
(-3743.03 76461.9 6.20638e-14 -33.5639 -9.21231e-15 -937.05)
(-4364.65 78715.5 6.54687e-14 -580.732 5.5409e-15 -1227.05)
(776605 32343.8 2.09838e-14 -5024.54 7.0095e-14 191445)
(643374 78817.4 2.67738e-14 4267.05 -6.46584e-15 160693)
(-584246 65735.5 0 4869.41 0 -143755)
(-499940 38948.6 -6.78763e-14 -8373.27 -4.24868e-14 -126123)
(1.68837e+06 -273344 -6.13255e-15 -73028.1 -4.18539e-15 400800)
(-508321 103845 -5.49421e-15 13688 6.45991e-14 -122729)
(-817287 41538.4 3.81235e-14 -2382.81 -2.25437e-14 -203377)
(-1.76318e+06 -709417 -1.65352e-14 373162 6.48647e-15 -344891)
(2.06927e+06 3546.12 0 28428.1 0 520483)
(-1.54438e+06 -657422 -5.38239e-15 176618 1.66914e-15 -339370)
(263890 105124 -3.63515e-14 91.3095 1.28721e-14 65499.2)
(-59444.3 63114.7 -6.33174e-15 -2068.41 8.85858e-14 -15262.6)
(-769234 77179.8 3.19198e-14 -6218.27 -3.51855e-14 -192405)
(-699868 75548.1 4.74853e-14 -5210.79 -5.92174e-15 -174944)
(-639279 73274.7 -5.40401e-14 -4784.96 2.08682e-15 -159805)
(227707 55841.8 4.69805e-14 3358.83 -1.31142e-13 57332.2)
(339204 52342.2 -1.18012e-13 3969.52 1.14785e-13 85148.2)
(33806.2 65902 -1.85369e-14 -6751.02 8.7054e-14 6712.95)
(47652 61134.4 4.3928e-14 -8580.82 5.63096e-14 9694.35)
(-113900 98574.9 -5.08793e-14 17712.1 1.3791e-14 -23866.1)
(-70050 58142.3 3.74967e-14 12281.9 -4.79989e-14 -14333.4)
(-967909 -389622 -4.17249e-15 -23934.1 8.71476e-16 -246096)
(172528 99042.7 -2.88202e-14 13082.9 -1.0246e-13 46053.7)
(-85314.9 59604.5 -9.81381e-14 -7197.54 -4.48952e-14 -22954.2)
(-400266 89701.3 0 201.616 0 -99264.1)
(172453 58944.9 7.65376e-14 1178.99 -3.13106e-14 43081.5)
(-84355.2 78354.2 0 -270.191 0 -20997.3)
(-64333.4 65562.5 -4.76621e-14 -275.178 -7.55477e-14 -16030.7)
(594631 65114.1 6.70802e-14 3667.92 -7.01561e-14 148450)
(611166 43638.6 1.02565e-13 -375.361 4.90121e-14 151550)
(1.75782e+06 -707376 -6.1763e-15 -372691 -2.04717e-15 343678)
(964951 -388818 7.22173e-15 23812.1 1.98153e-15 245332)
(-190582 48820.5 1.45302e-14 1293.7 2.06905e-14 -46966.2)
(-203826 50232.1 -4.4138e-14 -2453.5 -9.03238e-14 -51182.2)
(-1.06466e+06 5725.92 -4.88743e-14 -4743.18 -1.12264e-14 -265341)
(859781 45927.8 1.10381e-13 -3657.12 -2.88805e-14 212422)
(280950 62133.6 3.61902e-15 -1998.97 2.00139e-13 69213.3)
(419555 64826.5 6.79751e-14 -2967.76 7.39722e-14 103364)
(-981747 26263.5 -1.75387e-15 -1364.32 4.28327e-14 -243930)
(-902586 28190.6 -4.33562e-14 -459.658 1.43418e-14 -224064)
(-824699 29671.1 -2.82054e-15 -623.15 6.72699e-14 -204779)
(-12179.1 77943 -1.03325e-13 -1026.32 2.99077e-14 -3276.54)
(-1.07191e+06 27359.5 2.83827e-14 -2162.42 3.05469e-14 -266499)
(350556 61255.2 -6.96656e-14 -2155.83 3.41975e-14 86445.3)
(488907 63148.1 0 -3213.12 0 120510)
(462352 50346.3 2.6606e-14 -3253.28 6.36195e-14 113912)
(89842.3 64633.6 -8.73107e-14 1769.93 -2.30985e-13 22730.9)
(7110.5 69003.1 -7.65221e-14 -7795.39 -2.81679e-14 -169.937)
(391440 42748.4 -9.93992e-14 12630.1 1.79128e-14 100258)
(-325081 51505.6 -8.39079e-15 -1138.04 -6.77883e-14 -80941.7)
(51074.2 73418.3 1.15323e-15 -12172.2 1.4589e-14 9652.39)
(1.53922e+06 -656108 -5.59154e-15 -176922 -1.40895e-15 338014)
(228655 70171.9 6.98407e-15 -2703.21 -1.28657e-13 56063.3)
(276041 68775.8 5.9846e-14 -277.811 2.03668e-14 68422.4)
(-182861 68505.1 0 633.258 0 -45214.3)
(-217069 75920.9 2.22648e-14 -5080.59 -6.20352e-14 -55119.8)
(637612 72649.7 0 6629.99 0 159850)
(698038 75510.8 3.96519e-14 6460.44 3.76851e-14 174800)
(760201 79413.2 -8.90824e-14 6549.46 -8.58176e-15 190246)
(-340975 49629.9 1.24567e-13 -4841.83 1.26595e-13 -85804.1)
(-231671 54239.7 6.53608e-15 -3574.7 -7.5708e-14 -58369.3)
(-13449.4 75283.9 7.35963e-14 789.14 3.92119e-14 -3141.26)
(1.57216e+06 17871 -1.16692e-14 -24521.4 -2.15578e-14 384000)
(-10411.1 82985 -7.95969e-14 -5053.6 2.48129e-14 -3837.1)
(18051 48338.8 -7.7018e-14 9403.76 -4.80169e-14 6812.09)
(33771.5 71941.2 5.7191e-14 801.977 -1.32827e-13 8578.39)
(360507 69233.9 6.11365e-14 -386.429 6.46641e-14 89353.3)
(-145884 8421.23 -1.01262e-13 -2973.83 4.97135e-15 -36934.7)
(475280 77411.8 0 -2953.18 0 117194)
(1.66262e+06 -62901 2.70428e-16 -238199 1.08929e-16 353428)
(363571 21657.7 5.84398e-14 5068.49 1.32967e-13 91467)
(348554 31762 2.64895e-14 -5450.19 1.44403e-14 85130.9)
(-518954 64960.3 8.72741e-15 5044.63 1.842e-14 -127511)
(-369570 62063 -6.78614e-14 3637.37 2.17436e-14 -90795.2)
(-442529 43495.8 -1.38921e-13 -931.282 -2.43268e-14 -110031)
(-317385 47681.1 7.00291e-15 -2046.18 -7.36918e-15 -79257.4)
(1.11941e+06 24010.4 -4.95815e-15 -2725.14 1.62556e-14 277072)
(925791 84438.6 2.0882e-15 14.3825 -3.36084e-14 229711)
(260987 75320.9 1.23009e-14 -2683.88 7.27978e-15 64090.2)
(351521 63893.2 2.30815e-14 318.61 3.93096e-14 87298.7)
(192157 74995.5 6.41501e-14 -3966.66 4.57374e-14 46693.8)
(258916 64075.2 5.75342e-14 -2711.69 -9.11243e-15 63569.4)
(-507882 49965.1 -1.07331e-14 4757 2.70092e-14 -124836)
(-666841 73093 -2.98076e-14 1284.42 5.35684e-15 -165138)
(-155889 111648 3.32685e-14 -724.253 2.38051e-14 -38858.9)
(1.11135e+06 53580.5 3.72194e-14 4527.27 2.67818e-14 276872)
(1.2056e+06 54008.3 -8.08264e-15 19605.8 4.02979e-15 303998)
(1.43375e+06 54217.6 6.5572e-15 -2238.05 4.14283e-15 355188)
(97376.1 71677.9 -1.24768e-13 1432.22 1.51593e-13 24516.3)
(-358918 22869.7 -7.73265e-14 -3670.27 -3.97703e-14 -89965.6)
(-346161 34122.7 -9.81109e-14 4985.41 6.56538e-14 -84652.6)
(1.65829e+06 -2172.98 0 11982.9 0 414429)
(1.6615e+06 55979.3 0 1240.89 0 412559)
(965656 44801 1.51176e-14 -1993.29 7.24726e-14 239104)
(959055 12219.3 4.87295e-14 4264.7 -1.36561e-13 239019)
(-999877 13515.2 0 -8113.19 0 -250103)
(-974235 44353.8 0 6769.36 0 -240048)
(28663.4 71074.9 -1.7192e-14 2984.19 4.92773e-14 7852.41)
(-72141 35009.5 1.84034e-13 -4803.32 -7.79462e-14 -19091.5)
(-269277 32636 -4.85195e-14 -3403.88 -1.79105e-14 -67657.6)
(2.19895e+06 4585.56 0 44779.6 0 556714)
(-39112.7 63810.3 -1.21341e-13 -3433.45 -3.0387e-15 -10556.6)
(-45396.5 66602.8 -1.74771e-14 -5342.15 -9.72795e-14 -12589.3)
(231827 80320.2 -6.27087e-14 -4943.1 -4.30001e-14 56294.4)
(-184442 79940.8 -1.30772e-13 -4934.31 5.47995e-14 -46988.1)
(222027 51824.6 3.8109e-14 -6943.32 -3.94381e-14 53366.7)
(-853576 42822.7 2.69063e-14 -7319.31 -5.49075e-14 -213606)
(857173 46183.7 -1.11196e-14 -8439.7 -6.71597e-14 210588)
(-1.48281e+06 68998.5 1.16954e-14 -9060.89 -5.04956e-14 -370164)
(-1.79969e+06 -158108 6.31457e-15 341315 -4.59283e-15 -361853)
(620061 93560.4 -1.00126e-14 -12937.5 1.24925e-14 150640)
(66718.5 86781.2 -6.51426e-15 -3825.23 3.66632e-14 15605.1)
(-805736 72000.6 -3.26952e-14 -4757.16 -9.14172e-14 -201100)
(674912 28670.1 -4.2398e-14 7393.59 6.11331e-14 169294)
(-471393 46255.4 4.68824e-14 -8601.55 6.01379e-14 -119096)
(364903 70376.7 7.01429e-14 4361.05 1.22001e-15 91621.9)
(66982.2 79961.2 1.95112e-14 3126.17 9.13781e-16 17395.3)
(118103 63831 -8.25205e-14 -1169.18 1.03713e-13 29013.8)
(-236493 56337.9 5.72468e-14 -15069.8 -6.08983e-14 -62417.8)
(-381717 103242 9.71325e-16 6081.59 7.66912e-14 -93202.8)
(-216036 56037.2 8.79478e-15 -14142.4 -6.14376e-14 -57111.8)
(-348818 98998.9 5.57232e-14 5155.65 -2.03764e-14 -85269.6)
(85433.4 49077.8 -3.52465e-14 -2694.71 1.09759e-14 20529.2)
(-40138.1 84174 -9.23045e-16 2319.5 -6.82856e-14 -9383.56)
(-26275.3 83978.7 8.45436e-14 1966.12 6.78535e-14 -6031.6)
(-17989.6 77248.3 4.34979e-14 319.027 -9.47837e-14 -4384.44)
(1.188e+06 40069 2.5623e-14 2855.48 3.96458e-15 295476)
(-12439.6 85280.5 -9.58851e-14 -5583.82 -4.26494e-14 -4471.97)
(-47107.2 65735.4 4.72293e-14 -5982.06 -1.5826e-13 -13172.5)
(1.67244e+06 -42291.6 -1.27549e-14 -87168.6 -9.38209e-15 393337)
(266118 52810.7 5.03933e-14 -4853.02 -6.46699e-14 64825.1)
(-627454 89788.7 3.41157e-14 11280.2 9.2326e-15 -152885)
(-707005 56102.4 -5.51531e-14 1838.39 -2.41497e-14 -174966)
(-702731 28787 0 -7724.09 0 -176278)
(884672 19202.2 -4.97559e-14 5510.36 -2.36666e-14 220872)
(846427 63962.3 2.96198e-15 8355.35 5.93312e-14 212089)
(-28828.3 55446.7 -5.58738e-14 1670.46 4.55765e-14 -6738.41)
(-21933.7 55799.2 4.05408e-14 1802.97 -2.26796e-13 -4994.85)
(-569636 96532.7 -2.26634e-14 5971.74 -5.6421e-16 -139856)
(-766522 70884.1 0 9288.65 0 -187885)
(544007 48989.3 1.24368e-14 5955.31 3.08299e-14 136457)
(-1.41309e+06 86274.4 5.42994e-15 -5718.7 -1.7323e-14 -352035)
(46552.1 60338.7 0 11028.4 0 14286.9)
(763864 41939.6 -2.7039e-15 -1048.09 1.8609e-14 189270)
(578430 93607.4 -1.44818e-15 6271.41 7.12444e-17 145076)
(-359277 74830.4 1.04062e-13 5091.61 -1.33851e-14 -87880.6)
(-279354 53297.7 -1.01518e-14 -213.198 7.33709e-14 -69366.2)
(-255981 71872.2 1.60685e-14 3326.91 -6.11464e-14 -62688.5)
(-199822 56338.4 -9.08311e-16 -1343.81 3.59253e-15 -49913.2)
(-290807 37379.3 3.75789e-14 1344.46 5.55243e-14 -71821.6)
(-244330 42286.5 -6.57334e-14 4780.1 1.32404e-14 -59437.3)
(-296289 89630 0 1352.02 0 -73180)
(-334529 92395.2 -3.34181e-14 -174.465 2.90669e-14 -83046.7)
(-365978 96627.1 -2.73691e-15 16.7992 -3.12358e-15 -90802.5)
(98152.5 60757.7 -1.61783e-13 1459.72 -8.09222e-14 24715.8)
(-19951 73634.3 -3.59061e-14 -2413.91 7.15241e-14 -5549.19)
(707209 37460.5 -2.0382e-14 4645.47 5.79542e-14 176626)
(739968 49718.5 2.82017e-14 -5388.16 -5.47463e-14 182264)
(123379 65439.8 5.82521e-15 -460.689 -4.03723e-14 30498.5)
(179080 58920.9 0 1990.18 0 44927.1)
(-400350 94092.1 4.21292e-14 -2954.42 -4.63998e-14 -100068)
(349667 59804.4 -8.04926e-14 4206.08 -9.96596e-16 87803.1)
(381794 84599.2 -3.52317e-14 4916.4 -2.17343e-15 95950.8)
(-137541 69258.1 -6.65135e-14 -1891.24 9.53937e-14 -34595.9)
(-116746 71884.8 3.88151e-14 -2230.65 2.28201e-15 -29520.6)
(-169784 75171.4 6.29754e-14 217.46 2.24129e-14 -42072.8)
(-188643 65747.6 0 -1257.47 0 -47118.1)
(-836285 42914.6 1.87428e-14 -108.8 -2.86823e-14 -207526)
(376200 66782.7 -3.04443e-14 -168.98 -1.20634e-13 93301)
(269411 66033.2 -1.395e-14 -747.529 -1.99433e-15 66660.8)
(-95104.3 176619 -8.6809e-15 17317.1 -6.26424e-15 -19300.6)
(978131 32257.2 -6.40566e-14 -7487.97 -3.83962e-14 240836)
(-1.14759e+06 13062.6 5.56398e-14 2294.92 3.33142e-14 -284170)
(-140096 164224 0 -6505.37 0 -36374.7)
(-137883 68407.7 2.32446e-14 2347.1 7.02123e-14 -33629.3)
(-116973 71900.2 -1.74841e-13 3986.72 -4.43745e-14 -28034.2)
(-199643 65327.4 7.54744e-14 1415.35 8.46489e-16 -49184.2)
(-172053 71022.2 0 3007.97 0 -41943.4)
(389627 56795.8 3.9003e-14 -2928.24 -6.28067e-14 95947.8)
(447411 76733.5 1.4219e-14 -3036.15 6.03285e-15 110259)
(361551 59602.5 -2.89177e-14 -6243.88 2.77065e-14 88158.9)
(421950 78160.2 3.07888e-14 -4617.64 8.53134e-14 103549)
(329962 58377.3 2.41253e-14 -5062.92 4.05448e-14 80614)
(384994 75459.9 -5.24789e-14 -3960.97 3.00142e-14 94541.9)
(306969 35841 2.37111e-14 659.122 8.96082e-14 76328.8)
(296233 23188.5 6.97322e-14 3668.05 1.49394e-13 74411.4)
(-601877 77734.8 -1.36061e-14 223.533 1.79349e-14 -149282)
(273635 71025.1 -7.22845e-14 -3742.89 -1.75357e-15 66965.6)
(-662217 57504.7 0 5441.86 0 -162959)
(1.14411e+06 79034.3 3.96293e-14 -10076.1 -2.49609e-14 281378)
(-569791 36190.1 7.2861e-14 2152.14 -1.19869e-13 -140843)
(-416851 40229.7 8.79303e-14 453.389 -5.91241e-14 -103317)
(-1.33102e+06 -629136 -5.12656e-15 213670 1.1485e-15 -277236)
(39586.8 69455.2 9.8173e-14 477.029 -2.57978e-14 9940.65)
(1.21568e+06 47208.5 -1.32313e-14 -2978.52 -6.63305e-16 300896)
(-581773 52670.5 -2.04378e-14 1941.22 -5.92088e-14 -143868)
(-420162 51373.7 1.27425e-13 1415.04 6.27469e-14 -103900)
(1.83816e+06 -9525.74 2.16587e-14 -3897.35 9.64683e-15 455118)
(-81695.3 62322.6 -1.40809e-14 -745.17 5.65211e-14 -20455.2)
(1.25607e+06 16785.7 3.30012e-14 3889.03 -2.0538e-14 312621)
(-292522 53569.1 4.40583e-14 1624.58 -7.77182e-14 -72177.6)
(-1.04785e+06 79700.4 2.68121e-14 10830.8 -3.4882e-15 -257305)
(-985172 53173 -1.63801e-14 -6247.74 -1.25733e-15 -245991)
(950091 54600.3 -3.10406e-14 1052.27 2.03424e-14 235998)
(-119105 70843.2 -1.92864e-13 5043.86 -8.78489e-14 -28300.9)
(-2928.62 -33811.9 2.08566e-16 -53009.9 7.41479e-17 -13879.5)
(-15802.2 66764.9 0 3027.19 0 -3169.74)
(-1.7659e+06 -563229 8.41567e-15 225380 -2.32478e-15 -382234)
(1.32611e+06 -627877 9.95125e-15 -215168 3.14007e-15 275647)
(-829717 82370.6 3.44614e-14 -7478.48 -3.34913e-14 -207725)
(283413 52824 1.47156e-14 2108.61 5.68645e-14 70843.8)
(390301 47930.7 -4.7455e-14 2594.79 1.07997e-13 97485.5)
(115844 67543.7 9.4801e-14 -1540.27 2.82519e-14 28361)
(-214788 17491.5 5.49488e-14 438.081 -8.45372e-14 -53184.5)
(188802 84565.9 -4.58417e-14 -1181.27 4.19703e-14 46552.4)
(-96665 54948.5 1.35417e-14 1024.19 2.07764e-14 -23730.4)
(-92186.2 96584.5 9.85932e-15 3682.63 2.86861e-14 -21959.5)
(-1.44235e+06 8809.47 -4.5898e-15 39066.9 1.10084e-14 -348184)
(11840.9 -20119.4 5.47218e-17 -35135.5 3.39662e-17 -5779.87)
(-480975 83697.1 -2.02155e-16 5863.98 3.84786e-15 -117885)
(376406 49431.3 3.43086e-14 -2096.94 1.06483e-13 92873.6)
(1.50177e+06 -290335 8.78249e-16 -40409.3 1.15482e-15 362594)
(-43081.5 54412 -8.83547e-15 -6877.31 -6.87273e-14 -12395.8)
(-48643.4 86721.1 7.0108e-15 -2679.96 6.71034e-14 -12734.4)
(-28013.6 76186.5 -1.20005e-15 738.501 -1.0291e-13 -6767.51)
(-74375.3 69445.5 -1.92208e-14 2541.34 2.62415e-14 -17823.5)
(32038.9 74994.5 3.06337e-14 -1083.84 7.9214e-14 7680.57)
(21415.5 77800.9 -7.19075e-14 -626.449 -2.34918e-14 5158.18)
(-1.50751e+06 -288981 3.77572e-15 39101.6 -1.1659e-15 -364342)
(517308 82514.6 -2.85143e-14 1700.84 1.54663e-14 128777)
(-180505 66414.8 -1.92435e-13 568.79 -5.46261e-14 -44645.8)
(599087 70303.4 1.01471e-13 5474.19 -1.71723e-13 150004)
(547686 68091.8 -1.19591e-15 4884.85 -6.56691e-14 137104)
(499864 65213.6 -1.87295e-13 2542.77 2.83312e-14 124657)
(87828 41599.9 -9.40345e-14 4207.22 -3.51991e-14 22835.8)
(-1.19742e+06 31827 5.11632e-14 -3491.63 -4.97615e-14 -297972)
(371051 52865.9 1.02008e-13 -2035.07 1.10033e-14 91560.2)
(523409 53919.3 -4.62074e-14 -2042.33 -6.61565e-14 129362)
(-102940 66584.6 -1.62961e-13 -452.203 -2.74947e-14 -25653.6)
(774743 90644.4 1.0893e-14 -10054 1.58325e-14 189735)
(145719 52641.2 -6.59431e-14 -732.877 4.46933e-14 35973.9)
(-1.55633e+06 25317.6 -1.74971e-14 -2077.67 -6.50881e-15 -386674)
(44192 68225.9 -8.50334e-14 1957.25 -7.15866e-14 11450.6)
(-129723 71651.2 -1.69115e-13 2129.35 7.99162e-14 -31658.6)
(429878 57557.5 1.28743e-13 1900.6 -1.85959e-14 107133)
(392786 56604.9 1.20015e-13 1338.75 2.92049e-14 97790.2)
(358276 54439.6 -8.68709e-14 -529.911 2.39672e-14 88764.2)
(808178 46066.6 1.3088e-14 373.383 2.77064e-14 200618)
(170471 70459.8 -5.70887e-14 2535.48 -1.2245e-13 42926.4)
(-438736 61831.5 3.93708e-14 -6552.59 8.87317e-16 -110485)
(-347620 106828 2.41392e-14 3289.4 2.69761e-14 -85435.5)
(-191961 47186.7 0 1303.14 0 -47306.1)
(-601320 78041.5 -5.27117e-14 -6698.35 1.60509e-14 -150862)
(-658728 80573.7 -7.94738e-14 -7324.99 -5.27667e-15 -165261)
(-719751 84989.8 -7.94742e-14 -8409.74 3.83294e-14 -180672)
(337998 54577.3 1.61448e-15 5301.83 2.0116e-14 85179.7)
(232041 59824.9 2.54275e-14 3442.02 -3.18518e-14 58428.2)
(65003.5 10790.8 -7.39347e-14 3114.79 2.66802e-14 16901.5)
(121007 56459.1 0 -1869.8 0 29560.4)
(156279 46594.1 -8.6546e-14 633.503 5.16811e-14 38933.3)
(1.81422e+06 -81981.6 -4.71973e-15 -245165 -2.28828e-15 389315)
(662872 39803.7 8.57459e-14 113.949 -8.80094e-14 164500)
(-507819 70595.4 0 518.598 0 -125872)
(-358483 65268 -4.24503e-14 6767.49 -1.87207e-15 -87267.6)
(285548 68984.7 2.26085e-14 -3165.64 -2.79722e-14 70064.8)
(-91505.9 78716.5 3.77462e-14 -2050.8 3.09821e-14 -23213.3)
(-13090.4 79471.8 1.11035e-13 -1842.25 -8.75561e-14 -3705.09)
(28589.6 57950.8 8.922e-14 7663.99 -1.41341e-14 8995.25)
(31511.8 58786 -4.67687e-14 8364.63 -4.36073e-14 9894.15)
(-5478.38 99789.7 -2.34834e-15 -3285.67 -1.92881e-14 -2174.54)
(-7771.91 53224 -2.07526e-14 -739.213 6.98367e-14 -2111.78)
(-740.228 60969 -7.76283e-14 -1681.38 5.78755e-14 -600.85)
(10180.6 66712.1 7.41037e-14 -12499.4 -3.36867e-14 -575.329)
(128441 50175.6 -5.82812e-15 2315.67 -2.75734e-14 32443.5)
(-245835 104073 -1.3778e-15 1839.76 -1.34134e-14 -60540.1)
(75541.4 65830.4 1.85968e-13 519.561 -3.66192e-14 18872.3)
(9420.24 101168 7.91756e-15 -14300.1 1.13548e-14 -1210.8)
(-513445 100555 -1.97161e-14 -2779.67 -1.18728e-14 -128086)
(638959 49783.3 6.4685e-14 4127.07 5.78092e-14 159563)
(-273002 71310.6 -7.15859e-14 -131.736 2.34244e-14 -67770.1)
(-1.2042e+06 226673 -3.44008e-15 217287 2.07488e-15 -244872)
(-172681 46013.2 5.09375e-14 -2220.93 5.53566e-14 -43396.8)
(-284285 101119 0 2413.62 0 -69938.1)
(82252.4 65218.3 9.92273e-14 -1132.47 -1.37148e-13 20127.5)
(126578 58640.7 5.25181e-15 -210.501 1.70693e-14 31354.3)
(1.32442e+06 -292641 -1.06789e-15 42269 1.88666e-16 339103)
(-1.80445e+06 12788.1 -1.45596e-14 10416.3 6.6978e-15 -445137)
(545059 54347.2 3.15668e-14 5455.07 2.65547e-14 136594)
(596610 55404.9 -3.21626e-14 5497.41 6.99914e-14 149395)
(-183299 71217.1 -2.35375e-13 2612.2 -8.40826e-14 -44832.1)
(125139 87484.2 4.16258e-14 7942.72 8.21334e-14 33020.3)
(-28966.5 63497.6 6.62159e-14 -3892.17 1.00839e-13 -8152.9)
(-751641 -488395 -9.12947e-16 56712.4 3.84751e-16 -172426)
(-1.74903e+06 63675.8 4.78067e-15 1926.51 6.16758e-15 -433492)
(1.55698e+06 35241.1 2.59923e-14 2062.8 -1.28462e-14 386830)
(-2.26843e+06 -36658.9 -6.77169e-15 -6528.92 -2.92819e-15 -564463)
(697760 48135.7 -2.8753e-14 -4843.92 -4.47699e-14 171926)
(484570 44512.3 -4.76002e-14 -3561.1 1.75344e-13 119348)
(-626407 77740.9 0 12742.3 0 -152263)