/*--------------------------------*- C++ -*----------------------------------*\
| =========                 |                                                 |
| \\      /  F ield         | OpenFOAM: The Open Source CFD Toolbox           |
|  \\    /   O peration     | Version:  2.3.1                                 |
|   \\  /    A nd           | Web:      www.OpenFOAM.org                      |
|    \\/     M anipulation  |                                                 |
\*---------------------------------------------------------------------------*/
FoamFile
{
    version     2.0;
    format      ascii;
    class       volScalarField;
    location    "0.7";
    object      k;
}
// * * * * * * * * * * * * * * * * * * * * * * * * * * * * * * * * * * * * * //

dimensions      [0 2 -2 0 0 0 0];

internalField   nonuniform List<scalar> 
15166
(
1.07921
1.32431
1.70741
2.10975
2.42104
2.7316
2.95352
3.08643
3.13276
3.11035
3.02678
2.91528
1.07956
1.29571
1.71125
2.10199
2.41266
2.70205
2.90347
3.01962
3.05551
3.02819
2.94587
2.82556
1.08759
1.26417
1.69585
2.07996
2.38993
2.66268
2.84851
2.95202
2.98072
2.95001
2.8678
2.74423
1.09812
1.23884
1.67425
2.05152
2.35866
2.6173
2.79075
2.88472
2.90832
2.87522
2.79228
2.66387
1.10951
1.21978
1.65114
2.0209
2.32315
2.56916
2.7322
2.81867
2.83848
2.80373
2.7203
2.59119
1.12182
1.20527
1.62766
1.98942
2.28548
2.51999
2.67403
2.75439
2.7713
2.73534
2.65145
2.52111
1.13507
1.19425
1.60442
1.95773
2.24666
2.47069
2.61682
2.69213
2.70673
2.66981
2.5852
2.45187
1.14907
1.18605
1.58194
1.92626
2.20748
2.42187
2.56096
2.63199
2.64471
2.6071
2.52221
2.38957
1.16359
1.18019
1.56059
1.89548
2.16853
2.37396
2.5067
2.57403
2.58518
2.54712
2.46227
2.33042
1.17847
1.17621
1.54046
1.86555
2.13021
2.32726
2.4542
2.51824
2.52807
2.48976
2.40547
2.27621
1.19355
1.17378
1.52161
1.8366
2.09273
2.28192
2.4035
2.4646
2.47331
2.43499
2.35176
2.22602
1.20874
1.17255
1.50397
1.80867
2.05625
2.23803
2.35462
2.41304
2.4208
2.38273
2.30135
2.18146
1.22393
1.17232
1.48752
1.78177
2.02086
2.19561
2.30754
2.36349
2.37045
2.33287
2.25378
2.13981
1.23905
1.17291
1.47217
1.7559
1.9866
2.15466
2.26221
2.31588
2.32215
2.28517
2.20787
2.09434
1.25403
1.1741
1.45786
1.73105
1.95348
2.11518
2.21859
2.27012
2.27583
2.23959
2.16446
2.0557
1.26882
1.17579
1.44447
1.70718
1.92151
2.07711
2.1766
2.22613
2.23136
2.19594
2.12307
2.01818
1.28336
1.17784
1.43192
1.68427
1.89066
2.04043
2.13619
2.18384
2.18865
2.15412
2.08345
1.98173
1.29763
1.18017
1.42016
1.66229
1.86093
2.00509
2.09729
2.14316
2.14763
2.11401
2.04544
1.94654
1.31157
1.18272
1.4091
1.64118
1.83224
1.97103
2.05982
2.104
2.10818
2.0755
2.00908
1.9136
1.32517
1.18538
1.3987
1.62091
1.80461
1.93819
2.02373
2.06629
2.07022
2.03851
1.97421
1.88199
1.3384
1.18814
1.38886
1.60144
1.77795
1.90653
1.98893
2.02996
2.03367
2.0029
1.94055
1.85043
1.35126
1.19092
1.37954
1.58274
1.75226
1.87599
1.95538
1.99494
1.99845
1.96859
1.908
1.81972
1.36371
1.1937
1.37069
1.56474
1.72747
1.84654
1.92302
1.96116
1.96449
1.93549
1.87644
1.7894
1.37575
1.19645
1.36226
1.54743
1.70357
1.81811
1.8918
1.92856
1.93171
1.90351
1.84586
1.76015
1.38735
1.19916
1.35421
1.53078
1.68051
1.79068
1.86165
1.89709
1.90006
1.8726
1.81624
1.73199
1.39851
1.2018
1.34651
1.51474
1.65825
1.76418
1.83253
1.86668
1.86947
1.8427
1.78759
1.70496
1.40925
1.20434
1.3391
1.49927
1.63677
1.73858
1.80439
1.83729
1.83989
1.81376
1.75992
1.67928
1.41955
1.20681
1.332
1.48435
1.61601
1.71384
1.77719
1.80887
1.81127
1.78576
1.73324
1.65508
1.42938
1.20918
1.32514
1.46997
1.59596
1.68993
1.75088
1.78137
1.78357
1.75867
1.70748
1.63156
1.43879
1.21144
1.31852
1.45606
1.57658
1.66679
1.72542
1.75475
1.75674
1.73244
1.68253
1.60843
1.44774
1.21361
1.31209
1.44262
1.55784
1.64441
1.70077
1.72897
1.73075
1.70702
1.65838
1.58618
1.45623
1.21568
1.30586
1.4296
1.5397
1.62274
1.67691
1.70399
1.70555
1.68238
1.63495
1.56443
1.46426
1.21764
1.29981
1.41702
1.52215
1.60177
1.65379
1.67978
1.68113
1.65848
1.61225
1.54354
1.47189
1.21951
1.29393
1.40482
1.50516
1.58145
1.63139
1.6563
1.65744
1.63531
1.59022
1.52314
1.47902
1.22127
1.28819
1.39301
1.4887
1.56176
1.60967
1.63354
1.63445
1.61281
1.56886
1.50349
1.48575
1.22295
1.28262
1.38154
1.47275
1.54268
1.58861
1.61145
1.61214
1.59097
1.54811
1.4843
1.49203
1.22453
1.27718
1.37041
1.45728
1.52417
1.56817
1.59
1.59046
1.56976
1.52799
1.46604
1.49788
1.22602
1.27187
1.3596
1.44227
1.50621
1.54833
1.56917
1.5694
1.54915
1.50848
1.44843
1.50331
1.22744
1.26668
1.3491
1.42771
1.48878
1.52907
1.54894
1.54894
1.52914
1.48952
1.43099
1.50832
1.22878
1.26162
1.33888
1.41359
1.47187
1.51037
1.52928
1.52906
1.50969
1.47116
1.41464
1.51287
1.23004
1.25666
1.32895
1.39987
1.45545
1.4922
1.51018
1.50973
1.49075
1.45313
1.39694
1.51698
1.23122
1.2518
1.31929
1.38654
1.4395
1.47455
1.49161
1.49092
1.47231
1.43544
1.3796
1.52064
1.23229
1.24705
1.30989
1.37359
1.424
1.45739
1.47355
1.47262
1.45434
1.41824
1.36366
1.52389
1.23326
1.2424
1.30074
1.36101
1.40893
1.44071
1.45598
1.4548
1.43684
1.40146
1.34791
1.52672
1.23409
1.23786
1.29186
1.34877
1.39428
1.42448
1.43888
1.43746
1.41978
1.38514
1.33294
1.52914
1.23479
1.23342
1.28321
1.33686
1.38003
1.4087
1.42225
1.42056
1.40316
1.36921
1.31786
1.53115
1.23538
1.22908
1.27478
1.32526
1.36617
1.39335
1.40605
1.4041
1.38695
1.35372
1.30388
1.53277
1.23584
1.22484
1.26657
1.31397
1.35269
1.37839
1.39027
1.38806
1.37114
1.33862
1.28986
1.534
1.23618
1.22067
1.25857
1.30298
1.33957
1.36383
1.37488
1.37241
1.35572
1.32391
1.27657
1.53484
1.23643
1.21657
1.25077
1.29229
1.32679
1.34965
1.35989
1.35714
1.34067
1.30953
1.26311
1.53531
1.23659
1.21255
1.24316
1.28188
1.31435
1.33583
1.34528
1.34224
1.32597
1.29549
1.25029
1.53541
1.23668
1.2086
1.23573
1.27175
1.30223
1.32237
1.33102
1.32771
1.31163
1.28181
1.23784
1.53514
1.23669
1.20471
1.22848
1.26187
1.29042
1.30924
1.31713
1.31353
1.29763
1.26842
1.22516
1.53451
1.23664
1.2009
1.22139
1.25225
1.27892
1.29646
1.30358
1.29969
1.28396
1.25537
1.21336
1.53352
1.23651
1.19714
1.21448
1.24287
1.2677
1.28399
1.29037
1.28619
1.27061
1.24266
1.20199
1.5322
1.23629
1.19346
1.20773
1.23373
1.25678
1.27184
1.27747
1.27301
1.25758
1.23028
1.19101
1.53052
1.236
1.18984
1.20113
1.22481
1.24612
1.25999
1.2649
1.26014
1.24487
1.21819
1.17994
1.52851
1.23566
1.18629
1.19468
1.21611
1.23574
1.24844
1.25263
1.24759
1.23246
1.20638
1.16918
1.52616
1.23524
1.18281
1.18839
1.20763
1.22562
1.23718
1.24066
1.23534
1.22034
1.19478
1.1579
1.52348
1.23478
1.17939
1.18224
1.19935
1.21574
1.22619
1.22899
1.22337
1.2085
1.18344
1.14743
1.52047
1.23424
1.17605
1.17624
1.19128
1.20611
1.21547
1.21759
1.21169
1.19692
1.17238
1.13757
1.51715
1.23366
1.17276
1.17037
1.18339
1.19672
1.20501
1.20646
1.20028
1.18562
1.16161
1.128
1.5135
1.233
1.16955
1.16465
1.1757
1.18755
1.19481
1.19561
1.18915
1.17459
1.15109
1.11835
1.50954
1.23231
1.16641
1.15906
1.1682
1.17861
1.18485
1.18502
1.17828
1.16381
1.1408
1.10893
1.50525
1.23157
1.16334
1.15361
1.16089
1.1699
1.17515
1.17469
1.16766
1.15328
1.13073
1.09946
1.50066
1.2308
1.16034
1.1483
1.15375
1.1614
1.16568
1.1646
1.15731
1.143
1.12087
1.09034
1.49577
1.22996
1.15741
1.14311
1.1468
1.1531
1.15644
1.15477
1.1472
1.13295
1.11121
1.08121
1.49056
1.22909
1.15456
1.13806
1.14001
1.14502
1.14744
1.14517
1.13732
1.12313
1.10177
1.07252
1.48504
1.2282
1.15179
1.13315
1.1334
1.13713
1.13865
1.13581
1.12769
1.11355
1.09254
1.06396
1.47924
1.22723
1.1491
1.12837
1.12696
1.12945
1.13008
1.12667
1.11828
1.10417
1.08352
1.0557
1.47314
1.22624
1.14648
1.12372
1.12068
1.12195
1.12172
1.11775
1.1091
1.09502
1.0747
1.0474
1.46674
1.22519
1.14393
1.1192
1.11457
1.11465
1.11358
1.10906
1.10014
1.08608
1.06606
1.03941
1.46004
1.22412
1.14147
1.11482
1.10862
1.10753
1.10563
1.10057
1.09139
1.07735
1.05763
1.03161
1.45305
1.22303
1.13911
1.11058
1.10285
1.10061
1.0979
1.09231
1.08286
1.06882
1.04939
1.02391
1.44576
1.22189
1.1368
1.10646
1.09723
1.09386
1.09035
1.08425
1.07453
1.06049
1.04134
1.01642
1.43821
1.22071
1.13459
1.10248
1.09177
1.0873
1.08301
1.07639
1.06642
1.05237
1.03345
1.00887
1.43036
1.21946
1.13246
1.09864
1.08648
1.08092
1.07586
1.06874
1.0585
1.04443
1.02573
1.00151
1.42222
1.2182
1.13041
1.09493
1.08135
1.07472
1.0689
1.06128
1.05079
1.03669
1.01818
0.994239
1.41379
1.21692
1.12846
1.09136
1.07638
1.0687
1.06214
1.05403
1.04327
1.02914
1.01079
0.987203
1.40509
1.21559
1.12661
1.08794
1.07158
1.06285
1.05556
1.04697
1.03595
1.02177
1.00357
0.980191
1.39609
1.21424
1.12484
1.08466
1.06694
1.05719
1.04916
1.04009
1.02881
1.01458
0.996514
0.973509
1.38683
1.21283
1.12316
1.08153
1.06247
1.0517
1.04295
1.03341
1.02186
1.00756
0.989618
0.967022
1.37728
1.21139
1.12157
1.07853
1.05816
1.04639
1.03693
1.02692
1.01511
1.00073
0.982911
0.960608
1.36746
1.20991
1.12008
1.07569
1.05402
1.04126
1.0311
1.02062
1.00855
0.994095
0.976372
0.954244
1.35735
1.20842
1.1187
1.073
1.05005
1.0363
1.02545
1.01451
1.00217
0.987626
0.96999
0.948156
1.34698
1.20686
1.11741
1.07046
1.04626
1.03153
1.01998
1.00858
0.995969
0.981341
0.963774
0.942071
1.33634
1.20524
1.11621
1.06808
1.04264
1.02694
1.0147
1.00283
0.989955
0.975222
0.957708
0.936329
1.32541
1.20359
1.11512
1.06586
1.0392
1.02253
1.00961
0.99728
0.984129
0.969297
0.951839
0.930618
1.31421
1.20191
1.11413
1.0638
1.03594
1.01832
1.0047
0.991917
0.97849
0.963551
0.946138
0.925106
1.30273
1.2002
1.11326
1.06192
1.03287
1.01429
0.999985
0.986739
0.973034
0.957975
0.940568
0.919429
1.29097
1.19844
1.11247
1.0602
1.02998
1.01045
0.995459
0.981747
0.967758
0.952572
0.935187
0.914554
1.27894
1.19664
1.1118
1.05865
1.0273
1.00681
0.99113
0.976953
0.962688
0.947389
0.930054
0.909678
1.26666
1.19475
1.11123
1.05729
1.0248
1.00337
0.986999
0.972356
0.957804
0.942372
0.92506
0.904916
1.25409
1.19285
1.11077
1.0561
1.02251
1.00014
0.983071
0.967955
0.953112
0.937544
0.920247
0.900202
1.24125
1.19086
1.11042
1.0551
1.02043
0.997109
0.979346
0.963755
0.948615
0.932902
0.915596
0.895625
1.22815
1.18879
1.11017
1.05427
1.01855
0.994297
0.975832
0.95976
0.94432
0.928461
0.911132
0.891118
1.21478
1.18667
1.11005
1.05366
1.0169
0.991706
0.972532
0.955973
0.940222
0.924196
0.906812
0.88685
1.20111
1.18454
1.11003
1.05325
1.01548
0.989344
0.969453
0.952396
0.93633
0.920133
0.902696
0.882704
1.18719
1.18225
1.11014
1.05303
1.01429
0.987213
0.9666
0.949036
0.932646
0.916266
0.898752
0.87876
1.17298
1.17993
1.11035
1.05303
1.01335
0.98533
0.963982
0.945905
0.92918
0.912611
0.895024
0.874945
1.1585
1.17752
1.11067
1.05325
1.01265
0.983691
0.961601
0.942999
0.925924
0.909149
0.891465
0.871451
1.14373
1.17508
1.11112
1.05369
1.01221
0.982315
0.959471
0.940327
0.922895
0.905908
0.888126
0.868132
1.12869
1.17256
1.11168
1.05436
1.01204
0.981209
0.957606
0.937912
0.920114
0.902913
0.885033
0.864947
1.11338
1.16992
1.11235
1.05525
1.01215
0.980386
0.956009
0.935748
0.917573
0.900143
0.882161
0.862056
1.09779
1.16715
1.11315
1.05639
1.01254
0.979857
0.954688
0.933847
0.915278
0.897605
0.879509
0.859472
1.08193
1.16433
1.11406
1.05779
1.01323
0.979632
0.953659
0.932221
0.913244
0.895331
0.877129
0.857013
1.06578
1.16135
1.11509
1.05944
1.01424
0.979721
0.952938
0.930884
0.911476
0.893289
0.874931
0.854822
1.04935
1.1583
1.11623
1.06135
1.01557
0.980151
0.952539
0.929853
0.909999
0.891532
0.873017
0.852801
1.03264
1.15522
1.1175
1.06355
1.01725
0.980936
0.952483
0.929141
0.908822
0.89006
0.87137
0.851034
1.01563
1.15192
1.1189
1.06603
1.01929
0.982091
0.952789
0.928762
0.907955
0.888865
0.869955
0.849443
0.998342
1.14856
1.12044
1.06882
1.02171
0.983645
0.953473
0.928745
0.907426
0.887991
0.868867
0.84819
0.980761
1.14511
1.12208
1.07191
1.02452
0.985609
0.95456
0.929108
0.907254
0.887461
0.868122
0.847352
0.962911
1.1414
1.12385
1.07531
1.02774
0.98802
0.956075
0.929876
0.907471
0.887321
0.86779
0.846806
0.944764
1.13762
1.12574
1.07903
1.03139
0.990884
0.958039
0.931057
0.908065
0.887502
0.867672
0.846148
0.926326
1.13374
1.12773
1.08311
1.0355
0.994235
0.96047
0.932674
0.90905
0.888028
0.867867
0.845998
0.907612
1.12962
1.12988
1.08752
1.04008
0.998096
0.963404
0.934764
0.910477
0.888985
0.868516
0.846369
0.888588
1.12543
1.13215
1.09232
1.04517
1.00253
0.966889
0.937373
0.91238
0.890373
0.869515
0.847043
0.869274
1.12095
1.13457
1.0975
1.0508
1.00754
0.970972
0.940547
0.914819
0.892272
0.871053
0.848367
0.849665
1.11632
1.13708
1.10309
1.05701
1.0132
0.975694
0.944328
0.917825
0.894715
0.873127
0.85027
0.829786
1.11161
1.13973
1.10909
1.06382
1.01954
0.981105
0.948772
0.921443
0.897735
0.875759
0.852512
0.809608
1.10663
1.14252
1.11554
1.07128
1.02662
0.987246
0.953904
0.925689
0.90128
0.878736
0.854687
0.789119
1.10142
1.14547
1.12246
1.07942
1.03449
0.99419
0.959791
0.930633
0.90547
0.882351
0.857878
0.768345
1.09595
1.14855
1.12988
1.08831
1.04322
1.00202
0.966534
0.936382
0.910434
0.886784
0.862018
0.747293
1.09043
1.15176
1.13783
1.09801
1.05288
1.01082
0.974203
0.942972
0.91614
0.89178
0.86644
0.725925
1.08453
1.15516
1.14637
1.10859
1.06359
1.02068
0.982895
0.950513
0.922708
0.8976
0.871582
0.704257
1.07837
1.15875
1.15556
1.12013
1.07544
1.03174
0.992728
0.959103
0.930204
0.904198
0.877487
0.682309
1.07216
1.16255
1.16544
1.13277
1.08858
1.04414
1.00387
0.968904
0.938809
0.911847
0.884422
0.660024
1.06554
1.16667
1.17616
1.14664
1.10318
1.05805
1.01647
0.980051
0.948638
0.92058
0.8921
0.637422
1.05875
1.17117
1.18785
1.16195
1.11945
1.07368
1.03071
0.992675
0.959769
0.930485
0.90106
0.614445
1.05171
1.17618
1.20081
1.17895
1.13766
1.09127
1.04677
1.00694
0.972312
0.94157
0.910982
0.591096
1.04468
1.18213
1.21537
1.19807
1.15814
1.11112
1.06493
1.02307
0.986496
0.954178
0.92242
0.567258
1.03781
1.18956
1.23223
1.21982
1.18132
1.13354
1.08544
1.04125
1.00242
0.968217
0.935013
0.542866
1.03237
1.19968
1.25231
1.24483
1.2076
1.15877
1.10844
1.06161
1.02015
0.983714
0.948595
0.517793
1.03186
1.21574
1.27802
1.27441
1.23783
1.18755
1.1347
1.08474
1.04018
1.00095
0.963599
0.488282
1.03317
1.23063
1.30433
1.30263
1.26675
1.21531
1.16112
1.10812
1.06115
1.01908
0.980034
1.04069
0.00468007
0.347416
0.321801
0.320738
0.288909
0.279331
0.646844
0.830962
0.777925
0.567786
0.00777924
0.0326159
3.01861
0.277069
0.00354997
2.83097
0.110618
0.107654
0.00348338
0.140584
0.176121
0.14482
0.0269065
1.05614
0.346504
0.160017
0.375053
0.604656
0.812981
0.538076
1.16682
0.00420061
0.558274
0.0311393
0.16594
0.387304
0.470848
0.393049
0.00818292
0.0704792
0.0033773
0.071673
0.531588
0.268449
0.173095
0.0608479
0.024853
0.271387
0.140031
0.164095
0.634587
0.262998
0.00321463
1.98786
0.0044469
0.0106635
0.00337424
0.471547
0.266435
0.155739
1.19157
0.0032091
0.0168825
0.183598
0.0045328
0.88889
0.252362
1.53223
0.689192
1.88399
0.0535753
0.383405
0.729126
0.0273706
0.00323014
0.797584
0.00309478
0.0702098
0.241063
0.103477
0.00310386
0.405745
0.295304
0.0163655
1.11908
0.884536
0.00319468
0.390994
0.237791
0.3538
0.653799
0.00319826
0.00392206
0.456863
0.00326193
0.362494
0.012842
0.00317208
0.899045
1.10872
0.203696
0.00335325
0.0043406
0.00312134
0.514838
0.512244
0.689487
0.533171
0.00886253
0.0944758
0.00312705
0.202571
0.0037268
0.00318215
0.219924
0.0195239
0.219992
1.09333
0.176126
1.0245
0.0293421
1.69984
0.199699
0.125667
1.29234
0.00405452
1.96535
0.0323845
0.00320012
0.231678
0.00323636
0.233191
0.00434539
0.162787
0.00514923
0.233314
0.595957
0.208028
0.00585718
0.0170208
0.145385
0.269573
0.0254537
0.174606
1.89732
0.298922
0.0045429
0.983103
0.374167
0.0640831
0.214046
0.00309227
0.114722
0.156548
0.00314728
0.248542
0.003202
1.27997
0.00708526
0.027042
0.00356927
0.128083
0.0132883
0.149778
0.0844455
0.984658
0.291705
0.335188
0.00307307
1.88824
0.758516
1.99265
0.0179157
0.00305944
0.57458
0.00311686
0.305935
0.138026
0.719695
1.00917
0.438049
0.0629261
0.37121
0.00339039
0.262746
0.00317802
0.00315336
0.17535
0.00318555
0.487619
0.00310671
0.936802
0.0047575
0.284102
0.296508
0.27177
0.165145
0.00312702
3.17553
1.01996
0.318217
0.413987
0.217261
0.324907
0.105014
0.0915468
0.228933
0.703498
0.216978
0.288253
0.900076
0.500565
0.396576
0.00315442
0.283577
0.0129681
0.427436
3.25234
0.210309
0.294668
1.0211
0.338903
0.00315697
0.0031882
1.30872
1.11839
0.00327021
4.20618
0.0324072
0.312489
0.121387
0.00311783
0.947475
0.414199
0.253647
0.246316
1.07899
0.656998
0.322201
0.154774
0.161398
1.25517
1.68695
0.375292
0.281819
0.227991
0.00350597
1.39594
0.289876
0.650694
0.726841
0.378958
3.95176
0.236706
0.240416
0.210438
0.310505
0.578064
0.341718
0.216421
0.258169
0.0157558
0.0899665
0.683918
0.261859
0.922062
0.506963
0.361388
1.49128
0.288102
0.0502876
1.63946
0.209099
0.208349
1.69585
0.242287
0.260472
0.301823
0.203603
0.866182
0.238757
0.37266
0.331606
0.614212
0.273145
0.474496
0.207983
1.1208
0.12859
0.201679
1.66873
0.226326
0.224879
0.283013
0.91984
0.119713
0.206076
0.0677735
0.480367
0.183644
0.10614
1.36668
2.05755
0.154298
0.954107
0.323525
0.00318779
0.201465
0.166118
0.211163
0.288921
0.00315766
1.18633
0.320044
0.067397
0.225816
0.762332
0.00315194
0.63877
0.0388431
0.579574
0.42267
4.92983
0.503347
0.758442
0.539095
0.00313881
0.00316297
0.285049
0.447194
0.00307749
0.517294
0.00311578
0.0031623
0.00322465
0.00311707
0.140397
0.0031637
0.00580784
1.03855
0.5123
0.003229
0.334973
0.00987158
0.19585
0.295646
1.28833
4.14642
0.481123
0.00301096
0.00323876
0.0819578
0.134223
0.20897
0.0030643
0.0988729
0.315842
0.878564
0.377779
0.177648
0.2733
1.02608
4.08656
0.15712
0.325533
0.0036491
0.00318514
0.159085
0.258135
0.116373
0.173463
0.505848
2.744
1.69548
0.143826
0.343371
1.01421
0.00319835
0.419833
0.753641
0.00527048
0.00316292
0.520382
3.82726
0.734981
0.0030802
0.0489275
0.154766
0.0256728
0.00319885
0.833385
0.382688
0.277379
0.282031
0.00374825
3.8143
0.00314286
0.235827
0.544822
0.00649068
0.0111336
0.962719
0.00879739
1.40935
0.767076
1.15118
0.653578
0.172244
0.681603
0.00313953
0.00309426
0.00317226
1.03844
0.0754675
1.2625
2.76259
0.164713
0.592064
0.00317912
0.0109259
0.274334
0.00308087
0.00317183
0.703335
0.00306837
0.227929
0.916443
0.371907
0.00302994
0.00749523
0.110588
0.116053
0.237032
0.144972
0.00310504
3.34347
0.836831
0.109496
0.0123934
0.327389
0.199604
0.00711823
0.279664
0.00690463
0.846247
0.0035282
0.250306
0.133134
0.00311625
1.30277
0.238425
0.322182
0.00930164
0.471292
0.144121
0.00516826
0.217478
0.490097
0.352344
1.10893
0.0240647
0.0509
0.0115463
1.31216
0.676432
0.0630448
0.137581
0.163218
0.334921
0.182164
0.511036
1.1034
0.00304567
2.04944
0.914973
0.226639
0.00309809
0.267647
0.96322
0.0255404
0.436742
0.348871
0.256772
0.126718
0.177136
0.25943
0.00358645
0.0189258
0.875656
0.0391543
0.00438481
0.923019
4.08772
0.0395619
0.19989
0.788978
0.0904687
0.491435
0.259217
0.843746
0.321202
0.290981
0.00323008
0.0851839
0.447598
0.382344
1.33291
0.214166
1.42372
0.937612
3.75206
0.888724
0.310538
0.00316689
1.26405
0.204166
0.801704
0.416479
0.163774
0.0844163
0.426546
0.00321466
0.297439
0.00317781
0.340867
0.421633
0.213241
0.17507
1.27229
0.241275
1.04348
0.64277
1.97776
0.00321794
0.123861
0.933255
2.44931
0.196092
0.717549
0.0036172
0.0282468
0.350277
1.85833
0.592224
0.00310244
0.0582262
0.00312257
0.0586919
0.351312
0.0375847
0.846821
0.142974
0.589652
0.155839
0.125201
1.23016
0.709046
0.00319514
0.00319639
0.257769
1.21775
0.275639
0.598503
0.44126
0.667498
0.266634
0.00302343
0.187562
0.253729
0.00485936
1.04936
0.265187
0.176374
0.274333
0.0127531
0.00302464
0.02372
0.00313934
0.647195
0.817784
0.709548
0.638185
0.00319306
1.47826
0.0898866
0.74295
0.135472
1.73235
0.0086755
0.154665
0.00307428
0.497146
0.71671
0.315652
0.409607
0.00300691
1.30177
0.805987
0.510931
0.00311652
0.0709168
0.813962
0.617962
0.00610454
2.17326
0.0037391
0.805242
0.614638
0.0036302
0.131744
0.0877322
0.202517
0.00310546
0.00319887
1.15776
0.431725
0.322118
0.526604
0.00488083
0.12805
0.0982811
0.768964
0.208424
0.00395863
0.209067
1.20891
0.00307799
0.00821254
0.28631
0.635131
1.11622
0.0031581
0.729484
0.221375
1.30865
0.0298749
0.151752
0.816499
0.00319986
0.199384
0.137924
0.376256
0.38336
0.726072
0.276567
1.21708
1.17701
0.282366
2.70765
0.00323658
0.00315036
1.49711
0.783646
0.00475881
0.00315674
0.473408
0.00320625
0.823768
0.540441
0.248053
0.00311694
0.808208
0.0530304
0.29141
1.21612
0.235412
0.148534
0.145233
1.34686
0.0031921
0.285559
0.981618
0.234542
0.557308
0.00673604
0.533443
0.263315
2.03174
0.00313014
0.148922
0.68375
0.305788
0.00332103
0.0952974
0.342185
0.439233
1.26975
0.0592639
1.87646
0.406351
0.0928391
0.404965
0.00313422
0.00737524
0.363051
0.00306756
0.1753
0.00316529
0.244709
0.0107784
0.839624
0.00321719
0.110645
0.49397
1.61077
0.356926
0.669928
0.163593
2.44857
0.0156033
0.0934937
0.571845
0.00309936
0.00320601
0.380335
0.156045
0.248862
0.390769
0.00328419
0.216263
0.21875
0.20101
0.492362
1.14826
0.200076
0.00319667
1.88295
2.42483
0.506895
0.00323832
0.0108347
2.0939
0.260425
0.00311983
1.29444
0.00310059
0.0804679
2.74575
0.00354817
0.29154
0.00314941
0.0566208
0.751429
0.00324368
0.00401704
0.00318308
0.00379997
0.0216799
3.81124
0.805135
0.0939079
0.242143
0.00316397
0.765555
0.00317339
0.248064
0.23275
0.0247985
0.159762
0.0139107
1.15107
0.00318443
4.32698
0.218276
0.62921
0.351569
0.163028
0.00309676
0.193401
1.09775
0.129337
0.752516
0.886087
1.6938
0.349812
0.0419615
0.627891
0.0840756
0.00406575
0.1067
2.47091
1.14891
0.120013
0.00846498
0.2975
0.00375591
0.44372
0.872045
1.08654
0.842952
0.89633
0.0372001
0.0058319
0.325983
0.224511
0.0483645
0.269498
0.00316116
0.261376
1.96579
0.00330254
1.69703
0.783296
0.114533
0.101938
1.45074
0.0236547
0.101414
0.457682
0.310686
0.294132
0.00322322
0.673992
0.0763058
0.27138
0.383127
0.199044
0.223024
0.00685733
0.688991
0.00317337
0.00316055
0.228472
0.104963
0.160166
1.91869
0.00303327
1.14083
0.0646097
0.0578781
0.00338881
1.72241
0.363859
0.0899662
0.784605
0.0598013
1.1601
0.154624
0.00314252
1.19384
2.08942
0.00546386
0.00876335
0.203566
1.03762
0.0993741
1.32474
0.0352596
0.23351
0.104147
0.156976
0.680999
0.203264
0.00318776
1.17582
0.328877
0.0151641
0.197112
4.25596
0.276463
0.00317662
0.00307079
0.764153
0.184078
1.01366
0.00306549
0.71515
0.295959
0.408496
0.00376693
0.314002
0.777353
0.00538486
0.258583
0.00321639
1.1234
0.2111
0.345392
0.262363
0.00314612
0.00314548
0.345556
1.40591
0.385968
0.732499
0.003028
0.045408
0.0032083
0.00626189
1.15985
0.0742166
0.0971199
0.124891
0.325377
0.305709
0.356475
1.21028
0.00317283
0.30434
0.732066
0.245567
0.00319247
0.943177
0.00320555
0.00316624
0.0885912
0.211994
0.0251614
1.36394
0.203236
2.80227
0.00328522
0.00476029
0.0397763
0.903272
0.306057
0.962741
0.00316826
0.00314853
0.00629162
0.00835912
1.10576
0.80584
0.640757
0.123542
0.0448945
0.315544
0.164208
0.578071
0.275873
0.879547
0.312612
0.00308098
0.332979
0.00536885
0.194635
0.889077
0.184412
0.231717
0.133298
0.00380966
1.34384
0.516347
0.489078
0.314535
0.00315936
0.588638
0.762552
0.334203
0.00825242
0.913106
0.479541
0.838569
0.328768
0.336683
0.590127
0.120062
0.861579
0.258606
0.0979661
0.236259
0.00317894
1.21452
0.862555
0.00311821
0.68468
0.004774
0.53805
0.204622
0.237266
0.266693
0.73072
0.953177
0.262308
0.131368
0.174756
0.219548
0.0125463
0.00310407
1.02787
0.0615855
0.938016
0.549806
0.224622
0.834621
0.54498
0.00314509
0.278253
1.53429
1.06108
0.226809
0.239312
0.570706
1.89724
0.190821
0.234674
0.0249311
0.0837572
0.546908
1.19626
0.111638
0.842158
0.821304
0.785945
0.23983
0.23132
0.425502
0.692695
0.00319155
1.94169
0.669912
0.205007
0.00319069
0.592503
0.474471
0.294877
0.00317438
0.591408
0.00317258
0.243212
0.0912311
0.00319457
0.82332
0.347653
0.00310567
0.531878
0.373563
0.608887
0.258809
0.519389
0.279644
0.705967
0.169206
0.157382
0.00312932
0.00470826
0.343427
0.173404
0.0243277
0.00322964
0.354899
0.00604327
0.119782
0.118556
0.445741
0.207248
0.0574967
0.0943227
0.549417
1.63706
0.329533
4.11882
0.870175
0.00311845
0.54108
0.589059
1.67751
0.00312663
0.173385
0.00318786
0.00359159
0.277284
0.289789
0.0391307
0.00340826
0.80608
3.7262
0.00739236
0.00317653
0.129319
0.263039
0.0240202
0.0740496
3.85301
0.140584
0.00339061
0.00317761
0.9692
0.262622
0.135715
0.0592915
0.651859
1.13166
0.392039
0.247356
0.679529
0.00317322
0.502302
0.00315978
0.231097
0.274221
5.38263
0.178325
0.0898063
0.00382908
1.18567
0.0031945
0.00313404
0.00585735
0.272527
0.287289
0.977123
0.00314931
0.507696
0.00317251
0.692932
0.977254
0.00320493
0.72539
0.225062
0.00317312
0.00330209
0.0319689
1.10732
0.383682
0.026435
0.0031745
0.0031327
0.848849
0.685867
0.327466
0.753955
0.117757
0.438707
0.00314897
0.0103098
0.382894
0.810796
0.759506
0.00887593
0.00317631
0.397866
0.00319772
0.203649
0.805842
0.35395
0.0431408
0.20087
0.506429
0.157238
0.00316975
0.513341
1.33287
0.648223
0.0064409
0.0306068
0.690378
3.69255
0.0548479
0.373707
0.00311028
0.00308662
0.00321468
0.0187778
0.401774
1.07556
0.0106793
0.220963
0.633963
1.23462
0.206222
0.0197127
0.00796646
0.00758002
0.158534
0.171373
0.23679
0.00322348
1.34463
0.00314333
0.0136505
0.844372
0.853022
0.0364522
0.372724
0.468142
0.00409995
0.130323
0.255674
0.0031548
0.00378137
1.12396
0.00365648
0.0032248
0.707211
0.235374
2.09315
0.209264
2.41317
0.00356025
0.00311458
3.2458
0.296052
0.225235
0.49843
0.0604026
0.232638
0.196499
1.0213
0.814677
0.588458
0.582171
0.233365
0.111225
0.321595
0.728511
0.014649
0.351355
0.00392247
0.439656
0.366682
0.107068
0.38433
0.188558
0.413341
0.20794
0.262183
1.11065
0.459679
0.215613
0.317319
0.710833
0.326198
0.00421339
0.00315953
0.110998
2.22846
0.00316167
1.78893
0.00312465
0.00989767
0.340468
0.221509
0.820583
0.680646
0.90295
1.14002
0.522641
0.386286
0.00316724
0.29083
1.05825
0.00323919
1.24782
0.00714261
1.70952
0.940771
1.13402
0.274175
0.206241
0.283962
0.0918499
0.284533
1.23621
0.360738
0.780228
0.169825
0.203107
0.0853781
0.231787
0.954721
0.00955244
0.666487
0.00319427
0.00393388
0.300202
1.51841
0.338434
0.273872
0.164437
0.110682
0.121761
0.0034692
0.341079
0.00346723
0.706361
0.00341834
0.0580688
0.943397
0.171792
0.3063
0.334159
0.318439
0.00623955
0.00321491
0.0992449
0.266846
0.114828
0.517126
0.0424974
0.366002
0.240405
0.374548
0.791934
0.00359434
0.00314781
1.68916
0.22657
0.172014
0.811087
0.68826
0.817706
0.00987908
1.68539
0.335799
0.213181
0.00347802
0.196948
0.403712
0.205465
0.20774
0.266035
0.0032306
0.472958
0.00313414
0.628393
0.010674
0.439935
0.118066
0.409633
0.00324326
6.54568
0.00319251
1.51063
0.0256326
0.00317523
0.0145932
0.274994
0.0031708
0.00318046
0.396911
0.03281
0.327492
0.0569862
0.00332665
0.21898
0.186482
0.445028
0.00334122
0.224019
0.189937
1.35632
0.707288
0.394665
0.415609
0.215745
0.30664
0.77872
0.83223
0.211253
0.00322413
0.145043
0.362392
0.306286
0.00471779
0.00856094
0.234324
1.57404
0.00318406
0.206294
1.23549
0.00305008
0.849718
0.93589
0.357313
0.594762
0.79696
0.259128
0.13005
2.59088
0.411579
0.885361
0.821863
0.222435
0.107509
0.0031663
0.42048
0.00587449
0.00321786
0.00313426
0.30048
0.00316628
0.00373378
0.537765
4.0584
0.406946
0.212645
0.833906
0.239593
0.00318233
0.165935
1.14395
0.0252623
0.164363
1.01908
0.313007
0.125606
0.0312129
0.00314371
0.00316818
0.0272989
0.0449179
0.302829
0.299997
1.23638
0.267413
0.268778
0.00395548
0.503371
0.213623
0.0032118
0.342804
3.37883
0.00320851
0.362729
1.01679
0.739473
0.656234
0.189875
1.10328
0.00356307
0.210225
0.00331898
0.00633659
0.00320971
0.835219
0.568565
0.0741374
0.00319328
0.00307303
1.11332
0.386833
0.289222
0.235308
0.354565
0.435311
0.306092
0.349968
0.35004
0.0031772
0.15118
0.123617
0.136323
0.385294
1.05927
0.767814
0.590836
0.363233
1.11615
0.826559
0.963137
0.416028
0.881466
0.0647111
0.825357
0.393181
0.0281189
1.01267
0.855884
0.4472
0.00311412
0.00320084
0.00361082
0.00444256
0.472239
0.00304521
0.494351
0.165092
0.996387
0.766835
0.00317142
0.474265
0.283351
0.186885
0.276007
0.390346
0.552734
0.00326542
0.00319927
0.00911217
0.100528
0.00313252
0.637536
0.267334
0.253037
0.760424
0.514615
0.441397
0.532106
0.00316787
0.319243
0.669126
0.00381456
0.0789434
0.409228
0.315015
0.537617
0.193285
0.00325607
0.375573
0.35845
0.00385279
0.0204918
0.0031579
0.178789
0.00440683
0.143965
1.28757
0.111601
0.0735149
1.00143
1.81235
0.00326947
0.628953
0.00305227
0.224976
0.346937
0.2478
0.484199
0.691017
0.676929
0.80233
1.22353
0.746825
0.00317862
0.00314518
0.0531813
0.101386
0.606595
0.172312
0.00319371
1.58822
0.253978
0.0082533
0.788513
0.0587039
0.00816869
0.0403909
0.997786
0.00646963
0.003195
0.258382
0.205954
0.640863
0.118252
0.226226
0.202942
0.00321397
0.291333
0.0902769
0.0600327
0.00337582
0.202593
0.534387
0.173662
1.44932
1.33534
0.316587
0.41341
0.00316339
0.359721
0.00319511
2.7303
0.0103364
0.430729
0.0942376
0.840415
0.0163766
0.00933714
0.248378
0.30777
1.30282
0.00356466
0.212141
0.482242
0.609097
0.185545
0.999391
0.120685
0.00343511
0.00320506
0.479165
0.635615
1.06302
0.289455
0.0848841
0.530374
0.328533
0.819075
0.0460113
0.00316921
0.00318277
0.122286
0.707431
0.689919
0.993096
0.00353341
0.0109607
0.167982
0.452396
0.268484
0.75918
0.349926
0.879201
0.00319888
0.00320958
1.13663
0.275257
0.885345
2.87798
0.36
0.0246359
1.41152
0.00318408
1.02332
0.0277212
0.0308294
0.00317113
0.0418006
0.0845678
0.837364
0.794279
0.00322673
0.758406
0.00316013
0.601095
1.56608
0.00314505
0.157374
0.00322657
0.259039
0.12754
0.174708
0.00308787
0.262057
0.211772
0.257336
1.02366
0.170225
1.22476
0.217516
0.833555
0.237364
1.11762
0.63802
0.00384251
0.00320865
0.37546
0.195128
0.823717
0.00317726
2.11178
0.00315893
0.00478215
0.0389347
0.00316026
1.14235
0.97459
0.00324379
0.665466
0.256681
0.102527
0.709352
0.00608347
0.0031292
0.422969
0.385979
0.00977415
0.776453
6.66904
1.35831
0.155339
1.19734
0.104346
0.00318524
0.00368816
0.0351781
0.137069
0.844314
1.09011
1.31563
0.795693
0.53163
0.509195
0.257832
0.652044
1.94379
0.591117
0.0430502
0.0783226
0.278804
1.50664
0.00338242
0.194293
0.655472
0.333471
0.00317286
0.423951
0.00305911
0.0138653
0.843746
0.0033876
0.298125
1.84989
0.00318984
0.352639
0.00351441
0.337264
0.0141158
0.0040673
0.76709
0.255193
0.91555
0.399756
1.12067
1.64652
0.489664
0.175871
0.752181
0.388513
0.0031157
0.57748