/*--------------------------------*- C++ -*----------------------------------*\
| =========                 |                                                 |
| \\      /  F ield         | OpenFOAM: The Open Source CFD Toolbox           |
|  \\    /   O peration     | Version:  2.3.1                                 |
|   \\  /    A nd           | Web:      www.OpenFOAM.org                      |
|    \\/     M anipulation  |                                                 |
\*---------------------------------------------------------------------------*/
FoamFile
{
    version     2.0;
    format      ascii;
    class       volScalarField;
    location    "0.7";
    object      p;
}
// * * * * * * * * * * * * * * * * * * * * * * * * * * * * * * * * * * * * * //

dimensions      [0 2 -2 0 0 0 0];

internalField   nonuniform List<scalar> 
15166
(
-17.2964
-22.3235
-25.0948
-27.3058
-29.1852
-30.7837
-32.2165
-33.474
-34.5611
-35.3677
-36.1098
-36.683
-22.0141
-24.527
-25.8884
-27.556
-29.13
-30.5557
-31.8602
-33.0392
-34.0709
-34.9004
-35.6416
-36.2349
-27.2015
-28.0906
-28.3654
-29.3015
-30.2994
-31.3147
-32.3136
-33.2456
-34.0949
-34.8205
-35.4656
-36.003
-30.1783
-30.5909
-30.5852
-31.1462
-31.7377
-32.4062
-33.1104
-33.798
-34.4485
-35.0272
-35.5465
-35.975
-32.0468
-32.3018
-32.2757
-32.6758
-33.0527
-33.507
-34.0009
-34.4981
-34.9809
-35.4226
-35.8256
-36.1744
-33.6947
-33.8144
-33.7568
-34.0312
-34.2671
-34.5759
-34.9171
-35.2671
-35.6129
-35.9353
-36.2317
-36.494
-35.2848
-35.2851
-35.1782
-35.3313
-35.4484
-35.6358
-35.8502
-36.0768
-36.3051
-36.5201
-36.7153
-36.8778
-36.7576
-36.6703
-36.5257
-36.5782
-36.598
-36.6816
-36.7878
-36.9084
-37.0345
-37.1548
-37.263
-37.3496
-38.0949
-37.9416
-37.7738
-37.7492
-37.6945
-37.694
-37.711
-37.7427
-37.7818
-37.8205
-37.853
-37.8704
-39.3173
-39.1108
-38.9273
-38.8424
-38.7304
-38.6624
-38.607
-38.5651
-38.5312
-38.4996
-38.4643
-38.4171
-40.4467
-40.1968
-40.0011
-39.8668
-39.7089
-39.5856
-39.4707
-39.3675
-39.2718
-39.1806
-39.0887
-38.9779
-41.5003
-41.2133
-41.0073
-40.831
-40.6351
-40.4654
-40.3007
-40.1457
-39.9976
-39.8552
-39.7179
-39.5746
-42.4852
-42.1672
-41.9526
-41.7405
-41.5127
-41.3034
-41.0965
-40.8973
-40.704
-40.5161
-40.3346
-40.16
-43.4092
-43.0642
-42.8424
-42.5997
-42.3449
-42.1017
-41.8586
-41.6207
-41.3868
-41.1554
-40.9177
-40.661
-44.2786
-43.9103
-43.682
-43.4127
-43.1346
-42.8624
-42.5883
-42.3176
-42.0503
-41.7888
-41.5358
-41.2728
-45.0985
-44.7097
-44.4756
-44.1832
-43.8852
-43.588
-43.2875
-42.9888
-42.6926
-42.4007
-42.118
-41.8416
-45.873
-45.4666
-45.2273
-44.9145
-44.599
-44.2799
-43.9563
-43.633
-43.3111
-42.9918
-42.678
-42.3762
-46.6073
-46.1844
-45.9399
-45.6089
-45.278
-44.9396
-44.5957
-44.251
-43.9071
-43.5651
-43.2267
-42.8979
-47.3028
-46.8657
-46.6165
-46.2695
-45.9249
-45.5695
-45.2078
-44.844
-44.4805
-44.1195
-43.7628
-43.4136
-47.9633
-47.5132
-47.2596
-46.8979
-46.541
-46.1703
-45.7926
-45.4118
-45.0307
-44.652
-44.2789
-43.9192
-48.5907
-48.1288
-47.8709
-47.4962
-47.1282
-46.7437
-46.3515
-45.9552
-45.5577
-45.1614
-44.769
-44.3918
-49.1865
-48.7144
-48.4527
-48.0659
-47.6878
-47.2908
-46.8856
-46.4751
-46.0624
-45.6495
-45.2363
-44.8308
-49.7561
-49.2726
-49.0065
-48.6087
-48.2215
-47.8132
-47.3963
-46.9732
-46.5478
-46.1227
-45.6991
-45.2833
-50.2968
-49.8032
-49.5337
-49.126
-48.7304
-48.3119
-47.8845
-47.4504
-47.0136
-46.5768
-46.1405
-45.7058
-50.8052
-50.3067
-50.0349
-49.6184
-49.2153
-48.7878
-48.351
-47.9069
-47.4597
-47.0122
-46.5659
-46.1198
-51.2952
-50.7877
-50.5122
-50.0873
-49.6774
-49.2417
-48.7964
-48.3433
-47.8866
-47.4294
-46.9728
-46.5144
-51.7605
-51.245
-50.9668
-50.534
-50.1178
-49.6744
-49.2213
-48.76
-48.2949
-47.8297
-47.3674
-46.9029
-52.2032
-51.6795
-51.3987
-50.9588
-50.5368
-50.0865
-49.6262
-49.1573
-48.6842
-48.2099
-47.7374
-47.2683
-52.6191
-52.0915
-51.8092
-51.3626
-50.9352
-50.4784
-50.0116
-49.5357
-49.0551
-48.5726
-48.0893
-47.6015
-53.0156
-52.4822
-52.1988
-51.7459
-51.3138
-50.8512
-50.3783
-49.896
-49.4089
-48.9203
-48.4326
-47.9389
-53.3919
-52.8555
-52.5689
-52.1099
-51.6732
-51.2052
-50.7269
-50.2388
-49.7458
-49.2511
-48.7573
-48.257
-53.7519
-53.2102
-52.9203
-52.4551
-52.0141
-51.541
-51.0575
-50.5642
-50.0657
-49.5653
-49.0671
-48.5655
-54.0823
-53.5425
-53.2512
-52.7809
-52.3362
-51.8585
-51.3706
-50.8725
-50.3688
-49.8626
-49.3568
-48.8471
-54.4019
-53.8576
-53.5629
-53.0882
-52.6403
-52.1585
-51.6665
-51.164
-50.6561
-50.1457
-49.6366
-49.1269
-54.7023
-54.1536
-53.8571
-53.3777
-52.9266
-52.4411
-51.9455
-51.4392
-50.9277
-50.4138
-49.9007
-49.3855
-54.9798
-54.4305
-54.1332
-53.6496
-53.1957
-52.7066
-52.2074
-51.6976
-51.1827
-50.666
-50.1522
-49.6384
-55.2415
-54.6898
-54.3921
-53.9039
-53.4473
-52.9549
-52.4524
-51.9391
-51.4202
-50.8985
-50.3781
-49.8635
-55.491
-54.9332
-54.6343
-54.1413
-53.6822
-53.1865
-52.6806
-52.1636
-51.6407
-51.1139
-50.5838
-50.0474
-55.7139
-55.157
-54.8594
-54.3615
-53.9004
-53.4017
-52.893
-52.3728
-51.8466
-51.3167
-50.7824
-50.2231
-55.9285
-55.3653
-55.0681
-54.5649
-54.102
-53.6009
-53.0898
-52.5675
-52.0395
-51.5105
-50.9892
-50.4637
-56.1203
-55.5558
-55.2596
-54.7513
-54.2875
-53.7842
-53.2711
-52.7465
-52.2159
-51.6811
-51.1455
-50.6098
-56.2968
-55.7325
-55.4334
-54.9207
-54.4568
-53.9515
-53.4363
-52.9097
-52.3769
-51.8404
-51.304
-50.7616
-56.4619
-55.894
-55.5913
-55.0746
-54.6106
-54.1031
-53.5863
-53.0578
-52.5232
-51.9852
-51.4473
-50.8999
-56.6018
-56.0375
-55.7349
-55.2117
-54.7492
-54.2398
-53.7214
-53.1912
-52.6548
-52.1152
-51.5773
-51.0363
-56.7335
-56.166
-55.8611
-55.3347
-54.8735
-54.3614
-53.8414
-53.3096
-52.7716
-52.2297
-51.6881
-51.1419
-56.8428
-56.2766
-55.9699
-55.443
-54.984
-54.4677
-53.9463
-53.4132
-52.8739
-52.3312
-51.7913
-51.2574
-56.9384
-56.3729
-56.0625
-55.5386
-55.0781
-54.5571
-54.036
-53.5018
-52.9611
-52.4162
-51.8702
-51.3255
-57.0169
-56.4556
-56.1373
-55.6205
-55.1511
-54.6336
-54.1115
-53.5758
-53.0341
-52.4887
-51.944
-51.4079
-57.083
-56.5223
-56.199
-55.686
-55.2122
-54.6953
-54.172
-53.6354
-53.0927
-52.5462
-51.9982
-51.4526
-57.1328
-56.5743
-56.2461
-55.7347
-55.2594
-54.7423
-54.2179
-53.6806
-53.1371
-52.59
-52.043
-51.5053
-57.1633
-56.6083
-56.2788
-55.7682
-55.2916
-54.7745
-54.2493
-53.7113
-53.1669
-52.6181
-52.0656
-51.5124
-57.1828
-56.6284
-56.2973
-55.7873
-55.3095
-54.7924
-54.2668
-53.7286
-53.1837
-52.6345
-52.0816
-51.52
-57.1859
-56.6329
-56.3009
-55.7911
-55.3128
-54.7961
-54.2705
-53.7327
-53.1886
-52.6416
-52.0963
-51.5493
-57.1701
-56.6223
-56.2895
-55.7804
-55.3017
-54.7853
-54.26
-53.7226
-53.1789
-52.6316
-52.0845
-51.5325
-57.1431
-56.5979
-56.2635
-55.7551
-55.2762
-54.7602
-54.2351
-53.6979
-53.1542
-52.6063
-52.059
-51.5141
-57.1003
-56.5584
-56.2228
-55.7152
-55.2363
-54.7209
-54.196
-53.6592
-53.1156
-52.5675
-52.0177
-51.4659
-57.0475
-56.5037
-56.1675
-55.6608
-55.182
-54.6673
-54.1431
-53.607
-53.0644
-52.5175
-51.9704
-51.4286
-56.9702
-56.4341
-56.0976
-55.5919
-55.1135
-54.5997
-54.0764
-53.5414
-52.9998
-52.454
-51.9052
-51.3475
-56.8874
-56.3496
-56.0129
-55.5086
-55.0308
-54.5179
-53.9956
-53.462
-52.9223
-52.38
-51.8431
-51.3216
-56.7836
-56.2498
-55.9134
-55.4103
-54.9332
-54.4216
-53.9004
-53.3679
-52.8291
-52.286
-51.7412
-51.204
-56.6658
-56.1357
-55.7997
-55.2981
-54.8216
-54.3109
-53.7906
-53.2588
-52.7203
-52.1771
-51.6306
-51.086
-56.538
-56.0097
-55.6726
-55.172
-54.6962
-54.1865
-53.6671
-53.1362
-52.5985
-52.0563
-51.5107
-50.9581
-56.3947
-55.8673
-55.5307
-55.0314
-54.5566
-54.0483
-53.5303
-53.001
-52.465
-51.9252
-51.3858
-50.8509
-56.2323
-55.7094
-55.3739
-54.8766
-54.403
-53.8962
-53.3799
-52.8524
-52.3182
-51.7796
-51.2381
-50.6923
-56.0581
-55.5375
-55.2027
-54.7074
-54.2352
-53.7304
-53.2159
-52.6905
-52.1585
-51.6227
-51.0871
-50.5544
-55.8673
-55.3513
-55.0175
-54.5242
-54.0536
-53.5506
-53.0381
-52.5148
-51.985
-51.4511
-50.9157
-50.3771
-55.6638
-55.1521
-54.8185
-54.3271
-53.858
-53.3569
-52.8465
-52.3254
-51.7977
-51.2667
-50.7367
-50.215
-55.4521
-54.9386
-54.6052
-54.1157
-53.6483
-53.1493
-52.6409
-52.122
-51.5964
-51.0665
-50.5343
-50.0033
-55.213
-54.7075
-54.3765
-53.89
-53.4245
-52.9277
-52.4216
-51.905
-51.3819
-50.855
-50.3284
-49.8171
-54.9651
-54.4636
-54.134
-53.6498
-53.1865
-52.6921
-52.1884
-51.6741
-51.1537
-50.629
-50.1017
-49.5821
-54.7052
-54.2073
-53.878
-53.3964
-52.9348
-52.4426
-51.9415
-51.4298
-50.9119
-50.3901
-49.8674
-49.3649
-54.4312
-53.9352
-53.6077
-53.1288
-52.6695
-52.1795
-51.6807
-51.1716
-50.6561
-50.1361
-49.6114
-49.0919
-54.1433
-53.6506
-53.3232
-52.8468
-52.3898
-51.9027
-51.4065
-50.9001
-50.3871
-49.8701
-49.349
-48.8343
-53.8336
-53.3481
-53.0242
-52.5514
-52.0969
-51.6127
-51.1195
-50.6162
-50.1067
-49.5938
-49.0797
-48.5775
-53.5121
-53.032
-52.7106
-52.2412
-51.7896
-51.3087
-50.8187
-50.3188
-49.8126
-49.3026
-48.789
-48.2792
-53.1849
-52.7069
-52.3851
-51.9182
-51.4689
-50.9911
-50.5044
-50.0078
-49.5052
-48.9994
-48.4932
-48.0024
-52.8379
-52.3646
-52.0448
-51.5814
-51.135
-50.66
-50.1766
-49.6835
-49.1841
-48.6808
-48.1732
-47.6684
-52.4769
-52.0067
-51.6895
-51.2299
-50.7868
-50.3152
-49.8351
-49.3456
-48.8501
-48.3514
-47.8516
-47.3677
-52.1005
-51.6359
-51.3206
-50.8644
-50.4245
-49.9564
-49.4801
-48.9944
-48.5028
-48.008
-47.5096
-47.0133
-51.7059
-51.2488
-50.9366
-50.4848
-50.0482
-49.5839
-49.1114
-48.6295
-48.1423
-47.6521
-47.163
-46.6917
-51.3022
-50.8494
-50.5393
-50.0915
-49.6583
-49.1978
-48.729
-48.2508
-47.7672
-47.2797
-46.7881
-46.3091
-50.8857
-50.4369
-50.1289
-49.6849
-49.2552
-48.7984
-48.3332
-47.8588
-47.3787
-46.8941
-46.4034
-45.9138
-50.4537
-50.0095
-49.7038
-49.2642
-48.8381
-48.3856
-47.9244
-47.4547
-46.9795
-46.5011
-46.0206
-45.5439
-50.006
-49.5675
-49.2646
-48.8296
-48.4075
-47.9594
-47.503
-47.0384
-46.5687
-46.0969
-45.6266
-45.1727
-49.5434
-49.111
-48.8112
-48.381
-47.9631
-47.5195
-47.0678
-46.608
-46.1427
-45.674
-45.2018
-44.7353
-49.0653
-48.6409
-48.3444
-47.9189
-47.5052
-47.0658
-46.6187
-46.1637
-45.7032
-45.2396
-44.7753
-44.3313
-48.5816
-48.1591
-47.8641
-47.4436
-47.0337
-46.5989
-46.1566
-45.7061
-45.2506
-44.7914
-44.3273
-43.8614
-48.0779
-47.6614
-47.3696
-46.9542
-46.5486
-46.1188
-45.6813
-45.2362
-44.7862
-44.3341
-43.883
-43.4492
-47.5584
-47.1485
-46.8603
-46.4503
-46.0498
-45.6251
-45.193
-44.7534
-44.3088
-43.8623
-43.4163
-42.9946
-47.0249
-46.622
-46.3377
-45.9332
-45.5374
-45.118
-44.6912
-44.2568
-43.8172
-43.3746
-42.93
-42.5106
-46.4787
-46.0817
-45.8008
-45.4019
-45.0111
-44.5972
-44.1759
-43.7467
-43.3124
-42.874
-42.4274
-41.9824
-45.919
-45.5281
-45.251
-44.8579
-44.4722
-44.0638
-43.6484
-43.2257
-42.7991
-42.3716
-41.9468
-41.5587
-45.3466
-44.9625
-44.688
-44.3006
-43.92
-43.5173
-43.108
-42.6918
-42.2717
-41.8497
-41.4229
-41.0074
-44.7616
-44.3814
-44.1109
-43.7296
-43.3544
-42.9577
-42.5541
-42.1439
-41.7299
-41.3133
-40.8939
-40.4974
-44.1559
-43.7857
-43.5199
-43.1448
-42.7751
-42.3845
-41.9869
-41.5833
-41.1756
-40.7657
-40.3515
-39.9421
-43.5449
-43.1782
-42.9151
-42.5461
-42.1824
-41.7979
-41.407
-41.0103
-40.6099
-40.2084
-39.8082
-39.4328
-42.9186
-42.5571
-42.2974
-41.9345
-41.5765
-41.1984
-40.8142
-40.4243
-40.0304
-39.6346
-39.2341
-38.8356
-42.2678
-41.9173
-41.6642
-41.3086
-40.9571
-40.586
-40.2083
-39.8255
-39.439
-39.0512
-38.6637
-38.2998
-41.6146
-41.269
-41.0185
-40.6695
-40.3244
-39.9603
-39.5898
-39.2141
-38.8355
-38.4553
-38.0722
-37.6928
-40.9439
-40.6058
-40.3599
-40.0177
-39.6794
-39.3221
-38.9589
-38.5908
-38.22
-37.8484
-37.4796
-37.136
-40.2624
-39.9296
-39.6876
-39.3523
-39.0207
-38.6709
-38.3151
-37.9547
-37.5914
-37.2256
-36.8558
-36.498
-39.5619
-39.238
-39.0016
-38.6741
-38.3495
-38.007
-37.6589
-37.3064
-36.9512
-36.5945
-36.2344
-35.8829
-38.8498
-38.5339
-38.3026
-37.983
-37.6654
-37.3311
-36.9914
-36.6475
-36.3016
-35.9565
-35.6137
-35.2863
-38.1303
-37.8189
-37.5916
-37.2794
-36.9692
-36.6427
-36.3115
-35.9764
-35.6395
-35.3027
-34.9671
-34.6528
-37.3934
-37.0906
-36.8681
-36.5632
-36.2606
-35.9421
-35.6191
-35.2924
-34.9639
-34.6343
-34.3017
-33.9776
-36.6451
-36.3486
-36.1312
-35.8346
-35.5396
-35.2295
-34.9147
-34.5971
-34.2783
-33.9598
-33.6435
-33.3548
-35.8815
-35.594
-35.3816
-35.0932
-34.806
-34.5048
-34.199
-33.8907
-33.581
-33.2711
-32.9579
-32.6495
-35.1089
-34.8273
-34.6193
-34.3393
-34.0607
-33.7683
-33.4722
-33.1737
-32.8738
-32.5743
-32.2745
-31.9886
-34.3228
-34.0473
-33.8453
-33.574
-33.3037
-33.0208
-32.7344
-32.4464
-32.1577
-31.8705
-31.586
-31.3219
-33.5209
-33.255
-33.0587
-32.7962
-32.5348
-32.262
-31.9858
-31.7082
-31.4302
-31.1532
-30.8746
-30.6016
-32.7099
-32.4511
-32.2607
-32.0073
-31.7551
-31.4923
-31.2269
-30.9601
-30.6936
-30.4287
-30.1667
-29.926
-31.8855
-31.6353
-31.4512
-31.2069
-30.964
-30.7117
-30.4573
-30.2021
-29.9479
-29.6949
-29.4405
-29.2005
-31.055
-30.8109
-30.6316
-30.3964
-30.1629
-29.921
-29.6778
-29.4348
-29.1936
-28.9561
-28.7221
-28.5223
-30.2118
-29.9748
-29.8004
-29.5749
-29.3511
-29.1203
-28.8881
-28.6566
-28.4275
-28.2025
-27.9799
-27.7667
-29.3548
-29.127
-28.9599
-28.7438
-28.5297
-28.3095
-28.0886
-27.8681
-27.6492
-27.4315
-27.2115
-26.9913
-28.4943
-28.2706
-28.1084
-27.902
-27.6981
-27.4892
-27.2804
-27.0724
-26.8664
-26.6633
-26.465
-26.2938
-27.6167
-27.4026
-27.2477
-27.0517
-26.8585
-26.6614
-26.4654
-26.2711
-26.0793
-25.8904
-25.7012
-25.5166
-26.7336
-26.527
-26.3779
-26.1923
-26.0105
-25.8265
-25.6441
-25.4645
-25.2877
-25.1151
-24.9471
-24.8006
-25.8413
-25.6442
-25.5016
-25.3262
-25.1556
-24.9843
-24.8158
-24.6516
-24.4915
-24.3355
-24.182
-24.046
-24.9467
-24.754
-24.6171
-24.4524
-24.294
-24.1362
-23.9824
-23.8332
-23.6897
-23.5518
-23.4192
-23.3214
-24.0418
-23.8562
-23.7263
-23.5721
-23.4256
-23.2817
-23.1432
-23.0096
-22.8814
-22.759
-22.6388
-22.521
-23.1271
-22.9509
-22.8285
-22.6861
-22.5522
-22.4228
-22.2995
-22.1821
-22.0697
-21.9617
-21.8546
-21.7486
-22.2117
-22.0426
-21.9263
-21.7954
-21.6752
-21.5609
-21.4545
-21.3554
-21.2628
-21.1774
-21.1024
-21.0647
-21.2937
-21.1299
-21.0207
-20.9015
-20.7952
-20.6974
-20.6089
-20.529
-20.4564
-20.3897
-20.325
-20.2685
-20.3679
-20.2127
-20.1113
-20.0051
-19.9136
-19.8332
-19.764
-19.7043
-19.6527
-19.6075
-19.5673
-19.5567
-19.4423
-19.2943
-19.2001
-19.1068
-19.0316
-18.9702
-18.9215
-18.8841
-18.8555
-18.8328
-18.8109
-18.7957
-18.517
-18.3746
-18.2888
-18.2099
-18.152
-18.1115
-18.0858
-18.0727
-18.0696
-18.0738
-18.0821
-18.1045
-17.5884
-17.4538
-17.3771
-17.3141
-17.2758
-17.2582
-17.2582
-17.2725
-17.2977
-17.3312
-17.371
-17.4253
-16.6633
-16.5347
-16.4678
-16.4227
-16.4065
-16.4149
-16.4434
-16.4871
-16.5419
-16.6045
-16.6734
-16.7611
-15.7372
-15.6168
-15.5618
-15.5375
-15.5479
-15.5863
-15.6467
-15.7227
-15.8083
-15.8982
-15.9862
-16.0775
-14.8153
-14.7014
-14.6614
-14.6633
-14.7062
-14.7808
-14.8781
-14.9904
-15.1107
-15.2334
-15.3551
-15.4919
-13.893
-13.7883
-13.7698
-13.8079
-13.8934
-14.012
-14.152
-14.3036
-14.4599
-14.6153
-14.7636
-14.9112
-12.9666
-12.8757
-12.8942
-12.9864
-13.1283
-13.2997
-13.487
-13.6804
-13.8727
-14.0592
-14.234
-14.4034
-12.0288
-11.9707
-12.0581
-12.2333
-12.4488
-12.6799
-12.914
-13.1436
-13.3686
-13.5829
-13.775
-13.933
-11.0575
-11.1436
-11.3808
-11.6841
-11.9808
-12.2593
-12.529
-12.7855
-13.0288
-13.2715
-13.4719
-13.6549
-1.51248
9.70867
-10.3081
-19.2162
-19.8565
-7.19814
-4.75595
32.7497
-44.7903
-39.9594
-35.047
-14.8548
16.588
-41.2457
1.38616
-6.75723
-41.271
-30.5989
-30.039
-6.4887
27.9828
26.3244
17.7849
-16.1198
-0.858756
-10.8521
24.3645
0.64631
-42.5134
-37.8089
-42.4763
30.9141
9.58117
-34.6555
16.7936
18.0434
33.6638
-30.8176
33.234
-14.7593
2.32298
-1.99081
24.682
-0.419758
33.4336
26.1239
19.053
19.9914
33.3648
27.9714
18.7594
32.5673
30.9377
1.49101
-36.9583
9.4182
12.9039
-2.36867
-31.5735
0.921662
24.169
30.3287
1.53647
-3.96666
17.5256
9.71175
-13.6881
30.4918
16.3347
-39.4142
-37.0552
13.9389
33.1331
-13.257
-15.4926
2.61655
-44.3278
-1.67783
10.0154
28.8015
2.66448
-1.93239
33.9136
32.5579
1.96524
-44.3976
-13.7138
0.919725
-39.5734
33.5431
27.9867
-41.3215
-0.226318
7.82804
34.3244
-4.18759
0.516501
-1.90746
-0.641973
-13.344
-15.8558
14.5777
5.57203
8.91218
-1.70922
33.971
1.83092
33.25
-13.6616
0.350448
17.9785
-2.06962
30.5195
-7.73145
1.68699
15.6666
-19.9033
-6.20054
-45.6996
-33.3355
-10.6055
-21.5294
-42.0194
15.4073
-18.1219
-40.3268
-1.92268
11.6042
19.3702
1.03091
31.5957
1.40025
21.4161
8.84733
23.5179
10.78
34.0283
-39.3989
31.5449
10.3896
-19.1497
28.719
27.1221
0.538203
30.8959
-37.1296
31.6714
-10.6838
-47.9222
3.35671
0.321625
16.647
-1.66763
4.76352
22.1788
3.22725
31.8293
-1.3502
-41.7119
-14.5816
-22.0907
-6.32593
-30.1836
-15.063
24.141
26.3771
31.5943
34.3119
10.9013
1.48673
-38.1093
-18.0674
-36.9176
-19.2507
-1.10223
-41.2486
1.95431
32.391
25.2136
-36.9808
31.0677
-32.2831
-7.56559
33.4014
6.30572
31.4883
3.49401
-1.70572
31.7775
1.62168
-40.378
-1.74507
31.9147
-5.90077
32.0474
8.06091
26.9522
30.3998
2.38183
-61.4221
-47.5667
32.4141
34.3547
31.1705
32.867
14.1223
-7.97423
-36.2489
-13.8276
-15.93
4.30932
-46.9811
33.4124
34.2278
1.93911
31.1852
-11.1906
-13.1303
-63.5314
30.5443
32.4364
-47.8282
33.5685
-3.23892
-3.26694
-39.9201
-44.8061
-2.07323
-56.4294
20.0274
33.7381
-17.1114
-2.30142
-13.0102
-13.3746
27.4034
31.2408
-47.3659
-1.80756
32.8939
-33.3315
19.455
-40.7461
-45.9346
33.0705
2.45195
19.8837
6.01825
-42.4811
31.3422
-40.1259
-13.3931
-40.3659
-71.5377
28.259
-31.6899
0.0950543
32.6673
-42.1984
33.3998
-15.2344
27.0929
17.3271
-8.6092
-14.3242
27.5827
-46.5795
32.7184
-3.68227
6.48024
0.177474
18.6135
-45.2868
33.0932
32.8855
-44.4143
21.8569
34.4524
34.2537
32.6634
32.6382
23.3643
33.6992
33.1969
-25.4644
27.465
-33.0654
33.2281
-50.0969
29.5068
32.6456
-42.3219
34.9558
34.9487
30.4557
32.0083
28.0427
30.6996
23.9773
34.2466
29.0808
-0.74108
-10.8246
-37.5655
22.3454
-46.5043
34.4989
1.55046
14.387
16.6655
-27.937
34.7067
3.44695
-50.9232
32.5036
24.3752
34.9038
-31.4258
2.01238
27.8124
22.0457
-41.821
-15.3301
69.7059
34.2386
-30.7878
-26.2035
-2.31619
2.57493
34.7394
-4.08383
0.640478
-41.8262
-2.27019
2.63706
4.24884
-1.70742
14.9906
2.15805
6.52439
-0.323834
33.0151
0.121769
29.3953
12.9121
31.6232
33.6233
-42.1346
-60.7296
-12.6689
-0.170166
-4.06256
13.8574
26.0109
34.7967
-1.1787
-25.3456
33.5387
-46.1386
-40.0117
30.1002
33.7027
-49.0012
-61.3689
21.2616
-21.6334
-3.18205
0.32484
-1.55257
0.707734
-29.7899
30.2458
33.9938
-33.199
-41.7275
28.7303
33.1784
-48.2759
3.57211
-35.8017
-11.0461
-11.0817
-1.39268
33.1488
-67.0632
28.0375
-0.864836
21.7729
28.623
19.7463
3.50474
-37.2361
-35.6881
30.7649
30.2908
-3.02412
-55.7609
-2.80569
-33.8533
-26.8307
13.1526
-14.3691
-12.9846
14.1071
-43.4323
30.9284
-48.7951
-41.2338
31.3147
33.3115
-2.21838
-0.821367
1.55677
-49.2648
12.7163
28.7862
-62.5221
30.4038
30.6385
3.4116
0.202356
30.6394
1.69703
-3.00119
32.5315
0.583782
-21.643
-47.3113
33.9099
0.580234
-14.0843
-11.2358
-31.465
29.4252
-32.5508
1.96328
-41.4941
-37.3303
28.6091
-6.84173
34.5694
33.2518
12.985
32.0707
8.5498
-14.4558
-6.82774
31.8914
27.0093
2.12666
-37.5271
29.7143
33.4657
10.7459
-41.8296
28.3659
9.66302
34.7977
34.2326
-32.4325
28.6082
-10.4217
22.858
-4.52604
-50.1388
-28.1416
2.28285
29.3299
22.8501
33.3536
-25.852
33.6558
19.135
0.823452
-38.016
-46.777
30.8412
1.9912
31.8789
-13.1576
0.115689
33.5099
33.2826
-23.212
-20.6286
30.2071
34.1738
-6.22559
-19.4046
-42.8949
-22.3526
0.944858
32.412
-57.7273
-17.2721
30.5441
-23.7874
-1.02647
33.1334
33.9279
-40.5076
31.0781
33.624
2.45377
26.2927
34.3912
22.9633
-48.3229
31.0992
-37.6734
31.7011
-49.5383
-13.7741
-36.8343
2.00615
-15.7082
31.4396
-37.6466
-13.9784
21.4092
15.8632
-12.5251
1.31239
31.556
-0.693996
3.77278
-14.8043
33.681
30.2576
-38.982
34.9535
-15.2379
-17.4599
-37.2814
-2.15886
25.9692
-47.4002
-36.3907
30.3882
-42.565
-7.71193
-17.8137
-21.4702
-48.2456
-43.3057
-1.82918
-26.3761
1.95679
19.612
9.06694
13.8135
-17.3887
28.4735
33.6711
-30.3878
26.2228
29.0593
-13.8699
0.00818783
-0.106019
16.6565
-13.4301
30.6451
-39.1184
-31.5296
-25.9517
31.7889
0.499615
16.9993
27.6789
10.8619
-49.6753
24.3563
30.0021
30.3202
12.4572
0.449932
-9.38794
-2.67414
-36.0457
-36.1242
33.0706
-43.7463
4.26549
-45.8292
25.043
33.0041
27.5527
-43.9607
0.130063
-32.461
1.3078
28.5273
-13.3939
32.2826
-36.7072
-0.0879409
-46.0904
-40.849
33.4604
1.83862
-0.660837
-26.6583
-17.3404
11.7116
11.9933
8.30434
-12.7965
-6.26467
7.62097
29.7403
-29.2456
-33.8711
-1.86117
0.821079
-44.4455
34.1613
32.6954
33.5984
10.7178
29.3625
-6.83641
-30.697
25.6754
-1.78588
11.3484
30.2419
1.56013
14.4131
33.8738
-50.366
-50.7104
3.39487
-13.0599
29.1758
-49.736
19.3725
25.1675
32.2121
-2.1219
31.985
29.4064
23.5542
-22.1528
-9.39012
-0.321248
-48.2324
-50.9592
32.2
-60.811
4.45215
2.7627
-45.9045
-31.0171
10.4446
1.96416
-41.9234
-1.1204
-36.3032
31.7154
-31.2632
2.02345
-45.906
-0.0557037
32.8856
-37.7948
33.5812
17.0765
25.4814
-48.452
-1.14352
19.0922
-48.1156
31.7542
-36.8392
-3.98155
-40.3359
-17.9669
1.34434
2.35872
24.1737
-15.03
32.264
4.0647
-25.4098
34.2333
34.3038
-38.718
23.5394
-38.4749
33.813
27.4063
33.0816
-2.17932
13.5331
-1.13169
1.50347
30.158
2.13804
34.889
-10.6976
-35.4056
1.45857
28.679
34.1119
-37.1407
-5.31311
-26.7272
18.8935
-52.8005
-17.3546
-28.6035
-40.6103
-1.86521
0.845166
33.205
20.6277
34.3395
29.6523
3.82771
34.8358
34.9151
32.8926
-37.0515
-16.6332
32.8879
-0.532866
4.46226
-56.586
33.4978
1.26169
15.1419
-38.437
6.44791
-2.37107
-41.5404
2.05416
-26.6073
-57.9182
6.35009
32.1522
-1.61931
23.0338
32.793
1.41709
-8.698
-1.28412
7.3455
-9.47208
-52.4272
-32.0868
27.6008
29.3693
1.92145
-13.8783
-0.634606
-0.647348
-21.2369
14.8981
30.6163
16.5073
-43.654
-2.86902
-109.938
-0.506425
-10.2908
33.0051
30.1053
-1.66004
31.6937
-17.4866
29.2843
-10.4849
-42.7098
-43.9291
31.3879
-24.7432
-15.009
17.342
8.05722
27.3581
-58.0206
-13.3471
29.0355
0.119184
32.5601
-8.11873
-39.5381
-44.9461
-16.1661
-13.974
-43.1421
-23.8658
6.08255
34.3733
29.1897
-12.4075
7.35136
-3.33196
33.8413
-37.4046
-5.30651
-42.256
-28.3807
25.9426
24.2426
-48.3388
-11.144
27.6849
-12.2063
-38.9223
-38.7157
0.209765
-43.2182
-15.7614
34.1368
32.4842
30.5664
0.113751
-10.7376
-2.82301
1.74875
2.38281
31.0465
23.199
20.4823
-37.8731
0.665594
-43.7967
15.5696
23.5979
1.95702
-38.5731
-4.19165
26.4396
-42.6956
23.7771
30.6361
28.5196
-2.12398
26.3501
-38.1639
10.2427
14.1345
31.9714
-39.968
28.0084
16.08
-15.3864
-13.9883
26.9789
-26.905
-28.8906
30.8744
0.417658
-50.6017
15.3053
12.6141
-9.0553
-58.3953
26.8683
-0.424804
1.19821
-45.3462
29.9369
-48.6143
1.38821
-36.3579
-38.1915
33.7612
6.52056
33.5861
-29.9318
6.5618
29.3272
-2.04928
-50.3309
34.0855
34.0219
34.6382
3.19285
1.99487
15.4294
-41.3317
-40.5924
-32.0388
0.323064
-14.3853
3.88937
12.7772
-39.7159
25.0437
27.7161
28.0076
16.894
33.3533
32.6234
-37.5228
0.0069106
34.2915
-32.307
31.6937
1.15149
-41.6903
-4.33754
1.98101
4.47997
29.831
-20.8224
-10.818
26.3722
-54.753
-4.70313
3.80051
16.3246
23.1409
-11.7444
27.9143
2.61433
-3.12736
-13.7403
13.9225
-12.9832
-40.904
33.2471
-16.5736
22.2402
-35.6759
28.3162
30.4532
32.3701
-40.4888
31.8763
1.66871
32.8123
-10.5733
-2.2622
-41.3773
30.0143
21.145
25.7231
-8.22007
-44.0114
-35.8608
-0.414392
34.1243
2.73925
33.1897
-31.5347
33.2039
-2.03538
-45.3643
34.2534
-35.5523
33.1184
32.9911
-15.1132
-29.5378
23.7309
0.626469
15.0991
34.9201
-1.37907
-48.2944
32.2822
-2.32805
-15.4475
10.6852
33.2673
33.6728
-31.4988
31.4343
32.6513
-10.2925
31.5613
27.0201
30.585
31.2978
1.56171
-1.6159
-40.2616
-6.00658
-38.8828
32.9991
-0.808153
-36.8762
33.2245
-2.27751
30.0637
25.2493
31.1481
31.0623
18.4346
-41.1709
-38.1732
30.8015
-33.0999
-21.2878
26.1201
33.8677
-45.5443
-30.7037
-38.5932
-21.5081
-15.8926
28.5313
-9.88213
-18.2685
-31.119
-0.441576
-40.5806
33.0395
12.6593
1.70932
-3.20572
-3.20666
31.5026
-2.11186
32.6851
-0.164118
31.7903
-7.40063
3.34947
-46.3811
33.7311
1.88263
31.4895
33.7558
-25.0789
27.0586
-17.8684
32.2714
-1.6194
30.353
21.4523
2.92914
10.3906
34.4821
30.9573
-0.140327
2.31264
33.7325
2.32836
28.6952
-31.3621
-31.5373
31.3346
-19.2648
18.8103
-100.835
-44.9347
33.516
-53.7455
-41.4543
2.31055
31.134
-43.0728
-44.4737
2.46813
26.4048
-1.2038
-7.25315
30.622
-10.4827
-17.3582
6.32742
-13.8761
-62.0425
13.9521
-1.15847
25.0337
0.473007
10.4801
24.7291
-64.6496
24.6568
5.48178
-3.15674
-47.6628
26.8686
4.72191
7.8834
27.8748
24.5464
33.6662
34.7273
-15.0221
-1.39796
-13.6562
2.63328
39.3283
26.7183
-87.8052
29.5235
-29.8719
1.10475
-50.7333
-0.330076
2.74625
11.6267
30.7683
31.6866
-48.1342
2.64207
-16.9659
-1.9134
27.2521
-48.2239
0.949547
32.9987
1.38741
1.10949
5.79048
16.4223
-13.2157
-40.6061
-22.18
2.97842
-2.63335
31.3925
32.4261
32.1376
-44.8411
27.6002
31.3202
2.88158
11.4046
-35.2473
32.4817
-14.2186
14.1038
1.29045
34.1245
-2.04974
31.9498
32.19
-7.6486
-12.1769
33.2152
-16.4523
21.8001
1.6703
-35.9979
-40.7796
33.1614
-2.86238
-17.8748
-35.3413
-20.3018
23.323
-38.7315
1.95663
1.53401
0.316615
-19.648
33.9724
-47.0187
0.244615
34.8606
-43.5479
29.7667
25.6957
-19.0918
14.1023
1.71595
20.5038
30.4618
31.2485
-1.03883
-40.5268
-2.35391
-16.8484
-17.0898
-44.2254
21.61
-39.8726
-41.52
8.90315
14.5455
2.25821
-1.66505
6.32617
-12.6556
-7.35171
0.963984
-44.0399
33.3933
-0.58378
31.4925
-34.9021
3.53395
1.89536
-62.363
31.4388
-35.7652
-20.8095
23.5529
30.2912
-27.011
20.21
-40.0714
33.0504
32.6469
34.7955
25.8429
33.7722
31.8037
-18.493
33.7082
3.71747
33.3282
15.4459
28.447
-22.9026
29.3644
-32.9958
11.3406
34.4978
23.0339
34.2951
33.3732
34.5996
-28.1198
-3.82787
8.57858
2.09869
-20.3495
-39.3709
1.93396
-45.0922
2.59577
15.4196
32.8991
30.9628
-43.4646
-22.7214
22.8397
-46.3374
-7.21114
34.5391
-2.81381
32.363
-49.2536
0.775963
-15.9529
-4.19027
21.4191
32.2057
30.8645
25.3497
31.5573
-1.80244
21.1876
30.5592
-46.7147
5.89996
14.3473
29.326
31.4845
-19.0306
32.0482
-16.8385
-7.39586
-12.581
1.21857
-8.95093
32.4805
-41.5752
33.3061
29.7225
-26.7533
-30.0118
25.8103
1.44961
32.8993
1.24001
1.62626
-0.748787
16.0367
32.1443
28.6412
-38.4419
33.0743
32.6654
6.31789
3.49979
26.5303
26.6294
19.8714
33.1014
-22.4572
33.5612
-0.838557
33.7137
7.68945
7.34186
1.93179
-37.5702
-19.1507
28.7866
-26.2799
-42.0504
-46.0013
2.0152
-40.1609
34.5437
33.833
-0.33544
-9.59781
28.076
32.731
-35.1123
31.8975
-1.7465
-37.1826
3.08951
32.3478
-16.3207
31.1434
13.6596
-12.328
-0.66216
43.576
-0.893573
-45.0966
18.203
3.31356
16.3236
30.705
-1.39538
-0.601914
-1.89981
16.0582
32.9161
-25.9221
-3.49827
31.6103
25.082
34.0985
1.8517
34.4749
25.9099
27.8122
-21.8929
33.6726
-16.0142
34.8265
-11.0355
30.8278
32.2953
33.9241
-0.742498
26.0024
32.5846
31.903
7.62459
0.810904
31.3788
23.9704
1.73472
-4.78591
-50.7248
0.913516
-37.146
-45.3311
32.9794
33.5737
-27.2277
24.6963
-31.7011
-52.1804
-25.8369
-13.3681
-35.958
34.7802
28.4324
-1.48632
33.8313
-5.61103
-0.816187
2.92488
-0.21787
1.89904
4.1768
-25.6965
-100.279
-31.4014
8.13114
-37.8234
29.1178
-3.71364
30.9828
28.4085
-21.3934
27.1201
-43.4169
34.6845
24.7248
20.2511
-2.00231
2.23413
16.4974
21.3965
33.6453
32.8214
-44.0825
27.9055
30.9254
-9.00721
32.8813
33.3688
-1.13699
32.8028
-42.4149
4.05539
-18.583
14.8393
-18.319
33.0211
-32.1603
-15.9454
7.04733
-33.0319
5.31208
-10.4805
1.19731
-18.6868
-40.3554
-25.6264
-0.641881
-1.44457
25.6426
32.4809
-38.2118
31.237
-24.4725
33.3047
32.1828
2.02441
33.6202
-1.26753
-33.1769
27.9861
-31.7767
24.2362
-49.5406
-16.0637
33.5932
33.8502
-50.5655
32.4902
-14.2875
34.6224
-38.7943
22.8507
-31.6122
33.9216
12.0563
5.43023
-41.0613
-32.218
1.7096
-0.122357
-6.96293
-5.50405
34.4043
-0.920149
33.0503
30.2885
31.8839
-43.2012
2.92398
-33.8311
30.4091
34.1804
32.1969
32.9075
-42.3668
-5.05113
1.62503
3.43626
-28.8576
2.90973
33.527
31.3419
5.20289
-17.6191
-35.9831
34.054
33.0431
1.8796
31.2072
-27.065
8.71774
11.5492
34.2536
33.5289
-9.85293
26.5601
-1.45925
2.72915
34.6396
7.32475
-19.6827
2.46186
32.5993
-9.88148
23.7487
-50.1412
16.2256
-28.0627
-40.5655
6.43344
3.43948
-9.85535
0.808708
30.7836
33.4181
32.4243
-1.11675
22.8851
-27.9174
8.40241
-13.1672
-16.8207
-0.314724
2.1264
14.6182
-11.7763
0.710589
28.8854
4.03745
-46.0705
-5.95193
-7.49396
-22.5219
23.2171
13.9084
21.3903
-48.2606
12.3564
-1.91933
32.4548
30.9378
-40.3036
0.0218768
34.7906
31.338
-4.36331
32.1841
-28.212
-26.5694
5.69197
26.4895
-9.29168
30.9009
-48.0451
-40.1173
11.0576
-30.366
-1.51718
33.5405
-1.83121
-23.4756
14.6267
31.2212
-27.8321
-38.238
16.6816
-13.8928
-0.800568
-32.9509
-10.6312
3.23255
-3.68563
34.1151
33.655
25.147
14.0076
29.3976
-6.39447
1.55676
2.42114
-40.4548
-15.226
-36.2055
26.418
33.6573
32.8128
-21.2149
17.2451
2.7998
-1.24165
29.4109
-26.6828
-38.8972
-14.5213
4.11055
-16.1143
20.4285
34.3536
33.1889
-25.6316
34.4213
-40.593
-0.705122
4.19885
-17.5063
33.8106
-41.0054
32.858
34.6812
8.05288
-48.8491
-2.71037
31.6801
19.7978
20.0048
-1.62008
21.504
17.7118
-37.6592
-32.9101
-1.00703
32.3832
-3.22177
33.5522
-42.9762
-1.68152
21.1549
-0.385349
29.3464
-26.3669
26.8759
-1.64421
29.5017
33.7634
31.6135
-38.4745
19.8946
-36.9298
3.58818
-14.4771
34.3236
-49.8677
-12.429
-8.48682
-4.31634
33.6311
6.55503
-13.5644
1.34129
-24.4645
1.91267
7.58924
-0.0297731
-3.16332
-16.5766
-13.2684
1.19644
-43.6822
-17.304
-26.168
-38.0222
-8.68071
-2.53992
34.3579
-6.4953
0.908951
-29.5446
-11.0289
-43.9472
21.8633
-12.2776
10.523
-0.948355
-7.58347
-22.7072
20.4094
-36.0634
-12.59
-11.2216
-26.8768
33.6658
-41.0264
3.47637
-0.306952
-43.1528
-11.8293
12.1333
18.4376
1.48577
-40.5266
5.66855
-30.6954
-40.4938
33.012
-2.41872
34.4468
1.24169
-14.1449
31.3031
1.81775
34.4978
-30.0482
1.68805
32.8309
1.57836
13.6625
15.0688
3.9919
-23.8251
29.1102
-43.8109
-27.6022
-48.2643
11.8313
32.9902
29.8036
-42.3058
-17.0603
2.04834
-58.2821
23.7715
-43.6503
13.0168
-18.5106
0.25317
-2.6624
31.2886
-14.6347
31.1361
-28.5365
31.3176
-2.60078
1.95688
4.33095
22.5605
12.05
-23.1008
-1.87953
-30.4929
32.0925
18.3099
-16.1674
-38.4868
0.220724
27.897
0.856453
1.87365
30.9264
-41.2342
-25.534
16.3903
-2.14347