/*--------------------------------*- C++ -*----------------------------------*\
| =========                 |                                                 |
| \\      /  F ield         | OpenFOAM: The Open Source CFD Toolbox           |
|  \\    /   O peration     | Version:  2.3.1                                 |
|   \\  /    A nd           | Web:      www.OpenFOAM.org                      |
|    \\/     M anipulation  |                                                 |
\*---------------------------------------------------------------------------*/
FoamFile
{
    version     2.0;
    format      ascii;
    class       volVectorField;
    location    "0.7";
    object      U;
}
// * * * * * * * * * * * * * * * * * * * * * * * * * * * * * * * * * * * * * //

dimensions      [0 1 -1 0 0 0 0];

internalField   nonuniform List<vector> 
15166
(
(5.97377 0.559229 3.1938e-19)
(7.1865 1.03444 1.59824e-18)
(8.26894 0.902381 -8.93939e-19)
(9.301 0.956347 8.01671e-19)
(10.096 1.02025 8.23927e-19)
(10.8727 1.07502 4.34239e-19)
(11.5267 1.17344 -8.59486e-19)
(12.0688 1.23919 8.3297e-19)
(12.4641 1.33352 -4.22533e-19)
(12.7711 1.39301 1.67143e-18)
(12.997 1.44848 -1.22763e-18)
(13.1507 1.50679 1.22174e-18)
(6.66617 1.02609 4.88963e-19)
(7.60212 1.4251 5.24475e-20)
(8.55503 1.20955 2.7463e-20)
(9.47681 1.22958 4.56092e-19)
(10.2373 1.24945 -3.95989e-19)
(10.9651 1.27593 0)
(11.5823 1.33753 4.25017e-19)
(12.0879 1.38345 1.45051e-21)
(12.4665 1.44388 4.18299e-19)
(12.7601 1.48569 -8.43347e-19)
(12.9764 1.52575 1.65662e-18)
(13.1344 1.56469 -1.23423e-18)
(7.20883 1.25736 -4.633e-19)
(8.03753 1.5684 -2.47799e-18)
(8.89942 1.37652 4.88129e-19)
(9.72203 1.4106 -9.25288e-19)
(10.4313 1.41727 -1.65942e-20)
(11.1023 1.43293 8.84006e-19)
(11.6751 1.47251 -1.26959e-18)
(12.1419 1.50342 -4.35697e-19)
(12.4973 1.54163 8.3161e-19)
(12.7724 1.56903 5.99619e-21)
(12.9766 1.59529 -1.23786e-18)
(13.1301 1.62008 1.62279e-18)
(7.51499 1.3741 0)
(8.35026 1.62672 -1.08484e-18)
(9.18114 1.4782 2.54411e-18)
(9.94682 1.52647 -1.44511e-18)
(10.6198 1.53138 9.25272e-19)
(11.2455 1.54615 1.36579e-18)
(11.7793 1.57483 -4.23943e-19)
(12.2125 1.59687 4.35705e-19)
(12.5453 1.62122 -8.51542e-19)
(12.8022 1.63801 8.41228e-19)
(12.9949 1.65297 4.17405e-19)
(13.1437 1.66614 8.27401e-19)
(7.72618 1.44764 -6.25646e-19)
(8.59182 1.66239 -5.80186e-19)
(9.40732 1.55331 -1.57527e-18)
(10.1389 1.60718 1.48601e-18)
(10.7879 1.61245 -4.70718e-19)
(11.3802 1.62863 -4.56027e-19)
(11.8832 1.65148 -4.44786e-19)
(12.2893 1.66817 4.51113e-19)
(12.6024 1.68382 -4.29784e-19)
(12.8434 1.69334 -4.23425e-19)
(13.0254 1.70076 -1.26306e-18)
(13.1673 1.70717 -4.66273e-21)
(7.91378 1.49906 1.23991e-18)
(8.80866 1.6849 1.17545e-18)
(9.60761 1.60958 -1.09928e-18)
(10.3125 1.66479 2.07595e-18)
(10.9416 1.67166 -1.98438e-18)
(11.5069 1.6894 9.50195e-19)
(11.9844 1.70862 0)
(12.3682 1.72172 9.05133e-19)
(12.6643 1.73167 -1.76275e-18)
(12.8915 1.73606 8.61712e-19)
(13.0638 1.73804 0)
(13.1986 1.73921 1.2561e-18)
(8.08651 1.53342 -6.74603e-19)
(9.00982 1.69518 6.20892e-19)
(9.79242 1.64853 0)
(10.4749 1.70357 0)
(11.0855 1.71326 5.1907e-19)
(11.6276 1.73262 4.97768e-19)
(12.0831 1.74961 -9.51116e-19)
(12.4477 1.76029 1.38425e-18)
(12.729 1.76635 4.54189e-19)
(12.9442 1.76688 0)
(13.1081 1.76442 4.35628e-19)
(13.2378 1.76131 0)
(8.24105 1.55402 -1.36309e-18)
(9.19313 1.69575 1.25578e-18)
(9.96186 1.67309 5.74797e-19)
(10.6261 1.72707 5.61889e-19)
(11.2202 1.74011 -2.61911e-18)
(11.7421 1.76099 5.09646e-19)
(12.1786 1.77678 0)
(12.5267 1.78596 -4.65757e-19)
(12.7951 1.78948 4.64862e-19)
(13 1.78738 2.7584e-21)
(13.1565 1.78197 -8.70987e-19)
(13.2798 1.77624 8.59072e-19)
(8.3786 1.5638 1.40256e-18)
(9.35906 1.68908 -1.29114e-18)
(10.1164 1.68647 5.90158e-19)
(10.766 1.73874 -1.69065e-18)
(11.3454 1.75505 2.15639e-18)
(11.85 1.77718 -2.0648e-18)
(12.2701 1.79239 9.94055e-19)
(12.6042 1.80069 0)
(12.8613 1.80264 4.72826e-19)
(13.0573 1.79883 0)
(13.2072 1.79135 9.01321e-19)
(13.3251 1.78317 -4.3703e-19)
(8.5023 1.56507 1.44221e-18)
(9.51025 1.67688 0)
(10.258 1.69107 6.23233e-19)
(10.8953 1.74123 5.8807e-19)
(11.4617 1.76046 5.58646e-19)
(11.9514 1.78348 5.34348e-19)
(12.3573 1.79843 0)
(12.6792 1.80625 0)
(12.9267 1.80723 -1.42733e-18)
(13.1151 1.80232 2.33099e-18)
(13.2592 1.79356 -9.02392e-19)
(13.372 1.78521 -1.33968e-18)
(8.61488 1.55963 1.47157e-18)
(9.64923 1.66032 -2.0147e-18)
(10.3889 1.68852 1.89423e-18)
(11.0154 1.73635 -1.77351e-18)
(11.57 1.75808 -5.56669e-19)
(12.0466 1.78166 -5.3303e-19)
(12.4401 1.7965 1.03607e-18)
(12.7515 1.80406 -1.00411e-18)
(12.9907 1.8045 -1.46308e-18)
(13.1726 1.79895 -4.67493e-19)
(13.3117 1.78907 1.85647e-18)
(13.4196 1.77934 -8.93825e-19)
(8.71805 1.54865 -1.50755e-18)
(9.77765 1.64008 -2.05013e-18)
(10.5104 1.67995 -3.18141e-19)
(11.1275 1.72536 1.21228e-18)
(11.6712 1.74918 8.5686e-19)
(12.1361 1.77304 -2.20018e-18)
(12.5188 1.78786 2.11545e-18)
(12.821 1.79531 -3.85687e-21)
(13.0529 1.79553 -1.49093e-18)
(13.2291 1.78986 9.65926e-19)
(13.3634 1.77982 -4.6632e-19)
(13.4667 1.76925 9.05383e-19)
(8.81293 1.53307 -1.14847e-18)
(9.89671 1.61673 -3.53602e-19)
(10.6236 1.66629 3.22589e-19)
(11.2323 1.70924 0)
(11.7661 1.73475 2.89661e-19)
(12.2205 1.75867 -2.82761e-19)
(12.5935 1.77349 0)
(12.8875 1.78089 0)
(13.113 1.78105 2.54171e-19)
(13.2838 1.77546 0)
(13.4131 1.76583 0)
(13.5104 1.75538 -9.15791e-19)
(8.90052 1.51363 -3.8691e-19)
(10.0075 1.59069 3.51952e-19)
(10.7295 1.64825 0)
(11.3305 1.68877 0)
(11.8551 1.71559 1.18757e-18)
(12.3001 1.73937 -8.6061e-19)
(12.6644 1.75414 1.09229e-18)
(12.9512 1.76144 -1.06068e-18)
(13.1711 1.76142 7.67872e-19)
(13.3374 1.75536 -5.67623e-21)
(13.4632 1.74488 -1.93842e-18)
(13.5578 1.73722 1.1793e-18)
(8.98155 1.49089 -1.59002e-18)
(10.1108 1.56229 0)
(10.8289 1.62643 1.34312e-18)
(11.4226 1.66456 -1.59642e-18)
(11.9387 1.69235 0)
(12.3753 1.71586 2.9187e-19)
(12.7318 1.73055 1.10937e-18)
(13.0123 1.73782 -2.41965e-18)
(13.2271 1.73792 2.08197e-18)
(13.3896 1.73222 -1.01445e-18)
(13.5123 1.72176 9.81249e-19)
(13.6039 1.70852 -1.19471e-18)
(9.05669 1.46533 3.47694e-21)
(10.2074 1.53178 7.35612e-19)
(10.9222 1.60132 0)
(11.5094 1.63712 3.19714e-19)
(12.0176 1.66561 0)
(12.4463 1.68873 8.79683e-19)
(12.7958 1.70333 -7.8189e-21)
(13.0706 1.71057 -8.23953e-19)
(13.2811 1.7108 0)
(13.4399 1.70542 -2.58301e-19)
(13.5592 1.69542 2.51258e-19)
(13.648 1.68082 0)
(9.12652 1.43736 4.02382e-19)
(10.2978 1.49943 -1.11948e-18)
(11.0099 1.57331 1.03883e-18)
(11.591 1.60685 -4.57213e-21)
(12.0919 1.63579 3.09105e-19)
(12.5135 1.65843 -2.97818e-19)
(12.8567 1.67291 0)
(13.1264 1.6801 0)
(13.3329 1.68042 1.06748e-18)
(13.4885 1.67526 -7.85937e-19)
(13.6046 1.66577 -5.05969e-19)
(13.6902 1.65219 -2.45538e-19)
(9.19142 1.40724 4.11444e-19)
(10.3827 1.46533 3.72742e-19)
(11.0928 1.54272 -3.47709e-19)
(11.6681 1.57408 6.59451e-19)
(12.1621 1.60326 -1.57333e-18)
(12.5771 1.62537 3.0628e-19)
(12.9145 1.63968 0)
(13.1796 1.64683 5.5836e-19)
(13.3825 1.64728 -5.45086e-19)
(13.5353 1.64233 -7.90395e-19)
(13.6489 1.63327 2.58652e-19)
(13.7322 1.62089 7.43762e-19)
(9.25183 1.37526 0)
(10.4624 1.42969 0)
(11.1709 1.50985 0)
(11.7409 1.5391 3.37057e-19)
(12.2284 1.56833 0)
(12.6374 1.58985 6.08622e-19)
(12.9695 1.60396 -8.8613e-19)
(13.2303 1.61108 0)
(13.43 1.61172 -5.47639e-19)
(13.5803 1.6071 5.32745e-19)
(13.6917 1.59848 0)
(13.7731 1.58638 0)
(9.30813 1.34164 2.12253e-18)
(10.5372 1.39261 -1.53819e-18)
(11.2448 1.47491 7.18572e-19)
(11.8097 1.50213 -1.01051e-18)
(12.2911 1.53125 1.29023e-18)
(12.6944 1.55214 -9.25293e-19)
(13.0217 1.56603 8.92902e-19)
(13.2787 1.57311 2.83125e-19)
(13.4754 1.57395 -1.11308e-18)
(13.6232 1.56973 8.11203e-19)
(13.7325 1.56174 0)
(13.8119 1.54931 0)
(9.36057 1.30656 -1.7173e-18)
(10.6077 1.3542 0)
(11.3146 1.43813 0)
(11.8748 1.46337 -6.81261e-19)
(12.3504 1.49223 6.54589e-19)
(12.7485 1.51244 -9.32865e-19)
(13.0712 1.52607 5.11639e-21)
(13.3247 1.53307 8.72401e-19)
(13.5187 1.53405 5.60479e-19)
(13.6642 1.53012 -5.48957e-19)
(13.7713 1.52263 -2.67083e-19)
(13.8486 1.5099 0)
(9.4093 1.27019 -1.29987e-18)
(10.674 1.31461 1.18163e-18)
(11.3806 1.39968 0)
(11.9364 1.42297 -6.87765e-19)
(12.4066 1.45147 9.92258e-19)
(12.7997 1.47097 0)
(13.1182 1.48428 0)
(13.3685 1.49114 2.95256e-19)
(13.56 1.49217 5.6646e-19)
(13.7036 1.48835 -5.54953e-19)
(13.8092 1.48101 5.37072e-19)
(13.8853 1.47008 0)
(9.45481 1.23257 -4.25387e-21)
(10.7365 1.27376 -1.18795e-18)
(11.4432 1.35967 0)
(11.9946 1.38109 1.04426e-18)
(12.4597 1.40913 -9.98047e-19)
(12.8482 1.42789 3.20474e-19)
(13.1629 1.44086 3.08612e-19)
(13.4102 1.44759 -8.8577e-19)
(13.5995 1.44873 5.77476e-19)
(13.7415 1.44519 -2.80481e-19)
(13.8457 1.43825 2.68469e-21)
(13.9207 1.42851 0)
(9.49662 1.19376 -8.79815e-19)
(10.7951 1.2318 8.01664e-19)
(11.5023 1.31828 0)
(12.0497 1.33787 -3.49573e-19)
(12.51 1.36536 0)
(12.8942 1.38337 -3.20081e-19)
(13.2054 1.39599 3.08967e-21)
(13.4499 1.40259 3.00979e-19)
(13.6372 1.40383 -2.9164e-19)
(13.7776 1.40052 -2.69178e-21)
(13.8806 1.39378 -2.53342e-21)
(13.9547 1.38525 -1.07123e-18)
(9.53538 1.15425 -4.48023e-19)
(10.8502 1.18915 -8.02045e-19)
(11.5582 1.27571 7.51757e-19)
(12.1019 1.29344 3.55943e-19)
(12.5577 1.32032 0)
(12.9378 1.33756 3.26039e-19)
(13.2456 1.34982 -6.25377e-19)
(13.4877 1.35626 -5.98998e-19)
(13.6731 1.35759 8.8036e-19)
(13.8121 1.35453 -2.58006e-21)
(13.914 1.34803 -2.47283e-21)
(13.9872 1.33994 2.68961e-19)
(9.57162 1.11384 4.4296e-19)
(10.9021 1.14548 -8.14524e-19)
(11.6111 1.23196 -3.79422e-19)
(12.1513 1.24792 -3.55302e-19)
(12.6027 1.27412 -3.42384e-19)
(12.979 1.29059 3.25766e-19)
(13.2837 1.30246 -1.26445e-18)
(13.5235 1.30873 2.92174e-21)
(13.7072 1.31014 0)
(13.8449 1.30731 8.57339e-19)
(13.9461 1.30105 -2.83112e-19)
(14.0189 1.29394 -2.71759e-19)
(9.60492 1.07255 -4.54982e-19)
(10.9508 1.10092 0)
(11.661 1.18716 3.14455e-21)
(12.198 1.20135 3.61126e-19)
(12.6453 1.22685 6.86775e-19)
(13.0179 1.24253 3.25391e-19)
(13.3198 1.25401 -1.27447e-18)
(13.5574 1.26013 3.11998e-19)
(13.7396 1.26164 8.98361e-19)
(13.8762 1.25915 0)
(13.9765 1.25326 0)
(14.0489 1.24603 0)
(9.63524 1.03042 1.8256e-18)
(10.9965 1.0555 -8.19842e-19)
(11.7082 1.1414 7.71365e-19)
(12.2421 1.15386 -3.60555e-19)
(12.6855 1.1786 6.97411e-19)
(13.0547 1.1935 9.92246e-19)
(13.3538 1.20456 -9.62412e-19)
(13.5894 1.21051 5.93858e-21)
(13.7702 1.21207 1.20431e-18)
(13.9057 1.20983 -8.79737e-19)
(14.0052 1.20444 2.84962e-19)
(14.0768 1.19803 -5.44863e-19)
(9.66294 0.987807 -4.57781e-19)
(11.0391 1.00956 -4.15254e-19)
(11.7526 1.09481 -3.84058e-19)
(12.2837 1.10549 -7.25736e-19)
(12.7234 1.12946 -3.40775e-19)
(13.0893 1.14356 3.36321e-19)
(13.386 1.15419 3.18452e-19)
(13.6197 1.15994 -9.35486e-19)
(13.7992 1.16151 3.06903e-19)
(13.9338 1.15941 5.88295e-19)
(14.0327 1.15419 -2.85071e-19)
(14.1036 1.14937 -2.79687e-19)
(9.68811 0.944615 -9.20652e-19)
(11.079 0.963006 1.66944e-18)
(11.7945 1.04746 0)
(12.3229 1.05634 0)
(12.7591 1.07951 0)
(13.122 1.0928 6.73435e-19)
(13.4162 1.10299 6.49802e-19)
(13.6482 1.10853 -3.13277e-19)
(13.8266 1.11014 3.06033e-19)
(13.9604 1.10827 2.055e-21)
(14.0588 1.10329 -5.73543e-19)
(14.1293 1.09877 5.60796e-19)
(9.71118 0.901082 9.31163e-19)
(11.1164 0.915924 -2.07199e-19)
(11.8339 0.999288 -1.95764e-19)
(12.3598 1.00645 0)
(12.7926 1.0288 0)
(13.1526 1.04128 -3.37673e-19)
(13.4446 1.05103 3.25014e-19)
(13.6751 1.05637 -6.36132e-19)
(13.8524 1.05801 3.05073e-19)
(13.9855 1.05635 -8.97227e-19)
(14.0835 1.05165 0)
(14.1536 1.04768 -2.8151e-19)
(9.73163 0.857039 -1.86886e-18)
(11.151 0.868141 6.36709e-19)
(11.8709 0.950307 1.95553e-19)
(12.3945 0.955831 -5.52512e-19)
(12.8241 0.977372 7.12026e-19)
(13.1813 0.98906 0)
(13.4713 0.998368 6.54897e-19)
(13.7003 1.00351 -6.40193e-19)
(13.8766 1.00517 0)
(14.0091 1.00376 0)
(14.1065 0.999421 0)
(14.1763 0.994888 5.60425e-19)
(9.74971 0.812998 0)
(11.183 0.820213 0)
(11.9054 0.900744 -3.92723e-19)
(12.427 0.904597 1.69398e-21)
(12.8536 0.925318 0)
(13.2082 0.936215 -6.82266e-19)
(13.4961 0.945079 1.48975e-18)
(13.7238 0.949993 -4.83391e-19)
(13.8992 0.95164 -6.18831e-19)
(14.0312 0.95037 1.57705e-19)
(14.1282 0.946293 6.05078e-21)
(14.1976 0.942052 5.77297e-19)
(9.76575 0.768564 4.71176e-19)
(11.2126 0.771642 -2.14337e-19)
(11.9376 0.850547 1.98747e-19)
(12.4573 0.852824 -1.86244e-19)
(12.8811 0.872703 8.95835e-19)
(13.2332 0.882803 -1.73405e-19)
(13.5193 0.891218 -4.97103e-19)
(13.7457 0.895919 -3.19065e-19)
(13.9204 0.897574 3.14366e-19)
(14.0519 0.896503 -3.04093e-19)
(14.1487 0.892811 1.48346e-19)
(14.2178 0.888594 -1.41532e-19)
(9.77974 0.723718 7.12102e-19)
(11.2397 0.72257 -6.42902e-19)
(11.9676 0.79982 -1.98605e-19)
(12.4856 0.800509 1.88623e-19)
(12.9067 0.819561 -5.37675e-19)
(13.2564 0.828877 5.19831e-19)
(13.5407 0.836848 -3.22588e-21)
(13.766 0.841353 -1.6403e-19)
(13.94 0.843041 -3.12973e-19)
(14.0712 0.842164 4.59947e-19)
(14.1678 0.838808 1.47664e-19)
(14.2369 0.835124 -4.3825e-19)
(9.79118 0.678737 2.39689e-19)
(11.2644 0.673266 0)
(11.9954 0.748657 -2.00511e-19)
(12.5118 0.747721 9.26727e-22)
(12.9304 0.765928 0)
(13.2778 0.774462 1.74355e-19)
(13.5605 0.782002 0)
(13.7847 0.786331 0)
(13.958 0.788091 0)
(14.0889 0.787525 0)
(14.1853 0.784676 -2.97732e-19)
(14.2546 0.780809 5.80744e-19)
(9.80106 0.633554 -4.80334e-19)
(11.2868 0.62366 0)
(12.0211 0.697079 4.01714e-19)
(12.536 0.694456 -1.89307e-19)
(12.9522 0.711842 -3.61329e-19)
(13.2974 0.719598 1.76734e-19)
(13.5786 0.726696 -3.36011e-19)
(13.8018 0.730816 3.28832e-19)
(13.9745 0.732588 -3.16163e-19)
(14.1049 0.732237 3.1635e-21)
(14.201 0.73 1.53787e-19)
(14.2701 0.727323 2.91533e-19)
(9.80873 0.587882 0)
(11.3069 0.573494 -2.16943e-19)
(12.0446 0.645031 -2.01227e-19)
(12.5583 0.640723 0)
(12.9722 0.65732 -3.62767e-19)
(13.3154 0.664287 7.01586e-19)
(13.595 0.670932 -3.40723e-19)
(13.8173 0.674813 0)
(13.9894 0.676519 0)
(14.1195 0.676167 -1.5553e-19)
(14.2154 0.673962 -1.5078e-19)
(14.2837 0.67397 0)
(9.81429 0.542238 4.81894e-19)
(11.3248 0.523342 -4.21821e-21)
(12.066 0.592676 -2.93473e-21)
(12.5787 0.586576 -3.37257e-21)
(12.9904 0.602415 -5.50572e-19)
(13.3316 0.608592 0)
(13.6099 0.614767 0)
(13.8313 0.618397 0)
(14.0031 0.620033 0)
(14.1331 0.619648 1.55608e-19)
(14.2294 0.616893 -1.49786e-19)
(14.2987 0.618754 2.9451e-21)
(9.81806 0.496141 -6.05489e-19)
(11.3405 0.472715 6.55993e-19)
(12.0854 0.539937 4.04402e-19)
(12.5971 0.532028 -3.85391e-19)
(13.0069 0.547176 9.12518e-20)
(13.3462 0.552573 0)
(13.6232 0.558313 3.40018e-19)
(13.8439 0.56174 -3.30993e-21)
(14.0153 0.563472 -3.23533e-19)
(14.1452 0.563602 0)
(14.2415 0.561609 -2.28525e-19)
(14.3105 0.558231 0)
(9.81987 0.449943 2.0521e-21)
(11.3541 0.421976 4.39735e-19)
(12.1027 0.486882 1.02048e-19)
(12.6136 0.477152 2.86849e-19)
(13.0216 0.491668 -2.7786e-19)
(13.3592 0.49627 0)
(13.635 0.501563 3.41208e-19)
(13.8549 0.504755 -3.32606e-21)
(14.026 0.506416 -2.4385e-19)
(14.1557 0.506595 0)
(14.2518 0.504984 1.53044e-19)
(14.3212 0.505118 0)
(9.82037 0.40377 1.21347e-21)
(11.3654 0.370958 3.30414e-19)
(12.1179 0.43336 -1.02036e-19)
(12.6283 0.422028 1.9296e-19)
(13.0345 0.435943 0)
(13.3705 0.439705 0)
(13.6451 0.444549 -8.61199e-20)
(13.8644 0.447497 -8.35336e-20)
(14.0352 0.449112 -8.09359e-20)
(14.165 0.449422 -7.89866e-20)
(14.2613 0.448043 -1.52578e-19)
(14.331 0.448532 1.48918e-19)
(9.81898 0.357344 -1.2254e-19)
(11.3747 0.319421 -1.09855e-19)
(12.1313 0.379387 2.04008e-19)
(12.6412 0.366672 -4.83659e-19)
(13.0459 0.380002 1.85913e-19)
(13.3802 0.382906 0)
(13.6538 0.3873 8.6134e-20)
(13.8725 0.390005 8.35567e-20)
(14.0431 0.391595 -1.61805e-19)
(14.1729 0.392027 2.38135e-19)
(14.2694 0.390796 1.53534e-19)
(14.3392 0.391363 -1.51189e-19)
(9.81588 0.311184 0)
(11.3815 0.268026 0)
(12.1427 0.325075 1.02871e-19)
(12.6523 0.311055 0)
(13.0555 0.323918 -9.29004e-20)
(13.3884 0.325892 8.94925e-20)
(13.6609 0.329842 1.72125e-19)
(13.8791 0.332307 -2.52661e-19)
(14.0495 0.333877 0)
(14.1794 0.334493 -7.9481e-20)
(14.276 0.333639 7.66127e-20)
(14.3461 0.33348 -2.25082e-19)
(9.81121 0.264828 6.1745e-20)
(11.3864 0.216239 2.2047e-19)
(12.1518 0.270477 -3.09397e-19)
(12.6617 0.255337 0)
(13.0637 0.267649 4.63481e-20)
(13.395 0.268648 8.88491e-20)
(13.6666 0.272186 -3.46803e-19)
(13.8843 0.274408 4.20546e-19)
(14.0546 0.275929 -1.64415e-19)
(14.1846 0.276626 1.19376e-19)
(14.2814 0.275987 0)
(14.3518 0.275651 7.57722e-20)
(9.80472 0.218586 -6.17652e-20)
(11.3894 0.164391 0)
(12.1589 0.215804 -5.10644e-20)
(12.6694 0.199692 9.78619e-20)
(13.0701 0.211186 1.3931e-19)
(13.4 0.211131 -9.02191e-20)
(13.6707 0.214357 -4.34813e-20)
(13.888 0.216358 4.21993e-20)
(14.0582 0.217868 8.15694e-20)
(14.1883 0.218785 -1.20117e-19)
(14.2854 0.218784 -3.89106e-20)
(14.3564 0.217487 -3.75871e-20)
(9.79664 0.172411 -9.22895e-20)
(11.3904 0.112339 1.39274e-19)
(12.1641 0.161146 -7.74901e-20)
(12.6753 0.144059 1.21562e-19)
(13.0747 0.154368 -2.10037e-19)
(13.4035 0.153432 1.79916e-19)
(13.6734 0.156439 -6.57706e-20)
(13.8903 0.158157 4.18628e-20)
(14.0604 0.159596 -1.6435e-19)
(14.1907 0.160519 6.04123e-20)
(14.2881 0.160709 3.894e-20)
(14.3591 0.159568 3.81125e-20)
(9.78705 0.126574 -9.27749e-20)
(11.3897 0.0600965 2.80817e-20)
(12.1674 0.106476 2.58579e-20)
(12.6795 0.0882711 -2.44048e-20)
(13.0776 0.09729 -2.31639e-20)
(13.4054 0.0958442 4.52473e-20)
(13.6745 0.098374 2.17817e-20)
(13.8911 0.0998263 0)
(14.0613 0.101242 0)
(14.1918 0.102317 2.00237e-20)
(14.2895 0.103045 0)
(14.3611 0.102127 0)
(9.77602 0.0808025 -1.55433e-20)
(11.387 0.00763248 1.38723e-20)
(12.1692 0.0517697 7.13593e-22)
(12.6818 0.0324042 -1.26639e-20)
(13.079 0.0400686 0)
(13.4059 0.0381908 0)
(13.6743 0.0402049 1.15366e-20)
(13.8905 0.0413927 -2.11779e-20)
(14.0607 0.0427681 1.03525e-20)
(14.1915 0.0438948 6.2712e-22)
(14.2896 0.0447827 0)
(14.3614 0.0444098 0)
(9.76316 0.0352146 4.67019e-20)
(11.3824 -0.0449179 2.77742e-20)
(12.1691 -0.00308541 -1.38504e-20)
(12.6824 -0.0235036 3.82238e-22)
(13.0789 -0.017173 -1.17061e-20)
(13.4047 -0.0195521 1.12791e-20)
(13.6725 -0.0180579 -1.16021e-20)
(13.8885 -0.0171041 -3.16879e-20)
(14.0588 -0.0157679 -1.0099e-20)
(14.1898 -0.0144837 9.51251e-21)
(14.2882 -0.0130957 -9.78201e-21)
(14.3607 -0.0128952 0)
(9.74878 -0.0100944 4.64534e-20)
(11.376 -0.0972494 -8.37574e-20)
(12.1672 -0.0579083 1.31307e-20)
(12.6813 -0.0794774 -2.42773e-20)
(13.0772 -0.0744323 3.55508e-20)
(13.4022 -0.0773364 3.40609e-20)
(13.6693 -0.0763763 1.09187e-20)
(13.8851 -0.0756822 1.06002e-20)
(14.0554 -0.07445 1.03113e-20)
(14.1867 -0.0732191 3.01298e-20)
(14.2854 -0.0718918 -9.78995e-21)
(14.3575 -0.0707993 5.72809e-20)
(9.73299 -0.0553351 -6.17925e-20)
(11.3676 -0.149561 -8.28382e-20)
(12.1636 -0.112716 1.30181e-19)
(12.6785 -0.135492 -2.44983e-20)
(13.074 -0.131688 -1.16693e-19)
(13.398 -0.135145 1.80537e-19)
(13.6646 -0.134705 -4.41204e-20)
(13.8803 -0.13428 0)
(14.0509 -0.13317 4.12734e-20)
(14.1826 -0.131983 -2.00919e-20)
(14.282 -0.130928 1.95764e-20)
(14.3552 -0.128461 -1.91325e-20)
(9.71543 -0.100416 -1.255e-19)
(11.3574 -0.201745 -5.53072e-22)
(12.1582 -0.167494 0)
(12.6742 -0.191517 -9.76267e-20)
(13.0692 -0.188887 9.41362e-20)
(13.3925 -0.192908 0)
(13.6585 -0.192975 -2.74621e-24)
(13.8741 -0.192776 0)
(14.0449 -0.191689 -4.12757e-20)
(14.1772 -0.190237 0)
(14.2774 -0.18883 0)
(14.3518 -0.186016 -7.50498e-20)
(9.69635 -0.145063 6.2492e-20)
(11.3455 -0.253568 5.5228e-20)
(12.151 -0.222181 -4.15611e-19)
(12.6681 -0.247503 3.92294e-19)
(13.0628 -0.246027 -1.88256e-19)
(13.3854 -0.250622 0)
(13.651 -0.251172 -4.36997e-20)
(13.8666 -0.251202 0)
(14.0376 -0.250175 0)
(14.1703 -0.248609 0)
(14.2709 -0.247064 0)
(14.3457 -0.244409 -1.50766e-19)
(9.67593 -0.189462 1.24972e-19)
(11.3317 -0.305243 2.23487e-19)
(12.142 -0.276816 0)
(12.6604 -0.303428 2.93298e-19)
(13.0549 -0.303079 -9.45421e-20)
(13.3769 -0.30827 0)
(13.6421 -0.309302 -8.65281e-20)
(13.8576 -0.309583 8.65009e-20)
(14.0289 -0.308647 1.65888e-19)
(14.162 -0.306979 2.40263e-19)
(14.2631 -0.305051 -1.57453e-19)
(14.3384 -0.302836 7.5401e-20)
(9.65419 -0.233584 -5.00159e-19)
(11.3161 -0.356702 -1.11788e-19)
(12.1313 -0.331354 1.03932e-19)
(12.651 -0.35927 -8.29656e-23)
(13.0455 -0.360023 -9.36946e-20)
(13.3668 -0.365829 9.01478e-20)
(13.6317 -0.367352 8.64118e-20)
(13.8472 -0.367897 -2.55205e-19)
(14.0188 -0.367087 0)
(14.1524 -0.365452 -2.40171e-19)
(14.2541 -0.363446 3.13073e-19)
(14.3297 -0.361261 -3.06046e-19)
(9.6307 -0.277744 2.50087e-19)
(11.2988 -0.408196 2.22795e-19)
(12.1187 -0.385752 -2.08633e-19)
(12.64 -0.415002 -9.80413e-20)
(13.0345 -0.416848 1.86332e-19)
(13.3554 -0.423269 -9.18807e-20)
(13.6199 -0.425267 -8.81419e-20)
(13.8354 -0.426068 8.46579e-20)
(14.0074 -0.425362 0)
(14.1416 -0.423646 0)
(14.2439 -0.421254 0)
(14.3202 -0.418861 7.76239e-22)
(9.60571 -0.321279 -2.50023e-19)
(11.2795 -0.459123 0)
(12.1045 -0.439963 -1.43195e-22)
(12.6274 -0.470593 0)
(13.022 -0.473518 9.34541e-20)
(13.3424 -0.480545 -3.58453e-19)
(13.6067 -0.483013 2.63103e-19)
(13.8223 -0.484073 -8.46818e-20)
(13.9947 -0.483483 0)
(14.1296 -0.481854 -3.19135e-19)
(14.2328 -0.479804 3.14242e-19)
(14.3099 -0.477555 -7.67007e-20)
(9.57937 -0.364845 -3.7484e-19)
(11.2585 -0.510053 2.23019e-19)
(12.0884 -0.493969 -3.11371e-19)
(12.613 -0.525997 1.95521e-19)
(13.0078 -0.530006 -2.80167e-19)
(13.328 -0.537654 0)
(13.5921 -0.540559 0)
(13.8078 -0.541829 3.36404e-19)
(13.9806 -0.541223 -4.9498e-19)
(14.1161 -0.539208 -1.58722e-19)
(14.2203 -0.536238 1.57924e-19)
(14.2997 -0.534608 0)
(9.55125 -0.40801 0)
(11.2358 -0.560588 -1.30483e-21)
(12.0706 -0.547736 -2.08539e-19)
(12.5971 -0.581211 -1.65783e-21)
(12.9922 -0.586285 -1.88089e-19)
(13.3121 -0.59455 5.36985e-19)
(13.576 -0.597909 -3.49389e-19)
(13.7918 -0.599417 1.67276e-19)
(13.965 -0.598904 -1.65775e-19)
(14.1011 -0.59688 1.58178e-19)
(14.2057 -0.593649 -1.5738e-19)
(14.2855 -0.590163 2.99413e-19)
(9.52195 -0.450803 7.48444e-19)
(11.2114 -0.610753 2.2301e-19)
(12.0511 -0.601247 0)
(12.5795 -0.636211 3.90493e-19)
(12.975 -0.642371 3.70996e-19)
(13.2947 -0.651273 -1.82948e-19)
(13.5584 -0.655101 -3.48828e-19)
(13.7744 -0.656881 3.66594e-22)
(13.948 -0.656502 0)
(14.0847 -0.654554 0)
(14.19 -0.651245 0)
(14.2699 -0.647029 0)
(9.49134 -0.493369 -7.48272e-19)
(11.1852 -0.660736 -2.22237e-19)
(12.0298 -0.654591 0)
(12.5603 -0.691014 -1.95215e-19)
(12.9563 -0.698255 -1.85816e-19)
(13.2758 -0.707803 -1.77543e-19)
(13.5395 -0.712105 3.39045e-21)
(13.7556 -0.714179 8.41185e-19)
(13.9297 -0.713954 -3.2901e-19)
(14.0671 -0.712094 0)
(14.1734 -0.709071 3.08998e-19)
(14.2538 -0.705074 -3.04351e-19)
(9.45896 -0.535721 -2.49409e-19)
(11.1571 -0.710474 1.30741e-21)
(12.0067 -0.707651 2.08185e-19)
(12.5395 -0.745584 0)
(12.936 -0.753891 1.7058e-21)
(13.2555 -0.764082 3.58566e-19)
(13.5191 -0.768857 -3.44081e-19)
(13.7355 -0.771208 5.05e-19)
(13.9102 -0.771089 0)
(14.0483 -0.769123 0)
(14.1554 -0.76572 0)
(14.2371 -0.761929 4.47313e-19)
(9.425 -0.577596 -9.94679e-19)
(11.1273 -0.759704 -6.64493e-19)
(11.9819 -0.760336 6.20427e-19)
(12.5169 -0.799844 0)
(12.9142 -0.809244 -3.7069e-19)
(13.2337 -0.820084 -1.78541e-19)
(13.4974 -0.825321 0)
(13.7141 -0.827956 3.32766e-19)
(13.8893 -0.827988 -3.27564e-19)
(14.0282 -0.826106 0)
(14.1362 -0.822855 0)
(14.2185 -0.818431 -1.50996e-19)
(9.38965 -0.619148 9.90729e-19)
(11.0959 -0.808584 -2.23878e-19)
(11.9553 -0.812686 -2.04396e-19)
(12.4927 -0.85378 1.95995e-19)
(12.8909 -0.864276 1.8524e-19)
(13.2104 -0.875764 -5.31585e-19)
(13.4742 -0.881465 3.45824e-19)
(13.6912 -0.884371 -3.34052e-19)
(13.867 -0.884519 -3.23385e-19)
(14.0068 -0.88254 3.18277e-19)
(14.1158 -0.879 0)
(14.1995 -0.874485 -1.48595e-19)
(9.35281 -0.660203 4.92419e-19)
(11.0626 -0.856954 -6.654e-19)
(11.927 -0.86466 -2.05796e-19)
(12.4669 -0.907377 1.15758e-18)
(12.8659 -0.918976 -7.41193e-19)
(13.1857 -0.931113 1.7771e-19)
(13.4496 -0.937274 6.83047e-19)
(13.667 -0.940458 -5.02762e-19)
(13.8435 -0.940727 1.61794e-19)
(13.984 -0.938767 0)
(14.094 -0.93528 0)
(14.1786 -0.930958 1.49793e-19)
(9.31496 -0.700844 -9.22298e-22)
(11.0276 -0.904857 0)
(11.897 -0.916293 6.1161e-19)
(12.4394 -0.960635 -9.68992e-19)
(12.8395 -0.973316 -7.32671e-19)
(13.1595 -0.986123 7.10964e-19)
(13.4236 -0.992729 5.10265e-19)
(13.6414 -0.996162 -8.33535e-19)
(13.8184 -0.99656 -1.61878e-19)
(13.9599 -0.994478 -7.83346e-19)
(14.0708 -0.990502 4.63726e-19)
(14.1569 -0.986759 0)
(9.27506 -0.741387 -2.47246e-19)
(10.9908 -0.952691 0)
(11.8651 -0.967583 1.01901e-18)
(12.4102 -1.01353 -1.54007e-18)
(12.8114 -1.02732 3.70911e-19)
(13.1318 -1.04076 -3.52037e-19)
(13.3961 -1.04783 1.70904e-19)
(13.6143 -1.05154 4.94329e-19)
(13.7921 -1.0521 -6.47521e-19)
(13.9344 -1.05014 1.57177e-19)
(14.0463 -1.04621 4.56267e-19)
(14.133 -1.04328 -5.976e-19)
(9.23346 -0.781047 4.91141e-19)
(10.9522 -0.999632 4.3776e-19)
(11.8315 -1.01831 8.12022e-19)
(12.3794 -1.06596 -1.53599e-18)
(12.7818 -1.0809 1.10159e-18)
(13.1025 -1.09501 -3.4751e-19)
(13.3672 -1.10254 3.44018e-19)
(13.5858 -1.10653 3.30645e-19)
(13.7643 -1.1072 0)
(13.9076 -1.10518 0)
(14.0206 -1.10067 -3.00987e-19)
(14.1087 -1.09789 6.31108e-21)
(9.19092 -0.820293 -2.26742e-21)
(10.9119 -1.04606 -2.00871e-21)
(11.796 -1.06858 0)
(12.3469 -1.11799 -3.80299e-19)
(12.7506 -1.13407 1.09615e-18)
(13.0719 -1.14884 -3.49586e-19)
(13.3368 -1.15684 -6.72548e-19)
(13.556 -1.16113 3.32818e-19)
(13.7352 -1.16193 3.17215e-19)
(13.8794 -1.16003 -9.36941e-19)
(13.9934 -1.15547 0)
(14.082 -1.15353 -2.95295e-19)
(9.14691 -0.859118 -2.38847e-21)
(10.8698 -1.09203 4.32274e-19)
(11.7589 -1.11846 -4.08687e-19)
(12.3126 -1.16956 -1.14201e-18)
(12.7178 -1.18682 -3.57684e-19)
(13.0397 -1.20228 1.39949e-18)
(13.305 -1.21072 1.64913e-21)
(13.5247 -1.21529 1.59965e-21)
(13.7047 -1.21621 3.19266e-19)
(13.8498 -1.21427 3.11021e-19)
(13.9649 -1.20915 0)
(14.0554 -1.20595 8.74268e-19)
(9.10143 -0.897583 -4.89072e-19)
(10.8263 -1.1376 -4.33348e-19)
(11.7199 -1.16779 -4.04892e-19)
(12.2767 -1.22066 -3.77828e-19)
(12.6834 -1.2391 7.27141e-19)
(13.0059 -1.25529 -1.04072e-18)
(13.2718 -1.26419 3.43454e-19)
(13.492 -1.26906 6.57075e-19)
(13.6727 -1.27015 0)
(13.8188 -1.26839 3.06514e-19)
(13.9349 -1.26355 -1.2038e-18)
(14.0255 -1.26055 5.91436e-19)
(9.0541 -0.935472 4.83457e-19)
(10.7805 -1.18263 -4.3582e-19)
(11.6792 -1.21671 -1.20216e-18)
(12.2392 -1.27132 3.46319e-21)
(12.6475 -1.29092 0)
(12.9707 -1.30779 -3.45347e-19)
(13.2371 -1.31719 -3.33717e-19)
(13.4579 -1.32239 3.25539e-19)
(13.6395 -1.32367 0)
(13.7866 -1.32202 3.0838e-19)
(13.904 -1.31732 5.96374e-19)
(13.9962 -1.31392 -6.40323e-21)
(9.00504 -0.972554 4.85971e-19)
(10.7331 -1.22674 0)
(11.6364 -1.26486 8.0046e-19)
(12.1998 -1.32134 -3.79598e-19)
(12.6098 -1.34219 -3.58106e-19)
(12.934 -1.35976 1.03221e-18)
(13.2009 -1.36967 -9.98434e-19)
(13.4225 -1.37517 9.71825e-19)
(13.6049 -1.37662 0)
(13.7531 -1.37493 -3.03825e-19)
(13.8718 -1.36999 8.96988e-19)
(13.9654 -1.3663 2.88682e-19)
(8.95511 -1.00905 -9.65047e-19)
(10.6841 -1.2702 4.28189e-19)
(11.5921 -1.31243 -3.565e-21)
(12.1588 -1.37084 -7.54234e-19)
(12.5707 -1.39294 7.14864e-19)
(12.8958 -1.41122 0)
(13.1634 -1.42162 -3.30464e-19)
(13.3856 -1.42745 -3.22473e-19)
(13.569 -1.42909 0)
(13.7183 -1.42754 3.00427e-19)
(13.8382 -1.42284 -8.94034e-19)
(13.9331 -1.41931 -2.90028e-19)
(8.90392 -1.04517 0)
(10.6332 -1.31323 2.70782e-21)
(11.5459 -1.35953 1.18986e-18)
(12.116 -1.41979 -6.59797e-21)
(12.5299 -1.44315 -1.78006e-18)
(12.856 -1.46213 1.3659e-18)
(13.1243 -1.47301 -1.31731e-18)
(13.3473 -1.47915 6.4298e-19)
(13.5317 -1.48095 0)
(13.682 -1.47934 0)
(13.8033 -1.47426 -2.93196e-19)
(13.9004 -1.47052 5.72122e-19)
(8.85078 -1.08067 0)
(10.5805 -1.35559 2.84684e-21)
(11.4979 -1.406 -1.1814e-18)
(12.0716 -1.46813 7.47609e-19)
(12.4875 -1.49274 0)
(12.8147 -1.51248 6.76324e-19)
(13.0838 -1.52385 -3.30164e-19)
(13.3076 -1.5303 0)
(13.4929 -1.53233 -6.15587e-19)
(13.6444 -1.53092 6.05616e-19)
(13.767 -1.52621 -2.94516e-19)
(13.8649 -1.52286 0)
(8.79599 -1.11559 9.52982e-19)
(10.5262 -1.39734 4.25168e-19)
(11.4481 -1.45174 7.86992e-19)
(12.0253 -1.51584 0)
(12.4434 -1.54172 7.01204e-19)
(12.7718 -1.56222 -3.43174e-19)
(13.0418 -1.57409 -6.55752e-19)
(13.2665 -1.58087 0)
(13.4528 -1.58306 3.06468e-19)
(13.6056 -1.58162 0)
(13.7296 -1.57658 0)
(13.8297 -1.57272 0)
(8.73953 -1.14965 4.71873e-19)
(10.4697 -1.43826 -8.47178e-19)
(11.3963 -1.4968 -3.92928e-19)
(11.9772 -1.56287 0)
(12.3976 -1.59006 6.97483e-19)
(12.7274 -1.61133 -3.38002e-19)
(12.9983 -1.62369 -6.45515e-19)
(13.2239 -1.63079 9.45425e-19)
(13.4112 -1.63319 -9.15076e-19)
(13.5653 -1.63192 8.95025e-19)
(13.6907 -1.62723 -8.66151e-19)
(13.7918 -1.62389 6.33335e-21)
(8.68171 -1.18288 1.88313e-18)
(10.4115 -1.47817 -4.24757e-19)
(11.3426 -1.54107 0)
(11.9274 -1.60917 1.09415e-18)
(12.3502 -1.63774 -6.27071e-21)
(12.6813 -1.65976 -6.71362e-19)
(12.9532 -1.67264 -3.21122e-19)
(13.1798 -1.68007 -2.38963e-21)
(13.3682 -1.68258 6.04471e-19)
(13.5236 -1.68124 -5.96883e-19)
(13.6506 -1.67606 1.14961e-18)
(13.7542 -1.67255 -1.11417e-18)
(8.62262 -1.21557 -9.38469e-19)
(10.3517 -1.51739 -4.18738e-19)
(11.287 -1.5846 -3.85542e-19)
(11.8757 -1.65475 -2.90765e-21)
(12.3011 -1.68471 -3.44953e-19)
(12.6337 -1.70751 -6.61001e-19)
(12.9067 -1.72093 6.46292e-19)
(13.1342 -1.72872 -2.47963e-21)
(13.3238 -1.73146 0)
(13.4803 -1.73028 -8.79521e-19)
(13.6085 -1.72506 5.73233e-19)
(13.7129 -1.72082 0)
(8.56194 -1.24758 4.72712e-19)
(10.29 -1.55591 8.32978e-19)
(11.2297 -1.62739 1.15266e-18)
(11.8223 -1.69959 -1.09078e-18)
(12.2502 -1.73096 -3.39628e-19)
(12.5845 -1.75459 9.91251e-19)
(12.8587 -1.76858 3.19487e-19)
(13.0872 -1.77675 -3.09641e-19)
(13.2779 -1.7798 -1.1927e-18)
(13.4358 -1.77897 1.17289e-18)
(13.5654 -1.77432 -2.85328e-19)
(13.6707 -1.7701 -1.1078e-18)
(8.49953 -1.27883 -9.23898e-19)
(10.2264 -1.59363 1.64959e-18)
(11.1705 -1.6694 -3.86452e-19)
(11.767 -1.74368 3.5801e-19)
(12.1977 -1.77648 3.40393e-19)
(12.5337 -1.80092 -2.84094e-21)
(12.8091 -1.81549 9.43388e-19)
(13.0389 -1.82402 -1.2309e-18)
(13.2308 -1.82732 0)
(13.3902 -1.82662 2.88368e-19)
(13.5217 -1.82222 0)
(13.6293 -1.81835 2.74547e-19)
(8.43543 -1.30924 -1.8365e-18)
(10.1609 -1.63042 1.64512e-18)