/*--------------------------------*- C++ -*----------------------------------*\
| =========                 |                                                 |
| \\      /  F ield         | OpenFOAM: The Open Source CFD Toolbox           |
|  \\    /   O peration     | Version:  2.3.1                                 |
|   \\  /    A nd           | Web:      www.OpenFOAM.org                      |
|    \\/     M anipulation  |                                                 |
\*---------------------------------------------------------------------------*/
FoamFile
{
    version     2.0;
    format      ascii;
    class       volScalarField;
    location    "0.57";
    object      nut;
}
// * * * * * * * * * * * * * * * * * * * * * * * * * * * * * * * * * * * * * //

dimensions      [0 2 -1 0 0 0 0];

internalField   nonuniform List<scalar> 
15166
(
9.72534e-05
0.000157301
0.000262304
0.000376508
0.000476723
0.000591367
0.000709547
0.000837766
0.000957392
0.00108042
0.00119717
0.00129735
9.72716e-05
0.000171232
0.000283037
0.000397082
0.000500898
0.000614541
0.000731392
0.000854757
0.00097205
0.00109056
0.00120297
0.00130397
9.76352e-05
0.000182562
0.000299311
0.000414055
0.000520747
0.000633764
0.000749322
0.000868948
0.000984032
0.00109874
0.00120757
0.00130837
9.81081e-05
0.000192711
0.000313188
0.000428688
0.000537423
0.000649877
0.000764162
0.000880797
0.000993753
0.00110518
0.00121101
0.00131165
9.86125e-05
0.00020189
0.000325465
0.000441682
0.000551776
0.000663629
0.0007766
0.000890721
0.00100163
0.00111018
0.0012135
0.00131355
9.91587e-05
0.000210146
0.000336478
0.000453345
0.000564317
0.000675486
0.000787133
0.000899058
0.00100797
0.00111395
0.00121505
0.00131438
9.97405e-05
0.000217566
0.000346483
0.000463909
0.000575353
0.000685799
0.000796121
0.000906049
0.00101303
0.00111668
0.00121578
0.00131482
0.000100357
0.000224235
0.000355685
0.000473536
0.00058516
0.000694828
0.000803835
0.000911921
0.00101705
0.00111857
0.00121604
0.0013154
0.000100988
0.000230217
0.000364234
0.000482419
0.000593967
0.000702795
0.000810497
0.000916865
0.0010202
0.00111978
0.00121583
0.00131513
0.000101631
0.000235552
0.000372219
0.000490651
0.000601945
0.000709891
0.000816288
0.000921011
0.00102263
0.00112044
0.00121529
0.00131437
0.00010228
0.000240293
0.000379708
0.000498327
0.000609212
0.00071624
0.000821345
0.000924492
0.00102447
0.00112069
0.00121467
0.0013146
0.000102928
0.000244472
0.000386734
0.000505518
0.000615875
0.000721955
0.000825782
0.000927411
0.00102582
0.00112064
0.00121396
0.00131398
0.000103572
0.000248133
0.000393335
0.000512264
0.000622027
0.000727133
0.000829686
0.000929852
0.00102677
0.00112033
0.00121305
0.00131233
0.000104209
0.000251334
0.000399535
0.000518615
0.000627723
0.000731829
0.000833136
0.000931882
0.0010274
0.00111979
0.00121171
0.00130981
0.000104838
0.000254087
0.000405347
0.000524614
0.00063302
0.000736124
0.000836194
0.000933576
0.00102775
0.00111903
0.00121024
0.0013076
0.000105454
0.000256443
0.000410771
0.000530279
0.000637964
0.000740049
0.000838902
0.000934957
0.00102787
0.00111812
0.00120859
0.00130468
0.000106058
0.000258426
0.000415812
0.000535635
0.000642594
0.000743658
0.000841313
0.000936094
0.00102779
0.00111705
0.00120673
0.00130178
0.000106644
0.000260081
0.000420493
0.000540711
0.00064695
0.000746996
0.000843471
0.000936993
0.00102753
0.00111583
0.00120467
0.0012984
0.000107213
0.00026144
0.000424804
0.000545508
0.000651038
0.000750071
0.000845383
0.00093771
0.00102712
0.00111449
0.00120249
0.00129507
0.000107767
0.000262521
0.000428765
0.00055004
0.000654902
0.000752923
0.0008471
0.000938252
0.00102658
0.00111304
0.00120021
0.00129176
0.000108307
0.000263364
0.00043237
0.000554318
0.000658537
0.000755571
0.000848626
0.000938637
0.00102592
0.00111149
0.00119776
0.00128798
0.000108828
0.000263979
0.000435628
0.000558358
0.00066198
0.000758027
0.000849983
0.000938886
0.00102516
0.00110983
0.00119515
0.00128409
0.000109322
0.000264406
0.000438557
0.000562145
0.000665227
0.000760318
0.000851199
0.000939022
0.0010243
0.00110807
0.00119247
0.00128101
0.000109808
0.000264655
0.000441156
0.000565698
0.000668297
0.000762459
0.000852286
0.000939056
0.00102335
0.00110622
0.00118969
0.00127737
0.000110268
0.000264743
0.000443435
0.000569031
0.0006712
0.000764461
0.00085325
0.000938985
0.00102233
0.0011043
0.0011869
0.00127436
0.000110712
0.0002647
0.000445404
0.000572135
0.000673944
0.000766326
0.000854102
0.000938831
0.00102123
0.00110231
0.00118407
0.00127086
0.000111139
0.00026453
0.000447074
0.000575003
0.000676533
0.000768072
0.000854858
0.000938595
0.00102006
0.00110028
0.0011813
0.00126811
0.000111545
0.000264265
0.000448471
0.00057765
0.000678964
0.0007697
0.000855527
0.000938285
0.00101883
0.00109822
0.00117862
0.00126557
0.00011193
0.0002639
0.000449584
0.000580088
0.000681253
0.000771222
0.000856101
0.000937916
0.00101756
0.00109614
0.00117592
0.0012622
0.000112295
0.000263437
0.000450447
0.000582299
0.0006834
0.000772639
0.000856602
0.000937479
0.00101625
0.00109404
0.00117325
0.00125941
0.000112637
0.000262923
0.000451048
0.000584297
0.000685401
0.000773961
0.000857029
0.000936995
0.0010149
0.00109194
0.00117054
0.001256
0.000112969
0.000262335
0.000451428
0.000586075
0.000687266
0.000775186
0.000857392
0.000936453
0.00101352
0.00108982
0.00116786
0.00125313
0.000113289
0.000261692
0.000451575
0.000587658
0.000688998
0.000776325
0.000857682
0.000935873
0.00101212
0.00108769
0.00116514
0.00124955
0.000113577
0.000261016
0.000451527
0.000589029
0.00069059
0.000777374
0.000857919
0.000935252
0.00101069
0.00108555
0.00116243
0.00124651
0.000113852
0.000260302
0.000451275
0.000590211
0.000692051
0.000778334
0.000858097
0.000934594
0.00100923
0.0010834
0.00115969
0.0012429
0.00011412
0.000259559
0.000450854
0.000591178
0.000693375
0.000779215
0.000858226
0.000933898
0.00100776
0.00108125
0.00115699
0.00124014
0.000114354
0.000258787
0.000450253
0.000591966
0.00069457
0.000780011
0.000858293
0.000933163
0.00100626
0.0010791
0.00115435
0.00123765
0.000114583
0.000258
0.000449496
0.000592558
0.00069563
0.00078073
0.000858316
0.000932404
0.00100476
0.00107695
0.00115172
0.00123437
0.000114791
0.000257199
0.000448597
0.000592971
0.000696563
0.000781359
0.00085829
0.000931619
0.00100325
0.00107481
0.00114909
0.00123119
0.000114977
0.000256391
0.000447566
0.00059321
0.000697373
0.000781923
0.000858217
0.000930803
0.00100172
0.00107267
0.00114645
0.00122784
0.000115157
0.000255564
0.000446413
0.000593271
0.000698051
0.000782399
0.000858098
0.000929969
0.00100019
0.00107053
0.00114369
0.00122399
0.000115311
0.000254658
0.000445124
0.000593169
0.000698598
0.000782803
0.000857933
0.000929107
0.000998642
0.00106836
0.00114093
0.00122121
0.000115456
0.000253721
0.00044374
0.000592909
0.000699025
0.000783127
0.000857726
0.000928229
0.00099709
0.00106619
0.00113817
0.00121786
0.000115576
0.000252721
0.000442211
0.000592483
0.000699324
0.000783371
0.000857474
0.000927323
0.000995522
0.001064
0.00113544
0.00121513
0.000115679
0.000251716
0.000440521
0.000591907
0.000699503
0.000783536
0.000857179
0.000926397
0.000993947
0.00106182
0.00113272
0.00121169
0.000115771
0.000250749
0.000438706
0.000591158
0.000699552
0.000783629
0.000856849
0.000925451
0.000992364
0.00105963
0.00113003
0.00120918
0.00011585
0.000249728
0.000436799
0.000590202
0.000699454
0.000783642
0.000856469
0.000924485
0.000990769
0.00105745
0.00112735
0.00120582
0.000115904
0.00024874
0.000434799
0.000589109
0.000699223
0.000783568
0.000856044
0.000923499
0.000989168
0.00105527
0.00112471
0.00120324
0.000115948
0.000247754
0.00043276
0.000587847
0.000698853
0.000783413
0.000855579
0.000922483
0.000987558
0.00105309
0.00112207
0.00120004
0.00011598
0.000246774
0.000430611
0.000586439
0.000698356
0.000783161
0.000855064
0.000921453
0.000985934
0.00105092
0.00111947
0.00119747
0.000116
0.000245837
0.000428406
0.000584891
0.000697732
0.000782836
0.000854502
0.000920399
0.00098431
0.00104874
0.00111682
0.0011939
0.000116003
0.000244861
0.000426147
0.000583189
0.000696967
0.000782409
0.00085389
0.000919317
0.000982676
0.00104658
0.00111418
0.00119057
0.000115992
0.000243938
0.000423847
0.000581381
0.000696076
0.000781899
0.000853227
0.00091822
0.000981039
0.00104442
0.00111159
0.00118829
0.000115973
0.000243021
0.000421509
0.00057943
0.000695047
0.000781304
0.000852521
0.000917099
0.000979396
0.00104227
0.00110903
0.00118558
0.000115934
0.000242112
0.000419138
0.000577363
0.000693894
0.000780612
0.00085176
0.000915955
0.000977749
0.00104013
0.00110652
0.00118292
0.000115878
0.00024121
0.000416741
0.000575189
0.000692618
0.000779822
0.000850943
0.000914785
0.000976098
0.001038
0.001104
0.00117959
0.000115819
0.000240363
0.000414327
0.000572912
0.000691206
0.000778944
0.000850078
0.000913591
0.000974438
0.00103588
0.00110149
0.00117672
0.000115742
0.000239482
0.000411896
0.000570516
0.000689676
0.000777975
0.000849146
0.000912371
0.000972782
0.00103377
0.00109894
0.00117305
0.000115648
0.000238654
0.000409453
0.000568029
0.000688014
0.000776895
0.00084817
0.000911132
0.000971121
0.00103167
0.00109643
0.00117112
0.000115553
0.00023784
0.000407036
0.000565482
0.000686252
0.000775732
0.000847123
0.000909854
0.000969444
0.00102956
0.00109393
0.00116837
0.000115438
0.000237062
0.00040458
0.000562831
0.00068436
0.000774465
0.000846019
0.000908552
0.000967765
0.00102745
0.00109144
0.00116528
0.000115308
0.00023626
0.000402122
0.000560102
0.000682343
0.000773094
0.000844848
0.000907212
0.000966072
0.00102536
0.00108894
0.00116184
0.000115168
0.000235508
0.000399672
0.000557306
0.000680233
0.000771629
0.00084361
0.000905845
0.000964371
0.00102327
0.00108645
0.00115892
0.00011502
0.00023477
0.000397261
0.000554425
0.000678002
0.00077006
0.000842313
0.000904444
0.000962667
0.00102118
0.00108392
0.00115548
0.000114857
0.000234075
0.000394827
0.00055151
0.000675669
0.000768397
0.000840944
0.000903008
0.000960945
0.00101909
0.0010814
0.00115266
0.000114689
0.000233388
0.000392435
0.00054854
0.000673222
0.000766637
0.000839504
0.00090154
0.000959217
0.00101699
0.00107886
0.00114942
0.000114484
0.000232691
0.000390052
0.000545499
0.00067069
0.000764772
0.000837999
0.000900029
0.000957464
0.00101489
0.00107634
0.00114677
0.000114311
0.00023205
0.000387701
0.000542433
0.00066806
0.000762811
0.000836425
0.000898477
0.000955701
0.00101278
0.0010738
0.0011435
0.000114091
0.000231428
0.000385362
0.000539329
0.000665324
0.000760748
0.00083477
0.000896882
0.000953911
0.00101067
0.00107128
0.00114057
0.00011385
0.000230824
0.000383046
0.000536182
0.000662518
0.000758598
0.000833041
0.000895245
0.000952108
0.00100855
0.00106872
0.0011372
0.000113623
0.000230214
0.000380768
0.000532988
0.000659609
0.000756347
0.000831242
0.000893557
0.000950279
0.00100641
0.00106618
0.00113429
0.000113378
0.000229699
0.0003785
0.000529783
0.000656627
0.000753989
0.000829365
0.000891822
0.000948424
0.00100426
0.0010636
0.00113083
0.000113124
0.000229121
0.000376308
0.000526593
0.000653576
0.000751547
0.000827402
0.000890038
0.000946548
0.0010021
0.001061
0.00112745
0.000112852
0.000228629
0.000374066
0.000523319
0.00065041
0.000748993
0.000825352
0.000888195
0.000944633
0.00099993
0.0010584
0.00112442
0.000112572
0.000228156
0.00037193
0.000520072
0.000647218
0.000746361
0.000823239
0.000886302
0.000942697
0.000997744
0.00105581
0.00112116
0.000112253
0.000227636
0.000369801
0.000516798
0.000643934
0.000743644
0.000821037
0.000884361
0.000940732
0.000995542
0.00105322
0.00111843
0.000111952
0.000227186
0.000367727
0.000513532
0.000640579
0.000740822
0.000818751
0.000882349
0.000938722
0.000993322
0.00105061
0.00111514
0.000111658
0.00022681
0.000365701
0.000510254
0.000637177
0.000737909
0.000816383
0.000880286
0.000936685
0.000991081
0.00104799
0.00111223
0.000111321
0.000226386
0.000363695
0.000506985
0.000633711
0.000734919
0.000813932
0.000878161
0.000934601
0.000988818
0.00104534
0.00110885
0.000110958
0.000226004
0.000361743
0.000503712
0.000630204
0.000731839
0.000811398
0.000875972
0.000932483
0.000986526
0.00104272
0.00110616
0.000110614
0.000225656
0.000359803
0.000500458
0.000626635
0.00072867
0.000808776
0.00087371
0.00093032
0.000984206
0.00104006
0.00110299
0.000110247
0.000225318
0.000357949
0.000497196
0.000623008
0.000725406
0.000806076
0.000871382
0.000928106
0.000981862
0.00103737
0.00109942
0.000109868
0.000225013
0.000356146
0.000493971
0.000619358
0.000722088
0.000803279
0.000868984
0.000925845
0.000979496
0.00103467
0.00109612
0.000109479
0.000224729
0.00035437
0.000490773
0.000615662
0.000718681
0.000800396
0.000866509
0.000923536
0.000977095
0.00103198
0.00109343
0.000109076
0.000224464
0.000352647
0.000487598
0.000611918
0.0007152
0.000797436
0.000863963
0.000921176
0.000974667
0.00102927
0.00109021
0.000108635
0.000224205
0.000350963
0.000484402
0.000608176
0.00071165
0.000794378
0.000861356
0.000918758
0.000972195
0.00102655
0.0010874
0.000108211
0.000223981
0.000349328
0.00048126
0.000604393
0.000708007
0.000791243
0.000858654
0.00091629
0.000969696
0.0010238
0.00108395
0.000107771
0.000223784
0.000347752
0.000478174
0.000600558
0.000704306
0.000788004
0.000855878
0.000913769
0.000967168
0.00102107
0.00108118
0.000107317
0.000223616
0.000346231
0.00047511
0.000596738
0.000700526
0.000784678
0.00085302
0.000911179
0.000964605
0.00101834
0.00107845
0.000106851
0.000223471
0.000344724
0.000472057
0.000592879
0.000696676
0.000781273
0.000850077
0.000908513
0.000961984
0.00101562
0.00107614
0.000106371
0.000223351
0.000343319
0.000469084
0.000589033
0.000692795
0.000777783
0.000847061
0.000905797
0.000959339
0.00101284
0.0010724
0.000105879
0.000223262
0.000341969
0.00046612
0.000585155
0.000688826
0.000774217
0.000843964
0.000903016
0.00095666
0.00101007
0.00106948
0.000105347
0.000223138
0.000340635
0.000463209
0.000581282
0.000684811
0.000770564
0.00084077
0.000900163
0.000953936
0.00100722
0.00106591
0.000104855
0.000223119
0.00033937
0.000460356
0.000577407
0.000680717
0.000766819
0.000837492
0.000897239
0.000951151
0.00100434
0.00106261
0.000104294
0.000223059
0.00033817
0.000457557
0.00057352
0.000676616
0.000762984
0.000834117
0.000894248
0.000948313
0.00100137
0.00105893
0.000103747
0.000223044
0.000337038
0.000454825
0.000569682
0.000672438
0.000759074
0.000830665
0.000891174
0.000945409
0.00099839
0.00105588
0.000103186
0.000223022
0.000335935
0.000452122
0.00056583
0.000668228
0.00075508
0.000827113
0.000888011
0.000942437
0.000995321
0.0010522
0.000102609
0.000223087
0.000334905
0.000449493
0.000562004
0.000663959
0.000750998
0.000823483
0.000884772
0.000939413
0.000992249
0.00104902
0.00010199
0.00022307
0.000333944
0.000446935
0.000558182
0.000659686
0.00074685
0.000819752
0.000881455
0.000936312
0.000989087
0.00104535
0.000101382
0.000223157
0.000333016
0.000444416
0.000554394
0.000655341
0.000742625
0.000815912
0.000878035
0.000933142
0.000985941
0.00104249
0.00010076
0.000223238
0.000332167
0.000441984
0.000550651
0.000651006
0.000738314
0.000811986
0.000874527
0.000929883
0.000982729
0.00103903
0.000100122
0.000223363
0.000331397
0.000439602
0.000546924
0.000646629
0.000733942
0.000807981
0.000870932
0.000926576
0.000979437
0.00103521
9.94671e-05
0.000223525
0.000330659
0.00043731
0.000543253
0.000642244
0.000729491
0.000803866
0.000867242
0.000923185
0.00097612
0.00103192
9.87964e-05
0.000223679
0.000330006
0.000435111
0.000539609
0.000637829
0.000724984
0.000799662
0.000863447
0.000919705
0.000972773
0.00102883
9.8082e-05
0.000223818
0.000329394
0.000432973
0.000536028
0.000633396
0.000720418
0.000795353
0.000859555
0.00091615
0.000969361
0.00102511
9.73759e-05
0.00022402
0.000328866
0.000430898
0.000532485
0.000628977
0.000715779
0.000790962
0.000855571
0.000912505
0.000965893
0.00102166
9.66249e-05
0.000224202
0.000328379
0.000428934
0.000529027
0.000624576
0.000711075
0.000786464
0.000851471
0.000908765
0.000962293
0.00101764
9.58806e-05
0.000224454
0.000327992
0.000427081
0.000525624
0.00062017
0.000706332
0.000781866
0.000847259
0.000904919
0.000958596
0.0010135
9.5149e-05
0.000224781
0.000327654
0.000425272
0.00052231
0.000615771
0.00070153
0.000777192
0.000842949
0.000900972
0.000954841
0.00100976
9.43454e-05
0.000225027
0.000327375
0.00042362
0.000519066
0.000611411
0.000696685
0.000772435
0.000838522
0.000896913
0.000950937
0.00100556
9.35423e-05
0.000225346
0.000327194
0.000422016
0.000515895
0.000607073
0.000691819
0.00076756
0.000833977
0.000892743
0.000947006
0.00100193
9.27228e-05
0.000225722
0.000327068
0.000420543
0.000512844
0.000602791
0.000686915
0.000762621
0.000829333
0.000888464
0.000942977
0.000997718
9.18552e-05
0.000226038
0.000327041
0.00041917
0.000509875
0.000598523
0.000682001
0.000757596
0.000824576
0.000884101
0.000938883
0.000993425
9.09893e-05
0.000226439
0.000327086
0.000417936
0.000507008
0.000594328
0.000677039
0.000752497
0.000819691
0.000879575
0.000934612
0.000989555
9.01047e-05
0.0002269
0.000327153
0.00041677
0.000504248
0.000590193
0.000672085
0.000747287
0.000814669
0.000874897
0.000930203
0.000985017
8.91982e-05
0.00022733
0.000327386
0.000415765
0.000501645
0.000586158
0.000667131
0.000742031
0.000809554
0.000870117
0.00092573
0.000980884
8.8267e-05
0.000227839
0.000327652
0.000414887
0.000499166
0.000582185
0.000662211
0.000736715
0.000804317
0.000865174
0.000921074
0.000976092
8.72835e-05
0.000228297
0.000328045
0.000414172
0.000496834
0.000578342
0.00065729
0.000731339
0.000798958
0.000860132
0.000916369
0.000971703
8.62689e-05
0.000228826
0.000328473
0.000413556
0.000494654
0.000574614
0.000652442
0.000725947
0.00079352
0.000854946
0.000911512
0.000966787
8.52845e-05
0.000229467
0.000329048
0.000413121
0.000492644
0.000571012
0.000647619
0.000720499
0.000787995
0.00084965
0.000906525
0.000961757
8.42566e-05
0.000230077
0.000329713
0.000412816
0.000490841
0.000567564
0.000642893
0.000715031
0.000782335
0.000844162
0.00090126
0.000956739
8.31662e-05
0.000230704
0.000330479
0.000412708
0.0004892
0.000564285
0.000638261
0.000709579
0.000776588
0.00083853
0.000895876
0.000951314
8.20403e-05
0.000231358
0.000331349
0.000412769
0.000487775
0.000561199
0.000633743
0.000704124
0.000770776
0.000832786
0.000890412
0.000946331
8.09395e-05
0.000232144
0.000332329
0.000412992
0.000486605
0.000558323
0.000629349
0.000698726
0.00076489
0.000826865
0.000884678
0.000940361
7.97645e-05
0.000232883
0.000333431
0.000413444
0.000485653
0.00055569
0.000625151
0.00069337
0.000758959
0.000820833
0.000878768
0.0009345
7.85431e-05
0.000233661
0.000334659
0.000414111
0.000484999
0.000553331
0.000621159
0.000688131
0.000753003
0.000814662
0.000872634
0.000928104
7.73406e-05
0.000234573
0.000336015
0.00041497
0.000484609
0.000551266
0.000617383
0.000682998
0.000747054
0.00080839
0.000866332
0.000921656
7.60595e-05
0.000235442
0.000337518
0.000416104
0.000484544
0.000549541
0.00061391
0.000678038
0.000741126
0.000802001
0.000859832
0.000914879
7.47512e-05
0.000236372
0.000339162
0.000417471
0.000484832
0.000548181
0.000610728
0.000673274
0.000735231
0.000795506
0.000853168
0.000908502
7.33786e-05
0.000237312
0.00034094
0.000419157
0.000485497
0.000547218
0.000607924
0.000668733
0.000729375
0.000788898
0.000846237
0.000901242
7.19763e-05
0.000238302
0.000342931
0.000421134
0.000486588
0.000546722
0.000605488
0.000664447
0.000723614
0.000782214
0.00083914
0.000894143
7.04973e-05
0.000239244
0.000345081
0.000423458
0.000488097
0.000546654
0.000603431
0.000660415
0.000717958
0.000775427
0.000831766
0.000886255
6.89695e-05
0.000240236
0.00034741
0.00042609
0.000490012
0.000547012
0.000601761
0.000656627
0.000712333
0.000768493
0.000824052
0.00087828
6.73697e-05
0.000241102
0.000349837
0.000429043
0.000492262
0.000547727
0.000600459
0.000653197
0.00070692
0.000761528
0.000816111
0.00087019
6.54102e-05
0.000240145
0.000350265
0.000430888
0.0004934
0.000547678
0.000598629
0.000649556
0.000701321
0.000754749
0.000808189
0.000861712
0.000477631
0.00154683
0.0016415
0.0018833
0.00188492
0.000625883
0.000613852
0.000464323
0.00137612
0.00206055
0.00381323
0.00201919
0.00424158
0.00142695
0.000567031
0.00133218
0.00149822
0.00504314
0.00502784
0.00131829
0.000731049
0.0004927
0.00739145
0.00354944
0.000478406
0.0016435
0.000573857
0.000779518
0.00194354
0.00122973
0.00178259
0.000336195
0.00146245
0.00377778
0.00412587
0.00106552
0.00015462
0.0015719
0.000467562
0.00207227
0.00186933
0.00129258
0.00387015
0.00106134
0.000274024
0.00049476
0.00578656
0.00374702
0.000277095
0.000735476
0.00106633
0.000466839
0.000338032
0.00124158
0.00165002
0.00150681
0.0023891
0.00129193
0.00157225
0.000564845
0.000622534
0.000337195
0.00124141
0.00286705
0.00424899
0.00152312
0.000936379
0.000318482
0.0006569
0.00227763
0.00172231
0.00532167
0.000465862
0.00110076
0.00357808
0.00127029
0.00138913
0.00123815
0.00560979
0.000466716
0.00456074
0.00123973
0.000196634
0.000382633
0.00285224
0.00160584
0.000937873
0.00124135
0.00264802
0.000197734
0.00057706
0.00147256
0.00124139
0.00140645
0.000350382
0.00127365
0.000778012
0.00163165
0.00124229
0.000946918
0.000765411
0.00324355
0.00128879
0.00148709
0.00123884
0.000350444
0.000356994
0.000422456
0.00132743
0.000249011
0.00152403
0.00123993
0.000445645
0.00136814
0.00124078
0.00052131
0.00316047
0.00225872
0.00155345
0.00429897
0.000786573
0.00378461
0.00147426
0.00360584
0.00443922
0.00281829
0.00141303
0.000260771
0.00404272
0.00124136
3.92604e-05
0.00124223
5.60442e-05
0.00148728
0.000568738
0.00163242
0.000172468
0.00241992
0.000447292
0.00175204
0.00297186
0.000688436
0.000461393
0.000452976
8.77519e-05
0.00163226
0.000466251
0.00152495
0.00141032
0.000579269
0.000631013
0.000514634
0.0012418
0.00445312
0.00357718
0.00124362
0.000443128
0.00126919
0.00165585
0.00192959
0.00368904
0.00133707
0.00452643
0.00261239
0.000775088
0.00335999
0.000277183
0.000253947
0.000547991
0.0012374
0.00156015
0.00109331
0.00164574
0.00304982
0.00123866
0.00160591
0.00123854
0.000411622
0.00236991
0.00134201
0.000277213
0.00524987
0.00426958
0.000470471
0.00129841
0.000461957
0.00125536
0.00124028
9.18967e-05
0.00124087
0.00232211
0.001245
0.000396104
0.00156056
0.000450186
0.000557828
0.000612009
0.000538696
0.00123982
0.00221416
0.00146682
0.00046142
0.000281456
0.000463178
0.000472616
0.00697686
0.00416404
0.0031728
0.00113405
0.00271707
5.35156e-05
0.00138616
0.000468361
0.000412799
0.00123977
0.00046824
0.00251429
0.00146761
0.00222999
0.00018983
0.000385299
0.00146496
0.000420425
0.00124826
0.00125143
0.00277331
0.00160214
0.00126904
0.00107198
0.00413827
5.2477e-05
0.00445563
0.00124159
0.000907435
0.00150163
0.000474634
0.000464788
0.0014861
0.00111803
0.000455827
0.00424691
0.00595263
0.00434361
0.00268291
6.46243e-05
5.38267e-05
5.64279e-05
0.001321
0.00390613
0.000466594
0.00221534
0.00110233
0.00233166
0.000350482
0.00023185
0.00283618
0.000989161
0.000452968
0.0020741
0.000427088
0.00271418
0.00047305
0.00294757
0.00416274
7.28834e-05
0.000469317
0.00131023
0.000477137
0.00146528
0.00121712
0.000695089
0.00526216
0.0013854
4.49102e-05
4.5676e-05
0.00139017
0.000175644
5.76236e-05
0.000281531
0.000137115
0.000377628
0.000172891
0.000466165
0.000471052
0.00134399
0.000609936
0.00161863
4.73284e-05
0.0013139
0.000762922
0.000136534
0.00146625
4.63308e-05
4.60207e-05
0.000445245
0.000397743
0.00190276
4.48805e-05
0.00586007
0.000380885
0.000461403
0.000994824
0.000499031
0.00177756
0.00376483
0.0015161
0.000286032
0.00124093
0.00528853
0.00475324
0.00566186
0.00018424
0.0012456
0.0012932
0.0004606
0.00434302
4.91545e-05
0.00121456
0.0012398
8.29447e-05
0.00463796
0.00208212
0.00149695
0.000236517
0.000453413
0.0012139
0.00141584
0.00124132
0.00125526
0.000182927
0.00133377
0.00124748
0.0021782
0.0012417
0.00125457
0.00126456
0.00123871
0.00764796
0.00124194
0.00173197
0.000788624
0.000473672
0.00124211
0.000528246
0.0022961
4.55399e-05
5.33956e-05
0.00164928
0.00140466
0.00138219
0.00123749
0.00126828
0.00634818
0.00228184
4.08552e-05
0.00123871
0.00493687
0.000366202
0.0013483
0.00236133
0.000102548
0.000267044
0.00132945
0.00148967
0.000856954
0.00191846
0.00135659
0.00124134
0.00141441
0.00145332
0.00501593
9.62803e-05
0.000453601
0.000134142
0.00147808
0.000632282
0.000463716
0.00140275
0.00125299
0.00177548
0.00102561
0.00165107
0.00126005
0.000469777
0.000349579
0.000599698
0.00124573
0.00431294
0.000542479
0.00379981
0.00126072
0.00117565
0.00191941
0.000393465
0.000445492
0.00137527
0.00142176
0.00124395
0.00300006
0.00141625
0.00185329
0.00237675
0.000899233
0.00217974
0.00393167
0.000168741
0.001396
0.00147173
6.47265e-05
0.000422419
0.00124076
0.00124943
0.00124196
0.00129658
0.00607655
0.000455015
0.000128266
0.000538596
0.000528143
0.00125603
0.000246695
0.000467813
0.00123811
0.00124764
0.00045655
0.00124636
0.00271301
0.00137136
0.000449708
0.00123756
0.00197642
0.00424355
0.00506072
0.000460697
0.0046405
0.00123831
0.00124227
0.00116354
0.00132623
0.00253752
0.000289138
4.03098e-05
0.00194496
0.000458306
0.00190518
0.000988465
0.00132736
0.000443233
0.00154548
0.00123901
0.0019819
0.000460672
5.42864e-05
0.00221356
0.0019919
0.000692267
0.00163568
4.75738e-05
0.000423027
0.00443696
0.000525101
0.00342175
0.00498931
0.00245746
0.00132433
0.00130102
0.00176563
0.000694547
0.0005748
5.90292e-05
0.00359495
0.000281978
9.54026e-05
0.00123922
0.00179122
0.00133628
0.000443641
0.00123871
0.000327215
0.000883898
0.000386991
0.00020313
0.000468798
0.00245077
0.00442172
9.39895e-05
5.01921e-05
0.00134098
0.00311195
0.001248
0.00420532
0.000908904
0.000318351
0.00138311
0.0042493
0.00015788
0.00107379
0.00116554
0.000470247
0.000224121
0.00122931
0.000480817
0.000311419
0.00127064
0.00345095
0.000401069
0.00070763
0.00137072
0.000190144
0.00185895
0.000449846
0.00127827
0.000947105
0.00336596
0.00124133
0.000663545
4.1197e-05
0.00125051
0.00150217
0.00216055
0.00428606
0.00146711
0.0012721
0.000466443
0.00124136
0.000293015
0.00149699
4.44023e-05
9.39216e-05
0.00186648
4.71798e-05
0.00081698
0.00125197
0.00159295
0.0012688
0.00405323
0.00134904
0.000379064
0.00044775
0.00193736
0.00134524
0.00369415
0.0017809
0.00262977
0.00173349
0.00123896
0.00466702
0.00123871
0.00572598
0.000559734
0.00452922
0.000975804
0.000650475
0.000434112
0.00489952
0.00318962
0.000456656
6.86762e-05
0.0012414
0.00124143
0.00108772
0.000717457
0.000388964
0.00243685
0.00535644
0.00129777
0.000328143
0.00123742
0.0042099
0.000473567
0.00158209
0.00127894
0.000492958
0.00010394
0.000388857
0.00259337
0.00123875
0.00341862
0.00124288
0.00139931
0.00296274
0.000369115
0.00159857
0.00125422
0.00141094
0.00589997
0.000418659
0.000920048
0.00139161
0.00022084
0.00423708
0.00124154
0.00057175
8.15559e-05
0.000458923
0.00328205
0.00123741
0.00146021
0.00130132
0.000464645
0.00124777
0.000729027
0.00105033
0.00127782
0.00179153
0.000396853
0.00137054
0.000986921
0.0011733
0.00134804
0.000761295
0.00490607
0.00338389
0.00123903
0.00124142
0.0015977
0.000460249
0.000472
0.000461586
0.00158543
0.000768073
0.00393657
0.00118919
0.000470769
0.0013983
0.00250059
0.000326108
0.00123753
0.00209975
0.000280576
0.000277414
0.00126719
0.00124626
6.87968e-05
0.00018491
0.00133135
0.00397785
0.000822724
0.000414273
0.00125256
3.52957e-05
0.000691033
0.000703602
0.00168527
0.0010468
0.000862805
0.00141283
0.00128688
0.000450126
0.000132834
0.00126266
0.001242
0.00141234
0.00116849
0.00156354
0.00123993
0.00215139
0.00124132
0.00117501
0.000499979
0.00486262
0.00124663
0.00147285
0.000624767
0.000356309
0.00199832
0.000194866
0.00743594
0.000805191
0.00137205
0.00124096
0.00309959
0.00140926
0.000230108
0.0015371
0.00175615
0.00239151
0.0022736
0.000133185
0.00123984
0.000777818
0.00117698
0.000458745
0.00128732
0.00491294
0.000365932
0.000311559
0.00187604
0.00520516
0.00154571
0.000466015
0.00255197
0.000467528
0.00124066
0.00198424
0.00130401
0.00123736
0.000104209
0.00124154
4.68266e-05
0.00230003
0.00110973
0.00127198
0.00119183
0.000422913
0.00183843
0.00151095
0.00129926
0.00620672
0.00223156
0.00281352
0.00505677
0.00159934
0.00123916
0.00124153
0.000465743
0.005719
5.87673e-05
0.000530497
0.00127956
4.63517e-05
4.06658e-05
4.47439e-05
0.00302807
0.000696126
3.75985e-05
0.00124133
0.000133
0.000125625
0.000464725
0.0012423
0.00242384
0.00144262
0.000112576
0.00124314
0.00165926
0.00123911
0.00522692
0.00223498
0.00132999
0.000452508
0.00123978
0.00449218
0.000418492
0.00124246
0.00142681
0.00124071
0.00138463
0.00308404
0.0012838
0.00113348
0.00256241
0.000463322
0.00124019
0.00107004
0.00124199
0.000615932
0.00267119
0.0035042
0.000517389
0.00277028
0.00161246
0.00125876
0.000157499
0.0010083
0.00117855
5.34049e-05
0.000499195
0.00123809
0.000129263
0.000601879
0.000756521
0.0010253
0.00121075
0.00139712
0.00047639
0.00434704
0.00124026
0.00363681
0.00143454
0.00350375
0.000133477
0.000766065
0.00125488
0.000220293
0.000385899
0.00137356
0.00188341
0.00130931
0.000608739
0.00099247
0.00119473
0.00413348
0.00173555
0.000293883
0.000185919
0.00428806
0.000152867
0.00124855
5.08506e-05
0.0015882
0.00127988
0.00146929
0.00113014
0.00102277
0.00612255
0.00135209
0.00324188
0.00292187
0.00140579
0.00289151
0.002736
0.00124195
0.00150667
0.00470104
4.41384e-05
0.000470041
4.463e-05
0.000723924
0.00189322
0.0010892
0.00124071
0.00124168
0.000444011
0.00663039
0.00134062
0.00156295
0.00123761
0.00160992
0.00252653
0.00514451
0.00130619
0.00160464
0.00146685
0.00209103
0.00136171
0.00549662
0.000391467
0.000543124
0.00124068
0.000542108
0.00145142
0.00168636
0.00217163
4.80265e-05
0.00364359
0.00212285
0.000676694
0.00402912
0.00242831
0.00396715
0.00566287
0.00130185
3.94154e-05
0.00124135
0.00129347
0.000441248
0.00281389
0.00270459
0.00108822
0.000430429
0.00124163
0.00124152
0.00148221
0.000129606
0.00138072
0.0012381
0.00134088
0.0027249
0.000465622
0.00137867
5.29861e-05
0.00116576
0.00166898
0.000366216
0.00125657
0.00130749
0.000124612
0.00037881
0.000154018
0.00124388
0.00123962
0.00109338
0.00161136
0.00236023
0.00127086
0.00124034
0.00425441
0.00126164
0.00181648
0.00304252
0.00558829
0.00243871
0.00153037
0.000438038
5.52299e-05
0.000461202
0.00200699
0.00124289
0.000283303
0.00127271
0.00026269
0.00124124
0.00181406
0.00125767
0.00124113