/*--------------------------------*- C++ -*----------------------------------*\
| =========                 |                                                 |
| \\      /  F ield         | OpenFOAM: The Open Source CFD Toolbox           |
|  \\    /   O peration     | Version:  2.3.1                                 |
|   \\  /    A nd           | Web:      www.OpenFOAM.org                      |
|    \\/     M anipulation  |                                                 |
\*---------------------------------------------------------------------------*/
FoamFile
{
    version     2.0;
    format      ascii;
    class       volScalarField;
    location    "0.57";
    object      p;
}
// * * * * * * * * * * * * * * * * * * * * * * * * * * * * * * * * * * * * * //

dimensions      [0 2 -2 0 0 0 0];

internalField   nonuniform List<scalar> 
15166
(
-17.2949
-22.3219
-25.0929
-27.3026
-29.1809
-30.7787
-32.2114
-33.4692
-34.5567
-35.364
-36.1066
-36.68
-22.0137
-24.5262
-25.8861
-27.5531
-29.1265
-30.5519
-31.8563
-33.0353
-34.0674
-34.897
-35.6387
-36.2323
-27.2014
-28.09
-28.3638
-29.2993
-30.297
-31.3121
-32.3109
-33.2428
-34.0919
-34.8177
-35.4631
-36.0008
-30.1775
-30.5901
-30.584
-31.145
-31.7362
-32.4045
-33.1085
-33.7958
-34.4461
-35.0248
-35.5443
-35.9732
-32.0456
-32.3009
-32.2751
-32.6753
-33.0521
-33.5061
-33.9997
-34.4967
-34.9791
-35.4207
-35.8238
-36.1729
-33.6939
-33.8138
-33.7565
-34.0313
-34.2672
-34.5759
-34.9167
-35.2663
-35.6117
-35.934
-36.2305
-36.4929
-35.2844
-35.285
-35.1783
-35.3318
-35.4491
-35.6364
-35.8505
-36.0767
-36.3046
-36.5194
-36.7146
-36.8772
-36.7578
-36.6706
-36.5263
-36.579
-36.599
-36.6825
-36.7885
-36.9088
-37.0345
-37.1547
-37.2628
-37.3495
-38.0953
-37.9422
-37.7746
-37.7503
-37.6957
-37.6952
-37.712
-37.7434
-37.7822
-37.8207
-37.8533
-37.8707
-39.318
-39.1116
-38.9282
-38.8435
-38.7316
-38.6636
-38.6081
-38.566
-38.5318
-38.5001
-38.4647
-38.4176
-40.4474
-40.1977
-40.0021
-39.8679
-39.7101
-39.5868
-39.4719
-39.3684
-39.2725
-39.1811
-39.0892
-38.9785
-41.5012
-41.2142
-41.0082
-40.8321
-40.6362
-40.4665
-40.3018
-40.1467
-39.9984
-39.8558
-39.7185
-39.5752
-42.4862
-42.1682
-41.9536
-41.7415
-41.5138
-41.3045
-41.0976
-40.8983
-40.7048
-40.5168
-40.3352
-40.1606
-43.4104
-43.0653
-42.8434
-42.6007
-42.3459
-42.1028
-41.8596
-41.6217
-41.3877
-41.1561
-40.9184
-40.6616
-44.2797
-43.9115
-43.6831
-43.4138
-43.1356
-42.8635
-42.5893
-42.3186
-42.0512
-41.7896
-41.5366
-41.2736
-45.0996
-44.7109
-44.4769
-44.1844
-43.8863
-43.5891
-43.2884
-42.9898
-42.6935
-42.4015
-42.1188
-41.8424
-45.8742
-45.4679
-45.2287
-44.916
-44.6003
-44.281
-43.9572
-43.6338
-43.3119
-42.9925
-42.6787
-42.3768
-46.6084
-46.1858
-45.9415
-45.6106
-45.2795
-44.9408
-44.5967
-44.2518
-43.9078
-43.5658
-43.2272
-42.8984
-47.304
-46.8672
-46.6182
-46.2713
-45.9266
-45.5708
-45.2087
-44.8447
-44.4811
-44.1201
-43.7632
-43.414
-47.9644
-47.5147
-47.2614
-46.8998
-46.5428
-46.1716
-45.7936
-45.4125
-45.0313
-44.6525
-44.2793
-43.9197
-48.5917
-48.1303
-47.8728
-47.4983
-47.1301
-46.7451
-46.3524
-45.9558
-45.5582
-45.1618
-44.7695
-44.3923
-49.1874
-48.7158
-48.4547
-48.0681
-47.6898
-47.2922
-46.8865
-46.4757
-46.0629
-45.65
-45.2368
-44.8313
-49.7568
-49.274
-49.0085
-48.611
-48.2236
-47.8147
-47.3972
-46.9738
-46.5482
-46.1231
-45.6996
-45.2837
-50.2972
-49.8044
-49.5356
-49.1283
-48.7325
-48.3134
-47.8853
-47.4509
-47.0139
-46.5771
-46.1408
-45.7061
-50.8053
-50.3077
-50.0367
-49.6206
-49.2173
-48.7892
-48.3518
-47.9073
-47.4599
-47.0124
-46.5661
-46.12
-51.2949
-50.7884
-50.5138
-50.0894
-49.6794
-49.2431
-48.7972
-48.3436
-47.8867
-47.4294
-46.9729
-46.5146
-51.7598
-51.2455
-50.9682
-50.536
-50.1197
-49.6757
-49.222
-48.7602
-48.2949
-47.8297
-47.3675
-46.9031
-52.2021
-51.6797
-51.4
-50.9608
-50.5387
-50.0878
-49.6269
-49.1576
-48.6843
-48.21
-47.7376
-47.2687
-52.6176
-52.0915
-51.8103
-51.3643
-50.9371
-50.4798
-50.0125
-49.5362
-49.0555
-48.5731
-48.0899
-47.6022
-53.014
-52.4822
-52.1998
-51.7476
-51.3156
-50.8528
-50.3795
-49.8969
-49.4098
-48.9211
-48.4335
-47.9398
-53.3905
-52.8551
-52.5697
-52.1114
-51.6751
-51.2069
-50.7283
-50.24
-49.7469
-49.2522
-48.7584
-48.2581
-53.7508
-53.2098
-52.9209
-52.4564
-52.0157
-51.5425
-51.0589
-50.5655
-50.067
-49.5666
-49.0684
-48.5668
-54.0814
-53.5421
-53.2515
-52.7818
-52.3374
-51.8598
-51.3718
-50.8736
-50.37
-49.8638
-49.358
-48.8483
-54.4012
-53.8573
-53.563
-53.0888
-52.6411
-52.1595
-51.6675
-51.165
-50.6572
-50.1468
-49.6378
-49.128
-54.7017
-54.1533
-53.8571
-53.378
-52.9272
-52.4419
-51.9463
-51.4401
-50.9286
-50.4148
-49.9017
-49.3866
-54.9795
-54.4303
-54.1332
-53.6498
-53.1961
-52.7072
-52.2081
-51.6984
-51.1835
-50.6669
-50.1532
-49.6395
-55.2414
-54.6898
-54.3922
-53.9041
-53.4477
-52.9555
-52.4531
-51.9398
-51.421
-50.8994
-50.379
-49.8645
-55.4911
-54.9333
-54.6345
-54.1415
-53.6826
-53.187
-52.6813
-52.1644
-51.6416
-51.1149
-50.5847
-50.0484
-55.714
-55.1572
-54.8596
-54.3618
-53.9008
-53.4023
-52.8936
-52.3735
-51.8474
-51.3176
-50.7833
-50.224
-55.9288
-55.3656
-55.0684
-54.5652
-54.1024
-53.6014
-53.0905
-52.5683
-52.0404
-51.5114
-50.9901
-50.4646
-56.1206
-55.5561
-55.26
-54.7517
-54.288
-53.7847
-53.2717
-52.7473
-52.2167
-51.6819
-51.1464
-50.6107
-56.2973
-55.7329
-55.4338
-54.9212
-54.4573
-53.952
-53.437
-52.9104
-52.3777
-51.8412
-51.3049
-50.7625
-56.4625
-55.8945
-55.5919
-55.0752
-54.6112
-54.1038
-53.587
-53.0586
-52.524
-51.986
-51.4482
-50.9008
-56.6024
-56.0381
-55.7356
-55.2124
-54.7499
-54.2405
-53.7221
-53.192
-52.6557
-52.116
-51.5782
-51.0372
-56.7342
-56.1667
-55.8619
-55.3355
-54.8743
-54.3622
-53.8422
-53.3104
-52.7724
-52.2306
-51.6889
-51.1427
-56.8435
-56.2773
-55.9707
-55.4438
-54.9848
-54.4685
-53.9471
-53.414
-52.8747
-52.3321
-51.7921
-51.2582
-56.9392
-56.3736
-56.0633
-55.5394
-55.0789
-54.5579
-54.0368
-53.5026
-52.9619
-52.4171
-51.871
-51.3263
-57.0176
-56.4563
-56.1381
-55.6213
-55.1519
-54.6345
-54.1123
-53.5766
-53.0349
-52.4895
-51.9448
-51.4087
-57.0837
-56.5231
-56.1998
-55.6868
-55.2131
-54.6961
-54.1728
-53.6362
-53.0935
-52.547
-51.999
-51.4534
-57.1335
-56.575
-56.2469
-55.7355
-55.2603
-54.7432
-54.2187
-53.6814
-53.1379
-52.5908
-52.0438
-51.5061
-57.1639
-56.609
-56.2796
-55.769
-55.2924
-54.7753
-54.2501
-53.7121
-53.1677
-52.6189
-52.0664
-51.5132
-57.1834
-56.629
-56.298
-55.7881
-55.3103
-54.7932
-54.2676
-53.7294
-53.1845
-52.6353
-52.0824
-51.5208
-57.1865
-56.6335
-56.3016
-55.7918
-55.3136
-54.7969
-54.2713
-53.7334
-53.1894
-52.6424
-52.0971
-51.5501
-57.1706
-56.6229
-56.2902
-55.7811
-55.3024
-54.7861
-54.2608
-53.7233
-53.1797
-52.6324
-52.0852
-51.5333
-57.1436
-56.5985
-56.2641
-55.7557
-55.2769
-54.7609
-54.2358
-53.6986
-53.1549
-52.607
-52.0597
-51.5148
-57.1008
-56.5589
-56.2234
-55.7157
-55.2369
-54.7215
-54.1967
-53.6598
-53.1163
-52.5682
-52.0184
-51.4665
-57.0479
-56.5041
-56.168
-55.6613
-55.1826
-54.6679
-54.1437
-53.6076
-53.065
-52.5181
-51.971
-51.4293
-56.9706
-56.4345
-56.0981
-55.5924
-55.114
-54.6002
-54.0769
-53.5419
-53.0004
-52.4546
-51.9058
-51.3482
-56.8879
-56.3501
-56.0134
-55.5091
-55.0313
-54.5184
-53.9961
-53.4625
-52.9229
-52.3806
-51.8437
-51.3222
-56.7841
-56.2503
-55.9139
-55.4108
-54.9337
-54.4221
-53.901
-53.3685
-52.8297
-52.2865
-51.7418
-51.2046
-56.6663
-56.1362
-55.8002
-55.2986
-54.8222
-54.3115
-53.7911
-53.2593
-52.7208
-52.1777
-51.6312
-51.0866
-56.5385
-56.0102
-55.6731
-55.1725
-54.6967
-54.1871
-53.6677
-53.1368
-52.5991
-52.0569
-51.5113
-50.9587
-56.3952
-55.8678
-55.5312
-55.0319
-54.5571
-54.0488
-53.5309
-53.0016
-52.4656
-51.9258
-51.3864
-50.8515
-56.2329
-55.7099
-55.3744
-54.8772
-54.4035
-53.8968
-53.3805
-52.853
-52.3188
-51.7802
-51.2387
-50.6929
-56.0586
-55.538
-55.2032
-54.7079
-54.2358
-53.731
-53.2165
-52.6911
-52.1591
-51.6233
-51.0877
-50.5549
-55.868
-55.3519
-55.0181
-54.5248
-54.0542
-53.5512
-53.0387
-52.5154
-51.9855
-51.4517
-50.9163
-50.3776
-55.6644
-55.1527
-54.8192
-54.3277
-53.8586
-53.3575
-52.8472
-52.326
-51.7983
-51.2673
-50.7373
-50.2156
-55.4528
-54.9393
-54.6058
-54.1164
-53.649
-53.1499
-52.6415
-52.1226
-51.597
-51.0671
-50.5349
-50.0039
-55.2137
-54.7082
-54.3772
-53.8906
-53.4251
-52.9284
-52.4222
-51.9056
-51.3826
-50.8556
-50.3291
-49.8177
-54.9659
-54.4643
-54.1347
-53.6505
-53.1871
-52.6927
-52.1891
-51.6747
-51.1543
-50.6296
-50.1024
-49.5827
-54.706
-54.208
-53.8787
-53.397
-52.9354
-52.4432
-51.9422
-51.4304
-50.9126
-50.3907
-49.8681
-49.3655
-54.432
-53.9359
-53.6084
-53.1295
-52.6701
-52.1801
-51.6813
-51.1723
-50.6568
-50.1367
-49.6121
-49.0925
-54.1441
-53.6514
-53.3239
-52.8475
-52.3905
-51.9033
-51.4072
-50.9008
-50.3878
-49.8708
-49.3497
-48.835
-53.8344
-53.3489
-53.0249
-52.5521
-52.0975
-51.6133
-51.1201
-50.6168
-50.1073
-49.5945
-49.0804
-48.5781
-53.5128
-53.0328
-52.7113
-52.2419
-51.7902
-51.3092
-50.8192
-50.3193
-49.8132
-49.3032
-48.7897
-48.2799
-53.1856
-52.7076
-52.3858
-51.9188
-51.4695
-50.9917
-50.5049
-50.0083
-49.5058
-49
-48.4939
-48.0031
-52.8387
-52.3654
-52.0455
-51.582
-51.1356
-50.6605
-50.1771
-49.684
-49.1847
-48.6814
-48.1739
-47.6691
-52.4777
-52.0074
-51.6903
-51.2306
-50.7874
-50.3157
-49.8355
-49.3461
-48.8506
-48.352
-47.8522
-47.3684
-52.1012
-51.6367
-51.3213
-50.8652
-50.4251
-49.9569
-49.4806
-48.9948
-48.5033
-48.0085
-47.5102
-47.014
-51.7066
-51.2495
-50.9374
-50.4856
-50.0489
-49.5844
-49.1118
-48.6298
-48.1428
-47.6527
-47.1636
-46.6924
-51.303
-50.8502
-50.5401
-50.0924
-49.659
-49.1984
-48.7294
-48.2511
-47.7676
-47.2802
-46.7888
-46.3098
-50.8864
-50.4376
-50.1298
-49.6858
-49.256
-48.799
-48.3336
-47.8591
-47.379
-46.8946
-46.404
-45.9145
-50.4543
-50.0103
-49.7046
-49.2652
-48.839
-48.3862
-47.9249
-47.455
-46.9798
-46.5016
-46.0212
-45.5447
-50.0066
-49.5682
-49.2655
-48.8307
-48.4085
-47.9601
-47.5035
-47.0387
-46.569
-46.0973
-45.6272
-45.1735
-49.5439
-49.1116
-48.8121
-48.3822
-47.9642
-47.5203
-47.0683
-46.6082
-46.1429
-45.6744
-45.2025
-44.7361
-49.0656
-48.6414
-48.3453
-47.9201
-47.5063
-47.0667
-46.6192
-46.1639
-45.7034
-45.24
-44.776
-44.3322
-48.5819
-48.1595
-47.865
-47.4448
-47.0349
-46.5999
-46.1571
-45.7063
-45.2508
-44.7918
-44.328
-43.8623
-48.0781
-47.6618
-47.3704
-46.9554
-46.55
-46.1199
-45.6819
-45.2364
-44.7864
-44.3345
-43.8837
-43.4501
-47.5585
-47.1488
-46.8611
-46.4516
-46.0512
-45.6263
-45.1937
-44.7537
-44.309
-43.8627
-43.417
-42.9955
-47.0249
-46.6223
-46.3385
-45.9345
-45.539
-45.1193
-44.6919
-44.2571
-43.8174
-43.375
-42.9308
-42.5116
-46.4786
-46.0819
-45.8016
-45.4033
-45.0128
-44.5987
-44.1768
-43.7471
-43.3126
-42.8744
-42.4282
-41.9834
-45.9188
-45.5283
-45.2516
-44.8592
-44.4739
-44.0654
-43.6494
-43.2261
-42.7993
-42.3718
-41.9475
-41.5597
-45.3464
-44.9625
-44.6887
-44.302
-43.9217
-43.519
-43.1091
-42.6922
-42.2717
-41.8499
-41.4234
-41.0082
-44.7614
-44.3815
-44.1115
-43.7309
-43.3562
-42.9594
-42.5552
-42.1443
-41.7299
-41.3132
-40.8941
-40.4979
-44.1558
-43.7857
-43.5204
-43.146
-42.7768
-42.3861
-41.9881
-41.5837
-41.1756
-40.7657
-40.3516
-39.9424
-43.5448
-43.1783
-42.9156
-42.5472
-42.184
-41.7996
-41.4082
-41.0109
-40.6102
-40.2085
-39.8084
-39.4332
-42.9185
-42.5572
-42.2979
-41.9354
-41.5779
-41.2
-40.8156
-40.4253
-40.0311
-39.6351
-39.2346
-38.8361
-42.2678
-41.9175
-41.6646
-41.3094
-40.9584
-40.5876
-40.2098
-39.8268
-39.4401
-39.0522
-38.6646
-38.3007
-41.6147
-41.2691
-41.0189
-40.6702
-40.3256
-39.9618
-39.5915
-39.2156
-38.8368
-38.4565
-38.0733
-37.6939
-40.944
-40.606
-40.3603
-40.0183
-39.6805
-39.3235
-38.9605
-38.5924
-38.2213
-37.8496
-37.4807
-37.137
-40.2625
-39.9298
-39.6879
-39.3528
-39.0214
-38.6719
-38.3162
-37.9559
-37.5925
-37.2266
-36.8566
-36.4988
-39.5619
-39.2381
-39.0017
-38.6743
-38.3498
-38.0075
-37.6596
-37.3071
-36.9519
-36.5952
-36.2349
-35.8834
-38.8497
-38.5337
-38.3025
-37.9829
-37.6653
-37.3311
-36.9916
-36.6478
-36.302
-35.9568
-35.6139
-35.2865
-38.1299
-37.8186
-37.5913
-37.2792
-36.9689
-36.6426
-36.3115
-35.9764
-35.6396
-35.3028
-34.9672
-34.6529
-37.393
-37.0902
-36.8679
-36.563
-36.2604
-35.942
-35.6191
-35.2925
-34.9641
-34.6345
-34.3018
-33.9778
-36.6446
-36.3482
-36.131
-35.8345
-35.5395
-35.2295
-34.9148
-34.5973
-34.2786
-33.9601
-33.6438
-33.3552
-35.881
-35.5936
-35.3814
-35.0931
-34.806
-34.5049
-34.1992
-33.891
-33.5813
-33.2715
-32.9583
-32.6499
-35.1084
-34.8268
-34.6191
-34.3392
-34.0607
-33.7684
-33.4724
-33.1739
-32.8741
-32.5747
-32.2748
-31.989
-34.3222
-34.0468
-33.8449
-33.5737
-33.3036
-33.0208
-32.7345
-32.4465
-32.1578
-31.8708
-31.5863
-31.3221
-33.5202
-33.2544
-33.0582
-32.7958
-32.5345
-32.2618
-31.9857
-31.7081
-31.4302
-31.1533
-30.8747
-30.6018
-32.7092
-32.4505
-32.2601
-32.0068
-31.7547
-31.492
-31.2267
-30.9599
-30.6935
-30.4286
-30.1667
-29.9261
-31.8848
-31.6346
-31.4506
-31.2064
-30.9635
-30.7113
-30.457
-30.2019
-29.9477
-29.6947
-29.4404
-29.2004
-31.0544
-30.8103
-30.631
-30.3959
-30.1624
-29.9205
-29.6775
-29.4344
-29.1934
-28.9559
-28.7219
-28.5223
-30.2113
-29.9742
-29.7998
-29.5743
-29.3506
-29.1198
-28.8877
-28.6562
-28.4272
-28.2022
-27.9798
-27.7666
-29.3543
-29.1265
-28.9594
-28.7432
-28.5292
-28.3089
-28.0881
-27.8677
-27.6488
-27.4312
-27.2113
-26.9911
-28.4939
-28.2701
-28.1079
-27.9014
-27.6975
-27.4887
-27.2799
-27.0719
-26.8659
-26.6628
-26.4646
-26.2934
-27.6163
-27.4022
-27.2473
-27.0512
-26.8579
-26.6608
-26.4648
-26.2705
-26.0787
-25.8898
-25.7006
-25.5161
-26.7333
-26.5266
-26.3776
-26.1919
-26.01
-25.826
-25.6435
-25.4639
-25.287
-25.1145
-24.9464
-24.8
-25.841
-25.644
-25.5014
-25.3259
-25.1552
-24.9839
-24.8154
-24.651
-24.4909
-24.3349
-24.1814
-24.0453
-24.9466
-24.7539
-24.617
-24.4522
-24.2938
-24.136
-23.9821
-23.8329
-23.6893
-23.5513
-23.4188
-23.3209
-24.0418
-23.8562
-23.7263
-23.5721
-23.4256
-23.2816
-23.1431
-23.0094
-22.8811
-22.7587
-22.6384
-22.5207
-23.1271
-22.951
-22.8286
-22.6862
-22.5523
-22.4228
-22.2995
-22.182
-22.0696
-21.9616
-21.8544
-21.7484
-22.2118
-22.0428
-21.9265
-21.7955
-21.6753
-21.561
-21.4546
-21.3554
-21.2627
-21.1773
-21.1023
-21.0646
-21.2938
-21.1301
-21.0208
-20.9016
-20.7953
-20.6976
-20.609
-20.529
-20.4565
-20.3897
-20.3251
-20.2685
-20.3681
-20.2129
-20.1114
-20.0053
-19.9138
-19.8334
-19.7642
-19.7045
-19.6528
-19.6077
-19.5675
-19.5569
-19.4425
-19.2945
-19.2003
-19.107
-19.0318
-18.9705
-18.9218
-18.8844
-18.8558
-18.8331
-18.8112
-18.796
-18.5173
-18.3749
-18.2891
-18.2103
-18.1524
-18.1119
-18.0862
-18.0732
-18.0701
-18.0743
-18.0826
-18.105
-17.5888
-17.4543
-17.3775
-17.3145
-17.2763
-17.2587
-17.2587
-17.2731
-17.2984
-17.3319
-17.3718
-17.426
-16.6637
-16.5352
-16.4683
-16.4232
-16.407
-16.4155
-16.4441
-16.4878
-16.5427
-16.6054
-16.6743
-16.7621
-15.7377
-15.6174
-15.5623
-15.538
-15.5485
-15.5869
-15.6474
-15.7235
-15.8092
-15.8991
-15.9872
-16.0785
-14.8158
-14.7019
-14.662
-14.6639
-14.7068
-14.7815
-14.8788
-14.9912
-15.1116
-15.2343
-15.3561
-15.4929
-13.8935
-13.7888
-13.7704
-13.8085
-13.894
-14.0127
-14.1527
-14.3043
-14.4608
-14.6162
-14.7645
-14.9121
-12.9672
-12.8763
-12.8948
-12.987
-13.129
-13.3003
-13.4877
-13.6811
-13.8735
-14.06
-14.2348
-14.4041
-12.0295
-11.9713
-12.0587
-12.234
-12.4495
-12.6806
-12.9148
-13.1444
-13.3694
-13.5836
-13.7756
-13.9336
-11.0582
-11.1443
-11.3815
-11.6849
-11.9816
-12.2601
-12.5298
-12.7863
-13.0295
-13.2722
-13.4725
-13.6554
-1.51152
9.70873
-10.3085
-19.2167
-19.857
-7.19987
-4.75741
32.75
-44.7909
-39.9605
-35.0475
-14.8551
16.5881
-41.244
1.38591
-6.75739
-41.2691
-30.5993
-30.0394
-6.48886
27.9829
26.3247
17.7848
-16.1201
-0.857623
-10.8525
24.3647
0.646079
-42.514
-37.8092
-42.477
30.9145
9.58123
-34.6561
16.7937
18.0434
33.6642
-30.818
33.2344
-14.7596
2.32275
-1.99095
24.6823
-0.419882
33.4335
26.1241
19.0531
19.9917
33.3648
27.9715
18.7593
32.5676
30.9377
1.49087
-36.9587
9.41826
12.904
-2.36882
-31.5739
0.921403
24.1692
30.3291
1.53634
-3.96693
17.5254
9.71182
-13.6882
30.492
16.3351
-39.4153
-37.0558
13.9387
33.1334
-13.257
-15.493
2.61654
-44.3284
-1.67795
10.0151
28.8018
2.66422
-1.93251
33.914
32.5578
1.96503
-44.3981
-13.7135
0.919579
-39.5738
33.5431
27.987
-41.322
-0.226491
7.82806
34.3248
-4.18772
0.516238
-1.90761
-0.642129
-13.3441
-15.8567
14.5774
5.57202
8.91222
-1.70937
33.9714
1.83113
33.2503
-13.662
0.350485
17.9788
-2.06977
30.5197
-7.73162
1.68687
15.6664
-19.9036
-6.20096
-45.7003
-33.3359
-10.6056
-21.5298
-42.0202
15.407
-18.1223
-40.3268
-1.92278
11.6046
19.3705
1.03076
31.5957
1.40011
21.4163
8.84738
23.5181
10.7801
34.0284
-39.3997
31.5451
10.3896
-19.15
28.7193
27.1228
0.538181
30.8962
-37.1308
31.6714
-10.6841
-47.9229
3.35578
0.321596
16.6468
-1.66773
4.76329
22.1788
3.22721
31.8296
-1.35027
-41.7129
-14.5818
-22.0912
-6.32609
-30.1841
-15.0633
24.1411
26.3774
31.5947
34.3122
10.9009
1.48672
-38.1105
-18.0681
-36.9179
-19.2511
-1.10231
-41.2491
1.95425
32.3909
25.2138
-36.9814
31.0681
-32.2831
-7.56602
33.4017
6.30574
31.4887
3.494
-1.70589
31.7774
1.62156
-40.3785
-1.74516
31.9151
-5.90097
32.0477
8.06026
26.9526
30.4001
2.38177
-61.4212
-47.5675
32.4141
34.355
31.1708
32.8671
14.1222
-7.9747
-36.2496
-13.8277
-15.9304
4.3069
-46.9817
33.4128
34.2282
1.93903
31.1851
-11.1909
-13.1307
-63.5306
30.5447
32.4363
-47.829
33.5686
-3.23905
-3.26709
-39.9202
-44.8066
-2.07337
-56.4287
20.0277
33.7384
-17.1119
-2.30155
-13.0103
-13.3751
27.404
31.2411
-47.3669
-1.80701
32.8942
-33.3322
19.4549
-40.7461
-45.9338
33.071
2.45007
19.8826
6.01824
-42.4807
31.3422
-40.1266
-13.3931
-40.3666
-71.5349
28.2596
-31.6903
0.0948266
32.6676
-42.1989
33.4
-15.2349
27.0935
17.3273
-8.60967
-14.3249
27.5833
-46.5801
32.7187
-3.68246
6.48073
0.177198
18.6137
-45.2871
33.093
32.8853
-44.4147
21.8576
34.4527
34.2539
32.6632
32.6386
23.365
33.6994
33.1971
-25.4648
27.4654
-33.0659
33.2279
-50.0976
29.5071
32.6454
-42.3226
34.9561
34.9491
30.4557
32.0087
28.043
30.7005
23.9776
34.247
29.0809
-0.741263
-10.8257
-37.5649
22.3454
-46.5051
34.4992
1.55033
14.3867
16.6654
-27.9373
34.7071
3.44691
-50.924
32.5036
24.3755
34.9042
-31.4259
2.0123
27.8128
22.046
-41.8215
-15.3305
69.7058
34.239
-30.7879
-26.2038
-2.31634
2.57492
34.7397
-4.08381
0.640509
-41.8268
-2.27032
2.63705
4.24883
-1.70757
14.9904
2.15795
6.52425
-0.323117
33.0154
0.121597
29.3957
12.9122
31.6241
33.6237
-42.1355
-60.7277
-12.6694
-0.170164
-4.06269
13.8573
26.0111
34.797
-1.17879
-25.3459
33.5388
-46.1392
-40.0125
30.101
33.7027
-49.0018
-61.3668
21.2617
-21.6338
-3.18218
0.324684
-1.55288
0.707522
-29.7903
30.2466
33.9941
-33.1983
-41.7284
28.7305
33.1787
-48.2767
3.57205
-35.8022
-11.047
-11.0819
-1.39275
33.1491
-67.0622
28.0378
-0.864899
21.7731
28.6231
19.7465
3.50473
-37.2365
-35.6886
30.7649
30.2908
-3.02425
-55.7597
-2.80583
-33.8538
-26.8309
13.1527
-14.3693
-12.9847
14.1072
-43.432
30.9288
-48.7961
-41.2343
31.3148
33.3119
-2.21854
-0.821425
1.55665
-49.2654
12.7161
28.7866
-62.5212
30.4041
30.6388
3.41158
0.202399
30.6393
1.69701
-3.00134
32.5318
0.583815
-21.6434
-47.3118
33.9102
0.580259
-14.0846
-11.2363
-31.4656
29.4252
-32.5512
1.96323
-41.4929
-37.3309
28.6094
-6.84201
34.5697
33.2527
12.9851
32.0708
8.54978
-14.4565
-6.82791
31.8916
27.0095
2.12661
-37.5293
29.7143
33.466
10.7459
-41.8304
28.3663
9.663
34.7979
34.2329
-32.4328
28.6085
-10.422
22.8583
-4.5263
-50.1397
-28.1418
2.28264
29.3302
22.8503
33.354
-25.8524
33.6562
19.1353
0.823456
-38.0152
-46.7775
30.8413
1.99116
31.8787
-13.1581
0.115717
33.5103
33.2828
-23.2124
-20.629
30.2079
34.1742
-6.22575
-19.405
-42.8955
-22.3531
0.944858
32.4124
-57.7259
-17.2725
30.5444
-23.7869
-1.02666
33.1338
33.928
-40.5084
31.0784
33.6241
2.45376
26.293
34.3916
22.9636
-48.324
31.0993
-37.6755
31.7015
-49.5395
-13.7745
-36.8346
2.00604
-15.7087
31.4396
-37.6469
-13.9789
21.4092
15.8631
-12.5256
1.31239
31.556
-0.694163
3.77171
-14.8048
33.6809
30.2584
-38.9837
34.9538
-15.2389
-17.4605
-37.2823
-2.15896
25.9695
-47.4007
-36.3929
30.3884
-42.5655
-7.71211
-17.8142
-21.4707
-48.2446
-43.3065
-1.8293
-26.3766
1.95673
19.6122
9.0665
13.8133
-17.3895
28.4736
33.6715
-30.3882
26.2231
29.0596
-13.8708
0.00802176
-0.106187
16.6569
-13.4303
30.6452
-39.1194
-31.5296
-25.952
31.7887
0.499621
16.9991
27.6794
10.8619
-49.6759
24.3568
30.003
30.3204
12.4572
0.449929
-9.38827
-2.67428
-36.0464
-36.1256
33.0709
-43.7469
4.26546
-45.8296
25.0433
33.0044
27.5529
-43.9612
0.130126
-32.4616
1.30779
28.5277
-13.3947
32.2826
-36.7081
-0.0879488
-46.091
-40.8498
33.4608
1.83862
-0.660931
-26.6581
-17.341
11.7117
11.9937
8.30438
-12.7978
-6.26462
7.621
29.7405
-29.2462
-33.8717
-1.8613
0.82093
-44.446
34.1616
32.6955
33.5987
10.7179
29.3628
-6.83686
-30.6972
25.6759
-1.78597
11.348
30.2423
1.56011
14.4133
33.8739
-50.3706
-50.711
3.39483
-13.0607
29.1765
-49.737
19.3728
25.1678
32.2124
-2.12204
31.9849
29.4066
23.5546
-22.1532
-9.39074
-0.321518
-48.2336
-50.96
32.2003
-60.8105
4.45212
2.76263
-45.9049
-31.0174
10.4447
1.96407
-41.9241
-1.12059
-36.3039
31.7157
-31.2635
2.02345
-45.9067
-0.0557161
32.8855
-37.7971
33.5811
17.0763
25.4815
-48.4531
-1.14371
19.0924
-48.1164
31.754
-36.8398
-3.98176
-40.3363
-17.9674
1.34478
2.35865
24.1738
-15.0305
32.2644
4.06468
-25.4102
34.2335
34.3041
-38.7197
23.5396
-38.4762
33.8133
27.4066
33.0819
-2.17947
13.5333
-1.13192
1.50344
30.1588
2.13794
34.8894
-10.6979
-35.406
1.45856
28.6793
34.1123
-37.1421
-5.31331
-26.7274
18.8934
-52.7991
-17.3549
-28.604
-40.6108
-1.86533
0.845015
33.2053
20.6277
34.3399
29.6526
3.82769
34.8362
34.9155
32.8924
-37.0526
-16.6341
32.8877
-0.533043
4.46268
-56.5891
33.4981
1.26155
15.1421
-38.4375
6.44635
-2.37119
-41.5415
2.05412
-26.6077
-57.917
6.35009
32.1525
-1.61948
23.0341
32.7934
1.41695
-8.69819
-1.2843
7.34551
-9.47242
-52.4273
-32.0871
27.6011
29.3694
1.92135
-13.8784
-0.634765
-0.648582
-21.2373
14.8982
30.6166
16.5075
-43.6546
-2.86913
-109.934
-0.50666
-10.2917
33.0056
30.1055
-1.66017
31.6936
-17.4869
29.2847
-10.4856
-42.7106
-43.9296
31.3883
-24.7437
-15.0095
17.3421
8.05724
27.3584
-58.0221
-13.3472
29.0358
0.119315
32.56
-8.11892
-39.5387
-44.9467
-16.1665
-13.9743
-43.143
-23.8662
6.08241
34.3736
29.1904
-12.4079
7.35043
-3.3321
33.8417
-37.4054
-5.30666
-42.2566
-28.3808
25.9429
24.2429
-48.34
-11.1444
27.6851
-12.2067
-38.9229
-38.7164
0.209595
-43.2188
-15.7618
34.1371
32.4846
30.5673
0.113523
-10.7378
-2.8224
1.74864
2.38272
31.0467
23.1993
20.4823
-37.8741
0.665614
-43.7972
15.5699
23.5982
1.957
-38.5747
-4.19183
26.4399
-42.6962
23.7774
30.6365
28.5197
-2.12414
26.3505
-38.1646
10.2427
14.1346
31.9724
-39.9677
28.0087
16.0804
-15.3868
-13.9889
26.9792
-26.9053
-28.8908
30.8749
0.417504
-50.6025
15.3053
12.6141
-9.0558
-58.3941
26.8689
-0.424963
1.1982
-45.3468
29.9377
-48.6151
1.3882
-36.3584
-38.1922
33.7615
6.52053
33.5865
-29.932
6.56176
29.3279
-2.04942
-50.3317
34.0856
34.0221
34.6386
3.19281
1.99479
15.4297
-41.3328
-40.5932
-32.0389
0.323084
-14.3856
3.88935
12.7773
-39.7158
25.044
27.7164
28.0079
16.8941
33.3537
32.6238
-37.5252
0.00676715
34.2917
-32.3072
31.6936
1.15135
-41.691
-4.33768
1.9809
4.47971
29.8318
-20.8228
-10.819
26.3729
-54.7514
-4.70329
3.80041
16.3248
23.1412
-11.7448
27.9147
2.61425
-3.12749
-13.7405
13.9226
-12.9834
-40.9047
33.2474
-16.574
22.2405
-35.6764
28.3166
30.4535
32.3704
-40.4897
31.8766
1.66868
32.8127
-10.5735
-2.26254
-41.3784
30.0152
21.1451
25.7233
-8.22026
-44.0119
-35.8622
-0.414544
34.1245
2.73918
33.19
-31.5348
33.2043
-2.03552
-45.3649
34.2537
-35.5528
33.1188
32.9914
-15.1149
-29.5383
23.7312
0.626504
15.099
34.9204
-1.37922
-48.2956
32.2826
-2.32817
-15.4482
10.6853
33.2677
33.6727
-31.4992
31.4342
32.6517
-10.2927
31.5616
27.0203
30.5854
31.2981
1.56152
-1.61599
-40.2611
-6.00699
-38.8824
32.9994
-0.808412
-36.877
33.2248
-2.27767
30.0639
25.2497
31.1485
31.0624
18.432
-41.1715
-38.1742
30.8019
-33.1003
-21.2882
26.1204
33.8681
-45.5449
-30.7042
-38.5936
-21.508
-15.8936
28.5315
-9.88262
-18.269
-31.1191
-0.441749
-40.5812
33.0398
12.6589
1.70921
-3.20538
-3.20657
31.5025
-2.11195
32.6855
-0.164263
31.7905
-7.40109
3.3494
-46.3819
33.7314
1.88258
31.4898
33.7561
-25.0793
27.0592
-17.8706
32.2716
-1.61876
30.3538
21.4523
2.92911
10.3907
34.4824
30.9576
-0.140361
2.31264
33.7329
2.32823
28.6955
-31.3627
-31.5377
31.3349
-19.2652
18.8106
-100.842
-44.935
33.5161
-53.7455
-41.455
2.3105
31.1343
-43.0735
-44.4741
2.46808
26.405
-1.20398
-7.25332
30.622
-10.4832
-17.3586
6.32743
-13.8762
-62.0402
13.9522
-1.15862
25.0341
0.472748
10.4801
24.7294
-64.6468
24.657
5.48178
-3.15689
-47.6634
26.8692
4.7217
7.88312
27.8752
24.5468
33.6665
34.7277
-15.0226
-1.39814
-13.6566
2.6332
39.3291
26.7189
-87.8033
29.5236
-29.8725
1.10464
-50.7341
-0.330249
2.7462
11.6268
30.7686
31.6865
-48.135
2.642
-16.9663
-1.91355
27.2525
-48.2246
0.949398
32.999
1.38626
1.10937
5.79049
16.4225
-13.2157
-40.6069
-22.1804
2.97835
-2.63348
31.3928
32.4265
32.1379
-44.8417
27.6005
31.3206
2.88152
11.4045
-35.2478
32.4821
-14.2189
14.104
1.29032
34.1249
-2.04983
31.9497
32.1904
-7.64891
-12.1772
33.215
-16.4527
21.8002
1.67019
-35.9993
-40.7808
33.1618
-2.86256
-17.8751
-35.3418
-20.301
23.3233
-38.7319
1.95657
1.53401
0.316499
-19.6484
33.9727
-47.0197
0.244641
34.861
-43.5485
29.7671
25.6961
-19.0922
14.1024
1.71588
20.5039
30.4622
31.2484
-1.03902
-40.528
-2.35406
-16.8487
-17.0907
-44.226
21.6103
-39.8734
-41.5207
8.90321
14.5457
2.2576
-1.66522
6.32613
-12.6559
-7.35188
0.963834
-44.0438
33.3933
-0.583331
31.4928
-34.9039
3.5339
1.89536
-62.3605
31.4387
-35.7654
-20.8098
23.5532
30.2916
-27.0115
20.2103
-40.0721
33.0508
32.6473
34.7959
25.8432
33.7723
31.8041
-18.4934
33.7085
3.7174
33.3286
15.4461
28.4473
-22.9029
29.3644
-32.9961
11.3401
34.4981
23.0342
34.2955
33.3731
34.6
-28.12
-3.82813
8.57861
2.09859
-20.3499
-39.3696
1.93387
-45.0921
2.59576
15.4198
32.8995
30.9632
-43.4652
-22.7239
22.8401
-46.3381
-7.21137
34.5395
-2.81397
32.3633
-49.2544
0.775807
-15.9534
-4.19049
21.4194
32.2061
30.8649
25.3502
31.5582
-1.80272
21.1879
30.5592
-46.7154
5.89922
14.347
29.3262
31.4846
-19.0309
32.048
-16.8391
-7.39612
-12.5818
1.21844
-8.95113
32.4807
-41.5762
33.3065
29.7227
-26.7537
-30.0123
25.8105
1.4496
32.8996
1.24
1.62749
-0.748832
16.0369
32.1447
28.6413
-38.4424
33.0747
32.6658
6.31783
3.49973
26.5306
26.6299
19.8715
33.1018
-22.4577
33.5615
-0.838827
33.714
7.68984
7.34188
1.9317
-37.5711
-19.1511
28.7867
-26.2796
-42.051
-46.0021
2.01503
-40.1618
34.5441
33.8329
-0.335563
-9.59831
28.0763
32.7308
-35.1128
31.8976
-1.74658
-37.1831
3.08948
32.3482
-16.321
31.1438
13.6594
-12.3285
-0.662349
43.5755
-0.893755
-45.097
18.2032
3.3135
16.3238
30.705
-1.39555
-0.602082
-1.89993
16.0584
32.9163
-25.9226
-3.4984
31.6102
25.0823
34.0988
1.85161
34.4751
25.9102
27.8125
-21.893
33.673
-16.0163
34.8269
-11.0359
30.8282
32.2957
33.925
-0.742687
26.0025
32.585
31.903
7.62451
0.810893
31.3787
23.9707
1.7346
-4.78633
-50.7256
0.913516
-37.147
-45.3319
32.9798
33.574
-27.2276
24.6968
-31.7017
-52.1804
-25.8372
-13.368
-35.9586
34.7805
28.4327
-1.4865
33.8316
-5.61126
-0.816376
2.92484
-0.218208
1.89895
4.17675
-25.6968
-100.275
-31.4014
8.13055
-37.8237
29.1179
-3.71379
30.983
28.4089
-21.3938
27.1202
-43.4174
34.6849
24.7251
20.2513
-2.00247
2.23404
16.4975
21.3968
33.6454
32.8213
-44.0829
27.9062
30.9253
-9.0074
32.8817
33.3687
-1.13718
32.8032
-42.4152
4.05538
-18.5834
14.8396
-18.3196
33.0215
-32.1606
-15.9463
7.04735
-33.0323
5.31207
-10.4807
1.19717
-18.6872
-40.3559
-25.6269
-0.642058
-1.44468
25.6429
32.4812
-38.2125
31.2369
-24.4729
33.305
32.1832
2.02433
33.6204
-1.26771
-33.1775
27.9863
-31.7771
24.2365
-49.5413
-16.0648
33.5936
33.8504
-50.5662
32.4906
-14.2882
34.6228
-38.796
22.851
-31.6125
33.9219
12.0563
5.43066
-41.0621
-32.2185
1.7096
-0.122528
-6.9631
-5.50424
34.4047
-0.920218
33.0506
30.2893
31.8843
-43.2017
2.92391
-33.8317
30.4091
34.1805
32.1972
32.9079
-42.3675
-5.05128
1.62491
3.43613
-28.858
2.90969
33.5274
31.3419
5.20221
-17.62
-35.9837
34.0543
33.0435
1.8795
31.2076
-27.0653
8.71779
11.5489
34.254
33.5293
-9.85346
26.5605
-1.45938
2.72826
34.64
7.32476
-19.6831
2.46177
32.5991
-9.8817
23.7488
-50.1422
16.2259
-28.0632
-40.565
6.43385
3.43942
-9.85612
0.808717
30.7837
33.4184
32.4241
-1.11682
22.8855
-27.9176
8.4028
-13.1676
-16.8217
-0.314884
2.12632
14.6181
-11.7768
0.710606
28.8857
4.03743
-46.0707
-5.95232
-7.49422
-22.5214
23.2174
13.9085
21.3906
-48.2612
12.3565
-1.91947
32.4546
30.9388
-40.3042
0.0217742
34.7909
31.3383
-4.36345
32.1844
-28.2125
-26.57
5.69197
26.4901
-9.29215
30.9012
-48.0462
-40.1186
11.0572
-30.3661
-1.51735
33.5407
-1.8313
-23.4762
14.6268
31.2216
-27.8326
-38.2383
16.6818
-13.893
-0.801439
-32.9514
-10.6321
3.2325
-3.68602
34.1154
33.6553
25.1473
14.0079
29.3979
-6.39463
1.55663
2.42131
-40.4554
-15.2266
-36.2058
26.4183
33.6577
32.8129
-21.2148
17.2453
2.79973
-1.24183
29.4112
-26.6828
-38.8985
-14.5224
4.1105
-16.1146
20.4284
34.354
33.1889
-25.6317
34.4217
-40.5941
-0.705304
4.19884
-17.507
33.8109
-41.0064
32.8584
34.6816
8.05263
-48.8502
-2.71048
31.6804
19.798
20.005
-1.62023
21.5042
17.7118
-37.6596
-32.9101
-1.00722
32.3835
-3.2219
33.5525
-42.9768
-1.68168
21.1549
-0.385531
29.347
-26.3673
26.8761
-1.6443
29.5018
33.7634
31.6136
-38.4763
19.8945
-36.9316
3.58801
-14.4777
34.3238
-49.8685
-12.4298
-8.48701
-4.31648
33.6314
6.55465
-13.5643
1.34116
-24.4649
1.91258
7.58914
-0.0298005
-3.16346
-16.5772
-13.2689
1.1963
-43.6829
-17.3045
-26.1684
-38.0229
-8.68095
-2.54004
34.3582
-6.4955
0.908928
-29.5448
-11.0298
-43.9477
21.8633
-12.2781
10.5229
-0.948536
-7.58365
-22.7077
20.4097
-36.0641
-12.5906
-11.2225
-26.8767
33.6661
-41.027
3.47622
-0.306939
-43.1525
-11.8297
12.1331
18.4377
1.48553
-40.5267
5.66854
-30.6959
-40.4944
33.0124
-2.41887
34.4472
1.24169
-14.1452
31.3034
1.81773
34.4982
-30.0504
1.68793
32.8313
1.57835
13.6629
15.0689
3.99182
-23.8248
29.1109
-43.8118
-27.6025
-48.2652
11.8316
32.9906
29.8038
-42.3063
-17.0628
2.04828
-58.2858
23.7718
-43.6509
13.0172
-18.5111
0.253207
-2.66256
31.289
-14.6352
31.1361
-28.5367
31.318
-2.60099
1.95686
4.33091
22.5606
12.0504
-23.1013
-1.87962
-30.4889
32.0929
18.3101
-16.1678
-38.4865
0.220753
27.8973
0.856299
1.87356
30.9266
-41.2348
-25.5345