/*--------------------------------*- C++ -*----------------------------------*\
| =========                 |                                                 |
| \\      /  F ield         | OpenFOAM: The Open Source CFD Toolbox           |
|  \\    /   O peration     | Version:  2.3.1                                 |
|   \\  /    A nd           | Web:      www.OpenFOAM.org                      |
|    \\/     M anipulation  |                                                 |
\*---------------------------------------------------------------------------*/
FoamFile
{
    version     2.0;
    format      ascii;
    class       volScalarField;
    location    "0.4";
    object      p;
}
// * * * * * * * * * * * * * * * * * * * * * * * * * * * * * * * * * * * * * //

dimensions      [0 2 -2 0 0 0 0];

internalField   nonuniform List<scalar> 
768
(
-0.0283039
-0.0286387
-0.0298409
-0.0316969
-0.0333551
-0.0342688
-0.0344957
-0.0343388
-0.0341568
-0.0341956
-0.0344272
-0.0347992
-0.0266825
-0.0287238
-0.0316263
-0.0343629
-0.0361898
-0.0367395
-0.0360397
-0.0346478
-0.0333054
-0.0323261
-0.031569
-0.0307868
-0.0246302
-0.0284235
-0.0323128
-0.0353724
-0.0371333
-0.0373679
-0.0362061
-0.0341876
-0.0320111
-0.0300161
-0.0284379
-0.0275356
-0.0209086
-0.0250016
-0.028682
-0.0314636
-0.0329042
-0.032937
-0.0316736
-0.029528
-0.0271033
-0.0249844
-0.0236342
-0.0231877
-0.0158219
-0.019031
-0.0217546
-0.0237671
-0.0244594
-0.0240608
-0.0226683
-0.0207662
-0.0189568
-0.0177316
-0.0173041
-0.0176414
-0.0103348
-0.0123009
-0.0136929
-0.014416
-0.0145152
-0.013867
-0.0127595
-0.0116275
-0.0108664
-0.0106937
-0.011145
-0.0121944
-0.00524564
-0.00621357
-0.00643301
-0.00623712
-0.0057373
-0.00510085
-0.00453879
-0.00424964
-0.00436454
-0.004924
-0.00593247
-0.00743478
-0.000625833
-0.000961345
-0.000338171
0.000536188
0.00128513
0.00167973
0.00167415
0.00130188
0.000606629
-0.000386331
-0.00170142
-0.00344657
0.00363299
0.00373702
0.00490289
0.00614613
0.00683762
0.00683749
0.00631555
0.00545282
0.0043744
0.00311829
0.0016285
-0.000243847
0.00718168
0.00813528
0.00975554
0.0108747
0.0111928
0.0107565
0.00983242
0.00860203
0.00723477
0.00577515
0.0041513
0.00220264
0.0107102
0.0119621
0.0139359
0.0148988
0.0145428
0.0135399
0.0123201
0.0108977
0.00935608
0.00773425
0.00598555
0.00397786
0.00979206
0.013397
0.015764
0.016876
0.0167138
0.0157209
0.014243
0.0125622
0.0108363
0.00907748
0.00724702
0.00521493
-0.0353948
-0.0362921
-0.0374242
-0.0386252
-0.0396768
-0.040675
-0.0422073
-0.0445997
-0.047435
-0.0497629
-0.0507423
-0.050545
-0.0303354
-0.0306831
-0.0317096
-0.0330067
-0.0345529
-0.0366132
-0.0393501
-0.0429111
-0.0468382
-0.0498767
-0.050869
-0.0502075
-0.027448
-0.0280948
-0.0292607
-0.0307667
-0.0325289
-0.034651
-0.0373997
-0.0409549
-0.0450782
-0.048672
-0.0502279
-0.0498708
-0.0235132
-0.0244545
-0.0259292
-0.0278758
-0.0301883
-0.0327854
-0.03566
-0.0388777
-0.0424052
-0.0458899
-0.0483362
-0.0488694
-0.0186557
-0.0203142
-0.0225967
-0.0254065
-0.0285518
-0.0318261
-0.0350436
-0.038014
-0.0404957
-0.0425742
-0.0450322
-0.0470935
-0.013864
-0.0162277
-0.0193326
-0.0231102
-0.0272997
-0.031488
-0.035285
-0.0383145
-0.040016
-0.0402045
-0.0411502
-0.0447811
-0.00955251
-0.0124521
-0.0162687
-0.0209821
-0.0262539
-0.0314365
-0.0358682
-0.0390536
-0.0403714
-0.0395044
-0.0388196
-0.0422986
-0.00582061
-0.00908171
-0.0134614
-0.0189777
-0.0252224
-0.0313327
-0.0362719
-0.0394772
-0.0403463
-0.039015
-0.0378639
-0.0395894
-0.00274189
-0.00618604
-0.0108859
-0.0169297
-0.0239096
-0.0307693
-0.0361431
-0.0389718
-0.038928
-0.0365324
-0.0348882
-0.0351176
-0.000325474
-0.00377967
-0.00852192
-0.0147096
-0.0219743
-0.0291841
-0.0346724
-0.0370958
-0.0357851
-0.0312347
-0.0270366
-0.0247157
0.00148198
-0.00183601
-0.006355
-0.012287
-0.0193334
-0.0264013
-0.0317351
-0.0336885
-0.0312441
-0.0243083
-0.0154678
-0.00560497
0.00278642
-0.000312667
-0.00442114
-0.00977064
-0.0161529
-0.0226107
-0.0274905
-0.0290476
-0.0260734
-0.0180324
-0.005637
0.0130402
-0.0283358
-0.0286711
-0.0298742
-0.0317311
-0.0333897
-0.034302
-0.034526
-0.0343652
-0.0341789
-0.0342128
-0.0344399
-0.0348074
-0.0267131
-0.0287549
-0.031658
-0.0343959
-0.0362244
-0.0367756
-0.0360758
-0.0346808
-0.0333336
-0.03235
-0.0315896
-0.0308043
-0.0246572
-0.0284493
-0.0323376
-0.0353986
-0.0371628
-0.0374013
-0.0362428
-0.034225
-0.0320472
-0.0300505
-0.0284694
-0.0275633
-0.0209323
-0.0250223
-0.0287008
-0.0314837
-0.0329276
-0.032966
-0.0317082
-0.0295668
-0.0271444
-0.0250257
-0.0236743
-0.0232262
-0.0158437
-0.0190505
-0.0217731
-0.0237873
-0.0244818
-0.024089
-0.0227028
-0.0208058
-0.0189991
-0.0177748
-0.0173476
-0.0176854
-0.0103559
-0.0123215
-0.0137136
-0.0144368
-0.0145402
-0.0138974
-0.012795
-0.0116667
-0.0109078
-0.0107363
-0.0111886
-0.0122387
-0.00526604
-0.00623529
-0.00645567
-0.00626264
-0.00576578
-0.0051328
-0.00457418
-0.00428789
-0.00440485
-0.00496568
-0.0059749
-0.00747781
-0.000644151
-0.000982709
-0.000362131
0.000509195
0.00125606
0.00164797
0.00163939
0.0012642
0.000566638
-0.000427614
-0.00174297
-0.00348774
0.00361934
0.00371928
0.00487929
0.00611903
0.00680949
0.00680573
0.00628037
0.0054146
0.00433395
0.00307704
0.00158791
-0.000282898
0.00717341
0.00811927
0.00973222
0.0108461
0.0111645
0.0107216
0.00979551
0.00856278
0.00719361
0.00573375
0.00411146
0.00216565
0.0107105
0.0119453
0.0139055
0.0148595
0.0144958
0.0134986
0.0122787
0.0108558
0.00931394
0.0076928
0.00594648
0.00394269
0.00978671
0.0133889
0.0157366
0.016828
0.0166607
0.0156724
0.0141991
0.0125184
0.0107931
0.00903609
0.00720886
0.00518159
-0.0353976
-0.0362873
-0.0374097
-0.0386004
-0.0396425
-0.0406314
-0.0421552
-0.0445409
-0.047372
-0.0496985
-0.0506783
-0.050482
-0.030347
-0.030686
-0.0317028
-0.0329903
-0.0345253
-0.0365741
-0.0392995
-0.0428507
-0.0467715
-0.0498085
-0.0508029
-0.050144
-0.027471
-0.0281121
-0.0292711
-0.0307687
-0.032521
-0.03463
-0.0373636
-0.0409039
-0.0450159
-0.0486049
-0.0501624
-0.0498089
-0.02355
-0.0244888
-0.0259593
-0.0278998
-0.0302042
-0.0327905
-0.0356504
-0.0388508
-0.0423615
-0.0458344
-0.0482775
-0.0488136
-0.0186998
-0.0203578
-0.0226391
-0.0254465
-0.0285877
-0.0318558
-0.0350635
-0.0380196
-0.0404835
-0.0425444
-0.0449909
-0.0470525
-0.0139093
-0.0162741
-0.0193801
-0.0231584
-0.0273474
-0.0315334
-0.0353257
-0.0383464
-0.0400343
-0.0402051
-0.0411355
-0.0447621
-0.00959636
-0.0124977
-0.0163171
-0.0210337
-0.0263077
-0.0314904
-0.0359193
-0.0390982
-0.040406
-0.0395257
-0.0388282
-0.0423022
-0.00586179
-0.00912451
-0.0135082
-0.0190307
-0.025281
-0.0313929
-0.0363296
-0.0395255
-0.0403836
-0.0390404
-0.0378801
-0.0396049
-0.00277972
-0.00622474
-0.0109295
-0.0169822
-0.0239712
-0.030834
-0.0362014
-0.0390203
-0.0389621
-0.0365525
-0.0348997
-0.0351311
-0.000359633
-0.00381325
-0.00856
-0.0147581
-0.022035
-0.0292509
-0.0347339
-0.0371434
-0.0358141
-0.031247
-0.0270395
-0.0247226
0.00145139
-0.00186353
-0.00638485
-0.0123267
-0.0193864
-0.0264624
-0.0317926
-0.0337313
-0.0312667
-0.0243123
-0.0154635
-0.00560767
0.00275915
-0.000333941
-0.00444087
-0.00979729
-0.0161915
-0.0226588
-0.0275383
-0.029083
-0.0260894
-0.0180303
-0.00562829
0.0130391
0.0135267
0.0138322
0.0152208
0.0165063
0.0166784
0.0160371
0.0150824
0.0135515
0.01183
0.00996281
0.00804327
0.0060014
0.0111403
0.0126212
0.0144176
0.0158319
0.0161169
0.0155942
0.0145336
0.013506
0.0120174
0.0103305
0.00850692
0.00650891
0.00926425
0.0118622
0.0138883
0.01512
0.0154384
0.0151609
0.0143264
0.0133295
0.0118923
0.0103957
0.00872279
0.00683767
0.00762423
0.0103799
0.0125377
0.0137283
0.0142577
0.0144507
0.0137837
0.0128906
0.0112966
0.0100212
0.00861356
0.00696235
0.00367486
0.000839259
-0.00277807
-0.00737655
-0.0128223
-0.0183539
-0.0225522
-0.0237803
-0.0208713
-0.0134736
-0.0026836
0.00917653
0.0042814
0.00169395
-0.00144463
-0.00527795
-0.00971779
-0.0142006
-0.0175923
-0.0185099
-0.016001
-0.0100004
-0.00174659
0.0067261
0.00473718
0.00235074
-0.000429632
-0.00365202
-0.00721316
-0.0107301
-0.0133257
-0.0138552
-0.011726
-0.00728378
-0.00138925
0.00480504
0.00508963
0.00297574
0.000555196
-0.00215923
-0.00504534
-0.00787087
-0.0099692
-0.0105578
-0.00828404
-0.00488832
-0.00074384
0.00376505
0.0135407
0.0138417
0.0152089
0.0164695
0.0166308
0.01599
0.0150381
0.0135088
0.0117884
0.00992316
0.00800709
0.0059704
0.0111587
0.0126384
0.0144157
0.0158064
0.0160786
0.0155536
0.0144932
0.0134664
0.0119789
0.0102941
0.00847392
0.00648107
0.00927222
0.0118694
0.0138839
0.0150988
0.0154062
0.0151253
0.0142897
0.0132926
0.011858
0.0103639
0.00869394
0.00681353
0.00761748
0.010373
0.0125263
0.0137081
0.0142316
0.0144241
0.0137562
0.01286
0.0112696
0.00999696
0.00859218
0.00694654
0.00365091
0.000824322
-0.00278554
-0.00738541
-0.0128405
-0.0183843
-0.0225878
-0.0238076
-0.0208824
-0.0134692
-0.00267303
0.00918291
0.00426026
0.00168275
-0.00144248
-0.0052699
-0.00971641
-0.0142153
-0.017618
-0.0185321
-0.0160104
-0.00999837
-0.00173879
0.0067326
0.0047185
0.00234103
-0.000412141
-0.00360837
-0.00718112
-0.0107315
-0.0133455
-0.0138794
-0.0117356
-0.00728805
-0.0013866
0.00481072
0.00507891
0.0029628
0.000564006
-0.00211611
-0.00500932
-0.00787177
-0.00998837
-0.0105775
-0.0082955
-0.00489594
-0.000744914
0.00377031
)
;

boundaryField
{
    rotor
    {
        type            zeroGradient;
    }
    stator
    {
        type            zeroGradient;
    }
    AMI1
    {
        type            cyclicAMI;
        value           nonuniform List<scalar> 
48
(
0.00715674
0.00980917
0.0118922
0.0131193
0.013771
0.013984
0.0134617
0.0125346
0.0111453
0.00990342
0.00853377
0.00694884
0.00513479
0.00307466
0.000752842
-0.00177604
-0.00440201
-0.00692857
-0.00875559
-0.00913827
-0.00715004
-0.00405227
-0.000339944
0.00363822
0.00714677
0.0097988
0.0118786
0.0130998
0.0137475
0.0139598
0.0134364
0.0125064
0.0111196
0.00988077
0.00851339
0.00693259
0.00512471
0.00306968
0.00076471
-0.00174848
-0.00438394
-0.00693533
-0.00877408
-0.00915568
-0.00716051
-0.00405809
-0.000339883
0.00364419
)
;
    }
    AMI2
    {
        type            cyclicAMI;
        value           nonuniform 0();
    }
    front
    {
        type            empty;
    }
    back
    {
        type            empty;
    }
    procBoundary2to3
    {
        type            processor;
        value           nonuniform List<scalar> 8(0.00917072 0.00672109 0.00480459 0.00377264 0.013549 0.0111653 0.0092806 0.00762777);
    }
}


// ************************************************************************* //
