/*--------------------------------*- C++ -*----------------------------------*\
| =========                 |                                                 |
| \\      /  F ield         | OpenFOAM: The Open Source CFD Toolbox           |
|  \\    /   O peration     | Version:  2.3.1                                 |
|   \\  /    A nd           | Web:      www.OpenFOAM.org                      |
|    \\/     M anipulation  |                                                 |
\*---------------------------------------------------------------------------*/
FoamFile
{
    version     2.0;
    format      ascii;
    class       volVectorField;
    location    "5240";
    object      D;
}
// * * * * * * * * * * * * * * * * * * * * * * * * * * * * * * * * * * * * * //

dimensions      [0 1 0 0 0 0 0];

internalField   nonuniform List<vector> 
11800
(
(1.08124e-05 0.000305791 0)
(-1.36278e-05 0.000340874 0)
(7.56887e-06 0.000102097 0)
(-8.62719e-06 0.000139238 0)
(-1.24491e-05 0.000340295 0)
(-5.58613e-06 0.000139512 0)
(-2.05391e-06 0.000229106 0)
(-1.95212e-06 0.00017626 0)
(9.00757e-07 2.66482e-05 0)
(1.65847e-06 0.00010593 0)
(1.20037e-05 0.000305064 0)
(-1.0744e-05 0.000118531 0)
(-1.03029e-08 -8.20341e-09 0)
(6.72818e-06 0.000101476 0)
(-7.65111e-06 0.000139829 0)
(7.28699e-06 1.63044e-05 0)
(-1.14446e-06 0.000228434 0)
(-1.10713e-06 0.000175623 0)
(5.11293e-07 2.69452e-05 0)
(1.02906e-06 0.000105401 0)
(-6.57579e-06 0.000138995 0)
(-9.8442e-06 0.000119005 0)
(-1.59114e-06 5.72754e-06 0)
(-1.69863e-06 5.96571e-06 0)
(6.50781e-06 1.86367e-05 0)
(-2.55003e-06 9.52257e-06 0)
(-1.04903e-05 7.04446e-05 0)
(1.53752e-05 0.000205186 0)
(-9.32642e-06 5.33278e-05 0)
(-8.05436e-06 3.82596e-05 0)
(1.62947e-05 0.000259817 0)
(6.87666e-08 4.4538e-06 0)
(3.33279e-06 1.22592e-05 0)
(-8.28107e-06 0.000349838 0)
(6.74218e-06 0.000348256 0)
(-1.85362e-05 0.000277576 0)
(6.28168e-06 0.000349463 0)
(3.28064e-06 1.26057e-05 0)
(-2.0082e-06 0.000242069 0)
(1.66395e-06 0.000116415 0)
(-1.03153e-05 7.12399e-05 0)
(-9.18033e-06 5.40352e-05 0)
(1.50204e-05 0.000204004 0)
(-7.93777e-06 3.88779e-05 0)
(1.59333e-05 0.000258573 0)
(6.95187e-06 1.64345e-05 0)
(1.837e-06 6.78836e-06 0)
(2.04743e-06 6.67981e-06 0)
(-3.16058e-06 0.000242278 0)
(2.58492e-06 0.00011658 0)
(-1.75927e-05 0.000178617 0)
(-1.88115e-05 0.000231481 0)
(-1.71932e-06 0.00030251 0)
(9.5208e-08 4.22553e-06 0)
(-8.92982e-06 1.94372e-05 0)
(1.20566e-06 9.92669e-07 0)
(-2.31335e-05 0.000354654 0)
(-5.78015e-06 9.82632e-05 0)
(6.64586e-06 0.000143657 0)
(-4.19676e-06 9.43692e-05 0)
(2.41172e-06 3.1738e-06 0)
(-2.96876e-06 0.000302738 0)
(-5.02474e-06 9.80395e-05 0)
(5.79657e-06 0.000143924 0)
(6.09565e-06 1.83499e-05 0)
(-2.20871e-05 0.000313361 0)
(-1.8251e-05 0.000177831 0)
(-1.95823e-05 0.000230617 0)
(-2.19722e-05 0.000354079 0)
(-2.67638e-06 9.83337e-06 0)
(-7.3808e-06 0.000350824 0)
(-1.30388e-05 0.000348918 0)
(-1.34182e-05 0.000347674 0)
(-1.13475e-07 1.25668e-07 0)
(2.57538e-06 3.31077e-06 0)
(-1.74597e-05 0.000278359 0)
(8.00146e-06 2.57955e-05 0)
(-2.24456e-05 0.000314537 0)
(-1.78717e-05 0.000317205 0)
(-1.66962e-05 0.00031827 0)
(-8.51222e-06 1.91694e-05 0)
(1.32956e-06 0.000120915 0)
(1.23193e-05 0.000346176 0)
(1.09977e-05 0.000346391 0)
(-1.57299e-06 0.000124293 0)
(-7.74644e-06 4.31147e-05 0)
(1.47307e-05 0.000250334 0)
(-8.86623e-06 5.88813e-05 0)
(-9.89684e-06 7.66644e-05 0)
(1.38468e-05 0.000196206 0)
(-3.87767e-07 0.00029594 0)
(3.54148e-06 1.16509e-05 0)
(-1.10964e-05 0.000319259 0)
(2.29799e-05 0.000357378 0)
(3.64613e-06 0.000153517 0)
(-2.74483e-09 -2.08808e-09 0)
(7.09958e-11 -4.43914e-10 0)
(2.74768e-09 -2.0906e-09 0)
(-2.25789e-07 0.000306245 0)
(-1.02011e-05 0.000121171 0)
(1.97817e-05 0.000356096 0)
(1.19318e-05 0.000133219 0)
(-4.29372e-06 1.7055e-05 0)
(-9.6497e-07 1.31471e-05 0)
(-6.31001e-07 0.000338763 0)
(1.18988e-06 2.78822e-05 0)
(-2.50884e-06 0.000173665 0)
(-2.61094e-06 0.000226228 0)
(3.75054e-06 6.34396e-06 0)
(8.95402e-06 5.88559e-05 0)
(7.82335e-06 4.30921e-05 0)
(9.99517e-06 7.66357e-05 0)
(-1.49115e-05 0.000250365 0)
(-1.40183e-05 0.000196249 0)
(2.13839e-06 0.000103757 0)
(2.96812e-06 5.78179e-06 0)
(2.19205e-05 0.000314646 0)
(-8.94908e-06 0.000323012 0)
(3.02199e-06 5.57007e-06 0)
(-1.48172e-06 0.000107256 0)
(-8.81702e-07 2.59411e-05 0)
(2.01324e-06 0.0002308 0)
(1.91011e-06 0.000177775 0)
(-2.7537e-06 0.000221281 0)
(-1.1169e-05 0.000320467 0)
(-9.66143e-07 0.000305286 0)
(-7.17079e-06 0.000338898 0)
(-1.65844e-06 0.000337973 0)
(-2.48254e-05 0.000366438 0)
(-2.57125e-05 0.000365549 0)
(-7.04993e-07 3.1628e-07 0)
(-3.21164e-06 7.50311e-06 0)
(1.51108e-05 0.000242857 0)
(-8.32033e-06 4.7164e-05 0)
(1.41503e-05 0.00018919 0)
(-9.45148e-06 6.34899e-05 0)
(-1.04913e-05 8.17877e-05 0)
(1.39435e-05 0.000243079 0)
(-7.66698e-06 4.70224e-05 0)
(1.30586e-05 0.000189395 0)
(-8.71142e-06 6.33327e-05 0)
(-9.67158e-06 8.16161e-05 0)
(-2.01266e-06 2.40178e-05 0)
(4.90314e-06 0.000235244 0)
(4.57223e-06 0.000182056 0)
(-3.85176e-06 0.00011078 0)
(1.87522e-05 0.000121679 0)
(-1.86138e-05 0.000119007 0)
(1.17376e-05 0.000134191 0)
(-1.35346e-06 1.39551e-05 0)
(-1.23537e-05 0.000294569 0)
(-1.22468e-05 0.000296136 0)
(6.04688e-06 0.000345583 0)
(-1.38172e-05 0.000277965 0)
(5.55011e-06 0.000196107 0)
(6.02436e-06 0.000250202 0)
(-1.53865e-05 0.000220319 0)
(-1.42601e-05 0.000168174 0)
(7.16838e-06 3.07465e-05 0)
(-1.12085e-06 0.000297054 0)
(4.07701e-06 6.45741e-06 0)
(-1.26266e-05 0.00027824 0)
(8.37564e-06 2.61706e-05 0)
(-5.60536e-06 7.98133e-05 0)
(-5.03919e-06 6.16992e-05 0)
(-4.42374e-06 4.55734e-05 0)
(7.70932e-06 0.00019166 0)
(8.22207e-06 0.000245507 0)
(-3.59161e-06 4.42861e-06 0)
(-6.56358e-06 2.95719e-05 0)
(1.43788e-05 0.000222771 0)
(1.33177e-05 0.000170473 0)
(3.21739e-06 0.000225978 0)
(-2.11174e-05 0.000276279 0)
(-2.13305e-05 0.000277942 0)
(7.49223e-06 1.86703e-05 0)
(7.50309e-06 1.91871e-05 0)
(8.28528e-06 5.71441e-05 0)
(9.26942e-06 7.47271e-05 0)
(7.21735e-06 4.15897e-05 0)
(-1.31844e-05 0.000198908 0)
(-1.40073e-05 0.000253212 0)
(5.64556e-06 0.000194872 0)
(6.05748e-06 0.00024893 0)
(6.1245e-06 0.000118524 0)
(-2.91361e-06 0.000110528 0)
(-1.53016e-06 2.41421e-05 0)
(3.71252e-06 0.000234928 0)
(3.46091e-06 0.00018176 0)
(-4.81002e-06 0.000290527 0)
(-1.61263e-06 5.05304e-05 0)
(-1.82169e-06 6.73192e-05 0)
(-1.81731e-05 0.000310941 0)
(-4.90152e-07 1.14428e-05 0)
(-1.75129e-05 0.000145997 0)
(1.50972e-05 9.65689e-05 0)
(1.72736e-07 1.63992e-07 0)
(-1.08735e-05 0.000350397 0)
(2.17677e-05 0.000315917 0)
(-6.15229e-07 3.66049e-07 0)
(1.43421e-05 0.000331173 0)
(1.79123e-05 0.000282864 0)
(1.92105e-05 0.000283098 0)
(-5.5288e-07 0.000340485 0)
(-1.4488e-06 0.00034158 0)
(1.0097e-05 9.4219e-05 0)
(8.92009e-06 9.46381e-05 0)
(-1.19456e-05 0.000148494 0)
(-1.05236e-05 0.00014797 0)
(6.95298e-07 3.11954e-07 0)
(-1.96173e-06 1.67552e-05 0)
(-2.20726e-06 9.31841e-06 0)
(-5.14488e-08 1.93342e-08 0)
(6.72837e-06 1.10523e-05 0)
(-1.60039e-07 5.07968e-08 0)
(8.75608e-07 9.15158e-06 0)
(-1.23342e-05 0.000338689 0)
(-5.91993e-06 4.20753e-05 0)
(-6.77179e-06 5.77157e-05 0)
(-7.57027e-06 7.53714e-05 0)
(1.13591e-05 0.000252199 0)
(1.07176e-05 0.000197977 0)
(7.40834e-07 0.000234491 0)
(6.89087e-07 0.000181347 0)
(-3.11163e-07 2.43155e-05 0)
(-5.93807e-07 0.000110197 0)
(-2.34743e-07 3.89939e-08 0)
(9.24933e-07 3.04296e-05 0)
(-1.85164e-06 0.000168491 0)
(-5.56472e-06 0.000106419 0)
(1.28882e-06 2.99811e-05 0)
(-2.60886e-06 0.000169388 0)
(-8.42753e-06 0.000320424 0)
(1.04288e-05 0.000119398 0)
(9.7161e-06 0.000118476 0)
(5.12552e-08 1.92646e-08 0)
(2.34489e-07 3.89437e-08 0)
(-1.63499e-05 0.000298156 0)
(-1.57286e-05 0.000299425 0)
(-1.53931e-05 0.000101031 0)
(1.73712e-05 0.000140769 0)
(1.39329e-05 0.000253104 0)
(1.31121e-05 0.000198812 0)
(-7.19893e-06 4.16506e-05 0)
(-8.26575e-06 5.72091e-05 0)
(-9.24664e-06 7.48e-05 0)
(-4.93627e-07 0.00030406 0)
(-6.06404e-06 2.82867e-05 0)
(1.35943e-05 0.00022557 0)
(1.2611e-05 0.000173067 0)
(8.33142e-06 0.000120651 0)
(7.04956e-06 0.000286674 0)
(1.10653e-05 0.00035781 0)
(1.11987e-06 9.01859e-06 0)
(-4.07593e-06 9.5343e-05 0)
(-9.50469e-09 3.32406e-06 0)
(1.59671e-07 5.06902e-08 0)
(3.94191e-06 0.000100628 0)
(3.39305e-06 9.95726e-05 0)
(-4.2679e-06 0.000141026 0)
(-3.65558e-06 0.000142073 0)
(7.57681e-06 7.53492e-05 0)
(6.77737e-06 5.76958e-05 0)
(5.90984e-06 4.20653e-05 0)
(-1.07276e-05 0.000197977 0)
(-1.14033e-05 0.000252231 0)
(-6.03593e-06 0.000350503 0)
(2.03042e-06 2.45415e-06 0)
(9.60567e-09 0.000201072 0)
(-1.42291e-08 4.02713e-05 0)
(8.0481e-06 0.000338161 0)
(6.54559e-06 0.000117662 0)
(-2.5461e-05 0.00033414 0)
(7.5228e-06 0.000121526 0)
(2.89057e-07 2.10293e-07 0)
(2.09642e-05 0.00027285 0)
(2.1085e-05 0.000271311 0)
(-1.27942e-05 0.000173287 0)
(-1.37913e-05 0.000225801 0)
(-1.1429e-05 0.000172848 0)
(-1.23232e-05 0.000225332 0)
(6.12426e-06 2.81829e-05 0)
(5.49157e-06 2.83697e-05 0)
(6.23713e-06 0.000159107 0)
(7.41749e-06 0.000158922 0)
(6.77272e-06 0.000210489 0)
(8.05755e-06 0.000210285 0)
(-3.40884e-06 3.53992e-05 0)
(-4.06119e-06 3.55149e-05 0)
(-7.10614e-07 1.58766e-05 0)
(3.60032e-06 1.01133e-05 0)
(3.37037e-06 9.76227e-06 0)
(3.43681e-06 7.38289e-06 0)
(6.02932e-06 0.000287912 0)
(-2.07776e-05 0.000273354 0)
(-2.08886e-05 0.000271756 0)
(7.74301e-06 2.08605e-05 0)
(7.58972e-06 2.02638e-05 0)
(1.64549e-05 0.000121705 0)
(1.66776e-05 0.000123077 0)
(-1.63183e-05 0.000118911 0)
(-1.64034e-05 0.000117562 0)
(7.45747e-06 0.00034535 0)
(-2.03893e-05 0.00034987 0)
(-1.95998e-05 0.000294317 0)
(4.53837e-06 5.09418e-06 0)
(-1.19723e-05 0.000345464 0)
(-1.06896e-05 0.000344275 0)
(5.07635e-06 0.000160937 0)
(-3.13048e-06 0.000144548 0)
(2.79515e-06 9.75072e-05 0)
(-1.39966e-05 0.00012216 0)
(1.37259e-05 0.000118338 0)
(-6.57711e-06 2.04964e-05 0)
(-1.91621e-07 1.20984e-07 0)
(1.03631e-06 4.18553e-06 0)
(1.26232e-06 0.000104088 0)
(-1.17738e-05 0.000104832 0)
(1.27083e-05 0.000136227 0)
(-6.77298e-06 9.53821e-05 0)
(8.08967e-06 0.000147093 0)
(4.10906e-06 0.000257067 0)
(5.66636e-06 0.000256511 0)
(-2.39215e-06 5.47826e-05 0)
(-3.30486e-06 5.51147e-05 0)
(-2.68496e-06 7.21e-05 0)
(-3.70772e-06 7.24709e-05 0)
(6.41998e-07 2.76907e-05 0)
(-1.36652e-06 0.000174056 0)
(-1.38542e-06 0.000226673 0)
(-2.2472e-06 0.000332515 0)
(3.14347e-06 7.3354e-06 0)
(-6.2507e-07 0.000140818 0)
(-9.67504e-06 0.000340891 0)
(1.29914e-06 1.03003e-06 0)
(8.66519e-06 0.000202041 0)
(-4.64673e-06 3.98273e-05 0)
(-1.46e-05 0.00014232 0)
(-1.37114e-05 0.000141605 0)
(1.27578e-05 9.95982e-05 0)
(1.20271e-05 0.000100207 0)
(-1.44956e-05 0.000355547 0)
(-1.46555e-05 0.000354015 0)
(-2.35701e-06 1.59767e-05 0)
(-2.79546e-06 1.59161e-05 0)
(1.13456e-06 4.38752e-06 0)
(-2.68097e-06 4.55444e-06 0)
(6.91572e-07 0.00014781 0)
(4.15714e-06 2.86973e-05 0)
(3.4965e-06 2.88806e-05 0)
(-8.59656e-06 0.000172087 0)
(-7.20594e-06 0.000171678 0)
(-9.27201e-06 0.000224523 0)
(-7.774e-06 0.000224085 0)
(-1.8806e-05 0.000284784 0)
(-1.74019e-05 0.000284898 0)
(-4.0964e-06 8.52802e-05 0)
(-3.7816e-06 6.66102e-05 0)
(-3.34442e-06 4.99043e-05 0)
(5.96191e-06 0.000265634 0)
(-1.00726e-06 0.000301093 0)
(1.23504e-05 0.000118222 0)
(1.1695e-05 0.000119256 0)
(5.49828e-06 0.0002296 0)
(5.2539e-06 0.000176734 0)
(-2.43887e-06 2.64427e-05 0)
(2.30418e-06 2.96244e-05 0)
(1.89685e-06 3.02043e-05 0)
(-4.25393e-06 0.000221237 0)
(-5.063e-06 0.000222385 0)
(-4.68488e-06 0.000170126 0)
(-3.81623e-06 0.000168955 0)
(-4.85548e-06 2.71456e-05 0)
(1.03276e-05 0.000175367 0)
(1.11175e-05 0.000228052 0)
(-1.30108e-07 1.23402e-06 0)
(1.83716e-05 0.000135028 0)
(-1.68383e-05 0.000106248 0)
(-7.27982e-08 1.14775e-06 0)
(-5.5404e-06 0.000253052 0)
(-6.49918e-06 0.000254452 0)
(-5.07883e-06 0.000198862 0)
(-5.94924e-06 0.000200188 0)
(3.219e-06 4.08041e-05 0)
(2.77385e-06 4.15247e-05 0)
(3.81193e-06 5.63302e-05 0)
(3.27276e-06 5.71542e-05 0)
(4.26953e-06 7.38307e-05 0)
(3.66149e-06 7.47529e-05 0)
(2.07608e-05 0.000285339 0)
(2.11473e-05 0.000286798 0)
(-1.91598e-06 9.39483e-06 0)
(7.79311e-06 0.000203053 0)
(-4.14815e-06 3.92741e-05 0)
(6.74316e-06 3.10122e-05 0)
(-1.33482e-05 0.000167612 0)
(-1.4437e-05 0.00021968 0)
(-1.8657e-07 5.65847e-08 0)
(2.70859e-06 0.000297447 0)
(6.65685e-06 2.95786e-05 0)
(-1.35353e-05 0.000170466 0)
(-1.46275e-05 0.000222717 0)
(5.02935e-06 8.57991e-06 0)
(-1.02315e-05 0.000322545 0)
(6.38091e-06 2.35793e-05 0)
(-1.61624e-05 0.00026448 0)
(-3.39827e-06 1.26353e-05 0)
(-3.62607e-06 1.31014e-05 0)
(3.564e-06 1.29645e-05 0)
(-1.73389e-06 0.000140598 0)
(-1.31581e-08 -9.68431e-09 0)
(-1.08654e-05 0.00035359 0)
(-1.67299e-07 6.63697e-08 0)
(1.86055e-07 5.64378e-08 0)
(-4.9858e-06 2.86457e-05 0)
(1.10948e-05 0.00022469 0)
(1.02869e-05 0.000172245 0)
(8.55436e-06 0.000297918 0)
(-2.45149e-05 0.000319767 0)
(3.1477e-06 0.000131532 0)
(-2.00738e-06 0.000128065 0)
(-5.43234e-07 1.32239e-05 0)
(-1.52762e-06 1.58552e-06 0)
(-9.4993e-09 -8.55446e-09 0)
(-6.07476e-06 9.62799e-05 0)
(7.25317e-06 0.000146055 0)
(5.18767e-07 1.81446e-07 0)
(-8.0143e-07 0.000126164 0)
(-7.55485e-07 0.000124935 0)
(-9.92866e-09 0.000105761 0)
(-1.38802e-07 2.67817e-05 0)
(2.84406e-07 0.000175967 0)
(2.56615e-07 0.00022889 0)
(-5.20826e-07 1.82175e-07 0)
(2.1593e-06 1.43103e-05 0)
(-8.45314e-06 0.000260143 0)
(4.81072e-06 5.30353e-05 0)
(5.41352e-06 7.01336e-05 0)
(5.96334e-06 8.91433e-05 0)
(1.78066e-05 0.000339328 0)
(-6.45963e-06 2.5611e-05 0)
(1.5267e-05 0.000231761 0)
(1.42118e-05 0.000178827 0)
(-1.00742e-05 0.000312866 0)
(1.44618e-06 3.65761e-06 0)
(1.36152e-05 0.000307021 0)
(-2.86245e-06 4.48566e-06 0)
(9.54433e-06 0.000340684 0)
(-7.28519e-06 0.000260172 0)
(4.14276e-06 5.3012e-05 0)
(4.66208e-06 7.01091e-05 0)
(5.139e-06 8.91114e-05 0)
(1.26339e-06 3.46545e-06 0)
(6.29015e-06 0.000208239 0)
(-3.22156e-06 3.65411e-05 0)
(-1.08557e-06 1.42499e-05 0)
(-1.78414e-05 0.00030812 0)
(-6.59039e-06 8.01115e-05 0)
(-5.92656e-06 6.19694e-05 0)
(-5.2048e-06 4.58131e-05 0)
(8.99634e-06 0.000191345 0)
(9.59605e-06 0.000245168 0)
(2.45333e-05 0.000359737 0)
(1.42908e-05 0.000315478 0)
(1.58424e-05 0.000314933 0)
(1.9529e-07 1.35714e-07 0)
(8.84355e-06 9.57383e-05 0)
(-1.03562e-05 0.000146657 0)
(-4.48628e-06 9.71155e-05 0)
(5.28226e-06 0.000145116 0)
(-1.50785e-06 0.000156405 0)
(-1.14402e-06 0.000254715 0)
(7.41679e-07 7.36378e-05 0)
(6.61963e-07 5.61548e-05 0)
(4.51311e-08 3.94361e-05 0)
(-2.3928e-07 0.000151954 0)
(-9.99028e-08 0.000202677 0)
(1.12387e-05 0.000359249 0)
(6.31612e-07 1.46794e-05 0)
(-2.69064e-07 3.37319e-06 0)
(2.16381e-06 0.000215265 0)
(1.08202e-07 3.48906e-06 0)
(-1.62958e-06 1.09499e-05 0)
(4.12054e-06 3.93403e-05 0)
(-7.82046e-06 0.00020292 0)
(-1.52217e-07 1.66093e-07 0)
(-1.6524e-05 0.000307975 0)
(-1.35545e-06 2.62673e-05 0)
(2.95007e-06 0.00023012 0)
(2.92328e-06 0.00017708 0)
(3.64811e-07 8.74499e-08 0)
(-4.81676e-06 8.72096e-06 0)
(5.39144e-06 7.18835e-05 0)
(4.80202e-06 5.45939e-05 0)
(-8.31298e-06 0.00025744 0)
(1.61505e-06 0.00010013 0)
(-1.11742e-05 0.000349016 0)
(-1.83118e-07 2.5651e-08 0)
(-6.31556e-06 1.36685e-05 0)
(4.09053e-06 7.50809e-06 0)
(-4.10886e-06 4.48469e-06 0)
(1.24355e-05 0.000120405 0)
(9.46953e-06 0.000146685 0)
(-8.08743e-06 9.57048e-05 0)
(5.84762e-07 3.90311e-05 0)
(-1.33899e-06 0.000152535 0)
(-1.11955e-06 0.000203437 0)
(1.19117e-05 0.000303513 0)
(1.10583e-05 0.00013197 0)
(5.78111e-06 0.000351727 0)
(5.56985e-06 0.000353046 0)
(1.62055e-06 0.000145995 0)
(2.20064e-06 9.93747e-05 0)
(1.82908e-07 2.56156e-08 0)
(-1.59694e-05 0.000275048 0)
(5.73348e-06 1.95477e-05 0)
(1.99541e-08 2.6538e-07 0)
(3.07212e-06 0.00019601 0)
(4.01056e-06 0.000196694 0)
(5.35423e-09 2.30154e-08 0)
(-2.99662e-06 7.26188e-06 0)
(7.54537e-06 7.30964e-05 0)
(6.73076e-06 5.56815e-05 0)
(5.85054e-06 4.02448e-05 0)
(-1.08656e-05 0.000201086 0)
(-1.15322e-05 0.000255636 0)
(1.00521e-05 0.000125554 0)
(1.48778e-06 0.000297768 0)
(-6.49693e-06 0.000335996 0)
(-6.15042e-06 0.000337778 0)
(-6.15415e-07 0.000258867 0)
(-5.25693e-07 0.000260298 0)
(4.4927e-07 5.28911e-05 0)
(4.10593e-07 5.36785e-05 0)
(5.05688e-07 6.99778e-05 0)
(4.61605e-07 7.08626e-05 0)
(3.37679e-07 8.89698e-05 0)
(4.01846e-07 8.99175e-05 0)
(8.04712e-07 0.000146486 0)
(1.46631e-06 0.000148855 0)
(2.54332e-06 0.000227427 0)
(-6.28446e-07 0.000156019 0)
(-3.65302e-07 8.75832e-08 0)
(-4.07945e-07 3.21637e-06 0)
(5.54193e-06 0.000207126 0)
(-2.86311e-06 3.71108e-05 0)
(1.43971e-06 4.47168e-06 0)
(2.16101e-05 0.000341004 0)
(-1.63216e-06 0.000261441 0)
(1.02111e-06 5.22923e-05 0)
(1.15029e-06 6.93043e-05 0)
(1.13711e-06 8.81867e-05 0)
(-1.64893e-05 0.000286264 0)
(5.67792e-06 0.000101764 0)
(8.43811e-06 0.000362054 0)
(9.5404e-06 0.000361244 0)
(-1.61979e-06 1.12922e-05 0)
(-1.03489e-06 0.00020001 0)
(5.52803e-07 4.08492e-05 0)
(2.4004e-07 2.42332e-07 0)
(2.12047e-05 0.000350669 0)
(-2.82495e-07 5.69508e-06 0)
(-3.94752e-06 5.9393e-05 0)
(-4.40352e-06 7.72496e-05 0)
(-5.27151e-06 7.80665e-05 0)
(-4.73004e-06 6.01279e-05 0)
(-3.41269e-06 4.35297e-05 0)
(-4.13003e-06 4.41921e-05 0)
(7.01844e-06 0.00019407 0)
(7.47978e-06 0.000248084 0)
(2.99356e-06 4.058e-06 0)
(-1.91745e-07 1.15938e-07 0)
(-1.82656e-05 0.000236677 0)
(-1.90331e-05 0.00034995 0)
(6.21784e-06 0.000148738 0)
(-5.22049e-07 5.82822e-06 0)
(-9.87112e-06 0.000193716 0)
(-1.05146e-05 0.000247693 0)
(5.60414e-06 4.44631e-05 0)
(6.39711e-06 6.0431e-05 0)
(7.12691e-06 7.83997e-05 0)
(9.19115e-06 0.000298913 0)
(2.08512e-05 0.00035192 0)
(-1.11723e-05 0.000121493 0)
(4.58862e-06 3.98168e-05 0)
(-8.6735e-06 0.000202033 0)
(5.95034e-06 0.000149903 0)
(-2.23739e-06 0.000106594 0)
(5.97031e-06 7.25004e-05 0)
(5.32179e-06 5.51454e-05 0)
(-9.16452e-06 0.000256508 0)
(-1.66161e-05 0.0001229 0)
(1.62287e-05 0.000117806 0)
(1.62294e-05 0.000119129 0)
(-1.63967e-05 0.000121495 0)
(-7.59863e-06 2.02516e-05 0)
(-7.82217e-06 2.08845e-05 0)
(-7.70017e-06 0.000119108 0)
(-3.87289e-06 4.5921e-06 0)
(-1.24657e-05 0.000120029 0)
(-1.81352e-06 0.000287933 0)
(-1.58243e-06 1.88287e-06 0)
(1.25073e-05 6.97673e-05 0)
(1.111e-05 5.27342e-05 0)
(-1.76993e-05 0.000180184 0)
(2.85765e-06 7.25447e-05 0)
(2.54743e-06 5.51798e-05 0)
(-4.39246e-06 0.000256391 0)
(5.81701e-06 1.74562e-05 0)
(9.79391e-06 0.00014549 0)
(-8.42403e-06 9.67399e-05 0)
(-4.57056e-06 5.11662e-06 0)
(5.04731e-06 0.000228342 0)
(4.81966e-06 0.000175611 0)
(-2.26257e-06 2.69671e-05 0)
(1.46065e-05 0.000215549 0)
(-7.06568e-06 3.29949e-05 0)
(1.34717e-05 0.000163797 0)
(-8.03769e-06 1.99817e-05 0)
(1.03036e-05 0.000336674 0)
(1.1815e-05 0.000336181 0)
(1.1381e-05 0.000255644 0)
(1.07809e-05 0.000201107 0)
(-5.82002e-06 4.03597e-05 0)
(-6.66186e-06 5.56745e-05 0)
(-7.468e-06 7.3089e-05 0)
(-1.66645e-06 1.63204e-06 0)
(-9.01386e-06 0.000312545 0)
(9.86823e-06 0.000198863 0)
(-5.41007e-06 4.15766e-05 0)
(-1.01262e-06 1.25225e-06 0)
(8.44256e-06 0.000340462 0)
(2.01425e-06 1.64447e-06 0)
(1.67027e-06 1.24657e-06 0)
(4.24276e-06 6.00604e-06 0)
(1.02031e-05 0.00027338 0)
(-1.72326e-05 0.000280944 0)
(2.29785e-05 0.000341441 0)
(4.29752e-06 6.31442e-06 0)
(1.00708e-05 0.000131929 0)
(1.3842e-05 0.000289952 0)
(-2.21941e-05 0.00027409 0)
(8.05662e-06 2.00269e-05 0)
(-5.08266e-06 0.000291782 0)
(2.07344e-06 7.27714e-05 0)
(1.84887e-06 5.53815e-05 0)
(-3.18632e-06 0.000256039 0)
(-7.53031e-07 3.60454e-06 0)
(5.89641e-06 0.000156989 0)
(1.6584e-07 6.58195e-08 0)
(-6.67653e-06 1.35364e-05 0)
(-1.18273e-06 0.000128867 0)
(-2.99224e-06 2.46286e-05 0)
(-3.4835e-06 2.4792e-05 0)
(6.70945e-06 0.000180729 0)
(7.78669e-06 0.000180391 0)
(8.35763e-06 0.000233455 0)
(7.20014e-06 0.000233819 0)
(1.96329e-07 7.22356e-07 0)
(-4.70148e-08 9.11034e-06 0)
(-1.20112e-05 0.000162264 0)
(-1.30359e-05 0.000213891 0)
(6.37348e-06 3.37788e-05 0)
(-3.73187e-06 2.00621e-05 0)
(-2.2426e-06 0.00021996 0)
(-3.37248e-06 8.5661e-06 0)
(7.06427e-06 0.000337215 0)
(-5.64584e-06 0.000109638 0)
(-6.54361e-06 0.00010936 0)
(1.91419e-07 1.91786e-07 0)
(-3.73702e-06 0.000113419 0)
(-1.87902e-06 2.26491e-05 0)
(4.4066e-06 0.000185187 0)
(4.7169e-06 0.000238598 0)
(-5.2617e-06 0.000219997 0)
(-4.62489e-06 0.000167819 0)
(2.32381e-06 3.0783e-05 0)
(3.07388e-06 1.15087e-05 0)
(2.85487e-06 1.10889e-05 0)
(1.51949e-06 0.000109316 0)
(-1.95123e-06 0.000233369 0)
(-1.82636e-06 0.000180278 0)
(8.09719e-07 2.47972e-05 0)
(-1.77915e-06 4.28363e-05 0)
(-3.17599e-06 8.80604e-06 0)
(1.31456e-05 0.000345175 0)
(-1.27867e-05 0.00020586 0)
(9.83677e-06 9.63556e-05 0)
(-1.14711e-05 0.000145961 0)
(1.40111e-05 0.000291267 0)
(-1.27808e-05 8.85151e-05 0)
(-1.16194e-05 6.95577e-05 0)
(1.57096e-05 0.00015544 0)
(-1.03183e-05 5.2544e-05 0)
(-8.9099e-06 3.76047e-05 0)
(1.71739e-05 0.000206507 0)
(1.81638e-05 0.000261281 0)
(-4.69798e-06 0.000249958 0)
(-4.41644e-06 0.000195837 0)
(2.81834e-06 5.90073e-05 0)
(2.46363e-06 4.32071e-05 0)
(3.14546e-06 7.68215e-05 0)
(2.69604e-06 5.98613e-05 0)
(-4.46143e-06 0.000248549 0)
(3.00568e-06 7.77732e-05 0)
(2.36021e-06 4.3955e-05 0)
(-4.19129e-06 0.000194513 0)
(-2.47119e-06 0.000317481 0)
(-4.94445e-06 6.44442e-06 0)
(-5.39694e-06 3.04909e-05 0)
(1.16245e-05 0.000220692 0)
(1.07535e-05 0.000168542 0)
(-3.3937e-06 4.11301e-05 0)
(6.26499e-06 0.00019963 0)
(1.72418e-05 0.000247664 0)
(1.61858e-05 0.000193703 0)
(-9.22016e-06 4.4582e-05 0)
(-1.0523e-05 6.05473e-05 0)
(-1.17216e-05 7.85134e-05 0)
(1.81681e-05 0.000270446 0)
(1.98278e-05 0.000270101 0)
(4.40047e-07 7.76912e-06 0)
(-1.81141e-06 0.000126743 0)
(-4.80087e-06 1.31928e-05 0)
(2.44898e-07 4.49771e-07 0)
(-4.73027e-06 1.67747e-05 0)
(-7.5227e-07 0.000288511 0)
(1.99941e-07 7.43365e-06 0)
(-3.96041e-06 0.000135889 0)
(1.64525e-05 0.000180292 0)
(-7.37044e-06 2.50034e-05 0)
(1.76588e-05 0.000233327 0)
(-1.61248e-08 -1.11759e-08 0)
(1.11449e-06 0.000215472 0)
(3.06951e-07 1.28733e-07 0)
(2.09567e-07 1.53201e-07 0)
(2.93079e-06 0.000154452 0)
(-3.50192e-07 2.80547e-07 0)
(1.3434e-05 0.000347769 0)
(1.01649e-06 0.000196638 0)
(-5.21313e-07 4.27054e-05 0)
(2.89045e-06 1.70762e-05 0)
(1.86103e-06 0.000196022 0)
(-1.02004e-06 4.30194e-05 0)
(-1.70711e-07 3.75455e-06 0)
(-1.24782e-05 6.97309e-05 0)
(-1.10834e-05 5.27019e-05 0)
(-9.57196e-06 3.77523e-05 0)
(-7.94091e-06 2.50648e-05 0)
(1.77089e-05 0.000180224 0)
(1.84173e-05 0.000206279 0)
(1.90078e-05 0.000233249 0)
(1.94862e-05 0.000261042 0)
(-8.60396e-06 0.000281779 0)
(-7.64302e-06 0.00033534 0)
(-2.47363e-05 0.000276602 0)
(8.78455e-06 1.9176e-05 0)
(5.66811e-06 0.000355615 0)
(6.59038e-06 0.000354075 0)
(1.77139e-06 0.000191649 0)
(1.92131e-06 0.000245526 0)
(-1.33583e-06 7.99071e-05 0)
(-1.20106e-06 6.17788e-05 0)
(-1.05457e-06 4.56379e-05 0)
(-6.97662e-06 2.00339e-05 0)
(2.54401e-06 1.43391e-05 0)
(-9.52571e-06 8.37448e-05 0)
(1.26868e-05 0.000186496 0)
(-8.59882e-06 6.52532e-05 0)
(-7.58985e-06 4.87164e-05 0)
(1.35688e-05 0.000239984 0)
(-5.30304e-06 2.22131e-05 0)
(1.37424e-05 0.000268 0)
(2.31615e-06 0.000121353 0)
(-1.42262e-06 0.000299568 0)
(1.38218e-06 6.87222e-07 0)
(-1.03848e-06 0.000262833 0)
(6.8011e-07 5.15079e-05 0)
(7.67019e-07 6.84214e-05 0)
(7.16022e-07 8.72115e-05 0)
(4.31365e-06 0.00031042 0)
(-5.72712e-07 3.6018e-07 0)
(2.17959e-05 0.00030542 0)
(-3.24842e-06 0.000128681 0)
(-9.63976e-08 2.04404e-07 0)
(7.79789e-06 0.000183571 0)
(-3.37781e-06 2.33792e-05 0)
(8.35424e-06 0.000236864 0)
(1.67188e-07 1.29148e-07 0)
(-4.54084e-06 2.82389e-05 0)
(9.44295e-06 0.000173055 0)
(1.01796e-05 0.000225565 0)
(1.56545e-06 2.03163e-06 0)
(-6.59099e-06 0.00011208 0)
(1.41113e-06 0.000119904 0)
(-1.50645e-05 0.000326541 0)
(1.40358e-06 0.000192701 0)
(1.49655e-06 0.000246621 0)
(-1.12635e-06 7.91315e-05 0)
(-8.85619e-07 4.50278e-05 0)
(-1.01184e-06 6.10807e-05 0)
(2.24387e-06 0.000122258 0)
(-3.06546e-07 1.15583e-06 0)
(-2.70526e-07 3.95221e-06 0)
(6.79094e-07 0.000288038 0)
(1.48172e-05 0.000131537 0)
(-1.386e-05 0.000109371 0)
(-1.05679e-05 0.00036561 0)
(-2.40046e-05 0.000238324 0)
(-2.24285e-05 0.000184974 0)
(-2.32876e-05 0.000211197 0)
(-2.14239e-05 0.000159816 0)
(1.16549e-05 3.53566e-05 0)
(1.3578e-05 4.98977e-05 0)
(1.53533e-05 6.65506e-05 0)
(1.69829e-05 8.5148e-05 0)
(2.39912e-05 0.000238321 0)
(2.32737e-05 0.000211196 0)
(-1.1663e-05 3.5357e-05 0)
(-1.35864e-05 4.98987e-05 0)
(2.24132e-05 0.000184973 0)
(-1.5363e-05 6.65515e-05 0)
(2.14108e-05 0.000159815 0)
(-1.69938e-05 8.51489e-05 0)
(-6.71394e-06 1.94708e-05 0)
(-3.70778e-06 0.000298927 0)
(-2.63915e-06 0.00029864 0)
(-3.28871e-06 0.000338786 0)
(5.49424e-06 0.000204553 0)
(-2.89448e-06 3.84583e-05 0)
(-1.02931e-06 1.50392e-06 0)
(-4.2601e-06 0.000358155 0)
(-4.64991e-06 7.62218e-05 0)
(-5.69865e-06 7.59329e-05 0)
(-4.16355e-06 5.84715e-05 0)
(-5.10089e-06 5.82144e-05 0)
(6.96105e-06 0.000251299 0)
(8.35823e-06 0.000251417 0)
(1.8351e-05 0.000247016 0)
(1.72215e-05 0.000193098 0)
(-9.85368e-06 4.49519e-05 0)
(-1.12382e-05 6.09648e-05 0)
(-1.25118e-05 7.89745e-05 0)
(-1.10689e-05 0.00016284 0)
(-1.20088e-05 0.000214519 0)
(5.84124e-06 3.34541e-05 0)
(-3.46836e-06 0.000145712 0)
(2.95807e-06 9.65165e-05 0)
(3.63322e-06 0.000258459 0)
(-2.09003e-06 5.38882e-05 0)
(-2.34892e-06 7.10971e-05 0)
(-2.54839e-06 9.00155e-05 0)
(6.83016e-06 9.53581e-05 0)
(5.78945e-06 9.56036e-05 0)
(-8.02051e-06 0.000147057 0)
(-6.78919e-06 0.000146753 0)
(-8.09131e-06 0.000355461 0)
(5.35004e-07 1.44358e-06 0)
(1.34995e-05 0.000305756 0)
(4.84894e-06 0.000106007 0)
(1.32247e-05 0.000210971 0)
(-6.62908e-06 3.52365e-05 0)
(1.21633e-05 0.000159574 0)
(-1.12748e-05 0.000127293 0)
(2.71712e-06 2.66303e-05 0)
(-6.30482e-06 0.000229109 0)
(-5.86163e-06 0.000176344 0)
(7.95569e-07 0.000110333 0)
(-9.64285e-07 0.00018149 0)
(-1.02751e-06 0.000234664 0)
(4.18651e-07 2.42515e-05 0)
(7.60515e-06 9.9846e-05 0)
(-8.67116e-06 0.000141857 0)
(-4.15187e-06 0.000317476 0)
(-1.92838e-05 0.000314424 0)
(3.45288e-06 0.000135272 0)
(8.65127e-06 0.000135701 0)
(-6.91746e-06 2.58776e-05 0)
(1.62653e-05 0.000231184 0)
(1.51364e-05 0.000178292 0)
(-7.60341e-07 3.20321e-06 0)
(-2.5967e-06 0.00026467 0)
(1.44682e-06 5.04669e-05 0)
(1.63446e-06 6.72476e-05 0)
(1.79388e-06 8.59279e-05 0)
(-3.96576e-06 0.000128047 0)
(-1.78737e-05 0.00031453 0)
(-5.0929e-06 5.05288e-05 0)
(-5.75295e-06 6.73106e-05 0)
(-6.33704e-06 8.60316e-05 0)
(9.13201e-06 0.000264578 0)
(1.61816e-08 2.07929e-08 0)
(1.11901e-05 0.000126265 0)
(1.44427e-07 9.71473e-06 0)
(-5.19612e-07 8.95728e-07 0)
(-1.08148e-06 4.14979e-06 0)
(-5.21236e-06 1.78958e-05 0)
(-5.29964e-07 1.94429e-07 0)
(2.19851e-06 5.70939e-05 0)
(1.92417e-06 4.15056e-05 0)
(2.45979e-06 7.4687e-05 0)
(-3.72832e-06 0.000253139 0)
(-3.52749e-06 0.00019888 0)
(-1.08366e-05 0.000104604 0)
(1.17901e-05 0.000136524 0)
(-1.05118e-06 6.14459e-07 0)
(1.43519e-05 0.00033679 0)
(1.03561e-05 0.000301127 0)
(-2.20122e-05 0.000283338 0)
(8.14788e-06 0.000134644 0)
(2.94751e-06 0.000146333 0)
(-5.53031e-06 0.000357993 0)
(-1.5387e-05 0.000153368 0)
(-1.46352e-05 0.000152686 0)
(2.17626e-05 0.000357886 0)
(-1.72643e-06 0.000319067 0)
(-4.84784e-06 9.61241e-05 0)
(5.86669e-06 0.000146304 0)
(1.78453e-07 1.00572e-05 0)
(2.64014e-06 3.53881e-06 0)
(5.26983e-07 1.93317e-07 0)
(5.18968e-06 0.000155956 0)
(1.9182e-05 0.000365265 0)
(-1.04903e-05 0.000253182 0)
(-9.86541e-06 0.000198875 0)
(5.39679e-06 4.15571e-05 0)
(6.93898e-06 7.47058e-05 0)
(6.20201e-06 5.71183e-05 0)
(-1.9308e-07 1.33949e-07 0)
(-7.73749e-07 0.000332171 0)
(9.80852e-06 0.000136104 0)
(-8.88869e-06 0.000105139 0)
(-1.57244e-05 0.000324076 0)
(-2.34796e-05 0.000239553 0)
(-2.27832e-05 0.000212382 0)
(-2.19528e-05 0.000186119 0)
(-2.09767e-05 0.00016091 0)
(1.12988e-05 3.47466e-05 0)
(1.31845e-05 4.91909e-05 0)
(1.49254e-05 6.5754e-05 0)
(1.65241e-05 8.42689e-05 0)
(2.3464e-05 0.000239544 0)
(2.27695e-05 0.000212382 0)
(-1.13062e-05 3.47493e-05 0)
(-1.31916e-05 4.91938e-05 0)
(2.19348e-05 0.000186115 0)
(-1.49336e-05 6.5757e-05 0)
(2.09618e-05 0.000160905 0)
(-1.65331e-05 8.42722e-05 0)
(-3.35883e-06 4.47723e-06 0)
(1.32036e-06 1.22863e-06 0)
(-1.76716e-06 3.20759e-06 0)
(8.73307e-06 0.000133525 0)
(-9.56447e-06 0.000137519 0)
(1.68594e-06 2.00991e-06 0)
(-2.60396e-07 4.34612e-08 0)
(-2.11668e-05 0.000284025 0)
(1.2139e-05 0.000361566 0)
(1.36213e-05 0.000362251 0)
(2.60189e-07 4.3421e-08 0)
(3.80186e-06 5.02714e-06 0)
(1.90036e-05 0.000328997 0)
(-7.19131e-06 0.00015214 0)
(-4.62018e-07 4.0037e-07 0)
(-1.04726e-06 1.61016e-06 0)
(-1.63261e-07 4.16788e-08 0)
(3.06501e-07 2.35754e-07 0)
(1.95709e-05 0.000121064 0)
(-1.95048e-05 0.000119653 0)
(5.99681e-06 9.11109e-05 0)
(-7.3704e-06 0.000149338 0)
(6.22744e-06 9.34671e-05 0)
(-3.14896e-07 5.35961e-06 0)
(-4.54417e-06 0.000239502 0)
(3.60303e-06 0.000114173 0)
(-2.5311e-06 0.000236886 0)
(-2.41893e-06 0.000183452 0)
(1.03919e-06 2.3391e-05 0)
(1.98453e-06 0.000112088 0)
(-8.02155e-06 0.000151359 0)
(4.05211e-06 5.32748e-06 0)
(6.71646e-06 9.18037e-05 0)
(2.50944e-06 0.00013548 0)
(1.9098e-05 0.000339811 0)
(-5.78698e-06 0.000136605 0)
(-6.65547e-06 0.00013754 0)
(-5.32789e-06 1.13168e-05 0)
(-6.45499e-06 0.000141939 0)
(-5.5186e-06 0.000140948 0)
(5.75183e-06 9.96805e-05 0)
(5.05404e-06 0.00010067 0)
(-5.99765e-06 2.76438e-05 0)
(1.26356e-05 0.000174405 0)
(1.36098e-05 0.000227012 0)
(-1.64304e-06 1.81322e-06 0)
(-8.03612e-06 0.000150137 0)
(6.76375e-06 9.2835e-05 0)
(-5.12467e-06 0.000193507 0)
(-5.45911e-06 0.000247478 0)
(2.9097e-06 4.45345e-05 0)
(3.69898e-06 7.85063e-05 0)
(3.32067e-06 6.05206e-05 0)
(-2.62935e-06 1.22254e-05 0)
(-1.68243e-05 0.00020414 0)
(-1.59424e-05 0.000203491 0)
(8.83165e-06 3.88309e-05 0)
(8.40183e-06 3.91696e-05 0)
(1.10949e-05 0.000161787 0)
(1.21967e-05 0.000160985 0)
(-5.92691e-06 3.40159e-05 0)
(-6.56359e-06 3.44689e-05 0)
(1.20456e-05 0.000213377 0)
(1.32487e-05 0.000212503 0)
(-4.83185e-06 0.000316306 0)
(9.68215e-06 0.000288702 0)
(9.82132e-06 0.000287347 0)
(-7.1134e-06 9.34757e-05 0)
(8.39661e-06 0.000149301 0)
(-2.53537e-05 0.000352603 0)
(-7.29128e-06 0.000280971 0)
(-7.00173e-06 0.000279646 0)
(2.40804e-06 1.77946e-05 0)
(2.47444e-06 1.73394e-05 0)
(2.19098e-05 0.000284113 0)
(-9.64479e-06 0.000120137 0)
(-8.27878e-06 0.000120179 0)
(2.16773e-05 0.000320988 0)
(-2.18978e-05 0.000338466 0)
(-2.18694e-05 0.000340086 0)