/*--------------------------------*- C++ -*----------------------------------*\
| =========                 |                                                 |
| \\      /  F ield         | OpenFOAM: The Open Source CFD Toolbox           |
|  \\    /   O peration     | Version:  2.3.1                                 |
|   \\  /    A nd           | Web:      www.OpenFOAM.org                      |
|    \\/     M anipulation  |                                                 |
\*---------------------------------------------------------------------------*/
FoamFile
{
    version     2.0;
    format      ascii;
    class       volScalarField;
    location    "0.96";
    object      nut;
}
// * * * * * * * * * * * * * * * * * * * * * * * * * * * * * * * * * * * * * //

dimensions      [0 2 -1 0 0 0 0];

internalField   nonuniform List<scalar> 
1000
(
0.000518708
0.000524522
0.000524748
0.000524746
0.000524745
0.000524743
0.000524742
0.00052474
0.000524713
0.000524188
0.000524893
0.000527415
0.000527649
0.000527664
0.000527665
0.000527666
0.000527661
0.000527648
0.000527422
0.000524712
0.000525753
0.000528398
0.000528678
0.0005287
0.000528706
0.000528704
0.000528698
0.000528676
0.000528402
0.000525286
0.000526598
0.0005295
0.000529822
0.000529863
0.000529875
0.000529875
0.000529861
0.000529826
0.000529513
0.000526145
0.000527005
0.000530455
0.000530836
0.000530887
0.000530902
0.000530902
0.00053089
0.000530845
0.000530484
0.000526571
0.000524782
0.000526658
0.000526861
0.000526885
0.000526891
0.000526894
0.000526894
0.000526887
0.000526714
0.000524675
0.000526937
0.00101746
0.00106897
0.00107188
0.00107205
0.00107211
0.00107214
0.00107005
0.00102139
0.000526694
0.000527642
0.00108279
0.00114589
0.00114944
0.0011496
0.00114962
0.00114954
0.00114671
0.00108675
0.000527391
0.000528384
0.00108834
0.00115288
0.00115653
0.0011567
0.0011567
0.0011566
0.00115364
0.00109208
0.000528136
0.000528945
0.00109189
0.00115852
0.00116253
0.00116279
0.0011628
0.0011626
0.0011593
0.00109562
0.000528704
0.000525474
0.000527245
0.000527457
0.00052748
0.000527488
0.00052749
0.000527491
0.000527482
0.000527287
0.000525089
0.000527437
0.00106991
0.00113067
0.00113409
0.00113425
0.0011343
0.0011343
0.00113171
0.00107407
0.000527205
0.000528061
0.00114296
0.00121827
0.00122264
0.00122283
0.00122283
0.00122273
0.00121923
0.00114761
0.000527842
0.000528683
0.00114846
0.00122544
0.00122994
0.00123014
0.00123014
0.00123002
0.00122636
0.001153
0.000528462
0.000529328
0.00114939
0.0012279
0.00123265
0.00123291
0.00123291
0.00123273
0.00122883
0.0011539
0.00052911
0.000525793
0.000527561
0.00052777
0.000527791
0.000527798
0.000527801
0.000527801
0.000527792
0.000527593
0.000525383
0.000527711
0.00107727
0.00113897
0.00114238
0.00114253
0.00114256
0.00114253
0.00113985
0.00108102
0.000527478
0.00052827
0.00114709
0.00122301
0.0012274
0.00122758
0.00122759
0.00122748
0.00122394
0.00115159
0.000528053
0.000528802
0.00115199
0.00122937
0.0012339
0.00123409
0.00123409
0.00123397
0.00123029
0.00115649
0.000528584
0.000529464
0.00115211
0.0012304
0.00123504
0.00123526
0.00123526
0.00123511
0.00123132
0.00115658
0.000529245
0.000525968
0.000527737
0.000527944
0.000527963
0.000527969
0.000527971
0.000527972
0.00052796
0.000527761
0.00052554
0.000527874
0.00108246
0.00114476
0.0011482
0.00114835
0.00114838
0.00114832
0.00114556
0.00108599
0.000527633
0.00052839
0.00114819
0.00122402
0.00122839
0.00122857
0.00122858
0.00122847
0.00122492
0.00115256
0.00052817
0.000528882
0.00115251
0.00122949
0.00123397
0.00123416
0.00123417
0.00123404
0.00123039
0.00115691
0.00052866
0.000529531
0.00115264
0.00123001
0.00123453
0.00123474
0.00123474
0.0012346
0.00123091
0.00115702
0.000529309
0.000525995
0.000527839
0.000528052
0.000528072
0.000528078
0.000528081
0.000528079
0.000528066
0.000527858
0.000525559
0.000527914
0.00108603
0.00114879
0.00115224
0.00115238
0.00115239
0.0011523
0.00114948
0.00108938
0.000527669
0.000528436
0.00114889
0.00122465
0.00122902
0.0012292
0.0012292
0.00122909
0.00122553
0.00115315
0.000528212
0.000528935
0.00115284
0.00122953
0.00123398
0.00123417
0.00123417
0.00123405
0.00123042
0.00115716
0.000528712
0.000529597
0.00115329
0.00123001
0.00123447
0.00123466
0.00123467
0.00123453
0.00123089
0.00115757
0.00052937
0.00052588
0.000527929
0.000528161
0.000528183
0.000528191
0.000528192
0.00052819
0.000528171
0.000527946
0.000525439
0.000527839
0.0010866
0.0011494
0.00115287
0.00115301
0.00115302
0.00115293
0.00115009
0.00108991
0.000527587
0.000528411
0.00114882
0.00122445
0.00122881
0.00122899
0.00122899
0.00122888
0.00122532
0.00115304
0.000528183
0.000528992
0.0011526
0.00122907
0.00123351
0.0012337
0.00123371
0.00123358
0.00122996
0.00115687
0.000528761
0.000529713
0.00115306
0.0012295
0.00123394
0.00123415
0.00123415
0.00123401
0.00123037
0.00115729
0.000529482
0.000525619
0.000527853
0.000528102
0.000528129
0.000528136
0.000528139
0.000528132
0.000528113
0.000527868
0.000525174
0.000527626
0.00108261
0.00114452
0.00114793
0.00114807
0.00114807
0.00114798
0.00114519
0.00108583
0.000527371
0.000528296
0.00114262
0.00121671
0.00122094
0.0012211
0.0012211
0.001221
0.00121755
0.00114669
0.000528059
0.00052899
0.0011447
0.00121917
0.0012234
0.00122355
0.00122355
0.00122346
0.00122
0.00114879
0.000528753
0.000529852
0.0011424
0.00121601
0.00122014
0.00122027
0.00122027
0.00122019
0.00121681
0.00114639
0.000529609
0.000525189
0.000527358
0.00052759
0.000527615
0.000527625
0.000527624
0.00052762
0.000527596
0.000527369
0.00052474
0.000527119
0.00101651
0.00106681
0.0010694
0.00106945
0.00106944
0.00106941
0.00106728
0.00101893
0.000526839
0.000527874
0.00105993
0.00111804
0.001121
0.001121
0.00112099
0.00112101
0.0011186
0.0010629
0.000527612
0.000528716
0.00105179
0.00110814
0.00111078
0.00111067
0.00111066
0.00111078
0.00110867
0.00105465
0.000528444
0.000529805
0.00103274
0.00108483
0.00108687
0.00108662
0.00108661
0.00108686
0.00108527
0.0010353
0.000529531
0.000524238
0.000524338
0.000524353
0.000524359
0.00052436
0.000524362
0.000524359
0.000524355
0.000524321
0.000523758
0.000524839
0.000526609
0.000526816
0.00052684
0.000526848
0.000526848
0.000526842
0.00052682
0.000526618
0.000524376
0.000525591
0.000527551
0.000527805
0.000527849
0.000527861
0.000527865
0.000527848
0.000527812
0.000527561
0.000525128
0.000526608
0.000528665
0.000528969
0.000529035
0.000529062
0.000529059
0.000529039
0.000528968
0.000528675
0.000526149
0.000528296
0.000531258
0.000531817
0.000531925
0.000531946
0.00053195
0.000531916
0.000531818
0.000531289
0.000527855
0.000533813
0.000553087
0.000557421
0.000557008
0.000556693
0.000556665
0.000556948
0.000557384
0.000553686
0.000533636
0.000572546
0.000743092
0.000773943
0.000767318
0.000763827
0.000763657
0.000766768
0.000773698
0.000747576
0.000575068
0.000790929
0.00136762
0.00144754
0.00143222
0.00142398
0.00142357
0.00143095
0.0014471
0.00137803
0.000803425
0.00128202
0.00230907
0.00244202
0.00243586
0.00242886
0.00242838
0.00243442
0.00244186
0.00232241
0.00130289
0.00193772
0.00350372
0.00370594
0.00371947
0.00371743
0.00371696
0.00371816
0.0037063
0.00351914
0.00196239
0.000531758
0.000993302
0.00103675
0.00103771
0.00103725
0.00103723
0.00103767
0.00103706
0.000995281
0.000531503
0.000536752
0.000944688
0.0009756
0.00097848
0.000978906
0.000978923
0.000978546
0.000975918
0.000945698
0.00053679
0.000573041
0.000810555
0.000825772
0.000844281
0.000850353
0.000850461
0.000844713
0.000826327
0.000809785
0.000575194
0.000819793
0.000882158
0.000927033
0.000920543
0.000917308
0.000917114
0.000920099
0.000927248
0.000888057
0.000830002
0.00227521
0.00443577
0.00463075
0.00464246
0.00464089
0.00464058
0.00464171
0.00463209
0.00445155
0.0023036
0.000530917
0.00113533
0.00120684
0.00121071
0.00121079
0.00121078
0.00121075
0.0012076
0.00113913
0.000530689
0.000532393
0.00111376
0.00117826
0.00118144
0.00118136
0.00118135
0.00118147
0.00117892
0.00111703
0.000532198
0.000537956
0.000982245
0.00101408
0.00102346
0.00102625
0.00102634
0.00102378
0.00101466
0.000982246
0.000538082
0.000701858
0.000658336
0.000677062
0.000679649
0.0006802
0.000680174
0.000679649
0.000677371
0.000660799
0.000708107
0.00230925
0.00450784
0.0046597
0.00466456
0.00466236
0.00466224
0.00466446
0.0046621
0.00452393
0.00233765
0.000530325
0.00115401
0.00123072
0.0012353
0.00123556
0.00123556
0.00123537
0.0012316
0.00115825
0.000530099
0.00053153
0.00114583
0.00122008
0.0012242
0.00122428
0.00122427
0.00122425
0.00122089
0.00114986
0.000531322
0.000534375
0.000984785
0.00102843
0.00103276
0.00103276
0.00103271
0.00103267
0.00102859
0.000985546
0.000534335
0.000686362
0.000612817
0.00062695
0.000628818
0.000629243
0.000629244
0.000628866
0.000627288
0.000614935
0.000692074
0.00239101
0.00463927
0.00478602
0.0047961
0.00479615
0.00479616
0.0047964
0.00478911
0.00465594
0.00242109
0.000529967
0.00115529
0.00123268
0.00123734
0.00123761
0.00123762
0.00123741
0.00123359
0.00115962
0.000529745
0.000531179
0.00115009
0.0012264
0.00123074
0.00123088
0.00123088
0.0012308
0.00122726
0.00115428
0.000530967
0.000533395
0.000991662
0.00103021
0.0010307
0.00102973
0.00102968
0.00103052
0.00103014
0.000992186
0.000533342
0.00071523
0.000601525
0.000616239
0.000618009
0.000618498
0.00061851
0.000618084
0.000616639
0.000603833
0.000722242
0.00242417
0.00466271
0.00480581
0.00481717
0.00481781
0.00481782
0.00481761
0.00480914
0.0046793
0.00245475
0.000529899
0.00115488
0.00123351
0.0012383
0.00123859
0.0012386
0.00123837
0.00123444
0.0011593
0.000529677
0.000531199
0.00114722
0.00122688
0.00123149
0.00123164
0.00123164
0.00123156
0.00122778
0.00115155
0.000530992
0.000534109
0.000976065
0.00100981
0.00100634
0.00100413
0.00100408
0.0010061
0.00100964
0.000976539
0.000534075
0.000794747
0.000627082
0.000646993
0.000652573
0.000654652
0.000654695
0.000652802
0.000647635
0.000629588
0.000803371
0.00243285
0.00460215
0.0047366
0.00474871
0.00475025
0.00475032
0.00474933
0.00474004
0.00461782
0.00246284
0.000530052
0.00115502
0.00123513
0.0012401
0.00124042
0.00124043
0.00124018
0.00123609
0.00115955
0.000529839
0.000531396
0.00114423
0.00122855
0.00123366
0.00123385
0.00123384
0.00123373
0.0012295
0.00114874
0.000531187
0.000536173
0.000998177
0.00103588
0.00103194
0.0010292
0.00102913
0.00103166
0.00103574
0.000999214
0.000536206
0.000846119
0.000635474
0.000656494
0.000664285
0.000667491
0.000667564
0.000664599
0.000657209
0.000637454
0.000853521
0.0024067
0.00440865
0.00452506
0.004539
0.00454214
0.00454228
0.00453984
0.0045284
0.00442193
0.00243387
0.000530452
0.00115291
0.00123366
0.00123871
0.00123904
0.00123905
0.0012388
0.00123463
0.00115748
0.000530243
0.000531504
0.00114574
0.00123582
0.001242
0.00124241
0.00124241
0.00124209
0.00123686
0.00115053
0.000531298
0.000538238
0.00107359
0.00112585
0.00112662
0.0011256
0.00112558
0.00112652
0.00112616
0.00107582
0.000538232
0.000765505
0.000619429
0.000639323
0.000644376
0.000646168
0.000646199
0.000644529
0.000639787
0.000620897
0.000769847
0.00228477
0.00400183
0.00409574
0.00410891
0.00411296
0.00411312
0.0041098
0.00409861
0.00401221
0.00230541
0.000530896
0.00109658
0.0011656
0.00116979
0.00117004
0.00117005
0.00116986
0.00116641
0.00110036
0.000530673
0.000531132
0.00111095
0.00119515
0.0012019
0.00120267
0.00120268
0.00120201
0.00119616
0.00111537
0.000530906
0.000540105
0.00111675
0.00117944
0.00118423
0.00118475
0.00118477
0.00118429
0.00118012
0.00111967
0.000540057
0.000676511
0.00062743
0.000651209
0.00065241
0.000652177
0.000652157
0.000652374
0.000651419
0.000628463
0.000679798
0.00195368
0.00328914
0.00335987
0.003371
0.00337467
0.0033748
0.0033717
0.00336203
0.00329668
0.00196724
0.000529508
0.000533588
0.000534127
0.000534244
0.00053429
0.000534293
0.000534249
0.000534148
0.000533641
0.000529081
0.000527931
0.000534837
0.000535747
0.000535892
0.000535932
0.000535935
0.000535904
0.000535781
0.000534917
0.0005275
0.000539872
0.000550236
0.000551649
0.000552001
0.000552116
0.000552117
0.000552017
0.000551683
0.00055037
0.000539545
0.000588424
0.000671506
0.00068583
0.000687946
0.000688474
0.000688466
0.000687979
0.000686088
0.000672807
0.00058945
0.00127526
0.00172125
0.00175369
0.0017623
0.00176493
0.00176501
0.00176269
0.00175479
0.00172501
0.00128097
)
;

boundaryField
{
    walls
    {
        type            nutkWallFunction;
        Cmu             0.09;
        kappa           0.41;
        E               9.8;
        value           nonuniform List<scalar> 
500
(
6.31699e-05
6.31699e-05
6.31699e-05
6.38792e-05
6.38792e-05
6.39056e-05
6.39056e-05
6.39054e-05
6.39054e-05
6.39051e-05
6.39051e-05
6.3905e-05
6.3905e-05
6.39048e-05
6.39048e-05
6.39046e-05
6.39046e-05
6.39014e-05
6.39014e-05
6.38385e-05
6.38385e-05
6.38385e-05
6.39215e-05
6.39215e-05
6.42082e-05
6.42342e-05
6.42357e-05
6.42359e-05
6.42359e-05
6.42354e-05
6.42339e-05
6.42087e-05
6.38973e-05
6.38973e-05
6.40195e-05
6.40195e-05
6.43185e-05
6.43495e-05
6.4352e-05
6.43526e-05
6.43524e-05
6.43516e-05
6.43492e-05
6.43187e-05
6.39624e-05
6.39624e-05
6.41134e-05
6.41134e-05
6.44414e-05
6.44772e-05
6.44816e-05
6.4483e-05
6.4483e-05
6.44814e-05
6.44775e-05
6.44427e-05
6.40581e-05
6.40581e-05
6.41628e-05
6.41628e-05
6.45511e-05
6.45933e-05
6.45989e-05
6.46006e-05
6.46006e-05
6.45992e-05
6.45943e-05
6.45543e-05
6.41099e-05
6.41099e-05
6.39073e-05
6.39073e-05
6.41243e-05
6.41474e-05
6.41502e-05
6.41509e-05
6.41512e-05
6.41512e-05
6.41504e-05
6.41309e-05
6.38934e-05
6.38934e-05
6.41561e-05
6.41263e-05
6.42357e-05
6.42051e-05
6.43187e-05
6.42885e-05
6.43841e-05
6.43548e-05
6.39869e-05
6.39869e-05
6.41905e-05
6.42145e-05
6.42171e-05
6.4218e-05
6.42184e-05
6.42185e-05
6.42175e-05
6.41955e-05
6.394e-05
6.394e-05
6.42122e-05
6.41841e-05
6.42827e-05
6.4256e-05
6.43525e-05
6.43256e-05
6.44262e-05
6.43997e-05
6.40229e-05
6.40229e-05
6.4226e-05
6.42496e-05
6.4252e-05
6.42529e-05
6.42532e-05
6.42533e-05
6.42522e-05
6.42299e-05
6.39731e-05
6.39731e-05
6.42431e-05
6.42148e-05
6.4306e-05
6.42796e-05
6.4366e-05
6.43393e-05
6.44406e-05
6.44138e-05
6.40427e-05
6.40427e-05
6.42458e-05
6.42691e-05
6.42712e-05
6.4272e-05
6.42723e-05
6.42723e-05
6.42711e-05
6.42486e-05
6.39907e-05
6.39907e-05
6.42613e-05
6.4232e-05
6.43195e-05
6.42926e-05
6.43747e-05
6.43477e-05
6.44475e-05
6.44204e-05
6.40457e-05
6.40457e-05
6.42571e-05
6.42811e-05
6.42833e-05
6.42841e-05
6.42843e-05
6.42842e-05
6.42828e-05
6.42594e-05
6.39927e-05
6.39927e-05
6.42658e-05
6.4236e-05
6.43244e-05
6.42971e-05
6.43808e-05
6.43534e-05
6.44545e-05
6.44269e-05
6.40328e-05
6.40328e-05
6.42664e-05
6.42924e-05
6.42949e-05
6.42958e-05
6.42959e-05
6.42956e-05
6.42937e-05
6.42685e-05
6.39791e-05
6.39791e-05
6.4257e-05
6.42266e-05
6.43216e-05
6.42937e-05
6.43865e-05
6.43584e-05
6.44677e-05
6.44394e-05
6.40032e-05
6.40032e-05
6.42573e-05
6.42851e-05
6.4288e-05
6.42889e-05
6.42891e-05
6.42885e-05
6.42862e-05
6.42591e-05
6.39491e-05
6.39491e-05
6.42334e-05
6.42023e-05
6.43083e-05
6.42796e-05
6.43864e-05
6.43575e-05
6.44827e-05
6.44533e-05
6.3955e-05
6.3955e-05
6.42014e-05
6.42273e-05
6.42301e-05
6.42311e-05
6.42311e-05
6.42305e-05
6.42281e-05
6.42027e-05
6.39003e-05
6.39003e-05
6.41762e-05
6.41423e-05
6.42613e-05
6.42294e-05
6.4355e-05
6.43223e-05
6.4477e-05
6.44437e-05
6.3844e-05
6.3844e-05
6.3844e-05
6.3855e-05
6.3855e-05
6.38567e-05
6.38567e-05
6.38573e-05
6.38573e-05
6.38575e-05
6.38575e-05
6.38576e-05
6.38576e-05
6.38573e-05
6.38573e-05
6.38568e-05
6.38568e-05
6.38531e-05
6.38531e-05
6.37856e-05
6.37856e-05
6.37856e-05
6.39115e-05
6.39115e-05
6.41162e-05
6.41395e-05
6.41422e-05
6.4143e-05
6.41431e-05
6.41424e-05
6.414e-05
6.41172e-05
6.38551e-05
6.38551e-05
6.39954e-05
6.39954e-05
6.42216e-05
6.42503e-05
6.42549e-05
6.42564e-05
6.42566e-05
6.4255e-05
6.42509e-05
6.4223e-05
6.39392e-05
6.39392e-05
6.41092e-05
6.41092e-05
6.43448e-05
6.43785e-05
6.43858e-05
6.43885e-05
6.43885e-05
6.43859e-05
6.43787e-05
6.43457e-05
6.40531e-05
6.40531e-05
6.4294e-05
6.4294e-05
6.46097e-05
6.46659e-05
6.46774e-05
6.46802e-05
6.46803e-05
6.46769e-05
6.46655e-05
6.46123e-05
6.42401e-05
6.42401e-05
6.48565e-05
6.48565e-05
6.66027e-05
6.69774e-05
6.69455e-05
6.69192e-05
6.69172e-05
6.69398e-05
6.69741e-05
6.66544e-05
6.48263e-05
6.48263e-05
6.85591e-05
6.85591e-05
8.45368e-05
8.72903e-05
8.66623e-05
8.63397e-05
8.63234e-05
8.66108e-05
8.7262e-05
8.49577e-05
6.87846e-05
6.87846e-05
9.05665e-05
9.05665e-05
0.000147431
0.000154797
0.000153189
0.000152375
0.000152334
0.00015306
0.000154736
0.000148457
9.1807e-05
9.1807e-05
0.000142545
0.000142545
0.000243791
0.000256075
0.000255305
0.000254602
0.000254553
0.000255156
0.000256035
0.000245103
0.000144677
0.000144677
0.000211591
0.000211591
0.00036248
0.00038103
0.000382182
0.000381975
0.000381928
0.000382048
0.000381039
0.000363967
0.000214057
0.000214057
6.46893e-05
6.4658e-05
6.51789e-05
6.51745e-05
6.87539e-05
6.89563e-05
9.49389e-05
9.60104e-05
0.000245727
0.000248573
6.46002e-05
6.45722e-05
6.47588e-05
6.47345e-05
6.5321e-05
6.53283e-05
8.2709e-05
8.33729e-05
0.000249309
0.000252156
6.45345e-05
6.4507e-05
6.4668e-05
6.46423e-05
6.49684e-05
6.49613e-05
8.11226e-05
8.17328e-05
0.000257203
0.000260218
6.44954e-05
6.44682e-05
6.46289e-05
6.46031e-05
6.48605e-05
6.48514e-05
8.37264e-05
8.44651e-05
0.00026052
0.00026359
6.4488e-05
6.4461e-05
6.46315e-05
6.46061e-05
6.4928e-05
6.49211e-05
9.22592e-05
9.31855e-05
0.000261504
0.00026455
6.45053e-05
6.44793e-05
6.46549e-05
6.46296e-05
6.51533e-05
6.51534e-05
9.85664e-05
9.94156e-05
0.000259624
0.000262441
6.45501e-05
6.45247e-05
6.46697e-05
6.46443e-05
6.54086e-05
6.54054e-05
9.10374e-05
9.14818e-05
0.000248857
0.000251094
6.46006e-05
6.45734e-05
6.46304e-05
6.46027e-05
6.56366e-05
6.56292e-05
8.07709e-05
8.11454e-05
0.000216982
0.000218457
6.44387e-05
6.44387e-05
6.49021e-05
6.49626e-05
6.49757e-05
6.49809e-05
6.49813e-05
6.49763e-05
6.4965e-05
6.49081e-05
6.43865e-05
6.43865e-05
6.42632e-05
6.42632e-05
6.50399e-05
6.514e-05
6.51557e-05
6.51601e-05
6.51605e-05
6.51571e-05
6.51438e-05
6.50489e-05
6.42104e-05
6.42104e-05
6.56353e-05
6.56353e-05
6.67997e-05
6.69573e-05
6.69973e-05
6.70103e-05
6.70104e-05
6.69991e-05
6.69612e-05
6.68151e-05
6.55949e-05
6.55949e-05
7.10327e-05
7.10327e-05
8.02007e-05
8.17411e-05
8.19725e-05
8.2032e-05
8.20314e-05
8.19765e-05
8.17702e-05
8.03479e-05
7.11469e-05
7.11469e-05
0.000147001
0.000147001
0.000193394
0.000196616
0.000197472
0.000197735
0.000197743
0.000197512
0.00019673
0.000193788
0.000147628
0.000147628
)
;
    }
    lid
    {
        type            nutkWallFunction;
        Cmu             0.09;
        kappa           0.41;
        E               9.8;
        value           nonuniform List<scalar> 
100
(
0.000211591
0.00036248
0.00038103
0.000382182
0.000381975
0.000381928
0.000382048
0.000381039
0.000363967
0.000214057
0.000245727
0.000453814
0.000471515
0.00047249
0.000472325
0.000472293
0.00047241
0.000471621
0.000455326
0.000248573
0.000249309
0.00046014
0.000473824
0.000474184
0.000473965
0.000473953
0.000474166
0.000474034
0.000461684
0.000252156
0.000257203
0.00047268
0.000485873
0.000486716
0.000486705
0.000486703
0.000486739
0.000486153
0.000474286
0.000260218
0.00026052
0.00047545
0.000488358
0.000489337
0.000489388
0.00048939
0.000489376
0.000488665
0.00047706
0.00026359
0.000261504
0.000470767
0.000483024
0.000484023
0.000484115
0.000484121
0.000484077
0.000483345
0.000472314
0.00026455
0.000259624
0.000454757
0.000465549
0.000466759
0.000467017
0.000467028
0.000466837
0.000465867
0.000456102
0.000262441
0.000248857
0.000418231
0.000427037
0.000428249
0.000428617
0.000428632
0.000428334
0.00042732
0.000419294
0.000251094
0.000216982
0.000350585
0.000357295
0.000358354
0.000358706
0.000358719
0.000358423
0.000357511
0.000351362
0.000218457
0.000147001
0.000193394
0.000196616
0.000197472
0.000197735
0.000197743
0.000197512
0.00019673
0.000193788
0.000147628
)
;
    }
}


// ************************************************************************* //
