/*--------------------------------*- C++ -*----------------------------------*\
| =========                 |                                                 |
| \\      /  F ield         | OpenFOAM: The Open Source CFD Toolbox           |
|  \\    /   O peration     | Version:  2.3.1                                 |
|   \\  /    A nd           | Web:      www.OpenFOAM.org                      |
|    \\/     M anipulation  |                                                 |
\*---------------------------------------------------------------------------*/
FoamFile
{
    version     2.0;
    format      ascii;
    class       volVectorField;
    location    "0.92";
    object      U;
}
// * * * * * * * * * * * * * * * * * * * * * * * * * * * * * * * * * * * * * //

dimensions      [0 1 -1 0 0 0 0];

internalField   nonuniform List<vector> 
1000
(
(-0.00236883 0.0029238 0.000310509)
(-0.00263599 0.00271341 0.000247806)
(-0.00267579 0.00270567 0.000139413)
(-0.00271072 0.00269251 0.000127885)
(-0.00271813 0.00269929 4.73101e-05)
(-0.00272236 0.00269669 -8.00696e-06)
(-0.00272248 0.00268579 -5.83823e-05)
(-0.0027216 0.00266973 -8.01644e-05)
(-0.00272277 0.00265256 -6.45447e-05)
(-0.00272406 0.00264177 -2.60939e-05)
(-0.00291731 0.00812793 8.28939e-05)
(-0.00304685 0.00805252 0.000101314)
(-0.00306723 0.00812337 0.000144611)
(-0.00308392 0.00815336 0.00012667)
(-0.00308963 0.00818826 5.42669e-05)
(-0.00309275 0.0081859 -1.97328e-05)
(-0.00309138 0.00815192 -8.35621e-05)
(-0.00309007 0.00809231 -0.000111333)
(-0.00308255 0.00802774 -7.42307e-05)
(-0.00299778 0.00796788 -2.6012e-05)
(-0.00352634 0.0137143 0.000117017)
(-0.00366577 0.0138416 0.00020808)
(-0.00368418 0.0139454 0.000239164)
(-0.00369599 0.0140331 0.000192363)
(-0.00370281 0.014089 8.04827e-05)
(-0.00370437 0.0140898 -4.37428e-05)
(-0.00370231 0.0140371 -0.00015148)
(-0.00369871 0.0139407 -0.000204585)
(-0.00368782 0.0138431 -0.000160164)
(-0.0035764 0.0137052 -7.32399e-05)
(-0.00446069 0.0240044 0.000121141)
(-0.00456864 0.0244573 0.000295326)
(-0.0045701 0.0248606 0.000338471)
(-0.00457211 0.0251883 0.000270402)
(-0.00457518 0.0253654 0.000110921)
(-0.00457709 0.0253723 -7.16051e-05)
(-0.00457597 0.0252087 -0.000232583)
(-0.00457881 0.0248889 -0.000307528)
(-0.0045797 0.0245019 -0.000269857)
(-0.00447878 0.0240361 -0.000103193)
(-0.00665727 0.0224211 0.00060249)
(-0.00689206 0.0227326 0.00100704)
(-0.00694147 0.0228242 0.00097143)
(-0.00696817 0.0229742 0.000695108)
(-0.00698534 0.0230536 0.0002637)
(-0.00698703 0.0230552 -0.000200027)
(-0.00697396 0.0229807 -0.000633065)
(-0.00695111 0.0228299 -0.000912823)
(-0.00690554 0.022744 -0.000957525)
(-0.0066738 0.0224323 -0.000578998)
(-0.00752092 0.00242105 7.26945e-05)
(-0.00770164 0.00249643 8.6261e-05)
(-0.00770768 0.00252699 9.8278e-05)
(-0.00775012 0.0025336 9.45251e-05)
(-0.00775977 0.00254267 3.98149e-05)
(-0.00776553 0.00254121 -1.10645e-05)
(-0.00776153 0.00253124 -5.76837e-05)
(-0.00775384 0.00251389 -8.15602e-05)
(-0.00774617 0.0024887 -8.53779e-05)
(-0.00770092 0.00239104 -3.93812e-05)
(-0.00842883 0.00719552 5.73894e-05)
(-0.00856981 0.00735533 0.000104513)
(-0.00858709 0.00744534 0.000133136)
(-0.00861211 0.00749729 0.000112833)
(-0.00862366 0.00753204 4.95984e-05)
(-0.00862764 0.00753198 -2.01311e-05)
(-0.00862139 0.00749919 -8.15528e-05)
(-0.00861076 0.00744007 -0.000112428)
(-0.00859135 0.00736627 -0.000100588)
(-0.00845642 0.00720903 -4.37366e-05)
(-0.00996527 0.0123963 0.000110444)
(-0.0101542 0.0126025 0.00021272)
(-0.0101875 0.0127283 0.000230338)
(-0.0102171 0.0128305 0.000180106)
(-0.010234 0.0128892 7.5459e-05)
(-0.0102375 0.0128906 -4.22178e-05)
(-0.0102265 0.012836 -0.00014679)
(-0.0102084 0.0127327 -0.000203342)
(-0.0101788 0.0126164 -0.000192174)
(-0.0100135 0.0124171 -9.30095e-05)
(-0.0123006 0.0211262 0.00018847)
(-0.0124798 0.0215187 0.000390216)
(-0.0124979 0.0218866 0.000362242)
(-0.012518 0.0221961 0.000273867)
(-0.0125338 0.0223618 0.000109843)
(-0.0125365 0.022368 -7.28084e-05)
(-0.0125267 0.0222154 -0.00023878)
(-0.0125127 0.0219164 -0.000333078)
(-0.012497 0.0215657 -0.000370015)
(-0.0123228 0.0211827 -0.000177428)
(-0.0177641 0.0200533 0.000572797)
(-0.0180828 0.0208955 0.000989853)
(-0.0182 0.0211301 0.000919485)
(-0.0182933 0.0213401 0.000654327)
(-0.0183479 0.0214412 0.000246675)
(-0.0183532 0.021444 -0.00018807)
(-0.018307 0.0213486 -0.000597486)
(-0.0182229 0.0211429 -0.000864817)
(-0.0181126 0.0209189 -0.000945454)
(-0.0178002 0.0200772 -0.000553096)
(-0.012066 0.00194989 8.65801e-05)
(-0.0121738 0.00200522 0.000127381)
(-0.0121869 0.00202545 9.4648e-05)
(-0.0122227 0.00203421 7.75276e-05)
(-0.0122384 0.00204123 3.32521e-05)
(-0.0122429 0.00204087 -9.39835e-06)
(-0.0122322 0.00203206 -4.72611e-05)
(-0.0122118 0.00201744 -6.84459e-05)
(-0.0121865 0.00199482 -7.83754e-05)
(-0.0120757 0.00191015 -3.87132e-05)
(-0.0132002 0.00578667 6.52604e-05)
(-0.0133127 0.00590421 0.000117426)
(-0.0133437 0.00597246 0.000118152)
(-0.0133802 0.0060176 9.41836e-05)
(-0.0134009 0.00604618 4.13846e-05)
(-0.0134049 0.0060461 -1.66381e-05)
(-0.0133904 0.00601835 -6.77799e-05)
(-0.0133637 0.00596673 -9.55503e-05)
(-0.0133306 0.00590046 -9.50042e-05)
(-0.0132117 0.00575215 -4.48136e-05)
(-0.0154723 0.00992887 0.000103091)
(-0.0156122 0.0101201 0.000199536)
(-0.0156659 0.010238 0.000198681)
(-0.0157183 0.0103332 0.000151316)
(-0.0157495 0.0103855 6.2797e-05)
(-0.0157536 0.0103872 -3.55976e-05)
(-0.0157301 0.0103369 -0.000124035)
(-0.0156869 0.0102414 -0.000175387)
(-0.0156366 0.0101273 -0.000178849)
(-0.0155016 0.00992899 -8.97892e-05)
(-0.0189321 0.0163493 0.00018662)
(-0.0191213 0.0167432 0.000372063)
(-0.0191887 0.0170628 0.000330037)
(-0.0192552 0.0173242 0.00024154)
(-0.0192951 0.0174625 9.54115e-05)
(-0.0192998 0.0174672 -6.47731e-05)
(-0.0192679 0.017339 -0.000212703)
(-0.0192098 0.0170867 -0.000304074)
(-0.0191465 0.0167802 -0.000353793)
(-0.0189588 0.0163922 -0.000177755)
(-0.0259133 0.0159578 0.000507722)
(-0.0262 0.01676 0.000884252)
(-0.0263935 0.0170355 0.000785125)
(-0.0265697 0.0172504 0.000550111)
(-0.0266698 0.0173529 0.000205199)
(-0.026677 0.0173547 -0.000158626)
(-0.0265915 0.0172589 -0.000503558)
(-0.0264277 0.0170486 -0.000739918)
(-0.0262458 0.016784 -0.000847333)
(-0.0259679 0.0159823 -0.00049228)
(-0.0152157 0.00128829 3.94944e-05)
(-0.0154045 0.00133305 6.39657e-05)
(-0.015451 0.001347 5.38256e-05)
(-0.0154986 0.00135494 4.34309e-05)
(-0.0155243 0.00136014 1.97235e-05)
(-0.0155288 0.00135978 -4.89679e-06)
(-0.0155118 0.00135423 -2.67729e-05)
(-0.0154788 0.00134394 -3.9817e-05)
(-0.0154375 0.00132934 -4.83754e-05)
(-0.0152844 0.00127761 -2.47034e-05)
(-0.0166381 0.00385947 3.48174e-05)
(-0.0168035 0.00394804 6.81481e-05)
(-0.0168602 0.00399528 7.18227e-05)
(-0.0169138 0.00402981 5.70731e-05)
(-0.0169452 0.00404947 2.55567e-05)
(-0.01695 0.00405012 -9.46348e-06)
(-0.016927 0.00403047 -4.06557e-05)
(-0.0168842 0.00399466 -5.81417e-05)
(-0.0168324 0.00394823 -5.67758e-05)
(-0.0166774 0.00385318 -2.60328e-05)
(-0.0193956 0.00666905 6.19163e-05)
(-0.0195826 0.00680687 0.000126238)
(-0.019669 0.00689732 0.000129441)
(-0.0197478 0.00696942 9.77063e-05)
(-0.0197944 0.00700896 4.07602e-05)
(-0.0197994 0.00700967 -2.27331e-05)
(-0.0197627 0.00697256 -8.04068e-05)
(-0.0196941 0.00690053 -0.000114673)
(-0.0196144 0.00681325 -0.000115587)
(-0.0194338 0.00667472 -5.54671e-05)
(-0.0235932 0.0106858 0.00012796)
(-0.0238626 0.0109797 0.000259779)
(-0.0239911 0.0112128 0.000233126)
(-0.0241066 0.0113985 0.000168397)
(-0.0241733 0.0114951 6.57858e-05)
(-0.0241792 0.0114982 -4.54888e-05)
(-0.0241237 0.0114075 -0.000149112)
(-0.0240186 0.0112289 -0.000216255)
(-0.0238982 0.011005 -0.000246892)
(-0.0236323 0.0107164 -0.000122268)
(-0.0309416 0.0107359 0.000349414)
(-0.0313797 0.0113157 0.000624396)
(-0.0316673 0.0115633 0.000549922)
(-0.0319179 0.0117438 0.000379211)
(-0.0320562 0.0118293 0.000140112)
(-0.0320652 0.0118305 -0.000110017)
(-0.0319441 0.0117492 -0.000348933)
(-0.0317111 0.0115744 -0.000519133)
(-0.0314385 0.011335 -0.000600891)
(-0.0310105 0.0107564 -0.000339854)
(-0.0170848 0.000557187 1.06803e-05)
(-0.0172701 0.000573611 1.26159e-05)
(-0.0173291 0.000578686 5.37901e-06)
(-0.0173827 0.000581265 4.40204e-06)
(-0.0174144 0.000583035 3.01086e-06)
(-0.0174188 0.000582849 3.18181e-06)
(-0.0173956 0.000580681 2.60979e-06)
(-0.0173519 0.000577172 1.12646e-06)
(-0.0172983 0.000571243 -5.30914e-06)
(-0.0171227 0.000552151 -4.54371e-06)
(-0.0186367 0.00169223 8.11033e-06)
(-0.0188145 0.00172618 1.29765e-05)
(-0.0188877 0.00174526 1.17359e-05)
(-0.0189539 0.00175851 9.26834e-06)
(-0.0189939 0.00176644 5.30359e-06)
(-0.0189985 0.00176621 1.63657e-06)
(-0.0189678 0.0017587 -2.08178e-06)
(-0.0189108 0.00174392 -5.61136e-06)
(-0.0188435 0.00172474 -7.97899e-06)
(-0.01867 0.00168785 -4.26305e-06)
(-0.0216641 0.00297467 1.98404e-05)
(-0.0218738 0.0030342 3.79004e-05)
(-0.0219863 0.00307663 3.55205e-05)
(-0.022088 0.00310976 2.58464e-05)
(-0.0221477 0.00312673 1.12548e-05)
(-0.0221534 0.00312734 -3.82545e-06)
(-0.0221043 0.00310977 -1.8696e-05)
(-0.0220128 0.00307703 -2.97755e-05)
(-0.0219077 0.00303505 -3.31423e-05)
(-0.0217015 0.0029752 -1.69929e-05)
(-0.0262714 0.0047997 5.07745e-05)
(-0.0265873 0.00494436 0.000101347)
(-0.0267687 0.00506275 8.65777e-05)
(-0.0269281 0.00515231 5.91037e-05)
(-0.0270193 0.00519886 2.28587e-05)
(-0.0270262 0.00519945 -1.50741e-05)
(-0.026948 0.00515565 -5.1901e-05)
(-0.0268008 0.00506804 -7.96437e-05)
(-0.0266292 0.00495417 -9.69051e-05)
(-0.026317 0.00481189 -4.83828e-05)
(-0.0334856 0.00498988 0.000161915)
(-0.0340162 0.00528733 0.000289272)
(-0.0343775 0.00544522 0.00024339)
(-0.0346841 0.0055529 0.000161156)
(-0.0348531 0.0056038 5.80801e-05)
(-0.0348625 0.00560381 -4.67123e-05)
(-0.0347137 0.00555452 -0.000149332)
(-0.0344258 0.00545005 -0.000231361)
(-0.0340824 0.00529701 -0.000278573)
(-0.0335619 0.00499964 -0.000157845)
(-0.017405 -0.000223254 -1.95609e-05)
(-0.0175955 -0.000238395 -4.8213e-05)
(-0.0176652 -0.000245047 -5.36209e-05)
(-0.0177259 -0.000250216 -4.16814e-05)
(-0.0177622 -0.000253376 -1.63092e-05)
(-0.0177665 -0.000253654 1.39229e-05)
(-0.0177383 -0.000251002 3.99439e-05)
(-0.0176861 -0.00024667 5.24249e-05)
(-0.0176227 -0.000240778 4.78656e-05)
(-0.0174379 -0.000226084 2.04916e-05)
(-0.0190312 -0.00062659 -2.18694e-05)
(-0.0192219 -0.000655684 -5.48808e-05)
(-0.0193105 -0.000672324 -6.31439e-05)
(-0.0193888 -0.000686729 -4.90049e-05)
(-0.0194357 -0.000695178 -1.90783e-05)
(-0.0194404 -0.000695601 1.66352e-05)
(-0.0194028 -0.000688766 4.692e-05)
(-0.019333 -0.000675441 6.1309e-05)
(-0.0192512 -0.000660514 5.39113e-05)
(-0.019064 -0.000632062 2.23225e-05)
(-0.0222107 -0.000964834 -3.19667e-05)
(-0.0224456 -0.00099823 -7.47078e-05)
(-0.022585 -0.00102059 -8.26099e-05)
(-0.0227084 -0.00104223 -6.383e-05)
(-0.0227803 -0.00105403 -2.46757e-05)
(-0.0227862 -0.0010555 2.06726e-05)
(-0.0227255 -0.00104493 6.02371e-05)
(-0.0226126 -0.00102617 7.93318e-05)
(-0.0224812 -0.00100475 7.21739e-05)
(-0.0222498 -0.000971439 3.17667e-05)
(-0.0270744 -0.00113553 -4.61957e-05)
(-0.0274438 -0.00116794 -0.000101286)
(-0.0276788 -0.00118468 -0.000107507)
(-0.0278816 -0.00120405 -8.26586e-05)
(-0.0279953 -0.00121671 -3.23547e-05)
(-0.0280026 -0.00121723 2.58926e-05)
(-0.0279033 -0.0012083 7.66057e-05)
(-0.027714 -0.00119029 0.000101848)
(-0.027491 -0.0011751 9.87265e-05)
(-0.0271263 -0.00114379 4.56955e-05)
(-0.034161 -0.00106607 -5.59839e-05)
(-0.0347774 -0.00108988 -0.000114218)
(-0.0352088 -0.00107131 -0.000120582)
(-0.0355702 -0.00106758 -9.68705e-05)
(-0.0357661 -0.0010662 -3.81672e-05)
(-0.035776 -0.00106645 2.939e-05)
(-0.0356006 -0.00107003 8.81471e-05)
(-0.0352598 -0.00107361 0.000114193)
(-0.0348476 -0.00109383 0.000108334)
(-0.034241 -0.00107046 5.39384e-05)
(-0.0161196 -0.00102737 -5.00929e-05)
(-0.0163033 -0.0010817 -0.000114049)
(-0.0163784 -0.00110282 -0.000119726)
(-0.0164425 -0.00111908 -9.23998e-05)
(-0.0164809 -0.00112824 -3.75308e-05)
(-0.0164845 -0.00112864 2.71487e-05)
(-0.0164539 -0.00112073 8.28532e-05)
(-0.0163965 -0.00110511 0.000111557)
(-0.0163276 -0.00108531 0.0001085)
(-0.0161471 -0.00103122 4.85316e-05)
(-0.017746 -0.00302234 -5.91955e-05)
(-0.0179449 -0.00312747 -0.000137057)
(-0.0180461 -0.00318894 -0.00015059)
(-0.0181335 -0.0032397 -0.000115942)
(-0.0181847 -0.00326769 -4.62647e-05)
(-0.0181893 -0.00326936 3.45444e-05)
(-0.0181464 -0.00324373 0.000105232)
(-0.0180674 -0.00319634 0.000141291)
(-0.0179725 -0.00313713 0.000130125)
(-0.0177763 -0.00303252 5.69621e-05)
(-0.0209767 -0.00507141 -9.74811e-05)
(-0.0212453 -0.0052231 -0.000214882)
(-0.0214132 -0.00533205 -0.000225606)
(-0.021557 -0.00542414 -0.00016979)
(-0.0216388 -0.00547425 -6.65914e-05)
(-0.0216441 -0.00547628 5.10985e-05)
(-0.021574 -0.00543179 0.000155128)
(-0.0214403 -0.00534425 0.000212473)
(-0.0212817 -0.00524047 0.000206394)
(-0.0210169 -0.00509001 9.45959e-05)
(-0.0260442 -0.00714564 -0.000178502)
(-0.0264975 -0.00738665 -0.000367129)
(-0.0267969 -0.00756049 -0.000352226)
(-0.0270456 -0.00770849 -0.000258351)
(-0.0271802 -0.00778567 -9.8372e-05)
(-0.0271875 -0.00778917 7.71061e-05)
(-0.0270674 -0.00771851 0.000237563)
(-0.0268341 -0.00757849 0.000333182)
(-0.0265482 -0.00741142 0.000353224)
(-0.026101 -0.00717416 0.000174178)
(-0.0332275 -0.00771625 -0.000315167)
(-0.0340181 -0.00812937 -0.000597143)
(-0.0345502 -0.0083026 -0.000551904)
(-0.0349806 -0.00844441 -0.00039656)
(-0.0352039 -0.00851179 -0.000147673)
(-0.0352136 -0.00851311 0.00011866)
(-0.0350109 -0.00845232 0.000367314)
(-0.0346014 -0.00831438 0.000523752)
(-0.0340925 -0.00815006 0.000577445)
(-0.0333123 -0.00773942 0.000307895)
(-0.0132125 -0.00181656 -8.18329e-05)
(-0.0133653 -0.00191683 -0.000182146)
(-0.0134358 -0.00195761 -0.000187665)
(-0.013496 -0.00198766 -0.000144018)
(-0.0135315 -0.00200415 -5.83935e-05)
(-0.0135348 -0.00200532 4.09884e-05)
(-0.0135049 -0.0019896 0.000127855)
(-0.0134508 -0.00196191 0.000173717)
(-0.013385 -0.00192234 0.000171794)
(-0.0132339 -0.00182162 7.82411e-05)
(-0.0147118 -0.00539931 -0.000105384)
(-0.0149014 -0.00560124 -0.000233496)
(-0.0150057 -0.00572066 -0.00024719)
(-0.0150924 -0.00581619 -0.000187392)
(-0.0151427 -0.0058683 -7.48858e-05)
(-0.0151461 -0.00587029 5.49287e-05)
(-0.0151037 -0.00582353 0.000168729)
(-0.0150238 -0.0057324 0.000230559)
(-0.014926 -0.00561822 0.000222276)
(-0.0147383 -0.00541726 0.000101428)
(-0.0178019 -0.0092667 -0.000191203)
(-0.018092 -0.00957688 -0.000397091)
(-0.0182803 -0.00980028 -0.00039269)
(-0.018434 -0.00998369 -0.000289503)
(-0.0185177 -0.0100792 -0.000111708)
(-0.0185229 -0.0100832 8.54051e-05)
(-0.0184484 -0.00999527 0.000264113)
(-0.0183056 -0.00982184 0.000369802)
(-0.0181263 -0.00960656 0.000380093)
(-0.0178396 -0.00929985 0.000185474)
(-0.0228847 -0.0133806 -0.000370432)
(-0.023444 -0.0139208 -0.000725087)
(-0.0238076 -0.0142976 -0.00065684)
(-0.0240918 -0.0146019 -0.00046671)
(-0.024239 -0.0147554 -0.000174386)
(-0.0242446 -0.0147603 0.00013891)
(-0.0241129 -0.0146193 0.000430559)
(-0.0238426 -0.0143271 0.000621974)
(-0.0234961 -0.0139657 0.000701653)
(-0.0229439 -0.0134332 0.000362111)
(-0.0303305 -0.0154112 -0.000707064)
(-0.0314654 -0.016462 -0.0012736)
(-0.032147 -0.0169387 -0.00108472)
(-0.0326559 -0.0173057 -0.000750002)
(-0.0329023 -0.0174683 -0.000270658)
(-0.0329115 -0.0174726 0.000222073)
(-0.0326837 -0.0173202 0.000699778)
(-0.0321968 -0.0169628 0.00103379)
(-0.0315444 -0.0165111 0.00123271)
(-0.0304205 -0.0154649 0.000693076)
(-0.00873198 -0.0025079 -0.00010178)
(-0.00881976 -0.00264267 -0.000231985)
(-0.00887107 -0.00270217 -0.000245669)
(-0.00891468 -0.00274637 -0.000187781)
(-0.00894083 -0.00277098 -7.62865e-05)
(-0.00894276 -0.00277144 5.36887e-05)
(-0.0089206 -0.00275018 0.000166611)
(-0.00888103 -0.0027073 0.000226915)
(-0.00883285 -0.00265095 0.000219553)
(-0.00874587 -0.00251669 9.75343e-05)
(-0.00990493 -0.00754184 -0.000141861)
(-0.0101295 -0.00781773 -0.000314483)
(-0.0102252 -0.00799921 -0.000334794)
(-0.0102954 -0.00814383 -0.000252067)
(-0.0103346 -0.00822011 -9.97508e-05)
(-0.0103371 -0.00822356 7.34373e-05)
(-0.010303 -0.00815304 0.000226885)
(-0.0102386 -0.00801658 0.000312523)
(-0.010148 -0.00784168 0.000298195)
(-0.00992426 -0.00756806 0.000136132)
(-0.0124878 -0.0132474 -0.000281246)
(-0.0128743 -0.013734 -0.00057684)
(-0.0130683 -0.0140971 -0.000562265)
(-0.0132053 -0.0143858 -0.000406168)
(-0.0132762 -0.0145326 -0.000155074)
(-0.0132792 -0.0145367 0.000120228)
(-0.0132161 -0.0144033 0.000371548)
(-0.0130875 -0.0141261 0.000529381)
(-0.012903 -0.0137785 0.000555039)
(-0.012519 -0.0132986 0.000273492)
(-0.0171991 -0.019657 -0.00060804)
(-0.0180212 -0.0206277 -0.00115045)
(-0.0184389 -0.0212768 -0.000996047)
(-0.0187177 -0.0217756 -0.000688636)
(-0.0188483 -0.0220141 -0.00025072)
(-0.0188535 -0.0220216 0.000202879)
(-0.0187328 -0.0217989 0.000638606)
(-0.0184674 -0.0213188 0.00094626)
(-0.0180688 -0.0206959 0.00111133)
(-0.0172523 -0.0197374 0.000594963)
(-0.0252146 -0.0247613 -0.00128566)
(-0.0272611 -0.0268897 -0.00222272)
(-0.0281564 -0.027878 -0.00173579)
(-0.0287008 -0.0286099 -0.00114724)
(-0.0289277 -0.0289159 -0.000401411)
(-0.0289326 -0.0289237 0.00033579)
(-0.0287225 -0.0286332 0.00107789)
(-0.0281961 -0.0279219 0.00165667)
(-0.0273504 -0.0269853 0.00216152)
(-0.0253134 -0.0248693 0.00126545)
(-0.00316235 -0.00297005 -0.000105748)
(-0.00317906 -0.00303577 -0.000244506)
(-0.00319735 -0.00310165 -0.000275993)
(-0.00321351 -0.00315579 -0.000211357)
(-0.00322372 -0.00318444 -8.56188e-05)
(-0.00322401 -0.00318604 6.05331e-05)
(-0.00321619 -0.00315899 0.00018737)
(-0.00320094 -0.00310845 0.000255187)
(-0.00318425 -0.00304483 0.000230051)
(-0.00316816 -0.00298031 0.00010076)
(-0.00365195 -0.0090523 -0.000162628)
(-0.00378088 -0.00933012 -0.000356333)
(-0.00382564 -0.00956522 -0.000393101)
(-0.003855 -0.00974931 -0.000292258)
(-0.00387059 -0.00984414 -0.000115078)
(-0.00387215 -0.00984704 8.55735e-05)
(-0.00385746 -0.00976092 0.00026344)
(-0.00383173 -0.00958491 0.000366773)
(-0.00378864 -0.00936017 0.000338428)
(-0.0036595 -0.00908712 0.000156187)
(-0.00481248 -0.0164842 -0.000379428)
(-0.00505213 -0.0172683 -0.00073811)
(-0.00515232 -0.0178015 -0.000699697)
(-0.00521437 -0.0181901 -0.000491996)
(-0.00524601 -0.0183754 -0.000183819)
(-0.00524592 -0.018382 0.000144348)
(-0.00522002 -0.0182089 0.000451277)
(-0.00515943 -0.0178378 0.000660308)
(-0.00506596 -0.017326 0.000708301)
(-0.00482754 -0.0165512 0.000369343)
(-0.00718189 -0.0260827 -0.000953019)
(-0.00771825 -0.0281317 -0.00166403)
(-0.00795869 -0.0292115 -0.00132812)
(-0.00809894 -0.0299219 -0.000870369)
(-0.00815777 -0.0302298 -0.000308084)
(-0.00816194 -0.0302363 0.000253071)
(-0.00810314 -0.02995 0.000811655)
(-0.00797313 -0.0292612 0.00126203)
(-0.00774151 -0.0282375 0.00161496)
(-0.00720681 -0.026204 0.000937149)
(-0.0119744 -0.0388955 -0.0025223)
(-0.0135992 -0.0446218 -0.00394225)
(-0.0142153 -0.0467173 -0.00252742)
(-0.0145236 -0.0479098 -0.00152038)
(-0.0146351 -0.0483256 -0.000499701)
(-0.0146341 -0.0483331 0.000425659)
(-0.0145344 -0.0479355 0.00143602)
(-0.0142322 -0.0467819 0.00240733)
(-0.0136585 -0.0448224 0.00383962)
(-0.0120373 -0.0391185 0.00249702)
(-0.0231245 -0.061159 -0.00683187)
(-0.0279043 -0.0744019 -0.00975673)
(-0.0294603 -0.0782139 -0.00469287)
(-0.0301388 -0.0799003 -0.00249512)
(-0.0303225 -0.0803788 -0.000733766)
(-0.0303262 -0.080382 0.000645406)
(-0.0301452 -0.079923 0.00237846)
(-0.0294991 -0.0782917 0.00444779)
(-0.0280448 -0.0747795 0.00955005)
(-0.0232812 -0.0615526 0.00679618)
(-0.0403533 -0.0804917 -0.0155954)
(-0.0476685 -0.125287 -0.0203597)
(-0.0505608 -0.133645 -0.00787697)
(-0.0519408 -0.134473 -0.00364469)
(-0.0522346 -0.134223 -0.000963457)
(-0.0522303 -0.134192 0.000865626)
(-0.0519517 -0.134401 0.00349019)
(-0.0506131 -0.133638 0.007449)
(-0.0478534 -0.126129 0.0199609)
(-0.0406155 -0.0814066 0.0155464)
(-0.0614991 -0.150097 -0.0364603)
(-0.0502714 -0.234409 -0.0374876)
(-0.0548145 -0.247152 -0.0111505)
(-0.0592361 -0.24369 -0.00359315)
(-0.0604727 -0.242147 -0.000722752)
(-0.060491 -0.242097 0.000684132)
(-0.0593294 -0.243498 0.00345164)
(-0.0550095 -0.247035 0.0105537)
(-0.0502196 -0.235693 0.0367837)
(-0.0617122 -0.151535 0.036243)
(-0.00375016 -0.113387 -0.0372087)
(0.0733099 -0.278113 -0.0262626)
(0.0730536 -0.286716 -0.00845648)
(0.067474 -0.275045 -0.00162542)
(0.0654551 -0.270742 -0.000375041)
(0.0654134 -0.270638 0.000354925)
(0.0672906 -0.274641 0.00153599)
(0.0728229 -0.286303 0.00818241)
(0.0740117 -0.279607 0.0258083)
(-0.00266511 -0.115931 0.036798)
(0.254616 -0.378731 0.030817)
(0.357 -0.580995 0.0308865)
(0.373851 -0.599483 0.00863325)
(0.374455 -0.594812 0.00273954)
(0.373957 -0.592621 0.000449158)
(0.373918 -0.592562 -0.000434248)
(0.374341 -0.594618 -0.00263301)
(0.3739 -0.599442 -0.0081116)
(0.358358 -0.582577 -0.0303065)
(0.256681 -0.382176 -0.0305283)
(-0.0398405 -0.0365383 -0.0027115)
(-0.0451265 -0.0395683 -0.00433081)
(-0.0470145 -0.0411473 -0.0027526)
(-0.0480704 -0.0423873 -0.0017226)
(-0.0484434 -0.0429016 -0.000561355)
(-0.0484519 -0.0429133 0.000482823)
(-0.0480965 -0.0424322 0.00163634)
(-0.0470813 -0.0412254 0.00262803)
(-0.0453096 -0.0397265 0.00422602)
(-0.0400479 -0.0367311 0.00268596)
(-0.0607106 -0.0177226 -0.00500107)
(-0.0708546 -0.0231348 -0.00754709)
(-0.0740436 -0.0239718 -0.00466924)
(-0.0756903 -0.0247348 -0.00289953)
(-0.0761843 -0.0248694 -0.000920351)
(-0.0761867 -0.0248658 0.000799796)
(-0.0757168 -0.0247397 0.00276425)
(-0.0741177 -0.0239793 0.00447093)
(-0.0711381 -0.0232357 0.00737012)
(-0.0610309 -0.0178367 0.00495035)
(-0.0890293 -0.0334929 -0.00521885)
(-0.114859 -0.0451542 -0.00722088)
(-0.121225 -0.0478674 -0.0033912)
(-0.123829 -0.0492744 -0.00219317)
(-0.124384 -0.0496601 -0.000584635)
(-0.124384 -0.0496746 0.000516321)
(-0.123846 -0.0493228 0.00211535)
(-0.121338 -0.0479712 0.00324212)
(-0.115393 -0.0454198 0.00704402)
(-0.0897478 -0.033829 0.00516804)
(-0.155974 0.0370459 -0.0101223)
(-0.167881 0.0206885 -0.00623316)
(-0.180228 0.0215326 -0.00441168)
(-0.186543 0.026295 -0.00335534)
(-0.18843 0.0279349 -0.00108619)
(-0.18844 0.0279725 0.000908046)
(-0.186611 0.0264439 0.00319055)
(-0.180386 0.0217206 0.00434715)
(-0.168253 0.0206795 0.00611289)
(-0.156813 0.0370741 0.00998499)
(0.254765 -0.0104293 0.0204548)
(0.388449 -0.090509 0.0220652)
(0.40504 -0.090498 0.00742083)
(0.406136 -0.0864615 0.00241694)
(0.405818 -0.0850018 0.00042658)
(0.40579 -0.0850066 -0.000404769)
(0.406072 -0.0864863 -0.00231678)
(0.40517 -0.0906583 -0.00707268)
(0.389808 -0.0909576 -0.0216795)
(0.257392 -0.0115862 -0.020312)
(-0.0398201 -0.0234043 -0.00127507)
(-0.0423333 -0.0246961 -0.00213727)
(-0.0435274 -0.0254767 -0.00150672)
(-0.0443931 -0.0261359 -0.000995368)
(-0.0447724 -0.0264364 -0.000340459)
(-0.0447843 -0.0264466 0.000286379)
(-0.0444291 -0.0261679 0.000939357)
(-0.0435939 -0.0255316 0.00143679)
(-0.0424613 -0.0247881 0.00208231)
(-0.0399627 -0.023519 0.00126069)
(-0.0557 -0.00766398 -0.00240573)
(-0.0595634 -0.00954673 -0.00371545)
(-0.061566 -0.00958489 -0.00263944)
(-0.0630664 -0.00966211 -0.00174494)
(-0.0637053 -0.00961861 -0.000590788)
(-0.06372 -0.00961348 0.000498997)
(-0.0631207 -0.00965517 0.0016482)
(-0.0616644 -0.00957163 0.00252362)
(-0.0597543 -0.00955885 0.00361491)
(-0.0559265 -0.00767526 0.00237255)
(-0.0511709 -0.0252786 -0.00191926)
(-0.056336 -0.0280452 -0.00279519)
(-0.0577677 -0.0286008 -0.00131008)
(-0.0592432 -0.029354 -0.000879815)
(-0.0597426 -0.029606 -0.000247188)
(-0.0597517 -0.0296217 0.000212774)
(-0.0592876 -0.029404 0.00084148)
(-0.0578417 -0.0286842 0.00123736)
(-0.0565009 -0.0281684 0.00271634)
(-0.051371 -0.0254626 0.0018953)
(-0.0667632 0.0313692 -0.00624457)
(-0.0607742 0.038386 -0.00686707)
(-0.0641635 0.0418086 -0.00379434)
(-0.0674669 0.0442937 -0.0026815)
(-0.0686842 0.0450312 -0.000856921)
(-0.0687119 0.0450465 0.000697877)
(-0.0675665 0.0443626 0.00251944)
(-0.0643118 0.0419459 0.00363324)
(-0.0608311 0.0386534 0.00669359)
(-0.0669315 0.031768 0.00615699)
(0.245547 0.0221359 0.00745582)
(0.365172 0.0100713 0.00736557)
(0.378065 0.0142179 0.00227033)
(0.378843 0.0158657 0.000628673)
(0.378647 0.0162771 6.35497e-05)
(0.378635 0.0162553 -5.87795e-05)
(0.378835 0.0157901 -0.000593286)
(0.378283 0.0140516 -0.00216445)
(0.366508 0.00991517 -0.0072439)
(0.247882 0.0218948 -0.00739617)
(-0.0403039 -0.0119371 -0.000483596)
(-0.0418269 -0.0123673 -0.00086528)
(-0.0426212 -0.0126689 -0.000665965)
(-0.0432352 -0.0129615 -0.000467072)
(-0.0435306 -0.0131055 -0.000166718)
(-0.0435417 -0.0131123 0.000136346)
(-0.0432687 -0.012982 0.000435898)
(-0.0426796 -0.0127019 0.000634133)
(-0.0419226 -0.0124164 0.000838498)
(-0.0404092 -0.0119992 0.000475401)
(-0.0558594 -0.0027498 -0.000932164)
(-0.0582371 -0.00325382 -0.00150012)
(-0.0597322 -0.00309834 -0.0012037)
(-0.0608849 -0.00304113 -0.0008532)
(-0.0614278 -0.00298923 -0.000304547)
(-0.0614443 -0.00298761 0.000247382)
(-0.0609413 -0.00303397 0.000796477)
(-0.0598307 -0.00308463 0.00114447)
(-0.0584012 -0.00324279 0.00145174)
(-0.0560522 -0.00273297 0.000914035)
(-0.0474566 -0.0136491 -0.000405024)
(-0.0501883 -0.0148394 -0.000636171)
(-0.0510241 -0.0151725 -0.000335249)
(-0.0517196 -0.0157321 -0.000310423)
(-0.0519845 -0.0159634 -9.91182e-05)
(-0.0519918 -0.0159761 8.02606e-05)
(-0.0517488 -0.0157753 0.000294908)
(-0.0510731 -0.0152412 0.000313246)
(-0.0502916 -0.014928 0.000609451)
(-0.0475747 -0.0137896 0.000394983)
(-0.0657611 0.00952819 -0.00259624)
(-0.0585224 0.0128312 -0.00344245)
(-0.059984 0.0140789 -0.00216924)
(-0.0618365 0.0148607 -0.00167436)
(-0.0625968 0.0150781 -0.000561532)
(-0.0626222 0.0150862 0.00044559)
(-0.0619218 0.0148926 0.00155845)
(-0.0601087 0.0141443 0.00206248)
(-0.0586106 0.0129619 0.00332461)
(-0.0658552 0.00969619 0.00252859)
(0.233635 0.00141125 0.00169905)
(0.353362 -0.00555522 0.00135047)
(0.365762 -0.00505646 0.000193712)
(0.367145 -0.00526052 -0.000105448)
(0.367257 -0.00538908 -6.73387e-05)
(0.367256 -0.0054011 6.91156e-05)
(0.367175 -0.00531666 0.000117735)
(0.366028 -0.00517125 -0.000169325)
(0.354697 -0.00569157 -0.00132858)
(0.236049 0.00109853 -0.00168163)
(-0.0397389 -0.00115815 -4.19497e-05)
(-0.0408185 -0.00090942 -8.17505e-05)
(-0.0413796 -0.000766617 -8.46549e-05)
(-0.0418277 -0.000731717 -7.75224e-05)
(-0.0420576 -0.000726523 -3.11274e-05)
(-0.0420661 -0.00073034 2.20383e-05)
(-0.0418587 -0.000738883 6.94446e-05)
(-0.0414311 -0.00077659 7.74056e-05)
(-0.0408956 -0.00091534 7.62553e-05)
(-0.0398232 -0.0011694 4.02454e-05)
(-0.0564216 0.000721828 0.000145955)
(-0.0584197 0.00096981 0.000227224)
(-0.0597249 0.00118361 3.38612e-05)
(-0.0607499 0.00128953 -6.83944e-05)
(-0.0612533 0.00133872 -4.06657e-05)
(-0.0612726 0.00134123 2.03226e-05)
(-0.0608111 0.00129631 5.27924e-05)
(-0.0598315 0.00119627 -4.01287e-05)
(-0.058582 0.00098897 -0.00023472)
(-0.0566141 0.000746645 -0.000152837)
(-0.0462377 -0.00335118 0.000367299)
(-0.0480563 -0.00130332 0.000531763)
(-0.0486695 -0.000773986 0.000263489)
(-0.0491842 -0.000814453 8.79584e-05)
(-0.0494007 -0.000881222 2.37395e-05)
(-0.0494079 -0.000889724 -2.28076e-05)
(-0.0492127 -0.000839494 -8.49662e-05)
(-0.0487134 -0.000811941 -0.000257078)
(-0.0481354 -0.00130981 -0.000526914)
(-0.0463221 -0.00340591 -0.000366298)
(-0.0654937 0.000675178 0.00188162)
(-0.0614289 0.00141917 0.00246912)
(-0.063522 0.0016474 0.000411761)
(-0.0654407 0.00170637 -0.000230855)
(-0.0661769 0.00170312 -0.000130508)
(-0.066204 0.00170497 7.56252e-05)
(-0.0655228 0.00171235 0.000183622)
(-0.0636547 0.00166447 -0.000403363)
(-0.0615955 0.00145724 -0.00249367)
(-0.0656449 0.000713942 -0.00193238)
(0.232681 -0.0110301 -0.000456724)
(0.351689 -0.00746699 -0.000751942)
(0.364013 -0.00758195 -0.000476059)
(0.365648 -0.00866163 -0.000343211)
(0.365921 -0.00914387 -0.00010197)
(0.365929 -0.0091569 9.99017e-05)
(0.3657 -0.0087262 0.000342233)
(0.3643 -0.00768018 0.00047167)
(0.353041 -0.00749846 0.00075262)
(0.235146 -0.0112874 0.000479044)
(-0.0380647 0.010177 0.000279183)
(-0.0389829 0.0111304 0.000502362)
(-0.0393924 0.0116905 0.000349701)
(-0.0397277 0.0120511 0.000217951)
(-0.0399026 0.0122096 7.39271e-05)
(-0.0399109 0.012212 -6.44547e-05)
(-0.0397553 0.012061 -0.000205912)
(-0.0394378 0.0117125 -0.000335045)
(-0.0390478 0.0111725 -0.000493268)
(-0.0381352 0.0102257 -0.000276719)
(-0.0578013 0.00423621 0.00120312)
(-0.0597411 0.00523951 0.00185822)
(-0.060934 0.00557649 0.00116318)
(-0.0619051 0.0057427 0.000668971)
(-0.0623933 0.00579596 0.000214681)
(-0.0624151 0.00579683 -0.000191702)
(-0.0619737 0.00574935 -0.000638174)
(-0.0610471 0.00558757 -0.00111934)
(-0.0599082 0.00526617 -0.0018227)
(-0.0580115 0.00426086 -0.0011942)
(-0.0451753 0.00958761 0.00109221)
(-0.0468898 0.0170665 0.00163094)
(-0.047337 0.0189645 0.000819512)
(-0.0477318 0.0197265 0.00043007)
(-0.0479043 0.0198756 0.000126373)
(-0.0479125 0.0198729 -0.000109359)
(-0.0477583 0.0197207 -0.000408153)
(-0.0473771 0.0189761 -0.000786768)
(-0.0469542 0.0171984 -0.00160804)
(-0.0452533 0.00969956 -0.00109015)
(-0.0708269 -0.00310143 0.00810253)
(-0.072475 -0.00300484 0.0106)
(-0.0746203 -0.00321319 0.00354394)
(-0.0762299 -0.00354459 0.00139277)
(-0.0768306 -0.00369205 0.000308601)
(-0.0768537 -0.00369644 -0.000298814)
(-0.0763016 -0.00355874 -0.00135449)
(-0.0747503 -0.00322124 -0.00337161)
(-0.0727237 -0.00300648 -0.0104713)
(-0.0710785 -0.00312553 -0.00810404)
(0.242566 -0.0247797 -0.00302743)
(0.359021 0.000884665 -0.00332686)
(0.371876 0.00214565 -0.00152231)
(0.374479 -0.000196945 -0.000813757)
(0.375184 -0.00129123 -0.000222995)
(0.375202 -0.00132227 0.000205085)
(0.374571 -0.000313103 0.000796333)
(0.372219 0.0020346 0.0014745)
(0.360405 0.00112628 0.00327347)
(0.245213 -0.0248457 0.00303983)
(-0.0345364 0.0231458 0.000517721)
(-0.0353169 0.0248416 0.000932672)
(-0.0355634 0.0258237 0.000652843)
(-0.0357846 0.0265247 0.000434387)
(-0.0359022 0.026849 0.000152672)
(-0.0359097 0.0268576 -0.000125667)
(-0.0358085 0.0265565 -0.000405296)
(-0.0355989 0.0258789 -0.000622771)
(-0.0353666 0.0249371 -0.00091016)
(-0.03459 0.0232682 -0.000510026)