/*--------------------------------*- C++ -*----------------------------------*\
| =========                 |                                                 |
| \\      /  F ield         | OpenFOAM: The Open Source CFD Toolbox           |
|  \\    /   O peration     | Version:  2.3.1                                 |
|   \\  /    A nd           | Web:      www.OpenFOAM.org                      |
|    \\/     M anipulation  |                                                 |
\*---------------------------------------------------------------------------*/
FoamFile
{
    version     2.0;
    format      ascii;
    class       volSymmTensorField;
    location    "4880";
    object      sigma;
}
// * * * * * * * * * * * * * * * * * * * * * * * * * * * * * * * * * * * * * //

dimensions      [1 -1 -2 0 0 0 0];

internalField   nonuniform List<symmTensor> 
11800
(
(159456 77562.8 7.67023e-14 -2858.22 4.06205e-14 38855)
(-78673 67800.9 1.17747e-13 -69.0716 3.73296e-14 -19537.5)
(725097 100098 -1.96522e-15 1566.54 -8.4953e-14 180300)
(-629064 50077.8 0 -2170.13 0 -156622)
(-81593.4 65464 2.19683e-14 -4693.07 -6.20535e-14 -21409.4)
(-393363 103096 8.5076e-14 2096.34 4.46155e-14 -97081.3)
(-73070.1 98977.4 1.61124e-13 -595.401 -4.18903e-14 -18277.9)
(-103110 103199 -2.39826e-14 798.461 9.64614e-14 -25385.5)
(222245 50213.9 3.18131e-14 466.823 -2.17118e-14 55259.4)
(152624 108521 -8.2449e-14 451.976 -6.9432e-14 37981.2)
(184039 63478.9 -6.39852e-14 2104.8 5.47594e-14 46186.1)
(-912367 35795.8 -7.63387e-14 -6754.59 -3.46258e-14 -228053)
(25248.6 -36678.2 1.36915e-16 -68065.8 1.06407e-16 -10623.8)
(671554 50577.7 6.91876e-14 4035.5 -1.89245e-14 167627)
(-536341 96628.6 -5.77838e-14 6313.31 4.49088e-14 -131511)
(2.46672e+06 -10281.8 0 -8493.8 0 609935)
(-47698.2 76892.3 5.45257e-14 4645.43 4.80666e-15 -10682.3)
(-73685.8 70879.9 -3.07532e-14 9079.07 1.76564e-13 -16030.2)
(154099 121039 -3.12109e-14 -19743.9 2.21726e-14 33336.3)
(116326 64333.5 -1.09725e-13 -13129.9 -3.54853e-14 25605.1)
(-493908 56999.6 3.42102e-14 -2192.66 3.58461e-14 -123093)
(-798201 90811.4 5.47122e-14 4099.81 -3.18059e-14 -197033)
(-1.03512e+06 114795 -2.74216e-14 12933.8 1.76154e-14 -253625)
(-949811 64882.9 2.75036e-16 425.638 4.75898e-15 -235562)
(2.01436e+06 86212.2 3.47208e-15 -9033.72 3.97446e-14 497562)
(-1.23689e+06 114738 -2.69375e-14 9080.94 -7.62372e-16 -304644)
(-1.31899e+06 60471 0 11748.6 0 -324354)
(651782 44978.4 -9.08476e-14 -5466.81 -5.4854e-14 160364)
(-1.43488e+06 61604.3 -1.55793e-14 12808.9 -7.50069e-14 -352845)
(-1.55058e+06 62020.3 2.07933e-14 15245.2 -3.23004e-14 -380947)
(426702 47195.6 -1.12616e-13 -2171.08 -2.01783e-13 105335)
(85455.4 59955.3 -1.79481e-14 2871.53 -1.48099e-14 21915.7)
(1.26409e+06 110859 -4.41093e-15 14553.5 -1.92372e-14 317258)
(-30815.8 81059.3 1.47272e-14 -2234.65 -1.10253e-13 -8200.49)
(21780.8 86063.9 -3.89535e-14 1940.57 -1.67158e-13 5885.76)
(-416121 35042.1 -1.02254e-13 -1874.76 -7.42728e-14 -103713)
(24101.3 87387.9 1.38344e-13 1482.71 -1.64484e-13 6347.9)
(1.35501e+06 62432.7 -1.62042e-14 7283.91 -6.9103e-14 338014)
(-49411.4 84974.5 0 -1233.52 0 -12566)
(111108 80058.4 -4.76108e-14 6484.41 8.86729e-14 29177)
(-1.38586e+06 44254.7 -8.44155e-14 -7067.7 -3.92199e-14 -345612)
(-1.50761e+06 43526.6 6.04504e-14 -7550.33 -3.4676e-14 -375941)
(685220 60784.1 -3.5049e-14 -416.291 -1.16604e-13 169914)
(-1.62903e+06 43637.8 -1.14642e-14 -5335.35 -6.12621e-14 -405520)
(448625 59668 2.99319e-13 928.635 -9.33448e-14 111543)
(2.3073e+06 54578.6 0 -8076.16 0 570485)
(993905 126105 -1.73291e-14 -3684.22 9.06341e-15 245694)
(1.18339e+06 43286.8 -3.06063e-14 -12951.5 -2.12337e-14 290410)
(-115940 88159 -1.18658e-13 871.352 -7.30864e-14 -28550.8)
(266882 84918.2 0 2509.05 0 66841.5)
(-947811 50926.3 -5.75255e-15 2573.85 6.08334e-14 -234533)
(-663367 47287.6 1.98917e-13 2973.57 2.33011e-14 -163857)
(-13569.2 85291.9 1.11581e-13 1343.84 6.9453e-14 -3033.37)
(49522.3 137900 -2.404e-15 9051.4 2.09441e-14 14533.3)
(-2.65197e+06 4722.6 -3.67238e-15 -13724.7 -5.78215e-15 -661412)
(2.06457e+06 -95950.3 4.95632e-15 -94445.9 8.70875e-15 488828)
(-70544.8 20239.1 9.60444e-14 1917.94 3.56614e-14 -17027.7)
(-594680 101552 7.16038e-15 -6645.57 -5.93428e-14 -149201)
(477752 63057.6 -6.053e-14 9980.91 8.86416e-14 121016)
(-420254 107329 4.95642e-14 -7798.82 -8.948e-15 -106209)
(2.13883e+06 20068.9 -4.3351e-14 -16356.6 -1.50207e-14 526629)
(-57885.6 89842.1 4.72278e-14 984.451 -7.68346e-14 -14118.3)
(-468369 82556.7 -2.7206e-14 -2822.16 4.67499e-14 -116912)
(375417 82772.7 8.26351e-14 3842.72 -4.7126e-14 94102.1)
(1.98825e+06 10576.8 4.72725e-15 -1281.31 -2.86582e-14 493007)
(-290337 33721.2 -1.35109e-13 2010.75 -1.6324e-13 -71539.6)
(-977277 21001.2 9.49701e-14 5229.42 3.16546e-14 -241185)
(-691333 24298.5 2.78144e-15 3930.29 -1.66801e-13 -170559)
(-73195.4 21720.1 0 -3756.24 0 -19093.3)
(-1.15309e+06 61795.9 -2.16214e-15 12189.8 7.04179e-14 -283081)
(-24133.3 86585.9 -2.7068e-14 -5.97744 5.58657e-14 -5989.46)
(-57513.3 67291.9 -1.04275e-13 -3277.89 1.16621e-13 -15083.5)
(-50385.4 65928.9 7.31327e-14 -1166.56 -4.47486e-14 -12791.1)
(-1.73462e+06 371470 -6.19939e-15 211762 5.57611e-15 -377851)
(2.12145e+06 73789 -1.69892e-15 -7252.25 -1.72072e-14 524576)
(-390910 54413.7 -1.00464e-13 2849.06 -7.30554e-14 -96285.9)
(2.08581e+06 11813.7 -3.6506e-14 4211.69 3.24855e-14 518576)
(-281882 19802.1 8.88203e-14 -416.07 -2.91352e-13 -70044)
(-208873 43849.1 1.67053e-14 -629.826 -1.5936e-14 -51981.9)
(-196940 58720 1.70563e-13 2098.11 1.7098e-13 -48344.1)
(-2.67135e+06 -52694.5 1.33768e-14 12004.1 6.29472e-14 -659839)
(118074 57705.7 0 9674.12 0 31696.8)
(62259 69984 -1.77309e-13 2138.7 -6.98393e-14 15978.4)
(43246.6 74721.1 6.14745e-14 904.859 -4.83712e-16 10954.9)
(-92552.3 66774.6 4.19814e-14 -9581.72 1.18768e-13 -25341.5)
(-1.51167e+06 75689.2 -2.33751e-14 -8000.08 1.17569e-13 -377062)
(463666 53933.1 1.4306e-13 4862.02 -4.44812e-14 116251)
(-1.39537e+06 74313.9 0 -8085.15 0 -348225)
(-1.28022e+06 72892.5 -4.90935e-14 -7168.69 -5.0266e-14 -319428)
(689419 51125.2 6.55173e-14 6021.67 4.00631e-15 172553)
(-14388.3 85003.3 -2.31177e-13 -3163.91 -1.48217e-13 -4355.06)
(1.49529e+06 102091 0 -4854.87 0 369806)
(-123570 74102.9 -4.90474e-14 1893.1 -8.12928e-14 -30190.5)
(76392.2 15180.6 -2.82709e-14 5123.85 -4.10192e-14 20225.8)
(188944 76108.8 2.16719e-13 1782.67 3.88057e-15 47323.2)
(58413.4 -44049.6 -8.71406e-16 -124085 -6.46012e-16 -16294.5)
(-3096.77 12124.5 2.27003e-17 7283.07 -1.35065e-16 1038.71)
(-59013.3 -43809.7 -5.51926e-16 123870 3.67753e-16 16092.2)
(-14435 86352.7 -7.18727e-14 448.09 -1.04448e-15 -3470.44)
(-795248 55999.7 -1.76096e-14 -3003.17 7.01514e-14 -198062)
(54700 38781.8 3.94981e-14 -32.3122 -1.10446e-13 13564.2)
(867586 63464.6 -8.52864e-14 -7853.76 -1.17909e-13 213317)
(-1.41839e+06 116474 5.67187e-15 -891.565 1.15466e-14 -352153)
(-463922 76680.2 -3.50666e-15 7263.96 1.10551e-14 -113306)
(-2316.48 92180.3 -1.10898e-14 -923.163 -5.51597e-14 -803.821)
(371012 105075 -2.27505e-14 2573.29 -3.92945e-14 92694.1)
(-178014 77102.9 -6.7844e-14 -1026.34 1.49519e-13 -44423.6)
(-124599 80349.2 -2.29987e-13 -772.606 -1.10876e-13 -31107.3)
(2.11054e+06 19737.6 1.28189e-14 5635.35 2.66288e-14 525067)
(1.40873e+06 62668.5 2.09744e-14 5156.78 4.26725e-15 350813)
(1.52644e+06 63865 4.01806e-14 5926.33 5.5865e-14 380212)
(1.29275e+06 62094.7 1.4729e-13 4531.24 8.72434e-14 321881)
(-469000 55737 6.7025e-14 -3940.04 1.04645e-13 -117346)
(-696947 54972 -1.77231e-13 -4808.46 6.37032e-14 -174120)
(253128 69129.4 7.54348e-14 -102.591 -3.95277e-14 62780.8)
(1.90013e+06 35141 1.92781e-14 -0.0536779 1.1353e-14 471461)
(268582 31845.1 -5.52356e-14 -2978.9 -2.17129e-13 65901.4)
(-85406.2 79982.8 -1.91581e-13 764.728 1.79065e-13 -21001.3)
(1.77968e+06 79252.6 -2.20551e-14 1317.32 2.7466e-14 441901)
(-154027 112555 -6.19059e-14 -338.774 -1.66554e-14 -38301.4)
(-237453 43610.4 -4.23187e-14 4156.05 -1.78016e-14 -57885.8)
(74981.6 98978.8 1.37094e-13 -2536.65 -1.96199e-13 17975.1)
(107257 106165 -9.54751e-14 -2161.02 6.5649e-14 26076.4)
(-76791.7 81044 -2.77991e-14 4552.68 -4.10003e-14 -17924)
(-130361 70058.9 -1.74448e-13 -1485.38 -1.36081e-13 -32713.8)
(-3017.15 84829.2 -1.6767e-13 -2484.91 -1.26115e-13 -1365.17)
(-39849.3 84057.4 -1.00518e-13 -269.42 1.10393e-13 -9954.27)
(-9139.53 86398 -6.57111e-14 -2360.86 -6.26017e-14 -2853.48)
(9884.97 57773.6 3.12143e-15 41581.4 1.39821e-13 12769.8)
(-39618.5 4931.79 -4.51395e-16 -9156.67 6.64287e-14 -12102.1)
(-2.22533e+06 -360029 1.9985e-14 91070 -1.00697e-14 -529554)
(-1.61372e+06 76688.3 1.44616e-14 -12284.7 -2.2058e-15 -403445)
(506168 49408.2 7.56865e-14 3649.88 -7.37969e-14 126496)
(-1.50823e+06 79046.3 -5.8074e-14 426.279 3.64466e-14 -374116)
(735858 45381.4 -3.40562e-14 4090.71 1.03183e-13 183596)
(-1.38934e+06 76591.4 2.21635e-14 537.154 2.22685e-14 -344589)
(-1.27266e+06 74592.5 -1.28057e-13 1168.34 9.78026e-14 -315482)
(421362 70342.8 7.41485e-14 -5428.43 2.06535e-13 103202)
(-1.28951e+06 29247.6 7.93589e-14 8339.09 -1.08976e-13 -317884)
(616632 74201.8 9.19302e-14 -6761.92 -7.31797e-14 151321)
(-1.18856e+06 30898 6.58105e-14 7427.39 -1.13197e-13 -293062)
(-1.08929e+06 32966.6 -6.82273e-14 7314.63 -6.14149e-14 -268459)
(-604386 95550.8 5.08041e-15 19071.2 5.10546e-14 -145228)
(186524 80869.5 -3.7024e-14 -6025.6 -2.46433e-13 44785.3)
(267052 78871 -5.91367e-14 -8287.87 -1.70766e-13 64204.6)
(-389400 77061.6 -1.77748e-14 12243.7 1.0229e-13 -93580.2)
(1.57449e+06 48782.6 -1.1259e-13 2089.94 -3.79854e-14 391180)
(-1.6224e+06 -22861.8 1.08221e-13 -12717.5 3.34363e-14 -405705)
(913665 45796.1 7.61923e-14 -2558.83 -7.09551e-14 226064)
(-460069 44313.9 1.68704e-15 8330.71 1.00083e-14 -112085)
(-211832 76899.6 -9.59946e-14 2044.46 -7.92937e-14 -52052.6)
(-222040 63143.6 8.2151e-14 -3117.65 -7.42966e-14 -55866.2)
(23702.7 85598.2 6.24497e-14 1359.55 1.14022e-13 6218.46)
(-315612 55260 -1.40437e-13 -1233.69 1.45589e-13 -78615.9)
(272908 67196 -7.35945e-14 -4664.33 -7.7732e-14 66556.6)
(185267 76014.3 -6.7471e-14 2939.67 5.19872e-14 46697.8)
(-589552 62900.5 1.1418e-13 8095.68 -7.6836e-14 -144271)
(-826309 69963.2 4.1448e-14 3515.38 9.07091e-14 -204152)
(1.66605e+06 19246.7 2.54484e-14 1900.71 -3.32603e-16 413852)
(-7759.52 90191.9 3.27836e-14 -825.39 -1.59399e-13 -2130.09)
(2.40239e+06 85376.1 -2.95555e-14 -14515.1 -1.60954e-14 592481)
(-259776 69009.1 -1.21305e-13 937.183 8.35593e-14 -64223.1)
(2.1e+06 54508.7 0 -21096.8 0 515818)
(-603112 69885.6 3.55371e-14 -6280.72 1.48398e-13 -151203)
(-657695 69719.2 -3.64372e-14 -7041.46 4.31953e-14 -164935)
(-711823 70503.8 -5.91949e-15 -7394.36 1.56011e-13 -178452)
(333355 77950.4 -8.98679e-14 1121.06 2.20945e-14 82990.3)
(226607 79290.6 -9.59271e-14 737.565 2.36742e-14 56408.9)
(-2.60934e+06 -22944.5 2.34171e-14 -9827.6 -1.33458e-14 -649868)
(-1.63375e+06 75103.3 -2.42088e-14 -9582.51 4.55772e-14 -407744)
(577582 53099.3 -9.574e-14 5247.52 -5.60141e-14 144612)
(803336 50130.8 2.68701e-13 6446.97 -1.44376e-13 200924)
(89481.4 86543.6 5.26404e-14 -8549.79 -1.36055e-13 20080.8)
(-469479 38811.7 0 1670.88 0 -116073)
(-475193 20627.9 1.43987e-13 -3355.73 -7.31792e-14 -118738)
(2.30178e+06 60427.7 3.84663e-14 -16320.9 2.56442e-14 567068)
(2.35553e+06 -16364.8 3.18953e-14 14464.9 2.81574e-14 588044)
(1.24528e+06 23659.6 1.98758e-15 -1339.74 6.75617e-14 308647)
(1.14408e+06 26349.6 1.38932e-14 -1088.42 1.64214e-13 283600)
(1.34812e+06 21039.2 3.48624e-14 -2475 -5.03982e-14 333881)
(-588653 76260.5 -8.68249e-14 4904.17 7.80977e-14 -144840)
(-390133 71364.7 -8.42641e-14 3855.17 9.23902e-14 -95843.3)
(256695 102128 0 2087.87 0 64209.2)
(175439 98129 -3.49707e-15 780.305 1.33932e-13 43723.6)
(559585 75688 -1.0303e-13 -131.859 8.42222e-14 138812)
(-235854 71415.4 -8.24007e-14 3101.01 1.95278e-13 -57750.8)
(-365377 107132 -1.62487e-14 4752.34 7.17627e-14 -89478.4)
(113938 78285.9 -3.06972e-13 -844.337 -8.14312e-14 28060.9)
(162524 74885.3 -2.12194e-13 -1236.09 8.87553e-14 40018.8)
(-98902.4 90194.1 -4.13961e-14 2292.2 -5.79029e-16 -23971)
(-278375 57675.7 -3.40847e-14 6095.12 -2.12695e-14 -67558.1)
(-256290 59404.5 2.25449e-14 5464.4 -3.84734e-14 -62234.9)
(-258379 42928.9 0 -388.258 0 -64205.4)
(-122659 110723 4.63691e-16 -5450.89 -4.44571e-14 -31786.7)
(-1.19883e+06 1771.53 1.00468e-13 -7188.37 -4.39901e-14 -299236)
(1.5038e+06 58568.5 -1.30366e-13 -6858.59 -1.31465e-14 371421)
(1.82491e+06 184190 7.69075e-15 -311253 3.88397e-15 375568)
(-43442.9 74901 2.74132e-14 -3835.49 -6.21162e-14 -11730.7)
(280280 25403.4 1.00038e-13 2539.47 -2.28335e-13 70173.3)
(-2.2838e+06 -286962 1.92097e-14 184503 -1.23795e-14 -520879)
(130525 59387.9 4.28066e-15 3865.72 1.16036e-13 33345)
(358608 41955 8.07534e-14 794.63 -9.26852e-14 89175.1)
(396346 46151 1.12758e-13 -5708.84 -4.75644e-14 96925)
(-5015.85 88887.5 8.49418e-14 -110.664 -1.25932e-14 -1271.99)
(-5678.03 92047.1 8.95988e-14 -653.861 7.57421e-15 -1571.07)
(1.08863e+06 33721.7 2.85924e-14 -5183.84 9.49791e-14 268825)
(902566 97691.1 3.63011e-14 8413.76 -8.74958e-15 226033)
(-821163 80931.2 0 8254.67 0 -201699)
(-701793 42112.2 -9.24997e-14 -10714.2 -5.78435e-14 -176787)
(2.22051e+06 -363843 -8.06442e-15 -93299.5 -5.42962e-15 527805)
(-684868 124429 -7.37627e-15 19092.5 8.57705e-14 -165192)
(-1.09379e+06 39521.8 5.06054e-14 -2289.81 -2.97992e-14 -271960)
(-2.31417e+06 -932116 -2.16857e-14 484257 8.4708e-15 -454038)
(2.78779e+06 1610.7 0 38085.7 0 701156)
(-2.02656e+06 -863165 -7.05635e-15 228029 2.18058e-15 -446251)
(357864 123276 -4.82096e-14 -162.12 1.69757e-14 88753.2)
(-80089.9 71931.7 -8.66366e-15 -801.43 1.2111e-13 -20070.8)
(-1.05714e+06 90325.8 4.29318e-14 -8952.86 -4.71814e-14 -264520)
(-968399 90844.1 6.40197e-14 -8071.85 -7.99518e-15 -242282)
(-888892 88757.1 -7.30923e-14 -7252.8 2.84338e-15 -222352)
(315962 62722.9 6.42595e-14 4155.65 -1.79247e-13 79427.6)
(475273 59974.2 -1.61235e-13 5312.37 1.56711e-13 119243)
(46864.2 77873.9 -2.53576e-14 -8159.16 1.18976e-13 9603.51)
(66978.7 73405.9 6.00017e-14 -11229.2 7.68433e-14 13832.6)
(-151069 117420 -6.79787e-14 25188.4 1.83832e-14 -31233.5)
(-97068.9 68168.2 5.09641e-14 16669 -6.5163e-14 -19948.9)
(-1.26854e+06 -510567 -5.46504e-15 -31727.5 1.14119e-15 -322623)
(239649 118653 -3.86578e-14 18190.4 -1.3685e-13 63975.1)
(-119161 70005.9 -1.3396e-13 -9408.61 -6.12192e-14 -31900.7)
(-559779 112430 0 38.8595 0 -138883)
(239183 63909.1 1.02447e-13 1269.48 -4.17893e-14 59661.1)
(-117985 96276.5 0 -690.343 0 -29445.7)
(-87896.5 76027.6 -6.52367e-14 -1023.25 -1.03299e-13 -22062.8)
(836894 79975.4 9.11283e-14 4654.21 -9.52975e-14 208805)
(859763 49299.3 1.39559e-13 62.2097 6.66389e-14 213340)
(2.31248e+06 -931531 -8.11687e-15 -484357 -2.68185e-15 453595)
(1.26726e+06 -510574 9.48061e-15 31651.7 2.59816e-15 322287)
(-259662 54973.2 1.98862e-14 2055.76 2.82911e-14 -63917.4)
(-277071 55793.8 -6.04164e-14 -3016.01 -1.23503e-13 -69495.3)
(-1.48877e+06 -1211.32 -6.63092e-14 -5556.13 -1.51823e-14 -370772)
(1.20843e+06 53912.6 1.50317e-13 -4010.49 -3.9251e-14 298841)
(390317 72067.9 5.00021e-15 -3302.14 2.73557e-13 96026.2)
(588172 77889.3 9.29447e-14 -4007.84 1.0102e-13 144943)
(-1.34826e+06 21250.3 -2.45287e-15 -706.69 5.7398e-14 -334706)
(-1.24791e+06 25759.5 -5.84657e-14 -1004.53 1.93298e-14 -309882)
(-1.14623e+06 28412.5 -3.93734e-15 -1047.91 9.08505e-14 -284664)
(-17630.4 91460.4 -1.41422e-13 -893.165 4.08911e-14 -4596.07)
(-1.45929e+06 23634.2 3.78882e-14 -2238.31 4.0733e-14 -362635)
(491088 72779.9 -9.52605e-14 -3348.18 4.67162e-14 121018)
(689844 77118.6 0 -3675.17 0 170253)
(650421 57008.3 3.62638e-14 -4896.16 8.64646e-14 160168)
(125196 76318.3 -1.19519e-13 581.267 -3.15845e-13 31208)
(10968 78114.5 -1.0473e-13 -9234.86 -3.85015e-14 430.03)
(528600 39486.8 -1.31847e-13 16279.7 2.35765e-14 135196)
(-451405 59485.3 -1.13459e-14 -1319.66 -9.18676e-14 -112330)
(71455.6 79199.8 1.53828e-15 -17089.5 1.9113e-14 13489.3)
(2.02429e+06 -863259 -7.34411e-15 -228699 -1.84563e-15 445522)
(322102 84324 9.40273e-15 -2697.36 -1.74441e-13 79250.8)
(388034 81923.3 8.12378e-14 266.902 2.76217e-14 96345.4)
(-254165 80884.5 0 -745.182 0 -63248.4)
(-301937 91375.9 3.0358e-14 -7853.86 -8.44458e-14 -76865.5)
(892865 88556.1 0 8039.09 0 223532)
(972704 90712.9 5.35294e-14 8864.73 5.07555e-14 243547)
(1.05189e+06 94373.5 -1.19662e-13 9300.65 -1.15743e-14 263304)
(-475045 56940.8 1.70193e-13 -6088.52 1.72839e-13 -119379)
(-319248 61647.9 8.94967e-15 -4379.29 -1.03478e-13 -80298.4)
(-16908.3 87007.4 1.00738e-13 -628.388 5.36135e-14 -4351.21)
(2.08805e+06 11012.6 -1.54723e-14 -32903.6 -2.81901e-14 509924)
(-12988.1 103147 -1.08791e-13 -6377.7 3.38859e-14 -4805.05)
(27866 49284 -1.03447e-13 12593.3 -6.43409e-14 10038.8)
(47020.6 82481.1 7.82738e-14 1433.82 -1.81585e-13 12022.5)
(505795 83580.4 8.31953e-14 568.066 8.78662e-14 125639)
(-196819 3431.38 -1.38532e-13 -3216.31 6.78449e-15 -49632.8)
(668955 93241.5 0 -4160.18 0 164949)
(2.19236e+06 -96500.5 3.55642e-16 -303371 1.42775e-16 468697)
(502279 21725.8 7.99822e-14 7474.09 1.8182e-13 126480)
(482966 35081.4 3.6247e-14 -7001.4 1.97466e-14 118097)
(-727518 79959.3 1.1899e-14 6708.4 2.51252e-14 -178847)
(-517252 74608 -9.28125e-14 5730.12 2.97239e-14 -126919)
(-619840 48292.5 -1.89647e-13 -3180.18 -3.31597e-14 -154584)
(-444216 53377.7 9.57998e-15 -3246.46 -1.00692e-14 -111025)
(1.5318e+06 19078.2 -6.57991e-15 -4038.74 2.16825e-14 379068)
(1.26868e+06 100413 2.70091e-15 -713.82 -4.4844e-14 314609)
(367413 92216 1.67856e-14 -4547.07 9.9251e-15 90034.4)
(494048 75846.6 3.15167e-14 -367.884 5.35835e-14 122492)
(270870 91096 8.77216e-14 -4454.72 6.24797e-14 66103.1)
(362799 76228.8 7.86569e-14 -1367.6 -1.24453e-14 89678.4)
(-692583 52065.6 -1.44174e-14 7262.77 3.61332e-14 -170042)
(-911523 84115.8 -3.99711e-14 2841.94 7.18441e-15 -225462)
(-207317 134287 4.4297e-14 -684.398 3.15906e-14 -51609.3)
(1.49732e+06 58851.1 4.94426e-14 5949.07 3.54397e-14 372992)
(1.62343e+06 58382.3 -1.07033e-14 26505.4 5.31147e-15 409383)
(1.92397e+06 59982.8 8.69383e-15 -1826.23 5.47105e-15 476924)
(135023 85442.2 -1.70752e-13 -578.504 2.07268e-13 33358.4)
(-495647 22746.4 -1.05789e-13 -7059.61 -5.43783e-14 -124732)
(-479704 38142.1 -1.34242e-13 4013.37 8.97618e-14 -118029)
(2.25484e+06 -10879.6 0 14004.5 0 562946)
(2.26138e+06 68013.8 0 1528.25 0 561474)
(1.35919e+06 52631.5 2.07219e-14 -1826.61 9.84883e-14 336789)
(1.34732e+06 6618.83 6.59963e-14 5423.97 -1.85542e-13 335644)
(-1.39885e+06 9796.77 0 -10260.1 0 -349628)
(-1.36429e+06 53192.4 0 9308.5 0 -336199)
(38934.9 82481 -2.35301e-14 2353.81 6.73706e-14 10244.6)
(-94439.5 33698.1 2.51795e-13 -5295.94 -1.06538e-13 -24746.4)
(-367056 35350.4 -6.6395e-14 -3596.24 -2.44902e-14 -91966.3)
(2.9375e+06 3047.46 0 59269.9 0 743559)
(-51732.7 71839.6 -1.66052e-13 -973.405 -4.13899e-15 -13077.5)
(-61632.6 74635.6 -2.3917e-14 -4718.89 -1.32968e-13 -16463.1)
(326800 99767.4 -8.55773e-14 -7517.6 -5.86289e-14 79220.6)
(-257418 97492.1 -1.78245e-13 -7842.86 7.46147e-14 -65816.6)
(312734 58252.8 5.16917e-14 -8313.5 -5.34452e-14 75532.8)
(-1.19518e+06 49837.7 3.66883e-14 -11051.5 -7.46362e-14 -299290)
(1.20557e+06 54893.3 -1.52547e-14 -12503.4 -9.12554e-14 296023)
(-2.01147e+06 83351.5 1.57679e-14 -12432.9 -6.71819e-14 -502172)
(-2.36462e+06 -217062 8.28214e-15 435405 -5.93322e-15 -478678)
(829690 106687 -1.32051e-14 -17348.6 1.63767e-14 201558)
(95581.7 107987 -8.83705e-15 -5184.18 4.9739e-14 22429.5)
(-1.1276e+06 88340.4 -4.42388e-14 -4713.84 -1.24003e-13 -280951)
(949337 27253 -5.76661e-14 12502.1 8.31636e-14 238652)
(-655946 52920.6 6.35491e-14 -11271.3 8.14856e-14 -165550)
(513275 87123.5 9.56044e-14 6345.44 1.67782e-15 128928)
(96255.7 93596.2 2.67026e-14 5889.11 1.24899e-15 25344.2)
(163992 71393.4 -1.12927e-13 -843.014 1.41763e-13 40480.7)
(-324617 60749.7 7.71756e-14 -20608.5 -8.19155e-14 -85657.5)
(-525814 125750 1.24908e-15 9001.48 1.03162e-13 -128232)
(-298386 62177 1.19155e-14 -19028.3 -8.29438e-14 -78756.8)
(-483046 121827 7.53551e-14 8247.89 -2.75288e-14 -117807)
(120083 49325.7 -4.71482e-14 -3425.76 1.46352e-14 28945)
(-56808.9 104574 -1.25464e-15 2775.56 -9.31502e-14 -13406.8)
(-37105.1 102185 1.1564e-13 2781.02 9.27187e-14 -8516.49)
(-24774 90164.5 5.95333e-14 958.186 -1.29574e-13 -5909.19)
(1.594e+06 40636 3.39231e-14 4668.02 5.26123e-15 396662)
(-16431.4 104590 -1.30653e-13 -7512.61 -5.80524e-14 -5940.99)
(-63023.7 74291.9 6.46369e-14 -4344.41 -2.1635e-13 -16715.4)
(2.21193e+06 -68102.2 -1.68033e-14 -113808 -1.22262e-14 520586)
(373796 60763.7 6.88616e-14 -5421.7 -8.83164e-14 91401.2)
(-860755 107479 4.57803e-14 15693.1 1.23492e-14 -209677)
(-993836 69178.9 -7.51052e-14 2054.24 -3.28537e-14 -246081)
(-986616 29754.4 0 -12230.5 0 -247834)
(1.24118e+06 16333.3 -6.75751e-14 5750.38 -3.21262e-14 309390)
(1.18915e+06 78216 4.14815e-15 9915.02 8.04495e-14 297512)
(-37507.7 61412.7 -7.64548e-14 769.979 6.22967e-14 -9115.37)
(-28555.7 61892.6 5.54612e-14 1610.73 -3.10015e-13 -6685.61)
(-767199 115029 -3.01715e-14 9095.15 -7.35893e-16 -188101)
(-1.03358e+06 80463.8 0 13202.1 0 -253176)
(728502 47868.2 1.64998e-14 8167.05 4.04774e-14 182783)
(-1.88051e+06 102280 7.21952e-15 -9155.08 -2.27535e-14 -468865)
(67580.8 71770.5 0 17395.2 0 21084.3)
(1.04638e+06 41236.6 -3.57665e-15 -3504.09 2.48307e-14 258758)
(793924 111624 -1.93737e-15 6264.66 9.38772e-17 198543)
(-503396 92120.3 1.42068e-13 4516.57 -1.82661e-14 -123782)
(-390829 61446.2 -1.38858e-14 -4108.57 1.00069e-13 -97992)
(-359020 87576.2 2.19948e-14 3855.78 -8.35454e-14 -88123.4)
(-281573 65877.8 -1.24321e-15 -3336.97 4.90824e-15 -70691.9)
(-398761 40739.6 5.14226e-14 -80.0331 7.5922e-14 -98960.6)
(-336587 46492.7 -8.99502e-14 2578.04 1.80946e-14 -82874.3)
(-411760 112266 0 959.683 0 -101928)
(-461907 113105 -4.51506e-14 -1265.08 3.9206e-14 -114922)
(-501937 116299 -3.68159e-15 -1591.94 -4.19563e-15 -124936)
(137622 71855.4 -2.21406e-13 1304.44 -1.10656e-13 34470.4)
(-27365.4 85736.5 -4.91448e-14 -2356.36 9.77843e-14 -7374.57)
(994758 42532.6 -2.76194e-14 5941.44 7.87295e-14 248294)
(1.0416e+06 58711 3.82585e-14 -6773.97 -7.43736e-14 256761)
(171887 75423.5 7.9655e-15 1726.13 -5.5171e-14 43077)
(252488 68956.4 0 2989.08 0 63389)
(-541436 111049 5.6355e-14 -2840.33 -6.1885e-14 -135046)
(481716 65116.7 -1.07744e-13 4762.08 -1.37142e-15 120705)
(526001 98872.8 -4.71652e-14 5424.01 -2.92233e-15 131857)
(-193704 83276.2 -9.09784e-14 -384.436 1.30338e-13 -48157.2)
(-165418 87292.3 5.30764e-14 -1720.9 3.11248e-15 -41470.7)
(-236938 91618.1 8.59626e-14 -1382.36 3.05665e-14 -59132.2)
(-263031 78110.1 0 -3333.5 0 -66090.4)
(-1.13671e+06 42929.6 2.51085e-14 -287.328 -3.82619e-14 -282112)
(530916 80451.7 -4.16618e-14 -1221.32 -1.64574e-13 131428)
(377022 77712.9 -1.90823e-14 -1288.66 -2.72707e-15 93227)
(-121238 215681 -1.1448e-14 24163 -8.15406e-15 -24086.4)
(1.37526e+06 34537.5 -8.72996e-14 -9859.44 -5.22791e-14 338784)
(-1.60388e+06 8385.85 7.54782e-14 2210.09 4.5154e-14 -397406)
(-180609 199183 0 -7091.29 0 -46572.3)
(-189032 80501.4 3.1806e-14 2094.21 9.5976e-14 -46383.2)
(-159487 85135 -2.39235e-13 3688.66 -6.06683e-14 -38656.7)
(-276124 80024.7 1.03144e-13 1749.18 1.15282e-15 -68078)
(-237767 88177.3 0 3182.78 0 -58205)
(540374 63031.7 5.22917e-14 -4871.66 -8.4151e-14 132869)
(620390 90072.2 1.91058e-14 -3686.12 8.09381e-15 153017)
(504728 67472.5 -3.89457e-14 -9995.65 3.72684e-14 122753)
(588485 93380.8 4.1619e-14 -6918.81 1.1485e-13 144298)
(463508 67956.1 3.26706e-14 -9124.68 5.47741e-14 112742)
(540281 91916.5 -7.09463e-14 -6390.07 4.05243e-14 132469)
(424480 39790.4 3.24597e-14 -327.792 1.22523e-13 105241)
(409562 22333.9 9.54415e-14 1911.96 2.04275e-13 102095)
(-805027 88090.2 -1.80662e-14 1084.07 2.36935e-14 -199475)
(383827 85681.5 -9.88179e-14 -4771.73 -2.40416e-15 94051.4)
(-907737 62580.6 0 7795.5 0 -223294)
(1.5703e+06 94623.4 5.29522e-14 -13298.3 -3.32946e-14 386323)
(-798671 38378.9 9.95508e-14 3030.13 -1.63461e-13 -197415)
(-581056 44812.7 1.20261e-13 1001.55 -8.07942e-14 -143923)
(-1.74615e+06 -825524 -6.71625e-15 276600 1.50136e-15 -364625)
(51874.8 80180.7 1.34374e-13 78.1665 -3.52712e-14 12890.6)
(1.66533e+06 50439.7 -1.77024e-14 -3771.69 -9.01532e-16 412266)
(-815814 61023.1 -2.7839e-14 3130.6 -8.07334e-14 -201643)
(-586106 58866.7 1.74214e-13 2842.19 8.56983e-14 -144720)
(2.46793e+06 -20739.8 2.87006e-14 -5383.32 1.27739e-14 611008)
(-111777 71148.8 -1.92717e-14 -1888.91 7.72782e-14 -28202.8)
(1.71306e+06 10775.3 4.39751e-14 4992.08 -2.73079e-14 426285)
(-403761 62287.9 6.02942e-14 1570.12 -1.06252e-13 -99791.8)
(-1.40931e+06 92777.8 3.56299e-14 14492.2 -4.64458e-15 -346083)
(-1.32454e+06 57464.5 -2.17635e-14 -7665.91 -1.65028e-15 -330547)
(1.28514e+06 59076 -4.11879e-14 2230.07 2.69057e-14 319423)
(-165082 84232.2 -2.62792e-13 6475.74 -1.19565e-13 -39353.3)
(-3822.89 -44316.5 2.73347e-16 -69485.4 9.71758e-17 -18189.3)
(-19732.5 75934.4 0 3070.24 0 -4134.24)
(-2.31757e+06 -741119 1.10326e-14 290240 -3.04102e-15 -503021)
(1.74347e+06 -825570 1.30688e-14 -279017 4.10899e-15 363361)
(-1.13037e+06 97138.6 4.61601e-14 -9035.09 -4.47249e-14 -282710)
(394868 59412.6 2.01429e-14 3916.78 7.76962e-14 98946.6)
(549805 54696.5 -6.47074e-14 5302.82 1.47293e-13 137733)
(157356 79025.1 1.29729e-13 -1206.13 3.86179e-14 38744.1)
(-294666 14188.5 7.5181e-14 -40.8197 -1.15576e-13 -73122.8)
(267326 104611 -6.23951e-14 -1759.26 5.70802e-14 65892.4)
(-135185 62026.2 1.84331e-14 796.42 2.82516e-14 -33344.5)
(-120493 112690 1.31188e-14 4917.4 3.79993e-14 -28676.7)
(-1.90486e+06 -1197.93 -6.06754e-15 51034.6 1.43358e-14 -459971)
(15530.6 -26373.4 7.17419e-17 -46057.9 4.45313e-17 -7574.44)
(-670452 104154 -2.77989e-16 8394.59 5.21537e-15 -164270)
(528576 56287 4.68415e-14 -3563.07 1.45004e-13 130266)
(1.97313e+06 -382435 1.16282e-15 -51566.9 1.49955e-15 476778)
(-59912.5 61592.3 -1.20238e-14 -10578.9 -9.34397e-14 -17490.3)
(-67111.5 107054 9.53894e-15 -5007.42 9.12208e-14 -17894.2)
(-38014.7 93088.6 -1.632e-15 -30.1955 -1.39633e-13 -9439.71)
(-97477.6 76990.5 -2.57023e-14 4169.5 3.4996e-14 -23151.6)
(44832.1 91787.7 4.18328e-14 -1688.33 1.08066e-13 10704.8)
(29460.4 93623 -9.83613e-14 -120.481 -3.20996e-14 7279.82)
(-1.97661e+06 -379959 4.93818e-15 49756.7 -1.52715e-15 -478091)
(702471 95434 -3.79045e-14 2731.14 2.04853e-14 174975)
(-246846 77714.4 -2.63331e-13 -1056.01 -7.46887e-14 -61509.4)
(834018 81336.1 1.36335e-13 4901.92 -2.30778e-13 208153)
(766973 80606.2 -1.72573e-15 4486.41 -8.86293e-14 191415)
(702790 78302.2 -2.53842e-13 2490.12 3.82618e-14 174994)
(121004 43596.7 -1.28688e-13 3931.83 -4.81299e-14 30999.2)
(-1.62874e+06 30897.1 6.84816e-14 -4055.6 -6.63843e-14 -405130)
(518309 62091.6 1.39523e-13 -2980.66 1.50535e-14 127863)
(737152 64657.1 -6.3158e-14 -2998.71 -9.02793e-14 182158)
(-140238 77150 -2.23033e-13 -312.215 -3.75896e-14 -34873.3)
(1.03466e+06 104139 1.44233e-14 -13802.9 2.07702e-14 253294)
(200535 59257.9 -9.0244e-14 575.49 6.11085e-14 49899.7)
(-2.06913e+06 21595.5 -2.30647e-14 -2754.39 -8.51167e-15 -514076)
(60746.6 79084.9 -1.16384e-13 1804.98 -9.78774e-14 15520.3)
(-176195 84992.4 -2.31406e-13 1233.61 1.09232e-13 -43411.4)
(599132 63395.8 1.73368e-13 404.847 -2.49168e-14 148757)
(551002 64214.9 1.62231e-13 342.182 3.94727e-14 136800)
(504320 62998 -1.17734e-13 -1602.56 3.24158e-14 124734)
(1.07809e+06 44322.3 1.73539e-14 40.8801 3.6322e-14 267507)
(240594 85388.5 -7.80902e-14 3431.49 -1.67272e-13 60547.6)
(-598682 68572.8 5.28088e-14 -9268.22 1.17704e-15 -150845)
(-465679 127140 3.21056e-14 4233.74 3.57566e-14 -114494)
(-262946 50781.5 0 2019.86 0 -64741.1)
(-836380 95007.8 -7.13745e-14 -9551.57 2.17236e-14 -209893)
(-912498 97395.6 -1.07229e-13 -10623.8 -7.07157e-15 -229045)
(-990269 100628 -1.06914e-13 -12048.1 5.14759e-14 -248695)
(474756 63030.4 2.21711e-15 7770.6 2.74625e-14 119725)
(324030 68096.7 3.47865e-14 5696.69 -4.35372e-14 81811.8)
(82190.8 5745.6 -1.01128e-13 4208.95 3.64725e-14 21437.5)
(166462 65987.8 0 -1756.5 0 40866.9)
(213521 52837.2 -1.18433e-13 2159.09 7.06684e-14 53514.7)
(2.39046e+06 -119622 -6.20805e-15 -311053 -2.98673e-15 515944)
(929049 42939.9 1.16184e-13 1909.86 -1.19214e-13 230990)
(-713783 86624.4 0 1602.2 0 -176706)
(-498596 77825 -5.76058e-14 9754.47 -2.52672e-15 -121291)
(401671 82093 3.07999e-14 -4104.75 -3.80812e-14 98644.2)
(-127863 98295.2 5.14782e-14 -2813.25 4.22212e-14 -32423.4)
(-15346.8 94162.4 1.51936e-13 -3358 -1.19674e-13 -4641.03)
(42853.9 66688.3 1.2066e-13 10354.4 -1.90817e-14 13202.1)
(46729.9 65664.5 -6.30564e-14 11320.8 -5.86823e-14 14403.6)
(-4034 120213 -3.15642e-15 -2851.98 -2.58368e-14 -1708.55)
(-11212.4 62046.7 -2.83021e-14 -1036.34 9.51465e-14 -3039.16)
(828.022 72509.2 -1.06107e-13 343.324 7.90458e-14 290.635)
(14457.4 74942.9 1.01417e-13 -14688.1 -4.60533e-14 -57.2437)
(177059 50599.3 -7.77783e-15 2462.44 -3.65609e-14 44542.8)
(-323422 120223 -1.82487e-15 1993.54 -1.75779e-14 -79752.9)
(105423 75384.2 2.54331e-13 1646.41 -5.00238e-14 26566)
(16389.6 116421 1.04713e-14 -19242.3 1.48871e-14 -707.821)
(-687730 118970 -2.61707e-14 -2821.42 -1.56927e-14 -171340)
(882683 52920.4 8.6945e-14 3563.79 7.74902e-14 219896)
(-380030 88447.3 -9.78561e-14 -455.461 3.20011e-14 -94406.2)
(-1.5818e+06 280626 -4.51464e-15 277619 2.69593e-15 -323595)
(-234127 48361.5 6.9722e-14 -1930.2 7.56826e-14 -58570.7)
(-383349 120633 0 4166.77 0 -94082.8)
(114391 76043.9 1.35729e-13 766.812 -1.87419e-13 28572.9)
(178207 69398.3 7.17563e-15 -490.275 2.32882e-14 44095.1)
(1.73889e+06 -384677 -1.39849e-15 56186.3 2.43729e-16 445395)
(-2.41673e+06 8017.45 -1.92961e-14 14433.6 8.8658e-15 -596059)
(763545 61724.5 4.27209e-14 3782.73 3.58746e-14 190390)
(830690 60822.2 -4.3203e-14 3944.04 9.41021e-14 207090)
(-251051 84158.7 -3.22071e-13 695.931 -1.1496e-13 -62118.2)
(177388 107454 5.65327e-14 11758.3 1.11358e-13 46931.1)
(-38396.9 72049.1 9.06162e-14 -2736.49 1.37838e-13 -10206)
(-985129 -639915 -1.19645e-15 73788.5 5.03435e-16 -226122)
(-2.35796e+06 77769.8 6.31597e-15 1794.98 8.16293e-15 -584613)
(2.08921e+06 37003.8 3.43043e-14 4133.3 -1.68846e-14 519401)
(-3.01696e+06 -53222.1 -8.88372e-15 -7987.45 -3.82151e-15 -750551)