/*--------------------------------*- C++ -*----------------------------------*\
| =========                 |                                                 |
| \\      /  F ield         | OpenFOAM: The Open Source CFD Toolbox           |
|  \\    /   O peration     | Version:  2.3.1                                 |
|   \\  /    A nd           | Web:      www.OpenFOAM.org                      |
|    \\/     M anipulation  |                                                 |
\*---------------------------------------------------------------------------*/
FoamFile
{
    version     2.0;
    format      ascii;
    class       volScalarField;
    location    "0.52";
    object      epsilon;
}
// * * * * * * * * * * * * * * * * * * * * * * * * * * * * * * * * * * * * * //

dimensions      [0 2 -3 0 0 0 0];

internalField   nonuniform List<scalar> 
9648
(
2397.75
2386.03
2383.8
2376.73
2365.03
2348.25
2326.63
2299.9
2267.96
2230.9
2188.91
2142.14
2091.44
2037.77
1981.95
1924.94
1867.85
1811.72
1757.25
1704.98
1655.44
1608.95
1565.64
1525.65
1488.98
1455.53
1425.2
1397.93
1373.61
1352.08
1333.18
1316.81
1302.76
1290.9
1281.13
1273.31
1267.33
1263.1
1260.6
1259.74
1260.4
1262.58
1266.25
1271.33
1277.86
1285.89
1295.38
1306.3
1318.74
1332.85
1348.61
1365.99
1385.23
1406.3
1429.14
1453.57
1479.35
1506.09
1533.05
1559.62
1585.42
596.882
586.795
576.413
565.191
555.435
549.244
546.22
545.504
546.705
549.982
555.077
561.313
568.249
575.493
582.691
589.466
595.636
601.167
606.048
610.225
613.81
616.877
619.474
621.719
623.727
625.559
627.295
628.998
630.775
632.655
634.658
636.853
639.257
641.889
644.774
647.939
651.377
655.082
659.077
663.384
667.994
672.892
678.088
683.592
689.384
695.495
701.918
708.622
715.586
722.801
730.228
737.83
745.555
753.433
761.321
769.197
776.906
784.555
792.007
799.186
806.052
238.556
240.373
243.438
248.705
256.15
265.429
276.67
289.517
303.879
319.388
335.829
352.747
369.793
386.624
402.943
418.508
433.143
446.748
459.261
470.675
481.03
490.374
498.784
506.327
513.092
519.165
524.625
529.586
534.102
538.246
542.086
545.671
549.067
552.312
555.447
558.493
561.473
564.404
567.302
570.188
573.076
575.984
578.908
581.858
584.836
587.831
590.841
593.845
596.837
599.796
602.717
605.594
608.387
611.149
613.763
616.33
618.752
621.165
623.409
625.528
627.512
135.158
144.192
154.429
166.186
179.538
194.431
210.82
228.508
247.265
266.746
286.634
306.549
326.171
345.197
363.382
380.517
396.461
411.125
424.464
436.502
447.288
456.881
465.355
472.78
479.245
484.847
489.701
493.889
497.509
500.632
503.325
505.674
507.731
509.56
511.2
512.679
514.025
515.257
516.407
517.492
518.533
519.549
520.551
521.548
522.541
523.533
524.522
525.503
526.477
527.434
528.356
529.268
530.143
530.993
531.767
532.527
533.266
533.977
534.638
535.258
535.873
99.8859
112.152
125.812
140.952
157.586
175.654
195.011
215.424
236.597
258.158
279.749
301
321.605
341.298
359.868
377.126
392.961
407.309
420.165
431.586
441.639
450.388
457.914
464.28
469.6
474.001
477.581
480.475
482.737
484.465
485.757
486.663
487.285
487.661
487.826
487.818
487.665
487.396
487.041
486.627
486.168
485.689
485.202
484.721
484.247
483.786
483.341
482.909
482.484
482.07
481.651
481.228
480.809
480.383
479.948
479.503
479.074
478.637
478.176
477.703
477.225
86.1486
100.56
116.592
134.204
153.287
173.719
195.268
217.638
240.473
263.357
285.921
307.78
328.671
348.342
366.653
383.396
398.493
411.939
423.742
434.025
442.87
450.316
456.47
461.387
465.218
468.106
470.188
471.554
472.309
472.536
472.338
471.807
470.992
469.964
468.725
467.32
465.803
464.183
462.522
460.829
459.115
457.408
455.722
454.074
452.456
450.878
449.342
447.859
446.415
444.999
443.608
442.231
440.871
439.526
438.185
436.879
435.599
434.322
433.032
431.739
430.431
81.3511
97.5559
115.587
135.284
156.393
178.736
201.992
225.81
249.815
273.492
296.528
318.472
339.154
358.318
375.965
391.783
405.75
417.948
428.366
437.224
444.612
450.501
455.098
458.357
460.542
461.824
462.274
462.132
461.334
460.064
458.466
456.501
454.344
451.986
449.413
446.72
443.97
441.151
438.347
435.561
432.767
430.018
427.328
424.717
422.152
419.657
417.237
414.887
412.611
410.387
408.204
406.051
403.943
401.832
399.744
397.702
395.703
393.745
391.774
389.773
387.786
80.8014
98.6158
118.433
139.962
162.775
186.641
211.216
236.105
260.901
284.969
308.102
329.689
349.767
368.002
384.727
399.341
411.915
422.688
431.464
438.685
444.47
448.607
451.558
453.025
453.474
453.072
451.905
450.206
447.887
445.168
442.211
438.899
435.412
431.772
427.937
424.024
420.112
416.13
412.287
408.496
404.691
400.957
397.359
393.872
390.439
387.138
383.905
380.794
377.764
374.819
371.931
369.092
366.298
363.483
360.711
358.029
355.367
352.81
350.205
347.554
344.99
82.2641
101.341
122.718
145.647
169.966
194.953
220.404
246.211
271.344
295.654
318.528
339.657
358.758
375.788
391.369
404.67
415.775
424.977
432.327
437.913
441.834
444.14
445.201
445.057
443.82
441.628
438.891
435.719
431.762
427.661
423.323
418.768
414.197
409.235
404.002
399.05
393.904
388.755
383.942
379
374.065
369.087
364.739
360.388
356.025
352.099
347.918
344.145
340.186
336.505
332.704
329.232
325.828
322.254
318.782
315.619
312.191
309.32
306.038
302.634
299.608
1610.54
1634.86
1658.08
1680.17
1701.33
1721.97
1742.22
1762.36
1782.22
1801.1
1818.67
1835.5
1851.82
1868.02
1884.32
1901.38
1919.79
1940.04
1962.52
1987.68
2015.23
2044.65
2075.52
2107.44
2140.08
2173.37
2207.49
2242.08
2277.12
2312.63
2348.78
2385.45
2422.66
2460.55
2499.14
2538.32
2578.2
2618.92
2660.53
2702.89
2746.03
2790.18
2835.33
2881.31
2928.44
2976.58
3025.61
3075.58
3126.68
3178.96
3232.33
3286.66
3342.53
3399.5
3457.96
3517.68
3579.42
3643.16
3708.9
3776.54
3846.22
812.579
819.181
825.602
831.764
837.692
843.507
849.356
855.091
860.905
866.47
871.991
877.408
882.834
888.289
893.767
899.315
904.954
910.725
916.62
922.611
928.659
934.702
940.72
946.688
952.597
958.425
964.1
969.595
974.904
980.051
985.053
989.883
994.561
999.108
1003.52
1007.79
1011.96
1016
1019.93
1023.74
1027.44
1031.07
1034.58
1037.98
1041.3
1044.51
1047.61
1050.58
1053.46
1056.23
1058.88
1061.41
1063.82
1066.28
1068.53
1070.86
1073.13
1075.6
1077.95
1080.34
1082.84
629.462
631.331
633.242
635.116
636.959
638.701
640.511
642.22
643.906
645.448
646.939
648.375
649.83
651.254
652.65
654.007
655.322
656.591
657.804
658.948
660.01
660.989
661.874
662.662
663.347
663.926
664.393
664.747
664.977
665.091
665.076
664.94
664.683
664.303
663.815
663.214
662.503
661.68
660.745
659.696
658.538
657.277
655.917
654.445
652.871
651.184
649.37
647.422
645.346
643.144
640.788
638.326
635.719
632.997
630.077
627.067
623.964
620.779
617.5
614.162
610.827
536.457
537.034
537.574
538.096
538.582
539.033
539.44
539.835
540.155
540.372
540.526
540.636
540.683
540.647
540.556
540.4
540.18
539.888
539.517
539.059
538.518
537.89
537.182
536.388
535.502
534.519
533.439
532.264
530.989
529.618
528.148
526.572
524.893
523.115
521.248
519.291
517.242
515.102
512.864
510.533
508.113
505.616
503.047
500.411
497.71
494.94
492.08
489.13
486.081
482.953
479.716
476.379
472.954
469.425
465.765
461.98
458.118
454.165
450.147
446.104
442.06
476.743
476.23
475.687
475.109
474.498
473.822
473.089
472.35
471.605
470.807
469.973
469.095
468.157
467.164
466.11
464.994
463.845
462.626
461.337
459.976
458.546
457.056
455.509
453.911
452.252
450.527
448.732
446.868
444.94
442.948
440.886
438.744
436.522
434.223
431.862
429.436
426.944
424.377
421.729
419.004
416.213
413.362
410.469
407.547
404.602
401.636
398.613
395.557
392.432
389.26
386.019
382.698
379.318
375.862
372.307
368.645
364.896
361.054
357.184
353.293
349.397
429.128
427.809
426.479
425.099
423.692
422.246
420.758
419.254
417.708
416.137
414.528
412.897
411.23
409.516
407.76
405.972
404.161
402.291
400.358
398.364
396.317
394.231
392.119
389.989
387.825
385.617
383.367
381.072
378.751
376.403
374.025
371.59
369.101
366.552
363.968
361.347
358.672
355.944
353.145
350.274
347.347
344.367
341.362
338.358
335.373
332.419
329.437
326.466
323.463
320.473
317.443
314.348
311.23
308.041
304.799
301.426
297.982
294.457
290.937
287.372
283.824
385.812
383.843
381.862
379.865
377.829
375.747
373.634
371.522
369.374
367.179
364.975
362.769
360.534
358.278
355.983
353.679
351.381
349.039
346.637
344.166
341.646
339.112
336.572
334.054
331.534
328.981
326.403
323.792
321.194
318.616
316.077
313.505
310.92
308.288
305.663
303.019
300.317
297.581
294.783
291.919
288.993
285.997
282.979
279.973
277.004
274.139
271.252
268.445
265.628
262.915
260.208
257.418
254.637
251.796
248.943
245.905
242.847
239.673
236.586
233.426
230.312
342.422
339.909
337.384
334.899
332.388
329.891
327.323
324.829
322.309
319.681
317.064
314.496
311.89
309.267
306.573
303.914
301.341
298.737
296.074
293.275
290.404
287.559
284.706
281.902
279.167
276.402
273.613
270.737
267.888
265.122
262.529
259.921
257.391
254.835
252.362
249.909
247.325
244.672
242.006
239.332
236.554
233.648
230.71
227.765
224.838
222.127
219.331
216.712
214.083
211.727
209.44
207.004
204.617
202.167
199.769
197.072
194.431
191.614
189.029
186.323
183.714
296.341
293.318
290.128
287.288
284.287
281.717
278.81
276.329
273.822
271.093
268.361
265.896
263.194
260.528
257.581
254.611
251.998
249.492
247.002
244.268
241.122
238.199
235.208
232.184
229.343
226.562
223.886
220.896
217.693
214.685
212.066
209.432
207.019
204.666
202.661
200.737
198.5
195.966
193.511
191.251
188.924
186.237
183.457
180.714
177.874
175.416
172.615
170.18
167.628
165.747
163.981
161.9
159.991
158.008
156.179
153.776
151.583
149.052
147.02
144.802
142.807
3919
3994.38
4071.75
4151.14
4232.98
4318.18
4406.2
4496.99
4590.27
4686.19
4785.05
4885.81
4988.7
5098.09
5233.81
5359.64
5484.04
5611.06
5740.64
5872.72
6007.63
6145.44
6285.73
6428.73
6574.2
6721.44
6870.17
7020.12
7171.11
7322.27
7473.51
7624.21
7773.53
7920.85
8065.66
8206.54
8342.34
8471.72
8586.37
8670.86
8728.43
8760.68
8767.41
8746.83
8697.34
8616.43
8500.04
8343.49
8142.42
7892.17
7586.45
7218.39
6782.74
6272.12
5649.47
4711.73
4297.02
4089.88
4008.1
3968.02
3884.25
1085.58
1088.4
1091.43
1094.51
1097.67
1101.06
1104.98
1109.28
1114.04
1119.09
1124.6
1128.02
1129.28
1132.07
1135.5
1140.3
1145.3
1150.23
1155.3
1160.62
1166.22
1172.12
1178.29
1184.72
1191.42
1198.34
1205.52
1212.99
1220.8
1228.98
1237.59
1246.69
1256.4
1266.83
1278.1
1290.45
1304.04
1319.25
1337.35
1366.59
1402.01
1440.52
1482.22
1527.26
1576.34
1629.81
1687.75
1750.45
1818.18
1890.5
1966.52
2044.65
2123.33
2201.43
2271.46
2337.57
2397.86
2485.46
2591.01
2699.63
2653.3
607.465
604.104
600.705
597.284
593.802
590.341
586.982
583.77
580.62
577.42
573.805
568.267
562.316
557.179
552.542
548.505
544.576
540.553
536.473
532.387
528.335
524.311
520.311
516.332
512.369
508.419
504.492
500.59
496.732
492.916
489.163
485.495
481.922
478.49
475.227
472.181
469.398
466.951
464.976
463.975
464.139
468.481
476.656
488.145
503.409
523.106
547.962
579.004
617.238
663.749
719.552
785.443
862.633
951.459
1051.75
1160.18
1268.03
1386.18
1531.28
1719.47
1908.12
438.016
433.98
429.941
425.884
421.777
417.667
413.601
409.628
405.63
401.524
396.679
390.767
384.973
379.714
374.832
370.294
365.873
361.475
357.077
352.705
348.358
344.017
339.691
335.384
331.09
326.819
322.574
318.354
314.16
309.997
305.865
301.771
297.727
293.743
289.83
286.009
282.298
278.716
275.288
272.077
269.163
266.846
265.795
266.466
268.722
272.905
279.475
289.087
302.585
320.995
345.733
378.129
419.85
472.018
535.291
607.697
685.146
769.161
868.163
996.044
1155.95
345.516
341.694
337.89
334.062
330.164
326.262
322.372
318.558
314.713
310.747
306.051
300.816
295.811
291.201
286.831
282.693
278.66
274.724
270.846
267.032
263.258
259.472
255.706
251.967
248.244
244.549
240.883
237.245
233.628
230.034
226.463
222.923
219.418
215.96
212.556
209.219
205.959
202.787
199.712
196.752
193.932
191.316
189.031
187.42
186.619
186.636
187.692
190.089
194.257
200.735
210.316
224.008
243.011
268.589
301.761
342.662
389.909
443.045
504.369
579.511
674.797
280.27
276.831
273.419
270.004
266.447
262.892
259.322
255.863
252.372
248.809
244.583
240.129
235.908
232.024
228.269
224.677
221.148
217.774
214.49
211.307
208.17
204.993
201.852
198.756
195.668
192.621
189.592
186.596
183.604
180.629
177.666
174.732
171.827
168.968
166.157
163.407
160.724
158.118
155.589
153.151
150.815
148.603
146.555
144.756
143.446
142.531
142.128
142.358
143.425
145.604
149.262
154.921
163.253
175.026
191.118
212.098
238.101
269.205
306.039
350.274
405.036
227.107
224.091
221.114
218.184
214.995
211.833
208.604
205.567
202.505
199.463
195.772
192.059
188.537
185.369
182.212
179.195
176.167
173.367
170.66
168.072
165.534
162.895
160.338
157.869
155.387
152.957
150.519
148.124
145.702
143.293
140.875
138.5
136.152
133.862
131.611
129.425
127.297
125.243
123.257
121.358
119.544
117.84
116.252
114.815
113.583
112.718
112.123
111.863
112.037
112.78
114.275
116.775
120.596
126.167
133.959
144.466
158.105
175.206
196.237
221.99
253.75
180.843
178.249
175.733
173.363
170.558
167.823
164.927
162.372
159.788
157.348
154.17
151.121
148.195
145.713
143.09
140.651
138.079
135.843
133.671
131.605
129.599
127.396
125.357
123.515
121.589
119.708
117.769
115.917
113.967
112.04
110.069
108.194
106.335
104.571
102.821
101.149
99.5061
97.9459
96.4473
95.0476
93.7228
92.5099
91.4095
90.4164
89.5602
88.9359
88.5234
88.301
88.3341
88.6935
89.4768
90.8044
92.8439
95.7896
99.8887
105.424
112.693
122.03
133.804
148.52
166.84
140.232
137.991
135.957
134.235
131.808
129.524
126.91
124.928
122.857
121.062
118.343
115.869
113.395
111.582
109.38
107.534
105.321
103.66
101.961
100.276
98.718
96.8067
95.2359
94.1125
92.6462
91.1605
89.5751
88.2253
86.5911
85.0311
83.3473
81.9515
80.5009
79.2314
77.8789
76.6459
75.3359
74.1692
73.0738
72.1122
71.2228
70.4397
69.777
69.2011
68.6659
68.2416
67.9974
67.8699
67.9673
68.2134
68.8439
69.7753
71.2106
73.112
75.6895
78.976
83.26
88.634
95.487
104.086
114.782
3738.51
3578.53
3406.81
3226.43
3046.56
2872.73
2708.46
2558.27
2425.87
2313.24
2220.68
2147
2090.46
2048.73
2019.05
1998.78
1985.77
1978.47
1975.46
1975.55
1978.09
1982.53
1988.48
1995.79
2004.5
2014.32
2025.27
2037.31
2050.53
2064.79
2080.07
2096.32
2113.41
2131.12
2149.33
2167.77
2186.1
2204.03
2221.37
2237.8
2252.85
2266.33
2278.07
2287.87
2295.83
2302.21
2307.15
2310.88
2313.98
2317.19
2320.85
2325.13
2330.55
2337.25
2344.91
2353.22
2361.93
2371.06
2379.68
2386.89
2392.29
2461.39
2257.48
2057.55
1866.05
1697.52
1541.67
1397.54
1266.2
1147.92
1043.59
953.332
876.581
812.317
759.031
716.431
683.634
658.605
639.447
624.65
613.139
604.157
597.13
591.721
587.598
584.78
582.87
582.01
582.083
583.093
585.031
587.916
591.73
596.472
602.109
608.591
615.852
623.787
632.269
641.134
650.181
659.12
667.608
675.242
681.57
686.172
688.651
688.675
686.12
681.131
674.118
665.689
656.62
647.779
639.879
633.176
627.918
623.73
620.175
616.16
610.885
604.149
1994.94
1982.07
1880.13
1705.66
1525.59
1350.69
1180.3
1026.04
888.222
766.375
661.477
572.966
499.641
440.186
393.62
358.059
330.702
309.162
292.182
278.909
268.511
260.319
253.824
248.642
244.475
241.158
238.508
236.49
235.031
234.106
233.689
233.778
234.36
235.402
236.883
238.763
241.004
243.564
246.388
249.397
252.497
255.582
258.517
261.131
263.257
264.688
265.227
264.696
263.001
260.115
256.158
251.465
246.493
241.802
237.813
235.005
233.522
233.28
233.904
235.083
236.708
1322.56
1470.69
1568.8
1585.98
1516.95
1391.29
1221.74
1050.85
892.939
747.411
621.012
515.321
428.343
358.843
304.488
262.365
229.731
204.047
183.946
168.357
156.344
147.133
140.073
134.619
130.345
126.956
124.249
122.088
120.384
119.07
118.109
117.479
117.153
117.097
117.276
117.654
118.196
118.866
119.623
120.419
121.201
121.918
122.509
122.915
123.075
122.934
122.445
121.573
120.314
118.671
116.694
114.513
112.335
110.439
109.126
108.807
109.813
112.226
115.943
120.951
127.296
791.491
927.261
1071.17
1199.37
1281.82
1300.81
1251.21
1145.62
1008.78
853.487
706.101
579.477
470.667
382.014
311.81
256.37
213.057
179.274
152.956
132.662
117.198
105.585
96.9337
90.4664
85.566
81.7907
78.8514
76.5479
74.7449
73.3369
72.2637
71.4911
70.9823
70.6946
70.588
70.6257
70.772
70.9911
71.2474
71.5008
71.709
71.8313
71.8282
71.6622
71.3001
70.7172
69.9045
68.8657
67.61
66.1709
64.6074
63.0218
61.5859
60.5285
60.1619
60.7448
62.7762
66.5487
72.2479
79.796
89.0471
473.405
558.555
661.525
778.386
896.956
999.43
1065.51
1079.64
1039.53
952.905
836.701
710.099
582.064
470.469
379.191
303.873
244.38
197.397
160.06
131.283
109.608
93.6542
82.0703
73.6334
67.4021
62.7182
59.1618
56.4461
54.3693
52.7705
51.5574
50.6774
50.0805
49.7125
49.5264
49.4818
49.5401
49.6672
49.828
49.986
50.103
50.1458
50.0798
49.8762
49.5056
48.9519
48.2101
47.2903
46.2008
44.9712
43.6508
42.328
41.1437
40.3045
40.1127
40.9712
43.3266
47.5971
54.0577
62.734
73.4994
293.255
342.761
404.629
480.381
569.128
666.221
761.73
841.512
891.151
900.005
865.726
795.453
701.079
596.666
494.056
396.879
316.938
251.652
197.244
154.732
122.535
99.1391
82.5264
70.6789
62.1036
55.773
51.06
47.5416
44.9151
42.925
41.4289
40.3432
39.5989
39.1225
38.8553
38.7483
38.7587
38.8501
38.9871
39.1341
39.2541
39.32
39.2978
39.1637
38.8858
38.4554
37.8653
37.1286
36.2462
35.2484
34.1735
33.0997
32.1484
31.4974
31.4294
32.3547
34.7441
39.1303
45.9446
55.3426
67.2354
189.729
218.41
254.451
299.487
354.855
420.816
495.677
574.511
649.433
709.736
744.882
748.396
720.222
664.641
590.33
505.528
420.347
339.933
264.113
202.989
154.626
119.584
95.1518
77.9248
65.5371
56.454
49.7669
44.8812
41.3275
38.6706
36.6916
35.2507
34.2531
33.5921
33.1903
32.9839
32.9213
32.9611
33.0655
33.1979
33.3203
33.4122
33.4385
33.379
33.196
32.8884
32.4428
31.8783
31.1869
30.4001
29.5486
28.7049
27.9752
27.5157
27.5869
28.5862
31.0034
35.4564
42.5273
52.5144
65.3817
128.248
145.007
166.004
192.506
225.574
266.255
314.95
371.185
432.534
495.017
550.84
593.937
617.884
619.818
598.011
554.607
495.504
424.775
351.443
276.487
206.582
156.068
120.936
95.9346
77.5357
64.0154
54.0817
46.9655
41.9005
38.149
35.3919
33.3704
31.9624
31.0043
30.3871
30.0195
29.8363
29.7857
29.8269
29.915
30.0159
30.113
30.1698
30.1664
30.0616
29.8559
29.537
29.1199
28.5958
27.9907
27.3379
26.7033
26.1903
25.9363
26.1801
27.3054
29.8118
34.3654
41.6477
52.1069
65.7182
1.57489
212.967
190.233
2.24714
2.27399
0.205277
0.000718584
90.0216
0.000798065
0.0146713
94.5586
7.25276
0.000719496
246.426
0.168111
134.236
0.000757776
91.5886
119.15
0.000715284
2.24096
235.283
202.373
0.000765202
0.000782573
0.210196
0.000716255
7.73011
0.000753546
0.00081809
6.60413
0.000744424
0.00874959
64.2149
4.09525
112.85
72.1452
16.4873
0.0007224
44.3986
64.1862
28.597
0.000743655
101.969
174.34
0.72434
0.000870027
0.00873318
1.25107
7.47959
367.184
354.267
0.000699333
0.0010269
0.0617214
0.0339558
0.000815479
8.92403
59.0392
282.358
137.709
0.000908738
1.47138
0.0251177
199.707
2.39166
38.7387
62.6449
0.00112522
0.00074775
9.81768
42.1489
55.1276
0.0338889
0.0505797
79.21
228.789
57.4704
0.000700848
5.65599
0.00235243
47.1471
0.0122292
111.07
0.000749993
8.97138
0.00079268
36.7445
0.0108142
0.00136926
0.233316
0.000699612
0.000934206
306.063
142.174
0.000867388
1.6083
1.90516
0.00184034
205.7
1.01575
32.0773
5.94253
0.000698663
0.000725596
0.000695872
1.40286
0.21067
0.000746718
172.614
221.219
0.00466557
236.513
26.654
112.672
53.8036
28.2792
0.000972453
0.111616
0.00110792
0.00148657
190.815
0.00315928
286.459
411.442
27.9766
0.000746324
7.46272
7.29758
0.000744246
0.0298598
0.0269995
89.8583
0.00188905
63.1092
0.000749188
0.000723365
392.953
348.716
0.000749553
0.787561
148.089
0.228644
0.91918
26.6601
121.735
0.285011
27.6269
0.00527546
277.178
11.0691
0.035778
50.3518
108.75
187.525
0.000763228
0.000757453
0.521329
0.00070342
41.3941
0.109544
0.00144459
0.000739738
0.000747878
0.00075859
42.0143
69.1874
33.8081
0.000767013
286.399
302.568
403.147
167.227
0.00686944
159.931
44.0451
28.2452
0.000750887
0.00170475
191.352
68.4221
29.4112
71.2558
0.000745988
0.000841421
240.54
0.0297144
2.53857
0.000758045
0.000868232
0.174215
0.00079528
330.884
4.12535
0.00070109
0.694575
89.0566
142.788
0.00119112
52.6185
0.000747214
0.000750876
108.38
32.9144
302.273
0.00120783
0.0008021
0.00282716
41.4085
76.7366
10.1463
122.938
14.4309
230.505
0.792936
86.8529
81.4347
27.2191
11.1664
39.1328
0.00144935
0.0294879
0.000748312
0.000728789
28.3815
0.0100688
0.0118176
0.00199928
0.00623309
48.4811
197.36
0.0110921
170.925
7.83704
3.11069
0.000732459
0.546418
39.5436
7.58194
0.00105698
13.5037
35.0766
0.838905
2.39183
269.928
7.40033
4.91423
121.751
0.000952614
0.000723763
0.0010305
0.00425791
28.7462
0.000781681
0.00254004
0.000722977
1.77318
76.4612
76.1166
49.2803
12.0106
11.9144
323.436
0.00113297
48.168
99.8369
0.000744228
84.0292
0.000749669
330.802
1.7691
52.7941
0.00155474
0.000748834
21.142
7.5478
0.000759641
0.000751412
0.000756177
0.000751335
1.20492
35.1543
45.4609
0.0106202
0.000760448
0.000723987
0.0006975
104.946
1.20141
0.00119568
18.8831
0.117096
0.0929942
0.000694322
0.796877
0.000760164
0.114768
46.8059
272.619
3.03468
0.000977828
0.00184914
58.0986
0.358097
127.85
320.982
0.00083913
0.000740089
0.000734024
155.354
0.000774853
138.522
0.000750088
24.0625
12.1841
0.0239616
141.408
241.22
0.0012774
50.1587
50.3393
88.0481
90.5593
10.0636
346.453
38.5798
72.0291
142.471
94.412
55.3271
0.3446
335.633
278.99
62.977
33.4413
0.000994373
270.544
126.736
228.161
0.0188723
0.000869845
0.000746099
0.000813476
0.676099
1.59217
6.55346
0.125954
0.000725348
169.053
0.000746672
26.685
23.5908
190.583
42.9608
19.4912
0.00194282
0.00110664
0.448922
85.6898
0.00439065
7.84822
260.102
36.0206
85.4856
194.729
61.5618
0.000820513
281.792
141.219
95.6833
0.000751141
192.215
150.762
0.000782895
30.4249
0.000752319
393.002
172.886
28.0452
82.1026
115.063
147.727
0.000763048
146.915
0.000968284
68.5066
82.8049
28.269
278.052
3.78233
0.497842
2.6453
0.00109945
439.643
1.42442
0.00290284
0.00178196
255.88
0.000956618
94.0508
0.000736887
0.000750591
0.00182793
31.2261
0.194911
21.8455
0.00199299
83.7622
0.311744
218.39
279.769
38.383
338.198
0.000790807
277.86
43.8316
0.000742904
80.2495
25.8054
0.000697801
0.000727158
116.578
0.00204908
27.352
0.446701
76.1975
0.0177769
3.49981
39.4133
121.586
33.064
84.4918
68.5198
0.000994194
0.0325675
28.7634
21.7987
329.447
340.02
142.071
0.0853164
122.308
121.223
3.34809
89.9791
45.3593
26.0819
0.000820045
85.8511
380.739
0.00107835
91.2407
20.0041
45.9608
0.0154435
0.0901062
268.767
0.00194564
325.556
0.00124831
1.78818
0.000737858
8.06266
165.595
0.560475
0.00132182
0.000898103
75.5885
26.8179
0.379718
5.43806
294.276
542.745
0.00136655
12.1754
27.2625
71.819
26.1783
448.429
28.7964
154.937
53.508
3.38894
7.19174
300.936
53.3711
351.902
170.107
0.227128
175.141
59.9053
0.000789022
90.7801
29.0489
13.0077
0.00969389
96.6287
44.3029
4.25533
52.3401
0.00158691
0.000747384
0.148198
28.8138
108.285
73.3068
0.000750367
0.000730353
0.000744548
28.2835
0.0274351
0.000746134
0.24886
95.4776
272.936
0.00442265
0.00455447
0.00072134
0.00073869
0.00195521
29.2412
99.7421
21.3799
1.92747
295.807
380.158
0.00150312
63.2614
27.8881
28.4459
76.3115
433.063
0.000819482
0.00448645
0.000751788
395.121
0.790408
0.000726645
10.9578
0.358457
300.643
0.000759358
322.569
9.09
0.067855
200.124
0.000748922
0.000736883
0.00102468
400.874
54.7099
128.749
317.087
11.273
28.6124
0.000708929
0.00184998
0.449984
0.0157478
0.0164246
176.441
41.0198
0.00074842
25.1068
45.0495
183.001
403.218
0.00296843
406.477
0.00182819
0.0219648
148.961
0.000739856
145.246
0.000759733
0.00079289
0.0207524
34.2676
2.9959
321.989
60.9028
0.000882659
28.4876
501.588
0.215114
2.16181
7.32315
0.000776008
0.00076069
0.00230355
135.174
5.40464
0.000780765
268.656
278.758
214.604
0.106618
59.7352
0.00108355
30.9739
0.557456
0.132379
122.653
29.7029
148.472
172.262
0.000759943
0.000711508
0.00501582
72.4476
101.969
6.14907
0.00662426
0.000770505
0.000750767
0.00345845
0.125081
0.00212375
72.4954
21.1362
0.00495533
26.33
170.912
0.000760877
38.217
0.000742554
3.27837
0.000762496
0.013278
38.5656
0.0116975
0.000744677
4.20852
361.17
262.456
0.000729971
0.00074717
1.5876
0.13278
0.000747982
100.06
0.000906798
31.9052
374.048
31.0684
86.0178
294.371
132.82
334.278
0.000748429
0.00249315
0.0108219
293.18
59.1583
198.906
5.6949
4.29591
100.909
167.899
126.659
5.03305
47.0528
0.000750794
1.54689
40.1233
34.5537
311.328
26.8016
1.1765
42.0213
0.203572
0.00942018
40.324
0.000751908
176.197
0.000883816
2.66252
291.506
183.595
3.10005
0.00251647
7.02006
0.000769673
0.000736412
0.200872
0.0135849
51.4305
0.00885209
28.7116
0.000750667
0.0191946
0.000725114
94.8441
0.00177506
86.6443
299.841
0.0144136
166.3
371.926
0.000758028
97.445
223.805
0.000782882
285.916
0.261453
0.00082214
0.000790991
281.202
0.000731603
0.00111744
0.123393
0.21404
427.145
268.947
0.00075154
0.000752126
9.36059
28.6571
0.00713652
2.26587
23.151
0.000747977
0.000957024
0.000913395
167.128
269.551
3.36105
295.832
0.0172762
26.5683
0.000769596
0.00723636
0.0161283
0.0428384
0.000750247
297.483
0.000742061
0.0161843
0.00076911
1.36073
0.0149161
0.0369119
2.50521
5.12343
34.9082
2.1727
9.58099
27.903
190.234
0.000817082
165.557
324.246
12.7006
75.8075
0.000761206
268.36
78.5022
0.000746213
407.38
66.1657
0.00606477
0.0207532
160.707
160.99
0.232864
314.034
405.75
4.54969
426.909
262.413
129.276
50.4715
21.4366
27.8782
262.896
289.169
0.014374
308.85
41.1922
406.031
0.000812878
1.58475
2.94483
223.315
163.605
0.0119137
443.589
193.979
6.85748
0.0532412
2.69482
28.1061
0.00155442
28.251
435.234
0.0293203
219.64
13.9464
92.6549
187.972
0.000746543
0.00167348
7.66615
5.35089
0.0130801
0.00074857
0.809769
1.78859
0.00121066
0.000758704
267.963
7.32079
51.7697
10.643
0.00316888
0.00107511
0.435551
87.9841
0.000825895
21.9246
29.8038
1.88181
162.894
0.0010076
0.388382
0.000740881
1.76652
87.293
0.00146152
0.186627
40.9162
168.055
0.50729
96.7725
5.01064
0.967244
0.000987621
32.9594
330.425
0.000744446
0.000753558
146.428
0.0159129
0.000758259
72.0533
2.05429
162.937
29.6207
37.5701
0.317156
17.9235
204.278
162.789
243.773
0.000764121
274.892
0.000966995
38.6306
0.000794324
0.00146451
45.06
0.0020837
256.267
0.0121858
0.0325761
44.7197
7.56065
0.534909
0.000899841
183.94
0.000889383
0.000718457
342.272
159.867
42.3472
28.6317
0.000815053
0.000688233
19.9528
147.123
0.00073077
219.267
36.653
0.000753626
168.285
0.000702839
3.32896
6.64174
11.1285
1.54127
75.1599
21.0612
0.000701327
268.177
327.413
0.000745163
0.0130729
28.9119
0.00070838
236.863
161.971
403.79
0.000746169
0.000727678
200.951
0.093841
0.000836051
31.046
79.5351
253.164
0.000720386
0.000791824
0.015881
0.011596
0.000747272
0.00201852
125.611
50.8311
0.000747158
13.2139
0.000747253
9.91708
0.00108442
0.000869405
27.9649
0.000747932
0.35477
0.000730473
48.5672
2.00043
19.9337
184.226
361.532
148.271
5.36462
14.5672
0.000758257
5.87991
276.435
528.372
0.157999
0.000828493
127.624
0.000746408
0.109703
0.000719894
436.72
14.824
3.10185
195.371
51.5469
4.90605
80.6191
7.59599
222.083
115.022
0.00077509
0.00075386
0.0031053
0.000737467
0.0141387
98.9733
0.000927751
249.378
0.00186847
0.322493
3.12333
153.341
0.00135045
41.2953
0.0132985
56.5177
31.2333
431.844
0.000793524
0.000950032
1.47831
86.2813
63.31
67.2409
1.97541
7.97964
19.5898
0.0624532
10.5314
1.69958
30.1533
0.0007541
393.714
1.46742
57.3999
0.000786911
54.4627
16.0097
0.00171163
87.2372
18.0245
0.0853205
0.000714092
0.000746581
203.771
49.1991
14.7487
0.000737515
0.0095996
50.4497
186.389
3.34971
0.00588653
0.000734527
146.399
128.698
35.8736
36.421
0.000744279
101.653
431.171
0.00074698
0.000749399
18.1092
0.00123592
0.00389332
0.21637
46.6394
0.00104578
36.395
342.631
0.000730359
0.000818556
0.000727025
0.000770236
67.1652
516.383
333.295
0.0207331
33.5036
47.2084
0.13385
44.5521
0.000821454
31.3179
0.540053
30.4836
5.25538
80.894
101.59
0.139504
0.000759216
158.153
84.5018
278.289
5.95021
29.8143
0.524461
21.082
0.0035409
0.00133911
153.155
141.74
0.0325247
1.1695
0.000754665
0.100398
20.4331
0.0275532
13.4555
4.43044
384.781
36.7979
1.77639
274.942
139.509
56.7006
16.1633
201.023
189.208
3.24266
39.5369
0.00336331
48.5502
46.9701
0.000743569
0.000710309
0.357793
0.000749045
0.000772707
57.6813
298.063
0.000744945
84.2654
0.000745521
0.000736984
0.000740738
0.000750632
0.00181269
29.5154
44.6726
248.046
0.000717516
0.00105927
6.94628
0.000856963
0.0283118
0.000762792
0.000865798
166.936
0.000985978
0.00468125
180.818
0.00427023
0.00074964
187.638
0.000745725
0.000761353
1.44062
0.000870416
6.57293
0.00123035
0.0242443
0.000743927
0.000752956
302.2
417.253
43.316
0.023525
109.575
16.307
0.00129268
27.6396
310.291
232.888
476.886
0.000703466
27.9103
55.9848
0.264574
28.5552
102.314
0.354377
31.5407
1.03371
28.4561
0.273317
7.66775
0.000757649
220.252
0.00075686
28.6945
32.8197
0.000748009
0.929188
0.00247149
0.0304459
0.00072539
3.99786
0.000896376
0.000740871
40.2079
0.0364442
0.166882
228.48
151.149
0.000815483
0.000963241
31.0445
259.731
0.000693735
0.000754665
0.191902
23.6021
146.394
0.00208789
16.3879
0.00074592
0.000820111
0.000718272
0.0280676
23.4109
0.00406711
273.821
29.6452
257.952
171.214
0.000844956
299.864
66.9546
0.000732606
0.000754084
0.000750348
0.00115635
0.000740518
123.995
0.000745486
0.000751256
349.767
1.23102
0.00269365
0.0369456
58.8046
7.68104
0.00745274
0.000825445
184.003
0.000762699
6.68199
0.00075365
0.000847738
161.808
164.589
0.00335681
0.000831889
3.73282
0.000744389
366.965
0.000751911
150.237
0.0282676
8.3362
0.116911
3.1179
1.94599
29.2478
0.000761008
0.000862306
0.00492804
59.5408
0.294343
302
0.000747539
0.00123413
0.0016416
255.831
61.9481
270.187
0.0022525
0.00348168
0.809543
0.000751488
19.0825
38.9427
0.00881388
269.319
178.738
41.6085
0.0015495
1.48233
168.033
224.269
27.9216
0.010562
121.259
0.505789
132.874
0.145597
2.3541
42.3435
0.000761958
28.4934
0.00122199
0.00512853
0.0058645
0.0482774
0.00090974
11.3245
0.000746162
46.0387
0.133162
0.000866675
1.52663
0.00075658
0.774038
0.229897
40.4114
3.70788
92.1812
0.816258
0.00074855
0.000731673
4.80033
0.160984
43.0522
260.958