/*--------------------------------*- C++ -*----------------------------------*\
| =========                 |                                                 |
| \\      /  F ield         | OpenFOAM: The Open Source CFD Toolbox           |
|  \\    /   O peration     | Version:  2.3.1                                 |
|   \\  /    A nd           | Web:      www.OpenFOAM.org                      |
|    \\/     M anipulation  |                                                 |
\*---------------------------------------------------------------------------*/
FoamFile
{
    version     2.0;
    format      ascii;
    class       volScalarField;
    location    "0.52";
    object      k;
}
// * * * * * * * * * * * * * * * * * * * * * * * * * * * * * * * * * * * * * //

dimensions      [0 2 -2 0 0 0 0];

internalField   nonuniform List<scalar> 
9648
(
2.69159
2.68261
2.68089
2.67574
2.66714
2.65448
2.63808
2.61786
2.59363
2.56532
2.53297
2.49682
2.45732
2.41504
2.3707
2.32507
2.27894
2.23304
2.18803
2.14444
2.10271
2.06317
2.02602
1.99138
1.95932
1.92987
1.903
1.8787
1.85689
1.83747
1.82035
1.80541
1.79256
1.78167
1.77266
1.76544
1.75993
1.75605
1.75374
1.75292
1.75356
1.7556
1.75901
1.76376
1.76983
1.7772
1.78591
1.79597
1.80741
1.82024
1.83453
1.85031
1.86763
1.88647
1.90683
1.92855
1.95132
1.97463
1.99801
2.02108
2.04351
1.74639
1.73617
1.72579
1.7156
1.70817
1.70557
1.70991
1.72232
1.74276
1.77128
1.80764
1.85119
1.901
1.956
2.01513
2.07734
2.14171
2.20745
2.27389
2.34048
2.40679
2.47247
2.53726
2.60095
2.66342
2.72466
2.78478
2.84381
2.90186
2.95899
3.01531
3.07088
3.12569
3.17991
3.23357
3.28673
3.3395
3.39195
3.44412
3.49595
3.54753
3.59896
3.6502
3.70122
3.75212
3.80275
3.85312
3.90333
3.95344
4.00329
4.05274
4.10174
4.15035
4.19819
4.24551
4.29206
4.33802
4.3827
4.42635
4.46902
4.51076
1.45652
1.49547
1.53543
1.58039
1.6331
1.69447
1.76429
1.84254
1.92868
2.02224
2.12206
2.22719
2.33644
2.44857
2.56237
2.67671
2.79063
2.90324
3.01384
3.12195
3.22719
3.32929
3.42796
3.52305
3.61457
3.70268
3.78755
3.86941
3.94845
4.02482
4.09872
4.1703
4.23984
4.30743
4.37327
4.43753
4.50027
4.56167
4.62177
4.68069
4.73855
4.79538
4.85132
4.90638
4.96057
5.01385
5.0662
5.11769
5.16817
5.21766
5.26614
5.31363
5.36034
5.40558
5.45026
5.49339
5.53569
5.5761
5.61581
5.65441
5.69197
1.39012
1.47539
1.56466
1.66035
1.76382
1.87558
1.99556
2.12316
2.25742
2.39726
2.54122
2.68798
2.83607
2.9843
3.13136
3.2761
3.41758
3.55498
3.68777
3.81567
3.93849
4.05595
4.16792
4.27438
4.37556
4.47175
4.5634
4.65072
4.73406
4.81367
4.88987
4.96306
5.03344
5.10141
5.16713
5.2308
5.29257
5.35259
5.41105
5.46812
5.52392
5.5786
5.63221
5.68488
5.73661
5.78742
5.83736
5.88642
5.93455
5.98174
6.0281
6.07328
6.11751
6.16059
6.20301
6.24423
6.28429
6.32317
6.36094
6.39764
6.43305
1.43235
1.55754
1.68953
1.82882
1.97576
2.13058
2.29277
2.46128
2.63489
2.81197
2.99088
3.1699
3.34767
3.52292
3.69439
3.8608
4.02125
4.17513
4.32212
4.46225
4.59537
4.72126
4.83987
4.95129
5.05606
5.15481
5.24782
5.33566
5.41847
5.49674
5.57109
5.64179
5.70948
5.77433
5.83651
5.89632
5.95391
6.00946
6.06326
6.11553
6.16642
6.21605
6.26459
6.31211
6.35865
6.40425
6.44894
6.49274
6.5357
6.57763
6.61866
6.65868
6.69753
6.73525
6.77201
6.80788
6.84257
6.87615
6.90854
6.9396
6.96939
1.52343
1.68441
1.85466
2.03323
2.21932
2.41254
2.61196
2.81624
3.02366
3.23218
3.43999
3.64505
3.84619
4.042
4.23167
4.41363
4.58691
4.75143
4.90689
5.05372
5.19189
5.32093
5.44108
5.55251
5.65619
5.75284
5.84306
5.92702
6.00518
6.07823
6.14694
6.21194
6.27358
6.33219
6.38774
6.44052
6.49098
6.53919
6.58571
6.63066
6.67411
6.7163
6.75738
6.79752
6.83666
6.87493
6.91245
6.94897
6.98475
7.01962
7.05349
7.08635
7.11816
7.14872
7.17829
7.20683
7.23441
7.26093
7.28613
7.30977
7.33224
1.6434
1.8372
2.04277
2.25743
2.47904
2.70682
2.93928
3.1748
3.41152
3.64648
3.87824
4.10404
4.32317
4.53413
4.73714
4.92958
5.1108
5.28131
5.44057
5.58966
5.72865
5.85645
5.97429
6.08156
6.18017
6.27121
6.3545
6.43152
6.5016
6.56628
6.62696
6.68313
6.73608
6.7857
6.8316
6.87456
6.91537
6.95383
6.99082
7.02641
7.06024
7.0928
7.12433
7.15508
7.18469
7.21349
7.24165
7.26899
7.29573
7.32153
7.34642
7.37023
7.39303
7.4145
7.43471
7.45415
7.47278
7.49042
7.50651
7.52088
7.53405
1.7805
2.00437
2.24259
2.49042
2.74424
3.00246
3.26394
3.52689
3.78879
4.04601
4.29756
4.53936
4.77175
4.9925
5.2046
5.40335
5.58847
5.76165
5.92062
6.06772
6.20384
6.32644
6.43902
6.53856
6.62838
6.70987
6.78303
6.84972
6.90898
6.9629
7.01317
7.05803
7.0991
7.13669
7.17006
7.20042
7.22886
7.25462
7.27985
7.30388
7.32569
7.346
7.36546
7.38439
7.40199
7.41915
7.4354
7.45108
7.46623
7.48071
7.49419
7.50663
7.51834
7.52832
7.53703
7.54518
7.55219
7.55925
7.56426
7.56695
7.56903
1.92625
2.17492
2.44292
2.71819
3.00227
3.28595
3.57117
3.85963
4.14073
4.4178
4.68426
4.94069
5.18155
5.40774
5.62347
5.82526
6.01139
6.18414
6.34368
6.48542
6.61369
6.72852
6.83204
6.92448
7.00214
7.07005
7.13022
7.18425
7.22961
7.27087
7.30883
7.34091
7.36744
7.38923
7.40659
7.42259
7.43457
7.44492
7.45588
7.46468
7.47146
7.47543
7.48113
7.48537
7.48827
7.49235
7.49276
7.49416
7.49348
7.49267
7.49017
7.48739
7.48513
7.48115
7.47607
7.47067
7.46205
7.45783
7.44917
7.43694
7.42594
2.06505
2.08557
2.10523
2.12401
2.14196
2.15922
2.17605
2.19281
2.2093
2.2249
2.2393
2.25315
2.26653
2.27969
2.2929
2.30677
2.3217
2.33799
2.35597
2.37607
2.39797
2.42124
2.44559
2.47062
2.49603
2.52184
2.54818
2.57476
2.60151
2.6285
2.65583
2.68339
2.71119
2.73938
2.7679
2.79672
2.82595
2.85565
2.88579
2.91628
2.94723
2.97874
3.01078
3.04329
3.07641
3.10995
3.14394
3.17849
3.21366
3.24931
3.28549
3.32228
3.35978
3.39776
3.43656
3.4761
3.5167
3.55805
3.60052
3.64422
3.68926
4.55162
4.59045
4.62836
4.66547
4.70153
4.73609
4.7687
4.80004
4.82915
4.85748
4.88409
4.90969
4.9342
4.95767
4.97999
5.00104
5.02093
5.03963
5.05717
5.07354
5.08877
5.10291
5.11583
5.12758
5.13819
5.14762
5.15574
5.16229
5.16738
5.17097
5.17308
5.17373
5.17298
5.1708
5.16724
5.16236
5.15611
5.14861
5.1398
5.12972
5.11843
5.10595
5.09238
5.07766
5.06177
5.04465
5.02619
5.00643
4.98529
4.96282
4.93894
4.9136
4.88694
4.85848
4.82897
4.7978
4.7656
4.73189
4.69776
4.66305
4.62795
5.72789
5.76272
5.796
5.82836
5.85969
5.89039
5.91917
5.94657
5.97179
5.99571
6.01801
6.03908
6.05875
6.07736
6.09467
6.11061
6.12521
6.13845
6.15032
6.16079
6.16996
6.17777
6.18425
6.18939
6.19318
6.1956
6.19668
6.19637
6.19463
6.1914
6.18672
6.18051
6.1728
6.16364
6.15302
6.14096
6.12744
6.1125
6.09611
6.07833
6.05923
6.03888
6.01736
5.99469
5.97084
5.94574
5.91924
5.89129
5.86182
5.83083
5.79829
5.76392
5.72784
5.68987
5.65022
5.60858
5.56519
5.52032
5.47443
5.42763
5.38005
6.46744
6.50053
6.53232
6.56257
6.5916
6.61944
6.64581
6.6704
6.69341
6.71478
6.73455
6.75275
6.76938
6.78453
6.79808
6.81019
6.82081
6.8299
6.83743
6.84342
6.8479
6.85097
6.85262
6.85288
6.8517
6.84903
6.84486
6.83923
6.83216
6.82362
6.81354
6.80186
6.7886
6.77376
6.75741
6.73955
6.72012
6.69909
6.67646
6.65229
6.62669
6.59977
6.57173
6.54264
6.51255
6.4814
6.44897
6.41521
6.38004
6.34346
6.30533
6.26549
6.2239
6.18044
6.13505
6.08752
6.03805
5.98696
5.93475
5.88145
5.8275
6.99787
7.02515
7.05096
7.07519
7.09771
7.11863
7.13798
7.15578
7.1722
7.18725
7.20075
7.21275
7.22326
7.23219
7.23958
7.24555
7.24992
7.25271
7.25384
7.2533
7.25122
7.24772
7.24289
7.23679
7.2293
7.22038
7.21004
7.19832
7.18532
7.17103
7.15541
7.13826
7.11957
7.09936
7.07774
7.05466
7.03001
7.00374
6.97573
6.94605
6.91485
6.88227
6.84859
6.81408
6.77885
6.74296
6.706
6.66799
6.62882
6.58864
6.54707
6.50386
6.45911
6.41251
6.36397
6.31297
6.26
6.20518
6.14924
6.09214
6.03445
7.35334
7.3731
7.39127
7.40797
7.42293
7.43617
7.44782
7.45773
7.46606
7.47288
7.47833
7.48239
7.48498
7.48601
7.48549
7.48361
7.4803
7.47535
7.46861
7.46001
7.44978
7.43816
7.42533
7.41142
7.39625
7.37967
7.36173
7.34248
7.32224
7.3011
7.27907
7.25571
7.23105
7.205
7.17785
7.1494
7.1194
7.08784
7.05447
7.01931
6.98249
6.94408
6.90452
6.8643
6.82373
6.78313
6.74165
6.69972
6.65694
6.61391
6.56981
6.5241
6.47725
6.42868
6.37841
6.32523
6.2701
6.21279
6.15482
6.09547
6.03561
7.54598
7.55657
7.56561
7.57304
7.57875
7.58269
7.58486
7.58555
7.58464
7.58192
7.57787
7.5727
7.56613
7.558
7.54821
7.53733
7.52543
7.51192
7.49646
7.47875
7.45921
7.43835
7.41633
7.39359
7.36982
7.34457
7.31794
7.28981
7.26097
7.23178
7.20269
7.17254
7.14174
7.10974
7.07736
7.04403
7.00892
6.97236
6.93407
6.89401
6.85211
6.80812
6.76272
6.71665
6.67044
6.62526
6.57902
6.53332
6.487
6.442
6.39656
6.34914
6.30125
6.25173
6.20121
6.14671
6.09075
6.03195
5.97371
5.91357
5.85333
7.5697
7.56939
7.56742
7.56425
7.55937
7.55306
7.54465
7.53576
7.52546
7.51261
7.49846
7.48385
7.4678
7.45033
7.4304
7.40962
7.38915
7.36744
7.34386
7.31697
7.28742
7.25705
7.22538
7.19309
7.16064
7.12666
7.09123
7.0531
7.01392
6.97502
6.93834
6.9007
6.86392
6.82627
6.78995
6.7537
6.71441
6.6729
6.63039
6.58717
6.54164
6.49316
6.44274
6.39116
6.33921
6.29018
6.23874
6.18949
6.13929
6.09351
6.04861
6.00037
5.9525
5.90322
5.85429
5.79915
5.74379
5.68421
5.62776
5.56857
5.51036
7.41207
7.39852
7.38206
7.36623
7.34777
7.33146
7.31116
7.29303
7.27479
7.25415
7.23161
7.20927
7.18494
7.16066
7.13076
7.09824
7.06895
7.0409
7.01355
6.98145
6.94098
6.90293
6.86331
6.82096
6.77967
6.73804
6.69761
6.65132
6.59914
6.5481
6.50305
6.45637
6.41311
6.36974
6.33298
6.29851
6.2582
6.2112
6.16461
6.1209
6.07588
6.02541
5.97097
5.91576
5.85905
5.808
5.75034
5.69764
5.6421
5.59796
5.55622
5.50756
5.46131
5.41455
5.36977
5.31446
5.26116
5.2009
5.14831
5.09216
5.03917
3.73564
3.78299
3.83158
3.88141
3.93251
3.98502
4.03885
4.09414
4.15063
4.20826
4.26711
4.32688
4.38747
4.45125
4.5298
4.60218
4.67321
4.74502
4.81766
4.89125
4.96584
5.04144
5.11794
5.19529
5.27327
5.35167
5.43035
5.50914
5.58783
5.6661
5.74385
5.82077
5.89646
5.9707
6.04315
6.11324
6.18051
6.24432
6.30047
6.34162
6.36968
6.38538
6.38864
6.37879
6.35477
6.31515
6.25802
6.18104
6.08148
5.95612
5.80116
5.61212
5.38393
5.11009
4.76598
4.22291
3.9714
3.84247
3.79087
3.76564
3.71283
4.59215
4.55596
4.51893
4.48118
4.44269
4.40415
4.36532
4.32695
4.28853
4.25044
4.21326
4.17092
4.12462
4.08081
4.03193
3.98459
3.93725
3.88983
3.84279
3.7964
3.75066
3.70529
3.66017
3.61525
3.57048
3.52586
3.4814
3.43721
3.39332
3.3498
3.30676
3.26434
3.22266
3.18195
3.14247
3.10452
3.06851
3.03504
3.0047
2.97921
2.95594
2.93509
2.91701
2.90229
2.89187
2.88669
2.88778
2.89649
2.91429
2.94248
2.9823
3.03491
3.10158
3.18419
3.2736
3.40873
3.58564
3.85772
4.24327
4.74295
5.06465
5.3319
5.2832
5.23364
5.18293
5.13101
5.0784
5.02539
4.97244
4.91916
4.86544
4.80866
4.74347
4.6783
4.61637
4.55451
4.49329
4.43136
4.36872
4.30576
4.24288
4.1801
4.11715
4.054
3.99062
3.92692
3.86291
3.79857
3.73391
3.66889
3.60351
3.53776
3.47166
3.40527
3.33861
3.27177
3.20486
3.13799
3.07127
3.00487
2.939
2.87362
2.80838
2.74379
2.68071
2.61947
2.56066
2.50513
2.45415
2.40937
2.37297
2.34777
2.33739
2.34659
2.38079
2.44323
2.54504
2.69047
2.91008
3.24871
3.75818
4.37559
5.77305
5.71846
5.66315
5.60673
5.54878
5.4901
5.431
5.37212
5.31287
5.2526
5.18593
5.11278
5.04155
4.97369
4.90688
4.84082
4.77437
4.7077
4.64092
4.57432
4.50779
4.44085
4.37365
4.30624
4.23849
4.17046
4.10212
4.03345
3.96436
3.89481
3.82479
3.75433
3.68346
3.61225
3.54075
3.46906
3.39723
3.32534
3.25338
3.18139
3.10932
3.03711
2.96413
2.89026
2.81619
2.74202
2.668
2.59457
2.52241
2.45261
2.38663
2.32663
2.27557
2.23723
2.21544
2.21644
2.24862
2.32969
2.48919
2.77063
3.20048
5.9762
5.91822
5.85973
5.80026
5.73875
5.67643
5.61359
5.55132
5.48853
5.42445
5.3525
5.27632
5.20281
5.13267
5.06354
4.99518
4.92664
4.85868
4.79109
4.72405
4.65712
4.58948
4.52165
4.45372
4.38541
4.31692
4.2481
4.17898
4.10933
4.03918
3.9685
3.89742
3.82599
3.75436
3.68259
3.6108
3.53908
3.4675
3.39605
3.32475
3.25361
3.18264
3.11173
3.04034
2.9682
2.89548
2.82225
2.74856
2.67458
2.60065
2.52717
2.45476
2.38437
2.31724
2.25497
2.20058
2.16018
2.14457
2.17061
2.26362
2.45366
5.97479
5.915
5.85498
5.79425
5.73052
5.66594
5.60046
5.53625
5.4716
5.40603
5.33186
5.2555
5.18205
5.11237
5.04307
4.97452
4.90567
4.83849
4.77214
4.70686
4.64176
4.57535
4.50908
4.44306
4.37654
4.30999
4.24298
4.17573
4.10771
4.03913
3.96993
3.90049
3.83084
3.76127
3.69176
3.62253
3.55362
3.48517
3.41715
3.34965
3.28265
3.21624
3.15041
3.08501
3.01963
2.95373
2.88733
2.82052
2.75333
2.68587
2.61823
2.55047
2.48256
2.41452
2.34618
2.27819
2.21298
2.15592
2.11595
2.10662
2.14685
5.79079
5.73055
5.67046
5.61052
5.54556
5.48001
5.41271
5.34819
5.28339
5.21894
5.14445
5.06991
4.99814
4.93137
4.86373
4.79716
4.72949
4.66504
4.60168
4.53992
4.47832
4.41427
4.35128
4.28942
4.22661
4.16395
4.10039
4.03684
3.97191
3.90648
3.8402
3.77419
3.70816
3.64274
3.57751
3.51299
3.44898
3.38589
3.32354
3.2622
3.20173
3.14238
3.08405
3.02674
2.97021
2.91412
2.85766
2.80086
2.74387
2.68685
2.62986
2.57288
2.51573
2.45798
2.39898
2.33814
2.27555
2.21294
2.15409
2.10547
2.07708
5.44674
5.38701
5.3284
5.27183
5.20689
5.14198
5.07362
5.01076
4.9478
4.88729
4.81378
4.74242
4.67331
4.61171
4.54694
4.48441
4.41896
4.35909
4.30016
4.24297
4.18597
4.12456
4.06613
4.01096
3.95334
3.89575
3.83635
3.77786
3.71659
3.65511
3.59233
3.53127
3.47021
3.41082
3.35137
3.29325
3.23548
3.17936
3.12433
3.07115
3.01906
2.96874
2.91998
2.87245
2.82607
2.78091
2.73582
2.69038
2.64507
2.60014
2.55588
2.51226
2.46911
2.42591
2.38193
2.33623
2.28805
2.23721
2.18462
2.13261
2.08555
4.97537
4.91581
4.86073
4.81045
4.74706
4.68423
4.61526
4.55678
4.49818
4.44428
4.37288
4.30527
4.23882
4.18461
4.12309
4.06672
4.00394
3.9506
3.89716
3.84416
3.79193
3.73243
3.67971
3.63538
3.58345
3.52987
3.47412
3.42193
3.36332
3.30558
3.24549
3.19143
3.13602
3.08453
3.03124
2.98056
2.92848
2.8803
2.83369
2.79037
2.74792
2.70788
2.66982
2.63303
2.59645
2.56073
2.52561
2.49001
2.45614
2.423
2.39287
2.36403
2.33705
2.31052
2.28417
2.25663
2.22727
2.19516
2.16024
2.12208
2.08225
3.61937
3.51501
3.40157
3.2806
3.15774
3.0364
2.91942
2.81049
2.71272
2.62812
2.55747
2.50063
2.45658
2.42373
2.40022
2.38418
2.37388
2.36803
2.36558
2.36565
2.36766
2.3712
2.37595
2.38182
2.38869
2.39648
2.40517
2.41473
2.42515
2.4364
2.44841
2.46113
2.47447
2.48827
2.50238
2.51664
2.53082
2.54466
2.55797
2.57051
2.58203
2.59232
2.60126
2.60877
2.61484
2.61962
2.62331
2.62618
2.62859
2.63098
2.63369
2.637
2.64108
2.64608
2.65184
2.65818
2.66478
2.67145
2.67777
2.68323
2.68754
5.0576
4.98482
4.86198
4.68774
4.49322
4.28058
4.04816
3.80357
3.55552
3.31223
3.08011
2.8656
2.67237
2.50151
2.35354
2.22955
2.1286
2.04746
1.98296
1.93239
1.89322
1.86321
1.84053
1.82372
1.812
1.80413
1.80004
1.79915
1.80124
1.80606
1.81342
1.8231
1.83485
1.84834
1.86327
1.87927
1.8959
1.91268
1.92907
1.94444
1.95807
1.96914
1.9768
1.98014
1.9784
1.97099
1.95757
1.93837
1.9142
1.88654
1.85737
1.82897
1.80364
1.78315
1.76834
1.75944
1.75541
1.75474
1.75492
1.7538
1.75059
4.8799
5.23903
5.43693
5.44477
5.31003
5.11091
4.84873
4.54871
4.22799
3.89875
3.57332
3.26316
2.97579
2.71624
2.48768
2.29142
2.12557
1.98556
1.869
1.77473
1.70025
1.64259
1.59872
1.56581
1.54141
1.52399
1.51202
1.50476
1.50142
1.50145
1.5044
1.50984
1.51733
1.52633
1.53637
1.54693
1.55748
1.56752
1.57648
1.58375
1.58871
1.59079
1.58939
1.58393
1.57392
1.55894
1.53872
1.51325
1.48294
1.44869
1.41221
1.37604
1.34338
1.31753
1.30119
1.29637
1.30337
1.32118
1.34751
1.37999
1.41692
3.73793
4.33025
4.89732
5.33236
5.55288
5.59348
5.46771
5.21488
4.8959
4.53123
4.14928
3.77372
3.41696
3.09019
2.7983
2.5413
2.31625
2.12173
1.95635
1.81899
1.70771
1.62016
1.55306
1.50268
1.46541
1.43855
1.41996
1.4081
1.40171
1.3998
1.40167
1.40669
1.41417
1.42339
1.43364
1.44423
1.45448
1.46368
1.47113
1.47607
1.47776
1.47553
1.46876
1.45691
1.43956
1.41652
1.38778
1.3536
1.31446
1.27126
1.22548
1.17953
1.13681
1.10172
1.07908
1.07359
1.08739
1.12033
1.17024
1.2341
1.30855
2.7607
3.19448
3.74014
4.33751
4.88623
5.30682
5.54733
5.58205
5.44791
5.17268
4.80838
4.41346
4.00789
3.61856
3.26018
2.93574
2.64692
2.39188
2.17182
1.98624
1.83335
1.71135
1.61684
1.54523
1.49174
1.45252
1.42474
1.40623
1.39522
1.39018
1.39016
1.39438
1.40198
1.41203
1.42365
1.436
1.44823
1.45952
1.469
1.47579
1.47898
1.4778
1.47147
1.45936
1.4409
1.41586
1.3842
1.34618
1.30221
1.25312
1.20025
1.14579
1.09308
1.04682
1.01365
1.00085
1.01317
1.05325
1.11994
1.20903
1.3149
2.25862
2.46569
2.78729
3.22656
3.75476
4.31545
4.83164
5.22072
5.43447
5.46008
5.31181
5.03417
4.65995
4.24944
3.84529
3.45722
3.10304
2.78333
2.49653
2.24905
2.04317
1.87791
1.74933
1.65126
1.57719
1.52181
1.48152
1.45358
1.43563
1.42547
1.42182
1.42376
1.4303
1.44028
1.45264
1.46639
1.48056
1.49419
1.5063
1.51588
1.5219
1.52348
1.51974
1.50995
1.49334
1.46964
1.43866
1.40065
1.35582
1.30493
1.24911
1.19043
1.13201
1.0784
1.03645
1.01482
1.02104
1.06111
1.13648
1.24328
1.37464
2.08279
2.14053
2.27108
2.49429
2.82147
3.24819
3.7459
4.25981
4.72151
5.06528
5.24539
5.2518
5.10244
4.83027
4.48038
4.07779
3.68048
3.30128
2.93879
2.61542
2.34012
2.11712
1.94334
1.80977
1.70784
1.63019
1.57234
1.53092
1.50287
1.48493
1.47536
1.473
1.47672
1.48511
1.49691
1.51095
1.52611
1.5413
1.55542
1.56734
1.57591
1.58024
1.57932
1.5724
1.55845
1.53722
1.50837
1.47218
1.42867
1.37859
1.32293
1.26371
1.20387
1.14758
1.10122
1.07385
1.07479
1.11292
1.19306
1.31334
1.46646
2.0505
2.03774
2.06111
2.13752
2.28464
2.51693
2.84013
3.24351
3.69787
4.15382
4.55165
4.8394
4.98807
4.98644
4.8494
4.60032
4.27647
3.90496
3.48972
3.09243
2.73307
2.4362
2.20462
2.0253
1.88653
1.77863
1.69606
1.63526
1.59292
1.56381
1.54553
1.5364
1.53524
1.54026
1.54995
1.56292
1.57786
1.59352
1.60866
1.62202
1.63241
1.63892
1.64047
1.63631
1.62515
1.60675
1.58066
1.54715
1.50612
1.45829
1.40463
1.34705
1.28831
1.23237
1.18515
1.15547
1.15361
1.19066
1.27451
1.40599
1.57811
2.04349
2.01043
1.99092
1.99515
2.03628
2.129
2.28737
2.5207
2.82847
3.1984
3.59607
3.98518
4.32258
4.57304
4.70649
4.71419
4.59836
4.36508
4.04935
3.64975
3.21476
2.84354
2.54946
2.31609
2.12771
1.97751
1.85971
1.77224
1.70998
1.66484
1.63426
1.61508
1.60627
1.60579
1.61152
1.62184
1.6352
1.65011
1.66518
1.67879
1.69017
1.69799
1.70149
1.69967
1.6913
1.67573
1.65296
1.62241
1.58467
1.5398
1.48945
1.43493
1.37908
1.3259
1.28048
1.25114
1.24887
1.28643
1.37344
1.51423
1.70112
0.287606
6.41421
6.09765
0.219672
0.35011
0.127292
0.00315868
2.42711
0.00338307
0.0234079
3.31779
1.10739
0.00316065
6.02569
0.11159
5.46494
0.00326202
2.53911
3.61679
0.00315307
0.220453
5.87285
6.24234
0.00329638
0.0033366
0.106587
0.00315547
0.499649
0.00324829
0.00346311
0.716267
0.00323967
0.0163226
2.56062
0.80438
3.38839
2.52624
1.63713
0.00316358
2.54508
1.85987
1.9528
0.00320967
4.7325
3.19405
0.283396
0.00361045
0.0152659
0.131339
1.13251
6.46305
7.58369
0.00310447
0.00405719
0.0369196
0.00842753
0.00345407
0.66312
2.40307
7.25669
2.44548
0.00370326
0.145873
0.0319274
6.3255
0.46226
1.97695
1.72565
0.00431078
0.003213
1.22906
2.65538
1.68693
0.0155119
0.0391363
4.01533
6.66918
3.39901
0.00310571
0.960673
0.0071282
2.55964
0.0105635
4.93424
0.00321784
1.11465
0.00336592
2.20884
0.0147727
0.00492484
0.120313
0.0031017
0.00378937
7.42733
5.36284
0.00359992
0.443542
0.304725
0.00603832
6.53391
0.220131
2.48032
0.764565
0.00309814
0.00316409
0.00309452
0.309793
0.125332
0.00323909
6.02863
6.72934
0.00927951
4.55411
1.51581
2.54832
2.73788
1.78608
0.00389886
0.0859501
0.00419367
0.00438924
3.43749
0.00735869
7.29904
7.51292
0.984141
0.00321469
1.06622
1.06812
0.0032104
0.034152
0.0334745
1.67125
0.00570978
3.0614
0.00322015
0.0031592
7.50542
7.62366
0.00323074
0.167006
5.53237
0.1055
0.305246
1.5643
4.81443
0.0372326
1.65201
0.0121254
6.94279
1.23854
0.00887653
2.90919
4.87411
6.194
0.0033066
0.00327035
0.2188
0.0031128
1.94636
0.0300208
0.0051066
0.00319701
0.00321958
0.00323671
2.94629
1.75845
1.54406
0.00331231
6.68145
4.68364
3.13881
4.90463
0.0139564
3.74316
1.72287
1.89648
0.00324284
0.00570053
2.85405
3.06769
1.99668
3.63903
0.00321609
0.00352626
4.87522
0.0360859
0.575406
0.00323784
0.00360629
0.105653
0.0033878
7.56454
0.707776
0.00310241
0.258712
1.76929
5.24283
0.00448193
1.92063
0.00321843
0.00323412
4.99603
2.45928
7.13664
0.00452567
0.00339898
0.00763775
2.7462
2.19395
1.12952
4.84517
1.58509
6.85908
0.185614
4.43219
4.08871
1.89123
1.40754
2.31241
0.0049093
0.0371409
0.00322584
0.00319487
1.82319
0.0182205
0.0202256
0.00576146
0.0130977
2.86844
4.69073
0.0189028
5.77333
1.11721
0.403574
0.00318313
0.159588
2.88411
1.07385
0.00413047
1.22179
1.13796
0.174996
0.259429
7.2062
0.790996
0.470119
5.20158
0.00383619
0.00315935
0.00404366
0.0104834
1.75265
0.00336233
0.00656559
0.00316352
0.395864
4.09123
3.94826
2.73781
1.28237
1.48496
7.46476
0.00433175
2.07279
4.50388
0.00321001
2.05224
0.00321727
4.00221
0.393846
1.61435
0.00535197
0.00322021
1.96479
0.493122
0.00323895
0.00323794
0.00325227
0.00324565
0.363895
1.58334
3.09096
0.0146872
0.0032406
0.00316338
0.00309619
4.85239
0.225402
0.00448084
1.65652
0.0882438
0.0405459
0.00308961
0.268556
0.00323973
0.0519665
1.42905
4.63005
0.294674
0.00391791
0.00597963
3.38368
0.140492
1.90222
7.43118
0.00350506
0.00319755
0.00318718
5.87343
0.00331439
4.85836
0.00322161
1.84014
1.20697
0.0269981
2.97719
3.91818
0.0046902
2.72166
2.65588
1.60924
4.6684
1.10322
7.62305
2.44392
3.9647
3.59762
4.55614
1.6778
0.159721
7.54878
7.23821
3.00354
2.12787
0.00393282
6.85607
2.79823
6.86315
0.0276283
0.00359229
0.00321464
0.00342815
0.172714
0.427205
0.721002
0.0927993
0.00317288
5.94983
0.00321532
1.46704
1.97495
6.37438
2.63861
1.91391
0.00599361
0.00426364
0.0875087
2.87068
0.010365
0.724992
5.16125
2.05214
4.29051
6.12012
3.26358
0.003466
7.26525
5.33819
1.70876
0.00323575
6.20413
5.58378
0.00333602
1.97421
0.00323957
6.642
5.68581
1.87114
4.29243
2.57667
5.61174
0.00328918
5.62921
0.00387185
3.61583
4.14736
1.90958
7.24525
0.738924
0.215019
0.562394
0.00424665
4.25038
0.142838
0.00815406
0.00503295
4.42813
0.00383904
4.50918
0.00319049
0.00323655
0.00599297
1.82193
0.105374
1.8819
0.00576169
4.33596
0.16462
6.52274
4.32246
2.69766
6.12002
0.00337847
7.26426
3.02142
0.0032129
4.07501
2.106
0.00309964
0.00316739
3.36095
0.00647387
1.93057
0.0868287
2.42591
0.0269207
0.622263
2.67776
4.97133
2.47183
3.99874
3.68177
0.00393133
0.0215979
1.68938
1.61947
7.45407
6.35859
5.24633
0.0656833
5.05337
5.02501
0.505781
1.68656
2.84995
2.11793
0.00346719
4.27848
7.63355
0.00416876
4.39505
1.95483
2.87023
0.0242947
0.0679767
6.1645
0.00600114
7.44543
0.00462728
0.250244
0.00320375
1.02701
2.25885
0.232155
0.00480751
0.003692
2.77135
1.61093
0.0890481
0.404994
5.81567
4.06033
0.00446217
1.49889
1.65333
3.27264
1.50762
4.15456
1.95525
5.50465
3.37131
0.492066
0.993063
7.36903
1.89433
7.51764
6.06373
0.0314926
3.41029
2.8829
0.00337234
1.76546
1.61303
1.3434
0.0173431
4.81369
1.42438
0.720913
1.89822
0.00544918
0.00321532
0.0462868
2.31557
4.52091
2.58168
0.00322143
0.00318774
0.00321703
1.71706
0.0275449
0.0032161
0.1251
4.5956
4.9168
0.0105589
0.0107879
0.00315335
0.00320522
0.00602257
1.76833
1.70964
1.58697
0.46499
7.36865
5.71881
0.00525431
3.33231
1.83862
1.93969
4.12888
7.24478
0.00345834
0.0105185
0.00324011
3.81348
0.248055
0.00316865
1.4132
0.164157
7.34931
0.00323858
7.52578
1.19167
0.047752
6.47772
0.00323408
0.00319774
0.00405029
7.56748
3.3833
5.25714
4.90842
1.06519
1.76387
0.00312436
0.00604277
0.0877329
0.0138708
0.0252523
1.93884
2.14452
0.0032257
1.25194
1.82833
6.10922
7.55931
0.00826725
7.52638
0.00593181
0.0304827
3.62258
0.00320388
5.68264
0.00324107
0.0033712
0.0220849
2.12898
0.636007
2.5349
1.86021
0.00366001
1.76805
4.59146
0.0560107
0.216808
0.84564
0.00331855
0.00326993
0.00693431
5.4915
0.518221
0.00335112
7.13564
5.91577
6.61886
0.0344931
2.02424
0.00419997
2.49321
0.16118
0.0917523
2.63969
1.67053
1.87027
6.09946
0.00327727
0.0031307
0.0105537
4.05962
4.45441
1.00246
0.0139165
0.0033327
0.00324152
0.00886154
0.0236549
0.00662943
2.16787
1.72576
0.011563
1.56619
5.9377
0.0032722
2.37946
0.00321765
0.529132
0.00324485
0.0222731
2.3814
0.0201862
0.00320621
0.785962
7.65857
6.99076
0.00318778
0.00326207
0.399642
0.0249144
0.00321685
4.30327
0.00370733
1.67501
7.64332
2.47453
1.65386
2.42456
3.66922
7.46497
0.00323131
0.0074377
0.0147493
4.1956
1.39704
6.30297
0.689707
0.355843
4.29453
3.65539
4.94004
0.751853
2.66648
0.00322288
0.367362
1.70519
2.62827
3.92044
1.86579
0.223675
2.61793
0.103378
0.00915551
1.77321
0.00324166
5.79537
0.00366418
0.371012
7.32552
2.68418
0.583244
0.00743272
0.76915
0.00330251
0.00319203
0.107192
0.0225949
1.84519
0.0154116
1.74617
0.0032216
0.0281196
0.00316564
4.5662
0.00503309
4.0955
2.48791
0.0220196
1.89373
7.3893
0.00326063
1.68284
4.41842
0.00335336
7.30226
0.060992
0.00347279
0.00339399
7.12329
0.00317844
0.00429616
0.0875114
0.101525
6.96048
7.15703
0.00322114
0.00327109
1.1359
2.39668
0.0146435
0.252033
2.10237
0.00321829
0.00384206
0.00372757
6.03632
7.21363
0.498133
7.05628
0.0261861
1.60167
0.00331777
0.0148549
0.0249853
0.0361308
0.00323114
6.77185
0.00320112
0.0251657
0.0033229
0.255074
0.022546
0.0158159
0.437858
0.699253
2.27732
0.395628
1.10975
1.82559
5.06474
0.00344142
4.94412
7.50211
1.15706
4.10625
0.00327794
4.30507
3.79968
0.00321702
7.26356
2.30756
0.00832039
0.0114579
5.94635
5.80359
0.0614994
7.42649
7.19297
0.813916
7.14982
7.07335
5.07455
1.9226
1.61785
1.00932
7.08858
7.3089
0.021984
7.2655
2.49341
4.33056
0.00343262
0.346268
0.388522
6.80285
5.77991
0.0203289
4.22919
6.45317
0.462505
0.0332372
0.374991
1.81698
0.00536749
1.85297
6.77618
0.0338852
6.76285
1.34654
4.4833
6.29896
0.0032233
0.00565444
1.09691
0.72256
0.0181524
0.00321885
0.186854
0.250993
0.00451876
0.00323649
4.17518
1.03547
3.03292
1.03581
0.00866166
0.00417935
0.0964815
3.373
0.00346506
1.9162
1.68545
0.483871
2.26308
0.00397843
0.114884
0.00320268
0.34148
4.42778
0.00437968
0.119125
2.10409
5.69703
0.226189
4.11769
0.591492
0.16786
0.0039289
2.41979
7.55448
0.00321222
0.00328104
5.62728
0.0246504
0.00323565
3.81954
0.239383
1.90284
2.00582
1.44229
0.146874
1.79451
3.4733
5.64497
4.35694
0.00327752
5.5464
0.00389398
2.59606
0.00339194
0.00455665
2.10851
0.00655246
3.84764
0.0207568
0.0399736
1.82406
0.713361
0.0597732
0.00368161
6.13405
0.00365059
0.00315152
7.60493
5.79211
2.938
1.92567
0.0034395
0.00307238
1.94295
5.60703
0.00320011
6.48732
1.66305
0.0032441
6.0542
0.00311369
0.344287
0.943191
1.40313
0.366318
1.55491
1.9495
0.00310973
7.12998
7.2898
0.0032169
0.0167307
1.92683
0.00312832
6.95504
5.54399
4.36366
0.00321902
0.0031704
3.49507
0.0407009
0.00350144
1.85747
1.68418
4.1119
0.00315236
0.00337593
0.0244548
0.0194757
0.00321794
0.00640712
5.29012
2.86808
0.00322345
1.35119
0.00321512
0.687177
0.00420498
0.00359248
2.34995
0.0032647
0.120758
0.00317608
2.88267
0.171804
1.71396
6.30509
4.34238
3.7155
0.850398
1.20584
0.0032355
0.96035
7.22053
4.05099
0.107496
0.00347148
5.23923
0.00321532
0.0302988
0.00315454
7.00186
0.756476
0.355912
6.25766
2.21235
0.468232
4.25588
0.704577
6.79547
4.66954
0.00331346
0.00326909
0.0082354
0.00322577
0.0228252
4.27241
0.00377282
6.92722
0.00602458
0.0768988
0.603142
4.79066
0.00486657
2.75585
0.0168601
3.0189
2.51696
6.78839
0.00338988
0.00383659
0.264407
3.77551
1.66635
3.81062
0.433169
1.0538
1.59825
0.0507674
0.993516
0.258245
1.68601
0.00328223
4.30601
0.421142
3.24569
0.00336786
3.1538
0.95796
0.00464132
1.60113
1.86047
0.065572
0.00314574
0.00321915
4.8946
2.90661
1.37597
0.00320927
0.0176365
1.98897
6.34227
0.45976
0.0126514
0.00322252
5.39109
5.19623
2.07955
2.7352
0.00321481
3.58616
7.26766
0.00321116
0.00321792
1.23529
0.00412432
0.00991615
0.0307595
1.92247
0.00409806
2.21017
7.50299
0.00319936
0.0034576
0.00316689
0.00330953
3.85072
4.61052
7.57317
0.0291527
2.39885
2.19598
0.087708
2.96597
0.00347104
1.68982
0.223999
2.07292
0.705807
1.61575
3.17234
0.0260505
0.00323909
5.89535
4.41448
4.58603
0.938692
1.77578
0.177268
1.63654
0.00930439
0.00484768
3.46644
5.49086
0.0215578
0.126828
0.00324664
0.0784924
1.98138
0.0275549
1.02752
0.712357
3.76507
2.14686
0.442762
6.73611
5.54976
2.9435
1.71394
4.21678
3.51421
0.581723
2.76715
0.00622352
2.89985
3.06154
0.00320416
0.00313335
0.121251
0.00322784
0.00332472
3.00581
4.32495
0.00322082
3.23135
0.00321592
0.00319266
0.00321789
0.0032579
0.0059478
1.93294
2.6242
7.02443
0.00315619
0.00391798
1.00147
0.00356064
0.0330858
0.00324575
0.00361115
4.42749
0.00391708
0.0109774
2.76319
0.0105125
0.00322002
3.95749
0.00321488
0.00326843
0.249328
0.00361014
0.944257
0.00456526
0.0301562
0.00320437
0.00325307
7.35731
7.4547
2.66694
0.0267105
3.00973
1.62066
0.00472191
1.76755
4.13783
6.91384
4.54706
0.00312244
1.92928
2.58122
0.147504
1.74226
4.47523
0.174546
2.04876
0.204212
1.72006
0.0365676
1.0513
0.00323494
6.58436
0.00328327
1.79708
2.56786
0.00321541
0.315997
0.00733649
0.0200625
0.00317417
0.782228
0.00367039
0.00321974
2.5128
0.00857823
0.111133
6.86895
1.88609
0.0034522
0.00387209
2.49197
7.0657
0.00309123
0.00324803
0.070701
1.34629
5.65326
0.00658446
1.72024
0.00321896
0.00344812
0.0031463
0.0349331
0.965673
0.0101345
6.45229
1.80799
7.06414
5.95008
0.00352495
7.19299
3.8379
0.00317905
0.00322629
0.00321815
0.00440302
0.00320317
3.86177
0.00320817
0.00324181
6.61589
0.332754
0.00778508
0.022417
2.02929
0.952089
0.00806874
0.00346319
6.25764
0.00324546
0.807174
0.00325983
0.0035293
5.83534
5.68506
0.00873609
0.00350242
0.318549
0.00320667
6.65625
0.00325334
5.45505
0.0253556
0.710734
0.0355446
0.35808
0.360834
1.49091
0.00324286
0.00357245
0.0116159
3.16424
0.119336
7.35383
0.00322036
0.00457588
0.00556996
7.04404
2.85723
3.02644
0.00693463
0.00898007
0.212126
0.00322382
1.21999
2.5747
0.0170432
5.87798
6.21983
1.99254
0.00535003
0.396403
2.80285
6.68085
1.803
0.0188424
3.15704
0.0583459
5.12025
0.0918851
0.534082
2.54682
0.00324366
1.76499
0.00455973
0.0119194
0.00826838
0.0504089
0.00370944
1.33045
0.00322709
3.00853
0.0961438
0.0036132
0.239869
0.00323206
0.286319
0.118181
2.30627
0.454436
4.60639
0.246608
0.00321727
0.00319248
0.742304
0.0918101
2.91332
7.07698
0.00322443
3.83853
2.78145
0.0233295
1.99913
0.59224
2.34349
2.16731
0.0332487
0.00590159
6.99235
1.5019
5.94072
0.00321101
1.65117