/*--------------------------------*- C++ -*----------------------------------*\
| =========                 |                                                 |
| \\      /  F ield         | OpenFOAM: The Open Source CFD Toolbox           |
|  \\    /   O peration     | Version:  2.3.1                                 |
|   \\  /    A nd           | Web:      www.OpenFOAM.org                      |
|    \\/     M anipulation  |                                                 |
\*---------------------------------------------------------------------------*/
FoamFile
{
    version     2.0;
    format      ascii;
    class       volScalarField;
    location    "0.52";
    object      nut;
}
// * * * * * * * * * * * * * * * * * * * * * * * * * * * * * * * * * * * * * //

dimensions      [0 2 -1 0 0 0 0];

internalField   nonuniform List<scalar> 
9648
(
0.00027193
0.000271445
0.00027135
0.000271113
0.000270706
0.000270057
0.000269211
0.00026818
0.000266946
0.000265489
0.000263801
0.000261921
0.000259848
0.000257595
0.000255214
0.000252755
0.000250246
0.000247712
0.000245197
0.000242746
0.000240374
0.000238105
0.000235959
0.000233936
0.000232041
0.000230291
0.000228687
0.000227234
0.000225918
0.00022474
0.000223698
0.000222778
0.000221984
0.000221311
0.000220749
0.000220299
0.00021996
0.000219725
0.00021958
0.000219526
0.00021957
0.000219702
0.000219917
0.000220223
0.000220608
0.000221061
0.000221597
0.000222227
0.000222943
0.000223729
0.000224598
0.000225571
0.000226622
0.000227754
0.000228978
0.000230287
0.000231648
0.000233003
0.000234359
0.000235716
0.000237057
0.00045987
0.000462318
0.000465036
0.000468681
0.000472795
0.000476667
0.000481747
0.000489406
0.000499991
0.000513413
0.000529799
0.000549463
0.000572358
0.000598333
0.000627204
0.000658868
0.000693082
0.000729508
0.000767843
0.000807907
0.000849345
0.000891882
0.000935296
0.000979291
0.00102359
0.00106807
0.00111264
0.00115717
0.00120149
0.00124556
0.00128934
0.00133269
0.0013755
0.00141779
0.00145949
0.0015005
0.00154089
0.00158069
0.0016198
0.00165809
0.00169559
0.00173241
0.00176844
0.00180358
0.00183796
0.0018713
0.00190362
0.00193508
0.00196576
0.00199553
0.00202434
0.00205221
0.00207938
0.00210534
0.00213076
0.00215544
0.00218
0.00220344
0.00222641
0.00224915
0.00227184
0.000800359
0.000837367
0.000871593
0.000903826
0.000937073
0.000973561
0.00101256
0.00105536
0.00110169
0.00115237
0.00120681
0.0012656
0.0013286
0.00139566
0.0014665
0.00154078
0.00161814
0.00169803
0.00178001
0.00186369
0.00194859
0.00203431
0.00212032
0.00220622
0.00229172
0.00237667
0.00246099
0.00254446
0.00262706
0.00270866
0.00278914
0.00286844
0.00294657
0.0030234
0.00309893
0.00317328
0.00324632
0.00331818
0.00338879
0.00345816
0.00352631
0.00359317
0.00365891
0.00372347
0.00378679
0.00384887
0.00390964
0.00396933
0.00402773
0.00408498
0.00414107
0.00419608
0.00425057
0.00430309
0.00435589
0.00440667
0.00445728
0.00450501
0.00455296
0.00460014
0.0046467
0.00128679
0.00135868
0.00142677
0.00149295
0.00155953
0.00162836
0.00170004
0.00177544
0.00185483
0.00193899
0.00202768
0.00212126
0.00221938
0.00232199
0.00242854
0.00253854
0.00265142
0.00276658
0.00288356
0.0030019
0.00312115
0.0032406
0.00335967
0.003478
0.00359545
0.00371188
0.00382727
0.00394142
0.00405423
0.00416559
0.00427552
0.004384
0.00449096
0.0045965
0.00470056
0.00480322
0.00490446
0.00500433
0.00510287
0.00520014
0.00529616
0.00539097
0.00548449
0.00557688
0.00566803
0.00575796
0.0058467
0.00593431
0.00602059
0.00610561
0.0061898
0.00627211
0.00635329
0.00643277
0.00651217
0.00658959
0.00666516
0.0067389
0.00681122
0.00688206
0.00695048
0.00184857
0.00194678
0.00204199
0.00213556
0.00222944
0.00232583
0.00242608
0.00253087
0.00264093
0.00275664
0.00287787
0.00300447
0.00313621
0.00327276
0.00341338
0.00355722
0.00370352
0.00385176
0.00400145
0.00415223
0.00430343
0.00445422
0.0046039
0.00475226
0.00489934
0.00504533
0.00518984
0.00533271
0.00547376
0.00561293
0.00575048
0.00588638
0.00602078
0.00615358
0.0062847
0.00641426
0.00654221
0.00666855
0.00679344
0.00691696
0.00703918
0.00716001
0.00727956
0.00739774
0.00751458
0.00763002
0.007744
0.00785657
0.00796791
0.00807738
0.0081856
0.00829216
0.00839653
0.0084989
0.00859971
0.00869911
0.00879585
0.00889051
0.00898311
0.00907306
0.0091603
0.00242459
0.00253929
0.00265524
0.00277238
0.00289186
0.00301541
0.00314444
0.00327981
0.0034217
0.00357017
0.00372486
0.00388516
0.00405081
0.00422115
0.00439553
0.00457284
0.00475185
0.0049324
0.00511391
0.00529602
0.00547794
0.00565848
0.00583716
0.00601389
0.00618919
0.00636302
0.00653509
0.00670477
0.00687177
0.0070366
0.00719958
0.00736094
0.00752072
0.00767867
0.00783463
0.00798858
0.00814067
0.00829088
0.00843947
0.00858651
0.00873187
0.00887563
0.00901778
0.00915834
0.00929722
0.00943451
0.0095704
0.00970383
0.00983571
0.00996577
0.0100937
0.0102197
0.0103435
0.0104644
0.0105835
0.0106997
0.0108134
0.0109249
0.0110336
0.0111385
0.0112412
0.00298788
0.00311388
0.00324916
0.00339021
0.00353667
0.00368933
0.00384936
0.00401727
0.00419296
0.00437568
0.00456506
0.00475986
0.00495964
0.00516371
0.00537191
0.00558235
0.00579376
0.00600625
0.00621893
0.00643146
0.00664302
0.00685197
0.00705845
0.00726219
0.00746405
0.00766424
0.0078615
0.0080557
0.00824646
0.00843458
0.00862113
0.00880563
0.00898818
0.00916868
0.00934633
0.00952132
0.00969436
0.00986514
0.0100341
0.0102014
0.0103664
0.0105291
0.0106898
0.0108486
0.011005
0.0111593
0.0113119
0.011462
0.0116102
0.0117558
0.0118992
0.0120399
0.0121778
0.012313
0.0124448
0.0125742
0.012701
0.0128245
0.0129444
0.0130608
0.0131737
0.00353109
0.00366649
0.00382181
0.00398819
0.00416391
0.004347
0.00453942
0.00474155
0.00495186
0.00517011
0.00539501
0.00562505
0.00585893
0.00609577
0.00633672
0.00657998
0.00682373
0.00706832
0.00731194
0.00755336
0.00779328
0.00802963
0.00826359
0.00849346
0.00871978
0.00894344
0.0091631
0.00937946
0.00959184
0.00980165
0.0100102
0.0102152
0.0104171
0.0106165
0.0108121
0.0110044
0.0111948
0.0113826
0.0115688
0.0117534
0.0119348
0.0121128
0.0122874
0.01246
0.0126295
0.0127963
0.0129607
0.0131217
0.0132808
0.0134371
0.0135903
0.0137404
0.0138884
0.0140331
0.0141737
0.0143108
0.0144448
0.0145767
0.0147046
0.0148273
0.0149457
0.00405937
0.00420091
0.00437678
0.00456564
0.00477288
0.00498464
0.00520766
0.00544536
0.00568693
0.00594116
0.00619978
0.00646811
0.00673535
0.00700376
0.00727218
0.00754696
0.00782228
0.00809908
0.00837747
0.00864432
0.00890986
0.00917405
0.00943599
0.00969621
0.00994254
0.0101867
0.0104254
0.010661
0.010895
0.0111254
0.0113571
0.0115816
0.0117942
0.0120079
0.0122207
0.0124259
0.0126289
0.0128318
0.0130309
0.013232
0.0134309
0.0136266
0.0138101
0.0139926
0.0141751
0.0143487
0.0145227
0.0146875
0.0148557
0.015015
0.0151764
0.0153251
0.0154758
0.0156308
0.0157796
0.0159147
0.0160523
0.016183
0.0163186
0.016448
0.016565
0.000238303
0.000239449
0.000240568
0.000241659
0.000242704
0.000243674
0.000244612
0.000245555
0.000246486
0.000247358
0.000248149
0.000248924
0.00024967
0.000250386
0.000251106
0.000251874
0.000252698
0.00025358
0.000254546
0.000255631
0.000256806
0.000258047
0.000259349
0.000260675
0.000262007
0.000263355
0.00026473
0.000266112
0.00026749
0.000268877
0.000270271
0.000271668
0.000273068
0.000274483
0.000275901
0.000277329
0.000278775
0.000280241
0.000281711
0.000283187
0.000284686
0.000286204
0.000287737
0.000289295
0.000290868
0.000292437
0.00029402
0.000295636
0.000297275
0.00029891
0.000300558
0.000302245
0.00030394
0.000305641
0.000307376
0.000309151
0.000310957
0.000312745
0.000314577
0.000316488
0.000318484
0.00229461
0.00231512
0.00233521
0.00235523
0.00237485
0.00239328
0.00240965
0.00242505
0.00243797
0.00245082
0.00246206
0.00247258
0.00248197
0.00249025
0.00249733
0.00250294
0.00250717
0.00250988
0.00251113
0.00251099
0.00250964
0.00250729
0.00250388
0.00249954
0.00249433
0.00248827
0.00248143
0.00247364
0.00246502
0.00245549
0.00244501
0.00243369
0.00242155
0.0024085
0.0023946
0.00237994
0.00236442
0.00234816
0.00233112
0.00231335
0.00229487
0.00227567
0.0022559
0.00223552
0.00221448
0.00219276
0.0021703
0.00214718
0.00212328
0.00209866
0.00207331
0.0020472
0.00202044
0.00199238
0.00196411
0.00193461
0.00190469
0.00187352
0.00184258
0.00181144
0.00178015
0.00469096
0.00473413
0.00477453
0.00481374
0.00485154
0.00488914
0.00492308
0.00495555
0.00498458
0.00501259
0.00503832
0.00506242
0.00508404
0.00510413
0.00512227
0.00513841
0.00515264
0.00516493
0.00517536
0.00518399
0.00519107
0.00519651
0.00520045
0.00520291
0.0052039
0.00520342
0.00520158
0.00519829
0.00519358
0.00518728
0.00517955
0.00517022
0.00515932
0.00514696
0.005133
0.00511754
0.0051005
0.00508197
0.00506191
0.00504043
0.0050176
0.00499353
0.00496828
0.00494201
0.00491458
0.00488597
0.00485603
0.00482476
0.00479198
0.00475768
0.00472202
0.00468421
0.00464472
0.00460305
0.00456016
0.00451476
0.00446728
0.00441808
0.00436801
0.00431698
0.00426478
0.00701735
0.0070817
0.00714397
0.00720328
0.0072606
0.00731593
0.00736877
0.00741799
0.00746482
0.00750954
0.00755168
0.00759098
0.00762777
0.00766246
0.00769439
0.00772406
0.00775133
0.00777621
0.00779873
0.00781902
0.00783714
0.0078533
0.00786744
0.00787971
0.00789001
0.00789836
0.00790472
0.00790916
0.00791176
0.00791242
0.00791101
0.00790751
0.00790191
0.00789413
0.00788422
0.00787215
0.00785782
0.00784117
0.00782226
0.00780119
0.00777814
0.00775318
0.00772669
0.00769877
0.00766952
0.00763884
0.00760655
0.00757252
0.00753668
0.00749877
0.00745889
0.00741651
0.00737137
0.00732343
0.00727297
0.00721938
0.0071624
0.00710301
0.00704194
0.00697871
0.00691394
0.00924464
0.00932689
0.00940629
0.00948254
0.0095553
0.00962543
0.00969283
0.00975646
0.00981679
0.00987472
0.00992944
0.00998121
0.0100304
0.0100766
0.01012
0.010161
0.0101985
0.0102333
0.010265
0.0102939
0.01032
0.0103437
0.010365
0.010384
0.0104005
0.0104146
0.0104263
0.0104358
0.0104432
0.0104485
0.0104517
0.0104524
0.0104507
0.0104464
0.0104397
0.0104303
0.010418
0.0104028
0.0103846
0.0103634
0.0103393
0.0103128
0.0102841
0.0102537
0.0102218
0.0101885
0.0101536
0.0101163
0.0100775
0.0100368
0.00999371
0.00994783
0.00989883
0.00984625
0.00979033
0.00972975
0.00966545
0.00959795
0.00952782
0.00945469
0.00937991
0.0113403
0.0114365
0.0115288
0.0116185
0.0117042
0.0117862
0.011865
0.0119393
0.0120103
0.0120777
0.0121422
0.0122034
0.0122614
0.0123161
0.0123674
0.0124156
0.0124602
0.0125016
0.0125393
0.0125731
0.0126034
0.0126306
0.0126548
0.0126763
0.0126949
0.0127104
0.0127229
0.0127327
0.0127402
0.0127458
0.0127495
0.0127508
0.0127497
0.012746
0.0127399
0.0127308
0.0127184
0.0127025
0.0126829
0.0126597
0.0126328
0.0126023
0.0125688
0.0125331
0.0124956
0.0124571
0.0124166
0.0123742
0.0123301
0.0122848
0.0122372
0.0121863
0.0121323
0.0120747
0.012013
0.0119458
0.0118741
0.0117976
0.0117185
0.0116362
0.0115514
0.013283
0.0133887
0.0134904
0.0135879
0.0136818
0.0137719
0.0138577
0.013939
0.0140167
0.0140904
0.0141604
0.014227
0.0142904
0.0143495
0.0144046
0.0144567
0.0145053
0.0145503
0.0145909
0.0146262
0.0146572
0.0146843
0.0147076
0.0147278
0.0147444
0.0147572
0.0147661
0.0147709
0.0147729
0.0147729
0.014772
0.0147688
0.0147639
0.0147568
0.0147483
0.0147372
0.0147219
0.0147027
0.0146797
0.0146529
0.0146219
0.0145859
0.0145456
0.0145022
0.0144566
0.0144105
0.0143612
0.0143105
0.0142579
0.0142059
0.0141519
0.014094
0.0140337
0.0139699
0.0139026
0.013828
0.0137484
0.0136628
0.0135751
0.0134832
0.0133886
0.0150605
0.0151706
0.0152762
0.0153766
0.0154728
0.0155639
0.0156511
0.0157341
0.0158138
0.0158894
0.0159603
0.0160279
0.0160926
0.0161532
0.0162082
0.0162586
0.016307
0.0163526
0.0163942
0.0164297
0.0164584
0.016483
0.0165032
0.0165186
0.0165303
0.0165376
0.0165405
0.016537
0.0165277
0.0165154
0.0165035
0.0164887
0.0164738
0.016457
0.0164419
0.0164264
0.0164056
0.016379
0.0163491
0.016317
0.0162812
0.0162403
0.0161926
0.0161404
0.0160858
0.0160312
0.0159712
0.01591
0.0158452
0.0157834
0.0157216
0.0156538
0.0155847
0.0155135
0.0154405
0.0153584
0.0152713
0.0151759
0.0150794
0.0149783
0.0148751
0.0166851
0.0167956
0.0169047
0.0169987
0.0170921
0.0171716
0.0172547
0.0173234
0.0173946
0.0174702
0.0175385
0.0175919
0.0176528
0.0177131
0.0177664
0.0178101
0.0178466
0.017883
0.0179233
0.0179584
0.0179824
0.0180041
0.0180242
0.0180344
0.0180374
0.0180353
0.0180324
0.0180248
0.0180042
0.017975
0.0179476
0.0179133
0.0178801
0.0178418
0.017811
0.0177865
0.0177575
0.0177179
0.0176745
0.0176307
0.0175863
0.0175449
0.0174903
0.017429
0.0173694
0.0173072
0.0172406
0.0171682
0.0170914
0.0170159
0.0169437
0.0168623
0.016778
0.0166989
0.0166162
0.0165301
0.0164345
0.0163328
0.0162254
0.0161166
0.0160033
0.000320477
0.00032245
0.000324501
0.000326628
0.000328803
0.00033098
0.000333191
0.000335464
0.000337779
0.000340116
0.000342471
0.00034487
0.000347283
0.000349784
0.000352844
0.00035566
0.000358403
0.000361138
0.000363876
0.000366643
0.000369423
0.000372219
0.00037504
0.000377865
0.00038068
0.000383494
0.000386306
0.000389104
0.00039187
0.000394607
0.000397305
0.000399953
0.000402538
0.000405062
0.000407502
0.000409851
0.000412101
0.00041423
0.000416082
0.000417427
0.000418352
0.000418869
0.000418975
0.000418666
0.000417884
0.000416565
0.000414663
0.000412115
0.000408796
0.00040455
0.00039924
0.000392695
0.000384624
0.000374701
0.000361859
0.000340631
0.000330341
0.000324901
0.000322687
0.000321622
0.000319407
0.00174829
0.00171637
0.0016839
0.00165123
0.00161831
0.00158546
0.0015521
0.00151902
0.00148579
0.00145294
0.00142064
0.001388
0.00135584
0.00132392
0.00128849
0.00125311
0.00121818
0.00118391
0.00115037
0.00111762
0.00108562
0.00105418
0.00102328
0.000992894
0.000963011
0.00093367
0.000904844
0.000876591
0.000848887
0.000821741
0.000795193
0.000769266
0.000743953
0.000719303
0.000695375
0.000672188
0.000649842
0.000628412
0.000607577
0.000584527
0.000560896
0.00053823
0.000516663
0.000496378
0.000477476
0.000460156
0.000444695
0.000431357
0.00042041
0.000412187
0.00040705
0.000405429
0.000407746
0.00041451
0.000424607
0.000447368
0.00048256
0.000538887
0.000625425
0.000749955
0.000870072
0.00421197
0.00415838
0.00410383
0.00404774
0.00399031
0.00393182
0.00387219
0.00381188
0.00375088
0.00368974
0.00362682
0.00356354
0.00350299
0.0034423
0.00337878
0.00331276
0.00324532
0.0031777
0.00311024
0.00304324
0.00297651
0.00290969
0.0028428
0.00277585
0.00270872
0.00264149
0.00257411
0.00250662
0.00243887
0.00237094
0.00230274
0.00223426
0.00216555
0.00209652
0.00202725
0.00195773
0.00188801
0.00181806
0.00174768
0.00167551
0.00160123
0.00151518
0.00142148
0.00132493
0.00122673
0.00112812
0.00103075
0.000936187
0.000846438
0.000763524
0.000689434
0.000626024
0.000574502
0.000536162
0.00051081
0.000502463
0.000513767
0.000549835
0.000620309
0.000739272
0.000903048
0.00684799
0.0067816
0.00671351
0.00664309
0.00656984
0.00649491
0.0064183
0.0063408
0.00626283
0.00618414
0.00610178
0.00602058
0.00594212
0.00586332
0.00578118
0.00569551
0.00560718
0.00551801
0.00542861
0.00533931
0.00524982
0.00515933
0.0050681
0.00497618
0.00488335
0.00478964
0.00469493
0.00459924
0.00450232
0.00440411
0.00430455
0.00420368
0.00410144
0.00399788
0.00389304
0.00378692
0.00367947
0.0035707
0.0034604
0.00334799
0.00323264
0.003111
0.00297503
0.00282147
0.00265622
0.00247955
0.0022923
0.00209577
0.00189246
0.00168656
0.00148276
0.00128842
0.00111002
0.000954344
0.000825224
0.00072756
0.000664189
0.000635068
0.00064233
0.000693619
0.000797506
0.00930302
0.00922542
0.0091458
0.00906379
0.00897734
0.00888846
0.00879764
0.00870655
0.00861471
0.00852209
0.00842482
0.0083292
0.00823576
0.0081421
0.00804499
0.00794383
0.00783915
0.00773363
0.00762762
0.00752155
0.00741475
0.007306
0.00719606
0.00708506
0.00697244
0.00685841
0.00674259
0.00662499
0.00650519
0.00638319
0.0062589
0.00613256
0.00600424
0.0058741
0.00574215
0.00560852
0.00547323
0.00533624
0.00519739
0.0050564
0.00491273
0.00476506
0.00461014
0.00443885
0.00424886
0.00404286
0.00381931
0.00357679
0.00331418
0.00303237
0.00273299
0.00242101
0.00210554
0.00179927
0.00151656
0.0012719
0.00107711
0.000934278
0.000840733
0.000795769
0.00080297
0.0114633
0.0113746
0.011284
0.011191
0.0110922
0.0109903
0.0108855
0.0107812
0.0106765
0.0105714
0.010461
0.0103521
0.0102448
0.010138
0.0100274
0.0099126
0.00979392
0.00967511
0.00955567
0.0094361
0.00931511
0.00919081
0.00906536
0.00893895
0.00881018
0.00867944
0.00854605
0.00841019
0.00827101
0.00812887
0.00798371
0.00783628
0.00768671
0.00753543
0.00738229
0.00722761
0.00707137
0.0069137
0.00675447
0.00659357
0.00643054
0.00626485
0.00609503
0.00591727
0.00572085
0.00550903
0.00527906
0.00502943
0.00475703
0.00445902
0.00413342
0.00377894
0.00339767
0.00299778
0.00259217
0.00220235
0.00185113
0.0015539
0.00131666
0.00114027
0.00102412
0.0132889
0.0131889
0.0130877
0.0129845
0.0128737
0.0127588
0.0126401
0.0125229
0.012406
0.0122898
0.0121666
0.0120451
0.0119251
0.011807
0.0116844
0.0115581
0.0114273
0.0112976
0.0111672
0.0110368
0.010904
0.010766
0.0106277
0.0104892
0.0103469
0.010202
0.0100531
0.00990145
0.0097449
0.0095849
0.00942137
0.00925633
0.00908939
0.00892158
0.00875211
0.00858177
0.00841024
0.00823824
0.00806548
0.00789219
0.00771765
0.00754167
0.0073635
0.00718116
0.00699045
0.00678053
0.00655492
0.00631162
0.00604796
0.00576103
0.00544697
0.00510189
0.00472324
0.00430976
0.00386656
0.00340577
0.0029476
0.00251555
0.00212808
0.00179725
0.00153018
0.0147643
0.0146525
0.0145407
0.0144281
0.0143063
0.0141791
0.0140471
0.0139168
0.0137887
0.0136621
0.0135274
0.0133942
0.0132635
0.0131361
0.0130038
0.0128679
0.0127278
0.0125892
0.0124502
0.0123115
0.0121684
0.0120183
0.0118701
0.0117225
0.0115685
0.0114104
0.0112473
0.0110812
0.0109082
0.0107317
0.0105519
0.010373
0.0101924
0.0100126
0.00983117
0.00965008
0.00946824
0.00928828
0.0091089
0.00893107
0.00875267
0.00857432
0.0083948
0.00821295
0.00802592
0.00782601
0.00760958
0.00737744
0.00712833
0.00686029
0.00657072
0.00625554
0.00590977
0.00552935
0.00511194
0.00465945
0.00418097
0.00369139
0.00321016
0.00275601
0.0023463
0.0158871
0.0157609
0.0156403
0.0155148
0.0153869
0.0152464
0.0151057
0.0149588
0.0148223
0.0146838
0.0145423
0.0143972
0.0142606
0.014124
0.0139879
0.0138416
0.0136995
0.0135505
0.0134061
0.0132632
0.0131089
0.0129515
0.0127958
0.0126385
0.0124743
0.0123014
0.0121268
0.0119452
0.0117573
0.0115654
0.0113739
0.0111855
0.0109951
0.0108074
0.0106185
0.0104315
0.0102453
0.0100669
0.00988979
0.0097176
0.00954186
0.00936877
0.00919381
0.00901657
0.00883612
0.00864812
0.00844274
0.00822184
0.0079882
0.00774603
0.0074854
0.00720855
0.00690296
0.00657162
0.00620387
0.0058032
0.0053623
0.00489299
0.00439846
0.00389379
0.00339967
0.000315362
0.000310735
0.000305671
0.000300211
0.000294567
0.000288845
0.000283214
0.000277882
0.000273015
0.000268726
0.00026508
0.000262126
0.000259814
0.000258062
0.000256801
0.00025595
0.000255406
0.000255087
0.000254946
0.00025495
0.000255056
0.000255245
0.000255504
0.000255827
0.000256186
0.000256603
0.000257071
0.000257586
0.00025814
0.00025874
0.000259377
0.000260049
0.000260749
0.000261474
0.000262208
0.00026295
0.00026369
0.000264415
0.000265101
0.000265742
0.000266338
0.000266869
0.000267327
0.000267721
0.000268036
0.000268271
0.000268451
0.000268605
0.000268737
0.000268853
0.000268983
0.000269163
0.000269368
0.000269615
0.000269905
0.00027024
0.000270581
0.000270891
0.000271188
0.000271471
0.000271731
0.000935298
0.000990644
0.001034
0.00105985
0.00107039
0.00106969
0.00105534
0.0010283
0.000991144
0.000946133
0.000895634
0.000843106
0.00079124
0.000741973
0.000695841
0.000654417
0.000619165
0.000590023
0.000566545
0.000548115
0.000533943
0.000523238
0.000515242
0.00050942
0.00050532
0.000502584
0.000501047
0.000500489
0.000500782
0.000501796
0.000503415
0.000505522
0.000507986
0.00051066
0.000513414
0.000516113
0.000518603
0.000520747
0.000522381
0.000523358
0.000523523
0.000522727
0.000520843
0.000517753
0.000513379
0.000507705
0.0005008
0.000492852
0.000484156
0.00047516
0.000466409
0.0004585
0.000451975
0.00044722
0.000444478
0.000443698
0.000444637
0.000446841
0.000449846
0.00045315
0.000456529
0.00107433
0.00124631
0.00141502
0.00156426
0.00166341
0.00174054
0.00179269
0.0018149
0.0018113
0.00178506
0.00173729
0.00167259
0.0015951
0.00150849
0.001415
0.00131977
0.00122958
0.00114769
0.00107598
0.00101636
0.000968965
0.000932819
0.000906259
0.000887453
0.000874667
0.000866774
0.000862685
0.000861713
0.000863218
0.000866663
0.000871623
0.000877611
0.000884132
0.000890701
0.000896811
0.000902017
0.000905864
0.000907938
0.000907824
0.000905159
0.000899653
0.000891124
0.000879455
0.000864683
0.000846894
0.000826356
0.000803423
0.000778606
0.000752541
0.000726156
0.000700699
0.000677681
0.000658924
0.000646111
0.000640753
0.000643614
0.000654714
0.000673426
0.000698668
0.00072908
0.000763345
0.000950806
0.00114748
0.00137592
0.00161355
0.0018294
0.0020239
0.00220229
0.00232911
0.00241594
0.00247238
0.00249509
0.00248715
0.00245319
0.00239501
0.00231452
0.00221538
0.00210181
0.0019856
0.00187259
0.00176877
0.00167876
0.00160564
0.00154977
0.00150963
0.00148275
0.00146704
0.00146051
0.00146162
0.0014689
0.00148107
0.00149709
0.00151592
0.00153636
0.0015572
0.0015773
0.00159555
0.00161085
0.0016221
0.00162828
0.0016284
0.00162159
0.00160721
0.0015848
0.00155419
0.00151541
0.00146897
0.00141561
0.00135639
0.00129247
0.00122565
0.00115826
0.00109347
0.00103539
0.000989146
0.000960337
0.000953364
0.000969081
0.00100656
0.00106304
0.00113328
0.00121062
0.000866632
0.000990468
0.00117533
0.00141179
0.00167635
0.00194848
0.00221351
0.00244787
0.00264792
0.00282148
0.00294696
0.00302527
0.00307157
0.00308485
0.00306787
0.0030256
0.00295957
0.00287213
0.00277537
0.00267645
0.00258115
0.00249643
0.00242718
0.00237543
0.0023406
0.00232157
0.00231687
0.002325
0.00234393
0.00237172
0.00240686
0.00244766
0.00249216
0.00253831
0.00258416
0.00262777
0.0026672
0.00270057
0.00272594
0.00274143
0.00274533
0.00273627
0.00271299
0.0026747
0.0026207
0.00255127
0.0024668
0.00236836
0.00225732
0.00213582
0.0020068
0.00187484
0.00174607
0.0016294
0.00153708
0.00148414
0.00147169
0.00150026
0.00156246
0.00164869
0.00174747
0.000969831
0.000979614
0.00105697
0.00120372
0.00141461
0.00167703
0.00197185
0.00227208
0.00255693
0.00281573
0.00303499
0.00321203
0.00335763
0.00345442
0.00350948
0.00354
0.00354611
0.00353207
0.00350456
0.00346762
0.00342775
0.00338894
0.00335581
0.00333273
0.0033215
0.00332331
0.00333901
0.00336891
0.00341171
0.0034655
0.00352891
0.00360001
0.00367644
0.0037555
0.00383462
0.00391109
0.00398234
0.00404563
0.0040982
0.00413737
0.00416052
0.00416565
0.00415068
0.00411409
0.00405421
0.00397094
0.00386386
0.00373363
0.00358096
0.00340786
0.00321699
0.00301316
0.00280309
0.00259684
0.00241024
0.00226226
0.00216557
0.00212904
0.00215034
0.00221758
0.00231387
0.00133134
0.00120308
0.00114723
0.0011656
0.00125887
0.0014253
0.00165789
0.00194072
0.0022514
0.00256569
0.00286034
0.00312064
0.00334219
0.00351928
0.00365676
0.00377082
0.00384661
0.00389768
0.00394071
0.00397873
0.00402213
0.00406902
0.00411855
0.0041706
0.00422685
0.00428842
0.00435768
0.00443684
0.00452576
0.00462324
0.00472862
0.00484033
0.00495626
0.00507377
0.00519018
0.00530263
0.0054081
0.00550333
0.00558491
0.00564952
0.005694
0.00571579
0.00571237
0.00568176
0.00562133
0.0055304
0.00540776
0.00525359
0.0050681
0.00485261
0.00460923
0.00434225
0.00405734
0.00376302
0.00347263
0.00320771
0.00299231
0.00284877
0.00278828
0.00280502
0.00287861
0.00199447
0.00171106
0.00150259
0.00137304
0.00132381
0.00135486
0.0014646
0.00164806
0.00189501
0.00218796
0.00250319
0.00281639
0.00310915
0.00336695
0.00358529
0.00376767
0.00391566
0.00403722
0.00414987
0.00424003
0.00434773
0.0044668
0.0045972
0.00473748
0.00488747
0.00504334
0.00520216
0.00536232
0.00552578
0.00569154
0.00585913
0.00602676
0.00619292
0.00635613
0.00651428
0.00666521
0.00680612
0.00693355
0.00704361
0.00713254
0.00719765
0.00723528
0.00724321
0.00721937
0.00716054
0.00706473
0.00693109
0.00675793
0.00654616
0.0062959
0.00600936
0.00568919
0.00533959
0.00496756
0.00458232
0.00420343
0.00386324
0.00359849
0.00343764
0.0033879
0.00342818
0.00293046
0.0025086
0.00214899
0.00186102
0.00165436
0.00153212
0.00149511
0.00154061
0.00166466
0.00185989
0.00211287
0.00240657
0.00272158
0.0030366
0.00333371
0.00360638
0.00384061
0.00403709
0.00419912
0.00433604
0.00450242
0.00466278
0.00483709
0.00503244
0.00525493
0.00549787
0.00575547
0.00601877
0.00628068
0.00653887
0.00679172
0.00703505
0.00726507
0.0074851
0.00769176
0.00788593
0.00806563
0.0082274
0.00836676
0.008479
0.00856548
0.00861707
0.0086363
0.00861886
0.00856395
0.00846482
0.00832535
0.00813528
0.00790344
0.00762354
0.00730347
0.00693963
0.00653552
0.00610034
0.00563659
0.0051595
0.00470855
0.00433406
0.00407632
0.00396031
0.00396304
0.00472703
0.0173867
0.0175906
0.00193269
0.00485136
0.00710402
0.00124961
0.00588947
0.00129071
0.00336124
0.010477
0.0152174
0.00124959
0.0132608
0.00666652
0.0200238
0.00126379
0.00633524
0.00988088
0.00125092
0.00195182
0.0131932
0.0173294
0.00127803
0.00128034
0.00486434
0.00125113
0.00290661
0.0012602
0.00131939
0.00699159
0.00126889
0.00274054
0.0091896
0.0142195
0.00915644
0.0079613
0.0146305
0.00124687
0.0131304
0.00485027
0.0120016
0.00124678
0.0197676
0.00526659
0.00997903
0.00134844
0.00240168
0.00124093
0.0154329
0.0102384
0.0146108
0.00124032
0.00144267
0.00198756
0.000188247
0.00131672
0.00443471
0.00880309
0.016785
0.0039085
0.00135823
0.00130156
0.00365251
0.0180318
0.00804111
0.00908008
0.0042782
0.00148634
0.00124253
0.0138477
0.015056
0.00464585
0.000639022
0.00272537
0.0183191
0.0174965
0.0180927
0.00123862
0.0146854
0.00194395
0.0125068
0.00082122
0.0197281
0.00124255
0.0124641
0.00128633
0.0119503
0.00181621
0.00159419
0.00558368
0.00123761
0.00138335
0.0162218
0.0182059
0.00134467
0.011009
0.00438658
0.0017831
0.018679
0.00429359
0.0172608
0.0088532
0.00123645
0.00124178
0.00123851
0.00615702
0.00671066
0.00126454
0.0189498
0.0184232
0.00166107
0.00789211
0.00775834
0.00518719
0.0125389
0.0101526
0.00140686
0.00595676
0.00142864
0.00116637
0.00557329
0.00154261
0.0167383
0.0123467
0.00311575
0.00124622
0.01371
0.0140702
0.00124636
0.0035155
0.0037352
0.00279748
0.00155324
0.0133657
0.00124567
0.00124176
0.0129019
0.0150003
0.00125327
0.00318731
0.0186013
0.00438112
0.00912311
0.00826075
0.0171364
0.000437751
0.00889067
0.00250826
0.0156513
0.0124724
0.000198204
0.0151277
0.0196609
0.0184131
0.00128929
0.0012708
0.00826468
0.00123974
0.00823662
0.000740454
0.00162466
0.00124352
0.00124741
0.00124292
0.0185951
0.00402229
0.00634673
0.00128737
0.0140285
0.0065251
0.00219943
0.0129464
0.00255192
0.00788474
0.0060653
0.0114603
0.00126043
0.00171559
0.00383118
0.0123786
0.0121997
0.0167261
0.00124786
0.00133002
0.00889291
0.00394413
0.0117382
0.00124468
0.00134812
0.00576662
0.00129885
0.0155644
0.0109288
0.00123557
0.00867274
0.00316356
0.0173253
0.00151781
0.00630942
0.00124763
0.00125368
0.0207274
0.0165376
0.0151646
0.00152616
0.00129632
0.00185704
0.0163915
0.00564536
0.0113168
0.017186
0.0156696
0.0183694
0.00391046
0.0203562
0.0184759
0.0118266
0.0159682
0.0122979
0.00149661
0.00421021
0.00125154
0.00126051
0.0105407
0.00296747
0.00311541
0.00149429
0.00247703
0.0152743
0.0100338
0.00289921
0.0175505
0.0143337
0.0047123
0.001245
0.00419488
0.0189317
0.0136882
0.00145269
0.00994905
0.0033226
0.00328537
0.00253251
0.0173144
0.00760923
0.00404764
0.0200005
0.00139036
0.0012412
0.00142805
0.00232302
0.00961734
0.00130165
0.00152739
0.00124583
0.00795394
0.019702
0.0184321
0.0136891
0.0123227
0.0166572
0.0155055
0.00149057
0.00802777
0.0182863
0.00124609
0.00451096
0.00124265
0.00435786
0.00789122
0.00444276
0.00165811
0.00124631
0.0164334
0.00289955
0.00124292
0.00125575
0.0012589
0.00126186
0.00989095
0.00641821
0.0189143
0.00182805
0.00124287
0.00124398
0.00123696
0.0201925
0.003806
0.00151128
0.0130786
0.00598506
0.00159104
0.00123734
0.00814555
0.00124266
0.00211771
0.00392678
0.00707714
0.00257521
0.00141283
0.00174029
0.017736
0.00496072
0.00254718
0.0154838
0.00131766
0.00124335
0.0012455
0.019985
0.00127594
0.0153357
0.00124531
0.0126649
0.0107608
0.00273775
0.00564134
0.00572793
0.00154988
0.0132912
0.0126111
0.00264708
0.0216593
0.0108846
0.0150958
0.0139334
0.0196407
0.0081761
0.0197884
0.00457913
0.00666268
0.0152803
0.0169012
0.0128922
0.0121857
0.00139991
0.0156371
0.00556045
0.0185801
0.00364021
0.00133519
0.00124655
0.00130022
0.00397088
0.0103163
0.00713913
0.00615347
0.00124912
0.0188465
0.00124612
0.00725868
0.0148804
0.0191882
0.0145854
0.016914
0.00166413
0.00147842
0.00153523
0.00865531
0.00220216
0.0060275
0.00921739
0.0105222
0.0193806
0.0173114
0.0155712
0.00131769
0.0168583
0.0181609
0.00274644
0.0012545
0.0180226
0.0186127
0.00127937
0.0115292
0.0012555
0.0101029
0.0168293
0.0112356
0.0201973
0.00519308
0.0191857
0.00127605
0.019412
0.00139341
0.0171762
0.0186952
0.0116093
0.0169911
0.0129922
0.00835807
0.0107609
0.00147625
0.00369827
0.00128913
0.00206142
0.00127935
0.00689679
0.00138659
0.019457
0.00124325
0.00125605
0.00176835
0.00956727
0.0051271
0.0145906
0.00149913
0.0202006
0.0078236
0.0175336
0.00601043
0.0170639
0.00996729
0.00129901
0.0170922
0.0187447
0.00125056
0.0186233
0.0154685
0.00123918
0.0012417
0.00872072
0.00184082
0.0122638
0.00151898
0.00695105
0.00366911
0.0099574
0.0163736
0.0182938
0.0166312
0.0170324
0.0178049
0.00139911
0.00128908
0.00893011
0.0108282
0.015179
0.0107019
0.0174361
0.00455113
0.018791
0.018747
0.00687655
0.00284515
0.0161158
0.0154784
0.00131935
0.01919
0.0137743
0.00145042
0.0190538
0.0171926
0.016132
0.00343968
0.00461538
0.0127251
0.0016659
0.0153248
0.00154373
0.00315179
0.00125195
0.0117738
0.00277314
0.00865452
0.00157366
0.00136597
0.00914471
0.00870912
0.00187945
0.00271454
0.0103439
0.00273381
0.00131133
0.0166072
0.00902391
0.0134215
0.00781417
0.00346416
0.0119483
0.0176014
0.0191171
0.0064302
0.0123413
0.0162401
0.00605132
0.0144539
0.0194537
0.000392996
0.00597635
0.0124864
0.00129723
0.00309008
0.00806114
0.0124869
0.00279253
0.021582
0.00412155
0.0109919
0.00619587
0.00168405
0.00124494
0.00130111