/*--------------------------------*- C++ -*----------------------------------*\
| =========                 |                                                 |
| \\      /  F ield         | OpenFOAM: The Open Source CFD Toolbox           |
|  \\    /   O peration     | Version:  2.3.1                                 |
|   \\  /    A nd           | Web:      www.OpenFOAM.org                      |
|    \\/     M anipulation  |                                                 |
\*---------------------------------------------------------------------------*/
FoamFile
{
    version     2.0;
    format      ascii;
    class       surfaceScalarField;
    location    "0.52";
    object      phi;
}
// * * * * * * * * * * * * * * * * * * * * * * * * * * * * * * * * * * * * * //

dimensions      [0 3 -1 0 0 0 0];

internalField   nonuniform List<scalar> 
15416
(
-0.000713965
-7.36407e-06
0.000717013
-0.000709309
-4.63942e-06
-0.000706579
-2.72459e-06
-0.000705061
-1.5161e-06
-0.000704795
-2.63679e-07
-0.000706054
1.26194e-06
-0.000709536
3.48442e-06
-0.000715609
6.0759e-06
-0.000724399
8.79152e-06
-0.000736264
1.18668e-05
-0.000751627
1.53642e-05
-0.000770707
1.90821e-05
-0.000793637
2.29323e-05
-0.000820491
2.68618e-05
-0.00085136
3.08802e-05
-0.000886162
3.48168e-05
-0.000924712
3.85629e-05
-0.000966799
4.2095e-05
-0.00101227
4.54702e-05
-0.00106078
4.85107e-05
-0.00111207
5.12839e-05
-0.00116589
5.38128e-05
-0.00122187
5.59918e-05
-0.00127966
5.78119e-05
-0.001339
5.93766e-05
-0.00139964
6.06782e-05
-0.00146129
6.1697e-05
-0.00152365
6.23799e-05
-0.00158653
6.28681e-05
-0.00164973
6.31753e-05
-0.00171296
6.31801e-05
-0.00177599
6.30005e-05
-0.00183872
6.27e-05
-0.00190091
6.21868e-05
-0.00196239
6.14719e-05
-0.0020231
6.07076e-05
-0.00208294
5.98349e-05
-0.00214173
5.87743e-05
-0.00219924
5.75029e-05
-0.00225545
5.62111e-05
-0.00231037
5.49067e-05
-0.00236379
5.34257e-05
-0.00241562
5.18247e-05
-0.00246589
5.02721e-05
-0.00251433
4.84395e-05
-0.00256092
4.65845e-05
-0.00260577
4.48393e-05
-0.00264888
4.3101e-05
-0.00269007
4.11746e-05
-0.00272925
3.91687e-05
-0.00276642
3.71554e-05
-0.00280174
3.53084e-05
-0.00283472
3.29645e-05
-0.00286581
3.10801e-05
-0.00289481
2.89877e-05
-0.00292208
2.72583e-05
-0.00294666
2.45793e-05
-0.00296899
2.23245e-05
-0.00298941
2.04272e-05
-0.00300811
1.86921e-05
1.69902e-05
-0.0030251
-0.000415274
-5.81752e-06
0.000413752
-0.000417349
-2.55957e-06
-0.000421492
1.4202e-06
-0.000428453
5.44748e-06
-0.000439791
1.10774e-05
-0.000454817
1.62929e-05
-0.000473789
2.24613e-05
-0.000496446
2.87372e-05
-0.000523554
3.59028e-05
-0.000554639
4.29543e-05
-0.000589889
5.0617e-05
-0.000629156
5.83531e-05
-0.000672332
6.61152e-05
-0.00071929
7.38278e-05
-0.00076973
8.13303e-05
-0.000823514
8.86173e-05
-0.000880383
9.54445e-05
-0.00094012
0.000101834
-0.00100236
0.000107707
-0.00106689
0.000113037
-0.00113348
0.000117891
-0.00120173
0.000122067
-0.00127142
0.000125718
-0.00134236
0.000128774
-0.00141422
0.000131259
-0.00148674
0.000133257
-0.00155962
0.0001346
-0.00163279
0.000135601
-0.00170598
0.000136046
-0.00177886
0.000135995
-0.00185143
0.000135675
-0.0019235
0.000134975
-0.00199466
0.000133831
-0.0020649
0.00013242
-0.00213424
0.000130821
-0.00220228
0.000128778
-0.00226907
0.000126643
-0.00233445
0.000124193
-0.00239844
0.000121504
-0.00246081
0.000118596
-0.00252126
0.000115372
-0.00258008
0.000112254
-0.00263707
0.000108827
-0.00269198
0.000105179
-0.00274496
0.00010143
-0.00279584
9.74674e-05
-0.00284468
9.36896e-05
-0.00289107
8.9489e-05
-0.00293536
8.54751e-05
-0.00297753
8.13383e-05
-0.00301756
7.71778e-05
-0.00305575
7.34996e-05
-0.00309048
6.76928e-05
-0.00312453
6.51222e-05
-0.00315476
5.92172e-05
-0.00318346
5.59483e-05
-0.0032078
4.8921e-05
-0.00323198
4.65047e-05
-0.00325389
4.23313e-05
-0.00327363
3.84335e-05
3.23924e-05
-0.00328903
-0.00027336
2.92816e-06
0.00026461
-0.000284665
8.73567e-06
-0.000299363
1.61135e-05
-0.000318291
2.43754e-05
-0.000340646
3.34343e-05
-0.000367463
4.31146e-05
-0.000398327
5.33292e-05
-0.00043355
6.39645e-05
-0.000473067
7.54226e-05
-0.000516992
8.68806e-05
-0.000565049
9.86759e-05
-0.000616853
0.000110163
-0.000672532
0.000121803
-0.0007317
0.000133007
-0.000794154
0.000143798
-0.000859613
0.000154086
-0.000927855
0.00016369
-0.000998591
0.000172571
-0.00107149
0.0001806
-0.00114638
0.000187931
-0.00122282
0.000194337
-0.00130072
0.000200017
-0.0013798
0.000204862
-0.0014598
0.000208841
-0.00154041
0.000211919
-0.00162138
0.000214227
-0.00170255
0.000215773
-0.00178369
0.000216659
-0.00186453
0.000216782
-0.00194512
0.000216507
-0.00202498
0.000215466
-0.00210386
0.000213879
-0.00218196
0.00021198
-0.00225886
0.000209368
-0.00233447
0.000206473
-0.00240877
0.000203094
-0.00248157
0.000199456
-0.00255273
0.000195341
-0.00262219
0.000190968
-0.00268985
0.000186257
-0.00275574
0.000181274
-0.00281931
0.000175836
-0.00288094
0.000170465
-0.00294037
0.000164628
-0.00299762
0.00015868
-0.00305268
0.000152543
-0.00310533
0.000146342
-0.00315567
0.000139837
-0.00320345
0.000133255
-0.00324944
0.000127325
-0.00329172
0.000119459
-0.00333141
0.000113185
-0.00336947
0.000105752
-0.00340524
0.000100879
-0.00343886
9.28272e-05
-0.00346819
8.52755e-05
-0.00349738
7.81036e-05
-0.00352225
7.13679e-05
-0.0035449
6.49719e-05
-0.00356329
5.68146e-05
5.06778e-05
-0.00358158
-0.000204471
1.89736e-05
0.000188401
-0.000224398
2.86516e-05
-0.000248063
3.9773e-05
-0.000275666
5.1976e-05
-0.000307417
6.51864e-05
-0.000343524
7.92257e-05
-0.000383947
9.37567e-05
-0.000429097
0.000109117
-0.000478552
0.000124877
-0.000532427
0.000140758
-0.000590284
0.000156539
-0.000652318
0.000172206
-0.000718095
0.000187591
-0.000787195
0.000202115
-0.000859557
0.000216166
-0.000934823
0.000229357
-0.0010127
0.000241567
-0.00109287
0.000252732
-0.00117512
0.000262833
-0.00125901
0.000271831
-0.00134453
0.000279915
-0.0014312
0.000286782
-0.00151893
0.000292699
-0.00160742
0.000297364
-0.00169645
0.000300907
-0.00178558
0.000303293
-0.00187474
0.000304777
-0.00196373
0.000305535
-0.00205243
0.000305353
-0.00214032
0.000304317
-0.00222743
0.000302642
-0.00231364
0.000300181
-0.0023984
0.000296934
-0.00248201
0.000293123
-0.00256427
0.000288815
-0.00264504
0.000283872
-0.00272396
0.000278346
-0.00280119
0.000272547
-0.00287649
0.000266246
-0.00294991
0.00025966
-0.00302101
0.000252366
-0.00309016
0.000244997
-0.00315672
0.000237042
-0.00322106
0.000228975
-0.00328288
0.00022052
-0.0033422
0.000211869
-0.00339895
0.000203106
-0.00345344
0.000194336
-0.00350457
0.000184389
-0.00355316
0.000175917
-0.00360033
0.00016664
-0.00364341
0.000156264
-0.00368427
0.000146611
-0.003721
0.000137612
-0.00375737
0.000129205
-0.00378961
0.000117515
-0.00381959
0.000108085
-0.00384733
9.91125e-05
-0.00387088
8.85244e-05
-0.0038922
7.81266e-05
6.78047e-05
-0.00390933
-0.000172618
4.1981e-05
0.000149602
-0.000199302
5.53312e-05
-0.000230163
7.06277e-05
-0.000265393
8.72037e-05
-0.000305098
0.000104893
-0.000349547
0.000123679
-0.000398972
0.000143184
-0.000452863
0.000163008
-0.000511498
0.000183512
-0.000574505
0.000203767
-0.000641931
0.000223974
-0.000713473
0.00024376
-0.000788598
0.000262723
-0.000867351
0.00028087
-0.000949515
0.000298332
-0.00103406
0.000313907
-0.00112131
0.000328802
-0.0012108
0.000342208
-0.00130215
0.000354175
-0.00139519
0.000364915
-0.00148959
0.000374409
-0.00158524
0.000382568
-0.00168179
0.000389309
-0.00177898
0.000394505
-0.00187637
0.000398176
-0.00197404
0.00040074
-0.00207141
0.000402054
-0.00216841
0.000402385
-0.00226484
0.000401735
-0.00236051
0.000400082
-0.00245518
0.000397385
-0.00254851
0.000393766
-0.00264061
0.000389201
-0.00273135
0.000383962
-0.0028204
0.000377883
-0.0029077
0.000371121
-0.00299337
0.000363971
-0.00307688
0.000355988
-0.00315825
0.000347591
-0.00323728
0.000338665
-0.00331425
0.000329318
-0.00338863
0.000319386
-0.0034606
0.000309023
-0.00352991
0.000298302
-0.00359655
0.000287167
-0.00366113
0.000276466
-0.00372094
0.000262926
-0.00377869
0.000252089
-0.00383477
0.00024047
-0.00388688
0.00022803
-0.00393669
0.000216452
-0.00398429
0.000203875
-0.00402792
0.000190244
-0.00406929
0.000178989
-0.00410466
0.000164589
-0.00413959
0.000152451
-0.00417229
0.000140792
-0.0042008
0.000127638
-0.00422517
0.000112898
-0.00424928
0.000102244
8.77578e-05
-0.00426923
-0.0001591
7.13071e-05
0.00012977
-0.000192711
8.89387e-05
-0.000230704
0.000108618
-0.000273754
0.000130252
-0.000321825
0.000152967
-0.00037479
0.000176646
-0.000432723
0.000201119
-0.000495846
0.000226126
-0.000563641
0.000251305
-0.000636378
0.00027651
-0.000713535
0.000301142
-0.000794667
0.000324905
-0.000879807
0.000347865
-0.000968155
0.000369213
-0.0010595
0.000389673
-0.00115386
0.000408281
-0.00125075
0.000425688
-0.00134998
0.000441417
-0.00145085
0.000455061
-0.00155322
0.000467374
-0.00165702
0.000478372
-0.00176175
0.000487399
-0.00186747
0.00049501
-0.0019738
0.000500569
-0.00208039
0.000504424
-0.00218667
0.000506896
-0.00229268
0.000507977
-0.00239792
0.000507954
-0.00250246
0.000506537
-0.00260609
0.000503976
-0.00270854
0.000500124
-0.00280965
0.000494804
-0.00290936
0.000488841
-0.00300756
0.000481915
-0.0031039
0.000473927
-0.00319837
0.000465392
-0.0032906
0.000456076
-0.00338059
0.000445982
-0.00346837
0.000435374
-0.00355385
0.00042417
-0.00363654
0.00041202
-0.00371671
0.000399565
-0.00379402
0.000386341
-0.00386806
0.00037235
-0.00393955
0.000358663
-0.00400836
0.000345288
-0.00407512
0.000329694
-0.00413784
0.000314811
-0.00419658
0.000299214
-0.00425305
0.000284503
-0.00430554
0.000268938
-0.00435393
0.000252277
-0.00440188
0.000238191
-0.00444402
0.000221134
-0.00448574
0.000206318
-0.00452335
0.000190062
-0.00455482
0.000172261
-0.004584
0.000156826
-0.00461298
0.000141886
-0.00463592
0.000125188
0.00010851
-0.00465666
-0.000158707
0.000106843
0.000123168
-0.000199353
0.000129585
-0.000245149
0.000154413
-0.000296484
0.000181588
-0.00035297
0.000209455
-0.000415084
0.000238764
-0.000482501
0.000268531
-0.000554998
0.000298621
-0.00063285
0.000329159
-0.000715165
0.000358829
-0.000802361
0.000388359
-0.000893865
0.00041642
-0.000988949
0.000442939
-0.00108737
0.000467622
-0.00118939
0.000491709
-0.00129412
0.000513027
-0.001401
0.000532568
-0.00151021
0.000550618
-0.00162104
0.00056592
-0.00173346
0.000579937
-0.00184706
0.000592135
-0.00196162
0.000602016
-0.0020773
0.000610291
-0.00219338
0.000616152
-0.00230936
0.000620063
-0.00242503
0.000622502
-0.00253954
0.000623219
-0.00265365
0.000622582
-0.00276677
0.000620356
-0.00287865
0.000616244
-0.00298969
0.000610961
-0.00309915
0.000604073
-0.00320679
0.000595885
-0.00331281
0.000587391
-0.00341692
0.000577705
-0.00351858
0.000566824
-0.00361792
0.00055544
-0.00371466
0.000542812
-0.00380883
0.000529685
-0.00390045
0.000515839
-0.0039895
0.000501085
-0.00407494
0.000485014
-0.00415808
0.000469477
-0.00423804
0.000452313
-0.00431523
0.000435847
-0.0043884
0.000418466
-0.00445766
0.00039896
-0.00452451
0.000381661
-0.00458905
0.000363759
-0.00464784
0.000343294
-0.00470437
0.000325474
-0.00475863
0.000306536
-0.00480712
0.000286677
-0.00485352
0.000267524
-0.00489588
0.00024868
-0.00493403
0.000228201
-0.00497169
0.000209912
-0.00500326
0.000188387
-0.00503087
0.000169493
-0.00505452
0.000148835
0.000129952
-0.00507596
-0.000168939
0.000148751
0.000127034
-0.000216961
0.000177608
-0.000270771
0.000208223
-0.000331203
0.000242022
-0.000397201
0.000275455
-0.000468833
0.000310396
-0.000546274
0.000345974
-0.000628585
0.000380923
-0.000716867
0.000417435
-0.000809724
0.000451703
-0.000908116
0.000486767
-0.00101015
0.000518456
-0.00111686
0.00054963
-0.00122588
0.000576631
-0.00133827
0.000604117
-0.00145421
0.000628991
-0.00157211
0.000650451
-0.0016921
0.000670573
-0.00181415
0.000688043
-0.00193647
0.000702419
-0.00206082
0.00071661
-0.00218566
0.000726559
-0.00231214
0.000736232
-0.00243883
0.000742232
-0.00256471
0.000745717
-0.00269011
0.000748541
-0.00281391
0.000747705
-0.0029369
0.000746636
-0.00305935
0.00074318
-0.00318015
0.000736708
-0.00330052
0.000730804
-0.00341937
0.000722105
-0.00353534
0.000711538
-0.00364947
0.00070157
-0.00376175
0.000690119
-0.00387058
0.000675809
-0.00397702
0.000662302
-0.00408067
0.000646931
-0.00418109
0.000630241
-0.00427931
0.000614057
-0.00437508
0.000596808
-0.00446795
0.000577833
-0.00455513
0.000556642
-0.00464155
0.00053872
-0.00472291
0.000517214
-0.00479986
0.000495422
-0.00487647
0.000475583
-0.00494678
0.000451977
-0.00501351
0.000430503
-0.00507741
0.000407192
-0.00513618
0.000384252
-0.00519228
0.000362642
-0.00524442
0.000338813
-0.00529484
0.000317934
-0.00533966
0.000293493
-0.00538174
0.000270272
-0.00541785
0.000246008
-0.00544929
0.000219816
-0.00547905
0.000199242
-0.0055053
0.000175081
0.000151797
-0.00552716
-0.000187625
0.000140188
0.000196188
-0.00024424
0.00023422
-0.000305313
0.000269295
-0.000376293
0.000313
-0.000451654
0.000350813
-0.000533815
0.000392558
-0.000622111
0.00043426
-0.000713692
0.000472493
-0.000814867
0.000518611
-0.000917169
0.000554025
-0.00102915
0.000598762
-0.00114122
0.000630515
-0.00126287
0.000671254
-0.00138057
0.000694313
-0.00150562
0.000729234
-0.00163427
0.000757668
-0.00176189
0.000778009
-0.00189528
0.00080393
-0.00202861
0.000821428
-0.00216114
0.0008351
-0.00230029
0.000855763
-0.0024339
0.000859689
-0.00257293
0.000874532
-0.00271119
0.000879931
-0.00284678
0.000881823
-0.00298458
0.000887144
-0.00311658
0.000880842
-0.00325007
0.000880813
-0.00338376
0.000876684
-0.00351276
0.000864687
-0.00364425
0.000860989
-0.00377259
0.000849824
-0.00389676
0.000836219
-0.00401911
0.00082531
-0.0041415
0.000813667
-0.0042555
0.000790859
-0.00437077
0.000778462
-0.00448162
0.000758248
-0.00458795
0.000736671
-0.00469497
0.000720869
-0.00479398
0.000695527
-0.00489366
0.000677378
-0.00498724
0.000650208
-0.00507746
0.000628947
-0.00516669
0.000606465
-0.00524843
0.000577186
-0.00532893
0.000556107
-0.00540239
0.00052545
-0.00547382
0.000501946
-0.00553911
0.000472481
-0.00560433
0.000449486
-0.00566253
0.000420842
-0.00571761
0.000393891
-0.00576883
0.000369159
-0.00581772
0.000342382
-0.00585874
0.000311292
-0.00589822
0.000285496
-0.00593124
0.000252838
-0.00596167
0.000229664
-0.00598864
0.000202045
-0.00600998
0.000173131
-0.0030385
1.34094e-05
-0.00305011
1.16106e-05
-0.00306004
9.92799e-06
-0.00306809
8.05814e-06
-0.0030739
5.8125e-06
-0.0030771
3.20445e-06
-0.00307856
1.46071e-06
-0.00307794
-6.21869e-07
-0.00307533
-2.60408e-06
-0.00307031
-5.0198e-06
-0.00306341
-6.89692e-06
-0.00305448
-8.92462e-06
-0.0030435
-1.0969e-05
-0.00303046
-1.30258e-05
-0.00301567
-1.47764e-05
-0.00299905
-1.66114e-05
-0.00298041
-1.86271e-05
-0.00295973
-2.06652e-05
-0.00293736
-2.23604e-05
-0.00291311
-2.42324e-05
-0.00288708
-2.60187e-05
-0.00285943
-2.76365e-05
-0.00283004
-2.9376e-05
-0.00279883
-3.12043e-05
-0.00276598
-3.28383e-05
-0.00273175
-3.42149e-05
-0.00269586
-3.58851e-05
-0.0026583
-3.75442e-05
-0.00261921
-3.90797e-05
-0.00257874
-4.04567e-05
-0.00253679
-4.19439e-05
-0.0024934
-4.3387e-05
-0.00244876
-4.46314e-05
-0.0024028
-4.59434e-05
-0.00235553
-4.72703e-05
-0.00230709
-4.84293e-05
-0.00225756
-4.95219e-05
-0.00220691
-5.06479e-05
-0.00215505
-5.18479e-05
-0.00210216
-5.28839e-05
-0.00204838
-5.37794e-05
-0.00199366
-5.47145e-05
-0.00193802
-5.56363e-05
-0.00188163
-5.639e-05
-0.00182433
-5.72899e-05
-0.00176622
-5.81035e-05
-0.00170748
-5.87379e-05
-0.00164819
-5.92875e-05
-0.00158823
-5.99582e-05
-0.0015277
-6.05286e-05
-0.00146672
-6.09801e-05
-0.0014054
-6.13176e-05
-0.00134356
-6.18396e-05
-0.00128149
-6.20656e-05
-0.00121919
-6.23063e-05
-0.00115685
-6.2335e-05
-0.00109422
-6.26298e-05
-0.00103153
-6.26874e-05
-0.000968965
-6.25651e-05
-0.000906598
-6.23667e-05
-6.21301e-05
-0.000844467
-0.00330429
2.86688e-05
-0.003315
2.23198e-05
-0.00332371
1.86349e-05
-0.0033302
1.45541e-05
-0.00333658
1.21902e-05
-0.00333878
5.41122e-06
-0.00333943
2.11443e-06
-0.0033363
-3.74471e-06
-0.00333253
-6.37358e-06
-0.00332518
-1.23602e-05
-0.00331602
-1.60595e-05
-0.00330455
-2.03871e-05
-0.00329106
-2.44555e-05
-0.0032757
-2.8382e-05
-0.00325789
-3.25887e-05
-0.00323804
-3.64586e-05
-0.00321608
-4.05962e-05
-0.00319217
-4.45759e-05
-0.00316603
-4.84907e-05
-0.00313798
-5.22886e-05
-0.00310816
-5.58352e-05
-0.00307615
-5.96495e-05
-0.00304222
-6.33004e-05
-0.00300655
-6.68738e-05
-0.00296905
-7.03386e-05
-0.0029297
-7.35631e-05
-0.00288855
-7.70255e-05
-0.00284592
-8.0179e-05
-0.00280161
-8.33837e-05
-0.00275548
-8.65861e-05
-0.00270792
-8.95002e-05
-0.00265898
-9.23282e-05
-0.00260837
-9.52435e-05
-0.00255633
-9.79821e-05
-0.00250306
-0.000100533
-0.00244831
-0.000103182
-0.00239227
-0.000105559
-0.00233498
-0.000107938
-0.00227658
-0.000110239
-0.00221702
-0.000112447
-0.00215616
-0.000114636
-0.00209439
-0.000116479
-0.00203166
-0.000118364
-0.00196786
-0.000120189
-0.00190323
-0.000121917
-0.00183773
-0.00012361
-0.00177146
-0.000125004
-0.00170426
-0.000126479
-0.00163649
-0.000127727
-0.00156812
-0.000128895
-0.00149918
-0.000129921
-0.00142988
-0.000130616
-0.0013596
-0.000132118
-0.00128957
-0.000132097
-0.0012186
-0.000133274
-0.00114764
-0.000133286
-0.00107588
-0.000134394
-0.00100473
-0.000133833
-0.00093353
-0.000133763
-0.000862344
-0.00013355
-0.000133748
-0.000790724
-0.00359555
4.26322e-05
-0.00360962
3.63844e-05
-0.00361925
2.82597e-05
-0.00362662
2.19199e-05
-0.00362971
1.52835e-05
-0.00363296
8.65979e-06
-0.00363179
9.39464e-07
-0.0036286
-6.92869e-06
-0.00362309
-1.18788e-05
-0.00361592
-1.95228e-05
-0.0036063
-2.56847e-05
-0.00359295
-3.3736e-05
-0.00357787
-3.95296e-05
-0.0035602
-4.60611e-05
-0.00354022
-5.25677e-05
-0.00351785
-5.8837e-05
-0.00349332
-6.51346e-05
-0.00346659
-7.13113e-05
-0.00343761
-7.74773e-05
-0.00340667
-8.32286e-05
-0.00337325
-8.9267e-05
-0.00333792
-9.49816e-05
-0.00330056
-0.000100662
-0.00326121
-0.000106229
-0.00321981
-0.00011174
-0.0031764
-0.000116972
-0.00313118
-0.000122247
-0.00308406
-0.000127298
-0.003035
-0.000132455
-0.0029845
-0.000137087
-0.00293212
-0.000141876
-0.00287796
-0.000146496
-0.0028225
-0.000150701
-0.00276536
-0.000155133
-0.00270666
-0.000159233
-0.00264655
-0.000163288
-0.00258499
-0.000167119
-0.00252202
-0.000170916
-0.00245776
-0.000174498
-0.00239227
-0.000177941
-0.0023257
-0.000181202
-0.00225774
-0.000184444
-0.00218883
-0.000187272
-0.00211884
-0.000190176
-0.0020479
-0.000192858
-0.00197608
-0.000195432
-0.00190333
-0.000197758
-0.00182977
-0.000200035
-0.00175538
-0.00020211
-0.00168064
-0.000203634
-0.00160462
-0.000205947
-0.001528
-0.00020723
-0.00145125
-0.000208866
-0.00137413
-0.000209213
-0.00129673
-0.000210673
-0.00121842
-0.000211602
-0.00114069
-0.000212114
-0.00106227
-0.000212253
-0.000983884
-0.00021215
-0.000905078
-0.000212354
-0.000211898
-0.000826926
-0.0039262
5.95072e-05
-0.00393898
4.91629e-05
-0.0039495
3.87719e-05
-0.00395577
2.81866e-05
-0.00395987
1.93811e-05
-0.00396153
1.03143e-05
-0.00395886
-1.73654e-06
-0.00395627
-9.52267e-06
-0.00394967
-1.84766e-05
-0.00394103
-2.81675e-05
-0.00392814
-3.85712e-05
-0.00391408
-4.78011e-05
-0.00389751
-5.61015e-05
-0.00387753
-6.60396e-05
-0.00385537
-7.47273e-05
-0.00383067
-8.35295e-05
-0.00380349
-9.23177e-05
-0.00377378
-0.000101016
-0.00374186
-0.000109398
-0.00370728
-0.000117818
-0.00367076
-0.000125788
-0.00363173
-0.000134013
-0.00359063
-0.000141771
-0.00354731
-0.000149552
-0.00350197
-0.00015708
-0.00345426
-0.000164682
-0.00340453
-0.000171974
-0.00335288
-0.000178958
-0.00329942
-0.000185912
-0.00324372
-0.000192785
-0.00318634
-0.000199256
-0.00312732
-0.000205518
-0.00306628
-0.000211749
-0.00300371
-0.000217695
-0.00293956
-0.000223388
-0.00287385
-0.000229001
-0.00280639
-0.000234574
-0.00273756
-0.000239747
-0.00266731
-0.000244751
-0.0025958
-0.000249451
-0.00252281
-0.000254196
-0.00244884
-0.000258412
-0.00237348
-0.000262632
-0.00229712
-0.000266538
-0.00221963
-0.000270337
-0.00214111
-0.000273953
-0.00206163
-0.000277236
-0.00198144
-0.000280231
-0.00190006
-0.000283483
-0.00181797
-0.000285727
-0.00173582
-0.000288092
-0.00165236
-0.000290688
-0.00156854
-0.000292685
-0.00148365
-0.0002941
-0.00139925
-0.000295076
-0.00131403
-0.000296818
-0.00122872
-0.000297426
-0.00114345
-0.000297522
-0.00105766
-0.000297931
-0.00097207
-0.000297946
-0.000297776
-0.00088619
-0.00428497
7.52529e-05
-0.00429655
6.07418e-05
-0.0043079
5.01176e-05
-0.00431508
3.53608e-05
-0.00431807
2.23683e-05
-0.00431878
1.10174e-05
-0.00431961
-9.14481e-07
-0.00431394
-1.52031e-05
-0.0043062
-2.62286e-05
-0.00429456
-3.98247e-05
-0.00428084
-5.22921e-05
-0.00426496
-6.3689e-05
-0.00424508
-7.59942e-05
-0.00422373
-8.73839e-05
-0.00420054
-9.79131e-05
-0.00417236
-0.000111712
-0.00414226
-0.00012241
-0.00410951
-0.000133766
-0.00407407
-0.000144826
-0.0040363
-0.000155589
-0.00399589
-0.0001662
-0.00395339
-0.00017652
-0.0039083
-0.000186862
-0.00386079
-0.000197066
-0.00381072
-0.000207154
-0.00375868
-0.000216725
-0.00370436
-0.0002263
-0.00364773
-0.000235594
-0.00358902
-0.000244624
-0.00352838
-0.000253424
-0.00346561
-0.000262029
-0.00340083
-0.000270303
-0.00333431
-0.00027827
-0.00326603
-0.000285973
-0.00319587
-0.000293545
-0.00312391
-0.000300963
-0.00305056
-0.000307927
-0.00297538
-0.000314935
-0.00289864
-0.000321483
-0.00282033
-0.00032777
-0.00274085
-0.000333675
-0.00265994
-0.000339316
-0.00257791
-0.00034467
-0.00249461
-0.000349835
-0.00241018
-0.00035477
-0.00232501
-0.00035912
-0.00223763
-0.00036461
-0.00214979
-0.000368072
-0.00206173
-0.000371541
-0.00197227
-0.000375191
-0.00188233
-0.000378034
-0.00179203
-0.000380982
-0.00170063
-0.000384082
-0.00160893
-0.000385802
-0.00151558
-0.000388421
-0.00142285
-0.000389552
-0.00133007
-0.0003902
-0.00123681
-0.00039078
-0.00114313
-0.000391607
-0.00105025
-0.000390831
-0.000390952
-0.000957068
-0.00467325
9.18429e-05
-0.00468765
7.51542e-05
-0.00469591
5.83841e-05
-0.00470398
4.34328e-05
-0.00470987
2.82571e-05
-0.00470963
1.07848e-05
-0.00470536
-5.18488e-06
-0.00470082
-1.97505e-05
-0.00469034
-3.6716e-05
-0.00467969
-5.04833e-05
-0.00466502
-6.69717e-05
-0.00464636
-8.23552e-05
-0.0046256
-9.67561e-05
-0.00460093
-0.000112062
-0.00457227
-0.000126585
-0.00454171
-0.000142273
-0.00450858
-0.000155544
-0.00447297
-0.000169373
-0.00443405
-0.00018375
-0.00439237
-0.00019726
-0.00434823
-0.000210335
-0.00430119
-0.000223559
-0.00425165
-0.000236401
-0.00419962
-0.000249101
-0.00414513
-0.000261647
-0.00408794
-0.000273918
-0.00402856
-0.000285691
-0.00396669
-0.000297463
-0.00390253
-0.000308791
-0.00383631
-0.000319646
-0.00376774
-0.000330601
-0.00369704
-0.000341014
-0.00362442
-0.00035089
-0.00354997
-0.000360425
-0.00347339
-0.000370128
-0.00339514
-0.000379216
-0.00331484
-0.000388222
-0.00323282
-0.000396961
-0.00314923
-0.000405074
-0.00306411
-0.000412884
-0.00297725
-0.000420539
-0.00288915
-0.000427416
-0.00279968
-0.000434143
-0.00270867
-0.000440848
-0.00261674
-0.000446699
-0.00252366
-0.000452196
-0.00243009
-0.000458183
-0.00233482
-0.000463339
-0.00223828
-0.000468079
-0.00214124
-0.000472231
-0.00204298
-0.000476297
-0.00194367
-0.000480285
-0.00184473
-0.00048302
-0.00174419
-0.000486345
-0.00164398
-0.000488627
-0.00154313
-0.000490401
-0.00144097
-0.00049236
-0.00133917
-0.000492578
-0.00123804
-0.00049274
-0.00113626
-0.000492603
-0.00049246
-0.00103475
-0.00509329
0.00010917
-0.00510842
9.02972e-05
-0.00511948
6.94531e-05
-0.00512643
5.03861e-05
-0.00512733
2.91738e-05
-0.00512814
1.16008e-05
-0.00512482
-8.49233e-06
-0.00511741
-2.71521e-05
-0.00510794
-4.61771e-05
-0.00509271
-6.57166e-05
-0.00507545
-8.42249e-05
-0.005056
-0.000101802
-0.0050307
-0.000122069
-0.00500339
-0.00013938
-0.00497412
-0.000155866
-0.0049409
-0.000175511
-0.00490367
-0.000192796
-0.00486362
-0.000209435
-0.00482041
-0.00022697
-0.00477533
-0.00024234
-0.00472658
-0.000259083
-0.00467532
-0.000274812
-0.00462118
-0.000290535
-0.00456413
-0.000306148
-0.0045043
-0.000321479
-0.00444183
-0.000336393
-0.00437666
-0.000350867
-0.00430922
-0.000364904
-0.00423942
-0.000378597
-0.00416705
-0.000392025
-0.00409222
-0.000405434
-0.00401525
-0.000417978
-0.00393591
-0.000430234
-0.00385477
-0.000441575
-0.00377162
-0.000453282
-0.00368633
-0.000464503
-0.00359904
-0.000475513
-0.00350969
-0.000486317
-0.00341852
-0.000496238
-0.00332557
-0.000505836
-0.00323109
-0.000515024
-0.00313464
-0.00052387
-0.00303739
-0.000531395
-0.00293883
-0.000539402
-0.00283928
-0.000546257
-0.00273771
-0.000553759
-0.00263478
-0.000561112
-0.0025312
-0.000566927
-0.00242737
-0.000571906
-0.00232131
-0.000578288
-0.00221481
-0.000582801
-0.00210813
-0.000586965
-0.00199958
-0.00059157
-0.00189092
-0.000594997
-0.00178114
-0.000598413
-0.00167088
-0.000600656
-0.0015611
-0.000602136
-0.00145065
-0.000603026
-0.00133978
-0.000603614
-0.00122904
-0.000603343
-0.000602972
-0.00111852
-0.0055451
0.000127108
-0.00555872
0.000103914
-0.00556857
7.9297e-05
-0.00557609
5.79072e-05
-0.00557985
3.29326e-05
-0.0055778
9.56516e-06
-0.00557378
-1.25137e-05
-0.0055634
-3.75245e-05
-0.00555103
-5.85437e-05
-0.00553528
-8.1451e-05
-0.00551745
-0.000102045
-0.00549372
-0.000125529
-0.00546764
-0.000148139
-0.00543789
-0.000169136
-0.00540282
-0.000190943
-0.00536712
-0.000211221
-0.00532753
-0.000232393
-0.00528198
-0.000255001
-0.00523599
-0.000272979
-0.00518508
-0.000293258
-0.00513098
-0.000313188
-0.00507493
-0.000330868
-0.0050161
-0.000349365
-0.00495357
-0.00036868
-0.00488813
-0.000386927
-0.00481972
-0.000404796
-0.00474857
-0.000422021
-0.0046748
-0.000438679
-0.00459848
-0.000454924
-0.00451967
-0.000470841
-0.00443796
-0.000487151
-0.00435425
-0.000501692
-0.00426786
-0.00051662
-0.00418011
-0.000529327
-0.00408968
-0.000543717
-0.00399704
-0.000557152
-0.00390228
-0.000570275
-0.00380497
-0.000583628
-0.00370544
-0.000595768
-0.00360441
-0.000606865
-0.00350175
-0.000617686
-0.00339729
-0.000628331
-0.00329064
-0.000638049
-0.00318414
-0.000645902
-0.00307544
-0.000654952
-0.00296452
-0.00066468
-0.00285434
-0.000671297
-0.00274132
-0.000679943
-0.00262807
-0.000685158
-0.00251388
-0.000692476
-0.00239763
-0.000699049
-0.0022816
-0.000702996
-0.00216424
-0.000708933
-0.00204699
-0.000712241
-0.0019273
-0.000718107
-0.00180823
-0.000719723
-0.00168751
-0.00072286
-0.0015675
-0.00072303
-0.00144724
-0.00072387
-0.00132752
-0.000723067
-0.000723415
-0.00120708
-0.00602853
0.000145648
-0.00604191
0.000117273
-0.00605225
8.96081e-05
-0.00605586
6.14989e-05
-0.00605828
3.53315e-05
-0.00605696
8.22978e-06
-0.0060512
-1.8283e-05
-0.00604068
-4.80521e-05
-0.00602502
-7.42079e-05
-0.00600873
-9.77439e-05
-0.00598644
-0.000124337
-0.00596058
-0.000151382
-0.00593238
-0.00017633
-0.00589735
-0.000204147
-0.0058631
-0.000225173
-0.00582162
-0.000252683
-0.00577581
-0.000278195
-0.00572865
-0.000302152
-0.00567492
-0.000326729
-0.00562023
-0.000347969
-0.00556296
-0.000370476
-0.00549998
-0.000393866
-0.00543703
-0.000412336
-0.00536833
-0.00043739
-0.00529606
-0.000459211
-0.0052222
-0.000478649
-0.00514355
-0.000500669
-0.00506393
-0.000518307
-0.00497881
-0.000540046
-0.00489507
-0.000554584
-0.00480393
-0.000578291
-0.00471439
-0.000591238
-0.00461869
-0.000612322
-0.00452524
-0.000622778
-0.00442743
-0.000641531
-0.00432654
-0.000658043
-0.00422496
-0.000671866
-0.00411836
-0.00069023
-0.00400975
-0.00070438
-0.00390163
-0.000714985
-0.00378808
-0.000731239
-0.00367314
-0.000743276
-0.00355946
-0.000751721
-0.00344096
-0.00076441
-0.0033265
-0.000769412
-0.0032042
-0.000786975
-0.00308567
-0.000789828
-0.00296112
-0.000804492
-0.00284072
-0.000805564
-0.00271701
-0.000816188
-0.00259042
-0.000825633
-0.00246694
-0.000826479
-0.00233814
-0.000837727
-0.00221266
-0.000837727
-0.0020802
-0.000850563
-0.00195275
-0.000847172
-0.00181889
-0.00085672
-0.00169271
-0.000849205
-0.00155945
-0.00085713
-0.00143199
-0.000850531
-0.00129795
-0.000857454
-0.000782135
-6.23306e-05
-0.000720156
-6.1978e-05
-0.000658547
-6.16083e-05
-0.000597342
-6.12038e-05
-0.000536598
-6.07427e-05
-0.000476361
-6.02359e-05
-0.000416884
-5.94762e-05
-0.00035821
-5.86729e-05
-0.000300542
-5.76671e-05
-0.000244009
-5.65311e-05
-0.000188567
-5.54401e-05
-0.000132446
-5.61194e-05
-7.45787e-05
-5.78657e-05
-1.55213e-05
-5.90554e-05
4.25727e-05
-5.80919e-05
9.81223e-05
-5.55474e-05
0.000151355
-5.32309e-05
0.000202805
-5.14468e-05
0.000252675
-4.9868e-05
0.000300986
-4.83077e-05
0.000347754
-4.6765e-05
0.00039292
-4.51631e-05
0.000436418
-4.34948e-05
0.000478117
-4.16955e-05
0.000517956
-3.98345e-05
0.000555869
-3.79097e-05
0.000591739
-3.58659e-05
0.000625434
-3.36899e-05
0.000656836
-3.13982e-05
0.000685856
-2.90148e-05
0.000712293
-2.64328e-05
0.000735989
-2.36919e-05
0.000756821
-2.08275e-05
0.000774543
-1.77174e-05
0.000788937
-1.43891e-05
0.000799808
-1.08663e-05
0.000806899
-7.08774e-06
0.000809912
-3.00899e-06
0.000809505
4.1095e-07
0.000805549
3.95939e-06
0.000798161
7.39134e-06
0.000786656
1.15076e-05
0.000770521
1.61365e-05
0.000749328
2.11947e-05
0.000722438
2.68918e-05
0.000689218
3.32202e-05
0.000649045
4.01736e-05
0.000601174
4.78708e-05
0.000544744
5.64293e-05
0.000478985
6.57579e-05
0.00040317
7.58137e-05
0.000316733
8.64356e-05
0.000219077
9.76544e-05
0.000109295
0.00010978
-1.84702e-05
0.000127763
-0.000158483
0.000140011
-0.00028775
0.000129265
-0.000394732
0.00010698
-0.000475732
8.09986e-05
-0.000536386
6.0652e-05
5.10048e-05
-0.000587392
-0.000719726
-0.000133326
-0.000648418
-0.000133283
-0.000577326
-0.000132699
-0.000506486
-0.000132042
-0.000436261
-0.000130966
-0.000366145
-0.000130349
-0.000296561
-0.000129058
-0.000227357
-0.000127874
-0.000158864
-0.000126159
-9.0904e-05
-0.000124489
-2.2665e-05
-0.000123677
4.60071e-05
-0.000124789
0.000113724
-0.000125581
0.000180145
-0.000125474
0.000245805
-0.00012375
0.000310834
-0.000120574
0.000374816
-0.00011721
0.000437501
-0.000114129
0.000498796
-0.000111161
0.000558719
-0.000108228
0.000617275
-0.000105318
0.000674323
-0.000102208
0.000729836
-9.90045e-05
0.000783806
-9.56629e-05
0.000836131
-9.21564e-05
0.00088675
-8.85251e-05
0.00093553
-8.46432e-05
0.000982491
-8.06474e-05
0.00102749
-7.63882e-05
0.00107034
-7.1862e-05
0.00111106