/*--------------------------------*- C++ -*----------------------------------*\
| =========                 |                                                 |
| \\      /  F ield         | OpenFOAM: The Open Source CFD Toolbox           |
|  \\    /   O peration     | Version:  2.3.1                                 |
|   \\  /    A nd           | Web:      www.OpenFOAM.org                      |
|    \\/     M anipulation  |                                                 |
\*---------------------------------------------------------------------------*/
FoamFile
{
    version     2.0;
    format      ascii;
    class       volSymmTensorField;
    location    "3160";
    object      sigma;
}
// * * * * * * * * * * * * * * * * * * * * * * * * * * * * * * * * * * * * * //

dimensions      [1 -1 -2 0 0 0 0];

internalField   nonuniform List<symmTensor> 
11800
(
(135973 71435.3 6.55881e-14 -2658 3.47505e-14 33078.2)
(-68066.3 64072.8 1.00685e-13 -940.123 3.19395e-14 -17121.9)
(612155 89395.5 -1.65328e-15 1289.85 -7.2944e-14 152208)
(-532443 47517.5 0 -698.716 0 -132283)
(-70431 61772.4 1.87854e-14 -5512.22 -5.30879e-14 -18843.1)
(-333455 92824 7.29049e-14 2406.07 3.82502e-14 -82140)
(-61845.4 89479.7 1.37809e-13 -688.906 -3.58428e-14 -15516)
(-86980.5 92294.9 -2.05251e-14 1010.84 8.26021e-14 -21330.8)
(188952 49835.8 2.74999e-14 455.807 -1.8793e-14 46996)
(128524 96942.3 -7.07397e-14 1003.93 -5.95997e-14 32138.6)
(157067 59542 -5.47146e-14 1390.38 4.68464e-14 39316.5)
(-772366 34945.3 -6.54804e-14 -5752.45 -2.97188e-14 -193067)
(22029.5 -32003.4 1.19441e-16 -59362.4 9.28078e-17 -9263.04)
(567214 47788.4 5.93877e-14 3566.55 -1.62594e-14 141622)
(-454010 86925.6 -4.95071e-14 6578.76 3.8498e-14 -111017)
(2.11927e+06 -5952.44 0 -6683.94 0 524175)
(-40454.4 70881.9 4.66351e-14 3674.95 4.1137e-15 -9125.73)
(-62308.2 65136 -2.63191e-14 7441.87 1.51201e-13 -13613.5)
(130290 110657 -2.69793e-14 -17404.2 1.91891e-14 28009.3)
(97830.5 59508.1 -9.41468e-14 -10415.2 -3.04573e-14 21689.5)
(-418634 53703.2 2.93189e-14 -1033.73 3.07323e-14 -104128)
(-675481 81736.5 4.69107e-14 3429.17 -2.72823e-14 -166750)
(-896384 105899 -2.38132e-14 11098.3 1.5335e-14 -219657)
(-822626 62504.4 2.40456e-16 192.383 4.14429e-15 -204063)
(1.72771e+06 78036.9 2.95273e-15 -7644.02 3.44509e-14 426783)
(-1.068e+06 105228 -2.33731e-14 7423.58 -6.71555e-16 -263151)
(-1.11956e+06 55494 0 9772.69 0 -275360)
(552163 42122.2 -7.77187e-14 -5522.76 -4.69454e-14 135632)
(-1.22134e+06 56843 -1.34799e-14 10841.1 -6.46684e-14 -300349)
(-1.3241e+06 57492.1 1.79201e-14 12381.4 -2.78923e-14 -325465)
(363465 44724.9 -9.63008e-14 -1880.49 -1.72631e-13 89716.6)
(72534.7 59422.4 -1.55889e-14 2502.37 -1.29098e-14 18618.2)
(1.08709e+06 101222 -3.80787e-15 12509.1 -1.67045e-14 272832)
(-27190.1 75796.5 1.25955e-14 -1634.32 -9.43259e-14 -7151.94)
(18772.8 79839.5 -3.33071e-14 2647.35 -1.43008e-13 5314.77)
(-355298 34026.8 -8.74418e-14 -41.8489 -6.35326e-14 -88167.1)
(20485.2 80741.5 1.18298e-13 1902.66 -1.40724e-13 5554.87)
(1.16537e+06 59800.2 -1.39857e-14 6195.48 -6e-14 290690)
(-42202.8 77960.2 0 -2077.65 0 -10986.9)
(93306.4 73188.1 -4.08388e-14 5472.49 7.60888e-14 24509)
(-1.17635e+06 41955.9 -7.26324e-14 -5897.26 -3.37706e-14 -293340)
(-1.28321e+06 41703.8 5.20497e-14 -6247.39 -2.98763e-14 -319942)
(580229 55922.9 -2.99667e-14 -1379.4 -9.97999e-14 143624)
(-1.39119e+06 42303.8 -9.94644e-15 -5518.41 -5.29168e-14 -346552)
(381994 55541.5 2.55976e-13 1295.46 -7.98685e-14 95101.9)
(1.98123e+06 50093.8 0 -7138.42 0 489812)
(857184 115308 -1.50546e-14 -3379.5 7.89393e-15 211846)
(1.02147e+06 43730.3 -2.65598e-14 -11131.8 -1.84716e-14 250685)
(-98147.1 80558.1 -1.01482e-13 33.1574 -6.25385e-14 -24344.1)
(225416 77140.3 0 2301.09 0 56501.2)
(-800969 46132.1 -4.90437e-15 2541.89 5.20873e-14 -198106)
(-561530 43571.6 1.70162e-13 3617.41 1.99436e-14 -138429)
(-11535.9 79106.1 9.54073e-14 678.181 5.94195e-14 -2694.02)
(41433.5 126871 -2.09428e-15 7880.46 1.82619e-14 12235.8)
(-2.27726e+06 5443.15 -3.22301e-15 -11785.7 -5.01641e-15 -567958)
(1.79398e+06 -78257.2 4.30264e-15 -82209.4 7.63563e-15 424725)
(-61101.3 21399.2 8.21432e-14 1847.38 3.05098e-14 -14702.1)
(-503983 91371.2 6.13172e-15 -5443.51 -5.09672e-14 -126399)
(403764 58773.2 -5.18754e-14 8501.98 7.59853e-14 102291)
(-357198 95665.1 4.25558e-14 -7037.26 -7.68314e-15 -90374.2)
(1.85282e+06 22381.1 -3.77152e-14 -14199.7 -1.3075e-14 456198)
(-49083.4 83008.4 4.03807e-14 820.85 -6.5732e-14 -11974.9)
(-397279 75230.5 -2.3345e-14 -2691.16 4.01499e-14 -99240.7)
(317085 75477.1 7.08042e-14 2922.37 -4.03978e-14 79400.4)
(1.70623e+06 13497.9 4.13074e-15 -580.961 -2.48481e-14 423205)
(-247829 33654.3 -1.15542e-13 2181.42 -1.39655e-13 -60950.1)
(-826361 20918.9 8.13057e-14 4141.01 2.7116e-14 -204010)
(-585593 23891.3 2.35155e-15 3966.94 -1.42729e-13 -144313)
(-63233.8 22982.9 0 -3303.29 0 -16509.2)
(-995709 59370.9 -1.83909e-15 10164.8 6.12096e-14 -244534)
(-21721.3 80597.4 -2.31461e-14 161.243 4.77953e-14 -5349.48)
(-49563.4 63455.8 -8.91691e-14 -3234.42 9.97757e-14 -13100.2)
(-43591.5 61986.7 6.25388e-14 -2054.23 -3.8283e-14 -11325.6)
(-1.51179e+06 330790 -5.40677e-15 188974 4.90196e-15 -328217)
(1.83684e+06 68511.9 -1.44614e-15 -6617.58 -1.50209e-14 454114)
(-333940 50787.6 -8.59087e-14 4090.2 -6.24906e-14 -81842.5)
(1.78553e+06 13935.9 -3.16155e-14 3780.03 2.8136e-14 443964)
(-240880 21308.5 7.59587e-14 -6.51275 -2.49261e-13 -59768.8)
(-178618 43209.6 1.42845e-14 705.561 -1.36339e-14 -44143.6)
(-169178 55978.2 1.45837e-13 2583.93 1.46267e-13 -41335.3)
(-2.29555e+06 -43266.3 1.16843e-14 9801.3 5.45737e-14 -567141)
(99538.3 54401.7 0 8442.52 0 26792.2)
(53565.8 65345 -1.51616e-13 1562.72 -5.97492e-14 13678.5)
(37090.5 69711.7 5.25657e-14 1459.06 -4.14949e-16 9564.92)
(-78503.1 62144.9 3.59947e-14 -8093.14 1.01877e-13 -21486.3)
(-1.28963e+06 70361.1 -2.0069e-14 -7240.12 1.01491e-13 -321781)
(393554 50992.2 1.22351e-13 4057.84 -3.80618e-14 98655.6)
(-1.18668e+06 67932.1 0 -6620.56 0 -296083)
(-1.08634e+06 66507.9 -4.2239e-14 -5936.44 -4.32483e-14 -271015)
(583036 48157.9 5.6061e-14 5169.97 3.42474e-15 145946)
(-12461.4 78363.7 -1.97666e-13 -2816.49 -1.26795e-13 -3790.76)
(1.28646e+06 93543.1 0 -4092.99 0 318180)
(-105683 68938.7 -4.19367e-14 1855.44 -6.95413e-14 -25761.7)
(67270.5 17202.1 -2.41814e-14 4603.07 -3.50956e-14 17833.3)
(159568 69095.2 1.85615e-13 1063.33 3.32277e-15 39855.9)
(50967.5 -38437 -7.60247e-16 -108225 -5.63478e-16 -14206.7)
(-2701.41 10566.6 1.9791e-17 6345.3 -1.1771e-16 904.124)
(-51447.1 -38193 -4.81075e-16 107923 3.20431e-16 14012.9)
(-12470.9 79750.2 -6.14545e-14 -105.118 -8.94457e-16 -3120.35)
(-672899 51996.4 -1.50774e-14 -2620.8 6.01806e-14 -167610)
(47784.8 38240.1 3.37759e-14 -138.708 -9.4495e-14 11822)
(732786 58502 -7.30512e-14 -6868.18 -1.0109e-13 180115)
(-1.2197e+06 105688 4.92092e-15 -258.159 1.00146e-14 -302696)
(-400900 72970.6 -3.03751e-15 6359.45 9.59748e-15 -97893.6)
(-1268.26 84889.6 -9.48366e-15 -734.119 -4.71905e-14 -496.831)
(316372 96775.4 -1.96495e-14 2435.9 -3.39971e-14 79102.6)
(-150171 70301.3 -5.80666e-14 -427.379 1.28047e-13 -37366.6)
(-105307 73674.3 -1.96717e-13 -772.215 -9.48822e-14 -26320.5)
(1.82308e+06 21192.9 1.11021e-14 4594.34 2.31793e-14 453482)
(1.19508e+06 58367.1 1.80567e-14 4130.97 3.67081e-15 297548)
(1.2992e+06 59795.2 3.46037e-14 4894.29 4.82112e-14 323572)
(1.09455e+06 57252.2 1.26566e-13 4014.28 7.50074e-14 272577)
(-398653 52461.3 5.73328e-14 -4102.43 8.95419e-14 -99931.8)
(-590210 51166.6 -1.51643e-13 -4415.3 5.45188e-14 -147539)
(213182 63452.2 6.474e-14 204.536 -3.39419e-14 52945.5)
(1.64174e+06 35524.9 1.67394e-14 -172.523 9.8769e-15 407306)
(230541 30938.6 -4.72424e-14 -3107.4 -1.85745e-13 56431)
(-72628.9 74274.3 -1.63812e-13 1037.17 1.53191e-13 -17763.4)
(1.53755e+06 73527.8 -1.92112e-14 894.859 2.39399e-14 381719)
(-130666 100435 -5.31167e-14 106.774 -1.42972e-14 -32394.5)
(-205268 44065.5 -3.6579e-14 2965.76 -1.54101e-14 -50195.2)
(63467.2 89522.1 1.17258e-13 -2849.48 -1.67881e-13 15040.5)
(90446.8 94602.6 -8.17274e-14 -1755.79 5.62165e-14 22006)
(-64492.5 73783 -2.37819e-14 2867.39 -3.50885e-14 -15290.4)
(-111263 65349.5 -1.49162e-13 -767.621 -1.1641e-13 -27797)
(-2842.11 78625.1 -1.43364e-13 -2492.85 -1.07892e-13 -1323.71)
(-34662 78050.5 -8.59498e-14 -1643.1 9.44407e-14 -9008.04)
(-7456.77 79620.4 -5.61894e-14 -2009.15 -5.35569e-14 -2348.69)
(8794.12 55316.7 2.67191e-15 37820.4 1.19673e-13 11566)
(-35917 7397.78 -4.00177e-16 -8284.54 5.68918e-14 -10967.3)
(-1.94036e+06 -312033 1.74379e-14 80632 -8.82133e-15 -461436)
(-1.39495e+06 71250.7 1.25582e-14 -10634.8 -1.91378e-15 -348753)
(430063 46494.8 6.47382e-14 3872.72 -6.31438e-14 107668)
(-1.28521e+06 72504.8 -5.00414e-14 1196.38 3.14319e-14 -318589)
(622411 42586.3 -2.91702e-14 4581.13 8.83398e-14 155570)
(-1.17995e+06 69217.9 1.9093e-14 1458.28 1.91809e-14 -292408)
(-1.07871e+06 67170 -1.09995e-13 1824.52 8.4065e-14 -267197)
(357920 64692.3 6.33983e-14 -3985.98 1.76706e-13 87818.3)
(-1.09932e+06 30425.9 6.83452e-14 7748.14 -9.4013e-14 -270841)
(521625 67291.3 7.86871e-14 -4711.17 -6.26583e-14 128257)
(-1.01011e+06 30772 5.65737e-14 6760.07 -9.7472e-14 -248951)
(-923896 32291.5 -5.86654e-14 6697.79 -5.28178e-14 -227576)
(-519840 88345.8 4.40399e-15 15589.6 4.42018e-14 -125115)
(157599 74253.3 -3.16508e-14 -5858.2 -2.1085e-13 37649.9)
(225157 71596.7 -5.05946e-14 -7207.83 -1.46209e-13 54077.6)
(-329359 69920 -1.523e-14 10568.8 8.77871e-14 -79098.4)
(1.32954e+06 44500.9 -9.65351e-14 1715.49 -3.25599e-14 330312)
(-1.37323e+06 -16400 9.28411e-14 -11135.3 2.87133e-14 -343488)
(771399 43610.1 6.53281e-14 -2843.83 -6.08489e-14 190694)
(-397586 44954.2 1.4626e-15 7081.14 8.68727e-15 -96892.3)
(-181345 70997.2 -8.20775e-14 2440.64 -6.78281e-14 -44389.9)
(-189994 59484.5 7.02421e-14 -2187.68 -6.35576e-14 -47684.2)
(19915.8 79196.6 5.3397e-14 1645.81 9.75462e-14 5349.87)
(-269600 51860.6 -1.20086e-13 -224.82 1.24545e-13 -66948.9)
(230383 61893.5 -6.29625e-14 -4503.75 -6.65368e-14 56045.2)
(156022 70963.1 -5.7698e-14 2293.08 4.44796e-14 39281.2)
(-499592 57892.1 9.7664e-14 7447.61 -6.57502e-14 -122111)
(-698814 63817.7 3.55138e-14 2973.37 7.77009e-14 -172652)
(1.42358e+06 21580.9 2.19877e-14 1714.67 -2.97119e-16 353645)
(-6432.07 82989.9 2.80308e-14 -385.847 -1.36363e-13 -1691.66)
(2.07445e+06 77668 -2.56686e-14 -12899.7 -1.39932e-14 511513)
(-222000 63804.7 -1.03727e-13 1189.04 7.14821e-14 -54787.6)
(1.79653e+06 50105.4 0 -18663.8 0 441125)
(-512291 64684.1 3.05776e-14 -4786.2 1.27614e-13 -128297)
(-559827 64950.2 -3.1348e-14 -5618.49 3.72008e-14 -140299)
(-607773 66627.5 -5.05526e-15 -5818.44 1.34628e-13 -152245)
(281183 71154 -7.69022e-14 876.524 1.8918e-14 69984.8)
(191055 73328.3 -8.20335e-14 284.873 2.02567e-14 47475.2)
(-2.26117e+06 -16699.3 2.03641e-14 -8748.72 -1.16206e-14 -563214)
(-1.39904e+06 69705.5 -2.08828e-14 -8068.94 3.94179e-14 -349132)
(488817 50218.8 -8.18866e-14 4801.34 -4.79296e-14 122477)
(677928 46867.3 2.30087e-13 5170.04 -1.23679e-13 169490)
(76540.7 78984.2 4.50232e-14 -7753.57 -1.16422e-13 17067.5)
(-400007 36704.3 0 1720.49 0 -98823)
(-405672 21151 1.23136e-13 -1936.87 -6.26044e-14 -101136)
(1.97445e+06 54856.5 3.32835e-14 -14079.9 2.22082e-14 486409)
(2.02148e+06 -10907.4 2.75825e-14 12744.5 2.43896e-14 504732)
(1.05719e+06 25387.4 1.661e-15 -887.98 5.82252e-14 262089)
(969252 26988.3 1.18401e-14 -321.763 1.41273e-13 240411)
(1.14827e+06 23346.5 3.01152e-14 -1927.95 -4.35251e-14 284431)
(-498289 68907 -7.42806e-14 4295.17 6.68447e-14 -122570)
(-331491 65764.3 -7.20617e-14 2954.2 7.90488e-14 -81516.6)
(216860 91311.7 0 1897.23 0 54278.1)
(147544 89410.8 -3.00038e-15 817.067 1.14588e-13 36811.4)
(472918 69157.8 -8.83726e-14 -255.797 7.22663e-14 117277)
(-200000 65514.1 -7.06672e-14 2476.68 1.67592e-13 -49009.6)
(-314713 98473.2 -1.4043e-14 3758.27 6.21295e-14 -77154.1)
(96584.7 72345.4 -2.62519e-13 -870.002 -6.96727e-14 23748.8)
(137391 68406 -1.8161e-13 -815.581 7.59985e-14 33887.2)
(-85333.4 82186.1 -3.53953e-14 2086.35 -4.94881e-16 -20655.3)
(-238711 55964.9 -2.9368e-14 5182.39 -1.83446e-14 -57943.2)
(-219132 56468.4 1.9391e-14 4377 -3.31198e-14 -53285.1)
(-221656 42309.5 0 -570.212 0 -55138.8)
(-107108 102091 4.05123e-16 -4935.67 -3.86148e-14 -27800.3)
(-1.01248e+06 4613.69 8.60554e-14 -6855.17 -3.76825e-14 -252919)
(1.27174e+06 52721.1 -1.11934e-13 -5660.93 -1.12568e-14 314139)
(1.58731e+06 167593 6.69815e-15 -274855 3.38859e-15 325647)
(-37867.8 70231.9 2.34422e-14 -3225.12 -5.31441e-14 -10196)
(240783 25370.9 8.55422e-14 2002.01 -1.95325e-13 60239.8)
(-1.99004e+06 -245920 1.67471e-14 162949 -1.08656e-14 -453339)
(111966 56199 3.66113e-15 3772.98 9.92713e-14 28717.1)
(305528 39489 6.90634e-14 1427.4 -7.92918e-14 76161.9)
(337375 43076.2 9.64322e-14 -5020.65 -4.06912e-14 82463.8)
(-4340.02 82187.7 7.26323e-14 -75.5955 -1.07741e-14 -1095.6)
(-4979.41 84859.3 7.66156e-14 -622.174 6.4802e-15 -1389.87)
(920691 32987.8 2.44985e-14 -5186.89 8.15904e-14 227155)
(763008 87562.1 3.1175e-14 6038.41 -7.52068e-15 190816)
(-693705 72722.9 0 6450.35 0 -170522)
(-593232 40378.8 -7.92512e-14 -9473.12 -4.95808e-14 -149543)
(1.93415e+06 -315120 -7.02516e-15 -82673.1 -4.76032e-15 459389)
(-589887 113310 -6.36374e-15 16193.1 7.43791e-14 -142345)
(-945092 40584.2 4.389e-14 -2444.35 -2.5895e-14 -235103)
(-2.0177e+06 -812286 -1.89146e-14 424531 7.40348e-15 -395299)
(2.40115e+06 2583.82 0 32838.4 0 603921)
(-1.7671e+06 -752463 -6.15573e-15 200503 1.90564e-15 -388704)
(307274 113495 -4.18297e-14 -27.5768 1.47679e-14 76234)
(-68983.1 67171.3 -7.40898e-15 -1483.2 1.0361e-13 -17484.1)
(-902236 83282.6 3.70069e-14 -7532.97 -4.07272e-14 -225732)
(-823916 82577.4 5.51236e-14 -6496.77 -6.87968e-15 -206042)
(-754570 80413.1 -6.28414e-14 -5873.7 2.43646e-15 -188682)
(268475 59001.6 5.49626e-14 3731.48 -1.53364e-13 67540)
(402083 55844.6 -1.37979e-13 4589.84 1.34153e-13 100904)
(39820.2 71433.7 -2.16877e-14 -7425.42 1.018e-13 8037.81)
(56596 66783.8 5.13533e-14 -9789.52 6.57951e-14 11613.6)
(-131139 107306 -5.87786e-14 21020.3 1.59119e-14 -27322.8)
(-82474.2 62739 4.3718e-14 14378.8 -5.59279e-14 -16895.9)
(-1.10676e+06 -445484 -4.76956e-15 -27377.2 9.96533e-16 -281402)
(203544 108057 -3.33648e-14 15513.5 -1.18346e-13 54352.7)
(-100931 64388.3 -1.14686e-13 -8189.15 -5.24359e-14 -27075)
(-473949 100188 0 196.942 0 -117547)
(203363 61200.3 8.85071e-14 1393.24 -3.61522e-14 50804.1)
(-99841 86615.1 0 -399.077 0 -24871.6)
(-75211.4 70381.1 -5.57807e-14 -609.625 -8.83671e-14 -18812.7)
(706603 71972.5 7.81892e-14 4199.19 -8.17704e-14 176364)
(726029 46239.6 1.19655e-13 -147.391 5.71548e-14 180106)
(2.01389e+06 -810821 -7.07272e-15 -424605 -2.34093e-15 394335)
(1.10451e+06 -445015 8.26513e-15 27155.8 2.26744e-15 280790)
(-222488 51640.8 1.70044e-14 1650.59 2.42016e-14 -54794.3)
(-237656 52780.5 -5.16578e-14 -2709.26 -1.05651e-13 -59639.6)
(-1.26061e+06 2485.71 -5.69286e-14 -5140.42 -1.30539e-14 -314058)
(1.02079e+06 49595.9 1.2883e-13 -3850.49 -3.3671e-14 252324)
(331465 66704.1 4.25702e-15 -2603.53 2.34054e-13 81597.2)
(497454 70852.4 7.95099e-14 -3464.5 8.6467e-14 122569)
(-1.15115e+06 24003 -2.07683e-15 -1270.43 4.95617e-14 -285938)
(-1.06214e+06 27026.3 -5.03363e-14 -700.5 1.66461e-14 -263712)
(-973246 29069.8 -3.33652e-15 -806.71 7.8163e-14 -241682)
(-14702.1 84169.5 -1.20924e-13 -962.758 3.49815e-14 -3886.77)
(-1.25083e+06 25599.1 3.27741e-14 -2103.34 3.52522e-14 -310878)
(415484 66566 -8.14892e-14 -2686.9 3.99805e-14 102423)
(581741 69584 0 -3414.58 0 143494)
(549269 53392.4 3.10676e-14 -4011.9 7.41727e-14 135289)
(106173 70005.6 -1.02189e-13 1211.7 -2.70186e-13 26644.4)
(8889.19 73201.7 -8.95527e-14 -8466.74 -3.29415e-14 104.819)
(454841 41258 -1.14389e-13 14393.9 2.05304e-14 116427)
(-383416 55188.2 -9.7559e-15 -1129.11 -7.89119e-14 -95413.4)
(60566.6 76146.4 1.33126e-15 -14352.4 1.66794e-14 11466.7)
(1.76312e+06 -751721 -6.4011e-15 -201288 -1.61165e-15 387522)
(271821 76679.5 8.10159e-15 -2619.06 -1.49807e-13 66794.4)
(327774 74826.5 6.9728e-14 103.933 2.37177e-14 81353.3)
(-215775 74218.4 0 14.169 0 -53534.6)
(-256250 83044.3 2.60035e-14 -6349.68 -7.23878e-14 -65156.3)
(755533 80001.1 0 7270.48 0 189267)
(824927 82561.6 4.60627e-14 7569.6 4.37232e-14 206559)
(894916 86290.2 -1.03209e-13 7796.78 -9.96425e-15 223981)
(-402900 52975.5 1.45644e-13 -5410.56 1.47957e-13 -101310)
(-272150 57655.6 7.65106e-15 -3992.58 -8.85365e-14 -68516.6)
(-15047.1 80688.9 8.61342e-14 133.37 4.58647e-14 -3700.39)
(1.81041e+06 14695.5 -1.34259e-14 -28518 -2.46219e-14 442123)
(-11593.4 92282.8 -9.30833e-14 -5649.26 2.90042e-14 -4278.27)
(22572.4 48749.1 -8.92274e-14 10934.4 -5.55575e-14 8313.7)
(39890 76792.9 6.69302e-14 1088.7 -1.5535e-13 10167.6)
(427633 75837.1 7.13268e-14 78.2993 7.53822e-14 106124)
(-169413 6099.11 -1.18479e-13 -3089.08 5.80888e-15 -42801.4)
(564801 84686.7 0 -3493.78 0 139272)
(1.90728e+06 -78410.5 3.09801e-16 -268444 1.24585e-16 406627)
(427651 21676 6.83913e-14 6195.71 1.55534e-13 107646)
(410650 33283.6 3.09969e-14 -6157.02 1.68915e-14 100363)
(-615307 71866.6 1.01925e-14 5779.52 2.15175e-14 -151236)
(-437810 67843.6 -7.93876e-14 4586.49 2.543e-14 -107492)
(-524411 45690.4 -1.62354e-13 -1954.78 -2.84071e-14 -130602)
(-375981 50298 8.19339e-15 -2595.16 -8.61647e-15 -93932.3)
(1.30988e+06 21703.1 -5.70738e-15 -3402.21 1.87625e-14 324164)
(1.08423e+06 91783.7 2.3712e-15 -288.154 -3.87987e-14 268947)
(310155 83082.1 1.43726e-14 -3530.8 8.50176e-15 76079.7)
(417381 69366.4 2.69782e-14 25.7221 4.59033e-14 103567)
(228523 82433.9 7.50389e-14 -4174.12 5.34715e-14 55665.6)
(306882 69690.1 6.72919e-14 -2113.85 -1.0652e-14 75619.1)
(-593226 50924.4 -1.24351e-14 5844.15 3.1224e-14 -145741)
(-779919 78169.3 -3.45027e-14 1869.07 6.20081e-15 -193050)
(-179654 122060 3.83635e-14 -706.833 2.74015e-14 -44751.1)
(1.2896e+06 56013.8 4.28661e-14 5081.54 3.07819e-14 321236)
(1.39854e+06 56044.4 -9.2933e-15 22637.9 4.62173e-15 352622)
(1.66013e+06 56866.1 7.54428e-15 -2257.78 4.7566e-15 411351)
(114765 78012.1 -1.46011e-13 497.545 1.77312e-13 28599)
(-422072 22807.8 -9.0475e-14 -5228.52 -4.65184e-14 -106022)
(-407847 35975.1 -1.14802e-13 4534.03 7.67905e-14 -100070)
(1.9339e+06 -6218.86 0 12921 0 483045)
(1.93865e+06 61527.6 0 1406.1 0 481369)
(1.14745e+06 48436.9 1.77064e-14 -1873.11 8.44907e-14 284242)
(1.13844e+06 9662.91 5.67059e-14 4859.32 -1.59189e-13 283675)
(-1.18424e+06 11781.9 0 -9209.92 0 -296118)
(-1.15445e+06 48421.1 0 7880.47 0 -284488)
(33412.4 76330.4 -2.01199e-14 2692.19 5.76354e-14 8958.29)
(-82445.3 34392.6 2.15336e-13 -5028.55 -9.1154e-14 -21704)
(-314447 33867.3 -5.67771e-14 -3494.84 -2.095e-14 -78887.7)
(2.54028e+06 3854.06 0 51618.1 0 643103)
(-44951 67508.5 -1.41995e-13 -2307.74 -3.54701e-15 -11725.9)
(-52908.7 70302.2 -2.0452e-14 -5064.01 -1.13765e-13 -14384.2)
(275699 89268.1 -7.3273e-14 -6119.21 -5.02197e-14 66888.2)
(-218164 88036.1 -1.52703e-13 -6258.94 6.39533e-14 -55684)
(263884 54779.5 4.43837e-14 -7519.17 -4.59088e-14 63609.4)
(-1.01138e+06 46021.7 3.14252e-14 -9023.72 -6.40212e-14 -253184)
(1.01816e+06 50197.4 -1.30299e-14 -10187.6 -7.82907e-14 250097)
(-1.72707e+06 75593.2 1.35768e-14 -10673.4 -5.82038e-14 -431169)
(-2.06073e+06 -185404 7.22365e-15 384751 -5.21182e-15 -415845)
(716933 99635.6 -1.14874e-14 -15039.6 1.42869e-14 174154)
(80123.8 96564.6 -7.58721e-15 -4373.8 4.27036e-14 18795.1)
(-954529 79498.6 -3.80275e-14 -4864.16 -1.0647e-13 -238045)
(801587 27989.9 -4.94513e-14 9617.98 7.13097e-14 201276)
(-556636 49319.7 5.45817e-14 -9807.77 6.99995e-14 -140546)
(433447 78120.9 8.19049e-14 5270.32 1.43153e-15 108855)
(80494.5 86245.1 2.28332e-14 4377.4 1.06865e-15 21058.4)
(139298 67311.2 -9.65666e-14 -1018.72 1.2129e-13 34309.9)
(-277241 58394.1 6.64531e-14 -17682.1 -7.06073e-14 -73176.4)
(-448264 113663 1.09966e-15 7475.43 8.89197e-14 -109369)
(-254119 58883.4 1.02365e-14 -16434.5 -7.13726e-14 -67129.9)
(-410797 109570 6.47922e-14 6650.85 -2.36807e-14 -100277)
(101391 49163.5 -4.07447e-14 -3069.83 1.26662e-14 24395.4)
(-47835.8 93582.5 -1.07626e-15 2510.29 -7.97717e-14 -11246.2)
(-31293.6 92378.9 9.89088e-14 2324.9 7.934e-14 -7187.73)
(-21125.8 83201.4 5.09054e-14 606.381 -1.10855e-13 -5091.29)
(1.37554e+06 40303.4 2.94576e-14 3589.56 4.56399e-15 342189)
(-14322.5 94178.2 -1.11947e-13 -6524.9 -4.9765e-14 -5172.67)
(-54470.9 69675.4 5.52708e-14 -5233.81 -1.85095e-13 -14814)
(1.92167e+06 -54227.3 -1.46255e-14 -99564.8 -1.06964e-14 452102)
(315843 56458.9 5.89248e-14 -5136.9 -7.55933e-14 77092.4)
(-735297 97960.8 3.95043e-14 13225.2 1.06725e-14 -179161)
(-839512 62104 -6.43702e-14 1930.8 -2.81705e-14 -207821)
(-833804 29186.1 0 -9693.83 0 -209289)
(1.04939e+06 17855.9 -5.79876e-14 5630.35 -2.75745e-14 261773)
(1.0048e+06 70524.3 3.51007e-15 9113.39 6.90868e-14 251574)
(-32839.2 58191.3 -6.53812e-14 1249.09 5.33003e-14 -7838.15)
(-24996.9 58604 4.74333e-14 1706.42 -2.65239e-13 -5778.85)
(-660943 105064 -2.6132e-14 7344.84 -6.43672e-16 -162171)
(-889931 75308.1 0 11017.3 0 -218076)
(629225 48439.4 1.43141e-14 6850.22 3.52869e-14 157823)
(-1.62889e+06 93677.7 6.25628e-15 -7242.42 -1.98319e-14 -405959)
(56215.8 65612 0 13899.8 0 17397.1)
(894471 41576.4 -3.10702e-15 -2021.54 2.14831e-14 221435)
(678094 101900 -1.67417e-15 6448 8.1718e-17 169849)
(-425797 82798.1 1.21619e-13 4898.47 -1.56401e-14 -104433)
(-330775 57049.6 -1.18766e-14 -1921.95 8.57039e-14 -82548.9)
(-303564 79113 1.88062e-14 3619.13 -7.14936e-14 -74422.4)
(-237573 60740.5 -1.06302e-15 -2228.52 4.20032e-15 -59499.5)
(-340659 38916 4.3974e-14 700.594 6.4947e-14 -84350.5)
(-286916 44219.6 -7.69204e-14 3798.6 1.54829e-14 -70247.2)
(-349614 100063 0 1247.96 0 -86436.6)
(-393342 101936 -3.8838e-14 -604.181 3.37508e-14 -97746.1)
(-428628 105723 -3.17334e-15 -528.396 -3.6188e-15 -106482)
(116371 65867.9 -1.89326e-13 1377.01 -9.46576e-14 29215.8)
(-23384.6 79205.4 -4.20217e-14 -2391.71 8.36549e-14 -6395.62)
(840085 39790 -2.37253e-14 5352.77 6.75515e-14 209770)
(879343 53860 3.28475e-14 -5967.05 -6.38132e-14 216702)
(145762 70037.9 6.81393e-15 490.946 -4.72085e-14 36288.3)
(213015 63540 0 2472.16 0 53466.9)
(-465609 101894 4.8701e-14 -3151.68 -5.35522e-14 -116309)
(410759 62222.5 -9.3082e-14 4579.43 -1.16914e-15 103054)
(448524 91164.7 -4.07446e-14 5364.32 -2.51884e-15 112619)
(-163522 75729.7 -7.78151e-14 -1264.14 1.11536e-13 -40886.8)
(-139251 78988.8 4.54031e-14 -2038.9 2.6657e-15 -35056.9)
(-200742 82754.4 7.35944e-14 -478.097 2.61794e-14 -49926.8)
(-222932 71451 0 -2123.62 0 -55841)
(-974953 42945.7 2.16833e-14 -50.021 -3.3108e-14 -241918)
(447746 73121.2 -3.56265e-14 -578.572 -1.40933e-13 110951)
(319143 71429.8 -1.63209e-14 -964.563 -2.33281e-15 78946.4)
(-107342 194751 -9.95883e-15 20198.7 -7.1385e-15 -21621.9)
(1.16148e+06 33301.3 -7.47937e-14 -8640.01 -4.48095e-14 286043)
(-1.35839e+06 10882.1 6.48043e-14 2240.32 3.87836e-14 -336489)
(-158961 180434 0 -7047.75 0 -41190.1)
(-161526 73965.9 2.71996e-14 2202.81 8.21138e-14 -39531.4)
(-136619 77992.3 -2.04588e-13 3843.32 -5.19014e-14 -32944.3)
(-234954 72093 8.82564e-14 1580.72 9.87983e-16 -57904.7)
(-202389 78924.8 0 3109.07 0 -49445.4)
(459275 59646.3 4.51421e-14 -3813 -7.26669e-14 113009)
(527306 82849 1.64766e-14 -3341.12 6.98492e-15 130006)
(427763 63230.3 -3.35502e-14 -7846.78 3.2124e-14 104190)
(498882 85136.8 3.5792e-14 -5635.06 9.89577e-14 122385)
(391696 62782.9 2.80729e-14 -6850.88 4.7118e-14 95487.9)
(456730 83013.6 -6.10103e-14 -5052.39 3.48694e-14 112070)
(361266 37648.5 2.77525e-14 231.455 1.04813e-13 89694.9)
(348608 22780.2 8.16087e-14 2890.82 1.74746e-13 87213.9)
(-695804 82496.6 -1.56666e-14 464.193 2.05949e-14 -172528)
(324528 77771.4 -8.45417e-14 -4226.83 -2.05412e-15 79473.2)
(-775722 59832.3 0 6396.82 0 -190885)
(1.34099e+06 86217 4.57841e-14 -11592.6 -2.88106e-14 329850)
(-675508 37189.6 8.51904e-14 2555 -1.40007e-13 -166973)
(-492689 42324.4 1.02866e-13 719.483 -6.91345e-14 -122068)
(-1.52274e+06 -719851 -5.86097e-15 242906 1.312e-15 -317553)
(45263.1 74389.9 1.14896e-13 298.862 -3.0174e-14 11304.8)
(1.42334e+06 48693.1 -1.52968e-14 -3458.99 -7.73466e-16 352302)
(-689903 56519.5 -2.38568e-14 2441.79 -6.91521e-14 -170573)
(-496823 54817.8 1.49039e-13 2061.43 7.33492e-14 -122760)
(2.12909e+06 -14745.8 2.49121e-14 -4563.73 1.10913e-14 527139)
(-95586.5 66380.3 -1.64788e-14 -1268.55 6.61097e-14 -24031.7)
(1.46713e+06 13947.1 3.80711e-14 4335.05 -2.36651e-14 365100)
(-343922 57579.3 5.15585e-14 1564.38 -9.08991e-14 -84945.8)
(-1.21484e+06 85713.9 3.08857e-14 12467 -4.02221e-15 -298334)
(-1.14196e+06 55132.9 -1.88671e-14 -6987.74 -1.43901e-15 -285078)
(1.10493e+06 56657.1 -3.57282e-14 1613.87 2.33744e-14 274556)
(-140296 77015.9 -2.25168e-13 5778.59 -1.025e-13 -33376.4)
(-3335.73 -38665.7 2.385e-16 -60601.9 8.47456e-17 -15864.2)
(-17618.3 70988.7 0 3043.16 0 -3616.38)
(-2.02074e+06 -645405 9.62456e-15 255425 -2.65608e-15 -438011)
(1.51873e+06 -719126 1.13912e-14 -245095 3.58924e-15 316016)
(-968649 89212.1 3.98658e-14 -8209.56 -3.86809e-14 -242379)
(334881 55876.6 1.72227e-14 2932.65 6.64878e-14 83818.3)
(463960 51067.7 -5.54248e-14 3817.6 1.2615e-13 116065)
(135004 72833.3 1.10936e-13 -1407.05 3.30405e-14 33148)
(-251696 15953.9 6.42951e-14 206.687 -9.88756e-14 -62399.7)
(225064 93822.6 -5.34886e-14 -1408.72 4.89505e-14 55493.5)
(-114494 58190.9 1.58013e-14 855.539 2.42296e-14 -28196.1)
(-105270 103989 1.13651e-14 4213.66 3.29882e-14 -25074.1)
(-1.65592e+06 4243.82 -5.2724e-15 44838.8 1.25461e-14 -399741)
(13550.2 -23010.4 6.25862e-17 -40170.1 3.88398e-17 -6604.94)
(-568500 93164 -2.37188e-16 7059.36 4.4796e-15 -139305)
(446714 52639.6 4.00982e-14 -2734.58 1.24278e-13 110160)
(1.71958e+06 -332877 1.00984e-15 -45628.7 1.31406e-15 415341)
(-50841.5 57699.6 -1.03083e-14 -8551.75 -8.01431e-14 -14736.7)
(-57121.2 96107.9 8.17878e-15 -3679.31 7.82445e-14 -15085.9)
(-32563.9 83954 -1.39983e-15 458.768 -1.19874e-13 -7965.94)
(-85122.3 72922.5 -2.22151e-14 3158.83 3.02855e-14 -20336.8)
(37966.7 82734.6 3.58072e-14 -1368.03 9.25419e-14 9080.88)
(25114.5 85098.1 -8.41278e-14 -408.579 -2.74682e-14 6130.03)
(-1.72428e+06 -331032 4.31282e-15 44084 -1.33302e-15 -416892)
(602833 88441.1 -3.28524e-14 2101.67 1.77846e-14 150097)
(-211145 71620.2 -2.25186e-13 -172.406 -6.38939e-14 -52432.2)
(707720 75418.5 1.17576e-13 5381.6 -1.99005e-13 176935)
(649021 73862.4 -1.44072e-15 4760.62 -7.62756e-14 162217)
(593613 71234.9 -2.18037e-13 2544.3 3.29189e-14 147919)
(103155 42503.9 -1.10043e-13 4072.51 -4.11725e-14 26605.3)
(-1.39672e+06 31376.5 5.9164e-14 -3734.93 -5.74407e-14 -347480)
(439071 57115.5 1.19338e-13 -2457.08 1.28742e-14 108333)
(622174 58870.7 -5.40378e-14 -2415.2 -7.72999e-14 153775)
(-120177 71448.3 -1.90711e-13 -384.358 -3.21579e-14 -29913.8)
(894869 96910.3 1.25241e-14 -11798.6 1.81139e-14 219108)
(171039 55674.5 -7.71689e-14 -139.336 5.22762e-14 42403.7)
(-1.79313e+06 23605.6 -2.00694e-14 -2383.78 -7.43423e-15 -445504)
(51840.8 73226.6 -9.95157e-14 1883.76 -8.37316e-14 13330.2)
(-151184 77800.4 -1.9789e-13 1735.78 9.34585e-14 -37081.1)
(508195 60257.6 1.49357e-13 1511.41 -2.15182e-14 126468)
(465906 60109.2 1.39517e-13 1026.75 3.39471e-14 115856)
(425794 58366.9 -1.01128e-13 -863.4 2.78707e-14 105434)
(932882 45281.7 1.5059e-14 119.321 3.16872e-14 231497)
(202859 77350.5 -6.67903e-14 2951.9 -1.43156e-13 51065.8)
(-512703 64950.2 4.55787e-14 -7920.54 1.02144e-15 -129177)
(-402138 116201 2.78195e-14 3725.46 3.10323e-14 -98854.1)
(-224762 48829.7 0 1622.57 0 -55365.4)
(-709911 85881.8 -6.13331e-14 -8007.16 1.86715e-14 -178130)
(-775986 88324.8 -9.22958e-14 -8865.54 -6.10587e-15 -194738)
(-844698 92185.1 -9.21506e-14 -10061.6 4.44026e-14 -212083)
(401191 58459.5 1.89288e-15 6451.1 2.35097e-14 101144)
(274529 63628.8 2.97509e-14 4471.04 -3.72498e-14 69225.6)
(72943.8 8448.42 -8.64968e-14 3623.08 3.12037e-14 18997.8)
(141998 60845.1 0 -1826.66 0 34779.4)
(182709 49460.9 -1.01276e-13 1328 6.04522e-14 45663.3)
(2.08046e+06 -99374.7 -5.4074e-15 -275717 -2.61133e-15 447792)
(785758 41273.5 9.98068e-14 837.566 -1.02424e-13 195170)
(-603008 77975.3 0 1004.64 0 -149369)
(-423172 71065.1 -4.94515e-14 8260.72 -2.17426e-15 -102948)
(339245 75063.1 2.63925e-14 -3448.65 -3.26423e-14 83317.9)
(-108316 87742.4 4.40897e-14 -2417.97 3.6174e-14 -27475.4)
(-14140.9 86236.3 1.29929e-13 -2563.2 -1.02393e-13 -4144.63)
(35170.8 61943.8 1.03744e-13 8884.47 -1.64196e-14 10931)
(38546.1 61920.7 -5.42933e-14 9703.93 -5.05713e-14 11971.8)
(-4862.43 109178 -2.72157e-15 -3085.71 -2.23132e-14 -1972.1)
(-9356.9 57281.9 -2.42401e-14 -879.819 8.15285e-14 -2539.94)
(-16.8521 66283.2 -9.07839e-14 -746.941 6.7655e-14 -189.512)
(12152.9 70502.4 8.6721e-14 -13514.8 -3.93994e-14 -337.918)
(150940 50367.2 -6.72895e-15 2375.77 -3.17253e-14 38040.8)
(-281655 111577 -1.58432e-15 1976.42 -1.53375e-14 -69394.1)
(89326.1 70228.1 2.17548e-13 1018.93 -4.28113e-14 22416.4)
(12690.6 108259 9.09749e-15 -16642.9 1.29871e-14 -980.646)
(-594028 109060 -2.26979e-14 -2894.58 -1.36377e-14 -148109)
(751566 51224.5 7.49685e-14 3852.21 6.69012e-14 187435)
(-322442 79199.7 -8.37215e-14 -287.519 2.73864e-14 -80075.8)
(-1.37872e+06 251569 -3.93668e-15 245040 2.36151e-15 -281289)
(-201082 47081.1 5.9615e-14 -2102.21 6.47461e-14 -50414)
(-330134 110083 0 2974.4 0 -81174.9)
(97047.2 70214.6 1.16089e-13 -354.471 -1.60371e-13 23991.4)
(150468 63581.5 6.14055e-15 -298.259 1.99421e-14 37260.2)
(1.51581e+06 -335104 -1.22055e-15 48517.2 2.13889e-16 388142)
(-2.08731e+06 10557.2 -1.67478e-14 12209.2 7.69919e-15 -514873)
(646094 57768.8 3.67196e-14 4817.09 3.08599e-14 161504)
(704949 57969.4 -3.72622e-14 5040.31 8.11306e-14 176163)
(-214579 77188.1 -2.75425e-13 1745.32 -9.83461e-14 -52808.3)
(149288 96701.1 4.8512e-14 9800.1 9.56337e-14 39473)
(-33327.4 67436.7 7.74876e-14 -3364.82 1.17931e-13 -9104.09)
(-859412 -558370 -1.04391e-15 64866.6 4.3959e-16 -197143)
(-2.03025e+06 70159.1 5.49003e-15 1873.31 7.08935e-15 -503281)
(1.80279e+06 36055.5 2.98325e-14 2917.95 -1.47115e-14 448033)
(-2.61411e+06 -44372.8 -7.74765e-15 -7096.34 -3.34069e-15 -650374)
(828976 51886.4 -3.35694e-14 -5864.75 -5.21994e-14 204231)
(575818 47205.6 -5.55009e-14 -4623.01 2.0464e-13 141725)