/*--------------------------------*- C++ -*----------------------------------*\
| =========                 |                                                 |
| \\      /  F ield         | OpenFOAM: The Open Source CFD Toolbox           |
|  \\    /   O peration     | Version:  2.3.1                                 |
|   \\  /    A nd           | Web:      www.OpenFOAM.org                      |
|    \\/     M anipulation  |                                                 |
\*---------------------------------------------------------------------------*/
FoamFile
{
    version     2.0;
    format      ascii;
    class       volScalarField;
    location    "0.84";
    object      nut;
}
// * * * * * * * * * * * * * * * * * * * * * * * * * * * * * * * * * * * * * //

dimensions      [0 2 -1 0 0 0 0];

internalField   nonuniform List<scalar> 
15166
(
9.7247e-05
0.000157299
0.000262295
0.000376506
0.00047672
0.000591367
0.000709544
0.000837762
0.000957388
0.00108041
0.00119717
0.00129734
9.72612e-05
0.000171236
0.000283028
0.000397079
0.000500896
0.000614539
0.000731387
0.000854751
0.000972044
0.00109056
0.00120296
0.00130396
9.76265e-05
0.000182566
0.000299306
0.000414049
0.000520744
0.00063376
0.000749316
0.00086894
0.000984023
0.00109873
0.00120756
0.00130836
9.81015e-05
0.000192714
0.000313183
0.000428682
0.000537418
0.000649873
0.000764155
0.000880788
0.000993742
0.00110517
0.001211
0.00131164
9.86087e-05
0.000201891
0.00032546
0.000441673
0.000551769
0.000663623
0.000776592
0.000890711
0.00100162
0.00111016
0.00121349
0.00131354
9.91563e-05
0.000210145
0.000336471
0.000453335
0.000564308
0.000675479
0.000787125
0.000899048
0.00100796
0.00111394
0.00121504
0.00131437
9.97396e-05
0.000217563
0.000346475
0.000463898
0.000575343
0.000685791
0.000796113
0.00090604
0.00101302
0.00111666
0.00121577
0.00131481
0.000100357
0.000224231
0.000355676
0.000473525
0.000585149
0.000694819
0.000803827
0.000911912
0.00101704
0.00111856
0.00121603
0.00131539
0.000100989
0.000230212
0.000364224
0.000482408
0.000593955
0.000702786
0.00081049
0.000916857
0.00102019
0.00111977
0.00121582
0.00131512
0.000101631
0.000235547
0.00037221
0.00049064
0.000601934
0.000709883
0.000816281
0.000921004
0.00102262
0.00112043
0.00121528
0.00131435
0.000102281
0.000240288
0.000379698
0.000498316
0.000609202
0.000716232
0.000821339
0.000924486
0.00102446
0.00112068
0.00121466
0.00131458
0.000102929
0.000244467
0.000386724
0.000505507
0.000615865
0.000721948
0.000825776
0.000927406
0.00102581
0.00112063
0.00121395
0.00131397
0.000103573
0.000248127
0.000393325
0.000512254
0.000622018
0.000727126
0.000829681
0.000929846
0.00102677
0.00112032
0.00121304
0.00131232
0.000104209
0.000251327
0.000399524
0.000518604
0.000627714
0.000731822
0.000833131
0.000931876
0.00102739
0.00111978
0.0012117
0.0013098
0.000104839
0.000254078
0.000405335
0.000524602
0.000633011
0.000736117
0.000836188
0.00093357
0.00102774
0.00111903
0.00121023
0.00130759
0.000105454
0.000256433
0.000410758
0.000530267
0.000637955
0.000740043
0.000838897
0.000934951
0.00102786
0.00111812
0.00120858
0.00130467
0.000106059
0.000258415
0.000415798
0.000535622
0.000642584
0.000743651
0.000841308
0.000936088
0.00102778
0.00111704
0.00120672
0.00130177
0.000106645
0.000260068
0.000420477
0.000540697
0.000646941
0.00074699
0.000843466
0.000936988
0.00102752
0.00111582
0.00120466
0.00129838
0.000107214
0.000261426
0.000424787
0.000545493
0.000651028
0.000750065
0.000845379
0.000937705
0.00102711
0.00111449
0.00120248
0.00129506
0.000107768
0.000262506
0.000428747
0.000550025
0.000654892
0.000752918
0.000847096
0.000938247
0.00102658
0.00111303
0.0012002
0.00129175
0.000108308
0.000263348
0.000432351
0.000554302
0.000658527
0.000755566
0.000848622
0.000938632
0.00102591
0.00111148
0.00119775
0.00128797
0.000108829
0.000263962
0.000435608
0.000558341
0.000661971
0.000758023
0.000849981
0.000938882
0.00102515
0.00110982
0.00119514
0.00128408
0.000109323
0.000264388
0.000438537
0.000562128
0.000665217
0.000760315
0.000851196
0.000939018
0.00102429
0.00110806
0.00119246
0.001281
0.00010981
0.000264637
0.000441136
0.000565681
0.000668287
0.000762455
0.000852284
0.000939053
0.00102335
0.00110621
0.00118968
0.00127736
0.00011027
0.000264724
0.000443414
0.000569013
0.000671189
0.000764457
0.000853248
0.000938982
0.00102232
0.00110429
0.00118689
0.00127434
0.000110714
0.000264681
0.000445383
0.000572117
0.000673933
0.000766322
0.0008541
0.000938828
0.00102122
0.0011023
0.00118406
0.00127085
0.000111142
0.000264511
0.000447053
0.000574985
0.000676522
0.000768068
0.000854856
0.000938592
0.00102005
0.00110027
0.00118129
0.0012681
0.000111547
0.000264247
0.000448451
0.000577632
0.000678953
0.000769695
0.000855525
0.000938282
0.00101883
0.00109821
0.00117861
0.00126556
0.000111933
0.000263884
0.000449565
0.00058007
0.00068124
0.000771216
0.000856098
0.000937913
0.00101756
0.00109613
0.00117591
0.00126219
0.000112298
0.000263423
0.00045043
0.000582282
0.000683387
0.000772631
0.000856598
0.000937475
0.00101624
0.00109403
0.00117324
0.0012594
0.00011264
0.000262912
0.000451032
0.00058428
0.000685387
0.000773952
0.000857024
0.00093699
0.0010149
0.00109193
0.00117053
0.00125599
0.000112971
0.000262328
0.000451414
0.000586058
0.000687252
0.000775176
0.000857385
0.000936448
0.00101352
0.00108981
0.00116785
0.00125312
0.000113291
0.00026169
0.000451562
0.000587642
0.000688983
0.000776314
0.000857675
0.000935867
0.00101211
0.00108768
0.00116513
0.00124954
0.000113578
0.000261018
0.000451517
0.000589014
0.000690575
0.000777362
0.000857911
0.000935245
0.00101068
0.00108554
0.00116242
0.00124649
0.000113853
0.000260309
0.000451267
0.000590197
0.000692036
0.00077832
0.000858087
0.000934586
0.00100922
0.00108339
0.00115968
0.00124289
0.000114121
0.000259572
0.000450849
0.000591165
0.000693359
0.000779201
0.000858215
0.000933889
0.00100775
0.00108124
0.00115698
0.00124013
0.000114355
0.000258805
0.00045025
0.000591954
0.000694554
0.000779995
0.00085828
0.000933153
0.00100625
0.00107909
0.00115435
0.00123764
0.000114583
0.000258021
0.000449496
0.000592546
0.000695613
0.000780713
0.000858302
0.000932393
0.00100475
0.00107694
0.00115171
0.00123436
0.00011479
0.000257225
0.000448598
0.00059296
0.000696547
0.000781342
0.000858275
0.000931608
0.00100324
0.0010748
0.00114908
0.00123118
0.000114977
0.00025642
0.00044757
0.0005932
0.000697356
0.000781905
0.000858201
0.000930791
0.00100171
0.00107266
0.00114644
0.00122783
0.000115156
0.000255596
0.000446417
0.000593262
0.000698034
0.000782381
0.000858082
0.000929957
0.00100018
0.00107052
0.00114369
0.00122398
0.000115309
0.000254692
0.000445131
0.00059316
0.000698582
0.000782785
0.000857917
0.000929094
0.000998632
0.00106835
0.00114092
0.00122121
0.000115455
0.000253758
0.000443748
0.0005929
0.00069901
0.000783109
0.00085771
0.000928216
0.000997079
0.00106618
0.00113816
0.00121785
0.000115575
0.000252758
0.000442221
0.000592475
0.000699309
0.000783354
0.000857458
0.00092731
0.000995512
0.00106399
0.00113543
0.00121512
0.000115678
0.000251753
0.000440531
0.000591899
0.000699488
0.000783519
0.000857163
0.000926383
0.000993937
0.00106181
0.00113271
0.00121169
0.00011577
0.000250786
0.000438717
0.00059115
0.000699538
0.000783612
0.000856833
0.000925438
0.000992354
0.00105962
0.00113002
0.00120917
0.000115849
0.000249764
0.000436812
0.000590196
0.00069944
0.000783627
0.000856454
0.000924472
0.000990758
0.00105744
0.00112734
0.00120582
0.000115903
0.000248773
0.000434812
0.000589103
0.00069921
0.000783553
0.000856029
0.000923486
0.000989157
0.00105526
0.0011247
0.00120323
0.000115947
0.000247786
0.000432772
0.000587842
0.000698841
0.000783399
0.000855565
0.000922471
0.000987547
0.00105308
0.00112206
0.00120003
0.000115979
0.000246803
0.000430623
0.000586434
0.000698344
0.000783147
0.000855051
0.00092144
0.000985923
0.00105091
0.00111946
0.00119746
0.000116
0.000245863
0.000428417
0.000584887
0.000697721
0.000782823
0.000854489
0.000920387
0.0009843
0.00104873
0.00111681
0.00119389
0.000116003
0.000244885
0.000426158
0.000583184
0.000696956
0.000782397
0.000853877
0.000919305
0.000982666
0.00104657
0.00111417
0.00119056
0.000115992
0.00024396
0.000423857
0.000581377
0.000696065
0.000781887
0.000853215
0.000918209
0.000981028
0.00104441
0.00111158
0.00118828
0.000115973
0.00024304
0.000421517
0.000579426
0.000695037
0.000781292
0.000852509
0.000917089
0.000979386
0.00104226
0.00110902
0.00118557
0.000115934
0.000242129
0.000419146
0.000577359
0.000693884
0.000780601
0.000851748
0.000915944
0.000977739
0.00104012
0.00110651
0.00118291
0.000115878
0.000241225
0.000416747
0.000575185
0.000692608
0.000779811
0.000850932
0.000914775
0.000976088
0.00103799
0.00110399
0.00117958
0.000115819
0.000240375
0.000414332
0.000572907
0.000691197
0.000778934
0.000850067
0.000913581
0.000974428
0.00103587
0.00110148
0.00117671
0.000115742
0.000239493
0.0004119
0.000570511
0.000689667
0.000777964
0.000849136
0.000912361
0.000972772
0.00103376
0.00109893
0.00117304
0.000115649
0.000238663
0.000409456
0.000568024
0.000688004
0.000776884
0.00084816
0.000911122
0.000971112
0.00103166
0.00109642
0.00117111
0.000115554
0.000237847
0.000407038
0.000565477
0.000686242
0.000775722
0.000847113
0.000909844
0.000969435
0.00102955
0.00109392
0.00116836
0.000115439
0.000237067
0.00040458
0.000562824
0.000684351
0.000774455
0.000846009
0.000908542
0.000967755
0.00102744
0.00109143
0.00116527
0.000115308
0.000236263
0.000402121
0.000560095
0.000682333
0.000773084
0.000844838
0.000907202
0.000966062
0.00102535
0.00108893
0.00116183
0.000115168
0.000235511
0.00039967
0.000557299
0.000680224
0.000771619
0.0008436
0.000905835
0.000964362
0.00102326
0.00108644
0.00115891
0.00011502
0.000234772
0.000397258
0.000554417
0.000677992
0.00077005
0.000842303
0.000904435
0.000962657
0.00102117
0.00108391
0.00115547
0.000114857
0.000234076
0.000394823
0.000551502
0.000675659
0.000768387
0.000840934
0.000902998
0.000960936
0.00101908
0.00108139
0.00115265
0.000114689
0.000233387
0.000392431
0.000548532
0.000673212
0.000766627
0.000839494
0.00090153
0.000959207
0.00101698
0.00107885
0.00114941
0.000114484
0.00023269
0.000390047
0.000545491
0.00067068
0.000764762
0.000837989
0.000900019
0.000957455
0.00101488
0.00107633
0.00114676
0.000114311
0.000232048
0.000387696
0.000542424
0.00066805
0.000762801
0.000836415
0.000898468
0.000955691
0.00101277
0.00107379
0.00114349
0.000114091
0.000231426
0.000385356
0.00053932
0.000665314
0.000760738
0.00083476
0.000896873
0.000953901
0.00101066
0.00107127
0.00114056
0.00011385
0.000230822
0.00038304
0.000536173
0.000662508
0.000758588
0.000833031
0.000895236
0.000952099
0.00100854
0.00106871
0.00113718
0.000113623
0.000230211
0.000380762
0.000532979
0.0006596
0.000756337
0.000831232
0.000893547
0.000950269
0.0010064
0.00106617
0.00113428
0.000113378
0.000229696
0.000378494
0.000529774
0.000656617
0.000753979
0.000829356
0.000891812
0.000948415
0.00100425
0.00106359
0.00113082
0.000113124
0.000229118
0.000376302
0.000526585
0.000653567
0.000751537
0.000827393
0.000890028
0.000946538
0.00100209
0.00106099
0.00112744
0.000112852
0.000228627
0.00037406
0.000523311
0.000650401
0.000748984
0.000825342
0.000888186
0.000944623
0.00099992
0.00105839
0.00112441
0.000112572
0.000228153
0.000371924
0.000520064
0.000647209
0.000746352
0.000823229
0.000886292
0.000942688
0.000997734
0.0010558
0.00112115
0.000112253
0.000227634
0.000369795
0.000516791
0.000643925
0.000743635
0.000821028
0.000884352
0.000940722
0.000995532
0.00105321
0.00111842
0.000111952
0.000227184
0.000367721
0.000513525
0.000640571
0.000740814
0.000818742
0.000882339
0.000938712
0.000993312
0.0010506
0.00111513
0.000111658
0.000226808
0.000365696
0.000510247
0.000637169
0.0007379
0.000816374
0.000880277
0.000936675
0.00099107
0.00104798
0.00111222
0.000111321
0.000226384
0.000363691
0.000506979
0.000633704
0.000734911
0.000813924
0.000878152
0.000934591
0.000988808
0.00104533
0.00110884
0.000110958
0.000226003
0.000361739
0.000503706
0.000630197
0.000731832
0.00081139
0.000875963
0.000932473
0.000986515
0.00104271
0.00110615
0.000110615
0.000225655
0.000359799
0.000500453
0.000626629
0.000728664
0.000808768
0.000873702
0.000930311
0.000984196
0.00104005
0.00110298
0.000110247
0.000225317
0.000357946
0.000497191
0.000623002
0.0007254
0.000806069
0.000871374
0.000928097
0.000981851
0.00103736
0.00109941
0.000109868
0.000225012
0.000356143
0.000493966
0.000619353
0.000722083
0.000803273
0.000868977
0.000925836
0.000979486
0.00103466
0.00109611
0.000109479
0.000224728
0.000354367
0.000490769
0.000615657
0.000718677
0.000800391
0.000866503
0.000923527
0.000977084
0.00103197
0.00109342
0.000109077
0.000224463
0.000352644
0.000487594
0.000611915
0.000715196
0.000797432
0.000863957
0.000921167
0.000974656
0.00102925
0.0010902
0.000108636
0.000224205
0.000350959
0.000484399
0.000608173
0.000711647
0.000794375
0.000861351
0.00091875
0.000972184
0.00102654
0.00108739
0.000108212
0.00022398
0.000349324
0.000481257
0.000604391
0.000708005
0.000791242
0.000858651
0.000916282
0.000969685
0.00102379
0.00108394
0.000107772
0.000223783
0.000347748
0.000478171
0.000600555
0.000704306
0.000788005
0.000855875
0.000913762
0.000967157
0.00102106
0.00108116
0.000107318
0.000223615
0.000346226
0.000475106
0.000596736
0.000700527
0.00078468
0.000853019
0.000911173
0.000964594
0.00101833
0.00107844
0.000106852
0.000223469
0.000344719
0.000472052
0.000592878
0.000696678
0.000781276
0.000850078
0.000908508
0.000961973
0.0010156
0.00107612
0.000106372
0.000223349
0.000343312
0.000469078
0.000589032
0.000692798
0.000777788
0.000847064
0.000905794
0.000959329
0.00101283
0.00107239
0.000105881
0.00022326
0.000341961
0.000466112
0.000585153
0.00068883
0.000774224
0.000843968
0.000903014
0.000956651
0.00101006
0.00106947
0.000105348
0.000223135
0.000340625
0.000463199
0.000581278
0.000684815
0.000770572
0.000840777
0.000900162
0.000953926
0.00100721
0.00106589
0.000104856
0.000223116
0.000339358
0.000460343
0.000577402
0.000680722
0.000766829
0.0008375
0.00089724
0.000951143
0.00100432
0.0010626
0.000104295
0.000223054
0.000338156
0.000457541
0.000573513
0.00067662
0.000762995
0.000834128
0.000894251
0.000948306
0.00100136
0.00105891
0.000103748
0.00022304
0.000337022
0.000454806
0.000569672
0.000672441
0.000759086
0.000830677
0.000891178
0.000945404
0.000998376
0.00105587
0.000103187
0.000223017
0.000335916
0.000452099
0.000565817
0.00066823
0.000755093
0.000827126
0.000888018
0.000942432
0.000995308
0.00105218
0.000102609
0.000223081
0.000334884
0.000449466
0.000561986
0.000663959
0.000751011
0.000823497
0.00088478
0.00093941
0.000992237
0.00104901
0.000101991
0.000223064
0.000333922
0.000446903
0.000558159
0.000659682
0.00074686
0.000819767
0.000881465
0.000936311
0.000989076
0.00104533
0.000101383
0.000223152
0.000332992
0.00044438
0.000554366
0.000655333
0.000742634
0.000815927
0.000878046
0.000933143
0.000985932
0.00104248
0.000100761
0.000223234
0.000332143
0.000441944
0.000550617
0.000650992
0.000738319
0.000812
0.000874538
0.000929886
0.000982722
0.00103902
0.000100122
0.000223361
0.000331372
0.000439557
0.000546883
0.000646609
0.000733944
0.000807993
0.000870944
0.00092658
0.000979432
0.00103519
9.94669e-05
0.000223526
0.000330635
0.000437262
0.000543205
0.000642217
0.000729487
0.000803875
0.000867253
0.00092319
0.000976117
0.00103191
9.8796e-05
0.000223684
0.000329985
0.00043506
0.000539553
0.000637793
0.000724973
0.000799668
0.000863457
0.000919711
0.000972772
0.00102882
9.80813e-05
0.000223827
0.000329375
0.000432919
0.000535965
0.000633351
0.0007204
0.000795354
0.000859564
0.000916157
0.000969361
0.0010251
9.7375e-05
0.000224034
0.000328851
0.000430843
0.000532415
0.000628923
0.000715753
0.000790957
0.000855577
0.000912512
0.000965894
0.00102165
9.66239e-05
0.000224223
0.000328371
0.000428879
0.00052895
0.000624512
0.000711039
0.000786453
0.000851473
0.000908771
0.000962295
0.00101763
9.58793e-05
0.000224482
0.00032799
0.000427027
0.000525542
0.000620096
0.000706286
0.000781848
0.000847258
0.000904924
0.000958599
0.0010135
9.51477e-05
0.000224818
0.000327661
0.000425221
0.000522223
0.000615688
0.000701474
0.000777165
0.000842943
0.000900975
0.000954845
0.00100977
9.4344e-05
0.000225072
0.000327391
0.000423573
0.000518975
0.000611318
0.000696618
0.0007724
0.000838511
0.000896914
0.000950941
0.00100556
9.35411e-05
0.000225401
0.000327221
0.000421975
0.000515803
0.000606971
0.000691741
0.000767516
0.00083396
0.000892742
0.00094701
0.00100193
9.27217e-05
0.000225785
0.000327106
0.000420509
0.000512752
0.000602683
0.000686827
0.000762567
0.000829309
0.000888459
0.00094298
0.000997723
9.18544e-05
0.00022611
0.000327091
0.000419146
0.000509784
0.000598408
0.000681904
0.000757532
0.000824545
0.000884091
0.000938885
0.00099343
9.09888e-05
0.000226519
0.000327147
0.000417922
0.000506921
0.00059421
0.000676933
0.000752423
0.000819652
0.00087956
0.000934612
0.00098956
9.01047e-05
0.000226988
0.000327226
0.000416768
0.000504167
0.000590072
0.000671971
0.000747204
0.000814622
0.000874878
0.0009302
0.000985022
8.91987e-05
0.000227424
0.00032747
0.000415775
0.000501572
0.000586038
0.000667011
0.000741939
0.000809499
0.000870092
0.000925724
0.000980889
8.82681e-05
0.000227938
0.000327746
0.00041491
0.000499103
0.000582068
0.000662087
0.000736616
0.000804254
0.000865143
0.000921065
0.000976095
8.72852e-05
0.0002284
0.000328148
0.000414208
0.000496782
0.000578231
0.000657164
0.000731233
0.000798887
0.000860094
0.000916356
0.000971704
8.62711e-05
0.00022893
0.000328583
0.000413603
0.000494614
0.000574509
0.000652316
0.000725836
0.000793442
0.000854902
0.000911494
0.000966786
8.52873e-05
0.000229571
0.000329163
0.000413179
0.000492618
0.000570917
0.000647495
0.000720384
0.000787911
0.0008496
0.000906502
0.000961753
8.42599e-05
0.000230179
0.00032983
0.000412885
0.000490829
0.00056748
0.000642774
0.000714914
0.000782245
0.000844105
0.000901232
0.000956731
8.31699e-05
0.000230801
0.000330597
0.000412786
0.000489201
0.000564213
0.000638149
0.000709463
0.000776493
0.000838467
0.000895842
0.000951301
8.20442e-05
0.000231448
0.000331465
0.000412852
0.000487788
0.000561141
0.000633639
0.00070401
0.000770678
0.000832717
0.000890372
0.000946314
8.09434e-05
0.000232225
0.000332439
0.000413079
0.00048663
0.000558279
0.000629256
0.000698617
0.000764792
0.000826792
0.000884633
0.000940338
7.97683e-05
0.000232954
0.000333534
0.000413532
0.000485689
0.00055566
0.00062507
0.000693267
0.000758861
0.000820756
0.000878718
0.000934472
7.85466e-05
0.000233721
0.000334752
0.000414197
0.000485042
0.000553315
0.000621092
0.000688037
0.000752907
0.000814583
0.000872578
0.00092807
7.73436e-05
0.00023462
0.000336096
0.000415053
0.000484658
0.000551263
0.000617329
0.000682913
0.000746962
0.000808309
0.000866271
0.000921616
7.60619e-05
0.000235477
0.000337585
0.00041618
0.000484597
0.000549549
0.00061387
0.000677964
0.000741039
0.00080192
0.000859767
0.000914834
7.47529e-05
0.000236394
0.000339215
0.000417537
0.000484885
0.000548198
0.000610701
0.000673212
0.000735151
0.000795426
0.0008531
0.000908451
7.33796e-05
0.000237323
0.000340979
0.000419213
0.000485548
0.000547241
0.000607909
0.000668683
0.000729303
0.000788821
0.000846167
0.000901186
7.19765e-05
0.000238304
0.000342956
0.000421179
0.000486635
0.00054675
0.000605483
0.000664409
0.000723552
0.000782141
0.00083907
0.000894083
7.04969e-05
0.000239238
0.000345094
0.000423491
0.000488138
0.000546684
0.000603435
0.000660389
0.000717906
0.00077536
0.000831697
0.000886191
6.89687e-05
0.000240225
0.000347414
0.000426113
0.000490047
0.000547042
0.000601772
0.000656611
0.000712291
0.000768433
0.000823985
0.000878215
6.73689e-05
0.00024109
0.000349835
0.000429058
0.00049229
0.000547756
0.000600475
0.00065319
0.000706888
0.000761475
0.000816047
0.000870125
6.54095e-05
0.000240135
0.000350261
0.000430897
0.000493423
0.000547706
0.000598649
0.000649557
0.000701299
0.000754705
0.00080813
0.000861648
0.000477625
0.00154683
0.00164149
0.0018833
0.00188492
0.000625871
0.000613841
0.000464321
0.0013761
0.00206053
0.00381321
0.00201918
0.00424155
0.00142694
0.000567017
0.00133217
0.00149821
0.00504311
0.00502782
0.00131829
0.00073102
0.000492688
0.00739137
0.00354942
0.000478409
0.00164349
0.000573837
0.000779505
0.00194353
0.00122971
0.00178258
0.000336194
0.00146245
0.00377776
0.00412584
0.00106547
0.000154621
0.00157189
0.000467559
0.00207225
0.00186929
0.00129258
0.00387007
0.00106131
0.000274027
0.000494747
0.00578652
0.00374698
0.000277098
0.000735446
0.00106628
0.000466838
0.000338035
0.00124158
0.00165001
0.0015068
0.00238908
0.00129193
0.00157224
0.000564831
0.000622511
0.000337193
0.00124141
0.00286702
0.00424889
0.00152312
0.000936329
0.000318486
0.000656896
0.00227761
0.0017223
0.00532163
0.000465859
0.00110072
0.00357806
0.00127029
0.00138912
0.00123815
0.00560974
0.000466713
0.0045607
0.00123973
0.000196636
0.000382636
0.00285221
0.00160582
0.000937822
0.00124135
0.00264801
0.000197737
0.000577055
0.00147254
0.00124139
0.00140645
0.000350384
0.00127365
0.000778001
0.00163165
0.00124229
0.000946853
0.00076538
0.00324345
0.00128879
0.00148709
0.00123884
0.000350445
0.000356983
0.000422456
0.00132741
0.000249025
0.001524
0.00123993
0.000445638
0.00136814
0.00124078
0.0005213
0.00316045
0.00225873
0.00155344
0.00429896
0.000786518
0.00378457
0.00147424
0.00360574
0.00443924
0.00281828
0.00141303
0.00026077
0.00404266
0.00124136
3.92605e-05
0.00124223
5.60457e-05
0.00148728
0.000568719
0.00163241
0.000172471
0.0024199
0.000447284
0.00175203
0.00297183
0.000688419
0.000461394
0.000452976
8.77533e-05
0.00163224
0.00046625
0.00152495
0.00141031
0.000579257
0.000631013
0.000514624
0.0012418
0.00445307
0.00357708
0.00124362
0.000443123
0.00126919
0.00165584
0.00192959
0.00368901
0.00133707
0.00452643
0.00261237
0.000775055
0.00335992
0.000277182
0.00025395
0.000547985
0.0012374
0.00156014
0.0010933
0.00164572
0.00304979
0.00123866
0.0016059
0.00123854
0.000411625
0.00236983
0.00134199
0.000277211
0.00524985
0.00426958
0.000470471
0.00129841
0.000461952
0.00125536
0.00124028
9.18981e-05
0.00124087
0.0023221
0.001245
0.000396102
0.00156055
0.000450181
0.000557823
0.000612001
0.000538684
0.00123982
0.00221414
0.00146681
0.000461421
0.000281457
0.000463171
0.000472615
0.0069768
0.00416406
0.0031728
0.00113402
0.00271709
5.35176e-05
0.00138615
0.000468359
0.000412801
0.00123977
0.000468239
0.00251428
0.0014676
0.00222998
0.000189833
0.000385302
0.00146495
0.000420427
0.00124826
0.00125143
0.00277329
0.00160213
0.00126904
0.00107197
0.00413821
5.24769e-05
0.00445565
0.00124159
0.000907373
0.00150162
0.000474632
0.000464782
0.00148609
0.001118
0.000455824
0.0042469
0.00595254
0.00434358
0.00268289
6.46244e-05
5.38287e-05
5.64314e-05
0.001321
0.00390612
0.000466594
0.00221533
0.0011023
0.00233165
0.00035048
0.000231853
0.00283618
0.000989153
0.000452964
0.00207409
0.00042709
0.00271419
0.000473049
0.00294755
0.00416276
7.28881e-05
0.000469316
0.00131021
0.000477135
0.00146527
0.0012171
0.00069508
0.00526212
0.00138539
4.49103e-05
4.56761e-05
0.00139016
0.000175648
5.76236e-05
0.000281534
0.000137118
0.000377627
0.000172893
0.000466165
0.000471051
0.00134398
0.000609928
0.00161862
4.73285e-05
0.00131389
0.000762897
0.000136536
0.00146623
4.63308e-05
4.60208e-05
0.000445247
0.000397742
0.00190269
4.48806e-05
0.00586001
0.000380886
0.000461394
0.000994819
0.000499059
0.00177755
0.00376474
0.00151609
0.000286035
0.00124093
0.00528843
0.00475319
0.00566182
0.000184242
0.0012456
0.00129319
0.000460601
0.00434294
4.91546e-05
0.00121454
0.0012398
8.29446e-05
0.00463791
0.00208211
0.00149694
0.000236515
0.000453412
0.00121389
0.00141583
0.00124132
0.00125526
0.000182929
0.00133376
0.00124749
0.00217819
0.0012417
0.00125458
0.00126456
0.00123871
0.00764789
0.00124194
0.00173197
0.000788583
0.00047367
0.00124211
0.000528242
0.00229607
4.55399e-05
5.33956e-05
0.00164927
0.00140465
0.00138218
0.00123749
0.00126828
0.00634813
0.00228176
4.08553e-05
0.00123871
0.00493687
0.000366205
0.00134829
0.00236132
0.00010255
0.000267047
0.00132944
0.00148966
0.000856916
0.00191846
0.00135659
0.00124134
0.00141442
0.00145326
0.00501591
9.62818e-05
0.000453601
0.000134142
0.00147807
0.000632259
0.000463714
0.00140274
0.00125299
0.00177547
0.00102559
0.00165107
0.00126005
0.000469775
0.000349577
0.000599694
0.00124573
0.00431287
0.000542461
0.00379977
0.00126072
0.00117564
0.00191941
0.000393468
0.000445493
0.00137527
0.00142174
0.00124395
0.00300006
0.00141623
0.00185328
0.00237674
0.000899173
0.00217973
0.00393165
0.00016874
0.00139599
0.00147172
6.47274e-05
0.000422419
0.00124076
0.00124943
0.00124196
0.00129657
0.0060765
0.000455013
0.000128265
0.000538584
0.00052814
0.00125603
0.000246728
0.000467812
0.00123811
0.00124764
0.000456548
0.00124636
0.00271303
0.00137135
0.000449709
0.00123756
0.00197641
0.00424358
0.0050607
0.000460694
0.00464048
0.00123831
0.00124226
0.00116353
0.00132618
0.0025375
0.000289141
4.03098e-05
0.00194495
0.000458303
0.00190516
0.000988413
0.00132735
0.000443228
0.00154542
0.00123901
0.00198189
0.000460668
5.42864e-05
0.00221356
0.00199189
0.000692249
0.00163567
4.75738e-05
0.000423028
0.00443694
0.000525099
0.00342172
0.00498925
0.00245744
0.00132432
0.00130101
0.00176559
0.000694521
0.00057478
5.90292e-05
0.00359496
0.00028198
9.54026e-05
0.00123922
0.0017912
0.00133627
0.000443636
0.00123871
0.000327218
0.000883834
0.000387068
0.000203131
0.000468798
0.00245078
0.00442174
9.3991e-05
5.01922e-05
0.00134098
0.00311193
0.00124799
0.00420528
0.000908887
0.000318351
0.0013831
0.00424926
0.000157882
0.00107379
0.00116554
0.000470245
0.000224124
0.0012293
0.000480813
0.000311422
0.00127065
0.00345087
0.000401071
0.000707622
0.00137071
0.000190147
0.00185893
0.000449844
0.00127826
0.000947043
0.00336595
0.00124133
0.000663569
4.11972e-05
0.0012505
0.00150216
0.00216047
0.00428601
0.0014671
0.0012721
0.000466443
0.00124136
0.000293022
0.00149698
4.44024e-05
9.39232e-05
0.00186647
4.71798e-05
0.000816936
0.00125196
0.00159293
0.0012688
0.00405314
0.00134903
0.000379063
0.000447742
0.00193734
0.00134524
0.00369412
0.0017809
0.00262975
0.00173348
0.00123896
0.00466699
0.00123871
0.00572593
0.000559723
0.00452919
0.000975774
0.000650451
0.000434112
0.0048995
0.00318954
0.000456654
6.86798e-05
0.0012414
0.00124143
0.0010877
0.000717472
0.000388966
0.00243684
0.00535642
0.00129776
0.000328146
0.00123742
0.0042098
0.000473565
0.00158208
0.00127893
0.000492956
0.000103942
0.00038886
0.00259334
0.00123876
0.00341858
0.00124288
0.00139929
0.00296272
0.000369115
0.00159856
0.00125422
0.00141092
0.0058999
0.000418658
0.00092001
0.00139159
0.000220896
0.00423707
0.00124154
0.000571746
8.15622e-05
0.000458924
0.00328203
0.00123742
0.00146019
0.0013013
0.000464644
0.00124777
0.000729017
0.00105034
0.0012778
0.00179152
0.00039685
0.00137054
0.000986885
0.00117329
0.00134804
0.000761268
0.00490605
0.0033839
0.00123903
0.00124142
0.00159769
0.000460249
0.000471999
0.000461585
0.00158542
0.000768048
0.0039366
0.00118917
0.000470763
0.00139829
0.00250049
0.000326107
0.00123754
0.00209974
0.000280579
0.000277413
0.00126718
0.00124626
6.88e-05
0.000184912
0.00133134
0.00397779
0.000822705
0.000414272
0.00125256
3.52958e-05
0.000691008
0.000703594
0.00168526
0.00104678
0.000862797
0.00141281
0.00128687
0.000450121
0.000132834
0.00126266
0.001242
0.00141232
0.00116848
0.00156353
0.00123993
0.00215138
0.00124132
0.001175
0.000499977
0.0048626
0.00124663
0.00147284
0.00062479
0.000356312
0.00199831
0.000194869
0.00743586
0.000805158
0.00137204
0.00124096
0.00309955
0.00140925
0.000230111
0.00153709
0.00175615
0.0023915
0.0022736
0.000133185
0.00123984
0.000777785
0.00117695
0.000458741
0.00128732
0.00491294
0.000365935
0.000311561
0.00187603
0.00520509
0.0015457
0.000466015
0.0025519
0.000467526
0.00124066
0.00198423
0.00130399
0.00123736
0.000104211
0.00124154
4.68267e-05
0.00230002
0.00110972
0.00127198
0.00119179
0.000422913
0.00183841
0.00151094
0.00129925
0.00620663
0.00223154
0.00281351
0.00505676
0.00159933
0.00123916
0.00124153
0.00046574
0.0057189
5.87674e-05
0.000530493
0.00127956
4.63518e-05
4.06659e-05
4.4744e-05
0.00302805
0.00069611
3.75987e-05
0.00124133
0.000133
0.000125624
0.000464724
0.0012423
0.00242382
0.00144261
0.000112583
0.00124314
0.00165924
0.00123911
0.00522688
0.00223496
0.00132999
0.000452504
0.00123978
0.00449211
0.000418491
0.00124246
0.00142681
0.00124071
0.00138463
0.00308403
0.00128378
0.00113347
0.00256234
0.000463319
0.00124019
0.00106999
0.00124199
0.000615918
0.0026712
0.00350414
0.000517375
0.00277025
0.00161245
0.00125876
0.0001575
0.00100829
0.00117854
5.34047e-05
0.000499181
0.00123809
0.000129265
0.000601865
0.000756498
0.00102528
0.00121074
0.00139711
0.000476387
0.00434701
0.00124024
0.00363675
0.00143454
0.00350368
0.000133477
0.000766057
0.00125484
0.000220361
0.000385901
0.00137355
0.0018834
0.00130929
0.00060872
0.000992414
0.00119472
0.00413345
0.00173555
0.000293886
0.000185921
0.00428805
0.000152875
0.00124855
5.08508e-05
0.00158819
0.00127988
0.00146928
0.00113013
0.00102274
0.00612248
0.00135208
0.00324187
0.00292179
0.00140577
0.0028915
0.00273599
0.00124195
0.00150666
0.00470105
4.41383e-05
0.000470038
4.463e-05
0.000723913
0.00189321
0.00108918
0.00124071
0.00124168
0.000444006
0.00663032
0.00134056
0.00156293
0.00123761
0.00160991
0.00252648
0.00514445
0.00130619
0.00160463
0.00146683
0.00209097
0.0013617
0.00549656
0.000391465
0.000543107
0.00124068
0.000542105
0.00145141
0.00168635
0.00217161
4.80265e-05
0.00364357
0.00212278
0.000676689
0.00402908
0.00242832
0.00396707
0.00566284
0.00130184
3.94155e-05
0.00124135
0.00129346
0.000441247
0.00281386
0.00270461
0.00108821
0.000430431
0.00124163
0.00124152
0.0014822
0.000129608
0.00138071
0.0012381
0.00134087
0.00272489
0.000465622
0.00137867
5.29861e-05
0.00116575
0.00166897
0.000366219
0.00125657
0.00130748
0.000124614
0.000378812
0.00015402
0.00124388
0.00123962
0.00109337
0.00161134
0.00236022
0.00127085
0.00124034
0.0042544
0.00126164
0.00181647
0.00304251
0.00558823
0.00243864
0.00153031
0.000438038
5.52299e-05
0.000461199
0.00200697
0.00124288
0.000283306
0.0012727
0.000262693
0.00124124
0.00181404