/*--------------------------------*- C++ -*----------------------------------*\
| =========                 |                                                 |
| \\      /  F ield         | OpenFOAM: The Open Source CFD Toolbox           |
|  \\    /   O peration     | Version:  2.3.1                                 |
|   \\  /    A nd           | Web:      www.OpenFOAM.org                      |
|    \\/     M anipulation  |                                                 |
\*---------------------------------------------------------------------------*/
FoamFile
{
    version     2.0;
    format      ascii;
    class       volScalarField;
    location    "3200";
    object      sigmaEq;
}
// * * * * * * * * * * * * * * * * * * * * * * * * * * * * * * * * * * * * * //

dimensions      [1 -1 -2 0 0 0 0];

internalField   nonuniform List<scalar> 
11800
(
176405
126834
575845
489515
122727
344424
165159
179122
191488
204388
175154
699020
90603.6
518626
443452
1.92695e+06
129306
129121
232861
141521
390260
631684
841473
753748
1.57852e+06
990999
1.02775e+06
510459
1.12059e+06
1.21465e+06
340127
120963
991889
133641
139455
327561
141271
1.05709e+06
140332
150351
1.06522e+06
1.16153e+06
536359
1.2598e+06
358754
1.80422e+06
805057
937712
165923
242976
733158
517824
137824
222422
2.05611e+06
1.69499e+06
67796.2
480069
374030
359400
1.69101e+06
151088
381417
314099
1.54796e+06
233846
753896
535963
67713.7
916387
141326
118043
114097
1.62248e+06
1.67453e+06
318446
1.61664e+06
221553
178937
183237
2.09052e+06
126213
122936
125326
125885
1.17063e+06
364851
1.07793e+06
987811
531697
136436
1.1809e+06
154244
64685.5
187396
154525
20027.4
154468
138976
615209
79215.5
677846
1.12091e+06
389365
147452
330827
182713
159367
1.64978e+06
1.08582e+06
1.17939e+06
995023
369933
539520
222438
1.48987e+06
218140
145195
1.39915e+06
210948
203116
166678
184403
141881
151455
136557
138857
138397
99911.1
29360.5
1.89985e+06
1.26262e+06
395541
1.17347e+06
566130
1.07832e+06
987029
346518
1.00448e+06
491064
923099
845212
507050
195941
243951
330100
1.20765e+06
1.23783e+06
706219
373991
207056
199442
138563
260402
238128
186373
469884
645963
1.29042e+06
144274
1.89549e+06
230631
1.64597e+06
474502
515945
558821
282916
214946
2.04331e+06
1.2684e+06
448429
616631
156593
369704
368288
1.80388e+06
1.82354e+06
960814
880903
1.04387e+06
470902
323836
251696
204708
445754
215701
335043
153559
172648
163197
240741
224504
213571
200157
913611
1.16189e+06
1.67943e+06
126009
221226
1.97675e+06
138744
284465
318805
142790
147449
841283
704293
646929
535681
1.89758e+06
581583
857878
2.58412e+06
2.15211e+06
2.19177e+06
341203
131814
825353
756161
694262
261604
374104
130991
130147
230191
138738
1.25127e+06
255054
140651
464061
211770
175486
139747
650130
663788
2.57996e+06
1.24933e+06
221960
232286
1.13991e+06
933194
324136
470428
1.044e+06
964107
883775
146763
1.13361e+06
396317
544141
509973
154591
127961
407740
359911
147580
2.18867e+06
281993
324405
234312
269444
694035
756357
819657
372929
263575
140781
1.66323e+06
160564
85194.4
137944
409651
151634
535767
1.94303e+06
385046
381661
576443
417764
480893
350222
1.19122e+06
996417
318711
397405
254684
305101
549576
721630
266884
1.1695e+06
1.2546e+06
1.51012e+06
170710
380926
378641
1.74398e+06
1.76032e+06
1.04608e+06
1.02946e+06
1.06766e+06
1.05689e+06
135539
92599.3
288568
2.26377e+06
123507
129776
298387
246358
262913
914265
935803
1.56354e+06
2.19367e+06
683733
184156
873386
721636
504803
412269
165254
172677
258635
457142
240754
423001
126913
168846
163372
145841
1.24633e+06
163797
129219
1.82113e+06
306612
698108
770871
750884
948437
913097
105534
104474
631821
825793
571412
1.48002e+06
121008
816001
635237
415777
314598
310355
238486
316789
274104
362515
397843
429475
155003
138942
761371
807958
179365
220915
455455
384496
432676
197633
185560
231731
235881
887197
426153
315722
356678
1.06215e+06
1.23435e+06
342654
196136
185608
248276
231099
432125
501931
409084
480221
376776
442430
334023
316537
647190
326940
716030
1.23429e+06
618278
453559
2.00876e+06
135482
1.29634e+06
635517
462272
1.93407e+06
143635
1.32748e+06
328760
1.12095e+06
1.03448e+06
1.00551e+06
187664
85289.9
124590
2.32045e+06
2.00655e+06
885845
316790
427373
176809
230107
262152
145229
205524
1.53541e+06
61926.9
545742
417544
1.69549e+06
107593
173959
148757
149234
148066
149666
1.69726e+06
566232
228242
651301
599166
550782
116699
1.26497e+06
412383
575613
164963
837388
182866
1.62415e+06
135092
193475
471650
434666
400056
849270
226120
472496
419100
221909
655115
713819
775156
373178
269360
64956.1
167696
185729
2.10768e+06
715863
564478
409266
336702
180416
150228
110303
110773
189449
99683.4
115127
124385
160706
321530
145953
189492
568780
684633
323114
1.50646e+06
198333
356995
150554
175760
1.45846e+06
1.9019e+06
591173
643671
237434
211123
120299
1.27736e+06
1.84633e+06
1.63348e+06
2.36561e+06
762090
532409
699665
120532
180799
166582
185179
693510
143716
141769
122742
175416
1.27564e+06
283429
1.28478e+06
771201
166329
212704
1.05937e+06
1.33022e+06
689345
751439
812479
369010
261844
627675
141234
142286
138950
158767
126941
185096
96474.4
178343
95680.5
175593
85204.2
171333
157107
163975
113232
1.4607e+06
227325
240665
536769
855496
119052
149761
129359
126267
112571
280975
404802
129192
128229
558187
119528
177815
1.58605e+06
79874.7
160670
494757
455112
477087
517457
531182
560774
261760
197757
1.83047e+06
2.26952e+06
467576
86127.3
332893
327694
356516
254286
760916
702524
644726
167874
83571.6
734294
688087
306774
340085
172658
586768
638277
223803
1.03334e+06
1.04631e+06
1.05857e+06
1.04942e+06
1.79158e+06
1.75303e+06
548834
2.15113e+06
771343
136450
1.50394e+06
1.30883e+06
1.42654e+06
726248
294741
319330
181074
1.52769e+06
501291
633453
2.27625e+06
204320
249651
499059
481594
1.26665e+06
654406
1.89272e+06
135222
132288
259986
369770
821756
754221
692220
1.74109e+06
148531
377233
811446
1.23976e+06
132491
2.04122e+06
1.90957e+06
1.97369e+06
229133
310714
119443
2.01803e+06
574660
234099
396110
1.88786e+06
144472
236485
251515
140326
465704
283741
2.31888e+06
2.02122e+06
197867
572188
731511
279901
329681
247323
218937
620088
189589
564861
418254
1.0745e+06
942404
166333
1.2354e+06
139970
386376
474474
1.65693e+06
312556
424454
237823
197412
181023
211292
401656
938278
1.03405e+06
138879
134689
135318
179603
335670
1.25273e+06
114117
428758
773195
601745
217956
1.02565e+06
1.137e+06
735780
1.23956e+06
1.34584e+06
555093
365001
157513
185554
347601
370862
322648
355887
187904
328143
383780
226566
139828
2.34945e+06
1.00353e+06
376497
507406
469193
228340
404905
589988
1.27559e+06
1.17352e+06
1.07442e+06
331133
390856
196930
209021
1.46305e+06
1.08379e+06
1.24568e+06
150339
196471
275554
645371
1.43892e+06
457966
92026.8
151848
2.14142e+06
2.01294e+06
240158
1.8438e+06
112575
158846
119890
697039
126703
219507
245079
1.28867e+06
1.40494e+06
1.52441e+06
1.64831e+06
739877
630127
524079
414123
188826
133933
406534
2.01941e+06
142778
139750
151506
145112
150568
156702
162697
1.56429e+06
790762
803091
471670
876644
954237
334425
1.11967e+06
268268
223613
148849
2.11696e+06
140007
166022
159498
166102
139679
1.92667e+06
269877
267644
1.04226e+06
337391
712288
255804
1.96193e+06
854786
424853
318612
1.32385e+06
471172
184159
155531
138685
134763
230378
254886
243157
175538
479445
156247
136765
829636
927405
120103
588793
845644
717812
972617
1.82732e+06
1.68698e+06
1.54863e+06
1.41173e+06
588452
716888
1.83122e+06
1.6905e+06
844718
1.55219e+06
972350
1.41492e+06
1.63993e+06
155548
134693
147144
239454
519590
1.14659e+06
141152
431900
588931
467716
641309
191961
245968
427018
622730
1.33824e+06
1.23102e+06
1.12677e+06
534439
397371
1.00371e+06
205573
259127
166510
334801
310625
282219
573754
449048
461481
343338
133287
699657
193305
351250
432957
1.07607e+06
580885
679151
554129
202631
261706
184673
163139
155651
177817
604252
511487
142699
211778
229832
469828
1.40957e+06
459327
642744
493214
158933
220374
207048
190785
259083
188667
624153
573999
523688
206697
1.53541e+06
706822
217712
941890
633214
1.35369e+06
1.85356e+06
228405
254958
214502
148734
156663
750025
638698
1.92939e+06
131623
183886
352609
518933
227091
141942
757122
748974
61987.3
138101
365733
297177
92228.3
1.68465e+06
1.85233e+06
302131
123273
274886
384679
820654
691972
754629
2.11575e+06
136827
593765
668498
165671
611654
746932
881014
1.01288e+06
1.91367e+06
1.76729e+06
1.62261e+06
1.47996e+06
611148
745818
1.91639e+06
1.7694e+06
878849
1.62498e+06
1.01189e+06
1.48178e+06
1.79711e+06
1.54876e+06
1.16818e+06
488088
557062
1.54788e+06
1.15558e+06
338862
122270
117211
1.15391e+06
2.04048e+06
155018
419533
1.6886e+06
1.15227e+06
1.85414e+06
1.89077e+06
1.19762e+06
1.20134e+06
550450
437726
571015
249757
182424
305061
158727
190536
229954
195988
417440
1.97627e+06
570385
196846
120083
367279
394298
1.79397e+06
372966
337073
425187
451643
1.1612e+06
544693
394622
1.5033e+06
422299
547959
200364
167623
382404
329752
356378
887997
570794
553630
1.34578e+06
1.28738e+06
547207
577101
1.0164e+06
1.09202e+06
408840
427862
138526
184788
193423
556900
433302
76437.3
165305
189044
652731
622171
335027
649519
502927
201011
124856
125372
521789
1.24974e+06
125981
1.85172e+06
266929
740684
679722
212450
265049
442607
150123
130086
1.57134e+06
393991
1.01625e+06
936708
859209
315929
457384
166104
1.43246e+06
1.87369e+06
175105
147026
1.0291e+06
374745
509956
881386
960923
1.05428e+06
320031
461536
62849.3
756889
389771
1.86607e+06
320594
1.07615e+06
884313
991754
142396
144566
146333
156763
156257
138459
1.55251e+06
477603
181092
211330
232782
262062
323914
359538
737996
714994
680580
657150
604131
624641
1.09367e+06
167342
140396
137193
182536
209457
149486
167692
1.29867e+06
265656
483369
407612
1.05187e+06
550382
195138
203850
453659
352145
624546
511373
1.26237e+06
1.1046e+06
1.01707e+06
931641
518319
1.45613e+06
714355
1.46077e+06
257348
215323
277501
271049
189982
174883
187762
1.47885e+06
1.93491e+06
341177
117092
253865
571209
442684
126741
153750
253174
239096
245535
229106
300339
282861
214568
483942
537251
523276
581043
443184
492878
551022
133306
1.19048e+06
942412
500651
1.20836e+06
1.13559e+06
662798
1.9337e+06
362996
344874
391282
420111
193726
161631
174811
367696
146468
1.60856e+06
212818
143415
793627
60150
119280
1.60851e+06
184870
410921
1.31055e+06
600628
1.20636e+06
1.10473e+06
1.45052e+06
964465
157661
604653
483941
206951
1.36158e+06
618623
211428
1.12939e+06
1.02845e+06
1.23056e+06
138478
140969
159151
2.33692e+06
278791
431553
526533
241626
142130
139843
416493
450700
179493
1.61055e+06
420240
1.61258e+06
246633
802583
139914
635267
760556
1.01369e+06
405715
544579
652795
266924
2.27872e+06
166521
118928
143169
1.94964e+06
1.28369e+06
319747
468524
1.06513e+06
985145
903505
2.00691e+06
606235
491688
2.01626e+06
2.27527e+06
1.56393e+06
86549.8
538333
1.3234e+06
990718
537599
401440
989528
882627
408559
1.3534e+06
326825
271779
505936
444827
340623
1.58199e+06
2.39721e+06
126662
139702
164837
2.29558e+06
160375
185570
700543
536950
2.03557e+06
2.132e+06
138729
603434
212189
201238
499206
215953
131085
539430
130183
147663
2.40883e+06
1.04129e+06
576466
431832
388775
280111
789473
727783
666755
211217
2.15655e+06
424286
382871
430400
1.80707e+06
732594
1.07245e+06
149613
233802
176402
808878
488746
650918
127347
280125
380813
809549
285870
186350
160356
314431
2.01103e+06
289125
388959
802109
1.30056e+06
1.83762e+06
1.23185e+06
845090
659018
779881
83256.6
232951
320680
684053
630203
579075
1.83621e+06
146647
187941
201609
201236
201724
197176
287062
139496
140217
656771
1.6564e+06
464361
1.03033e+06
948817
870307
320769
1.87266e+06
592801
674762
806859
695494
1.14341e+06
1.83085e+06
553051
148953
717517
119854
852891
511583
931339
1.01406e+06
364879
1.18283e+06
292467
2.48972e+06
850962
141789
1.70486e+06
2.49583e+06
2.14886e+06
505523
137489
957631
166764
155522
118301
272341
150671
153576
133752
138509
1.54565e+06
1.62237e+06
140484
1.0733e+06
175217
166087
138954
225703
1.09965e+06
1.10601e+06
254270
1.11935e+06
1.12281e+06
1.46094e+06
481160
182054
225127
305674
612410
665678
228260
60619.9
159768
736532
344917
839017
944543
1.03325e+06
1.1249e+06
576934
408195
304434
171180
149013
1.86497e+06
1.02576e+06
131276
214434
910303
709236
384247
416721
194873
171881
317859
281133
117192
214792
150485
1.56283e+06
600843
1.46428e+06
141745
134270
2.49735e+06
136250
1.93607e+06
1.90815e+06
140260
884034
442990
1.53386e+06
153661
832315
960528
2.09363e+06
233043
149566
128630
474124
224753
303877
611644
559606
513683
153642
128571
174887
166186
1.07502e+06
1.18489e+06
809562
1.38676e+06
1.27228e+06
1.47582e+06
2.11808e+06
264716
675478
2.0174e+06
601051
1.90366e+06
894426
975208
1.05971e+06
468443
319852
396861
467873
1.76373e+06
163530
188724
275118
260454
242534
181178
361871
333531
312243
773072
787721
2.34751e+06
256867
124745
173222
1.86175e+06
534101
286817
276563
1.81771e+06
930064
642234
108739
196989
128601
916148
1.16917e+06
298925
1.33e+06
183831
178612
2.42234e+06
1.58993e+06
1.94635e+06
374545
494695
870521
277715
682226
2.01378e+06
2.14082e+06
181165
208310
348363
285741
993906
1.10982e+06
758024
853964
2.23479e+06
2.07076e+06
265275
179439
108311
1.47235e+06
124275
1.94146e+06
391322
292363
1.04194e+06
331433
140657
1.80939e+06
208322
266675
109011
129091
1.34964e+06
458914
144588
729476
345484
193515
146400
130958
667355
131848
1.84244e+06
1.6673e+06
302530
814381
462992
142586
158200
1.43041e+06
175128
959563
246807
527249
1.09597e+06
1.25274e+06
1.75845e+06
190861
304063
1.92638e+06
241881
155280
143255
168820
133037
1.97872e+06
1.53517e+06
351032
480582
838297
833408
1.09908e+06
385343
527311
382408
553151
1.18262e+06
1.08863e+06
996857
1.57179e+06
733425
524797
1.53087e+06
528323
1.6652e+06
619218
679871
1.83256e+06
2.49412e+06
2.1301e+06
413362
411300
1.13758e+06
537668
391787
136464
345892
1.7677e+06
151728
175467
2.24502e+06
1.67597e+06
1.94055e+06
882818
1.09503e+06
1.10485e+06
953385
126835
118740
178693
121283
685574
746552
812465
377283
266617
588172
1.96697e+06
151318
202158
169818
157614
998066
902275
188616
1.74822e+06
1.9826e+06
1.15394e+06
941169
1.5922e+06
1.83418e+06
122803
879938
560026
1.21418e+06
163803
258219
276419
1.55732e+06
1.55131e+06
721470
358936
117424
139937
227668
477442
1.63409e+06
218188
1.25087e+06
151436
361016
248005
326342
561195
289470
446990
43414
12547
446257
2.33389e+06
202358
168126
171043
135471
126304
181742
188405
138105
140856
514684
136537
148633
181826
961736
1.18698e+06
852827
1.63721e+06
2.07613e+06
147350
201455
376428
167329
1.47274e+06
212996
2.17406e+06
233069
301465
582562
429888
231201
237729
552001
132545
154843
192627
125247
184755
122391
1.91832e+06
110409
156664
279390
125477
95904.4
1.85154e+06
205099
1.60012e+06
1.69686e+06
616491
402146
320130
463246
1.0439e+06
971986
891481
134747
1.15753e+06
605977
132123
1.97814e+06
139459
145507
363763
1.08445e+06
856160
950952
1.31765e+06
191067
147199
406698
600801
1.3167e+06
698134
1.42631e+06
503817
1.21159e+06
1.10971e+06
401596
1.41653e+06
497424
1.30263e+06
590254
1.19935e+06
1.09838e+06
687837
1.44316e+06
183306
591280
460001
150931
189821
1.60896e+06
990507
1.34342e+06
1.2492e+06
1.09012e+06
1.35125e+06
995159
379860
416686
616030
1.49113e+06
149213
2.23128e+06
181741
148363
1.6853e+06
198536
311588
616785
614380
1.82143e+06
115299
1.14972e+06
1.05989e+06
971165
354408
518622
2.23258e+06
373280
287260
665486
176278
696316
321257
343785
126441
200462
209403
181122
528914
125795
652029
350180
266683
883614
1.1782e+06
1.18435e+06
883144
434033
2.10301e+06
138565
139472
1.88203e+06
1.70485e+06
1.03341e+06
2.48396e+06
1.09922e+06
947059
989098
2.20839e+06
1.0871e+06
868032
1.96074e+06
422325
442848
649696
1.72478e+06
113071
1.4761e+06
176538
258325
397005
665075
725371
788260
385744
277119
451283
77065.4
82444.8
148989
157188
214458
177375
143224
196143
1.09129e+06
2.00779e+06
239498
180471
1.85012e+06
1.3294e+06
523610
709156
148474
155964
1.60707e+06
1.06603e+06
230504
844671
791538
1.06427e+06
132288
148365
155497
134316
1.25099e+06
2.0322e+06
1.98995e+06
1.34861e+06
2.15738e+06
273074
124674
350317
1.06298e+06
974088
1.1548e+06
524247
357114
2.26014e+06
493299
620571
811706
265872
227807
945413
336301
173301
713975
272574
351135
2.10265e+06
359563
318539
1.11704e+06
1.03008e+06
944988
475553
1.43228e+06
1.34747e+06
1.76636e+06
550969
570646
722410
1.50203e+06
708866
509267
1.33489e+06
258172
2.49391e+06
168027
1.90399e+06
506171
579389
137998
615701
1.17812e+06
146125
170832
166137
2.20239e+06
640858
586470
693741
342555
248815
317730
621402
1.44123e+06
627685
1.2251e+06
1.44981e+06
1.33682e+06
419767
1.35401e+06
1.0274e+06
1.08834e+06
1.28856e+06
1.35561e+06
1.02835e+06
1.09799e+06
1.29746e+06
749881
633086
49025.8
304579
188267
430443
633700
527996
734397
1.48586e+06
1.3735e+06
1.26358e+06
1.15707e+06
425931
1.18799e+06
584233
166279
115891
121801
207473
111180
505676
1.1959e+06
1.22367e+06
436783
2.03612e+06
171099
152616
1.58914e+06
1.97255e+06
101028
1.25179e+06
493739
667283
931644
527635
334016
152014
494282
713448
69409.5
141718
2.06203e+06
273550
207354
496859
456582
538783
348668
139672
145122
355954
1.24486e+06
1.93387e+06
2.23914e+06
341700
379563
1.60019e+06
1.44254e+06
1.88153e+06
120697
1.05326e+06
1.83138e+06
2.25206e+06
2.32394e+06
2.26607e+06
585272
1.01978e+06
438547
2.12899e+06
1.60108e+06
653887
1.38755e+06
156582
141270
1.65172e+06
1.65355e+06
142371
447245
2.06352e+06
1.72787e+06
1.64104e+06
1.69826e+06
2.33345e+06
1.58224e+06
2.04212e+06
1.77056e+06
157980
280502
1.29998e+06
628003
1.06778e+06
225509
149891
189709
175163
162315
211385
188949
440841
2.04639e+06
1.24336e+06
434567
599437
1.33139e+06
176820
617984
433450
2.38821e+06
330982
319914
594721
337351
550817
243341
191990
1.94363e+06
15952.7
155869
155575
32070.5
475976
517934
185909
203728
217218
153188
554390
539697
136124
2.06954e+06
1.76856e+06
627452
1.32719e+06
452054
131621
1.549e+06
342384
2.05698e+06
563050
688291
813121
936975
1.78547e+06
1.65038e+06
1.51543e+06
1.38446e+06
562183
686387
1.78643e+06
1.65039e+06
810297
1.51586e+06
934546
1.38398e+06
311637
240262
583028
629287
554691
264002
217720
186744
151777
142451
159622
136922
142999
240720
957595
1.02846e+06
914102
512237
996020
1.09767e+06
1.71039e+06
720443
580383
1.83266e+06
612136
210176
130052
180458
150374
289462
265601
269837
147336
392565
308642
395001
807975
146528
213869
971459
157539
117421
145082
124357
1.44012e+06
173632
206384
674986
538459
267682
675135
221612
133262
121449
2.17699e+06
2.23625e+06
1.3419e+06
1.09794e+06
1.07025e+06
1.36414e+06
2.18735e+06
1.12898e+06
135592
728209
403727
309976
446016
214924
2.08462e+06
227360
1.21809e+06
1.12429e+06
1.03054e+06
541629
368224
639502
372594
285093
2.10654e+06
241697
135726
691187
690065
312198
197925
239754
402637
831054
1.57499e+06
653897
521294
982381
1.27961e+06
347000
504259
1.09943e+06
1.01174e+06
927000
522039
562531
916436
749634
1.05484e+06
560158
1.16039e+06
1.26466e+06
366945
1.37275e+06
2.47516e+06
1.7482e+06
120709
830407
907064
987380
305023
208967
1.50031e+06
259513
340843
425314
465543
198906
253172
206220
163754
1.41949e+06
1.08865e+06
1.1426e+06
1.36899e+06
322072
1.75079e+06
2.17065e+06
801040
143443
815440
889743
968899
914304
1.06625e+06
297516
1.70317e+06
746020
686472
628261
744816
270443
374301
217965
203075
467897
552589
508472
583469
636734
691965
422271
418710
600885
603761
1.22653e+06
1.22026e+06
1.03127e+06
1.12706e+06
1.02562e+06
1.12115e+06
611127
665419
239560
152492
172319
202954
1.23522e+06
781171
142607
1.24246e+06
1.03016e+06
986753
1.2793e+06
206639
446710
1.60796e+06
676262
1.48149e+06
1.35834e+06
113245
266964
1.11277e+06
653854
463690
1.47463e+06
519465
74072.5
1.12445e+06
1.03083e+06
1.2221e+06
546188
370426
1.52022e+06
581359
470733
2.0153e+06
583515
824411
199065
149073
338678
316194
289233
1.71518e+06
423515
287687
484279
445059
522737
263360
202107
1.13707e+06
1.27823e+06
206440
727337
155899
982269
1.96715e+06
1.23705e+06
598717
449273
1.07406e+06
546844
487958
402762
265129
167890
408522
202216
494950
200877
341849
145788
162047
2.06154e+06
412618
1.74697e+06
996284
1.07341e+06
579502
433988
1.0361e+06
1.87765e+06
123682
150257
153980
145492
372535
36044.8
11926.2
371919
780001
145460
821994
365160
256833
172425
545438
761159
1.59927e+06
133747
107286
172375
199355
428970
276056
1.07742e+06
960338
235056
154618
125596
2.08879e+06
780217
135113
305021
150740
2.38811e+06
1.93565e+06
304413
227259
841708
406986
576194
1.13796e+06
955846
1.04521e+06
2.23939e+06
1.78111e+06
149750
1.67295e+06
2.26064e+06
1.76116e+06
1.95617e+06
848213
175338
1.14381e+06
278326
175014
214024
417725
452973
333268
331441
755178
247364
170143
130080
1.10166e+06
1.33863e+06
1.45918e+06
1.58311e+06
1.69677e+06
755306
644752
532510
419729
265581
126211
525864
24410.4
258056
257616
13257.8
565664
283466
223385
93368.5
354736
402620
141288
365355
1.10045e+06
847551
584866
414474
473289
2.06245e+06
1.58014e+06
209782
677026
140493
150645
575521
678439
705892
1.40415e+06
405949
443742
146232
1.86356e+06
155001
325400
379688
353815
1.34416e+06
1.46473e+06
758634
820823
819494
574706
738779
1.39021e+06
1.32341e+06
1.31996e+06
453510
627498
117647
129819
121855
282600
135219
613468
1.27652e+06
1.13359e+06
1.38924e+06
1.01361e+06
1.39954e+06
1.01236e+06
689592
463688
1.22474e+06
896599
1.22669e+06
899632
297573
1.35818e+06
1.13446e+06
993934
1.29469e+06
1.1462e+06
1.41359e+06
1.02749e+06
1.41388e+06
1.0267e+06
1.28793e+06
2.39139e+06
517127
725071
1.54178e+06
568099
142959
153456
239809
23726.1
239392
20982.4
140937
437976
1.35775e+06
1.24427e+06
1.47501e+06
652903
452818
2.11494e+06
73730.2
135088
269489
920003
300868
830034
407732
2.15282e+06
2.17194e+06
1.30375e+06
156066
287014
1.46287e+06
772969
619824
424878
768359
703710
833684
292353
407901
2.21339e+06
519839
1.96868e+06
142656
140276
135652
141408
97264.8
1.94396e+06
159207
1.42654e+06
95029.2
1.04215e+06
1.33286e+06
159334
143896
203903
596780
213892
501755
461003
339177
367396
397935
171772
364774
491937
608791
409921
1.38645e+06
1.27876e+06
1.17184e+06
1.45532e+06
1.94668e+06
2.14863e+06
129841
127806
129538
140706
283500
167384
306114
2.15586e+06
2.20132e+06
2.19657e+06
1.68739e+06
66643.1
1.16719e+06
2.00782e+06
1.35925e+06
1.07122e+06
1.09396e+06
1.34151e+06
663071
592426
1.1879e+06
777908
1.40913e+06
106761
254349
323165
622480
256576
252469
288272
195555
225342
165272
192111
434743
437902
475388
473024
513099
513793
603188
595729
145858
144086
564257
365842
113991
214150
842546
1.41179e+06
146361
842547
1.82224e+06
560598
1.73175e+06
789016
221720
1.62037e+06
851392
715783
1.13419e+06
1.94117e+06
2.326e+06
913775
385559
1.95965e+06
279911
206306
177116
437574
97935
825859
1.43938e+06
371137
563275
228759
140721
244053
2.10754e+06
375048
436974
422126
312917
895520
281232
223423
891863
196617
1.90886e+06
153683
1.12884e+06
416379
452108
1.76963e+06
1.49656e+06
903737
1.63368e+06
1.77453e+06
774480
1.91711e+06
646965
516836
1.49601e+06
1.63252e+06
1.91876e+06
1.77366e+06
518580
777554
907154
649009
1.94807e+06
194223
1.52935e+06
168040
118799
148484
8781.36
66838.6
834258
90764.5
1.47099e+06
301850
226777
566426
612431
520481
441764
286124
1.27293e+06
284765
305744
1.15458e+06
102213
449440
416075
412802
1.30483e+06
1.19611e+06
1.41705e+06
619841
533224
225022
383233
747917
1.46879e+06
75657.8
371860
222339
144347
485025
1.55563e+06
873697
751542
1.63814e+06
188735
894915
1.91253e+06
965478
1.78333e+06
161289
2.007e+06
240365
1.34276e+06
477624
589533
143600
15437.2
154843
154516
26401
256604
1.37596e+06
195591
1.67678e+06
764164
275851
1.29254e+06
1.24101e+06
1.41274e+06
1.35664e+06
1.53607e+06
1.4755e+06
712628
689049
486903
471739
540460
365733
1.22469e+06
1.13069e+06
1.03615e+06
327676
383702
354212
178148
1.14703e+06
1.00079e+06
96767.7
198338
149004
169530
178958
1.95088e+06
1.62826e+06
423473
1.39146e+06
1.27633e+06
1.50883e+06
128044
723628
1.31942e+06
1.372e+06
144151
135147
1.58141e+06
505443
173909
287778
335514
311408
182598
540638
498798
461008
1.81229e+06
2.38697e+06
1.75337e+06
1.24137e+06
605275
437232
187892
204624
304795
220247
143322
128556
229917
660786
526895
140712
1.44667e+06
1.67356e+06
687455
603978
178467
172283
153925
162659
468283
1.57919e+06
1.21752e+06
937458
965894
1.15179e+06
137260
151436
226321
137482
139514
302454
2.46809e+06
1.95831e+06
151841
189241
825405
712303
495863
1.54101e+06
1.66461e+06
1.2972e+06
1.41706e+06
847799
437280
374220
406011
191410
237524
1.80613e+06
478736
1.14853e+06
87512
1.67551e+06
154191
652980
757361
2.46468e+06
138387
672702
164305
629751
173835
397983
1.21805e+06
554116
1.394e+06
903487
1.52479e+06
1.65874e+06
781649
1.79538e+06
658052
535980
659637
536498
256031
781237
883068
1.15403e+06
143654
232204
1.42992e+06
621395
2.25917e+06
1.83902e+06
2.06109e+06
372606
1.60901e+06
758167
583106
285204
218447
2.20052e+06
1.14424e+06
136707
2.39259e+06
2.01294e+06
69682.2
693985
567963
88407.9
931557
743698
114447
188426
1.55371e+06
2.29856e+06
143346
802567
823581
1.65882e+06
1.6067e+06
583401
597957
584168
598634
147536
148683
147971
139511
111136
2.37251e+06
1.83926e+06
1.66513e+06
2.10046e+06
790048
420251
1.7043e+06
950524
1.03924e+06
1.13131e+06
79838.2
1.75745e+06
305114
1.31514e+06
1.8847e+06
557579
390016
2.39339e+06
634224
665908
466754
492520
1.26145e+06
1.21928e+06
215090
212137
118727
140894
409948
1.4906e+06
1.37337e+06
1.25933e+06
621889
2.36856e+06
146696
284179
130015
1.24396e+06
1.35924e+06
792393
1.47734e+06
677489
1.61164e+06
573452
1.52379e+06
1.28276e+06
1.40136e+06
1.64687e+06
460590
815367
703317
575587
138377
191480
203549
261335
486606
411114
447139
1.94801e+06
897163
1.09467e+06
1.80319e+06
212910
322082
140594
506520
705739
244170
338773
1.82824e+06
195153
135831
139312
141977
136606
89565.7
217679
166417
179952
1.5659e+06
1.85223e+06
164233
142257
180155
312016
677447
2.00653e+06
1.86846e+06
836062
145694
202221
1.59198e+06
146870
148275
2.43488e+06
937541
1.83379e+06
511823
1.24109e+06
779854
766459
214441
877464
1.30918e+06
628881
452783
181132
412334
142378
108210
128340
1.97624e+06
1.15221e+06
1.17436e+06
1.94059e+06
304644
326978
171663
616154
154260
140279
151920
386553
308145
31358.7
307651
21483.5
140210
1.21952e+06
365313
528307
1.12089e+06
1.0315e+06
944342
191864
2.23637e+06
740865
423914
1.91756e+06
1.13649e+06
1.18285e+06
197910
19430
197538
20452.2
1.69925e+06
424523
704204
836140
770377
158819
1.83238e+06
424879
305803
975838
749483
135344
41847.6
1.34181e+06
277530
1.34291e+06
339581
450273
831474
924657
775727
170268
682537
280952
360364
175548
188628
649201
676601
225150
407233
144781
145970
1.08201e+06
540375
397151
155484
579967
15010.9
56165.8
579027
716744
579352
857036
1.01765e+06
121000
2.23267e+06
2.32713e+06
290811
143099
157670
242708
267992
27695.1
267567
23881.3
1.16682e+06
398116
551959
2.16845e+06
2.20052e+06
1.86147e+06
1.69572e+06
1.00027e+06
886299
848009
752832
1.83776e+06
264272
521969
189819
125433
139703
374935
524838
750774
2.11961e+06
2.14093e+06
268744
139473
699137
760989
257132
1.15821e+06
473517
388866
1.70541e+06
170277
157410
209328
1.12612e+06
1.1321e+06
1.19832e+06
759892
381335
532296
95903
96903.1
1.31194e+06
137914
1.16016e+06
149540
567801
922804
808772
1.35661e+06
1.58673e+06
145539
188015
430037
1.88296e+06
9136.88
113172
33568
113660
303798
280496
95545.6
2.05447e+06
36648.2
1.94725e+06
507027
49092.2
15836.3
506204
329560
164749
18957.3
164555
419311
1.82692e+06
421593
2.02552e+06
2.32432e+06
67566.4
661762
784967
723409
939911
449819
327932
1.01248e+06
644099
112321
249156
393013
282436
699266
925937
260067
261113
2.23498e+06
797891
925788
863842
996869
1.41764e+06
132719
141765
1.18624e+06
1.44541e+06
488640
272669
313686
163364
326412
476183
149684
252605
364055
146985
102690
1.29577e+06
1.51577e+06
291600
643650
502431
513779
1.59772e+06
723404
314293
244556
616567
514300
129091
368434
1.44711e+06
1.84512e+06
489541
341895
861771
1.02277e+06
941303
90910.5
140424
356178
254449
1.37386e+06
498259
112078
54441.4
83490.4
477824
336018
833829
989384
910846
145262
1.99829e+06
2.28027e+06
159749
157908
149898
145919
1.996e+06
394485
293349
846189
2.4672e+06
1.98554e+06
558257
197690
517317
476559
292198
272450
311491
174712
154721
154802
421991
1.94503e+06
117755
1.06531e+06
1.15388e+06
1.83218e+06
1.32005e+06
1.28823e+06
491541
484542
660629
671100
310902
345069
298424
139140
137895
778114
253081
1.8058e+06
1.24588e+06
314998
136662
775246
2.31155e+06
134761
1.22067e+06
1.01509e+06
963752
1.26069e+06
870783
373227
518188
1.1553e+06
203848
843286
364413
407165
210300
434109
259099
336515
924441
457283
196806
171017
225820
1.17964e+06
968673
213746
203715
192626
220408
142575
623801
479670
128435
454636
146360
260927
420805
2.11377e+06
1.86127e+06
1.26741e+06
365946
261304
818475
756817
694842
330737
331398
158635
1.14519e+06
158424
638730
833512
245370
218632
1.88755e+06
108719
371884
346507
168558
1.98815e+06
105712
141000
554440
654162
199628
189005
210124
152537
146270
1.26531e+06
117582
155749
19353.2
155516
1.26331e+06
1.19819e+06
2.26726e+06
1.36435e+06
1.71352e+06
146182
1.77072e+06
1.20545e+06
17507.3
127067
297697
226739
506873
551105
595659
781802
436692
1.82572e+06
1.0654e+06
1.15789e+06
186567
125559
122094
141425
155326
161622
248428
1.05462e+06
127219
2.2766e+06
559421
224974
1.17528e+06
766961
390358
543478
251972
218210
310185
468893
301909
624539
568996
224974
147142
800588
1.1239e+06
100534
108471
196461
116409
120516
1.71519e+06
448830
330699
959426
1.65905e+06
453322
325035
806552
686770
744867
629791
364315
263315
149132
10297.7
81494.6
771359
635300
905295
1.89357e+06
1.60268e+06
1.74656e+06
635501
769627
1.89841e+06
1.75036e+06
904062
1.60628e+06
209643
424636
353035
351476
134125
235895
208973
619596
298601
231477
282709
498128
1.38373e+06
684864
149138
248135
138374
151328
266234
413024
133124
137633
143686
1.00061e+06
370881
493571
332233
435193
901931
767446
930172
745254
1.26033e+06
380933
216770
308342
801888
605687
285348
389565
556655
148687
312499
188183
181525
647545
650272
228883