/*--------------------------------*- C++ -*----------------------------------*\
| =========                 |                                                 |
| \\      /  F ield         | OpenFOAM: The Open Source CFD Toolbox           |
|  \\    /   O peration     | Version:  2.3.1                                 |
|   \\  /    A nd           | Web:      www.OpenFOAM.org                      |
|    \\/     M anipulation  |                                                 |
\*---------------------------------------------------------------------------*/
FoamFile
{
    version     2.0;
    format      ascii;
    class       volScalarField;
    location    "0.66";
    object      nut;
}
// * * * * * * * * * * * * * * * * * * * * * * * * * * * * * * * * * * * * * //

dimensions      [0 2 -1 0 0 0 0];

internalField   nonuniform List<scalar> 
15166
(
9.72689e-05
0.000157306
0.000262306
0.000376505
0.000476717
0.000591362
0.000709542
0.000837761
0.000957387
0.00108041
0.00119717
0.00129734
9.72739e-05
0.000171233
0.00028304
0.00039708
0.000500892
0.000614534
0.000731385
0.00085475
0.000972043
0.00109056
0.00120296
0.00130396
9.76377e-05
0.000182562
0.000299316
0.000414053
0.000520741
0.000633756
0.000749314
0.000868939
0.000984023
0.00109873
0.00120756
0.00130836
9.81099e-05
0.000192711
0.000313194
0.000428689
0.000537417
0.00064987
0.000764153
0.000880788
0.000993743
0.00110517
0.001211
0.00131164
9.86148e-05
0.00020189
0.000325472
0.000441682
0.000551772
0.000663622
0.000776593
0.000890712
0.00100162
0.00111016
0.00121349
0.00131354
9.9161e-05
0.000210144
0.000336483
0.000453344
0.000564313
0.00067548
0.000787126
0.00089905
0.00100796
0.00111394
0.00121504
0.00131437
9.97426e-05
0.000217564
0.000346487
0.000463907
0.000575349
0.000685793
0.000796114
0.000906042
0.00101303
0.00111667
0.00121577
0.00131481
0.000100359
0.000224232
0.000355687
0.000473533
0.000585155
0.000694822
0.000803829
0.000911914
0.00101704
0.00111856
0.00121603
0.00131539
0.000100989
0.000230215
0.000364235
0.000482415
0.000593961
0.000702789
0.000810491
0.000916858
0.00102019
0.00111977
0.00121582
0.00131512
0.000101631
0.000235551
0.00037222
0.000490647
0.000601939
0.000709884
0.000816281
0.000921004
0.00102262
0.00112043
0.00121528
0.00131436
0.00010228
0.000240293
0.000379707
0.000498323
0.000609206
0.000716234
0.000821338
0.000924485
0.00102446
0.00112068
0.00121466
0.00131459
0.000102928
0.000244473
0.000386733
0.000505514
0.000615869
0.000721949
0.000825775
0.000927405
0.00102581
0.00112063
0.00121395
0.00131397
0.000103572
0.000248134
0.000393334
0.000512261
0.000622022
0.000727127
0.00082968
0.000929845
0.00102677
0.00112032
0.00121305
0.00131232
0.000104208
0.000251334
0.000399533
0.000518611
0.000627718
0.000731823
0.00083313
0.000931875
0.00102739
0.00111978
0.0012117
0.0013098
0.000104838
0.000254086
0.000405344
0.00052461
0.000633015
0.000736118
0.000836188
0.000933569
0.00102774
0.00111903
0.00121024
0.00130759
0.000105453
0.000256442
0.000410767
0.000530274
0.00063796
0.000740044
0.000838896
0.000934951
0.00102786
0.00111812
0.00120858
0.00130468
0.000106058
0.000258423
0.000415806
0.000535629
0.000642589
0.000743653
0.000841308
0.000936087
0.00102778
0.00111704
0.00120672
0.00130177
0.000106644
0.000260077
0.000420486
0.000540704
0.000646945
0.000746992
0.000843466
0.000936987
0.00102752
0.00111582
0.00120466
0.00129839
0.000107213
0.000261435
0.000424795
0.0005455
0.000651033
0.000750067
0.000845379
0.000937705
0.00102711
0.00111449
0.00120248
0.00129506
0.000107768
0.000262514
0.000428755
0.000550031
0.000654896
0.00075292
0.000847096
0.000938247
0.00102658
0.00111303
0.0012002
0.00129175
0.000108308
0.000263356
0.000432359
0.000554308
0.000658531
0.000755568
0.000848623
0.000938632
0.00102591
0.00111148
0.00119775
0.00128797
0.000108828
0.00026397
0.000435615
0.000558347
0.000661975
0.000758025
0.000849981
0.000938882
0.00102515
0.00110982
0.00119514
0.00128408
0.000109323
0.000264396
0.000438543
0.000562134
0.000665221
0.000760317
0.000851197
0.000939018
0.00102429
0.00110807
0.00119246
0.001281
0.000109809
0.000264644
0.000441142
0.000565686
0.00066829
0.000762457
0.000852285
0.000939053
0.00102335
0.00110621
0.00118968
0.00127736
0.00011027
0.00026473
0.00044342
0.000569017
0.000671193
0.000764459
0.000853249
0.000938982
0.00102232
0.00110429
0.00118689
0.00127434
0.000110714
0.000264687
0.000445388
0.000572121
0.000673936
0.000766324
0.000854101
0.000938828
0.00102122
0.0011023
0.00118406
0.00127085
0.000111141
0.000264517
0.000447058
0.000574988
0.000676525
0.00076807
0.000854857
0.000938592
0.00102005
0.00110027
0.00118129
0.0012681
0.000111547
0.000264252
0.000448455
0.000577635
0.000678955
0.000769697
0.000855526
0.000938282
0.00101883
0.00109821
0.00117861
0.00126556
0.000111932
0.000263889
0.000449569
0.000580073
0.000681243
0.000771218
0.000856099
0.000937913
0.00101756
0.00109613
0.00117591
0.00126219
0.000112297
0.000263427
0.000450433
0.000582285
0.00068339
0.000772633
0.000856599
0.000937475
0.00101624
0.00109403
0.00117324
0.0012594
0.000112639
0.000262917
0.000451035
0.000584283
0.000685389
0.000773954
0.000857024
0.00093699
0.0010149
0.00109193
0.00117053
0.00125599
0.000112971
0.000262332
0.000451417
0.000586061
0.000687254
0.000775178
0.000857386
0.000936448
0.00101352
0.00108981
0.00116785
0.00125312
0.00011329
0.000261694
0.000451566
0.000587645
0.000688985
0.000776316
0.000857675
0.000935867
0.00101211
0.00108768
0.00116513
0.00124954
0.000113578
0.000261023
0.000451521
0.000589016
0.000690577
0.000777363
0.000857911
0.000935245
0.00101068
0.00108554
0.00116242
0.00124649
0.000113853
0.000260314
0.000451271
0.0005902
0.000692038
0.000778321
0.000858088
0.000934585
0.00100922
0.00108339
0.00115968
0.00124289
0.000114121
0.000259577
0.000450853
0.000591168
0.000693361
0.000779202
0.000858215
0.000933889
0.00100775
0.00108124
0.00115698
0.00124013
0.000114354
0.000258811
0.000450255
0.000591957
0.000694556
0.000779996
0.00085828
0.000933153
0.00100625
0.00107909
0.00115434
0.00123764
0.000114583
0.000258028
0.0004495
0.00059255
0.000695615
0.000780714
0.000858302
0.000932393
0.00100475
0.00107694
0.00115171
0.00123436
0.00011479
0.000257231
0.000448603
0.000592963
0.000696549
0.000781343
0.000858275
0.000931608
0.00100324
0.0010748
0.00114908
0.00123118
0.000114976
0.000256427
0.000447575
0.000593204
0.000697359
0.000781906
0.000858202
0.000930791
0.00100171
0.00107266
0.00114644
0.00122783
0.000115156
0.000255604
0.000446424
0.000593266
0.000698037
0.000782382
0.000858082
0.000929956
0.00100017
0.00107052
0.00114369
0.00122398
0.000115309
0.000254701
0.000445138
0.000593164
0.000698585
0.000782786
0.000857917
0.000929093
0.000998631
0.00106835
0.00114092
0.00122121
0.000115455
0.000253767
0.000443756
0.000592905
0.000699013
0.00078311
0.00085771
0.000928215
0.000997079
0.00106618
0.00113816
0.00121785
0.000115575
0.000252767
0.000442229
0.00059248
0.000699312
0.000783355
0.000857458
0.000927309
0.000995511
0.00106399
0.00113543
0.00121512
0.000115678
0.000251763
0.00044054
0.000591905
0.000699491
0.00078352
0.000857164
0.000926383
0.000993936
0.00106181
0.00113271
0.00121169
0.00011577
0.000250796
0.000438726
0.000591156
0.000699542
0.000783614
0.000856834
0.000925437
0.000992353
0.00105962
0.00113002
0.00120917
0.000115849
0.000249775
0.000436821
0.000590202
0.000699444
0.000783628
0.000856454
0.000924471
0.000990757
0.00105744
0.00112734
0.00120581
0.000115903
0.000248785
0.000434822
0.00058911
0.000699214
0.000783554
0.00085603
0.000923486
0.000989156
0.00105526
0.0011247
0.00120323
0.000115947
0.000247798
0.000432783
0.000587849
0.000698845
0.000783401
0.000855565
0.000922471
0.000987546
0.00105308
0.00112206
0.00120003
0.000115979
0.000246815
0.000430634
0.000586441
0.000698348
0.000783149
0.000855051
0.00092144
0.000985922
0.00105091
0.00111946
0.00119746
0.000116
0.000245876
0.000428429
0.000584894
0.000697725
0.000782825
0.00085449
0.000920387
0.000984299
0.00104873
0.00111681
0.00119389
0.000116003
0.000244898
0.00042617
0.000583192
0.00069696
0.000782399
0.000853878
0.000919305
0.000982665
0.00104657
0.00111417
0.00119056
0.000115992
0.000243973
0.000423869
0.000581385
0.00069607
0.00078189
0.000853216
0.000918208
0.000981028
0.00104441
0.00111158
0.00118828
0.000115974
0.000243053
0.00042153
0.000579433
0.000695041
0.000781295
0.00085251
0.000917088
0.000979385
0.00104226
0.00110902
0.00118557
0.000115934
0.000242143
0.000419159
0.000577367
0.000693889
0.000780603
0.000851749
0.000915944
0.000977738
0.00104012
0.00110651
0.00118291
0.000115878
0.000241239
0.00041676
0.000575193
0.000692613
0.000779814
0.000850933
0.000914775
0.000976087
0.00103799
0.00110399
0.00117958
0.000115819
0.000240389
0.000414346
0.000572916
0.000691202
0.000778936
0.000850068
0.000913581
0.000974427
0.00103587
0.00110148
0.00117671
0.000115743
0.000239506
0.000411914
0.00057052
0.000689672
0.000777967
0.000849137
0.000912361
0.000972772
0.00103376
0.00109893
0.00117304
0.000115649
0.000238677
0.00040947
0.000568033
0.00068801
0.000776887
0.000848161
0.000911122
0.000971111
0.00103166
0.00109642
0.00117111
0.000115554
0.000237861
0.000407053
0.000565486
0.000686248
0.000775726
0.000847114
0.000909845
0.000969434
0.00102955
0.00109392
0.00116836
0.000115439
0.000237081
0.000404595
0.000562834
0.000684357
0.000774458
0.00084601
0.000908543
0.000967755
0.00102744
0.00109143
0.00116527
0.000115309
0.000236277
0.000402136
0.000560105
0.000682339
0.000773087
0.00084484
0.000907202
0.000966063
0.00102535
0.00108893
0.00116183
0.000115169
0.000235524
0.000399685
0.000557309
0.00068023
0.000771622
0.000843602
0.000905836
0.000964362
0.00102326
0.00108644
0.00115891
0.000115021
0.000234784
0.000397273
0.000554427
0.000677998
0.000770053
0.000842305
0.000904435
0.000962657
0.00102117
0.00108391
0.00115547
0.000114858
0.000234088
0.000394837
0.000551512
0.000675665
0.00076839
0.000840936
0.000902999
0.000960936
0.00101908
0.00108139
0.00115265
0.00011469
0.000233398
0.000392445
0.000548542
0.000673218
0.00076663
0.000839496
0.000901531
0.000959208
0.00101698
0.00107885
0.00114941
0.000114485
0.000232701
0.00039006
0.0005455
0.000670686
0.000764765
0.000837991
0.00090002
0.000957455
0.00101488
0.00107633
0.00114676
0.000114312
0.000232058
0.000387708
0.000542433
0.000668055
0.000762804
0.000836416
0.000898468
0.000955692
0.00101277
0.00107379
0.00114349
0.000114092
0.000231435
0.000385367
0.000539328
0.000665319
0.00076074
0.000834762
0.000896873
0.000953902
0.00101066
0.00107127
0.00114056
0.000113851
0.00023083
0.000383051
0.000536181
0.000662512
0.00075859
0.000833032
0.000895236
0.000952099
0.00100854
0.00106871
0.00113719
0.000113624
0.000230219
0.000380771
0.000532986
0.000659603
0.000756339
0.000831233
0.000893548
0.000950269
0.0010064
0.00106617
0.00113428
0.000113378
0.000229703
0.000378502
0.00052978
0.00065662
0.00075398
0.000829356
0.000891812
0.000948414
0.00100425
0.00106359
0.00113082
0.000113124
0.000229123
0.000376309
0.000526589
0.000653569
0.000751537
0.000827392
0.000890028
0.000946537
0.00100209
0.00106099
0.00112744
0.000112853
0.000228631
0.000374065
0.000523314
0.000650402
0.000748984
0.000825341
0.000888185
0.000944623
0.00099992
0.00105839
0.00112441
0.000112573
0.000228157
0.000371929
0.000520067
0.00064721
0.000746351
0.000823228
0.000886291
0.000942687
0.000997734
0.0010558
0.00112115
0.000112254
0.000227637
0.000369799
0.000516793
0.000643925
0.000743634
0.000821026
0.00088435
0.000940722
0.000995532
0.00105321
0.00111842
0.000111953
0.000227186
0.000367724
0.000513526
0.00064057
0.000740812
0.00081874
0.000882338
0.000938711
0.000993311
0.0010506
0.00111513
0.000111658
0.000226809
0.000365697
0.000510247
0.000637168
0.000737898
0.000816372
0.000880275
0.000936674
0.00099107
0.00104798
0.00111222
0.000111322
0.000226385
0.000363691
0.000506978
0.000633702
0.000734908
0.000813922
0.000878149
0.000934589
0.000988807
0.00104533
0.00110884
0.000110958
0.000226003
0.000361739
0.000503704
0.000630195
0.000731829
0.000811387
0.000875961
0.000932471
0.000986514
0.00104271
0.00110615
0.000110615
0.000225654
0.000359798
0.000500451
0.000626626
0.00072866
0.000808765
0.000873699
0.000930309
0.000984195
0.00104005
0.00110298
0.000110248
0.000225316
0.000357944
0.000497188
0.000622999
0.000725397
0.000806066
0.000871371
0.000928095
0.00098185
0.00103736
0.00109941
0.000109868
0.00022501
0.000356141
0.000493963
0.000619349
0.000722079
0.00080327
0.000868974
0.000925834
0.000979485
0.00103466
0.00109611
0.000109479
0.000224726
0.000354364
0.000490765
0.000615653
0.000718673
0.000800387
0.0008665
0.000923525
0.000977083
0.00103197
0.00109342
0.000109077
0.000224461
0.00035264
0.00048759
0.000611911
0.000715192
0.000797429
0.000863954
0.000921165
0.000974655
0.00102925
0.0010902
0.000108636
0.000224202
0.000350956
0.000484394
0.000608169
0.000711643
0.000794372
0.000861349
0.000918748
0.000972183
0.00102654
0.00108739
0.000108212
0.000223977
0.00034932
0.000481252
0.000604386
0.000708001
0.000791238
0.000858648
0.00091628
0.000969684
0.00102379
0.00108394
0.000107772
0.00022378
0.000347743
0.000478166
0.000600551
0.000704302
0.000788001
0.000855873
0.000913761
0.000967156
0.00102106
0.00108116
0.000107318
0.000223611
0.000346221
0.000475101
0.000596732
0.000700523
0.000784677
0.000853017
0.000911171
0.000964593
0.00101833
0.00107844
0.000106852
0.000223465
0.000344713
0.000472047
0.000592873
0.000696674
0.000781273
0.000850076
0.000908507
0.000961973
0.0010156
0.00107612
0.000106373
0.000223345
0.000343306
0.000469072
0.000589027
0.000692794
0.000777785
0.000847061
0.000905792
0.000959328
0.00101283
0.00107239
0.000105881
0.000223255
0.000341954
0.000466106
0.000585148
0.000688826
0.000774221
0.000843966
0.000903013
0.00095665
0.00101006
0.00106947
0.000105349
0.00022313
0.000340617
0.000463192
0.000581273
0.000684811
0.000770569
0.000840775
0.000900161
0.000953926
0.00100721
0.00106589
0.000104856
0.00022311
0.000339349
0.000460336
0.000577396
0.000680718
0.000766826
0.000837498
0.000897239
0.000951143
0.00100432
0.0010626
0.000104295
0.000223048
0.000338147
0.000457533
0.000573507
0.000676616
0.000762992
0.000834126
0.00089425
0.000948305
0.00100136
0.00105891
0.000103748
0.000223033
0.000337012
0.000454796
0.000569665
0.000672437
0.000759083
0.000830675
0.000891177
0.000945403
0.000998376
0.00105587
0.000103187
0.000223009
0.000335906
0.000452089
0.00056581
0.000668225
0.00075509
0.000827124
0.000888016
0.000942432
0.000995308
0.00105218
0.000102609
0.000223073
0.000334873
0.000449455
0.000561978
0.000663953
0.000751007
0.000823495
0.000884778
0.00093941
0.000992237
0.00104901
0.000101991
0.000223056
0.000333909
0.000446891
0.00055815
0.000659676
0.000746856
0.000819764
0.000881463
0.00093631
0.000989076
0.00104533
0.000101382
0.000223143
0.000332978
0.000444367
0.000554356
0.000655326
0.000742629
0.000815924
0.000878044
0.000933142
0.000985932
0.00104247
0.00010076
0.000223224
0.000332128
0.00044193
0.000550606
0.000650984
0.000738314
0.000811997
0.000874536
0.000929885
0.000982721
0.00103902
0.000100122
0.000223351
0.000331357
0.000439542
0.000546871
0.0006466
0.000733938
0.000807989
0.000870942
0.000926579
0.000979431
0.00103519
9.94664e-05
0.000223516
0.000330619
0.000437246
0.000543191
0.000642207
0.000729481
0.000803871
0.00086725
0.000923189
0.000976116
0.00103191
9.87955e-05
0.000223673
0.000329968
0.000435042
0.000539539
0.000637783
0.000724966
0.000799663
0.000863454
0.00091971
0.000972771
0.00102882
9.80807e-05
0.000223816
0.000329357
0.000432901
0.00053595
0.00063334
0.000720392
0.000795349
0.000859561
0.000916155
0.00096936
0.0010251
9.73743e-05
0.000224023
0.000328833
0.000430824
0.000532398
0.000628911
0.000715744
0.000790952
0.000855574
0.00091251
0.000965893
0.00102165
9.66231e-05
0.000224212
0.000328352
0.000428859
0.000528933
0.000624499
0.000711031
0.000786447
0.00085147
0.000908769
0.000962294
0.00101763
9.58784e-05
0.000224471
0.000327971
0.000427006
0.000525523
0.000620082
0.000706276
0.000781842
0.000847254
0.000904922
0.000958597
0.0010135
9.51468e-05
0.000224807
0.000327642
0.000425199
0.000522204
0.000615673
0.000701464
0.000777159
0.00084294
0.000900973
0.000954843
0.00100976
9.4343e-05
0.000225061
0.000327372
0.000423552
0.000518956
0.000611303
0.000696608
0.000772394
0.000838507
0.000896912
0.00095094
0.00100556
9.354e-05
0.00022539
0.000327202
0.000421953
0.000515783
0.000606956
0.000691731
0.000767509
0.000833956
0.000892739
0.000947008
0.00100193
9.27205e-05
0.000225775
0.000327087
0.000420487
0.000512732
0.000602667
0.000686816
0.00076256
0.000829305
0.000888457
0.000942979
0.000997722
9.18532e-05
0.000226101
0.000327073
0.000419125
0.000509764
0.000598392
0.000681893
0.000757526
0.000824541
0.000884089
0.000938884
0.000993429
9.09876e-05
0.00022651
0.00032713
0.000417901
0.000506901
0.000594194
0.000676922
0.000752416
0.000819648
0.000879559
0.000934611
0.00098956
9.01035e-05
0.000226979
0.000327209
0.000416748
0.000504147
0.000590057
0.00067196
0.000747198
0.000814618
0.000874876
0.000930199
0.000985022
8.91975e-05
0.000227416
0.000327454
0.000415755
0.000501553
0.000586023
0.000667
0.000741933
0.000809496
0.000870091
0.000925725
0.000980889
8.82669e-05
0.000227931
0.000327732
0.000414891
0.000499085
0.000582053
0.000662077
0.00073661
0.000804252
0.000865143
0.000921065
0.000976096
8.7284e-05
0.000228394
0.000328135
0.00041419
0.000496764
0.000578216
0.000657154
0.000731228
0.000798885
0.000860094
0.000916357
0.000971706
8.627e-05
0.000228925
0.000328571
0.000413587
0.000494598
0.000574496
0.000652307
0.000725831
0.000793441
0.000854903
0.000911496
0.000966789
8.52863e-05
0.000229566
0.000329152
0.000413165
0.000492603
0.000570904
0.000647487
0.000720381
0.000787911
0.000849602
0.000906505
0.000961756
8.42589e-05
0.000230175
0.000329821
0.000412872
0.000490815
0.000567469
0.000642767
0.000714912
0.000782246
0.000844108
0.000901236
0.000956736
8.31691e-05
0.000230798
0.00033059
0.000412775
0.00048919
0.000564204
0.000638143
0.000709462
0.000776495
0.000838472
0.000895847
0.000951307
8.20435e-05
0.000231446
0.000331459
0.000412843
0.000487778
0.000561133
0.000633635
0.00070401
0.000770682
0.000832723
0.000890379
0.000946321
8.09428e-05
0.000232225
0.000332435
0.000413072
0.000486622
0.000558273
0.000629253
0.000698618
0.000764796
0.000826798
0.000884641
0.000940346
7.97678e-05
0.000232954
0.000333532
0.000413527
0.000485683
0.000555656
0.000625069
0.000693269
0.000758867
0.000820764
0.000878727
0.000934481
7.85462e-05
0.000233722
0.00033475
0.000414194
0.000485039
0.000553312
0.000621092
0.000688041
0.000752914
0.000814592
0.000872588
0.000928081
7.73434e-05
0.000234621
0.000336096
0.000415051
0.000484657
0.000551262
0.000617331
0.000682918
0.00074697
0.00080832
0.000866283
0.000921628
7.60618e-05
0.000235479
0.000337587
0.00041618
0.000484597
0.00054955
0.000613873
0.000677971
0.000741049
0.000801931
0.00085978
0.000914847
7.47529e-05
0.000236396
0.000339217
0.000417539
0.000484887
0.000548201
0.000610707
0.00067322
0.000735162
0.000795439
0.000853114
0.000908465
7.33796e-05
0.000237325
0.000340982
0.000419216
0.000485551
0.000547246
0.000607916
0.000668693
0.000729315
0.000788835
0.000846183
0.000901201
7.19766e-05
0.000238306
0.000342959
0.000421183
0.00048664
0.000546756
0.000605491
0.000664419
0.000723565
0.000782157
0.000839086
0.0008941
7.04971e-05
0.000239241
0.000345098
0.000423496
0.000488144
0.000546691
0.000603445
0.0006604
0.00071792
0.000775376
0.000831714
0.000886209
6.8969e-05
0.000240228
0.000347418
0.000426119
0.000490054
0.00054705
0.000601783
0.000656624
0.000712306
0.00076845
0.000824003
0.000878233
6.73691e-05
0.000241093
0.000349839
0.000429064
0.000492298
0.000547765
0.000600486
0.000653203
0.000706903
0.000761493
0.000816066
0.000870143
6.54098e-05
0.000240137
0.000350265
0.000430903
0.000493431
0.000547716
0.000598661
0.000649571
0.000701315
0.000754723
0.000808149
0.000861667
0.000477599
0.00154683
0.00164149
0.00188329
0.00188491
0.000625871
0.00061384
0.00046432
0.0013761
0.00206054
0.00381322
0.00201918
0.00424155
0.00142694
0.00056702
0.00133217
0.00149821
0.00504312
0.00502783
0.00131829
0.000731021
0.000492689
0.00739138
0.00354942
0.000478377
0.00164349
0.000573839
0.000779507
0.00194353
0.00122971
0.00178259
0.000336194
0.00146245
0.00377777
0.00412584
0.00106548
0.000154621
0.00157188
0.000467559
0.00207226
0.0018693
0.00129258
0.00387009
0.00106133
0.000274026
0.000494749
0.00578652
0.00374699
0.000277097
0.000735448
0.00106628
0.000466837
0.000338034
0.00124158
0.00165001
0.0015068
0.00238908
0.00129193
0.00157224
0.000564834
0.000622513
0.000337193
0.00124141
0.00286703
0.00424889
0.00152312
0.000936335
0.000318485
0.000656897
0.00227762
0.0017223
0.00532164
0.000465859
0.00110073
0.00357806
0.00127029
0.00138912
0.00123815
0.00560976
0.000466713
0.00456071
0.00123973
0.000196636
0.000382635
0.00285222
0.00160582
0.000937829
0.00124135
0.00264801
0.000197736
0.000577054
0.00147254
0.00124139
0.00140645
0.000350384
0.00127365
0.000778001
0.00163165
0.00124229
0.000946869
0.000765377
0.00324345
0.00128879
0.00148709
0.00123884
0.000350445
0.000356985
0.000422455
0.00132741
0.000249026
0.00152401
0.00123993
0.000445639
0.00136814
0.00124078
0.000521301
0.00316045
0.00225873
0.00155344
0.00429896
0.000786509
0.00378458
0.00147424
0.00360575
0.00443923
0.00281828
0.00141303
0.00026077
0.00404268
0.00124136
3.92604e-05
0.00124223
5.60451e-05
0.00148728
0.000568721
0.00163242
0.000172471
0.00241991
0.000447285
0.00175203
0.00297184
0.000688418
0.000461393
0.000452978
8.77529e-05
0.00163224
0.00046625
0.00152495
0.00141031
0.000579272
0.000631022
0.000514625
0.0012418
0.00445308
0.00357709
0.00124362
0.000443123
0.00126919
0.00165584
0.00192959
0.00368902
0.00133707
0.00452643
0.00261237
0.000775058
0.00335993
0.000277182
0.00025395
0.000547989
0.0012374
0.00156014
0.0010933
0.00164573
0.0030498
0.00123866
0.0016059
0.00123854
0.000411624
0.00236983
0.00134199
0.000277211
0.00524985
0.00426958
0.000470471
0.00129841
0.000461951
0.00125536
0.00124028
9.18978e-05
0.00124087
0.0023221
0.001245
0.000396102
0.00156055
0.000450181
0.000557823
0.000612001
0.000538682
0.00123982
0.00221415
0.00146681
0.000461421
0.000281457
0.00046317
0.000472615
0.00697681
0.00416405
0.0031728
0.00113403
0.00271708
5.35173e-05
0.00138615
0.000468359
0.000412801
0.00123977
0.000468239
0.00251428
0.0014676
0.00222998
0.000189832
0.000385302
0.00146495
0.000420426
0.00124826
0.00125143
0.0027733
0.00160213
0.00126904
0.00107198
0.00413823
5.24769e-05
0.00445564
0.00124159
0.00090739
0.00150162
0.000474632
0.000464781
0.00148609
0.001118
0.000455824
0.0042469
0.00595254
0.00434359
0.0026829
6.46243e-05
5.38279e-05
5.64291e-05
0.001321
0.00390612
0.000466594
0.00221533
0.00110231
0.00233165
0.000350478
0.000231853
0.00283618
0.000989152
0.000452964
0.00207409
0.000427089
0.00271418
0.000473049
0.00294755
0.00416275
7.2888e-05
0.000469316
0.00131021
0.000477135
0.00146527
0.00121711
0.000695078
0.00526212
0.00138539
4.49103e-05
4.56761e-05
0.00139016
0.000175647
5.76236e-05
0.000281534
0.000137117
0.000377627
0.000172894
0.000466165
0.000471051
0.00134397
0.000609928
0.00161862
4.73285e-05
0.00131389
0.000762896
0.000136536
0.00146624
4.63308e-05
4.60208e-05
0.000445246
0.000397742
0.00190269
4.48806e-05
0.00586001
0.000380886
0.000461394
0.000994814
0.000499065
0.00177755
0.00376474
0.00151609
0.000286035
0.00124093
0.00528843
0.0047532
0.00566183
0.000184242
0.0012456
0.00129319
0.0004606
0.00434296
4.91546e-05
0.00121454
0.0012398
8.29446e-05
0.00463792
0.00208211
0.00149694
0.000236516
0.000453412
0.00121388
0.00141582
0.00124132
0.00125526
0.000182929
0.00133376
0.00124749
0.00217819
0.0012417
0.00125458
0.00126456
0.00123871
0.0076479
0.00124194
0.00173196
0.000788558
0.000473669
0.00124211
0.000528241
0.00229608
4.55399e-05
5.33955e-05
0.00164927
0.00140465
0.00138218
0.00123749
0.00126828
0.00634814
0.00228176
4.08553e-05
0.00123871
0.00493687
0.000366205
0.00134829
0.00236132
0.000102549
0.000267047
0.00132944
0.00148966
0.00085692
0.00191845
0.00135659
0.00124134
0.0014144
0.00145326
0.00501592
9.62815e-05
0.000453601
0.000134142
0.00147807
0.000632261
0.000463714
0.00140274
0.00125299
0.00177547
0.00102559
0.00165107
0.00126005
0.000469774
0.000349575
0.000599694
0.00124573
0.00431289
0.000542462
0.00379978
0.00126072
0.00117564
0.0019194
0.000393467
0.000445492
0.00137527
0.00142175
0.00124395
0.00300006
0.00141623
0.00185328
0.00237674
0.00089919
0.00217973
0.00393165
0.00016874
0.00139599
0.00147171
6.47272e-05
0.000422418
0.00124076
0.00124943
0.00124196
0.00129657
0.00607651
0.000455013
0.000128266
0.000538582
0.000528139
0.00125603
0.000246729
0.000467812
0.00123811
0.00124764
0.000456548
0.00124636
0.00271301
0.00137135
0.000449709
0.00123756
0.00197641
0.00424357
0.00506071
0.000460694
0.00464049
0.00123831
0.00124227
0.00116353
0.00132618
0.0025375
0.000289141
4.03098e-05
0.00194495
0.000458304
0.00190516
0.000988428
0.00132735
0.000443229
0.00154542
0.00123901
0.00198189
0.000460668
5.42864e-05
0.00221356
0.00199189
0.000692249
0.00163567
4.75738e-05
0.000423028
0.00443695
0.000525098
0.00342173
0.00498926
0.00245744
0.00132432
0.00130101
0.0017656
0.000694522
0.000574782
5.90291e-05
0.00359495
0.00028198
9.54026e-05
0.00123922
0.0017912
0.00133627
0.000443636
0.00123871
0.000327217
0.000883853
0.000387073
0.000203131
0.000468798
0.00245077
0.00442173
9.39907e-05
5.01922e-05
0.00134098
0.00311193
0.00124799
0.00420529
0.000908891
0.00031835
0.0013831
0.00424927
0.000157882
0.00107379
0.00116553
0.000470244
0.000224123
0.0012293
0.000480812
0.000311421
0.00127065
0.00345088
0.000401071
0.000707623
0.00137071
0.000190146
0.00185894
0.000449844
0.00127827
0.00094706
0.00336595
0.00124133
0.000663569
4.11971e-05
0.0012505
0.00150216
0.00216048
0.00428602
0.0014671
0.0012721
0.000466443
0.00124136
0.000293013
0.00149698
4.44024e-05
9.39229e-05
0.00186647
4.71798e-05
0.000816935
0.00125196
0.00159294
0.0012688
0.00405314
0.00134903
0.000379062
0.000447743
0.00193734
0.00134524
0.00369413
0.00178089
0.00262976
0.00173348
0.00123896
0.004667
0.00123871
0.00572594
0.000559732
0.0045292
0.000975786
0.000650452
0.000434112
0.00489951
0.00318954
0.000456653
6.86796e-05
0.0012414
0.00124143
0.00108771
0.000717485
0.000388965
0.00243684
0.00535642
0.00129776
0.000328146
0.00123742
0.00420981
0.000473565
0.00158208
0.00127893
0.000492957
0.000103941
0.000388859
0.00259334
0.00123876
0.00341859
0.00124288
0.00139929
0.00296273
0.000369115
0.00159856
0.00125422
0.00141092
0.0058999
0.000418658
0.000920011
0.00139159
0.000220894
0.00423707
0.00124154
0.000571746
8.15622e-05
0.000458924
0.00328204
0.00123741
0.00146019
0.0013013
0.000464644
0.00124777
0.000729018
0.00105034
0.0012778
0.00179153
0.000396851
0.00137054
0.000986887
0.00117329
0.00134804
0.000761267
0.00490606
0.00338389
0.00123903
0.00124142
0.00159769
0.000460249
0.000471999
0.000461584
0.00158542
0.000768047
0.00393659
0.00118917
0.000470763
0.00139829
0.0025005
0.000326107
0.00123754
0.00209974
0.000280578
0.000277419
0.00126718
0.00124626
6.87999e-05
0.000184912
0.00133134
0.0039778
0.000822708
0.000414271
0.00125256
3.52957e-05
0.000691008
0.000703595
0.00168525
0.00104678
0.000862793
0.00141281
0.00128687
0.000450121
0.000132835
0.00126266
0.001242
0.00141232
0.00116847
0.00156353
0.00123993
0.00215138
0.00124132
0.001175
0.000499976
0.00486261
0.00124663
0.00147284
0.000624801
0.000356311
0.00199831
0.000194868
0.00743587
0.00080516
0.00137204
0.00124096
0.00309955
0.00140925
0.00023011
0.00153709
0.00175615
0.0023915
0.00227359
0.000133185
0.00123984
0.000777787
0.00117696
0.00045874
0.00128732
0.00491294
0.000365934
0.000311561
0.00187603
0.0052051
0.0015457
0.000466015
0.00255191
0.000467526
0.00124066
0.00198423
0.001304
0.00123736
0.00010421
0.00124154
4.68267e-05
0.00230002
0.00110972
0.00127198
0.00119179
0.000422913
0.00183842
0.00151094
0.00129925
0.00620663
0.00223154
0.00281351
0.00505676
0.00159933
0.00123916
0.00124153
0.00046574
0.00571891
5.87674e-05
0.000530492
0.00127956
4.63518e-05
4.06659e-05
4.4744e-05
0.00302806
0.000696105
3.75986e-05
0.00124133
0.000133
0.000125622
0.000464724
0.0012423
0.00242382
0.00144262
0.000112575
0.00124314
0.00165924
0.00123911
0.0052269
0.00223497
0.00132999
0.000452504
0.00123978
0.00449212
0.00041849
0.00124246
0.00142681
0.00124071
0.00138463
0.00308403
0.00128379
0.00113347
0.00256234
0.000463319
0.00124019
0.00107
0.00124199
0.000615917
0.00267119
0.00350416
0.000517375
0.00277026
0.00161245
0.00125876
0.000157503
0.00100829
0.00117855
5.34047e-05
0.000499182
0.00123809
0.000129265
0.000601858
0.000756497
0.00102528
0.00121074
0.00139711
0.000476386
0.00434701
0.00124025
0.00363676
0.00143454
0.00350367
0.000133477
0.00076607
0.00125484
0.000220358
0.000385901
0.00137355
0.0018834
0.00130929
0.000608712
0.000992429
0.00119472
0.00413345
0.00173555
0.000293886
0.000185921
0.00428805
0.000152866
0.00124855
5.08508e-05
0.00158819
0.00127988
0.00146928
0.00113013
0.00102275
0.00612248
0.00135208
0.00324186
0.00292179
0.00140577
0.0028915
0.00273599
0.00124195
0.00150666
0.00470104
4.41384e-05
0.000470037
4.463e-05
0.000723916
0.00189321
0.00108917
0.00124071
0.00124168
0.000444007
0.00663032
0.00134057
0.00156294
0.00123761
0.00160991
0.00252649
0.00514446
0.00130619
0.00160463
0.00146684
0.00209097
0.0013617
0.00549656
0.000391465
0.000543108
0.00124068
0.000542105
0.00145141
0.00168635
0.00217161
4.80266e-05
0.00364357
0.00212279
0.00067669
0.00402909
0.00242831
0.00396707
0.00566285
0.00130183
3.94154e-05
0.00124135
0.00129346
0.000441248
0.00281386
0.00270461
0.00108822
0.00043043
0.00124163
0.00124152
0.0014822
0.000129608
0.00138071
0.0012381
0.00134087
0.00272489
0.000465622
0.00137867
5.29861e-05
0.00116574
0.00166897
0.000366218
0.00125657
0.00130748
0.000124614
0.000378812
0.00015402
0.00124388
0.00123962
0.00109337
0.00161134
0.00236022
0.00127085
0.00124034
0.00425439
0.00126164
0.00181647
0.00304251
0.00558823
0.00243865
0.00153031
0.000438039
5.52299e-05
0.000461199
0.00200698
0.00124288
0.000283306
0.0012727
0.000262692
0.00124124
0.00181404