/*--------------------------------*- C++ -*----------------------------------*\
| =========                 |                                                 |
| \\      /  F ield         | OpenFOAM: The Open Source CFD Toolbox           |
|  \\    /   O peration     | Version:  2.3.1                                 |
|   \\  /    A nd           | Web:      www.OpenFOAM.org                      |
|    \\/     M anipulation  |                                                 |
\*---------------------------------------------------------------------------*/
FoamFile
{
    version     2.0;
    format      ascii;
    class       volScalarField;
    location    "0.66";
    object      p;
}
// * * * * * * * * * * * * * * * * * * * * * * * * * * * * * * * * * * * * * //

dimensions      [0 2 -2 0 0 0 0];

internalField   nonuniform List<scalar> 
15166
(
-17.2986
-22.3401
-25.1053
-27.3146
-29.1926
-30.7899
-32.2209
-33.4771
-34.5633
-35.3695
-36.1112
-36.684
-22.0222
-24.5412
-25.8979
-27.5628
-29.1359
-30.5607
-31.8641
-33.042
-34.073
-34.9021
-35.643
-36.236
-27.2108
-28.0992
-28.3721
-29.3053
-30.3024
-31.3173
-32.3159
-33.2474
-34.0963
-34.8218
-35.4668
-36.004
-30.1835
-30.5945
-30.5878
-31.1471
-31.7377
-32.4064
-33.1108
-33.7986
-34.4492
-35.028
-35.5473
-35.9758
-32.0493
-32.3026
-32.2757
-32.6747
-33.0508
-33.5055
-34.0001
-34.498
-34.9811
-35.423
-35.8261
-36.175
-33.6965
-33.8148
-33.7559
-34.0294
-34.2646
-34.5737
-34.9157
-35.2665
-35.6128
-35.9355
-36.2321
-36.4944
-35.287
-35.2864
-35.1777
-35.3298
-35.446
-35.6336
-35.8487
-36.0761
-36.3048
-36.52
-36.7155
-36.878
-36.7605
-36.6725
-36.5263
-36.5774
-36.5963
-36.6797
-36.7864
-36.9076
-37.0341
-37.1547
-37.263
-37.3497
-38.0984
-37.9444
-37.7751
-37.7492
-37.6934
-37.6927
-37.71
-37.7421
-37.7815
-37.8203
-37.8529
-37.8704
-39.3208
-39.1138
-38.9289
-38.8428
-38.7299
-38.6616
-38.6064
-38.5648
-38.531
-38.4995
-38.4642
-38.417
-40.4502
-40.1997
-40.0028
-39.8674
-39.7087
-39.5852
-39.4705
-39.3674
-39.2718
-39.1805
-39.0886
-38.9778
-41.5035
-41.2159
-41.0087
-40.8315
-40.635
-40.4652
-40.3007
-40.1459
-39.9978
-39.8553
-39.7179
-39.5745
-42.4883
-42.1695
-41.9538
-41.7409
-41.5126
-41.3033
-41.0966
-40.8977
-40.7043
-40.5164
-40.3347
-40.16
-43.412
-43.0664
-42.8434
-42.5999
-42.3447
-42.1017
-41.8588
-41.6211
-41.3873
-41.1557
-40.9179
-40.661
-44.2813
-43.9122
-43.683
-43.4128
-43.1344
-42.8624
-42.5886
-42.3181
-42.0508
-41.7892
-41.5361
-41.273
-45.1009
-44.7116
-44.4766
-44.1834
-43.8851
-43.588
-43.2878
-42.9894
-42.6932
-42.4012
-42.1184
-41.8419
-45.8754
-45.4684
-45.2283
-44.9149
-44.5991
-44.2801
-43.9567
-43.6336
-43.3117
-42.9923
-42.6785
-42.3765
-46.6095
-46.1862
-45.941
-45.6094
-45.2782
-44.9399
-44.5962
-44.2516
-43.9077
-43.5657
-43.2272
-42.8983
-47.3051
-46.8675
-46.6177
-46.2701
-45.9253
-45.5699
-45.2083
-44.8446
-44.4811
-44.1201
-43.7633
-43.414
-47.9654
-47.515
-47.2608
-46.8986
-46.5415
-46.1707
-45.7932
-45.4125
-45.0314
-44.6527
-44.2794
-43.9196
-48.5928
-48.1306
-47.8722
-47.497
-47.1288
-46.7442
-46.3521
-45.9559
-45.5583
-45.162
-44.7696
-44.3923
-49.1885
-48.716
-48.4539
-48.0668
-47.6884
-47.2914
-46.8862
-46.4757
-46.0631
-45.6502
-45.2368
-44.8314
-49.758
-49.2743
-49.0078
-48.6097
-48.2222
-47.8139
-47.3969
-46.9739
-46.5484
-46.1233
-45.6997
-45.2839
-50.2985
-49.8047
-49.5349
-49.127
-48.7311
-48.3126
-47.8851
-47.451
-47.0142
-46.5775
-46.1411
-45.7064
-50.8069
-50.3082
-50.0361
-49.6193
-49.216
-48.7884
-48.3516
-47.9076
-47.4603
-47.0128
-46.5665
-46.1204
-51.2967
-50.7891
-50.5133
-50.0882
-49.6782
-49.2423
-48.797
-48.3439
-47.8872
-47.43
-46.9734
-46.515
-51.762
-51.2463
-50.9679
-50.5349
-50.1185
-49.675
-49.2219
-48.7606
-48.2955
-47.8303
-47.368
-46.9034
-52.2046
-51.6807
-51.3998
-50.9597
-50.5376
-50.0871
-49.6268
-49.1579
-48.6848
-48.2105
-47.738
-47.2689
-52.6204
-52.0926
-51.8102
-51.3634
-50.936
-50.4791
-50.0122
-49.5362
-49.0557
-48.5732
-48.0899
-47.6021
-53.0168
-52.4833
-52.1998
-51.7468
-51.3145
-50.8519
-50.379
-49.8966
-49.4095
-48.9209
-48.4332
-47.9395
-53.393
-52.8565
-52.5698
-52.1107
-51.674
-51.2059
-50.7276
-50.2394
-49.7464
-49.2517
-48.7579
-48.2577
-53.7529
-53.2112
-52.9211
-52.4559
-52.0149
-51.5417
-51.0583
-50.5649
-50.0664
-49.566
-49.0678
-48.5663
-54.0832
-53.5434
-53.252
-52.7817
-52.337
-51.8593
-51.3713
-50.8732
-50.3695
-49.8633
-49.3575
-48.8479
-54.4026
-53.8584
-53.5637
-53.089
-52.641
-52.1593
-51.6672
-51.1647
-50.6568
-50.1464
-49.6374
-49.1276
-54.703
-54.1543
-53.8578
-53.3784
-52.9273
-52.4418
-51.9461
-51.4399
-50.9283
-50.4145
-49.9014
-49.3862
-54.9804
-54.4311
-54.1339
-53.6502
-53.1964
-52.7073
-52.208
-51.6982
-51.1833
-50.6666
-50.1529
-49.6391
-55.2421
-54.6905
-54.3927
-53.9045
-53.4479
-52.9556
-52.453
-51.9397
-51.4208
-50.8991
-50.3787
-49.8641
-55.4917
-54.9339
-54.635
-54.1419
-53.6828
-53.1871
-52.6812
-52.1642
-51.6413
-51.1145
-50.5844
-50.048
-55.7146
-55.1577
-54.86
-54.3622
-53.901
-53.4024
-52.8936
-52.3734
-51.8472
-51.3173
-50.783
-50.2237
-55.9292
-55.366
-55.0687
-54.5655
-54.1026
-53.6015
-53.0904
-52.5681
-52.0401
-51.5111
-50.9898
-50.4643
-56.121
-55.5565
-55.2603
-54.752
-54.2882
-53.7848
-53.2717
-52.7472
-52.2165
-51.6817
-51.1462
-50.6105
-56.2975
-55.7332
-55.4341
-54.9214
-54.4575
-53.9521
-53.437
-52.9103
-52.3775
-51.841
-51.3047
-50.7622
-56.4627
-55.8947
-55.592
-55.0753
-54.6112
-54.1038
-53.587
-53.0585
-52.5239
-51.9859
-51.448
-50.9005
-56.6025
-56.0382
-55.7356
-55.2124
-54.7499
-54.2405
-53.7221
-53.1919
-52.6555
-52.1159
-51.578
-51.037
-56.7342
-56.1668
-55.8619
-55.3355
-54.8742
-54.3621
-53.8422
-53.3103
-52.7723
-52.2304
-51.6888
-51.1426
-56.8435
-56.2773
-55.9706
-55.4437
-54.9847
-54.4684
-53.947
-53.4139
-52.8746
-52.332
-51.792
-51.2581
-56.9392
-56.3736
-56.0633
-55.5393
-55.0788
-54.5578
-54.0367
-53.5025
-52.9618
-52.417
-51.8709
-51.3262
-57.0176
-56.4563
-56.1381
-55.6212
-55.1518
-54.6344
-54.1122
-53.5765
-53.0348
-52.4894
-51.9447
-51.4086
-57.0838
-56.5231
-56.1998
-55.6867
-55.213
-54.696
-54.1727
-53.6361
-53.0934
-52.5469
-51.9989
-51.4533
-57.1336
-56.5751
-56.2468
-55.7355
-55.2602
-54.7431
-54.2187
-53.6813
-53.1378
-52.5907
-52.0437
-51.506
-57.1641
-56.6091
-56.2796
-55.769
-55.2923
-54.7752
-54.2501
-53.7121
-53.1677
-52.6188
-52.0663
-51.5131
-57.1836
-56.6291
-56.2981
-55.7881
-55.3103
-54.7932
-54.2676
-53.7293
-53.1845
-52.6353
-52.0823
-51.5207
-57.1867
-56.6337
-56.3017
-55.7919
-55.3136
-54.7968
-54.2713
-53.7334
-53.1894
-52.6424
-52.0971
-51.55
-57.1709
-56.6232
-56.2903
-55.7812
-55.3025
-54.7861
-54.2608
-53.7234
-53.1797
-52.6324
-52.0852
-51.5332
-57.1439
-56.5987
-56.2643
-55.7559
-55.277
-54.761
-54.2359
-53.6987
-53.155
-52.6071
-52.0598
-51.5149
-57.1012
-56.5593
-56.2237
-55.716
-55.2371
-54.7217
-54.1969
-53.66
-53.1164
-52.5683
-52.0185
-51.4666
-57.0483
-56.5045
-56.1684
-55.6616
-55.1829
-54.6681
-54.1439
-53.6079
-53.0652
-52.5183
-51.9712
-51.4294
-56.971
-56.4349
-56.0985
-55.5928
-55.1143
-54.6005
-54.0772
-53.5422
-53.0007
-52.4548
-51.906
-51.3484
-56.8883
-56.3505
-56.0137
-55.5094
-55.0316
-54.5187
-53.9964
-53.4628
-52.9232
-52.3809
-51.8439
-51.3224
-56.7845
-56.2506
-55.9143
-55.4111
-54.9341
-54.4224
-53.9013
-53.3688
-52.83
-52.2868
-51.7421
-51.2048
-56.6667
-56.1366
-55.8005
-55.2989
-54.8225
-54.3118
-53.7915
-53.2596
-52.7211
-52.178
-51.6315
-51.0869
-56.5389
-56.0105
-55.6734
-55.1728
-54.6971
-54.1874
-53.668
-53.1371
-52.5994
-52.0572
-51.5116
-50.959
-56.3956
-55.8682
-55.5315
-55.0323
-54.5574
-54.0491
-53.5312
-53.0019
-52.4659
-51.9261
-51.3867
-50.8518
-56.2332
-55.7103
-55.3748
-54.8775
-54.4039
-53.8971
-53.3808
-52.8533
-52.3191
-51.7805
-51.239
-50.6932
-56.059
-55.5383
-55.2035
-54.7083
-54.2361
-53.7313
-53.2168
-52.6914
-52.1594
-51.6236
-51.088
-50.5553
-55.8682
-55.3522
-55.0184
-54.5251
-54.0545
-53.5515
-53.039
-52.5157
-51.9859
-51.452
-50.9166
-50.378
-55.6647
-55.1529
-54.8194
-54.328
-53.8589
-53.3578
-52.8475
-52.3263
-51.7986
-51.2676
-50.7376
-50.2159
-55.4531
-54.9395
-54.6061
-54.1166
-53.6492
-53.1502
-52.6418
-52.1229
-51.5973
-51.0674
-50.5352
-50.0042
-55.2139
-54.7084
-54.3774
-53.8909
-53.4254
-52.9286
-52.4225
-51.9059
-51.3829
-50.8559
-50.3294
-49.818
-54.966
-54.4645
-54.135
-53.6507
-53.1874
-52.693
-52.1894
-51.675
-51.1546
-50.6299
-50.1027
-49.583
-54.7061
-54.2082
-53.8789
-53.3973
-52.9357
-52.4435
-51.9424
-51.4307
-50.9128
-50.391
-49.8683
-49.3658
-54.4321
-53.9361
-53.6086
-53.1297
-52.6704
-52.1804
-51.6816
-51.1725
-50.657
-50.137
-49.6123
-49.0928
-54.1442
-53.6515
-53.3241
-52.8478
-52.3908
-51.9036
-51.4075
-50.901
-50.3881
-49.871
-49.35
-48.8352
-53.8345
-53.349
-53.0251
-52.5523
-52.0978
-51.6136
-51.1204
-50.6171
-50.1076
-49.5947
-49.0806
-48.5784
-53.513
-53.0329
-52.7115
-52.2421
-51.7905
-51.3096
-50.8196
-50.3197
-49.8135
-49.3035
-48.7899
-48.2801
-53.1858
-52.7078
-52.386
-51.9191
-51.4698
-50.992
-50.5053
-50.0087
-49.5061
-49.0003
-48.4941
-48.0033
-52.8389
-52.3655
-52.0457
-51.5822
-51.1359
-50.6609
-50.1775
-49.6844
-49.185
-48.6817
-48.1741
-47.6693
-52.4778
-52.0076
-51.6904
-51.2308
-50.7877
-50.3161
-49.836
-49.3465
-48.851
-48.3523
-47.8525
-47.3685
-52.1014
-51.6368
-51.3214
-50.8653
-50.4254
-49.9573
-49.481
-48.9953
-48.5037
-48.0088
-47.5104
-47.0142
-51.7068
-51.2497
-50.9375
-50.4857
-50.0491
-49.5848
-49.1123
-48.6303
-48.1432
-47.653
-47.1638
-46.6925
-51.3031
-50.8503
-50.5402
-50.0924
-49.6591
-49.1987
-48.7299
-48.2517
-47.7681
-47.2805
-46.789
-46.31
-50.8866
-50.4378
-50.1298
-49.6858
-49.256
-48.7993
-48.334
-47.8597
-47.3795
-46.8949
-46.4042
-45.9147
-50.4545
-50.0104
-49.7046
-49.2651
-48.839
-48.3865
-47.9253
-47.4556
-46.9804
-46.502
-46.0215
-45.5448
-50.0069
-49.5684
-49.2654
-48.8305
-48.4084
-47.9602
-47.5039
-47.0393
-46.5696
-46.0977
-45.6274
-45.1735
-49.5442
-49.1119
-48.812
-48.3819
-47.964
-47.5203
-47.0687
-46.6089
-46.1436
-45.6748
-45.2027
-44.7361
-49.0661
-48.6417
-48.3452
-47.9198
-47.506
-47.0667
-46.6196
-46.1645
-45.7041
-45.2405
-44.7761
-44.3322
-48.5824
-48.1599
-47.865
-47.4444
-47.0345
-46.5998
-46.1574
-45.707
-45.2515
-44.7922
-44.3281
-43.8623
-48.0787
-47.6623
-47.3704
-46.955
-46.5494
-46.1196
-45.6821
-45.2371
-44.7871
-44.3349
-43.8839
-43.4501
-47.5592
-47.1493
-46.8611
-46.4511
-46.0506
-45.6259
-45.1939
-44.7542
-44.3096
-43.8632
-43.4171
-42.9954
-47.0257
-46.6228
-46.3385
-45.934
-45.5382
-45.1188
-44.692
-44.2576
-43.8181
-43.3754
-42.9309
-42.5114
-46.4795
-46.0825
-45.8017
-45.4027
-45.0119
-44.598
-44.1767
-43.7475
-43.3132
-42.8748
-42.4282
-41.9832
-45.9198
-45.5289
-45.2518
-44.8587
-44.473
-44.0646
-43.6492
-43.2265
-42.7999
-42.3724
-41.9476
-41.5595
-45.3474
-44.9633
-44.6888
-44.3014
-43.9208
-43.5181
-43.1088
-42.6926
-42.2725
-41.8505
-41.4237
-41.0082
-44.7624
-44.3822
-44.1117
-43.7304
-43.3552
-42.9585
-42.5549
-42.1447
-41.7307
-41.3141
-40.8947
-40.4982
-44.1567
-43.7865
-43.5207
-43.1456
-42.7759
-42.3852
-41.9877
-41.584
-41.1764
-40.7665
-40.3523
-39.9428
-43.5457
-43.179
-42.9159
-42.5468
-42.1832
-41.7987
-41.4078
-41.011
-40.6106
-40.2092
-39.8089
-39.4336
-42.9193
-42.5579
-42.2982
-41.9352
-41.5772
-41.1992
-40.815
-40.425
-40.0312
-39.6353
-39.2348
-38.8363
-42.2685
-41.9181
-41.665
-41.3094
-40.9579
-40.5867
-40.209
-39.8262
-39.4398
-39.052
-38.6645
-38.3005
-41.6154
-41.2697
-41.0192
-40.6702
-40.3251
-39.961
-39.5905
-39.2148
-38.8362
-38.456
-38.0729
-37.6935
-40.9446
-40.6065
-40.3606
-40.0184
-39.6801
-39.3228
-38.9596
-38.5915
-38.2207
-37.8491
-37.4803
-37.1367
-40.2631
-39.9303
-39.6883
-39.353
-39.0214
-38.6716
-38.3158
-37.9554
-37.592
-37.2263
-36.8564
-36.4986
-39.5626
-39.2387
-39.0022
-38.6748
-38.3501
-38.0077
-37.6596
-37.3071
-36.9518
-36.5952
-36.235
-35.8835
-38.8505
-38.5345
-38.3033
-37.9836
-37.666
-37.3317
-36.992
-36.6481
-36.3023
-35.9571
-35.6143
-35.2869
-38.1309
-37.8195
-37.5922
-37.28
-36.9698
-36.6433
-36.3121
-35.9769
-35.6401
-35.3033
-34.9677
-34.6534
-37.394
-37.0912
-36.8687
-36.5638
-36.2611
-35.9427
-35.6197
-35.293
-34.9645
-34.6349
-34.3022
-33.9781
-36.6457
-36.3491
-36.1318
-35.8351
-35.5401
-35.2301
-34.9152
-34.5977
-34.2788
-33.9604
-33.6441
-33.3554
-35.882
-35.5945
-35.3821
-35.0937
-34.8065
-34.5053
-34.1995
-33.8912
-33.5815
-33.2716
-32.9584
-32.65
-35.1094
-34.8278
-34.6198
-34.3398
-34.0612
-33.7688
-33.4727
-33.1742
-32.8743
-32.5748
-32.2749
-31.9891
-34.3233
-34.0478
-33.8458
-33.5745
-33.3042
-33.0212
-32.7349
-32.4469
-32.1581
-31.871
-31.5865
-31.3223
-33.5213
-33.2554
-33.0592
-32.7966
-32.5352
-32.2624
-31.9863
-31.7086
-31.4306
-31.1537
-30.875
-30.6021
-32.7103
-32.4516
-32.2612
-32.0077
-31.7556
-31.4928
-31.2273
-30.9605
-30.694
-30.4291
-30.1671
-29.9265
-31.8859
-31.6357
-31.4516
-31.2073
-30.9644
-30.7121
-30.4577
-30.2025
-29.9483
-29.6953
-29.4409
-29.2009
-31.0554
-30.8113
-30.632
-30.3968
-30.1633
-29.9214
-29.6782
-29.4351
-29.194
-28.9565
-28.7224
-28.5227
-30.2122
-29.9752
-29.8008
-29.5752
-29.3515
-29.1207
-28.8884
-28.657
-28.4279
-28.2029
-27.9803
-27.767
-29.3552
-29.1274
-28.9603
-28.7441
-28.5301
-28.3098
-28.0889
-27.8685
-27.6495
-27.4319
-27.2119
-26.9917
-28.4947
-28.271
-28.1088
-27.9024
-27.6985
-27.4896
-27.2808
-27.0728
-26.8667
-26.6636
-26.4653
-26.2941
-27.617
-27.403
-27.2481
-27.0521
-26.8588
-26.6617
-26.4658
-26.2714
-26.0796
-25.8907
-25.7015
-25.5169
-26.7339
-26.5274
-26.3783
-26.1926
-26.0108
-25.8268
-25.6444
-25.4648
-25.288
-25.1154
-24.9474
-24.8009
-25.8416
-25.6446
-25.502
-25.3265
-25.1559
-24.9846
-24.8162
-24.6519
-24.4918
-24.3357
-24.1823
-24.0462
-24.947
-24.7543
-24.6174
-24.4526
-24.2942
-24.1365
-23.9827
-23.8335
-23.6899
-23.552
-23.4195
-23.3217
-24.0421
-23.8565
-23.7266
-23.5724
-23.4259
-23.282
-23.1434
-23.0098
-22.8816
-22.7592
-22.639
-22.5212
-23.1273
-22.9511
-22.8287
-22.6863
-22.5524
-22.423
-22.2997
-22.1823
-22.0699
-21.9619
-21.8548
-21.7488
-22.2118
-22.0428
-21.9265
-21.7955
-21.6753
-21.5611
-21.4547
-21.3556
-21.2629
-21.1775
-21.1026
-21.0649
-21.2938
-21.1301
-21.0208
-20.9016
-20.7953
-20.6976
-20.609
-20.5291
-20.4566
-20.3899
-20.3252
-20.2687
-20.368
-20.2128
-20.1114
-20.0052
-19.9138
-19.8334
-19.7642
-19.7045
-19.6528
-19.6077
-19.5675
-19.5569
-19.4423
-19.2944
-19.2002
-19.1069
-19.0317
-18.9703
-18.9217
-18.8843
-18.8556
-18.833
-18.811
-18.7958
-18.517
-18.3747
-18.2889
-18.21
-18.1521
-18.1116
-18.0859
-18.0729
-18.0697
-18.0739
-18.0822
-18.1046
-17.5885
-17.4539
-17.3772
-17.3142
-17.2759
-17.2583
-17.2583
-17.2726
-17.2979
-17.3314
-17.3712
-17.4254
-16.6634
-16.5348
-16.4679
-16.4227
-16.4066
-16.415
-16.4435
-16.4872
-16.542
-16.6047
-16.6735
-16.7613
-15.7372
-15.6169
-15.5619
-15.5375
-15.548
-15.5864
-15.6468
-15.7229
-15.8085
-15.8984
-15.9864
-16.0776
-14.8154
-14.7014
-14.6615
-14.6633
-14.7063
-14.7809
-14.8782
-14.9906
-15.1109
-15.2336
-15.3553
-15.4921
-13.893
-13.7883
-13.7699
-13.808
-13.8935
-14.0121
-14.1521
-14.3037
-14.4601
-14.6155
-14.7638
-14.9114
-12.9666
-12.8758
-12.8942
-12.9864
-13.1284
-13.2998
-13.4872
-13.6805
-13.8729
-14.0594
-14.2343
-14.4036
-12.0289
-11.9707
-12.0581
-12.2334
-12.4489
-12.68
-12.9142
-13.1438
-13.3688
-13.5831
-13.7752
-13.9332
-11.0576
-11.1437
-11.3809
-11.6842
-11.9809
-12.2594
-12.5292
-12.7857
-13.029
-13.2718
-13.4722
-13.6551
-1.51132
9.70874
-10.3084
-19.2166
-19.8569
-7.20032
-4.75764
32.75
-44.7911
-39.9599
-35.0474
-14.855
16.5881
-41.2456
1.38599
-6.75737
-41.2709
-30.5993
-30.0394
-6.48884
27.9829
26.3244
17.7848
-16.1201
-0.857631
-10.8524
24.3645
0.646162
-42.5139
-37.8096
-42.477
30.9144
9.58124
-34.656
16.7937
18.0433
33.6641
-30.8182
33.2344
-14.7595
2.32282
-1.9909
24.6823
-0.419807
33.4336
26.1238
19.0531
19.9917
33.3649
27.9715
18.7592
32.5676
30.9373
1.49086
-36.9589
9.41827
12.904
-2.36877
-31.5741
0.921495
24.169
30.329
1.53632
-3.96671
17.5253
9.71182
-13.6883
30.4916
16.335
-39.4147
-37.0557
13.9387
33.1334
-13.2574
-15.4929
2.61655
-44.3286
-1.67794
10.0152
28.8014
2.66445
-1.9325
33.914
32.5578
1.96523
-44.3982
-13.714
0.919572
-39.5739
33.5431
27.987
-41.3223
-0.226492
7.82808
34.3248
-4.18769
0.516338
-1.90755
-0.642125
-13.3444
-15.8561
14.5774
5.57202
8.91224
-1.70936
33.9713
1.83149
33.2503
-13.6619
0.350449
17.9788
-2.06976
30.5197
-7.7316
1.68686
15.6666
-19.9036
-6.20083
-45.7002
-33.336
-10.6051
-21.5297
-42.0197
15.407
-18.1223
-40.3271
-1.92273
11.6045
19.3704
1.03075
31.5952
1.4001
21.4186
8.84739
23.5179
10.7801
34.0285
-39.3995
31.5452
10.3897
-19.1499
28.7192
27.1225
0.538198
30.8957
-37.13
31.6713
-10.684
-47.9229
3.35675
0.321617
16.647
-1.66771
4.76351
22.1787
3.2272
31.8296
-1.35024
-41.7123
-14.5818
-22.091
-6.32606
-30.1841
-15.0633
24.1409
26.3773
31.5946
34.3123
10.901
1.48669
-38.1094
-18.0676
-36.9181
-19.251
-1.10229
-41.2493
1.95423
32.3908
25.2137
-36.9815
31.068
-32.2837
-7.56587
33.4018
6.30574
31.4886
3.49399
-1.70589
31.7771
1.62154
-40.3786
-1.74514
31.915
-5.90091
32.0477
8.06065
26.9525
30.4001
2.38175
-61.4228
-47.5673
32.4141
34.355
31.1708
32.8672
14.1222
-7.97454
-36.2495
-13.8279
-15.9303
4.31375
-46.9819
33.4128
34.2282
1.93901
31.185
-11.1909
-13.1306
-63.5321
30.5442
32.4362
-47.8288
33.5687
-3.23904
-3.26708
-39.9204
-44.8067
-2.07334
-56.4278
20.0276
33.7384
-17.1118
-2.30153
-13.0106
-13.3749
27.4036
31.2411
-47.3665
-1.80727
32.8943
-33.332
19.4548
-40.7467
-45.935
33.0708
2.45559
19.8882
6.01826
-42.4818
31.342
-40.1264
-13.3934
-40.3665
-71.5369
28.2593
-31.6905
0.0949082
32.6676
-42.199
33.4
-15.2348
27.0932
17.3273
-8.6095
-14.3246
27.583
-46.5803
32.7187
-3.68244
6.48053
0.177303
18.6137
-45.2873
33.0929
32.8852
-44.4147
21.8574
34.4527
34.254
32.6631
32.6385
23.3646
33.6995
33.1971
-25.4649
27.4653
-33.0661
33.2278
-50.0976
29.507
32.6453
-42.3222
34.9561
34.9491
30.4554
32.0086
28.043
30.7001
23.9775
34.247
29.0807
-0.741182
-10.825
-37.566
22.3453
-46.5049
34.4993
1.55032
14.3867
16.6656
-27.9375
34.7071
3.4469
-50.9239
32.5037
24.3755
34.9042
-31.4263
2.01228
27.8127
22.0459
-41.8216
-15.3304
69.706
34.2389
-30.7883
-26.204
-2.31633
2.57492
34.7397
-4.08382
0.640476
-41.8268
-2.2703
2.63705
4.24883
-1.70755
14.9904
2.15794
6.52427
-0.323207
33.0154
0.121594
29.3956
12.9122
31.6238
33.6236
-42.1349
-60.7292
-12.6692
-0.170169
-4.06266
13.8573
26.011
34.7971
-1.17876
-25.346
33.5389
-46.1395
-40.0123
30.1007
33.7028
-49.002
-61.3687
21.2616
-21.6338
-3.18213
0.324682
-1.55275
0.706482
-29.7903
30.2461
33.9941
-33.1987
-41.7279
28.7304
33.1788
-48.2766
3.57205
-35.8024
-11.046
-11.0819
-1.39272
33.1491
-67.0634
28.0377
-0.864869
21.7731
28.623
19.7465
3.50473
-37.2368
-35.6888
30.7646
30.2905
-3.0242
-55.76
-2.80582
-33.8539
-26.8311
13.1527
-14.3693
-12.985
14.1072
-43.433
30.9287
-48.7958
-41.2346
31.3143
33.3118
-2.21853
-0.821397
1.55665
-49.2657
12.7161
28.7865
-62.5231
30.4041
30.6388
3.41158
0.202356
30.6391
1.69699
-3.00133
32.5318
0.583777
-21.6434
-47.3121
33.9103
0.580221
-14.0846
-11.2361
-31.4655
29.425
-32.5513
1.96321
-41.4937
-37.331
28.6094
-6.84181
34.5698
33.2524
12.9851
32.0709
8.54987
-14.456
-6.82788
31.8917
27.0094
2.12659
-37.5274
29.7141
33.466
10.7459
-41.8303
28.3662
9.66301
34.798
34.2329
-32.433
28.6085
-10.4218
22.8582
-4.52609
-50.1394
-28.142
2.28271
29.3302
22.8502
33.3539
-25.8524
33.6561
19.1352
0.823436
-38.0164
-46.7778
30.8413
1.99114
31.8785
-13.1579
0.115689
33.5102
33.2829
-23.2125
-20.629
30.2075
34.1741
-6.22572
-19.4048
-42.8957
-22.3529
0.944858
32.4123
-57.7266
-17.2723
30.5439
-23.7877
-1.02657
33.1338
33.9281
-40.5084
31.0784
33.6241
2.45377
26.293
34.3916
22.9635
-48.3235
31.0988
-37.6737
31.7014
-49.5365
-13.7744
-36.8348
2.00603
-15.7085
31.4392
-37.6473
-13.9788
21.4091
15.8633
-12.5254
1.31239
31.5559
-0.694161
3.77341
-14.8047
33.6809
30.2581
-38.9823
34.9538
-15.2381
-17.4602
-37.2818
-2.15892
25.9694
-47.401
-36.3897
30.3884
-42.5656
-7.71207
-17.814
-21.4707
-48.246
-43.3064
-1.82929
-26.3765
1.95671
19.6122
9.06634
13.8133
-17.3889
28.4736
33.6714
-30.3883
26.223
29.0595
-13.8704
0.00802027
-0.106188
16.6568
-13.4305
30.6448
-39.119
-31.5302
-25.9521
31.7885
0.499597
16.999
27.6791
10.8619
-49.6762
24.3566
30.0027
30.32
12.4573
0.449918
-9.38805
-2.67427
-36.0464
-36.1246
33.0709
-43.747
4.26546
-45.8297
25.0432
33.0044
27.5528
-43.9612
0.130063
-32.4615
1.30778
28.5276
-13.3944
32.2826
-36.7077
-0.0879394
-46.091
-40.8498
33.4607
1.83861
-0.660879
-26.6586
-17.3407
11.7117
11.9936
8.30439
-12.7966
-6.26459
7.621
29.7406
-29.246
-33.8717
-1.86129
0.820924
-44.4461
34.1616
32.6956
33.5987
10.7179
29.3628
-6.8367
-30.6975
25.6756
-1.78593
11.348
30.2422
1.56008
14.4133
33.874
-50.3787
-50.7112
3.39482
-13.0604
29.1762
-49.7367
19.3728
25.1677
32.2124
-2.12202
31.9846
29.4066
23.5545
-22.1532
-9.38995
-0.321413
-48.233
-50.9599
32.2003
-60.8108
4.45211
2.76262
-45.905
-31.0176
10.4447
1.96405
-41.924
-1.12058
-36.3039
31.7157
-31.2637
2.02344
-45.9068
-0.0557106
32.8855
-37.7951
33.5812
17.0763
25.4814
-48.4526
-1.14371
19.0924
-48.1163
31.7537
-36.8399
-3.98168
-40.3365
-17.9673
1.34461
2.35864
24.1736
-15.0303
32.2643
4.06469
-25.4103
34.2336
34.3041
-38.7183
23.5396
-38.4748
33.8133
27.4066
33.0819
-2.17946
13.5333
-1.13186
1.50343
30.1583
2.13793
34.8894
-10.6978
-35.4062
1.45856
28.6793
34.1123
-37.1411
-5.31327
-26.7276
18.8933
-52.8008
-17.3549
-28.6039
-40.611
-1.86532
0.845008
33.2053
20.6276
34.3399
29.6526
3.8277
34.8362
34.9155
32.8923
-37.052
-16.6334
32.8875
-0.533042
4.46253
-56.5829
33.4981
1.26154
15.1421
-38.4368
6.45383
-2.37118
-41.5408
2.05411
-26.6076
-57.9188
6.3501
32.1525
-1.61947
23.0341
32.7934
1.41694
-8.69816
-1.2843
7.34552
-9.47231
-52.4255
-32.0873
27.601
29.3691
1.92133
-13.8787
-0.634762
-0.648457
-21.2373
14.8983
30.6166
16.5075
-43.6546
-2.86911
-109.943
-0.506571
-10.2908
33.0054
30.1055
-1.66016
31.6933
-17.4864
29.2846
-10.4848
-42.7107
-43.9296
31.3882
-24.7436
-15.0094
17.3422
8.05726
27.3584
-58.0183
-13.3476
29.0358
0.119189
32.5599
-8.11887
-39.5388
-44.947
-16.1659
-13.9743
-43.143
-23.8661
6.08243
34.3737
29.19
-12.4078
7.35625
-3.33208
33.8416
-37.405
-5.30664
-42.2563
-28.3811
25.9429
24.2428
-48.3395
-11.1443
27.6851
-12.2066
-38.9229
-38.7163
0.209592
-43.219
-15.7617
34.1371
32.4846
30.5669
0.113615
-10.7378
-2.8227
1.74862
2.38271
31.0467
23.1993
20.4821
-37.8733
0.665581
-43.7973
15.5698
23.5982
1.95702
-38.5732
-4.1918
26.4398
-42.6964
23.7774
30.6364
28.5196
-2.12413
26.3504
-38.1638
10.2428
14.1346
31.9721
-39.9686
28.0087
16.0803
-15.3866
-13.9887
26.9792
-26.9054
-28.8911
30.8743
0.417501
-50.6024
15.3051
12.6142
-9.05562
-58.3944
26.8687
-0.424961
1.19819
-45.347
29.9373
-48.615
1.38818
-36.3586
-38.1921
33.7616
6.52055
33.5865
-29.9323
6.56185
29.3274
-2.0494
-50.3317
34.0857
34.0222
34.6386
3.1928
1.99477
15.4297
-41.3321
-40.593
-32.0394
0.323054
-14.3856
3.88935
12.7773
-39.7162
25.044
27.7164
28.0079
16.894
33.3536
32.6238
-37.5232
0.00677119
34.2918
-32.3076
31.6933
1.15134
-41.6909
-4.33767
1.98089
4.4798
29.8316
-20.8227
-10.8183
26.3722
-54.7533
-4.70326
3.80045
16.3248
23.1411
-11.7447
27.9146
2.61425
-3.12748
-13.7405
13.9226
-12.9836
-40.9048
33.2474
-16.5739
22.2404
-35.6765
28.3165
30.4535
32.3705
-40.4896
31.8766
1.66866
32.8126
-10.5735
-2.26242
-41.3781
30.0149
21.1452
25.7232
-8.22022
-44.0118
-35.8612
-0.414466
34.1246
2.73917
33.19
-31.5353
33.2043
-2.03546
-45.3651
34.2537
-35.5529
33.1188
32.9915
-15.1177
-29.5382
23.7312
0.625457
15.0992
34.9204
-1.37921
-48.295
32.2825
-2.32815
-15.4478
10.6853
33.2676
33.6727
-31.4993
31.4339
32.6516
-10.2921
31.5616
27.0203
30.5848
31.2981
1.56171
-1.61597
-40.2622
-6.00684
-38.8834
32.9994
-0.808311
-36.8769
33.2248
-2.27766
30.0635
25.2496
31.1484
31.0624
18.4415
-41.1717
-38.1732
30.8014
-33.1004
-21.2881
26.1203
33.8681
-45.5449
-30.7041
-38.5939
-21.5084
-15.8928
28.5312
-9.88244
-18.2689
-31.1195
-0.441749
-40.5806
33.0398
12.6589
1.70919
-3.20553
-3.2066
31.5023
-2.11193
32.6854
-0.164259
31.7906
-7.40093
3.3494
-46.3818
33.7314
1.88256
31.4898
33.7561
-25.0793
27.0589
-17.8726
32.2716
-1.61903
30.3533
21.4521
2.9291
10.3907
34.4824
30.9576
-0.140335
2.31264
33.7328
2.32837
28.6955
-31.3625
-31.5379
31.3349
-19.2652
18.8106
-100.853
-44.9352
33.5162
-53.7437
-41.4551
2.31048
31.1343
-43.0735
-44.4742
2.46806
26.4047
-1.20398
-7.25329
30.6216
-10.483
-17.3584
6.32743
-13.8764
-62.042
13.9522
-1.15861
25.034
0.472845
10.4802
24.7293
-64.6496
24.6569
5.48178
-3.15688
-47.6637
26.8688
4.72185
7.88316
27.8751
24.5467
33.6665
34.7276
-15.0224
-1.39814
-13.6565
2.63319
39.329
26.7186
-87.8057
29.5235
-29.8724
1.10471
-50.734
-0.330248
2.74619
11.6268
30.7686
31.6863
-48.1349
2.64198
-16.9662
-1.91354
27.2524
-48.2246
0.94939
32.999
1.38645
1.10937
5.79049
16.4225
-13.2161
-40.6068
-22.1803
2.97834
-2.63347
31.3928
32.4264
32.1379
-44.8418
27.6005
31.3205
2.8815
11.4045
-35.248
32.482
-14.219
14.1039
1.29031
34.1249
-2.0498
31.9493
32.1903
-7.64883
-12.177
33.215
-16.4526
21.8
1.67018
-35.9984
-40.78
33.1617
-2.86248
-17.8751
-35.342
-20.3014
23.3232
-38.732
1.95656
1.534
0.316519
-19.6483
33.9728
-47.0193
0.244616
34.861
-43.5486
29.767
25.6959
-19.092
14.1024
1.71593
20.5038
30.4617
31.2481
-1.03902
-40.5271
-2.35405
-16.8487
-17.09
-44.2263
21.6103
-39.8733
-41.5206
8.90321
14.5457
2.25726
-1.66521
6.32614
-12.656
-7.35186
0.963825
-44.0483
33.3933
-0.583511
31.4928
-34.9022
3.53393
1.89535
-62.363
31.4386
-35.7657
-20.8099
23.5531
30.2911
-27.0115
20.2102
-40.0721
33.0507
32.6473
34.7959
25.8432
33.7724
31.804
-18.4932
33.7085
3.71744
33.3286
15.4461
28.4472
-22.903
29.3643
-32.9963
11.3402
34.4982
23.0341
34.2954
33.3732
34.6
-28.1203
-3.82808
8.57863
2.09858
-20.3499
-39.3711
1.93385
-45.0929
2.59575
15.4198
32.8994
30.9627
-43.4654
-22.7271
22.84
-46.338
-7.21123
34.5395
-2.81396
32.3633
-49.2543
0.775799
-15.9532
-4.19041
21.4193
32.206
30.8648
25.35
31.5579
-1.80264
21.1878
30.5589
-46.7152
5.89961
14.3473
29.3261
31.4841
-19.0309
32.0477
-16.8388
-7.39595
-12.5812
1.21843
-8.95109
32.4807
-41.5755
33.3064
29.7223
-26.7538
-30.0123
25.8105
1.44961
32.8996
1.24001
1.62685
-0.748808
16.0369
32.1446
28.6412
-38.4425
33.0746
32.6657
6.31793
3.49973
26.5306
26.6297
19.8714
33.1017
-22.4575
33.5615
-0.838718
33.714
7.68972
7.34189
1.93168
-37.5706
-19.1511
28.7866
-26.2802
-42.0512
-46.002
2.0152
-40.1611
34.5441
33.833
-0.335505
-9.59813
28.0762
32.7306
-35.1128
31.8977
-1.74655
-37.1833
3.08947
32.3481
-16.3209
31.1437
13.6593
-12.3284
-0.662348
43.576
-0.893754
-45.0971
18.2032
3.31349
16.3238
30.7048
-1.39555
-0.60208
-1.89991
16.0584
32.9164
-25.9225
-3.49836
31.6099
25.0821
34.0989
1.85164
34.4752
25.9101
27.8124
-21.8932
33.673
-16.0178
34.8269
-11.0358
30.8281
32.2956
33.9248
-0.742686
26.0024
32.585
31.9029
7.62453
0.810902
31.3784
23.9707
1.73459
-4.78619
-50.7255
0.913498
-37.1467
-45.332
32.9797
33.574
-27.2281
24.6966
-31.7016
-52.181
-25.8374
-13.3685
-35.9586
34.7806
28.4326
-1.48649
33.8316
-5.61118
-0.816375
2.92483
-0.21092
1.89893
4.17678
-25.697
-100.282
-31.402
8.13071
-37.8241
29.1176
-3.71378
30.9825
28.4088
-21.3937
27.12
-43.4175
34.6849
24.725
20.2513
-2.00247
2.23404
16.4975
21.3968
33.6455
32.8213
-44.083
27.9058
30.9252
-9.00737
32.8816
33.3687
-1.13717
32.8032
-42.4142
4.05538
-18.5833
14.8396
-18.3192
33.0214
-32.1608
-15.9456
7.04735
-33.0324
5.31207
-10.4806
1.19716
-18.687
-40.3561
-25.6268
-0.642057
-1.44466
25.6429
32.4812
-38.2124
31.2366
-24.473
33.305
32.1831
2.02447
33.6205
-1.2677
-33.1774
27.9863
-31.7772
24.2364
-49.5414
-16.064
33.5935
33.8505
-50.5663
32.4905
-14.2877
34.6228
-38.7947
22.8509
-31.6127
33.922
12.0564
5.43051
-41.0621
-32.2186
1.70959
-0.122529
-6.96306
-5.50418
34.4047
-0.920197
33.0506
30.2888
31.8842
-43.2018
2.9239
-33.8318
30.4088
34.1806
32.1972
32.9078
-42.3674
-5.05126
1.62489
3.43629
-28.8579
2.90968
33.5273
31.3419
5.20225
-17.6193
-35.9838
34.0543
33.0434
1.87948
31.2075
-27.0655
8.71779
11.5489
34.2539
33.5293
-9.85311
26.5604
-1.45935
2.72873
34.64
7.32478
-19.683
2.46176
32.5989
-9.88164
23.7487
-50.1419
16.2259
-28.0631
-40.5662
6.43371
3.43943
-9.85534
0.808696
30.7837
33.4185
32.4239
-1.11678
22.8854
-27.9178
8.40269
-13.1677
-16.8209
-0.314882
2.1263
14.6181
-11.7766
0.710807
28.8857
4.03743
-46.071
-5.9522
-7.49414
-22.5222
23.2173
13.9085
21.3905
-48.2615
12.3565
-1.91946
32.4545
30.9384
-40.3044
0.0218298
34.791
31.3383
-4.36343
32.1844
-28.2124
-26.5698
5.69197
26.4894
-9.29185
30.9012
-48.0458
-40.1176
11.0572
-30.3665
-1.51734
33.5408
-1.83127
-23.476
14.6269
31.2215
-27.8326
-38.2387
16.6818
-13.893
-0.802102
-32.9515
-10.6313
3.23253
-3.68589
34.1154
33.6553
25.1471
14.0079
29.3979
-6.39461
1.55662
2.42157
-40.4556
-15.2263
-36.206
26.4182
33.6576
32.8129
-21.2151
17.2453
2.79972
-1.24183
29.4112
-26.6828
-38.8977
-14.5215
4.11053
-16.1146
20.4283
34.3539
33.1889
-25.6319
34.4217
-40.5938
-0.705302
4.19884
-17.5064
33.8109
-41.0062
32.8582
34.6816
8.05266
-48.8498
-2.71045
31.6804
19.798
20.005
-1.62022
21.5042
17.7119
-37.6599
-32.9106
-1.00722
32.3835
-3.22188
33.5525
-42.9766
-1.68168
21.1548
-0.385531
29.3465
-26.3674
26.8758
-1.64428
29.5015
33.7634
31.6136
-38.4749
19.8944
-36.9303
3.58817
-14.4774
34.3239
-49.8684
-12.4293
-8.48698
-4.31647
33.6314
6.55482
-13.5646
1.34116
-24.4648
1.91256
7.58916
-0.0297791
-3.16345
-16.5769
-13.2687
1.19629
-43.6828
-17.3044
-26.1683
-38.0229
-8.68089
-2.54003
34.3582
-6.49545
0.908947
-29.5451
-11.0292
-43.9477
21.8631
-12.278
10.5231
-0.948533
-7.58361
-22.7075
20.4097
-36.064
-12.5903
-11.2218
-26.8772
33.6661
-41.027
3.47635
-0.30677
-43.1529
-11.8327
12.1331
18.4376
1.4856
-40.5268
5.66855
-30.696
-40.4944
33.0123
-2.41886
34.4472
1.24166
-14.145
31.3033
1.81774
34.4982
-30.0507
1.68791
32.8312
1.57836
13.6628
15.0689
3.99185
-23.8254
29.1105
-43.8117
-27.6027
-48.2649
11.8315
32.9905
29.8038
-42.3066
-17.0635
2.04826
-58.2998
23.7717
-43.6508
13.0171
-18.511
0.253172
-2.66247
31.2889
-14.6348
31.1361
-28.5369
31.3179
-2.6009
1.95685
4.33091
22.5604
12.0503
-23.1012
-1.87959
-30.4983
32.0929
18.3101
-16.1677
-38.4874
0.220719
27.8972
0.856291
1.87354
30.9261
-41.235
-25.5344
16.3905
-2.1436
-34.9913
-7.76292
32.4701