/*--------------------------------*- C++ -*----------------------------------*\
| =========                 |                                                 |
| \\      /  F ield         | OpenFOAM: The Open Source CFD Toolbox           |
|  \\    /   O peration     | Version:  2.3.1                                 |
|   \\  /    A nd           | Web:      www.OpenFOAM.org                      |
|    \\/     M anipulation  |                                                 |
\*---------------------------------------------------------------------------*/
FoamFile
{
    version     2.0;
    format      ascii;
    class       volVectorField;
    location    "0.66";
    object      U;
}
// * * * * * * * * * * * * * * * * * * * * * * * * * * * * * * * * * * * * * //

dimensions      [0 1 -1 0 0 0 0];

internalField   nonuniform List<vector> 
15166
(
(5.97484 0.559681 3.18835e-19)
(7.18534 1.03456 1.5991e-18)
(8.26914 0.902259 -8.94209e-19)
(9.30105 0.956292 8.01954e-19)
(10.0961 1.02019 8.24161e-19)
(10.8727 1.07497 4.34309e-19)
(11.5267 1.17339 -8.59586e-19)
(12.0689 1.23917 8.33058e-19)
(12.4642 1.33353 -4.22553e-19)
(12.7711 1.39302 1.6715e-18)
(12.997 1.44848 -1.22768e-18)
(13.1508 1.50679 1.22176e-18)
(6.66665 1.02599 4.89131e-19)
(7.60129 1.42528 5.23745e-20)
(8.555 1.20935 2.74309e-20)
(9.47686 1.22948 4.56169e-19)
(10.2373 1.24939 -3.96109e-19)
(10.965 1.27587 0)
(11.5823 1.33748 4.25057e-19)
(12.088 1.38342 1.459e-21)
(12.4665 1.44387 4.1832e-19)
(12.7601 1.48569 -8.43387e-19)
(12.9764 1.52575 1.65669e-18)
(13.1344 1.5647 -1.23427e-18)
(7.20908 1.25706 -4.63475e-19)
(8.03706 1.56849 -2.47882e-18)
(8.89931 1.37628 4.88247e-19)
(9.72212 1.41049 -9.25393e-19)
(10.4314 1.41722 -1.65827e-20)
(11.1023 1.43289 8.84069e-19)
(11.6752 1.47248 -1.26969e-18)
(12.1419 1.5034 -4.35708e-19)
(12.4973 1.54162 8.3164e-19)
(12.7724 1.56902 5.99509e-21)
(12.9766 1.59529 -1.2379e-18)
(13.1301 1.62009 1.62283e-18)
(7.51505 1.3738 0)
(8.34994 1.62675 -1.08497e-18)
(9.181 1.47801 2.54429e-18)
(9.94691 1.5264 -1.44517e-18)
(10.6199 1.53135 9.2528e-19)
(11.2455 1.54614 1.36579e-18)
(11.7793 1.57483 -4.23953e-19)
(12.2126 1.59687 4.35706e-19)
(12.5453 1.62122 -8.51559e-19)
(12.8023 1.63802 8.41245e-19)
(12.9949 1.65297 4.17412e-19)
(13.1437 1.66614 8.27414e-19)
(7.72621 1.44739 -6.25682e-19)
(8.59147 1.66239 -5.80213e-19)
(9.40722 1.55318 -1.57528e-18)
(10.1389 1.60714 1.48599e-18)
(10.788 1.61244 -4.70706e-19)
(11.3802 1.62865 -4.56018e-19)
(11.8832 1.6515 -4.44782e-19)
(12.2893 1.66818 4.51109e-19)
(12.6024 1.68383 -4.29777e-19)
(12.8434 1.69334 -4.23431e-19)
(13.0254 1.70076 -1.26308e-18)
(13.1674 1.70717 -4.66353e-21)
(7.91383 1.49889 1.23997e-18)
(8.80827 1.68488 1.17551e-18)
(9.60753 1.60947 -1.09924e-18)
(10.3125 1.66478 2.07585e-18)
(10.9416 1.67168 -1.98425e-18)
(11.507 1.68945 9.50129e-19)
(11.9844 1.70866 0)
(12.3682 1.72175 9.05122e-19)
(12.6643 1.73168 -1.76273e-18)
(12.8915 1.73606 8.61711e-19)
(13.0638 1.73805 0)
(13.1986 1.73921 1.25611e-18)
(8.08654 1.53332 -6.74631e-19)
(9.00941 1.69514 6.20953e-19)
(9.79236 1.64843 0)
(10.4749 1.70357 0)
(11.0856 1.71329 5.19042e-19)
(11.6276 1.73267 4.97741e-19)
(12.0831 1.74966 -9.51085e-19)
(12.4478 1.76032 1.38421e-18)
(12.729 1.76637 4.54184e-19)
(12.9442 1.7669 0)
(13.1082 1.76443 4.35629e-19)
(13.2378 1.76132 0)
(8.24106 1.55397 -1.36318e-18)
(9.19275 1.6957 1.25589e-18)
(9.96181 1.67299 5.74783e-19)
(10.6261 1.72706 5.61851e-19)
(11.2202 1.74013 -2.619e-18)
(11.7422 1.76104 5.09625e-19)
(12.1786 1.77684 0)
(12.5268 1.78599 -4.65747e-19)
(12.7951 1.7895 4.64859e-19)
(13 1.7874 2.76327e-21)
(13.1565 1.78197 -8.70987e-19)
(13.2798 1.77625 8.59074e-19)
(8.37856 1.56376 1.40268e-18)
(9.35875 1.68902 -1.29127e-18)
(10.1164 1.68637 5.90175e-19)
(10.766 1.73873 -1.69063e-18)
(11.3454 1.75506 2.15634e-18)
(11.8501 1.77723 -2.06473e-18)
(12.2701 1.79244 9.94024e-19)
(12.6042 1.80073 0)
(12.8613 1.80266 4.72822e-19)
(13.0573 1.79884 0)
(13.2072 1.79136 9.01318e-19)
(13.3251 1.78318 -4.37029e-19)
(8.50224 1.56505 1.44234e-18)
(9.51 1.67683 0)
(10.258 1.69098 6.2326e-19)
(10.8953 1.74121 5.88079e-19)
(11.4618 1.76046 5.58642e-19)
(11.9514 1.78352 5.3434e-19)
(12.3573 1.79847 0)
(12.6792 1.80628 0)
(12.9268 1.80725 -1.42732e-18)
(13.1152 1.80234 2.33098e-18)
(13.2593 1.79357 -9.02388e-19)
(13.372 1.78522 -1.33968e-18)
(8.61479 1.5596 1.4717e-18)
(9.64904 1.66027 -2.01485e-18)
(10.3889 1.68844 1.89432e-18)
(11.0155 1.73632 -1.77355e-18)
(11.5701 1.75808 -5.56663e-19)
(12.0466 1.78169 -5.33021e-19)
(12.4402 1.79653 1.03606e-18)
(12.7515 1.80409 -1.00411e-18)
(12.9908 1.80452 -1.46307e-18)
(13.1726 1.79896 -4.67491e-19)
(13.3117 1.78907 1.85647e-18)
(13.4196 1.77935 -8.93822e-19)
(8.71795 1.54861 -1.50768e-18)
(9.77751 1.64003 -2.05025e-18)
(10.5104 1.67988 -3.18119e-19)
(11.1276 1.72534 1.21231e-18)
(11.6713 1.74918 8.56856e-19)
(12.1362 1.77307 -2.20017e-18)
(12.5188 1.78789 2.11545e-18)
(12.821 1.79533 -3.85442e-21)
(13.053 1.79554 -1.49094e-18)
(13.2291 1.78986 9.65929e-19)
(13.3634 1.77982 -4.66319e-19)
(13.4667 1.76925 9.05381e-19)
(8.8128 1.53302 -1.14856e-18)
(9.89659 1.61667 -3.53622e-19)
(10.6236 1.66622 3.226e-19)
(11.2324 1.70922 0)
(11.7662 1.73475 2.8966e-19)
(12.2206 1.7587 -2.8276e-19)
(12.5935 1.77352 0)
(12.8875 1.78091 0)
(13.113 1.78106 2.54173e-19)
(13.2838 1.77546 0)
(13.4131 1.76582 0)
(13.5105 1.75538 -9.1579e-19)
(8.90038 1.51358 -3.86939e-19)
(10.0074 1.59064 3.51972e-19)
(10.7295 1.64819 0)
(11.3305 1.68875 0)
(11.8551 1.71559 1.18757e-18)
(12.3002 1.73939 -8.60605e-19)
(12.6644 1.75416 1.0923e-18)
(12.9513 1.76145 -1.06069e-18)
(13.1711 1.76142 7.67879e-19)
(13.3375 1.75535 -5.67924e-21)
(13.4632 1.74487 -1.93843e-18)
(13.5579 1.73722 1.1793e-18)
(8.98139 1.49083 -1.59013e-18)
(10.1107 1.56223 0)
(10.8289 1.62637 1.34314e-18)
(11.4227 1.66453 -1.59644e-18)
(11.9388 1.69236 0)
(12.3753 1.71588 2.9187e-19)
(12.7318 1.73057 1.10937e-18)
(13.0123 1.73782 -2.41968e-18)
(13.2272 1.73791 2.08199e-18)
(13.3897 1.73221 -1.01446e-18)
(13.5123 1.72175 9.81254e-19)
(13.6039 1.70851 -1.19471e-18)
(9.05652 1.46527 3.48187e-21)
(10.2073 1.53173 7.35651e-19)
(10.9222 1.60126 0)
(11.5094 1.63709 3.19716e-19)
(12.0176 1.66561 0)
(12.4463 1.68874 8.79687e-19)
(12.7959 1.70335 -7.81268e-21)
(13.0707 1.71057 -8.2396e-19)
(13.2811 1.71079 0)
(13.44 1.70541 -2.58304e-19)
(13.5592 1.69541 2.5126e-19)
(13.648 1.68081 0)
(9.12635 1.43731 4.02402e-19)
(10.2977 1.49937 -1.11953e-18)
(11.0099 1.57325 1.03885e-18)
(11.5911 1.60682 -4.57914e-21)
(12.0919 1.63578 3.09104e-19)
(12.5135 1.65845 -2.97818e-19)
(12.8567 1.67292 0)
(13.1264 1.6801 0)
(13.3329 1.68042 1.0675e-18)
(13.4885 1.67525 -7.85947e-19)
(13.6046 1.66576 -5.05973e-19)
(13.6902 1.65218 -2.4554e-19)
(9.19125 1.40719 4.11467e-19)
(10.3825 1.46528 3.72758e-19)
(11.0927 1.54266 -3.47717e-19)
(11.6682 1.57405 6.59456e-19)
(12.1621 1.60325 -1.57334e-18)
(12.5772 1.62537 3.06281e-19)
(12.9146 1.63968 0)
(13.1796 1.64683 5.58367e-19)
(13.3825 1.64727 -5.45093e-19)
(13.5353 1.64231 -7.90404e-19)
(13.649 1.63326 2.58656e-19)
(13.7322 1.62088 7.43768e-19)
(9.25167 1.37522 0)
(10.4623 1.42964 0)
(11.1709 1.50979 0)
(11.7409 1.53907 3.37062e-19)
(12.2284 1.56832 0)
(12.6374 1.58985 6.08627e-19)
(12.9695 1.60397 -8.86138e-19)
(13.2303 1.61108 0)
(13.43 1.61171 -5.47646e-19)
(13.5803 1.60709 5.32752e-19)
(13.6918 1.59847 0)
(13.7731 1.58637 0)
(9.30798 1.3416 2.12263e-18)
(10.5371 1.39256 -1.53825e-18)
(11.2448 1.47486 7.18594e-19)
(11.8097 1.5021 -1.01052e-18)
(12.2911 1.53124 1.29024e-18)
(12.6944 1.55214 -9.25302e-19)
(13.0217 1.56603 8.9291e-19)
(13.2787 1.5731 2.83129e-19)
(13.4754 1.57394 -1.11309e-18)
(13.6232 1.56972 8.11214e-19)
(13.7325 1.56173 0)
(13.8119 1.5493 0)
(9.36042 1.30652 -1.71738e-18)
(10.6076 1.35416 0)
(11.3146 1.43808 0)
(11.8748 1.46334 -6.8127e-19)
(12.3504 1.49222 6.54598e-19)
(12.7485 1.51244 -9.32875e-19)
(13.0712 1.52607 5.11553e-21)
(13.3247 1.53306 8.72413e-19)
(13.5187 1.53404 5.60487e-19)
(13.6642 1.53011 -5.48964e-19)
(13.7714 1.52262 -2.67086e-19)
(13.8486 1.50989 0)
(9.40916 1.27016 -1.29993e-18)
(10.6739 1.31457 1.18167e-18)
(11.3806 1.39963 0)
(11.9364 1.42295 -6.87775e-19)
(12.4066 1.45145 9.92272e-19)
(12.7997 1.47097 0)
(13.1183 1.48428 0)
(13.3685 1.49114 2.9526e-19)
(13.56 1.49217 5.66468e-19)
(13.7036 1.48834 -5.5496e-19)
(13.8092 1.481 5.37079e-19)
(13.8853 1.47008 0)
(9.45468 1.23253 -4.25631e-21)
(10.7364 1.27372 -1.188e-18)
(11.4432 1.35963 0)
(11.9946 1.38107 1.04427e-18)
(12.4598 1.40912 -9.98062e-19)
(12.8482 1.42788 3.20478e-19)
(13.163 1.44086 3.08615e-19)
(13.4102 1.44759 -8.85782e-19)
(13.5996 1.44872 5.77483e-19)
(13.7415 1.44518 -2.80485e-19)
(13.8457 1.43824 2.68473e-21)
(13.9207 1.42851 0)
(9.4965 1.19373 -8.79847e-19)
(10.795 1.23177 8.01691e-19)
(11.5023 1.31825 0)
(12.0497 1.33785 -3.49579e-19)
(12.5101 1.36535 0)
(12.8942 1.38336 -3.20084e-19)
(13.2054 1.39599 3.0896e-21)
(13.45 1.40258 3.00982e-19)
(13.6372 1.40382 -2.91643e-19)
(13.7776 1.40051 -2.69173e-21)
(13.8806 1.39377 -2.53364e-21)
(13.9547 1.38524 -1.07125e-18)
(9.53527 1.15423 -4.48039e-19)
(10.8501 1.18912 -8.02066e-19)
(11.5582 1.27568 7.51776e-19)
(12.1019 1.29342 3.55949e-19)
(12.5577 1.32031 0)
(12.9378 1.33755 3.26043e-19)
(13.2456 1.34981 -6.25385e-19)
(13.4877 1.35626 -5.99005e-19)
(13.6731 1.35758 8.80371e-19)
(13.8121 1.35452 -2.58002e-21)
(13.914 1.34802 -2.47282e-21)
(13.9873 1.33994 2.68964e-19)
(9.57153 1.11381 4.42974e-19)
(10.902 1.14546 -8.14547e-19)
(11.611 1.23194 -3.7943e-19)
(12.1513 1.2479 -3.55308e-19)
(12.6027 1.27411 -3.42389e-19)
(12.979 1.29058 3.2577e-19)
(13.2837 1.30245 -1.26446e-18)
(13.5235 1.30873 2.92179e-21)
(13.7072 1.31013 0)
(13.845 1.30731 8.57349e-19)
(13.9461 1.30104 -2.83116e-19)
(14.0189 1.29394 -2.71762e-19)
(9.60483 1.07253 -4.54995e-19)
(10.9507 1.1009 0)
(11.661 1.18714 3.14591e-21)
(12.198 1.20134 3.61133e-19)
(12.6453 1.22684 6.86785e-19)
(13.018 1.24253 3.25395e-19)
(13.3198 1.25401 -1.27449e-18)
(13.5574 1.26012 3.12001e-19)
(13.7396 1.26163 8.98371e-19)
(13.8762 1.25914 0)
(13.9766 1.25325 0)
(14.0489 1.24602 0)
(9.63516 1.0304 1.82566e-18)
(10.9964 1.05548 -8.1986e-19)
(11.7082 1.14138 7.7138e-19)
(12.2421 1.15384 -3.6056e-19)
(12.6855 1.17859 6.97421e-19)
(13.0547 1.19349 9.92257e-19)
(13.3539 1.20456 -9.62423e-19)
(13.5894 1.2105 5.93875e-21)
(13.7702 1.21206 1.20433e-18)
(13.9058 1.20983 -8.79747e-19)
(14.0053 1.20444 2.84965e-19)
(14.0768 1.19803 -5.44869e-19)
(9.66287 0.98779 -4.57794e-19)
(11.0391 1.00954 -4.15263e-19)
(11.7526 1.09479 -3.84065e-19)
(12.2837 1.10548 -7.25747e-19)
(12.7234 1.12945 -3.40778e-19)
(13.0894 1.14356 3.36326e-19)
(13.386 1.15419 3.18455e-19)
(13.6197 1.15993 -9.35496e-19)
(13.7992 1.16151 3.06906e-19)
(13.9338 1.1594 5.88302e-19)
(14.0327 1.15419 -2.85074e-19)
(14.1036 1.14936 -2.7969e-19)
(9.68805 0.9446 -9.20674e-19)
(11.0789 0.962989 1.66948e-18)
(11.7945 1.04744 0)
(12.3229 1.05633 0)
(12.7591 1.0795 0)
(13.122 1.0928 6.73443e-19)
(13.4162 1.10299 6.4981e-19)
(13.6483 1.10853 -3.13281e-19)
(13.8266 1.11014 3.06036e-19)
(13.9604 1.10827 2.05521e-21)
(14.0588 1.10328 -5.7355e-19)
(14.1293 1.09876 5.60803e-19)
(9.71113 0.901069 9.31184e-19)
(11.1164 0.915909 -2.07203e-19)
(11.8339 0.999273 -1.95767e-19)
(12.3598 1.00644 0)
(12.7927 1.02879 0)
(13.1526 1.04127 -3.37678e-19)
(13.4446 1.05102 3.25018e-19)
(13.6751 1.05637 -6.3614e-19)
(13.8524 1.05801 3.05077e-19)
(13.9855 1.05635 -8.97238e-19)
(14.0835 1.05165 0)
(14.1536 1.04768 -2.81514e-19)
(9.73158 0.857028 -1.86889e-18)
(11.151 0.868129 6.3672e-19)
(11.8709 0.950294 1.95556e-19)
(12.3945 0.955823 -5.52519e-19)
(12.8242 0.977366 7.12036e-19)
(13.1814 0.989056 0)
(13.4713 0.998364 6.54905e-19)
(13.7003 1.00351 -6.40201e-19)
(13.8766 1.00517 0)
(14.0091 1.00376 0)
(14.1065 0.999417 0)
(14.1763 0.994883 5.60432e-19)
(9.74967 0.812989 0)
(11.183 0.820203 0)
(11.9054 0.900733 -3.92729e-19)
(12.427 0.90459 1.6941e-21)
(12.8536 0.925313 0)
(13.2082 0.936211 -6.82275e-19)
(13.4961 0.945075 1.48977e-18)
(13.7238 0.949989 -4.83398e-19)
(13.8992 0.951636 -6.18839e-19)
(14.0312 0.950367 1.57706e-19)
(14.1282 0.946289 6.05064e-21)
(14.1976 0.942046 5.77305e-19)
(9.76571 0.768557 4.71184e-19)
(11.2126 0.771634 -2.1434e-19)
(11.9376 0.850538 1.98749e-19)
(12.4573 0.852818 -1.86246e-19)
(12.8811 0.872697 8.95846e-19)
(13.2332 0.882798 -1.73407e-19)
(13.5193 0.891214 -4.97109e-19)
(13.7457 0.895914 -3.19069e-19)
(13.9204 0.897569 3.1437e-19)
(14.0519 0.896499 -3.04097e-19)
(14.1487 0.892806 1.48348e-19)
(14.2178 0.888588 -1.41534e-19)
(9.7797 0.723712 7.12112e-19)
(11.2397 0.722563 -6.4291e-19)
(11.9676 0.799811 -1.98607e-19)
(12.4856 0.800503 1.88625e-19)
(12.9067 0.819555 -5.37681e-19)
(13.2564 0.828872 5.19837e-19)
(13.5408 0.836843 -3.22594e-21)
(13.7661 0.841347 -1.64032e-19)
(13.94 0.843036 -3.12977e-19)
(14.0712 0.842159 4.59952e-19)
(14.1678 0.838802 1.47666e-19)
(14.2369 0.835117 -4.38256e-19)
(9.79115 0.678732 2.39691e-19)
(11.2643 0.673259 0)
(11.9954 0.748649 -2.00513e-19)
(12.5118 0.747715 9.26577e-22)
(12.9304 0.765922 0)
(13.2778 0.774456 1.74356e-19)
(13.5605 0.781996 0)
(13.7847 0.786325 0)
(13.9581 0.788085 0)
(14.0889 0.787519 0)
(14.1853 0.784669 -2.97736e-19)
(14.2546 0.780802 5.80751e-19)
(9.80104 0.633549 -4.8034e-19)
(11.2868 0.623653 0)
(12.021 0.69707 4.01718e-19)
(12.5361 0.694449 -1.89309e-19)
(12.9522 0.711835 -3.61332e-19)
(13.2975 0.719592 1.76735e-19)
(13.5786 0.72669 -3.36015e-19)
(13.8018 0.73081 3.28836e-19)
(13.9745 0.732581 -3.16166e-19)
(14.1049 0.73223 3.16347e-21)
(14.201 0.729992 1.53788e-19)
(14.2701 0.727316 2.91537e-19)
(9.80871 0.587877 0)
(11.3069 0.573486 -2.16945e-19)
(12.0446 0.645021 -2.01229e-19)
(12.5583 0.640716 0)
(12.9722 0.657312 -3.6277e-19)
(13.3154 0.66428 7.01593e-19)
(13.5951 0.670925 -3.40726e-19)
(13.8173 0.674806 0)
(13.9895 0.676512 0)
(14.1196 0.67616 -1.55532e-19)
(14.2154 0.673954 -1.50782e-19)
(14.2837 0.673962 0)
(9.81428 0.542234 4.819e-19)
(11.3248 0.523334 -4.21848e-21)
(12.066 0.592665 -2.93491e-21)
(12.5787 0.586568 -3.37268e-21)
(12.9904 0.602406 -5.50577e-19)
(13.3316 0.608585 0)
(13.6099 0.614759 0)
(13.8313 0.618389 0)
(14.0031 0.620025 0)
(14.1331 0.61964 1.5561e-19)
(14.2294 0.616885 -1.49788e-19)
(14.2987 0.618747 2.94507e-21)
(9.81806 0.496138 -6.05497e-19)
(11.3405 0.472707 6.56e-19)
(12.0854 0.539926 4.04406e-19)
(12.5971 0.532019 -3.85395e-19)
(13.0069 0.547167 9.12526e-20)
(13.3463 0.552565 0)
(13.6232 0.558305 3.40022e-19)
(13.8439 0.561732 -3.30994e-21)
(14.0153 0.563463 -3.23536e-19)
(14.1452 0.563593 0)
(14.2415 0.561601 -2.28528e-19)
(14.3105 0.558223 0)
(9.81988 0.44994 2.05215e-21)
(11.3541 0.421967 4.3974e-19)
(12.1027 0.486871 1.02049e-19)
(12.6136 0.477143 2.86851e-19)
(13.0216 0.491658 -2.77863e-19)
(13.3592 0.496261 0)
(13.635 0.501554 3.41211e-19)
(13.8549 0.504746 -3.32608e-21)
(14.026 0.506407 -2.43853e-19)
(14.1558 0.506587 0)
(14.2518 0.504975 1.53046e-19)
(14.3212 0.50511 0)
(9.82038 0.403768 1.2135e-21)
(11.3654 0.37095 3.30418e-19)
(12.1179 0.433349 -1.02037e-19)
(12.6283 0.422018 1.92962e-19)
(13.0346 0.435932 0)
(13.3705 0.439695 0)
(13.6451 0.44454 -8.61208e-20)
(13.8644 0.447487 -8.35345e-20)
(14.0352 0.449103 -8.09368e-20)
(14.165 0.449413 -7.89875e-20)
(14.2613 0.448034 -1.5258e-19)
(14.331 0.448523 1.4892e-19)
(9.819 0.357342 -1.22541e-19)
(11.3747 0.319412 -1.09856e-19)
(12.1314 0.379376 2.04011e-19)
(12.6412 0.366661 -4.83664e-19)
(13.0459 0.37999 1.85915e-19)
(13.3803 0.382896 0)
(13.6538 0.387291 8.61349e-20)
(13.8725 0.389995 8.35576e-20)
(14.0431 0.391586 -1.61807e-19)
(14.1729 0.392018 2.38137e-19)
(14.2694 0.390787 1.53536e-19)
(14.3392 0.391354 -1.51191e-19)
(9.8159 0.311182 0)
(11.3815 0.268017 0)
(12.1427 0.325065 1.02872e-19)
(12.6523 0.311044 0)
(13.0556 0.323906 -9.29014e-20)
(13.3884 0.325882 8.94935e-20)
(13.661 0.329832 1.72127e-19)
(13.8791 0.332297 -2.52664e-19)
(14.0495 0.333867 0)
(14.1794 0.334483 -7.94819e-20)
(14.2761 0.33363 7.66136e-20)
(14.3461 0.333471 -2.25085e-19)
(9.81124 0.264827 6.17457e-20)
(11.3864 0.216231 2.20472e-19)
(12.1518 0.270467 -3.09401e-19)
(12.6617 0.255326 0)
(13.0637 0.267637 4.63485e-20)
(13.395 0.268637 8.88501e-20)
(13.6666 0.272176 -3.46807e-19)
(13.8843 0.274398 4.20551e-19)
(14.0546 0.27592 -1.64417e-19)
(14.1846 0.276617 1.19377e-19)
(14.2814 0.275977 0)
(14.3518 0.275642 7.57731e-20)
(9.80476 0.218584 -6.17658e-20)
(11.3894 0.164383 0)
(12.1589 0.215795 -5.1065e-20)
(12.6694 0.199679 9.7863e-20)
(13.0702 0.211174 1.39311e-19)
(13.4 0.21112 -9.02201e-20)
(13.6707 0.214347 -4.34818e-20)
(13.888 0.216348 4.21998e-20)
(14.0582 0.217858 8.15704e-20)
(14.1883 0.218775 -1.20119e-19)
(14.2854 0.218775 -3.89111e-20)
(14.3564 0.217478 -3.75876e-20)
(9.79668 0.172409 -9.22904e-20)
(11.3904 0.112333 1.39275e-19)
(12.1641 0.161136 -7.7491e-20)
(12.6753 0.144046 1.21563e-19)
(13.0747 0.154357 -2.10039e-19)
(13.4035 0.153421 1.79918e-19)
(13.6734 0.156428 -6.57713e-20)
(13.8903 0.158147 4.18633e-20)
(14.0605 0.159586 -1.64352e-19)
(14.1907 0.160509 6.0413e-20)
(14.2881 0.1607 3.89405e-20)
(14.3591 0.159559 3.8113e-20)
(9.78711 0.12657 -9.27758e-20)
(11.3897 0.0600903 2.8082e-20)
(12.1675 0.106466 2.58582e-20)
(12.6795 0.0882574 -2.44051e-20)
(13.0776 0.097279 -2.31642e-20)
(13.4055 0.095833 4.52478e-20)
(13.6746 0.0983633 2.1782e-20)
(13.8911 0.0998161 0)
(14.0613 0.101232 0)
(14.1918 0.102307 2.00239e-20)
(14.2895 0.103035 0)
(14.3611 0.102118 0)
(9.77608 0.0807986 -1.55435e-20)
(11.3871 0.00762569 1.38725e-20)
(12.1692 0.0517591 7.13603e-22)
(12.6818 0.0323904 -1.2664e-20)
(13.079 0.0400573 0)
(13.4059 0.0381793 0)
(13.6743 0.0401941 1.15367e-20)
(13.8905 0.0413825 -2.11781e-20)
(14.0607 0.0427581 1.03527e-20)
(14.1915 0.043885 6.27129e-22)
(14.2896 0.0447733 0)
(14.3614 0.0444006 0)
(9.76323 0.0352103 4.67023e-20)
(11.3825 -0.0449255 2.77745e-20)
(12.1691 -0.00309659 -1.38505e-20)
(12.6824 -0.0235176 3.82243e-22)
(13.0789 -0.0171847 -1.17062e-20)
(13.4048 -0.0195639 1.12792e-20)
(13.6725 -0.0180688 -1.16023e-20)
(13.8885 -0.0171144 -3.16883e-20)
(14.0588 -0.0157778 -1.00992e-20)
(14.1898 -0.0144933 9.51264e-21)
(14.2882 -0.013105 -9.78214e-21)
(14.3607 -0.0129043 0)
(9.74886 -0.0100991 4.64538e-20)
(11.376 -0.0972579 -8.37583e-20)
(12.1673 -0.0579201 1.31309e-20)
(12.6813 -0.0794917 -2.42776e-20)
(13.0773 -0.0744444 3.55512e-20)
(13.4022 -0.0773484 3.40613e-20)
(13.6693 -0.0763872 1.09188e-20)
(13.8851 -0.0756925 1.06004e-20)
(14.0554 -0.0744598 1.03114e-20)
(14.1867 -0.0732287 3.01302e-20)
(14.2854 -0.071901 -9.79009e-21)
(14.3575 -0.0708082 5.72817e-20)
(9.73308 -0.0553402 -6.17931e-20)
(11.3676 -0.14957 -8.28393e-20)
(12.1636 -0.112728 1.30182e-19)
(12.6785 -0.135506 -2.44986e-20)
(13.074 -0.131701 -1.16694e-19)
(13.3981 -0.135157 1.8054e-19)
(13.6646 -0.134716 -4.41209e-20)
(13.8803 -0.13429 0)
(14.0509 -0.13318 4.12739e-20)
(14.1826 -0.131992 -2.00921e-20)
(14.282 -0.130937 1.95767e-20)
(14.3552 -0.128469 -1.91328e-20)
(9.71553 -0.100421 -1.25501e-19)
(11.3575 -0.201755 -5.53091e-22)
(12.1582 -0.167507 0)
(12.6742 -0.191532 -9.76279e-20)
(13.0692 -0.1889 9.41375e-20)
(13.3925 -0.19292 0)
(13.6585 -0.192986 -2.7335e-24)
(13.8741 -0.192786 0)
(14.045 -0.191698 -4.12763e-20)
(14.1772 -0.190246 0)
(14.2773 -0.188839 0)
(14.3518 -0.186024 -7.50509e-20)
(9.69646 -0.14507 6.24926e-20)
(11.3455 -0.25358 5.52288e-20)
(12.151 -0.222194 -4.15617e-19)
(12.6681 -0.247517 3.92299e-19)
(13.0628 -0.24604 -1.88258e-19)
(13.3854 -0.250633 0)
(13.6511 -0.251182 -4.37003e-20)
(13.8666 -0.251211 0)
(14.0376 -0.250184 0)
(14.1703 -0.248618 0)
(14.2709 -0.247072 0)
(14.3457 -0.244417 -1.50769e-19)
(9.67604 -0.18947 1.24973e-19)
(11.3318 -0.305256 2.2349e-19)
(12.142 -0.276828 0)
(12.6604 -0.303442 2.93302e-19)
(13.0549 -0.303091 -9.45433e-20)
(13.3769 -0.308281 0)
(13.6421 -0.309312 -8.65293e-20)
(13.8576 -0.309592 8.65021e-20)
(14.0289 -0.308655 1.65891e-19)
(14.162 -0.306987 2.40266e-19)
(14.2631 -0.305059 -1.57455e-19)
(14.3384 -0.302843 7.54022e-20)
(9.65432 -0.233593 -5.00164e-19)
(11.3162 -0.356715 -1.1179e-19)
(12.1313 -0.331366 1.03934e-19)
(12.651 -0.359284 -8.29461e-23)
(13.0455 -0.360035 -9.36959e-20)
(13.3669 -0.365839 9.01491e-20)
(13.6317 -0.367361 8.6413e-20)
(13.8472 -0.367905 -2.55208e-19)
(14.0188 -0.367094 0)
(14.1524 -0.365459 -2.40174e-19)
(14.2541 -0.363452 3.13078e-19)
(14.3297 -0.361267 -3.06051e-19)
(9.63084 -0.277753 2.50089e-19)
(11.2989 -0.40821 2.22798e-19)
(12.1188 -0.385764 -2.08636e-19)
(12.6401 -0.415016 -9.80426e-20)
(13.0345 -0.416859 1.86335e-19)
(13.3554 -0.423279 -9.1882e-20)
(13.6199 -0.425275 -8.81432e-20)
(13.8354 -0.426075 8.46591e-20)
(14.0074 -0.425368 0)
(14.1416 -0.423652 0)
(14.2439 -0.42126 0)
(14.3202 -0.418866 7.76252e-22)
(9.60586 -0.321288 -2.50026e-19)
(11.2796 -0.459137 0)
(12.1045 -0.439975 -1.43186e-22)
(12.6274 -0.470606 0)
(13.022 -0.473528 9.34554e-20)
(13.3424 -0.480554 -3.58458e-19)
(13.6067 -0.48302 2.63107e-19)
(13.8223 -0.484079 -8.46831e-20)
(13.9947 -0.483488 0)
(14.1296 -0.481858 -3.1914e-19)
(14.2328 -0.479808 3.14247e-19)
(14.3098 -0.477558 -7.67019e-20)
(9.57952 -0.364855 -3.74843e-19)
(11.2586 -0.510067 2.23021e-19)
(12.0884 -0.49398 -3.11376e-19)
(12.613 -0.526009 1.95524e-19)
(13.0078 -0.530015 -2.80171e-19)
(13.328 -0.537661 0)
(13.5921 -0.540564 0)
(13.8078 -0.541833 3.36409e-19)
(13.9806 -0.541227 -4.94987e-19)
(14.1161 -0.53921 -1.58724e-19)
(14.2203 -0.53624 1.57927e-19)
(14.2997 -0.53461 0)
(9.5514 -0.40802 0)
(11.2359 -0.560603 -1.30479e-21)
(12.0707 -0.547746 -2.08542e-19)
(12.5971 -0.581221 -1.65782e-21)
(12.9922 -0.586292 -1.88091e-19)
(13.3121 -0.594556 5.36993e-19)
(13.576 -0.597912 -3.49394e-19)
(13.7918 -0.599419 1.67279e-19)
(13.965 -0.598905 -1.65777e-19)
(14.1011 -0.59688 1.58181e-19)
(14.2057 -0.593649 -1.57382e-19)
(14.2855 -0.590163 2.99418e-19)
(9.52211 -0.450812 7.4845e-19)
(11.2115 -0.610768 2.23013e-19)
(12.0511 -0.601256 0)
(12.5795 -0.636221 3.90499e-19)
(12.975 -0.642376 3.71001e-19)
(13.2946 -0.651276 -1.8295e-19)
(13.5584 -0.655101 -3.48833e-19)
(13.7744 -0.656881 3.66566e-22)
(13.948 -0.656501 0)
(14.0847 -0.654552 0)
(14.19 -0.651242 0)
(14.2699 -0.647026 0)
(9.49151 -0.493378 -7.48278e-19)
(11.1853 -0.66075 -2.2224e-19)
(12.0299 -0.654598 0)
(12.5603 -0.691021 -1.95218e-19)
(12.9563 -0.698258 -1.85819e-19)
(13.2758 -0.707804 -1.77545e-19)
(13.5395 -0.712104 3.39044e-21)
(13.7556 -0.714176 8.41198e-19)
(13.9297 -0.71395 -3.29015e-19)
(14.0671 -0.712089 0)
(14.1733 -0.709066 3.09003e-19)
(14.2538 -0.705069 -3.04356e-19)
(9.45913 -0.535729 -2.49411e-19)
(11.1573 -0.710488 1.30736e-21)
(12.0068 -0.707657 2.08188e-19)
(12.5395 -0.745588 0)
(12.936 -0.753891 1.70579e-21)
(13.2554 -0.76408 3.58571e-19)
(13.5191 -0.768853 -3.44087e-19)
(13.7355 -0.771202 5.05008e-19)
(13.9102 -0.771083 0)
(14.0483 -0.769116 0)
(14.1554 -0.765713 0)
(14.237 -0.761921 4.4732e-19)
(9.42518 -0.577605 -9.94688e-19)
(11.1274 -0.759717 -6.64503e-19)
(11.982 -0.760341 6.20436e-19)
(12.5169 -0.799846 0)
(12.9142 -0.809241 -3.70695e-19)
(13.2336 -0.820079 -1.78544e-19)
(13.4974 -0.825314 0)
(13.7141 -0.827947 3.32771e-19)
(13.8893 -0.827979 -3.2757e-19)
(14.0282 -0.826096 0)
(14.1362 -0.822845 0)
(14.2185 -0.818421 -1.50999e-19)
(9.38982 -0.619156 9.90738e-19)
(11.096 -0.808597 -2.23881e-19)
(11.9554 -0.812689 -2.04399e-19)
(12.4927 -0.853779 1.95998e-19)
(12.8908 -0.86427 1.85242e-19)
(13.2104 -0.875756 -5.31593e-19)
(13.4742 -0.881454 3.45829e-19)
(13.6912 -0.88436 -3.34057e-19)
(13.867 -0.884506 -3.2339e-19)
(14.0068 -0.882527 3.18282e-19)
(14.1158 -0.878987 0)
(14.1995 -0.874473 -1.48598e-19)
(9.35299 -0.66021 4.92423e-19)
(11.0628 -0.856965 -6.6541e-19)
(11.9271 -0.864659 -2.058e-19)
(12.4669 -0.907374 1.1576e-18)
(12.8659 -0.918967 -7.41204e-19)
(13.1857 -0.931101 1.77712e-19)
(13.4496 -0.937261 6.83058e-19)
(13.667 -0.940443 -5.0277e-19)
(13.8434 -0.940712 1.61796e-19)
(13.984 -0.938751 0)
(14.094 -0.935264 0)
(14.1786 -0.930943 1.49796e-19)
(9.31514 -0.70085 -9.22266e-22)
(11.0277 -0.904867 0)
(11.897 -0.91629 6.1162e-19)
(12.4394 -0.960629 -9.69007e-19)
(12.8394 -0.973304 -7.32683e-19)
(13.1594 -0.986109 7.10975e-19)
(13.4236 -0.992713 5.10273e-19)
(13.6413 -0.996144 -8.33548e-19)
(13.8184 -0.996542 -1.61881e-19)
(13.9599 -0.994459 -7.83359e-19)
(14.0708 -0.990484 4.63733e-19)
(14.1569 -0.986741 0)
(9.27523 -0.741392 -2.47248e-19)
(10.9909 -0.9527 0)
(11.8652 -0.967578 1.01902e-18)
(12.4102 -1.01352 -1.54009e-18)
(12.8114 -1.0273 3.70917e-19)
(13.1317 -1.04074 -3.52043e-19)
(13.3961 -1.04781 1.70907e-19)
(13.6143 -1.05152 4.94337e-19)
(13.7921 -1.05208 -6.47531e-19)
(13.9344 -1.05012 1.5718e-19)
(14.0463 -1.04619 4.56275e-19)
(14.133 -1.04326 -5.9761e-19)
(9.23362 -0.781051 4.91146e-19)
(10.9523 -0.999639 4.37768e-19)
(11.8315 -1.0183 8.12037e-19)
(12.3794 -1.06595 -1.53602e-18)
(12.7817 -1.08088 1.10161e-18)
(13.1025 -1.09499 -3.47516e-19)
(13.3672 -1.10252 3.44024e-19)
(13.5858 -1.10651 3.3065e-19)
(13.7643 -1.10717 0)
(13.9076 -1.10516 0)
(14.0206 -1.10064 -3.00992e-19)
(14.1087 -1.09787 6.3111e-21)
(9.19107 -0.820296 -2.26739e-21)
(10.9121 -1.04607 -2.00869e-21)
(11.7961 -1.06857 0)
(12.3468 -1.11797 -3.80305e-19)
(12.7505 -1.13405 1.09617e-18)
(13.0718 -1.14882 -3.49592e-19)
(13.3368 -1.15682 -6.72559e-19)
(13.556 -1.16111 3.32823e-19)
(13.7352 -1.1619 3.1722e-19)
(13.8793 -1.16001 -9.36956e-19)
(13.9934 -1.15545 0)
(14.082 -1.1535 -2.953e-19)
(9.14705 -0.85912 -2.38845e-21)
(10.8699 -1.09203 4.32282e-19)
(11.7589 -1.11844 -4.08694e-19)
(12.3126 -1.16954 -1.14202e-18)
(12.7177 -1.18679 -3.5769e-19)
(13.0396 -1.20226 1.39952e-18)
(13.305 -1.21069 1.64912e-21)
(13.5247 -1.21527 1.59964e-21)
(13.7046 -1.21618 3.19272e-19)
(13.8498 -1.21425 3.11026e-19)
(13.9649 -1.20912 0)
(14.0554 -1.20593 8.74283e-19)
(9.10156 -0.897583 -4.89078e-19)
(10.8264 -1.1376 -4.33357e-19)
(11.7199 -1.16777 -4.049e-19)
(12.2767 -1.22064 -3.77835e-19)
(12.6833 -1.23908 7.27153e-19)
(13.0059 -1.25526 -1.04074e-18)
(13.2717 -1.26416 3.4346e-19)
(13.492 -1.26904 6.57085e-19)
(13.6727 -1.27012 0)
(13.8187 -1.26837 3.06519e-19)
(13.9349 -1.26353 -1.20382e-18)
(14.0255 -1.26053 5.91447e-19)
(9.05422 -0.935471 4.83464e-19)
(10.7805 -1.18263 -4.35828e-19)
(11.6792 -1.21669 -1.20219e-18)
(12.2392 -1.2713 3.46322e-21)
(12.6474 -1.29089 0)
(12.9707 -1.30776 -3.45353e-19)
(13.2371 -1.31716 -3.33723e-19)
(13.4579 -1.32236 3.25544e-19)
(13.6395 -1.32365 0)
(13.7866 -1.322 3.08385e-19)
(13.904 -1.3173 5.96384e-19)
(13.9962 -1.3139 -6.40328e-21)
(9.00514 -0.972552 4.85978e-19)
(10.7331 -1.22673 0)
(11.6364 -1.26484 8.00476e-19)
(12.1998 -1.32131 -3.79605e-19)
(12.6098 -1.34216 -3.58112e-19)
(12.9339 -1.35973 1.03222e-18)
(13.2009 -1.36964 -9.9845e-19)
(13.4225 -1.37515 9.71841e-19)
(13.6049 -1.37659 0)
(13.7531 -1.3749 -3.0383e-19)
(13.8718 -1.36997 8.97003e-19)
(13.9655 -1.36628 2.88687e-19)
(8.9552 -1.00905 -9.65061e-19)
(10.6842 -1.2702 4.28198e-19)
(11.5921 -1.31242 -3.56499e-21)
(12.1587 -1.37082 -7.54247e-19)
(12.5706 -1.39291 7.14876e-19)
(12.8957 -1.41119 0)
(13.1633 -1.42159 -3.30469e-19)
(13.3856 -1.42743 -3.22478e-19)
(13.569 -1.42907 0)
(13.7183 -1.42751 3.00432e-19)
(13.8382 -1.42282 -8.94049e-19)
(13.9331 -1.41929 -2.90033e-19)
(8.90399 -1.04517 0)
(10.6333 -1.31323 2.70785e-21)
(11.5459 -1.35951 1.18988e-18)
(12.116 -1.41976 -6.59799e-21)
(12.5298 -1.44312 -1.78009e-18)
(12.856 -1.46211 1.36592e-18)
(13.1243 -1.47299 -1.31733e-18)
(13.3473 -1.47913 6.42991e-19)
(13.5316 -1.48093 0)
(13.682 -1.47932 0)
(13.8033 -1.47424 -2.93201e-19)
(13.9004 -1.4705 5.72132e-19)
(8.85084 -1.08067 0)
(10.5805 -1.35558 2.84688e-21)
(11.4979 -1.40598 -1.18142e-18)
(12.0715 -1.46811 7.47623e-19)
(12.4874 -1.49271 0)
(12.8146 -1.51246 6.76335e-19)
(13.0838 -1.52383 -3.30169e-19)
(13.3076 -1.53028 0)
(13.4929 -1.53231 -6.15597e-19)
(13.6444 -1.5309 6.05626e-19)
(13.767 -1.5262 -2.94521e-19)
(13.865 -1.52285 0)
(8.79603 -1.11558 9.52998e-19)
(10.5262 -1.39734 4.25178e-19)
(11.4481 -1.45173 7.87009e-19)
(12.0252 -1.51582 0)
(12.4433 -1.5417 7.01216e-19)
(12.7717 -1.56219 -3.43179e-19)
(13.0417 -1.57407 -6.55763e-19)
(13.2664 -1.58085 0)
(13.4528 -1.58304 3.06473e-19)
(13.6056 -1.58161 0)
(13.7296 -1.57657 0)
(13.8297 -1.57271 0)
(8.73955 -1.14964 4.71881e-19)
(10.4697 -1.43825 -8.47197e-19)
(11.3963 -1.49679 -3.92936e-19)
(11.9772 -1.56285 0)
(12.3975 -1.59004 6.97495e-19)
(12.7273 -1.61131 -3.38008e-19)
(12.9982 -1.62367 -6.45525e-19)
(13.2238 -1.63077 9.4544e-19)
(13.4112 -1.63317 -9.15091e-19)
(13.5653 -1.63191 8.9504e-19)
(13.6907 -1.62722 -8.66166e-19)
(13.7918 -1.62388 6.33343e-21)
(8.68173 -1.18288 1.88317e-18)
(10.4116 -1.47816 -4.24766e-19)
(11.3426 -1.54106 0)
(11.9273 -1.60915 1.09417e-18)
(12.3501 -1.63772 -6.27066e-21)
(12.6813 -1.65974 -6.71373e-19)
(12.9532 -1.67262 -3.21127e-19)
(13.1798 -1.68005 -2.38964e-21)
(13.3682 -1.68257 6.04481e-19)
(13.5236 -1.68123 -5.96893e-19)
(13.6506 -1.67605 1.14963e-18)
(13.7542 -1.67254 -1.11419e-18)
(8.62262 -1.21556 -9.38487e-19)
(10.3517 -1.51738 -4.18747e-19)
(11.287 -1.58459 -3.85551e-19)
(11.8757 -1.65473 -2.90769e-21)
(12.301 -1.68469 -3.44959e-19)
(12.6337 -1.70749 -6.61012e-19)
(12.9067 -1.72091 6.46303e-19)
(13.1342 -1.72871 -2.47964e-21)
(13.3238 -1.73146 0)
(13.4803 -1.73027 -8.79537e-19)
(13.6085 -1.72506 5.73242e-19)
(13.7129 -1.72081 0)
(8.56193 -1.24757 4.72721e-19)
(10.29 -1.55591 8.32996e-19)
(11.2297 -1.62738 1.15269e-18)
(11.8223 -1.69958 -1.0908e-18)
(12.2502 -1.73094 -3.39634e-19)
(12.5844 -1.75458 9.91268e-19)
(12.8586 -1.76857 3.19492e-19)
(13.0872 -1.77674 -3.09646e-19)
(13.2779 -1.7798 -1.19272e-18)
(13.4358 -1.77897 1.17291e-18)
(13.5654 -1.77432 -2.85333e-19)
(13.6707 -1.77011 -1.10782e-18)
(8.49952 -1.27882 -9.23916e-19)
(10.2264 -1.59363 1.64962e-18)
(11.1705 -1.66939 -3.8646e-19)
(11.767 -1.74366 3.58017e-19)
(12.1977 -1.77647 3.40399e-19)
(12.5337 -1.80091 -2.84097e-21)
(12.8091 -1.81548 9.43404e-19)
(13.0388 -1.82401 -1.23092e-18)
(13.2308 -1.82732 0)
(13.3902 -1.82662 2.88373e-19)
(13.5217 -1.82223 0)
(13.6293 -1.81835 2.74552e-19)
(8.43541 -1.30923 -1.83654e-18)
(10.1609 -1.63041 1.64516e-18)
(11.1092 -1.71053 -3.81615e-19)