/*--------------------------------*- C++ -*----------------------------------*\
| =========                 |                                                 |
| \\      /  F ield         | OpenFOAM: The Open Source CFD Toolbox           |
|  \\    /   O peration     | Version:  2.3.1                                 |
|   \\  /    A nd           | Web:      www.OpenFOAM.org                      |
|    \\/     M anipulation  |                                                 |
\*---------------------------------------------------------------------------*/
FoamFile
{
    version     2.0;
    format      ascii;
    class       volVectorField;
    location    "0.6";
    object      U;
}
// * * * * * * * * * * * * * * * * * * * * * * * * * * * * * * * * * * * * * //

dimensions      [0 1 -1 0 0 0 0];

internalField   nonuniform List<vector> 
768
(
(0.0262408 -0.0272063 0)
(0.00696572 -0.0330287 -2.42079e-19)
(-0.00413973 -0.037121 0)
(-0.0185601 -0.0329754 -8.19255e-20)
(-0.0289458 -0.0247919 -1.51406e-20)
(-0.0352568 -0.012881 8.95551e-21)
(-0.0355581 0.00140633 -2.94897e-21)
(-0.028389 0.0143553 1.79434e-21)
(-0.0153057 0.0209003 -1.0664e-20)
(-0.000722041 0.0184319 2.58528e-20)
(0.0101937 0.0102389 5.63373e-21)
(0.0160131 0.000644333 0)
(0.0351724 -0.0213934 3.6148e-20)
(0.00654973 -0.0270906 -5.90195e-20)
(-0.00208439 -0.0300184 3.4157e-20)
(-0.0124829 -0.025077 0)
(-0.0222973 -0.0178936 3.89566e-20)
(-0.0291953 -0.00813898 -2.23084e-20)
(-0.0311224 0.00290559 -1.45552e-20)
(-0.0266219 0.0129467 0)
(-0.0167564 0.0188943 1.02592e-20)
(-0.00523305 0.0189658 -4.13336e-21)
(0.00359726 0.0146095 4.59743e-22)
(0.00946163 0.00843245 -4.58996e-22)
(0.0433661 -0.0143105 0)
(0.0117249 -0.0240421 8.48124e-21)
(-0.00179965 -0.0245844 -1.13886e-19)
(-0.00899436 -0.0207159 9.64211e-20)
(-0.0170017 -0.0145673 -3.78482e-20)
(-0.0227027 -0.00603145 -9.26825e-21)
(-0.0246553 0.00380255 1.71885e-20)
(-0.0219152 0.0128051 6.28318e-21)
(-0.0151401 0.0188679 -4.893e-22)
(-0.00672787 0.0207397 -5.04166e-21)
(0.000697673 0.0190851 0)
(0.00634532 0.0153931 1.86604e-22)
(0.0411662 -0.00319023 -1.14599e-19)
(0.0159615 -0.0202544 9.50242e-20)
(-0.00074783 -0.0194105 2.43741e-19)
(-0.00675495 -0.0166951 -1.14191e-19)
(-0.0132659 -0.0118075 -5.14849e-20)
(-0.0178418 -0.00511926 -4.19935e-20)
(-0.0194447 0.00298008 -1.02126e-20)
(-0.0176768 0.0107927 -3.98759e-21)
(-0.012954 0.0167191 0)
(-0.00670173 0.0196358 -3.0612e-23)
(-0.000655731 0.0196551 3.07238e-23)
(0.00439575 0.0176574 -7.54393e-22)
(0.0174373 -0.00860701 4.35517e-22)
(0.0159204 -0.0163044 -1.90613e-21)
(0.0131583 -0.0218406 7.47893e-21)
(0.0105047 -0.0253826 1.01358e-20)
(0.00847311 -0.0275836 -1.7683e-20)
(0.00712896 -0.0293039 2.34464e-20)
(0.00549454 -0.0313843 0)
(0.0019853 -0.0343293 4.23066e-20)
(-0.00561348 -0.0391818 0)
(-0.0181238 -0.0470884 1.44458e-19)
(-0.0282268 -0.052128 -6.56103e-20)
(-0.0293352 -0.0455356 -1.23289e-19)
(0.0124302 0.0019126 -3.72129e-22)
(0.0133065 -0.00377543 2.94093e-21)
(0.0128584 -0.00806369 -7.97323e-21)
(0.0121054 -0.0111865 -1.52238e-20)
(0.0111809 -0.0135935 1.18476e-21)
(0.0100033 -0.0159216 -3.64662e-20)
(0.00783037 -0.0186977 -5.48285e-20)
(0.00315964 -0.0218612 -6.3691e-20)
(-0.00527749 -0.0249767 -9.67607e-20)
(-0.0175509 -0.032758 -1.11583e-19)
(-0.0268336 -0.0456857 0)
(-0.0261452 -0.0501066 0)
(0.00994659 0.0108624 1.54551e-21)
(0.0117958 0.00647427 -4.12546e-21)
(0.0125579 0.00268064 9.36101e-21)
(0.0127005 -0.000621767 -6.48459e-22)
(0.0123116 -0.0037543 2.54423e-20)
(0.01119 -0.00700668 1.37727e-20)
(0.00876039 -0.0104194 5.07243e-20)
(0.00380573 -0.0136751 1.42652e-19)
(-0.00447541 -0.0146969 7.27585e-20)
(-0.0153498 -0.0166323 -1.00932e-19)
(-0.0232301 -0.0298727 0)
(-0.0220647 -0.0455524 0)
(0.00800848 0.0145387 -3.54148e-21)
(0.0102528 0.0110168 1.74281e-21)
(0.0114791 0.00748517 -1.74412e-21)
(0.0119384 0.00400091 2.5872e-20)
(0.0116148 0.000521603 -3.02102e-20)
(0.0103607 -0.00302499 -1.55177e-20)
(0.00781574 -0.00635978 -2.38614e-21)
(0.00322319 -0.00900213 1.68429e-20)
(-0.00371178 -0.00877797 -8.64558e-20)
(-0.0118235 -0.00513259 9.79327e-20)
(-0.0158202 -0.00811217 -9.59829e-20)
(-0.0138982 -0.0282184 0)
(-0.0271367 -0.0262105 -1.60705e-19)
(-0.0329717 -0.00693439 -3.84703e-20)
(-0.0370894 0.00413381 3.81491e-20)
(-0.0329591 0.0185306 -1.37749e-19)
(-0.0247956 0.0289061 6.35993e-20)
(-0.0129047 0.035224 -4.31994e-20)
(0.0013737 0.0355435 -1.21288e-22)
(0.0143322 0.0283964 1.75103e-21)
(0.0209028 0.015328 0)
(0.0184578 0.000742604 0)
(0.0102768 -0.0101897 5.61263e-21)
(0.000685828 -0.0160207 6.58698e-22)
(-0.0213195 -0.0351463 2.9359e-19)
(-0.0270254 -0.0065051 0)
(-0.0299863 0.00209924 0)
(-0.0250547 0.0124752 5.42222e-20)
(-0.0178833 0.0222769 -2.33688e-20)
(-0.00813932 0.0291752 6.78775e-21)
(0.00289962 0.0311139 0)
(0.0129465 0.0266287 -1.86825e-22)
(0.0189102 0.0167741 2.57876e-21)
(0.0189982 0.00524768 -5.20463e-21)
(0.0146501 -0.00359076 2.29984e-21)
(0.00847476 -0.00946431 3.55456e-22)
(-0.0142573 -0.0433366 -1.33557e-19)
(-0.0239886 -0.0116762 9.59397e-20)
(-0.0245607 0.00182664 3.08695e-20)
(-0.0206957 0.00899729 2.17789e-20)
(-0.0145561 0.0169898 1.61362e-20)
(-0.00602902 0.0226888 0)
(0.00380026 0.0246484 1.72055e-21)
(0.0128065 0.0219181 -3.5552e-21)
(0.0188798 0.0151498 -4.58448e-22)
(0.0207621 0.00673583 4.99168e-21)
(0.0191132 -0.0006947 -1.77745e-21)
(0.0154223 -0.00634821 -1.98153e-22)
(-0.00316691 -0.0411434 1.14646e-19)
(-0.0202238 -0.0159235 -1.23638e-19)
(-0.0194 0.00077938 -2.48936e-20)
(-0.0166804 0.00676538 4.3801e-21)
(-0.0117968 0.0132612 -5.16187e-20)
(-0.00511553 0.0178324 -1.03004e-20)
(0.002978 0.0194367 2.69861e-20)
(0.0107897 0.0176737 0)
(0.0167205 0.0129548 3.43347e-21)
(0.0196428 0.00670275 0)
(0.0196656 0.000655173 -1.11494e-21)
(0.017669 -0.00439921 7.77052e-22)
(-0.00856608 -0.0174632 7.09713e-23)
(-0.0162706 -0.0159509 0)
(-0.021818 -0.0131931 7.76726e-21)
(-0.0253677 -0.0105381 -1.01854e-20)
(-0.0275748 -0.00850025 0)
(-0.0293016 -0.00714859 -1.49988e-20)
(-0.0313863 -0.00550609 -1.57598e-21)
(-0.0343342 -0.0019882 8.3598e-20)
(-0.0391894 0.0056215 2.70049e-20)
(-0.0470936 0.0181444 -8.3227e-20)
(-0.0521204 0.0282578 -3.06802e-20)
(-0.0455157 0.0293774 -1.58755e-19)
(0.00195492 -0.0124414 1.05515e-22)
(-0.00374182 -0.0133247 -3.76827e-22)
(-0.00804494 -0.01288 -7.58291e-21)
(-0.0111772 -0.0121259 0)
(-0.0135909 -0.0111978 -3.26799e-20)
(-0.0159262 -0.0100148 -2.27465e-20)
(-0.0187072 -0.00783455 6.84213e-22)
(-0.0218723 -0.00315681 2.27186e-20)
(-0.0249896 0.00528868 -7.16958e-20)
(-0.0327743 0.0175711 1.11906e-19)
(-0.04569 0.0268625 0)
(-0.0500837 0.0261838 1.24271e-19)
(0.0108897 -0.00995492 -2.06048e-21)
(0.00649414 -0.0118129 4.92322e-22)
(0.00268989 -0.0125752 0)
(-0.000620856 -0.0127149 -2.10879e-20)
(-0.00375938 -0.0123223 3.1911e-20)
(-0.00701701 -0.0111963 3.93818e-20)
(-0.0104332 -0.00876059 -5.0923e-20)
(-0.0136884 -0.0037995 -8.06233e-20)
(-0.0147073 0.00448918 -9.23094e-20)
(-0.0166444 0.0153708 1.27899e-19)
(-0.0298832 0.0232608 -2.64001e-20)
(-0.0455368 0.0220947 -2.28283e-19)
(0.0145494 -0.00801502 2.99171e-21)
(0.0110231 -0.0102635 5.94631e-22)
(0.00748507 -0.0114902 0)
(0.00399544 -0.0119477 2.59963e-20)
(0.000512304 -0.0116216 1.06401e-21)
(-0.00303744 -0.0103633 -6.56913e-21)
(-0.0063739 -0.00781405 0)
(-0.00901441 -0.00321664 2.19794e-20)
(-0.00878679 0.00372373 6.90194e-20)
(-0.00513284 0.0118375 -4.60236e-21)
(-0.00811711 0.0158399 9.62512e-20)
(-0.028203 0.0139064 2.01858e-19)
(0.0247526 0.00724076 1.12835e-19)
(0.0139087 -0.014229 1.08101e-19)
(0.000600315 -0.0149534 -1.01904e-19)
(-0.00507952 -0.01271 -1.03727e-19)
(-0.0103787 -0.00904419 8.9343e-20)
(-0.0141701 -0.00380102 6.15628e-20)
(-0.0154672 0.00253669 -7.34071e-21)
(-0.0141961 0.00871889 -5.42772e-21)
(-0.0107058 0.0136989 1.97287e-21)
(-0.0059149 0.0165881 0)
(-0.00101386 0.0172326 0)
(0.0032488 0.016099 -3.22746e-22)
(0.0161018 0.00397879 0)
(0.0101996 -0.010145 -5.45988e-21)
(0.00099209 -0.0111601 0)
(-0.00390041 -0.00936387 8.19358e-20)
(-0.00825792 -0.00672378 -1.48205e-20)
(-0.011402 -0.00251774 2.59535e-20)
(-0.012457 0.00255631 -5.40107e-20)
(-0.0114821 0.0074648 3.94302e-21)
(-0.0087807 0.0114471 0)
(-0.00502249 0.0138821 -7.88137e-21)
(-0.00106286 0.0145846 0)
(0.00247557 0.013808 1.96521e-21)
(0.0104962 0.00252686 0)
(0.00719534 -0.00697378 -1.18966e-19)
(0.000789682 -0.0079738 2.24468e-20)
(-0.00312058 -0.0068761 0)
(-0.00670412 -0.00489311 6.38311e-20)
(-0.00926105 -0.00148433 1.13026e-20)
(-0.010164 0.00263695 3.07925e-20)
(-0.00944575 0.00665514 -2.27535e-20)
(-0.0073294 0.00993052 3.17273e-21)
(-0.00433793 0.0119878 1.75335e-20)
(-0.00110024 0.0126616 4.73464e-21)
(0.00184966 0.0120991 -1.07948e-21)
(0.00680651 0.00153486 -8.82596e-20)
(0.00484234 -0.00482255 0)
(0.000483719 -0.00563622 0)
(-0.00256903 -0.00505162 8.76359e-20)
(-0.0055043 -0.00346218 -7.86465e-20)
(-0.00755741 -0.000667009 1.1348e-20)
(-0.00834116 0.00272252 -1.13303e-20)
(-0.00782023 0.00605845 1.48817e-20)
(-0.00615974 0.00881088 1.31689e-20)
(-0.00376634 0.0105945 1.74727e-21)
(-0.00110904 0.0112532 -4.59122e-21)
(0.00136546 0.0108576 1.42195e-21)
(0.00447869 0.000922401 8.58807e-20)
(0.00319984 -0.00337352 0)
(0.000214998 -0.00400107 1.79931e-20)
(-0.00215816 -0.00368882 -1.5441e-19)
(-0.00453602 -0.00233747 0)
(-0.0061997 -1.75222e-05 -6.12157e-20)
(-0.00686722 0.00280813 5.71501e-20)
(-0.00648276 0.00560847 -3.84109e-20)
(-0.00517674 0.00794571 -9.63264e-21)
(-0.00325005 0.0095014 -2.65441e-20)
(-0.00106723 0.0101291 0)
(0.00101652 0.00986145 -2.89621e-21)
(0.00297959 0.000515723 1.94255e-20)
(0.00209811 -0.0024165 -9.51776e-20)
(2.285e-05 -0.00285325 0)
(-0.00182719 -0.00265137 1.12728e-21)
(-0.00374555 -0.00145897 0)
(-0.00509481 0.000502119 1.08197e-20)
(-0.005663 0.00289185 -5.12992e-20)
(-0.00538501 0.00527088 2.89826e-20)
(-0.00435238 0.00727336 1.85776e-20)
(-0.00279746 0.00863368 1.20144e-20)
(-0.00100426 0.0092195 -6.2038e-21)
(0.000739556 0.00903771 1.47246e-21)
(0.0019851 0.000231079 0)
(0.00137362 -0.00178262 2.17146e-19)
(-9.08484e-05 -0.00203688 1.51374e-19)
(-0.00153913 -0.00185302 4.64179e-20)
(-0.00308165 -0.000774268 0)
(-0.00417824 0.000918188 5.85855e-20)
(-0.00466797 0.00297075 -6.34795e-21)
(-0.00447249 0.00501651 -6.94936e-22)
(-0.00365683 0.00675124 -1.82585e-20)
(-0.00240558 0.00794756 0)
(-0.000934132 0.0084873 -3.77501e-22)
(0.000520914 0.00836323 4.87565e-29)
(0.00132003 2.74876e-05 -1.40933e-19)
(0.000911081 -0.00135915 -2.9343e-19)
(-0.000135067 -0.00146243 -1.14624e-19)
(-0.00126659 -0.00124949 -1.1905e-19)
(-0.00250036 -0.000248323 0)
(-0.00339957 0.00124239 1.08498e-20)
(-0.00382449 0.00303546 -1.54969e-20)
(-0.00369808 0.00481892 6.39681e-22)
(-0.00306441 0.00633922 4.01595e-21)
(-0.00206176 0.00740101 0)
(-0.000861303 0.00789622 6.22985e-21)
(0.000346484 0.00781268 3.26867e-21)
(0.000866882 -0.00014345 2.03441e-21)
(0.000641409 -0.00110466 1.33313e-19)
(-9.96007e-05 -0.00109604 0)
(-0.000972184 -0.000838428 1.4605e-20)
(-0.00195635 0.00010754 -1.4975e-21)
(-0.00270031 0.00144926 -4.7158e-20)
(-0.00308014 0.00304401 3.37095e-20)
(-0.00301828 0.00462781 -3.91047e-20)
(-0.0025444 0.00598321 0)
(-0.00175263 0.00694442 -1.37534e-20)
(-0.000786737 0.00741089 0)
(0.000205162 0.00736728 -6.45103e-21)
(0.000531567 -0.000306305 1.31655e-19)
(0.000500606 -0.000976389 -1.55005e-20)
(1.11055e-05 -0.000904573 1.50327e-19)
(-0.000636543 -0.00061185 9.74685e-20)
(-0.00141882 0.000285868 -8.87046e-20)
(-0.00204412 0.00151922 4.30611e-20)
(-0.00239908 0.00297341 -1.01414e-20)
(-0.00240559 0.00442357 2.96297e-20)
(-0.00207521 0.00568008 3.98337e-21)
(-0.0014737 0.00659576 2.54156e-20)
(-0.00071252 0.00707642 -4.84385e-21)
(9.32185e-05 0.00710106 3.18412e-21)
(0.000159735 -0.000400266 0)
(0.000216473 -0.000716786 0)
(-9.48547e-05 -0.000522206 -1.17253e-19)
(-0.00053677 -0.000141396 0)
(-0.00113071 0.000754747 1.09584e-19)
(-0.00163881 0.00194082 -1.08815e-19)
(-0.00194844 0.00332276 -2.33576e-20)
(-0.00198799 0.0046992 2.89719e-20)
(-0.00174621 0.00590087 0)
(-0.00127024 0.00679069 1.65296e-22)
(-0.000641642 0.00727675 1.91396e-20)
(3.03078e-05 0.00733236 0)
(-0.000231901 3.60529e-06 -1.07043e-19)
(-0.00057827 0.000408303 -1.48533e-19)
(-0.000959649 0.00103621 1.44915e-20)
(-0.00130064 0.00174609 0)
(-0.00165694 0.00271743 -1.12057e-20)
(-0.00190611 0.00379256 1.05444e-19)
(-0.00198966 0.00489294 -9.90527e-21)
(-0.0018748 0.00586649 -3.62361e-20)
(-0.00156716 0.0065887 3.83065e-21)
(-0.00111346 0.00697239 -1.30732e-20)
(-0.00058375 0.00697509 -2.48851e-20)
(-6.79842e-05 0.00660108 3.10611e-21)
(0.00648635 0.0138275 7.55315e-22)
(0.00864925 0.010941 -1.82556e-21)
(0.00987226 0.00778876 1.8265e-21)
(0.0102902 0.0045323 2.06766e-20)
(0.00991748 0.00126054 2.44558e-20)
(0.00864678 -0.00196408 -2.8242e-20)
(0.00627614 -0.00474545 -1.73427e-20)
(0.0024058 -0.00661274 -5.69978e-20)
(-0.00272043 -0.00581067 1.64884e-19)
(-0.00764884 -0.00151713 0)
(-0.00637178 0.00382057 9.36382e-20)
(0.00209468 0.00214037 0)
(0.00524598 0.0120137 1.19313e-21)
(0.00715463 0.00961273 0)
(0.00824461 0.00690937 0)
(0.00859874 0.00406986 4.56352e-22)
(0.0082286 0.00123384 -2.36979e-20)
(0.00706344 -0.00148445 -6.96062e-20)
(0.00499901 -0.00369349 -4.76384e-20)
(0.00187473 -0.00503567 0)
(-0.00191125 -0.00411761 -7.8506e-20)
(-0.0051165 -0.00116989 2.10097e-20)
(-0.00240259 0.00260615 4.16526e-20)
(0.00486678 -0.00133236 1.07081e-19)
(0.00423094 0.0106523 -1.51163e-21)
(0.00589899 0.008634 1.9394e-21)
(0.00687348 0.00630728 1.53278e-20)
(0.00719514 0.00385254 -3.4718e-20)
(0.00686811 0.00141559 -3.50519e-20)
(0.00585845 -0.00087824 -7.89573e-21)
(0.00411948 -0.00268054 9.04651e-20)
(0.00163419 -0.00373717 5.03202e-20)
(-0.00114174 -0.0028881 -7.20886e-20)
(-0.00317037 -0.00054086 0)
(-0.00137807 0.00268964 -8.16936e-20)
(0.00235491 0.00027598 -2.51509e-21)
(0.00340878 0.00967846 3.06693e-21)
(0.00489142 0.00797621 0)
(0.00576662 0.00596788 -1.67561e-20)
(0.00606084 0.00382615 4.99894e-21)
(0.005782 0.00170419 2.34263e-20)
(0.00492127 -0.000263397 1.10745e-19)
(0.00347764 -0.0017842 -7.12139e-20)
(0.0015006 -0.00268863 -8.07667e-20)
(-0.000548446 -0.00208052 1.54875e-19)
(-0.00185051 -0.000438433 -7.22269e-20)
(-0.000530365 0.00192125 0)
(0.00186684 7.37205e-05 -7.78563e-20)
(0.00275808 0.00889487 -3.21485e-21)
(0.00404756 0.0074462 0)
(0.00483173 0.00570207 0)
(0.00510545 0.00382152 1.41829e-20)
(0.0048768 0.00195975 5.568e-20)
(0.00415031 0.000251486 -5.59372e-20)
(0.00296676 -0.00105725 5.58376e-20)
(0.00139001 -0.00185631 -6.05841e-20)
(-0.000142438 -0.0014832 -1.31538e-19)
(-0.00106423 -0.000413256 1.44077e-21)
(-0.00037987 0.00131102 7.13825e-20)
(0.00109276 0.000124918 0)
(0.00222692 0.00823836 1.61406e-21)
(0.00333664 0.00699435 -7.56811e-21)
(0.00403091 0.00546688 0)
(0.00428184 0.00380755 0)
(0.00410022 0.00216126 -4.90241e-20)
(0.00349655 0.000659153 -4.26921e-20)
(0.00253341 -0.000485135 0)
(0.00128275 -0.00121195 5.88362e-20)
(0.000109644 -0.00102368 4.71851e-20)
(-0.000593582 -0.000395257 8.27757e-20)
(-0.0002918 0.000786522 -1.37406e-19)
(0.000648405 0.000112827 1.38024e-19)
(0.00178086 0.00769206 -4.87233e-29)
(0.00273948 0.0066115 9.34072e-21)
(0.00334235 0.00526444 -1.98241e-21)
(0.00357282 0.00378814 -5.00314e-21)
(0.00342959 0.00232085 1.05895e-20)
(0.00293427 0.000982577 4.14931e-20)
(0.00215132 -4.01512e-05 0)
(0.00116727 -0.000721159 0)
(0.000247204 -0.00066248 5.99555e-20)
(-0.000307259 -0.000327963 0)
(-0.000227154 0.000482538 4.96372e-20)
(0.000396173 0.000111402 -1.17585e-19)
(0.00140579 0.00724034 3.44507e-21)
(0.00222873 0.00629388 7.50749e-21)
(0.0027485 0.00509724 1.66503e-20)
(0.00295751 0.00377383 0)
(0.00284739 0.00245561 5.43316e-21)
(0.00244562 0.0012481 -1.74041e-20)
(0.0018134 0.00031328 2.50062e-20)
(0.00103903 -0.000334135 -8.1092e-20)
(0.00031599 -0.000375778 -4.4261e-20)
(-0.000127595 -0.000232855 0)
(-0.000151654 0.000325884 1.25329e-19)
(0.000254762 0.000123079 1.27089e-19)
(0.00108942 0.00688377 -6.77934e-21)
(0.001789 0.00605683 -7.30899e-21)
(0.00223933 0.0049934 -1.62106e-20)
(0.00242817 0.00380519 4.78052e-21)
(0.00235139 0.0026137 5.06383e-22)
(0.00203253 0.00151289 -5.2943e-21)
(0.00152816 0.000642011 0)
(0.000918958 1.40446e-05 2.58632e-22)
(0.000361076 -0.000118245 -1.43214e-20)
(-1.41468e-06 -0.00010624 1.31248e-19)
(-7.04094e-05 0.000265937 -1.21931e-19)
(0.000168808 0.000151352 -1.23641e-19)
(0.000830122 0.00672256 3.33656e-21)
(0.00142689 0.00602036 -7.29747e-21)
(0.00182471 0.00508429 1.60349e-20)
(0.00200628 0.00401441 0)
(0.00196544 0.00292186 0)
(0.00172357 0.00189107 -3.18994e-20)
(0.0013252 0.00104469 3.57957e-20)
(0.000843542 0.000399149 1.52471e-19)
(0.000411312 0.000164522 1.0812e-19)
(0.000102678 5.9424e-05 1.38437e-20)
(7.80212e-06 0.000269121 -1.44158e-20)
(0.000103086 0.000193769 0)
(0.000658477 0.00699683 0)
(0.00117503 0.00633555 7.11132e-21)
(0.00152737 0.00542736 -1.56272e-20)
(0.00168774 0.00436869 4.55547e-21)
(0.00165035 0.00326641 -4.5583e-21)
(0.00143794 0.0022077 4.20931e-20)
(0.00109247 0.0013088 -4.58956e-20)
(0.000679778 0.000597566 -9.89382e-20)
(0.000321425 0.000254748 -1.05341e-19)
(3.98682e-05 7.05871e-05 -1.10304e-19)
(-5.75315e-05 0.000184035 1.2786e-19)
(-2.75911e-05 0.000208887 -1.4305e-20)
(0.000372086 0.0059088 6.46649e-21)
(0.000687318 0.0049826 -1.39029e-20)
(0.000848309 0.00391312 0)
(0.000845935 0.00279402 -3.36443e-20)
(0.000695148 0.00172127 -3.71509e-20)
(0.000431711 0.000769953 0)
(0.000108311 2.54804e-05 1.15332e-20)
(-0.000214706 -0.000493394 -2.38687e-20)
(-0.00043392 -0.000674874 -6.71915e-22)
(-0.000544095 -0.000652547 1.30066e-20)
(-0.000454797 -0.000381896 -2.19893e-19)
(-0.000194474 -4.13668e-05 0)
(0.00723809 -0.0247514 -1.12878e-19)
(-0.0142224 -0.0138887 -1.34619e-19)
(-0.0149548 -0.00057416 1.2345e-19)
(-0.0127007 0.00509174 0)
(-0.00903467 0.0103789 7.00958e-20)
(-0.00379589 0.0141658 1.08791e-20)
(0.0025372 0.0154618 -2.70975e-20)
(0.00871675 0.0141926 -9.82787e-21)
(0.0136974 0.0107039 -5.33033e-21)
(0.0165885 0.00591363 0)
(0.0172347 0.00101213 1.07963e-21)
(0.016102 -0.00325219 -5.67297e-22)
(0.00397986 -0.0161043 0)
(-0.0101476 -0.0101919 1.29246e-19)
(-0.0111643 -0.000974789 -1.1876e-19)
(-0.00935627 0.00391034 0)
(-0.00671554 0.00825997 5.1766e-20)
(-0.00251181 0.0114003 1.48367e-20)
(0.00255913 0.0124544 -3.91216e-20)
(0.00746547 0.0114802 -2.47662e-21)
(0.0114476 0.00877921 0)
(0.0138833 0.0050212 0)
(0.0145863 0.00106112 0)
(0.01381 -0.00247878 -1.12428e-21)
(0.00252669 -0.0104992 0)
(-0.00697992 -0.00719083 6.94629e-20)
(-0.00797785 -0.000776633 1.06972e-19)
(-0.00686955 0.00312889 0)
(-0.0048858 0.00670691 -5.02183e-20)
(-0.0014782 0.0092609 2.59604e-20)
(0.00264133 0.0101628 5.36034e-20)
(0.00665762 0.00944476 -9.3386e-21)
(0.00993278 0.00732808 -8.71323e-21)
(0.0119905 0.00433677 0)
(0.0126642 0.00109823 -4.77882e-21)
(0.0121017 -0.00185277 1.09031e-21)
(0.00153459 -0.00680888 0)
(-0.00482753 -0.00483859 -8.93375e-20)
(-0.00563844 -0.00047307 -1.61416e-19)
(-0.00504648 0.00257626 0)
(-0.00345591 0.00550761 -1.40664e-20)
(-0.000661118 0.00755814 -3.62136e-20)
(0.00272748 0.00834073 4.11728e-20)
(0.00606186 0.00781968 1.49699e-20)
(0.00881398 0.00615879 -1.69413e-21)
(0.0105978 0.00376512 1.29998e-21)
(0.011256 0.00110698 3.9881e-21)
(0.0108601 -0.00136797 -6.56173e-22)
(0.000922098 -0.00448025 2.06731e-20)
(-0.00337675 -0.00319653 -4.0484e-20)
(-0.00400062 -0.000208336 7.86868e-20)
(-0.00368431 0.00216391 1.79983e-20)
(-0.00233204 0.0045396 7.28111e-20)
(-1.18577e-05 0.00620091 -1.36413e-20)
(0.00281353 0.00686735 -7.68204e-20)
(0.00561235 0.00648277 -8.5097e-22)
(0.00794898 0.00517613 1.22886e-20)
(0.00950469 0.00324876 -1.56358e-20)
(0.0101319 0.00106537 0)
(0.00986385 -0.00101868 3.05251e-21)
(0.00051545 -0.00298068 0)
(-0.00241896 -0.00209543 -1.85821e-20)
(-0.00285206 -1.73603e-05 1.85423e-20)
(-0.00264679 0.00183246 0)
(-0.00145401 0.00374885 -4.42133e-20)
(0.000507086 0.00509655 -5.10595e-20)
(0.00289729 0.0056639 2.90637e-20)
(0.00527518 0.00538521 -3.91267e-21)
(0.00727675 0.00435168 3.91488e-21)
(0.00863696 0.00279651 1.20957e-20)
(0.00922216 0.00100281 0)
(0.00903977 -0.000741596 -2.96525e-21)
(0.00023092 -0.00198594 1.47968e-19)
(-0.00178399 -0.00137099 1.26187e-19)
(-0.00203608 9.62135e-05 1.26913e-21)
(-0.00184898 0.00154311 1.6313e-20)
(-0.000769527 0.00308455 5.51413e-20)
(0.000923006 0.00418037 5.87587e-20)
(0.00297583 0.00466948 -1.10581e-20)
(0.00502072 0.00447257 0)
(0.00675475 0.00365638 0)
(0.00795086 0.00240492 0)
(0.00848975 0.000932994 5.655e-21)
(0.00836498 -0.000522573 7.89996e-22)
(2.75004e-05 -0.00132075 -1.26456e-19)
(-0.00135971 -0.000908975 -1.57367e-19)
(-0.0014611 0.000138954 0)
(-0.00124581 0.00127006 0)
(-0.000243673 0.00250304 -9.45054e-20)
(0.00124703 0.00340169 4.52168e-20)
(0.0030404 0.00382595 -4.67078e-20)
(0.00482304 0.00369854 -4.36127e-20)
(0.00634276 0.0030642 4.03447e-21)
(0.00740423 0.00206138 -1.64843e-21)
(0.00789848 0.000860356 -4.61835e-21)
(0.00781414 -0.000347774 -3.28809e-21)
(-0.000143225 -0.000867621 0)
(-0.00110426 -0.000640044 -1.6113e-20)
(-0.00109405 0.000102293 1.61027e-20)
(-0.000835179 0.000975247 1.37158e-20)
(0.000112054 0.00195856 5.04942e-20)
(0.00145392 0.00270223 -4.71455e-20)
(0.00304873 0.00308188 2.87803e-20)
(0.00463167 0.00301908 6.8629e-20)
(0.00598669 0.00254429 0)
(0.00694748 0.00175261 1.66444e-21)
(0.0074129 0.0007861 -1.66546e-21)
(0.0073686 -0.000206121 3.20033e-21)
(-0.000306015 -0.000532406 0)
(-0.000975718 -0.000499892 -1.55254e-20)
(-0.000902226 -9.29995e-06 9.73882e-22)
(-0.000608714 0.000638949 1.2614e-19)
(0.000289855 0.00142074 -1.12694e-19)
(0.0015237 0.00204566 6.70499e-20)
(0.0029776 0.00240106 -5.89101e-21)
(0.00442683 0.00240631 -4.23167e-20)
(0.005683 0.00207546 4.00075e-21)
(0.00659839 0.00147392 1.37438e-20)
(0.00707788 0.000712254 0)
(0.00710193 -9.39156e-05 3.26083e-21)
(-0.000400046 -0.000160748 0)
(-0.000716583 -0.000216583 0)
(-0.000521059 9.55471e-05 0)
(-0.000139703 0.000537732 -1.08769e-19)
(0.000756757 0.00113171 2.08019e-19)
(0.00194344 0.00163971 -5.51644e-20)
(0.00332514 0.00194959 4.48552e-21)
(0.00470055 0.00198808 -4.48304e-21)
(0.00590195 0.00174662 0)
(0.00679157 0.00127034 -2.8596e-20)
(0.00727655 0.000641539 1.53273e-20)
(0.00733182 -3.05942e-05 -3.97738e-21)
(3.20074e-06 0.000230872 1.22285e-19)
(0.000406865 0.0005767 0)
(0.00103426 0.000957933 -1.36327e-20)
(0.00174363 0.00129892 1.18554e-19)
(0.00271455 0.00165534 -8.38593e-20)
(0.0037897 0.00190486 -2.11685e-20)
(0.00489004 0.00198854 5.14962e-20)
(0.00586302 0.00187367 -8.21055e-21)
(0.00658526 0.00156656 3.84702e-21)
(0.00696921 0.00111297 2.63411e-20)
(0.00697167 0.000583498 -1.2486e-20)
(0.0065977 6.79303e-05 -6.24713e-21)
(0.0138304 -0.00649165 -7.66064e-22)
(0.0109414 -0.00865691 -1.83682e-21)
(0.0077854 -0.00988031 1.83776e-21)
(0.00452553 -0.010297 0)
(0.00125163 -0.00992232 -3.11575e-20)
(-0.00197502 -0.00864854 -2.17433e-20)
(-0.00475709 -0.00627413 8.2566e-20)
(-0.00662244 -0.00240057 5.71939e-20)
(-0.00581846 0.00272929 0)
(-0.00151677 0.00765899 -3.85575e-21)
(0.00382339 0.0063833 -9.39017e-20)
(0.00215664 -0.00208617 -9.48014e-20)
(0.0120155 -0.00525066 -2.60574e-21)
(0.00961268 -0.00716076 -1.90305e-21)
(0.00690669 -0.00825124 -1.53452e-20)
(0.00406475 -0.00860445 5.53445e-21)
(0.00122689 -0.00823247 1.82572e-20)
(-0.00149329 -0.00706503 -6.98811e-20)
(-0.00370257 -0.00499701 -4.8374e-20)
(-0.00504338 -0.00187059 0)
(-0.00412396 0.001918 0)
(-0.00117058 0.00512559 -6.33736e-20)
(0.00260669 0.00241187 -2.10794e-20)
(-0.00132526 -0.00485651 -8.57384e-20)
(0.0106543 -0.00423536 5.55231e-22)
(0.0086342 -0.00590408 8.09314e-21)
(0.00630521 -0.00687894 1.67291e-20)
(0.0038485 -0.00719991 0)
(0.00140982 -0.0068717 -1.72304e-20)
(-0.000885448 -0.00585982 8.63898e-20)
(-0.00268807 -0.00411741 -4.58553e-20)
(-0.00374389 -0.00163047 0)
(-0.00289363 0.00114737 0)
(-0.000542465 0.00317827 0)
(0.0026904 0.00138675 0)
(0.000283604 -0.00234318 8.30478e-20)
(0.00968034 -0.00341226 0)
(0.00797638 -0.00489556 -5.09243e-21)
(0.00596606 -0.00577078 -1.98158e-21)
(0.00382256 -0.00606442 5.3461e-21)
(0.00169901 -0.00578445 1.13451e-20)
(-0.000269693 -0.00492215 -5.94315e-20)
(-0.00179103 -0.003476 1.427e-20)
(-0.00269463 -0.00149668 0)
(-0.00208553 0.000553607 -6.86303e-20)
(-0.000440898 0.00185733 5.37673e-20)
(0.00192122 0.000538471 -5.6665e-20)
(7.85028e-05 -0.00185833 -7.63155e-20)
(0.00889632 -0.0027609 2.47361e-21)
(0.00744593 -0.00405127 8.69593e-22)
(0.00570027 -0.00483512 0)
(0.00381815 -0.00510843 -5.24247e-21)
(0.00195495 -0.00487858 -3.35775e-20)
(0.00024555 -0.00415067 -5.93181e-21)
(-0.00106341 -0.00296541 4.52912e-22)
(-0.00186178 -0.00138652 -6.07983e-20)
(-0.00148792 0.000147559 4.96332e-20)
(-0.000415968 0.00107038 -5.33912e-20)
(0.00131077 0.000386949 7.31176e-20)
(0.000128974 -0.00108553 1.5123e-21)
(0.00823934 -0.00222957 -4.13518e-21)
(0.00699394 -0.0033397 2.88659e-21)
(0.00546516 -0.00403374 -2.00064e-21)
(0.00380435 -0.00428418 5.13519e-21)
(0.00215677 -0.00410155 4.40944e-20)
(0.0006537 -0.00349653 7.03014e-21)
(-0.000490764 -0.0025317 4.11802e-20)
(-0.00121726 -0.00127998 1.02202e-19)
(-0.00102796 -0.000104906 1.52185e-20)
(-0.000397804 0.000599582 0)
(0.000785995 0.000297857 0)
(0.000115923 -0.000642703 7.04366e-20)
(0.00769278 -0.00178301 -2.45106e-29)
(0.00661095 -0.00274149 -5.60847e-21)
(0.00526266 -0.00334463 -1.89732e-20)
(0.00378515 -0.00357447 0)
(0.00231666 -0.00343031 0)
(0.000977522 -0.00293385 -1.2391e-20)
(-4.54799e-05 -0.00214953 1.24072e-20)
(-0.000725981 -0.0011643 -1.12862e-19)
(-0.000666641 -0.00024338 -7.56347e-20)
(-0.000330422 0.000312844 3.16576e-20)
(0.000481669 0.000232321 1.14681e-19)
(0.000113766 -0.00039167 1.32621e-19)
(0.00724095 -0.00140741 2.56935e-21)
(0.00629325 -0.00223005 1.02659e-20)
(0.00509545 -0.00274997 3.12791e-20)
(0.00377102 -0.00295859 -3.7304e-20)
(0.0024516 -0.00284778 -3.60394e-20)
(0.00124334 -0.00244487 -1.74735e-20)
(0.000308308 -0.00181158 1.20258e-20)
(-0.000338742 -0.00103586 5.46102e-20)
(-0.000379862 -0.000312601 1.74388e-19)
(-0.000235566 0.000132191 1.21457e-19)
(0.000324829 0.000156204 -1.46803e-21)
(0.000124848 -0.000251293 -1.44198e-21)
(0.00688431 -0.00109044 -3.37285e-21)
(0.00605613 -0.00178994 -7.45749e-21)
(0.00499157 -0.00224005 -1.62911e-20)
(0.00380234 -0.00242871 6.80099e-20)
(0.00260986 -0.00235134 3.98881e-20)
(0.00150841 -0.00203152 5.3163e-21)
(0.00063727 -0.00152627 -4.86686e-20)
(9.47066e-06 -0.000916043 0)
(-0.000122233 -0.000357678 -7.79586e-22)
(-0.000109224 5.15577e-06 -2.35447e-19)
(0.000264776 7.43597e-05 -1.37652e-19)
(0.000152476 -0.000166083 1.42618e-20)
(0.00672273 -0.000830667 0)
(0.00601938 -0.00142751 9.1822e-21)
(0.00508225 -0.00182497 -1.80323e-20)
(0.00401147 -0.00200627 -3.5548e-20)
(0.00291806 -0.00196482 -3.42596e-20)
(0.00188663 -0.00172225 -1.65114e-20)
(0.00104002 -0.00132321 -8.25361e-22)
(0.000394585 -0.000840754 -8.95985e-20)
(0.000160495 -0.00040813 -2.31398e-19)
(5.63897e-05 -9.93256e-05 1.28084e-19)
(0.000267645 -4.60752e-06 0)
(0.000194205 -0.000101186 -2.38734e-19)
(0.00699578 -0.00065854 0)
(0.00633355 -0.00117514 -1.24965e-20)
(0.00542453 -0.00152715 1.3823e-20)
(0.00436515 -0.00168719 -4.57564e-21)
(0.00326221 -0.00164932 8.14532e-20)
(0.00220305 -0.00143629 4.22264e-20)
(0.00130407 -0.00109036 4.6071e-20)
(0.000593056 -0.000677029 9.92909e-20)
(0.000250723 -0.000318508 1.05698e-19)
(6.7555e-05 -3.69441e-05 0)
(0.000182286 6.00655e-05 0)
(0.000208729 2.88379e-05 1.15936e-19)
(0.00590533 -0.000371901 -3.25103e-21)
(0.00497881 -0.000686938 2.97559e-20)
(0.00390904 -0.000847634 1.34769e-20)
(0.00278968 -0.000844935 3.37985e-20)
(0.00171667 -0.000693761 -3.73111e-20)
(0.000765253 -0.000429917 -1.07079e-20)
(2.10176e-05 -0.000106287 1.06964e-20)
(-0.000497485 0.000217067 -1.23783e-20)
(-0.00067848 0.000436278 1.23773e-20)
(-0.000655228 0.000546265 0)
(-0.000383539 0.000456436 0)
(-4.17397e-05 0.000195182 1.11847e-19)
)
;

boundaryField
{
    rotor
    {
        type            movingWallVelocity;
        value           nonuniform 0();
    }
    stator
    {
        type            movingWallVelocity;
        value           nonuniform List<vector> 
96
(
(1.76394e-15 -1.88334e-15 3.56616e-32)
(1.51917e-15 -1.85111e-15 -2.35922e-16)
(-8.93608e-16 1.24703e-15 -2.35922e-16)
(2.06243e-16 -3.31666e-16 -2.35922e-16)
(-7.84649e-16 1.46798e-15 0)
(7.09503e-16 -1.56591e-15 0)
(6.22218e-16 -1.65319e-15 0)
(0 0 -2.35922e-16)
(0 0 0)
(0 0 0)
(0 0 0)
(0 0 0)
(3.81519e-34 -1.24896e-35 -2.35922e-16)
(0 0 0)
(-5.15066e-17 -3.11971e-16 0)
(-2.08692e-16 -8.9503e-16 -2.35922e-16)
(0 0 0)
(4.68372e-16 1.24444e-15 0)
(6.42944e-16 1.41901e-15 0)
(8.38807e-16 1.5693e-15 0)
(8.46369e-16 1.36107e-15 2.35922e-16)
(-8.93608e-16 -1.24703e-15 0)
(1.51917e-15 1.85111e-15 3.77697e-32)
(0 0 -2.35922e-16)
(-1.88334e-15 -1.76394e-15 -2.35922e-16)
(-3.29775e-15 -2.7064e-15 -4.71845e-16)
(0 0 0)
(-3.31666e-16 -2.06243e-16 -2.35922e-16)
(0 0 -2.35922e-16)
(1.41901e-15 6.42944e-16 0)
(1.65319e-15 6.22218e-16 -4.71845e-16)
(8.64169e-16 2.62143e-16 0)
(6.02631e-17 1.40514e-17 -2.35922e-16)
(-6.06678e-16 -1.00163e-16 -2.35922e-16)
(0 0 0)
(-1.29046e-16 -4.22453e-18 -2.35922e-16)
(-1.17835e-16 3.85752e-18 3.12241e-36)
(-3.68209e-16 3.62655e-17 2.35922e-16)
(0 0 0)
(0 0 0)
(-8.64169e-16 2.62143e-16 -2.35922e-16)
(0 0 0)
(1.41901e-15 -6.42944e-16 0)
(3.03727e-15 -1.62346e-15 -2.35922e-16)
(0 0 0)
(1.78722e-15 -1.2807e-15 -2.35922e-16)
(-2.25559e-15 1.85111e-15 0)
(-1.27482e-16 1.19399e-16 -2.35922e-16)
(0 0 0)
(9.4369e-16 9.4369e-16 0)
(-9.4369e-16 -9.4369e-16 -2.35922e-16)
(9.4369e-16 9.4369e-16 0)
(0 0 -2.35922e-16)
(9.4369e-16 9.4369e-16 0)
(9.4369e-16 9.4369e-16 0)
(0 0 0)
(0 0 -2.35922e-16)
(0 0 -2.35922e-16)
(0 0 0)
(0 0 0)
(0 0 0)
(9.4369e-16 -9.4369e-16 0)
(-9.4369e-16 9.4369e-16 -2.35922e-16)
(9.4369e-16 -9.4369e-16 0)
(0 0 -2.35922e-16)
(9.4369e-16 -9.4369e-16 0)
(9.4369e-16 -9.4369e-16 0)
(0 0 0)
(0 0 -2.35922e-16)
(0 0 -2.35922e-16)
(0 0 0)
(0 0 0)
(0 0 0)
(9.4369e-16 -9.4369e-16 -2.35922e-16)
(-9.4369e-16 9.4369e-16 0)