/*--------------------------------*- C++ -*----------------------------------*\
| =========                 |                                                 |
| \\      /  F ield         | OpenFOAM: The Open Source CFD Toolbox           |
|  \\    /   O peration     | Version:  2.3.1                                 |
|   \\  /    A nd           | Web:      www.OpenFOAM.org                      |
|    \\/     M anipulation  |                                                 |
\*---------------------------------------------------------------------------*/
FoamFile
{
    version     2.0;
    format      ascii;
    class       volScalarField;
    location    "0.06";
    object      nut;
}
// * * * * * * * * * * * * * * * * * * * * * * * * * * * * * * * * * * * * * //

dimensions      [0 2 -1 0 0 0 0];

internalField   nonuniform List<scalar> 
9648
(
0.000256822
0.000257285
0.000256273
0.000255317
0.000254367
0.000253316
0.000252156
0.000250869
0.000249439
0.00024784
0.000246067
0.000244149
0.000242079
0.000239851
0.000237501
0.000235056
0.000232527
0.000229924
0.00022728
0.000224631
0.000221992
0.000219387
0.000216848
0.000214383
0.000212006
0.000209739
0.000207598
0.000205587
0.000203706
0.000201965
0.000200362
0.000198898
0.00019757
0.000196381
0.000195321
0.000194391
0.00019359
0.00019291
0.000192339
0.000191875
0.000191521
0.000191266
0.000191104
0.000191038
0.000191054
0.000191139
0.000191298
0.000191539
0.000191849
0.000192209
0.000192627
0.000193116
0.000193651
0.000194232
0.00019487
0.000195567
0.000196309
0.00019707
0.000197882
0.000198766
0.000199725
0.000777525
0.00074842
0.000729397
0.000712924
0.000701193
0.000693952
0.000689861
0.000688416
0.000688914
0.000690899
0.000693888
0.00069815
0.000703706
0.000710595
0.000718912
0.000728886
0.000740601
0.000754021
0.000769132
0.000786013
0.000804512
0.000824545
0.00084605
0.000868843
0.000892711
0.000917554
0.000943269
0.000969691
0.000996631
0.00102397
0.00105166
0.00107953
0.00110747
0.00113548
0.00116345
0.00119127
0.00121897
0.00124654
0.00127388
0.00130086
0.0013275
0.00135386
0.00137986
0.00140543
0.00143065
0.00145537
0.00147964
0.00150335
0.00152662
0.00154923
0.00157118
0.00159256
0.00161343
0.00163332
0.00165267
0.00167122
0.00168937
0.00170623
0.00172224
0.0017375
0.00175213
0.00194205
0.00181016
0.00171381
0.00164446
0.0016003
0.00157689
0.00156696
0.00156709
0.00157312
0.00158391
0.00159691
0.00161203
0.00162881
0.00164726
0.00166746
0.0016896
0.00171396
0.00174057
0.00176954
0.00180089
0.0018345
0.00187031
0.00190805
0.0019475
0.00198844
0.00203061
0.00207383
0.00211778
0.0021623
0.00220718
0.00225221
0.00229733
0.00234245
0.00238741
0.00243213
0.00247663
0.00252079
0.00256466
0.00260816
0.00265124
0.0026939
0.00273605
0.00277778
0.00281902
0.00285967
0.00289971
0.00293908
0.0029779
0.00301596
0.00305332
0.00308991
0.00312577
0.00316123
0.00319514
0.00322914
0.00326146
0.00329349
0.00332313
0.00335274
0.00338151
0.00340961
0.0035888
0.00327976
0.00303869
0.00286186
0.00274314
0.00267109
0.0026327
0.00261732
0.00261668
0.00262586
0.00264057
0.002659
0.00267969
0.0027025
0.00272717
0.00275387
0.00278288
0.00281436
0.0028485
0.0028853
0.00292479
0.00296674
0.00301101
0.00305737
0.00310558
0.00315534
0.00320639
0.00325845
0.00331131
0.00336466
0.00341848
0.00347258
0.00352684
0.00358128
0.00363572
0.00369019
0.00374461
0.00379903
0.00385335
0.0039076
0.00396173
0.00401573
0.00406952
0.00412317
0.00417655
0.00422964
0.0042824
0.00433481
0.00438668
0.00443801
0.00448905
0.00453903
0.00458847
0.00463692
0.00468551
0.0047329
0.0047792
0.00482445
0.00486896
0.00491268
0.00495497
0.00549913
0.00497519
0.00454704
0.00422205
0.00399398
0.00384699
0.00376103
0.00371726
0.00370148
0.00370353
0.00371619
0.00373518
0.00375813
0.00378396
0.00381191
0.00384193
0.0038741
0.00390874
0.00394598
0.003986
0.00402874
0.00407412
0.00412192
0.00417195
0.004224
0.00427787
0.0043332
0.00438974
0.00444723
0.00450545
0.00456423
0.00462351
0.00468325
0.00474334
0.00480375
0.00486453
0.00492564
0.00498701
0.00504866
0.00511056
0.00517271
0.00523506
0.00529762
0.00536031
0.00542309
0.00548589
0.0055486
0.0056112
0.00567374
0.00573575
0.00579762
0.00585906
0.00591968
0.00597962
0.00603915
0.00609838
0.00615642
0.0062137
0.00627031
0.00632583
0.0063802
0.00755309
0.00680148
0.00616576
0.00566715
0.00530519
0.00506238
0.00491305
0.00483088
0.00479366
0.00478532
0.00479449
0.00481384
0.00483933
0.00486845
0.00490012
0.00493384
0.00496918
0.00500665
0.0050462
0.0050881
0.00513243
0.00517905
0.00522789
0.00527866
0.00533128
0.00538559
0.00544141
0.00549847
0.00555643
0.00561514
0.00567449
0.00573435
0.0057948
0.00585586
0.00591749
0.00597983
0.00604295
0.00610683
0.00617143
0.00623669
0.00630259
0.00636915
0.00643638
0.0065042
0.00657255
0.00664141
0.00671084
0.00678004
0.00684954
0.00691914
0.00698859
0.00705798
0.00712705
0.00719545
0.00726374
0.00733125
0.0073982
0.00746476
0.00753054
0.00759498
0.00765902
0.00971046
0.00873393
0.00788353
0.00719524
0.00667947
0.00632189
0.00609401
0.00596261
0.00589744
0.00587527
0.00587972
0.00589963
0.00592814
0.00596142
0.00599774
0.00603573
0.00607477
0.0061152
0.00615659
0.00619928
0.00624363
0.00628948
0.00633699
0.00638548
0.00643506
0.0064858
0.00653766
0.00659067
0.00664423
0.00669846
0.00675328
0.00680831
0.00686392
0.00692022
0.00697724
0.00703526
0.00709471
0.00715547
0.00721766
0.00728117
0.00734577
0.00741157
0.00747866
0.00754693
0.00761603
0.00768624
0.00775756
0.00782949
0.00790213
0.00797508
0.00804845
0.00812201
0.00819538
0.00826867
0.00834158
0.00841463
0.00848752
0.00855966
0.00863105
0.0087018
0.00877198
0.011977
0.0107834
0.00971656
0.00882681
0.00813959
0.00764573
0.00732124
0.00712743
0.00702495
0.00698419
0.00698175
0.00700211
0.00703443
0.00707211
0.00711327
0.00715601
0.00719964
0.00724405
0.00728768
0.00733017
0.00737255
0.00741537
0.00745961
0.00750375
0.00754674
0.00758919
0.007632
0.00767555
0.00771865
0.00776257
0.00780733
0.00785178
0.00789618
0.00794096
0.00798636
0.00803314
0.00808126
0.0081315
0.00818483
0.00824041
0.00829776
0.00835688
0.0084181
0.00848127
0.00854544
0.00861169
0.00867928
0.00874829
0.00881857
0.00889016
0.00896232
0.00903561
0.00910977
0.00918371
0.00925753
0.00933197
0.00940646
0.00948164
0.00955581
0.00962907
0.00970217
0.0143812
0.01298
0.011698
0.0105947
0.00972054
0.0090629
0.00861776
0.00834529
0.0081899
0.00812324
0.00810858
0.00813073
0.00816876
0.00821173
0.00825512
0.00830172
0.00834892
0.00839963
0.00845128
0.00849379
0.00853057
0.00856731
0.00860486
0.00864898
0.00868355
0.00871278
0.00874132
0.00877051
0.00879491
0.00882034
0.00885023
0.00888102
0.00890725
0.00893252
0.00896048
0.00899022
0.00901589
0.00904536
0.00908138
0.009123
0.00916697
0.00921435
0.00926358
0.00931706
0.00937141
0.00942797
0.00948618
0.00954539
0.00960801
0.00967075
0.00973673
0.00980183
0.00987231
0.0099463
0.0100199
0.0100895
0.0101627
0.010236
0.010313
0.0103885
0.0104603
0.000200704
0.000201705
0.000202796
0.000203982
0.000205255
0.000206563
0.000207866
0.000209215
0.00021059
0.000211989
0.00021339
0.000214839
0.000216313
0.000217798
0.000219305
0.000220857
0.00022244
0.000224035
0.000225647
0.0002273
0.000228977
0.000230682
0.000232428
0.0002342
0.000235984
0.000237797
0.000239647
0.000241531
0.000243436
0.000245374
0.000247345
0.000249345
0.000251375
0.000253446
0.000255545
0.000257682
0.000259862
0.000262086
0.00026434
0.000266628
0.000268964
0.000271344
0.000273763
0.000276232
0.000278739
0.000281269
0.000283835
0.000286456
0.000289116
0.00029179
0.000294493
0.000297244
0.000300008
0.000302785
0.000305593
0.000308438
0.000311305
0.000314157
0.000317053
0.000320025
0.000323078
0.00176629
0.00177818
0.0017893
0.00179968
0.00180913
0.00181735
0.0018241
0.00183051
0.00183578
0.001841
0.00184516
0.00184891
0.00185205
0.00185456
0.00185646
0.00185765
0.00185829
0.00185827
0.00185764
0.00185641
0.00185464
0.00185239
0.00184955
0.00184615
0.00184215
0.00183756
0.00183242
0.00182665
0.00182034
0.00181343
0.0018059
0.00179783
0.00178924
0.00178008
0.00177038
0.0017602
0.00174947
0.00173829
0.00172663
0.00171454
0.00170204
0.00168912
0.00167591
0.00166238
0.00164849
0.00163424
0.00161955
0.00160451
0.001589
0.00157303
0.00155656
0.0015395
0.00152183
0.00150297
0.00148359
0.00146287
0.00144136
0.00141858
0.00139571
0.0013726
0.0013494
0.00343618
0.00346206
0.0034863
0.00350964
0.00353175
0.00355272
0.00357261
0.00359136
0.00360889
0.00362635
0.00364283
0.00365875
0.00367351
0.00368774
0.00370114
0.00371371
0.00372552
0.00373651
0.00374668
0.00375604
0.00376468
0.00377251
0.00377962
0.00378602
0.00379166
0.00379649
0.00380053
0.00380372
0.00380609
0.00380753
0.00380816
0.00380787
0.0038067
0.00380472
0.00380183
0.00379809
0.00379345
0.00378796
0.00378161
0.0037745
0.00376669
0.00375827
0.00374929
0.0037399
0.00372999
0.00371956
0.00370846
0.00369668
0.00368409
0.00367064
0.00365631
0.00364039
0.003623
0.00360348
0.00358216
0.0035577
0.00353035
0.00350032
0.00346867
0.00343545
0.00340088
0.0049966
0.00503698
0.00507666
0.00511498
0.00515156
0.00518763
0.0052229
0.00525675
0.00529007
0.00532281
0.00535463
0.00538537
0.00541529
0.00544467
0.005473
0.00550059
0.00552731
0.00555314
0.00557804
0.00560205
0.00562515
0.00564741
0.00566877
0.00568929
0.00570891
0.0057276
0.00574525
0.00576187
0.00577749
0.00579204
0.00580544
0.00581769
0.0058288
0.00583873
0.0058475
0.00585509
0.00586141
0.00586644
0.00587023
0.0058729
0.00587463
0.00587546
0.00587571
0.00587551
0.00587495
0.00587396
0.00587235
0.00587006
0.00586703
0.00586307
0.00585805
0.00585136
0.0058426
0.00583119
0.00581686
0.00579832
0.00577533
0.0057484
0.00571864
0.00568595
0.00565131
0.00643335
0.00648584
0.0065372
0.00658727
0.00663573
0.00668364
0.00673123
0.00677829
0.00682434
0.00686993
0.00691457
0.00695843
0.00700175
0.00704428
0.00708614
0.00712752
0.00716763
0.00720699
0.00724538
0.00728276
0.00731922
0.0073548
0.00738952
0.00742335
0.0074562
0.00748797
0.00751866
0.0075482
0.00757663
0.00760394
0.00763003
0.00765472
0.00767801
0.00769986
0.00772033
0.00773918
0.00775626
0.00777164
0.0077852
0.00779714
0.00780762
0.00781683
0.00782517
0.00783304
0.00784064
0.00784808
0.00785498
0.00786108
0.00786681
0.00787219
0.00787642
0.00787898
0.00787949
0.00787689
0.00787065
0.00785868
0.00784156
0.0078192
0.00779287
0.00776276
0.00773055
0.00772182
0.00778377
0.0078443
0.00790428
0.00796273
0.00802083
0.00807847
0.00813573
0.00819265
0.00824884
0.00830481
0.00836018
0.008415
0.00846928
0.00852289
0.00857602
0.00862828
0.00867993
0.00873062
0.00878006
0.00882848
0.00887598
0.00892248
0.00896812
0.00901271
0.00905613
0.00909828
0.00913901
0.00917856
0.00921699
0.00925432
0.00928997
0.00932415
0.00935667
0.00938768
0.00941645
0.0094427
0.00946654
0.00948786
0.0095069
0.00952381
0.00953854
0.00955175
0.0095642
0.00957632
0.00958875
0.00960033
0.00961166
0.00962274
0.00963447
0.0096453
0.0096542
0.0096616
0.00966611
0.00966659
0.00966
0.00964751
0.00962783
0.00960397
0.00957574
0.00954512
0.00884142
0.00890997
0.00897752
0.00904397
0.00910971
0.00917518
0.00924102
0.00930704
0.00937305
0.0094387
0.00950419
0.00956967
0.00963504
0.00969959
0.00976352
0.00982756
0.00989135
0.00995477
0.0100174
0.0100783
0.0101382
0.010197
0.0102545
0.0103111
0.0103665
0.0104208
0.0104736
0.0105242
0.0105733
0.0106212
0.0106683
0.0107133
0.0107571
0.0107992
0.0108404
0.0108787
0.0109129
0.0109435
0.0109707
0.010995
0.0110164
0.0110343
0.0110492
0.0110628
0.0110757
0.0110898
0.0111016
0.0111137
0.0111256
0.0111403
0.0111545
0.0111662
0.0111778
0.011187
0.011193
0.0111896
0.0111799
0.0111612
0.0111383
0.0111101
0.0110798
0.00977494
0.0098469
0.00991817
0.00998845
0.0100588
0.0101299
0.0102019
0.010275
0.010349
0.0104232
0.0104976
0.0105726
0.0106485
0.0107238
0.010797
0.0108699
0.010944
0.0110191
0.0110948
0.0111682
0.0112396
0.0113108
0.0113802
0.0114474
0.0115129
0.0115777
0.0116425
0.0117033
0.0117611
0.0118171
0.0118732
0.0119245
0.0119762
0.0120256
0.0120774
0.0121267
0.012169
0.0122044
0.0122353
0.0122629
0.0122872
0.0123076
0.0123218
0.0123331
0.0123437
0.0123573
0.0123647
0.0123734
0.0123802
0.0123937
0.0124078
0.0124179
0.0124295
0.0124413
0.0124519
0.0124494
0.012441
0.0124208
0.0123968
0.0123666
0.0123362
0.0105366
0.0106081
0.0106815
0.0107477
0.0108182
0.0108879
0.0109662
0.011038
0.0111151
0.0111997
0.0112831
0.0113599
0.0114479
0.011539
0.0116234
0.0117025
0.0117784
0.0118587
0.0119489
0.0120373
0.0121192
0.0122062
0.0122939
0.0123736
0.0124458
0.012517
0.0125959
0.0126727
0.0127418
0.0128089
0.0128773
0.012931
0.012987
0.0130369
0.0130979
0.0131593
0.0132132
0.0132527
0.0132849
0.013311
0.0133336
0.0133603
0.0133721
0.0133765
0.0133824
0.0133952
0.0133974
0.0133984
0.0133962
0.0134021
0.0134107
0.0134147
0.0134177
0.0134314
0.0134436
0.0134421
0.013432
0.0134106
0.0133799
0.0133463
0.0133143
0.000326121
0.000329154
0.000332258
0.000335403
0.000338499
0.000341675
0.000345455
0.000349237
0.000352798
0.000356357
0.000359909
0.0003635
0.000367112
0.000370727
0.000374366
0.000378047
0.000381751
0.000385449
0.000389144
0.000392856
0.000396559
0.000400253
0.000403948
0.000407623
0.000411261
0.00041487
0.000418453
0.000422
0.00042549
0.000428927
0.000432303
0.000435607
0.000438828
0.00044197
0.000445013
0.000447955
0.000450796
0.000453519
0.000456077
0.00045846
0.00046057
0.000462256
0.000463551
0.00046449
0.000465059
0.000465234
0.000465031
0.000464456
0.000463463
0.000461988
0.000460017
0.000457534
0.000454425
0.000450632
0.000446084
0.000440689
0.000434283
0.000426665
0.000417706
0.000407204
0.000394835
0.00132591
0.00130278
0.00128052
0.00125919
0.00123695
0.00121463
0.00118883
0.00116309
0.0011387
0.001115
0.00109196
0.00106949
0.0010475
0.00102592
0.00100462
0.000983536
0.000962515
0.000941536
0.000920621
0.000899837
0.000879251
0.000858815
0.00083857
0.00081854
0.000798748
0.000779246
0.000760027
0.000741154
0.000722623
0.000704452
0.000686686
0.000669344
0.000652413
0.000635922
0.000619907
0.000604358
0.000589337
0.000574877
0.000561024
0.000547782
0.000534549
0.000520264
0.000505562
0.000491316
0.000477943
0.000465399
0.000453775
0.000443131
0.000433485
0.000424931
0.000417575
0.000411552
0.000406916
0.000403867
0.000402537
0.000403151
0.000405846
0.000410913
0.000418664
0.000429504
0.000443887
0.00336526
0.00332947
0.00329428
0.00325711
0.00322177
0.00318665
0.0031493
0.00311034
0.00307146
0.00303277
0.00299397
0.00295486
0.00291579
0.00287673
0.00283732
0.0027973
0.0027563
0.00271435
0.0026715
0.00262803
0.00258394
0.00253921
0.00249386
0.00244797
0.00240154
0.00235471
0.0023075
0.00226001
0.00221219
0.00216418
0.00211591
0.00206738
0.00201867
0.00196965
0.00192039
0.00187084
0.00182103
0.00177096
0.00172062
0.00167003
0.00161887
0.00156646
0.00151259
0.00145
0.00138134
0.00131017
0.00123735
0.00116338
0.00108916
0.00101544
0.000943036
0.000872983
0.000805475
0.000742585
0.000684297
0.000632182
0.000586511
0.000548776
0.000519393
0.000499055
0.000488331
0.00561495
0.00557867
0.00554213
0.00550404
0.00546743
0.00543105
0.00539247
0.00535226
0.00531135
0.00526996
0.00522715
0.00518331
0.00513892
0.00509399
0.00504794
0.0050002
0.00495019
0.00489812
0.0048443
0.00478905
0.00473252
0.00467441
0.00461489
0.00455408
0.00449204
0.00442889
0.00436475
0.00429973
0.00423376
0.00416682
0.00409889
0.00402996
0.0039599
0.0038887
0.00381634
0.00374279
0.00366798
0.00359196
0.00351467
0.0034361
0.00335601
0.00327423
0.00319031
0.00310227
0.00300555
0.00289623
0.00277857
0.00265254
0.00251828
0.00237648
0.00222658
0.00207049
0.0019086
0.00174416
0.00157785
0.00141344
0.0012547
0.00110609
0.000971607
0.000854343
0.000757199
0.00769557
0.00766078
0.00762588
0.00759065
0.00755453
0.00751855
0.00748076
0.00744176
0.00740143
0.00735988
0.00731529
0.00726884
0.00722102
0.00717237
0.00712181
0.00706807
0.00701056
0.00695017
0.00688738
0.00682283
0.00675652
0.00668796
0.00661747
0.00654538
0.00647169
0.00639677
0.00632061
0.00624332
0.00616463
0.00608449
0.00600272
0.00591933
0.0058342
0.00574733
0.00565865
0.00556821
0.00547606
0.00538215
0.00528648
0.00518901
0.00508969
0.00498842
0.00488498
0.00477879
0.00466841
0.00454926
0.0044175
0.00427585
0.00412317
0.0039593
0.00378278
0.00359244
0.00338776
0.00316878
0.00293538
0.00268726
0.00242821
0.00216294
0.00189758
0.00164101
0.0014032
0.00951034
0.00947633
0.00944286
0.00940996
0.0093744
0.00933891
0.00930146
0.0092637
0.00922396
0.00918261
0.00913591
0.00908613
0.00903405
0.00898101
0.00892455
0.00886367
0.0087972
0.00872767
0.0086555
0.00858176
0.00850619
0.00842759
0.00834724
0.00826575
0.0081827
0.00809869
0.00801349
0.00792711
0.00783876
0.00774841
0.0076557
0.00756082
0.00746368
0.00736446
0.00726298
0.00715949
0.007054
0.00694662
0.00683736
0.00672628
0.00661328
0.00649847
0.00638173
0.00626269
0.00614088
0.00601475
0.00587746
0.00573114
0.00557477
0.00540723
0.00522758
0.00503394
0.00482448
0.00459819
0.0043521
0.0040849
0.00379518
0.00348208
0.00314721
0.00279725
0.00244059
0.0110432
0.0110085
0.0109756
0.0109446
0.0109088
0.0108739
0.0108368
0.0108003
0.0107611
0.0107197
0.0106692
0.0106145
0.0105565
0.010498
0.0104338
0.0103641
0.0102861
0.0102061
0.0101239
0.0100411
0.00995685
0.00986857
0.00977984
0.00969145
0.00960151
0.00951118
0.00941945
0.00932669
0.00923048
0.00913131
0.00902856
0.00892351
0.00881568
0.00870587
0.00859337
0.00847885
0.00836216
0.00824394
0.00812405
0.00800288
0.00788014
0.00775607
0.00763073
0.00750361
0.00737431
0.00724205
0.00710442
0.00695536
0.00679735
0.00662985
0.00645174
0.00626172
0.00605885
0.00584063
0.00560533
0.00534987
0.00507093
0.00476587
0.00443157
0.00406656
0.00367268
0.0122955
0.0122577
0.0122245
0.0121955
0.0121594
0.0121256
0.0120898
0.0120552
0.0120161
0.0119742
0.0119173
0.0118559
0.0117903
0.0117256
0.0116505
0.0115699
0.0114776
0.0113863
0.0112942
0.0112041
0.011113
0.0110163
0.0109223
0.0108317
0.0107379
0.0106439
0.0105481
0.0104515
0.0103472
0.0102386
0.0101246
0.0100099
0.00989177
0.00977276
0.00964957
0.00952473
0.00939739
0.00927041
0.00914244
0.00901491
0.00888576
0.00875655
0.00862651
0.00849514
0.00836145
0.00822495
0.00808418
0.00793447
0.00777596
0.00760877
0.00743317
0.00724845
0.00705344
0.00684687
0.00662706
0.00639144
0.00613749
0.00586112
0.0055587
0.0052254
0.00485813
0.013269
0.0132244
0.0131912
0.0131635
0.0131277
0.0130958
0.0130661
0.0130327
0.0129937
0.0129467
0.0128831
0.0128129
0.0127402
0.0126672
0.0125764
0.0124815
0.0123732
0.0122703
0.0121724
0.0120819
0.0119878
0.0118875
0.0117927
0.011705
0.0116105
0.0115133
0.0114182
0.0113182
0.0112016
0.0110791
0.010952
0.0108308
0.0107021
0.0105758
0.0104391
0.0103029
0.0101644
0.010035
0.00990358
0.009777
0.00964198
0.00951214
0.00937986
0.00924475
0.0091073
0.00896658
0.00881969
0.00866761
0.00850772
0.00834589
0.00817619
0.00800292
0.00781762
0.0076261
0.00742205
0.00720935
0.00698076
0.00673919
0.00647763
0.00618924
0.00587365
0.000380198
0.00035468
0.000336106
0.000328885
0.000327818
0.000329578
0.000330013
0.000327747
0.000324628
0.000320908
0.000316933
0.000313025
0.00030925
0.000305667
0.000302374
0.000299424
0.000296815
0.000294527
0.000292539
0.000290836
0.000289386
0.000288159
0.000287206
0.000286528
0.000286144
0.000286072
0.000286307
0.00028682
0.00028757
0.000288529
0.000289653
0.000290902
0.000292233
0.000293615
0.000295001
0.000296368
0.00029769
0.000298939
0.000300081
0.000301083
0.000301894
0.000302477
0.000302795
0.000302834
0.000302539
0.000301872
0.000300806
0.000299355
0.000297473
0.000295159
0.000292408
0.000289293
0.000285782
0.000281967
0.000277989
0.000273966
0.000270085
0.000266445
0.000263263
0.000260594
0.000258465
0.000461164
0.000484385
0.000521973
0.000577636
0.000664998
0.000823779
0.000995168
0.00110228
0.00119501
0.00126949
0.00131734
0.00135216
0.00137493
0.00138641
0.00139018
0.00138753
0.00137998
0.00136872
0.00135342
0.00133458
0.001312
0.00128767
0.00126264
0.00123969
0.00122182
0.00121135
0.00120948
0.00121636
0.00123131
0.00125334
0.00128142
0.00131418
0.00135023
0.00138838
0.0014274
0.00146607
0.00150344
0.00153837
0.00156991
0.00159948
0.00162607
0.00164892
0.00166774
0.00168196
0.00169109
0.00169467
0.00169219
0.00168323
0.00166712
0.00164336
0.00161137
0.00157041
0.00151977
0.00145847
0.00138666
0.00130384
0.00121166
0.00111283
0.0010135
0.000919642
0.000834826
0.000487634
0.000498221
0.000524228
0.000570157
0.000646165
0.000778756
0.000978799
0.00120422
0.0014562
0.00172879
0.00192163
0.00209337
0.002249
0.00237355
0.00247742
0.00256148
0.00262564
0.00267286
0.00270386
0.00271983
0.00272109
0.00271005
0.00268963
0.00266474
0.00264304
0.00263128
0.00263448
0.00265512
0.00269362
0.0027489
0.00281907
0.00290174
0.00299419
0.00309344
0.00319674
0.00330161
0.00340559
0.00350602
0.00360141
0.00369041
0.00377441
0.00385033
0.00391686
0.00397271
0.00401638
0.00404654
0.00406169
0.00406042
0.00404116
0.00400264
0.0039436
0.00386198
0.0037567
0.00362599
0.00346933
0.00328486
0.00307356
0.00283957
0.00259156
0.0023432
0.00211381
0.000681411
0.000628364
0.000599629
0.000596811
0.000623422
0.000691123
0.000817681
0.00100753
0.00126584
0.00158879
0.00191347
0.00224356
0.00258067
0.00284654
0.00309092
0.0033127
0.00350285
0.00366902
0.00380888
0.00392332
0.00401291
0.00407789
0.00412053
0.00414593
0.00416294
0.00418225
0.00421387
0.00426512
0.00433976
0.00443842
0.0045602
0.00470276
0.00486259
0.00503569
0.00521779
0.00540497
0.00559334
0.00577924
0.00595958
0.00613194
0.00629709
0.0064509
0.00659064
0.00671376
0.00681773
0.00689983
0.00695773
0.00698837
0.00698966
0.00695868
0.00689335
0.00679015
0.00664583
0.00645762
0.00622231
0.00593673
0.00559966
0.00521536
0.0047945
0.00435682
0.00393356
0.00119347
0.00101892
0.000884546
0.000791449
0.000738151
0.000725641
0.00076132
0.000855238
0.0010206
0.00127086
0.00159325
0.00197122
0.00238261
0.00277947
0.00318449
0.00355926
0.00388182
0.00418659
0.00445967
0.00470705
0.00492939
0.00512283
0.0052865
0.00542128
0.00553326
0.00563292
0.00573312
0.00584579
0.00597927
0.00613772
0.00632283
0.00653425
0.00676948
0.00702422
0.00729359
0.00757258
0.00785618
0.0081396
0.00841852
0.00868912
0.00894982
0.00919746
0.00942728
0.0096351
0.00981692
0.00996898
0.0100869
0.0101669
0.0102052
0.0101985
0.0101418
0.0100304
0.00985897
0.00962136
0.00931299
0.00892809
0.00846526
0.00792835
0.00732898
0.00669115
0.00605111
0.0020922
0.00176857
0.00148689
0.00125703
0.00108233
0.00096109
0.000892469
0.000879493
0.000929569
0.0010552
0.00126599
0.00156707
0.0019529
0.00239215
0.00286068
0.00332787
0.00377921
0.00424606
0.00464639
0.00502834
0.00539568
0.00573997
0.00605983
0.00634741
0.00660267
0.00683065
0.00704343
0.00725491
0.00747721
0.00771792
0.00798246
0.00827401
0.00859281
0.00893587
0.00929868
0.00967589
0.0100618
0.0104507
0.0108372
0.011216
0.011582
0.0119339
0.0122648
0.0125689
0.0128405
0.0130743
0.0132653
0.0134062
0.0134944
0.0135217
0.0134841
0.0133731
0.0131809
0.0129012
0.0125245
0.0120465
0.0114645
0.0107815
0.0100096
0.00917685
0.00832012
0.00325756
0.00283531
0.00242663
0.0020532
0.00173116
0.00146846
0.00126788
0.00113014
0.00105675
0.00105292
0.00112657
0.00128793
0.00154671
0.0019022
0.0023419
0.00283722
0.00335537
0.00388298
0.00439391
0.00492044
0.00543273
0.00592426
0.00641087
0.0068692
0.00729576
0.00768434
0.00804401
0.00838754
0.00872841
0.00907574
0.0094381
0.00982304
0.0102345
0.0106724
0.0111338
0.0116141
0.0121072
0.0126069
0.0131069
0.0136005
0.0140803
0.0145444
0.014985
0.0153944
0.0157653
0.0160914
0.0163642
0.0165785
0.0167248
0.0167983
0.0167877
0.0166856
0.016483
0.0161679
0.0157347
0.015177
0.0144907
0.0136792
0.0127546
0.0117435
0.0106851
0.00445544
0.00402155
0.00356734
0.00311134
0.00267469
0.00227753
0.00193372
0.00165261
0.00143902
0.0012968
0.00123019
0.00124501
0.00134966
0.00155271
0.00185948
0.00226562
0.00275357
0.00330045
0.00387455
0.00446056
0.00506304
0.00569782
0.00636465
0.00699283
0.00760107
0.00815982
0.00868106
0.00917515
0.00965468
0.0101268
0.0106022
0.0110928
0.0116056
0.0121442
0.0127084
0.0132962
0.0139008
0.0145163
0.0151354
0.0157508
0.0163532
0.0169373
0.0174953
0.0180196
0.0185002
0.0189282
0.0192965
0.019593
0.0198128
0.0199415
0.0199723
0.0198923
0.0196894
0.0193569
0.0188839
0.0182677
0.0175014
0.0165906
0.0155391
0.0143802
0.0131436
0.00552222
0.00513474
0.00471424
0.00426137
0.00379127
0.00332105
0.00287244
0.00246273
0.00210647
0.00181652
0.00160043
0.00146453
0.00141441
0.00145626
0.00159664
0.0018422
0.00219451
0.00265248
0.00320342
0.00381369
0.00448734
0.00519548
0.00595573
0.00674612
0.00755737
0.00827287
0.00895048
0.00959291
0.010213
0.0108147
0.0114053
0.0120105
0.0126252
0.0132686
0.0139357
0.0146375
0.015356
0.0160946
0.0168373
0.0175879
0.01832
0.0190378
0.0197198
0.0203743
0.0209744
0.0215215
0.0219977
0.0223959
0.0227012
0.0229064
0.0229947
0.0229518
0.022774
0.0224436
0.0219517
0.0213109
0.0204925
0.0195166
0.0183724
0.0171105
0.0157234
0.00559361
0.0181251
0.0174836
0.00496556
0.00801899
0.00524648
0.00124586
0.0101315
0.00125068
0.00319864
0.0102702
0.0120058
0.00124575
0.0267321
0.0048511
0.0121813
0.00124912
0.0109538
0.00866012
0.00124766
0.00587068
0.0289248
0.0220569
0.00126303
0.00124814
0.00490283
0.00124765
0.00336387
0.0012481
0.0012504
0.032329
0.0012466
0.00271168
0.0362927
0.0108035
0.00896535
0.0106355
0.0135007
0.00124406
0.0570961
0.00681802
0.00905996
0.00124254
0.0115488
0.0112262
0.00777584
0.0012433
0.00162479
0.00260069
0.0125798
0.0128181
0.0111068
0.00124259
0.00126043
0.00139965
0.00124282
0.00125017
0.00381676
0.0119388
0.0127534
0.00532462
0.00127503
0.0113709
0.00224866
0.0124003
0.00123373
0.0136255
0.00898251
0.00146621
0.00124187
0.00253158
0.0136625
0.00659791
0.00124202
0.00252445
0.0346077
0.0152577
0.0151894
0.00124207
0.0119518
0.00147515
0.0501788
0.000629288
0.0145487
0.00124191
0.0122913
0.00124999
0.0356471
0.00123085
0.00133071
0.00339345
0.00124188
0.00126686
0.0125935
0.00979232
0.00125757
0.00879091
0.0215222
0.0017039
0.0108056
0.00124051
0.0873945
0.00914757
0.00124168
0.00124185
0.00124219
0.00618952
0.00544026
0.00125487
0.0104737
0.0108338
0.00129108
0.0150524
0.0275316
0.00780378
0.0394474
0.0181243
0.0013852
0.0041577
0.00124916
0.00124191
0.0111596
0.00117088
0.0104173
0.0109542
0.00798157
0.00124207
0.00956823
0.0100669
0.00124226
0.00359898
0.00228928
0.00519064
0.00126975
0.0407527
0.00124236
0.00124178
0.00977802
0.0122924
0.00124263
0.0140918
0.00986887
0.00443182
0.00821131
0.0253896
0.0266387
0.00181719
0.0248937
0.00207299
0.0200352
0.0115117
0.00124342
0.013775
0.0145921
0.0104078
0.00124455
0.00124388
0.00555284
0.00124215
0.0124699
0.00280176
0.0015567
0.00124352
0.00124206
0.00124239
0.0154167
0.00745798
0.00710146
0.00127154
0.0207633
0.00907155
0.00223349
0.00956986
0.00264473
0.0227877
0.0265905
0.0221587
0.00124296
0.00146106
0.00432434
0.013001
0.0107219
0.00745157
0.00124212
0.00125363
0.0176095
0.00241776
0.0102484
0.00124374
0.00124284
0.00555273
0.00127477
0.0141429
0.00704676
0.00124189
0.00587965
0.005538
0.0198679
0.00147595
0.00965779
0.00124228
0.00124342
0.0685911
0.00987782
0.0184359
0.00148731
0.00125025
0.00180829
0.00851922
0.00809952
0.0115118
0.01548
0.0170671
0.0109864
0.00358343
0.0136122
0.00977375
0.0138631
0.0133032
0.0362316
0.0012553
0.00361953
0.00124254
0.0012448
0.0188244
0.00190343
0.00197568
0.00125317
0.00256405
0.0138959
0.0266045
0.00299861
0.0172066
0.0102787
0.0410421
0.00124307
0.00198194
0.0131835
0.00960257
0.00142788
0.0729643
0.00771318
0.0025649
0.00206746
0.0106567
0.00776404
0.0031067
0.0121856
0.00134036
0.00124206
0.00129329
0.00233955
0.0212305
0.00124603
0.00123747
0.00124359
0.00796146
0.0782494
0.0295754
0.0197407
0.0179847
0.0130021
0.0106685
0.00147282
0.0119012
0.0305479
0.00124209
0.0165846
0.00124185
0.00324931
0.00793402
0.019535
0.00142132
0.00124222
0.01424
0.00351021
0.00124251
0.00124284
0.00124498
0.00124985
0.00891414
0.00723025
0.0127807
0.00134306
0.00124252
0.00124269
0.0012418
0.0140184
0.0090178
0.00132182
0.0059266
0.00491371
0.000949146
0.00124196
0.00767027
0.0012425
0.00416982
0.00609663
0.0110553
0.00826369
0.00124918
0.00135256
0.0150498
0.00184753
0.00502901
0.0102466
0.0012724
0.00124205
0.00124307
0.0127868
0.00124628
0.0223705
0.0012423
0.00459234
0.0288022
0.00297241
0.0155222
0.0050345
0.00133758
0.0179269
0.0472578
0.005506
0.0718795
0.0266559
0.0127298
0.0283197
0.08108
0.00823508
0.0119485
0.00656275
0.00423047
0.0115229
0.0104618
0.0142721
0.0339168
0.00136838
0.0210177
0.0166324
0.0116279
0.00301742
0.001267
0.00124206
0.00125371
0.00372206
0.00934514
0.0378946
0.00423093
0.0012449
0.0103181
0.00124199
0.0266789
0.0083869
0.0113788
0.0504257
0.0117443
0.00131822
0.00129242
0.00165386
0.0344252
0.00154061
0.00560227
0.0168316
0.0159916
0.0153358
0.0228762
0.0508153
0.00125097
0.0104227
0.00982553
0.00560423
0.00124363
0.0119219
0.00994972
0.00124851
0.0324581
0.00124428
0.011808
0.0470918
0.028519
0.013598
0.0162899
0.0104132
0.00126101
0.0107934
0.00128133
0.0251395
0.0150763
0.0230063
0.0104833
0.00936302
0.00726322
0.0101633
0.00128978
0.00208461
0.0133675
0.00184498
0.00122865
0.011323
0.00128121
0.0152755
0.00124306
0.00124562
0.00173615
0.00975461
0.00292387
0.00841784
0.00125217
0.0131482
0.00547637
0.0153137
0.00390992
0.00998726
0.013539
0.0012837
0.0105945
0.0154714
0.00124184
0.0150965
0.00904719
0.00124228
0.00124187
0.00885771
0.00186906
0.038361
0.00138497
0.0287095
0.00315204
0.00604063
0.00879781
0.0500423
0.0100401
0.042243
0.00915055
0.00136342
0.000740509
0.0161846
0.0158582
0.00994653
0.0144175
0.0212286
0.0027649
0.00977156
0.00969009
0.00706524
0.00524218
0.00782881
0.00899542
0.00129863
0.015325
0.0115321
0.00133539
0.0336072
0.0144558
0.00771787
0.00229043
0.00277454
0.0225941
0.00131394
0.0100072
0.00131583
0.00204055
0.00124592
0.0117328
0.00439019
0.0069627
0.0013211
0.00136091
0.036178
0.0258796
0.00107439
0.00513748
0.0165268
0.0015684
0.00124974
0.0123009
0.02562
0.0419148
0.0253575
0.00196038
0.0238763
0.0530917
0.0155448
0.000389237
0.000519341
0.0102397
0.00735987
0.0101542
0.0113502
0.000411534
0.0136944
0.0403457
0.00128076
0.0053141
0.02953
0.0254798
0.00295994
0.0671381
0.00610096
0.00708853