/*--------------------------------*- C++ -*----------------------------------*\
| =========                 |                                                 |
| \\      /  F ield         | OpenFOAM: The Open Source CFD Toolbox           |
|  \\    /   O peration     | Version:  2.3.1                                 |
|   \\  /    A nd           | Web:      www.OpenFOAM.org                      |
|    \\/     M anipulation  |                                                 |
\*---------------------------------------------------------------------------*/
FoamFile
{
    version     2.0;
    format      ascii;
    class       surfaceScalarField;
    location    "0.9";
    object      phi;
}
// * * * * * * * * * * * * * * * * * * * * * * * * * * * * * * * * * * * * * //

dimensions      [0 3 -1 0 0 0 0];

internalField   nonuniform List<scalar> 
1460
(
-1.20227e-06
1.04009e-06
1.24913e-06
-1.1436e-06
1.14063e-06
-1.05494e-06
1.20406e-06
-9.36571e-07
1.24386e-06
-7.92835e-07
1.22596e-06
-6.46114e-07
1.12797e-06
-5.19661e-07
9.38874e-07
-4.03634e-07
6.60776e-07
-2.906e-07
2.75582e-07
-2.05922e-07
-2.24686e-07
4.44685e-08
-7.96464e-07
-1.44652e-06
4.20876e-07
-7.95819e-07
9.59676e-07
8.76231e-07
-6.98561e-07
1.04338e-06
-5.8876e-07
1.09426e-06
-4.71194e-07
1.1263e-06
-3.44567e-07
1.09934e-06
-2.18038e-07
1.00145e-06
-9.96582e-08
8.20494e-07
1.4791e-08
5.46327e-07
1.24517e-07
1.65856e-07
2.0528e-07
-3.0545e-07
3.26866e-07
-9.1805e-07
-1.75552e-06
6.35869e-07
-5.29109e-07
8.62207e-07
6.26579e-07
-4.1601e-07
9.30277e-07
-2.91849e-07
9.70097e-07
-1.53616e-07
9.88062e-07
-1.14067e-08
9.57127e-07
1.23518e-07
8.6652e-07
2.37227e-07
7.06786e-07
3.12394e-07
4.71161e-07
3.38936e-07
1.39314e-07
3.2763e-07
-2.94144e-07
3.45105e-07
-9.35525e-07
-1.91111e-06
5.007e-07
-3.61145e-07
4.66061e-07
7.57291e-07
-2.5076e-07
8.19892e-07
-1.32995e-07
8.52332e-07
-2.92832e-09
8.57995e-07
1.32324e-07
8.21874e-07
2.59723e-07
7.39122e-07
3.58913e-07
6.07595e-07
4.06801e-07
4.23273e-07
3.93728e-07
1.52386e-07
3.56473e-07
-2.56889e-07
3.32531e-07
-9.11583e-07
1.99277e-07
-1.77786e-06
5.17757e-07
-1.47694e-06
2.84948e-07
-1.33405e-06
-6.69411e-08
-1.3978e-06
-4.32391e-07
-1.45142e-06
-7.61328e-07
-1.30476e-06
-1.02107e-06
-9.94465e-07
-1.20119e-06
-5.9717e-07
-1.2928e-06
-1.75074e-07
-1.30231e-06
1.97644e-07
-1.31721e-06
4.60877e-07
-1.30558e-06
6.89507e-07
8.86037e-07
-1.27107e-06
7.35876e-07
-1.57695e-06
4.64824e-07
-1.06299e-06
3.75393e-08
-9.70516e-07
-3.53517e-07
-1.06036e-06
-6.47694e-07
-1.01058e-06
-8.52008e-07
-7.90151e-07
-9.74806e-07
-4.74372e-07
-1.02398e-06
-1.25901e-07
-1.01786e-06
1.91527e-07
-1.00047e-06
4.43486e-07
-9.63217e-07
6.52252e-07
8.2414e-07
-9.0132e-07
5.73838e-07
-1.65009e-06
3.3681e-07
-8.25967e-07
-3.37456e-08
-5.9996e-07
-3.42996e-07
-7.51109e-07
-5.70191e-07
-7.83387e-07
-7.27186e-07
-6.33156e-07
-8.15626e-07
-3.85932e-07
-8.39396e-07
-1.02131e-07
-8.16862e-07
1.68994e-07
-7.73211e-07
3.99835e-07
-7.12033e-07
5.91074e-07
7.46866e-07
-6.34759e-07
1.69989e-07
-1.6208e-06
2.92264e-08
-6.85205e-07
-1.78461e-07
-3.92273e-07
-3.61382e-07
-5.68188e-07
-5.19958e-07
-6.2481e-07
-6.38607e-07
-5.14507e-07
-7.05955e-07
-3.18584e-07
-7.20467e-07
-8.76183e-08
-6.92398e-07
1.40925e-07
-6.37121e-07
3.44558e-07
-5.6279e-07
5.16743e-07
-4.73434e-07
6.5751e-07
-1.2226e-06
1.0469e-06
-1.15791e-06
1.16837e-06
-1.06573e-06
1.2453e-06
-9.41742e-07
1.27132e-06
-7.94288e-07
1.23861e-06
-6.46691e-07
1.13206e-06
-5.20431e-07
9.3957e-07
-4.04723e-07
6.60979e-07
-2.91266e-07
2.76717e-07
-2.05929e-07
-2.22873e-07
4.58215e-08
-7.94807e-07
-1.4446e-06
-8.1632e-07
9.61899e-07
-7.12983e-07
1.06503e-06
-5.97355e-07
1.12967e-06
-4.73567e-07
1.14753e-06
-3.44417e-07
1.10946e-06
-2.17361e-07
1.005e-06
-9.92529e-08
8.21462e-07
1.49766e-08
5.4675e-07
1.25118e-07
1.66576e-07
2.07068e-07
-3.04822e-07
3.30353e-07
-9.18093e-07
-1.7559e-06
-5.39589e-07
8.66729e-07
-4.25734e-07
9.51177e-07
-2.94847e-07
9.98785e-07
-1.5216e-07
1.00484e-06
-8.9616e-09
9.6626e-07
1.25938e-07
8.70103e-07
2.39253e-07
7.08148e-07
3.14179e-07
4.71824e-07
3.41075e-07
1.39679e-07
3.30629e-07
-2.94376e-07
3.49417e-07
-9.36881e-07
-1.91435e-06
-3.71557e-07
7.64853e-07
-2.58094e-07
8.37714e-07
-1.33715e-07
8.74406e-07
-7.17955e-10
8.71844e-07
1.35542e-07
8.3e-07
2.62806e-07
7.4284e-07
3.61501e-07
6.09453e-07
4.09054e-07
4.24271e-07
3.9595e-07
1.52784e-07
3.59025e-07
-2.57451e-07
3.35802e-07
-9.13658e-07
-1.7848e-06
5.24985e-07
-1.47646e-06
2.9011e-07
-1.33263e-06
-6.38822e-08
-1.39561e-06
-4.30802e-07
-1.44858e-06
-7.60297e-07
-1.30106e-06
-1.02039e-06
-9.89351e-07
-1.2014e-06
-5.8945e-07
-1.29357e-06
-1.63999e-07
-1.30785e-06
2.09159e-07
-1.32156e-06
4.75637e-07
-1.29679e-06
7.01587e-07
8.8853e-07
7.43537e-07
-1.57438e-06
4.7026e-07
-1.05936e-06
4.1263e-08
-9.66614e-07
-3.50397e-07
-1.05692e-06
-6.45316e-07
-1.00614e-06
-8.49832e-07
-7.84835e-07
-9.7252e-07
-4.66761e-07
-1.02146e-06
-1.15062e-07
-1.01564e-06
2.0334e-07
-9.93856e-07
4.53855e-07
-9.45134e-07
6.52865e-07
8.19627e-07
5.82474e-07
-1.64513e-06
3.43559e-07
-8.20442e-07
-2.77961e-08
-5.95259e-07
-3.39452e-07
-7.45264e-07
-5.67165e-07
-7.78425e-07
-7.24243e-07
-6.27756e-07
-8.1209e-07
-3.78915e-07
-8.3432e-07
-9.28318e-08
-8.10447e-07
1.79467e-07
-7.64744e-07
4.08152e-07
-7.0338e-07
5.91501e-07
7.42826e-07
1.7836e-07
-1.61291e-06
3.554e-08
-6.77621e-07
-1.74614e-07
-3.85105e-07
-3.57872e-07
-5.62006e-07
-5.16699e-07
-6.19598e-07
-6.3526e-07
-5.09195e-07
-7.01979e-07
-3.12196e-07
-7.15154e-07
-7.96568e-08
-6.84854e-07
1.49166e-07
-6.28011e-07
3.51309e-07
-5.54738e-07
5.18229e-07
6.54148e-07
-2.86378e-07
6.55956e-07
3.87713e-07
-1.79545e-07
7.13059e-07
-6.80941e-08
7.40882e-07
4.92592e-08
7.40642e-07
1.67693e-07
7.03441e-07
2.80344e-07
6.26471e-07
3.73355e-07
5.14584e-07
4.29986e-07
3.66642e-07
4.39064e-07
1.43309e-07
4.13357e-07
-2.31182e-07
3.23896e-07
-8.22122e-07
-1.45396e-06
-2.58241e-07
5.64245e-07
3.49952e-07
-1.59852e-07
6.14669e-07
-5.71639e-08
6.38194e-07
4.86471e-08
6.34831e-07
1.5336e-07
5.98728e-07
2.52732e-07
5.27099e-07
3.4179e-07
4.25525e-07
4.13826e-07
2.94606e-07
4.52303e-07
1.04832e-07
4.36121e-07
-2.15e-07
3.0603e-07
-6.92031e-07
-1.14793e-06
-2.41569e-07
4.83147e-07
3.22667e-07
-1.5356e-07
5.26661e-07
-6.16124e-08
5.46246e-07
3.17362e-08
5.41482e-07
1.24511e-07
5.05954e-07
2.10212e-07
4.41398e-07
2.88561e-07
3.47176e-07
3.56639e-07
2.26528e-07
3.99832e-07
6.16386e-08
3.83516e-07
-1.98684e-07
2.53246e-07
-5.61761e-07
-8.94686e-07
-2.25647e-07
4.10872e-07
2.97922e-07
-1.46863e-07
4.47876e-07
-6.44178e-08
4.63801e-07
1.9441e-08
4.57624e-07
9.95689e-08
4.25826e-07
1.73931e-07
3.67035e-07
2.38606e-07
2.82501e-07
2.92352e-07
1.72782e-07
3.25111e-07
2.88798e-08
3.07225e-07
-1.80798e-07
1.98136e-07
-4.52672e-07
-6.9655e-07
-2.10903e-07
3.45628e-07
2.76147e-07
-1.39486e-07
3.7646e-07
-6.47756e-08
3.89091e-07
9.60962e-09
3.83238e-07
8.26221e-08
3.52813e-07
1.47153e-07
3.02504e-07
2.0112e-07
2.28535e-07
2.42441e-07
1.31461e-07
2.63519e-07
7.80229e-09
2.43819e-07
-1.61099e-07
1.54751e-07
-3.63604e-07
-5.41799e-07
-1.98183e-07
2.86039e-07
2.57772e-07
-1.32756e-07
3.11033e-07
-6.43303e-08
3.20665e-07
4.41957e-09
3.14489e-07
6.89876e-08
2.88245e-07
1.26763e-07
2.44728e-07
1.73362e-07
1.81936e-07
2.05715e-07
9.91079e-08
2.18137e-07
-4.62009e-09
1.96437e-07
-1.39399e-07
1.22074e-07
-2.89241e-07
-4.19725e-07
-1.87434e-07
2.31098e-07
2.42375e-07
-1.26932e-07
2.50531e-07
-6.36861e-08
2.5742e-07
-4.92728e-10
2.51295e-07
5.83176e-08
2.29435e-07
1.10192e-07
1.92854e-07
1.51496e-07
1.40632e-07
1.77895e-07
7.27088e-08
1.84673e-07
-1.13984e-08
1.61799e-07
-1.16524e-07
9.87732e-08
-2.26215e-07
-3.20952e-07
-1.78031e-07
1.79784e-07
2.29345e-07
-1.21557e-07
1.94057e-07
-6.25805e-08
1.98443e-07
-3.91663e-09
1.92631e-07
5.06903e-08
1.74828e-07
9.81914e-08
1.45353e-07
1.34565e-07
1.04259e-07
1.56947e-07
5.03269e-08
1.60243e-07
-1.46939e-08
1.3727e-07
-9.35519e-08
8.2631e-08
-1.71576e-07
-2.38321e-07
-1.68942e-07
1.31221e-07
2.17505e-07
-1.15562e-07
1.40677e-07
-5.98925e-08
1.42774e-07
-4.86577e-09
1.37605e-07
4.57788e-08
1.24184e-07
8.9626e-08
1.01506e-07
1.23133e-07
7.07517e-08
1.42348e-07
3.11119e-08
1.43139e-07
-1.54849e-08
1.20522e-07
-7.0935e-08
7.17813e-08
-1.22835e-07
-1.66539e-07
-1.58649e-07
8.45025e-08
2.05368e-07
-1.07634e-07
8.96621e-08
-5.47306e-08
8.987e-08
-2.73775e-09
8.56117e-08
4.50136e-08
7.64322e-08
8.54774e-08
6.10421e-08
1.16133e-07
4.00956e-08
1.32409e-07
1.48361e-08
1.3162e-07
-1.4696e-08
1.09048e-07
-4.83627e-08
6.42705e-08
-7.80574e-08
-1.02269e-07
-1.43024e-07
3.93609e-08
1.88166e-07
-9.40322e-08
4.06704e-08
-4.36854e-08
3.95232e-08
4.71213e-09
3.72143e-08
4.92086e-08
3.19357e-08
8.67195e-08
2.35312e-08
1.13399e-07
1.34157e-08
1.26414e-07
1.82155e-09
1.22963e-07
-1.12456e-08
9.9876e-08
-2.52752e-08
5.79036e-08
-3.6085e-08
-4.43653e-08
-7.1141e-08
1.10502e-07
-3.04706e-08
9.05256e-09
4.62668e-08
7.82025e-08
1.01734e-07
1.15149e-07
1.16971e-07
1.05725e-07
8.04503e-08
4.43653e-08
-2.35216e-07
-1.38558e-06
-2.98253e-07
-6.22168e-07
-2.94307e-07
-3.96219e-07
-3.6951e-07
-4.92985e-07
-4.76895e-07
-5.17426e-07
-5.67236e-07
-4.24166e-07
-6.2148e-07
-2.64341e-07
-6.34209e-07
-7.489e-08
-6.10177e-07
1.16894e-07
-5.58025e-07
2.92405e-07
-4.85117e-07
4.43835e-07
5.68379e-07
-3.95986e-07
-2.74442e-07
-1.11114e-06
-3.21832e-07
-5.74778e-07
-3.07002e-07
-4.11049e-07
-3.56518e-07
-4.43468e-07
-4.3666e-07
-4.37284e-07
-5.07729e-07
-3.53097e-07
-5.52473e-07
-2.19597e-07
-5.64789e-07
-6.25737e-08
-5.46399e-07
9.85042e-08
-5.02433e-07
2.48439e-07
-4.38196e-07
3.79598e-07
4.87954e-07
-3.57771e-07
-2.34446e-07
-8.76694e-07
-2.88483e-07
-5.2074e-07
-2.9164e-07
-4.07893e-07
-3.35601e-07
-3.99507e-07
-4.00577e-07
-3.72309e-07
-4.58606e-07
-2.95068e-07
-4.95649e-07
-1.82554e-07
-5.06931e-07
-5.12915e-08
-4.92526e-07
8.4099e-08
-4.55803e-07
2.11715e-07
-4.00354e-07
3.24149e-07
4.17458e-07
-3.29858e-07
-1.77642e-07
-6.99052e-07
-2.39918e-07
-4.58464e-07
-2.67062e-07
-3.80749e-07
-3.12779e-07
-3.5379e-07
-3.68942e-07
-3.16146e-07
-4.17576e-07
-2.46433e-07
-4.49065e-07
-1.51066e-07
-4.59125e-07
-4.1231e-08
-4.47146e-07
7.21197e-08
-4.15566e-07
1.80135e-07
-3.66943e-07
2.75526e-07
3.54986e-07
-3.0447e-07
-1.39136e-07
-5.59915e-07
-2.03135e-07
-3.94465e-07
-2.4383e-07
-3.40054e-07
-2.91145e-07
-3.06475e-07
-3.41417e-07
-2.65873e-07
-3.83822e-07
-2.04028e-07
-4.10898e-07
-1.2399e-07
-4.19827e-07
-3.23021e-08
-4.09646e-07
6.19386e-08
-3.81712e-07
1.52202e-07
-3.38346e-07
2.32159e-07
2.98749e-07
-2.82109e-07
-1.13439e-07
-4.46477e-07
-1.76403e-07
-3.31501e-07
-2.24023e-07
-2.92435e-07
-2.71768e-07
-2.5873e-07
-3.1789e-07
-2.19751e-07
-3.55434e-07
-1.66484e-07
-3.79702e-07
-9.97218e-08
-3.87656e-07
-2.4348e-08
-3.78691e-07
5.29732e-08
-3.53645e-07
1.27156e-07
-3.14412e-07
1.92926e-07
2.47662e-07
-2.63325e-07
-9.63389e-08
-3.50138e-07
-1.5743e-07
-2.70409e-07
-2.07863e-07
-2.42002e-07
-2.55039e-07
-2.11555e-07
-2.97919e-07
-1.7687e-07
-3.32177e-07
-1.32226e-07
-3.54097e-07
-7.78017e-08
-3.61359e-07
-1.70862e-08
-3.53288e-07
4.49015e-08
-3.30482e-07
1.0435e-07
-2.94593e-07
1.57038e-07
2.00666e-07
-2.47597e-07
-8.48628e-08
-2.65275e-07
-1.44075e-07
-2.11197e-07
-1.95113e-07
-1.90964e-07
-2.41236e-07
-1.65432e-07
-2.81593e-07
-1.36513e-07
-3.133e-07
-1.00518e-07
-3.33462e-07
-5.76397e-08
-3.40119e-07
-1.0429e-08
-3.32601e-07
3.73832e-08
-3.11482e-07
8.32306e-08
-2.78045e-07
1.23601e-07
1.56869e-07
-2.34248e-07
-7.70548e-08
-1.8822e-07
-1.34609e-07
-1.53643e-07
-1.853e-07
-1.40272e-07
-2.3029e-07
-1.20443e-07
-2.68655e-07
-9.81484e-08
-2.98343e-07
-7.08303e-08
-3.1693e-07
-3.90521e-08
-3.22902e-07
-4.45718e-09
-3.15616e-07
3.0097e-08
-2.95413e-07
6.30273e-08
-2.63657e-07
9.1846e-08
1.15291e-07
-2.2208e-07
-7.09136e-08
-1.17306e-07
-1.26458e-07
-9.80987e-08
-1.76543e-07
-9.01873e-08
-2.20484e-07
-7.65012e-08
-2.57418e-07
-6.1215e-08
-2.85608e-07
-4.26398e-08
-3.02978e-07
-2.16824e-08
-3.07986e-07
5.50831e-10
-3.00451e-07
2.25623e-08
-2.80644e-07
4.32204e-08
-2.49816e-07
6.10176e-08
7.52134e-08
-2.09738e-07
-6.45827e-08
-5.27236e-08
-1.17644e-07
-4.50374e-08
-1.66713e-07
-4.11182e-08
-2.09596e-07
-3.36188e-08
-2.45183e-07
-2.56275e-08
-2.71638e-07
-1.6185e-08
-2.87181e-07
-6.13888e-09
-2.90764e-07
4.13387e-09
-2.822e-07
1.39979e-08
-2.61914e-07
2.29347e-08
-2.31189e-07
3.02921e-08
3.59892e-08
-1.91965e-07
-5.27236e-08
-9.7761e-08
-1.38879e-07
-1.72498e-07
-1.98125e-07
-2.1431e-07
-2.20449e-07
-2.16315e-07
-2.02318e-07
-1.79383e-07
-1.49091e-07
-1.13102e-07
-2.94661e-07
6.63529e-07
-1.8445e-07
7.27503e-07
-6.81546e-08
7.5811e-07
5.12142e-08
7.52475e-07
1.70537e-07
7.10677e-07
2.82909e-07
6.30468e-07
3.75576e-07
5.16785e-07
4.31923e-07
3.67924e-07
4.40813e-07
1.43893e-07
4.15055e-07
-2.31693e-07
3.2558e-07
-8.24183e-07
-1.45922e-06
-2.65068e-07
5.70825e-07
-1.63745e-07
6.2618e-07
-5.75305e-08
6.51895e-07
4.9681e-08
6.45263e-07
1.55278e-07
6.05079e-07
2.54626e-07
5.31121e-07
3.43521e-07
4.2789e-07
4.15442e-07
2.96003e-07
4.53836e-07
1.055e-07
4.37568e-07
-2.15425e-07
3.0735e-07
-6.93965e-07
-1.15187e-06
-2.47728e-07
4.88696e-07
-1.57467e-07
5.35919e-07
-6.2656e-08
5.57084e-07
3.23203e-08
5.50287e-07
1.25648e-07
5.11752e-07
2.11546e-07
4.45222e-07
2.89891e-07
3.49545e-07
3.58003e-07
2.27891e-07
4.01227e-07
6.22763e-08
3.84822e-07
-1.9902e-07
2.54236e-07
-5.6338e-07
-8.97638e-07
-2.31344e-07
4.1557e-07
-1.5074e-07
4.55314e-07
-6.60329e-08
4.72377e-07
1.92978e-08
4.64956e-07
1.00136e-07
4.30914e-07
1.74797e-07
3.70561e-07
2.39624e-07
2.84718e-07
2.93413e-07
1.74101e-07
3.26254e-07
2.94358e-08
3.08299e-07
-1.81065e-07
1.9888e-07
-4.53961e-07
-6.98759e-07
-2.16054e-07
3.49514e-07
-1.43133e-07
3.82393e-07
-6.67093e-08
3.95954e-07
8.96717e-09
3.8928e-07
8.27613e-08
3.5712e-07
1.47716e-07
3.05607e-07
2.01845e-07
2.30589e-07
2.43283e-07
1.32663e-07
2.64412e-07
8.30711e-09
2.44655e-07
-1.61308e-07
1.55302e-07
-3.64608e-07
-5.43457e-07
-2.02979e-07
2.89168e-07
-1.36305e-07
3.1572e-07
-6.64208e-08
3.2607e-07
3.54205e-09
3.19317e-07
6.86075e-08
2.92054e-07
1.26986e-07
2.47228e-07
1.73826e-07
1.8375e-07
2.06358e-07
1.00131e-07
2.18847e-07
-4.18178e-09
1.97054e-07
-1.39515e-07
1.22489e-07
-2.90042e-07
-4.20968e-07
-1.9194e-07
2.33511e-07
-1.3039e-07
2.5417e-07
-6.5893e-08
2.61572e-07
-1.63771e-09
2.55062e-07
5.81069e-08
2.3231e-07
1.10254e-07
1.95081e-07
1.51828e-07
1.42175e-07
1.78373e-07
7.35854e-08
1.85225e-07
-1.10333e-08
1.62316e-07
-1.16607e-07
9.90882e-08
-2.26815e-07
-3.2188e-07
-1.82317e-07
1.8158e-07
-1.24865e-07
1.96718e-07
-6.47829e-08
2.0149e-07
-5.2484e-09
1.95527e-07
5.00283e-08
1.77033e-07
9.80463e-08
1.47063e-07
1.3472e-07
1.05502e-07
1.57299e-07
5.1006e-08
1.60669e-07
-1.44035e-08
1.37671e-07
-9.36083e-08
8.28801e-08
-1.72024e-07
-2.39e-07
-1.72922e-07
1.32423e-07
-1.18738e-07
1.42534e-07
-6.21362e-08
1.44888e-07
-6.31767e-09
1.39709e-07
4.48805e-08
1.25835e-07
8.92577e-08
1.02686e-07
1.23215e-07
7.15449e-08
1.42563e-07
3.16573e-08
1.43482e-07
-1.53221e-08
1.2085e-07
-7.09767e-08
7.19834e-08
-1.23157e-07
-1.67016e-07
-1.6254e-07
8.52243e-08
-1.10711e-07
9.07053e-08
-5.69008e-08
9.10774e-08
-4.22263e-09
8.70304e-08
4.40768e-08
7.75355e-08
8.50984e-08
6.16644e-08
1.16106e-07
4.05371e-08
1.32601e-07
1.51624e-08
1.31869e-07
-1.45896e-08
1.09331e-07
-4.84393e-08
6.44372e-08
-7.82627e-08
-1.02579e-07
-1.46425e-07
3.96849e-08
-9.68197e-08
4.10998e-08
-4.55632e-08
3.98209e-08
3.49882e-09
3.79684e-08
4.85695e-08
3.24649e-08
8.64397e-08
2.37942e-08
1.13394e-07
1.35825e-08
1.26621e-07
1.93603e-09
1.23238e-07
-1.12071e-08
1.00139e-07
-2.53406e-08
5.80624e-08
-3.61858e-08
-4.45165e-08
-7.34168e-08
-3.2317e-08
7.50395e-09
4.54723e-08
7.79372e-08
1.01731e-07
1.15314e-07
1.1725e-07
1.06043e-07
8.07023e-08
4.45165e-08
-2.31668e-07
-1.38124e-06
-2.9432e-07
-6.14969e-07
-2.90517e-07
-3.88908e-07
-3.66171e-07
-4.86352e-07
-4.73579e-07
-5.12189e-07
-5.63726e-07
-4.19049e-07
-6.173e-07
-2.58621e-07
-6.28781e-07
-6.81767e-08
-6.02916e-07
1.23302e-07
-5.4934e-07
2.97733e-07
-4.76358e-07
4.45247e-07
5.65504e-07
-2.73273e-07
-1.10797e-06
-3.19819e-07
-5.68423e-07
-3.04402e-07
-4.04326e-07
-3.53363e-07
-4.37391e-07
-4.33326e-07
-4.32226e-07
-5.04053e-07
-3.48322e-07
-5.48176e-07
-2.14498e-07
-5.59415e-07
-5.6938e-08
-5.39668e-07
1.03556e-07
-4.94596e-07
2.52661e-07
-4.29992e-07
3.80642e-07
4.85464e-07
-2.34193e-07
-8.73776e-07
-2.87167e-07
-5.15449e-07
-2.89469e-07
-4.02024e-07
-3.32699e-07
-3.94161e-07
-3.97231e-07
-3.67694e-07
-4.54871e-07
-2.90682e-07
-4.9133e-07
-1.78039e-07
-5.01667e-07
-4.66011e-08
-4.86327e-07
8.8216e-08
-4.48712e-07
2.15046e-07
-3.92933e-07
3.24864e-07
4.15198e-07
-1.77459e-07
-6.96317e-07
-2.38889e-07
-4.54018e-07
-2.65106e-07
-3.75808e-07
-3.10073e-07
-3.49194e-07
-3.65673e-07
-3.12094e-07
-4.13893e-07
-2.42462e-07
-4.44825e-07
-1.47107e-07
-4.53998e-07
-3.74281e-08
-4.41388e-07
7.56062e-08
-4.09026e-07
1.82684e-07
-3.60197e-07
2.76035e-07
3.52923e-07
-1.3888e-07
-5.57438e-07
-2.02195e-07
-3.90703e-07
-2.41993e-07
-3.3601e-07
-2.88597e-07
-3.02589e-07
-3.38367e-07
-2.62324e-07
-3.80211e-07
-2.00617e-07
-4.06713e-07
-1.20605e-07
-4.14974e-07
-2.91677e-08
-4.04118e-07
6.47508e-08
-3.75582e-07
1.54148e-07
-3.32077e-07
2.3253e-07
2.96993e-07
-1.13115e-07
-4.44323e-07
-1.75376e-07
-3.28441e-07
-2.2228e-07
-2.89106e-07
-2.69349e-07
-2.55519e-07
-3.14948e-07
-2.16726e-07
-3.51994e-07
-1.63571e-07
-3.75589e-07
-9.70106e-08
-3.82988e-07
-2.17686e-08
-3.7347e-07
5.52331e-08
-3.47894e-07
1.28572e-07
-3.08547e-07
1.93183e-07
2.46217e-07
-9.59646e-08
-3.48358e-07
-1.56447e-07
-2.67959e-07
-2.06198e-07
-2.39355e-07
-2.52726e-07
-2.08991e-07
-2.95058e-07
-1.74394e-07
-3.28756e-07
-1.29873e-07
-3.5014e-07
-7.56266e-08
-3.56859e-07
-1.50497e-08
-3.48308e-07
4.6682e-08
-3.25142e-07
1.05406e-07
-2.89091e-07
1.57132e-07
1.99501e-07
-8.44619e-08
-2.63897e-07
-1.43117e-07
-2.09304e-07
-1.93511e-07
-1.88961e-07
-2.39018e-07
-1.63484e-07
-2.78822e-07
-1.3459e-07
-3.09985e-07
-9.87099e-08
-3.29627e-07
-5.59846e-08
-3.35765e-07
-8.91247e-09
-3.27856e-07
3.87735e-08
-3.06405e-07
8.3955e-08
-2.72913e-07
1.2364e-07
1.55934e-07
-7.66551e-08
-1.87241e-07
-1.33647e-07
-1.52312e-07
-1.83722e-07
-1.38886e-07
-2.28221e-07
-1.18985e-07
-2.65945e-07
-9.68656e-08
-2.95123e-07
-6.95316e-08
-3.13262e-07
-3.78463e-08
-3.18737e-07
-3.43727e-09
-3.11041e-07
3.10771e-08
-2.9061e-07
6.35243e-08
-2.58839e-07
9.18686e-08
1.146e-07
-7.05195e-08
-1.16722e-07
-1.25526e-07
-9.73058e-08
-1.75057e-07
-8.9355e-08
-2.18416e-07
-7.56257e-08
-2.54847e-07
-6.04345e-08
-2.82521e-07
-4.18577e-08
-2.99402e-07
-2.09656e-08
-3.04032e-07
1.19284e-09
-2.96095e-07
2.31405e-08
-2.76092e-07
4.35207e-08
-2.45222e-07
6.09993e-08
7.47451e-08
-6.42241e-08
-5.24977e-08
-1.16806e-07
-4.47235e-08
-1.65364e-07
-4.07976e-08
-2.07723e-07
-3.32661e-08
-2.42847e-07
-2.53106e-08
-2.68841e-07
-1.58642e-08
-2.83976e-07
-5.83041e-09
-2.87157e-07
4.37349e-09
-2.78238e-07
1.42224e-08
-2.57766e-07
2.30481e-08
-2.27091e-07
3.03244e-08
3.58197e-08
-5.24977e-08
-9.72213e-08
-1.38019e-07
-1.71285e-07
-1.96596e-07
-2.1246e-07
-2.1829e-07
-2.13917e-07
-1.99694e-07
-1.76646e-07
-1.46322e-07
)
;

boundaryField
{
    rotor
    {
        type            calculated;
        value           nonuniform 0();
    }
    stator
    {
        type            calculated;
        value           nonuniform List<scalar> 
96
(
-4.70198e-38
0
-3.15973e-35
3.00927e-36
3.00927e-36
1.80556e-35
-2.0881e-53
-1.20371e-35
4.81482e-35
0
-9.04499e-35
2.4339e-53
-8.4474e-36
1.20371e-35
4.81482e-35
0
0
4.21297e-35
0
0
1.35417e-35
0
-2.21504e-35
2.91787e-35
1.39764e-34
0
-5.30919e-36
3.00927e-36
-3.00927e-36
-6.19045e-36
3.61112e-35
-1.71916e-37
5.39949e-35
0
4.81482e-35
2.39022e-35
2.4339e-53
9.04499e-35
0
1.02315e-34
-1.20371e-35
-5.49191e-35
1.2123e-35
2.48264e-35
3.00927e-36
-1.6551e-35
0
-4.70198e-38
0
-6.01853e-36
0
0
6.01853e-36
-9.0278e-36
0
1.20371e-35
0
0
0
0
0
6.01853e-36
0
0
-6.01853e-36
0
0
-1.20371e-35
-1.20371e-35
0
0
0
0
-6.01853e-36
3.00927e-36
-6.01853e-36
0
0
6.01853e-36
0
0
0
0
1.20371e-35
0
6.01853e-36
0
0
-6.01853e-36
9.0278e-36
0
-1.20371e-35
0
0
0
0
)
;
    }
    AMI1
    {
        type            cyclicAMI;
        value           nonuniform 0();
    }
    AMI2
    {
        type            cyclicAMI;
        value           nonuniform List<scalar> 
48
(
-1.08462e-06
-1.19931e-06
-1.29271e-06
-1.36223e-06
-1.3697e-06
-1.27469e-06
-1.06533e-06
-7.76803e-07
-3.88615e-07
1.40008e-07
5.46074e-07
1.07011e-06
1.38006e-06
1.56686e-06
1.74969e-06
1.81687e-06
1.6337e-06
1.25421e-06
7.77282e-07
2.66693e-07
-1.88142e-07
-4.45976e-07
-7.01139e-07
-9.20546e-07
-1.09537e-06
-1.23306e-06
-1.33748e-06
-1.3953e-06
-1.38606e-06
-1.27966e-06
-1.06583e-06
-7.76687e-07
-3.90175e-07
1.37536e-07
5.43056e-07
1.0667e-06
1.38099e-06
1.56751e-06
1.7496e-06
1.8155e-06
1.63055e-06
1.24944e-06
7.70462e-07
2.56172e-07
-1.94878e-07
-4.6193e-07
-7.26357e-07
-9.36193e-07
)
;
    }
    front
    {
        type            empty;
        value           nonuniform 0();
    }
    back
    {
        type            empty;
        value           nonuniform 0();
    }
    procBoundary0to1
    {
        type            processor;
        value           nonuniform List<scalar> 8(4.23723e-07 6.4166e-07 5.07868e-07 2.06252e-07 -4.29518e-07 -6.45612e-07 -5.11726e-07 -2.10579e-07);
    }
}


// ************************************************************************* //
