/*--------------------------------*- C++ -*----------------------------------*\
| =========                 |                                                 |
| \\      /  F ield         | OpenFOAM: The Open Source CFD Toolbox           |
|  \\    /   O peration     | Version:  2.3.1                                 |
|   \\  /    A nd           | Web:      www.OpenFOAM.org                      |
|    \\/     M anipulation  |                                                 |
\*---------------------------------------------------------------------------*/
FoamFile
{
    version     2.0;
    format      ascii;
    class       volVectorField;
    location    "0.9";
    object      U;
}
// * * * * * * * * * * * * * * * * * * * * * * * * * * * * * * * * * * * * * //

dimensions      [0 1 -1 0 0 0 0];

internalField   nonuniform List<vector> 
768
(
(0.0290423 0.0482117 8.35927e-23)
(0.035193 0.0445054 -2.79163e-21)
(0.0397215 0.038366 -1.30002e-20)
(0.042453 0.0316471 0)
(0.0420353 0.0238195 6.12962e-20)
(0.0383378 0.0165072 2.12855e-20)
(0.0322575 0.0110553 -8.83774e-20)
(0.0245503 0.00792796 0)
(0.0149538 0.00731918 -6.76639e-20)
(0.00300558 0.00994204 3.08032e-20)
(-0.00958828 0.0140727 -3.03482e-20)
(-0.030107 0.0149914 -1.06877e-19)
(0.0243906 0.0328628 3.23962e-22)
(0.0281817 0.0278112 -2.03128e-21)
(0.0306386 0.0210808 1.18858e-20)
(0.0321469 0.0146882 0)
(0.0315468 0.0078404 -3.87816e-20)
(0.02846 0.00162552 5.17923e-20)
(0.0227604 -0.00315976 2.95743e-20)
(0.0145657 -0.00589632 -8.30214e-22)
(0.00380167 -0.00577122 3.01916e-20)
(-0.00949273 -0.00203766 0)
(-0.0222647 0.00531406 0)
(-0.040662 0.0127781 -8.49996e-20)
(0.0217246 0.0229 0)
(0.0243038 0.0168483 2.47216e-21)
(0.0253395 0.0103672 -9.75661e-21)
(0.0252091 0.00361248 -7.93823e-21)
(0.0230228 -0.00335947 5.59626e-20)
(0.0187843 -0.00948075 -3.29751e-20)
(0.0125999 -0.0137645 6.97067e-20)
(0.00469317 -0.015274 -2.60866e-20)
(-0.00469667 -0.0129852 2.21741e-22)
(-0.0141657 -0.00663627 1.38363e-21)
(-0.0259052 0.00305412 1.13629e-19)
(-0.0427364 0.0194125 8.15481e-20)
(0.0183995 0.0162228 0)
(0.0205261 0.0104563 -4.90118e-21)
(0.0212422 0.00450203 0)
(0.0205714 -0.00175339 -2.44202e-20)
(0.0180464 -0.0080353 0)
(0.0137007 -0.0135557 -1.66387e-20)
(0.00783369 -0.0173787 -8.74865e-20)
(0.001023 -0.0184156 2.22706e-20)
(-0.00635702 -0.0155809 0)
(-0.013362 -0.00810209 0)
(-0.0266686 0.000903284 1.51571e-20)
(-0.0380532 0.0218433 -1.92758e-20)
(-0.0414143 0.0118873 -9.61281e-20)
(-0.0395367 0.0174457 1.38443e-20)
(-0.029051 0.0314871 -5.25074e-20)
(-0.0137357 0.0418244 9.30813e-21)
(0.00444509 0.0440482 9.43582e-23)
(0.0223243 0.0395081 -7.36081e-21)
(0.0370774 0.0302734 -2.77011e-20)
(0.0472094 0.0186936 -2.85378e-20)
(0.052145 0.00720111 1.47285e-20)
(0.0540184 -0.00317512 0)
(0.0543485 -0.0129095 0)
(0.0525779 -0.0219691 -3.74914e-21)
(-0.0473136 0.00564104 0)
(-0.0401429 0.00378551 0)
(-0.0249414 0.0162385 3.76459e-20)
(-0.00904633 0.0289672 -6.6545e-21)
(0.00577635 0.0340079 -9.06973e-22)
(0.0194407 0.0321107 1.58042e-21)
(0.0303824 0.0252755 2.37981e-20)
(0.0377088 0.0154492 1.50566e-20)
(0.0411984 0.00497492 0)
(0.0418655 -0.00383537 0)
(0.0409282 -0.0116692 -7.58734e-22)
(0.0382607 -0.018568 3.11675e-21)
(-0.0440619 0.0124638 0)
(-0.0319931 0.00244152 9.83911e-21)
(-0.0152725 0.0109312 1.69865e-20)
(-0.00343079 0.0221543 -1.08045e-20)
(0.00708708 0.0271332 3.66752e-21)
(0.0175522 0.0259378 4.02462e-21)
(0.0260157 0.0203953 -1.10899e-20)
(0.0314277 0.0123031 -1.546e-20)
(0.0336088 0.00348496 1.64761e-20)
(0.0332488 -0.00442901 0)
(0.0312046 -0.0113468 5.8171e-22)
(0.0277613 -0.0171473 7.91518e-22)
(-0.0302359 0.0229482 5.02048e-20)
(-0.0157255 0.00811505 4.07827e-20)
(-0.00293987 0.0101147 -2.63987e-20)
(0.00198243 0.0179561 1.14101e-20)
(0.00851107 0.0220668 -2.32774e-21)
(0.0163212 0.0212887 0)
(0.0229057 0.0169677 -8.4297e-22)
(0.0271265 0.0104808 -3.76467e-22)
(0.028661 0.00320312 -1.2448e-20)
(0.0278585 -0.0037207 0)
(0.0253164 -0.0098456 -3.67676e-21)
(0.0214271 -0.014888 -2.65081e-21)
(0.049203 -0.0298528 -6.31981e-23)
(0.0446902 -0.0363024 -3.00571e-21)
(0.0389227 -0.0409741 0)
(0.0317728 -0.0432174 0)
(0.0238487 -0.0423453 -3.04729e-20)
(0.016497 -0.0384272 -6.93113e-20)
(0.0110644 -0.032279 -1.21339e-19)
(0.00795272 -0.0245776 3.345e-20)
(0.00733295 -0.015012 -9.79758e-20)
(0.0099265 -0.00306037 -3.05525e-20)
(0.0140116 0.00955344 1.41698e-19)
(0.014877 0.0301202 0)
(0.0339098 -0.0243422 -2.10474e-22)
(0.0281998 -0.0287963 -2.00753e-21)
(0.0216267 -0.0316894 9.4116e-21)
(0.0146783 -0.0327813 8.70778e-21)
(0.00778813 -0.0318275 3.34893e-20)
(0.00156142 -0.0285336 0)
(-0.00318997 -0.0227648 8.56223e-20)
(-0.00590656 -0.0145655 2.7527e-20)
(-0.00578866 -0.00381615 6.23275e-20)
(-0.00208941 0.00949074 0)
(0.00522468 0.0223184 -1.06039e-19)
(0.0126268 0.0407742 0)
(0.0230746 -0.0216532 -1.58135e-22)
(0.0172792 -0.0247006 4.48818e-21)
(0.0106137 -0.0260891 -9.22269e-21)
(0.00349019 -0.0256191 -7.72401e-21)
(-0.00351552 -0.0232132 1.75083e-20)
(-0.00962204 -0.0188241 -9.77351e-21)
(-0.0138602 -0.0125875 0)
(-0.0153426 -0.00467073 -2.80339e-20)
(-0.0130532 0.0047229 -2.61046e-20)
(-0.00672093 0.0142226 -2.43902e-20)
(0.00294781 0.0260131 1.12479e-19)
(0.0192939 0.0429106 0)
(0.0165014 -0.0186715 4.41457e-22)
(0.0108059 -0.0210308 -6.72823e-21)
(0.00458784 -0.0218187 0)
(-0.00188753 -0.0208807 2.36096e-20)
(-0.00820638 -0.0181912 0)
(-0.0137086 -0.0137309 1.62856e-20)
(-0.0174979 -0.00782114 2.00196e-20)
(-0.018508 -0.00099588 -1.102e-19)
(-0.0156583 0.00639722 -1.37212e-23)
(-0.00817144 0.0134253 2.30551e-20)
(0.000831077 0.0267815 -8.55896e-20)
(0.0218103 0.0382534 7.09512e-20)
(-0.011709 -0.0417035 9.69181e-20)
(-0.0173137 -0.0397667 -1.39935e-20)
(-0.0313974 -0.0291857 1.40522e-20)
(-0.0417473 -0.0137867 0)
(-0.0439538 0.00444379 0)
(-0.0393754 0.0223398 3.33903e-20)
(-0.0300909 0.0371261 8.85218e-22)
(-0.0184727 0.0473012 2.23847e-20)
(-0.00691722 0.0523239 0)
(0.00368036 0.0542849 -1.25183e-20)
(0.0137526 0.0546826 -4.76011e-21)
(0.0221679 0.0516287 1.29163e-21)
(-0.00536013 -0.0475843 0)
(-0.00356799 -0.0403104 0)
(-0.0160755 -0.0250334 0)
(-0.0288313 -0.009118 1.02427e-21)
(-0.0338734 0.00573171 -4.33021e-21)
(-0.0319596 0.0194108 -8.09904e-21)
(-0.0250665 0.0303663 1.86832e-20)
(-0.015153 0.0377061 -1.9658e-20)
(-0.00467432 0.0411793 0)
(0.00402263 0.0417183 6.74481e-21)
(0.0116579 0.0404757 2.89915e-21)
(0.0187312 0.0373481 -7.32811e-22)
(-0.0120873 -0.0443367 0)
(-0.00216642 -0.032173 -3.88109e-20)
(-0.0107272 -0.0153998 -5.09592e-21)
(-0.0219738 -0.00352113 -4.10681e-21)
(-0.0269738 0.00701838 -9.35478e-22)
(-0.0257777 0.0174986 2.14902e-21)
(-0.0201956 0.0259586 9.51026e-21)
(-0.0120341 0.0313382 1.08333e-20)
(-0.00315424 0.0334493 4.3495e-21)
(0.0047128 0.0329814 -8.68636e-21)
(0.0113435 0.030815 -2.60943e-21)
(0.0169489 0.0273561 0)
(-0.0225242 -0.0304651 -1.26396e-20)
(-0.00780285 -0.0158737 1.96785e-20)
(-0.00986896 -0.00305651 0)
(-0.0177515 0.00191001 0)
(-0.0219012 0.00844242 -1.95868e-21)
(-0.0211271 0.0162539 -1.18317e-21)
(-0.0167787 0.022827 -1.43418e-20)
(-0.0102478 0.0270115 0)
(-0.00294161 0.0284563 -1.25957e-20)
(0.00394784 0.0275421 0)
(0.00992492 0.0249512 -1.33237e-21)
(0.0147842 0.0211014 0)
(0.0154871 0.0131665 4.657e-22)
(0.0171779 0.00783394 4.76821e-21)
(0.017609 0.00229184 0)
(0.0167393 -0.00336438 2.37101e-20)
(0.014356 -0.00881104 7.96113e-21)
(0.0105293 -0.0135113 4.61029e-20)
(0.00556352 -0.0169766 -1.82344e-20)
(-7.11491e-05 -0.0184835 0)
(-0.00642119 -0.0169737 0)
(-0.0138227 -0.0107937 -2.02618e-20)
(-0.0261549 -0.00200794 -5.92721e-20)
(-0.0319222 0.0164023 0)
(0.0129587 0.0119103 -4.52537e-22)
(0.0144284 0.00713132 0)
(0.0147235 0.00211892 1.51865e-20)
(0.0138205 -0.0029442 -5.98184e-21)
(0.0116254 -0.00770694 5.97968e-21)
(0.00822375 -0.011719 -4.43025e-20)
(0.00389803 -0.0147914 -3.45629e-20)
(-0.00106572 -0.0166258 1.80593e-20)
(-0.00695038 -0.0164581 0)
(-0.0143418 -0.0122462 0)
(-0.0233885 -0.00391804 0)
(-0.0251384 0.0122366 0)
(0.0107926 0.0110882 6.12884e-22)
(0.0120935 0.00688629 6.25811e-21)
(0.0123508 0.00245635 -1.6255e-20)
(0.0115347 -0.00201189 0)
(0.00958282 -0.00616839 0)
(0.00661352 -0.00960964 1.30505e-19)
(0.00281086 -0.0121838 -7.76471e-20)
(-0.00160932 -0.0137349 0)
(-0.00685818 -0.0139101 1.76345e-20)
(-0.0130344 -0.0108891 -3.47625e-20)
(-0.0193274 -0.00366155 1.70131e-20)
(-0.0192361 0.00933001 0)
(0.00895452 0.0103199 -5.95882e-22)
(0.0100871 0.00661761 -4.62701e-21)
(0.0103064 0.00270033 1.38225e-20)
(0.00958541 -0.00123844 -1.30314e-20)
(0.00787937 -0.00488246 1.74423e-20)
(0.0053231 -0.00786163 1.18006e-20)
(0.00205076 -0.00999483 1.04803e-19)
(-0.00172727 -0.0111138 1.61175e-20)
(-0.0060674 -0.0110914 -1.61753e-20)
(-0.0108258 -0.00863255 -6.45676e-20)
(-0.0151447 -0.00292588 0)
(-0.0144587 0.0070033 0)
(0.00737992 0.00962446 0)
(0.00835592 0.00632969 0)
(0.0085374 0.00283595 -1.34421e-20)
(0.00789745 -0.000669861 1.77141e-20)
(0.00640109 -0.00389493 2.64784e-20)
(0.0042028 -0.00651216 -1.19097e-19)
(0.00140988 -0.00834115 -2.90331e-20)
(-0.00176537 -0.00916966 -7.28223e-20)
(-0.00526715 -0.00894141 0)
(-0.00887779 -0.00677808 6.27828e-20)
(-0.0117977 -0.00230145 6.01225e-20)
(-0.0108962 0.00520299 0)
(0.00601597 0.0090346 0)
(0.00685208 0.00607575 -1.37202e-21)
(0.00699678 0.00293267 1.37432e-21)
(0.00643328 -0.00020696 -4.63318e-21)
(0.005117 -0.00309292 -7.72673e-20)
(0.00323115 -0.00543706 6.02539e-20)
(0.000855863 -0.00704912 -1.24123e-20)
(-0.00180724 -0.00771523 5.68656e-20)
(-0.00463282 -0.0073971 1.46678e-20)
(-0.00733694 -0.00547604 -1.46058e-20)
(-0.00921189 -0.00188025 -5.85854e-20)
(-0.00827947 0.00386941 0)
(0.00482391 0.00854146 0)
(0.00553453 0.00586449 -1.33658e-21)
(0.00564423 0.00301712 1.33868e-21)
(0.00514305 0.000182741 0)
(0.00400825 -0.00242977 4.45445e-20)
(0.00238374 -0.00455223 6.54903e-21)
(0.00036996 -0.0060065 2.43961e-20)
(-0.00184355 -0.00659074 6.54364e-20)
(-0.0041066 -0.00627398 -5.49814e-20)
(-0.00609734 -0.00459386 0)
(-0.00723528 -0.00166924 -1.11558e-19)
(-0.00628247 0.00276829 0)
(0.00377214 0.00811876 0)
(0.00436908 0.00567546 -1.30257e-21)
(0.00444715 0.00307467 -1.07145e-20)
(0.00399988 0.000491436 -4.23574e-21)
(0.00302289 -0.00189477 -3.26307e-20)
(0.00163088 -0.00383644 1.12294e-20)
(-6.61333e-05 -0.00517624 -5.89275e-20)
(-0.00188972 -0.00572371 -1.01536e-19)
(-0.00367958 -0.005456 -5.18701e-20)
(-0.0051125 -0.0040222 -1.35246e-20)
(-0.00572892 -0.0016288 1.43083e-20)
(-0.00476535 0.0018667 0)
(0.00283021 0.00772006 0)
(0.00332326 0.0054656 0)
(0.00336903 0.00306772 1.17144e-20)
(0.00296659 0.000691341 0)
(0.00212448 -0.00150762 4.28191e-22)
(0.000934932 -0.00330182 1.07729e-20)
(-0.00048232 -0.00455219 -1.0772e-20)
(-0.00196627 -0.00508337 4.9014e-20)
(-0.00335301 -0.00489166 1.40124e-20)
(-0.00433709 -0.00369401 -1.16643e-19)
(-0.00456683 -0.00172218 1.05183e-19)
(-0.0035591 0.00108559 -1.04594e-19)
(0.00197354 0.00729151 0)
(0.00237009 0.00518872 -4.22912e-21)
(0.00237979 0.00295979 1.13308e-20)
(0.0020131 0.000756673 -3.94134e-21)
(0.00128865 -0.00128015 4.31692e-20)
(0.000279197 -0.00294455 -3.35204e-20)
(-0.000897339 -0.00411522 4.44048e-20)
(-0.00207413 -0.00464086 -1.1318e-20)
(-0.00310981 -0.00452092 9.87482e-20)
(-0.00371879 -0.0035307 8.84698e-20)
(-0.00363981 -0.00189364 1.26613e-20)
(-0.00256551 0.000401586 1.02041e-19)
(0.00119218 0.00664886 0)
(0.00148973 0.0046777 1.23826e-20)
(0.0014586 0.00260389 -1.10582e-20)
(0.00111911 0.000565532 0)
(0.000490191 -0.00130326 4.47344e-21)
(-0.000356849 -0.00281857 2.37917e-20)
(-0.00130801 -0.00388364 4.09993e-20)
(-0.00220212 -0.00436657 2.25859e-20)
(-0.00291538 -0.00427022 -1.18807e-19)
(-0.00318855 -0.00344186 -8.57099e-20)
(-0.00284646 -0.00206231 0)
(-0.00171156 -0.000178709 0)
(0.000395469 0.00365668 1.37901e-21)
(0.000472338 0.00202841 -3.09016e-24)
(0.000319649 0.000393312 0)
(-3.43162e-05 -0.00113744 -3.69413e-21)
(-0.000555573 -0.00245518 3.69108e-21)
(-0.0011674 -0.00343467 4.65127e-20)
(-0.00177205 -0.00402013 -1.72806e-19)
(-0.00225265 -0.00414014 0)
(-0.00251135 -0.00381788 9.2136e-20)
(-0.00239736 -0.00301811 9.47766e-20)
(-0.00185353 -0.00188145 9.60174e-20)
(-0.000875201 -0.000496707 -9.64211e-20)
(-0.0157395 0.0263777 -4.88077e-20)
(0.00102799 0.0172144 -3.93177e-20)
(0.00428036 0.012806 2.04404e-20)
(0.00486442 0.0162231 0)
(0.00914702 0.0186616 -3.61256e-21)
(0.0151426 0.0178502 -8.04467e-21)
(0.0204065 0.0143504 1.24432e-20)
(0.0238758 0.00910038 7.48973e-21)
(0.0251821 0.0030902 0)
(0.0244304 -0.00280913 1.05099e-21)
(0.0219981 -0.00810213 2.94003e-21)
(0.0182382 -0.0124662 8.64692e-22)
(-0.0128243 0.0251318 -2.94523e-20)
(0.00234395 0.0183015 5.74648e-21)
(0.00447059 0.0135222 -2.55315e-20)
(0.00565522 0.0148896 0)
(0.00921142 0.0160572 0)
(0.0140469 0.0151508 1.20534e-20)
(0.0183358 0.0122421 9.81429e-21)
(0.0212371 0.00795327 -1.18824e-20)
(0.0224109 0.00298063 2.19057e-21)
(0.0218442 -0.00200521 7.53094e-21)
(0.0197681 -0.00654891 -7.84153e-22)
(0.0164558 -0.0103278 8.64435e-23)
(-0.00844927 0.0182219 2.8794e-20)
(0.00212077 0.0160143 0)
(0.00391237 0.012991 0)
(0.00579877 0.0135378 0)
(0.00903014 0.0139696 0)
(0.0130662 0.0130069 7.40638e-21)
(0.0166198 0.0105449 -2.56071e-20)
(0.0190605 0.00698647 7.64673e-21)
(0.0200948 0.00283758 0)
(0.0196639 -0.00137625 -6.55003e-21)
(0.0179153 -0.00525978 -1.3109e-21)
(0.0150632 -0.00851429 -1.94911e-22)
(-0.00719657 0.014283 -1.93517e-20)
(0.00105754 0.0132689 -2.08975e-20)
(0.00330936 0.0118543 1.64069e-20)
(0.00572133 0.0121565 -6.81701e-21)
(0.008765 0.012216 0)
(0.0122164 0.0112681 2.69484e-22)
(0.0152104 0.00917123 9.05566e-21)
(0.0172782 0.00618676 -8.45055e-21)
(0.0181698 0.00269805 1.32377e-21)
(0.0178118 -0.000873716 -4.02686e-22)
(0.0163028 -0.00419147 1.78397e-21)
(0.0138186 -0.00698921 0)
(-0.00555096 0.0108678 2.53931e-21)
(0.000610147 0.0109083 1.65177e-20)
(0.00299543 0.0105147 -1.4352e-20)
(0.00563637 0.0108052 1.50608e-20)
(0.0084905 0.010709 -1.49825e-21)
(0.0114923 0.00983179 -1.04028e-21)
(0.0140537 0.00804397 -9.14103e-22)
(0.0158207 0.00552805 9.31332e-21)
(0.0165842 0.00258532 -1.02026e-21)
(0.0162685 -0.000449643 0)
(0.0149352 -0.00328474 -8.41198e-24)
(0.0127372 -0.00568803 4.4954e-22)
(-0.00428734 0.00847835 1.59349e-20)
(0.000532458 0.00900975 0)
(0.00292535 0.00919982 0)
(0.00559168 0.00953383 -6.97573e-21)
(0.00823935 0.00940034 4.13791e-21)
(0.0108845 0.00862386 -3.485e-21)
(0.0131046 0.00710599 1.80487e-22)
(0.0146291 0.00498358 -7.2464e-21)
(0.0152802 0.00250101 7.83061e-22)
(0.01499 -8.24068e-05 -1.62993e-22)
(0.0137959 -0.00250272 1.13937e-22)
(0.0118291 -0.00456089 1.77365e-22)
(-0.00317964 0.00661712 2.49043e-20)
(0.000702452 0.00746327 2.47979e-20)
(0.00302132 0.00797923 -4.35668e-21)
(0.00559581 0.00836721 -3.54091e-21)
(0.00803594 0.00825666 -3.62003e-21)
(0.0103898 0.00759715 6.44403e-22)
(0.0123348 0.00631725 -6.45019e-22)
(0.013659 0.00453204 0)
(0.0142121 0.00243665 0)
(0.0139349 0.000242815 1.13404e-21)
(0.0128518 -0.00181965 8.29329e-23)
(0.011073 -0.00357561 -5.43037e-22)
(-0.00220878 0.00513332 -2.4284e-20)
(0.00101538 0.00617671 -1.53175e-21)
(0.00322344 0.00687722 1.57993e-20)
(0.00565462 0.00731796 1.52637e-20)
(0.00789831 0.00726037 1.87072e-21)
(0.0100101 0.00672167 4.64865e-22)
(0.0117273 0.0056546 -8.86321e-22)
(0.0128818 0.00415874 4.21643e-22)
(0.0133452 0.00239245 3.183e-21)
(0.0130665 0.000537949 -1.97215e-21)
(0.0120664 -0.00121513 -7.69515e-23)
(0.0104369 -0.00270779 7.98293e-22)
(-0.00133674 0.00390158 1.81722e-20)
(0.00140575 0.00508059 -1.71146e-20)
(0.00349047 0.00589032 -1.53992e-20)
(0.00576467 0.00638242 -2.0833e-22)
(0.00782833 0.00639249 0)
(0.00973527 0.00597261 2.99862e-22)
(0.0112584 0.00509629 3.32537e-22)
(0.0122615 0.00385112 3.07939e-23)
(0.0126362 0.0023711 -5.95113e-21)
(0.0123394 0.000809699 7.43646e-22)
(0.0113899 -0.000671216 0)
(0.00987111 -0.0019323 -6.79733e-22)
(-0.00055749 0.00283777 -3.96296e-20)
(0.0018012 0.0041018 0)
(0.00375659 0.00497799 -1.46226e-21)
(0.00587433 0.00552369 -1.71564e-20)
(0.00777777 0.00561367 -4.53983e-21)
(0.00950944 0.00531346 2.74306e-22)
(0.0108642 0.00461331 -5.16879e-22)
(0.0117291 0.00359156 2.67324e-21)
(0.0120114 0.00236414 2.42461e-21)
(0.0116799 0.00106006 2.97581e-22)
(0.0107543 -0.000177303 -4.45411e-23)
(0.00931181 -0.00122779 0)
(0.000103647 0.00189841 1.89855e-20)
(0.00211792 0.00318724 0)
(0.00394618 0.00409841 0)
(0.0059059 0.00469686 9.02896e-21)
(0.00766002 0.00487454 4.19105e-21)
(0.00922039 0.00469133 -7.54758e-23)
(0.0104018 0.00415299 -1.47633e-21)
(0.0111123 0.00333137 -4.23303e-21)
(0.01128 0.00233304 -2.52961e-22)
(0.0108851 0.00126822 -1.87894e-22)
(0.00995327 0.000257369 -5.89356e-23)
(0.00855724 -0.00059516 0)
(0.000544265 0.00101325 1.80107e-20)
(0.00213191 0.00213784 0)
(0.00365167 0.0029369 0)
(0.00516969 0.00344255 -8.08307e-22)
(0.00645748 0.00359587 8.07775e-22)
(0.00749317 0.00345379 1.62684e-22)
(0.00815876 0.00305016 -1.11901e-22)
(0.00841197 0.00245667 2.08095e-21)
(0.00822218 0.00176186 0)
(0.00760385 0.00105032 -5.73815e-23)
(0.00660083 0.000408409 1.07185e-21)
(0.00528772 -9.36815e-05 -7.22049e-22)
(0.0134836 -0.0156778 1.10826e-22)
(0.00806879 -0.0175728 4.39996e-21)
(0.002315 -0.0180437 0)
(-0.00348596 -0.0169975 -1.65831e-20)
(-0.00895523 -0.0144837 -3.39549e-20)
(-0.0136376 -0.0105703 -1.72696e-20)
(-0.0170822 -0.00556442 -1.79178e-20)
(-0.0185684 8.78213e-05 8.44566e-20)
(-0.0170408 0.00645132 0)
(-0.0108414 0.0138687 6.00005e-20)
(-0.00204009 0.0262431 -5.46213e-20)
(0.0164688 0.0320413 -6.93108e-20)
(0.0122005 -0.0131069 -8.52875e-22)
(0.00732158 -0.0147168 0)
(0.00214448 -0.0150515 -1.44688e-20)
(-0.00303525 -0.0140381 0)
(-0.00781888 -0.0117399 1.50736e-21)
(-0.0118183 -0.00827599 -5.95615e-20)
(-0.0148771 -0.00391236 -1.77329e-20)
(-0.0166982 0.00107153 8.91246e-20)
(-0.0165189 0.00697094 0)
(-0.0122896 0.0143819 -5.91e-20)
(-0.00394023 0.0234595 5.40991e-20)
(0.0122776 0.0252306 0)
(0.0113528 -0.0109197 4.60312e-22)
(0.0070702 -0.0123183 -4.4382e-21)
(0.00250996 -0.0126049 1.40568e-20)
(-0.00205963 -0.0117213 -2.40798e-20)
(-0.00624501 -0.0096883 1.30108e-20)
(-0.00968576 -0.00667006 3.65325e-20)
(-0.0122521 -0.00283268 9.24261e-20)
(-0.0137951 0.00160954 -8.56495e-20)
(-0.013964 0.00687561 0)
(-0.0109297 0.0130726 5.07742e-20)
(-0.00367799 0.0193875 1.67664e-20)
(0.00936073 0.0193027 0)
(0.0105644 -0.00905955 4.12069e-22)
(0.00679509 -0.0102634 5.27518e-21)
(0.00277448 -0.0105081 -1.37546e-21)
(-0.00124883 -0.00974314 6.04719e-22)
(-0.00492745 -0.00797713 2.28462e-20)
(-0.00791605 -0.00537938 0)
(-0.0100476 -0.00207563 -7.46688e-20)
(-0.0111624 0.00172399 1.50763e-20)
(-0.0111353 0.00608176 0)
(-0.00866606 0.0108578 -1.2939e-19)
(-0.00293842 0.0151922 0)
(0.00702562 0.0145068 0)
(0.00984917 -0.00746689 1.25006e-21)
(0.00649695 -0.00849677 0)
(0.00292169 -0.00869725 -8.98714e-21)
(-0.000653569 -0.00802889 1.81264e-20)
(-0.00391504 -0.00648709 9.45414e-22)
(-0.0065486 -0.004256 -5.37024e-20)
(-0.00838089 -0.001436 1.40639e-20)
(-0.00920849 0.00175922 4.33064e-20)
(-0.00897618 0.00527743 -1.52265e-20)
(-0.00680502 0.00890181 6.18538e-20)
(-0.00231065 0.0118342 2.97521e-20)
(0.00521931 0.0109311 -1.46754e-20)
(0.00924177 -0.0060862 -1.21656e-21)
(0.00623426 -0.00696449 0)
(0.00302497 -0.00712326 1.23367e-20)
(-0.000172829 -0.00654215 -4.48799e-21)
(-0.00309534 -0.00519325 4.49187e-21)
(-0.00545917 -0.00327798 5.88602e-20)
(-0.00707805 -0.000881581 -4.9335e-20)
(-0.00774511 0.00180014 -6.90939e-20)
(-0.00742466 0.00464035 0)
(-0.0054965 0.00735563 -1.44049e-20)
(-0.0018877 0.0092383 1.43488e-20)
(0.0038806 0.00830442 0)
(0.00873438 -0.00487906 -4.25488e-22)
(0.00601572 -0.0056235 4.65595e-21)
(0.00311349 -0.00574502 0)
(0.000228906 -0.00523144 0)
(-0.0024179 -0.00407364 0)
(-0.00456208 -0.00242504 1.15017e-20)
(-0.0060262 -0.000393806 3.75894e-20)
(-0.0066126 0.00183633 5.15879e-20)
(-0.0062953 0.00411208 -1.3738e-20)
(-0.00461024 0.00611234 -1.17277e-22)
(-0.00167619 0.00725513 1.23456e-19)
(0.00277594 0.00630048 1.08827e-19)
(0.00830049 -0.00381351 -1.34083e-21)
(0.00582107 -0.00443756 -5.35637e-21)
(0.00317411 -0.00452585 1.23736e-21)
(0.000546857 -0.00407165 -4.10134e-21)
(-0.00187201 -0.00307522 -2.68398e-20)
(-0.00383759 -0.00166637 -3.51446e-20)
(-0.00518783 4.49907e-05 4.68296e-20)
(-0.00573895 0.00188282 -1.1155e-19)
(-0.00547278 0.00368352 0)
(-0.0040354 0.00512383 0)
(-0.00163392 0.00574479 -9.36065e-20)
(0.00187226 0.00477923 -1.36742e-20)
(0.00789318 -0.0028599 1.30693e-21)
(0.0056063 -0.00337443 1.20439e-21)
(0.00316843 -0.00342881 -1.20614e-21)
(0.000753234 -0.003024 0)
(-0.00147689 -0.00216738 6.93408e-20)
(-0.00329555 -0.000962769 5.07273e-20)
(-0.00455679 0.000465688 -4.36646e-20)
(-0.00509342 0.00196007 4.87581e-20)
(-0.0049043 0.00335666 -1.22125e-20)
(-0.00370457 0.00434622 -1.28401e-20)
(-0.0017272 0.00457873 1.28295e-20)
(0.00108898 0.00356914 -1.03095e-19)
(0.00745514 -0.00199392 1.32404e-21)
(0.00532352 -0.00240635 0)
(0.00305972 -0.00242318 1.0815e-20)
(0.000821645 -0.0020568 -3.81638e-21)
(-0.00124412 -0.00132268 -2.5284e-20)
(-0.00293211 -0.000299134 5.64909e-21)
(-0.00411483 0.000886133 2.12908e-20)
(-0.00464719 0.00206944 -8.05348e-20)
(-0.0045306 0.00311353 8.39633e-20)
(-0.00353984 0.00372658 -2.31087e-22)
(-0.00189862 0.00364899 1.24396e-20)
(0.000403185 0.00257266 0)
(0.00679518 -0.00120527 -8.87484e-22)
(0.0047987 -0.00151263 6.21562e-21)
(0.00269484 -0.00148508 -1.99163e-20)
(0.0006263 -0.00115059 0)
(-0.00126683 -0.000513969 4.35146e-21)
(-0.0028045 0.000344456 -4.34808e-21)
(-0.00388206 0.00130223 -3.07194e-20)
(-0.00437138 0.00220079 1.67393e-19)
(-0.00427898 0.00291943 -9.37309e-20)
(-0.00345028 0.00319611 0)
(-0.0020678 0.00285397 0)
(-0.0001787 0.00171657 0)
(0.00375425 -0.000401056 -2.5294e-21)
(0.00210989 -0.000482863 -7.53948e-21)
(0.000451688 -0.000330185 2.03696e-20)
(-0.00109924 1.99987e-05 -3.57957e-21)
(-0.00243199 0.000545384 7.77251e-21)
(-0.0034295 0.00116404 2.22254e-20)
(-0.00402428 0.00177308 1.98061e-20)
(-0.00414839 0.00225643 -1.05154e-20)
(-0.00382837 0.0025177 7.88201e-20)
(-0.00302756 0.00240499 1.14557e-20)
(-0.00188794 0.00185977 0)
(-0.00049827 0.000878207 9.47658e-20)
(-0.0261699 -0.0157396 0)
(-0.0169896 0.00102273 4.73178e-20)
(-0.0125806 0.00426392 -7.37363e-21)
(-0.0160302 0.004822 0)
(-0.0184979 0.00908148 0)
(-0.0176925 0.0150665 3.40068e-21)
(-0.0141758 0.0203114 8.60768e-21)
(-0.00889597 0.0237431 -2.40881e-21)
(-0.00286496 0.0249754 1.22183e-20)
(0.00298957 0.0241243 0)
(0.00817661 0.0216366 3.76118e-21)
(0.0124279 0.0178934 1.80251e-22)
(-0.0250589 -0.0128083 0)
(-0.0181536 0.00238005 0)
(-0.0133477 0.00448286 1.7927e-20)
(-0.0147157 0.00562614 0)
(-0.0159016 0.00914814 -8.98341e-22)
(-0.0150001 0.0139636 3.48302e-21)
(-0.0120815 0.0182277 -1.44387e-20)
(-0.00777575 0.0210925 -2.09062e-21)
(-0.00279789 0.022207 2.08737e-21)
(0.0021516 0.0215656 6.27936e-21)
(0.0066089 0.0194378 0)
(0.0102897 0.0161295 -1.75134e-22)
(-0.0181742 -0.00840583 0)
(-0.0159068 0.00217295 4.87779e-21)
(-0.0128478 0.00392986 -2.53532e-20)
(-0.0133855 0.00577085 3.08725e-21)
(-0.0138257 0.00896693 0)
(-0.0128661 0.0129781 -2.66114e-21)
(-0.0103985 0.0165032 1.85759e-20)
(-0.0068327 0.0189092 0)
(-0.0026878 0.0198955 0)
(0.00149501 0.0194102 -5.58466e-21)
(0.00530794 0.0176191 6.60712e-22)
(0.00847865 0.014766 -1.09325e-22)
(-0.0142439 -0.0071583 0)
(-0.0131826 0.00110099 0)
(-0.0117332 0.00332106 1.31745e-20)
(-0.0120236 0.00569143 -1.1682e-21)
(-0.0120859 0.00870088 1.16751e-21)
(-0.0111386 0.0121258 8.99372e-21)
(-0.0090383 0.0150897 -3.40683e-21)
(-0.00605481 0.0171233 5.58032e-21)
(-0.00257814 0.0179738 -5.54297e-21)
(0.00097016 0.017576 3.25473e-21)
(0.00423005 0.0160331 -1.14026e-21)
(0.00695693 0.0135451 1.06285e-22)
(-0.0108314 -0.00551865 0)
(-0.0108347 0.00064174 -1.51311e-20)
(-0.0104131 0.00299725 -1.28045e-20)
(-0.0106901 0.00560276 0)
(-0.0105936 0.00842479 2.24085e-21)
(-0.00971425 0.0113994 -4.09193e-21)
(-0.00792458 0.0139317 -9.75207e-21)
(-0.00541458 0.015668 1.52932e-21)
(-0.00248571 0.0163924 4.19813e-21)
(0.000529656 0.0160442 -3.16354e-21)
(0.00331759 0.0146875 0)
(0.00566065 0.0124859 0)
(-0.00844489 -0.00426123 0)
(-0.00894518 0.000554202 1.47295e-20)
(-0.00911297 0.00291921 -2.15174e-21)
(-0.00943412 0.0055543 2.15086e-21)
(-0.00929732 0.0081724 -2.12958e-21)
(-0.00851788 0.01079 7.04558e-22)
(-0.00700036 0.0129817 4.16904e-21)
(-0.00488368 0.0144786 -1.20144e-20)
(-0.00241157 0.0150945 6.82644e-22)
(0.000150002 0.0147761 -1.05752e-22)
(0.00253169 0.0135657 1.05628e-22)
(0.00454017 0.0115974 0)
(-0.00658759 -0.00315969 0)
(-0.00740818 0.000714575 2.35849e-20)
(-0.00790489 0.00300921 0)
(-0.00828138 0.00555451 6.0068e-21)
(-0.00816485 0.00796748 -2.37701e-21)
(-0.00750294 0.0102943 6.72045e-22)
(-0.00622474 0.0122115 -1.77191e-23)
(-0.00444431 0.0135104 4.34701e-21)
(-0.00235805 0.0140321 0)
(-0.000186553 0.0137305 -2.69066e-23)
(0.0018443 0.0126361 2.68839e-23)
(0.00356018 0.0108576 0)
(-0.00510865 -0.00219436 0)
(-0.00613184 0.00101797 9.51807e-22)
(-0.00681455 0.00320507 -2.47444e-21)
(-0.00724435 0.00560941 5.53972e-21)
(-0.00717984 0.00782764 5.24445e-21)
(-0.00663888 0.00991381 -1.29205e-22)
(-0.00557327 0.0116043 -2.89646e-22)
(-0.00408231 0.0127346 -3.12044e-21)
(-0.00232536 0.0131704 3.65847e-22)
(-0.000491006 0.0128707 -3.06064e-22)
(0.00123628 0.0118619 -3.10023e-23)
(0.00269673 0.0102341 0)
(-0.00388236 -0.00132734 2.19777e-20)
(-0.00504399 0.00140154 -2.0914e-20)
(-0.00583825 0.00346614 1.43145e-20)
(-0.00631916 0.00571638 1.50473e-21)
(-0.00632348 0.00775528 -2.64134e-21)
(-0.00590045 0.00963845 1.61942e-22)
(-0.00502509 0.0111363 -1.62002e-22)
(-0.00378517 0.0121169 5.80151e-22)
(-0.00231298 0.0124666 0)
(-0.000768021 0.0121514 3.28336e-22)
(0.000690831 0.0111956 0)
(0.00192567 0.00967859 0)
(-0.00282389 -0.000553158 -2.14445e-20)
(-0.00407245 0.00179203 2.09376e-20)
(-0.00493564 0.00372772 -1.77685e-20)
(-0.00547036 0.00582404 -1.06309e-20)
(-0.00555557 0.00770375 -4.07812e-22)
(-0.00525155 0.00941321 -1.05639e-22)
(-0.00455198 0.0107449 -8.84607e-22)
(-0.00353457 0.0115886 1.6625e-21)
(-0.00231323 0.0118488 2.01639e-22)
(-0.00102356 0.0115017 -1.55071e-22)
(0.000194839 0.0105711 7.62689e-22)
(0.00122444 0.00913034 0)
(-0.00188973 0.00010373 0)
(-0.00316577 0.00210529 -1.83352e-20)
(-0.00406573 0.00391572 1.62339e-20)
(-0.00465488 0.00585634 -2.54509e-21)
(-0.00482762 0.00758979 1.41297e-21)
(-0.00464122 0.00913013 1.22942e-22)
(-0.00410305 0.0102915 1.13724e-21)
(-0.00328521 0.0109838 -1.46192e-22)
(-0.0022925 0.0111327 0)
(-0.00123877 0.0107256 1.5125e-22)
(-0.000241251 0.0097904 -2.31332e-21)
(0.000595135 0.00839553 0)
(-0.00100978 0.000542297 1.92078e-20)
(-0.00212721 0.00212151 -1.74216e-20)
(-0.0029193 0.00362985 -1.42329e-20)
(-0.00341911 0.00513535 0)
(-0.00356867 0.00640966 5.44279e-21)
(-0.00342441 0.00743208 1.4291e-21)
(-0.00302062 0.00808451 7.20563e-22)
(-0.00242948 0.00832535 -1.42006e-22)
(-0.00173786 0.00812361 1.42022e-22)
(-0.00103229 0.00749703 0)
(-0.000396946 0.00649218 -2.26703e-23)
(9.61497e-05 0.00518054 -8.30835e-22)
)
;

boundaryField
{
    rotor
    {
        type            movingWallVelocity;
        value           nonuniform 0();
    }
    stator
    {
        type            movingWallVelocity;
        value           nonuniform List<vector> 
96
(
(3.3186e-18 1.01373e-16 2.68619e-36)
(0 0 0)
(-8.61696e-17 -5.21922e-16 0)
(3.59072e-16 1.53998e-15 -2.02963e-16)
(-2.2552e-16 -7.4344e-16 0)
(-4.02938e-16 -1.07058e-15 1.96701e-32)
(2.39298e-33 -1.08424e-33 2.02963e-16)
(-6.75029e-16 -1.26289e-15 0)
(1.45625e-15 2.34185e-15 0)
(0 0 0)
(-1.02136e-15 -1.24453e-15 -2.02963e-16)
(1.62022e-15 1.7299e-15 -2.87344e-32)
(-1.09672e-16 -1.02719e-16 -2.02963e-16)
(-1.94047e-15 -1.5925e-15 0)
(1.53753e-15 1.10178e-15 -2.02963e-16)
(0 0 0)
(0 0 0)
(1.22076e-15 5.53121e-16 0)
(0 0 0)
(-7.4344e-16 -2.2552e-16 -2.02963e-16)
(7.18145e-16 1.67448e-16 0)
(0 0 0)
(-3.16768e-16 -3.1199e-17 2.02963e-16)
(4.82246e-18 1.57871e-19 -2.62843e-33)
(-1.11018e-16 3.63434e-18 -2.02963e-16)
(0 0 0)
(-5.21922e-16 8.61696e-17 -2.02963e-16)
(7.69989e-16 -1.79536e-16 -2.02963e-16)
(7.4344e-16 -2.2552e-16 0)
(1.42223e-15 -5.3529e-16 -4.05925e-16)
(1.22076e-15 -5.53121e-16 0)
(1.26289e-15 -6.75029e-16 -2.02963e-16)
(-1.45625e-15 9.05556e-16 -2.02963e-16)
(0 0 0)
(-3.185e-15 2.61387e-15 -4.05925e-16)
(-1.62022e-15 1.51751e-15 -2.02963e-16)
(1.62022e-15 -1.7299e-15 2.87344e-32)
(-1.02136e-15 1.24453e-15 -2.02963e-16)
(0 0 0)
(-1.7743e-16 2.8533e-16 0)
(-6.75029e-16 1.26289e-15 -9.90745e-33)
(5.7261e-17 -1.26378e-16 4.69616e-32)
(1.32352e-16 -3.51652e-16 -2.02963e-16)
(4.8123e-17 -1.5864e-16 0)
(3.59072e-16 -1.53998e-15 -2.02963e-16)
(4.43108e-17 -2.68387e-16 0)
(0 0 0)
(3.3186e-18 -1.01373e-16 -2.68619e-36)
(0 0 0)
(-8.11851e-16 8.11851e-16 0)
(-1.6237e-15 1.6237e-15 0)
(0 0 0)
(-8.11851e-16 8.11851e-16 0)
(8.11851e-16 -8.11851e-16 -2.02963e-16)
(-1.6237e-15 1.6237e-15 0)
(-1.6237e-15 1.6237e-15 0)
(0 0 0)
(0 0 -2.02963e-16)
(0 0 0)
(0 0 0)
(-1.6237e-15 1.6237e-15 0)
(-8.11851e-16 8.11851e-16 -2.02963e-16)
(-1.6237e-15 1.6237e-15 0)
(0 0 -2.02963e-16)
(-8.11851e-16 8.11851e-16 -2.02963e-16)
(0 0 -2.02963e-16)
(-1.6237e-15 1.6237e-15 -2.02963e-16)
(-1.6237e-15 1.6237e-15 0)
(-1.6237e-15 1.6237e-15 -2.02963e-16)
(0 0 -2.02963e-16)
(0 0 -2.02963e-16)
(0 0 -2.02963e-16)
(0 0 0)
(8.11851e-16 8.11851e-16 -2.02963e-16)
(-8.11851e-16 -8.11851e-16 0)
(8.11851e-16 8.11851e-16 -2.02963e-16)
(0 0 -2.02963e-16)
(0 0 -2.02963e-16)
(8.11851e-16 8.11851e-16 -2.02963e-16)
(0 0 -2.02963e-16)
(0 0 0)
(0 0 -2.02963e-16)
(0 0 -2.02963e-16)
(1.6237e-15 1.6237e-15 -2.02963e-16)
(0 0 0)
(-8.11851e-16 -8.11851e-16 0)
(-1.6237e-15 -1.6237e-15 0)
(0 0 0)
(-8.11851e-16 -8.11851e-16 0)
(8.11851e-16 8.11851e-16 -2.02963e-16)
(-1.6237e-15 -1.6237e-15 0)
(-1.6237e-15 -1.6237e-15 0)
(0 0 0)
(0 0 -2.02963e-16)
(0 0 0)
(0 0 0)
)
;
    }
    AMI1
    {
        type            cyclicAMI;
        value           nonuniform 0();
    }
    AMI2
    {
        type            cyclicAMI;