/*--------------------------------*- C++ -*----------------------------------*\
| =========                 |                                                 |
| \\      /  F ield         | OpenFOAM: The Open Source CFD Toolbox           |
|  \\    /   O peration     | Version:  2.3.1                                 |
|   \\  /    A nd           | Web:      www.OpenFOAM.org                      |
|    \\/     M anipulation  |                                                 |
\*---------------------------------------------------------------------------*/
FoamFile
{
    version     2.0;
    format      ascii;
    class       surfaceScalarField;
    location    "0.8";
    object      phi;
}
// * * * * * * * * * * * * * * * * * * * * * * * * * * * * * * * * * * * * * //

dimensions      [0 3 -1 0 0 0 0];

internalField   nonuniform List<scalar> 
5856
(
6.57241e-08
-6.57241e-08
3.33014e-07
-2.6729e-07
6.65873e-07
-3.32859e-07
9.55191e-07
-2.89317e-07
1.13765e-06
-1.82462e-07
1.19066e-06
-5.3009e-08
1.16054e-06
3.01186e-08
1.08407e-06
7.64724e-08
9.98717e-07
8.5354e-08
8.74596e-07
1.24121e-07
6.03764e-07
2.70832e-07
4.68355e-07
1.35409e-07
1.74468e-07
-2.40192e-07
5.28669e-07
-6.21491e-07
9.01882e-07
-7.06073e-07
1.18349e-06
-5.70922e-07
1.32737e-06
-3.26349e-07
1.35177e-06
-7.7409e-08
1.23119e-06
1.50707e-07
1.03349e-06
2.74163e-07
7.49481e-07
3.69367e-07
2.12632e-07
6.60971e-07
-6.57761e-07
1.14122e-06
1.47887e-06
-1.66828e-06
2.76734e-07
-5.16926e-07
6.85819e-07
-1.03058e-06
1.02963e-06
-1.04988e-06
1.25377e-06
-7.95061e-07
1.33858e-06
-4.11166e-07
1.24321e-06
1.79647e-08
1.01231e-06
3.81611e-07
6.804e-07
6.06071e-07
1.67641e-07
8.82126e-07
-6.90772e-07
1.51938e-06
-1.68883e-06
2.13929e-06
2.30851e-06
-2.51847e-06
2.89128e-07
-8.06054e-07
6.1138e-07
-1.35283e-06
8.30581e-07
-1.26908e-06
9.5744e-07
-9.2192e-07
9.97226e-07
-4.50952e-07
9.28601e-07
8.65901e-08
7.24832e-07
5.85379e-07
3.78508e-07
9.52395e-07
-2.39625e-07
1.50026e-06
-1.1357e-06
2.41545e-06
-1.97889e-06
2.98248e-06
2.86722e-06
-2.5376e-06
2.1554e-07
-1.02159e-06
3.6104e-07
-1.49833e-06
4.50629e-07
-1.35867e-06
5.36302e-07
-1.00759e-06
5.98099e-07
-5.12749e-07
6.00889e-07
8.38002e-08
4.89483e-07
6.96785e-07
2.13657e-07
1.22822e-06
-3.44379e-07
2.05829e-06
-1.10195e-06
3.17302e-06
-1.75498e-06
3.63552e-06
3.26467e-06
-2.15244e-06
6.00068e-08
-1.0816e-06
1.65622e-08
-1.45488e-06
8.04565e-09
-1.35016e-06
7.98006e-08
-1.07935e-06
2.0577e-07
-6.38719e-07
3.28022e-07
-3.84513e-08
3.63791e-07
6.61016e-07
2.26054e-07
1.36596e-06
-1.50504e-07
2.43485e-06
-7.05006e-07
3.72753e-06
-1.22204e-06
4.15256e-06
3.6215e-06
-1.57887e-06
-1.32707e-07
-9.48893e-07
-3.42583e-07
-1.24501e-06
-4.43467e-07
-1.24927e-06
-3.89804e-07
-1.13301e-06
-1.91062e-07
-8.37461e-07
7.97679e-08
-3.09282e-07
3.15003e-07
4.25781e-07
3.83529e-07
1.29743e-06
2.58156e-07
2.56023e-06
-5.15912e-08
4.03727e-06
-4.65043e-07
4.56601e-06
4.00695e-06
-8.50501e-07
-3.0952e-07
-6.39373e-07
-6.69176e-07
-8.85353e-07
-8.81307e-07
-1.03714e-06
-8.68976e-07
-1.14534e-06
-6.18677e-07
-1.08776e-06
-1.98197e-07
-7.29762e-07
2.58058e-07
-3.04744e-08
5.88048e-07
9.67443e-07
7.61429e-07
2.38684e-06
7.46215e-07
4.05249e-06
4.84147e-07
4.82808e-06
4.41062e-06
8.04852e-08
-4.27376e-07
-2.11997e-07
-8.95622e-07
-4.17107e-07
-1.19697e-06
-7.35787e-07
-1.24466e-06
-1.09766e-06
-1.001e-06
-1.33141e-06
-5.05647e-07
-1.22512e-06
1.1413e-07
-6.50251e-07
7.14843e-07
3.6673e-07
1.21667e-06
1.88502e-06
1.55147e-06
3.71768e-06
1.54809e-06
4.83146e-06
4.7263e-06
1.23241e-06
-4.61997e-07
2.5e-07
-8.38926e-07
-4.01778e-08
-1.08789e-06
-4.86823e-07
-1.15464e-06
-1.03092e-06
-9.88853e-07
-1.49719e-06
-5.88898e-07
-1.62507e-06
2.30991e-08
-1.26225e-06
7.29362e-07
-3.39533e-07
1.50888e-06
1.1055e-06
2.20768e-06
3.01888e-06
2.57413e-06
4.465e-06
4.78954e-06
2.5109e-06
-8.61265e-08
3.36127e-07
-5.10004e-08
-7.53039e-08
-3.93289e-08
-4.98495e-07
-1.91163e-08
-1.05113e-06
2.52152e-08
-1.54153e-06
1.2765e-07
-1.72751e-06
3.78938e-07
-1.51354e-06
8.79851e-07
-8.40446e-07
1.65832e-06
3.27029e-07
2.5991e-06
2.07811e-06
3.35289e-06
3.71121e-06
4.46818e-06
3.67425e-06
1.3596e-06
-1.02348e-06
2.03729e-06
-7.52988e-07
2.37843e-06
-8.39633e-07
2.49479e-06
-1.16749e-06
2.34165e-06
-1.38839e-06
2.00271e-06
-1.38857e-06
1.67951e-06
-1.19034e-06
1.61593e-06
-7.76862e-07
1.96925e-06
-2.62952e-08
2.80367e-06
1.24369e-06
3.76956e-06
2.74532e-06
4.46774e-06
3.77e-06
-5.43523e-07
6.78932e-07
-1.25442e-06
7.10897e-07
-1.80428e-06
5.49863e-07
-2.09761e-06
2.93327e-07
-2.12316e-06
2.55529e-08
-1.85618e-06
-2.6698e-07
-1.34333e-06
-5.12858e-07
-6.88872e-07
-6.54453e-07
-5.8527e-08
-6.30345e-07
3.21633e-07
-3.8016e-07
2.74001e-07
4.76316e-08
2.74001e-07
-2.50086e-06
1.51151e-06
-3.04792e-06
1.25795e-06
-3.34702e-06
8.48972e-07
-3.45346e-06
3.99763e-07
-3.34789e-06
-8.00135e-08
-3.11639e-06
-4.98486e-07
-2.69603e-06
-9.33216e-07
-2.06746e-06
-1.28303e-06
-1.28101e-06
-1.41679e-06
-5.00593e-07
-1.16058e-06
-2.9118e-09
-4.5005e-07
2.71089e-07
-3.03892e-06
2.03196e-06
-3.32412e-06
1.54315e-06
-3.49261e-06
1.01746e-06
-3.59154e-06
4.98692e-07
-3.64565e-06
-2.58986e-08
-3.56344e-06
-5.80693e-07
-3.34645e-06
-1.15021e-06
-2.9237e-06
-1.70577e-06
-2.22196e-06
-2.11853e-06
-1.26051e-06
-2.12203e-06
-3.21577e-07
-1.38898e-06
-5.04877e-08
-2.82678e-06
2.32114e-06
-2.97264e-06
1.68901e-06
-3.05874e-06
1.10355e-06
-3.12126e-06
5.61215e-07
-3.17279e-06
2.56259e-08
-3.20891e-06
-5.4457e-07
-3.18513e-06
-1.174e-06
-3.03483e-06
-1.85607e-06
-2.63177e-06
-2.52159e-06
-1.83012e-06
-2.92369e-06
-7.08468e-07
-2.51063e-06
-7.58955e-07
-2.35985e-06
2.52856e-06
-2.47604e-06
1.8052e-06
-2.54853e-06
1.17604e-06
-2.60392e-06
6.16602e-07
-2.64967e-06
7.13795e-08
-2.67884e-06
-5.154e-07
-2.68369e-06
-1.16915e-06
-2.64587e-06
-1.89389e-06
-2.49276e-06
-2.6747e-06
-2.02667e-06
-3.38978e-06
-1.03729e-06
-3.50001e-06
-1.79625e-06
-1.81038e-06
2.76008e-06
-1.95398e-06
1.9488e-06
-2.03625e-06
1.25831e-06
-2.10189e-06
6.82246e-07
-2.1625e-06
1.31986e-07
-2.19516e-06
-4.82742e-07
-2.17901e-06
-1.18529e-06
-2.11766e-06
-1.95524e-06
-2.02573e-06
-2.76663e-06
-1.81433e-06
-3.60118e-06
-1.14024e-06
-4.17409e-06
-2.93649e-06
-1.14908e-06
3.05865e-06
-1.32911e-06
2.12883e-06
-1.411e-06
1.34021e-06
-1.48451e-06
7.55754e-07
-1.58002e-06
2.27495e-07
-1.65625e-06
-4.06511e-07
-1.66597e-06
-1.17557e-06
-1.59171e-06
-2.0295e-06
-1.46693e-06
-2.89141e-06
-1.33618e-06
-3.73193e-06
-9.89162e-07
-4.5211e-06
-3.92566e-06
-2.99045e-07
3.43818e-06
-5.41605e-07
2.37139e-06
-6.42816e-07
1.44142e-06
-7.21876e-07
8.34813e-07
-8.46074e-07
3.51694e-07
-9.71525e-07
-2.81061e-07
-1.03667e-06
-1.11042e-06
-1.00281e-06
-2.06336e-06
-8.81946e-07
-3.01227e-06
-7.51581e-07
-3.8623e-06
-6.38641e-07
-4.63404e-06
-4.5643e-06
8.18602e-07
3.85199e-06
4.91941e-07
2.69805e-06
3.10937e-07
1.62242e-06
2.06581e-07
9.39169e-07
7.29036e-08
4.85371e-07
-9.63549e-08
-1.11802e-07
-2.2269e-07
-9.84088e-07
-2.55819e-07
-2.03024e-06
-2.05001e-07
-3.06309e-06
-1.31203e-07
-3.93609e-06
-1.56544e-07
-4.6087e-06
-4.72084e-06
2.18948e-06
4.1734e-06
1.82687e-06
3.06067e-06
1.53326e-06
1.91603e-06
1.33447e-06
1.13796e-06
1.16663e-06
6.53218e-07
9.85148e-07
6.96763e-08
8.27148e-07
-8.26088e-07
7.30963e-07
-1.93405e-06
6.73281e-07
-3.00541e-06
5.79086e-07
-3.8419e-06
3.78398e-07
-4.40802e-06
-4.34244e-06
3.60881e-06
4.23883e-06
3.32929e-06
3.34019e-06
2.98266e-06
2.26266e-06
2.68041e-06
1.4402e-06
2.4464e-06
8.87228e-07
2.25559e-06
2.60485e-07
2.10607e-06
-6.76567e-07
1.99289e-06
-1.82087e-06
1.85411e-06
-2.86662e-06
1.55942e-06
-3.54721e-06
1.02534e-06
-3.87394e-06
-3.3171e-06
4.76076e-06
3.94581e-06
4.70811e-06
3.39284e-06
4.44123e-06
2.52955e-06
4.11926e-06
1.76217e-06
3.85317e-06
1.15332e-06
3.66917e-06
4.44479e-07
3.55873e-06
-5.66123e-07
3.48507e-06
-1.74721e-06
3.36609e-06
-2.74764e-06
3.04041e-06
-3.22154e-06
2.12135e-06
-2.95488e-06
-1.19574e-06
6.54686e-08
-6.54686e-08
3.32539e-07
-2.6707e-07
6.6525e-07
-3.32711e-07
9.54503e-07
-2.89253e-07
1.13697e-06
-1.82472e-07
1.19011e-06
-5.31351e-08
1.16017e-06
2.99447e-08
1.08394e-06
7.62293e-08
9.98783e-07
8.51531e-08
8.74694e-07
1.24089e-07
6.03801e-07
2.70892e-07
4.68441e-07
1.35361e-07
1.74201e-07
-2.39669e-07
5.28037e-07
-6.20907e-07
9.01071e-07
-7.05745e-07
1.18262e-06
-5.70807e-07
1.3265e-06
-3.2635e-07
1.35087e-06
-7.74978e-08
1.23043e-06
1.50385e-07
1.03293e-06
2.73721e-07
7.49043e-07
3.69044e-07
2.12049e-07
6.61083e-07
-6.58564e-07
1.14151e-06
1.47893e-06
-1.66906e-06
2.76327e-07
-5.15996e-07
6.85217e-07
-1.0298e-06
1.02902e-06
-1.04955e-06
1.2532e-06
-7.94993e-07
1.33803e-06
-4.11175e-07
1.24262e-06
1.79147e-08
1.01167e-06
3.81332e-07
6.79792e-07
6.05598e-07
1.66923e-07
8.81913e-07
-6.91621e-07
1.51963e-06
-1.68941e-06
2.13929e-06
2.30805e-06
-2.51852e-06
2.88881e-07
-8.04877e-07
6.11188e-07
-1.3521e-06
8.30526e-07
-1.26888e-06
9.57431e-07
-9.21898e-07
9.97162e-07
-4.50906e-07
9.28418e-07
8.66589e-08
7.2451e-07
5.85241e-07
3.78105e-07
9.52003e-07
-2.40157e-07
1.50017e-06
-1.13598e-06
2.41545e-06
-1.97843e-06
2.98174e-06
2.86612e-06
-2.5365e-06
2.1553e-07
-1.02041e-06
3.61247e-07
-1.49782e-06
4.50967e-07
-1.3586e-06
5.36628e-07
-1.00756e-06
5.98344e-07
-5.12622e-07
6.01031e-07
8.39712e-08
4.8951e-07
6.96762e-07
2.13595e-07
1.22792e-06
-3.44411e-07
2.05818e-06
-1.10145e-06
3.17249e-06
-1.75364e-06
3.63393e-06
3.26298e-06
-2.1505e-06
6.00933e-08
-1.0805e-06
1.68727e-08
-1.4546e-06
8.46558e-09
-1.3502e-06
8.02404e-08
-1.07933e-06
2.06231e-07
-6.38612e-07
3.28496e-07
-3.82938e-08
3.64211e-07
6.61046e-07
2.26427e-07
1.3657e-06
-1.49993e-07
2.4346e-06
-7.03981e-07
3.72648e-06
-1.22032e-06
4.15026e-06
3.61926e-06
-1.5766e-06
-1.32671e-07
-9.4783e-07
-3.42426e-07
-1.24484e-06
-4.43154e-07
-1.24947e-06
-3.89311e-07
-1.13318e-06
-1.90393e-07
-8.37529e-07
8.06021e-08
-3.09289e-07
3.15884e-07
4.25764e-07
3.84382e-07
1.29721e-06
2.591e-07
2.55988e-06
-5.04496e-08
4.03603e-06
-4.63527e-07
4.56334e-06
4.00426e-06
-8.48524e-07
-3.09742e-07
-6.38088e-07
-6.69481e-07
-8.85105e-07
-8.8141e-07
-1.03754e-06
-8.68636e-07
-1.14595e-06
-6.17868e-07
-1.0883e-06
-1.97019e-07
-7.30138e-07
2.59433e-07
-3.06888e-08
5.894e-07
9.67239e-07
7.62664e-07
2.38662e-06
7.47176e-07
4.05152e-06
4.84927e-07
4.82559e-06
4.4077e-06
8.14825e-08
-4.27931e-07
-2.10157e-07
-8.96591e-07
-4.16445e-07
-1.19779e-06
-7.36338e-07
-1.24485e-06
-1.0989e-06
-1.00036e-06
-1.33278e-06
-5.04317e-07
-1.22618e-06
1.15864e-07
-6.50869e-07
7.16637e-07
3.66466e-07
1.21815e-06
1.8851e-06
1.55225e-06
3.71742e-06
1.548e-06
4.82983e-06
4.72375e-06
1.23195e-06
-4.63006e-07
2.52849e-07
-8.40008e-07
-3.94434e-08
-1.08871e-06
-4.8764e-07
-1.15489e-06
-1.03271e-06
-9.88346e-07
-1.49933e-06
-5.87638e-07
-1.62689e-06
2.48754e-08
-1.26338e-06
7.3146e-07
-3.40119e-07
1.51067e-06
1.10589e-06
2.20856e-06
3.01954e-06
2.57361e-06
4.46478e-06
4.78816e-06
2.5092e-06
-8.57379e-08
3.38587e-07
-5.0224e-08
-7.49573e-08
-3.81281e-08
-4.99736e-07
-1.74857e-08
-1.05335e-06
2.67411e-08
-1.54356e-06
1.29046e-07
-1.72919e-06
3.80541e-07
-1.51488e-06
8.81687e-07
-8.41265e-07
1.66032e-06
3.27254e-07
2.60047e-06
2.07939e-06
3.35278e-06
3.71248e-06
4.46853e-06
3.67241e-06
1.36371e-06
-1.02513e-06
2.04237e-06
-7.53617e-07
2.38317e-06
-8.40535e-07
2.49849e-06
-1.16867e-06
2.34439e-06
-1.38946e-06
2.00459e-06
-1.38939e-06
1.68081e-06
-1.19109e-06
1.61712e-06
-7.77582e-07
1.97092e-06
-2.65452e-08
2.80552e-06
1.24479e-06
3.77057e-06
2.74743e-06
4.46715e-06
3.77196e-06
-5.43698e-07
6.79059e-07
-1.25465e-06
7.10947e-07
-1.80459e-06
5.49944e-07
-2.09807e-06
2.93484e-07
-2.12379e-06
2.57165e-08
-1.85704e-06
-2.66752e-07
-1.34436e-06
-5.12681e-07
-6.89999e-07
-6.54357e-07
-5.95899e-08
-6.30409e-07
3.2088e-07
-3.8047e-07
2.73647e-07
4.7233e-08
2.73647e-07
-2.50142e-06
1.51142e-06
-3.04844e-06
1.25796e-06
-3.34772e-06
8.49228e-07
-3.45442e-06
4.00185e-07
-3.34913e-06
-7.95816e-08
-3.11771e-06
-4.98165e-07
-2.69736e-06
-9.33033e-07
-2.06869e-06
-1.28302e-06
-1.28206e-06
-1.41704e-06
-5.01351e-07
-1.16118e-06
-3.21295e-09
-4.50905e-07
2.70434e-07
-3.03871e-06
2.0316e-06
-3.3241e-06
1.54336e-06
-3.49303e-06
1.01816e-06
-3.59245e-06
4.99602e-07
-3.64691e-06
-2.5121e-08
-3.56493e-06
-5.80148e-07
-3.34796e-06
-1.15e-06
-2.92511e-06
-1.70588e-06
-2.22317e-06
-2.11899e-06
-1.26139e-06
-2.12296e-06
-3.21982e-07
-1.39031e-06
-5.15479e-08
-2.82558e-06
2.32069e-06
-2.97179e-06
1.68956e-06
-3.05846e-06
1.10483e-06
-3.12162e-06
5.62763e-07
-3.17368e-06
2.69426e-08
-3.21014e-06
-5.43692e-07
-3.18646e-06
-1.17367e-06
-3.03611e-06
-1.85623e-06
-2.63292e-06
-2.52218e-06
-1.83107e-06
-2.92481e-06
-7.08991e-07
-2.51239e-06
-7.60539e-07
-2.35781e-06
2.528e-06
-2.47428e-06
1.80604e-06
-2.54741e-06
1.17796e-06
-2.60357e-06
6.18924e-07
-2.65002e-06
7.33947e-08
-2.6796e-06
-5.14118e-07
-2.6846e-06
-1.16867e-06
-2.64674e-06
-1.89409e-06
-2.49352e-06
-2.6754e-06
-2.02738e-06
-3.39095e-06
-1.03785e-06
-3.50192e-06
-1.79839e-06
-1.80786e-06
2.75926e-06
-1.95162e-06
1.9498e-06
-2.03457e-06
1.26092e-06
-2.10114e-06
6.85489e-07
-2.16257e-06
1.34824e-07
-2.19564e-06
-4.81041e-07
-2.17965e-06
-1.18467e-06
-2.11823e-06
-1.95551e-06
-2.02611e-06
-2.76752e-06
-1.81459e-06
-3.60246e-06
-1.14061e-06
-4.17591e-06
-2.939e-06
-1.14666e-06
3.05739e-06
-1.32657e-06
2.12972e-06
-1.40905e-06
1.34339e-06
-1.48358e-06
7.60026e-07
-1.57999e-06
2.31226e-07
-1.65673e-06
-4.04301e-07
-1.66659e-06
-1.1748e-06
-1.59224e-06
-2.02985e-06
-1.46722e-06
-2.89254e-06
-1.33618e-06
-3.73351e-06
-9.8928e-07
-4.52281e-06
-3.92828e-06
-2.97505e-07
3.43638e-06
-5.39516e-07
2.37173e-06
-6.40851e-07
1.44473e-06
-7.20604e-07
8.39779e-07
-8.46247e-07
3.56868e-07
-9.72072e-07
-2.78477e-07
-1.03736e-06
-1.10951e-06
-1.00339e-06
-2.06382e-06
-8.82277e-07
-3.01365e-06
-7.51566e-07
-3.86422e-06
-6.38682e-07
-4.63569e-06
-4.56696e-06
8.18445e-07
3.84989e-06
4.92492e-07
2.69768e-06
3.12041e-07
1.62518e-06
2.07173e-07
9.44647e-07
7.32245e-08
4.90817e-07
-9.68073e-08
-1.08445e-07
-2.23351e-07
-9.82971e-07
-2.56386e-07
-2.03079e-06
-2.05358e-07
-3.06468e-06
-1.31292e-07
-3.93828e-06
-1.5655e-07
-4.61043e-06
-4.72351e-06
2.18738e-06
4.1717e-06
1.8251e-06
3.05996e-06
1.53233e-06
1.91795e-06
1.33433e-06
1.14265e-06
1.16659e-06
6.58554e-07
9.84818e-07
7.33279e-08
8.2676e-07
-8.24913e-07
7.30603e-07
-1.93463e-06
6.73007e-07
-3.00708e-06
5.78849e-07
-3.84413e-06
3.78427e-07
-4.41001e-06
-4.34508e-06
3.60576e-06
4.23835e-06
3.32587e-06
3.33985e-06
2.97982e-06
2.26399e-06
2.67871e-06
1.44376e-06
2.44585e-06
8.91416e-07
2.25556e-06
2.63619e-07
2.10608e-06
-6.75435e-07
1.99285e-06
-1.8214e-06
1.85401e-06
-2.86824e-06
1.55921e-06
-3.54933e-06
1.02567e-06
-3.87647e-06
-3.31941e-06
4.75856e-06
3.94694e-06
4.70491e-06
3.3935e-06
4.43809e-06
2.53082e-06
4.11721e-06
1.76463e-06
3.85238e-06
1.15625e-06
3.66922e-06
4.4678e-07
3.55895e-06
-5.65169e-07
3.48517e-06
-1.74762e-06
3.36595e-06
-2.74903e-06
3.0401e-06
-3.22347e-06
2.12123e-06
-2.95761e-06
-1.19818e-06
6.52187e-08
-6.52188e-08
3.32386e-07
-2.67167e-07
6.65215e-07
-3.32829e-07
9.54414e-07
-2.89199e-07
1.1366e-06
-1.82188e-07
1.18903e-06
-5.2427e-08
1.15857e-06
3.04593e-08
1.08188e-06
7.66891e-08
9.9649e-07
8.53897e-08
8.72243e-07
1.24248e-07
6.00987e-07
2.71255e-07
4.68853e-07
1.32135e-07
1.74275e-07
-2.39494e-07
5.28138e-07
-6.21031e-07
9.01098e-07
-7.05789e-07
1.18233e-06
-5.70434e-07
1.3256e-06
-3.25453e-07
1.34966e-06
-7.64928e-08
1.22825e-06
1.51869e-07
1.02978e-06
2.75161e-07
7.44968e-07
3.70204e-07
2.0694e-07
6.62276e-07
-6.64556e-07
1.14275e-06
1.47935e-06
-1.67505e-06
2.76405e-07
-5.15898e-07
6.85343e-07
-1.02997e-06
1.02903e-06
-1.04948e-06
1.2529e-06
-7.94305e-07
1.33713e-06
-4.09681e-07
1.24053e-06
2.011e-08
1.00866e-06
3.83736e-07
6.75877e-07
6.07946e-07
1.62167e-07
8.83914e-07
-6.97244e-07
1.52169e-06
-1.69521e-06
2.14072e-06
2.30783e-06
-2.52369e-06
2.88955e-07
-8.04853e-07
6.11238e-07
-1.35225e-06
8.30439e-07
-1.26868e-06
9.57073e-07
-9.20939e-07
9.96351e-07
-4.48959e-07
9.26885e-07
8.95762e-08
7.21999e-07
5.88621e-07
3.74662e-07
9.55283e-07
-2.44214e-07
1.50279e-06
-1.14046e-06
2.41793e-06
-1.98305e-06
2.98331e-06
2.86575e-06
-2.54097e-06
2.15544e-07
-1.0204e-06
3.6118e-07
-1.49789e-06
4.50838e-07
-1.35834e-06
5.36368e-07
-1.00647e-06
5.97877e-07
-5.10468e-07
6.00173e-07
8.72793e-08
4.88017e-07
7.00777e-07
2.11444e-07
1.23186e-06
-3.46867e-07
2.0611e-06
-1.10426e-06
3.17532e-06
-1.75722e-06
3.63627e-06
3.26349e-06
-2.15496e-06
6.01025e-08
-1.0805e-06
1.68125e-08
-1.4546e-06
8.4789e-09
-1.35e-06
8.03218e-08
-1.07831e-06
2.0618e-07
-6.36326e-07
3.28336e-07
-3.48767e-08
3.63786e-07
6.65327e-07
2.25699e-07
1.36994e-06
-1.50794e-07
2.43759e-06
-7.05128e-07
3.72966e-06
-1.22278e-06
4.15392e-06
3.62142e-06
-1.58072e-06
-1.32571e-07
-9.47929e-07
-3.4222e-07
-1.24495e-06
-4.4267e-07
-1.24955e-06
-3.88621e-07
-1.13236e-06
-1.89601e-07
-8.35346e-07
8.12506e-08
-3.05729e-07
3.16397e-07
4.3018e-07
3.84732e-07
1.30161e-06
2.59407e-07
2.56292e-06
-5.03175e-08
4.03938e-06
-4.64515e-07
4.56812e-06
4.00816e-06
-8.51248e-07
-3.0942e-07
-6.38509e-07
-6.68673e-07
-8.85698e-07
-8.79946e-07
-1.03828e-06
-8.66648e-07
-1.14566e-06
-6.1585e-07
-1.08614e-06
-1.95319e-07
-7.26259e-07
2.60668e-07
-2.58072e-08
5.90157e-07
9.72119e-07
7.63144e-07
2.38993e-06
7.47739e-07
4.05479e-06
4.85313e-07
4.83055e-06
4.41238e-06
8.10892e-08
-4.27637e-07
-2.10872e-07
-8.95483e-07
-4.17852e-07
-1.19572e-06
-7.38039e-07
-1.24187e-06
-1.09952e-06
-9.96912e-07
-1.3311e-06
-5.01217e-07
-1.22195e-06
1.17936e-07
-6.4496e-07
7.17117e-07
3.72938e-07
1.21786e-06
1.88919e-06
1.55206e-06
3.72059e-06
1.54862e-06
4.83399e-06
4.72766e-06
1.23334e-06
-4.63145e-07
2.52273e-07
-8.39674e-07
-4.13227e-08
-1.08808e-06
-4.89633e-07
-1.15351e-06
-1.03409e-06
-9.85832e-07
-1.49878e-06
-5.84357e-07
-1.62343e-06
2.80977e-08
-1.25741e-06
7.31447e-07
-3.30412e-07
1.50943e-06
1.1112e-06
2.20677e-06
3.02326e-06
2.57281e-06
4.46794e-06
4.79026e-06
2.51021e-06
-8.59232e-08
3.38196e-07
-5.17704e-08
-7.54756e-08
-4.08226e-08
-5.00581e-07
-2.02397e-08
-1.05467e-06
2.47923e-08
-1.54381e-06
1.28564e-07
-1.7272e-06
3.81067e-07
-1.50992e-06
8.83516e-07
-8.32861e-07
1.6595e-06
3.3522e-07
2.59767e-06
2.08508e-06
3.34985e-06
3.71576e-06
4.46923e-06
3.67089e-06
1.36452e-06
-1.02632e-06
2.04167e-06
-7.52622e-07
2.38132e-06
-8.40233e-07
2.49521e-06
-1.16857e-06
2.33994e-06
-1.38853e-06
2.00028e-06
-1.38754e-06
1.67843e-06
-1.18807e-06
1.61705e-06
-7.71484e-07
1.97097e-06
-1.86949e-08
2.8035e-06
1.25255e-06
3.76688e-06
2.75238e-06
4.46315e-06
3.77296e-06
-5.47149e-07
6.79284e-07
-1.25774e-06
7.1059e-07
-1.80691e-06
5.49171e-07
-2.09959e-06
2.9268e-07
-2.12483e-06
2.52383e-08
-1.85791e-06
-2.66918e-07
-1.34561e-06
-5.12303e-07
-6.9191e-07
-6.53697e-07
-6.19812e-08
-6.29929e-07
3.18715e-07
-3.80697e-07
2.7236e-07
4.6355e-08
2.7236e-07
-2.5064e-06
1.51064e-06
-3.05197e-06
1.25615e-06
-3.34971e-06
8.46917e-07
-3.45496e-06
3.97932e-07
-3.34851e-06
-8.12144e-08
-3.11663e-06
-4.98798e-07
-2.69639e-06
-9.32548e-07
-2.06845e-06
-1.28164e-06
-1.28282e-06
-1.41556e-06
-5.0275e-07
-1.16076e-06
-4.11135e-09
-4.52284e-07
2.68249e-07
-3.04259e-06
2.02953e-06
-3.32625e-06
1.53981e-06
-3.49308e-06
1.01375e-06
-3.5903e-06
4.95149e-07
-3.64313e-06
-2.83788e-08
-3.55997e-06
-5.81955e-07
-3.34279e-06
-1.14973e-06
-2.92075e-06
-1.70368e-06
-2.22051e-06
-2.1158e-06
-1.26068e-06
-2.12059e-06
-3.22315e-07
-1.39065e-06
-5.40665e-08
-2.8294e-06
2.31796e-06
-2.97412e-06
1.68453e-06
-3.05862e-06
1.09825e-06
-3.1194e-06
5.55931e-07
-3.16909e-06
2.13146e-08
-3.20372e-06
-5.47326e-07
-3.17897e-06
-1.17448e-06
-3.02862e-06
-1.85404e-06
-2.6268e-06
-2.51762e-06
-1.8276e-06
-2.91979e-06
-7.08245e-07
-2.51001e-06
-7.62312e-07
-2.36243e-06
2.52543e-06
-2.47787e-06
1.79997e-06
-2.54906e-06
1.16944e-06
-2.60296e-06
6.09838e-07
-2.64714e-06
6.54877e-08
-2.67478e-06
-5.19683e-07
-2.67816e-06
-1.1711e-06
-2.63925e-06
-1.89294e-06
-2.4861e-06
-2.67077e-06
-2.02178e-06
-3.38411e-06
-1.03558e-06
-3.49621e-06
-1.79789e-06
-1.81269e-06
2.7574e-06
-1.9556e-06
1.94287e-06
-2.03666e-06
1.2505e-06
-2.10128e-06
6.74454e-07
-2.16098e-06
1.25192e-07
-2.19271e-06
-4.87955e-07
-2.17542e-06
-1.18839e-06
-2.11284e-06
-1.95552e-06
-2.01999e-06
-2.76363e-06
-1.8089e-06
-3.5952e-06
-1.1374e-06
-4.16771e-06
-2.93529e-06
-1.15035e-06
3.05651e-06
-1.32973e-06
2.12226e-06
-1.41078e-06
1.33155e-06
-1.48416e-06
7.47838e-07
-1.57974e-06
2.20765e-07
-1.65564e-06
-4.12052e-07
-1.66451e-06
-1.17952e-06
-1.58915e-06
-2.03088e-06
-1.46336e-06
-2.88943e-06
-1.33207e-06
-3.72649e-06
-9.86406e-07
-4.51337e-06
-3.92169e-06
-2.98789e-07
3.43639e-06
-5.41082e-07
2.36455e-06
-6.42173e-07
1.43264e-06
-7.22544e-07
8.28209e-07
-8.47579e-07
3.458e-07
-9.73592e-07
-2.86039e-07
-1.03795e-06
-1.11516e-06
-1.00261e-06
-2.06622e-06
-8.80427e-07
-3.01161e-06
-7.49268e-07
-3.85765e-06
-6.36834e-07
-4.62581e-06
-4.55853e-06
8.19923e-07
3.8498e-06
4.93436e-07
2.69104e-06
3.11872e-07
1.6142e-06
2.05746e-07
9.34335e-07
6.88707e-08
4.82675e-07
-1.01327e-07
-1.15842e-07
-2.26851e-07
-9.89636e-07
-2.58028e-07
-2.03505e-06
-2.0529e-07
-3.06435e-06
-1.30271e-07
-3.93267e-06
-1.55507e-07
-4.60057e-06
-4.71404e-06
2.18975e-06
4.17026e-06
1.82749e-06
3.05329e-06
1.5331e-06
1.90859e-06
1.33215e-06
1.13529e-06
1.16148e-06
6.53344e-07
9.78792e-07
6.68498e-08
8.21155e-07
-8.31999e-07
7.2701e-07
-1.9409e-06
6.71613e-07
-3.00895e-06
5.78907e-07
-3.83996e-06
3.78975e-07
-4.40064e-06
-4.33506e-06
3.60587e-06
4.23528e-06
3.32641e-06
3.33275e-06
2.97901e-06
2.25599e-06
2.67563e-06
1.43867e-06
2.44015e-06
8.8883e-07
2.2484e-06
2.58592e-07
2.09979e-06
-6.83385e-07
1.98854e-06
-1.82965e-06
1.85177e-06
-2.87219e-06
1.55856e-06
-3.54675e-06
1.02615e-06
-3.86822e-06
-3.30891e-06
4.75495e-06
3.94348e-06
4.70112e-06
3.38658e-06
4.43311e-06
2.524e-06
4.1108e-06
1.76097e-06
3.84546e-06
1.15417e-06
3.66255e-06
4.41509e-07
3.55387e-06
-5.74703e-07
3.48184e-06
-1.75762e-06
3.36398e-06
-2.75433e-06
3.03881e-06
-3.22158e-06
2.12007e-06
-2.94948e-06
-1.18885e-06
6.59757e-08
-6.59757e-08
3.33581e-07
-2.67605e-07
6.66628e-07
-3.33048e-07
9.55913e-07
-2.89285e-07
1.13816e-06
-1.82243e-07
1.19068e-06
-5.25266e-08
1.16022e-06
3.04668e-08
1.08339e-06
7.68227e-08
9.97767e-07
8.56262e-08
8.73546e-07
1.24221e-07
6.02774e-07
2.70772e-07
4.68088e-07
1.34686e-07
1.74769e-07
-2.40744e-07
5.29405e-07
-6.22241e-07
9.02762e-07
-7.06405e-07
1.18419e-06
-5.70715e-07
1.32769e-06
-3.25738e-07
1.35191e-06
-7.67516e-08
1.23073e-06
1.51649e-07
1.03249e-06
2.75059e-07
7.48109e-07
3.7001e-07
2.11467e-07
6.60863e-07
-6.58285e-07
1.14052e-06
1.47816e-06
-1.66835e-06
2.77267e-07
-5.18011e-07
6.86641e-07
-1.03162e-06
1.03038e-06
-1.05014e-06
1.25419e-06
-7.94526e-07
1.33855e-06
-4.10099e-07
1.2425e-06
1.92962e-08
1.01117e-06
3.82982e-07
6.78906e-07
6.07323e-07
1.66306e-07
8.8261e-07
-6.91453e-07
1.51862e-06
-1.68915e-06
2.13822e-06
2.30779e-06
-2.51878e-06
2.89607e-07
-8.07618e-07
6.11886e-07
-1.35389e-06
8.30805e-07
-1.26906e-06
9.57265e-07
-9.20987e-07
9.96641e-07
-4.49474e-07
9.276e-07
8.83366e-08
7.23472e-07
5.8711e-07
3.76935e-07
9.53861e-07
-2.40728e-07
1.50027e-06
-1.13629e-06
2.41418e-06
-1.97963e-06
2.98157e-06
2.86677e-06
-2.5386e-06
2.15828e-07
-1.02345e-06
3.6121e-07
-1.49928e-06
4.50548e-07
-1.3584e-06
5.35915e-07
-1.00635e-06
5.97369e-07
-5.10928e-07
5.99851e-07
8.58537e-08
4.88224e-07
6.98737e-07
2.12326e-07
1.22976e-06
-3.45276e-07
2.05787e-06
-1.10264e-06
3.17155e-06
-1.75613e-06
3.63505e-06
3.26456e-06
-2.15392e-06
6.02213e-08
-1.08367e-06
1.67426e-08
-1.4558e-06
8.18691e-09
-1.34984e-06
7.97578e-08
-1.07792e-06
2.0531e-07
-6.36481e-07
3.27254e-07
-3.60894e-08
3.62833e-07
6.63158e-07
2.25042e-07
1.36755e-06
-1.51354e-07
2.43427e-06
-7.05826e-07
3.72602e-06
-1.22333e-06
4.15256e-06
3.62169e-06
-1.58046e-06
-1.3244e-07
-9.51227e-07
-3.42045e-07
-1.24619e-06
-4.4269e-07
-1.2492e-06
-3.89053e-07
-1.13156e-06
-1.90607e-07
-8.34926e-07
7.95871e-08
-3.06284e-07
3.14368e-07
4.28377e-07
3.82601e-07
1.29932e-06
2.57016e-07
2.55985e-06
-5.26875e-08
4.03572e-06
-4.66292e-07
4.56616e-06
4.00732e-06
-8.51925e-07
-3.09153e-07
-6.42074e-07
-6.68231e-07
-8.87114e-07
-8.79623e-07
-1.03781e-06
-8.66877e-07
-1.14431e-06
-6.16973e-07
-1.08483e-06
-1.97557e-07
-7.257e-07
2.57547e-07
-2.67268e-08
5.86671e-07
9.70195e-07
7.595e-07
2.38703e-06
7.44429e-07
4.05079e-06
4.82825e-07
4.82777e-06
4.41083e-06
7.93159e-08
-4.27439e-07
-2.14635e-07
-8.94881e-07
-4.19671e-07
-1.19488e-06
-7.37811e-07
-1.24153e-06
-1.09765e-06
-9.97964e-07
-1.3284e-06
-5.03824e-07
-1.21984e-06
1.13951e-07
-6.44502e-07
7.12596e-07
3.71551e-07
1.21356e-06
1.88606e-06
1.54849e-06
3.71587e-06
1.54619e-06
4.83007e-06
4.72565e-06
1.23137e-06
-4.62497e-07
2.47862e-07
-8.39516e-07
-4.26519e-08
-1.08714e-06
-4.90189e-07
-1.15239e-06
-1.03241e-06
-9.85992e-07
-1.49479e-06
-5.86636e-07
-1.6192e-06
2.40866e-08
-1.25523e-06
7.26507e-07
-3.3087e-07
1.50485e-06
1.10771e-06
2.20332e-06
3.0174e-06
2.57099e-06
4.4624e-06
4.78733e-06
2.50932e-06
-8.77006e-08
3.35562e-07
-5.40405e-08
-7.6312e-08
-4.26222e-08
-5.01607e-07
-2.11271e-08
-1.0539e-06
2.39264e-08
-1.53984e-06
1.26642e-07
-1.72191e-06
3.77799e-07
-1.50638e-06
8.79422e-07
-8.32492e-07
1.65518e-06
3.3195e-07
2.59426e-06
2.07832e-06
3.34836e-06
3.7083e-06
4.46446e-06
3.67123e-06
1.35467e-06
-1.01911e-06
2.0296e-06
-7.51238e-07
2.36922e-06
-8.41227e-07
2.48366e-06
-1.16834e-06
2.33025e-06
-1.38643e-06
1.99358e-06
-1.38525e-06
1.67461e-06
-1.18741e-06
1.6146e-06
-7.72482e-07
1.96825e-06
-2.17012e-08
2.80047e-06
1.2461e-06
3.76494e-06
2.74383e-06
4.46338e-06
3.76601e-06
-5.43809e-07
6.78495e-07
-1.25448e-06
7.10676e-07
-1.80425e-06
5.49762e-07
-2.0975e-06
2.93258e-07
-2.12305e-06
2.55455e-08
-1.85614e-06
-2.66911e-07
-1.3434e-06
-5.12744e-07
-6.89061e-07
-6.54335e-07
-5.87789e-08
-6.30282e-07
3.21402e-07
-3.80181e-07
2.73854e-07
4.75474e-08
2.73854e-07
-2.5008e-06
1.51094e-06
-3.04757e-06
1.25745e-06
-3.34625e-06
8.48434e-07
-3.45226e-06
3.99275e-07
-3.34642e-06
-8.02966e-08
-3.11486e-06
-4.98468e-07
-2.69468e-06
-9.32923e-07
-2.06645e-06
-1.28257e-06
-1.28042e-06
-1.41631e-06
-5.00375e-07
-1.16022e-06
-2.87644e-09
-4.49951e-07
2.70978e-07
-3.03909e-06
2.03124e-06
-3.32372e-06
1.54209e-06
-3.49148e-06
1.01619e-06
-3.58977e-06
4.97564e-07
-3.64349e-06
-2.65715e-08
-3.56107e-06
-5.80891e-07
-3.34411e-06
-1.14988e-06
-2.92168e-06
-1.705e-06
-2.22049e-06
-2.11751e-06
-1.2597e-06
-2.12101e-06
-3.21365e-07
-1.38829e-06
-5.03867e-08
-2.82754e-06
2.32017e-06
-2.97276e-06
1.68731e-06
-3.05817e-06
1.1016e-06
-3.1201e-06
5.59495e-07
-3.1711e-06
2.44314e-08
-3.20684e-06
-5.45149e-07
-3.18284e-06
-1.17388e-06
-3.03257e-06
-1.85527e-06
-2.62984e-06
-2.52024e-06
-1.8288e-06
-2.92205e-06
-7.07978e-07
-2.50911e-06
-7.58364e-07
-2.36106e-06
2.52731e-06
-2.47665e-06
1.8029e-06
-2.54861e-06
1.17355e-06
-2.60359e-06
6.14477e-07
-2.64899e-06
6.98323e-08
-2.67781e-06
-5.16329e-07
-2.6823e-06
-1.16939e-06
-2.64421e-06
-1.89336e-06
-2.49106e-06
-2.67339e-06
-2.02524e-06
-3.38786e-06
-1.0365e-06
-3.49785e-06
-1.79487e-06
-1.81167e-06
2.75852e-06
-1.95469e-06
1.94592e-06
-2.03651e-06
1.25537e-06
-2.10199e-06
6.79965e-07
-2.16252e-06
1.3036e-07
-2.19501e-06
-4.83845e-07
-2.17855e-06
-1.18585e-06
-2.11683e-06
-1.95507e-06
-2.02465e-06
-2.76557e-06
-1.81324e-06
-3.59927e-06
-1.13943e-06
-4.17167e-06
-2.9343e-06
-1.15023e-06
3.05683e-06
-1.32969e-06
2.12539e-06
-1.41122e-06
1.3369e-06
-1.48487e-06
7.53616e-07
-1.58059e-06
2.26078e-07
-1.65677e-06
-4.07668e-07
-1.66619e-06
-1.17643e-06
-1.59152e-06
-2.02974e-06
-1.46639e-06
-2.8907e-06
-1.33552e-06
-3.73014e-06
-9.88506e-07
-4.51869e-06
-3.9228e-06
-3.00124e-07
3.43627e-06
-5.42234e-07
2.3675e-06
-6.43124e-07
1.43779e-06
-7.22624e-07
8.33116e-07
-8.47186e-07
3.50641e-07
-9.72692e-07
-2.82162e-07
-1.03746e-06
-1.11166e-06
-1.00307e-06
-2.06413e-06
-8.81756e-07
-3.01201e-06
-7.51195e-07
-3.86071e-06
-6.38057e-07
-4.63182e-06
-4.56086e-06
8.17731e-07
3.8499e-06
4.91222e-07
2.694e-06
3.1033e-07
1.61868e-06
2.05639e-07
9.37807e-07
7.12516e-08
4.85029e-07
-9.80371e-08
-1.12873e-07
-2.23871e-07
-9.8583e-07
-2.56307e-07
-2.0317e-06
-2.0491e-07
-3.06341e-06
-1.30817e-07
-3.9348e-06
-1.55969e-07
-4.60667e-06
-4.71683e-06
2.18868e-06
4.17054e-06
1.82615e-06
3.05653e-06
1.53231e-06
1.91253e-06
1.33314e-06
1.13697e-06
1.16498e-06
6.53195e-07
9.83559e-07
6.85454e-08
8.26029e-07
-8.283e-07
7.30581e-07
-1.93625e-06
6.73522e-07
-3.00635e-06
5.79764e-07
-3.84104e-06
3.79004e-07
-4.40591e-06
-4.33782e-06
3.6071e-06
4.23468e-06
3.32798e-06
3.33565e-06
2.98115e-06
2.25936e-06
2.67881e-06
1.4393e-06
2.44475e-06
8.87262e-07
2.25429e-06
2.59002e-07
2.10548e-06
-6.79489e-07
1.99303e-06
-1.82379e-06
1.85472e-06
-2.86804e-06
1.56028e-06
-3.5466e-06
1.02565e-06
-3.87129e-06
-3.31217e-06
4.75734e-06
3.94072e-06
4.70523e-06
3.38776e-06
4.4385e-06
2.52609e-06
4.1169e-06
1.7609e-06
3.85162e-06
1.15254e-06
3.66859e-06
4.42031e-07
3.55915e-06
-5.70053e-07
3.48617e-06
-1.75081e-06
3.36748e-06
-2.74936e-06
3.04174e-06
-3.22085e-06
2.12184e-06
-2.9514e-06
-1.19033e-06
5.44948e-06
-1.17944e-06
-5.29352e-06
5.64835e-06
-9.51857e-07
5.64845e-06
-8.3973e-07
5.38026e-06
-8.99309e-07
4.92886e-06
-9.36986e-07
4.34988e-06
-8.09583e-07
3.69194e-06
-5.32396e-07
3.12037e-06
-2.05293e-07
2.86423e-06
2.29844e-07
3.19595e-06
9.11969e-07
3.99418e-06
1.94709e-06
2.91547e-06
4.84871e-06
6.49626e-06
-1.27557e-06
-6.40013e-06
6.49846e-06
-9.54059e-07
6.42985e-06
-7.71116e-07
6.23004e-06
-6.99498e-07
5.94406e-06
-6.51013e-07
5.64582e-06
-5.11336e-07
5.33212e-06
-2.18695e-07
4.92197e-06
2.04854e-07
4.49239e-06
6.59422e-07
4.28852e-06
1.11584e-06
4.55009e-06
1.68552e-06
2.30323e-06
5.16233e-06
7.38903e-06
-1.21139e-06
-7.45321e-06
7.28617e-06
-8.51201e-07
7.15598e-06
-6.40929e-07
6.97496e-06
-5.18472e-07
6.74926e-06
-4.25319e-07
6.53231e-06
-2.94379e-07
6.37266e-06
-5.90513e-08
6.24023e-06
3.37292e-07
6.07754e-06
8.22112e-07
5.88e-06
1.31337e-06
5.80988e-06
1.75564e-06
2.1079e-06
6.00521e-06
8.10717e-06
-8.29255e-06
7.95953e-06
7.82826e-06
7.69306e-06
7.54554e-06
7.41584e-06
7.31969e-06
7.26504e-06
7.26421e-06
7.27323e-06
7.28471e-06
7.36852e-06
5.44507e-06
3.34945e-06
5.68363e-06
3.15428e-06
5.62646e-06