/*--------------------------------*- C++ -*----------------------------------*\
| =========                 |                                                 |
| \\      /  F ield         | OpenFOAM: The Open Source CFD Toolbox           |
|  \\    /   O peration     | Version:  2.4.0                                 |
|   \\  /    A nd           | Web:      www.OpenFOAM.org                      |
|    \\/     M anipulation  |                                                 |
\*---------------------------------------------------------------------------*/
FoamFile
{
    version     2.0;
    format      ascii;
    class       volScalarField;
    location    "0.04";
    object      nuTilda;
}
// * * * * * * * * * * * * * * * * * * * * * * * * * * * * * * * * * * * * * //

dimensions      [0 2 -1 0 0 0 0];

internalField   nonuniform List<scalar> 
121060
(
8.24624e-05
9.61605e-05
9.51899e-05
8.61573e-05
7.86768e-05
7.16622e-05
6.64927e-05
6.35089e-05
6.18869e-05
6.13067e-05
6.10663e-05
6.09045e-05
9.22671e-05
9.61956e-05
9.45936e-05
8.55838e-05
7.78973e-05
7.10678e-05
6.61481e-05
6.3327e-05
6.18365e-05
6.1286e-05
6.10493e-05
6.08949e-05
0.000103636
9.65249e-05
9.42459e-05
8.51828e-05
7.7318e-05
7.06086e-05
6.58778e-05
6.31847e-05
6.17956e-05
6.12679e-05
6.10331e-05
6.08794e-05
0.000116026
9.72085e-05
9.40259e-05
8.489e-05
7.6876e-05
7.02532e-05
6.56663e-05
6.30757e-05
6.17627e-05
6.12517e-05
6.10179e-05
6.08639e-05
0.00012908
9.83026e-05
9.39445e-05
8.46858e-05
7.65375e-05
6.99744e-05
6.54953e-05
6.29874e-05
6.17353e-05
6.12368e-05
6.10028e-05
6.0848e-05
0.000142327
9.98227e-05
9.39734e-05
8.45523e-05
7.62838e-05
6.9751e-05
6.53572e-05
6.29172e-05
6.17126e-05
6.12235e-05
6.09882e-05
6.08317e-05
0.000155385
0.000101769
9.40924e-05
8.44717e-05
7.60851e-05
6.95751e-05
6.52468e-05
6.28616e-05
6.16932e-05
6.12104e-05
6.09715e-05
6.07996e-05
0.000167771
0.000104127
9.43001e-05
8.44421e-05
7.59335e-05
6.94338e-05
6.51585e-05
6.28158e-05
6.1677e-05
6.11982e-05
6.09553e-05
6.07827e-05
0.000179215
0.000106888
9.45886e-05
8.44484e-05
7.5824e-05
6.93169e-05
6.50859e-05
6.27788e-05
6.16625e-05
6.11862e-05
6.09381e-05
6.07542e-05
0.000189468
0.000109958
9.49874e-05
8.44901e-05
7.57487e-05
6.92271e-05
6.50268e-05
6.27478e-05
6.165e-05
6.11739e-05
6.09202e-05
6.07282e-05
0.000198505
0.000113308
9.54594e-05
8.45564e-05
7.56882e-05
6.91578e-05
6.49775e-05
6.27225e-05
6.16385e-05
6.11618e-05
6.09017e-05
6.07047e-05
0.000206463
0.000116875
9.60295e-05
8.46584e-05
7.56604e-05
6.91013e-05
6.49367e-05
6.27008e-05
6.16283e-05
6.11498e-05
6.08833e-05
6.06817e-05
0.00021334
0.000120611
9.66949e-05
8.47775e-05
7.56466e-05
6.90544e-05
6.49059e-05
6.26831e-05
6.16183e-05
6.11375e-05
6.08648e-05
6.06668e-05
0.000219307
0.000124472
9.74535e-05
8.49296e-05
7.56452e-05
6.90221e-05
6.48785e-05
6.26681e-05
6.16099e-05
6.11253e-05
6.08464e-05
6.06459e-05
0.000224583
0.00012837
9.82976e-05
8.50968e-05
7.56612e-05
6.90013e-05
6.48593e-05
6.26557e-05
6.16012e-05
6.11129e-05
6.08281e-05
6.06278e-05
0.000229268
0.000132356
9.92391e-05
8.52927e-05
7.56857e-05
6.89847e-05
6.48417e-05
6.26457e-05
6.15936e-05
6.11004e-05
6.08099e-05
6.06111e-05
0.000233314
0.000136293
0.00010028
8.55078e-05
7.57248e-05
6.89744e-05
6.48307e-05
6.26368e-05
6.15855e-05
6.1088e-05
6.07915e-05
6.05954e-05
0.000236943
0.000140218
0.000101409
8.57536e-05
7.57777e-05
6.89758e-05
6.48219e-05
6.26299e-05
6.15783e-05
6.10755e-05
6.07734e-05
6.05903e-05
0.000240271
0.000144143
0.000102616
8.60179e-05
7.58336e-05
6.89816e-05
6.48148e-05
6.26232e-05
6.15711e-05
6.10628e-05
6.07548e-05
6.05753e-05
0.000243363
0.000148042
0.00010392
8.63131e-05
7.58969e-05
6.89883e-05
6.48138e-05
6.26184e-05
6.15641e-05
6.10502e-05
6.07356e-05
6.05783e-05
0.000246073
0.000151802
0.000105311
8.66252e-05
7.59773e-05
6.90018e-05
6.48112e-05
6.26147e-05
6.15568e-05
6.1037e-05
6.0714e-05
6.05646e-05
0.000248572
0.000155544
0.00010678
8.69705e-05
7.60537e-05
6.90199e-05
6.48135e-05
6.26111e-05
6.15498e-05
6.10235e-05
6.06896e-05
6.05689e-05
0.000250992
0.000159153
0.000108333
8.73497e-05
7.61498e-05
6.90407e-05
6.48163e-05
6.26087e-05
6.15431e-05
6.10091e-05
6.06626e-05
6.05588e-05
0.00025327
0.000162746
0.00010995
8.77512e-05
7.62471e-05
6.90655e-05
6.48218e-05
6.26074e-05
6.15364e-05
6.09948e-05
6.06367e-05
6.05648e-05
0.000255359
0.000166228
0.000111646
8.81845e-05
7.6348e-05
6.90908e-05
6.48273e-05
6.26056e-05
6.15292e-05
6.098e-05
6.06122e-05
6.05644e-05
0.000257362
0.000169583
0.000113403
8.86428e-05
7.64686e-05
6.91202e-05
6.48345e-05
6.26048e-05
6.15223e-05
6.09647e-05
6.05894e-05
6.05688e-05
0.000259228
0.000172878
0.000115232
8.91395e-05
7.65826e-05
6.91545e-05
6.48441e-05
6.26037e-05
6.15148e-05
6.09498e-05
6.0568e-05
6.05699e-05
0.000261029
0.000176124
0.000117134
8.9658e-05
7.67167e-05
6.91889e-05
6.48528e-05
6.26043e-05
6.15077e-05
6.09344e-05
6.0547e-05
6.05568e-05
0.000262701
0.000179233
0.000119077
9.02174e-05
7.68548e-05
6.92331e-05
6.48637e-05
6.26045e-05
6.15003e-05
6.0919e-05
6.0527e-05
6.05584e-05
0.00026435
0.000182289
0.000121084
9.08147e-05
7.70032e-05
6.92697e-05
6.48766e-05
6.26043e-05
6.14932e-05
6.09033e-05
6.05081e-05
6.05601e-05
0.000265903
0.000185269
0.000123133
9.14558e-05
7.71541e-05
6.9317e-05
6.48884e-05
6.26058e-05
6.14856e-05
6.08882e-05
6.04898e-05
6.0557e-05
0.000267468
0.000188137
0.000125232
9.21217e-05
7.7321e-05
6.9363e-05
6.49022e-05
6.26064e-05
6.14782e-05
6.08727e-05
6.04724e-05
6.05602e-05
0.000268964
0.000190895
0.000127392
9.28165e-05
7.74976e-05
6.94129e-05
6.49176e-05
6.2608e-05
6.14708e-05
6.08573e-05
6.04556e-05
6.05614e-05
0.000270321
0.000193658
0.00012957
9.35719e-05
7.76797e-05
6.94619e-05
6.49345e-05
6.26088e-05
6.14636e-05
6.08416e-05
6.04393e-05
6.05585e-05
0.000271683
0.000196304
0.0001318
9.43558e-05
7.78851e-05
6.95155e-05
6.49503e-05
6.26102e-05
6.14558e-05
6.08265e-05
6.04235e-05
6.0557e-05
0.000272946
0.000198829
0.000134077
9.51868e-05
7.80858e-05
6.95733e-05
6.49677e-05
6.26122e-05
6.14482e-05
6.0811e-05
6.04085e-05
6.05592e-05
0.00027411
0.000201303
0.000136352
9.60462e-05
7.83115e-05
6.96355e-05
6.49841e-05
6.26147e-05
6.14407e-05
6.07957e-05
6.0394e-05
6.05571e-05
0.000275258
0.000203732
0.000138673
9.69534e-05
7.85429e-05
6.9697e-05
6.50048e-05
6.26179e-05
6.14335e-05
6.078e-05
6.03802e-05
6.05591e-05
0.000276475
0.000206132
0.000141041
9.79118e-05
7.87909e-05
6.97631e-05
6.50243e-05
6.26202e-05
6.14257e-05
6.07648e-05
6.03668e-05
6.05585e-05
0.000277528
0.000208417
0.000143396
9.88978e-05
7.90452e-05
6.98339e-05
6.50456e-05
6.26232e-05
6.14181e-05
6.07493e-05
6.03543e-05
6.05625e-05
0.000278543
0.00021066
0.000145789
9.99348e-05
7.93283e-05
6.99043e-05
6.50656e-05
6.26267e-05
6.14107e-05
6.07337e-05
6.0342e-05
6.05628e-05
0.000279586
0.000212805
0.000148213
0.000101024
7.96192e-05
6.99797e-05
6.509e-05
6.26295e-05
6.14035e-05
6.07182e-05
6.03305e-05
6.05678e-05
0.000280472
0.000214964
0.000150612
0.000102164
7.99294e-05
7.00603e-05
6.51132e-05
6.26343e-05
6.13965e-05
6.07026e-05
6.03194e-05
6.057e-05
0.000281352
0.000216949
0.000153033
0.000103331
8.02483e-05
7.01461e-05
6.51382e-05
6.26382e-05
6.1389e-05
6.06869e-05
6.03087e-05
6.05752e-05
0.000282302
0.000218991
0.000155486
0.000104551
8.05881e-05
7.02375e-05
6.51649e-05
6.26428e-05
6.13816e-05
6.06705e-05
6.02981e-05
6.05736e-05
0.000283089
0.000220931
0.000157965
0.000105828
8.09501e-05
7.03289e-05
6.51906e-05
6.2648e-05
6.13745e-05
6.06543e-05
6.02882e-05
6.0581e-05
0.000283845
0.000222831
0.000160404
0.000107157
8.13352e-05
7.04265e-05
6.52209e-05
6.26525e-05
6.13676e-05
6.06374e-05
6.02786e-05
6.05826e-05
0.000284675
0.000224711
0.000162864
0.000108511
8.1744e-05
7.05306e-05
6.52502e-05
6.26591e-05
6.1361e-05
6.06201e-05
6.02692e-05
6.05876e-05
0.000285366
0.000226498
0.000165279
0.000109918
8.2165e-05
7.06351e-05
6.52813e-05
6.26649e-05
6.13537e-05
6.06023e-05
6.0261e-05
6.05878e-05
0.000286041
0.000228268
0.000167777
0.000111383
8.26119e-05
7.07526e-05
6.53115e-05
6.26715e-05
6.13475e-05
6.05835e-05
6.02548e-05
6.05924e-05
0.000286643
0.000230003
0.000170227
0.000112868
8.30854e-05
7.08712e-05
6.53468e-05
6.26787e-05
6.13407e-05
6.05644e-05
6.02502e-05
6.05952e-05
0.000287286
0.000231712
0.000172691
0.000114407
8.35867e-05
7.09976e-05
6.5381e-05
6.26867e-05
6.13341e-05
6.05441e-05
6.0248e-05
6.06025e-05
0.000287905
0.000233342
0.000175168
0.000116001
8.4102e-05
7.11316e-05
6.54175e-05
6.26939e-05
6.13276e-05
6.05233e-05
6.02474e-05
6.06048e-05
0.000288449
0.000234949
0.000177583
0.000117648
8.46474e-05
7.12673e-05
6.54561e-05
6.27034e-05
6.13214e-05
6.05014e-05
6.02473e-05
6.06049e-05
0.000288934
0.000236531
0.000180011
0.000119348
8.52243e-05
7.14181e-05
6.5497e-05
6.27121e-05
6.13143e-05
6.04785e-05
6.02482e-05
6.06064e-05
0.000289421
0.000238034
0.000182447
0.000121064
8.58332e-05
7.15713e-05
6.55403e-05
6.27215e-05
6.13085e-05
6.04551e-05
6.02489e-05
6.06077e-05
0.000289882
0.000239523
0.00018489
0.000122835
8.64758e-05
7.17341e-05
6.55827e-05
6.27318e-05
6.13018e-05
6.04314e-05
6.02502e-05
6.06117e-05
0.000290285
0.000240986
0.000187262
0.000124654
8.71355e-05
7.19066e-05
6.5631e-05
6.2743e-05
6.12964e-05
6.04077e-05
6.02517e-05
6.06153e-05
0.000290735
0.000242432
0.000189643
0.000126525
8.78313e-05
7.20822e-05
6.56787e-05
6.27534e-05
6.12903e-05
6.03845e-05
6.02528e-05
6.06202e-05
0.000291168
0.000243817
0.00019203
0.000128406
8.85635e-05
7.22762e-05
6.57292e-05
6.27664e-05
6.12845e-05
6.03618e-05
6.02542e-05
6.06226e-05
0.000291547
0.000245219
0.000194433
0.000130338
8.93337e-05
7.24745e-05
6.57826e-05
6.27786e-05
6.12791e-05
6.03395e-05
6.02557e-05
6.06282e-05
0.000291857
0.000246587
0.000196835
0.000132367
9.01459e-05
7.2693e-05
6.58358e-05
6.27918e-05
6.1273e-05
6.03179e-05
6.02575e-05
6.06317e-05
0.0002921
0.000247872
0.000199158
0.000134355
9.0977e-05
7.29162e-05
6.58957e-05
6.28079e-05
6.12685e-05
6.02971e-05
6.02588e-05
6.06372e-05
0.000292321
0.000249165
0.000201518
0.00013644
9.18511e-05
7.31448e-05
6.5959e-05
6.28233e-05
6.12645e-05
6.02768e-05
6.026e-05
6.06402e-05
0.000292561
0.000250401
0.000203848
0.000138573
9.27693e-05
7.33957e-05
6.60222e-05
6.28397e-05
6.12598e-05
6.02572e-05
6.0261e-05
6.06457e-05
0.000292805
0.000251655
0.000206111
0.000140703
9.37325e-05
7.36619e-05
6.60893e-05
6.28556e-05
6.12569e-05
6.02381e-05
6.02623e-05
6.06516e-05
0.000292975
0.000252842
0.000208419
0.000142931
9.47438e-05
7.39353e-05
6.61602e-05
6.28745e-05
6.12533e-05
6.02195e-05
6.0263e-05
6.06563e-05
0.000293143
0.00025401
0.000210716
0.000145165
9.58056e-05
7.42256e-05
6.62353e-05
6.28947e-05
6.12504e-05
6.02013e-05
6.02635e-05
6.06637e-05
0.000293248
0.000255154
0.000212943
0.000147438
9.69155e-05
7.45334e-05
6.63147e-05
6.29143e-05
6.1248e-05
6.01837e-05
6.02643e-05
6.06694e-05
0.000293362
0.000256243
0.000215157
0.000149744
9.80507e-05
7.48597e-05
6.63946e-05
6.29353e-05
6.12464e-05
6.01665e-05
6.02649e-05
6.06783e-05
0.000293512
0.000257325
0.000217358
0.000152102
9.93153e-05
7.52107e-05
6.64839e-05
6.29597e-05
6.12454e-05
6.01496e-05
6.02648e-05
6.06848e-05
0.000293625
0.000258398
0.000219549
0.000154437
0.00010058
7.55924e-05
6.65773e-05
6.29838e-05
6.12452e-05
6.01331e-05
6.0265e-05
6.06938e-05
0.000293678
0.00025945
0.00022168
0.000156877
0.000101916
7.60032e-05
6.66753e-05
6.30118e-05
6.12458e-05
6.0117e-05
6.02649e-05
6.07003e-05
0.000293667
0.000260475
0.000223844
0.000159284
0.000103321
7.64499e-05
6.67924e-05
6.30398e-05
6.12472e-05
6.0101e-05
6.0264e-05
6.07088e-05
0.000293625
0.00026145
0.00022595
0.000161725
0.000104729
7.68997e-05
6.69075e-05
6.30709e-05
6.1249e-05
6.00855e-05
6.02633e-05
6.07166e-05
0.000293597
0.000262404
0.000228039
0.000164127
0.000106274
7.74194e-05
6.70339e-05
6.31051e-05
6.1251e-05
6.00714e-05
6.02623e-05
6.07222e-05
0.000293544
0.000263353
0.000230075
0.000166631
0.000107821
7.79433e-05
6.7172e-05
6.31428e-05
6.12566e-05
6.00571e-05
6.02608e-05
6.07313e-05
0.000293402
0.000264275
0.000232142
0.000169098
0.000109441
7.85083e-05
6.73227e-05
6.31794e-05
6.12636e-05
6.00455e-05
6.02593e-05
6.07383e-05
0.000293253
0.000265145
0.000234151
0.00017159
0.000111202
7.91178e-05
6.74868e-05
6.3225e-05
6.12699e-05
6.00335e-05
6.02577e-05
6.07482e-05
0.000293126
0.000266004
0.000236144
0.00017411
0.000112889
7.97326e-05
6.76509e-05
6.32694e-05
6.12777e-05
6.00229e-05
6.02559e-05
6.07548e-05
0.000292959
0.000266844
0.000238122
0.000176649
0.00011472
8.0434e-05
6.78454e-05
6.33238e-05
6.12898e-05
6.0015e-05
6.0254e-05
6.07636e-05
0.00029276
0.000267662
0.000240083
0.000179209
0.00011662
8.1145e-05
6.80411e-05
6.33775e-05
6.13012e-05
6.00069e-05
6.02516e-05
6.07714e-05
0.000292504
0.000268462
0.000241998
0.000181721
0.000118515
8.1948e-05
6.82554e-05
6.34364e-05
6.13146e-05
6.00001e-05
6.02497e-05
6.07794e-05
0.000292229
0.000269221
0.000243927
0.000184256
0.000120484
8.27618e-05
6.85054e-05
6.35013e-05
6.13301e-05
5.99947e-05
6.02472e-05
6.07833e-05
0.000291981
0.000269968
0.000245811
0.000186871
0.000122525
8.36332e-05
6.8759e-05
6.35723e-05
6.13478e-05
5.99907e-05
6.02445e-05
6.07869e-05
0.000291691
0.000270704
0.000247685
0.000189375
0.000124635
8.45643e-05
6.90175e-05
6.36497e-05
6.1368e-05
5.99865e-05
6.02415e-05
6.07937e-05
0.000291335
0.000271407
0.00024954
0.00019196
0.000126816
8.55562e-05
6.93194e-05
6.37347e-05
6.13907e-05
5.99855e-05
6.02384e-05
6.07974e-05
0.000291
0.000272086
0.000251354
0.000194557
0.000128991
8.65633e-05
6.96471e-05
6.38278e-05
6.14136e-05
5.99861e-05
6.02352e-05
6.08037e-05
0.000290607
0.000272772
0.00025316
0.000197105
0.000131309
8.76896e-05
6.99834e-05
6.39224e-05
6.14423e-05
5.99883e-05
6.02322e-05
6.08075e-05
0.000290144
0.000273415
0.00025495
0.000199671
0.000133621
8.88334e-05
7.03709e-05
6.40341e-05
6.14714e-05
5.99904e-05
6.02287e-05
6.08114e-05
0.000289728
0.000274033
0.000256725
0.000202251
0.000136003
9.00516e-05
7.07694e-05
6.41485e-05
6.15071e-05
5.99962e-05
6.02252e-05
6.08123e-05
0.000289279
0.000274648
0.000258487
0.000204845
0.000138453
9.13456e-05
7.12031e-05
6.42744e-05
6.15436e-05
6.00021e-05
6.02219e-05
6.08161e-05
0.000288697
0.000275225
0.000260235
0.00020745
0.000140969
9.27178e-05
7.16751e-05
6.4413e-05
6.15843e-05
6.00103e-05
6.02183e-05
6.08206e-05
0.000288082
0.000275762
0.000261949
0.000210004
0.000143473
9.41686e-05
7.21882e-05
6.45655e-05
6.16299e-05
6.00228e-05
6.02152e-05
6.08273e-05
0.000287468
0.000276283
0.000263646
0.000212568
0.000146117
9.56467e-05
7.2744e-05
6.47334e-05
6.16841e-05
6.00363e-05
6.02121e-05
6.08251e-05
0.000286895
0.000276788
0.000265325
0.000215198
0.000148747
9.72689e-05
7.33207e-05
6.49177e-05
6.17368e-05
6.0053e-05
6.02089e-05
6.08269e-05
0.00028628
0.000277287
0.000266994
0.000217728
0.000151441
9.89182e-05
7.39764e-05
6.51206e-05
6.17997e-05
6.00737e-05
6.02062e-05
6.08257e-05
0.000285597
0.000277755
0.000268635
0.000220322
0.000154198
0.000100661
7.46565e-05
6.53329e-05
6.18695e-05
6.00988e-05
6.02039e-05
6.08271e-05
0.000284911
0.000278209
0.00027026
0.000222924
0.000157015
0.000102498
7.53947e-05
6.55787e-05
6.19472e-05
6.01287e-05
6.02021e-05
6.08271e-05
0.000284181
0.000278641
0.000271881
0.000225485
0.00015989
0.000104432
7.61964e-05
6.58373e-05
6.20291e-05
6.01632e-05
6.0201e-05
6.08261e-05
0.00028336
0.000279053
0.000273473
0.000228055
0.000162752
0.000106462
7.70648e-05
6.61229e-05
6.21251e-05
6.02028e-05
6.02006e-05
6.08217e-05
0.000282499
0.00027943
0.000275054
0.000230637
0.000165677
0.000108529
7.80034e-05
6.64388e-05
6.22269e-05
6.02451e-05
6.02009e-05
6.0817e-05
0.000281646
0.000279785
0.000276618
0.000233226
0.000168659
0.000110769
7.90195e-05
6.67882e-05
6.23459e-05
6.02954e-05
6.02025e-05
6.08151e-05
0.000280754
0.000280124
0.000278165
0.000235776
0.000171702
0.000113048
8.00794e-05
6.71737e-05
6.2473e-05
6.0349e-05
6.02051e-05
6.08101e-05
0.00027977
0.000280436
0.000279695
0.000238384
0.000174803
0.000115439
8.12662e-05
6.76005e-05
6.26155e-05
6.04114e-05
6.02093e-05
6.08077e-05
0.000278742
0.000280718
0.000281208
0.000240958
0.000177892
0.000117942
8.25068e-05
6.80551e-05
6.27748e-05
6.04779e-05
6.02146e-05
6.08033e-05
0.000277708
0.000280984
0.000282703
0.000243541
0.00018111
0.000120496
8.38453e-05
6.85766e-05
6.29537e-05
6.05519e-05
6.02219e-05
6.0799e-05
0.000276601
0.000281215
0.00028418
0.000246137
0.000184313
0.000123238
8.52934e-05
6.91346e-05
6.31472e-05
6.0634e-05
6.02301e-05
6.07905e-05
0.000275419
0.000281415
0.000285643
0.000248701
0.000187576
0.000126032
8.68536e-05
6.97532e-05
6.33726e-05
6.07257e-05
6.02402e-05
6.07838e-05
0.000274132
0.000281583
0.00028709
0.000251279
0.000190832
0.00012895
8.849e-05
7.04385e-05
6.36183e-05
6.0828e-05
6.0251e-05
6.0779e-05
0.000272755
0.000281717
0.000288518
0.000253907
0.000194219
0.000131999
9.03054e-05
7.11994e-05
6.39044e-05
6.09428e-05
6.02647e-05
6.07717e-05
0.00027135
0.000281814
0.00028992
0.000256473
0.000197601
0.00013518
9.22119e-05
7.20431e-05
6.42183e-05
6.10717e-05
6.02829e-05
6.07671e-05
0.000269938
0.000281895
0.000291308
0.000259088
0.000201111
0.000138497
9.42702e-05
7.2978e-05
6.45743e-05
6.12131e-05
6.03078e-05
6.07604e-05
0.000268435
0.000281929
0.000292673
0.000261717
0.00020456
0.000141879
9.64874e-05
7.399e-05
6.4977e-05
6.13777e-05
6.03408e-05
6.07524e-05
0.000266834
0.000281946
0.000294026
0.000264325
0.000208141
0.000145479
9.88759e-05
7.51175e-05
6.5434e-05
6.15602e-05
6.03833e-05
6.07487e-05
0.000265144
0.000281913
0.000295343
0.00026695
0.000211793
0.000149159
0.000101444
7.64012e-05
6.59435e-05
6.17688e-05
6.04353e-05
6.07485e-05
0.00026339
0.000281849
0.000296647
0.000269563
0.000215455
0.000152928
0.000104153
7.77937e-05
6.6538e-05
6.20136e-05
6.05024e-05
6.07482e-05
0.000261518
0.000281719
0.000297923
0.000272222
0.000219195
0.000156931
0.000107076
7.93144e-05
6.72019e-05
6.2284e-05
6.0585e-05
6.07541e-05
0.000259483
0.00028154
0.000299168
0.00027487
0.000223016
0.000161101
0.000110224
8.10457e-05
6.79775e-05
6.26053e-05
6.06853e-05
6.07637e-05
0.000257314
0.000281297
0.000300395
0.000277537
0.00022687
0.000165376
0.000113614
8.29439e-05
6.88494e-05
6.29786e-05
6.08094e-05
6.07811e-05
0.000255058
0.000281021
0.000301582
0.000280221
0.000230869
0.000169846
0.000117263
8.51025e-05
6.98559e-05
6.34149e-05
6.09625e-05
6.08066e-05
0.000252714
0.000280689
0.000302731
0.000282902
0.000234908
0.000174516
0.00012114
8.74716e-05
7.09991e-05
6.39189e-05
6.11542e-05
6.08488e-05
0.000250189
0.000280284
0.000303851
0.000285624
0.000239053
0.000179332
0.000125323
9.01212e-05
7.23436e-05
6.45173e-05
6.13924e-05
6.09047e-05
0.000247428
0.000279775
0.000304893
0.000288345
0.000243306
0.000184383
0.000129841
9.3053e-05
7.38773e-05
6.52271e-05
6.16921e-05
6.09807e-05
0.00024445
0.000279179
0.000305899
0.000291068
0.000247629
0.000189741
0.000134724
9.63911e-05
7.56872e-05
6.60768e-05
6.20598e-05
6.10822e-05
0.000241267
0.000278485
0.000306853
0.000293822
0.00025209
0.00019524
0.000140002
0.000100101
7.77697e-05
6.70967e-05
6.25085e-05
6.12203e-05
0.000237771
0.000277633
0.000307688
0.000296574
0.000256688
0.000201101
0.00014566
0.00010428
8.01834e-05
6.8324e-05
6.30711e-05
6.14083e-05
0.000233964
0.000276651
0.00030844
0.000299332
0.000261439
0.000207222
0.000151809
0.000108992
8.30536e-05
6.98012e-05
6.37642e-05
6.16605e-05
0.000229808
0.000275484
0.000309083
0.00030208
0.000266317
0.000213702
0.000158506
0.000114322
8.6401e-05
7.16039e-05
6.46351e-05
6.19964e-05
0.000225236
0.000274102
0.000309505
0.000304808
0.000271381
0.000220585
0.000165819
0.000120313
9.03863e-05
7.38181e-05
6.57359e-05
6.24504e-05
0.000220068
0.000272341
0.000309707
0.000307485
0.000276645
0.000227921
0.000173765
0.00012713
9.50639e-05
7.65425e-05
6.71282e-05
6.30502e-05
0.000214059
0.000270126
0.000309515
0.000310057
0.000282094
0.000235712
0.000182499
0.000134893
0.000100619
7.99031e-05
6.8925e-05
6.38497e-05
0.000206934
0.00026715
0.000308724
0.00031241
0.00028775
0.000244078
0.000192119
0.000143738
0.000107181
8.40324e-05
7.12119e-05
6.49545e-05
0.000198149
0.000262696
0.000306836
0.000314319
0.000293557
0.00025305
0.000202705
0.000153784
0.000114963
8.91378e-05
7.41508e-05
6.645e-05
0.000182981
0.000256239
0.000303833
0.000315812
0.000299512
0.000262537
0.000214137
0.000164959
0.000124071
9.53665e-05
7.78904e-05
6.84419e-05
6.0047e-05
8.7825e-05
9.40166e-05
8.74999e-05
7.88191e-05
7.24831e-05
6.81231e-05
6.44418e-05
6.26147e-05
6.14498e-05
6.09731e-05
6.08327e-05
6.63144e-05
8.87204e-05
9.40708e-05
8.72003e-05
7.84724e-05
7.2148e-05
6.77839e-05
6.43123e-05
6.25184e-05
6.14274e-05
6.0975e-05
6.08305e-05
7.34096e-05
8.95575e-05
9.42355e-05
8.7066e-05
7.82498e-05
7.18992e-05
6.7531e-05
6.42078e-05
6.24443e-05
6.14104e-05
6.0976e-05
6.08254e-05
8.13276e-05
9.04653e-05
9.44695e-05
8.70354e-05
7.81119e-05
7.17147e-05
6.73393e-05
6.41239e-05
6.23866e-05
6.13972e-05
6.09759e-05
6.08191e-05
9.01702e-05
9.15119e-05
9.47671e-05
8.70839e-05
7.80375e-05
7.15789e-05
6.7192e-05
6.40563e-05
6.23414e-05
6.13869e-05
6.09751e-05
6.08119e-05
9.99672e-05
9.27537e-05
9.51199e-05
8.71918e-05
7.80132e-05
7.1482e-05
6.70782e-05
6.40019e-05
6.23057e-05
6.13786e-05
6.09732e-05
6.08033e-05
0.000110549
9.42408e-05
9.55205e-05
8.73455e-05
7.80266e-05
7.14152e-05
6.69907e-05
6.3958e-05
6.2277e-05
6.13716e-05
6.09701e-05
6.0792e-05
0.000121573
9.60083e-05
9.59685e-05
8.75322e-05
7.80683e-05
7.1372e-05
6.69223e-05
6.3922e-05
6.22538e-05
6.13655e-05
6.09659e-05
6.07802e-05
0.000132635
9.80766e-05
9.64635e-05
8.77447e-05
7.81319e-05
7.13463e-05
6.68688e-05
6.38924e-05
6.22346e-05
6.13597e-05
6.09601e-05
6.07653e-05
0.00014334
0.000100445
9.70078e-05
8.79752e-05
7.82118e-05
7.13344e-05
6.68264e-05
6.38673e-05
6.22182e-05
6.13539e-05
6.09532e-05
6.07512e-05
0.000153384
0.000103093
9.76043e-05
8.82216e-05
7.83029e-05
7.13329e-05
6.67925e-05
6.38458e-05
6.22038e-05
6.13476e-05
6.09432e-05
6.07182e-05
0.000162585
0.00010599
9.82559e-05
8.8481e-05
7.84026e-05
7.13388e-05
6.67647e-05
6.38268e-05
6.21907e-05
6.13405e-05
6.09306e-05
6.06892e-05
0.000170875
0.000109092
9.89657e-05
8.87499e-05
7.85074e-05
7.13499e-05
6.67412e-05
6.38095e-05
6.21783e-05
6.13323e-05
6.09161e-05
6.06638e-05
0.000178268
0.000112356
9.97339e-05
8.9028e-05
7.86157e-05
7.13639e-05
6.67206e-05
6.37928e-05
6.2166e-05
6.13231e-05
6.09001e-05
6.06392e-05
0.000184826
0.000115736
0.000100562
8.93128e-05
7.87257e-05
7.13802e-05
6.67018e-05
6.37766e-05
6.21536e-05
6.13127e-05
6.08847e-05
6.06381e-05
0.000190668
0.000119193
0.000101449
8.96048e-05
7.88357e-05
7.1397e-05
6.66838e-05
6.37602e-05
6.21408e-05
6.13013e-05
6.087e-05
6.06409e-05
0.000195907
0.000122693
0.000102393
8.99021e-05
7.89437e-05
7.14127e-05
6.66662e-05
6.37435e-05
6.21274e-05
6.1289e-05
6.08554e-05
6.06364e-05
0.000200643
0.000126205
0.000103393
9.02068e-05
7.90505e-05
7.14275e-05
6.66479e-05
6.37258e-05
6.21131e-05
6.12757e-05
6.0841e-05
6.06413e-05
0.000204986
0.000129706
0.000104446
9.05159e-05
7.91532e-05
7.144e-05
6.66283e-05
6.3707e-05
6.20978e-05
6.12614e-05
6.08264e-05
6.06401e-05
0.000209014
0.000133181
0.000105551
9.08306e-05
7.92532e-05
7.14497e-05
6.66075e-05
6.36869e-05
6.20814e-05
6.12461e-05
6.0811e-05
6.0641e-05
0.000212779
0.000136613
0.000106701
9.11497e-05
7.93479e-05
7.14561e-05
6.65847e-05
6.36654e-05
6.20638e-05
6.12297e-05
6.07948e-05
6.06211e-05
0.000216357
0.000139995
0.000107895
9.14756e-05
7.94391e-05
7.14595e-05
6.65598e-05
6.36422e-05
6.2045e-05
6.12123e-05
6.0775e-05
6.06273e-05
0.000219782
0.000143316
0.000109131
9.18072e-05
7.95256e-05
7.14585e-05
6.6533e-05
6.36175e-05
6.20248e-05
6.11927e-05
6.07452e-05
6.06348e-05
0.000223094
0.000146577
0.000110402
9.2143e-05
7.96064e-05
7.14546e-05
6.6504e-05
6.35913e-05
6.20033e-05
6.11715e-05
6.07179e-05
6.06355e-05
0.000226305
0.00014977
0.000111706
9.2486e-05
7.96833e-05
7.1446e-05
6.64726e-05
6.35633e-05
6.19805e-05
6.1149e-05
6.0693e-05
6.06418e-05
0.000229449
0.0001529
0.000113041
9.28338e-05
7.97554e-05
7.14339e-05
6.64387e-05
6.35339e-05
6.19562e-05
6.11253e-05
6.06702e-05
6.06445e-05
0.000232539
0.000155968
0.000114402
9.31891e-05
7.98241e-05
7.14177e-05
6.64027e-05
6.35027e-05
6.19306e-05
6.11009e-05
6.06494e-05
6.06431e-05
0.000235585
0.000158975
0.00011579
9.35497e-05
7.98885e-05
7.13982e-05
6.63646e-05
6.34698e-05
6.19038e-05
6.10758e-05
6.06316e-05
6.06498e-05
0.000238583
0.000161917
0.000117201
9.3919e-05
7.99492e-05
7.13752e-05
6.63243e-05
6.34358e-05
6.18758e-05
6.10505e-05
6.0616e-05
6.0651e-05
0.000241552
0.000164802
0.00011863
9.4296e-05
8.00068e-05
7.13494e-05
6.62828e-05
6.34003e-05
6.18469e-05
6.10249e-05
6.06019e-05
6.06509e-05
0.000244502
0.000167636
0.000120078
9.46814e-05
8.0062e-05
7.13208e-05
6.62392e-05
6.3364e-05
6.18172e-05
6.09994e-05
6.05899e-05
6.06557e-05
0.000247413
0.00017042
0.000121548
9.50762e-05
8.01165e-05
7.12904e-05
6.61948e-05
6.33267e-05
6.17869e-05
6.09739e-05
6.05799e-05
6.06559e-05
0.000250313
0.000173156
0.000123033
9.54832e-05
8.01712e-05
7.1258e-05
6.61493e-05
6.32887e-05
6.17562e-05
6.09487e-05
6.0572e-05
6.06559e-05
0.000253179
0.000175856
0.00012454
9.59e-05
8.0226e-05
7.12249e-05
6.61033e-05
6.32503e-05
6.1725e-05
6.09233e-05
6.05637e-05
6.06498e-05
0.000256022
0.000178515
0.000126062
9.63317e-05
8.02818e-05
7.11911e-05
6.60571e-05
6.32116e-05
6.16937e-05
6.08979e-05
6.05582e-05
6.06531e-05
0.000258828
0.000181141
0.000127608
9.67779e-05
8.03399e-05
7.11583e-05
6.60112e-05
6.31729e-05
6.16622e-05
6.0872e-05
6.05541e-05
6.06516e-05
0.000261599
0.000183738
0.000129174
9.72425e-05
8.04035e-05
7.11255e-05
6.59655e-05
6.31344e-05
6.16308e-05
6.08447e-05
6.05549e-05
6.0657e-05
0.000264341
0.00018631
0.000130764
9.77235e-05
8.04707e-05
7.10952e-05
6.59213e-05
6.30965e-05
6.15992e-05
6.08142e-05
6.05581e-05
6.06593e-05
0.000267039
0.000188863
0.00013238
9.82269e-05
8.05451e-05
7.10669e-05
6.58782e-05
6.30592e-05
6.15675e-05
6.07802e-05
6.05575e-05
6.06417e-05
0.000269691
0.000191398
0.000134023
9.87552e-05
8.06279e-05
7.10419e-05
6.58369e-05
6.30227e-05
6.15357e-05
6.07465e-05
6.05546e-05
6.06342e-05
0.000272285
0.000193911
0.000135698
9.93089e-05
8.07198e-05
7.10211e-05
6.57979e-05
6.29876e-05
6.15044e-05
6.07153e-05
6.05492e-05
6.06178e-05
0.000274826
0.000196419
0.000137406
9.98906e-05
8.08232e-05
7.10047e-05
6.57617e-05
6.29537e-05
6.14737e-05
6.0686e-05
6.05436e-05
6.06187e-05
0.00027731
0.000198918
0.000139157
0.000100503
8.09384e-05
7.09939e-05
6.57285e-05
6.29217e-05
6.14441e-05
6.06586e-05
6.05399e-05
6.06231e-05
0.000279721
0.000201408
0.000140948
0.000101152
8.10682e-05
7.09894e-05
6.56988e-05
6.28915e-05
6.14154e-05
6.0633e-05
6.05365e-05
6.06221e-05
0.000282052
0.000203892
0.000142783
0.000101838
8.12129e-05
7.09914e-05
6.56725e-05
6.28631e-05
6.13881e-05
6.0609e-05
6.05347e-05
6.06268e-05
0.000284299
0.00020636
0.000144664
0.000102563
8.13752e-05
7.1001e-05
6.56506e-05
6.28371e-05
6.1362e-05
6.05864e-05
6.05325e-05
6.06286e-05
0.000286461
0.00020883
0.000146595
0.000103333
8.15553e-05
7.10188e-05
6.56327e-05
6.28135e-05
6.13373e-05
6.0565e-05
6.05287e-05
6.06233e-05
0.000288534
0.000211292
0.000148583
0.000104153
8.17562e-05
7.10455e-05
6.56197e-05
6.27927e-05
6.13143e-05
6.05443e-05
6.05211e-05
6.06068e-05
0.000290509
0.000213746
0.000150626
0.000105018
8.19791e-05
7.10816e-05
6.56113e-05
6.27743e-05
6.12929e-05
6.05244e-05
6.05123e-05
6.06047e-05
0.000292377
0.00021619
0.000152726
0.000105938
8.22244e-05
7.1127e-05
6.56083e-05
6.27589e-05
6.1273e-05
6.05048e-05
6.05009e-05
6.05895e-05
0.00029413
0.00021862
0.000154882
0.000106916
8.24946e-05
7.11826e-05
6.56099e-05
6.2746e-05
6.12546e-05
6.04857e-05
6.04894e-05
6.05917e-05
0.000295774
0.000221033
0.000157096
0.000107951
8.27897e-05
7.12487e-05
6.56168e-05
6.27362e-05
6.12378e-05
6.04668e-05
6.04756e-05
6.05767e-05
0.000297312
0.000223429
0.000159374
0.000109046
8.31124e-05
7.13252e-05
6.56293e-05
6.27292e-05
6.12225e-05
6.04482e-05
6.04617e-05
6.05781e-05
0.000298723
0.0002258
0.00016171
0.000110206
8.34638e-05
7.14135e-05
6.56467e-05
6.27249e-05
6.12087e-05
6.04297e-05
6.04467e-05
6.0563e-05
0.00030003
0.000228146
0.000164101
0.00011143
8.38439e-05
7.15125e-05
6.56693e-05
6.27235e-05
6.11963e-05
6.04113e-05
6.04314e-05
6.05591e-05
0.000301223
0.000230463
0.000166547
0.00011272
8.42537e-05
7.16223e-05
6.56972e-05
6.27248e-05
6.11853e-05
6.0393e-05
6.04155e-05
6.05441e-05
0.000302313
0.000232741
0.000169044
0.000114081
8.46959e-05
7.17446e-05
6.57302e-05
6.27287e-05
6.11756e-05
6.03749e-05
6.03995e-05
6.05386e-05
0.000303285
0.000234987
0.000171596
0.000115511
8.51715e-05
7.18781e-05
6.57679e-05
6.27353e-05
6.11673e-05
6.03569e-05
6.03831e-05
6.05235e-05
0.000304155
0.000237194
0.000174187
0.00011701
8.56802e-05
7.20236e-05
6.58108e-05
6.27443e-05
6.11601e-05
6.0339e-05
6.03664e-05
6.05098e-05
0.000304919
0.000239356
0.000176825
0.000118582
8.62245e-05
7.21813e-05
6.58587e-05
6.27558e-05
6.11541e-05
6.03212e-05
6.03494e-05
6.04953e-05
0.000305582
0.000241468
0.0001795
0.000120226
8.68038e-05
7.23506e-05
6.59109e-05
6.27694e-05
6.11492e-05
6.03035e-05
6.03321e-05
6.04813e-05
0.000306148
0.000243536
0.000182208
0.000121939
8.7421e-05
7.25323e-05
6.59677e-05
6.27854e-05
6.11454e-05
6.0286e-05
6.03147e-05
6.04668e-05
0.000306623
0.000245545
0.000184961
0.000123728
8.80758e-05
7.27266e-05
6.60293e-05
6.28033e-05
6.11426e-05
6.02686e-05
6.0297e-05
6.04553e-05
0.000307009
0.000247486
0.000187744
0.000125604
8.87695e-05
7.29331e-05
6.60946e-05
6.28233e-05
6.11408e-05
6.02514e-05
6.02792e-05
6.04416e-05
0.000307315
0.000249358
0.000190523
0.000127577
8.95069e-05
7.31526e-05
6.61646e-05
6.28452e-05
6.11398e-05
6.02342e-05
6.02613e-05
6.0427e-05
0.000307545
0.000251156
0.000193302
0.000129615
9.03109e-05
7.33877e-05
6.62388e-05
6.28687e-05
6.11397e-05
6.02173e-05
6.02432e-05
6.04264e-05
0.00030772
0.000252889
0.000196075
0.00013172
9.11717e-05
7.36449e-05
6.63172e-05
6.28942e-05
6.11402e-05
6.02004e-05
6.02252e-05
6.04221e-05
0.00030784
0.000254554
0.000198837
0.00013389
9.20858e-05
7.3922e-05
6.64048e-05
6.29218e-05
6.11416e-05
6.01837e-05
6.02074e-05
6.04226e-05
0.000307911
0.000256159
0.000201586
0.00013613
9.30496e-05
7.42189e-05
6.64984e-05
6.29528e-05
6.11444e-05
6.01672e-05
6.01896e-05
6.04223e-05
0.000307932
0.000257706