/*--------------------------------*- C++ -*----------------------------------*\
| =========                 |                                                 |
| \\      /  F ield         | OpenFOAM: The Open Source CFD Toolbox           |
|  \\    /   O peration     | Version:  2.4.0                                 |
|   \\  /    A nd           | Web:      www.OpenFOAM.org                      |
|    \\/     M anipulation  |                                                 |
\*---------------------------------------------------------------------------*/
FoamFile
{
    version     2.0;
    format      ascii;
    class       volScalarField;
    location    "0.04";
    object      p;
}
// * * * * * * * * * * * * * * * * * * * * * * * * * * * * * * * * * * * * * //

dimensions      [0 2 -2 0 0 0 0];

internalField   nonuniform List<scalar> 
121060
(
-9.44951
-18.0147
-21.4142
-24.601
-27.1933
-29.3837
-31.3188
-32.9418
-34.3048
-35.4113
-36.3519
-37.1186
-18.4859
-21.6971
-23.1599
-25.6315
-27.753
-29.703
-31.4708
-33.012
-34.3488
-35.4571
-36.416
-37.2103
-26.0818
-26.8816
-27.1383
-28.5875
-29.8813
-31.2733
-32.6344
-33.8816
-35.0121
-36.0001
-36.873
-37.5999
-30.3682
-30.656
-30.6978
-31.5938
-32.3399
-33.2831
-34.2548
-35.1899
-36.075
-36.8764
-37.6036
-38.2259
-33.3882
-33.4862
-33.5274
-34.156
-34.6191
-35.2873
-35.9772
-36.6645
-37.3352
-37.9586
-38.5353
-39.029
-36.1819
-36.0757
-36.0556
-36.4704
-36.7474
-37.2222
-37.7039
-38.2009
-38.6974
-39.1675
-39.6111
-39.991
-38.8516
-38.5654
-38.474
-38.6953
-38.8164
-39.1239
-39.4337
-39.7723
-40.1193
-40.4558
-40.7813
-41.0464
-41.3485
-40.9145
-40.7742
-40.8397
-40.834
-40.9968
-41.158
-41.3594
-41.5747
-41.7913
-42.0104
-42.1923
-43.5798
-43.0868
-42.9292
-42.8749
-42.773
-42.8175
-42.8556
-42.9396
-43.0406
-43.1501
-43.2695
-43.3478
-45.672
-45.1205
-44.9472
-44.8009
-44.6254
-44.572
-44.5109
-44.4962
-44.4979
-44.5133
-44.5426
-44.547
-47.6533
-47.0456
-46.8541
-46.625
-46.3925
-46.2591
-46.1169
-46.0195
-45.9384
-45.8729
-45.8253
-45.7469
-49.4848
-48.8659
-48.6624
-48.3669
-48.0877
-47.8868
-47.6749
-47.508
-47.3563
-47.2219
-47.1069
-46.9756
-51.26
-50.6109
-50.389
-50.0333
-49.7148
-49.4552
-49.1863
-48.9603
-48.7488
-48.557
-48.3881
-48.1958
-52.975
-52.2867
-52.0416
-51.6327
-51.2814
-50.9694
-50.6529
-50.3755
-50.1112
-49.8679
-49.6472
-49.412
-54.5803
-53.876
-53.6155
-53.1665
-52.7889
-52.4332
-52.0751
-51.7528
-51.4429
-51.1544
-50.8873
-50.5853
-56.0804
-55.3942
-55.1271
-54.6426
-54.2426
-53.8476
-53.4538
-53.0924
-52.7424
-52.415
-52.1133
-51.7535
-57.6059
-56.8739
-56.5818
-56.0667
-55.6468
-55.2174
-54.7926
-54.3967
-54.0112
-53.647
-53.3171
-52.9316
-58.9923
-58.2869
-57.9877
-57.4454
-57.008
-56.5464
-56.0941
-55.6663
-55.2492
-54.8514
-54.4933
-54.0947
-60.4302
-59.666
-59.3518
-58.781
-58.3264
-57.8356
-57.3586
-56.9024
-56.4567
-56.0268
-55.6319
-55.2146
-61.7151
-60.9861
-60.6667
-60.0758
-59.6058
-59.0892
-58.5897
-58.1072
-57.6365
-57.1796
-56.7564
-56.3074
-63.0313
-62.282
-61.9416
-61.3329
-60.8492
-60.309
-59.7901
-59.2831
-58.7895
-58.3088
-57.8596
-57.3977
-64.3276
-63.5461
-63.1908
-62.5583
-62.0599
-61.4967
-60.9601
-60.4316
-59.9173
-59.4159
-58.9445
-58.4567
-65.5357
-64.7582
-64.3962
-63.7491
-63.2385
-62.6551
-62.1019
-61.5533
-61.0204
-60.4992
-60.0038
-59.4972
-66.735
-65.9358
-65.5699
-64.9058
-64.3839
-63.7826
-63.2156
-62.6496
-62.1006
-61.5631
-61.053
-60.5224
-67.8522
-67.0784
-66.7045
-66.0297
-65.4983
-64.8814
-64.3024
-63.7208
-63.1571
-62.605
-62.0823
-61.5497
-69.0057
-68.1982
-67.8118
-67.1268
-66.5863
-65.9547
-65.3637
-64.7668
-64.1895
-63.6238
-63.0894
-62.5427
-70.0828
-69.2869
-68.8985
-68.2
-67.6489
-67.0017
-66.3997
-65.7882
-65.1965
-64.6129
-64.0579
-63.5018
-71.1648
-70.3518
-69.9596
-69.2477
-68.6862
-68.0257
-67.4124
-66.7859
-66.1803
-65.5805
-65.0022
-64.4162
-72.1886
-71.3936
-70.9897
-70.2698
-69.7012
-69.0276
-68.4035
-67.7639
-67.1469
-66.536
-65.9501
-65.3553
-73.2612
-72.4206
-72.0078
-71.2722
-70.694
-70.0073
-69.373
-68.7223
-68.0953
-67.4748
-66.8813
-66.2908
-74.2727
-73.419
-72.9978
-72.2505
-71.6634
-70.9644
-70.3225
-69.6602
-69.0237
-68.392
-67.7847
-67.1743
-75.1884
-74.3697
-73.9498
-73.2007
-72.6069
-71.8996
-71.2493
-70.5769
-69.931
-69.2901
-68.6754
-68.0497
-76.1257
-75.3048
-74.8842
-74.129
-73.5297
-72.8134
-72.1555
-71.4728
-70.818
-70.1659
-69.5412
-68.9177
-77.1238
-76.2471
-75.8166
-75.0438
-74.4357
-73.7083
-73.0422
-72.3497
-71.6853
-71.0224
-70.3825
-69.7325
-77.9705
-77.1454
-76.7123
-75.9356
-75.3208
-74.5837
-73.9103
-73.2082
-72.5361
-71.8646
-71.2186
-70.5518
-78.927
-78.0386
-77.5922
-76.8068
-76.1848
-75.4388
-74.7593
-74.0489
-73.3702
-72.6929
-72.0483
-71.3903
-79.7536
-78.8968
-78.45
-77.6578
-77.0288
-76.2752
-75.5894
-74.8707
-74.1853
-73.4989
-72.8441
-72.18
-80.5869
-79.727
-79.2845
-78.4859
-77.8529
-77.092
-76.3997
-75.6732
-74.9806
-74.2851
-73.6201
-72.941
-81.3993
-80.5316
-80.1006
-79.2948
-78.6586
-77.8901
-77.1921
-76.4577
-75.758
-75.0533
-74.3789
-73.6977
-82.2212
-81.35
-80.8978
-80.0885
-79.4458
-78.6709
-77.9674
-77.2254
-76.5194
-75.8082
-75.1287
-74.4383
-82.9899
-82.1407
-81.6857
-80.8684
-80.2197
-79.4363
-78.7264
-77.9768
-77.2646
-76.546
-75.8581
-75.1658
-83.826
-82.9123
-82.4598
-81.6322
-80.9773
-80.1853
-79.469
-78.7121
-77.9937
-77.2682
-76.5742
-75.8647
-84.5923
-83.6855
-83.2218
-82.3802
-81.7174
-80.9167
-80.195
-79.4308
-78.7065
-77.974
-77.2728
-76.562
-85.3023
-84.4126
-83.9358
-83.0998
-82.4339
-81.6288
-80.9032
-80.133
-79.4042
-78.6666
-77.9632
-77.2454
-85.9786
-85.0834
-84.6437
-83.7996
-83.1332
-82.3238
-81.5945
-80.8186
-80.085
-79.3411
-78.6294
-77.8956
-86.6543
-85.7928
-85.3343
-84.4861
-83.8182
-83.0028
-82.2693
-81.4881
-80.7502
-80.0014
-79.2912
-78.5433
-87.4165
-86.4972
-86.0215
-85.1656
-84.4897
-83.6667
-82.9288
-82.1422
-81.4002
-80.6456
-79.9346
-79.2253
-88.0668
-87.14
-86.6864
-85.823
-85.1418
-84.3137
-83.5723
-82.7801
-82.0343
-81.2735
-80.5474
-79.8415
-88.6896
-87.7887
-87.3178
-86.458
-85.776
-84.9437
-84.1987
-83.4017
-82.6527
-81.8891
-81.1553
-80.4456
-89.2941
-88.4007
-87.9492
-87.077
-86.3946
-85.5569
-84.8092
-84.0071
-83.2543
-82.4889
-81.751
-81.0251
-89.9313
-89.0291
-88.565
-87.688
-86.9981
-86.1549
-85.403
-84.5956
-83.8385
-83.0684
-82.3244
-81.5887
-90.5592
-89.6279
-89.1661
-88.2787
-87.5873
-86.737
-85.9811
-85.1681
-84.4061
-83.6318
-82.8866
-82.1413
-91.1188
-90.2004
-89.7378
-88.8489
-88.1578
-87.3026
-86.5426
-85.7242
-84.957
-84.1764
-83.4275
-82.6922
-91.7288
-90.7681
-90.3022
-89.4087
-88.7133
-87.8514
-87.0877
-86.2637
-85.4916
-84.7035
-83.9405
-83.17
-92.1757
-91.3053
-90.8451
-89.9478
-89.2515
-88.3841
-87.6185
-86.7894
-86.0131
-85.2201
-84.4558
-83.6747
-92.7867
-91.8426
-91.3707
-90.4723
-89.7721
-88.9021
-88.1344
-87.3019
-86.5234
-85.7281
-84.9668
-84.1689
-93.2778
-92.3554
-91.8945
-90.9828
-90.2827
-89.4064
-88.6367
-87.8009
-87.0217
-86.2252
-85.4746
-84.6808
-93.7785
-92.854
-92.3924
-91.4804
-90.7769
-89.8963
-89.1239
-88.2841
-87.5036
-86.7025
-85.9526
-85.1589
-94.2768
-93.3257
-92.8776
-91.953
-91.2523
-90.3665
-89.5926
-88.7497
-87.9675
-87.1599
-86.4062
-85.6206
-94.7131
-93.7888
-93.3327
-92.4062
-91.707
-90.8174
-90.0453
-89.1978
-88.4142
-87.6013
-86.8402
-86.0626
-95.2146
-94.231
-93.8007
-92.8412
-92.1533
-91.2541
-90.4816
-89.6302
-88.8458
-88.0311
-87.2673
-86.4953
-95.573
-94.6525
-94.2173
-93.2533
-92.5876
-91.6734
-90.9044
-90.0475
-89.262
-88.4443
-87.672
-86.8974
-95.9403
-95.057
-94.5882
-93.6816
-92.9827
-92.0792
-91.3098
-90.4477
-89.6628
-88.8436
-88.0701
-87.296
-96.4011
-95.4685
-95.0109
-94.0689
-93.3864
-92.4707
-91.7
-90.8344
-90.0486
-89.2277
-88.4499
-87.6754
-96.8406
-95.8578
-95.4205
-94.4469
-93.774
-92.8417
-92.0772
-91.2065
-90.4194
-89.5974
-88.8205
-88.0453
-97.0994
-96.2163
-95.7554
-94.8286
-94.1289
-93.1963
-92.4365
-91.5598
-90.7721
-89.9469
-89.1663
-88.3889
-97.5166
-96.5674
-96.0931
-95.1671
-94.478
-93.5375
-92.7765
-91.8939
-91.1083
-90.2796
-89.4938
-88.6993
-97.8173
-96.9024
-96.4373
-95.4811
-94.8124
-93.8571
-93.1045
-92.2141
-91.4302
-90.5989
-89.818
-89.0306
-98.1405
-97.2079
-96.7569
-95.8159
-95.1038
-94.1729
-93.4174
-92.5199
-91.7365
-90.9012
-90.1183
-89.3267
-98.456
-97.5086
-97.032
-96.117
-95.3982
-94.4592
-93.7093
-92.8075
-92.028
-91.1886
-90.4077
-89.6205
-98.719
-97.7928
-97.2953
-96.404
-95.6642
-94.7315
-93.991
-93.0682
-92.3042
-91.4566
-90.6731
-89.8825
-98.9134
-98.0475
-97.5484
-96.6498
-95.9145
-95.0069
-94.2364
-93.3313
-92.5607
-91.7088
-90.9314
-90.1478
-99.1754
-98.2838
-97.788
-96.9069
-96.1511
-95.2575
-94.4722
-93.5683
-92.803
-91.9437
-91.1652
-90.3768
-99.4246
-98.5324
-98.009
-97.1346
-96.3752
-95.4895
-94.6898
-93.7867
-93.0292
-92.1584
-91.3882
-90.5909
-99.6088
-98.7183
-98.2235
-97.3433
-96.5842
-95.6924
-94.891
-94.0094
-93.2231
-92.368
-91.5921
-90.7813
-99.8537
-98.9165
-98.4235
-97.5358
-96.7711
-95.8894
-95.0781
-94.2033
-93.4121
-92.5577
-91.786
-90.9646
-99.955
-99.0802
-98.5882
-97.715
-96.9491
-96.0676
-95.2529
-94.3868
-93.5787
-92.7349
-91.9565
-91.158
-100.08
-99.25
-98.732
-97.8706
-97.1044
-96.228
-95.4107
-94.5451
-93.7334
-92.8956
-92.1074
-91.2968
-100.317
-99.3875
-98.8856
-98.0195
-97.2481
-96.3727
-95.5512
-94.6887
-93.8779
-93.0415
-92.2528
-91.4567
-100.398
-99.5173
-99.0122
-98.1443
-97.3751
-96.4985
-95.6771
-94.8156
-94.0045
-93.1712
-92.3804
-91.5784
-100.506
-99.63
-99.1183
-98.2564
-97.4818
-96.6097
-95.7856
-94.9264
-94.1144
-93.2851
-92.4989
-91.7121
-100.606
-99.7183
-99.2076
-98.347
-97.5712
-96.6994
-95.8755
-95.0181
-94.2069
-93.3785
-92.5895
-91.8002
-100.66
-99.7719
-99.2707
-98.4079
-97.6384
-96.7702
-95.9456
-95.0903
-94.2793
-93.4531
-92.6647
-91.887
-100.661
-99.8054
-99.304
-98.4521
-97.6854
-96.8202
-95.9966
-95.1436
-94.3325
-93.5071
-92.7146
-91.941
-100.728
-99.8292
-99.3339
-98.4865
-97.7157
-96.8526
-96.0302
-95.1788
-94.3679
-93.5438
-92.7447
-91.9564
-100.645
-99.8316
-99.3355
-98.4899
-97.7258
-96.8668
-96.0455
-95.1969
-94.388
-93.5708
-92.7844
-92.0259
-100.712
-99.8337
-99.3306
-98.4866
-97.7216
-96.8639
-96.0428
-95.1973
-94.3898
-93.5757
-92.7863
-92.01
-100.685
-99.7859
-99.3028
-98.4587
-97.6942
-96.8394
-96.0208
-95.1781
-94.3712
-93.5595
-92.7741
-92.0048
-100.555
-99.733
-99.24
-98.4047
-97.6463
-96.7959
-95.9788
-95.1387
-94.3327
-93.5223
-92.7341
-91.9575
-100.491
-99.6514
-99.1579
-98.3313
-97.578
-96.7321
-95.9176
-95.0811
-94.2769
-93.4686
-92.6824
-91.9054
-100.407
-99.5493
-99.0643
-98.2437
-97.4921
-96.6499
-95.8384
-95.0059
-94.2048
-93.4013
-92.6196
-91.8419
-100.247
-99.4465
-98.9553
-98.1396
-97.3889
-96.55
-95.741
-94.913
-94.1167
-93.3212
-92.5543
-91.8149
-100.142
-99.3246
-98.8305
-98.0176
-97.2671
-96.4305
-95.6234
-94.7994
-94.0066
-93.2151
-92.4474
-91.7129
-100.016
-99.1647
-98.6812
-97.8665
-97.1193
-96.288
-95.4834
-94.6625
-93.8716
-93.0824
-92.3118
-91.5821
-99.8352
-98.9874
-98.5042
-97.6927
-96.9494
-96.1217
-95.3203
-94.503
-93.7143
-92.9274
-92.1496
-91.3835
-99.6052
-98.7668
-98.2958
-97.4946
-96.7556
-95.9327
-95.1348
-94.3227
-93.5385
-92.76
-92.0014
-91.292
-99.3135
-98.5339
-98.0605
-97.2645
-96.5341
-95.7192
-94.9269
-94.121
-93.342
-92.5706
-91.8112
-91.0853
-99.0792
-98.2736
-97.8075
-97.0188
-96.2924
-95.4827
-94.6955
-93.8953
-93.1209
-92.3557
-91.6038
-90.8885
-98.8207
-98.0046
-97.5332
-96.7519
-96.0285
-95.2237
-94.4408
-93.6461
-92.8756
-92.1146
-91.3641
-90.6398
-98.5029
-97.7028
-97.2334
-96.4566
-95.7396
-94.9404
-94.1622
-93.3734
-92.6073
-91.8514
-91.108
-90.392
-98.1169
-97.3535
-96.8979
-96.1309
-95.4226
-94.6316
-93.8594
-93.0773
-92.317
-91.5669
-90.8289
-90.1183
-97.7784
-97.0001
-96.5414
-95.7838
-95.0807
-94.2973
-93.5325
-92.7584
-92.0049
-91.2614
-90.5272
-89.8103
-97.4124
-96.6257
-96.1691
-95.4159
-94.7168
-93.9409
-93.1829
-92.4167
-91.6717
-90.9397
-90.2249
-89.5487
-96.984
-96.2064
-95.7594
-95.013
-94.3229
-93.5566
-92.8068
-92.0501
-91.3144
-90.5914
-89.8806
-89.1988
-96.4882
-95.7559
-95.3161
-94.5833
-93.9023
-93.1453
-92.4041
-91.6568
-90.9295
-90.2161
-89.5169
-88.8542
-96.0302
-95.283
-94.8466
-94.1223
-93.4503
-92.7047
-91.973
-91.2355
-90.5174
-89.8129
-89.1188
-88.453
-95.5373
-94.785
-94.3516
-93.6369
-92.9724
-92.2359
-91.5141
-90.7872
-90.0792
-89.3852
-88.702
-88.0408
-94.9721
-94.256
-93.8259
-93.1206
-92.4651
-91.739
-91.0273
-90.3121
-89.6157
-88.9348
-88.2683
-87.6226
-94.4425
-93.6913
-93.2644
-92.5677
-91.9228
-91.2093
-90.5101
-89.808
-89.1249
-88.4583
-87.8079
-87.1795
-93.7773
-93.0758
-92.6621
-91.9764
-91.3442
-90.6452
-89.9599
-89.2726
-88.6042
-87.9527
-87.3199
-86.7259
-93.1004
-92.4236
-92.0218
-91.3562
-90.7352
-90.0496
-89.3781
-88.7053
-88.0515
-87.4138
-86.7884
-86.1942
-92.4819
-91.7658
-91.354
-90.6952
-90.0871
-89.4175
-88.7616
-88.1047
-87.467
-86.8468
-86.2415
-85.6802
-91.7218
-91.0366
-90.6453
-90.0003
-89.4057
-88.7508
-88.1101
-87.4704
-86.8498
-86.2473
-85.6553
-85.0995
-90.9496
-90.2774
-89.8907
-89.2584
-88.678
-88.042
-87.4206
-86.8009
-86.1991
-85.6159
-85.042
-84.4936
-90.1301
-89.4608
-89.0838
-88.473
-87.911
-87.2957
-86.6943
-86.0959
-85.5163
-84.9569
-84.4113
-83.8984
-89.2306
-88.6023
-88.2358
-87.6441
-87.1003
-86.5077
-85.9291
-85.3547
-84.7997
-84.2654
-83.7458
-83.2665
-88.3307
-87.6943
-87.3388
-86.7641
-86.2414
-85.6728
-85.1207
-84.574
-84.0457
-83.5378
-83.0399
-82.5747
-87.3741
-86.7475
-86.3992
-85.8428
-85.34
-84.7956
-84.2702
-83.7528
-83.2548
-82.7795
-82.3176
-81.9081
-86.3192
-85.7279
-85.397
-84.8641
-84.3864
-83.8712
-83.376
-82.891
-82.4263
-81.9846
-81.5511
-81.1572
-85.2506
-84.6582
-84.3367
-83.8255
-83.3735
-82.8924
-82.4323
-81.9847
-81.5578
-81.1543
-80.7595
-80.4088
-84.1122
-83.5221
-83.2141
-82.7304
-82.3068
-81.8607
-81.44
-81.0339
-80.6501
-80.2906
-79.9382
-79.6227
-82.8778
-82.3062
-82.0171
-81.5614
-81.1738
-80.7696
-80.3933
-80.0354
-79.7013
-79.395
-79.1032
-78.8952
-81.5336
-81.0042
-80.7414
-80.323
-79.9736
-79.6165
-79.2909
-78.9875
-78.7075
-78.4543
-78.203
-78.0207
-80.1515
-79.637
-79.3906
-79.0109
-78.7056
-78.3998
-78.1312
-77.8881
-77.6681
-77.4731
-77.2691
-77.1093
-78.6624
-78.1731
-77.9533
-77.6141
-77.362
-77.1189
-76.9166
-76.7435
-76.5943
-76.4719
-76.3448
-76.2423
-77.1164
-76.6199
-76.4255
-76.1345
-75.9379
-75.7663
-75.6431
-75.5535
-75.4897
-75.4532
-75.4195
-75.4101
-75.3761
-74.9467
-74.7907
-74.5591
-74.4334
-74.3449
-74.3134
-74.3202
-74.354
-74.4121
-74.4713
-74.55
-73.5904
-73.158
-73.0415
-72.8799
-72.8393
-72.8522
-72.9293
-73.0492
-73.1937
-73.3561
-73.5114
-73.6707
-71.6118
-71.2237
-71.1597
-71.0861
-71.1537
-71.291
-71.4994
-71.7524
-72.026
-72.3093
-72.5787
-72.8505
-69.4841
-69.1338
-69.1425
-69.1813
-69.3841
-69.6749
-70.0423
-70.4529
-70.8763
-71.2975
-71.6915
-72.0724
-67.1571
-66.8587
-66.9697
-67.1625
-67.545
-68.029
-68.5893
-69.1834
-69.7785
-70.3538
-70.884
-71.3826
-64.5567
-64.3577
-64.6307
-65.0456
-65.6698
-66.4005
-67.1929
-67.9989
-68.7838
-69.5262
-70.2011
-70.8173
-61.6503
-61.6041
-62.1434
-62.8934
-63.8482
-64.8827
-65.9411
-66.977
-67.9598
-68.8722
-69.694
-70.4266
-58.2973
-58.5991
-59.6155
-60.8678
-62.2508
-63.6309
-64.9646
-66.2251
-67.3928
-68.4642
-69.4218
-70.2548
-54.1839
-55.6411
-57.528
-59.4761
-61.2974
-62.9626
-64.5051
-65.9293
-67.2146
-68.4166
-69.4659
-70.3567
3.1154
-2.71236
-4.93185
-7.0183
-8.88338
-10.6114
-11.9788
-13.1542
-14.2062
-15.0248
-15.6957
-16.1726
-3.04851
-5.10314
-6.00665
-7.64714
-9.19596
-10.6903
-11.9391
-13.0619
-14.0757
-14.8672
-15.523
-15.9854
-8.12071
-8.6299
-8.79994
-9.78512
-10.7386
-11.7825
-12.7431
-13.6572
-14.46
-15.1191
-15.6786
-16.0941
-11.0945
-11.305
-11.3523
-11.9721
-12.5267
-13.2169
-13.8838
-14.5484
-15.1423
-15.6468
-16.0828
-16.407
-13.3135
-13.39
-13.4299
-13.8597
-14.2003
-14.6698
-15.1214
-15.5853
-16.0061
-16.3706
-16.6853
-16.9147
-15.4201
-15.347
-15.3365
-15.6092
-15.8019
-16.1135
-16.4053
-16.7138
-16.9926
-17.2357
-17.443
-17.5696
-17.4743
-17.2649
-17.2013
-17.3335
-17.4009
-17.5769
-17.7337
-17.911
-18.0667
-18.2002
-18.3111
-18.3583
-19.4185
-19.1119
-19.0139
-19.0318
-18.9962
-19.055
-19.0946
-19.1569
-19.2033
-19.2365
-19.2564
-19.2208
-21.2481
-20.8727
-20.7568
-20.6828
-20.5668
-20.5282
-20.4691
-20.4324
-20.3832
-20.3256
-20.259
-20.1572
-22.9864
-22.5617
-22.4329
-22.2831
-22.1042
-21.9856
-21.8448
-21.7245
-21.5935
-21.4584
-21.3165
-21.1371
-24.6573
-24.1985
-24.0556
-23.8416
-23.6125
-23.4264
-23.2175
-23.0264
-22.8258
-22.6251
-22.4279
-22.2055
-26.284
-25.7975
-25.638
-25.3682
-25.0977
-24.8538
-24.5869
-24.3347
-24.0726
-23.8098
-23.5526
-23.2935
-27.8669
-27.3647
-27.1881
-26.8708
-26.5653
-26.2711
-25.9542
-25.6483
-25.3317
-25.0112
-24.6799
-24.345
-29.4305
-28.9096
-28.7143
-28.3559
-28.0205
-27.6821
-27.3223
-26.9702
-26.6085
-26.2482
-25.8831
-25.5059
-30.9691
-30.436
-30.2223
-29.8291
-29.4676
-29.0902
-28.6935
-28.3014
-27.9001
-27.5024
-27.1023
-26.6615
-32.4908
-31.9491
-31.7179
-31.2948
-30.9102
-30.4981
-30.0688
-29.6409
-29.2034
-28.7694
-28.3423
-27.8949
-34.0113
-33.4566
-33.2076
-32.7578
-32.3519
-31.9084
-31.45
-30.9896
-30.5192
-30.0494
-29.5828
-29.1074
-35.5231
-34.9606
-34.6951
-34.2221
-33.7966
-33.3246
-32.8399
-32.3499
-31.8499
-31.3497
-30.853
-30.3418
-37.0417
-36.4668
-36.1851
-35.6912
-35.2473
-34.7497
-34.2416
-33.7249
-33.198
-32.6678
-32.1273
-31.5578
-38.5609
-37.9776
-37.6815
-37.1686
-36.7077
-36.1872
-35.6584
-35.1187
-34.5702
-34.0232
-33.4774
-32.8832
-40.0935
-39.4973
-39.1868
-38.6564
-38.1798
-37.6388
-37.0922
-36.5321
-35.9638
-35.3961
-34.8222
-34.1463
-41.6336
-41.0271
-40.7037
-40.1571
-39.6661
-39.1066
-38.5437
-37.9657
-37.38
-36.7985
-36.2444
-35.575
-43.1861
-42.5692
-42.2338
-41.6726
-41.1677
-40.5913
-40.0135
-39.4195
-38.8179
-38.2127
-37.6453
-37.0705
-44.7553
-44.1264
-43.7794
-43.2037
-42.6859
-42.0938
-41.5023
-40.8932
-40.2788
-39.6542
-39.0487
-38.5051
-46.342
-45.6996
-45.3414
-44.7522
-44.2221
-43.6156
-43.011
-42.3874
-41.7615
-41.127
-40.4978
-39.8877
-47.9418
-47.2885
-46.9209
-46.3188
-45.7771
-45.1575
-44.541
-43.9036
-43.2643
-42.6156
-41.9539
-41.2996
-49.5589
-48.895
-48.5184
-47.9044
-47.3522
-46.7207
-46.094
-45.4453
-44.7958
-44.1429
-43.4805
-42.7757
-51.1983
-50.5212
-50.1354
-49.5097
-48.9479
-48.306
-47.6711
-47.014
-46.357
-45.7004
-45.0474
-44.3219
-52.8582
-52.166
-51.7712
-51.1344
-50.5638
-49.9128
-49.2712
-48.6078
-47.9455
-47.2835
-46.6383
-45.9591
-54.5303
-53.8265
-53.4243
-52.777
-52.1986
-51.5396
-50.8924
-50.2239
-49.5577
-48.8899
-48.2366
-47.5426
-56.2214
-55.5028
-55.0936
-54.4364
-53.8509
-53.1849
-52.5327
-51.86
-51.1915
-50.5216
-49.8711
-49.1931
-57.9215
-57.1925
-56.7773
-56.1108
-55.519
-54.8469
-54.1909
-53.5151
-52.8454
-52.1736
-51.5196
-50.8457
-59.6393
-58.8949
-58.4735
-57.7982
-57.2011
-56.5239
-55.865
-55.1871
-54.5175
-53.847
-53.1929
-52.5181
-61.3613
-60.6065
-60.1805
-59.4966
-58.8946
-58.2131
-57.5526
-56.8739
-56.2058
-55.538
-54.8856
-54.2057
-63.0933
-62.326
-61.8948
-61.203
-60.5971
-59.9122
-59.251
-58.573
-57.9077
-57.2451
-56.6038
-55.9252
-64.8354
-64.0512
-63.6147
-62.9147
-62.3052
-61.6177
-60.957
-60.2809
-59.6196
-58.9615
-58.3265
-57.6651
-66.5742
-65.7754
-65.335
-64.6273
-64.0149
-63.3255
-62.6662
-61.9933
-61.3381
-60.6885
-60.0666
-59.4052
-68.302
-67.493
-67.0501
-66.3356
-65.7213
-65.0309
-64.374
-63.7054
-63.0576
-62.4181
-61.8181
-61.2394
-70.0255
-69.2022
-68.7567
-68.0355
-67.4201
-66.7291
-66.0749
-65.4104
-64.7681
-64.1302
-63.499
-62.7978
-71.7331
-70.8981
-70.4503
-69.7225
-69.1063
-68.4152
-67.7645
-67.1053
-66.4723
-65.8545
-65.2711
-64.5947
-73.4257
-72.5758
-72.1254
-71.3912
-70.7745
-70.0837
-69.4377
-68.7859
-68.164
-67.5614
-67.0153
-66.387
-75.0925
-74.2285
-73.7768
-73.036
-72.4187
-71.7281
-71.0862
-70.4407
-69.8267
-69.228
-68.6863
-68.0484
-76.7237
-75.8499
-75.3979
-74.6505
-74.0328
-73.3418
-72.7031
-72.0624
-71.4561
-70.8651
-70.3446
-69.7759
-78.325
-77.4371
-76.9839
-76.2294
-75.6112
-74.9193
-74.2832
-73.6467
-73.0487
-72.4647
-71.9525
-71.4311
-79.8832
-78.9841
-78.5299
-77.7679
-77.1487
-76.4552
-75.821
-75.1871
-74.5945
-74.0145
-73.4947
-72.9721
-81.402
-80.4862
-80.0305
-79.2607
-78.6404
-77.9447
-77.3117
-76.6793
-76.0907
-75.5141
-74.9817
-74.4169
-82.8555
-81.9347
-81.4808
-80.703
-80.0815
-79.383
-78.7515
-78.1213
-77.5398
-76.9798
-76.4836
-75.9365
-84.2707
-83.3318
-82.8773
-82.0906
-81.4673
-80.7653
-80.1344
-79.5058
-78.929
-78.3778
-77.9027
-77.3561
-85.6161
-84.6687
-84.215
-83.4186
-82.793
-82.0859
-81.4534
-80.8228
-80.2447
-79.6878
-79.2127
-78.668
-86.9011
-85.944
-85.4909
-84.6838
-84.0551
-83.3409
-82.7044
-82.0687
-81.4866
-80.9217
-80.4422
-79.9295
-88.1327
-87.1572
-86.7033
-85.884
-85.2513
-84.5283
-83.8862
-83.2437
-82.6571
-82.0854
-81.5967
-81.0829
-89.2817
-88.3009
-87.8483
-87.0166
-86.3795
-85.6466
-84.9979
-84.3469
-83.7541
-83.1749
-82.6753
-82.1743
-90.3674
-89.3759
-88.9258
-88.0804
-87.4388
-86.6947
-86.0383
-85.3769
-84.7757
-84.1871
-83.674
-83.1513
-91.3943
-90.3865
-89.9366
-89.0757
-88.4293
-87.6722
-87.0068
-86.3329
-85.7205
-85.1202
-84.5916
-84.0712
-92.339
-91.3249
-90.8786
-90.0019
-89.3508
-88.5794
-87.9038
-87.216
-86.5905
-85.9763
-85.4317
-84.891
-93.2168
-92.1957
-91.7536
-90.8596
-90.2044
-89.4173
-88.7308
-88.0273
-87.3865
-86.7546
-86.1868
-85.6302
-94.0423
-93.0012
-92.5651
-91.6513
-90.9927
-90.1882
-89.4901
-88.7696
-88.1124
-87.4627
-86.8748
-86.2979
-94.7975
-93.7444
-93.3177
-92.3789
-91.7182
-90.8943
-90.1846
-89.4462
-88.7719
-88.103
-87.4906
-86.8984
-95.4852
-94.4223
-94.0074
-93.0434
-92.3834
-91.5381
-90.8173
-90.0603
-89.369
-88.6823
-88.051
-87.438
-96.1144
-95.0497
-94.641
-93.6466
-92.9919
-92.1221
-91.3916
-90.6149
-89.9055
-89.1975
-88.54
-87.9086
-96.6888
-95.6196
-95.2178
-94.1923
-93.5464
-92.6489
-91.9109
-91.1134
-90.386
-89.6568
-88.9734
-88.3144
-97.206
-96.1391
-95.7348
-94.6824
-94.051
-93.1213
-92.3802
-91.5604
-90.8161
-90.0668
-89.3594
-88.6745
-97.6785
-96.6173
-96.1938
-95.1254
-94.5099
-93.5438
-92.8047
-91.9603
-91.2011
-90.4324
-89.7055
-89.0002
-98.0937
-97.059
-96.5851
-95.5475
-94.9223
-93.9212
-93.1886
-92.3161
-91.5447
-90.7557
-90.0064
-89.2804
-98.4677
-97.4495
-96.9417
-95.9428
-95.2838
-94.2574
-93.5363
-92.63
-91.8519
-91.0419
-90.2713
-89.5148
-98.8162
-97.7984
-97.2738
-96.3002
-95.5831
-94.5649
-93.8481
-92.9063
-92.1288
-91.2979
-90.5166
-89.7622
-99.1229
-98.1085
-97.5714
-96.6057
-95.8436
-94.862
-94.1225
-93.15
-92.3787
-91.5209
-90.7215
-89.9428
-99.3878
-98.3792
-97.8348
-96.8731
-96.0924
-95.1372
-94.3379
-93.3731
-92.6004
-91.7137
-90.9083
-90.1147
-99.6248
-98.6194
-98.0691
-97.1107
-96.3165
-95.3638
-94.5287
-93.5909
-92.7852
-91.882
-91.0738
-90.2569
-99.8279
-98.8308
-98.2775
-97.3195
-96.5131
-95.5599
-94.7085
-93.778
-92.9355
-92.0455
-91.2164
-90.3761
-100.023
-99.0178
-98.4608
-97.5023
-96.6877
-95.7325
-94.8695
-93.9359
-93.0768
-92.185
-91.3419
-90.4861
-100.176
-99.1789
-98.6218
-97.6624
-96.841
-95.8836
-95.0109
-94.0734
-93.2043
-92.3051
-91.4509
-90.5808
-100.317
-99.3174
-98.7606
-97.8008
-96.9741
-96.0149
-95.1343
-94.1935
-93.3169
-92.4131
-91.5561
-90.697
-100.433
-99.438
-98.8788
-97.9194
-97.0882
-96.1274
-95.2405
-94.2968
-93.4139
-92.5058
-91.6411
-90.7943
-100.532
-99.5371
-98.9778
-98.019
-97.1846
-96.2224
-95.3302
-94.3836
-93.4944
-92.581
-91.7011
-90.8344
-100.602
-99.6181
-99.0586
-98.1015
-97.2643
-96.3011
-95.4046
-94.4556
-93.5614
-92.6455
-91.7623
-90.8689
-100.67
-99.6803
-99.1238
-98.1671
-97.328
-96.3645
-95.4647
-94.5146
-93.617
-92.6999
-91.8204
-90.9383
-100.712
-99.7298
-99.1724
-98.2165
-97.3764
-96.4132
-95.5111
-94.5607
-93.6608
-92.7413
-91.8563
-90.9682
-100.739
-99.7596
-99.2039
-98.2512
-97.4102
-96.4477
-95.5441
-94.5939
-93.693
-92.7741
-91.8917
-91.0146
-100.752
-99.7754
-99.2203
-98.2696
-97.4288
-96.4677
-95.5632
-94.6141
-93.7127
-92.7941
-91.9079
-91.023
-100.75
-99.7751
-99.221
-98.2736
-97.4326
-96.4733
-95.5686
-94.6209
-93.7199
-92.804
-91.9235
-91.0571
-100.721
-99.7566
-99.205
-98.2613
-97.4215
-96.4643
-95.5599
-94.6139
-93.7131
-92.7979
-91.9116
-91.0329
-100.684
-99.7239
-99.1737
-98.2339
-97.3954
-96.4407
-95.5368
-94.5926
-93.6924
-92.78
-91.8989
-91.0358
-100.635
-99.6781
-99.1286
-98.1921
-97.3546
-96.4024
-95.4993
-94.5573
-93.6578
-92.7463
-91.8605
-90.9864
-100.569
-99.6139
-99.0676
-98.1351
-97.2987
-96.3495
-95.4475
-94.5081
-93.6098
-92.7013
-91.8189
-90.9466
-100.484
-99.5346
-98.9899
-98.0615
-97.2273
-96.2815
-95.3811
-94.4451
-93.5491
-92.6444
-91.7657
-90.892
-100.378
-99.4365
-98.8946
-97.9711
-97.1396
-96.1978
-95.2998
-94.3677
-93.4748
-92.5751
-91.7039
-90.8354
-100.265
-99.3247
-98.7835
-97.865
-97.0359
-96.098
-95.2025
-94.2745
-93.385
-92.4897
-91.626
-90.7746
-100.124
-99.1912
-98.654
-97.7406
-96.9148
-95.9813
-95.0884
-94.1643
-93.2773
-92.3837
-91.5169
-90.6508
-99.9644
-99.0417
-98.5068
-97.5991
-96.7764
-95.8474
-94.9573
-94.0372
-93.1531
-92.2628
-91.4004
-90.529
-99.7968
-98.8753
-98.3426
-97.44
-96.6204
-95.6961
-94.8093
-93.8938
-93.014
-92.1296
-91.2787
-90.4307
-99.6089
-98.6892
-98.1592
-97.2619
-96.4461
-95.5269
-94.6438
-93.7334
-92.8581
-91.9779
-91.1293
-90.2821
-99.3915
-98.4821
-97.9552
-97.0642
-96.2525
-95.3388
-94.4597
-93.5546
-92.6838
-91.8075
-90.9599
-90.1009
-99.1593
-98.2547
-97.7301
-96.8457
-96.0387
-95.131
-94.2566
-93.3574
-92.4924
-91.6242
-90.7917
-89.9598
-98.8984
-98.0036
-97.4838
-96.6067
-95.8041
-94.9029
-94.0337
-93.1408
-92.282
-91.4199
-90.5913
-89.7634
-98.6175
-97.7313
-97.2154
-96.3455
-95.5486
-94.6539
-93.7899
-92.9032
-92.05
-91.1943
-90.3728
-89.5645
-98.3233
-97.4434
-96.9274
-96.0638
-95.2716
-94.3831
-93.5242
-92.6437
-91.7961
-90.9454
-90.1226
-89.312
-98.0132
-97.1264
-96.6159
-95.7582
-94.9711
-94.0896
-93.2365
-92.3626
-91.5211
-90.6783
-89.8626
-89.0648
-97.6541
-96.7822
-96.2772
-95.4272
-94.6468
-93.7727
-92.9263
-92.0599
-91.2258
-90.3921
-89.583
-88.7916
-97.2669
-96.4132
-95.9116
-95.0707
-94.2974
-93.4313
-92.5921
-91.7342
-90.9084
-90.0856
-89.2915
-88.5363
-96.8796
-96.0176
-95.52
-94.6881
-93.9223
-93.0649
-92.233
-91.3837
-90.5646
-89.7487
-88.9505
-88.1778
-96.4443
-95.5985
-95.1039
-94.2802
-93.5208
-92.6723
-91.8482
-91.0075
-90.196
-89.39
-88.6032
-87.8568
-95.9769
-95.1428
-94.6561
-93.8428
-93.0913
-92.2524
-91.4369
-90.606
-89.8037
-89.0087
-88.2283
-87.4778
-95.4939
-94.6641
-94.1811
-93.3772
-92.6346
-91.8056
-90.999
-90.1787
-89.3863
-88.6042
-87.841
-87.1242
-94.9743
-94.1551
-93.6767
-92.8817
-92.1479
-91.3293
-90.533
-89.7233
-88.9406
-88.1689
-87.4084
-86.6787
-94.4299
-93.6157
-93.1414
-92.3565
-91.6308
-90.823
-90.0367
-89.2387
-88.4667
-87.7085
-86.9671
-86.2575
-93.8367
-93.0359
-92.5703
-91.7976
-91.0819
-90.2859
-89.5102
-88.7243
-87.9636
-87.2165
-86.4835
-85.7697
-93.2269
-92.4288
-91.9657
-91.2029
-90.4981
-89.7154
-88.9517
-88.179
-87.4308
-86.697
-85.9819
-85.2985
-92.5723
-91.7802
-91.3255
-90.5739
-89.8801
-89.1109
-88.3605
-87.6023
-86.8682
-86.1484
-85.4449
-84.7651
-91.8535
-91.0889
-90.643
-89.9064
-89.2263
-88.4714
-87.735
-86.9929
-86.274
-85.571
-84.8863
-84.2291
-91.1154
-90.3635
-89.9238
-89.2013
-88.5344
-87.7959
-87.0748
-86.3494
-85.6475
-84.9622
-84.2953
-83.6587
-90.3599
-89.5991
-89.1656
-88.4564
-87.8029
-87.0811
-86.3775
-85.6702
-84.9866
-84.3211
-83.6764
-83.0841
-89.5307
-88.7867
-88.3632
-87.6695
-87.0306
-86.3268
-85.6413
-84.9532
-84.2881
-83.6407
-83.0065
-82.415
-88.6523
-87.928
-87.5129
-86.836
-86.2143
-85.5308
-84.8645
-84.1976
-83.5526
-82.9259
-82.3085
-81.7233
-87.7262
-87.018
-86.6139
-85.9549
-85.3519
-84.6905
-84.047
-83.4043
-82.7832
-82.1822
-81.5933
-81.0282
-86.7764
-86.0652
-85.668
-85.0274
-84.4442
-83.806
-83.1876
-82.5725
-81.9792
-81.4078
-80.8525
-80.3178
-85.7304
-85.0468
-84.6655
-84.046
-83.4854
-82.8742
-82.2837
-81.6989
-81.1367
-80.5983
-80.0821
-79.6041
-84.6397
-83.9723
-83.6045
-83.0085
-82.4723
-81.8911
-81.3315
-80.7795
-80.2508
-79.7458
-79.2587
-78.8251
-83.493
-82.8414
-82.486
-81.9139
-81.4034
-80.8535
-80.3277
-79.8116
-79.3195
-78.8512
-78.3949
-77.9605
-82.2914
-81.6453
-81.3031
-80.7561
-80.2749
-79.7596
-79.2709
-78.7948
-78.3437
-77.9184
-77.511
-77.1353
-80.992
-80.3739
-80.0498
-79.5312
-79.0817
-78.6057
-78.1589
-77.7279
-77.323
-76.9448
-76.5868
-76.2673
-79.6362
-79.0269
-78.7192
-78.2336
-77.8202
-77.3885
-76.9894
-76.6084
-76.2542
-75.9246
-75.6079
-75.3218
-78.171
-77.5914
-77.3072
-76.8576
-76.4858
-76.1044
-75.7588
-75.4356
-75.1397
-74.869
-74.6118
-74.388
-76.6318
-76.072
-75.81
-75.4
-75.0755
-74.7514
-74.4675
-74.2106
-73.9824
-73.7799
-73.5915
-73.4365
-75.0028
-74.4576
-74.2208
-73.856
-73.5856
-73.3265
-73.114
-72.9334
-72.7822
-72.6563
-72.5427
-72.4772
-73.2386
-72.7262
-72.5231
-72.2126
-72.0063
-71.8246
-71.6961
-71.6037
-71.5408
-71.5006
-71.4616
-71.4452
-71.3641
-70.8817
-70.716
-70.4682
-70.3378
-70.2468
-70.2165
-70.2271
-70.2672
-70.3278
-70.3882
-70.4544
-69.3681
-68.9085
-68.7867
-68.6141
-68.5756
-68.5936
-68.6808
-68.8132
-68.9738
-69.1509
-69.3246
-69.478
-67.1964
-66.7818
-66.718
-66.6408
-66.7171
-66.8679
-67.0969
-67.3736
-67.6749
-67.9862
-68.2924
-68.5772
-64.8641
-64.4905
-64.5024
-64.5463
-64.7686
-65.0846
-65.4842
-65.9307
-66.3936
-66.8535
-67.2955
-67.7074
-62.3133
-61.9979
-62.1193
-62.3288
-62.7426
-63.2668
-63.8739
-64.5182
-65.1644
-65.7875
-66.3707
-66.9037
-59.4972
-59.2727
-59.5632
-60.0104
-60.684
-61.4705
-62.3255
-63.1964
-64.0449
-64.8445
-65.5786
-66.2473
-56.3374
-56.2761
-56.8526
-57.6542
-58.6795
-59.7919
-60.9322
-62.0499
-63.1109
-64.0928
-64.9796
-65.7649
-52.6624
-52.9914
-54.0859
-55.4281
-56.9133
-58.3971
-59.8336
-61.1922
-62.4552
-63.6096
-64.6412
-65.5478
-48.2106
-49.7746
-51.7986
-53.8824
-55.838
-57.634
-59.2955
-60.8233
-62.2235
-63.5183
-64.6433
-65.5981
-5.75956
-11.1534
-13.3667
-15.4387
-17.0783
-18.6507
-20.021
-21.2724
-22.2963
-23.0245
-23.5605
-23.9538
-11.6347
-13.4774
-14.2952
-15.7505
-17.1529
-18.5792
-19.8241
-20.9628
-21.9493
-22.7094
-23.2763
-23.6859
-16.3413
-16.778
-16.9227
-17.7887
-18.6559
-19.6401
-20.5674
-21.4526
-22.2231
-22.8495
-23.3459
-23.7164
-19.0763
-19.258