/*--------------------------------*- C++ -*----------------------------------*\
| =========                 |                                                 |
| \\      /  F ield         | OpenFOAM: The Open Source CFD Toolbox           |
|  \\    /   O peration     | Version:  2.4.0                                 |
|   \\  /    A nd           | Web:      www.OpenFOAM.org                      |
|    \\/     M anipulation  |                                                 |
\*---------------------------------------------------------------------------*/
FoamFile
{
    version     2.0;
    format      ascii;
    class       surfaceScalarField;
    location    "0.04";
    object      phi;
}
// * * * * * * * * * * * * * * * * * * * * * * * * * * * * * * * * * * * * * //

dimensions      [0 3 -1 0 0 0 0];

internalField   nonuniform List<scalar> 
184635
(
-1.5586e-05
0.00013362
-0.000118034
-2.59461e-05
0.000149691
-0.000139331
-3.26924e-05
0.000163676
-0.000156929
-3.7379e-05
0.000179787
-0.0001751
-4.10016e-05
0.000190875
-0.000187253
-4.37747e-05
0.000202038
-0.000199265
-4.57365e-05
0.000210034
-0.000208072
-4.70243e-05
0.000215957
-0.000214669
-4.7607e-05
0.000219496
-0.000218913
-4.80129e-05
0.000222089
-0.000221683
-4.8663e-05
0.000224217
-0.000223567
0.000225456
-4.88661e-05
-0.000225253
-8.78096e-06
0.000142401
-1.68731e-05
0.000157783
-2.43004e-05
0.000171103
-2.97468e-05
0.000185233
-3.4131e-05
0.000195259
-3.73053e-05
0.000205213
-3.97812e-05
0.00021251
-4.13748e-05
0.00021755
-4.28492e-05
0.00022097
-4.402e-05
0.00022326
-4.46812e-05
0.000224878
0.000226155
-4.53804e-05
-6.90511e-06
0.000149306
-1.34553e-05
0.000164333
-1.94683e-05
0.000177116
-2.45942e-05
0.000190359
-2.89879e-05
0.000199653
-3.25021e-05
0.000208727
-3.50697e-05
0.000215077
-3.72274e-05
0.000219708
-3.87591e-05
0.000222502
-3.99244e-05
0.000224425
-4.11195e-05
0.000226073
0.000226985
-4.19494e-05
-5.9574e-06
0.000155264
-1.14814e-05
0.000169857
-1.69577e-05
0.000182592
-2.11941e-05
0.000194595
-2.52439e-05
0.000203703
-2.8444e-05
0.000211927
-3.09482e-05
0.000217581
-3.30346e-05
0.000221794
-3.49147e-05
0.000224382
-3.65349e-05
0.000226045
-3.77455e-05
0.000227284
0.000228184
-3.89444e-05
-4.65262e-06
0.000159916
-9.51807e-06
0.000174723
-1.43688e-05
0.000187443
-1.84515e-05
0.000198678
-2.22074e-05
0.000207459
-2.51584e-05
0.000214878
-2.79318e-05
0.000220355
-3.02205e-05
0.000224083
-3.19227e-05
0.000226084
-3.37302e-05
0.000227853
-3.49942e-05
0.000228548
0.000229274
-3.6084e-05
-3.97484e-06
0.000163891
-8.22993e-06
0.000178978
-1.24409e-05
0.000191654
-1.62706e-05
0.000202508
-1.95382e-05
0.000210726
-2.26551e-05
0.000217995
-2.52721e-05
0.000222972
-2.73643e-05
0.000226175
-2.90922e-05
0.000227812
-3.06142e-05
0.000229375
-3.22958e-05
0.000230229
0.000230693
-3.3715e-05
-3.3038e-06
0.000167195
-7.36996e-06
0.000183044
-1.10746e-05
0.000195359
-1.46018e-05
0.000206035
-1.77088e-05
0.000213833
-2.03295e-05
0.000220616
-2.28486e-05
0.000225491
-2.48139e-05
0.000228141
-2.68825e-05
0.000229881
-2.8689e-05
0.000231181
-3.00659e-05
0.000231606
0.000232018
-3.13905e-05
-3.01933e-06
0.000170214
-6.58972e-06
0.000186614
-9.94058e-06
0.000198709
-1.304e-05
0.000209134
-1.60808e-05
0.000216874
-1.85371e-05
0.000223072
-2.07743e-05
0.000227728
-2.29386e-05
0.000230305
-2.46342e-05
0.000231576
-2.62509e-05
0.000232798
-2.79029e-05
0.000233258
0.000233506
-2.93915e-05
-2.469e-06
0.000172683
-5.60335e-06
0.000189749
-9.18662e-06
0.000202293
-1.18893e-05
0.000211837
-1.45653e-05
0.00021955
-1.72078e-05
0.000225714
-1.91682e-05
0.000229689
-2.10829e-05
0.00023222
-2.30858e-05
0.000233579
-2.45148e-05
0.000234227
-2.5975e-05
0.000234718
0.000235134
-2.76025e-05
-2.36354e-06
0.000175047
-5.37628e-06
0.000192762
-7.94658e-06
0.000204863
-1.08509e-05
0.000214741
-1.32622e-05
0.000221961
-1.56806e-05
0.000228133
-1.77061e-05
0.000231714
-1.97304e-05
0.000234244
-2.13372e-05
0.000235186
-2.31766e-05
0.000236066
-2.45474e-05
0.000236089
0.000236376
-2.57892e-05
-2.25882e-06
0.000177306
-4.80664e-06
0.000195309
-7.63051e-06
0.000207687
-1.01243e-05
0.000217235
-1.26413e-05
0.000224478
-1.44177e-05
0.000229909
-1.66176e-05
0.000233914
-1.83049e-05
0.000235931
-2.0134e-05
0.000237015
-2.16705e-05
0.000237603
-2.32944e-05
0.000237713
0.000237654
-2.45729e-05
-1.83809e-06
0.000179144
-4.51349e-06
0.000197985
-6.92351e-06
0.000210097
-9.17834e-06
0.00021949
-1.13828e-05
0.000226683
-1.35727e-05
0.000232099
-1.56027e-05
0.000235944
-1.73092e-05
0.000237638
-1.88186e-05
0.000238525
-2.02392e-05
0.000239023
-2.1661e-05
0.000239135
0.000239174
-2.31807e-05
-1.85001e-06
0.000180994
-4.04499e-06
0.00020018
-6.37734e-06
0.000212429
-8.75204e-06
0.000221865
-1.07554e-05
0.000228686
-1.29365e-05
0.00023428
-1.4344e-05
0.000237351
-1.61733e-05
0.000239467
-1.79908e-05
0.000240342
-1.93661e-05
0.000240399
-2.09385e-05
0.000240707
0.000240138
-2.19025e-05
-1.85027e-06
0.000182844
-3.63857e-06
0.000201968
-5.98139e-06
0.000214772
-7.98243e-06
0.000223866
-1.02243e-05
0.000230928
-1.19609e-05
0.000236017
-1.38392e-05
0.00023923
-1.53358e-05
0.000240964
-1.65526e-05
0.000241559
-1.8169e-05
0.000242015
-1.94403e-05
0.000241978
0.000241767
-2.10691e-05
-1.54344e-06
0.000184388
-3.73499e-06
0.00020416
-5.72023e-06
0.000216757
-7.70268e-06
0.000225848
-9.49967e-06
0.000232725
-1.11525e-05
0.00023767
-1.27735e-05
0.000240851
-1.44888e-05
0.000242679
-1.61282e-05
0.000243198
-1.74281e-05
0.000243315
-1.87575e-05
0.000243308
0.000242959
-1.995e-05
-1.33996e-06
0.000185728
-3.12823e-06
0.000205948
-5.3269e-06
0.000218956
-7.12912e-06
0.00022765
-9.10761e-06
0.000234703
-1.07752e-05
0.000239337
-1.2441e-05
0.000242517
-1.36328e-05
0.000243871
-1.4949e-05
0.000244515
-1.65731e-05
0.000244939
-1.7784e-05
0.000244519
0.000244422
-1.9247e-05
-1.38816e-06
0.000187116
-3.27788e-06
0.000207838
-4.87962e-06
0.000220558
-6.86271e-06
0.000229634
-8.49677e-06
0.000236337
-1.02875e-05
0.000241128
-1.15101e-05
0.000243739
-1.31268e-05
0.000245487
-1.46837e-05
0.000246071
-1.57059e-05
0.000245961
-1.71654e-05
0.000245978
0.000245568
-1.83116e-05
-1.36551e-06
0.000188481
-3.02768e-06
0.0002095
-4.63759e-06
0.000222168
-6.367e-06
0.000231363
-7.92881e-06
0.000237899
-9.46491e-06
0.000242664
-1.11084e-05
0.000245383
-1.2398e-05
0.000246777
-1.3715e-05
0.000247388
-1.50992e-05
0.000247346
-1.6312e-05
0.000247191
0.000246664
-1.74078e-05
-1.28458e-06
0.000189766
-2.65904e-06
0.000210874
-4.59908e-06
0.000224108
-6.17481e-06
0.000232939
-7.76065e-06
0.000239485
-9.07471e-06
0.000243978
-1.07595e-05
0.000247067
-1.20913e-05
0.000248109
-1.32045e-05
0.000248502
-1.44428e-05
0.000248584
-1.55615e-05
0.00024831
0.000247738
-1.6635e-05
-9.43284e-07
0.000190709
-2.43893e-06
0.00021237
-4.2285e-06
0.000225897
-5.74274e-06
0.000234453
-7.46138e-06
0.000241204
-8.89546e-06
0.000245412
-9.8824e-06
0.000248054
-1.13785e-05
0.000249605
-1.26243e-05
0.000249747
-1.37471e-05
0.000249707
-1.51205e-05
0.000249683
0.000248887
-1.62695e-05
-1.0647e-06
0.000191774
-2.65331e-06
0.000213958
-3.95306e-06
0.000227197
-5.68587e-06
0.000236186
-6.79828e-06
0.000242316
-8.38395e-06
0.000246998
-9.90254e-06
0.000249573
-1.08711e-05
0.000250573
-1.2292e-05
0.000251168
-1.33886e-05
0.000250803
-1.4455e-05
0.000250749
0.000249987
-1.55548e-05
-1.15762e-06
0.000192931
-2.23813e-06
0.000215039
-3.81715e-06
0.000228776
-5.30075e-06
0.000237669
-6.92293e-06
0.000243938
-7.98112e-06
0.000248056
-9.17476e-06
0.000250767
-1.06044e-05
0.000252003
-1.17063e-05
0.00025227
-1.2774e-05
0.000251871
-1.38882e-05
0.000251864
0.00025121
-1.51113e-05
-9.6534e-07
0.000193897
-2.4146e-06
0.000216488
-3.58159e-06
0.000229943
-4.93108e-06
0.000239019
-6.22327e-06
0.00024523
-7.72866e-06
0.000249562
-8.96924e-06
0.000252007
-1.00783e-05
0.000253112
-1.11537e-05
0.000253346
-1.25743e-05
0.000253292
-1.36018e-05
0.000252891
0.00025191
-1.43026e-05
-8.75524e-07
0.000194772
-2.00372e-06
0.000217616
-3.55373e-06
0.000231493
-4.85614e-06
0.000240321
-6.19032e-06
0.000246565
-7.37211e-06
0.000250743
-8.49603e-06
0.000253131
-9.57526e-06
0.000254191
-1.07032e-05
0.000254474
-1.17241e-05
0.000254312
-1.27232e-05
0.00025389
0.00025328
-1.40923e-05
-9.13032e-07
0.000195685
-2.01081e-06
0.000218714
-3.33149e-06
0.000232814
-4.59373e-06
0.000241584
-6.09293e-06
0.000248064
-7.24243e-06
0.000251893
-8.33623e-06
0.000254225
-9.46724e-06
0.000255322
-1.04874e-05
0.000255494
-1.14839e-05
0.000255309
-1.27581e-05
0.000255164
0.000254229
-1.37073e-05
-7.42055e-07
0.000196427
-2.10989e-06
0.000220082
-3.23536e-06
0.000233939
-4.53923e-06
0.000242887
-5.42968e-06
0.000248954
-6.9174e-06
0.000253381
-7.97992e-06
0.000255287
-9.00182e-06
0.000256344
-9.99421e-06
0.000256486
-1.12559e-05
0.000256571
-1.19701e-05
0.000255879
0.00025515
-1.28909e-05
-8.80908e-07
0.000197308
-1.87667e-06
0.000221078
-3.03139e-06
0.000235094
-4.21839e-06
0.000244074
-5.73177e-06
0.000250468
-6.52411e-06
0.000254173
-7.56054e-06
0.000256324
-8.85616e-06
0.00025764
-9.90303e-06
0.000257533
-1.05493e-05
0.000257217
-1.17636e-05
0.000257093
0.000256099
-1.27136e-05
-6.91833e-07
0.000198
-1.64881e-06
0.000222035
-2.83294e-06
0.000236278
-4.26929e-06
0.000245511
-5.09083e-06
0.000251289
-6.44446e-06
0.000255527
-7.5351e-06
0.000257415
-8.21131e-06
0.000258316
-9.38618e-06
0.000258708
-1.03963e-05
0.000258227
-1.13221e-05
0.000258019
0.000257021
-1.22435e-05
-8.15894e-07
0.000198816
-1.74917e-06
0.000222968
-2.8404e-06
0.000237369
-3.96411e-06
0.000246634
-5.04784e-06
0.000252373
-5.78322e-06
0.000256262
-7.14824e-06
0.00025878
-8.10293e-06
0.000259271
-9.11257e-06
0.000259718
-1.00251e-05
0.00025914
-1.09227e-05
0.000258917
0.000257915
-1.18169e-05
-6.693e-07
0.000199485
-1.5476e-06
0.000223846
-2.66086e-06
0.000238483
-3.74544e-06
0.000247719
-4.80067e-06
0.000253428
-6.1833e-06
0.000257645
-6.77073e-06
0.000259367
-8.00806e-06
0.000260508
-8.69252e-06
0.000260402
-9.88803e-06
0.000260335
-1.0458e-05
0.000259487
0.000259131
-1.16735e-05
-8.10781e-07
0.000200296
-1.43263e-06
0.000224468
-2.62758e-06
0.000239678
-3.46203e-06
0.000248553
-4.85819e-06
0.000254824
-5.46266e-06
0.000258249
-6.78354e-06
0.000260688
-7.39242e-06
0.000261117
-8.58794e-06
0.000261598
-9.16028e-06
0.000260907
-1.04046e-05
0.000260731
0.000259611
-1.0885e-05
-6.92867e-07
0.000200989
-1.49188e-06
0.000225267
-2.5115e-06
0.000240697
-3.5226e-06
0.000249565
-4.47117e-06
0.000255773
-5.50486e-06
0.000259283
-6.42649e-06
0.00026161
-7.39334e-06
0.000262084
-8.19271e-06
0.000262397
-9.11946e-06
0.000261834
-9.95684e-06
0.000261568
0.00026052
-1.08656e-05
-4.84677e-07
0.000201474
-1.56708e-06
0.00022635
-2.2577e-06
0.000241388
-3.562e-06
0.000250869
-4.29641e-06
0.000256507
-5.22741e-06
0.000260214
-6.12909e-06
0.000262511
-6.99608e-06
0.000262951
-7.92457e-06
0.000263325
-8.75412e-06
0.000262664
-9.53674e-06
0.000262351
0.000261294
-1.03115e-05
-6.92388e-07
0.000202166
-1.1577e-06
0.000226815
-2.35067e-06
0.000242581
-3.04781e-06
0.000251566
-4.30849e-06
0.000257768
-5.24854e-06
0.000261154
-5.83215e-06
0.000263095
-7.02005e-06
0.000264139
-7.55909e-06
0.000263864
-8.70767e-06
0.000263812
-9.26899e-06
0.000262912
0.000262418
-1.03924e-05
-4.91074e-07
0.000202657
-1.25882e-06
0.000227583
-2.15715e-06
0.000243479
-3.1109e-06
0.00025252
-3.75544e-06
0.000258413
-4.97286e-06
0.000262371
-5.85175e-06
0.000263974
-6.70138e-06
0.000264988
-7.54741e-06
0.00026471
-8.06635e-06
0.000264331
-9.19327e-06
0.000264039
0.000262951
-9.72669e-06
-4.19147e-07
0.000203076
-1.38013e-06
0.000228544
-1.95733e-06
0.000244056
-2.90051e-06
0.000253463
-4.12886e-06
0.000259641
-4.70691e-06
0.000262949
-5.56815e-06
0.000264835
-6.40727e-06
0.000265827
-7.22152e-06
0.000265525
-8.03387e-06
0.000265144
-8.82148e-06
0.000264827
0.00026371
-9.5798e-06
-5.70841e-07
0.000203647
-1.24108e-06
0.000229214
-2.07389e-06
0.000244889
-2.97601e-06
0.000254365
-3.57402e-06
0.000260239
-4.44642e-06
0.000263822
-5.60046e-06
0.000265989
-6.10991e-06
0.000266337
-6.91421e-06
0.000266329
-7.69807e-06
0.000265928
-8.47913e-06
0.000265608
0.00026447
-9.23934e-06
-7.23098e-07
0.00020437
-1.08458e-06
0.000229575
-1.88899e-06
0.000245693
-2.77415e-06
0.00025525
-3.65066e-06
0.000261115
-4.50608e-06
0.000264677
-5.02094e-06
0.000266504
-5.82645e-06
0.000267142
-6.61644e-06
0.000267119
-7.69913e-06
0.00026701
-8.15042e-06
0.000266059
0.00026523
-8.9105e-06
-2.62012e-07
0.000204632
-9.16679e-07
0.00023023
-1.68963e-06
0.000246466
-2.55723e-06
0.000256118
-3.42204e-06
0.00026198
-4.2606e-06
0.000265516
-5.07223e-06
0.000267315
-5.85733e-06
0.000267927
-6.63445e-06
0.000267896
-7.08791e-06
0.000267464
-7.84669e-06
0.000266818
0.000265962
-8.57837e-06
-4.41757e-07
0.000205074
-1.03854e-06
0.000230827
-1.80834e-06
0.000247236
-2.65363e-06
0.000256963
-3.51168e-06
0.000262838
-4.01745e-06
0.000266021
-4.80866e-06
0.000268107
-5.58702e-06
0.000268706
-6.35077e-06
0.00026866
-7.10175e-06
0.000268215
-7.83256e-06
0.000267549
0.00026638
-8.25111e-06
-5.64373e-07
0.000205638
-8.89775e-07
0.000231152
-1.62688e-06
0.000247973
-2.45648e-06
0.000257793
-2.97162e-06
0.000263353
-4.09487e-06
0.000267145
-4.87882e-06
0.000268891
-5.32727e-06
0.000269154
-6.0721e-06
0.000269405
-6.81268e-06
0.000268955
-7.22278e-06
0.000267959
0.000267397
-8.2396e-06
-1.50598e-07
0.000205789
-1.01825e-06
0.00023202
-1.45702e-06
0.000248412
-2.26676e-06
0.000258602
-3.07528e-06
0.000264162
-3.86942e-06
0.000267939
-4.31535e-06
0.000269337
-5.38427e-06
0.000270223
-5.79873e-06
0.000269819
-6.52615e-06
0.000269683
-7.24118e-06
0.000268674
0.000268113
-7.95702e-06
-4.04892e-07
0.000206194
-6.54689e-07
0.00023227
-1.61555e-06
0.000249373
-2.08127e-06
0.000259068
-2.87891e-06
0.00026496
-3.6488e-06
0.000268709
-4.40275e-06
0.000270091
-4.81669e-06
0.000270637
-5.54351e-06
0.000270546
-6.25704e-06
0.000270396
-6.9714e-06
0.000269388
0.000268487
-7.34553e-06
-5.94849e-07
0.000206789
-1.07376e-06
0.000232749
-1.45553e-06
0.000249755
-2.21064e-06
0.000259823
-2.98403e-06
0.000265733
-3.42871e-06
0.000269153
-4.16323e-06
0.000270825
-4.88874e-06
0.000271363
-5.59631e-06
0.000271254
-5.98047e-06
0.00027078
-6.66872e-06
0.000270076
0.000269149
-7.33041e-06
-1.09486e-07
0.000206898
-6.47453e-07
0.000233287
-1.28306e-06
0.00025039
-2.02659e-06
0.000260567
-2.7848e-06
0.000266491
-3.2085e-06
0.000269577
-3.93658e-06
0.000271553
-4.64435e-06
0.00027207
-5.34749e-06
0.000271957
-6.03718e-06
0.00027147
-6.41433e-06
0.000270453
0.00026983
-7.09535e-06
-2.65492e-07
0.000207164
-7.70749e-07
0.000233792
-1.10265e-06
0.000250722
-1.83568e-06
0.0002613
-2.58017e-06
0.000267236
-3.31571e-06
0.000270313
-4.03232e-06
0.00027227
-4.40714e-06
0.000272445
-5.09933e-06
0.000272649
-5.45475e-06
0.000271825
-6.44443e-06
0.000271443
0.000270228
-6.84286e-06
-5.15188e-07
0.000207679
-6.6303e-07
0.00023394
-1.27007e-06
0.000251329
-1.66094e-06
0.000261691
-2.39082e-06
0.000267966
-3.10565e-06
0.000271027
-3.48124e-06
0.000272645
-4.494e-06
0.000273458
-4.84616e-06
0.000273001
-5.51669e-06
0.000272496
-6.16216e-06
0.000272089
0.000270847
-6.78108e-06
-7.25449e-08
0.000207751
-5.45503e-07
0.000234413
-1.11473e-06
0.000251899
-1.80172e-06
0.000262378
-2.19541e-06
0.000268359
-2.89773e-06
0.00027173
-3.58785e-06
0.000273335
-3.93725e-06
0.000273807
-4.6063e-06
0.00027367
-5.26513e-06
0.000273155
-5.60302e-06
0.000272427
0.000271498
-6.25434e-06
-2.88586e-07
0.00020804
-6.90732e-07
0.000234815
-1.27166e-06
0.000252479
-1.62473e-06
0.000262731
-2.32281e-06
0.000269057
-3.0175e-06
0.000272424
-3.3672e-06
0.000273685
-4.03422e-06
0.000274474
-4.68589e-06
0.000274322
-5.01333e-06
0.000273482
-5.64668e-06
0.00027306
0.00027212
-6.26841e-06
-1.0389e-07
0.000208144
-5.4589e-07
0.000235257
-7.93446e-07
0.000252727
-1.45052e-06
0.000263388
-2.1396e-06
0.000269746
-2.49366e-06
0.000272778
-3.47907e-06
0.000274671
-3.80267e-06
0.000274798
-4.11682e-06
0.000274636
-5.07748e-06
0.000274443
-5.37976e-06
0.000273362
0.000272408
-5.66817e-06
-3.25283e-07
0.000208469
-4.31093e-07
0.000235363
-9.57631e-07
0.000253254
-1.59602e-06
0.000264026
-1.94685e-06
0.000270097
-2.61689e-06
0.000273449
-2.9413e-06
0.000274995
-3.58436e-06
0.000275441
-4.2122e-06
0.000275264
-4.50907e-06
0.00027474
-5.12894e-06
0.000273982
0.000273017
-5.73777e-06
-2.3397e-07
0.000208703
-3.25467e-07
0.000235454
-8.23235e-07
0.000253751
-1.43165e-06
0.000264635
-1.76977e-06
0.000270435
-2.42173e-06
0.0002741
-3.06485e-06
0.000275638
-3.35906e-06
0.000275735
-3.98088e-06
0.000275886
-4.58818e-06
0.000275347
-4.86597e-06
0.00027426
0.00027362
-5.469e-06
-9.45144e-08
0.000208798
-4.70794e-07
0.00023583
-6.67274e-07
0.000253948
-1.27612e-06
0.000265244
-1.91981e-06
0.000271079
-2.23454e-06
0.000274415
-2.86104e-06
0.000276265
-3.4809e-06
0.000276355
-3.7588e-06
0.000276163
-4.0277e-06
0.000275616
-4.93106e-06
0.000275163
0.000273823
-5.13381e-06
-5.4654e-08
0.000208852
-3.81613e-07
0.000236157
-8.54935e-07
0.000254421
-1.11606e-06
0.000265505
-1.74295e-06
0.000271706
-2.37085e-06
0.000275043
-2.66022e-06
0.000276554
-2.94317e-06
0.000276638
-3.54181e-06
0.000276762
-4.13426e-06
0.000276209
-4.40143e-06
0.00027543
0.000274421
-4.99974e-06
-1.87384e-07
0.00020904
-2.56438e-07
0.000236226
-7.08354e-07
0.000254873
-9.59683e-07
0.000265756
-1.57614e-06
0.000272322
-1.86627e-06
0.000275333
-2.47291e-06
0.000277161
-3.07133e-06
0.000277237
-3.66448e-06
0.000277355
-3.92886e-06
0.000276473
-4.51561e-06
0.000276017
0.000274656
-4.74996e-06
-9.88625e-08
0.000209139
-4.18345e-07
0.000236546
-5.65097e-07
0.00025502
-1.11873e-06
0.00026631
-1.40052e-06
0.000272604
-2.00907e-06
0.000275942
-2.283e-06
0.000277435
-2.86931e-06
0.000277823
-3.13003e-06
0.000277616
-3.7079e-06
0.000277051
-3.97503e-06
0.000276284
0.00027526
-4.57941e-06
-7.55614e-09
0.000209146
-3.11127e-07
0.000236849
-4.24176e-07
0.000255133
-9.68057e-07
0.000266853
-1.22853e-06
0.000272865
-1.83109e-06
0.000276544
-2.41931e-06
0.000278023
-2.67283e-06
0.000278076
-3.24293e-06
0.000278186
-3.48397e-06
0.000277292
-4.04473e-06
0.000276845
0.000275479
-4.26396e-06
-2.22199e-07
0.000209368
-2.15509e-07
0.000236843
-6.32088e-07
0.000255549
-8.24214e-07
0.000267046
-1.40002e-06
0.00027344
-1.65361e-06
0.000276798
-1.89701e-06
0.000278266
-2.46532e-06
0.000278645
-2.70135e-06
0.000278422
-3.58315e-06
0.000278174
-3.80411e-06
0.000277066
0.00027604
-4.36524e-06
-1.28534e-07
0.000209497
-1.24305e-07
0.000236838
-4.99172e-07
0.000255924
-6.77966e-07
0.000267224
-1.23556e-06
0.000273998
-1.80482e-06
0.000277367
-2.03843e-06
0.0002785
-2.59583e-06
0.000279202
-2.81599e-06
0.000278642
-3.03574e-06
0.000278393
-3.24199e-06
0.000277272
0.000276579
-3.78097e-06
-1.65827e-08
0.000209513
-2.64031e-07
0.000237086
-3.56689e-07
0.000256017
-8.37132e-07
0.000267705
-1.06954e-06
0.00027423
-1.29951e-06
0.000277597
-1.85301e-06
0.000279053
-2.06821e-06
0.000279417
-2.61142e-06
0.000279185
-2.82042e-06
0.000278602
-3.3584e-06
0.00027781
0.000276789
-3.56744e-06
7.08527e-09
0.000209506
7.11896e-08
0.000237022
-2.42366e-07
0.000256331
-6.93305e-07
0.000268156
-9.06129e-07
0.000274443
-1.45171e-06
0.000278143
-1.66546e-06
0.000279267
-2.20425e-06
0.000279956
-2.40447e-06
0.000279386
-2.9326e-06
0.000279131
-3.11583e-06
0.000277993
0.000277295
-3.62207e-06
1.24299e-07
0.000209382
-9.07261e-08
0.000237237
-7.83144e-08
0.000256318
-2.38824e-07
0.000268316
-7.38635e-07
0.000274943
-9.45526e-07
0.00027835
-1.81232e-06
0.000280134
-2.00526e-06
0.000280149
-2.52949e-06
0.00027991
-2.7192e-06
0.00027932
-3.24481e-06
0.000278519
0.000277485
-3.4351e-06
1.64931e-08
0.000209366
-2.18184e-07
0.000237472
-2.81485e-07
0.000256381
-6.99916e-07
0.000268735
-9.02798e-07
0.000275146
-1.10035e-06
0.000278547
-1.29166e-06
0.000280325
-1.47741e-06
0.000280335
-1.99313e-06
0.000280426
-2.17517e-06
0.000279502
-2.67563e-06
0.00027902
0.000277651
-2.84164e-06
8.71003e-08
0.000209278
1.72088e-07
0.000237387
-1.39226e-07
0.000256693
-2.44338e-07
0.00026884
-7.4349e-07
0.000275645
-1.25644e-06
0.00027906
-1.10507e-06
0.000280174
-1.61616e-06
0.000280846
-1.78853e-06
0.000280598
-2.29002e-06
0.000280004
-2.46335e-06
0.000279193
0.000278152
-2.96422e-06
-1.85312e-07
0.000209464
-7.01631e-08
0.000237271
-1.00659e-08
0.000256633
-1.16166e-07
0.000268946
-5.87392e-07
0.000276116
-7.56786e-07
0.00027923
-1.26061e-06
0.000280678
-1.42299e-06
0.000281008
-1.91781e-06
0.000281093
-2.07282e-06
0.000280159
-2.21775e-06
0.000279338
0.000278294
-2.36016e-06
2.21253e-07
0.000209242
5.13483e-08
0.000237441
-2.30406e-07
0.000256914
-2.75947e-07
0.000268992
-4.21054e-07
0.000276261
-5.81877e-07
0.00027939
-1.07363e-06
0.000281169
-1.55988e-06
0.000281495
-1.37393e-06
0.000280907
-1.85571e-06
0.000280641
-2.33428e-06
0.000279816
0.000278412
-2.45195e-06
4.39354e-08
0.000209199
1.72362e-07
0.000237313
2.19534e-07
0.000256867
-1.36976e-07
0.000269348
-2.66306e-07
0.000276391
-7.42889e-07
0.000279867
-8.91489e-07
0.000281318
-1.03469e-06
0.000281638
-1.51198e-06
0.000281384
-1.65143e-06
0.00028078
-1.79773e-06
0.000279963
0.000278904
-2.28962e-06
1.27334e-07
0.000209071
2.90024e-07
0.00023715
5.79402e-08
0.000257099
-5.92401e-09
0.000269412
-8.7161e-08
0.000276472
-5.71156e-07
0.000280351
-7.10428e-07
0.000281457
-8.43697e-07
0.000281771
-1.31156e-06
0.000281852
-1.43837e-06
0.000280907
-1.55528e-06
0.00028008
0.000279341
-1.99257e-06
1.84593e-07
0.000208887
4.43005e-08
0.00023729
1.46757e-07
0.000256997
1.45612e-07
0.000269413
-2.91823e-07
0.000276909
-4.05839e-07
0.000280465
-5.29199e-07
0.000281581
-9.87297e-07
0.000282229
-1.11028e-06
0.000281975
-1.22695e-06
0.000281024
-1.6882e-06
0.000280541
0.000279468
-1.81545e-06
-7.60185e-09
0.000208894
1.51688e-07
0.000237131
2.61527e-07
0.000256887
-6.75159e-08
0.000269742
-1.23103e-07
0.000276965
-2.36845e-07
0.000280579
-6.96756e-07
0.00028204
-7.95745e-07
0.000282328
-9.06471e-07
0.000282086
-1.35045e-06
0.000281468
-1.44998e-06
0.00028064
0.000279223
-1.20458e-06
5.5284e-08
0.000208839
2.54294e-07
0.000236932
3.81343e-07
0.00025676
4.29506e-07
0.000269694
4.45496e-08
0.00027735
-7.54746e-08
0.000280699
-1.59081e-07
0.000282124
-2.74958e-07
0.000282444
-7.11653e-07
0.000282522
-8.06916e-07
0.000281563
-9.12702e-07
0.000280746
0.000279672
-1.3612e-06
1.67558e-07
0.000208671
3.81423e-07
0.000236718
2.10025e-07
0.000256931
2.28444e-07
0.000269675
1.86359e-07
0.000277392
1.00883e-07
0.000280784
-3.31884e-07
0.000282557
-4.11736e-07
0.000282524
-5.05163e-07
0.000282616
-5.90404e-07
0.000281648
-1.00619e-06
0.000281162
0.000279738
-1.07305e-06
2.40376e-07
0.000208431
1.53057e-07
0.000236806
6.21479e-07
0.000256463
3.71814e-07
0.000269925
3.42855e-07
0.000277421
-7.41896e-08
0.000281201
1.95609e-07
0.000282287
-2.21646e-07
0.000282941
-3.03348e-07
0.000282698
-7.14673e-07
0.000282059
-7.95478e-07
0.000281243
0.000279812
-8.69004e-07
3.05202e-07
0.000208126
5.85862e-07
0.000236525
4.43655e-07
0.000256605
5.19183e-07
0.00026985
5.01684e-07
0.000277439
4.50643e-07
0.000281252
4.96561e-08
0.000282688
-4.24817e-08
0.000283033
-9.53028e-08
0.00028275
-1.70385e-07
0.000282134
-2.35498e-07
0.000281308
0.000280197
-6.20742e-07
1.66803e-07
0.000207959
3.8186e-07
0.00023631
5.58068e-07
0.000256429
3.2322e-07
0.000270084
3.29067e-07
0.000277433
2.70606e-07
0.000281311
2.15671e-07
0.000282743
1.59443e-07
0.000283089
-2.43911e-07
0.000283154
-2.98913e-07
0.000282189
-3.64194e-07
0.000281373
0.000280254
-4.20513e-07
1.88312e-07
0.000207771
4.72314e-07
0.000236026
3.71101e-07
0.00025653
8.01215e-07
0.000269654
8.11612e-07
0.000277422
4.40327e-07
0.000281682
3.92826e-07
0.00028279
-8.67601e-09
0.000283491
2.92504e-07
0.000282853
-1.01703e-07
0.000282584
-1.45489e-07
0.000281417
0.000280324
-2.1644e-07
2.82341e-07
0.000207488
2.60033e-07
0.000236048
7.9207e-07
0.000255998
6.01864e-07
0.000269845
6.38273e-07
0.000277386
6.13158e-07
0.000281707
5.78966e-07
0.000282825
5.4212e-07
0.000283528
1.65609e-07
0.000283229
4.5965e-07
0.00028229
8.85424e-08
0.000281788
0.00028033
8.2829e-08
4.10966e-07
0.000207077
7.14596e-07
0.000235745
6.1996e-07
0.000256093
7.50812e-07
0.000269714
7.96899e-07
0.00027734
7.84501e-07
0.00028172
4.23088e-07
0.000283186
7.28778e-07
0.000283222
6.95804e-07
0.000283262
3.22448e-07
0.000282663
2.84199e-07
0.000281826
0.000280398
2.15998e-07
2.05126e-07
0.000206872
4.85766e-07
0.000235464
7.33804e-07
0.000255845
1.22361e-06
0.000269224
9.5268e-07
0.000277611
9.54731e-07
0.000281717
9.38964e-07
0.000283202
5.78411e-07
0.000283583
5.59034e-07
0.000283281
5.33639e-07
0.000282688
5.13076e-07
0.000281847
0.000280737
1.74905e-07
2.74988e-07
0.000206597
5.85487e-07
0.000235153
8.44473e-07
0.000255586
6.95835e-07
0.000269373
7.73227e-07
0.000277533
7.85438e-07
0.000281705
7.84296e-07
0.000283203
7.73731e-07
0.000283593
7.63001e-07
0.000283292
7.47421e-07
0.000282704
7.24557e-07
0.00028187
0.000280784
6.77221e-07
3.42094e-07
0.000206255
6.79931e-07
0.000234816
9.6061e-07
0.000255305
1.16337e-06
0.00026917
1.26252e-06
0.000277434
1.29711e-06
0.000281671
1.30677e-06
0.000283193
1.31116e-06
0.000283589
1.31202e-06
0.000283291
9.71641e-07
0.000283044
9.76369e-07
0.000281865
0.000280766
9.94807e-07
3.92213e-07
0.000205863
7.6733e-07
0.000234441
1.0693e-06
0.000255003
1.29584e-06
0.000268943
1.08265e-06
0.000277647
1.12947e-06
0.000281624
1.15452e-06
0.000283168
1.17007e-06
0.000283573
1.18555e-06
0.000283276
1.53357e-06
0.000282696
1.20227e-06
0.000282196
0.000280778
1.18996e-06
4.44398e-07
0.000205419
5.42395e-07
0.000234343
8.75309e-07
0.00025467
1.10809e-06
0.00026871
1.57431e-06
0.000277181
1.30422e-06
0.000281894
1.34299e-06
0.00028313
1.3714e-06
0.000283545
1.39797e-06
0.000283249
1.08362e-06
0.000283011
1.45226e-06
0.000281828
0.000280746
1.4839e-06
3.11506e-07
0.000205107
9.71083e-07
0.000233683
9.98265e-07
0.000254643
1.25391e-06
0.000268455
1.40547e-06
0.00027703
1.82205e-06
0.000281477
1.53342e-06
0.000283418
1.57409e-06
0.000283504
1.61248e-06
0.000283211
1.64662e-06
0.000282977
1.68607e-06
0.000281788
0.00028069
1.74204e-06
3.44392e-07
0.000204763
7.56386e-07
0.000233271
1.42754e-06
0.000253972
1.39385e-06
0.000268489
1.56786e-06
0.000276856
1.66346e-06
0.000281382
1.72623e-06
0.000283355
1.77854e-06
0.000283452
1.82447e-06
0.000283165
1.86149e-06
0.00028294
1.87987e-06
0.00028177
0.000280717
1.85355e-06
4.79535e-07
0.000204283
8.85684e-07
0.000232865
9.45766e-07
0.000253912
1.54711e-06
0.000267887
1.73587e-06
0.000276667
1.50834e-06
0.000281609
1.92406e-06
0.00028294
1.98811e-06
0.000283388
1.70837e-06
0.000283445
2.10437e-06
0.000282544
2.17207e-06
0.000281702
0.000280947
1.94197e-06
5.14873e-07
0.000203768
9.78472e-07
0.000232401
1.36754e-06
0.000253523
1.69244e-06
0.000267562
1.90377e-06
0.000276456
2.03281e-06
0.00028148
2.12477e-06
0.000282848
2.20298e-06
0.00028331
2.27671e-06
0.000283371
2.34524e-06
0.000282475
2.40313e-06
0.000281644
0.000280913
2.43722e-06
3.20863e-07
0.000203447
7.68186e-07
0.000231954
1.48794e-06
0.000252803
1.50913e-06
0.000267541
1.74049e-06
0.000276224
2.22259e-06
0.000280998
2.32832e-06
0.000282742
2.0801e-06
0.000283558
2.50661e-06
0.000282944
2.58959e-06
0.000282392
2.3397e-06
0.000281894
0.000280471
2.78159e-06
6.59518e-07
0.000202788
8.82985e-07
0.00023173
1.31666e-06
0.000252369
1.99284e-06
0.000266865
2.24785e-06
0.000275969
2.07553e-06
0.00028117
2.19584e-06
0.000282622
2.63953e-06
0.000283114
2.7367e-06
0.000282847
2.48972e-06
0.000282639
2.91438e-06
0.000281469
0.000280389
2.99561e-06
5.10833e-07
0.000202277
1.00097e-06
0.00023124
1.45232e-06
0.000251918
1.82708e-06
0.00026649
2.09581e-06
0.0002757
2.61156e-06
0.000280655
2.7455e-06
0.000282488
2.52215e-06
0.000283338
2.62957e-06
0.00028274
3.0689e-06
0.0002822
3.16309e-06
0.000281375
0.000280293
3.25913e-06
3.46569e-07
0.00020193
1.11747e-06
0.000230469
1.59269e-06
0.000251443
1.98962e-06
0.000266093
2.28018e-06
0.00027541
2.47638e-06
0.000280459
2.62304e-06
0.000282341
3.09083e-06
0.00028287
3.20854e-06
0.000282622
3.31519e-06
0.000282093
3.06693e-06
0.000281624
0.000280251
3.10884e-06
6.92981e-07
0.000201238
1.23785e-06
0.000229925
1.73372e-06
0.000250947
2.15368e-06
0.000265673
2.46511e-06
0.000275098
2.6816e-06
0.000280242
2.84533e-06
0.000282177
2.98954e-06
0.000282726
3.12465e-06
0.000282487
3.25483e-06
0.000281963
3.72782e-06
0.000281151
0.000280104
3.87554e-06
7.77543e-07
0.00020046
1.35118e-06
0.000229351
1.86707e-06
0.000250431
2.31297e-06
0.000265227
2.65123e-06
0.00027476
2.89123e-06
0.000280002
3.07328e-06
0.000281995
3.23535e-06
0.000282563
3.38786e-06
0.000282335
3.87339e-06
0.000281477
4.01867e-06
0.000281005
0.000279971
4.15177e-06
5.89381e-07
0.000199871
1.15585e-06
0.000228784
1.68986e-06
0.000249897
2.15249e-06
0.000264765
2.84149e-06
0.000274071
3.10204e-06
0.000279742
3.30397e-06
0.000281793
3.48307e-06
0.000282384
3.98983e-06
0.000281828
3.81331e-06
0.000281654
3.98138e-06
0.000280837
0.000279758
4.19411e-06
6.31317e-07
0.000199239
1.24822e-06
0.000228168
1.82203e-06
0.000249323
2.63931e-06
0.000263947
2.70059e-06
0.00027401
3.31808e-06
0.000279124
3.53773e-06
0.000281574
4.07055e-06
0.000281852
3.91291e-06
0.000281985
4.08067e-06
0.000281486
4.55565e-06
0.000280362
0.000279707
4.60692e-06
4.68337e-07
0.000198771
1.36421e-06
0.000227272
2.26644e-06
0.000248421
2.48212e-06
0.000263732
3.22723e-06
0.000273265
3.20252e-06
0.000279149
3.77922e-06
0.000280997
3.65155e-06
0.000281979
4.18644e-06
0.000281451
4.71233e-06
0.00028096
4.57362e-06
0.000280501
0.000279119
5.16145e-06
8.19184e-07
0.000197952
1.48958e-06
0.000226601
1.80854e-06
0.000248102
2.66359e-06
0.000262877
3.10314e-06
0.000272825
3.76807e-06
0.000278484
4.02854e-06
0.000280737
4.25819e-06
0.00028175
4.47462e-06
0.000281234
4.68093e-06
0.000280754
5.20682e-06
0.000279975
0.000279299
5.02669e-06
6.68274e-07
0.000197283
1.3306e-06
0.000225939
2.26274e-06
0.00024717
2.84373e-06
0.000262296
3.31324e-06
0.000272356
3.66732e-06
0.00027813
3.94725e-06
0.000280457
4.53546e-06
0.000281161
4.76827e-06
0.000281001
4.99461e-06
0.000280528
5.21996e-06
0.00027975
0.000278721
5.79813e-06
7.26029e-07
0.000196557
1.4405e-06
0.000225224
2.41813e-06
0.000246192
3.02492e-06
0.000261689
3.52597e-06
0.000271855
3.90962e-06
0.000277746
4.54782e-06