/*--------------------------------*- C++ -*----------------------------------*\
| =========                 |                                                 |
| \\      /  F ield         | OpenFOAM: The Open Source CFD Toolbox           |
|  \\    /   O peration     | Version:  2.3.1                                 |
|   \\  /    A nd           | Web:      www.OpenFOAM.org                      |
|    \\/     M anipulation  |                                                 |
\*---------------------------------------------------------------------------*/
FoamFile
{
    version     2.0;
    format      ascii;
    class       volScalarField;
    location    "0.36";
    object      nuTilda;
}
// * * * * * * * * * * * * * * * * * * * * * * * * * * * * * * * * * * * * * //

dimensions      [0 2 -1 0 0 0 0];

internalField   nonuniform List<scalar> 
96780
(
4.70916e-05
0.000203785
0.000355368
0.000445364
0.000481134
0.000457498
0.000391256
0.000326119
0.000269357
0.000225543
0.000188205
0.000146489
5.3038e-05
0.00023353
0.000396916
0.000493957
0.000532979
0.000514335
0.000447384
0.0003689
0.000298695
0.000244645
0.000201647
0.000157757
5.73411e-05
0.0002498
0.00043035
0.00053736
0.000582784
0.000570509
0.000506397
0.000418496
0.000334137
0.000267881
0.00021742
0.000170249
6.14554e-05
0.000260389
0.000457749
0.00057597
0.000630073
0.000625459
0.000566546
0.000473569
0.00037606
0.000296031
0.000235974
0.000184093
6.55133e-05
0.000268358
0.000481345
0.000610936
0.000674768
0.000678758
0.000626694
0.000532661
0.000424143
0.000329559
0.000258063
0.000199947
6.93196e-05
0.000274726
0.000502111
0.000643025
0.000716984
0.000730196
0.000686018
0.000594263
0.000478153
0.000369187
0.000284623
0.000218449
7.27856e-05
0.000279779
0.000520912
0.000672851
0.000756979
0.000779723
0.00074419
0.000657083
0.000536933
0.00041517
0.000316088
0.000240064
7.59814e-05
0.000284082
0.00053779
0.000700701
0.000794982
0.000827375
0.000800888
0.000720159
0.000599265
0.000466976
0.000353003
0.000265415
7.88212e-05
0.000287839
0.000553389
0.000726739
0.0008311
0.000873144
0.000855901
0.000782713
0.000663905
0.000524309
0.000395989
0.000294826
8.13965e-05
0.000291022
0.000567567
0.000751284
0.000865472
0.000917085
0.000909162
0.000844286
0.000729873
0.000586095
0.000445071
0.000329569
8.38107e-05
0.000294015
0.000580595
0.000774284
0.00089815
0.000959247
0.000960695
0.000904553
0.000796245
0.000651486
0.000499958
0.000369641
8.60216e-05
0.000296667
0.000592343
0.000795813
0.000929363
0.000999681
0.00101047
0.000963413
0.000862409
0.000719396
0.000560301
0.000415293
8.80429e-05
0.000298756
0.000602764
0.000815726
0.000958656
0.00103827
0.00105844
0.00102076
0.000927909
0.000788944
0.000625422
0.000467359
9.00392e-05
0.000300873
0.000612087
0.000834238
0.000986218
0.00107507
0.0011047
0.00107649
0.000992454
0.000859292
0.000694512
0.000525146
9.20221e-05
0.000303055
0.000620752
0.000851622
0.00101231
0.00111028
0.00114926
0.00113062
0.00105586
0.000929977
0.000766447
0.00058815
9.39708e-05
0.000305257
0.000628692
0.000868026
0.00103729
0.00114406
0.00119226
0.00118325
0.00111808
0.00100037
0.000840356
0.00065553
9.59267e-05
0.000307341
0.000636274
0.000883627
0.00106118
0.00117665
0.00123395
0.00123449
0.00117909
0.00107024
0.000915228
0.000726172
9.80165e-05
0.000309659
0.000643388
0.000898776
0.0010844
0.0012083
0.00127456
0.00128455
0.00123899
0.00113941
0.000990824
0.000799405
0.000100165
0.000312333
0.000650511
0.000913806
0.00110732
0.00123944
0.00131441
0.00133369
0.00129781
0.00120765
0.00106581
0.000872866
0.000102296
0.000314923
0.000657493
0.000928582
0.00113002
0.00127024
0.00135376
0.00138211
0.00135578
0.00127499
0.00114055
0.000948302
0.000104553
0.000317783
0.000664843
0.000943494
0.00115268
0.00130096
0.00139285
0.00143006
0.00141295
0.00134128
0.00121405
0.00102136
0.000106881
0.000320781
0.000672255
0.000958568
0.0011754
0.00133157
0.0014317
0.00147746
0.0014692
0.0014061
0.00128562
0.00109584
0.000109243
0.000323872
0.000679295
0.000973335
0.00119786
0.00136186
0.00147
0.00152407
0.00152429
0.00146939
0.00135553
0.00117017
0.000111598
0.000327021
0.000686668
0.000987959
0.00122009
0.00139176
0.00150768
0.00156981
0.00157816
0.0015311
0.001424
0.00124355
0.000114012
0.000330019
0.000693791
0.00100253
0.00124202
0.00142128
0.0015447
0.00161461
0.00163086
0.00159147
0.00149125
0.001316
0.000116557
0.00033348
0.000701206
0.00101722
0.00126392
0.00145036
0.00158118
0.00165861
0.00168252
0.00165062
0.00155718
0.00138725
0.000119176
0.000336981
0.000709051
0.00103217
0.001286
0.00147943
0.00161735
0.00170204
0.00173326
0.00170848
0.00162127
0.00145484
0.000121894
0.000340832
0.000717193
0.00104779
0.00130855
0.00150879
0.00165345
0.00174503
0.00178314
0.00176508
0.00168395
0.00152293
0.000124659
0.00034495
0.000725808
0.00106413
0.00133218
0.00153898
0.00169009
0.00178814
0.00183275
0.00182114
0.00174602
0.00159017
0.000127472
0.00034935
0.00073529
0.00108146
0.0013568
0.0015703
0.00172771
0.0018319
0.00188263
0.00187702
0.00180745
0.0016557
0.000130299
0.000353829
0.000744964
0.00109971
0.00138261
0.00160296
0.00176658
0.00187667
0.00193306
0.00193283
0.00186815
0.00171953
0.000133148
0.000358738
0.000755197
0.00111898
0.00140973
0.00163686
0.00180661
0.00192229
0.00198389
0.00198856
0.00192842
0.00178557
0.000135943
0.000363736
0.0007658
0.00113863
0.00143765
0.00167175
0.00184753
0.00196859
0.00203508
0.00204425
0.00198847
0.00185101
0.00013864
0.00036857
0.000776276
0.0011587
0.00146609
0.00170733
0.00188914
0.00201543
0.00208661
0.00209997
0.00204831
0.00191576
0.000141191
0.000373495
0.000786616
0.00117885
0.00149485
0.00174337
0.00193125
0.00206266
0.00213821
0.00215548
0.00210741
0.00197865
0.000143581
0.000377991
0.000796837
0.00119888
0.00152377
0.00177962
0.00197379
0.00211019
0.00218996
0.00221083
0.00216593
0.00203989
0.00014585
0.000382481
0.000806537
0.00121858
0.00155235
0.00181582
0.00201636
0.00215778
0.00224164
0.00226582
0.00222352
0.00209924
0.00014789
0.000386541
0.000815425
0.00123731
0.00158021
0.00185127
0.00205824
0.0022049
0.0022929
0.00232028
0.00228035
0.00215722
0.000149768
0.000390202
0.000823823
0.001255
0.00160683
0.00188544
0.00209874
0.00225074
0.00234297
0.00237373
0.00233665
0.00221759
0.000151447
0.000393521
0.000830872
0.00127116
0.00163172
0.00191791
0.00213745
0.00229477
0.00239143
0.00242598
0.00239292
0.0022811
0.00015287
0.000396352
0.000836996
0.00128579
0.00165473
0.00194818
0.0021741
0.00233681
0.00243811
0.00247674
0.00244801
0.00234208
0.000154088
0.000398768
0.000842359
0.00129896
0.00167609
0.00197655
0.00220865
0.00237682
0.00248293
0.00252597
0.00250171
0.00240105
0.000155114
0.000400842
0.000847107
0.0013108
0.00169562
0.00200302
0.00224121
0.00241479
0.0025258
0.00257345
0.00255382
0.00245841
0.000156028
0.000402493
0.000851082
0.00132169
0.00171402
0.00202795
0.00227203
0.00245093
0.00256696
0.0026194
0.00260476
0.00251523
0.000156815
0.000404085
0.000854543
0.0013316
0.00173115
0.00205168
0.00230144
0.00248561
0.00260649
0.00266371
0.00265407
0.00257059
0.000157411
0.000405293
0.000857326
0.00134049
0.00174739
0.00207434
0.00232986
0.00251915
0.00264493
0.00270689
0.00270218
0.00262416
0.00015777
0.000405953
0.000859118
0.00134828
0.00176255
0.00209598
0.0023573
0.00255183
0.00268236
0.00274888
0.00274847
0.0026743
0.000157944
0.000406226
0.000860233
0.00135489
0.00177655
0.00211649
0.00238362
0.00258359
0.00271889
0.00278978
0.00279336
0.00272184
0.000158043
0.000406187
0.000860754
0.00136011
0.00178866
0.00213535
0.00240836
0.00261358
0.00275382
0.00282918
0.00283701
0.00277026
0.000158084
0.000405841
0.000859774
0.00136348
0.00179863
0.00215173
0.00243074
0.00264137
0.00278669
0.00286694
0.00287992
0.00281984
0.000157944
0.000405445
0.000858228
0.00136453
0.00180607
0.00216537
0.00245019
0.00266632
0.0028169
0.00290236
0.00292096
0.00286815
0.000157647
0.000404694
0.000856248
0.00136386
0.00181073
0.00217602
0.00246653
0.00268823
0.00284428
0.00293548
0.00296042
0.00291542
0.000157333
0.000403711
0.000853483
0.0013619
0.00181351
0.00218387
0.00247983
0.00270701
0.00286871
0.0029659
0.0029976
0.00296084
0.00015669
0.000402088
0.00085021
0.00135919
0.00181459
0.00218955
0.00249061
0.00272313
0.00289046
0.00299383
0.00303277
0.0030055
0.000156137
0.000400595
0.000847005
0.00135578
0.00181481
0.00219422
0.00249998
0.00273747
0.00291033
0.00302001
0.00306645
0.00304846
0.000155553
0.000399083
0.000843646
0.00135228
0.00181493
0.00219844
0.00250863
0.00275098
0.00292918
0.00304501
0.00309844
0.00308821
0.000154905
0.000397479
0.000840225
0.00134859
0.00181468
0.00220244
0.00251716
0.00276434
0.00294786
0.00306954
0.00312947
0.00312586
0.000154332
0.000395798
0.000836805
0.00134455
0.00181419
0.00220638
0.00252576
0.00277777
0.00296643
0.00309368
0.00315954
0.00316207
0.000153549
0.000394254
0.000833438
0.00134042
0.00181356
0.00220997
0.00253381
0.00279069
0.00298434
0.00311688
0.00318811
0.00319532
0.000152885
0.000392771
0.000829865
0.00133587
0.0018121
0.00221261
0.00254073
0.00280234
0.00300082
0.00313841
0.00321527
0.00323
0.000152116
0.000390856
0.000826205
0.00133074
0.00180998
0.00221447
0.00254676
0.00281295
0.00301619
0.00315873
0.00324095
0.00326135
0.000151399
0.000389228
0.00082224
0.00132505
0.00180701
0.00221546
0.00255192
0.00282254
0.00303049
0.00317814
0.00326605
0.00329333
0.000150466
0.000387154
0.000817741
0.0013184
0.00180302
0.00221533
0.00255593
0.00283096
0.0030438
0.00319663
0.00329
0.00332277
0.000149501
0.000384693
0.000812785
0.00131106
0.00179818
0.0022141
0.00255873
0.00283824
0.00305608
0.00321405
0.00331311
0.00335291
0.000148401
0.000382135
0.000807422
0.0013032
0.00179212
0.00221161
0.00256022
0.00284412
0.00306703
0.00323032
0.00333523
0.0033812
0.000147218
0.00037936
0.000801703
0.00129439
0.00178469
0.00220747
0.00256004
0.00284811
0.00307579
0.00324451
0.00335522
0.00340794
0.000146058
0.000376183
0.00079553
0.00128478
0.0017759
0.00220166
0.00255785
0.00285007
0.00308245
0.00325662
0.00337339
0.00343278
0.000144691
0.000372969
0.000788796
0.00127432
0.00176594
0.00219422
0.00255364
0.00284989
0.00308686
0.00326627
0.00338909
0.00345579
0.000143367
0.000369292
0.000781622
0.00126359
0.00175503
0.00218557
0.00254811
0.00284805
0.00308951
0.00327412
0.003403
0.00347652
0.00014204
0.000365803
0.000774539
0.00125257
0.00174386
0.00217626
0.00254155
0.00284501
0.0030907
0.00328011
0.00341491
0.00349579
0.000140804
0.000362266
0.000767292
0.00124182
0.00173258
0.00216669
0.00253477
0.00284162
0.00309108
0.00328523
0.0034259
0.00351376
0.000139594
0.000358725
0.000760414
0.00123119
0.00172155
0.00215747
0.00252825
0.00283844
0.00309149
0.0032902
0.00343647
0.00353105
0.000138373
0.000355338
0.000753587
0.00122083
0.00171072
0.00214852
0.00252206
0.00283554
0.00309245
0.00329581
0.00344747
0.0035477
0.000137108
0.000351928
0.00074691
0.00121033
0.0016998
0.00213948
0.00251577
0.00283259
0.00309328
0.00330101
0.00345758
0.00356347
0.000135825
0.00034849
0.000739862
0.00119963
0.00168837
0.00213001
0.00250911
0.00282923
0.00309378
0.003306
0.00346771
0.00357954
0.000134644
0.000344967
0.000732778
0.00118864
0.00167647
0.00211985
0.00250174
0.00282521
0.00309358
0.00331021
0.00347677
0.00359376
0.000133391
0.000341196
0.000725441
0.00117728
0.0016636
0.00210857
0.00249308
0.00281985
0.00309206
0.00331283
0.00348421
0.003607
0.000132043
0.000337375
0.000717747
0.00116521
0.00164974
0.00209608
0.00248308
0.00281295
0.00308884
0.00331387
0.00349008
0.00361806
0.000130649
0.000333486
0.000709978
0.00115291
0.00163524
0.00208246
0.00247173
0.00280445
0.00308371
0.0033129
0.00349381
0.00362757
0.000129345
0.000329404
0.000701767
0.00114023
0.00161998
0.00206782
0.00245915
0.00279458
0.0030773
0.00331056
0.00349631
0.00363512
0.000128006
0.000325503
0.000693588
0.00112762
0.00160434
0.00205255
0.00244576
0.00278365
0.00306953
0.00330669
0.00349716
0.00364222
0.000126755
0.000321298
0.000685435
0.00111498
0.00158854
0.00203699
0.0024318
0.00277199
0.00306095
0.00330218
0.00349743
0.00364752
0.000125403
0.000317323
0.000677702
0.00110257
0.00157288
0.0020212
0.00241745
0.00275972
0.00305155
0.0032965
0.00349642
0.00365241
0.000124193
0.000313568
0.00066974
0.00109038
0.00155743
0.0020056
0.00240318
0.00274744
0.00304221
0.00329091
0.00349544
0.00365666
0.000122936
0.000309576
0.000661974
0.00107836
0.00154216
0.00199017
0.00238899
0.00273529
0.00303299
0.0032853
0.00349419
0.00366108
0.00012178
0.000305755
0.000654385
0.00106678
0.00152706
0.00197512
0.00237516
0.00272369
0.00302436
0.0032804
0.00349366
0.00366547
0.000120491
0.000301976
0.00064701
0.00105505
0.00151207
0.00196001
0.00236148
0.0027122
0.00301581
0.00327543
0.00349293
0.00366973
0.000119349
0.000298184
0.000639429
0.00104349
0.00149702
0.0019447
0.00234748
0.00270067
0.00300726
0.0032704
0.00349209
0.00367307
0.000118245
0.000294438
0.000631961
0.00103204
0.00148174
0.00192906
0.00233314
0.00268862
0.00299801
0.0032645
0.00349008
0.00367599
0.000116966
0.000290641
0.000624576
0.00102027
0.00146615
0.00191307
0.00231837
0.00267602
0.00298838
0.00325838
0.00348786
0.00367788
0.000115803
0.000286827
0.000617019
0.00100867
0.00145055
0.00189668
0.00230328
0.00266311
0.00297823
0.00325139
0.00348477
0.00367983
0.000114751
0.000283143
0.000609605
0.000997023
0.00143483
0.00188002
0.00228795
0.00265007
0.00296816
0.00324493
0.0034824
0.00368212
0.000113513
0.000279347
0.000601991
0.000985231
0.00141903
0.00186312
0.00227218
0.00263661
0.00295752
0.00323773
0.00347915
0.00368329
0.000112386
0.000275493
0.000594189
0.000973401
0.00140283
0.00184543
0.0022558
0.00262235
0.0029461
0.0032297
0.00347506
0.00368343
0.000111276
0.000271493
0.000586514
0.000961401
0.00138637
0.00182738
0.00223855
0.00260717
0.00293363
0.00322049
0.00346976
0.00368292
0.000110047
0.000267617
0.000578759
0.000949231
0.00136975
0.00180881
0.00222054
0.00259112
0.00292037
0.00321059
0.00346386
0.00368154
0.000108941
0.000263695
0.000570882
0.000936926
0.00135279
0.00178938
0.00220151
0.00257401
0.0029058
0.00319909
0.00345599
0.0036779
0.000107927
0.000259977
0.000563265
0.000924861
0.00133578
0.00176971
0.00218182
0.00255572
0.0028898
0.00318611
0.00344659
0.00367226
0.000106909
0.000256226
0.000555651
0.000912897
0.00131885
0.00174976
0.00216162
0.00253639
0.0028722
0.00317095
0.00343447
0.00366402
0.000105864
0.000252464
0.000548215
0.000901282
0.00130237
0.00172996
0.00214097
0.00251671
0.00285429
0.00315547
0.00342216
0.00365536
0.000104875
0.000249076
0.000541284
0.000889977
0.00128627
0.00171074
0.00212076
0.00249701
0.00283615
0.00313953
0.0034089
0.00364579
0.000104051
0.000245666
0.000534715
0.000879272
0.00127111
0.00169238
0.00210149
0.00247824
0.00281878
0.00312437
0.00339669
0.00363725
0.000103342
0.000242805
0.000528449
0.000869096
0.00125692
0.00167496
0.00208311
0.00246029
0.00280209
0.00310959
0.00338449
0.00362827
0.00010278
0.000239957
0.000522349
0.000859488
0.00124334
0.00165853
0.0020657
0.00244339
0.00278649
0.00309593
0.00337337
0.00362007
0.000102265
0.000237352
0.000516792
0.000850426
0.00123068
0.001643
0.00204936
0.0024274
0.00277174
0.00308296
0.00336263
0.00361237
0.000101879
0.000234897
0.000511353
0.000841741
0.00121854
0.00162815
0.00203382
0.00241251
0.00275837
0.00307176
0.0033542
0.00360692
0.000101559
0.000232549
0.000506411
0.000833681
0.00120712
0.00161402
0.00201894
0.00239821
0.00274548
0.00306076
0.00334562
0.00360113
0.000101361
0.000230506
0.00050174
0.000826133
0.00119622
0.00160039
0.00200447
0.0023842
0.00273262
0.00304959
0.00333659
0.00359476
0.000101255
0.000228568
0.000497473
0.000818891
0.00118598
0.00158757
0.00199066
0.00237073
0.00272023
0.00303876
0.00332741
0.00358757
0.000101251
0.000226958
0.000493592
0.000812433
0.00117653
0.00157556
0.00197773
0.0023582
0.00270904
0.00302943
0.00332037
0.00358299
0.000101328
0.000225474
0.000490104
0.000806688
0.00116789
0.00156431
0.00196576
0.00234675
0.00269874
0.00302075
0.00331372
0.00357909
0.000101556
0.000224369
0.000487172
0.000801405
0.00116
0.00155405
0.00195479
0.00233629
0.00268962
0.00301343
0.00330868
0.00357625
0.000101891
0.00022361
0.000484984
0.000797248
0.00115345
0.00154501
0.00194472
0.00232649
0.00268076
0.00300587
0.0033027
0.00357282
0.000102314
0.000223101
0.0004833
0.000793722
0.00114795
0.00153763
0.00193661
0.0023186
0.00267368
0.00299981
0.00329779
0.00356915
0.000102872
0.000222897
0.000482273
0.000791488
0.0011438
0.00153172
0.00193035
0.00231305
0.00266907
0.00299639
0.00329569
0.00356859
0.000103579
0.00022313
0.000481989
0.000790124
0.00114098
0.00152753
0.00192614
0.00230981
0.00266722
0.00299611
0.00329688
0.00357027
0.000104376
0.000223748
0.000482432
0.000790067
0.00113987
0.00152515
0.00192391
0.0023086
0.00266748
0.0029978
0.00330013
0.00357606
0.000105234
0.000224718
0.000483767
0.000791333
0.00114057
0.00152501
0.00192406
0.00231016
0.00267074
0.00300269
0.00330643
0.00358335
0.000106182
0.000225993
0.000485747
0.000793717
0.00114275
0.00152704
0.00192733
0.00231524
0.00267777
0.00301141
0.0033166
0.00359495
0.000107219
0.000227663
0.000488551
0.000797284
0.0011469
0.00153136
0.00193348
0.00232406
0.00268903
0.00302478
0.00333176
0.00361148
0.00010827
0.000229644
0.000492001
0.000801971
0.00115243
0.00153783
0.00194241
0.00233633
0.00270456
0.0030431
0.00335232
0.00363411
0.000109298
0.000231866
0.000496149
0.000807817
0.00115955
0.00154605
0.00195339
0.00235139
0.00272369
0.00306589
0.00337834
0.00366287
0.000110341
0.000234295
0.000500693
0.000814427
0.00116789
0.00155587
0.00196614
0.0023685
0.00274502
0.00309092
0.00340636
0.00369297
0.000111333
0.000237075
0.000505717
0.000821609
0.00117709
0.00156678
0.00198035
0.00238738
0.0027685
0.00311838
0.00343711
0.00372673
0.00011227
0.000239975
0.000511042
0.00082939
0.00118721
0.00157883
0.00199559
0.00240786
0.00279412
0.00314836
0.00347064
0.00376279
0.000113167
0.000243384
0.000516773
0.000837517
0.00119754
0.00159126
0.00201118
0.00242902
0.00282088
0.00317994
0.00350616
0.00380168
0.000113926
0.000247143
0.000522718
0.000845498
0.00120773
0.00160342
0.00202635
0.0024498
0.00284767
0.0032121
0.00354308
0.00384257
0.000114504
0.000251104
0.00052872
0.000853522
0.00121717
0.00161444
0.00204003
0.00246879
0.00287264
0.00324239
0.00357796
0.00388207
0.000114747
0.000254885
0.000534649
0.000861242
0.00122617
0.00162434
0.00205081
0.00248436
0.00289428
0.00326973
0.00361034
0.00391766
0.000114517
0.000258546
0.000539379
0.00086717
0.00123332
0.00163216
0.00205911
0.00249591
0.00291013
0.00329073
0.00363696
0.00395018
0.000113417
0.000261343
0.000541915
0.000870238
0.00123698
0.00163602
0.00206317
0.00250217
0.00292012
0.00330506
0.0036561
0.00397571
0.000111084
0.00026267
0.000541198
0.000868618
0.00123456
0.00163319
0.00206002
0.0025004
0.00292133
0.00331003
0.00366587
0.00399055
0.000106352
0.000261785
0.000535411
0.000859482
0.0012228
0.00161997
0.00204581
0.00248645
0.00290891
0.00330086
0.00366137
0.00399226
9.73018e-05
0.000257739
0.000521835
0.000839791
0.00119767
0.00159153
0.0020158
0.00245516
0.00287787
0.00327294
0.00363857
0.00397498
8.25997e-05
0.000248466
0.000495989
0.000804205
0.00115217
0.00153981
0.00196255
0.00239948
0.00281985
0.00321958
0.00359344
0.00393887
8.7857e-05
0.000141883
0.000167012
0.000167968
0.000137523
0.000116806
0.000101909
8.8729e-05
7.61505e-05
6.73087e-05
6.47118e-05
6.33279e-05
0.000100538
0.000146778
0.000171377
0.000168485
0.00013814
0.000116256
0.000101015
8.76957e-05
7.54574e-05
6.71896e-05
6.46108e-05
6.32829e-05
0.000113505
0.000151513
0.00017529
0.00016948
0.000138858
0.000115952
0.000100324
8.68699e-05
7.49104e-05
6.70895e-05
6.45281e-05
6.32298e-05
0.000125647
0.000156184
0.000178939
0.000170786
0.000139683
0.000115846
9.98033e-05
8.62126e-05
7.44798e-05
6.70077e-05
6.44609e-05
6.31914e-05
0.000136801
0.000160808
0.000182439
0.00017235
0.000140638
0.000115906
9.94264e-05
8.56939e-05
7.41408e-05
6.69426e-05
6.44067e-05
6.31546e-05
0.000146966
0.000165409
0.000185845
0.000174116
0.000141723
0.000116118
9.9176e-05
8.52929e-05
7.38782e-05
6.68931e-05
6.43638e-05
6.31272e-05
0.000156122
0.000169979
0.000189194
0.00017605
0.000142933
0.000116459
9.90384e-05
8.49918e-05
7.36771e-05
6.68578e-05
6.43305e-05
6.31013e-05
0.000164271
0.000174512
0.00019251
0.00017813
0.000144264
0.000116921
9.90005e-05
8.47748e-05
7.35281e-05
6.68355e-05
6.43055e-05
6.30822e-05
0.000171483
0.000178993
0.000195812
0.000180332
0.000145711
0.000117491
9.90501e-05
8.4633e-05
7.3424e-05
6.6825e-05
6.4288e-05
6.30684e-05
0.000177856
0.000183401
0.000199116
0.000182654
0.000147273
0.000118165
9.91805e-05
8.45544e-05
7.33569e-05
6.68252e-05
6.42763e-05
6.30496e-05
0.000183498
0.000187722
0.000202427
0.000185079
0.000148943
0.000118936
9.93854e-05
8.45333e-05
7.33229e-05
6.68355e-05
6.42703e-05
6.3036e-05
0.000188513
0.000191946
0.000205752
0.000187609
0.000150721
0.000119795
9.96575e-05
8.45625e-05
7.33189e-05
6.68551e-05
6.42695e-05
6.30251e-05
0.000192991
0.000196064
0.000209095
0.000190236
0.000152607
0.000120748
9.99967e-05
8.46401e-05
7.33403e-05
6.68831e-05
6.42731e-05
6.30182e-05
0.000197006
0.000200071
0.000212455
0.000192955
0.000154596
0.000121786
0.000100394
8.47608e-05
7.3386e-05
6.69191e-05
6.42812e-05
6.30128e-05
0.000200622
0.00020396
0.000215833
0.000195766
0.000156691
0.00012291
0.000100853
8.49215e-05
7.34528e-05
6.69628e-05
6.42931e-05
6.30085e-05
0.000203894
0.000207732
0.000219229
0.000198661
0.000158883
0.00012412
0.000101368
8.51187e-05
7.35404e-05
6.70139e-05
6.43087e-05
6.30045e-05
0.000206866
0.000211383
0.000222639
0.000201634
0.000161184
0.000125417
0.00010194
8.53532e-05
7.36469e-05
6.70718e-05
6.43277e-05
6.30035e-05
0.000209568
0.000214915
0.000226064
0.000204696
0.000163585
0.000126801
0.000102568
8.56209e-05
7.37715e-05
6.71367e-05
6.435e-05
6.30043e-05
0.000212027
0.000218328
0.000229497
0.000207828
0.000166085
0.000128271
0.000103252
8.59236e-05
7.3914e-05
6.72086e-05
6.43756e-05
6.30068e-05
0.00021427
0.000221625
0.000232939
0.000211038
0.000168689
0.000129826
0.000103993
8.62592e-05
7.40724e-05
6.72866e-05
6.44046e-05
6.30106e-05
0.00021632
0.000224804
0.000236385
0.000214319
0.000171392
0.000131476
0.00010479
8.66259e-05
7.42479e-05
6.73713e-05
6.44365e-05
6.30155e-05
0.000218189
0.000227872
0.000239833
0.000217667
0.000174198
0.000133215
0.000105643
8.70261e-05
7.444e-05
6.74626e-05
6.44714e-05
6.30219e-05
0.000219893
0.000230829
0.000243278
0.000221085
0.000177102
0.000135049
0.000106555
8.74585e-05
7.4647e-05
6.75602e-05
6.45094e-05
6.30269e-05
0.000221448
0.000233682
0.00024672
0.000224563
0.000180109
0.000136975
0.000107529
8.79235e-05
7.48706e-05
6.76642e-05
6.45502e-05
6.30388e-05
0.000222861
0.000236429
0.000250151
0.000228105
0.000183214
0.000139004
0.000108564
8.84217e-05
7.51102e-05
6.77751e-05
6.45942e-05
6.30497e-05
0.000224148
0.000239077
0.000253574
0.000231701
0.000186421
0.000141131
0.000109662
8.89537e-05
7.53658e-05
6.78925e-05
6.46415e-05
6.30618e-05
0.000225313
0.000241631
0.000256984
0.00023535
0.000189729
0.000143358
0.000110828
8.95218e-05
7.56387e-05
6.80171e-05
6.46918e-05
6.30756e-05
0.000226362
0.00024409
0.000260377
0.000239047
0.000193131
0.000145695
0.000112062
9.01238e-05
7.59271e-05
6.81487e-05
6.47453e-05
6.30918e-05
0.000227304
0.000246459
0.000263754
0.000242795
0.000196627
0.000148136
0.000113368
9.07641e-05
7.62342e-05
6.82873e-05
6.4802e-05
6.31076e-05
0.000228144
0.000248743
0.000267108
0.000246589
0.00020022
0.000150689
0.000114748
9.14426e-05
7.6558e-05
6.84331e-05
6.48622e-05
6.31268e-05
0.000228898
0.000250944
0.000270442
0.000250422
0.00020391
0.000153355
0.000116206
9.2159e-05
7.69006e-05
6.85867e-05
6.49256e-05
6.31453e-05
0.000229555
0.000253066
0.000273752
0.000254289
0.000207693
0.000156126
0.000117744
9.29188e-05
7.72656e-05
6.8751e-05
6.49937e-05
6.31701e-05
0.000230128
0.000255113
0.000277037
0.000258182
0.000211518
0.000159008
0.000119373
9.37331e-05
7.76581e-05
6.89301e-05
6.50685e-05
6.31948e-05
0.000230619
0.000257085
0.000280288
0.000262073
0.000215422
0.000162005
0.000121099
9.46017e-05
7.80807e-05
6.91225e-05
6.51496e-05
6.32233e-05
0.000231035
0.000258993
0.000283492
0.000265967
0.000219395
0.000165122
0.000122926
9.5524e-05
7.85306e-05
6.93314e-05
6.52374e-05
6.32564e-05
0.000231388
0.000260837
0.000286646
0.00026986
0.000223424
0.000168358
0.000124853
9.65093e-05
7.90111e-05
6.95544e-05
6.53322e-05
6.32913e-05
0.000231684
0.00026262
0.000289752
0.000273749
0.000227516
0.000171706
0.000126893
9.75542e-05
7.95257e-05
6.97945e-05
6.54344e-05
6.33312e-05
0.000231924
0.00026434
0.000292813
0.000277633
0.000231667
0.000175171
0.00012904
9.86692e-05
8.00743e-05
7.00511e-05
6.55443e-05
6.33724e-05
0.000232106
0.000266001
0.000295828
0.000281509
0.000235868
0.000178746
0.000131296
9.98508e-05
8.06563e-05
7.03252e-05
6.56625e-05
6.34192e-05
0.000232235
0.000267605
0.0002988
0.000285379
0.000240115
0.000182434
0.000133677
0.000101107
8.12785e-05
7.06177e-05
6.57892e-05
6.34683e-05
0.000232309
0.000269152
0.000301724
0.000289236
0.000244404
0.000186229
0.000136174
0.000102441
8.19407e-05
7.09309e-05
6.59254e-05
6.3522e-05
0.000232331
0.000270644
0.000304604
0.000293082
0.000248738
0.000190134
0.000138796
0.000103857
8.26455e-05
7.12646e-05
6.6071e-05
6.35765e-05
0.000232309
0.000272087
0.000307442
0.000296915
0.000253108
0.00019414
0.000141539
0.000105361
8.33954e-05
7.16202e-05
6.62265e-05
6.36397e-05
0.00023224
0.000273479
0.000310234
0.000300734
0.00025751
0.000198252
0.000144419
0.000106952
8.41934e-05
7.20001e-05
6.63933e-05
6.37074e-05
0.000232126
0.000274822
0.000312987
0.000304536
0.000261947
0.00020246
0.00014742
0.000108645
8.50429e-05
7.24033e-05
6.65721e-05
6.37811e-05
0.000231964
0.000276114
0.000315694
0.000308322
0.00026641
0.000206767
0.000150562
0.000110434
8.59472e-05
7.28346e-05
6.67627e-05
6.3859e-05
0.000231758
0.000277363
0.000318364
0.00031209
0.000270897
0.000211164
0.000153835
0.000112331
8.69104e-05
7.32942e-05
6.69669e-05
6.39443e-05
0.000231515
0.000278567
0.000320992
0.00031584
0.000275405
0.000215648
0.000157246
0.000114339
8.79365e-05
7.37841e-05
6.71854e-05
6.40326e-05
0.000231233
0.00027973
0.00032358
0.000319571
0.000279937
0.000220222
0.00016079
0.000116461
8.90295e-05
7.43068e-05
6.74197e-05
6.41302e-05
0.000230907
0.000280846
0.000326128
0.000323282
0.000284485
0.000224883
0.000164476
0.00011871
9.01946e-05
7.48665e-05
6.76704e-05
6.42322e-05
0.000230547
0.000281929
0.00032864
0.000326972
0.000289043
0.000229614
0.000168295
0.000121083
9.1433e-05
7.5462e-05
6.79385e-05
6.43418e-05
0.000230143
0.000282965
0.000331113
0.000330642
0.000293618
0.000234426
0.000172257
0.000123583
9.27565e-05
7.60983e-05
6.82256e-05
6.4465e-05
0.000229705
0.000283971
0.000333548
0.00033429
0.000298203
0.000239307
0.000176353
0.000126223
9.41643e-05
7.67805e-05
6.85334e-05
6.4593e-05
0.00022923
0.000284931
0.000335945
0.000337916
0.000302797
0.000244255
0.000180583
0.000129007
9.5666e-05
7.75086e-05
6.88646e-05
6.47368e-05
0.000228712
0.000285858
0.00033831
0.00034152
0.000307401
0.000249274
0.000184953
0.000131941
9.72678e-05
7.82884e-05
6.92199e-05
6.48925e-05
0.000228164
0.000286752
0.000340638
0.000345101
0.000312007
0.000254353
0.000189464
0.000135024
9.89761e-05
7.91263e-05
6.96017e-05
6.50554e-05
0.000227581
0.00028761
0.000342933
0.00034866
0.000316617
0.00025949
0.000194098
0.000138259
0.000100794
8.00231e-05
7.00128e-05
6.52287e-05
0.000226961
0.000288436
0.000345193
0.000352196
0.00032123
0.00026468
0.000198868
0.00014166
0.000102733
8.09856e-05
7.04552e-05
6.54164e-05
0.000226306
0.00028923
0.000347415
0.000355709
0.000325844
0.000269922
0.000203773
0.000145228
0.000104801
8.20189e-05
7.09303e-05
6.56243e-05
0.000225618
0.000289986
0.000349608
0.000359199
0.000330459
0.000275214
0.000208794
0.000148963
0.000106999
8.31264e-05
7.14441e-05
6.5846e-05
0.000224891
0.000290714
0.000351765
0.000362666
0.00033507
0.000280551
0.000213946
0.000152865
0.000109342
8.43174e-05
7.19987e-05
6.60899e-05
0.000224131
0.000291412
0.000353892
0.000366109
0.000339683
0.000285932
0.000219216
0.000156941
0.000111831
8.55987e-05
7.25985e-05
6.63512e-05
0.000223341
0.000292082
0.00035599
0.000369529
0.000344291
0.000291354
0.000224604
0.000161199
0.00011448
8.69779e-05
7.32473e-05
6.66347e-05
0.000222515
0.000292719
0.000358052
0.000372925
0.000348895
0.000296817
0.000230105
0.000165633
0.000117292
8.8459e-05
7.39479e-05
6.69496e-05
0.000221647
0.000293325
0.000360084
0.000376298
0.000353493
0.000302315
0.000235718
0.000170253
0.000120276
9.00542e-05
7.47073e-05
6.72872e-05
0.00022074
0.0002939
0.000362087
0.000379647
0.000358087
0.000307848
0.000241438
0.000175047
0.000123446
9.17725e-05
7.55321e-05
6.76506e-05
0.000219804
0.000294456
0.00036406
0.000382973
0.000362675
0.000313409
0.000247264
0.000180028
0.000126808
9.36161e-05
7.64253e-05
6.80548e-05
0.000218832
0.000294977
0.000365996
0.000386274
0.000367257
0.000319001
0.000253191
0.000185185
0.00013036
9.56054e-05
7.73978e-05
6.84974e-05
0.000217816
0.000295465
0.000367904
0.000389553
0.000371831
0.000324624
0.000259209
0.000190529
0.000134121
9.77437e-05
7.84515e-05
6.89801e-05
0.000216759
0.000295925
0.000369787
0.000392806
0.000376397
0.00033027
0.000265331
0.000196057
0.000138094
0.000100043
7.95996e-05
6.95052e-05
0.000215668
0.000296362
0.000371634
0.000396036
0.000380956
0.000335943
0.000271539
0.000201757
0.000142285
0.000102514
8.085e-05
7.00862e-05
0.000214538
0.000296766
0.000373448
0.000399239
0.000385506
0.000341637
0.000277837
0.000207645
0.000146701
0.000105168
8.22101e-05
7.07211e-05
0.000213369
0.000297142
0.000375233
0.000402421
0.000390046
0.000347356
0.000284222
0.000213702
0.000151348
0.000108023
8.36926e-05
7.1426e-05
0.000212156
0.000297485
0.000376992
0.000405575
0.000394575
0.000353093
0.000290683
0.000219934
0.00015623
0.000111084
8.53034e-05
7.22022e-05
0.000210901
0.000297806
0.000378712
0.000408708
0.000399095
0.000358853
0.000297226
0.000226341
0.000161354
0.000114366
8.70614e-05
7.30467e-05
0.000209606
0.000298092
0.000380407
0.000411815
0.000403604
0.000364629
0.000303843
0.00023291
0.000166718
0.000117882
8.89798e-05
7.39845e-05
0.000208266
0.000298351
0.000382068