/*--------------------------------*- C++ -*----------------------------------*\
| =========                 |                                                 |
| \\      /  F ield         | OpenFOAM: The Open Source CFD Toolbox           |
|  \\    /   O peration     | Version:  2.3.1                                 |
|   \\  /    A nd           | Web:      www.OpenFOAM.org                      |
|    \\/     M anipulation  |                                                 |
\*---------------------------------------------------------------------------*/
FoamFile
{
    version     2.0;
    format      ascii;
    class       surfaceScalarField;
    location    "0.36";
    object      phi;
}
// * * * * * * * * * * * * * * * * * * * * * * * * * * * * * * * * * * * * * //

dimensions      [0 3 -1 0 0 0 0];

internalField   nonuniform List<scalar> 
148215
(
5.77979e-06
-3.92685e-05
3.34887e-05
8.03204e-06
-3.00617e-05
2.78095e-05
8.41377e-06
-1.86778e-05
1.82961e-05
8.39788e-06
-4.46137e-06
4.47726e-06
8.32186e-06
1.42943e-05
-1.42183e-05
1.09614e-05
4.12169e-05
-4.38564e-05
1.5783e-05
7.56153e-05
-8.04369e-05
2.13776e-05
0.000112762
-0.000118357
2.78737e-05
0.00015293
-0.000159426
3.38814e-05
0.0001901
-0.000196107
3.95908e-05
0.000223034
-0.000228743
0.00025674
4.56301e-05
-0.000262779
3.81446e-06
-4.3083e-05
5.79078e-06
-3.2038e-05
6.7909e-06
-1.9678e-05
7.36072e-06
-5.03119e-06
8.1053e-06
1.35497e-05
1.07436e-05
3.85786e-05
1.55492e-05
7.08097e-05
2.11285e-05
0.000107183
2.73754e-05
0.000146683
3.35863e-05
0.000183889
3.93241e-05
0.000217296
0.000250619
4.54452e-05
2.44512e-06
-4.55281e-05
4.21853e-06
-3.38114e-05
5.47892e-06
-2.09384e-05
6.54075e-06
-6.09302e-06
7.83913e-06
1.22513e-05
1.04134e-05
3.60043e-05
1.48202e-05
6.64029e-05
2.02851e-05
0.000101718
2.65101e-05
0.000140458
3.28044e-05
0.000177595
3.83098e-05
0.00021179
0.000245234
4.3695e-05
1.82481e-06
-4.73529e-05
3.35591e-06
-3.53425e-05
4.62122e-06
-2.22037e-05
5.83937e-06
-7.31118e-06
7.34943e-06
1.07413e-05
9.84508e-06
3.35086e-05
1.39482e-05
6.22997e-05
1.93763e-05
9.62899e-05
2.55284e-05
0.000134306
3.13124e-05
0.000171811
3.68012e-05
0.000206302
0.000239722
4.23123e-05
1.50791e-06
-4.88608e-05
2.81441e-06
-3.66491e-05
4.03716e-06
-2.34264e-05
5.29943e-06
-8.57345e-06
6.86341e-06
9.17728e-06
9.29468e-06
3.10774e-05
1.30634e-05
5.85311e-05
1.80269e-05
9.13263e-05
2.41853e-05
0.000128148
3.02759e-05
0.00016572
3.6117e-05
0.000200461
0.000234879
4.09604e-05
1.21101e-06
-5.00718e-05
2.48932e-06
-3.79274e-05
3.62471e-06
-2.45618e-05
4.88797e-06
-9.8367e-06
6.4698e-06
7.59545e-06
8.74782e-06
2.87993e-05
1.23567e-05
5.49222e-05
1.72238e-05
8.64592e-05
2.31342e-05
0.000122237
2.96585e-05
0.000159196
3.5465e-05
0.000194654
0.000228264
4.20798e-05
1.10088e-06
-5.11727e-05
2.19031e-06
-3.90168e-05
3.33719e-06
-2.57087e-05
4.57012e-06
-1.10696e-05
6.12863e-06
6.03694e-06
8.32725e-06
2.66007e-05
1.1603e-05
5.16464e-05
1.62473e-05
8.18149e-05
2.2041e-05
0.000116444
2.81698e-05
0.000153067
3.39955e-05
0.000188828
0.000223231
3.90288e-05
1.03139e-06
-5.22041e-05
2.06738e-06
-4.00528e-05
3.0691e-06
-2.67104e-05
4.28232e-06
-1.22829e-05
5.80444e-06
4.51482e-06
7.91567e-06
2.44895e-05
1.09439e-05
4.86182e-05
1.52071e-05
7.75517e-05
2.06071e-05
0.000111044
2.66923e-05
0.000146982
3.30467e-05
0.000182474
0.000217637
3.86411e-05
8.78446e-07
-5.30825e-05
1.87615e-06
-4.10505e-05
2.90908e-06
-2.77433e-05
4.04526e-06
-1.3419e-05
5.50284e-06
3.05725e-06
7.508e-06
2.24843e-05
1.03479e-05
4.57782e-05
1.43321e-05
7.35676e-05
1.96423e-05
0.000105733
2.55051e-05
0.000141119
3.11515e-05
0.000176827
0.000212173
3.6615e-05
8.64723e-07
-5.39473e-05
1.79086e-06
-4.19766e-05
2.72434e-06
-2.86768e-05
3.83637e-06
-1.45311e-05
5.23905e-06
1.65456e-06
7.12552e-06
2.05978e-05
9.83626e-06
4.30675e-05
1.3559e-05
6.98448e-05
1.84589e-05
0.000100834
2.43715e-05
0.000135206
3.0314e-05
0.000170885
0.000206537
3.59498e-05
8.43937e-07
-5.47912e-05
1.68162e-06
-4.28143e-05
2.60517e-06
-2.96004e-05
3.67637e-06
-1.56023e-05
5.0352e-06
2.95728e-07
6.84541e-06
1.87876e-05
9.33434e-06
4.05786e-05
1.28949e-05
6.62842e-05
1.75154e-05
9.62131e-05
2.30388e-05
0.000129683
2.90042e-05
0.000164919
0.000201176
3.43655e-05
7.23808e-07
-5.5515e-05
1.58989e-06
-4.36804e-05
2.50061e-06
-3.05111e-05
3.53615e-06
-1.66378e-05
4.86039e-06
-1.02852e-06
6.60171e-06
1.70463e-05
8.99895e-06
3.81813e-05
1.23379e-05
6.29453e-05
1.67005e-05
9.18504e-05
2.20127e-05
0.000124371
2.76504e-05
0.000159282
0.000195468
3.33586e-05
7.3261e-07
-5.62476e-05
1.53355e-06
-4.44813e-05
2.43423e-06
-3.14118e-05
3.46396e-06
-1.76675e-05
4.74557e-06
-2.31014e-06
6.44881e-06
1.53431e-05
8.76795e-06
3.58622e-05
1.18346e-05
5.98787e-05
1.60451e-05
8.76399e-05
2.11715e-05
0.000119245
2.70268e-05
0.000153426
0.000190323
3.21712e-05
7.26883e-07
-5.69745e-05
1.56097e-06
-4.53154e-05
2.40957e-06
-3.22604e-05
3.42773e-06
-1.86857e-05
4.68601e-06
-3.56842e-06
6.31559e-06
1.37135e-05
8.47026e-06
3.37075e-05
1.14646e-05
5.68843e-05
1.53692e-05
8.37353e-05
2.0393e-05
0.000114221
2.5938e-05
0.000147881
0.00018449
3.17717e-05
7.63917e-07
-5.77384e-05
1.55183e-06
-4.61033e-05
2.43776e-06
-3.31463e-05
3.43792e-06
-1.96858e-05
4.65145e-06
-4.78195e-06
6.23623e-06
1.21287e-05
8.3609e-06
3.15828e-05
1.11693e-05
5.40759e-05
1.49571e-05
7.99475e-05
1.95651e-05
0.000109613
2.47357e-05
0.000142711
0.000179538
2.96871e-05
7.00358e-07
-5.84388e-05
1.61921e-06
-4.70222e-05
2.47827e-06
-3.40054e-05
3.4599e-06
-2.06675e-05
4.67744e-06
-5.99949e-06
6.22003e-06
1.05861e-05
8.27611e-06
2.95267e-05
1.09521e-05
5.13999e-05
1.4438e-05
7.64616e-05
1.89277e-05
0.000105123
2.39788e-05
0.00013766
0.000174378
2.91395e-05
7.70895e-07
-5.92097e-05
1.61502e-06
-4.78663e-05
2.53887e-06
-3.49292e-05
3.55404e-06
-2.16826e-05
4.751e-06
-7.19646e-06
6.26054e-06
9.07659e-06
8.20926e-06
2.7578e-05
1.08193e-05
4.87899e-05
1.41237e-05
7.31572e-05
1.81993e-05
0.000101047
2.30783e-05
0.000132781
0.000169521
2.79349e-05
8.70909e-07
-6.00806e-05
1.72695e-06
-4.87224e-05
2.66751e-06
-3.58698e-05
3.6647e-06
-2.26798e-05
4.86239e-06
-8.39414e-06
6.35479e-06
7.58418e-06
8.25095e-06
2.56819e-05
1.07646e-05
4.62762e-05
1.39319e-05
6.99898e-05
1.80097e-05
9.69697e-05
2.27337e-05
0.000128057
0.000164017
2.8238e-05
8.25836e-07
-6.09064e-05
1.79259e-06
-4.96891e-05
2.73084e-06
-3.6808e-05
3.8028e-06
-2.37518e-05
4.98693e-06
-9.57827e-06
6.42758e-06
6.14353e-06
8.27067e-06
2.38388e-05
1.05786e-05
4.39683e-05
1.35766e-05
6.69918e-05
1.7127e-05
9.34194e-05
2.11363e-05
0.000124047
0.000160942
2.42107e-05
8.96045e-07
-6.18025e-05
1.90836e-06
-5.07014e-05
2.87622e-06
-3.77759e-05
3.9165e-06
-2.47921e-05
5.12216e-06
-1.07839e-05
6.56154e-06
4.70415e-06
8.33222e-06
2.20681e-05
1.06077e-05
4.16928e-05
1.33844e-05
6.42152e-05
1.68362e-05
8.99676e-05
2.1176e-05
0.000119708
0.000156139
2.59788e-05
9.5248e-07
-6.2755e-05
1.99246e-06
-5.17414e-05
3.01675e-06
-3.88002e-05
4.05508e-06
-2.58304e-05
5.22864e-06
-1.19575e-05
6.62251e-06
3.31029e-06
8.32764e-06
2.0363e-05
1.0386e-05
3.96344e-05
1.3044e-05
6.15572e-05
1.62384e-05
8.67732e-05
1.96777e-05
0.000116268
0.000152066
2.37515e-05
1.0354e-06
-6.37904e-05
1.99717e-06
-5.27032e-05
3.06746e-06
-3.98705e-05
4.15339e-06
-2.69163e-05
5.31165e-06
-1.31158e-05
6.63861e-06
1.98333e-06
8.19989e-06
1.88017e-05
1.01173e-05
3.7717e-05
1.23665e-05
5.9308e-05
1.51093e-05
8.40304e-05
1.82434e-05
0.000113134
0.000148458
2.18507e-05
1.05005e-06
-6.48404e-05
2.17001e-06
-5.38231e-05
3.20488e-06
-4.09053e-05
4.26368e-06
-2.79751e-05
5.41847e-06
-1.42706e-05
6.71391e-06
6.87889e-07
8.21608e-06
1.72995e-05
9.96879e-06
3.59643e-05
1.21146e-05
5.71621e-05
1.44552e-05
8.16898e-05
1.74068e-05
0.000110183
0.000144604
2.12612e-05
1.00337e-06
-6.58438e-05
2.18435e-06
-5.50041e-05
3.3132e-06
-4.20342e-05
4.40011e-06
-2.90621e-05
5.56668e-06
-1.54371e-05
6.83525e-06
-5.80682e-07
8.28376e-06
1.5851e-05
9.95678e-06
3.42913e-05
1.1989e-05
5.51299e-05
1.4461e-05
7.92178e-05
1.74997e-05
0.000107144
0.00014101
2.10934e-05
1.17776e-06
-6.70215e-05
2.32906e-06
-5.61554e-05
3.44843e-06
-4.31536e-05
4.59661e-06
-3.02102e-05
5.7601e-06
-1.66006e-05
7.03389e-06
-1.85447e-06
8.46768e-06
1.44172e-05
1.01574e-05
3.26016e-05
1.21044e-05
5.31829e-05
1.45466e-05
7.67756e-05
1.73208e-05
0.00010437
0.000137589
2.07416e-05
1.15285e-06
-6.81744e-05
2.42646e-06
-5.7429e-05
3.59392e-06
-4.4321e-05
4.78431e-06
-3.14006e-05
5.97688e-06
-1.77932e-05
7.27192e-06
-3.14952e-06
8.71159e-06
1.29775e-05
1.04023e-05
3.09109e-05
1.23534e-05
5.12317e-05
1.47677e-05
7.43613e-05
1.77023e-05
0.000101435
0.000133468
2.18233e-05
1.26866e-06
-6.94431e-05
2.521e-06
-5.86814e-05
3.78133e-06
-4.55813e-05
4.93398e-06
-3.25533e-05
6.17883e-06
-1.9038e-05
7.47845e-06
-4.44915e-06
8.9069e-06
1.15491e-05
1.04941e-05
2.93237e-05
1.2377e-05
4.93489e-05
1.4494e-05
7.22443e-05
1.69782e-05
9.8951e-05
0.000130992
1.94544e-05
1.29814e-06
-7.07412e-05
2.60578e-06
-5.9989e-05
3.86571e-06
-4.68413e-05
5.17232e-06
-3.38599e-05
6.41246e-06
-2.02782e-05
7.7222e-06
-5.75889e-06
9.14936e-06
1.01219e-05
1.07342e-05
2.77389e-05
1.26085e-05
4.74746e-05
1.48362e-05
7.00166e-05
1.74517e-05
9.63355e-05
0.000127547
2.08969e-05
1.33963e-06
-7.20808e-05
2.74602e-06
-6.13954e-05
4.03382e-06
-4.81291e-05
5.30002e-06
-3.51261e-05
6.6039e-06
-2.1582e-05
7.94012e-06
-7.09511e-06
9.376e-06
8.68607e-06
1.09994e-05
2.61154e-05
1.28781e-05
4.55959e-05
1.50017e-05
6.7893e-05
1.76721e-05
9.36651e-05
0.000124855
2.0364e-05
1.33457e-06
-7.34154e-05
2.71678e-06
-6.27776e-05
4.10379e-06
-4.95161e-05
5.40271e-06
-3.6425e-05
6.71539e-06
-2.28947e-05
8.08088e-06
-8.46061e-06
9.54872e-06
7.21824e-06
1.11698e-05
2.44944e-05
1.29422e-05
4.38235e-05
1.49844e-05
6.58508e-05
1.73543e-05
9.12952e-05
0.000122108
2.01015e-05
1.3914e-06
-7.48068e-05
2.78699e-06
-6.41732e-05
4.17647e-06
-5.09056e-05
5.46586e-06
-3.77144e-05
6.75747e-06
-2.41863e-05
8.09331e-06
-9.79645e-06
9.48609e-06
5.82546e-06
1.09627e-05
2.30178e-05
1.2626e-05
4.21602e-05
1.45922e-05
6.38846e-05
1.66045e-05
8.9283e-05
0.000119672
1.90404e-05
1.3925e-06
-7.61993e-05
2.84008e-06
-6.56208e-05
4.0989e-06
-5.21644e-05
5.42953e-06
-3.9045e-05
6.72917e-06
-2.5486e-05
8.00576e-06
-1.1073e-05
9.33991e-06
4.49131e-06
1.07471e-05
2.16105e-05
1.22958e-05
4.06115e-05
1.39012e-05
6.22792e-05
1.58446e-05
8.73395e-05
0.000117168
1.83488e-05
1.34236e-06
-7.75417e-05
2.70147e-06
-6.69799e-05
4.07199e-06
-5.35349e-05
5.33584e-06
-4.03089e-05
6.58558e-06
-2.67357e-05
7.8518e-06
-1.23393e-05
9.13416e-06
3.20895e-06
1.04796e-05
2.02651e-05
1.1863e-05
3.92282e-05
1.34795e-05
6.06626e-05
1.53794e-05
8.54397e-05
0.000114748
1.77992e-05
1.35668e-06
-7.88983e-05
2.68048e-06
-6.83037e-05
3.95034e-06
-5.48047e-05
5.18409e-06
-4.15426e-05
6.42872e-06
-2.79803e-05
7.64049e-06
-1.3551e-05
8.85975e-06
1.98969e-06
1.0128e-05
1.89968e-05
1.14312e-05
3.79251e-05
1.28667e-05
5.92271e-05
1.44812e-05
8.38252e-05
0.000113043
1.61856e-05
1.19102e-06
-8.00894e-05
2.5549e-06
-6.96676e-05
3.78896e-06
-5.60388e-05
5.03527e-06
-4.27889e-05
6.18386e-06
-2.91289e-05
7.38731e-06
-1.47545e-05
8.58534e-06
7.91667e-07
9.79828e-06
1.77839e-05
1.11454e-05
3.6578e-05
1.25405e-05
5.7832e-05
1.42488e-05
8.21168e-05
0.000110832
1.64606e-05
1.20889e-06
-8.12982e-05
2.41876e-06
-7.08774e-05
3.65272e-06
-5.72728e-05
4.74639e-06
-4.38826e-05
5.92347e-06
-3.0306e-05
7.06276e-06
-1.58938e-05
8.22054e-06
-3.66111e-07
9.42979e-06
1.65746e-05
1.06414e-05
3.53663e-05
1.20048e-05
5.64687e-05
1.34089e-05
8.07127e-05
0.000109434
1.48068e-05
1.09865e-06
-8.23969e-05
2.23575e-06
-7.20145e-05
3.34663e-06
-5.83837e-05
4.48765e-06
-4.50236e-05
5.57604e-06
-3.13944e-05
6.68093e-06
-1.69987e-05
7.8152e-06
-1.50038e-06
8.97097e-06
1.54189e-05
1.02238e-05
3.41135e-05
1.16086e-05
5.50839e-05
1.32886e-05
7.90326e-05
0.000106981
1.57411e-05
9.84118e-07
-8.3381e-05
2.11038e-06
-7.31408e-05
3.12525e-06
-5.93985e-05
4.13052e-06
-4.60289e-05
5.1421e-06
-3.2406e-05
6.16825e-06
-1.80248e-05
7.21378e-06
-2.54592e-06
8.27993e-06
1.43527e-05
9.39466e-06
3.29987e-05
1.05894e-05
5.38892e-05
1.17702e-05
7.78518e-05
0.000105813
1.29381e-05
9.52884e-07
-8.43339e-05
1.81226e-06
-7.40002e-05
2.81813e-06
-6.04044e-05
3.74064e-06
-4.69514e-05
4.70739e-06
-3.33727e-05
5.64515e-06
-1.89626e-05
6.60823e-06
-3.509e-06
7.5922e-06
1.33687e-05
8.64099e-06
3.19499e-05
9.72757e-06
5.28026e-05
1.12133e-05
7.63661e-05
0.000103734
1.32924e-05
8.07825e-07
-8.51417e-05
1.65913e-06
-7.48515e-05
2.51026e-06
-6.12555e-05
3.35891e-06
-4.78e-05
4.2245e-06
-3.42383e-05
5.13064e-06
-1.98687e-05
6.03619e-06
-4.41455e-06
6.99957e-06
1.24054e-05
8.05134e-06
3.08982e-05
9.27326e-06
5.15807e-05
1.08341e-05
7.48053e-05
0.000101586
1.29828e-05
6.8942e-07
-8.58311e-05
1.44741e-06
-7.56095e-05
2.21812e-06
-6.20262e-05
3.04716e-06
-4.86291e-05
3.84023e-06
-3.50314e-05
4.65268e-06
-2.06812e-05
5.55009e-06
-5.31196e-06
6.51894e-06
1.14365e-05
7.57769e-06
2.98394e-05
8.95443e-06
5.0204e-05
1.06195e-05
7.31402e-05
9.89765e-05
1.32286e-05
5.82121e-07
-8.64133e-05
1.34101e-06
-7.63684e-05
1.95124e-06
-6.26365e-05
2.66624e-06
-4.93441e-05
3.41485e-06
-3.578e-05
4.23146e-06
-2.14978e-05
5.08377e-06
-6.16427e-06
6.02992e-06
1.04904e-05
7.11608e-06
2.87533e-05
8.35283e-06
4.89672e-05
9.95964e-06
7.15334e-05
9.69173e-05
1.20189e-05
4.7263e-07
-8.68859e-05
1.06877e-06
-7.69645e-05
1.7674e-06
-6.33351e-05
2.41542e-06
-4.99921e-05
3.10675e-06
-3.64713e-05
3.85881e-06
-2.22498e-05
4.68918e-06
-6.99464e-06
5.63108e-06
9.54845e-06
6.72918e-06
2.76552e-05
8.05241e-06
4.7644e-05
9.71799e-06
6.98678e-05
9.47959e-05
1.18394e-05
4.58266e-07
-8.73441e-05
9.80899e-07
-7.74871e-05
1.54061e-06
-6.38948e-05
2.14197e-06
-5.05935e-05
2.79974e-06
-3.71291e-05
3.52375e-06
-2.29738e-05
4.34013e-06
-7.81101e-06
5.26194e-06
8.62664e-06
6.30281e-06
2.66143e-05
7.57866e-06
4.63681e-05
9.12833e-06
6.83181e-05
9.29823e-05
1.09419e-05
3.78487e-07
-8.77226e-05
8.1881e-07
-7.79275e-05
1.32067e-06
-6.43967e-05
1.88399e-06
-5.11568e-05
2.51717e-06
-3.77623e-05
3.25993e-06
-2.37166e-05
4.06727e-06
-8.61834e-06
5.01553e-06
7.67838e-06
6.17495e-06
2.54549e-05
7.57355e-06
4.49696e-05
9.33276e-06
6.65589e-05
9.066e-05
1.1655e-05
2.46961e-07
-8.79696e-05
6.28746e-07
-7.83092e-05
1.08468e-06
-6.48526e-05
1.614e-06
-5.16861e-05
2.26853e-06
-3.84168e-05
2.94893e-06
-2.4397e-05
3.7786e-06
-9.44802e-06
4.74694e-06
6.71004e-06
5.86796e-06
2.43338e-05
7.23756e-06
4.36e-05
8.89413e-06
6.49023e-05
8.87177e-05
1.08365e-05
1.20672e-07
-8.80903e-05
4.33319e-07
-7.86219e-05
8.34204e-07
-6.52535e-05
1.37682e-06
-5.22287e-05
1.90638e-06
-3.89464e-05
2.59729e-06
-2.50879e-05
3.43236e-06
-1.02831e-05
4.40259e-06
5.73981e-06
5.59359e-06
2.31428e-05
6.94272e-06
4.22508e-05
8.64617e-06
6.31989e-05
8.6513e-05
1.08508e-05
2.99326e-08
-8.81202e-05
3.35974e-07
-7.89279e-05
6.3793e-07
-6.55554e-05
9.87452e-07
-5.25782e-05
1.54936e-06
-3.95083e-05
2.17624e-06
-2.57148e-05
2.92353e-06
-1.10304e-05
3.82621e-06
4.83713e-06
4.88909e-06
2.208e-05
6.19113e-06
4.09488e-05
7.53849e-06
6.18515e-05
8.51121e-05
8.93945e-06
1.10972e-08
-8.81313e-05
1.65096e-08
-7.89333e-05
3.49153e-07
-6.58881e-05
6.8497e-07
-5.29141e-05
1.08296e-06
-3.99063e-05
1.67719e-06
-2.6309e-05
2.36486e-06
-1.17181e-05
3.20605e-06
3.99595e-06
4.17592e-06
2.11101e-05
5.35426e-06
3.97704e-05
6.8464e-06
6.03594e-05
8.33581e-05
8.60038e-06
-9.94306e-08
-8.80319e-05
-7.89225e-08
-7.89539e-05
8.17921e-08
-6.60488e-05
3.33415e-07
-5.31657e-05
6.9389e-07
-4.02667e-05
1.17764e-06
-2.67928e-05
1.79061e-06
-1.2331e-05
2.54965e-06
3.23691e-06
3.47545e-06
2.01843e-05
4.59125e-06
3.86546e-05
5.95064e-06
5.9e-05
8.17104e-05
7.59832e-06
-1.86948e-07
-8.78449e-05
-2.34414e-07
-7.89064e-05
-1.65812e-07
-6.61174e-05
8.39365e-09
-5.33399e-05
3.14345e-07
-4.05727e-05
7.45126e-07
-2.72235e-05
1.31983e-06
-1.29057e-05
2.06675e-06
2.48999e-06
3.02761e-06
1.92234e-05
4.26571e-06
3.74165e-05
5.92355e-06
5.73421e-05
7.91678e-05
8.46621e-06
-1.66437e-07
-8.76785e-05
-2.90747e-07
-7.87821e-05
-3.65482e-07
-6.60427e-05
-2.42021e-07
-5.34634e-05
4.25611e-08
-4.08573e-05
3.83151e-07
-2.75641e-05
9.12779e-07
-1.34354e-05
1.62853e-06
1.77424e-06
2.60222e-06
1.82497e-05
3.80241e-06
3.62163e-05
5.42132e-06
5.57232e-05
7.71279e-05
7.46123e-06
-3.60839e-07
-8.73176e-05
-4.88222e-07
-7.86547e-05
-5.08776e-07
-6.60221e-05
-3.63502e-07
-5.36086e-05
-2.13787e-07
-4.1007e-05
1.33699e-07
-2.79116e-05
6.38746e-07
-1.39404e-05
1.3393e-06
1.07369e-06
2.2613e-06
1.73277e-05
3.56378e-06
3.49139e-05
5.26249e-06
5.40245e-05
7.47144e-05
7.67594e-06
-3.03446e-07
-8.70142e-05
-4.73057e-07
-7.84851e-05
-5.18024e-07
-6.59771e-05
-5.12027e-07
-5.36146e-05
-3.17496e-07
-4.12015e-05
2.34337e-08
-2.82525e-05
5.32472e-07
-1.44494e-05
1.24846e-06
3.577e-07
2.25558e-06
1.63206e-05
3.60507e-06
3.35644e-05
5.43619e-06
5.21934e-05
7.22247e-05
7.92586e-06
-3.3147e-07
-8.66827e-05
-5.1513e-07
-7.83014e-05
-5.61292e-07
-6.5931e-05
-4.91247e-07
-5.36847e-05
-2.97078e-07
-4.13957e-05
4.77777e-08
-2.85974e-05
5.73074e-07
-1.49747e-05
1.32427e-06
-3.93493e-07
2.35243e-06
1.52924e-05
3.71611e-06
3.22007e-05
5.48309e-06
5.04264e-05
7.00203e-05
7.68754e-06
-3.67311e-07
-8.63154e-05
-5.46555e-07
-7.81222e-05
-5.85731e-07
-6.58918e-05
-5.00289e-07
-5.37701e-05
-2.76164e-07
-4.16198e-05
7.78102e-08
-2.89514e-05
6.6431e-07
-1.55612e-05
1.47961e-06
-1.2088e-06
2.56424e-06
1.42078e-05
3.96968e-06
3.07952e-05
5.73828e-06
4.86578e-05
6.7837e-05
7.92152e-06
-3.14479e-07
-8.60009e-05
-5.93353e-07
-7.78433e-05
-6.24009e-07
-6.58611e-05
-5.24895e-07
-5.38692e-05
-3.28221e-07
-4.18165e-05
1.19663e-07
-2.93993e-05
7.21571e-07
-1.61632e-05
1.54604e-06
-2.03327e-06
2.65138e-06
1.31025e-05
4.04033e-06
2.94063e-05
5.74136e-06
4.69568e-05
6.59695e-05
7.60895e-06
-4.55932e-07
-8.5545e-05
-5.54424e-07
-7.77448e-05
-6.78852e-07
-6.57367e-05
-5.86216e-07
-5.39619e-05
-3.04039e-07
-4.20987e-05
6.10368e-08
-2.97643e-05
6.59563e-07
-1.67617e-05
1.46875e-06
-2.84246e-06
2.50548e-06
1.20658e-05
3.84935e-06
2.80624e-05
5.43871e-06
4.53674e-05
6.39754e-05
7.43281e-06
-3.84433e-07
-8.51606e-05
-6.16448e-07
-7.75128e-05
-6.81288e-07
-6.56719e-05
-6.7709e-07
-5.39661e-05
-4.6667e-07
-4.23091e-05
-1.00151e-07
-3.01309e-05
4.36923e-07
-1.72988e-05
1.14155e-06
-3.54709e-06
2.03716e-06
1.11701e-05
3.05462e-06
2.7045e-05
4.27851e-06
4.41435e-05
6.29943e-05
5.25952e-06
-4.29785e-07
-8.47308e-05
-7.60536e-07
-7.71821e-05
-7.70483e-07
-6.56619e-05
-7.21171e-07
-5.40154e-05
-5.83706e-07
-4.24466e-05
-2.30344e-07
-3.04842e-05
2.85756e-07
-1.78149e-05
1.00744e-06
-4.26877e-06
1.92279e-06
1.02548e-05
3.11005e-06
2.58577e-05
4.58548e-06
4.26681e-05
6.07709e-05
6.80894e-06
-3.90073e-07
-8.43407e-05
-6.68504e-07
-7.69036e-05
-8.57002e-07
-6.54734e-05
-8.35615e-07
-5.40368e-05
-6.71234e-07
-4.26109e-05
-3.48485e-07
-3.0807e-05
1.55043e-07
-1.83184e-05
8.43001e-07
-4.95673e-06
1.74839e-06
9.3494e-06
2.90616e-06
2.47e-05
4.37068e-06
4.12036e-05
5.90305e-05
6.11105e-06
-5.17072e-07
-8.38236e-05
-8.16548e-07
-7.66041e-05
-9.51862e-07
-6.53381e-05
-1.00427e-06
-5.39844e-05
-8.44134e-07
-4.27711e-05
-5.21169e-07
-3.11299e-05
-1.24497e-08
-1.88271e-05
6.93101e-07
-5.66228e-06
1.61964e-06
8.42285e-06
2.77449e-06
2.35451e-05
4.18169e-06
3.97964e-05
5.72606e-05
5.95157e-06
-4.94885e-07
-8.33288e-05
-9.05386e-07
-7.61936e-05
-1.06316e-06
-6.51803e-05
-1.07515e-06
-5.39724e-05
-9.44379e-07
-4.29018e-05
-6.82355e-07
-3.1392e-05
-1.91521e-07
-1.93179e-05
5.06952e-07
-6.36076e-06
1.41522e-06
7.51459e-06
2.56371e-06
2.23966e-05
4.03294e-06
3.83271e-05
5.55796e-05
5.71394e-06
-5.69007e-07
-8.27598e-05
-9.08824e-07
-7.58538e-05
-1.1648e-06
-6.49244e-05
-1.14203e-06
-5.39951e-05
-1.09185e-06
-4.2952e-05
-8.2028e-07
-3.16635e-05
-3.76849e-07
-1.97614e-05
3.17884e-07
-7.05549e-06
1.23745e-06
6.59502e-06
2.44664e-06
2.11874e-05
3.95269e-06
3.68211e-05
5.36464e-05
5.88586e-06
-5.96485e-07
-8.21633e-05
-9.70827e-07
-7.54795e-05
-1.18246e-06
-6.47127e-05
-1.31655e-06
-5.38611e-05
-1.24081e-06
-4.30278e-05
-1.00502e-06
-3.18993e-05
-5.87813e-07
-2.01786e-05
3.50077e-08
-7.67831e-06
8.8675e-07
5.74327e-06
1.96243e-06
2.01117e-05
3.2709e-06
3.55126e-05
5.20775e-05
4.83984e-06
-5.49806e-07
-8.16135e-05
-1.03091e-06
-7.49984e-05
-1.26533e-06
-6.44783e-05
-1.35821e-06
-5.37682e-05
-1.36057e-06
-4.30254e-05
-1.15172e-06
-3.21082e-05
-7.62632e-07
-2.05677e-05
-1.70978e-07
-8.26996e-06
6.69769e-07
4.90252e-06
1.76135e-06
1.90202e-05
3.20829e-06
3.40657e-05
5.02108e-05
5.07499e-06
-6.83165e-07
-8.09303e-05
-9.94952e-07
-7.46866e-05
-1.31403e-06
-6.41592e-05
-1.4792e-06
-5.3603e-05
-1.39619e-06
-4.31084e-05
-1.25505e-06
-3.22493e-05
-9.18142e-07
-2.09046e-05
-3.51938e-07
-8.83617e-06
4.34391e-07
4.1162e-06
1.48755e-06
1.7967e-05
2.74452e-06
3.28087e-05
4.86211e-05
4.33426e-06
-6.19848e-07
-8.03104e-05
-1.10644e-06
-7.42e-05
-1.33372e-06
-6.3932e-05
-1.43807e-06
-5.34987e-05
-1.45564e-06
-4.30908e-05
-1.27175e-06
-3.24332e-05
-9.15849e-07
-2.12605e-05
-3.68671e-07
-9.38335e-06
4.24173e-07
3.32335e-06
1.49143e-06
1.68997e-05
2.94253e-06
3.13576e-05
4.67079e-05
4.85564e-06
-6.45743e-07
-7.96647e-05
-1.03402e-06
-7.38117e-05
-1.25593e-06
-6.371e-05
-1.40837e-06
-5.33462e-05
-1.36634e-06
-4.31329e-05
-1.18263e-06
-3.26169e-05
-8.60489e-07
-2.15826e-05
-3.21791e-07
-9.92205e-06
4.31171e-07
2.57039e-06
1.46584e-06
1.58651e-05
2.76489e-06
3.00586e-05
4.51082e-05
4.36464e-06
-5.66741e-07
-7.9098e-05
-1.01769e-06
-7.33608e-05
-1.28477e-06
-6.3443e-05
-1.27922e-06
-5.33518e-05
-1.25804e-06
-4.31541e-05
-1.07403e-06
-3.28009e-05
-6.85464e-07
-2.19712e-05
-1.1156e-07
-1.0496e-05
6.90601e-07
1.76823e-06
1.7691e-06
1.47866e-05
3.20774e-06
2.86199e-05
4.33336e-05
4.98233e-06
-5.54849e-07
-7.85431e-05
-9.83858e-07
-7.29318e-05
-1.15077e-06
-6.3276e-05
-1.23769e-06
-5.32649e-05
-1.12578e-06
-4.3266e-05
-8.62265e-07
-3.30644e-05
-4.33474e-07
-2.24e-05
1.6552e-07
-1.10949e-05
1.01823e-06
9.15517e-07
2.14273e-06
1.36621e-05
3.56569e-06
2.71969e-05
4.15431e-05
5.35624e-06
-5.61493e-07
-7.79816e-05
-8.8555e-07
-7.26077e-05
-1.10204e-06
-6.30596e-05
-1.09287e-06
-5.3274e-05
-9.90287e-07
-4.33686e-05
-6.7915e-07
-3.33756e-05
-2.23485e-07
-2.28556e-05
4.55213e-07
-1.17736e-05
1.36352e-06
7.2096e-09
2.54566e-06
1.24799e-05
3.99402e-06
2.57486e-05
3.97515e-05
5.78561e-06
-5.796e-07
-7.7402e-05
-8.76955e-07
-7.23104e-05
-1.00374e-06
-6.29328e-05
-1.03555e-06
-5.32422e-05
-8.57342e-07
-4.35468e-05
-5.62051e-07
-3.36709e-05
-5.16187e-08
-2.33661e-05
6.29952e-07
-1.24552e-05
1.54443e-06
-9.07264e-07
2.67689e-06
1.13475e-05
4.05913e-06
2.43664e-05
3.82091e-05
5.60151e-06
-5.88099e-07
-7.68139e-05
-8.74691e-07
-7.20238e-05
-1.05213e-06
-6.27553e-05
-1.00035e-06
-5.3294e-05
-8.53146e-07
-4.3694e-05
-4.96365e-07
-3.40276e-05
1.55701e-09
-2.3864e-05
7.19418e-07
-1.31731e-05
1.64335e-06
-1.83119e-06
2.80546e-06
1.01853e-05
4.20441e-06
2.29674e-05
3.64891e-05
5.92441e-06
-5.09149e-07
-7.63048e-05
-8.84613e-07
-7.16483e-05
-9.88405e-07
-6.26515e-05
-1.00066e-06
-5.32817e-05
-8.01648e-07
-4.3893e-05
-4.86954e-07
-3.43423e-05
3.91446e-08
-2.43901e-05
7.36971e-07
-1.38709e-05
1.65199e-06
-2.74621e-06
2.76246e-06
9.07488e-06
4.12186e-06
2.1608e-05
3.49382e-05
5.67278e-06
-5.27264e-07
-7.57775e-05
-8.98121e-07
-7.12774e-05
-1.0026e-06
-6.25471e-05
-9.63682e-07
-5.33207e-05
-8.24959e-07
-4.40317e-05
-4.81726e-07
-3.46856e-05
-2.07319e-09
-2.48697e-05
6.8519e-07
-1.45582e-05
1.55719e-06
-3.61822e-06
2.65658e-06
7.9755e-06
3.9467e-06
2.03179e-05
3.34184e-05
5.46643e-06
-5.71297e-07
-7.52062e-05
-8.50842e-07
-7.09979e-05
-1.03454e-06
-6.23634e-05
-1.03843e-06
-5.33168e-05
-8.44405e-07
-4.42257e-05
-5.47636e-07
-3.49823e-05
-4.0054e-08
-2.53773e-05
6.45146e-07
-1.52434e-05
1.51748e-06
-4.49056e-06
2.60661e-06
6.88637e-06
3.96024e-06
1.89643e-05
3.17711e-05
5.60755e-06
-5.93512e-07
-7.46127e-05
-8.71735e-07
-7.07197e-05
-9.76904e-07
-6.22582e-05
-9.96597e-07
-5.32971e-05
-8.2188e-07
-4.44005e-05
-5.31969e-07
-3.52723e-05
-4.52494e-08
-2.5864e-05
5.80791e-07
-1.58694e-05
1.4414e-06
-5.35116e-06
2.50924e-06
5.81853e-06
3.78158e-06
1.76919e-05
3.03206e-05
5.23206e-06
-5.24235e-07
-7.40885e-05
-8.8239e-07
-7.03615e-05
-1.04882e-06
-6.20918e-05
-9.9256e-07
-5.33533e-05
-8.54395e-07
-4.45386e-05
-5.18618e-07
-3.5608e-05
-5.91401e-08
-2.63235e-05
6.16701e-07
-1.65453e-05
1.47847e-06
-6.21293e-06
2.56076e-06
4.73623e-06
3.90065e-06
1.6352e-05
2.86731e-05
5.54819e-06
-5.48295e-07
-7.35402e-05
-8.16846e-07
-7.0093e-05
-9.62869e-07
-6.19458e-05
-9.12885e-07
-5.34033e-05
-7.72353e-07
-4.46792e-05
-4.76808e-07
-3.59036e-05
1.72799e-08
-2.68176e-05
6.68594e-07
-1.71966e-05
1.54402e-06
-7.08835e-06
2.64127e-06
3.63898e-06
3.97466e-06
1.50186e-05
2.70592e-05
5.58853e-06
-4.63397e-07
-7.30768e-05
-8.69074e-07
-6.96873e-05
-9.41837e-07
-6.1873e-05
-9.24517e-07
-5.34206e-05
-7.04399e-07
-4.48993e-05
-3.60975e-07
-3.6247e-05
1.12652e-07
-2.72912e-05
8.04529e-07
-1.78884e-05
1.6991e-06
-7.98293e-06
2.84147e-06
2.49661e-06
4.27295e-06
1.35871e-05
2.52966e-05
6.03557e-06
-5.46298e-07
-7.25305e-05
-7.69707e-07
-6.94639e-05
-8.2316e-07
-6.18195e-05
-7.94707e-07
-5.34491e-05
-6.27565e-07
-4.50664e-05
-3.02666e-07
-3.65719e-05
2.18341e-07
-2.78123e-05
8.991e-07
-1.85692e-05
1.79061e-06
-8.87444e-06
2.90613e-06
1.38109e-06
4.25722e-06
1.2236e-05
2.37476e-05
5.80622e-06
-4.58963e-07
-7.20715e-05
-6.70428e-07
-6.92524e-05
-8.44251e-07
-6.16457e-05
-7.33562e-07
-5.35598e-05
-4.85178e-07
-4.53148e-05
-1.43987e-07
-3.69131e-05
3.63225e-07
-2.83195e-05
1.08833e-06
-1.92943e-05
2.01011e-06
-9.79623e-06
3.18207e-06
2.09132e-07
4.63496e-06
1.07832e-05
2.18761e-05
6.50645e-06
-4.77311e-07
-7.15942e-05
-7.43651e-07
-6.89861e-05
-7.41191e-07
-6.16482e-05
-6.5014e-07
-5.36508e-05
-4.27831e-07
-4.55371e-05
-2.00646e-08
-3.73209e-05
5.04273e-07
-2.88438e-05
1.21483e-06
-2.00049e-05
2.13151e-06
-1.07129e-05
3.25914e-06
-9.18504e-07
4.6119e-06
9.4304e-06
2.03591e-05
6.12888e-06
-3.99671e-07
-7.11945e-05
-6.37733e-07
-6.8748e-05
-6.86886e-07
-6.1599e-05
-5.21453e-07
-5.38163e-05
-2.79335e-07
-4.57792e-05
9.84676e-08
-3.76987e-05
6.82781e-07
-2.94281e-05
1.41335e-06
-2.07354e-05
2.35496e-06
-1.16545e-05
3.50143e-06
-2.06498e-06
4.89704e-06
8.03479e-06
1.86784e-05
6.57773e-06
-4.93127e-07
-7.07014e-05
-6.20435e-07
-6.86207e-05
-5.78803e-07
-6.16407e-05
-5.18814e-07
-5.38763e-05
-2.08222e-07
-4.60898e-05
2.47485e-07
-3.81544e-05
8.05268e-07
-2.99859e-05
1.54645e-06
-2.14766e-05
2.47737e-06
-1.25854e-05
3.60736e-06
-3.19497e-06
4.93594e-06
6.70621e-06
1.71692e-05
6.44512e-06
-3.97109e-07
-7.03043e-05
-6.01196e-07
-6.84166e-05
-6.18358e-07
-6.16235e-05
-4.25478e-07
-5.40691e-05
-1.37117e-07
-4.63782e-05
2.76809e-07
-3.85683e-05
8.66589e-07
-3.05757e-05
1.63868e-06
-2.22487e-05
2.56978e-06
-1.35165e-05
3.68601e-06
-4.3112e-06
4.96903e-06
5.42319e-06
1.56976e-05
6.44071e-06
-3.46486e-07
-6.99578e-05
-5.3305e-07
-6.82301e-05
-5.3635e-07
-6.16202e-05
-3.29043e-07
-5.42764e-05
-5.86476e-08
-4.66486e-05
3.59649e-07
-3.89866e-05
9.6677e-07
-3.11828e-05
1.69612e-06
-2.2978e-05
2.59696e-06
-1.44174e-05
3.67649e-06
-5.39074e-06
4.92242e-06
4.17726e-06
1.43081e-05
6.31193e-06
-4.57155e-07
-6.95007e-05
-5.36424e-07
-6.81508e-05
-4.66995e-07
-6.16896e-05
-3.73389e-07
-5.437e-05
-1.54317e-08
-4.70065e-05
4.11664e-07
-3.94137e-05
9.84618e-07
-3.17558e-05
1.7282e-06
-2.37216e-05
2.66392e-06
-1.53531e-05
3.77393e-06
-6.50074e-06
5.10839e-06
2.84281e-06
1.27105e-05
6.70589e-06
-3.77603e-07
-6.91231e-05
-5.29021e-07
-6.79994e-05
-5.08583e-07
-6.17101e-05
-2.79116e-07
-5.45995e-05
5.43642e-09
-4.72911e-05
4.80144e-07
-3.98884e-05
1.01621e-06
-3.22918e-05
1.77475e-06
-2.44802e-05
2.66975e-06
-1.62481e-05
3.7437e-06
-7.57469e-06
5.00005e-06
1.58646e-06
1.1277e-05
6.43364e-06
-2.93068e-07
-6.883e-05
-4.44448e-07
-6.7848e-05
-4.33302e-07
-6.17212e-05
-2.62445e-07
-5.47704e-05
4.14678e-08
-4.7595e-05
4.83252e-07
-4.03302e-05
1.10697e-06
-3.29155e-05
1.85156e-06
-2.52248e-05
2.77347e-06
-1.717e-05
3.89074e-06
-8.69197e-06
5.24562e-06
2.31587e-07
9.61307e-06
6.9095e-06
-3.98442e-07
-6.84315e-05
-4.53746e-07
-6.77927e-05
-4.07122e-07
-6.17678e-05
-2.30248e-07
-5.49472e-05
1.19581e-07
-4.79448e-05
5.58666e-07
-4.07693e-05
1.14213e-06
-3.3499e-05
1.87327e-06
-2.59559e-05
2.79758e-06
-1.80943e-05
3.87889e-06
-9.77327e-06
5.13279e-06
-1.02232e-06
8.22988e-06
6.51598e-06
-3.20261e-07
-6.81113e-05
-4.56533e-07
-6.76564e-05
-4.11457e-07
-6.18129e-05
-1.64197e-07
-5.51945e-05
9.0147e-08
-4.81992e-05
5.82572e-07
-4.12617e-05
1.15455e-06
-3.4071e-05
1.92282e-06
-2.67242e-05
2.78733e-06
-1.89588e-05
3.86271e-06
-1.08486e-05
5.10191e-06
-2.26152e-06
6.79307e-06
6.53872e-06
-2.70084e-07
-6.78412e-05
-4.40048e-07
-6.74865e-05
-3.31156e-07
-6.19218e-05
-1.59761e-07
-5.53659e-05
1.63023e-07
-4.8522e-05
5.93145e-07
-4.16918e-05
1.21577e-06
-3.46936e-05
1.8942e-06
-2.74026e-05
2.78821e-06
-1.98528e-05
3.82245e-06
-1.18829e-05
5.02488e-06
-3.46395e-06
5.4212e-06
6.39674e-06
-3.62595e-07
-6.74786e-05
-3.74253e-07
-6.74748e-05
-3.15358e-07
-6.19807e-05
-1.24534e-07
-5.55567e-05
2.32111e-07
-4.88786e-05
6.70344e-07
-4.213e-05
1.20654e-06
-3.52298e-05
1.96287e-06
-2.81589e-05
2.84727e-06
-2.07372e-05
3.90493e-06
-1.29406e-05
5.17598e-06
-4.73499e-06
3.91652e-06
6.68066e-06
-2.74444e-07
-6.72042e-05
-3.7524e-07
-6.7374e-05
-3.08857e-07
-6.20471e-05
-1.09122e-07
-5.57565e-05
2.09014e-07
-4.91967e-05
6.51862e-07
-4.25729e-05
1.26573e-06
-3.58437e-05
1.97751e-06
-2.88707e-05
2.84245e-06
-2.16022e-05
3.87247e-06
-1.39706e-05
5.07175e-06
-5.93427e-06
2.53827e-06
6.44999e-06
-2.16222e-07
-6.69879e-05
-2.79849e-07
-6.73104e-05
-1.99957e-07
-6.2127e-05
-1.8548e-08
-5.59379e-05
2.98561e-07
-4.95138e-05
7.3471e-07
-4.3009e-05
1.28632e-06
-3.63953e-05
2.01553e-06
-2.95999e-05
2.85353e-06
-2.24402e-05
3.84355e-06
-1.49606e-05
4.98967e-06
-7.08039e-06
1.24555e-06
6.28239e-06
-2.17053e-07
-6.67709e-05
-2.66654e-07
-6.72608e-05
-1.94334e-07
-6.21993e-05
2.93207e-08
-5.61615e-05
3.53056e-07
-4.98376e-05
8.37157e-07
-4.34931e-05
1.37567e-06
-3.69338e-05
2.02278e-06
-3.0247e-05
2.84262e-06
-2.326e-05
3.82443e-06
-1.59424e-05
4.92971e-06
-8.18567e-06
-2.32435e-08
6.1985e-06
-2.3093e-07
-6.654e-05