/*--------------------------------*- C++ -*----------------------------------*\
| =========                 |                                                 |
| \\      /  F ield         | OpenFOAM: The Open Source CFD Toolbox           |
|  \\    /   O peration     | Version:  2.3.1                                 |
|   \\  /    A nd           | Web:      www.OpenFOAM.org                      |
|    \\/     M anipulation  |                                                 |
\*---------------------------------------------------------------------------*/
FoamFile
{
    version     2.0;
    format      ascii;
    class       volVectorField;
    location    "0.36";
    object      U;
}
// * * * * * * * * * * * * * * * * * * * * * * * * * * * * * * * * * * * * * //

dimensions      [0 1 -1 0 0 0 0];

internalField   nonuniform List<vector> 
96780
(
(-2.1048 -0.33252 1.33206e-18)
(-1.74473 -0.0939856 -5.30994e-19)
(-1.15532 0.0864894 2.64562e-19)
(-0.335858 0.264694 -2.63881e-19)
(0.769097 0.519003 -2.62134e-19)
(2.39317 0.912322 2.5953e-19)
(4.40463 1.58561 -7.71293e-22)
(6.57409 2.24347 -2.52614e-19)
(8.88059 3.09463 2.47347e-19)
(10.9752 3.81727 0)
(12.8747 4.4349 -2.42618e-19)
(14.7874 5.18518 2.3918e-19)
(-2.46614 -0.459413 -2.66927e-19)
(-1.87002 -0.212724 2.6563e-19)
(-1.17624 -0.000848432 -5.29339e-19)
(-0.330798 0.218273 1.05675e-18)
(0.759129 0.48555 2.62104e-19)
(2.26357 0.872849 -5.19787e-19)
(4.17054 1.48647 5.12335e-19)
(6.29082 2.1484 2.53061e-19)
(8.56728 2.94442 0)
(10.6805 3.67993 2.46347e-19)
(12.5876 4.3138 -2.43242e-19)
(14.4841 5.03752 -2.40367e-19)
(-2.61826 -0.516885 8.00786e-19)
(-1.95999 -0.291905 -5.31161e-19)
(-1.22994 -0.0693757 0)
(-0.372945 0.164709 0)
(0.70034 0.445795 -5.23986e-19)
(2.1121 0.822439 2.59902e-19)
(3.91102 1.37955 2.56891e-19)
(5.97381 2.02691 0)
(8.21293 2.78231 -4.99334e-19)
(10.3427 3.51459 2.47027e-19)
(12.2724 4.14782 9.71536e-19)
(14.1669 4.83443 -1.43616e-18)
(-2.73976 -0.547557 -1.06808e-18)
(-2.05095 -0.337885 2.654e-19)
(-1.29855 -0.116064 -7.9255e-19)
(-0.435354 0.119064 -2.63477e-19)
(0.621506 0.400636 2.62198e-19)
(1.9667 0.763535 -2.59335e-19)
(3.66917 1.27289 2.56253e-19)
(5.66594 1.89415 -5.07405e-19)
(7.8622 2.61481 2.49377e-19)
(10.0024 3.33852 -4.93736e-19)
(11.9675 3.97538 -2.43264e-19)
(13.8805 4.63144 -4.76562e-19)
(-2.83453 -0.563133 -1.06638e-18)
(-2.13233 -0.365457 7.95686e-19)
(-1.3675 -0.148064 5.27345e-19)
(-0.504075 0.0826261 5.26162e-19)
(0.535961 0.35822 2.61582e-19)
(1.82988 0.706148 5.18159e-19)
(3.44907 1.17551 2.56301e-19)
(5.37601 1.76463 2.53368e-19)
(7.52688 2.45512 5.00205e-19)
(9.67019 3.1689 0)
(11.6678 3.81339 2.43207e-19)
(13.6109 4.45169 2.39455e-19)
(-2.91455 -0.571235 0)
(-2.20608 -0.383482 -2.64882e-19)
(-1.4353 -0.171533 2.63401e-19)
(-0.575459 0.0530112 -2.63062e-19)
(0.44733 0.320589 -1.0448e-18)
(1.69848 0.653717 -2.59083e-19)
(3.24567 1.09052 2.56014e-19)
(5.09889 1.64478 -5.05986e-19)
(7.19431 2.3043 -2.50215e-19)
(9.33064 3.00743 2.4654e-19)
(11.3461 3.66675 -2.43322e-19)
(13.3002 4.31419 2.39796e-19)
(-2.98517 -0.574571 -5.31726e-19)
(-2.27519 -0.395616 0)
(-1.50032 -0.18915 -5.25914e-19)
(-0.6461 0.0284461 7.86489e-19)
(0.358695 0.286741 -2.60551e-19)
(1.57203 0.604767 2.58733e-19)
(3.05497 1.01304 -2.56003e-19)
(4.83476 1.53209 2.53101e-19)
(6.86777 2.15674 2.49924e-19)
(8.98533 2.83695 -7.39623e-19)
(11.0207 3.48764 4.86989e-19)
(12.9945 4.11729 -2.40254e-19)
(-3.04913 -0.575176 -5.30973e-19)
(-2.33926 -0.404183 -2.64174e-19)
(-1.56366 -0.203264 5.2503e-19)
(-0.715986 0.00704731 -4.96921e-23)
(0.271488 0.255389 -2.60625e-19)
(1.45067 0.558324 -1.25648e-22)
(2.87717 0.940823 -7.65673e-19)
(4.58675 1.42546 7.58213e-19)
(6.55482 2.01448 -2.49963e-19)
(8.64678 2.67083 7.38947e-19)
(10.6969 3.31761 -4.87053e-19)
(12.7005 3.93679 -2.3843e-19)
(-3.10818 -0.572951 -5.30159e-19)
(-2.39899 -0.409251 -5.27216e-19)
(-1.62339 -0.214347 2.6205e-19)
(-0.78398 -0.0117481 2.61226e-19)
(0.186655 0.226759 -2.59634e-19)
(1.33482 0.515323 -2.57532e-19)
(2.71143 0.875042 7.65357e-19)
(4.35528 1.32788 -2.52483e-19)
(6.25734 1.8816 0)
(8.31367 2.50986 -7.34791e-22)
(10.3726 3.14766 -7.30874e-19)
(12.4107 3.75134 -2.40094e-19)
(-3.16215 -0.568788 2.64386e-19)
(-2.45611 -0.411835 2.6312e-19)
(-1.68105 -0.22277 -2.61869e-19)
(-0.84894 -0.027553 0)
(0.105298 0.201136 0)
(1.22509 0.476191 0)
(2.55627 0.815596 5.09069e-19)
(4.13826 1.23946 -7.55802e-19)
(5.97407 1.7595 1.24685e-18)
(7.98841 2.35982 2.4526e-19)
(10.045 2.98934 -2.43623e-19)
(12.117 3.57772 0)
(-3.2119 -0.563591 7.91356e-19)
(-2.5097 -0.412968 -2.62714e-19)
(-1.73607 -0.229433 -5.22144e-19)
(-0.912017 -0.041175 1.03968e-18)
(0.0265214 0.178501 -5.18082e-19)
(1.11986 0.440856 0)
(2.40979 0.761731 5.08054e-19)
(3.93503 1.15961 -2.52323e-19)
(5.70572 1.64714 -2.50047e-19)
(7.672 2.21662 -9.84567e-19)
(9.71923 2.83169 4.86628e-19)
(11.8124 3.41299 4.78768e-19)
(-3.26024 -0.55806 -6.58615e-19)
(-2.56136 -0.41316 2.61837e-19)
(-1.78993 -0.234144 -6.51188e-19)
(-0.973799 -0.0523339 0)
(-0.0511834 0.158497 0)
(1.01815 0.409254 -1.28004e-19)
(2.27097 0.7135 -1.26691e-19)
(3.74292 1.08779 0)
(5.45141 1.54543 -1.2423e-19)
(7.36664 2.08441 3.68267e-19)
(9.39777 2.68101 -4.86575e-19)
(11.5073 3.26624 -1.20033e-19)
(-3.30811 -0.551147 -9.20962e-19)
(-2.61306 -0.411489 5.23417e-19)
(-1.8435 -0.236789 6.49729e-19)
(-1.03485 -0.0609667 -5.17814e-19)
(-0.126706 0.141795 0)
(0.919632 0.381654 1.27883e-19)
(2.13677 0.670463 1.26685e-19)
(3.55982 1.02351 0)
(5.20975 1.45443 1.24173e-19)
(7.07075 1.96471 1.22832e-19)
(9.07824 2.53966 -4.84986e-19)
(11.2079 3.11459 6.00436e-19)
(-3.35383 -0.542198 5.2529e-19)
(-2.66368 -0.407149 1.30477e-19)
(-1.89673 -0.237331 1.29573e-19)
(-1.09513 -0.0670836 0)
(-0.200654 0.127998 -5.14453e-19)
(0.823285 0.357131 5.10455e-19)
(2.00814 0.631851 0)
(3.38636 0.965724 -4.99932e-19)
(4.98015 1.37158 4.95956e-19)
(6.78609 1.85415 0)
(8.75998 2.40701 0)
(10.9016 2.97147 1.19706e-19)
(-3.39875 -0.533492 -5.24181e-19)
(-2.71402 -0.40262 -1.30456e-19)
(-1.94927 -0.236469 3.8809e-19)
(-1.15457 -0.0713503 -5.1484e-19)
(-0.273411 0.116652 -5.13449e-19)
(0.729859 0.336144 5.09138e-19)
(1.88447 0.597618 0)
(3.22082 0.9132 0)
(4.76244 1.29476 0)
(6.51456 1.74767 0)
(8.45593 2.27019 0)
(10.6056 2.81116 2.37878e-19)
(-3.44545 -0.524108 -3.92378e-19)
(-2.76505 -0.396708 -1.3011e-19)
(-2.00252 -0.233875 1.29338e-19)
(-1.21395 -0.0733588 -1.28374e-19)
(-0.344603 0.108107 1.27826e-19)
(0.639067 0.318555 -1.26907e-19)
(1.76491 0.567631 3.77426e-19)
(3.06233 0.866324 -3.73907e-19)
(4.55589 1.22625 -1.23413e-19)
(6.25784 1.65429 -1.22162e-19)
(8.16462 2.15434 1.20804e-19)
(10.3313 2.66956 6.72825e-23)
(-3.49386 -0.514081 1.30764e-19)
(-2.81835 -0.389863 -1.29822e-19)
(-2.0567 -0.229817 1.28996e-19)
(-1.27415 -0.0735335 -1.28048e-19)
(-0.41612 0.102034 1.27575e-19)
(0.54977 0.304102 1.26922e-19)
(1.64923 0.5417 -1.25397e-19)
(2.91105 0.825024 1.24271e-19)
(4.36014 1.16468 1.23305e-19)
(6.01499 1.56829 6.10084e-19)
(7.88764 2.04444 -1.21669e-19)
(10.0535 2.52964 1.17607e-19)
(-3.5431 -0.502951 1.30364e-19)
(-2.87308 -0.38157 -2.59128e-19)
(-2.11282 -0.224662 -2.5703e-19)
(-1.33504 -0.0719777 7.38795e-23)
(-0.487545 0.0981145 2.54572e-19)
(0.461299 0.292488 0)
(1.53634 0.519558 0)
(2.76469 0.788752 0)
(4.17184 1.11019 1.22892e-19)
(5.78102 1.49259 -2.43765e-19)
(7.61337 1.95081 0)
(9.76236 2.43783 0)
(-3.59454 -0.492821 1.30248e-19)
(-2.92924 -0.373891 3.88321e-19)
(-2.17025 -0.219005 -6.41818e-19)
(-1.39652 -0.0696736 2.55202e-19)
(-0.558342 0.0953156 -1.26852e-19)
(0.375015 0.28215 -1.26152e-19)
(1.42782 0.498725 -1.24893e-19)
(2.62594 0.753392 -2.47675e-19)
(3.99622 1.05516 2.4558e-19)
(5.56536 1.40986 -1.21497e-19)
(7.36873 1.82678 -1.20275e-19)
(9.51141 2.2477 -1.19296e-19)
(-3.65039 -0.48244 0)
(-2.98883 -0.365895 1.2905e-19)
(-2.23011 -0.212724 -1.2798e-19)
(-1.45991 -0.0665122 2.54487e-19)
(-0.629779 0.0937892 1.26811e-19)
(0.289722 0.273724 1.26151e-19)
(1.32224 0.480685 3.74286e-19)
(2.49322 0.72259 -2.47325e-19)
(3.82949 1.00863 -1.22269e-19)
(5.36259 1.34791 6.06944e-19)
(7.13729 1.75773 1.20173e-19)
(9.30127 2.19007 -1.19189e-19)
(-3.70783 -0.470593 0)
(-3.05029 -0.356411 -2.57408e-19)
(-2.29079 -0.206002 3.83618e-19)
(-1.52372 -0.0632769 1.26903e-19)
(-0.701209 0.0919958 0)
(0.206026 0.264956 1.25766e-19)
(1.22037 0.462094 -1.24534e-19)
(2.3669 0.690527 2.46882e-19)
(3.67336 0.958516 1.22106e-19)
(5.17211 1.27299 -2.41934e-19)
(6.91511 1.65184 2.40047e-19)
(9.05841 2.02486 0)
(-3.76682 -0.459586 -2.58725e-19)
(-3.11369 -0.347876 -1.28455e-19)
(-2.35296 -0.199398 -2.55137e-19)
(-1.58741 -0.0599838 -1.26856e-19)
(-0.770831 0.0902126 0)
(0.125985 0.255775 -3.76681e-19)
(1.12587 0.442873 2.48502e-19)
(2.25279 0.657369 0)
(3.53492 0.906255 -1.80504e-22)
(5.00824 1.19555 1.20715e-19)
(6.72869 1.54365 -1.19836e-19)
(8.83622 1.87861 -1.18329e-19)
(-3.8292 -0.448528 0)
(-3.17904 -0.339133 -1.28259e-19)
(-2.41735 -0.192492 1.27562e-19)
(-1.65211 -0.0558909 6.32251e-19)
(-0.839668 0.0899189 -3.77749e-19)
(0.0492767 0.249196 3.7579e-19)
(1.03691 0.427484 -4.8775e-23)
(2.1478 0.630219 -1.23064e-19)
(3.41091 0.864101 -2.43506e-19)
(4.86396 1.13573 4.82431e-19)
(6.56501 1.4646 -8.19918e-23)
(8.63125 1.8044 1.18348e-19)
(-3.89502 -0.43722 1.28854e-19)
(-3.247 -0.329879 1.28035e-19)
(-2.48267 -0.184403 1.26993e-19)
(-1.71766 -0.0504832 -2.52511e-19)
(-0.908253 0.091647 1.25419e-19)
(-0.0263707 0.245657 -6.26005e-19)
(0.951052 0.416898 4.95406e-19)
(2.04808 0.610691 -2.45275e-19)
(3.29338 0.833692 -1.21504e-19)
(4.7255 1.09268 9.61241e-23)
(6.40016 1.40435 1.19463e-19)
(8.41816 1.7414 1.18135e-19)
(-3.96394 -0.424932 -3.86372e-19)
(-3.31871 -0.319619 3.83495e-19)
(-2.5514 -0.175458 -3.80727e-19)
(-1.78508 -0.0435799 1.26088e-19)
(-0.978029 0.0954353 3.75564e-19)
(-0.101757 0.245087 -6.2396e-19)
(0.866614 0.410355 1.23519e-19)
(1.95055 0.596436 -1.225e-19)
(3.17833 0.80962 -1.2128e-19)
(4.58836 1.05705 -1.20216e-19)
(6.23491 1.35251 1.19077e-19)
(8.2163 1.68456 -3.5356e-19)
(-4.03527 -0.411961 1.03273e-22)
(-3.39221 -0.308303 1.53565e-22)
(-2.62215 -0.165707 -1.26531e-19)
(-1.85451 -0.035693 6.28635e-19)
(-1.04921 0.100601 -3.75397e-19)
(-0.178322 0.246311 1.61432e-22)
(0.781421 0.406259 0)
(1.85205 0.585575 -1.22146e-19)
(3.06194 0.790567 -1.20887e-19)
(4.44789 1.0297 1.202e-19)
(6.06187 1.31887 -1.18975e-19)
(7.99343 1.66526 1.18512e-19)
(-4.1097 -0.399023 1.28335e-19)
(-3.46943 -0.297136 3.82172e-19)
(-2.69559 -0.155706 -4.81071e-23)
(-1.92644 -0.0276333 -5.02079e-19)
(-1.12219 0.105792 3.74344e-19)
(-0.255401 0.247356 2.48512e-19)
(0.696924 0.401605 3.69186e-19)
(1.75624 0.573154 -2.4502e-23)
(2.95086 0.767331 -1.20738e-19)
(4.31739 0.989689 3.59295e-19)
(5.90966 1.24765 1.18582e-19)
(7.82497 1.5368 1.53821e-22)
(-4.18786 -0.385905 -5.12517e-19)
(-3.54916 -0.28577 2.54562e-19)
(-2.77177 -0.145666 -6.31183e-19)
(-2.00016 -0.0193474 2.5068e-19)
(-1.19662 0.11168 -2.4895e-19)
(-0.332872 0.250013 -2.47856e-19)
(0.612912 0.399557 -1.2303e-19)
(1.66253 0.565098 -2.43441e-19)
(2.84353 0.752251 -5.50791e-23)
(4.19175 0.967422 -3.58683e-19)
(5.76076 1.22059 -2.36891e-19)
(7.63918 1.50029 -2.31208e-23)
(-4.2678 -0.371881 2.55824e-19)
(-3.63153 -0.273684 1.27061e-19)
(-2.85063 -0.13566 1.25994e-19)
(-2.07648 -0.0112893 4.99891e-19)
(-1.27241 0.117327 -3.79359e-23)
(-0.411624 0.252378 3.71368e-19)
(0.528221 0.397772 -1.22835e-19)
(1.56846 0.557946 2.42921e-19)
(2.73534 0.738108 1.24156e-22)
(4.06463 0.944639 2.38609e-19)
(5.61023 1.18659 2.36623e-19)
(7.46578 1.46932 2.34998e-19)
(-4.34975 -0.358936 1.27695e-19)
(-3.71591 -0.2633 1.26853e-19)
(-2.93087 -0.126744 -3.77652e-19)
(-2.15468 -0.00480139 -1.24838e-19)
(-1.35083 0.120951 -2.47959e-19)
(-0.492432 0.252417 -2.46986e-19)
(0.442195 0.393201 -2.45065e-19)
(1.47317 0.547033 1.21249e-19)
(2.6268 0.718846 3.60748e-19)
(3.93979 0.914762 -3.57316e-19)
(5.46538 1.14292 -9.03282e-23)
(7.30324 1.40787 -1.17323e-19)
(-4.43487 -0.345466 1.20597e-22)
(-3.80204 -0.253182 3.80237e-19)
(-3.01277 -0.118988 6.27362e-20)
(-2.23349 -0.000133736 0)
(-1.42927 0.121805 3.09652e-19)
(-0.572186 0.248529 -6.15954e-20)
(0.358477 0.383202 -4.28381e-19)
(1.38266 0.529027 3.0276e-19)
(2.52686 0.690316 -5.99654e-20)
(3.82687 0.871311 5.93856e-20)
(5.33878 1.07712 -1.17505e-19)
(7.17362 1.2995 2.33407e-19)
(-4.5188 -0.330458 2.54697e-19)
(-3.88738 -0.24187 -2.53006e-19)
(-3.09401 -0.111741 -6.27292e-20)
(-2.31114 0.00314131 -6.21328e-20)
(-1.50554 0.120739 -1.85208e-19)
(-0.649035 0.242218 4.91618e-19)
(0.279328 0.370258 -1.83244e-19)
(1.29947 0.5076 -1.2088e-19)
(2.43712 0.658069 5.99592e-20)
(3.72744 0.825641 -7.15921e-23)
(5.22717 1.01695 -5.87445e-20)
(7.02946 1.21801 5.8312e-20)
(-4.60119 -0.316098 6.35452e-20)
(-3.97168 -0.23202 0)
(-3.17398 -0.105716 -6.26192e-20)
(-2.38825 0.00484111 2.48266e-19)
(-1.58067 0.117913 0)
(-0.723795 0.234081 1.22711e-19)
(0.203276 0.355887 1.82979e-19)
(1.2206 0.485757 -1.20745e-19)
(2.35292 0.627276 5.97881e-20)
(3.63553 0.785239 -2.96083e-19)
(5.11919 0.967417 3.5213e-19)
(6.88525 1.1696 -2.90331e-19)
(-4.68255 -0.301196 -2.53768e-19)
(-4.05472 -0.222264 6.3146e-20)
(-3.25281 -0.100374 -2.25948e-23)
(-2.46348 0.0054424 -1.85867e-19)
(-1.65392 0.113556 -1.84421e-19)
(-0.795788 0.224411 1.22409e-19)
(0.13098 0.339925 -6.08746e-20)
(1.14639 0.462263 -1.80869e-19)
(2.27561 0.594463 5.96253e-20)
(3.55201 0.740055 -1.18151e-19)
(5.02512 0.904167 5.8608e-20)
(6.77603 1.08498 -5.80478e-20)
(-4.76187 -0.285604 2.53562e-19)
(-4.13469 -0.212305 -6.2817e-20)
(-3.32906 -0.0954303 1.87183e-19)
(-2.53661 0.00522169 6.17618e-20)
(-1.72518 0.108293 1.84138e-19)
(-0.865967 0.21389 -6.10159e-20)
(0.060865 0.323876 0)
(1.075 0.440188 6.00778e-20)
(2.20081 0.565827 0)
(3.47057 0.704994 -1.17944e-19)
(4.93086 0.865053 1.17004e-19)
(6.65373 1.04818 2.31375e-19)
(-4.83639 -0.268366 -6.33075e-20)
(-4.21185 -0.201225 0)
(-3.40221 -0.0906995 6.22733e-20)
(-2.60719 0.00400403 -2.4667e-19)
(-1.79421 0.101395 1.22417e-19)
(-0.934345 0.201349 -2.43465e-19)
(-0.00705384 0.305664 2.42678e-19)
(1.00614 0.415675 -2.40141e-19)
(2.1287 0.533776 0)
(3.39299 0.663214 -1.1763e-19)
(4.84466 0.807993 1.16736e-19)
(6.55925 0.966609 -5.78789e-20)
(-4.90562 -0.25162 -1.89246e-19)
(-4.28377 -0.191066 2.5058e-19)
(-3.47149 -0.0868269 -6.20517e-20)
(-2.67425 0.00154459 -1.22979e-19)
(-1.86062 0.0929703 1.22135e-19)
(-1.00043 0.1871 -6.06562e-20)
(-0.0739697 0.285476 -6.04106e-20)
(0.937777 0.389579 -5.98099e-20)
(2.05687 0.501928 5.93377e-20)
(3.31383 0.626834 -5.86524e-20)
(4.75244 0.771885 1.16407e-19)
(6.44321 0.939674 -1.72846e-19)
(-4.96997 -0.233858 -6.28991e-20)
(-4.35066 -0.180245 0)
(-3.53618 -0.0832947 1.23858e-19)
(-2.73722 -0.00192047 -2.96104e-23)
(-1.92284 0.0826403 6.08603e-20)
(-1.06291 0.169576 -6.05034e-20)
(-0.136932 0.260275 6.03765e-20)
(0.873918 0.356138 4.76605e-23)
(1.9902 0.45856 1.18319e-19)
(3.24173 0.569308 1.75785e-19)
(4.6721 0.69038 0)
(6.35318 0.817752 1.72146e-19)
(-5.02723 -0.215623 6.27204e-20)
(-4.41175 -0.169119 0)
(-3.59486 -0.0796147 6.17232e-20)
(-2.79475 -0.00563354 -1.83817e-19)
(-1.97993 0.0718851 1.21361e-19)
(-1.11995 0.151749 0)
(-0.194347 0.235023 1.20228e-19)
(0.815892 0.323078 -5.96503e-20)
(1.93068 0.417554 -5.90492e-20)
(3.17878 0.52075 1.7499e-19)
(4.60219 0.636639 -1.15741e-19)
(6.26412 0.760041 0)
(-5.07924 -0.197422 -9.39636e-20)
(-4.46686 -0.158022 -6.22639e-20)
(-3.64919 -0.0754118 3.0765e-20)
(-2.8478 -0.00846293 3.04861e-20)
(-2.03279 0.0621941 -2.11774e-19)
(-1.17264 0.135214 9.03023e-20)
(-0.248 0.21172 0)
(0.760505 0.293349 2.96164e-20)
(1.87211 0.381835 -7.9509e-23)
(3.11317 0.480038 -2.03731e-19)
(4.5193 0.593289 1.44172e-19)
(6.1369 0.715582 -1.42936e-19)
(-5.12566 -0.177641 -9.36555e-20)
(-4.51648 -0.14497 6.19169e-20)
(-3.69822 -0.0697875 -2.14792e-19)
(-2.89629 -0.00989125 9.12578e-20)
(-2.08194 0.0542892 3.02022e-20)
(-1.22319 0.121012 3.00318e-20)
(-0.30022 0.191533 1.1939e-19)
(0.704903 0.267688 -8.87058e-20)
(1.81034 0.351622 0)
(3.03911 0.447099 2.90512e-20)
(4.4205 0.560657 -2.87967e-20)
(5.98897 0.689557 -8.52167e-20)
(-5.16504 -0.156923 -9.34177e-20)
(-4.56049 -0.130638 9.27305e-20)
(-3.74254 -0.0626838 0)
(-2.94087 -0.0096243 3.02585e-20)
(-2.12743 0.0481456 -3.01086e-20)
(-1.27088 0.10854 8.96381e-20)
(-0.351015 0.173005 2.96859e-20)
(0.64952 0.243168 8.83883e-20)
(1.74748 0.320776 -8.75689e-20)
(2.96359 0.408608 8.67009e-20)
(4.32408 0.510802 2.85831e-20)
(5.86067 0.623242 5.66618e-20)
(-5.19832 -0.135836 3.09937e-20)
(-4.59938 -0.115571 -3.08293e-20)
(-3.782 -0.0545469 6.10481e-20)
(-2.98179 -0.0079319 -3.02759e-20)
(-2.17044 0.0440392 -8.99199e-20)
(-1.31635 0.09882 -8.93508e-20)
(-0.400081 0.157757 2.9586e-20)
(0.59464 0.222467 -2.94321e-20)
(1.6839 0.294784 -2.91247e-20)
(2.88724 0.377484 -2.88391e-20)
(4.22816 0.474984 -2.85745e-20)
(5.73488 0.586772 0)
(-5.22736 -0.114429 -9.27083e-20)
(-4.63398 -0.0998589 6.14201e-20)
(-3.8181 -0.0452914 -3.036e-20)
(-3.01923 -0.00468132 -6.02059e-20)
(-2.21027 0.0417156 2.99092e-20)
(-1.35983 0.091046 -2.96923e-20)
(-0.448081 0.144642 2.95597e-20)
(0.540317 0.203792 -5.85266e-20)
(1.62148 0.27027 5.79318e-20)
(2.8134 0.345992 8.59949e-20)
(4.13843 0.433259 -1.42073e-19)
(5.62805 0.532338 1.12669e-19)
(-5.24977 -0.0919305 -3.07214e-20)
(-4.66352 -0.0824858 1.37592e-19)
(-3.85034 -0.0353053 -4.53712e-20)
(-3.05423 -0.000701979 1.49672e-20)
(-2.24886 0.040585 -2.96811e-20)
(-1.40224 0.0852187 2.94748e-20)
(-0.495763 0.1346 4.40993e-20)
(0.485823 0.189978 -1.4556e-20)
(1.55694 0.253041 1.43949e-20)
(2.73485 0.326307 1.42478e-20)
(4.03876 0.413341 -1.41652e-20)
(5.49212 0.513666 0)
(-5.267 -0.0713671 3.06805e-20)
(-4.68903 -0.0667636 -8.50625e-25)
(-3.87954 -0.0256115 -1.50693e-20)
(-3.08727 0.00309926 -2.98766e-20)
(-2.28602 0.0395268 0)
(-1.44457 0.0795293 0)
(-0.5442 0.124387 -2.92503e-20)
(0.429171 0.175209 2.91001e-20)
(1.49001 0.233521 -1.44061e-20)
(2.65367 0.301208 -2.84235e-20)
(3.93954 0.379938 -2.82206e-20)
(5.37411 0.465534 -2.79204e-20)
(-5.28169 -0.0503775 7.62773e-21)
(-4.71063 -0.050784 2.27788e-20)
(-3.90562 -0.0159242 0)
(-3.11783 0.00645396 -1.48406e-20)
(-2.32176 0.0376228 2.9481e-20)
(-1.48672 0.0723262 3.66031e-20)
(-0.593739 0.1124 -7.27105e-21)
(0.370988 0.158835 2.17088e-20)
(1.42056 0.212683 -2.14694e-20)
(2.57022 0.276238 3.5484e-20)
(3.83755 0.353064 1.40747e-20)
(5.24562 0.440934 -2.09045e-20)
(-5.28943 -0.0278777 1.14066e-20)
(-4.72664 -0.0334463 -7.56868e-21)
(-3.92717 -0.00619706 0)
(-3.14489 0.00890765 3.69503e-21)
(-2.3544 0.0339578 3.66154e-21)
(-1.52625 0.0623234 -3.66673e-21)
(-0.6411 0.0959324 -3.64576e-21)
(0.31534 0.135304 -1.08079e-20)
(1.35464 0.181011 -3.58442e-21)
(2.49218 0.233476 1.05833e-20)
(3.74776 0.292295 0)
(5.15356 0.354164 -3.49948e-21)
(-5.29126 -0.00566983 -1.13887e-20)
(-4.73616 -0.016842 2.01593e-24)
(-3.94354 0.00307951 3.72497e-21)
(-3.16718 0.0105975 -3.69683e-21)
(-2.38321 0.0295259 -3.66068e-21)
(-1.56154 0.0510166 -3.6336e-21)
(-0.68403 0.0776347 -3.61506e-21)
(0.2635 0.109738 3.59202e-21)
(1.29394 0.14779 -3.55488e-21)
(2.42098 0.19236 -1.05422e-20)
(3.66354 0.243897 6.95708e-21)
(5.04816 0.301719 -3.44657e-21)
(-5.28809 0.0189542 1.13125e-20)
(-4.7398 0.000312624 -7.48285e-21)
(-3.95624 0.0122584 0)
(-3.18456 0.0132063 -7.33591e-21)
(-2.4071 0.0255809 8.63258e-24)
(-1.59261 0.0399825 0)
(-0.722285 0.0594991 -3.58132e-21)
(0.216861 0.0842208 -3.57461e-21)
(1.23821 0.114865 7.05297e-21)
(2.35529 0.151741 -3.48738e-21)
(3.58607 0.195202 -1.03768e-20)
(4.95832 0.244848 6.86297e-21)
(-5.27858 0.0439114 -1.12705e-20)
(-4.73826 0.0180218 -3.70248e-21)
(-3.96255 0.0230123 0)
(-3.1973 0.0177189 -3.62921e-21)
(-2.42664 0.0234339 -3.5949e-21)
(-1.6196 0.0314809 -7.15984e-21)
(-0.757526 0.0449754 -3.54558e-21)
(0.172212 0.0641862 -1.0643e-20)
(1.18235 0.0904482 0)
(2.28497 0.125532 -3.45153e-21)
(3.49394 0.1725 1.03535e-20)
(4.82488 0.230692 -2.0394e-20)
(-5.26439 0.0678975 -2.242e-20)
(-4.73267 0.0359807 2.22475e-20)
(-3.964 0.0355827 1.46628e-20)
(-3.20566 0.0242394 2.18043e-20)
(-2.44288 0.0234992 -3.59467e-20)
(-1.64344 0.0259639 3.57565e-20)
(-0.790502 0.0336129 2.13123e-20)
(0.128334 0.0469079 2.11931e-20)
(1.12474 0.0675084 1.39428e-20)
(2.20997 0.0967062 -6.86614e-21)
(3.39588 0.136702 2.05525e-20)
(4.69565 0.182094 4.75106e-20)
(-5.24765 0.0915673 -4.46226e-20)
(-4.72418 0.054504 -4.43466e-20)
(-3.96284 0.0495377 8.12756e-25)
(-3.21123 0.0335767 -4.34501e-20)
(-2.45506 0.0275053 4.30529e-20)
(-1.66457 0.024876 -1.41916e-20)
(-0.82105 0.0273638 -1.4167e-20)
(0.0863388 0.0355624 -2.81108e-20)
(1.06857 0.0515036 -4.17018e-20)
(2.13605 0.0768341 5.50361e-20)
(3.29852 0.114793 -1.36723e-20)
(4.56642 0.167992 -1.35561e-20)
(-5.22994 0.115621 7.41115e-20)
(-4.71469 0.0747599 -1.46933e-19)
(-3.9603 0.0656319 1.01935e-19)
(-3.21489 0.0457548 -5.75902e-20)
(-2.4663 0.0355913 2.85985e-20)
(-1.68489 0.0290092 7.0752e-20)
(-0.851193 0.0275714 -2.81998e-20)
(0.0441879 0.0322893 1.4019e-20)
(1.011 0.0451938 -2.75913e-20)
(2.05727 0.0680293 -1.37244e-20)
(3.18948 0.103803 -2.71563e-20)
(4.40846 0.156391 2.69077e-20)
(-5.20918 0.139895 5.89564e-20)
(-4.70302 0.0960338 2.92971e-20)
(-3.95652 0.0828769 -5.81177e-20)
(-3.21851 0.0597931 0)
(-2.47746 0.0465809 8.52165e-20)
(-1.70472 0.0371284 -1.84531e-23)
(-0.881509 0.032971 -8.39814e-20)
(0.000653386 0.0351077 0)
(0.950837 0.0452259 8.26344e-20)
(1.97602 0.0650128 -2.7327e-20)
(3.08218 0.0964963 -2.7059e-20)
(4.27079 0.139942 -2.65939e-20)
(-5.18708 0.163532 -2.9287e-20)
(-4.69105 0.117183 -8.72633e-20)
(-3.95309 0.100739 1.64259e-24)
(-3.22249 0.0747865 -8.54974e-20)
(-2.48928 0.0590756 8.47833e-20)
(-1.72624 0.0473977 -5.60477e-20)
(-0.914592 0.0413105 -2.77602e-20)
(-0.0462493 0.0417107 2.77252e-20)
(0.887147 0.0499849 -8.20745e-20)
(1.89261 0.067965 -5.42177e-20)
(2.97511 0.0974893 -8.05172e-20)
(4.13699 0.137183 7.97918e-20)
(-5.16549 0.186242 -2.91098e-20)
(-4.679 0.137387 2.90865e-20)
(-3.9501 0.118251 1.14825e-19)
(-3.22744 0.0892961 2.84599e-20)
(-2.50306 0.0708627 8.44181e-20)
(-1.75033 0.0566358 -5.57746e-20)
(-0.950479 0.0482348 2.77431e-20)
(-0.0958023 0.0462552 -2.74649e-20)
(0.821743 0.0515526 1.36423e-19)
(1.80858 0.0651307 -2.69301e-20)
(2.87241 0.0875693 5.34686e-20)
(4.02121 0.115069 2.65763e-20)
(-5.14346 0.209842 1.16254e-19)
(-4.66644 0.158064 -1.154e-19)
(-3.94678 0.135122 -2.8635e-20)
(-3.23251 0.10284 2.81778e-20)
(-2.51716 0.0810471 0)
(-1.77473 0.0636485 0)
(-0.986735 0.0518753 0)
(-0.145966 0.0459072 -1.09559e-19)
(0.755503 0.0464238 1.08505e-19)
(1.72432 0.0543534 1.0737e-19)
(2.76745 0.0705592 -1.06548e-19)
(3.89275 0.0920896 1.05335e-19)
(-5.11929 0.233122 0)
(-4.652 0.178338 5.75194e-20)
(-3.94213 0.151347 -1.13834e-19)
(-3.2363 0.115398 -2.81849e-20)
(-2.52944 0.0895828 1.11224e-19)
(-1.79706 0.0677133 -1.10425e-19)
(-1.02034 0.0507289 -5.46422e-20)
(-0.19084 0.0381509 -1.09039e-19)
(0.698324 0.0297224 1.07968e-19)
(1.65561 0.024675 -1.60138e-19)
(2.69065 0.0199554 7.93264e-20)
(3.82081 0.0132991 -5.24037e-20)
(-5.09296 0.255601 -5.74741e-20)
(-4.63597 0.198006 5.72347e-20)
(-3.93604 0.167117 0)
(-3.23862 0.127437 -1.11972e-19)
(-2.54067 0.0979538 1.10771e-19)
(-1.81809 0.0724927 -5.48133e-20)
(-1.05212 0.0517684 -5.43757e-20)
(-0.232857 0.0356182 5.43636e-20)
(0.645367 0.0241484 0)
(1.59052 0.0185325 -1.06023e-19)
(2.61109 0.0211133 1.05393e-19)
(3.71589 0.0374771 1.55911e-19)
(-5.06587 0.277445 1.14718e-19)
(-4.61886 0.216995 -5.7013e-20)
(-3.92835 0.182606 5.64272e-20)
(-3.23945 0.139145 5.55586e-20)
(-2.55033 0.105813 5.50022e-20)
(-1.83777 0.0767177 2.18573e-19)
(-1.08311 0.0523841 -1.08521e-19)
(-0.275301 0.0326212 1.61825e-19)
(0.590127 0.017491 -5.35997e-20)
(1.51953 0.00760113 1.58791e-19)
(2.51972 0.00295915 -1.57357e-19)
(3.59647 -0.00013989 1.55231e-19)
(-5.03522 0.299954 -5.71897e-20)
(-4.5989 0.23669 -5.67076e-20)
(-3.91904 0.197762 5.61735e-20)
(-3.23911 0.150746 -2.73646e-22)
(-2.55908 0.113809 -5.49695e-20)
(-1.85646 0.0811886 5.41943e-20)
(-1.1131 0.0533568 -1.07906e-19)
(-0.317387 0.030248 5.35454e-20)
(0.534642 0.0118726 -5.33274e-20)
(1.44926 -0.0011947 1.05262e-19)
(2.43245 -0.00822058 -1.56601e-19)
(3.48947 -0.0116915 -5.15999e-20)
(-5.00296 0.320073 -5.66024e-20)
(-4.57817 0.254279 0)
(-3.9086 0.212222 5.58772e-20)
(-3.23794 0.161702 -1.65838e-19)
(-2.56709 0.12127 -1.63591e-19)
(-1.87477 0.0851977 2.66318e-23)
(-1.14306 0.0537647 -5.35125e-20)
(-0.360114 0.0271913 5.33039e-20)
(0.479299 0.00551905 -5.27768e-20)
(1.38049 -0.011327 5.24525e-20)
(2.34976 -0.0230942 -1.03802e-19)
(3.39724 -0.0314239 -5.13718e-20)
(-4.97079 0.340446 1.13314e-19)
(-4.55606 0.272012 1.12133e-19)
(-3.89659 0.226695 -5.53732e-20)
(-3.23483 0.172678 5.47589e-20)
(-2.57291 0.128583 5.4446e-20)
(-1.8914 0.0890059 0)
(-1.17186 0.0540924 1.60316e-19)
(-0.40231 0.0242444 -5.32274e-20)
(0.423497 -0.000325232 2.63698e-22)
(1.30788 -0.0196179 1.56391e-19)
(2.25569 -0.0328134 -2.06513e-19)
(3.27018 -0.0405601 1.02084e-19)
(-4.93549 0.361567 3.37221e-19)
(-4.53167 0.29078 -5.56738e-20)
(-3.88267 0.241466 -1.65575e-19)
(-3.22961 0.183881 -1.09187e-19)
(-2.57701 0.136022 -5.39007e-20)
(-1.90588 0.0925557 -5.3397e-20)
(-1.19826 0.0534845 0)
(-0.442242 0.0189605 -1.05604e-19)
(0.370116 -0.011012 2.65509e-22)
(1.23963 -0.0366146 5.19567e-20)
(2.17292 -0.0584195 -1.53993e-19)
(3.17934 -0.077716 -1.01822e-19)
(-4.89782 0.381135 -5.60896e-20)
(-4.50562 0.308605 1.10967e-19)
(-3.86687 0.256356 -1.09617e-19)
(-3.22287 0.195579 3.26204e-19)
(-2.57937 0.144412 -1.06335e-23)
(-1.91836 0.0974877 5.34014e-20)
(-1.222 0.0546929 -2.1138e-19)
(-0.479375 0.0162954 2.62893e-19)
(0.318276 -0.017324 1.04235e-19)
(1.17297 -0.0457194 1.03138e-19)
(2.08756 -0.0682659 5.12239e-20)
(3.06523 -0.0838746 5.05732e-20)
(-4.85933 0.401008 2.22748e-19)
(-4.47872 0.327143 -2.21134e-19)
(-3.84992 0.271919 3.28252e-19)
(-3.21471 0.208373 -5.42299e-20)
(-2.58008 0.154158 2.13725e-19)
(-1.92883 0.104001 -1.59208e-19)
(-1.24373 0.0576697 0)
(-0.513795 0.0151421 0)
(0.269448 -0.0231678 -5.2003e-20)
(1.1091 -0.0569508 -5.14696e-20)
(2.00768 -0.0865936 5.07086e-20)
(2.97234 -0.111434 2.51194e-19)
(-4.81977 0.420228 -3.32786e-19)
(-4.45106 0.345598 1.64826e-19)
(-3.83269 0.288335 5.40518e-20)
(-3.20637 0.222625 1.0744e-19)
(-2.57998 0.16619 -5.33816e-20)
(-1.9383 0.113632 -5.28991e-20)
(-1.2644 0.0649009 0)
(-0.546834 0.0198557 0)
(0.221995 -0.0209123 3.09436e-19)
(1.04474 -0.0560494 -1.0246e-19)
(1.92268 -0.0843376 5.01881e-20)
(2.85619 -0.104425 -5.00038e-20)
(-4.78084 0.438716 -6.61925e-19)
(-4.42446 0.363985 1.097e-19)
(-3.816 0.30568 -1.08618e-19)
(-3.19789 0.238275 -1.07492e-19)
(-2.58003 0.180269 1.06195e-19)
(-1.94745 0.125956 -3.14618e-19)
(-1.28394 0.0751474 3.12229e-19)
(-0.578675 0.0275844 -8.57737e-23)
(0.176142 -0.0164146 -4.11047e-19)
(0.982729 -0.0556193 -2.03415e-19)
(1.84281 -0.0899597 -1.00905e-19)
(2.76097 -0.119915 -9.94963e-20)
(-4.7433 0.458065 4.39583e-19)
(-4.39823 0.383608 2.17896e-19)
(-3.80002 0.324165 0)
(-3.1906 0.255618 1.06485e-19)
(-2.58074 0.196629 1.05799e-19)
(-1.95725 0.141454 2.0902e-19)
(-1.30413 0.0897228 -4.93034e-22)
(-0.610383 0.0411595 0)
(0.131258 -0.00377847 2.04482e-19)
(0.920908 -0.0433553 1.01429e-19)
(1.7614 -0.0766725 9.99196e-20)
(2.65355 -0.102708 3.95032e-19)
(-4.70509 0.477329 -2.18704e-19)
(-4.37308 0.403641 -4.97996e-22)
(-3.78595 0.343182 1.07156e-19)
(-3.18501 0.273832 -2.12339e-19)
(-2.58374 0.214175 -1.04847e-19)
(-1.96959 0.158593 -2.08183e-19)
(-1.3265 0.106606 1.02885e-19)
(-0.644076 0.0577027 -3.06956e-19)
(0.0832114 0.0126121 -4.63145e-22)
(0.856154 -0.0270887 1.00494e-19)
(1.67843 -0.0607935 -1.99501e-19)
(2.55212 -0.0890837 -1.84431e-22)
(-4.66736 0.495904 1.09197e-19)
(-4.34915 0.423218 1.07917e-19)
(-3.773 0.361887 -4.77676e-22)
(-3.18159 0.291932 1.05998e-19)
(-2.58917 0.231867 4.18554e-19)
(-1.98448 0.176087 -1.03334e-19)
(-1.35185 0.124015 0)
(-0.681065 0.0752016 1.02179e-19)
(0.0312714 0.0307217 -1.01628e-19)
(0.787214 -0.00815576 -4.39492e-22)
(1.58952 -0.0407503 9.95161e-20)
(2.43518 -0.0726198 -9.80479e-20)
(-4.63181 0.513848 -1.02916e-22)
(-4.3264 0.441779 -2.15094e-19)
(-3.76161 0.37996 -4.66537e-23)
(-3.17959 0.309186 -2.10757e-19)
(-2.59646 0.248359 -1.04477e-19)
(-2.00158 0.191864 0)
(-1.37978 0.139102 3.06528e-19)
(-0.720906 0.0895125 -2.02944e-19)
(-0.0222 0.0437894 1.01105e-19)
(0.72001 0.00240249 -2.9987e-19)
(1.51009 -0.0348819 0)
(2.35482 -0.0722292 0)
(-4.5974 0.5324 2.15892e-19)
(-4.3045 0.460791 -1.07347e-19)
(-3.75096 0.397709 1.06322e-19)
(-3.17885 0.32575 0)
(-2.60498 0.263692 0)
(-2.02008 0.206051 2.05275e-19)
(-1.40911 0.152104 -4.07838e-19)
(-0.76196 0.101275 2.02199e-19)
(-0.0764295 0.0541055 4.25263e-22)
(0.651493 0.0105908 -2.98214e-19)
(1.42465 -0.0292367 2.95533e-19)
(2.24488 -0.0665705 -2.93321e-19)
(-4.56207 0.550366 0)
(-4.28259 0.47929 -4.26447e-19)
(-3.74095 0.41482 2.11402e-19)
(-3.17862 0.341372 -1.04263e-19)
(-2.61429 0.277812 0)
(-2.03931 0.218647 2.04493e-19)
(-1.43922 0.163147 -4.05713e-19)
(-0.804067 0.110733 -1.00386e-19)
(-0.13145 0.0616322 1.00159e-19)
(0.582859 0.0156557 3.96058e-19)
(1.34194 -0.0273951 -9.79069e-20)
(2.14796 -0.0685315 -9.68212e-20)
(-4.52603 0.567388 -3.21197e-19)
(-4.26061 0.497039 3.18875e-19)
(-3.73052 0.431277 0)
(-3.17808 0.356254 4.33037e-22)
(-2.623 0.290993 0)
(-2.0579 0.230018 3.05379e-19)
(-1.46845 0.172526 -3.02857e-19)
(-0.844744 0.117856 4.0081e-19)
(-0.184298 0.0660569 -9.9381e-20)
(0.517783 0.0167036 9.83891e-20)
(1.26501 -0.0308578 -9.78515e-20)
(2.06367 -0.0766322 1.93583e-19)
(-4.49085 0.583778 -1.06846e-19)
(-4.23899 0.514051 2.11567e-19)
(-3.72006 0.447462 -1.04647e-19)
(-3.17724 0.371067 -1.03491e-19)
(-2.63151 0.304171 0)
(-2.07603 0.241457 -2.02897e-19)
(-1.49715 0.182158 0)
(-0.884679 0.125611 -9.99408e-20)
(-0.236178 0.0720138 -9.88934e-20)
(0.45201 0.0213898 8.175e-23)
(1.183 -0.0262077 9.70843e-20)
(1.95765 -0.0702249 -9.5971e-20)
(-4.45583 0.600639 0)
(-4.21707 0.531576 2.10645e-19)
(-3.70949 0.463759 -3.12931e-19)
(-3.17638 0.386098 2.06652e-19)
(-2.63957 0.31763 0)
(-2.09346 0.253282 1.0134e-19)
(-1.52491 0.192203 0)
(-0.923697 0.133596 0)