/*--------------------------------*- C++ -*----------------------------------*\
| =========                 |                                                 |
| \\      /  F ield         | OpenFOAM: The Open Source CFD Toolbox           |
|  \\    /   O peration     | Version:  2.3.1                                 |
|   \\  /    A nd           | Web:      www.OpenFOAM.org                      |
|    \\/     M anipulation  |                                                 |
\*---------------------------------------------------------------------------*/
FoamFile
{
    version     2.0;
    format      ascii;
    class       volScalarField;
    location    "0.73";
    object      epsilon;
}
// * * * * * * * * * * * * * * * * * * * * * * * * * * * * * * * * * * * * * //

dimensions      [0 2 -3 0 0 0 0];

internalField   nonuniform List<scalar> 
1000
(
0.000920486
0.00095322
0.000954041
0.000954008
0.00095399
0.000953984
0.000953976
0.000953972
0.000953882
0.00095119
0.000954315
0.000961393
0.000961903
0.000961913
0.00096191
0.000961905
0.000961892
0.000961866
0.000961334
0.000952502
0.000956774
0.000963788
0.000964396
0.000964427
0.000964431
0.000964421
0.000964399
0.000964357
0.000963736
0.000954032
0.000958679
0.000966355
0.000967059
0.000967129
0.000967148
0.000967141
0.000967106
0.000967041
0.000966349
0.000956065
0.000960852
0.00096965
0.000970477
0.000970597
0.000970634
0.000970624
0.000970598
0.000970488
0.000969725
0.000958347
0.000953502
0.000959743
0.000960337
0.000960423
0.000960451
0.000960464
0.000960466
0.000960456
0.000960008
0.000952477
0.000960573
0.000630581
0.000613492
0.00061277
0.000612717
0.000612692
0.000612674
0.000613138
0.000629391
0.000959144
0.000962467
0.000610771
0.00059217
0.000591447
0.000591428
0.000591424
0.000591428
0.000591978
0.000609839
0.000961011
0.000964291
0.000610082
0.000591358
0.000590638
0.000590623
0.000590622
0.000590628
0.000591191
0.000609268
0.000962852
0.000966475
0.000611649
0.000592805
0.000592147
0.000592163
0.000592165
0.000592146
0.000592656
0.000610908
0.000965073
0.000955765
0.000961302
0.000961883
0.000961964
0.000961999
0.000962016
0.000962023
0.000962011
0.000961518
0.00095356
0.000961851
0.000613196
0.000594782
0.000594035
0.000593998
0.000593981
0.000593971
0.000594498
0.000612138
0.00096054
0.000963516
0.00059257
0.000572349
0.000571542
0.000571522
0.00057152
0.000571528
0.000572146
0.000591556
0.000962236
0.000965125
0.000591946
0.000571575
0.000570768
0.000570751
0.000570751
0.000570758
0.000571384
0.000590987
0.00096383
0.00096714
0.000592852
0.000572357
0.000571574
0.000571573
0.000571572
0.000571568
0.000572172
0.000591933
0.000965852
0.00095667
0.000962148
0.0009627
0.000962766
0.000962797
0.000962813
0.00096282
0.000962806
0.00096231
0.000954322
0.000962571
0.000611391
0.000592975
0.000592252
0.000592224
0.000592214
0.000592212
0.000592751
0.000610524
0.000961242
0.000964041
0.000591623
0.000571384
0.000570578
0.000570558
0.000570557
0.000570567
0.000571189
0.000590671
0.000962773
0.000965458
0.000591074
0.000570701
0.000569893
0.000569876
0.000569876
0.000569884
0.000570509
0.000590139
0.000964169
0.000967269
0.000591572
0.000571111
0.000570311
0.000570299
0.000570298
0.000570301
0.000570921
0.000590653
0.000965968
0.000957157
0.000962609
0.000963139
0.000963193
0.000963217
0.00096323
0.000963236
0.00096322
0.000962722
0.000954715
0.000962988
0.0006102
0.00059178
0.000591065
0.00059104
0.000591035
0.000591039
0.000591588
0.00060943
0.000961613
0.000964341
0.000591387
0.000571193
0.000570392
0.000570372
0.000570371
0.000570382
0.000571004
0.000590479
0.000963051
0.000965649
0.000590908
0.000570609
0.000569807
0.00056979
0.00056979
0.000569798
0.000570419
0.00059
0.000964344
0.000967329
0.000591234
0.000570897
0.0005701
0.000570084
0.000570084
0.000570089
0.000570706
0.000590332
0.000966007
0.000957235
0.000962836
0.000963369
0.000963418
0.00096344
0.000963451
0.000963455
0.000963434
0.000962924
0.000954745
0.000963089
0.00060949
0.000591071
0.000590366
0.000590349
0.00059035
0.000590361
0.000590916
0.000608802
0.000961684
0.000964451
0.000591304
0.000571146
0.00057035
0.000570331
0.000570332
0.000570343
0.000570964
0.000590433
0.000963142
0.000965785
0.000590889
0.000570646
0.000569851
0.000569835
0.000569835
0.000569843
0.00057046
0.000590011
0.000964464
0.000967483
0.000591183
0.000570939
0.00057015
0.000570136
0.000570136
0.00057014
0.00057075
0.000590304
0.000966145
0.000956937
0.000962903
0.000963458
0.000963506
0.000963526
0.000963533
0.000963533
0.000963506
0.000962972
0.000954417
0.000962894
0.00060947
0.000591066
0.000590363
0.000590346
0.000590347
0.000590358
0.000590913
0.000608797
0.000961461
0.000964401
0.000591423
0.000571293
0.000570501
0.000570483
0.000570484
0.000570494
0.000571111
0.000590565
0.000963064
0.000965919
0.000591085
0.000570872
0.000570083
0.000570069
0.000570069
0.000570075
0.000570685
0.000590211
0.00096457
0.000967819
0.000591516
0.000571319
0.000570543
0.000570533
0.000570534
0.000570532
0.000571127
0.000590636
0.00096645
0.00095625
0.000962552
0.000963128
0.000963179
0.000963196
0.000963202
0.000963198
0.000963164
0.000962608
0.000953711
0.00096236
0.000610337
0.000592033
0.000591338
0.000591323
0.000591324
0.000591334
0.000591883
0.000609684
0.000960901
0.000964104
0.000592621
0.000572627
0.000571849
0.000571836
0.000571837
0.000571843
0.000572449
0.000591783
0.000962739
0.000965916
0.000592598
0.000572557
0.000571792
0.000571785
0.000571787
0.000571785
0.000572374
0.000591747
0.000964533
0.000968197
0.000593775
0.000573844
0.000573124
0.000573133
0.000573135
0.000573113
0.000573656
0.000592922
0.000966791
0.000955126
0.00096123
0.000961769
0.000961816
0.000961833
0.000961836
0.000961829
0.000961795
0.000961269
0.000952562
0.000961076
0.000630507
0.00061383
0.000613233
0.000613233
0.000613238
0.00061324
0.000613718
0.00063004
0.000959522
0.000963065
0.000615575
0.000597535
0.000596896
0.000596908
0.000596914
0.000596903
0.000597403
0.000614963
0.000961591
0.000965212
0.000617902
0.000600035
0.00059946
0.000599496
0.000599504
0.000599465
0.000599901
0.000617287
0.000963705
0.00096803
0.000624022
0.000606763
0.000606363
0.00060646
0.000606466
0.000606366
0.000606631
0.000623436
0.00096649
0.000951308
0.00095152
0.000951547
0.000951558
0.000951562
0.000951566
0.000951562
0.000951553
0.000951458
0.000948595
0.000952853
0.000958834
0.000959396
0.000959447
0.000959462
0.000959465
0.000959453
0.000959415
0.000958879
0.000950213
0.000954741
0.000961249
0.000961914
0.000961996
0.000962023
0.000962029
0.000962003
0.000961933
0.0009613
0.000952101
0.00095725
0.000963854
0.000964594
0.000964717
0.000964762
0.000964767
0.000964719
0.000964601
0.000963878
0.000954599
0.000961124
0.000967985
0.000968857
0.00096904
0.000969102
0.000969101
0.000969033
0.000968834
0.000967982
0.000958503
0.00096994
0.000978313
0.000979514
0.000979743
0.000979793
0.000979792
0.000979725
0.00097948
0.000978306
0.000967437
0.000990455
0.00104861
0.00105446
0.00105268
0.00105176
0.00105171
0.00105252
0.00105424
0.00105016
0.000989035
0.00122114
0.00202092
0.00209065
0.00204904
0.0020336
0.00203285
0.00204624
0.00208718
0.00204247
0.00123272
0.00324732
0.0107758
0.0116428
0.0114074
0.0113057
0.0112985
0.011383
0.0116146
0.0109488
0.00335758
0.0140726
0.0572206
0.0638271
0.0639703
0.0638429
0.0638092
0.0638652
0.0637206
0.0580128
0.0145343
0.000971875
0.00063708
0.000621169
0.000621056
0.000621216
0.00062122
0.000621059
0.000621051
0.000636614
0.000970352
0.000976915
0.000674804
0.000662722
0.000663307
0.000663489
0.000663486
0.000663305
0.000662658
0.000674908
0.000975547
0.00100581
0.000902485
0.000907284
0.000904767
0.000903768
0.000903699
0.000904502
0.000907131
0.000906421
0.00100576
0.00150822
0.00518348
0.00534706
0.00492436
0.00478499
0.00478119
0.00491062
0.005335
0.00528816
0.00153422
0.0230189
0.155451
0.170305
0.170261
0.16984
0.169778
0.170073
0.170217
0.157509
0.0239295
0.000970238
0.000595954
0.000576299
0.000575683
0.000575729
0.00057573
0.000575672
0.000576111
0.000595128
0.000968878
0.000973227
0.000599821
0.00058069
0.000580157
0.000580192
0.000580192
0.000580146
0.000580514
0.000599102
0.00097195
0.000979726
0.000659015
0.000646812
0.000647901
0.000648323
0.000648326
0.000647912
0.000646815
0.000659495
0.000978788
0.00128096
0.00381827
0.00404622
0.00403206
0.00402394
0.00402318
0.00403022
0.00404887
0.00387639
0.00129549
0.0244835
0.159463
0.170599
0.170431
0.170131
0.170102
0.170353
0.170712
0.161604
0.025447
0.000968891
0.000591858
0.000571693
0.000570958
0.000570967
0.000570967
0.000570944
0.000571497
0.000590976
0.000967548
0.000971353
0.00059166
0.000571482
0.000570701
0.00057068
0.000570679
0.000570684
0.000571283
0.000590801
0.000970062
0.000975096
0.000631191
0.000614467
0.000614083
0.000614251
0.000614263
0.000614109
0.000614422
0.000631227
0.000974077
0.00125389
0.00383855
0.00406693
0.00407748
0.00407693
0.0040767
0.00407731
0.00407283
0.00389787
0.00126739
0.0262628
0.173478
0.184898
0.185232
0.185122
0.185112
0.185216
0.185154
0.175923
0.0273421
0.000968135
0.000591223
0.000570971
0.00057021
0.00057021
0.000570209
0.000570197
0.000570778
0.000590339
0.000966805
0.000970407
0.000590705
0.000570379
0.000569565
0.000569539
0.000569537
0.00056955
0.000570183
0.000589829
0.000969109
0.000973312
0.000623723
0.000606569
0.000606203
0.000606367
0.000606379
0.000606235
0.000606527
0.000623663
0.000972234
0.00125314
0.00399304
0.00423154
0.00425298
0.00425766
0.00425771
0.0042541
0.00424047
0.00405809
0.00126703
0.02716
0.179675
0.191347
0.191952
0.191952
0.191951
0.191973
0.191679
0.18227
0.0283011
0.000967987
0.000591496
0.000571107
0.000570343
0.000570347
0.000570346
0.000570331
0.000570916
0.000590599
0.000966668
0.000970439
0.000591098
0.000570383
0.00056955
0.000569524
0.000569523
0.000569538
0.00057019
0.000590206
0.000969148
0.00097372
0.000627312
0.000611078
0.000611126
0.000611382
0.000611389
0.000611153
0.00061105
0.000627318
0.000972627
0.00141561
0.00535724
0.00578202
0.005906
0.00595011
0.00595095
0.0059114
0.00580073
0.00545034
0.00143814
0.0274455
0.179129
0.190613
0.19123
0.191247
0.191249
0.191267
0.190978
0.181747
0.0286206
0.00096833
0.000592514
0.000571942
0.000571196
0.000571215
0.000571215
0.00057119
0.000571758
0.000591615
0.000967047
0.000971201
0.00059244
0.000571086
0.000570245
0.000570224
0.000570226
0.000570237
0.000570902
0.000591544
0.000969901
0.000976929
0.00064544
0.000631291
0.000632732
0.000633513
0.000633532
0.000632823
0.000631395
0.000645757
0.000975939
0.00168695
0.00629433
0.00686131
0.0071505
0.00726135
0.00726414
0.00716329
0.00689197
0.00639229
0.00172218
0.0275907
0.173509
0.184235
0.184805
0.184833
0.184836
0.184861
0.184626
0.17604
0.028796
0.000969156
0.000594534
0.000573807
0.000573086
0.000573119
0.000573122
0.000573084
0.000573636
0.00059365
0.000967885
0.000972067
0.000597099
0.000575232
0.000574529
0.000574559
0.000574561
0.000574533
0.000575061
0.000596235
0.000970745
0.000984375
0.000667915
0.000654462
0.000657415
0.000658851
0.000658893
0.000657566
0.000654659
0.000668194
0.000983501
0.00187406
0.00429046
0.00465836
0.00483312
0.00490656
0.0049084
0.00484152
0.00467604
0.00434686
0.00190746
0.0267836
0.153442
0.162233
0.163046
0.163235
0.163244
0.163132
0.162623
0.155523
0.0279195
0.000970127
0.000613004
0.000593663
0.000593002
0.000593028
0.000593031
0.000593005
0.000593519
0.00061229
0.000968779
0.000971938
0.000627495
0.000607621
0.000607509
0.000607728
0.000607738
0.000607532
0.000607525
0.000626919
0.000970505
0.000994022
0.000721495
0.000707661
0.000709775
0.000710866
0.000710892
0.000709873
0.000707782
0.000721792
0.000993125
0.00138192
0.0028996
0.00308675
0.00312974
0.00314561
0.00314576
0.00313157
0.00309344
0.00293505
0.00139609
0.0212364
0.0992742
0.104236
0.105022
0.105295
0.105306
0.105094
0.104483
0.100366
0.0219522
0.000964465
0.000976223
0.000977602
0.000977891
0.000978002
0.000978015
0.000977894
0.000977667
0.000976408
0.0009619
0.000962411
0.000979862
0.000981734
0.000981985
0.000982061
0.00098206
0.000982004
0.000981812
0.000980042
0.000959807
0.000999214
0.00102759
0.00103133
0.00103232
0.00103263
0.00103262
0.00103238
0.00103137
0.00102804
0.000997012
0.0011247
0.00135667
0.00139359
0.00140016
0.00140214
0.00140219
0.00140039
0.00139468
0.00136203
0.00112689
0.00771682
0.0160389
0.0166194
0.0167721
0.0168232
0.0168249
0.016782
0.016648
0.0161501
0.00783997
)
;

boundaryField
{
    walls
    {
        type            epsilonWallFunction;
        value           nonuniform List<scalar> 
500
(
0.000920486
0.000920486
0.000920486
0.00095322
0.00095322
0.000954041
0.000954041
0.000954008
0.000954008
0.00095399
0.00095399
0.000953984
0.000953984
0.000953976
0.000953976
0.000953972
0.000953972
0.000953882
0.000953882
0.00095119
0.00095119
0.00095119
0.000954315
0.000954315
0.000961393
0.000961903
0.000961913
0.00096191
0.000961905
0.000961892
0.000961866
0.000961334
0.000952502
0.000952502
0.000956774
0.000956774
0.000963788
0.000964396
0.000964427
0.000964431
0.000964421
0.000964399
0.000964357
0.000963736
0.000954032
0.000954032
0.000958679
0.000958679
0.000966355
0.000967059
0.000967129
0.000967148
0.000967141
0.000967106
0.000967041
0.000966349
0.000956065
0.000956065
0.000960852
0.000960852
0.00096965
0.000970477
0.000970597
0.000970634
0.000970624
0.000970598
0.000970488
0.000969725
0.000958347
0.000958347
0.000953502
0.000953502
0.000959743
0.000960337
0.000960423
0.000960451
0.000960464
0.000960466
0.000960456
0.000960008
0.000952477
0.000952477
0.000960573
0.000959144
0.000962467
0.000961011
0.000964291
0.000962852
0.000966475
0.000965073
0.000955765
0.000955765
0.000961302
0.000961883
0.000961964
0.000961999
0.000962016
0.000962023
0.000962011
0.000961518
0.00095356
0.00095356
0.000961851
0.00096054
0.000963516
0.000962236
0.000965125
0.00096383
0.00096714
0.000965852
0.00095667
0.00095667
0.000962148
0.0009627
0.000962766
0.000962797
0.000962813
0.00096282
0.000962806
0.00096231
0.000954322
0.000954322
0.000962571
0.000961242
0.000964041
0.000962773
0.000965458
0.000964169
0.000967269
0.000965968
0.000957157
0.000957157
0.000962609
0.000963139
0.000963193
0.000963217
0.00096323
0.000963236
0.00096322
0.000962722
0.000954715
0.000954715
0.000962988
0.000961613
0.000964341
0.000963051
0.000965649
0.000964344
0.000967329
0.000966007
0.000957235
0.000957235
0.000962836
0.000963369
0.000963418
0.00096344
0.000963451
0.000963455
0.000963434
0.000962924
0.000954745
0.000954745
0.000963089
0.000961684
0.000964451
0.000963142
0.000965785
0.000964464
0.000967483
0.000966145
0.000956937
0.000956937
0.000962903
0.000963458
0.000963506
0.000963526
0.000963533
0.000963533
0.000963506
0.000962972
0.000954417
0.000954417
0.000962894
0.000961461
0.000964401
0.000963064
0.000965919
0.00096457
0.000967819
0.00096645
0.00095625
0.00095625
0.000962552
0.000963128
0.000963179
0.000963196
0.000963202
0.000963198
0.000963164
0.000962608
0.000953711
0.000953711
0.00096236
0.000960901
0.000964104
0.000962739
0.000965916
0.000964533
0.000968197
0.000966791
0.000955126
0.000955126
0.00096123
0.000961769
0.000961816
0.000961833
0.000961836
0.000961829
0.000961795
0.000961269
0.000952562
0.000952562
0.000961076
0.000959522
0.000963065
0.000961591
0.000965212
0.000963705
0.00096803
0.00096649
0.000951308
0.000951308
0.000951308
0.00095152
0.00095152
0.000951547
0.000951547
0.000951558
0.000951558
0.000951562
0.000951562
0.000951566
0.000951566
0.000951562
0.000951562
0.000951553
0.000951553
0.000951458
0.000951458
0.000948595
0.000948595
0.000948595
0.000952853
0.000952853
0.000958834
0.000959396
0.000959447
0.000959462
0.000959465
0.000959453
0.000959415
0.000958879
0.000950213
0.000950213
0.000954741
0.000954741
0.000961249
0.000961914
0.000961996
0.000962023
0.000962029
0.000962003
0.000961933
0.0009613
0.000952101
0.000952101
0.00095725
0.00095725
0.000963854
0.000964594
0.000964717
0.000964762
0.000964767
0.000964719
0.000964601
0.000963878
0.000954599
0.000954599
0.000961124
0.000961124
0.000967985
0.000968857
0.00096904
0.000969102
0.000969101
0.000969033
0.000968834
0.000967982
0.000958503
0.000958503
0.00096994
0.00096994
0.000978313
0.000979514
0.000979743
0.000979793
0.000979792
0.000979725
0.00097948
0.000978306
0.000967437
0.000967437
0.000990455
0.000990455
0.00104861
0.00105446
0.00105268
0.00105176
0.00105171
0.00105252
0.00105424
0.00105016
0.000989035
0.000989035
0.00122114
0.00122114
0.00202092
0.00209065
0.00204904
0.0020336
0.00203285
0.00204624
0.00208718
0.00204247
0.00123272
0.00123272
0.00324732
0.00324732
0.0107758
0.0116428
0.0114074
0.0113057
0.0112985
0.011383
0.0116146
0.0109488
0.00335758
0.00335758
0.0140726
0.0140726
0.0572206
0.0638271
0.0639703
0.0638429
0.0638092
0.0638652
0.0637206
0.0580128
0.0145343
0.0145343
0.000971875
0.000970352
0.000976915
0.000975547
0.00100581
0.00100576
0.00150822
0.00153422
0.0230189
0.0239295
0.000970238
0.000968878
0.000973227
0.00097195
0.000979726
0.000978788
0.00128096
0.00129549
0.0244835
0.025447
0.000968891
0.000967548
0.000971353
0.000970062
0.000975096
0.000974077
0.00125389
0.00126739
0.0262628
0.0273421
0.000968135
0.000966805
0.000970407
0.000969109
0.000973312
0.000972234
0.00125314
0.00126703
0.02716
0.0283011
0.000967987
0.000966668
0.000970439
0.000969148
0.00097372
0.000972627
0.00141561
0.00143814
0.0274455
0.0286206
0.00096833
0.000967047
0.000971201
0.000969901
0.000976929
0.000975939
0.00168695
0.00172218
0.0275907
0.028796
0.000969156
0.000967885
0.000972067
0.000970745
0.000984375
0.000983501
0.00187406
0.00190746
0.0267836
0.0279195
0.000970127
0.000968779
0.000971938
0.000970505
0.000994022
0.000993125
0.00138192
0.00139609
0.0212364
0.0219522
0.000964465
0.000964465
0.000976223
0.000977602
0.000977891
0.000978002
0.000978015
0.000977894
0.000977667
0.000976408
0.0009619
0.0009619
0.000962411
0.000962411
0.000979862
0.000981734
0.000981985
0.000982061
0.00098206
0.000982004
0.000981812
0.000980042
0.000959807
0.000959807
0.000999214
0.000999214
0.00102759
0.00103133
0.00103232
0.00103263
0.00103262
0.00103238
0.00103137
0.00102804
0.000997012
0.000997012
0.0011247
0.0011247
0.00135667
0.00139359
0.00140016
0.00140214
0.00140219
0.00140039
0.00139468
0.00136203
0.00112689
0.00112689
0.00771682
0.00771682
0.0160389
0.0166194
0.0167721
0.0168232
0.0168249
0.016782
0.016648
0.0161501
0.00783997
0.00783997
)
;
        Cmu             0.09;
        kappa           0.41;
        E               9.8;
    }
    lid
    {
        type            epsilonWallFunction;
        value           nonuniform List<scalar> 
100
(
0.0140726
0.0572206
0.0638271
0.0639703
0.0638429
0.0638092
0.0638652
0.0637206
0.0580128
0.0145343
0.0230189
0.155451
0.170305
0.170261
0.16984
0.169778
0.170073
0.170217
0.157509
0.0239295
0.0244835
0.159463
0.170599
0.170431
0.170131
0.170102
0.170353
0.170712
0.161604
0.025447
0.0262628
0.173478
0.184898
0.185232
0.185122
0.185112
0.185216
0.185154
0.175923
0.0273421
0.02716
0.179675
0.191347
0.191952
0.191952
0.191951
0.191973
0.191679
0.18227
0.0283011
0.0274455
0.179129
0.190613
0.19123
0.191247
0.191249
0.191267
0.190978
0.181747
0.0286206
0.0275907
0.173509
0.184235
0.184805
0.184833
0.184836
0.184861
0.184626
0.17604
0.028796
0.0267836
0.153442
0.162233
0.163046
0.163235
0.163244
0.163132
0.162623
0.155523
0.0279195
0.0212364
0.0992742
0.104236
0.105022
0.105295
0.105306
0.105094
0.104483
0.100366
0.0219522
0.00771682
0.0160389
0.0166194
0.0167721
0.0168232
0.0168249
0.016782
0.016648
0.0161501
0.00783997
)
;
        Cmu             0.09;
        kappa           0.41;
        E               9.8;
    }
}


// ************************************************************************* //
