/*--------------------------------*- C++ -*----------------------------------*\
| =========                 |                                                 |
| \\      /  F ield         | OpenFOAM: The Open Source CFD Toolbox           |
|  \\    /   O peration     | Version:  2.3.1                                 |
|   \\  /    A nd           | Web:      www.OpenFOAM.org                      |
|    \\/     M anipulation  |                                                 |
\*---------------------------------------------------------------------------*/
FoamFile
{
    version     2.0;
    format      ascii;
    class       volScalarField;
    location    "0.73";
    object      k;
}
// * * * * * * * * * * * * * * * * * * * * * * * * * * * * * * * * * * * * * //

dimensions      [0 2 -2 0 0 0 0];

internalField   nonuniform List<scalar> 
1000
(
0.00235345
0.00240886
0.00241027
0.00241022
0.00241019
0.00241018
0.00241016
0.00241016
0.00241
0.00240546
0.00241075
0.00242301
0.0024239
0.00242392
0.00242392
0.00242391
0.00242389
0.00242384
0.00242292
0.00240775
0.00241501
0.00242718
0.00242824
0.0024283
0.00242831
0.00242829
0.00242825
0.00242818
0.00242709
0.0024104
0.00241833
0.00243164
0.00243287
0.00243299
0.00243303
0.00243302
0.00243296
0.00243284
0.00243163
0.00241394
0.00242201
0.00243727
0.00243871
0.00243892
0.00243898
0.00243897
0.00243892
0.00243873
0.0024374
0.00241781
0.00240939
0.00242013
0.00242115
0.0024213
0.00242135
0.00242137
0.00242137
0.00242136
0.00242058
0.0024077
0.00242156
0.00272438
0.00274481
0.00274592
0.00274601
0.00274604
0.00274604
0.00274541
0.00272753
0.00241916
0.00242484
0.00274837
0.00277069
0.00277185
0.00277192
0.00277192
0.00277189
0.00277114
0.00275145
0.0024224
0.002428
0.00275102
0.0027735
0.00277469
0.00277475
0.00277475
0.00277472
0.00277393
0.00275402
0.00242559
0.00243172
0.00275608
0.00277928
0.00278074
0.00278091
0.00278091
0.00278079
0.00277975
0.00275914
0.00242937
0.00241328
0.00242283
0.00242383
0.00242397
0.00242403
0.00242406
0.00242407
0.00242405
0.00242319
0.00240957
0.00242378
0.00274493
0.00276702
0.00276819
0.00276827
0.00276829
0.00276829
0.00276758
0.00274816
0.00242158
0.00242666
0.00276994
0.00279425
0.00279554
0.0027956
0.0027956
0.00279558
0.00279473
0.00277332
0.00242451
0.00242944
0.00277238
0.00279688
0.0027982
0.00279827
0.00279827
0.00279823
0.00279735
0.00277571
0.00242727
0.0024329
0.00277477
0.00279964
0.00280109
0.00280121
0.00280121
0.00280113
0.00280012
0.00277811
0.00243074
0.00241484
0.00242429
0.00242525
0.00242536
0.00242541
0.00242544
0.00242545
0.00242543
0.00242456
0.0024109
0.00242502
0.00274696
0.00276904
0.00277018
0.00277025
0.00277026
0.00277026
0.00276954
0.00275001
0.00242279
0.00242757
0.00277107
0.00279539
0.00279667
0.00279673
0.00279673
0.00279671
0.00279586
0.00277439
0.00242544
0.00243001
0.00277327
0.00279778
0.00279909
0.00279916
0.00279916
0.00279912
0.00279824
0.00277658
0.00242786
0.00243314
0.00277453
0.00279916
0.00280053
0.00280061
0.00280061
0.00280055
0.00279962
0.00277782
0.00243096
0.00241568
0.00242509
0.00242601
0.0024261
0.00242614
0.00242616
0.00242617
0.00242614
0.00242528
0.00241158
0.00242574
0.00274809
0.00277014
0.00277127
0.00277133
0.00277134
0.00277133
0.00277059
0.00275102
0.00242344
0.00242808
0.00277122
0.00279547
0.00279674
0.0027968
0.00279681
0.00279678
0.00279593
0.00277449
0.00242592
0.00243034
0.00277323
0.00279764
0.00279894
0.00279901
0.00279901
0.00279897
0.00279809
0.00277651
0.00242816
0.00243324
0.00277416
0.00279858
0.0027999
0.00279998
0.00279998
0.00279993
0.00279903
0.0027774
0.00243103
0.00241582
0.00242548
0.00242641
0.00242649
0.00242653
0.00242655
0.00242656
0.00242652
0.00242563
0.00241163
0.00242591
0.00274887
0.00277092
0.00277204
0.0027721
0.0027721
0.00277209
0.00277134
0.00275172
0.00242356
0.00242827
0.00277143
0.00279565
0.00279692
0.00279698
0.00279699
0.00279696
0.0027961
0.00277466
0.00242608
0.00243057
0.0027734
0.00279775
0.00279905
0.00279912
0.00279912
0.00279909
0.0027982
0.00277663
0.00242836
0.00243351
0.00277433
0.00279866
0.00279998
0.00280006
0.00280006
0.00280001
0.0027991
0.00277753
0.00243127
0.0024153
0.00242561
0.00242657
0.00242666
0.00242669
0.00242671
0.0024267
0.00242666
0.00242573
0.00241106
0.00242557
0.00274918
0.00277124
0.00277237
0.00277242
0.00277242
0.00277241
0.00277165
0.00275201
0.00242317
0.00242818
0.00277173
0.00279594
0.00279723
0.00279729
0.00279729
0.00279727
0.0027964
0.00277494
0.00242594
0.0024308
0.00277382
0.00279816
0.00279948
0.00279955
0.00279956
0.00279952
0.00279861
0.00277703
0.00242854
0.00243408
0.00277505
0.00279941
0.00280076
0.00280085
0.00280085
0.00280078
0.00279984
0.00277821
0.00243179
0.00241411
0.00242501
0.00242601
0.0024261
0.00242613
0.00242614
0.00242614
0.00242608
0.00242511
0.00240984
0.00242465
0.00274851
0.0027705
0.00277162
0.00277168
0.00277168
0.00277166
0.0027709
0.00275131
0.0024222
0.00242767
0.00277093
0.00279504
0.00279632
0.00279639
0.0027964
0.00279637
0.00279549
0.00277411
0.00242538
0.00243079
0.00277308
0.00279731
0.00279864
0.00279872
0.00279873
0.00279868
0.00279776
0.00277625
0.00242848
0.00243473
0.00277486
0.00279918
0.00280058
0.0028007
0.0028007
0.0028006
0.00279959
0.00277795
0.00243237
0.00241216
0.00242272
0.00242366
0.00242375
0.00242377
0.00242378
0.00242377
0.00242371
0.00242279
0.00240784
0.00242242
0.00272721
0.00274743
0.00274844
0.00274848
0.00274848
0.00274846
0.00274777
0.00272969
0.00241981
0.00242586
0.00274711
0.0027691
0.00277024
0.00277029
0.00277029
0.00277026
0.00276949
0.0027499
0.00242339
0.00242957
0.00274791
0.00276988
0.00277103
0.00277109
0.0027711
0.00277105
0.00277024
0.00275064
0.00242704
0.00243443
0.00274863
0.0027706
0.00277188
0.00277198
0.00277199
0.00277188
0.00277092
0.00275123
0.00243185
0.00240566
0.00240604
0.00240608
0.0024061
0.00240611
0.00240612
0.00240611
0.00240609
0.00240593
0.0024011
0.00240835
0.00241863
0.0024196
0.00241969
0.00241971
0.00241972
0.0024197
0.00241963
0.0024187
0.0024039
0.00241162
0.00242281
0.00242396
0.0024241
0.00242415
0.00242416
0.00242411
0.00242399
0.00242289
0.00240718
0.00241598
0.00242732
0.00242861
0.00242882
0.0024289
0.00242891
0.00242883
0.00242862
0.00242737
0.00241152
0.0024227
0.00243451
0.00243602
0.00243634
0.00243645
0.00243645
0.00243633
0.00243598
0.0024345
0.0024183
0.00243795
0.00245284
0.00245499
0.00245538
0.00245546
0.00245546
0.00245535
0.00245493
0.00245286
0.00243377
0.0024751
0.00258332
0.00259444
0.00259102
0.00258927
0.00258917
0.00259072
0.00259403
0.00258621
0.00247294
0.00287465
0.00412864
0.00423427
0.00417404
0.00415146
0.00415035
0.00416996
0.00422934
0.00415979
0.00289453
0.00562548
0.012802
0.0135163
0.0133331
0.0132524
0.0132467
0.0133138
0.0134948
0.0129407
0.00575516
0.0149336
0.0386583
0.0416601
0.0417286
0.0416718
0.0416571
0.041683
0.0416155
0.0390166
0.0152617
0.00244115
0.00274708
0.00276856
0.00276984
0.00276991
0.00276991
0.00276982
0.00276882
0.00274954
0.00243861
0.00244996
0.00278997
0.00281743
0.00282017
0.00282032
0.00282031
0.00282017
0.00281782
0.00279338
0.00244769
0.0025013
0.00316448
0.00322734
0.00323225
0.00323251
0.00323244
0.00323198
0.00322797
0.00317312
0.00250143
0.00331999
0.00621957
0.00638157
0.00619684
0.00613469
0.00613259
0.00618996
0.0063764
0.00628392
0.00335961
0.0207546
0.0747959
0.0795847
0.0795884
0.0794608
0.0794417
0.079531
0.0795605
0.0754506
0.0212985
0.00243832
0.00277654
0.0028012
0.00280282
0.00280301
0.00280301
0.00280283
0.0028016
0.00277961
0.00243605
0.00244351
0.00277849
0.00280335
0.00280492
0.002805
0.002805
0.00280494
0.00280376
0.00278172
0.00244138
0.00245492
0.00289423
0.0029365
0.00294358
0.00294512
0.00294515
0.00294371
0.00293745
0.00289977
0.00245338
0.00296044
0.00538004
0.00556701
0.00557301
0.00557234
0.00557196
0.00557232
0.00556984
0.00541969
0.00298367
0.0216221
0.0760982
0.0796742
0.079626
0.0795318
0.0795228
0.0796022
0.0797112
0.0767734
0.0221855
0.00243598
0.00277615
0.00280087
0.00280237
0.00280252
0.00280252
0.00280239
0.00280129
0.00277932
0.00243374
0.0024403
0.00277422
0.00279855
0.00279985
0.0027999
0.00279989
0.00279986
0.00279896
0.00277742
0.00243814
0.00244691
0.0028278
0.00285739
0.00285984
0.0028603
0.00286032
0.00285993
0.00285806
0.00283218
0.00244524
0.00291663
0.00524452
0.00541719
0.00543016
0.00543182
0.00543174
0.00543029
0.00542154
0.00528377
0.00293835
0.0226812
0.0805498
0.0841167
0.0842242
0.0841915
0.0841882
0.08422
0.0841956
0.0812993
0.0232981
0.00243467
0.00277494
0.00279959
0.00280103
0.00280116
0.00280116
0.00280105
0.00280003
0.00277815
0.00243245
0.00243867
0.00277281
0.00279707
0.00279832
0.00279836
0.00279835
0.00279834
0.0027975
0.00277602
0.0024365
0.00244377
0.00281361
0.00284167
0.0028436
0.00284389
0.0028439
0.00284367
0.00284228
0.00281777
0.002442
0.0029169
0.00525294
0.00541964
0.00543405
0.00543706
0.00543712
0.00543471
0.0054251
0.00529381
0.0029394
0.0232063
0.082462
0.086063
0.0862511
0.0862517
0.0862515
0.0862578
0.0861638
0.083248
0.0238513
0.00243442
0.00277527
0.00280016
0.00280165
0.00280179
0.00280179
0.00280167
0.00280062
0.00277855
0.00243221
0.00243874
0.00277257
0.00279723
0.00279852
0.00279856
0.00279856
0.00279854
0.00279768
0.00277584
0.00243658
0.0024445
0.00281644
0.00284582
0.00284814
0.00284851
0.00284852
0.00284821
0.00284646
0.0028207
0.0024427
0.00317921
0.00590207
0.0061484
0.0062102
0.00623179
0.00623223
0.00621288
0.00615819
0.00595376
0.00321431
0.023374
0.0822627
0.0858063
0.0859976
0.0860032
0.0860036
0.0860091
0.085917
0.0830558
0.024036
0.00243502
0.00277746
0.00280287
0.00280449
0.00280469
0.00280469
0.00280453
0.00280336
0.00278083
0.00243287
0.00244004
0.00277369
0.00279931
0.00280076
0.00280082
0.00280083
0.00280079
0.00279981
0.00277706
0.00243787
0.00245018
0.0028486
0.00288307
0.00288753
0.00288862
0.00288864
0.00288768
0.00288389
0.00285342
0.00244857
0.00358783
0.00645965
0.0067887
0.00693395
0.00698915
0.00699056
0.00694029
0.0068046
0.00651367
0.00363909
0.0234571
0.0804335
0.0837711
0.0839508
0.0839602
0.0839611
0.083968
0.0838907
0.0812058
0.0241336
0.00243647
0.00278028
0.00280622
0.00280801
0.00280825
0.00280826
0.00280806
0.00280677
0.00278376
0.00243435
0.0024415
0.00278246
0.00281083
0.00281302
0.00281327
0.00281327
0.00281309
0.0028114
0.00278608
0.0024393
0.00246311
0.00293292
0.00297686
0.00298504
0.00298749
0.00298756
0.00298529
0.00297803
0.00293867
0.0024617
0.00383514
0.00560946
0.00588603
0.00599316
0.00603662
0.00603771
0.00599808
0.00589731
0.00564661
0.00388064
0.0229569
0.0738008
0.076633
0.0769018
0.0769659
0.076969
0.0769294
0.0767561
0.0744563
0.0235963
0.00243819
0.00276409
0.00278847
0.00279013
0.00279035
0.00279036
0.0027902
0.00278901
0.0027673
0.00243594
0.0024412
0.00280404
0.00283732
0.00284145
0.00284235
0.00284238
0.00284156
0.00283806
0.00280802
0.00243881
0.0024794
0.00305312
0.00310412
0.0031141
0.00311728
0.00311734
0.0031144
0.00310542
0.00305897
0.00247795
0.00311024
0.00484488
0.00506614
0.00509598
0.00510476
0.00510478
0.00509705
0.00507155
0.00487494
0.00313207
0.0195483
0.0548638
0.0566998
0.0569895
0.0570899
0.0570941
0.0570157
0.0567892
0.0552592
0.019979
0.00242861
0.00244885
0.00245123
0.00245174
0.00245193
0.00245195
0.00245174
0.00245135
0.00244917
0.00242431
0.00242474
0.00245498
0.00245824
0.00245868
0.00245881
0.00245881
0.00245871
0.00245837
0.00245529
0.00242038
0.00248799
0.00253628
0.00254262
0.00254431
0.00254484
0.00254482
0.00254441
0.00254271
0.00253703
0.00248436
0.00269931
0.00307306
0.00313083
0.003141
0.00314405
0.00314412
0.00314134
0.0031325
0.00308132
0.00270303
0.00986415
0.0161492
0.0165439
0.0166474
0.0166818
0.0166829
0.016654
0.0165631
0.0162236
0.00996818
)
;

boundaryField
{
    walls
    {
        type            kqRWallFunction;
        value           nonuniform List<scalar> 
500
(
0.00235345
0.00235345
0.00235345
0.00240886
0.00240886
0.00241027
0.00241027
0.00241022
0.00241022
0.00241019
0.00241019
0.00241018
0.00241018
0.00241016
0.00241016
0.00241016
0.00241016
0.00241
0.00241
0.00240546
0.00240546
0.00240546
0.00241075
0.00241075
0.00242301
0.0024239
0.00242392
0.00242392
0.00242391
0.00242389
0.00242384
0.00242292
0.00240775
0.00240775
0.00241501
0.00241501
0.00242718
0.00242824
0.0024283
0.00242831
0.00242829
0.00242825
0.00242818
0.00242709
0.0024104
0.0024104
0.00241833
0.00241833
0.00243164
0.00243287
0.00243299
0.00243303
0.00243302
0.00243296
0.00243284
0.00243163
0.00241394
0.00241394
0.00242201
0.00242201
0.00243727
0.00243871
0.00243892
0.00243898
0.00243897
0.00243892
0.00243873
0.0024374
0.00241781
0.00241781
0.00240939
0.00240939
0.00242013
0.00242115
0.0024213
0.00242135
0.00242137
0.00242137
0.00242136
0.00242058
0.0024077
0.0024077
0.00242156
0.00241916
0.00242484
0.0024224
0.002428
0.00242559
0.00243172
0.00242937
0.00241328
0.00241328
0.00242283
0.00242383
0.00242397
0.00242403
0.00242406
0.00242407
0.00242405
0.00242319
0.00240957
0.00240957
0.00242378
0.00242158
0.00242666
0.00242451
0.00242944
0.00242727
0.0024329
0.00243074
0.00241484
0.00241484
0.00242429
0.00242525
0.00242536
0.00242541
0.00242544
0.00242545
0.00242543
0.00242456
0.0024109
0.0024109
0.00242502
0.00242279
0.00242757
0.00242544
0.00243001
0.00242786
0.00243314
0.00243096
0.00241568
0.00241568
0.00242509
0.00242601
0.0024261
0.00242614
0.00242616
0.00242617
0.00242614
0.00242528
0.00241158
0.00241158
0.00242574
0.00242344
0.00242808
0.00242592
0.00243034
0.00242816
0.00243324
0.00243103
0.00241582
0.00241582
0.00242548
0.00242641
0.00242649
0.00242653
0.00242655
0.00242656
0.00242652
0.00242563
0.00241163
0.00241163
0.00242591
0.00242356
0.00242827
0.00242608
0.00243057
0.00242836
0.00243351
0.00243127
0.0024153
0.0024153
0.00242561
0.00242657
0.00242666
0.00242669
0.00242671
0.0024267
0.00242666
0.00242573
0.00241106
0.00241106
0.00242557
0.00242317
0.00242818
0.00242594
0.0024308
0.00242854
0.00243408
0.00243179
0.00241411
0.00241411
0.00242501
0.00242601
0.0024261
0.00242613
0.00242614
0.00242614
0.00242608
0.00242511
0.00240984
0.00240984
0.00242465
0.0024222
0.00242767
0.00242538
0.00243079
0.00242848
0.00243473
0.00243237
0.00241216
0.00241216
0.00242272
0.00242366
0.00242375
0.00242377
0.00242378
0.00242377
0.00242371
0.00242279
0.00240784
0.00240784
0.00242242
0.00241981
0.00242586
0.00242339
0.00242957
0.00242704
0.00243443
0.00243185
0.00240566
0.00240566
0.00240566
0.00240604
0.00240604
0.00240608
0.00240608
0.0024061
0.0024061
0.00240611
0.00240611
0.00240612
0.00240612
0.00240611
0.00240611
0.00240609
0.00240609
0.00240593
0.00240593
0.0024011
0.0024011
0.0024011
0.00240835
0.00240835
0.00241863
0.0024196
0.00241969
0.00241971
0.00241972
0.0024197
0.00241963
0.0024187
0.0024039
0.0024039
0.00241162
0.00241162
0.00242281
0.00242396
0.0024241
0.00242415
0.00242416
0.00242411
0.00242399
0.00242289
0.00240718
0.00240718
0.00241598
0.00241598
0.00242732
0.00242861
0.00242882
0.0024289
0.00242891
0.00242883
0.00242862
0.00242737
0.00241152
0.00241152
0.0024227
0.0024227
0.00243451
0.00243602
0.00243634
0.00243645
0.00243645
0.00243633
0.00243598
0.0024345
0.0024183
0.0024183
0.00243795
0.00243795
0.00245284
0.00245499
0.00245538
0.00245546
0.00245546
0.00245535
0.00245493
0.00245286
0.00243377
0.00243377
0.0024751
0.0024751
0.00258332
0.00259444
0.00259102
0.00258927
0.00258917
0.00259072
0.00259403
0.00258621
0.00247294
0.00247294
0.00287465
0.00287465
0.00412864
0.00423427
0.00417404
0.00415146
0.00415035
0.00416996
0.00422934
0.00415979
0.00289453
0.00289453
0.00562548
0.00562548
0.012802
0.0135163
0.0133331
0.0132524
0.0132467
0.0133138
0.0134948
0.0129407
0.00575516
0.00575516
0.0149336
0.0149336
0.0386583
0.0416601
0.0417286
0.0416718
0.0416571
0.041683
0.0416155
0.0390166
0.0152617
0.0152617
0.00244115
0.00243861
0.00244996
0.00244769
0.0025013
0.00250143
0.00331999
0.00335961
0.0207546
0.0212985
0.00243832
0.00243605
0.00244351
0.00244138
0.00245492
0.00245338
0.00296044
0.00298367
0.0216221
0.0221855
0.00243598
0.00243374
0.0024403
0.00243814
0.00244691
0.00244524
0.00291663
0.00293835
0.0226812
0.0232981
0.00243467
0.00243245
0.00243867
0.0024365
0.00244377
0.002442
0.0029169
0.0029394
0.0232063
0.0238513
0.00243442
0.00243221
0.00243874
0.00243658
0.0024445
0.0024427
0.00317921
0.00321431
0.023374
0.024036
0.00243502
0.00243287
0.00244004
0.00243787
0.00245018
0.00244857
0.00358783
0.00363909
0.0234571
0.0241336
0.00243647
0.00243435
0.0024415
0.0024393
0.00246311
0.0024617
0.00383514
0.00388064
0.0229569
0.0235963
0.00243819
0.00243594
0.0024412
0.00243881
0.0024794
0.00247795
0.00311024
0.00313207
0.0195483
0.019979
0.00242861
0.00242861
0.00244885
0.00245123
0.00245174
0.00245193
0.00245195
0.00245174
0.00245135
0.00244917
0.00242431
0.00242431
0.00242474
0.00242474
0.00245498
0.00245824
0.00245868
0.00245881
0.00245881
0.00245871
0.00245837
0.00245529
0.00242038
0.00242038
0.00248799
0.00248799
0.00253628
0.00254262
0.00254431
0.00254484
0.00254482
0.00254441
0.00254271
0.00253703
0.00248436
0.00248436
0.00269931
0.00269931
0.00307306
0.00313083
0.003141
0.00314405
0.00314412
0.00314134
0.0031325
0.00308132
0.00270303
0.00270303
0.00986415
0.00986415
0.0161492
0.0165439
0.0166474
0.0166818
0.0166829
0.016654
0.0165631
0.0162236
0.00996818
0.00996818
)
;
    }
    lid
    {
        type            kqRWallFunction;
        value           nonuniform List<scalar> 
100
(
0.0149336
0.0386583
0.0416601
0.0417286
0.0416718
0.0416571
0.041683
0.0416155
0.0390166
0.0152617
0.0207546
0.0747959
0.0795847
0.0795884
0.0794608
0.0794417
0.079531
0.0795605
0.0754506
0.0212985
0.0216221
0.0760982
0.0796742
0.079626
0.0795318
0.0795228
0.0796022
0.0797112
0.0767734
0.0221855
0.0226812
0.0805498
0.0841167
0.0842242
0.0841915
0.0841882
0.08422
0.0841956
0.0812993
0.0232981
0.0232063
0.082462
0.086063
0.0862511
0.0862517
0.0862515
0.0862578
0.0861638
0.083248
0.0238513
0.023374
0.0822627
0.0858063
0.0859976
0.0860032
0.0860036
0.0860091
0.085917
0.0830558
0.024036
0.0234571
0.0804335
0.0837711
0.0839508
0.0839602
0.0839611
0.083968
0.0838907
0.0812058
0.0241336
0.0229569
0.0738008
0.076633
0.0769018
0.0769659
0.076969
0.0769294
0.0767561
0.0744563
0.0235963
0.0195483
0.0548638
0.0566998
0.0569895
0.0570899
0.0570941
0.0570157
0.0567892
0.0552592
0.019979
0.00986415
0.0161492
0.0165439
0.0166474
0.0166818
0.0166829
0.016654
0.0165631
0.0162236
0.00996818
)
;
    }
}


// ************************************************************************* //
