/*--------------------------------*- C++ -*----------------------------------*\
| =========                 |                                                 |
| \\      /  F ield         | OpenFOAM: The Open Source CFD Toolbox           |
|  \\    /   O peration     | Version:  2.3.1                                 |
|   \\  /    A nd           | Web:      www.OpenFOAM.org                      |
|    \\/     M anipulation  |                                                 |
\*---------------------------------------------------------------------------*/
FoamFile
{
    version     2.0;
    format      ascii;
    class       volVectorField;
    location    "3600";
    object      D;
}
// * * * * * * * * * * * * * * * * * * * * * * * * * * * * * * * * * * * * * //

dimensions      [0 1 0 0 0 0 0];

internalField   nonuniform List<vector> 
11800
(
(9.58335e-06 0.000272144 0)
(-1.21001e-05 0.000303282 0)
(6.72608e-06 9.12308e-05 0)
(-7.67389e-06 0.000124264 0)
(-1.10544e-05 0.000302768 0)
(-4.97161e-06 0.000124508 0)
(-1.83099e-06 0.000204081 0)
(-1.74166e-06 0.000157159 0)
(8.01829e-07 2.39262e-05 0)
(1.46764e-06 9.46416e-05 0)
(1.06403e-05 0.000271499 0)
(-9.56034e-06 0.000105852 0)
(-9.27747e-09 -7.38596e-09 0)
(5.97833e-06 9.06776e-05 0)
(-6.80647e-06 0.000124789 0)
(6.52447e-06 1.46583e-05 0)
(-1.02399e-06 0.000203484 0)
(-9.91425e-07 0.000156593 0)
(4.53508e-07 2.41921e-05 0)
(9.07825e-07 9.41708e-05 0)
(-5.85105e-06 0.000124048 0)
(-8.7602e-06 0.000106274 0)
(-1.42956e-06 5.16395e-06 0)
(-1.52597e-06 5.37812e-06 0)
(5.82371e-06 1.67495e-05 0)
(-2.28861e-06 8.57432e-06 0)
(-9.35326e-06 6.3039e-05 0)
(1.36379e-05 0.000182845 0)
(-8.32512e-06 4.77711e-05 0)
(-7.19881e-06 3.43115e-05 0)
(1.44487e-05 0.00023134 0)
(6.03741e-08 4.01803e-06 0)
(2.98449e-06 1.10309e-05 0)
(-7.35643e-06 0.000311238 0)
(5.97222e-06 0.000309834 0)
(-1.64547e-05 0.000247103 0)
(5.56366e-06 0.000310905 0)
(2.93751e-06 1.13418e-05 0)
(-1.79029e-06 0.000215587 0)
(1.47184e-06 0.00010397 0)
(-9.19694e-06 6.3748e-05 0)
(-8.19436e-06 4.84024e-05 0)
(1.33231e-05 0.000181796 0)
(-7.09424e-06 3.48641e-05 0)
(1.41281e-05 0.000230236 0)
(6.22398e-06 1.47751e-05 0)
(1.64648e-06 6.11752e-06 0)
(1.83538e-06 6.01988e-06 0)
(-2.81281e-06 0.000215773 0)
(2.2907e-06 0.000104117 0)
(-1.56288e-05 0.000159252 0)
(-1.6702e-05 0.000206189 0)
(-1.53508e-06 0.000269232 0)
(8.41568e-08 3.81257e-06 0)
(-7.9984e-06 1.74661e-05 0)
(1.08377e-06 8.97537e-07 0)
(-2.05346e-05 0.000315513 0)
(-5.15027e-06 8.78182e-05 0)
(5.89657e-06 0.000128192 0)
(-3.74191e-06 8.4352e-05 0)
(2.16561e-06 2.8646e-06 0)
(-2.64355e-06 0.000269434 0)
(-4.47817e-06 8.76192e-05 0)
(5.14197e-06 0.00012843 0)
(5.45487e-06 1.64926e-05 0)
(-1.96052e-05 0.000278862 0)
(-1.62134e-05 0.000158554 0)
(-1.73861e-05 0.000205422 0)
(-1.95042e-05 0.000315003 0)
(-2.40178e-06 8.85342e-06 0)
(-6.55775e-06 0.000312113 0)
(-1.15776e-05 0.000310422 0)
(-1.19142e-05 0.000309317 0)
(-1.02223e-07 1.14068e-07 0)
(2.31258e-06 2.98789e-06 0)
(-1.54996e-05 0.000247797 0)
(7.15356e-06 2.31613e-05 0)
(-1.99233e-05 0.000279906 0)
(-1.58652e-05 0.000282275 0)
(-1.48223e-05 0.00028322 0)
(-7.62461e-06 1.72263e-05 0)
(1.17429e-06 0.000107973 0)
(1.09203e-05 0.000307987 0)
(9.74775e-06 0.000308178 0)
(-1.40609e-06 0.000110977 0)
(-6.92081e-06 3.86507e-05 0)
(1.30615e-05 0.000222924 0)
(-7.91162e-06 5.27271e-05 0)
(-8.82157e-06 6.85829e-05 0)
(1.22825e-05 0.000174872 0)
(-3.5376e-07 0.000263401 0)
(3.172e-06 1.04848e-05 0)
(-9.85431e-06 0.000284097 0)
(2.03794e-05 0.000317931 0)
(3.23063e-06 0.000136954 0)
(-2.47176e-09 -1.88e-09 0)
(6.39089e-11 -3.99439e-10 0)
(2.47259e-09 -1.88081e-09 0)
(-2.10017e-07 0.000272547 0)
(-9.0769e-06 0.000108199 0)
(1.75415e-05 0.000316793 0)
(1.05962e-05 0.000118913 0)
(-3.84776e-06 1.53324e-05 0)
(-8.67056e-07 1.18281e-05 0)
(-5.69265e-07 0.000301408 0)
(1.06014e-06 2.50307e-05 0)
(-2.23609e-06 0.000154854 0)
(-2.32533e-06 0.000201526 0)
(3.36459e-06 5.71727e-06 0)
(7.97854e-06 5.27039e-05 0)
(6.98008e-06 3.86299e-05 0)
(8.89617e-06 6.85566e-05 0)
(-1.32395e-05 0.000222951 0)
(-1.2452e-05 0.000174909 0)
(1.89473e-06 9.27085e-05 0)
(2.66258e-06 5.21206e-06 0)
(1.9439e-05 0.000280004 0)
(-7.94918e-06 0.000287428 0)
(2.71118e-06 5.0216e-06 0)
(-1.32544e-06 9.58221e-05 0)
(-7.92164e-07 2.32932e-05 0)
(1.77807e-06 0.000205584 0)
(1.68756e-06 0.000158505 0)
(-2.45223e-06 0.000197134 0)
(-9.91863e-06 0.00028517 0)
(-8.66834e-07 0.000271696 0)
(-6.37137e-06 0.000301528 0)
(-1.48084e-06 0.000300707 0)
(-2.20365e-05 0.000325973 0)
(-2.28239e-05 0.000325184 0)
(-6.34797e-07 2.8554e-07 0)
(-2.88316e-06 6.75983e-06 0)
(1.33992e-05 0.000216287 0)
(-7.43085e-06 4.22678e-05 0)
(1.25531e-05 0.000168641 0)
(-8.43108e-06 5.6838e-05 0)
(-9.34872e-06 7.31474e-05 0)
(1.23634e-05 0.000216484 0)
(-6.84775e-06 4.21414e-05 0)
(1.15839e-05 0.000168824 0)
(-7.77139e-06 5.66978e-05 0)
(-8.61885e-06 7.29947e-05 0)
(-1.80389e-06 2.15712e-05 0)
(4.34229e-06 0.00020953 0)
(4.05091e-06 0.000162306 0)
(-3.43304e-06 9.89568e-05 0)
(1.66638e-05 0.00010865 0)
(-1.6558e-05 0.000106274 0)
(1.04233e-05 0.000119777 0)
(-1.21507e-06 1.2553e-05 0)
(-1.09695e-05 0.000262185 0)
(-1.08747e-05 0.000263575 0)
(5.35537e-06 0.000307461 0)
(-1.22679e-05 0.000247448 0)
(4.91803e-06 0.000174784 0)
(5.3365e-06 0.000222806 0)
(-1.36637e-05 0.00019628 0)
(-1.26718e-05 0.000149976 0)
(6.40404e-06 2.75926e-05 0)
(-1.00413e-06 0.00026439 0)
(3.65767e-06 5.81912e-06 0)
(-1.12116e-05 0.000247692 0)
(7.48798e-06 2.34969e-05 0)
(-4.99837e-06 7.1389e-05 0)
(-4.49822e-06 5.52413e-05 0)
(-3.95345e-06 4.08476e-05 0)
(6.83505e-06 0.000170836 0)
(7.2867e-06 0.000218639 0)
(-3.22724e-06 3.99453e-06 0)
(-5.87186e-06 2.65421e-05 0)
(1.27514e-05 0.000198457 0)
(1.18177e-05 0.000152018 0)
(2.8466e-06 0.000201304 0)
(-1.8745e-05 0.000245952 0)
(-1.89341e-05 0.000247428 0)
(6.70541e-06 1.67791e-05 0)
(6.71453e-06 1.72423e-05 0)
(7.38316e-06 5.11766e-05 0)
(8.25064e-06 6.68559e-05 0)
(6.43994e-06 3.72877e-05 0)
(-1.17114e-05 0.000177271 0)
(-1.2437e-05 0.000225479 0)
(5.00284e-06 0.000173688 0)
(5.36597e-06 0.000221677 0)
(5.43759e-06 0.000105846 0)
(-2.59877e-06 9.87329e-05 0)
(-1.37226e-06 2.16825e-05 0)
(3.28587e-06 0.000209249 0)
(3.06431e-06 0.000162043 0)
(-4.27699e-06 0.000258597 0)
(-1.44407e-06 4.52745e-05 0)
(-1.62956e-06 6.02534e-05 0)
(-1.61325e-05 0.000276715 0)
(-4.41576e-07 1.02987e-05 0)
(-1.55674e-05 0.000130271 0)
(1.34271e-05 8.63087e-05 0)
(1.55356e-07 1.4857e-07 0)
(-9.65644e-06 0.000311734 0)
(1.93034e-05 0.000281132 0)
(-5.5383e-07 3.30947e-07 0)
(1.2715e-05 0.000294671 0)
(1.5883e-05 0.000251796 0)
(1.70348e-05 0.000252003 0)
(-4.99942e-07 0.000302937 0)
(-1.29483e-06 0.000303908 0)
(8.97838e-06 8.42176e-05 0)
(7.93079e-06 8.45909e-05 0)
(-1.06204e-05 0.00013249 0)
(-9.3572e-06 0.000132025 0)
(6.25599e-07 2.81486e-07 0)
(-1.75948e-06 1.5064e-05 0)
(-1.98129e-06 8.39103e-06 0)
(-4.63206e-08 1.74338e-08 0)
(6.03114e-06 9.94607e-06 0)
(-1.44097e-07 4.5798e-08 0)
(7.83118e-07 8.2413e-06 0)
(-1.09524e-05 0.000301343 0)
(-5.29041e-06 3.77222e-05 0)
(-6.04432e-06 5.16874e-05 0)
(-6.7496e-06 6.74308e-05 0)
(1.00697e-05 0.000224579 0)
(9.50466e-06 0.000176444 0)
(6.48984e-07 0.000208861 0)
(6.03407e-07 0.000161677 0)
(-2.81829e-07 2.18378e-05 0)
(-5.35694e-07 9.84385e-05 0)
(-2.11411e-07 3.51502e-08 0)
(8.22844e-07 2.73102e-05 0)
(-1.65268e-06 0.000150258 0)
(-4.95718e-06 9.50765e-05 0)
(1.1482e-06 2.69089e-05 0)
(-2.32507e-06 0.000151055 0)
(-7.48646e-06 0.000285131 0)
(9.26428e-06 0.000106622 0)
(8.63088e-06 0.000105803 0)
(4.61098e-08 1.73634e-08 0)
(2.11029e-07 3.50921e-08 0)
(-1.45149e-05 0.000265368 0)
(-1.39637e-05 0.000266494 0)
(-1.37023e-05 9.02805e-05 0)
(1.54273e-05 0.000125624 0)
(1.23533e-05 0.000225382 0)
(1.16299e-05 0.000177186 0)
(-6.43271e-06 3.73425e-05 0)
(-7.37691e-06 5.12352e-05 0)
(-8.24315e-06 6.69214e-05 0)
(-4.4763e-07 0.000270607 0)
(-5.42588e-06 2.53921e-05 0)
(1.2055e-05 0.000200942 0)
(1.11896e-05 0.000154322 0)
(7.39917e-06 0.000107737 0)
(6.2448e-06 0.000255177 0)
(9.80771e-06 0.000318313 0)
(1.0022e-06 8.12181e-06 0)
(-3.63428e-06 8.52189e-05 0)
(-9.6819e-09 3.00089e-06 0)
(1.43657e-07 4.56815e-08 0)
(3.49963e-06 8.99234e-05 0)
(3.01145e-06 8.89839e-05 0)
(-3.8002e-06 0.000125854 0)
(-3.25609e-06 0.000126784 0)
(6.74256e-06 6.74106e-05 0)
(6.03806e-06 5.16693e-05 0)
(5.27209e-06 3.77129e-05 0)
(-9.53084e-06 0.000176445 0)
(-1.01265e-05 0.000224608 0)
(-5.3646e-06 0.000311828 0)
(1.82369e-06 2.2162e-06 0)
(2.5253e-11 0.000179193 0)
(-1.72896e-08 3.61105e-05 0)
(7.13085e-06 0.000300874 0)
(5.81213e-06 0.000105079 0)
(-2.25992e-05 0.000297304 0)
(6.6801e-06 0.000108515 0)
(2.59976e-07 1.90206e-07 0)
(1.85913e-05 0.000242908 0)
(1.86986e-05 0.000241542 0)
(-1.1369e-05 0.000154518 0)
(-1.22474e-05 0.000201147 0)
(-1.01568e-05 0.000154129 0)
(-1.09445e-05 0.00020073 0)
(5.47233e-06 2.52989e-05 0)
(4.90642e-06 2.54662e-05 0)
(5.53147e-06 0.000141922 0)
(6.57984e-06 0.000141756 0)
(6.00219e-06 0.000187553 0)
(7.14252e-06 0.000187372 0)
(-3.0498e-06 3.17551e-05 0)
(-3.63262e-06 3.18585e-05 0)
(-6.3915e-07 1.42763e-05 0)
(3.22599e-06 9.10434e-06 0)
(3.02004e-06 8.78921e-06 0)
(3.08175e-06 6.65141e-06 0)
(5.33963e-06 0.000256276 0)
(-1.84436e-05 0.000243356 0)
(-1.85421e-05 0.000241937 0)
(6.92747e-06 1.87417e-05 0)
(6.79088e-06 1.82071e-05 0)
(1.46212e-05 0.000108673 0)
(1.48185e-05 0.000109894 0)
(-1.45168e-05 0.000106189 0)
(-1.4593e-05 0.000104989 0)
(6.60684e-06 0.000307255 0)
(-1.80996e-05 0.000311267 0)
(-1.73984e-05 0.00026196 0)
(4.07473e-06 4.59231e-06 0)
(-1.06313e-05 0.000307356 0)
(-9.49332e-06 0.000306301 0)
(4.50032e-06 0.000143547 0)
(-2.78942e-06 0.000128984 0)
(2.47972e-06 8.71455e-05 0)
(-1.24512e-05 0.000109079 0)
(1.21963e-05 0.000105679 0)
(-5.89021e-06 1.84161e-05 0)
(-1.72533e-07 1.09376e-07 0)
(9.29117e-07 3.7764e-06 0)
(1.11539e-06 9.30028e-05 0)
(-1.04807e-05 9.36641e-05 0)
(1.12853e-05 0.000121587 0)
(-6.0343e-06 8.52535e-05 0)
(7.17883e-06 0.000131246 0)
(3.63702e-06 0.0002289 0)
(5.01869e-06 0.000228406 0)
(-2.1391e-06 4.90703e-05 0)
(-2.95309e-06 4.93666e-05 0)
(-2.39836e-06 6.45155e-05 0)
(-3.30946e-06 6.4846e-05 0)
(5.70283e-07 2.48593e-05 0)
(-1.22176e-06 0.000155201 0)
(-1.23782e-06 0.000201921 0)
(-2.00317e-06 0.000295863 0)
(2.81851e-06 6.60884e-06 0)
(-5.63443e-07 0.000125668 0)
(-8.59316e-06 0.000303297 0)
(1.16787e-06 9.31178e-07 0)
(7.68251e-06 0.000180052 0)
(-4.15429e-06 3.57134e-05 0)
(-1.29805e-05 0.000127003 0)
(-1.21911e-05 0.000126368 0)
(1.13437e-05 8.90057e-05 0)
(1.06932e-05 8.95473e-05 0)
(-1.28703e-05 0.000316305 0)
(-1.30121e-05 0.000314945 0)
(-2.11364e-06 1.43659e-05 0)
(-2.50636e-06 1.43115e-05 0)
(1.01724e-06 3.9582e-06 0)
(-2.40867e-06 4.10822e-06 0)
(6.06232e-07 0.000131884 0)
(3.71302e-06 2.57597e-05 0)
(3.12225e-06 2.59239e-05 0)
(-7.64183e-06 0.000153453 0)
(-6.40705e-06 0.000153089 0)
(-8.23686e-06 0.000200013 0)
(-6.90744e-06 0.000199623 0)
(-1.66942e-05 0.0002535 0)
(-1.54484e-05 0.000253601 0)
(-3.6538e-06 7.62589e-05 0)
(-3.37627e-06 5.96212e-05 0)
(-2.9893e-06 4.47154e-05 0)
(5.28065e-06 0.000236503 0)
(-9.03341e-07 0.000267975 0)
(1.09732e-05 0.000105577 0)
(1.03901e-05 0.000106497 0)
(4.87059e-06 0.00020452 0)
(4.65657e-06 0.00015758 0)
(-2.18474e-06 2.37422e-05 0)
(2.05599e-06 2.65897e-05 0)
(1.69169e-06 2.71085e-05 0)
(-3.78365e-06 0.000197095 0)
(-4.50161e-06 0.000198114 0)
(-4.16851e-06 0.00015171 0)
(-3.39722e-06 0.00015067 0)
(-4.34567e-06 2.4371e-05 0)
(9.16161e-06 0.000156365 0)
(9.85679e-06 0.000203146 0)
(-1.17531e-07 1.11662e-06 0)
(1.63187e-05 0.00012052 0)
(-1.49852e-05 9.4923e-05 0)
(-6.59943e-08 1.03875e-06 0)
(-4.92432e-06 0.000225336 0)
(-5.77504e-06 0.000226579 0)
(-4.51665e-06 0.00017723 0)
(-5.28923e-06 0.000178407 0)
(2.86988e-06 3.65864e-05 0)
(2.47214e-06 3.72304e-05 0)
(3.39399e-06 5.04512e-05 0)
(2.91292e-06 5.11865e-05 0)
(3.79697e-06 6.60578e-05 0)
(3.2551e-06 6.68797e-05 0)
(1.84103e-05 0.000253992 0)
(1.87533e-05 0.000255287 0)
(-1.72006e-06 8.45973e-06 0)
(6.90839e-06 0.000180952 0)
(-3.70918e-06 3.52191e-05 0)
(6.02367e-06 2.78304e-05 0)
(-1.1862e-05 0.000149477 0)
(-1.28211e-05 0.000195713 0)
(-1.6799e-07 5.1017e-08 0)
(2.39329e-06 0.000264739 0)
(5.94756e-06 2.65477e-05 0)
(-1.20276e-05 0.000152012 0)
(-1.29898e-05 0.000198409 0)
(4.50987e-06 7.72645e-06 0)
(-9.08695e-06 0.000287014 0)
(5.70549e-06 2.11774e-05 0)
(-1.43489e-05 0.00023548 0)
(-3.04773e-06 1.13686e-05 0)
(-3.25167e-06 1.17867e-05 0)
(3.19123e-06 1.16637e-05 0)
(-1.54867e-06 0.000125473 0)
(-1.18486e-08 -8.71922e-09 0)
(-9.64937e-06 0.000314568 0)
(-1.50626e-07 5.98635e-08 0)
(1.67402e-07 5.08633e-08 0)
(-4.46154e-06 2.57136e-05 0)
(9.83696e-06 0.000200161 0)
(9.12606e-06 0.000153592 0)
(7.57983e-06 0.000265157 0)
(-2.17595e-05 0.000284549 0)
(2.78957e-06 0.000117413 0)
(-1.79206e-06 0.000114331 0)
(-4.89191e-07 1.18969e-05 0)
(-1.37398e-06 1.43318e-06 0)
(-8.55366e-09 -7.70208e-09 0)
(-5.4128e-06 8.60528e-05 0)
(6.43581e-06 0.000130323 0)
(4.66844e-07 1.6357e-07 0)
(-7.2022e-07 0.000112641 0)
(-6.79384e-07 0.000111548 0)
(-1.63544e-08 9.44919e-05 0)
(-1.27817e-07 2.40457e-05 0)
(2.44128e-07 0.000156899 0)
(2.19284e-07 0.000203889 0)
(-4.6904e-07 1.64308e-07 0)
(1.93178e-06 1.28714e-05 0)
(-7.50882e-06 0.000231631 0)
(4.28604e-06 4.75103e-05 0)
(4.81737e-06 6.27622e-05 0)
(5.30099e-06 7.96988e-05 0)
(1.57889e-05 0.000301909 0)
(-5.78134e-06 2.29969e-05 0)
(1.35386e-05 0.000206438 0)
(1.26097e-05 0.000159438 0)
(-8.94736e-06 0.000278423 0)
(1.2975e-06 3.30092e-06 0)
(1.207e-05 0.000273236 0)
(-2.57178e-06 4.04624e-06 0)
(8.45829e-06 0.000303114 0)
(-6.47254e-06 0.000231656 0)
(3.69018e-06 4.74896e-05 0)
(4.14782e-06 6.27404e-05 0)
(4.56725e-06 7.96705e-05 0)
(1.13344e-06 3.12793e-06 0)
(5.57405e-06 0.000185556 0)
(-2.88223e-06 3.27762e-05 0)
(-9.75054e-07 1.28174e-05 0)
(-1.58382e-05 0.000274211 0)
(-5.87549e-06 7.16546e-05 0)
(-5.28923e-06 5.54822e-05 0)
(-4.65055e-06 4.10617e-05 0)
(7.97754e-06 0.000170555 0)
(8.50579e-06 0.000218339 0)
(2.17579e-05 0.000320024 0)
(1.26694e-05 0.000280742 0)
(1.40461e-05 0.000280258 0)
(1.7566e-07 1.2269e-07 0)
(7.8623e-06 8.55704e-05 0)
(-9.20874e-06 0.000130858 0)
(-3.99921e-06 8.67967e-05 0)
(4.68487e-06 0.000129489 0)
(-1.34748e-06 0.00013952 0)
(-1.02356e-06 0.000226813 0)
(6.54282e-07 6.58862e-05 0)
(5.84755e-07 5.02949e-05 0)
(3.57686e-08 3.53641e-05 0)
(-2.20718e-07 0.000135566 0)
(-9.71922e-08 0.000180618 0)
(9.96154e-06 0.000319591 0)
(5.63136e-07 1.32026e-05 0)
(-2.42783e-07 3.04517e-06 0)
(1.91168e-06 0.000191793 0)
(9.59842e-08 3.14948e-06 0)
(-1.46293e-06 9.85615e-06 0)
(3.67555e-06 3.52781e-05 0)
(-6.95004e-06 0.000180833 0)
(-1.37103e-07 1.50701e-07 0)
(-1.46694e-05 0.000274082 0)
(-1.21584e-06 2.35852e-05 0)
(2.60939e-06 0.000204981 0)
(2.58717e-06 0.000157887 0)
(3.28322e-07 7.87957e-08 0)
(-4.32273e-06 7.85352e-06 0)
(4.79708e-06 6.43222e-05 0)
(4.27767e-06 4.89014e-05 0)
(-7.38443e-06 0.000229231 0)
(1.42947e-06 8.94805e-05 0)
(-9.92329e-06 0.000310509 0)
(-1.64915e-07 2.31246e-08 0)
(-5.66209e-06 1.22947e-05 0)
(3.66844e-06 6.7637e-06 0)
(-3.69235e-06 4.04469e-06 0)
(1.10481e-05 0.000107518 0)
(8.40485e-06 0.000130884 0)
(-7.20392e-06 8.55407e-05 0)
(5.17736e-07 3.50021e-05 0)
(-1.19758e-06 0.000136082 0)
(-1.00223e-06 0.000181293 0)
(1.05586e-05 0.000270123 0)
(9.82024e-06 0.000117802 0)
(5.11955e-06 0.000312914 0)
(4.93212e-06 0.000314085 0)
(1.43164e-06 0.00013027 0)
(1.95054e-06 8.88078e-05 0)
(1.64606e-07 2.30856e-08 0)
(-1.41774e-05 0.000244859 0)
(5.12943e-06 1.75661e-05 0)
(1.77959e-08 2.41022e-07 0)
(2.71848e-06 0.000174698 0)
(3.55144e-06 0.000175305 0)
(4.80897e-09 2.09773e-08 0)
(-2.69033e-06 6.54309e-06 0)
(6.71553e-06 6.54028e-05 0)
(5.99749e-06 4.98717e-05 0)
(5.22015e-06 3.60861e-05 0)
(-9.65298e-06 0.000179205 0)
(-1.02407e-05 0.00022763 0)
(8.92754e-06 0.000112098 0)
(1.31022e-06 0.000265023 0)
(-5.77352e-06 0.000298952 0)
(-5.46611e-06 0.000300533 0)
(-5.54736e-07 0.000230498 0)
(-4.75208e-07 0.000231768 0)
(3.95369e-07 4.7382e-05 0)
(3.6079e-07 4.80849e-05 0)
(4.44348e-07 6.26238e-05 0)
(4.04996e-07 6.34126e-05 0)
(2.93569e-07 7.95448e-05 0)
(3.50622e-07 8.03886e-05 0)
(7.06799e-07 0.000130707 0)
(1.29447e-06 0.000132812 0)
(2.24845e-06 0.00020259 0)
(-5.66371e-07 0.000139177 0)
(-3.29003e-07 7.89503e-08 0)
(-3.67487e-07 2.90392e-06 0)
(4.91008e-06 0.000184567 0)
(-2.56192e-06 3.32855e-05 0)
(1.29119e-06 4.03387e-06 0)
(1.91636e-05 0.000303397 0)
(-1.45696e-06 0.000232782 0)
(9.05575e-07 4.68475e-05 0)
(1.01881e-06 6.20233e-05 0)
(1.00523e-06 7.88474e-05 0)
(-1.46386e-05 0.000254814 0)
(5.0439e-06 9.09346e-05 0)
(7.47685e-06 0.00032208 0)
(8.4548e-06 0.000321362 0)
(-1.45408e-06 1.01634e-05 0)
(-9.27073e-07 0.00017825 0)
(4.89004e-07 3.6627e-05 0)
(2.15848e-07 2.19592e-07 0)
(1.88041e-05 0.000311975 0)
(-2.55063e-07 5.13486e-06 0)
(-3.52545e-06 5.31841e-05 0)
(-3.92852e-06 6.91048e-05 0)
(-4.70142e-06 6.98327e-05 0)
(-4.22298e-06 5.38397e-05 0)
(-3.0514e-06 3.9022e-05 0)
(-3.69163e-06 3.96137e-05 0)
(6.22155e-06 0.000172975 0)
(6.62795e-06 0.000220926 0)
(2.68748e-06 3.66069e-06 0)
(-1.72641e-07 1.04785e-07 0)
(-1.6217e-05 0.000210801 0)
(-1.68962e-05 0.000311338 0)
(5.51561e-06 0.000132707 0)
(-4.70049e-07 5.2546e-06 0)
(-8.77092e-06 0.000172661 0)
(-9.33803e-06 0.00022058 0)
(4.99791e-06 3.98553e-05 0)
(5.69773e-06 5.41096e-05 0)
(6.34063e-06 7.01289e-05 0)
(8.14482e-06 0.000266039 0)
(1.84904e-05 0.000313086 0)
(-9.9403e-06 0.000108486 0)
(4.09338e-06 3.57039e-05 0)
(-7.70723e-06 0.000180045 0)
(5.27782e-06 0.000133743 0)
(-1.9976e-06 9.52324e-05 0)
(5.31258e-06 6.48718e-05 0)
(4.74105e-06 4.93936e-05 0)
(-8.13997e-06 0.000228404 0)
(-1.47798e-05 0.000109737 0)
(1.4422e-05 0.000105206 0)
(1.4422e-05 0.000106382 0)
(-1.45853e-05 0.000108487 0)
(-6.80514e-06 1.81965e-05 0)
(-7.0047e-06 1.87635e-05 0)
(-6.85388e-06 0.000106365 0)
(-3.47993e-06 4.14153e-06 0)
(-1.10907e-05 0.000107184 0)
(-1.61846e-06 0.000256295 0)
(-1.42306e-06 1.70154e-06 0)
(1.11388e-05 6.24342e-05 0)
(9.90628e-06 4.724e-05 0)
(-1.5723e-05 0.000160644 0)
(2.53948e-06 6.49118e-05 0)
(2.2665e-06 4.94247e-05 0)
(-3.90581e-06 0.0002283 0)
(5.20618e-06 1.56915e-05 0)
(8.69331e-06 0.000129821 0)
(-7.50316e-06 8.64621e-05 0)
(-4.10648e-06 4.61312e-06 0)
(4.47043e-06 0.000203403 0)
(4.27108e-06 0.000156582 0)
(-2.02699e-06 2.42116e-05 0)
(1.29542e-05 0.000192046 0)
(-6.31863e-06 2.96043e-05 0)
(1.19559e-05 0.000146087 0)
(-7.19863e-06 1.79545e-05 0)
(9.13194e-06 0.000299554 0)
(1.04729e-05 0.000299116 0)
(1.0089e-05 0.000227637 0)
(9.56046e-06 0.000179224 0)
(-5.20192e-06 3.61891e-05 0)
(-5.94706e-06 4.98659e-05 0)
(-6.65928e-06 6.53966e-05 0)
(-1.49887e-06 1.47507e-06 0)
(-8.00659e-06 0.000278138 0)
(8.75064e-06 0.000177231 0)
(-4.83533e-06 3.72767e-05 0)
(-9.10915e-07 1.13262e-06 0)
(7.48081e-06 0.000302916 0)
(1.81056e-06 1.48558e-06 0)
(1.50166e-06 1.12648e-06 0)
(3.80725e-06 5.41305e-06 0)
(9.04329e-06 0.000243378 0)
(-1.52982e-05 0.000250092 0)
(2.03778e-05 0.000303785 0)
(3.85597e-06 5.69038e-06 0)
(8.94255e-06 0.000117766 0)
(1.22713e-05 0.000258086 0)
(-1.97005e-05 0.000244009 0)
(7.20931e-06 1.79946e-05 0)
(-4.51889e-06 0.00025971 0)
(1.8408e-06 6.51139e-05 0)
(1.64342e-06 4.96047e-05 0)
(-2.83565e-06 0.000227987 0)
(-6.77401e-07 3.25349e-06 0)
(5.2291e-06 0.00014004 0)
(1.49195e-07 5.93393e-08 0)
(-5.98589e-06 1.2176e-05 0)
(-1.05908e-06 0.000115044 0)
(-2.68003e-06 2.2118e-05 0)
(-3.11942e-06 2.22642e-05 0)
(5.94848e-06 0.000161128 0)
(6.9049e-06 0.000160828 0)
(7.40755e-06 0.000207941 0)
(6.3805e-06 0.000208265 0)
(1.76143e-07 6.54448e-07 0)
(-4.4177e-08 8.20433e-06 0)
(-1.06757e-05 0.000144725 0)
(-1.15782e-05 0.000190574 0)
(5.69128e-06 3.03053e-05 0)
(-3.34334e-06 1.80277e-05 0)
(-1.9987e-06 0.000195962 0)
(-3.02681e-06 7.71494e-06 0)
(6.25802e-06 0.000300035 0)
(-5.02878e-06 9.79411e-05 0)
(-5.82728e-06 9.76939e-05 0)
(1.72146e-07 1.73805e-07 0)
(-3.33076e-06 0.000101304 0)
(-1.68453e-06 2.03454e-05 0)
(3.9037e-06 0.000165087 0)
(4.17699e-06 0.000212506 0)
(-4.67809e-06 0.000195994 0)
(-4.11536e-06 0.000149661 0)
(2.07319e-06 2.76263e-05 0)
(2.7529e-06 1.03573e-05 0)
(2.55683e-06 9.98058e-06 0)
(1.3438e-06 9.76542e-05 0)
(-1.73983e-06 0.000207865 0)
(-1.6299e-06 0.000160728 0)
(7.20725e-07 2.22691e-05 0)
(-1.59312e-06 3.84025e-05 0)
(-2.85039e-06 7.93055e-06 0)
(1.16534e-05 0.000307099 0)
(-1.13577e-05 0.000183443 0)
(8.74592e-06 8.61198e-05 0)
(-1.01994e-05 0.00013024 0)
(1.24213e-05 0.000259254 0)
(-1.13839e-05 7.91387e-05 0)
(-1.036e-05 6.22481e-05 0)
(1.39459e-05 0.000138662 0)
(-9.21061e-06 4.70711e-05 0)
(-7.9636e-06 3.37258e-05 0)
(1.52342e-05 0.000184018 0)
(1.61071e-05 0.00023264 0)
(-4.17686e-06 0.00022259 0)
(-3.92871e-06 0.000174545 0)
(2.50728e-06 5.28398e-05 0)
(2.19471e-06 3.87336e-05 0)
(2.79504e-06 6.87231e-05 0)
(2.39806e-06 5.36018e-05 0)
(-3.96698e-06 0.00022134 0)
(2.67036e-06 6.95711e-05 0)
(2.10218e-06 3.94018e-05 0)
(-3.72888e-06 0.000173368 0)
(-2.202e-06 0.000282519 0)
(-4.44034e-06 5.80734e-06 0)
(-4.8283e-06 2.73646e-05 0)
(1.03073e-05 0.000196612 0)
(9.54108e-06 0.000150303 0)
(-3.03495e-06 3.68779e-05 0)
(5.55235e-06 0.000177912 0)
(1.52898e-05 0.000220553 0)
(1.43593e-05 0.000172649 0)
(-8.23579e-06 3.99613e-05 0)
(-9.3881e-06 5.42131e-05 0)
(-1.0446e-05 7.02301e-05 0)
(1.61105e-05 0.000240774 0)
(1.75831e-05 0.000240468 0)
(3.92845e-07 6.99928e-06 0)
(-1.61793e-06 0.000113155 0)
(-4.3046e-06 1.18684e-05 0)
(2.20024e-07 4.07777e-07 0)
(-4.23893e-06 1.5081e-05 0)
(-6.76949e-07 0.000256808 0)
(1.77543e-07 6.69783e-06 0)
(-3.52726e-06 0.000121287 0)
(1.45989e-05 0.000160739 0)
(-6.5967e-06 2.24527e-05 0)
(1.5661e-05 0.000207828 0)
(-1.45201e-08 -1.0062e-08 0)
(9.80488e-07 0.000191977 0)
(2.7615e-07 1.16098e-07 0)
(1.88498e-07 1.38549e-07 0)
(2.59516e-06 0.000137785 0)
(-3.15276e-07 2.54023e-07 0)
(1.19093e-05 0.000309401 0)
(8.93829e-07 0.000175255 0)
(-4.70139e-07 3.82855e-05 0)
(2.58539e-06 1.53516e-05 0)
(1.64347e-06 0.000174709 0)
(-9.15386e-07 3.85661e-05 0)
(-1.54514e-07 3.38859e-06 0)
(-1.11252e-05 6.24023e-05 0)
(-9.89315e-06 4.72119e-05 0)
(-8.55503e-06 3.38576e-05 0)
(-7.10712e-06 2.25075e-05 0)
(1.57145e-05 0.000160678 0)
(1.63379e-05 0.000183816 0)
(1.68582e-05 0.000207759 0)
(1.72805e-05 0.000232428 0)
(-7.64263e-06 0.000250833 0)
(-6.79033e-06 0.00029837 0)
(-2.19562e-05 0.000246239 0)
(7.86248e-06 1.72318e-05 0)
(5.0193e-06 0.000316366 0)
(5.83755e-06 0.000314999 0)
(1.56403e-06 0.000170826 0)
(1.69625e-06 0.000218656 0)
(-1.1962e-06 7.14726e-05 0)
(-1.07651e-06 5.53124e-05 0)
(-9.46149e-07 4.09053e-05 0)
(-6.24832e-06 1.80016e-05 0)
(2.27643e-06 1.28971e-05 0)
(-8.48807e-06 7.4891e-05 0)
(1.12543e-05 0.00016625 0)
(-7.67008e-06 5.84106e-05 0)
(-6.77803e-06 4.36543e-05 0)
(1.20311e-05 0.000213737 0)
(-4.74854e-06 1.99543e-05 0)
(1.21838e-05 0.000238604 0)
(2.05135e-06 0.000108362 0)
(-1.27186e-06 0.000266621 0)
(1.24402e-06 6.20258e-07 0)
(-9.30292e-07 0.000234017 0)
(6.01463e-07 4.61472e-05 0)
(6.77367e-07 6.12362e-05 0)
(6.3046e-07 7.79789e-05 0)
(3.81745e-06 0.000276252 0)
(-5.15548e-07 3.25728e-07 0)
(1.93283e-05 0.000271815 0)
(-2.89506e-06 0.000114878 0)
(-8.68828e-08 1.85661e-07 0)
(6.9145e-06 0.000163652 0)
(-3.02531e-06 2.09992e-05 0)
(7.40439e-06 0.000210968 0)
(1.50383e-07 1.16837e-07 0)
(-4.06385e-06 2.53496e-05 0)
(8.37651e-06 0.000154312 0)
(9.02468e-06 0.000200938 0)
(1.40606e-06 1.83549e-06 0)
(-5.8689e-06 0.000100113 0)
(1.24685e-06 0.000107073 0)
(-1.33749e-05 0.000290561 0)
(1.23751e-06 0.00017176 0)
(1.31937e-06 0.000219628 0)
(-1.00967e-06 7.07816e-05 0)
(-7.95356e-07 4.03603e-05 0)
(-9.07842e-07 5.46898e-05 0)
(1.98703e-06 0.000109167 0)
(-2.761e-07 1.04597e-06 0)
(-2.44161e-07 3.56654e-06 0)
(5.92945e-07 0.000256388 0)
(1.31611e-05 0.000117417 0)
(-1.23345e-05 9.77031e-05 0)
(-9.38562e-06 0.000325237 0)
(-2.13099e-05 0.000212263 0)
(-1.99208e-05 0.000164897 0)
(-2.06775e-05 0.000188181 0)
(-1.90366e-05 0.00014255 0)
(1.04102e-05 3.17145e-05 0)
(1.21115e-05 4.47068e-05 0)
(1.36781e-05 5.95655e-05 0)
(1.51138e-05 7.61386e-05 0)
(2.12801e-05 0.00021226 0)
(2.06476e-05 0.000188181 0)
(-1.0426e-05 3.17154e-05 0)
(-1.21294e-05 4.47085e-05 0)
(1.98902e-05 0.000164896 0)
(-1.3699e-05 5.95668e-05 0)
(1.90087e-05 0.000142549 0)
(-1.5137e-05 7.614e-05 0)
(-6.01358e-06 1.74972e-05 0)
(-3.29921e-06 0.000266052 0)
(-2.35115e-06 0.000265798 0)
(-2.92722e-06 0.000301428 0)
(4.86793e-06 0.000182283 0)
(-2.58969e-06 3.449e-05 0)
(-9.25837e-07 1.35986e-06 0)
(-3.78921e-06 0.00031862 0)
(-4.14813e-06 6.8189e-05 0)
(-5.08231e-06 6.79314e-05 0)
(-3.71824e-06 5.23621e-05 0)
(-4.55412e-06 5.21326e-05 0)
(6.16752e-06 0.00022378 0)
(7.40716e-06 0.000223885 0)
(1.62741e-05 0.000219978 0)
(1.52788e-05 0.000172111 0)
(-8.80119e-06 4.02915e-05 0)
(-1.00256e-05 5.45854e-05 0)
(-1.11496e-05 7.06409e-05 0)
(-9.83869e-06 0.000145238 0)
(-1.06665e-05 0.000191131 0)
(5.21582e-06 3.00149e-05 0)
(-3.08954e-06 0.000130018 0)
(2.62484e-06 8.62636e-05 0)
(3.21478e-06 0.000230136 0)
(-1.86972e-06 4.8272e-05 0)
(-2.09908e-06 6.36215e-05 0)
(-2.2753e-06 8.04759e-05 0)
(6.07069e-06 8.5232e-05 0)
(5.14453e-06 8.54507e-05 0)
(-7.13361e-06 0.000131214 0)
(-6.03976e-06 0.000130944 0)
(-7.18822e-06 0.000316229 0)
(4.80161e-07 1.30558e-06 0)
(1.19674e-05 0.000272113 0)
(4.30552e-06 9.47104e-05 0)
(1.17284e-05 0.000187981 0)
(-5.92718e-06 3.16091e-05 0)
(1.07948e-05 0.000142336 0)
(-1.00298e-05 0.000113644 0)
(2.42619e-06 2.391e-05 0)
(-5.60327e-06 0.000204084 0)
(-5.21294e-06 0.000157233 0)
(6.99924e-07 9.85598e-05 0)
(-8.64501e-07 0.000161804 0)
(-9.20141e-07 0.000209014 0)
(3.71005e-07 2.17805e-05 0)
(6.75902e-06 8.92271e-05 0)
(-7.71253e-06 0.000126592 0)
(-3.69311e-06 0.000282515 0)
(-1.71179e-05 0.000279806 0)
(3.06041e-06 0.000120738 0)
(7.68011e-06 0.000121119 0)
(-6.19075e-06 2.32355e-05 0)
(1.44246e-05 0.000205925 0)
(1.34308e-05 0.000158963 0)
(-6.8398e-07 2.89204e-06 0)
(-2.3129e-06 0.000235648 0)
(1.28569e-06 4.52177e-05 0)
(1.45055e-06 6.01895e-05 0)
(1.59015e-06 7.68357e-05 0)
(-3.53272e-06 0.000114315 0)
(-1.58669e-05 0.0002799 0)
(-4.54921e-06 4.52729e-05 0)
(-5.13293e-06 6.02455e-05 0)
(-5.64844e-06 7.6928e-05 0)
(8.09334e-06 0.000235566 0)
(1.45602e-08 1.88854e-08 0)
(9.93894e-06 0.00011273 0)
(1.27397e-07 8.74718e-06 0)
(-4.67626e-07 8.10893e-07 0)
(-9.72305e-07 3.74437e-06 0)
(-4.67003e-06 1.60859e-05 0)
(-4.7725e-07 1.75383e-07 0)
(1.95493e-06 5.11328e-05 0)
(1.71343e-06 3.72134e-05 0)
(2.18466e-06 6.68211e-05 0)
(-3.31651e-06 0.000225413 0)
(-3.13959e-06 0.000177247 0)
(-9.64707e-06 9.3461e-05 0)
(1.04693e-05 0.000121851 0)
(-9.46225e-07 5.55445e-07 0)
(1.27237e-05 0.000299657 0)
(9.17842e-06 0.000268005 0)
(-1.9539e-05 0.000252217 0)
(7.23297e-06 0.00012018 0)
(2.61051e-06 0.00013057 0)
(-4.91613e-06 0.000318476 0)
(-1.36762e-05 0.000136821 0)
(-1.30086e-05 0.000136215 0)
(1.92992e-05 0.000318381 0)
(-1.54124e-06 0.000283927 0)
(-4.32105e-06 8.59142e-05 0)
(5.20397e-06 0.000130545 0)
(1.57853e-07 9.05467e-06 0)
(2.37048e-06 3.1933e-06 0)
(4.74216e-07 1.74293e-07 0)
(4.60149e-06 0.000139122 0)
(1.70094e-05 0.000324931 0)
(-9.31633e-06 0.000225452 0)
(-8.76541e-06 0.000177242 0)
(4.81425e-06 3.7259e-05 0)
(6.17466e-06 6.68373e-05 0)
(5.52523e-06 5.1154e-05 0)
(-1.73856e-07 1.21188e-07 0)
(-6.95914e-07 0.000295558 0)
(8.70843e-06 0.000121478 0)
(-7.91419e-06 9.39377e-05 0)
(-1.39603e-05 0.000288373 0)
(-2.08439e-05 0.000213353 0)
(-2.02296e-05 0.000189234 0)
(-1.94981e-05 0.000165913 0)
(-1.8639e-05 0.000143522 0)
(1.00926e-05 3.11692e-05 0)
(1.1761e-05 4.40758e-05 0)
(1.32974e-05 5.88552e-05 0)
(1.47059e-05 7.53557e-05 0)
(2.08121e-05 0.000213346 0)
(2.01998e-05 0.000189233 0)
(-1.01077e-05 3.11721e-05 0)
(-1.17776e-05 4.40792e-05 0)
(1.94651e-05 0.00016591 0)
(-1.33168e-05 5.88585e-05 0)
(1.86094e-05 0.000143517 0)
(-1.47275e-05 7.53592e-05 0)
(-3.01789e-06 4.03843e-06 0)
(1.18662e-06 1.11075e-06 0)
(-1.58842e-06 2.89572e-06 0)
(7.75325e-06 0.000119185 0)
(-8.50711e-06 0.000122736 0)
(1.51444e-06 1.81579e-06 0)
(-2.34519e-07 3.91758e-08 0)
(-1.87889e-05 0.000252827 0)
(1.07603e-05 0.000321647 0)
(1.20755e-05 0.000322256 0)
(2.34163e-07 3.91256e-08 0)
(3.41259e-06 4.53258e-06 0)
(1.6851e-05 0.00029274 0)
(-6.39632e-06 0.000135731 0)
(-4.15889e-07 3.62549e-07 0)
(-9.41948e-07 1.45576e-06 0)
(-1.4701e-07 3.75721e-08 0)
(2.75648e-07 2.13302e-07 0)
(1.73922e-05 0.000108103 0)
(-1.73499e-05 0.000106848 0)
(5.33021e-06 8.14508e-05 0)
(-6.55576e-06 0.000133241 0)
(5.53484e-06 8.35486e-05 0)
(-2.84117e-07 4.8331e-06 0)
(-4.04058e-06 0.000213309 0)
(3.19623e-06 0.000101975 0)
(-2.25433e-06 0.000210987 0)
(-2.15591e-06 0.000163546 0)
(9.26266e-07 2.10099e-05 0)
(1.75717e-06 0.000100121 0)
(-7.13391e-06 0.000135037 0)
(3.63704e-06 4.80268e-06 0)
(5.97053e-06 8.20676e-05 0)
(2.222e-06 0.000120923 0)
(1.69346e-05 0.000302338 0)
(-5.15034e-06 0.000121923 0)
(-5.92203e-06 0.000122754 0)
(-4.77874e-06 1.01845e-05 0)
(-5.74341e-06 0.000126665 0)
(-4.91148e-06 0.000125784 0)
(5.11013e-06 8.90799e-05 0)
(4.48908e-06 8.99606e-05 0)
(-5.36688e-06 2.48167e-05 0)
(1.12112e-05 0.000155511 0)
(1.20685e-05 0.000202222 0)
(-1.47763e-06 1.63865e-06 0)
(-7.14703e-06 0.000133951 0)
(6.01232e-06 8.29858e-05 0)
(-4.55747e-06 0.000172475 0)
(-4.85219e-06 0.000220389 0)
(2.59255e-06 3.99194e-05 0)
(3.28765e-06 7.02242e-05 0)
(2.9548e-06 5.41899e-05 0)
(-2.35873e-06 1.10008e-05 0)
(-1.49417e-05 0.000181916 0)
(-1.4159e-05 0.00018134 0)
(7.88384e-06 3.48217e-05 0)
(7.49961e-06 3.51245e-05 0)
(9.84549e-06 0.000144302 0)
(1.08242e-05 0.000143589 0)
(-5.30033e-06 3.05178e-05 0)
(-5.86907e-06 3.09227e-05 0)
(1.06817e-05 0.000190117 0)
(1.17496e-05 0.000189341 0)
(-4.29637e-06 0.000281476 0)
(8.58049e-06 0.000256977 0)
(8.70398e-06 0.000255774 0)
(-6.33769e-06 8.35564e-05 0)
(7.45113e-06 0.000133208 0)
(-2.25048e-05 0.000313692 0)
(-6.47803e-06 0.000250116 0)
(-6.22114e-06 0.00024894 0)
(2.15307e-06 1.59957e-05 0)
(2.21273e-06 1.55877e-05 0)
(1.94299e-05 0.000252904 0)
(-8.5826e-06 0.00010728 0)
(-7.3681e-06 0.000107317 0)
(1.92233e-05 0.000285632 0)
(-1.94376e-05 0.000301144 0)
(-1.94125e-05 0.000302582 0)