/*--------------------------------*- C++ -*----------------------------------*\
| =========                 |                                                 |
| \\      /  F ield         | OpenFOAM: The Open Source CFD Toolbox           |
|  \\    /   O peration     | Version:  2.3.1                                 |
|   \\  /    A nd           | Web:      www.OpenFOAM.org                      |
|    \\/     M anipulation  |                                                 |
\*---------------------------------------------------------------------------*/
FoamFile
{
    version     2.0;
    format      ascii;
    class       volSymmTensorField;
    location    "3600";
    object      sigma;
}
// * * * * * * * * * * * * * * * * * * * * * * * * * * * * * * * * * * * * * //

dimensions      [1 -1 -2 0 0 0 0];

internalField   nonuniform List<symmTensor> 
11800
(
(143827 73494.3 6.9305e-14 -2726.91 3.67136e-14 35009.9)
(-71615.7 65325.6 1.06391e-13 -650.886 3.37421e-14 -17930.8)
(649940 92961.8 -1.75766e-15 1375.56 -7.69598e-14 161605)
(-564720 48408 0 -1128.54 0 -140398)
(-74168.7 63012.9 1.98498e-14 -5247.67 -5.60863e-14 -19704.8)
(-353482 96280.4 7.6975e-14 2307.44 4.03789e-14 -87133.6)
(-65607.1 92673.7 1.45606e-13 -673.628 -3.78653e-14 -16445.6)
(-92375.9 95954 -2.16814e-14 945.068 8.7237e-14 -22685.8)
(200081 49968.6 2.89421e-14 462.841 -1.9769e-14 49759)
(136618 100794 -7.46555e-14 883.04 -6.28874e-14 34116.8)
(166087 60871.2 -5.78149e-14 1623.48 4.94927e-14 41612.3)
(-819181 35234.1 -6.91114e-14 -6064.66 -3.13597e-14 -204760)
(23107.9 -33567.2 1.25286e-16 -62269.3 9.73543e-17 -9716.73)
(602118 48715.3 6.26648e-14 3726.48 -1.71506e-14 150322)
(-481513 90198.4 -5.22749e-14 6544.79 4.06421e-14 -117849)
(2.23548e+06 -7368.51 0 -7211.93 0 552878)
(-42881.8 72907.5 4.92739e-14 3990.73 4.34546e-15 -9649.66)
(-66122.2 67068.8 -2.78019e-14 7969.18 1.59683e-13 -14428.9)
(138217 114140 -2.83942e-14 -18272.9 2.01866e-14 29760.5)
(104049 61093.3 -9.93565e-14 -11263.6 -3.21384e-14 23022)
(-443783 54828.5 3.09546e-14 -1389.87 3.24425e-14 -110456)
(-716525 84777.6 4.95196e-14 3662.98 -2.8795e-14 -176876)
(-942847 108917 -2.50196e-14 11653.9 1.60974e-14 -231048)
(-865233 63328.2 2.51969e-16 204.729 4.34982e-15 -214631)
(1.82361e+06 80771.4 3.12649e-15 -8050.44 3.62209e-14 450477)
(-1.12456e+06 108422 -2.45648e-14 7879.83 -7.02138e-16 -277070)
(-1.18629e+06 57168.7 0 10402.4 0 -291760)
(585464 43088.5 -8.21092e-14 -5530.86 -4.95903e-14 143893)
(-1.29278e+06 58452.8 -1.41818e-14 11454.8 -6.81255e-14 -317922)
(-1.3999e+06 58998.5 1.88809e-14 13251.2 -2.93661e-14 -344057)
(384613 45567.2 -1.01757e-13 -1980.28 -1.8238e-13 94939)
(76861.6 59639.9 -1.63775e-14 2623.4 -1.35452e-14 19721.9)
(1.14629e+06 104454 -4.00953e-15 13201.5 -1.75514e-14 287693)
(-28402.5 77557.8 1.33084e-14 -1833.79 -9.96523e-14 -7502.25)
(19783 81922.4 -3.51954e-14 2419.3 -1.51084e-13 5508.84)
(-375634 34380.3 -9.23955e-14 -633.741 -6.71244e-14 -93359.6)
(21698.4 82964.8 1.25002e-13 1770.12 -1.4867e-13 5823)
(1.2288e+06 60685.4 -1.47276e-14 6556.41 -6.30437e-14 306518)
(-44624.8 80330.1 0 -1823.3 0 -11524.7)
(99253.9 75489 -4.31034e-14 5828.57 8.0297e-14 26073.1)
(-1.24643e+06 42711.2 -7.65725e-14 -6289.31 -3.55927e-14 -310824)
(-1.35826e+06 42300.5 5.48588e-14 -6685.91 -3.14812e-14 -338671)
(615328 57561.7 -3.16663e-14 -1088.43 -1.0542e-13 152405)
(-1.4708e+06 42751.4 -1.04538e-14 -5590.76 -5.57073e-14 -366323)
(404281 56933.6 2.70471e-13 1177.19 -8.43755e-14 100602)
(2.09026e+06 51617.8 0 -7466.9 0 516784)
(902907 118911 -1.5815e-14 -3496.74 8.28486e-15 223162)
(1.07562e+06 43583.7 -2.79128e-14 -11743.8 -1.93952e-14 263970)
(-104107 83120.6 -1.07226e-13 295.672 -6.60661e-14 -25757.8)
(239277 79733.9 0 2393.81 0 59963.5)
(-850098 47744.6 -5.18806e-15 2550.26 5.50122e-14 -210294)
(-595595 44831.1 1.79778e-13 3416.39 2.10663e-14 -146931)
(-12217.2 81186.2 1.00816e-13 898.244 6.2775e-14 -2808.47)
(44148 130594 -2.19778e-15 8283.59 1.91588e-14 13009.3)
(-2.40255e+06 5226.45 -3.37318e-15 -12419.8 -5.27255e-15 -599202)
(1.88446e+06 -84177.4 4.52126e-15 -86311.1 7.99416e-15 446156)
(-64264.3 21013.7 8.67921e-14 1869.87 3.22326e-14 -15481.3)
(-534318 94776.3 6.47574e-15 -5832.11 -5.3768e-14 -134022)
(428500 60229.3 -5.47696e-14 9008.37 8.02179e-14 108555)
(-378282 99554.8 4.48994e-14 -7298.47 -8.10609e-15 -95670.3)
(1.94847e+06 21645 -3.95988e-14 -14963 -1.37259e-14 479742)
(-52026.2 85304.7 4.26706e-14 881.106 -6.94451e-14 -12690.1)
(-421066 77670 -2.46361e-14 -2737.14 4.23569e-14 -105154)
(336581 77933.5 7.47606e-14 3238.98 -4.26479e-14 84316.3)
(1.80057e+06 12525.3 4.3301e-15 -772.193 -2.61221e-14 446567)
(-262048 33692.6 -1.22086e-13 2125.82 -1.47542e-13 -64491.8)
(-876857 20958.9 8.58752e-14 4480.65 2.86339e-14 -216454)
(-620968 24049.3 2.49538e-15 3954.7 -1.5078e-13 -153094)
(-66569.1 22563.8 0 -3455.99 0 -17374.7)
(-1.04841e+06 60201.8 -1.94755e-15 10787.2 6.42887e-14 -257454)
(-22527.9 82599.6 -2.44577e-14 106.141 5.04943e-14 -5563.3)
(-52225.3 64741.5 -9.42209e-14 -3253.6 1.05409e-13 -13765.4)
(-45868.1 63308 6.60817e-14 -1765.28 -4.04453e-14 -11818.8)
(-1.58618e+06 344375 -5.6715e-15 196697 5.12745e-15 -344758)
(1.93204e+06 70317.3 -1.53097e-15 -6883.72 -1.57517e-14 477669)
(-352986 52013.2 -9.07764e-14 3697.87 -6.60238e-14 -86665.4)
(1.8859e+06 13235.6 -3.32506e-14 3901.93 2.95902e-14 468899)
(-254595 20820.9 8.026e-14 -145.295 -2.63337e-13 -63206.3)
(-188735 43435.1 1.5094e-14 265.415 -1.44038e-14 -46763.2)
(-178461 56904.3 1.54106e-13 2427.73 1.54532e-13 -43677.5)
(-2.42121e+06 -46391 1.225e-14 10528.1 5.73734e-14 -598139)
(105743 55507.1 0 8866.44 0 28437)
(56474.1 66896.8 -1.60208e-13 1754.1 -6.31236e-14 14447.6)
(39152.9 71387.8 5.5545e-14 1280.24 -4.37954e-16 10032.3)
(-83202.9 63686.4 3.79967e-14 -8576.22 1.07526e-13 -22772.3)
(-1.36393e+06 72225.8 -2.11745e-14 -7590.26 1.06868e-13 -340301)
(417006 51995.5 1.29277e-13 4327.96 -4.02087e-14 104542)
(-1.25647e+06 70096.7 0 -7098.62 0 -313518)
(-1.15118e+06 68676 -4.4531e-14 -6349.49 -4.55951e-14 -287206)
(618630 49176.9 5.92234e-14 5462.99 3.61923e-15 154850)
(-13106.9 80594.6 -2.08873e-13 -2935.87 -1.33959e-13 -3980.54)
(1.35632e+06 96415.5 0 -4315.3 0 335461)
(-111666 70670.9 -4.43147e-14 1867.06 -7.34713e-14 -27243.4)
(70324.9 16526.7 -2.5549e-14 4778.45 -3.70766e-14 18634.7)
(169367 71446.4 1.96017e-13 1261.73 3.50956e-15 42336.4)
(53460.4 -40314.8 -7.97429e-16 -113524 -5.91063e-16 -14902.9)
(-2834.21 11087.5 2.07659e-17 6658.61 -1.23514e-16 948.912)
(-53981.5 -40073.1 -5.04774e-16 113248 3.36237e-16 14705.2)
(-13128.1 81968.7 -6.49386e-14 80.6612 -9.44629e-16 -3237.33)
(-713827 53359.2 -1.59242e-14 -2743.36 6.3515e-14 -177796)
(50100.8 38422.5 3.56896e-14 -100.478 -9.98293e-14 12406.1)
(777863 60157.7 -7.71428e-14 -7208.09 -1.06715e-13 191215)
(-1.28612e+06 109330 5.17199e-15 -439.836 1.05269e-14 -319222)
(-421945 74204.1 -3.19435e-15 6661.33 1.00848e-14 -103040)
(-1618.3 87332.7 -1.00208e-14 -794.069 -4.98556e-14 -598.559)
(334647 99562.2 -2.06863e-14 2516.72 -3.57683e-14 83657.3)
(-159482 72590.6 -6.13364e-14 -613.97 1.35228e-13 -39723.1)
(-111768 75923.2 -2.07843e-13 -787.647 -1.00231e-13 -27927.4)
(1.91919e+06 20707.7 1.16761e-14 4866.43 2.43326e-14 477398)
(1.26653e+06 59842.6 1.90323e-14 4459.59 3.87028e-15 315359)
(1.3752e+06 61162 3.64685e-14 5230.27 5.07705e-14 342512)
(1.16084e+06 58891 1.33496e-13 4198.27 7.90991e-14 289069)
(-422196 53585.5 6.05741e-14 -4074.31 9.4593e-14 -105766)
(-625920 52454.7 -1.60201e-13 -4555.4 5.75903e-14 -156434)
(226574 65331.7 6.83164e-14 155.197 -3.58099e-14 56256.1)
(1.72814e+06 35380.9 1.75882e-14 -184.261 1.03705e-14 428741)
(243263 31250.8 -4.99155e-14 -3067.06 -1.96241e-13 59597.4)
(-76901.3 76191.6 -1.73098e-13 949.971 1.61844e-13 -18845.1)
(1.61852e+06 75453.4 -2.01618e-14 993.823 2.51186e-14 401834)
(-138466 104468 -5.60559e-14 -14.4686 -1.50857e-14 -34359.7)
(-216054 43903.3 -3.84982e-14 3255.17 -1.621e-14 -52799.8)
(67309.4 92699.3 1.23891e-13 -2767.98 -1.77351e-13 16014)
(96074.1 98477.4 -8.63249e-14 -1883.87 5.93709e-14 23370.5)
(-68625 76233.4 -2.51254e-14 3393.86 -3.70656e-14 -16185.2)
(-117650 66930.7 -1.57619e-13 -1005.02 -1.22988e-13 -29440.6)
(-2900.5 80710.3 -1.51493e-13 -2488.26 -1.13987e-13 -1337.06)
(-36400.7 80064.7 -9.08216e-14 -1191.29 9.97756e-14 -9327.34)
(-8019.12 81891.3 -5.93737e-14 -2124.32 -5.65817e-14 -2516.79)
(9158.05 56139 2.82224e-15 39078.1 1.26411e-13 11968.4)
(-37157.2 6572.7 -4.1732e-16 -8577.08 6.00812e-14 -11347.6)
(-2.03549e+06 -328041 1.82887e-14 84285.8 -9.23916e-15 -484133)
(-1.46813e+06 73060 1.31945e-14 -11218.7 -2.01137e-15 -367057)
(455523 47484.1 6.83996e-14 3815.73 -6.67065e-14 113971)
(-1.35975e+06 74728.6 -5.27271e-14 1010.16 3.3109e-14 -337131)
(660379 43537.7 -3.08041e-14 4469.38 9.33036e-14 164962)
(-1.24996e+06 71688.9 2.01196e-14 1232.59 2.02132e-14 -309836)
(-1.14357e+06 69661.3 -1.16035e-13 1655.23 8.8659e-14 -283333)
(379145 66597.1 6.69934e-14 -4453.49 1.86682e-13 92968.5)
(-1.16288e+06 30056.6 7.20278e-14 8035.51 -9.90167e-14 -286540)
(553421 69616.5 8.31158e-14 -5351 -6.6177e-14 135987)
(-1.06978e+06 30820.2 5.96624e-14 7041.17 -1.0273e-13 -263687)
(-979203 32529.6 -6.18628e-14 6944.79 -5.56925e-14 -241237)
(-548166 90723.5 4.63014e-15 16607.9 4.64929e-14 -131890)
(167264 76468.7 -3.34477e-14 -5941.97 -2.2275e-13 40027.2)
(239170 74030.3 -5.34513e-14 -7573.64 -1.54421e-13 57463.8)
(-349443 72267.9 -1.60811e-14 11159.6 9.26368e-14 -83934.9)
(1.41147e+06 45976.1 -1.01904e-13 1854.22 -3.43742e-14 350675)
(-1.45657e+06 -18529.2 9.7984e-14 -11683.7 3.02928e-14 -364302)
(818960 44357 6.89612e-14 -2803.26 -6.42285e-14 202505)
(-418472 44741.7 1.53766e-15 7463.55 9.12899e-15 -101979)
(-191538 72978.7 -8.67318e-14 2318.93 -7.16625e-14 -46949.1)
(-200709 60717.6 7.42247e-14 -2491.02 -6.71491e-14 -50418.1)
(21185.3 81338.9 5.64245e-14 1555.18 1.03056e-13 5642.38)
(-284985 53007.1 -1.26892e-13 -553.213 1.31583e-13 -70847.9)
(244607 63670.9 -6.65181e-14 -4557.34 -7.02807e-14 59561.2)
(165803 72665 -6.09664e-14 2501.56 4.69904e-14 41759.8)
(-529677 59584.6 1.03187e-13 7683.34 -6.94577e-14 -129517)
(-741466 65900.5 3.74982e-14 3150.38 8.20512e-14 -183191)
(1.50466e+06 20826.3 2.31448e-14 1784.27 -3.08994e-16 373780)
(-6875.25 85409.7 2.96203e-14 -529.494 -1.44067e-13 -1837.27)
(2.18413e+06 80283.3 -2.6968e-14 -13435.5 -1.46961e-14 538594)
(-234635 65556 -1.09605e-13 1104.63 7.55211e-14 -57943.5)
(1.89796e+06 51583.4 0 -19557.4 0 466070)
(-542648 66416.9 3.22361e-14 -5275.17 1.34564e-13 -135951)
(-592550 66528.4 -3.30498e-14 -6091.83 3.92052e-14 -148535)
(-642529 67925.9 -5.34409e-15 -6292.19 1.41778e-13 -160986)
(298641 73436.3 -8.12382e-14 960.433 1.99803e-14 74337.1)
(202944 75333.8 -8.66799e-14 421.832 2.13996e-14 50459.1)
(-2.37755e+06 -18742.7 2.13844e-14 -9072.16 -1.21974e-14 -592168)
(-1.47749e+06 71543.6 -2.19948e-14 -8578.93 4.14775e-14 -368725)
(518513 51204 -8.65195e-14 4950.3 -5.06334e-14 129882)
(719876 47971.8 2.43e-13 5572.93 -1.306e-13 179999)
(80859.4 81527.2 4.75706e-14 -8036.06 -1.22988e-13 18068.9)
(-423244 37430.2 0 1708.09 0 -104592)
(-428920 20990 1.30109e-13 -2400.79 -6.6141e-14 -107020)
(2.08394e+06 56724 3.50164e-14 -14771.7 2.33569e-14 513402)
(2.13318e+06 -12702.2 2.90244e-14 13338.7 2.56494e-14 532594)
(1.12011e+06 24863.7 1.77028e-15 -1029.96 6.13474e-14 277666)
(1.02773e+06 26794.5 1.25267e-14 -542.165 1.48945e-13 254867)
(1.2151e+06 22591.4 3.17025e-14 -2107.93 -4.58233e-14 300968)
(-528517 71377.8 -7.84757e-14 4503.43 7.0608e-14 -130018)
(-351115 67665.1 -7.61425e-14 3236.22 8.35107e-14 -86315.8)
(230189 94935.3 0 1971.47 0 57603.7)
(156875 92340.1 -3.16647e-15 799.422 1.21057e-13 39122.3)
(501894 71320.6 -9.32743e-14 -212.427 7.62643e-14 124477)
(-211988 67457.7 -7.4591e-14 2699.81 1.7685e-13 -51928.7)
(-331676 101356 -1.47806e-14 4045.74 6.53505e-14 -81291.8)
(102386 74342.5 -2.77385e-13 -867.651 -7.36052e-14 25188.7)
(145804 70577 -1.91838e-13 -933.451 8.02648e-14 35945.2)
(-89871.4 84871.9 -3.74021e-14 2153.71 -5.23024e-16 -21764.5)
(-251936 56562.6 -3.09452e-14 5531.22 -1.93226e-14 -61138.1)
(-231558 57450.7 2.04457e-14 4756.97 -3.491e-14 -56273.8)
(-233940 42528.5 0 -513.229 0 -58172.5)
(-112339 104955 4.24764e-16 -5163.23 -4.0568e-14 -29154.7)
(-1.07485e+06 3687.64 9.08749e-14 -7012.71 -3.97918e-14 -268433)
(1.34935e+06 54708.8 -1.18097e-13 -6031.66 -1.18886e-14 333303)
(1.66671e+06 173187 7.02983e-15 -286912 3.55347e-15 342356)
(-39733.5 71794.5 2.47702e-14 -3429.96 -5.61446e-14 -10709.7)
(253991 25389.3 9.03901e-14 2179.38 -2.06365e-13 63561)
(-2.08813e+06 -259631 1.75698e-14 170324 -1.13718e-14 -475847)
(118176 57273.2 3.86832e-15 3810.92 1.04878e-13 30267.5)
(323285 40327.2 7.29728e-14 1226.28 -8.3771e-14 80517.9)
(357099 44117.9 1.01892e-13 -5251.5 -4.29899e-14 87300.6)
(-4565.73 84433.8 7.67489e-14 -84.9856 -1.13825e-14 -1153.94)
(-5213 87269.1 8.09575e-14 -631.338 6.84607e-15 -1450.1)
(976811 33253.7 2.58674e-14 -5251.89 8.60678e-14 241064)
(809620 90981.3 3.28891e-14 6735.02 -7.93154e-15 202554)
(-736368 75470.5 0 7030.95 0 -180963)
(-629576 40961.8 -8.36816e-14 -9917.05 -5.2344e-14 -158671)
(2.02973e+06 -331354 -7.37229e-15 -86411.9 -4.98417e-15 482178)
(-621672 117003 -6.7024e-15 17126.7 7.81877e-14 -150000)
(-994876 40241.2 4.61354e-14 -2461.84 -2.72001e-14 -247460)
(-2.1167e+06 -852286 -1.98405e-14 444660 7.76112e-15 -414866)
(2.53041e+06 2286.87 0 34581.2 0 636427)
(-1.85373e+06 -789422 -6.45668e-15 209892 1.99787e-15 -407869)
(324194 116788 -4.39627e-14 -51.0768 1.55063e-14 80426.4)
(-72700.5 68767.8 -7.82859e-15 -1258.83 1.09463e-13 -18350.8)
(-954048 85678.6 3.8988e-14 -8010.8 -4.28856e-14 -238706)
(-872245 85347.5 5.80983e-14 -7007.84 -7.25275e-15 -218160)
(-799500 83212.1 -6.62692e-14 -6323.39 2.57258e-15 -199941)
(284359 60263.8 5.80717e-14 3876.8 -1.6202e-13 71517.2)
(426568 57236.7 -1.45756e-13 4839.22 1.41697e-13 107041)
(42169.9 73605.1 -2.2915e-14 -7683.06 1.07544e-13 8556.88)
(60067.1 69008.9 5.42455e-14 -10269.7 6.94899e-14 12355.7)
(-137839 110703 -6.18548e-14 22324.1 1.67379e-14 -28661.6)
(-87342.8 64539.8 4.61412e-14 15180.5 -5.90162e-14 -17904.9)
(-1.16078e+06 -467208 -5.00196e-15 -28728.6 1.04514e-15 -295140)
(215615 111577 -3.51346e-14 16417.4 -1.24532e-13 57571.9)
(-107034 66270.8 -1.21132e-13 -8601.52 -5.53733e-14 -28691.6)
(-502651 104286 0 177.066 0 -124674)
(215369 62080.4 9.31682e-14 1427.87 -3.80374e-14 53791.7)
(-105902 89846.9 0 -473.294 0 -26393.8)
(-79452.8 72274.8 -5.8943e-14 -743.395 -9.33606e-14 -19898.3)
(750204 74656.5 8.2516e-14 4385.72 -8.6294e-14 187229)
(770762 47258.5 1.26311e-13 -77.4847 6.03263e-14 191222)
(2.11351e+06 -851057 -7.42159e-15 -444894 -2.45542e-15 414017)
(1.15882e+06 -466877 8.67115e-15 28511.8 2.37865e-15 294602)
(-234921 52764.5 1.79682e-14 1787.62 2.55692e-14 -57845)
(-250838 53796.1 -5.45869e-14 -2810.97 -1.11621e-13 -62935.5)
(-1.33694e+06 1271.39 -6.00653e-14 -5291.42 -1.37656e-14 -333035)
(1.08353e+06 51066.1 1.36015e-13 -3922.04 -3.5537e-14 267872)
(351152 68518.1 4.50559e-15 -2832.24 2.47265e-13 86425.1)
(527803 73226.8 8.40028e-14 -3642.56 9.1334e-14 130055)
(-1.2171e+06 23139.5 -2.20263e-15 -1174.47 5.21823e-14 -302280)
(-1.12427e+06 26625.2 -5.30546e-14 -784.644 1.75435e-14 -279148)
(-1.0311e+06 28873.2 -3.53748e-15 -880.467 8.24057e-14 -256056)
(-15681.7 86619.9 -1.27779e-13 -938.432 3.69579e-14 -4123.79)
(-1.32052e+06 24953.5 3.44841e-14 -2142.16 3.70849e-14 -328180)
(440775 68660.1 -8.60946e-14 -2905.03 4.22332e-14 108645)
(617901 72115.9 0 -3514.16 0 152442)
(583113 54590.9 3.28053e-14 -4299.3 7.82832e-14 143615)
(112538 72125.1 -1.07985e-13 1006.58 -2.85456e-13 28172.8)
(9585.23 74844.3 -9.46284e-14 -8723 -3.48009e-14 213.937)
(479535 40699.6 -1.20226e-13 15084 2.15498e-14 122725)
(-406141 56612.3 -1.02876e-14 -1169.96 -8.32442e-14 -101062)
(64258.9 77216 1.40055e-15 -15193 1.74932e-14 12174.2)
(1.85025e+06 -788914 -6.71616e-15 -210778 -1.6905e-15 406785)
(288623 79246 8.53682e-15 -2624.52 -1.58045e-13 70961.9)
(347914 77212.4 7.35769e-14 203.703 2.50231e-14 86375.1)
(-228602 76465.5 0 -224.46 0 -56776.5)
(-271521 85846.7 2.74597e-14 -6846.4 -7.64203e-14 -69068.7)
(801481 82866.9 0 7557.72 0 200739)
(874365 85310.1 4.85594e-14 8014.78 4.60748e-14 218936)
(947417 88995.3 -1.08711e-13 8302.15 -1.05026e-14 237133)
(-427031 54311.3 1.53854e-13 -5642.12 1.56278e-13 -107355)
(-287909 59011.8 8.08535e-15 -4137.98 -9.35336e-14 -72462.8)
(-15668 82801.4 9.1018e-14 -117.856 4.84561e-14 -3916.79)
(1.90323e+06 13475.3 -1.41102e-14 -30042.7 -2.58146e-14 464776)
(-12057.9 95926.4 -9.83364e-14 -5891.67 3.06368e-14 -4453.65)
(24341.2 48919.3 -9.39823e-14 11532 -5.84942e-14 8900.87)
(42275.4 78699.3 7.07238e-14 1203.39 -1.64124e-13 10788)
(453752 78410.9 7.52957e-14 230.505 7.95569e-14 112642)
(-178582 5215.17 -1.25185e-13 -3132.82 6.13517e-15 -45087.2)
(599653 87546.2 0 -3705.44 0 147867)
(2.00242e+06 -84431.9 3.25117e-16 -280335 1.30697e-16 427283)
(452612 21705.7 7.22676e-14 6623.14 1.64325e-13 113945)
(434840 33899.4 3.27527e-14 -6437.68 1.78464e-14 106295)
(-652849 74583.8 1.07632e-14 6072.34 2.2724e-14 -160478)
(-464392 70122.5 -8.38772e-14 4959.49 2.6866e-14 -113995)
(-556321 46577.8 -1.71481e-13 -2342.87 -2.99964e-14 -138616)
(-398806 51349.2 8.6571e-15 -2803.19 -9.10233e-15 -99647.4)
(1.38407e+06 20827.6 -5.99913e-15 -3642.67 1.97388e-14 342511)
(1.14594e+06 94682.3 2.48142e-15 -357.625 -4.08202e-14 284241)
(329309 86136 1.51796e-14 -3856.72 8.97774e-15 80751.3)
(443026 71532.4 2.84959e-14 -92.2577 4.84716e-14 109901)
(242688 85349.4 7.92803e-14 -4269.56 5.64841e-14 59156.5)
(325573 71897 7.10926e-14 -1888.81 -1.12517e-14 80312.6)
(-626447 51322.9 -1.30979e-14 6288.35 3.28656e-14 -153874)
(-823956 80181.7 -3.63312e-14 2113.9 6.52955e-15 -203916)
(-188924 126117 4.03475e-14 -730.197 2.88021e-14 -47057.1)
(1.35906e+06 56982.9 4.50648e-14 5342.39 3.23394e-14 338537)
(1.47372e+06 56859.9 -9.76465e-15 23856.8 4.85227e-15 371579)
(1.74831e+06 57916.8 7.9286e-15 -2233.05 4.99557e-15 433237)
(121544 80504.3 -1.54285e-13 146.036 1.8733e-13 30193.7)
(-446677 22804.8 -9.55965e-14 -5826.37 -4.9147e-14 -112275)
(-431880 36720.1 -1.21303e-13 4372.49 8.11286e-14 -106073)
(2.04124e+06 -7740.57 0 13355.5 0 509787)
(2.04661e+06 63720.5 0 1519.9 0 508182)
(1.21829e+06 49886.1 1.87149e-14 -1856.19 8.91718e-14 301821)
(1.20831e+06 8696.03 5.98123e-14 5062.64 -1.68002e-13 301062)
(-1.25602e+06 11149.6 0 -9602.5 0 -314027)
(-1.22464e+06 50051.7 0 8334.76 0 -301791)
(35263.5 78387.6 -2.12604e-14 2587.17 6.08912e-14 9391.52)
(-86459.9 34166.7 2.27529e-13 -5119.43 -9.62988e-14 -22722.7)
(-332043 34372.1 -5.99936e-14 -3533.06 -2.21339e-14 -83263.3)
(2.67321e+06 3691.01 0 54214.6 0 676730)
(-47224.1 68962.5 -1.50041e-13 -1871.81 -3.74503e-15 -12181.7)
(-55830.6 71758.8 -2.16108e-14 -4956.02 -1.20187e-13 -15082.4)
(292794 92781.5 -7.73878e-14 -6574.86 -5.30319e-14 71016.8)
(-231294 91223.9 -1.61244e-13 -6773.22 6.75188e-14 -59069.3)
(280194 55952 4.68275e-14 -7779.15 -4.8429e-14 67591.7)
(-1.07284e+06 47308.8 3.31852e-14 -9671.64 -6.75709e-14 -268593)
(1.08086e+06 51778.8 -1.37739e-14 -10907.3 -8.26262e-14 265478)
(-1.82219e+06 78187.5 1.43095e-14 -11277.8 -6.12056e-14 -454920)
(-2.16224e+06 -195998 7.57729e-15 401751 -5.45272e-15 -436813)
(754659 102031 -1.20615e-14 -15817.2 1.49857e-14 183322)
(85307.6 100375 -8.00516e-15 -4616.78 4.50563e-14 20021)
(-1.01247e+06 82448.5 -4.01044e-14 -4888.08 -1.12333e-13 -252427)
(850966 27746.9 -5.21984e-14 10504.4 7.52736e-14 213748)
(-589842 50514.1 5.75804e-14 -10302.7 7.38404e-14 -148908)
(460144 81148.8 8.64861e-14 5627.81 1.5139e-15 115567)
(85760.8 88724.4 2.41272e-14 4865.32 1.12897e-15 22486.2)
(147554 68696.8 -1.02038e-13 -967.467 1.28137e-13 36371.2)
(-293103 59212.3 7.00387e-14 -18676.7 -7.4389e-14 -77358.9)
(-474198 117739 1.14958e-15 8008.58 9.36827e-14 -115671)
(-268951 60005.5 1.0798e-14 -17318.7 -7.52422e-14 -71029.3)
(-434963 113698 6.83244e-14 7210.44 -2.49677e-14 -106134)
(107618 49224.1 -4.28858e-14 -3226.56 1.33245e-14 25901.7)
(-50842.4 97270.3 -1.1359e-15 2591.08 -8.42458e-14 -11972.1)
(-33242.2 95673.7 1.04504e-13 2469.18 8.38143e-14 -7635.41)
(-22346.8 85538.7 5.37908e-14 720.997 -1.17115e-13 -5365.8)
(1.44855e+06 40415.5 3.09506e-14 3873.54 4.7974e-15 360377)
(-15048.7 97674.2 -1.18202e-13 -6889.6 -5.25366e-14 -5443.34)
(-57335.9 71225.7 5.84031e-14 -4945.58 -1.95547e-13 -15453.3)
(2.01869e+06 -58867.1 -1.53534e-14 -104400 -1.12078e-14 474973)
(335223 57902.7 6.22479e-14 -5241.98 -7.98482e-14 81874.9)
(-777279 101149 4.16028e-14 14029.4 1.12332e-14 -189378)
(-891149 64476.6 -6.796e-14 1954.2 -2.97366e-14 -220627)
(-884900 29372.9 0 -10497.4 0 -222166)
(1.11356e+06 17357.7 -6.11936e-14 5701.23 -2.90965e-14 277712)
(1.06651e+06 73102.7 3.72357e-15 9438.45 7.28865e-14 266964)
(-34401.2 59268.2 -6.90845e-14 1088.8 5.6309e-14 -8265.48)
(-26188.4 59704.8 5.01181e-14 1673.67 -2.80213e-13 -6082.61)
(-696520 108375 -2.74827e-14 7850.04 -6.74673e-16 -170873)
(-938007 77020.4 0 11690.5 0 -229838)
(662426 48260.7 1.50449e-14 7245.61 3.70223e-14 166159)
(-1.71297e+06 96573.7 6.57822e-15 -7812.97 -2.08087e-14 -426960)
(59988.6 67678.1 0 15006.3 0 18607.8)
(945323 41461.8 -3.26403e-15 -2378.33 2.26025e-14 233964)
(716916 105155 -1.76217e-15 6579.23 8.58049e-17 179514)
(-451731 85927 1.28457e-13 4818.36 -1.65185e-14 -110888)
(-350826 58534.9 -1.25484e-14 -2576.89 9.05079e-14 -87686.4)
(-322110 81962.9 1.98726e-14 3720.7 -7.55241e-14 -78998.8)
(-252286 62484.5 -1.12328e-15 -2572.79 4.43707e-15 -63235.7)
(-360088 39539.6 4.6465e-14 452.489 6.86173e-14 -89232.8)
(-303521 44996.8 -8.12779e-14 3415.28 1.63564e-14 -74462.4)
(-370396 104132 0 1185.94 0 -91608.6)
(-416244 105664 -4.09489e-14 -758.992 3.55751e-14 -103467)
(-453062 109282 -3.3433e-15 -755.966 -3.81168e-15 -112602)
(123477 67878.5 -2.00054e-13 1349.65 -1.00008e-13 30972.1)
(-24717.5 81401.7 -4.44039e-14 -2383.1 8.83802e-14 -6724.21)
(891838 40708 -2.50274e-14 5590.45 7.12895e-14 222670)
(933631 55482.9 3.46569e-14 -6220.81 -6.73446e-14 230109)
(154488 71851.2 7.19904e-15 873.523 -4.98714e-14 38548.5)
(226221 65364.4 0 2647.27 0 56787)
(-490996 104959 5.12602e-14 -3192.88 -5.63379e-14 -122618)
(434543 63184.3 -9.79844e-14 4731.29 -1.23626e-15 108993)
(474506 93738.7 -4.28915e-14 5529.51 -2.65338e-15 119106)
(-173635 78276.3 -8.22172e-14 -1004.27 1.17824e-13 -43331.6)
(-148016 81786.2 4.79692e-14 -1951.42 2.81514e-15 -37210)
(-212828 85730.6 7.77306e-14 -747.183 2.76464e-14 -52992.3)
(-236317 73691.7 0 -2470.36 0 -59247.9)
(-1.02898e+06 42982.1 2.28285e-14 -68.1267 -3.48316e-14 -255329)
(475589 75603.9 -3.76449e-14 -764.08 -1.48839e-13 117814)
(338508 73552 -1.72444e-14 -1063.44 -2.46466e-15 83726.8)
(-112073 201775 -1.04564e-14 21311.5 -7.47873e-15 -22519.8)
(1.23296e+06 33749 -7.89757e-14 -9056.67 -4.73075e-14 303676)
(-1.44048e+06 10090.3 6.83735e-14 2258.25 4.09139e-14 -356851)
(-166295 186715 0 -7280.46 0 -43067.7)
(-170729 76162.7 2.87401e-14 2157.82 8.67497e-14 -41825.8)
(-144266 80396.6 -2.16175e-13 3794.31 -5.48333e-14 -34854)
(-248719 74754.4 9.32351e-14 1635.58 1.04312e-15 -61306.4)
(-214212 82027.9 0 3143.04 0 -52370.6)
(486422 60769.9 4.75326e-14 -4137.16 -7.65068e-14 119665)
(558432 85251.2 1.73557e-14 -3476.99 7.35571e-15 137696)
(453545 64639.9 -3.53544e-14 -8477.17 3.38443e-14 110430)
(528856 87861.3 3.77405e-14 -6029.04 1.04272e-13 129724)
(415746 64494.7 2.96104e-14 -7546.13 4.9678e-14 101283)
(484681 85957.3 -6.43329e-14 -5477.93 3.67603e-14 118900)
(382414 38378.4 2.93267e-14 54.9437 1.10736e-13 94898.4)
(369002 22645.7 8.62348e-14 2579.44 1.84621e-13 92196.8)
(-732392 84367.3 -1.6469e-14 557.843 2.16307e-14 -181583)
(344360 80422.2 -8.9316e-14 -4411.26 -2.17119e-15 84348.2)
(-819900 60750.2 0 6826.9 0 -201740)
(1.41768e+06 89049 4.81807e-14 -12156.1 -3.031e-14 348738)
(-716709 37612.9 8.99927e-14 2710.39 -1.4785e-13 -177158)
(-522244 43170.5 1.08683e-13 818.283 -7.30339e-14 -129376)
(-1.59732e+06 -755129 -6.14674e-15 254356 1.37573e-15 -333216)
(47475.4 76337.6 1.2141e-13 229.888 -3.18787e-14 11836.6)
(1.50423e+06 49322.9 -1.61011e-14 -3609.74 -8.16332e-16 372334)
(-732038 58060.3 -2.51884e-14 2645.03 -7.30253e-14 -180977)
(-526693 56196.1 1.57458e-13 2315.68 7.74792e-14 -130109)
(2.24238e+06 -16734.3 2.61786e-14 -4870.9 1.1654e-14 555171)
(-101001 67981 -1.74128e-14 -1473.32 6.98448e-14 -25425.9)
(1.54935e+06 12886.8 4.00451e-14 4539.38 -2.48831e-14 385552)
(-363940 59171.2 5.44799e-14 1556.93 -9.60334e-14 -89914.5)
(-1.27988e+06 88075.9 3.24718e-14 13109.4 -4.2302e-15 -314312)
(-1.20303e+06 55935.8 -1.98354e-14 -7268.52 -1.50976e-15 -300299)
(1.1652e+06 57484 -3.75535e-14 1783.45 2.4555e-14 289552)
(-148572 79447.6 -2.3775e-13 6038.99 -1.08207e-13 -35365.4)
(-3496.95 -40555.3 2.50154e-16 -63569.1 8.88928e-17 -16640.5)
(-18325.6 72642.8 0 3051.94 0 -3789.69)
(-2.11985e+06 -677354 1.00951e-14 267214 -2.78521e-15 -459678)
(1.59369e+06 -754623 1.19516e-14 -256737 3.76405e-15 331725)
(-1.02278e+06 91891.2 4.19705e-14 -8560.59 -4.07019e-14 -255895)
(354936 57081.2 1.81992e-14 3246.62 7.02363e-14 88872.3)
(492658 52302.7 -5.85291e-14 4279.27 1.33221e-13 123300)
(142477 74919.3 1.17221e-13 -1347.1 3.49058e-14 35017.2)
(-266071 15376.3 6.79356e-14 122.699 -1.04461e-13 -65987.1)
(239199 97442.5 -5.6467e-14 -1519.96 5.16692e-14 58972.9)
(-121428 59456.4 1.66814e-14 825.311 2.55745e-14 -29924)
(-110352 106883 1.19516e-14 4426.74 3.46636e-14 -26282.3)
(-1.73909e+06 2475.51 -5.53824e-15 47055.5 1.31445e-14 -419828)
(14213.5 -24135.3 6.56489e-17 -42137.4 4.07425e-17 -6928.47)
(-602599 96850.6 -2.50833e-16 7496.79 4.72565e-15 -147657)
(474096 53893.1 4.23532e-14 -2988.05 1.3121e-13 116891)
(1.80424e+06 -349397 1.06094e-15 -47712.5 1.37608e-15 435830)
(-53871.7 58984.3 -1.0882e-14 -9196.41 -8.45895e-14 -15648.5)
(-60439.1 99768.1 8.63363e-15 -4058.68 8.25839e-14 -16003.2)
(-34367.8 86996.4 -1.4775e-15 336.524 -1.26481e-13 -8443.85)
(-89285.6 74299 -2.33811e-14 3413.65 3.18605e-14 -21306.6)
(40259.5 85776.8 3.78223e-14 -1481.81 9.77335e-14 9621.54)
(26562.4 87965.2 -8.88878e-14 -322.5 -2.90171e-14 6510.66)
(-1.80857e+06 -347364 4.52172e-15 46066.8 -1.39809e-15 -437313)
(636151 90767.3 -3.45415e-14 2289.65 1.86874e-14 158410)
(-223082 73674.1 -2.37942e-13 -460.073 -6.7504e-14 -55465.3)
(750061 77420.9 1.23848e-13 5371.21 -2.09631e-13 187438)
(688525 76113.9 -1.53617e-15 4744.9 -8.04065e-14 172014)
(630158 73586.3 -2.3001e-13 2571.24 3.47059e-14 156993)
(109129 42872.5 -1.16278e-13 4030.09 -4.34992e-14 28077.1)
(-1.47432e+06 31229.2 6.22794e-14 -3856.24 -6.04311e-14 -366765)
(465576 58795 1.26089e-13 -2627.48 1.3603e-14 114867)
(660644 60822 -5.70877e-14 -2593.05 -8.16405e-14 163276)
(-126888 73363.4 -2.01521e-13 -362.732 -3.39745e-14 -31573.5)
(941661 99368.4 1.31591e-14 -12420.1 1.90021e-14 230563)
(180903 56882.3 -8.15415e-14 94.1563 5.523e-14 44909)
(-1.88537e+06 22945.6 -2.10706e-14 -2483.12 -7.79436e-15 -468414)
(54822.3 75186.6 -1.05157e-13 1861.91 -8.84623e-14 14064.5)
(-159545 80222.7 -2.09099e-13 1575.73 9.87336e-14 -39195.5)
(538698 61332.7 1.57386e-13 1303.78 -2.26558e-14 133985)
(494408 61492 1.47112e-13 872.897 3.57944e-14 122889)
(452091 59905.1 -1.06681e-13 -1035.07 2.93909e-14 111916)
(981464 44990.3 1.58263e-14 83.8984 3.32369e-14 243542)
(215483 80048.1 -7.05693e-14 3116.1 -1.51221e-13 54239)
(-541454 66165 4.79962e-14 -8380.55 1.07349e-15 -136425)
(-423369 119846 2.92527e-14 3888.84 3.26119e-14 -104081)
(-237535 49492.5 0 1752.71 0 -58502.3)
(-752222 88933.3 -6.46909e-14 -8559.24 1.9692e-14 -188765)
(-821658 91345.9 -9.72894e-14 -9485.38 -6.4289e-15 -206224)
(-893376 95010.9 -9.70874e-14 -10732.9 4.67678e-14 -224328)
(425798 59995.5 2.00131e-15 6889.56 2.48316e-14 107359)
(291080 65134 3.14349e-14 4863.48 -3.93525e-14 73429.6)
(76040.1 7544.66 -9.139e-14 3820.25 3.29658e-14 19815)
(150179 62571.7 0 -1808.39 0 36813.8)
(193012 50597.2 -1.07014e-13 1598.27 6.38688e-14 48286.7)
(2.18394e+06 -106126 -5.67489e-15 -287722 -2.73728e-15 470490)
(833625 41861.1 1.05283e-13 1119.31 -1.08039e-13 207117)
(-640097 80876.8 0 1174.18 0 -158530)
(-448386 73318.7 -5.21783e-14 8780.61 -2.29208e-15 -109075)
(360130 77436.6 2.78664e-14 -3631.53 -3.44613e-14 88454.5)
(-114869 91276.1 4.65605e-14 -2565.69 3.81963e-14 -29137.8)
(-14545.5 88904.5 1.37289e-13 -2834.72 -1.08172e-13 -4312.38)
(37741.3 63515.8 1.09401e-13 9384.76 -1.73098e-14 11692.9)
(41293.8 63159.5 -5.72237e-14 10268.2 -5.32835e-14 12793.6)
(-4625.75 112856 -2.86693e-15 -3044.67 -2.34914e-14 -1903.19)
(-9994.14 58881.8 -2.55985e-14 -940.263 8.60826e-14 -2713.05)
(258.608 68377.2 -9.59081e-14 -402.284 7.14644e-14 -35.6489)
(12923.6 71986.7 9.16356e-14 -13907.7 -4.16247e-14 -244.169)
(159699 50446.5 -7.07972e-15 2425.47 -3.33421e-14 40226.5)
(-295603 114492 -1.66473e-15 2023.67 -1.60866e-14 -72842.9)
(94704.1 71967.2 2.29849e-13 1220.4 -4.52233e-14 23800.8)
(13960.4 111022 9.55676e-15 -17516.7 1.36224e-14 -882.397)
(-625419 112365 -2.3859e-14 -2960.88 -1.4325e-14 -155914)
(795470 51790.8 7.89734e-14 3831.9 7.04417e-14 198323)
(-341703 82294.9 -8.84485e-14 -345.216 2.89297e-14 -84869)
(-1.44659e+06 261238 -4.12985e-15 255881 2.47311e-15 -295438)
(-212136 47519.8 6.2995e-14 -2049.18 6.84037e-14 -53143.6)
(-347958 113612 0 3251.51 0 -85528.6)
(102833 72184.1 1.22657e-13 -17.726 -1.69417e-13 25510.4)
(159754 65537.6 6.4867e-15 -344.698 2.10611e-14 39552.8)
(1.59025e+06 -351606 -1.28003e-15 50946 2.23872e-16 407215)
(-2.19748e+06 9724.53 -1.75997e-14 12941 8.08923e-15 -542028)
(685459 59100.4 3.87265e-14 4597.32 3.25367e-14 171217)
(747128 58963.8 -3.92484e-14 4870.71 8.54689e-14 186586)
(-226771 79539.1 -2.91024e-13 1410.25 -1.03902e-13 -55916.6)
(158684 100299 5.11941e-14 10503.4 1.00892e-13 41978.9)
(-35026.9 68981.5 8.18782e-14 -3163.09 1.24588e-13 -9475.71)
(-901364 -585596 -1.09487e-15 67989.8 4.60989e-16 -206777)
(-2.1398e+06 72734.7 5.76615e-15 1852.66 7.44833e-15 -530469)
(1.89853e+06 36391.1 3.13275e-14 3224.22 -1.54377e-14 471864)
(-2.74879e+06 -47321.9 -8.1273e-15 -7351.63 -3.50131e-15 -683854)
(880068 53366.8 -3.54453e-14 -6297.31 -5.50932e-14 216800)