/*--------------------------------*- C++ -*----------------------------------*\
| =========                 |                                                 |
| \\      /  F ield         | OpenFOAM: The Open Source CFD Toolbox           |
|  \\    /   O peration     | Version:  2.3.1                                 |
|   \\  /    A nd           | Web:      www.OpenFOAM.org                      |
|    \\/     M anipulation  |                                                 |
\*---------------------------------------------------------------------------*/
FoamFile
{
    version     2.0;
    format      ascii;
    class       volScalarField;
    location    "0.81";
    object      epsilon;
}
// * * * * * * * * * * * * * * * * * * * * * * * * * * * * * * * * * * * * * //

dimensions      [0 2 -3 0 0 0 0];

internalField   nonuniform List<scalar> 
9648
(
2428.02
2424.99
2422.28
2414.96
2402.79
2385.63
2363.88
2337.08
2305.14
2268.13
2226.24
2179.6
2129.02
2075.45
2019.65
1962.55
1905.25
1848.73
1793.69
1740.69
1690.25
1642.73
1598.28
1557.08
1519.2
1484.51
1452.94
1424.4
1398.78
1375.9
1355.65
1337.88
1322.45
1309.22
1298.09
1288.93
1281.6
1276.04
1272.21
1270.01
1269.35
1270.2
1272.54
1276.29
1281.51
1288.22
1296.39
1306.01
1317.16
1329.98
1344.47
1360.61
1378.63
1398.49
1420.16
1443.41
1468.01
1493.54
1519.23
1544.5
1568.96
607.759
600.997
592.271
582.818
574.666
569.753
567.398
566.873
568.281
571.612
576.663
582.794
589.595
596.687
603.729
610.344
616.348
621.7
626.388
630.347
633.679
636.451
638.716
640.597
642.228
643.672
644.988
646.255
647.559
648.952
650.458
652.136
654.03
656.136
658.49
661.121
664.019
667.185
670.634
674.395
678.46
682.814
687.467
692.431
697.686
703.264
709.157
715.336
721.781
728.486
735.406
742.508
749.739
757.126
764.526
771.915
779.138
786.299
793.261
799.95
806.326
239.786
243.901
249.595
257.081
266.247
276.957
289.332
303.08
318.192
334.3
351.224
368.53
385.889
402.967
419.474
435.172
449.893
463.546
476.075
487.465
497.746
506.956
515.176
522.495
529.012
534.817
539.996
544.644
548.833
552.64
556.131
559.364
562.391
565.255
567.997
570.644
573.228
575.766
578.277
580.779
583.286
585.814
588.363
590.942
593.552
596.185
598.839
601.493
604.14
606.759
609.344
611.89
614.356
616.794
619.091
621.342
623.453
625.557
627.498
629.316
631.006
132.859
143.665
155.935
169.702
184.897
201.463
219.33
238.309
258.183
278.616
299.313
319.909
340.099
359.587
378.134
395.541
411.681
426.481
439.911
451.982
462.727
472.201
480.491
487.69
493.909
499.253
503.824
507.719
511.022
513.821
516.191
518.199
519.912
521.378
522.642
523.746
524.725
525.601
526.4
527.143
527.848
528.533
529.212
529.891
530.575
531.265
531.96
532.656
533.353
534.042
534.704
535.364
535.995
536.61
537.157
537.697
538.225
538.731
539.196
539.627
540.06
96.1955
109.711
124.97
141.875
160.303
180.118
201.113
223.021
245.529
268.257
290.857
312.966
334.289
354.562
373.586
391.182
407.263
421.791
434.759
446.218
456.214
464.814
472.122
478.238
483.296
487.415
490.708
493.283
495.223
496.623
497.569
498.13
498.383
498.38
498.164
497.784
497.279
496.67
495.987
495.25
494.475
493.689
492.905
492.138
491.389
490.664
489.967
489.294
488.64
488.009
487.384
486.765
486.162
485.563
484.965
484.367
483.796
483.225
482.64
482.051
481.464
82.2029
97.372
114.587
133.681
154.418
176.568
199.81
223.778
248.077
272.263
295.962
318.788
340.485
360.801
379.613
396.727
412.093
425.729
437.642
447.935
456.678
463.926
469.825
474.462
478.008
480.604
482.363
483.416
483.829
483.708
483.151
482.216
481.003
479.564
477.927
476.155
474.298
472.36
470.381
468.377
466.357
464.356
462.391
460.48
458.614
456.803
455.049
453.363
451.731
450.141
448.59
447.067
445.574
444.107
442.658
441.256
439.89
438.537
437.18
435.829
434.469
77.6083
94.1779
113.026
133.919
156.497
180.469
205.404
230.86
256.4
281.459
305.71
328.686
350.223
370.067
388.242
404.447
418.691
431.078
441.577
450.401
457.636
463.279
467.582
470.548
472.434
473.399
473.538
473.04
471.904
470.263
468.244
465.858
463.256
460.479
457.517
454.462
451.397
448.271
445.158
442.063
438.974
435.948
433
430.152
427.369
424.675
422.073
419.559
417.137
414.783
412.486
410.233
408.04
405.858
403.712
401.622
399.587
397.603
395.614
393.6
391.608
77.4624
95.3451
115.668
138.118
162.19
187.55
213.736
240.245
266.597
292.085
316.481
339.13
360.086
379.012
396.284
411.298
424.148
435.095
443.918
451.059
456.65
460.499
463.156
464.314
464.45
463.731
462.206
460.187
457.499
454.358
450.951
447.164
443.259
439.229
435.018
430.775
426.588
422.316
418.154
414.057
409.972
405.986
402.162
398.472
394.857
391.394
388.019
384.785
381.651
378.621
375.663
372.769
369.934
367.093
364.305
361.617
358.958
356.411
353.823
351.192
348.651
79.413
98.3385
119.963
143.548
168.893
195.203
222.154
249.501
276.172
301.887
326.055
348.24
368.214
385.909
402.057
415.789
427.169
436.527
443.89
449.368
453.085
455.095
455.856
455.389
453.843
451.302
448.229
444.748
440.419
435.836
430.979
425.956
421.026
415.76
410.197
404.955
399.558
394.118
389.002
383.777
378.592
373.4
368.869
364.359
359.854
355.808
351.527
347.67
343.648
339.918
336.085
332.591
329.18
325.612
322.151
319.005
315.601
312.756
309.501
306.126
303.127
1592.73
1615.67
1637.5
1658.2
1677.96
1697.2
1716.05
1734.77
1753.27
1770.78
1786.99
1802.44
1817.38
1832.16
1847.02
1862.6
1879.47
1898.14
1918.98
1942.53
1968.53
1996.5
2025.99
2056.58
2087.92
2119.95
2152.82
2186.19
2220.03
2254.36
2289.36
2324.91
2361.02
2397.84
2435.38
2473.55
2512.46
2552.23
2592.94
2634.42
2676.72
2720.08
2764.46
2809.73
2856.18
2903.71
2952.19
3001.67
3052.35
3104.28
3157.39
3211.55
3267.33
3324.32
3382.89
3442.83
3504.87
3569
3635.23
3703.44
3773.76
812.369
818.483
824.421
830.107
835.564
840.91
846.288
851.552
856.902
862.005
867.064
872.019
876.981
881.972
886.985
892.065
897.231
902.528
907.95
913.473
919.059
924.647
930.215
935.738
941.205
946.595
951.838
956.908
961.796
966.527
971.117
975.543
979.822
983.976
988.001
991.898
995.691
999.37
1002.94
1006.4
1009.76
1013.05
1016.24
1019.34
1022.35
1025.28
1028.1
1030.81
1033.45
1035.99
1038.44
1040.78
1043.04
1045.34
1047.47
1049.69
1051.88
1054.28
1056.57
1058.92
1061.39
632.666
634.249
635.878
637.476
639.048
640.523
642.069
643.517
644.947
646.232
647.467
648.647
649.844
651.012
652.151
653.252
654.309
655.32
656.274
657.159
657.962
658.682
659.307
659.834
660.258
660.576
660.782
660.875
660.846
660.7
660.429
660.036
659.526
658.893
658.154
657.305
656.347
655.28
654.104
652.817
651.425
649.932
648.345
646.65
644.857
642.957
640.937
638.789
636.522
634.137
631.607
628.981
626.219
623.353
620.3
617.169
613.953
610.666
607.296
603.877
600.469
540.469
540.878
541.256
541.621
541.953
542.254
542.515
542.762
542.942
543.018
543.03
542.999
542.902
542.72
542.482
542.176
541.803
541.355
540.826
540.208
539.502
538.706
537.824
536.852
535.786
534.617
533.349
531.981
530.512
528.944
527.275
525.498
523.616
521.635
519.564
517.401
515.146
512.801
510.358
507.822
505.2
502.503
499.735
496.903
494.007
491.045
487.997
484.862
481.635
478.333
474.929
471.432
467.855
464.181
460.386
456.475
452.496
448.435
444.32
440.188
436.064
480.88
480.27
479.636
478.971
478.276
477.519
476.705
475.885
475.06
474.183
473.269
472.309
471.286
470.204
469.058
467.845
466.595
465.27
463.872
462.395
460.844
459.226
457.545
455.805
453.998
452.119
450.165
448.136
446.04
443.874
441.635
439.312
436.906
434.421
431.871
429.255
426.57
423.81
420.97
418.053
415.071
412.033
408.954
405.847
402.72
399.573
396.371
393.14
389.843
386.505
383.103
379.626
376.097
372.5
368.813
365.028
361.164
357.218
353.253
349.276
345.304
433.121
431.762
430.394
428.98
427.539
426.062
424.542
423.003
421.418
419.806
418.153
416.473
414.752
412.978
411.155
409.294
407.403
405.447
403.42
401.326
399.172
396.97
394.734
392.47
390.164
387.808
385.402
382.947
380.46
377.941
375.386
372.77
370.096
367.36
364.586
361.772
358.903
355.981
352.988
349.925
346.805
343.64
340.452
337.268
334.107
330.978
327.824
324.684
321.517
318.365
315.178
311.933
308.671
305.346
301.977
298.488
294.937
291.315
287.707
284.064
280.447
389.631
387.663
385.683
383.687
381.649
379.562
377.441
375.315
373.149
370.929
368.693
366.448
364.165
361.855
359.495
357.117
354.735
352.301
349.797
347.218
344.58
341.922
339.247
336.585
333.911
331.197
328.452
325.669
322.895
320.138
317.416
314.656
311.88
309.054
306.231
303.388
300.487
297.553
294.559
291.499
288.378
285.194
281.995
278.814
275.676
272.644
269.596
266.632
263.663
260.8
257.945
255.013
252.097
249.129
246.159
243.018
239.867
236.611
233.449
230.223
227.052
346.109
343.621
341.118
338.652
336.152
333.66
331.088
328.582
326.04
323.381
320.723
318.103
315.435
312.741
309.966
307.219
304.544
301.823
299.032
296.096
293.081
290.087
287.075
284.105
281.196
278.248
275.269
272.199
269.157
266.2
263.418
260.623
257.903
255.153
252.482
249.827
247.041
244.194
241.341
238.476
235.505
232.412
229.299
226.191
223.106
220.243
217.305
214.551
211.789
209.305
206.889
204.327
201.821
199.259
196.758
193.978
191.266
188.388
185.748
182.994
180.343
299.886
296.886
293.714
290.888
287.894
285.321
282.397
279.896
277.355
274.572
271.78
269.243
266.45
263.672
260.609
257.531
254.809
252.174
249.534
246.626
243.302
240.196
237.004
233.788
230.764
227.791
224.914
221.697
218.273
215.046
212.228
209.423
206.845
204.323
202.145
200.036
197.6
194.887
192.269
189.848
187.359
184.484
181.541
178.657
175.68
173.085
170.171
167.635
164.979
163.003
161.139
158.949
156.955
154.875
152.955
150.495
148.26
145.697
143.631
141.389
139.366
3847.23
3923.39
4001.62
4081.96
4164.84
4251.16
4340.41
4432.5
4527.16
4624.55
4725.06
4827.34
4931.85
5043.07
5182.85
5310.75
5437.93
5567.63
5699.8
5834.44
5971.86
6112.15
6254.89
6400.32
6548.18
6697.76
6848.77
7000.93
7154.06
7307.26
7460.45
7612.98
7763.99
7912.87
8059.07
8201.17
8338.01
8467.8
8581.48
8664.98
8721.5
8752.52
8757.88
8735.8
8684.69
8602.07
8483.89
8325.5
8122.58
7870.48
7562.96
7193.2
6755.98
6244.48
5603.85
4690.9
4287.05
4086.81
4008.15
3967.9
3881.2
1064.12
1066.95
1069.99
1073.1
1076.31
1079.78
1083.8
1088.23
1093.15
1098.37
1104.09
1107.58
1109.17
1112.36
1116.2
1121.51
1126.97
1132.36
1137.88
1143.65
1149.69
1156.04
1162.66
1169.56
1176.72
1184.12
1191.81
1199.78
1208.1
1216.82
1225.97
1235.63
1245.92
1256.95
1268.85
1281.83
1296.1
1312
1331.46
1361.61
1398.07
1437.16
1479.48
1525.17
1574.9
1628.99
1687.54
1750.8
1819.05
1891.82
1968.22
2046.62
2125.58
2203.69
2273.33
2339.13
2400.42
2488.31
2594.04
2700.01
2644.77
597.042
593.624
590.175
586.712
583.2
579.722
576.361
573.163
570.039
566.897
563.274
557.751
552.013
547.09
542.679
538.89
535.192
531.392
527.531
523.661
519.823
516.015
512.232
508.472
504.732
501.008
497.311
493.642
490.022
486.448
482.94
479.521
476.203
473.029
470.027
467.247
464.735
462.563
460.895
460.196
460.674
465.564
474.185
486.126
501.856
522.035
547.386
578.934
617.675
664.685
720.975
787.345
865.035
954.342
1054.97
1163.41
1271.57
1390.36
1536.56
1725.8
1910.44
431.949
427.85
423.755
419.647
415.499
411.359
407.277
403.301
399.312
395.24
390.353
384.477
378.841
373.748
369.045
364.694
360.452
356.224
351.992
347.783
343.599
339.422
335.26
331.117
326.989
322.886
318.808
314.757
310.732
306.739
302.777
298.853
294.979
291.163
287.419
283.763
280.217
276.796
273.53
270.479
267.723
265.578
264.766
265.631
268.089
272.484
279.285
289.148
302.924
321.641
346.712
379.465
421.557
474.083
537.628
610.15
687.729
772.077
871.79
1000.76
1160.78
341.357
337.476
333.62
329.745
325.807
321.877
317.972
314.157
310.321
306.385
301.664
296.473
291.597
287.13
282.918
278.943
275.067
271.281
267.548
263.877
260.247
256.607
252.987
249.393
245.816
242.268
238.748
235.257
231.786
228.337
224.91
221.513
218.148
214.827
211.558
208.352
205.219
202.17
199.215
196.371
193.664
191.158
188.987
187.513
186.819
186.944
188.113
190.63
194.93
201.557
211.311
225.201
244.428
270.244
303.633
344.687
392.042
445.317
506.915
582.56
678.371
276.835
273.347
269.892
266.439
262.851
259.274
255.695
252.242
248.77
245.243
241.015
236.616
232.511
228.76
225.152
221.712
218.332
215.098
211.951
208.903
205.903
202.866
199.864
196.908
193.962
191.058
188.171
185.317
182.467
179.633
176.807
174.009
171.236
168.505
165.818
163.187
160.62
158.124
155.702
153.365
151.127
149.008
147.048
145.336
144.114
143.279
142.953
143.257
144.401
146.661
150.409
156.172
164.623
176.533
192.769
213.884
240.005
271.221
308.192
352.636
407.685
223.802
220.751
217.745
214.79
211.582
208.409
205.179
202.158
199.128
196.134
192.464
188.815
185.403
182.363
179.348
176.477
173.592
170.926
168.349
165.891
163.487
160.985
158.566
156.235
153.897
151.612
149.319
147.067
144.789
142.523
140.245
138.006
135.789
133.626
131.498
129.431
127.417
125.473
123.592
121.791
120.072
118.457
116.955
115.599
114.456
113.661
113.132
112.934
113.168
113.969
115.524
118.087
121.977
127.626
135.506
146.107
159.844
177.044
198.183
224.062
255.983
177.444
174.83
172.302
169.924
167.117
164.384
161.5
158.97
156.431
154.048
150.911
147.931
145.112
142.75
140.264
137.962
135.526
133.415
131.366
129.421
127.542
125.472
123.566
121.86
120.081
118.347
116.552
114.843
113.04
111.257
109.426
107.685
105.957
104.318
102.693
101.142
99.6162
98.1666
96.7725
95.4719
94.2426
93.1208
92.1073
91.1977
90.4237
89.8875
89.5435
89.3855
89.4786
89.8941
90.7301
92.1086
94.1992
97.1985
101.355
106.955
114.294
123.709
135.57
150.385
168.82
136.787
134.542
132.512
130.792
128.387
126.121
123.534
121.58
119.569
117.825
115.169
112.761
110.39
108.678
106.607
104.88
102.796
101.248
99.6582
98.0761
96.6349
94.8476
93.4012
92.4104
91.093
89.7505
88.2942
87.0815
85.5915
84.1723
82.6169
81.3461
80.0165
78.8674
77.6393
76.5315
75.3334
74.2702
73.2721
72.4049
71.6146
70.9235
70.3518
69.8669
69.418
69.0745
68.9135
68.86
69.0242
69.329
70.0127
70.9934
72.4777
74.4262
77.0515
80.3891
84.7279
90.1623
97.0838
105.763
116.55
3735.45
3575.8
3404.47
3224.72
3045.52
2872.23
2708.36
2558.46
2426.24
2313.7
2221.16
2147.48
2090.93
2049.21
2019.55
1999.34
1986.42
1979.25
1976.42
1976.72
1979.5
1984.23
1990.46
1998.15
2007.17
2017.43
2028.8
2041.3
2055
2069.78
2085.61
2102.44
2120.15
2138.51
2157.42
2176.56
2195.65
2214.38
2232.54
2249.8
2265.69
2280
2292.52
2303.07
2311.73
2318.74
2324.24
2328.46
2332.02
2335.68
2339.84
2344.75
2350.97
2358.7
2367.65
2377.5
2387.91
2398.76
2408.94
2417.4
2423.48
2452.42
2249.37
2050.42
1860.78
1693.62
1538.97
1395.79
1265.21
1147.44
1043.44
953.315
876.537
812.078
758.507
715.618
682.587
657.262
637.796
622.7
610.914
601.684
594.514
588.787
584.714
581.544
579.582
578.536
578.462
579.319
581.105
583.837
587.502
592.1
597.604
603.963
611.087
618.875
627.228
635.984
644.942
653.836
662.354
670.062
676.488
681.206
683.799
683.903
681.352
676.255
669.003
660.213
650.724
641.526
633.499
627.087
622.694
620.051
618.765
617.711
615.896
612.592
1993.18
1976.86
1872.25
1697.82
1518.85
1345.17
1175.97
1022.96
886.088
764.994
660.672
572.54
499.43
440.051
393.511
357.915
330.376
308.64
291.461
277.99
267.415
259.009
252.407
246.956
242.711
239.185
236.393
234.213
232.598
231.515
230.937
230.863
231.273
232.137
233.431
235.118
237.164
239.518
242.128
244.918
247.793
250.646
253.351
255.747
257.668
258.913
259.285
258.604
256.763
253.717
249.559
244.6
239.301
234.266
230.027
227.207
226.111
226.826
229.064
232.39
236.276
1326.6
1472.84
1568.07
1581.93
1510.92
1384.54
1215.12
1045.5
888.708
744.222
618.836
513.922
427.54
358.467
304.377
262.369
229.744
204.012
183.845
168.182
156.088
146.787
139.64
134.071
129.708
126.21
123.397
121.131
119.323
117.905
116.84
116.106
115.673
115.507
115.572
115.83
116.248
116.787
117.406
118.058
118.69
119.249
119.677
119.916
119.909
119.601
118.947
117.915
116.501
114.706
112.57
110.201
107.783
105.568
103.874
103.17
103.888
106.267
110.35
116.102
123.602
795.496
931.353
1074.65
1201.15
1281.27
1297.82
1246.28
1139.76
1002.91
848.168
701.987
576.405
468.539
380.682
311.034
255.949
212.844
179.172
152.909
132.637
117.18
105.556
96.8855
90.379
85.4341
81.6053
78.6064
76.2409
74.3744
72.9024
71.7657
70.9298
70.3574
70.0051
69.8324
69.802
69.8777
70.0231
70.2021
70.3747
70.4984
70.533
70.4398
70.1823
69.7286
69.0555
68.1558
67.0345
65.7018
64.1907
62.5551
60.8849
59.3273
58.0718
57.3917
57.5638
59.0619
62.272
67.4926
74.9827
84.6208
476.419
561.963
665.221
781.995
899.909
1001.04
1065.21
1077.28
1035.46
947.796
831.4
705.235
578.078
467.548
377.125
302.481
243.454
196.782
159.669
131.059
109.504
93.63
82.0926
73.6726
67.4387
62.7389
59.1567
56.4089
54.2962
52.6592
51.4076
50.4892
49.8537
49.4467
49.2209
49.1355
49.1518
49.2349
49.3498
49.4596
49.5263
49.5173
49.3986
49.1426
48.721
48.1195
47.3347
46.3787
45.2617
44.0142
42.6835
41.3504
40.1374
39.215
38.8346
39.3328
41.1477
44.7342
50.4966
58.6815
69.3072
295.696
345.468
407.646
483.683
572.579
669.519
764.4
843.011
891.043
898.145
862.359
791.123
696.446
592.331
490.371
394.036
314.771
250.015
196.085
153.964
122.074
98.896
82.4244
70.6622
62.1346
55.8263
51.1172
47.5915
44.9507
42.9417
41.4246
40.3172
39.5506
39.0512
38.7604
38.629
38.6137
38.6781
38.7864
38.9031
38.9911
39.024
38.9685
38.8018
38.493
38.0353
37.4229
36.6714
35.7833
34.7911
33.7324
32.6814
31.7467
31.0776
30.9076
31.5874
33.5432
37.311
43.3984
52.127
63.5821
191.849
220.701
256.954
302.237
357.864
424.038
498.966
577.588
651.91
711.183
744.972
747.036
717.612
661.191
586.532
501.793
416.91
336.931
261.759
201.274
153.496
118.898
94.7592
77.7183
65.4478
56.4356
49.7895
44.9242
41.378
38.7201
36.735
35.2856
34.2778
33.6053
33.1911
32.971
32.8934
32.9167
33.0032
33.1161
33.2171
33.287
33.291
33.21
33.007
32.6828
32.2255
31.6562
30.969
30.1976
29.3731
28.5664
27.8751
27.4348
27.4702
28.3118
30.3934
34.3468
40.7559
50.0477
62.342
130.125
147.012
168.163
194.848
228.13
269.044
317.96
374.347
435.697
497.945
553.209
595.453
618.351
619.193
596.392
552.169
492.456
421.38
348.048
273.579
204.526
154.707
120.054
95.3743
77.2042
63.8354
54.0006
46.9399
41.9065
38.1762
35.4294
33.4121
32.0053
31.0456
30.4249
30.0517
29.8613
29.8012
29.8319
29.9077
29.9943
30.0763
30.1178
30.0997
29.9816
29.7659
29.4413
29.0251
28.5103
27.9255
27.3046
26.7138
26.2503
26.0375
26.2856
27.3226
29.5881
33.7576
40.4725
50.2885
63.2957
1.52608
214.799
192.297
2.25734
2.18946
0.203402
0.000719954
91.2841
0.00079634
0.014687
93.5794
6.96417
0.000720863
245.287
0.1665
135.626
0.000757406
92.6001
117.974
0.000716185
2.26086
234.058
202.271
0.000767059
0.000781081
0.210266
0.000717312
7.89109
0.000753172
0.000820004
6.27842
0.000742346
0.00878022
64.4262
3.97725
111.838
71.5726
15.5999
0.000723296
44.8039
65.6481
29.0176
0.00074331
103.097
172.898
0.717809
0.000868784
0.00861116
1.30635
7.18004
372.118
359.473
0.000698338
0.00103009
0.0629331
0.0353517
0.000817088
9.19283
58.6396
286.633
141.572
0.00090581
1.54078
0.0249755
203.341
2.36478
38.6213
64.2149
0.00113212
0.000747671
9.7968
40.0845
56.5126
0.0381532
0.051497
80.1135
232.311
54.5678
0.000700097
5.45721
0.00234155
47.5897
0.0127543
109.119
0.00074993
8.5224
0.000791037
37.079
0.0110096
0.00136731
0.230444
0.000698377
0.000933882
310.602
145.212
0.000867379
1.58666
1.80298
0.00184829
208.747
1.01278
31.9474
5.80657
0.000696746
0.00072597
0.000694046
1.40737
0.209928
0.000748077
175.573
224.368
0.00475234
235.961
26.9221
115.875
54.2177
28.308
0.000977563
0.110582
0.00110576
0.0016443
189.895
0.0030863
289.668
419.147
28.4057
0.000746014
7.05819
6.92595
0.000743927
0.0299722
0.0268475
93.0877
0.00187242
63.5383
0.00074883
0.000723821
398.984
354.143
0.000748802
0.742778
151.055
0.230861
0.909232
26.696
119.647
0.299714
27.6043
0.00525761
277.844
11.1646
0.0381482
48.104
106.687
190.671
0.000766329
0.000757274
0.512693
0.000695036
41.2715
0.115053
0.00144914
0.00074046
0.000747473
0.000758568
39.8277
71.3679
34.7685
0.000768504
286.213
307.974
407.219
165.382
0.00692626
158.885
44.039
28.2619
0.000750068
0.00169614
195.276
67.6349
29.7943
73.2877
0.00074534
0.000842164
239.704
0.0295577
2.49081
0.000757798
0.000866678
0.172943
0.000797895
335.94
3.95312
0.000690722
0.679339
92.2222
143.213
0.00119793
52.487
0.000746604
0.000750187
107.249
32.5844
303.891
0.00121485
0.000800631
0.00285437
41.8762
76.3222
9.66611
124.562
14.3501
233.69
0.824792
85.5619
82.9143
27.3014
10.6446
39.4881
0.00144279
0.0293786
0.000747655
0.000725741
28.405
0.0100123
0.0117378
0.00197923
0.00628516
46.1934
196.574
0.0111404
172.743
7.43368
2.96266
0.00073247
0.532998
37.8848
7.17664
0.00106329
13.0675
35.8991
0.867986
2.48086
273.198
7.49463
5.06886
122.798
0.000955268
0.000724097
0.00102661
0.00428776
28.7338
0.000784889
0.00249583
0.000723687
1.72787
75.7837
76.8008
49.0173
12.1226
11.3192
327.49
0.00113983
47.9531
98.8905
0.000743901
81.6352
0.000749601
327.645
1.7273
51.4793
0.00154745
0.000748476
19.9782
7.68126
0.000759624
0.000750541
0.000755336
0.000751522
1.18879
36.1274
44.0189
0.0108049
0.000760434
0.000724445
0.00069585
103.634
1.14109
0.00119026
19.1766
0.116508
0.0945841
0.000692036
0.78178
0.000760155
0.108583
48.1664
274.695
3.14743
0.000978453
0.00184743
55.2849
0.354437
132.184
324.729
0.000838092
0.000739915
0.000733991
156.465
0.000773557
136.144
0.000749824
24.8017
12.3431
0.0242763
139.288
239.136
0.00127174
49.8161
50.6922
90.655
91.1556
9.7313
351.931
38.7293
71.6313
141.239
94.93
56.7133
0.338234
340.483
282.117
62.3228
33.6794
0.0010018
270.824
124.551
231.168
0.0188004
0.000867295
0.000745757
0.000811565
0.701912
1.56631
6.23153
0.124796
0.000726355
172.085
0.000746369
26.9566
23.4645
193.624
41.4355
18.4332
0.00193042
0.00110645
0.455366
85.7652
0.0043613
8.12844
259.761
35.9163
82.6619
194.209
61.5805
0.000821511
284.985
144.241
97.9549
0.000750458
195.641
153.779
0.000781399
30.599
0.000751589
399.921
170.473
28.0946
80.689
112.82
150.436
0.000764756
149.495
0.000964716
68.7336
79.8525
28.2862
281.267
3.62891
0.493924
2.57203
0.00110034
440.994
1.4957
0.00290385
0.00182465
257.019
0.000953148
91.1735
0.000737622
0.000749995
0.00183796
31.5086
0.192735
21.6609
0.00197877
82.9333
0.308364
221.601
280.383
38.1149
341.235
0.000793908
281.109
41.5939
0.000742262
77.2781
25.5093
0.000696447
0.000727457
115.562
0.00206092
26.3781
0.452116
76.0525
0.0176963
3.42134
39.664
118.873
32.608
82.1436
69.779
0.0010016
0.0334481
28.8022
21.6891
333.079
342.808
142.288
0.0845418
124.866
123.797
3.36247
93.2423
46.2027
25.8344
0.000822422
82.9202
387.099
0.0010758
90.9256
18.8948
46.8619
0.0153171
0.0892435
268.031
0.00193332
329.143
0.00124673
1.82896
0.000738046
7.67136
170.061
0.556638
0.00132116
0.000902403
75.7437
26.8493
0.364336
5.46566
294.651
544.357
0.00139271
11.5562
27.2644
72.1535
26.2657
450.032
28.8119
152.703
50.9746
3.49388
7.17792
304.175
54.6363
356.471
172.78
0.240413
173.379
60.2684
0.000792058
93.8853
29.3802
13.1334
0.00979596
97.0055
45.5639
4.08562
53.5954
0.00159274
0.00074716
0.155057
28.5825
106.682
72.7166
0.000750192
0.000731337
0.000743858
28.2468
0.0279225
0.000745715
0.245879
93.9743
273.894
0.00440316
0.00453362
0.000721476
0.000738756
0.00194283
29.4631
102.175
21.3307
1.88832
300.402
389.27
0.00151044
61.6451
27.91
28.4675
75.0126
442.19
0.00082189
0.00445584
0.000750876
398.387
0.772808
0.000726921
10.4233
0.351937
304.073
0.000759331
327.369
8.56565
0.0657342
203.181
0.00074808
0.000736475
0.00102807
407.972
52.1188
131.148
323.009
10.9065
28.6418
0.000708756
0.00184573
0.457601
0.0151865
0.016345
179.86
40.8572
0.000747825
25.8473
44.9876
186.213
410.524
0.00294567
413.844
0.00182618
0.0217992
148.135
0.000739266
146.165
0.000759565
0.000791546
0.0211076
34.5394
2.93211
325.977
62.3427
0.000886735
28.4769
499.742
0.208472
2.18973
7.45333
0.000774722
0.0007596
0.00230811
134.878
5.586
0.000783478
272.651
278.424
217.664
0.110923
59.5177
0.00108975
29.5281
0.542017
0.131051
121.61
29.7426
152.269
174.966
0.000761113
0.00071157
0.00493803
73.2596
104.62
5.87308
0.0065868
0.000772955
0.00074992
0.00343717
0.12617
0.0021142
72.1241
21.2799
0.0049894
26.414
174.047
0.000760531
38.1632
0.000742619
3.3141
0.000762491
0.0132376
37.5301
0.0116456
0.000744589
4.03072
366.976
265.121
0.000731107
0.000748561
1.53629
0.136447
0.00074772
98.846
0.000905331
31.9352
380.171
29.2884
89.2379
298.387
131.673
338.036
0.00074758
0.00250402
0.0110246
291.366
61.6403
202.479
5.45945
4.29927
99.2481
166.373
128.654
4.87656
46.6714
0.000750517
1.51295
40.2757
32.5822
308.268
26.975
1.11439
40.0926
0.204258
0.00983425
40.5754
0.000750982
173.642
0.000887872
2.77172
294.711
187.527
2.98678
0.00251033
7.09982
0.000768752
0.000736236
0.198678
0.013496
51.2701
0.00872535
28.6796
0.000750502
0.0190372
0.000725495
95.446
0.00181683
85.9357
304.035
0.0142874
169.663
376.764
0.000756971
99.9755
222.895
0.000785696
289.145
0.26749
0.00082495
0.000791618
283.643
0.000731623
0.00111895
0.122134
0.215943
436.67
272.059
0.000751491
0.000754878
9.13445
27.2997
0.0070989
2.35081
21.8397
0.00074765
0.000953799
0.000912563
169.614
272.842
3.40801
297.033
0.0171675
26.7435
0.000772111
0.00718005
0.0160213
0.0435563
0.000749647
297.789
0.000741923
0.0160702
0.00077206
1.31643
0.0147814
0.039665
2.52755
5.01832
35.0831
2.18695
9.10117
27.9276
189.058
0.00081628
164.736
328.724
12.5363
74.8665
0.000761815
267.063
80.6973
0.000745611
414.825
65.7154
0.00621737
0.0246334
161.677
159.797
0.218516
317.906
413.186
4.41182
435.952
266.619
126.33
50.3431
21.1236
28.1918
266.533
293.567
0.0142606
311.444
42.1438
402.938
0.000813427
1.56602
2.80504
226.402
166.775
0.011835
444.805
196.245
6.95255
0.0542553
2.80474
28.132
0.00154692
28.2721
445.76
0.0293927
222.634
14.2385
93.6189
190.947
0.000746035
0.00167983
7.25903
5.22073
0.0132915
0.000748281
0.841783
1.83761
0.00120841
0.000758694
269.323
6.91644
53.1962
10.5228
0.00314573
0.00107549
0.409363
86.9146
0.000823836
21.487
30.1356
1.85256
167.42
0.00100497
0.401305
0.000740593
1.7778
86.2087
0.00164754
0.185521
40.7448
167.522
0.503677
93.5683
5.16801
0.907879
0.000987705
32.9734
335.457
0.000744051
0.000756096
148.925
0.0157964
0.000758243
73.2899
2.1345
165.691
29.6295
38.6363
0.312573
16.9472
202.018
165.203
244.18
0.000763195
274.755
0.000969977
38.1181
0.000796872
0.00146876
44.8565
0.00209546
253.816
0.0122079
0.0323196
45.8679
7.83044
0.564211
0.000897079
187.171
0.000886643
0.00071928
347.523
162.838
40.0404
28.6991
0.000813742
0.000683052
18.8547
149.747
0.000732642
220.823
37.6659
0.000752859
169.415
0.000702552
3.39714
6.34129
10.6068
1.51192
77.3508
21.1475
0.000700753
271.48
330.107
0.000744482
0.0132924
28.922
0.000708974
239.987
159.796
402.837
0.000745513
0.000727868
200.776
0.0955081
0.000836848
31.1279
81.4767
255.704
0.000720926
0.000794035
0.0157696
0.0116439
0.000746794
0.00203072
125.122
50.7169
0.000746635
13.293
0.000747024
10.2199
0.00109091
0.000866876
26.6778
0.000748686
0.342905
0.000730528
50.0609
2.11405
20.2723
186.233
359.909
147.739
5.08702
14.7835
0.000758248
5.62003
279.572
530.137
0.15648
0.000826518
129.94
0.000746061
0.115507
0.000720638
446.706
15.2586
3.1846
198.841
52.4623
5.05214
79.5426
7.87549
224.88
111.639
0.000773724
0.000756228
0.0030859
0.00073683
0.0140594
100.519
0.00093215
253.385
0.00186687
0.298716
2.99592
152.707
0.00135924
41.604
0.0135197
56.4488
29.8313
442.193
0.000795867
0.000954994
1.42034
83.4348
65.1729
64.464
1.92608
7.99452
20.1714
0.0628277
10.3312
1.78698
30.188
0.000756921
390.61
1.43624
54.7158
0.000788139
51.8486
16.51
0.00187245
89.8757
17.0434
0.0845086
0.000715205
0.00074599
203.024
46.8987
14.9112
0.000737927
0.00954266
50.2698
188.54
3.46057
0.00585469
0.000735837
149.395
131.317
35.7761
35.0912
0.000743605
101.716
440.231
0.000746908
0.00074928
18.6106
0.0012688
0.00386755
0.229001
47.7993
0.00105166
36.2832
346.934
0.00073188
0.000821639
0.000727469
0.00076999
65.6129
514.636
338.492
0.0205879
33.8346
46.9591
0.133193
44.2645
0.000824124
31.3463
0.53349
30.532
5.16149
83.0575
101.578
0.145403
0.000759131
160.345
85.35
281.15
5.65929
30.094
0.525826
20.2219
0.00353364
0.00133406
151.695
144.389
0.0334867
1.2215
0.000753956
0.0994796
19.2924
0.0280069
13.8667
4.31581
388.23
37.1235
1.74387
274.806
138.97
56.2446
15.2609
199.77
187.225
3.11922
37.3563
0.00364731
46.2016
44.4376
0.000743449
0.000711087
0.344332
0.000748423
0.000775463
57.2652
298.748
0.0007446
83.3703
0.000744916
0.000736795
0.000740895
0.000752906
0.00181429
29.6569
45.6145
251.279
0.000718847
0.0010651
6.56004
0.000855017
0.0283827
0.000762783
0.000866263
166.509
0.000982918
0.00466391
184.656
0.00425669
0.00074943
186.281
0.000745355
0.000760493
1.48068
0.000870736
6.55511
0.00123834
0.0239827
0.000743837
0.000753563
305.805
425.328
44.6681
0.0238391
109.194
15.8086
0.00130127
27.6448
307.669
235.915
475.284
0.000700349
26.9826
55.8143
0.26185
28.5664
101.028
0.352158
31.7262
1.03762
28.4852
0.286866
7.33435
0.000757617
223.955
0.000757109
28.7173
31.5343
0.000747855
0.920854
0.00245502
0.0289999
0.000726545
3.88374
0.000893574
0.000741934
40.4165
0.0355784
0.165108
231.414
153.732
0.000819122
0.000968258
29.7311
262.816
0.000689952
0.000753933
0.196644
24.3201
145.88
0.0020976
15.4897
0.000745414
0.00081811
0.000718478
0.0278977
24.1672
0.00409151
273.293
29.8937
261.037
174.246
0.000842992
301.862
65.5244
0.000732733
0.000754062
0.000750338
0.00115995
0.000740203
123.943
0.000745384
0.000750362
352.968
1.19666
0.00267572
0.0346261
58.6414
7.34858
0.00779902
0.000823885
186.968
0.000762691
6.8033
0.000755034
0.000845444
164.733
166.983
0.00333831
0.000835154
3.87994
0.000744246
371.583
0.000753082
153.17
0.0269892
8.63465
0.117582
3.21154
1.96665
30.0957
0.000760947
0.000859838
0.00489189
61.0709
0.288166
305.379
0.000747026
0.00124193
0.00164037
258.921
61.1001
275.213
0.00226205
0.0035061
0.827036
0.000751294
19.6908
36.9156
0.00876142
268.73
180.148
42.0725
0.00154619
1.43323
172.09
227.634
27.9401
0.0105846
120.587
0.531702
135.722
0.144199
2.26372
43.4258
0.000761953
28.4734
0.00122444
0.00508831
0.00628407
0.0477798
0.000906845
10.7514
0.000745943
46.3643
0.132469
0.000867716
1.61083
0.000756578
0.765084
0.227235
40.2407
3.85819
93.1378
0.801816
0.000748376
0.000732334
4.66826
0.158974
42.6178
264.061