/*--------------------------------*- C++ -*----------------------------------*\
| =========                 |                                                 |
| \\      /  F ield         | OpenFOAM: The Open Source CFD Toolbox           |
|  \\    /   O peration     | Version:  2.3.1                                 |
|   \\  /    A nd           | Web:      www.OpenFOAM.org                      |
|    \\/     M anipulation  |                                                 |
\*---------------------------------------------------------------------------*/
FoamFile
{
    version     2.0;
    format      ascii;
    class       volScalarField;
    location    "0.74";
    object      epsilon;
}
// * * * * * * * * * * * * * * * * * * * * * * * * * * * * * * * * * * * * * //

dimensions      [0 2 -3 0 0 0 0];

internalField   nonuniform List<scalar> 
1000
(
0.000915135
0.000947645
0.000948478
0.000948446
0.000948428
0.000948422
0.000948414
0.00094841
0.000948319
0.00094564
0.000948761
0.000956007
0.000956536
0.000956548
0.000956545
0.00095654
0.000956527
0.000956499
0.000955951
0.000946988
0.000951276
0.000958474
0.000959104
0.000959137
0.000959142
0.000959132
0.00095911
0.000959066
0.000958424
0.000948556
0.000953238
0.000961118
0.000961848
0.000961922
0.000961942
0.000961935
0.0009619
0.000961831
0.000961115
0.000950643
0.000955416
0.000964458
0.000965313
0.000965436
0.000965474
0.000965465
0.000965437
0.000965325
0.000964535
0.000952929
0.000947957
0.000954303
0.000954908
0.000954995
0.000955024
0.000955036
0.000955039
0.000955028
0.000954568
0.000946957
0.000955148
0.00062848
0.000611419
0.000610693
0.000610641
0.000610616
0.000610598
0.000611069
0.000627307
0.00095373
0.000957088
0.00060865
0.000590047
0.000589317
0.000589298
0.000589295
0.000589298
0.000589857
0.000607728
0.000955643
0.00095896
0.000607956
0.000589223
0.000588494
0.00058848
0.000588478
0.000588485
0.000589056
0.000607151
0.000957532
0.000961167
0.000609624
0.000590767
0.000590106
0.000590124
0.000590126
0.000590105
0.00059062
0.000608891
0.000959775
0.000950254
0.000955899
0.000956495
0.000956576
0.000956611
0.000956628
0.000956635
0.000956622
0.000956115
0.000948066
0.000956461
0.000611111
0.000592703
0.00059195
0.000591913
0.000591897
0.000591887
0.000592421
0.000610065
0.000955158
0.000958166
0.000590449
0.000570205
0.000569389
0.000569369
0.000569367
0.000569375
0.000570004
0.000589446
0.000956896
0.000959814
0.000589824
0.000569423
0.000568606
0.00056859
0.000568589
0.000568596
0.000569233
0.000588875
0.000958528
0.000961864
0.000590778
0.000570248
0.000569458
0.000569457
0.000569457
0.000569452
0.000570065
0.000589869
0.000960587
0.000951176
0.000956764
0.000957331
0.000957398
0.000957429
0.000957445
0.000957452
0.000957437
0.000956926
0.000948847
0.000957197
0.000609279
0.000590864
0.000590134
0.000590106
0.000590096
0.000590094
0.000590642
0.000608422
0.000955878
0.000958704
0.000589486
0.000569221
0.000568406
0.000568385
0.000568384
0.000568394
0.000569028
0.000588544
0.000957446
0.000960154
0.000588939
0.000568534
0.000567717
0.0005677
0.000567699
0.000567707
0.000568344
0.000588013
0.000958875
0.000962005
0.000589456
0.000568959
0.000568149
0.000568137
0.000568137
0.000568139
0.00056877
0.000588546
0.000960714
0.000951673
0.000957236
0.000957781
0.000957836
0.00095786
0.000957873
0.000957879
0.000957862
0.000957349
0.000949249
0.000957624
0.000608065
0.000589642
0.000588919
0.000588895
0.000588889
0.000588894
0.000589452
0.000607304
0.000956259
0.000959011
0.000589242
0.000569022
0.000568211
0.00056819
0.00056819
0.000568201
0.000568834
0.000588343
0.000957731
0.00096035
0.000588766
0.000568437
0.000567626
0.000567609
0.000567608
0.000567616
0.000568248
0.000587867
0.000959054
0.000962069
0.0005891
0.000568732
0.000567924
0.000567909
0.000567908
0.000567913
0.000568542
0.000588208
0.000960757
0.000951752
0.00095747
0.000958018
0.00095807
0.000958092
0.000958102
0.000958106
0.000958084
0.000957559
0.000949281
0.000957726
0.000607339
0.000588916
0.000588203
0.000588186
0.000588187
0.000588198
0.000588762
0.000606659
0.000956332
0.000959122
0.000589156
0.000568972
0.000568166
0.000568147
0.000568148
0.000568159
0.000568791
0.000588294
0.000957823
0.000960487
0.000588745
0.000568473
0.000567669
0.000567653
0.000567653
0.000567661
0.000568289
0.000587876
0.000959177
0.000962226
0.000589048
0.000568774
0.000567976
0.000567962
0.000567962
0.000567965
0.000568587
0.000588177
0.000960898
0.000951446
0.000957545
0.000958116
0.000958167
0.000958187
0.000958194
0.000958194
0.000958165
0.000957615
0.000948944
0.000957525
0.00060732
0.000588912
0.000588201
0.000588184
0.000588185
0.000588196
0.00058876
0.000606655
0.000956102
0.000959069
0.00058928
0.000569125
0.000568323
0.000568305
0.000568306
0.000568316
0.000568944
0.000588431
0.000957742
0.000960622
0.000588948
0.000568707
0.000567909
0.000567895
0.000567895
0.000567901
0.000568522
0.000588083
0.000959283
0.000962566
0.000589396
0.000569171
0.000568387
0.000568377
0.000568378
0.000568376
0.000568981
0.000588525
0.000961207
0.000950741
0.000957191
0.000957785
0.000957838
0.000957855
0.000957862
0.000957857
0.000957822
0.000957248
0.000948222
0.000956976
0.000608211
0.000589906
0.000589203
0.000589188
0.000589189
0.000589199
0.000589757
0.000607565
0.000955528
0.000958763
0.000590513
0.000570499
0.000569713
0.000569699
0.000569701
0.000569707
0.000570322
0.000589685
0.000957408
0.000960617
0.00059051
0.000570447
0.000569675
0.000569668
0.00056967
0.000569668
0.000570266
0.000589668
0.000959244
0.000962949
0.000591742
0.000571796
0.000571072
0.000571083
0.000571085
0.000571061
0.00057161
0.000590899
0.000961554
0.00094959
0.000955837
0.000956393
0.000956442
0.000956459
0.000956462
0.000956455
0.000956419
0.000955875
0.000947045
0.000955657
0.000628454
0.000611802
0.000611202
0.000611201
0.000611207
0.000611209
0.000611692
0.000627994
0.000954113
0.000957694
0.000613599
0.000595575
0.000594932
0.000594945
0.000594951
0.000594939
0.000595445
0.000612995
0.000956229
0.000959891
0.000616013
0.00059817
0.000597594
0.000597633
0.000597641
0.0005976
0.000598038
0.000615406
0.000958394
0.000962774
0.000622359
0.000605153
0.000604763
0.000604865
0.000604871
0.000604766
0.000605024
0.000621784
0.000961245
0.000945759
0.000945978
0.000946007
0.000946018
0.000946023
0.000946026
0.000946022
0.000946013
0.000945915
0.000943066
0.000947342
0.000953413
0.000953988
0.000954041
0.000954056
0.000954059
0.000954047
0.000954007
0.000953458
0.000944721
0.000949276
0.000955886
0.000956568
0.000956654
0.000956681
0.000956688
0.00095666
0.000956587
0.000955937
0.000946655
0.000951848
0.000958561
0.000959321
0.000959449
0.000959496
0.0009595
0.000959451
0.000959328
0.000958585
0.000949217
0.000955822
0.000962819
0.000963716
0.000963907
0.000963972
0.000963971
0.0009639
0.000963694
0.000962816
0.000953223
0.000964861
0.000973718
0.000974996
0.000975229
0.000975278
0.000975276
0.00097521
0.000974961
0.000973724
0.000962384
0.000986998
0.00105244
0.00105924
0.00105714
0.00105607
0.00105601
0.00105696
0.00105899
0.0010542
0.00098571
0.00123539
0.00212637
0.00220849
0.00216154
0.00214402
0.00214316
0.00215837
0.00220463
0.00215048
0.00124823
0.00338195
0.0116103
0.0125955
0.0123403
0.0122284
0.0122205
0.0123135
0.0125654
0.0117995
0.00349957
0.0146277
0.0609245
0.0681567
0.0683248
0.0681854
0.0681494
0.0682128
0.0680473
0.0617736
0.0151123
0.000966765
0.000635871
0.000620063
0.000619974
0.000620141
0.000620145
0.000619977
0.000619949
0.00063542
0.000965253
0.000972001
0.000675434
0.000663675
0.000664302
0.000664484
0.00066448
0.000664299
0.000663614
0.000675585
0.00097065
0.00100271
0.000918545
0.000925153
0.000921775
0.000920455
0.000920372
0.000921462
0.000924961
0.000922874
0.00100279
0.00153332
0.00559553
0.00579637
0.00532924
0.00517246
0.00516824
0.00531407
0.00578353
0.00570864
0.00156085
0.0239662
0.163963
0.179958
0.179971
0.179539
0.179474
0.179776
0.179876
0.16612
0.0249145
0.000965081
0.000594042
0.000574388
0.000573775
0.000573825
0.000573826
0.000573764
0.000574203
0.000593226
0.000963732
0.000968162
0.000598131
0.000579038
0.000578514
0.000578552
0.000578552
0.000578503
0.000578864
0.000597429
0.000966897
0.000974951
0.000660913
0.000649178
0.000650325
0.000650755
0.000650757
0.000650334
0.00064919
0.000661481
0.000974038
0.00129111
0.00404655
0.00429697
0.00427997
0.00427033
0.0042695
0.00427795
0.00429985
0.00410853
0.00130634
0.0254844
0.168263
0.180262
0.180098
0.179779
0.179748
0.180018
0.180388
0.170508
0.0264869
0.000963695
0.000589798
0.000569612
0.000568873
0.000568884
0.000568883
0.000568859
0.000569418
0.000588926
0.000962363
0.000966255
0.000589598
0.000569401
0.000568613
0.000568592
0.000568591
0.000568596
0.000569204
0.00058875
0.000964975
0.000970188
0.000632215
0.00061575
0.000615379
0.000615562
0.000615575
0.00061541
0.000615718
0.000632322
0.000969193
0.00126255
0.00407128
0.0043217
0.00433325
0.00433259
0.00433235
0.00433307
0.00432812
0.00413449
0.00127668
0.0273796
0.183242
0.195547
0.195922
0.195808
0.195797
0.195907
0.195822
0.185805
0.0285042
0.000962918
0.000589141
0.000568865
0.000568098
0.0005681
0.000568099
0.000568085
0.000568673
0.000588267
0.000961598
0.00096529
0.000588587
0.000568232
0.000567409
0.000567382
0.00056738
0.000567394
0.000568038
0.00058772
0.000964004
0.000968322
0.000624258
0.000607353
0.000607024
0.000607209
0.000607223
0.000607061
0.000607327
0.000624267
0.000967266
0.00126273
0.00425735
0.00452129
0.00454634
0.00455206
0.00455209
0.00454767
0.00453116
0.00432723
0.00127737
0.0283358
0.189806
0.202373
0.203037
0.203039
0.203038
0.203061
0.202729
0.192526
0.0295254
0.000962766
0.000589436
0.000569018
0.000568249
0.000568255
0.000568254
0.000568238
0.000568829
0.000588548
0.000961458
0.000965328
0.000588997
0.000568235
0.000567391
0.000567364
0.000567363
0.000567378
0.000568043
0.000588115
0.000964049
0.000968752
0.000628136
0.000612268
0.000612402
0.000612688
0.000612695
0.000612434
0.000612256
0.000628217
0.000967683
0.00143684
0.00570965
0.00617293
0.00631001
0.00635875
0.00635975
0.00631585
0.00619324
0.00580874
0.00146069
0.0286435
0.189118
0.201468
0.202142
0.202162
0.202164
0.202183
0.201858
0.19186
0.029869
0.000963122
0.000590507
0.000569904
0.000569154
0.000569176
0.000569176
0.000569148
0.000569722
0.000589618
0.00096185
0.000966104
0.0005904
0.000568976
0.000568125
0.000568104
0.000568106
0.000568118
0.000568793
0.000589513
0.000964816
0.000972129
0.000647151
0.000633485
0.00063513
0.000635991
0.000636014
0.000635229
0.000633613
0.000647549
0.000971171
0.00172256
0.0066029
0.00720365
0.00752077
0.0076426
0.00764541
0.00753478
0.00723639
0.00670365
0.00175961
0.0287965
0.182845
0.194343
0.194969
0.195002
0.195005
0.195029
0.194759
0.185485
0.0300512
0.000963986
0.000592588
0.000571829
0.000571104
0.00057114
0.000571143
0.000571103
0.00057166
0.000591714
0.000962726
0.000966971
0.000595253
0.000573318
0.000572615
0.000572649
0.000572652
0.000572619
0.000573149
0.000594401
0.000965662
0.000979836
0.000669459
0.000656334
0.000659429
0.000660927
0.000660969
0.000659586
0.000656547
0.000669796
0.000978996
0.00190371
0.00447456
0.00485985
0.00503378
0.00510635
0.00510817
0.00504211
0.00487791
0.00453407
0.00193768
0.0278804
0.160701
0.17004
0.170936
0.171149
0.17116
0.171028
0.17045
0.162847
0.0290532
0.000965007
0.000611059
0.000591707
0.000591042
0.00059107
0.000591073
0.000591045
0.000591566
0.000610353
0.00096367
0.000966791
0.000626119
0.000606235
0.000606149
0.000606379
0.00060639
0.000606172
0.000606143
0.000625557
0.000965372
0.000989575
0.000722868
0.000709253
0.000711433
0.000712552
0.000712578
0.000711534
0.000709383
0.0007232
0.000988705
0.00139033
0.00301272
0.00321297
0.00325774
0.00327419
0.00327434
0.00325964
0.00321998
0.00304966
0.001405
0.0219075
0.103005
0.108218
0.109049
0.109337
0.109349
0.109124
0.108474
0.10412
0.0226354
0.000959321
0.000971341
0.000972758
0.000973057
0.000973173
0.000973186
0.000973062
0.000972825
0.000971529
0.000956779
0.000957031
0.000974989
0.00097693
0.000977192
0.00097727
0.000977271
0.000977213
0.00097701
0.000975176
0.000954449
0.000994719
0.00102382
0.00102766
0.00102869
0.00102901
0.00102899
0.00102875
0.00102771
0.00102428
0.000992542
0.0011241
0.00136548
0.00140416
0.00141101
0.00141306
0.00141311
0.00141124
0.00140528
0.00137099
0.00112643
0.00785268
0.0164495
0.0170564
0.0172166
0.01727
0.0172718
0.0172268
0.0170859
0.0165634
0.00797722
)
;

boundaryField
{
    walls
    {
        type            epsilonWallFunction;
        value           nonuniform List<scalar> 
500
(
0.000915135
0.000915135
0.000915135
0.000947645
0.000947645
0.000948478
0.000948478
0.000948446
0.000948446
0.000948428
0.000948428
0.000948422
0.000948422
0.000948414
0.000948414
0.00094841
0.00094841
0.000948319
0.000948319
0.00094564
0.00094564
0.00094564
0.000948761
0.000948761
0.000956007
0.000956536
0.000956548
0.000956545
0.00095654
0.000956527
0.000956499
0.000955951
0.000946988
0.000946988
0.000951276
0.000951276
0.000958474
0.000959104
0.000959137
0.000959142
0.000959132
0.00095911
0.000959066
0.000958424
0.000948556
0.000948556
0.000953238
0.000953238
0.000961118
0.000961848
0.000961922
0.000961942
0.000961935
0.0009619
0.000961831
0.000961115
0.000950643
0.000950643
0.000955416
0.000955416
0.000964458
0.000965313
0.000965436
0.000965474
0.000965465
0.000965437
0.000965325
0.000964535
0.000952929
0.000952929
0.000947957
0.000947957
0.000954303
0.000954908
0.000954995
0.000955024
0.000955036
0.000955039
0.000955028
0.000954568
0.000946957
0.000946957
0.000955148
0.00095373
0.000957088
0.000955643
0.00095896
0.000957532
0.000961167
0.000959775
0.000950254
0.000950254
0.000955899
0.000956495
0.000956576
0.000956611
0.000956628
0.000956635
0.000956622
0.000956115
0.000948066
0.000948066
0.000956461
0.000955158
0.000958166
0.000956896
0.000959814
0.000958528
0.000961864
0.000960587
0.000951176
0.000951176
0.000956764
0.000957331
0.000957398
0.000957429
0.000957445
0.000957452
0.000957437
0.000956926
0.000948847
0.000948847
0.000957197
0.000955878
0.000958704
0.000957446
0.000960154
0.000958875
0.000962005
0.000960714
0.000951673
0.000951673
0.000957236
0.000957781
0.000957836
0.00095786
0.000957873
0.000957879
0.000957862
0.000957349
0.000949249
0.000949249
0.000957624
0.000956259
0.000959011
0.000957731
0.00096035
0.000959054
0.000962069
0.000960757
0.000951752
0.000951752
0.00095747
0.000958018
0.00095807
0.000958092
0.000958102
0.000958106
0.000958084
0.000957559
0.000949281
0.000949281
0.000957726
0.000956332
0.000959122
0.000957823
0.000960487
0.000959177
0.000962226
0.000960898
0.000951446
0.000951446
0.000957545
0.000958116
0.000958167
0.000958187
0.000958194
0.000958194
0.000958165
0.000957615
0.000948944
0.000948944
0.000957525
0.000956102
0.000959069
0.000957742
0.000960622
0.000959283
0.000962566
0.000961207
0.000950741
0.000950741
0.000957191
0.000957785
0.000957838
0.000957855
0.000957862
0.000957857
0.000957822
0.000957248
0.000948222
0.000948222
0.000956976
0.000955528
0.000958763
0.000957408
0.000960617
0.000959244
0.000962949
0.000961554
0.00094959
0.00094959
0.000955837
0.000956393
0.000956442
0.000956459
0.000956462
0.000956455
0.000956419
0.000955875
0.000947045
0.000947045
0.000955657
0.000954113
0.000957694
0.000956229
0.000959891
0.000958394
0.000962774
0.000961245
0.000945759
0.000945759
0.000945759
0.000945978
0.000945978
0.000946007
0.000946007
0.000946018
0.000946018
0.000946023
0.000946023
0.000946026
0.000946026
0.000946022
0.000946022
0.000946013
0.000946013
0.000945915
0.000945915
0.000943066
0.000943066
0.000943066
0.000947342
0.000947342
0.000953413
0.000953988
0.000954041
0.000954056
0.000954059
0.000954047
0.000954007
0.000953458
0.000944721
0.000944721
0.000949276
0.000949276
0.000955886
0.000956568
0.000956654
0.000956681
0.000956688
0.00095666
0.000956587
0.000955937
0.000946655
0.000946655
0.000951848
0.000951848
0.000958561
0.000959321
0.000959449
0.000959496
0.0009595
0.000959451
0.000959328
0.000958585
0.000949217
0.000949217
0.000955822
0.000955822
0.000962819
0.000963716
0.000963907
0.000963972
0.000963971
0.0009639
0.000963694
0.000962816
0.000953223
0.000953223
0.000964861
0.000964861
0.000973718
0.000974996
0.000975229
0.000975278
0.000975276
0.00097521
0.000974961
0.000973724
0.000962384
0.000962384
0.000986998
0.000986998
0.00105244
0.00105924
0.00105714
0.00105607
0.00105601
0.00105696
0.00105899
0.0010542
0.00098571
0.00098571
0.00123539
0.00123539
0.00212637
0.00220849
0.00216154
0.00214402
0.00214316
0.00215837
0.00220463
0.00215048
0.00124823
0.00124823
0.00338195
0.00338195
0.0116103
0.0125955
0.0123403
0.0122284
0.0122205
0.0123135
0.0125654
0.0117995
0.00349957
0.00349957
0.0146277
0.0146277
0.0609245
0.0681567
0.0683248
0.0681854
0.0681494
0.0682128
0.0680473
0.0617736
0.0151123
0.0151123
0.000966765
0.000965253
0.000972001
0.00097065
0.00100271
0.00100279
0.00153332
0.00156085
0.0239662
0.0249145
0.000965081
0.000963732
0.000968162
0.000966897
0.000974951
0.000974038
0.00129111
0.00130634
0.0254844
0.0264869
0.000963695
0.000962363
0.000966255
0.000964975
0.000970188
0.000969193
0.00126255
0.00127668
0.0273796
0.0285042
0.000962918
0.000961598
0.00096529
0.000964004
0.000968322
0.000967266
0.00126273
0.00127737
0.0283358
0.0295254
0.000962766
0.000961458
0.000965328
0.000964049
0.000968752
0.000967683
0.00143684
0.00146069
0.0286435
0.029869
0.000963122
0.00096185
0.000966104
0.000964816
0.000972129
0.000971171
0.00172256
0.00175961
0.0287965
0.0300512
0.000963986
0.000962726
0.000966971
0.000965662
0.000979836
0.000978996
0.00190371
0.00193768
0.0278804
0.0290532
0.000965007
0.00096367
0.000966791
0.000965372
0.000989575
0.000988705
0.00139033
0.001405
0.0219075
0.0226354
0.000959321
0.000959321
0.000971341
0.000972758
0.000973057
0.000973173
0.000973186
0.000973062
0.000972825
0.000971529
0.000956779
0.000956779
0.000957031
0.000957031
0.000974989
0.00097693
0.000977192
0.00097727
0.000977271
0.000977213
0.00097701
0.000975176
0.000954449
0.000954449
0.000994719
0.000994719
0.00102382
0.00102766
0.00102869
0.00102901
0.00102899
0.00102875
0.00102771
0.00102428
0.000992542
0.000992542
0.0011241
0.0011241
0.00136548
0.00140416
0.00141101
0.00141306
0.00141311
0.00141124
0.00140528
0.00137099
0.00112643
0.00112643
0.00785268
0.00785268
0.0164495
0.0170564
0.0172166
0.01727
0.0172718
0.0172268
0.0170859
0.0165634
0.00797722
0.00797722
)
;
        Cmu             0.09;
        kappa           0.41;
        E               9.8;
    }
    lid
    {
        type            epsilonWallFunction;
        value           nonuniform List<scalar> 
100
(
0.0146277
0.0609245
0.0681567
0.0683248
0.0681854
0.0681494
0.0682128
0.0680473
0.0617736
0.0151123
0.0239662
0.163963
0.179958
0.179971
0.179539
0.179474
0.179776
0.179876
0.16612
0.0249145
0.0254844
0.168263
0.180262
0.180098
0.179779
0.179748
0.180018
0.180388
0.170508
0.0264869
0.0273796
0.183242
0.195547
0.195922
0.195808
0.195797
0.195907
0.195822
0.185805
0.0285042
0.0283358
0.189806
0.202373
0.203037
0.203039
0.203038
0.203061
0.202729
0.192526
0.0295254
0.0286435
0.189118
0.201468
0.202142
0.202162
0.202164
0.202183
0.201858
0.19186
0.029869
0.0287965
0.182845
0.194343
0.194969
0.195002
0.195005
0.195029
0.194759
0.185485
0.0300512
0.0278804
0.160701
0.17004
0.170936
0.171149
0.17116
0.171028
0.17045
0.162847
0.0290532
0.0219075
0.103005
0.108218
0.109049
0.109337
0.109349
0.109124
0.108474
0.10412
0.0226354
0.00785268
0.0164495
0.0170564
0.0172166
0.01727
0.0172718
0.0172268
0.0170859
0.0165634
0.00797722
)
;
        Cmu             0.09;
        kappa           0.41;
        E               9.8;
    }
}


// ************************************************************************* //
