/*--------------------------------*- C++ -*----------------------------------*\
| =========                 |                                                 |
| \\      /  F ield         | OpenFOAM: The Open Source CFD Toolbox           |
|  \\    /   O peration     | Version:  2.3.1                                 |
|   \\  /    A nd           | Web:      www.OpenFOAM.org                      |
|    \\/     M anipulation  |                                                 |
\*---------------------------------------------------------------------------*/
FoamFile
{
    version     2.0;
    format      ascii;
    class       surfaceScalarField;
    location    "0.74";
    object      phi;
}
// * * * * * * * * * * * * * * * * * * * * * * * * * * * * * * * * * * * * * //

dimensions      [0 3 -1 0 0 0 0];

internalField   nonuniform List<scalar> 
2700
(
3.21744e-06
3.81022e-05
-3.39502e-05
2.7654e-06
3.64877e-05
-3.60614e-05
1.37415e-06
3.69453e-05
-3.5577e-05
8.31371e-07
3.67125e-05
-3.61994e-05
2.84655e-07
3.6823e-05
-3.6305e-05
-1.64908e-07
3.67872e-05
-3.63665e-05
-4.56585e-07
3.66281e-05
-3.63643e-05
-5.21199e-07
3.63781e-05
-3.63427e-05
-3.2834e-07
3.61037e-05
-3.63284e-05
3.59072e-05
-3.6261e-05
8.68457e-07
7.71578e-05
-3.99668e-05
1.21826e-06
7.66081e-05
-4.05139e-05
1.19127e-06
7.74292e-05
-4.05018e-05
7.80011e-07
7.78191e-05
-4.07413e-05
2.25949e-07
7.81542e-05
-4.08222e-05
-3.14231e-07
7.81413e-05
-4.08579e-05
-6.80076e-07
7.7788e-05
-4.08374e-05
-7.13532e-07
7.71634e-05
-4.07982e-05
-3.72001e-07
7.64403e-05
-4.07256e-05
7.56456e-05
-4.01414e-05
1.29687e-06
0.000123655
-4.78204e-05
1.76931e-06
0.000125014
-4.89054e-05
1.70544e-06
0.000126527
-4.90578e-05
1.06896e-06
0.000127683
-4.92418e-05
2.0427e-07
0.00012835
-4.93424e-05
-6.5392e-07
0.00012836
-4.93694e-05
-1.2664e-06
0.000127712
-4.93216e-05
-1.37069e-06
0.00012649
-4.92431e-05
-8.66114e-07
0.000125041
-4.91226e-05
0.000123195
-4.84145e-05
2.12871e-06
0.000183625
-6.22806e-05
2.93858e-06
0.000187189
-6.31655e-05
2.72476e-06
0.000189881
-6.332e-05
1.65263e-06
0.000192079
-6.34894e-05
2.07313e-07
0.000193238
-6.36086e-05
-1.23748e-06
0.00019327
-6.36317e-05
-2.32481e-06
0.000192187
-6.35548e-05
-2.59428e-06
0.000190028
-6.34458e-05
-1.84492e-06
0.000187449
-6.33233e-05
0.000183754
-6.25541e-05
6.24433e-06
-9.0289e-05
0.000267816
7.21954e-06
-9.21621e-05
0.000278517
5.95194e-06
-9.29008e-05
0.000284201
3.33698e-06
-9.34428e-05
0.000288295
2.66401e-07
-9.37587e-05
0.000290222
-2.79891e-06
-9.3787e-05
0.00029028
-5.42468e-06
-9.35292e-05
0.000288485
-6.7488e-06
-9.30517e-05
0.000284541
-5.90553e-06
-9.23714e-05
0.000279123
-9.05613e-05
0.00026856
6.26858e-07
3.2158e-05
-6.6749e-05
7.60558e-07
3.28643e-05
-6.90787e-05
8.4504e-07
3.34024e-05
-6.90865e-05
5.83249e-07
3.34989e-05
-6.94619e-05
2.02762e-07
3.36259e-05
-6.95761e-05
-1.78981e-07
3.36117e-05
-6.96223e-05
-4.51858e-07
3.34662e-05
-6.95825e-05
-5.57245e-07
3.32243e-05
-6.94883e-05
-4.50138e-07
3.29105e-05
-6.93753e-05
3.21633e-05
-6.88988e-05
5.76401e-07
6.72016e-05
-7.56258e-05
9.03469e-07
6.8421e-05
-7.64379e-05
9.97279e-07
6.93043e-05
-7.65409e-05
6.68576e-07
6.98432e-05
-7.67989e-05
1.85895e-07
7.01749e-05
-7.69305e-05
-3.06036e-07
7.01729e-05
-7.69678e-05
-6.59259e-07
6.98428e-05
-7.69012e-05
-7.5557e-07
6.92466e-05
-7.67681e-05
-5.34067e-07
6.85147e-05
-7.65971e-05
6.7337e-05
-7.58801e-05
1.24839e-06
0.000108109
-9.00116e-05
1.6405e-06
0.000110092
-9.10054e-05
1.54932e-06
0.00011161
-9.13062e-05
9.72104e-07
0.000112783
-9.1627e-05
1.80363e-07
0.000113423
-9.18194e-05
-6.16928e-07
0.000113437
-9.18549e-05
-1.21279e-06
0.000112827
-9.17297e-05
-1.40488e-06
0.000111661
-9.14963e-05
-1.06227e-06
0.000110235
-9.12145e-05
0.000108208
-9.03543e-05
2.44149e-06
0.00015732
-0.000114092
2.97497e-06
0.000161602
-0.000115356
2.61337e-06
0.000164359
-0.000115852
1.55795e-06
0.00016654
-0.000116322
1.89795e-07
0.00016766
-0.00011661
-1.18138e-06
0.000167694
-0.000116647
-2.26458e-06
0.000166651
-0.000116428
-2.70016e-06
0.000164537
-0.000116034
-2.24962e-06
0.000161914
-0.000115584
0.000157662
-0.000114383
5.97104e-06
-0.000156522
0.000217748
6.72812e-06
-0.000158889
0.000227731
5.47526e-06
-0.00016026
0.000233145
3.0504e-06
-0.000161402
0.000237096
2.43745e-07
-0.000162043
0.000238925
-2.56101e-06
-0.000162093
0.000238978
-5.00214e-06
-0.000161556
0.000237273
-6.30846e-06
-0.000160518
0.000233469
-5.69073e-06
-0.000159243
0.000228328
-0.000156953
0.000218536
9.75479e-07
2.58008e-05
-9.35417e-05
8.86949e-07
2.59579e-05
-9.4966e-05
7.40972e-07
2.6226e-05
-9.51864e-05
4.65631e-07
2.63336e-05
-9.55415e-05
1.54549e-07
2.64269e-05
-9.57146e-05
-1.47134e-07
2.64182e-05
-9.57613e-05
-3.69576e-07
2.63016e-05
-9.56839e-05
-4.69986e-07
2.6104e-05
-9.55154e-05
-4.10716e-07
2.58413e-05
-9.53024e-05
2.51812e-05
-9.45133e-05
7.33122e-07
5.25598e-05
-0.000103153
8.74175e-07
5.34276e-05
-0.000104086
8.37772e-07
5.40621e-05
-0.00010438
5.43857e-07
5.45127e-05
-0.000104721
1.48991e-07
5.47747e-05
-0.000104921
-2.46412e-07
5.47731e-05
-0.000104964
-5.38259e-07
5.45052e-05
-0.000104849
-6.39869e-07
5.40167e-05
-0.000104619
-4.96279e-07
5.34031e-05
-0.000104345
5.23447e-05
-0.000103569
1.12947e-06
8.29047e-05
-0.000121529
1.40037e-06
8.46599e-05
-0.00012255
1.26741e-06
8.5899e-05
-0.000123049
7.86898e-07
8.68644e-05
-0.000123527
1.44818e-07
8.73829e-05
-0.000123813
-4.98736e-07
8.73937e-05
-0.000123856
-9.9283e-07
8.68976e-05
-0.000123654
-1.18301e-06
8.59403e-05
-0.000123268
-9.48302e-07
8.47378e-05
-0.000122819
8.29162e-05
-0.000121891
2.14351e-06
0.000117621
-0.000151065
2.52882e-06
0.000121375
-0.000152569
2.1646e-06
0.00012373
-0.000153424
1.2751e-06
0.000125527
-0.00015419
1.52966e-07
0.000126439
-0.000154638
-9.70475e-07
0.000126466
-0.000154686
-1.88219e-06
0.000125612
-0.000154331
-2.30128e-06
0.000123873
-0.000153655
-1.99045e-06
0.000121613
-0.000152871
0.000117877
-0.000151423
4.93707e-06
-0.000197522
0.000153816
5.41265e-06
-0.00020042
0.000162576
4.34393e-06
-0.000202339
0.000167037
2.40406e-06
-0.000203929
0.000170141
1.92919e-07
-0.000204803
0.000171557
-2.0195e-06
-0.00020487
0.000171593
-3.9738e-06
-0.000204126
0.000170263
-5.08319e-06
-0.000202665
0.000167268
-4.73086e-06
-0.000200865
0.000163029
-0.000198046
0.000154388
4.69924e-07
1.64857e-05
-0.000110513
4.70182e-07
1.67447e-05
-0.000111727
4.32446e-07
1.69057e-05
-0.000112072
2.85733e-07
1.70009e-05
-0.000112413
1.0384e-07
1.70626e-05
-0.000112614
-7.47826e-08
1.7057e-05
-0.000112659
-2.11523e-07
1.69818e-05
-0.000112548
-2.79638e-07
1.68546e-05
-0.000112321
-2.54729e-07
1.66893e-05
-0.000112039
1.63019e-05
-0.000111088
4.18152e-07
3.38083e-05
-0.000120922
5.33171e-07
3.44065e-05
-0.000121894
5.15823e-07
3.48089e-05
-0.000122297
3.42602e-07
3.51146e-05
-0.000122691
1.02826e-07
3.52849e-05
-0.000122934
-1.38007e-07
3.52829e-05
-0.000122978
-3.19171e-07
3.51069e-05
-0.000122822
-3.8208e-07
3.47866e-05
-0.00012252
-2.85289e-07
3.43839e-05
-0.000122171
3.37247e-05
-0.000121301
6.74245e-07
5.28021e-05
-0.000141232
8.81972e-07
5.39311e-05
-0.000142318
8.01691e-07
5.47521e-05
-0.000142947
5.02342e-07
5.53931e-05
-0.000143531
9.97902e-08
5.57339e-05
-0.000143884
-3.04665e-07
5.57388e-05
-0.000143931
-6.17811e-07
5.54104e-05
-0.000143668
-7.35914e-07
5.47766e-05
-0.000143172
-5.71124e-07
5.39725e-05
-0.000142605
5.28223e-05
-0.000141575
1.35651e-06
7.32094e-05
-0.000172903
1.64775e-06
7.55893e-05
-0.000174582
1.40903e-06
7.71794e-05
-0.00017567
8.29623e-07
7.83655e-05
-0.000176631
1.0323e-07
7.89622e-05
-0.000177189
-6.23685e-07
7.89775e-05
-0.000177242
-1.21906e-06
7.84137e-05
-0.000176789
-1.4975e-06
7.72638e-05
-0.000175927
-1.26254e-06
7.57317e-05
-0.000174917
7.33669e-05
-0.000173281
3.09555e-06
-0.000218318
9.10179e-05
3.44619e-06
-0.00022144
9.63615e-05
2.7614e-06
-0.000223593
9.92406e-05
1.52658e-06
-0.000225372
0.000101165
1.25093e-07
-0.000226352
0.000102036
-1.27319e-06
-0.000226424
0.000102057
-2.5239e-06
-0.000225584
0.000101226
-3.2369e-06
-0.000223941
9.93681e-05
-2.97331e-06
-0.000221913
9.66138e-05
-0.000218853
9.13102e-05
1.52528e-07
6.50935e-06
-0.000117186
1.32842e-07
6.59729e-06
-0.000118316
1.17474e-07
6.64403e-06
-0.000118713
8.78731e-08
6.67106e-06
-0.000119068
5.85837e-08
6.6871e-06
-0.000119286
2.92463e-08
6.68242e-06
-0.000119326
8.49128e-10
6.6556e-06
-0.000119189
-2.76583e-08
6.61223e-06
-0.000118919
-4.7371e-08
6.55392e-06
-0.000118588
6.41825e-06
-0.000117565
1.25195e-07
1.3419e-05
-0.000127975
1.46019e-07
1.36305e-05
-0.000128967
1.40687e-07
1.37721e-05
-0.00012944
1.04503e-07
1.38774e-05
-0.00012988
5.76363e-08
1.39334e-05
-0.000130152
8.85244e-09
1.39284e-05
-0.000130193
-3.27035e-08
1.38618e-05
-0.000130005
-5.80342e-08
1.37431e-05
-0.000129645
-5.3368e-08
1.35901e-05
-0.000129233
1.33495e-05
-0.000128297
2.10647e-07
2.10478e-05
-0.00014909
2.66083e-07
2.14855e-05
-0.000150247
2.38569e-07
2.18166e-05
-0.000150981
1.56967e-07
2.20672e-05
-0.000151652
5.22792e-08
2.21965e-05
-0.000152055
-5.32261e-08
2.21945e-05
-0.0001521
-1.43573e-07
2.2061e-05
-0.000151788
-1.90343e-07
2.18052e-05
-0.000151202
-1.58746e-07
2.1472e-05
-0.000150532
2.10237e-05
-0.000149412
4.85865e-07
2.91103e-05
-0.000181478
5.75964e-07
3.00915e-05
-0.0001833
4.77597e-07
3.07917e-05
-0.000184564
2.81605e-07
3.1293e-05
-0.000185669
4.95431e-08
3.15399e-05
-0.000186307
-1.8317e-07
3.15409e-05
-0.000186362
-3.89342e-07
3.12999e-05
-0.000185832
-5.05106e-07
3.08063e-05
-0.000184828
-4.42908e-07
3.01227e-05
-0.000183644
2.91442e-05
-0.000181856
1.20685e-06
-0.000225705
3.53364e-05
1.32128e-06
-0.000228919
3.75224e-05
1.0239e-06
-0.000231217
3.87884e-05
5.57366e-07
-0.000233122
3.95948e-05
5.3052e-08
-0.000234175
3.99497e-05
-4.49943e-07
-0.000234245
3.99494e-05
-9.22131e-07
-0.000233336
3.96043e-05
-1.23486e-06
-0.000231567
3.88121e-05
-1.15862e-06
-0.00022939
3.75893e-05
-0.000226229
3.54079e-05
-1.56126e-07
-3.86599e-06
-0.000113171
-2.34459e-07
-4.00392e-06
-0.000114241
-2.15296e-07
-4.08242e-06
-0.000114658
-1.20172e-07
-4.14984e-06
-0.000115021
1.9827e-08
-4.19053e-06
-0.000115244
1.61807e-07
-4.19646e-06
-0.00011528
2.57877e-07
-4.16764e-06
-0.000115125
2.74315e-07
-4.11332e-06
-0.00011483
1.93949e-07
-4.04748e-06
-0.000114468
-3.92818e-06
-0.000113446
-1.90916e-07
-7.70774e-06
-0.000123946
-2.94326e-07
-7.92005e-06
-0.000124952
-2.75232e-07
-8.07233e-06
-0.000125474
-1.55705e-07
-8.20557e-06
-0.000125947
1.65165e-08
-8.28401e-06
-0.000126236
1.90761e-07
-8.29347e-06
-0.000126274
3.08765e-07
-8.23468e-06
-0.00012606
3.24633e-07
-8.12082e-06
-0.000125657
2.16934e-07
-7.98671e-06
-0.000125189
-7.7889e-06
-0.000124216
-3.0206e-07
-1.12521e-05
-0.000145241
-4.36895e-07
-1.15322e-05
-0.000146496
-4.03327e-07
-1.17443e-05
-0.000147338
-2.32268e-07
-1.19334e-05
-0.000148088
7.13881e-09
-1.2041e-05
-0.000148529
2.46935e-07
-1.20532e-05
-0.000148573
4.16075e-07
-1.19672e-05
-0.000148216
4.47784e-07
-1.18012e-05
-0.000147546
3.12687e-07
-1.16088e-05
-0.000146765
-1.13385e-05
-0.000145537
-4.79964e-07
-1.4128e-05
-0.00017811
-6.48045e-07
-1.44644e-05
-0.000180184
-5.85662e-07
-1.46846e-05
-0.000181666
-3.39232e-07
-1.48975e-05
-0.00018293
-5.0848e-09
-1.50178e-05
-0.000183644
3.3047e-07
-1.50296e-05
-0.000183696
5.74842e-07
-1.49345e-05
-0.000183089
6.37517e-07
-1.47448e-05
-0.000181924
4.77784e-07
-1.45444e-05
-0.000180524
-1.42187e-05
-0.000178484
-6.97171e-07
-0.000222886
-1.624e-05
-9.0812e-07
-0.000226572
-1.65783e-05
-8.19726e-07
-0.000229207
-1.67614e-05
-4.74614e-07
-0.000231346
-1.69851e-05
-1.70575e-08
-0.000232502
-1.71126e-05
4.39513e-07
-0.000232572
-1.71278e-05
7.83923e-07
-0.000231553
-1.70263e-05
8.77701e-07
-0.000229551
-1.68268e-05
6.79292e-07
-0.000227045
-1.66726e-05
-0.00022341
-1.63566e-05
-4.59672e-07
-1.42862e-05
-9.84264e-05
-6.21125e-07
-1.47071e-05
-9.93757e-05
-5.6458e-07
-1.49381e-05
-9.97798e-05
-3.38227e-07
-1.51241e-05
-0.000100126
-1.44271e-08
-1.5233e-05
-0.000100339
3.11077e-07
-1.52408e-05
-0.000100367
5.4236e-07
-1.51485e-05
-0.000100212
6.06534e-07
-1.4978e-05
-9.9917e-05
4.58457e-07
-1.47634e-05
-9.95575e-05
-1.43498e-05
-9.86326e-05
-5.46916e-07
-2.90641e-05
-0.000108614
-7.89246e-07
-2.97841e-05
-0.000109624
-7.31305e-07
-3.02888e-05
-0.000110173
-4.3701e-07
-3.07056e-05
-0.000110652
-2.05028e-08
-3.09395e-05
-0.000110937
3.97735e-07
-3.09551e-05
-0.000110969
6.96484e-07
-3.07514e-05
-0.000110747
7.63876e-07
-3.03648e-05
-0.000110326
5.38231e-07
-2.98884e-05
-0.000109825
-2.91781e-05
-0.000108834
-9.14883e-07
-4.41004e-05
-0.000129265
-1.25225e-06
-4.52486e-05
-0.00013067
-1.12803e-06
-4.61091e-05
-0.000131616
-6.63403e-07
-4.68145e-05
-0.00013242
-3.61812e-08
-4.71955e-05
-0.000132878
5.93634e-07
-4.72161e-05
-0.000132915
1.06253e-06
-4.68802e-05
-0.000132533
1.2007e-06
-4.62185e-05
-0.0001318
8.91459e-07
-4.53999e-05
-0.000130914
-4.42679e-05
-0.000129531
-1.66197e-06
-5.8222e-05
-0.000162296
-2.09358e-06
-6.01268e-05
-0.000164836
-1.81211e-06
-6.14219e-05
-0.000166602
-1.04046e-06
-6.24517e-05
-0.00016803
-5.73338e-08
-6.29822e-05
-0.000168803
9.24126e-07
-6.30108e-05
-0.000168853
1.70172e-06
-6.25327e-05
-0.000168175
2.00203e-06
-6.15603e-05
-0.000166844
1.61577e-06
-6.03308e-05
-0.000165169
-5.84522e-05
-0.000162662
-2.95823e-06
-0.000209342
-6.88254e-05
-3.4813e-06
-0.000214288
-7.19088e-05
-2.8978e-06
-0.000217538
-7.3691e-05
-1.61724e-06
-0.000220031
-7.50537e-05
-8.84027e-08
-0.000221314
-7.57122e-05
1.44409e-06
-0.000221372
-7.57402e-05
2.72467e-06
-0.000220226
-7.51438e-05
3.32692e-06
-0.000217872
-7.38513e-05
2.87509e-06
-0.000214773
-7.2169e-05
-0.000209892
-6.91349e-05
-7.49187e-07
-2.42977e-05
-7.33787e-05
-9.96997e-07
-2.5091e-05
-7.40372e-05
-9.031e-07
-2.5514e-05
-7.43604e-05
-5.45934e-07
-2.58447e-05
-7.46403e-05
-4.26897e-08
-2.60313e-05
-7.48118e-05
4.63423e-07
-2.60424e-05
-7.48324e-05
8.29603e-07
-2.58772e-05
-7.47013e-05
9.41081e-07
-2.55684e-05
-7.44588e-05
7.2267e-07
-2.51669e-05
-7.4167e-05
-2.43777e-05
-7.3523e-05
-9.62727e-07
-4.99707e-05
-8.19608e-05
-1.32105e-06
-5.13399e-05
-8.30019e-05
-1.20062e-06
-5.22843e-05
-8.35076e-05
-7.18374e-07
-5.30427e-05
-8.39211e-05
-5.25174e-08
-5.34567e-05
-8.41646e-05
6.16873e-07
-5.34775e-05
-8.4188e-05
1.10803e-06
-5.31083e-05
-8.3992e-05
1.24991e-06
-5.23939e-05
-8.36225e-05
9.28239e-07
-5.14921e-05
-8.31553e-05
-5.01349e-05
-8.21256e-05
-1.69676e-06
-7.73897e-05
-0.000100123
-2.19102e-06
-7.97401e-05
-0.000101745
-1.91942e-06
-8.14425e-05
-0.000102702
-1.11876e-06
-8.27825e-05
-0.000103455
-7.3406e-08
-8.34828e-05
-0.00010387
9.72426e-07
-8.35164e-05
-0.0001039
1.78347e-06
-8.28805e-05
-0.000103543
2.08146e-06
-8.16114e-05
-0.000102849
1.64243e-06
-7.99832e-05
-0.000101948
-7.76594e-05
-0.000100343
-3.25253e-06
-0.000105252
-0.000131144
-3.85992e-06
-0.000109577
-0.000134369
-3.22143e-06
-0.00011234
-0.000136318
-1.81432e-06
-0.00011443
-0.000137768
-1.08003e-07
-0.000115463
-0.000138517
1.60205e-06
-0.0001155
-0.000138552
3.01329e-06
-0.00011456
-0.000137888
3.68115e-06
-0.000112567
-0.000136525
3.16135e-06
-0.000109933
-0.000134675
-0.000105665
-0.000131485
-6.15288e-06
-0.00017968
-0.000128835
-6.72999e-06
-0.000186877
-0.000136466
-5.35684e-06
-0.000190796
-0.00014053
-2.9067e-06
-0.000193509
-0.000143448
-1.4922e-07
-0.000194797
-0.00014477
2.59627e-06
-0.00019485
-0.000144817
5.04327e-06
-0.00019367
-0.000143588
6.43172e-06
-0.000191093
-0.000140792
5.98837e-06
-0.000187373
-0.000136951
-0.000180241
-0.000129403
-9.38876e-07
-3.29729e-05
-3.94649e-05
-1.28895e-06
-3.40105e-05
-3.96764e-05
-1.17777e-06
-3.46245e-05
-3.98478e-05
-7.14659e-07
-3.51026e-05
-4.00011e-05
-6.3425e-08
-3.53672e-05
-4.00979e-05
5.92388e-07
-3.53804e-05
-4.01083e-05
1.06709e-06
-3.51435e-05
-4.00331e-05
1.20412e-06
-3.46933e-05
-3.98987e-05
8.95418e-07
-3.41074e-05
-3.97436e-05
-3.30753e-05
-3.95398e-05
-1.2646e-06
-6.87875e-05
-4.48657e-05
-1.76718e-06
-7.07348e-05
-4.57593e-05
-1.60582e-06
-7.21668e-05
-4.61116e-05
-9.59093e-07
-7.32922e-05
-4.63646e-05
-7.52925e-08
-7.38898e-05
-4.65114e-05
8.11461e-07
-7.39174e-05
-4.65245e-05
1.47096e-06
-7.33759e-05
-4.64032e-05
1.66072e-06
-7.23104e-05
-4.61756e-05
1.2107e-06
-7.09396e-05
-4.58474e-05
-6.90125e-05
-4.49583e-05
-2.42405e-06
-0.000109364
-5.70977e-05
-3.09275e-06
-0.000113134
-5.86569e-05
-2.66876e-06
-0.000115876
-5.93972e-05
-1.53703e-06
-0.000117957
-5.99053e-05
-1.03067e-07
-0.000119009
-6.01727e-05
1.33319e-06
-0.000119048
-6.01884e-05
2.47514e-06
-0.000118089
-5.99556e-05
2.93235e-06
-0.000116108
-5.94841e-05
2.34132e-06
-0.000113485
-5.87869e-05
-0.000109763
-5.72389e-05
-5.04278e-06
-0.00015521
-8.02524e-05
-5.77587e-06
-0.000163135
-8.36418e-05
-4.68323e-06
-0.000168006
-8.52947e-05
-2.58248e-06
-0.000171488
-8.63529e-05
-1.45163e-07
-0.000173118
-8.68523e-05
2.28543e-06
-0.000173174
-8.6875e-05
4.38716e-06
-0.000171663
-8.6421e-05
5.50816e-06
-0.000168332
-8.54244e-05
4.89969e-06
-0.000163693
-8.38635e-05
-0.000155863
-8.05027e-05
-1.04888e-05
-0.000123084
-0.000201413
-1.06894e-05
-0.000131902
-0.000217987
-8.11243e-06
-0.00013563
-0.000225817
-4.24226e-06
-0.000137785
-0.000231148
-2.04119e-07
-0.000138678
-0.000233346
3.82244e-06
-0.0001387
-0.000233397
7.65696e-06
-0.000137876
-0.000231352
1.02139e-05
-0.000135827
-0.000226212
1.02325e-05
-0.000132326
-0.000218822
-0.000123562
-0.000202407
-9.35775e-07
-3.85267e-05
-1.3975e-06
-3.92132e-05
-1.31233e-06
-3.99317e-05
-8.01832e-07
-4.05115e-05
-7.29939e-08
-4.08259e-05
6.5956e-07
-4.08407e-05
1.18462e-06
-4.05559e-05
1.29819e-06
-4.00079e-05
8.8498e-07
-3.9321e-05
-3.86478e-05
-1.36352e-06
-8.20179e-05
-2.00077e-06
-8.43271e-05
-1.84176e-06
-8.61944e-05
-1.0978e-06
-8.7613e-05
-8.66642e-08
-8.83427e-05
9.27951e-07
-8.83725e-05
1.68503e-06
-8.77075e-05
1.87485e-06
-8.63608e-05
1.29784e-06
-8.45766e-05
-8.23009e-05
-2.96301e-06
-0.000136151
-3.73922e-06
-0.000142209
-3.18623e-06
-0.000146148
-1.81001e-06
-0.000148902
-1.17174e-07
-0.000150213
1.57416e-06
-0.000150259
2.95832e-06
-0.00014905
3.54184e-06
-0.000146428
2.8572e-06
-0.000142676
-0.000136693
-7.00146e-06
-0.000209434
-7.51218e-06
-0.000225378
-5.84084e-06
-0.000233155
-3.1207e-06
-0.000238015
-1.65717e-07
-0.000240064
2.7798e-06
-0.000240115
5.48032e-06
-0.000238208
7.15254e-06
-0.000233556
6.80791e-06
-0.00022623
-0.000210424
-1.70905e-05
-0.000315505
-1.52745e-05
-0.000359213
-1.06404e-05
-0.000373519
-5.24619e-06
-0.000381294
-2.25032e-07
-0.00038385
4.75735e-06
-0.000383893
1.00585e-05
-0.000381479
1.4589e-05
-0.00037399
1.6723e-05
-0.000360802
-0.000317333
-4.56043e-05
-0.000481549
0.000211263
-3.26945e-05
-0.000611012
0.000238524
-1.85345e-05
-0.000635853
0.000247794
-8.12748e-06
-0.000644748
0.000252648
-2.73853e-07
-0.000646404
0.0002543
7.48855e-06
-0.000646382
0.000254336
1.76313e-05
-0.000644779
0.00025278
3.134e-05
-0.00063622
0.000248141
4.48461e-05
-0.000614197
0.000239548
-0.000485252
0.000212455
-9.65421e-05
-0.000732865
0.000348532
-6.61019e-05
-0.00104271
0.000401585
-3.20376e-05
-0.0010863
0.000416869
-1.30388e-05
-0.00108685
0.000423609
-3.65402e-07
-0.0010838
0.000425228
1.21425e-05
-0.00108359
0.000425224
3.04594e-05
-0.00108628
0.000423671
6.35586e-05
-0.00108597
0.000417197
9.5146e-05
-0.00104862
0.000403144
-0.000739757
0.000350311
-0.000257509
-0.0010424
0.000565527
-0.00012962
-0.00188332
0.000710834
-3.52281e-05
-0.00192941
0.000746429
-8.89286e-06
-0.00187739
0.000761954
-4.62244e-08
-0.00185938
0.000764428
8.47293e-06
-0.00185887
0.000764394
3.32709e-05
-0.00187525
0.000762002
0.00012473
-0.00192684
0.000747124
0.000254352
-0.00189442
0.000714174
-0.00105711
0.00057025
-0.000305361
-0.00167517
0.00093844
-0.000127005
-0.00293068
0.000867221
-3.66398e-05
-0.00296816
0.000946262
-9.25392e-06
-0.00289082
0.000983932
-1.31111e-07
-0.0028641
0.000993503
8.81344e-06
-0.00286334
0.000993549
3.48784e-05
-0.00288791
0.000984447
0.000122604
-0.00296458
0.000947799
0.0003012
-0.00294289
0.000868263
-0.00169644
0.000940756
0.000335751
-0.00201144
0.00017465
-0.00276981
5.67552e-05
-0.00285033
1.68408e-05
-0.00285101
2.08246e-07
-0.00284741
-1.60695e-05
-0.00284716
-5.3875e-05
-0.00285023
-0.000168217
-0.00285025
-0.000331166
-0.00278027
-0.00202806
-2.15195e-05
-0.000218734
0.000249819
-1.81154e-05
-0.000250896
0.000267748
-1.22664e-05
-0.000259509
0.00027533
-5.90943e-06
-0.000265414
0.000280251
-2.34674e-07
-0.000267333
0.000282319
5.38309e-06
-0.000267377
0.000282373
1.16478e-05
-0.00026559
0.000280471
1.73757e-05
-0.000259829
0.000275755
2.11139e-05
-0.00025194
0.000268624
-0.000219901
0.000250817
-4.44979e-05
-0.000200459
0.000375301
-3.78193e-05
-0.000266773
0.000411319
-2.47888e-05
-0.000281219
0.000426186
-1.16225e-05
-0.00028994
0.000435617
-4.14575e-07
-0.000291985
0.000439294
1.07215e-05
-0.000292003
0.000439392
2.36468e-05
-0.000290131
0.000435921
3.64216e-05
-0.000281614
0.000426811
4.36631e-05
-0.00026826
0.000412796
-0.000202362
0.000377012
-4.73176e-05
6.94576e-06
0.00040268
-3.12498e-05
-6.59264e-05
0.000493421
-1.21569e-05
-6.23998e-05
0.000507906
-4.21695e-06
-5.16985e-05
0.00051516
-1.1355e-07
-4.88856e-05
0.000516357
3.9075e-06
-4.88446e-05
0.000516348
1.1393e-05
-5.14905e-05
0.000515241
3.01202e-05
-6.20668e-05
0.000508248
4.66415e-05
-6.66178e-05
0.000495514
6.57395e-06
0.000405151
-0.00014594
0.000281926
0.000813323
-0.000108679
-0.000127959
0.000895516
-5.80089e-05
-0.000113005
0.000949961
-2.47728e-05
-7.56114e-05
0.000978589
-7.71984e-07
-6.28158e-05
0.000987471
2.29875e-05
-6.2628e-05
0.00098755
5.565e-05
-7.48404e-05
0.000979121
0.000106424
-0.000112314
0.000951122
0.000143567
-0.000129982
0.000898027
0.000277258
0.000817716
0.000213737
-0.00194324
0.000118483
-0.00280203
4.27325e-05
-0.00288678
1.31873e-05
-0.00289653
1.83137e-07
-0.00289634
-1.24958e-05
-0.00289619
-4.07306e-05
-0.00289621
-0.000114701
-0.0028878
-0.000211236
-0.00281312
-0.00196201
-1.04608e-05
-0.000132762
0.000264046
-9.62199e-06
-0.000143752
0.000273981
-7.07831e-06
-0.00014696
0.000279058
-3.63001e-06
-0.000149538
0.000282695
-1.72135e-07
-0.000150521
0.00028442
3.27804e-06
-0.000150536
0.000284488
6.69048e-06
-0.000149666
0.000282913
9.19737e-06
-0.00014717
0.000279447
1.02452e-05
-0.000144201
0.000274645
-0.000133277
0.000264779
-2.244e-05
-0.000109878
0.000375166
-2.0829e-05
-0.000126966
0.000393311
-1.51365e-05
-0.000129732
0.000403753
-7.6153e-06
-0.000132208
0.000411256
-3.10236e-07
-0.000132745
0.000414729
6.92391e-06
-0.000132782
0.000414837
1.43674e-05
-0.000132324
0.000411645
1.99956e-05
-0.000129935
0.000404457
2.19278e-05
-0.000127501
0.000394495
-0.000110565
0.000376569
-1.43175e-05
-6.60867e-06
0.000313414
-9.30455e-06
1.45752e-05
0.000341975
-4.24255e-06
2.38726e-05
0.000347867
-1.70618e-06
2.7495e-05
0.000351311
-7.11972e-08
2.82269e-05
0.000352085
1.54783e-06
2.8199e-05
0.00035209
3.96143e-06
2.74774e-05
0.000351411
8.88408e-06
2.39564e-05
0.000348063
1.40816e-05
1.49906e-05
0.000342787
-5.88085e-06
0.000314169
-6.55131e-05
0.000298177
0.00057404
-4.9329e-05
0.00031622
0.000581978
-3.02255e-05
0.000350803
0.000604577
-1.42181e-05
0.000369622
0.000621332
-6.21007e-07
0.000375331
0.000627598
1.2858e-05
0.000375355
0.000627781
2.85906e-05
0.000369766
0.000621981
4.76673e-05
0.000350916
0.000605731
6.41884e-05
0.00031734
0.000583676
0.000299724
0.000576389
8.1792e-05
-0.00172731
4.27557e-05
-0.00244731
1.51025e-05
-0.00250895
4.29749e-06
-0.0025167
7.06321e-08
-0.00251741
-4.02629e-06
-0.00251739
-1.43335e-05
-0.00251675
-4.15066e-05
-0.0025103
-8.09285e-05
-0.00245686
-0.00174359
-4.29239e-06
-7.00195e-05
0.000269452
-4.33561e-06
-7.36157e-05
0.000275639
-3.44795e-06
-7.47475e-05
0.00027914
-1.86313e-06
-7.585e-05
0.00028184
-9.94618e-08
-7.63444e-05
0.000283222
1.66417e-06
-7.63663e-05
0.000283291
3.24229e-06
-7.59321e-05
0.000282054
4.12868e-06
-7.48799e-05
0.000279504
4.18384e-06
-7.38485e-05
0.000276181
-7.02929e-05
0.000270043
-9.89363e-06
-5.51007e-05
0.000370267
-9.99385e-06
-6.27144e-05
0.000382679
-7.72539e-06
-6.41159e-05
0.000391076
-4.08237e-06
-6.53471e-05
0.00039734
-1.9645e-07
-6.57158e-05
0.00040045
3.67465e-06
-6.57395e-05
0.000400576
7.28716e-06
-6.54457e-05
0.000397753
9.53988e-06
-6.42823e-05
0.000391797
9.61614e-06
-6.30334e-05
0.000383776
-5.55067e-05
0.000371552
-3.21717e-06
-4.07682e-05
0.000302028
-2.24224e-06
-3.42469e-05
0.000312226
-1.45511e-06
-3.20849e-05
0.000314715
-7.78919e-07
-3.17591e-05
0.000316696
-4.78864e-08
-3.21103e-05
0.000317389
6.77177e-07
-3.21569e-05
0.00031742
1.33735e-06
-3.1879e-05
0.000316808
2.09453e-06
-3.22136e-05
0.000314894
3.12606e-06
-3.42385e-05
0.000312642
-4.08712e-05
0.000302393
-3.27655e-05
9.59549e-05
0.000470251
-2.46447e-05
8.59163e-05
0.000453926
-1.60445e-05
9.54644e-05
0.000468588
-7.80533e-06
0.000100565
0.000480895
-4.10786e-07
0.000102148
0.00048608
6.912e-06
0.000102145
0.000486263
1.50435e-05
0.000100587
0.000481554
2.36415e-05
9.54048e-05
0.000469682
3.19659e-05
8.60719e-05
0.000455276
9.60137e-05
0.000471708
2.08187e-05
-0.00165237
1.01432e-05
-0.00235103
3.13594e-06
-0.0024068
5.92011e-07
-0.00241394
1.66909e-08
-0.00241507
-4.97168e-07
-0.00241508
-2.88422e-06
-0.00241412
-9.82308e-06
-0.00240824
-2.06027e-05
-0.0023603
-0.00166839
-7.03077e-07
-1.45343e-05
0.000268387
-8.55541e-07
-1.4185e-05
0.000273369
-8.1132e-07
-1.38064e-05
0.000276117
-4.81439e-07
-1.37927e-05
0.000278314
-2.80835e-08
-1.38295e-05
0.000279476
4.28474e-07
-1.38454e-05
0.000279544
7.60207e-07
-1.3831e-05
0.000278523
8.04762e-07
-1.38678e-05
0.00027646
6.70003e-07
-1.42534e-05
0.00027386
-1.46255e-05
0.000268925
-1.08521e-06
-1.89358e-05
0.000375826
-1.64557e-06
-1.87621e-05
0.000387863
-1.61811e-06
-1.85838e-05
0.000395926
-9.79947e-07
-1.89262e-05
0.000401922
-6.59392e-08
-1.91295e-05
0.000404921
8.58218e-07
-1.91448e-05
0.000405065
1.49267e-06
-1.90094e-05
0.000402343
1.53855e-06
-1.87008e-05
0.000396672
9.9665e-07
-1.88938e-05
0.000388992
-1.91706e-05
0.000377137
1.40601e-06
-2.17417e-05
0.000303211
9.56364e-07
-1.76197e-05
0.000311406
2.50087e-07
-1.68923e-05
0.000313528
-3.765e-08
-1.73999e-05
0.000315258
-1.24429e-08
-1.78846e-05
0.000315938
-4.7781e-09
-1.79459e-05
0.000315957
-2.55474e-07
-1.75178e-05
0.000315396
-9.65445e-07
-1.70702e-05
0.00031373
-1.44666e-06
-1.77336e-05
0.000311792
-2.20025e-05
0.000303616
-1.24867e-06
-9.4323e-06
0.000459188
-3.43881e-06
-1.52668e-05
0.000453895
-3.97871e-06
-1.623e-05
0.000468532
-2.53495e-06
-1.74609e-05
0.000479513
-2.17695e-07
-1.8027e-05
0.00048387
2.12257e-06
-1.80226e-05
0.000484069
3.58019e-06
-1.75487e-05
0.00048005
3.17876e-06
-1.63962e-05
0.000469505
9.94527e-07
-1.55351e-05
0.000455413
-9.99073e-06
0.000460554
-7.40463e-07
-0.00166127
-2.02562e-06
-0.00236512
-2.01888e-06
-0.00242319
-1.22163e-06
-0.00243226
-1.07327e-08
-0.00243434
1.20227e-06
-0.00243439
2.04019e-06
-0.00243247
2.01335e-06
-0.00242476
7.6836e-07
-0.00237467
-0.00167769
1.98509e-06
4.33475e-05
0.0002584
1.83834e-06
4.78387e-05
0.000263181
1.30744e-06
5.00018e-05
0.000265451
6.59494e-07
5.12597e-05
0.000267309
4.02151e-08
5.1759e-05
0.000268302
-5.71209e-07
5.17668e-05
0.000268372
-1.22411e-06
5.12659e-05
0.000267502
-1.75498e-06
5.00436e-05
0.00026577
-1.9484e-06
4.79719e-05
0.000263634
4.34754e-05
0.000258895
7.44141e-06
1.79416e-05
0.000393708
6.38308e-06
2.83684e-05
0.00040844
4.20758e-06
3.07953e-05
0.000417338
1.99658e-06
3.15974e-05
0.000423791
8.15322e-08
3.16434e-05
0.000426978
-1.84075e-06
3.16068e-05
0.000427115
-4.00895e-06
3.1545e-05
0.000424247
-6.14402e-06
3.07196e-05
0.000418137
-7.34103e-06
2.84757e-05
0.000409727
1.79502e-05
0.000395278
5.54991e-06
1.5825e-05
0.000299831
3.69323e-06
3.16248e-05
0.00030978
1.80937e-06
3.47434e-05
0.000311285
6.82906e-07
3.49556e-05
0.000312726
1.14083e-08
3.46005e-05
0.000313289
-6.11464e-07
3.45851e-05
0.000313349
-1.73535e-06
3.48189e-05
0.000312822
-3.57812e-06
3.46377e-05
0.000311492
-5.50452e-06
3.17943e-05
0.000310179
1.57403e-05
0.000300282
3.74996e-05
-0.000109732
0.000546858
2.07025e-05
-9.22811e-05
0.000595269
8.0292e-06
-9.86659e-05
0.000615021
2.63476e-06
-0.000106583
0.000627039
5.03191e-09
-0.000109755
0.000631442
-2.64494e-06
-0.000109852
0.000631549
-7.75847e-06
-0.000106851
0.000627661
-2.01587e-05
-9.92113e-05
0.00061614
-3.75161e-05
-9.27445e-05
0.000597923
-0.000111149
0.000549725
-1.90228e-05
-0.00175194
-1.40081e-05
-0.00246282
-7.5056e-06
-0.00252847
-3.28092e-06
-0.00254328
-6.94086e-08
-0.00254749
3.21992e-06
-0.0025475
7.26203e-06
-0.00254377
1.36473e-05
-0.00253052
1.8996e-05
-0.0024731
-0.00176993
4.46522e-06
0.000113096
0.000231856
4.16895e-06
0.000123748
0.000236153
3.12983e-06
0.000128192
0.00023762
1.6489e-06
0.000131017
0.000238995
1.11649e-07
0.000132213
0.000239748
-1.43655e-06
0.000132226
0.000239803
-2.91622e-06
0.000131095
0.000239164
-3.97161e-06
0.000128358
0.000237879
-4.36176e-06
0.000124161
0.00023653
0.000113586
0.000232287
1.84327e-05
7.70179e-05
0.000411387
1.56299e-05
0.000109016
0.000426005
1.06121e-05
0.000115828
0.000434755
5.18847e-06
0.000118833
0.00044139
2.20616e-07
0.000119455
0.000444643
-4.71288e-06
0.000119454
0.000444795
-1.00635e-05
0.000118795
0.000441843
-1.49663e-05
0.000115904
0.000435587
-1.80529e-05
0.000109693
0.000427327
7.76613e-05
0.000413139
1.04501e-05
8.94416e-05
0.000276807
6.67542e-06
0.000137683
0.000284856
3.30333e-06
0.000146668
0.000283383
1.34559e-06
0.000149388
0.000283804
8.39777e-08
0.000149695
0.00028396
-1.24933e-06
0.000149603
0.00028396
-3.07666e-06
0.000149432
0.000283932
-6.40471e-06
0.000146802
0.000283517
-1.03099e-05
0.000138614
0.000285057
9.03774e-05
0.000277175
0.000108901
-0.000228136
0.000756081
6.06606e-05
-9.58577e-05
0.000878256
2.53775e-05
-0.000101893
0.000900621
9.40983e-06
-0.000121581
0.000915416
1.75427e-07
-0.000129652
0.000921382
-8.73578e-06
-0.000129745
0.000921701
-2.42491e-05
-0.000122418
0.000916142
-5.865e-05
-0.000102957
0.000902107
-0.000107762
-9.47773e-05
0.000881853
-0.000228945
0.000761614
-5.56001e-05
-0.00192488
-3.7863e-05
-0.00257692
-1.85112e-05
-0.0026504
-7.48677e-06
-0.00267645
-6.45504e-08
-0.00268488
7.10532e-06
-0.00268513
1.77652e-05
-0.00267735
3.66871e-05
-0.00265317
5.50507e-05
-0.00258689
-0.00194401
6.49056e-06
0.000198296