/*--------------------------------*- C++ -*----------------------------------*\
| =========                 |                                                 |
| \\      /  F ield         | OpenFOAM: The Open Source CFD Toolbox           |
|  \\    /   O peration     | Version:  2.3.1                                 |
|   \\  /    A nd           | Web:      www.OpenFOAM.org                      |
|    \\/     M anipulation  |                                                 |
\*---------------------------------------------------------------------------*/
FoamFile
{
    version     2.0;
    format      ascii;
    class       volVectorField;
    location    "0.68";
    object      U;
}
// * * * * * * * * * * * * * * * * * * * * * * * * * * * * * * * * * * * * * //

dimensions      [0 1 -1 0 0 0 0];

internalField   nonuniform List<vector> 
15166
(
(5.97418 0.560208 3.19315e-19)
(7.18689 1.03432 1.59865e-18)
(8.26907 0.902156 -8.94026e-19)
(9.3011 0.956268 8.01756e-19)
(10.0961 1.02016 8.23988e-19)
(10.8727 1.07495 4.34253e-19)
(11.5267 1.17339 -8.59499e-19)
(12.0688 1.23917 8.32983e-19)
(12.4641 1.33352 -4.22534e-19)
(12.7711 1.39301 1.67143e-18)
(12.997 1.44848 -1.22763e-18)
(13.1507 1.50679 1.22174e-18)
(6.66613 1.02641 4.89024e-19)
(7.60225 1.42481 5.23983e-20)
(8.55499 1.20934 2.74446e-20)
(9.47678 1.22944 4.56094e-19)
(10.2373 1.24936 -3.96013e-19)
(10.965 1.27586 0)
(11.5823 1.33749 4.25019e-19)
(12.0879 1.38343 1.45333e-21)
(12.4665 1.44387 4.18299e-19)
(12.7601 1.48569 -8.43349e-19)
(12.9764 1.52575 1.65663e-18)
(13.1344 1.56469 -1.23423e-18)
(7.20863 1.25745 -4.6338e-19)
(8.0376 1.56813 -2.47804e-18)
(8.89935 1.37639 4.8813e-19)
(9.72195 1.41046 -9.25291e-19)
(10.4313 1.4172 -1.65947e-20)
(11.1023 1.43289 8.84006e-19)
(11.6751 1.4725 -1.26959e-18)
(12.1419 1.50341 -4.35695e-19)
(12.4973 1.54163 8.31608e-19)
(12.7724 1.56903 5.99612e-21)
(12.9766 1.59529 -1.23786e-18)
(13.1301 1.62009 1.62279e-18)
(7.51481 1.37414 0)
(8.35042 1.62655 -1.08482e-18)
(9.18107 1.47815 2.54412e-18)
(9.94675 1.52637 -1.44512e-18)
(10.6198 1.53134 9.25265e-19)
(11.2454 1.54614 1.36578e-18)
(11.7793 1.57484 -4.2394e-19)
(12.2125 1.59688 4.35703e-19)
(12.5453 1.62123 -8.5154e-19)
(12.8022 1.63803 8.41226e-19)
(12.9949 1.65298 4.17404e-19)
(13.1437 1.66614 8.27399e-19)
(7.72613 1.44768 -6.25649e-19)
(8.59204 1.66228 -5.80174e-19)
(9.40727 1.55331 -1.57527e-18)
(10.1388 1.60711 1.486e-18)
(10.7878 1.61244 -4.70713e-19)
(11.3802 1.62865 -4.56023e-19)
(11.8831 1.6515 -4.44783e-19)
(12.2893 1.66819 4.51112e-19)
(12.6024 1.68384 -4.29782e-19)
(12.8434 1.69335 -4.23424e-19)
(13.0254 1.70077 -1.26306e-18)
(13.1673 1.70718 -4.66296e-21)
(7.91382 1.4991 1.23991e-18)
(8.80891 1.68484 1.17543e-18)
(9.60757 1.60959 -1.09927e-18)
(10.3124 1.66475 2.07593e-18)
(10.9415 1.67167 -1.98436e-18)
(11.5069 1.68944 9.50183e-19)
(11.9844 1.70866 0)
(12.3682 1.72175 9.05132e-19)
(12.6643 1.73169 -1.76274e-18)
(12.8915 1.73607 8.6171e-19)
(13.0638 1.73806 0)
(13.1986 1.73922 1.2561e-18)
(8.08661 1.53346 -6.746e-19)
(9.01004 1.69515 6.20892e-19)
(9.79238 1.64854 0)
(10.4749 1.70355 0)
(11.0854 1.71328 5.19063e-19)
(11.6275 1.73266 4.97763e-19)
(12.0831 1.74965 -9.51113e-19)
(12.4477 1.76032 1.38425e-18)
(12.729 1.76637 4.54189e-19)
(12.9442 1.7669 0)
(13.1082 1.76444 4.35628e-19)
(13.2378 1.76132 0)
(8.24117 1.55405 -1.36309e-18)
(9.19331 1.69574 1.25578e-18)
(9.96182 1.6731 5.7479e-19)
(10.6261 1.72706 5.61879e-19)
(11.2201 1.74013 -2.61908e-18)
(11.7421 1.76104 5.09639e-19)
(12.1786 1.77683 0)
(12.5268 1.78599 -4.65756e-19)
(12.7951 1.7895 4.64862e-19)
(13 1.7874 2.75882e-21)
(13.1565 1.78198 -8.70987e-19)
(13.2798 1.77625 8.59072e-19)
(8.37873 1.56381 1.40257e-18)
(9.3592 1.68908 -1.29115e-18)
(10.1163 1.68647 5.90157e-19)
(10.7659 1.73874 -1.69063e-18)
(11.3453 1.75508 2.15637e-18)
(11.85 1.77723 -2.06478e-18)
(12.2701 1.79243 9.94047e-19)
(12.6042 1.80073 0)
(12.8613 1.80266 4.72826e-19)
(13.0573 1.79884 0)
(13.2072 1.79136 9.01322e-19)
(13.3251 1.78318 -4.3703e-19)
(8.50243 1.56507 1.44223e-18)
(9.51035 1.67689 0)
(10.258 1.69107 6.23238e-19)
(10.8952 1.74123 5.8807e-19)
(11.4616 1.76048 5.58644e-19)
(11.9513 1.78352 5.34347e-19)
(12.3573 1.79847 0)
(12.6792 1.80628 0)
(12.9268 1.80725 -1.42733e-18)
(13.1152 1.80234 2.33099e-18)
(13.2592 1.79357 -9.02392e-19)
(13.372 1.78522 -1.33968e-18)
(8.61499 1.55963 1.4716e-18)
(9.64928 1.66034 -2.01473e-18)
(10.3888 1.68851 1.89426e-18)
(11.0154 1.73635 -1.77352e-18)
(11.57 1.7581 -5.56666e-19)
(12.0466 1.7817 -5.33028e-19)
(12.4401 1.79654 1.03607e-18)
(12.7515 1.80409 -1.00411e-18)
(12.9908 1.80452 -1.46308e-18)
(13.1726 1.79896 -4.67493e-19)
(13.3117 1.78907 1.85648e-18)
(13.4196 1.77935 -8.93827e-19)
(8.71814 1.54864 -1.50759e-18)
(9.77768 1.64009 -2.05016e-18)
(10.5103 1.67994 -3.18135e-19)
(11.1275 1.72537 1.21229e-18)
(11.6712 1.7492 8.56863e-19)
(12.1361 1.77308 -2.20018e-18)
(12.5188 1.78789 2.11546e-18)
(12.821 1.79533 -3.85565e-21)
(13.053 1.79554 -1.49094e-18)
(13.2291 1.78986 9.65932e-19)
(13.3634 1.77982 -4.66321e-19)
(13.4667 1.76925 9.05386e-19)
(8.81298 1.53306 -1.1485e-18)
(9.89671 1.61673 -3.53609e-19)
(10.6236 1.66627 3.22593e-19)
(11.2323 1.70924 0)
(11.7661 1.73477 2.89662e-19)
(12.2205 1.7587 -2.82762e-19)
(12.5935 1.77352 0)
(12.8875 1.78091 0)
(13.113 1.78106 2.54173e-19)
(13.2838 1.77546 0)
(13.4131 1.76583 0)
(13.5104 1.75538 -9.15795e-19)
(8.90054 1.51361 -3.8692e-19)
(10.0075 1.59069 3.5196e-19)
(10.7295 1.64823 0)
(11.3304 1.68877 0)
(11.8551 1.7156 1.18758e-18)
(12.3001 1.73939 -8.60613e-19)
(12.6644 1.75416 1.0923e-18)
(12.9513 1.76145 -1.06069e-18)
(13.1711 1.76142 7.67879e-19)
(13.3375 1.75536 -5.67769e-21)
(13.4632 1.74488 -1.93843e-18)
(13.5579 1.73722 1.1793e-18)
(8.98153 1.49087 -1.59006e-18)
(10.1108 1.56228 0)
(10.8288 1.62641 1.34313e-18)
(11.4226 1.66455 -1.59643e-18)
(11.9387 1.69236 0)
(12.3753 1.71587 2.91872e-19)
(12.7318 1.73056 1.10937e-18)
(13.0123 1.73782 -2.41967e-18)
(13.2272 1.73792 2.08198e-18)
(13.3897 1.73221 -1.01446e-18)
(13.5123 1.72175 9.81255e-19)
(13.6039 1.70851 -1.19472e-18)
(9.05665 1.46531 3.47823e-21)
(10.2073 1.53177 7.35627e-19)
(10.9221 1.60129 0)
(11.5093 1.63711 3.19716e-19)
(12.0176 1.66561 0)
(12.4463 1.68874 8.79688e-19)
(12.7959 1.70334 -7.81666e-21)
(13.0707 1.71057 -8.23958e-19)
(13.2811 1.71079 0)
(13.44 1.70542 -2.58303e-19)
(13.5592 1.69541 2.51259e-19)
(13.648 1.68081 0)
(9.12646 1.43734 4.0239e-19)
(10.2978 1.49942 -1.1195e-18)
(11.0099 1.57329 1.03884e-18)
(11.591 1.60684 -4.57411e-21)
(12.0919 1.63578 3.09105e-19)
(12.5135 1.65844 -2.97819e-19)
(12.8567 1.67291 0)
(13.1264 1.6801 0)
(13.3329 1.68041 1.06749e-18)
(13.4885 1.67525 -7.85942e-19)
(13.6046 1.66576 -5.05971e-19)
(13.6902 1.65218 -2.45539e-19)
(9.19134 1.40722 4.11453e-19)
(10.3826 1.46532 3.72748e-19)
(11.0927 1.5427 -3.47711e-19)
(11.6681 1.57407 6.59453e-19)
(12.1621 1.60325 -1.57334e-18)
(12.5772 1.62537 3.06281e-19)
(12.9146 1.63968 0)
(13.1796 1.64683 5.58363e-19)
(13.3825 1.64727 -5.45089e-19)
(13.5353 1.64231 -7.90399e-19)
(13.649 1.63326 2.58654e-19)
(13.7322 1.62088 7.43765e-19)
(9.25175 1.37524 0)
(10.4623 1.42967 0)
(11.1709 1.50982 0)
(11.7409 1.53909 3.37058e-19)
(12.2284 1.56832 0)
(12.6374 1.58984 6.08624e-19)
(12.9695 1.60396 -8.86133e-19)
(13.2304 1.61107 0)
(13.43 1.61171 -5.47642e-19)
(13.5803 1.60708 5.32748e-19)
(13.6918 1.59847 0)
(13.7731 1.58637 0)
(9.30804 1.34162 2.12257e-18)
(10.5372 1.39259 -1.53821e-18)
(11.2448 1.47488 7.18578e-19)
(11.8097 1.50211 -1.01051e-18)
(12.2911 1.53124 1.29023e-18)
(12.6944 1.55213 -9.25296e-19)
(13.0217 1.56602 8.92905e-19)
(13.2787 1.5731 2.83127e-19)
(13.4754 1.57393 -1.11308e-18)
(13.6232 1.56972 8.11207e-19)
(13.7325 1.56172 0)
(13.8119 1.54929 0)
(9.36047 1.30653 -1.71733e-18)
(10.6076 1.35418 0)
(11.3146 1.4381 0)
(11.8748 1.46335 -6.81264e-19)
(12.3504 1.49222 6.54592e-19)
(12.7485 1.51243 -9.32869e-19)
(13.0712 1.52606 5.11617e-21)
(13.3247 1.53306 8.72406e-19)
(13.5187 1.53403 5.60482e-19)
(13.6642 1.53011 -5.4896e-19)
(13.7714 1.52262 -2.67084e-19)
(13.8486 1.50989 0)
(9.4092 1.27017 -1.2999e-18)
(10.6739 1.31459 1.18165e-18)
(11.3806 1.39965 0)
(11.9364 1.42296 -6.87768e-19)
(12.4066 1.45145 9.92263e-19)
(12.7997 1.47096 0)
(13.1183 1.48427 0)
(13.3685 1.49113 2.95257e-19)
(13.56 1.49216 5.66463e-19)
(13.7036 1.48833 -5.54956e-19)
(13.8092 1.48099 5.37075e-19)
(13.8853 1.47007 0)
(9.45471 1.23254 -4.25458e-21)
(10.7364 1.27374 -1.18797e-18)
(11.4432 1.35964 0)
(11.9946 1.38108 1.04426e-18)
(12.4598 1.40911 -9.98052e-19)
(12.8483 1.42787 3.20475e-19)
(13.163 1.44085 3.08613e-19)
(13.4102 1.44758 -8.85775e-19)
(13.5996 1.44871 5.77479e-19)
(13.7415 1.44517 -2.80483e-19)
(13.8457 1.43824 2.68467e-21)
(13.9207 1.4285 0)
(9.49652 1.19374 -8.79829e-19)
(10.795 1.23178 8.01674e-19)
(11.5023 1.31826 0)
(12.0498 1.33785 -3.49575e-19)
(12.5101 1.36535 0)
(12.8942 1.38335 -3.20082e-19)
(13.2054 1.39598 3.08952e-21)
(13.45 1.40257 3.0098e-19)
(13.6372 1.40381 -2.91641e-19)
(13.7776 1.4005 -2.6917e-21)
(13.8806 1.39376 -2.5335e-21)
(13.9547 1.38524 -1.07124e-18)
(9.53528 1.15423 -4.4803e-19)
(10.8501 1.18913 -8.02051e-19)
(11.5582 1.27569 7.51762e-19)
(12.102 1.29343 3.55944e-19)
(12.5577 1.3203 0)
(12.9378 1.33754 3.2604e-19)
(13.2456 1.3498 -6.2538e-19)
(13.4877 1.35625 -5.99001e-19)
(13.6731 1.35757 8.80364e-19)
(13.8121 1.35451 -2.57992e-21)
(13.914 1.34801 -2.47273e-21)
(13.9872 1.33993 2.68962e-19)
(9.57152 1.11382 4.42966e-19)
(10.902 1.14546 -8.1453e-19)
(11.6111 1.23195 -3.79423e-19)
(12.1514 1.2479 -3.55302e-19)
(12.6027 1.27411 -3.42385e-19)
(12.979 1.29057 3.25767e-19)
(13.2837 1.30244 -1.26445e-18)
(13.5235 1.30872 2.92173e-21)
(13.7072 1.31012 0)
(13.8449 1.3073 8.57342e-19)
(13.9461 1.30103 -2.83113e-19)
(14.0189 1.29393 -2.7176e-19)
(9.60483 1.07253 -4.54987e-19)
(10.9507 1.1009 0)
(11.661 1.18715 3.14505e-21)
(12.198 1.20134 3.61127e-19)
(12.6453 1.22684 6.86776e-19)
(13.018 1.24252 3.25392e-19)
(13.3198 1.25399 -1.27447e-18)
(13.5574 1.26011 3.11999e-19)
(13.7396 1.26162 8.98363e-19)
(13.8762 1.25913 0)
(13.9765 1.25324 0)
(14.0489 1.24602 0)
(9.63515 1.0304 1.82562e-18)
(10.9964 1.05548 -8.19844e-19)
(11.7082 1.14139 7.71365e-19)
(12.2421 1.15385 -3.60554e-19)
(12.6855 1.17859 6.9741e-19)
(13.0547 1.19349 9.92246e-19)
(13.3539 1.20455 -9.62413e-19)
(13.5894 1.21049 5.93842e-21)
(13.7702 1.21205 1.20432e-18)
(13.9057 1.20982 -8.7974e-19)
(14.0052 1.20443 2.84962e-19)
(14.0768 1.19802 -5.44865e-19)
(9.66286 0.987788 -4.57786e-19)
(11.0391 1.00954 -4.15255e-19)
(11.7526 1.09479 -3.84058e-19)
(12.2837 1.10548 -7.25735e-19)
(12.7234 1.12945 -3.40775e-19)
(13.0894 1.14355 3.36321e-19)
(13.386 1.15418 3.18452e-19)
(13.6197 1.15992 -9.35488e-19)
(13.7992 1.16149 3.06903e-19)
(13.9338 1.15939 5.88297e-19)
(14.0327 1.15418 -2.85071e-19)
(14.1036 1.14936 -2.79688e-19)
(9.68803 0.944597 -9.20659e-19)
(11.0789 0.962986 1.66945e-18)
(11.7945 1.04744 0)
(12.3229 1.05633 0)
(12.7591 1.0795 0)
(13.122 1.09279 6.73434e-19)
(13.4162 1.10298 6.49803e-19)
(13.6482 1.10852 -3.13278e-19)
(13.8266 1.11013 3.06033e-19)
(13.9604 1.10826 2.05498e-21)
(14.0588 1.10327 -5.73544e-19)
(14.1293 1.09875 5.60798e-19)
(9.71112 0.901066 9.31169e-19)
(11.1164 0.915905 -2.07199e-19)
(11.8339 0.999272 -1.95763e-19)
(12.3599 1.00644 0)
(12.7927 1.02879 0)
(13.1527 1.04127 -3.37673e-19)
(13.4446 1.05102 3.25015e-19)
(13.6751 1.05636 -6.36133e-19)
(13.8523 1.058 3.05074e-19)
(13.9855 1.05634 -8.97228e-19)
(14.0834 1.05164 0)
(14.1536 1.04767 -2.81511e-19)
(9.73157 0.857026 -1.86886e-18)
(11.151 0.868125 6.36709e-19)
(11.8709 0.950292 1.95553e-19)
(12.3945 0.955823 -5.5251e-19)
(12.8242 0.977365 7.12025e-19)
(13.1814 0.989052 0)
(13.4713 0.998358 6.54898e-19)
(13.7003 1.0035 -6.40194e-19)
(13.8765 1.00516 0)
(14.0091 1.00375 0)
(14.1065 0.99941 0)
(14.1763 0.994877 5.60426e-19)
(9.74966 0.812988 0)
(11.183 0.820199 0)
(11.9054 0.90073 -3.92722e-19)
(12.427 0.90459 1.69402e-21)
(12.8537 0.925312 0)
(13.2082 0.936208 -6.82266e-19)
(13.4961 0.945069 1.48975e-18)
(13.7238 0.949982 -4.83392e-19)
(13.8992 0.951629 -6.18832e-19)
(14.0312 0.95036 1.57705e-19)
(14.1282 0.946283 6.05061e-21)
(14.1976 0.942042 5.77298e-19)
(9.7657 0.768556 4.71178e-19)
(11.2126 0.771631 -2.14337e-19)
(11.9377 0.850535 1.98747e-19)
(12.4574 0.852817 -1.86243e-19)
(12.8812 0.872696 8.95834e-19)
(13.2332 0.882795 -1.73405e-19)
(13.5193 0.891209 -4.97104e-19)
(13.7457 0.895908 -3.19065e-19)
(13.9204 0.897563 3.14367e-19)
(14.0519 0.896493 -3.04094e-19)
(14.1487 0.892801 1.48347e-19)
(14.2178 0.888584 -1.41533e-19)
(9.77969 0.723711 7.12105e-19)
(11.2397 0.722561 -6.42902e-19)
(11.9676 0.799808 -1.98604e-19)
(12.4857 0.800501 1.88623e-19)
(12.9068 0.819553 -5.37674e-19)
(13.2564 0.828869 5.19831e-19)
(13.5407 0.836839 -3.22581e-21)
(13.766 0.841342 -1.6403e-19)
(13.94 0.84303 -3.12974e-19)
(14.0712 0.842154 4.59948e-19)
(14.1678 0.838798 1.47664e-19)
(14.2369 0.835115 -4.38251e-19)
(9.79115 0.678731 2.39689e-19)
(11.2644 0.673257 0)
(11.9955 0.748646 -2.00511e-19)
(12.5119 0.747713 9.2678e-22)
(12.9304 0.76592 0)
(13.2778 0.774454 1.74355e-19)
(13.5605 0.781993 0)
(13.7847 0.786321 0)
(13.958 0.788081 0)
(14.0888 0.787515 0)
(14.1853 0.784666 -2.97733e-19)
(14.2546 0.7808 5.80746e-19)
(9.80104 0.633548 -4.80335e-19)
(11.2868 0.623651 0)
(12.0211 0.697067 4.01714e-19)
(12.5361 0.694447 -1.89307e-19)
(12.9522 0.711834 -3.61328e-19)
(13.2975 0.719591 1.76734e-19)
(13.5786 0.726688 -3.36012e-19)
(13.8018 0.730807 3.28833e-19)
(13.9745 0.732578 -3.16163e-19)
(14.1049 0.732227 3.16345e-21)
(14.2009 0.72999 1.53787e-19)
(14.2701 0.727314 2.91534e-19)
(9.80872 0.587876 0)
(11.307 0.573483 -2.16943e-19)
(12.0446 0.645018 -2.01227e-19)
(12.5584 0.640714 0)
(12.9722 0.657312 -3.62767e-19)
(13.3154 0.66428 7.01587e-19)
(13.595 0.670924 -3.40723e-19)
(13.8173 0.674805 0)
(13.9894 0.67651 0)
(14.1195 0.676158 -1.55531e-19)
(14.2154 0.673953 -1.50781e-19)
(14.2837 0.673962 0)
(9.81429 0.542233 4.81895e-19)
(11.3248 0.52333 -4.21827e-21)
(12.0661 0.592662 -2.93479e-21)
(12.5787 0.586567 -3.37259e-21)
(12.9904 0.602406 -5.50572e-19)
(13.3316 0.608585 0)
(13.6099 0.61476 0)
(13.8313 0.61839 0)
(14.0031 0.620025 0)
(14.1331 0.619639 1.55608e-19)
(14.2294 0.616885 -1.49787e-19)
(14.2987 0.618747 2.94505e-21)
(9.81807 0.496137 -6.0549e-19)
(11.3405 0.472702 6.55993e-19)
(12.0855 0.539923 4.04401e-19)
(12.5972 0.532018 -3.85391e-19)
(13.0069 0.547167 9.12519e-20)
(13.3463 0.552567 0)
(13.6232 0.558307 3.40019e-19)
(13.8439 0.561734 -3.30988e-21)
(14.0152 0.563465 -3.23534e-19)
(14.1452 0.563595 0)
(14.2414 0.561602 -2.28526e-19)
(14.3105 0.558225 0)
(9.8199 0.449939 2.05209e-21)
(11.3541 0.421963 4.39735e-19)
(12.1028 0.486868 1.02048e-19)
(12.6137 0.477142 2.86849e-19)
(13.0216 0.491659 -2.7786e-19)
(13.3592 0.496264 0)
(13.635 0.501558 3.41209e-19)
(13.8549 0.50475 -3.32601e-21)
(14.0259 0.50641 -2.43851e-19)
(14.1557 0.506589 0)
(14.2518 0.504978 1.53045e-19)
(14.3212 0.505112 0)
(9.82041 0.403767 1.21347e-21)
(11.3655 0.370945 3.30414e-19)
(12.118 0.433347 -1.02036e-19)
(12.6284 0.422018 1.9296e-19)
(13.0346 0.435935 0)
(13.3705 0.439699 0)
(13.6451 0.444545 -8.61201e-20)
(13.8644 0.447492 -8.35338e-20)
(14.0352 0.449108 -8.09362e-20)
(14.165 0.449418 -7.89868e-20)
(14.2613 0.448039 -1.52578e-19)
(14.331 0.448528 1.48919e-19)
(9.81903 0.357341 -1.2254e-19)
(11.3747 0.319408 -1.09855e-19)
(12.1314 0.379375 2.04008e-19)
(12.6412 0.366662 -4.83659e-19)
(13.0459 0.379994 1.85913e-19)
(13.3803 0.382902 0)
(13.6538 0.387297 8.61342e-20)
(13.8725 0.390002 8.35569e-20)
(14.0431 0.391592 -1.61805e-19)
(14.1729 0.392024 2.38135e-19)
(14.2694 0.390793 1.53535e-19)
(14.3392 0.39136 -1.5119e-19)
(9.81595 0.311182 0)
(11.3816 0.268013 0)
(12.1427 0.325065 1.02871e-19)
(12.6523 0.311046 0)
(13.0556 0.323911 -9.29005e-20)
(13.3884 0.325889 8.94927e-20)
(13.6609 0.32984 1.72125e-19)
(13.8791 0.332305 -2.52662e-19)
(14.0495 0.333875 0)
(14.1794 0.334491 -7.94812e-20)
(14.276 0.333637 7.66129e-20)
(14.3461 0.333478 -2.25083e-19)
(9.81129 0.264827 6.17449e-20)
(11.3864 0.216228 2.2047e-19)
(12.1519 0.270467 -3.09398e-19)
(12.6617 0.255328 0)
(13.0637 0.267643 4.63481e-20)
(13.395 0.268645 8.88493e-20)
(13.6666 0.272185 -3.46804e-19)
(13.8843 0.274407 4.20547e-19)
(14.0546 0.275929 -1.64416e-19)
(14.1846 0.276626 1.19376e-19)
(14.2814 0.275986 0)
(14.3518 0.27565 7.57724e-20)
(9.80481 0.218585 -6.1765e-20)
(11.3895 0.164381 0)
(12.159 0.215796 -5.10645e-20)
(12.6694 0.199683 9.7862e-20)
(13.0702 0.211181 1.3931e-19)
(13.4 0.211129 -9.02193e-20)
(13.6707 0.214357 -4.34814e-20)
(13.888 0.216359 4.21994e-20)
(14.0582 0.217868 8.15696e-20)
(14.1883 0.218785 -1.20117e-19)
(14.2854 0.218784 -3.89107e-20)
(14.3564 0.217487 -3.75872e-20)
(9.79674 0.17241 -9.22892e-20)
(11.3905 0.112331 1.39274e-19)
(12.1641 0.161139 -7.74902e-20)
(12.6753 0.14405 1.21562e-19)
(13.0747 0.154364 -2.10037e-19)
(13.4035 0.153431 1.79916e-19)
(13.6734 0.156439 -6.57708e-20)
(13.8903 0.158158 4.18629e-20)
(14.0604 0.159597 -1.6435e-19)
(14.1907 0.16052 6.04125e-20)
(14.288 0.16071 3.89401e-20)
(14.3591 0.159569 3.81127e-20)
(9.78717 0.126572 -9.27747e-20)
(11.3898 0.0600892 2.80817e-20)
(12.1675 0.106469 2.5858e-20)
(12.6795 0.088263 -2.44048e-20)
(13.0776 0.0972872 -2.3164e-20)
(13.4054 0.0958435 4.52474e-20)
(13.6745 0.098375 2.17818e-20)
(13.8911 0.099828 0)
(14.0613 0.101244 0)
(14.1918 0.102319 2.00237e-20)
(14.2895 0.103046 0)
(14.3611 0.102128 0)
(9.77614 0.0808012 -1.55433e-20)
(11.3871 0.00762523 1.38724e-20)
(12.1692 0.0517638 7.13595e-22)
(12.6818 0.0323968 -1.26639e-20)
(13.079 0.0400661 0)
(13.4059 0.0381903 0)
(13.6742 0.0402062 1.15366e-20)
(13.8905 0.0413948 -2.11779e-20)
(14.0607 0.0427702 1.03526e-20)
(14.1915 0.0438967 6.27122e-22)
(14.2895 0.0447845 0)
(14.3614 0.0444114 0)
(9.76329 0.0352132 4.67018e-20)
(11.3825 -0.0449253 2.77743e-20)
(12.1691 -0.00309114 -1.38504e-20)
(12.6824 -0.0235106 3.82239e-22)
(13.0789 -0.0171754 -1.17061e-20)
(13.4047 -0.0195527 1.12791e-20)
(13.6725 -0.0180566 -1.16022e-20)
(13.8885 -0.0171019 -3.1688e-20)
(14.0587 -0.0157656 -1.00991e-20)
(14.1898 -0.0144815 9.51254e-21)
(14.2882 -0.0130937 -9.78204e-21)
(14.3606 -0.0128934 0)
(9.74891 -0.010096 4.64533e-20)
(11.3761 -0.0972572 -8.37575e-20)
(12.1673 -0.057914 1.31307e-20)
(12.6813 -0.0794842 -2.42774e-20)
(13.0772 -0.0744348 3.55509e-20)
(13.4021 -0.0773372 3.4061e-20)
(13.6692 -0.0763751 1.09187e-20)
(13.8851 -0.0756801 1.06003e-20)
(14.0554 -0.0744476 1.03113e-20)
(14.1867 -0.0732169 3.01299e-20)
(14.2854 -0.0718897 -9.78998e-21)
(14.3575 -0.0707973 5.72811e-20)
(9.73313 -0.055337 -6.17923e-20)
(11.3677 -0.149569 -8.28384e-20)
(12.1637 -0.112722 1.30181e-19)
(12.6785 -0.135498 -2.44983e-20)
(13.074 -0.131691 -1.16693e-19)
(13.398 -0.135146 1.80538e-19)
(13.6646 -0.134704 -4.41205e-20)
(13.8803 -0.134278 0)
(14.0508 -0.133168 4.12735e-20)
(14.1826 -0.13198 -2.00919e-20)
(14.282 -0.130926 1.95765e-20)
(14.3552 -0.128459 -1.91326e-20)
(9.71558 -0.100418 -1.255e-19)
(11.3575 -0.201754 -5.53097e-22)
(12.1582 -0.1675 0)
(12.6742 -0.191524 -9.7627e-20)
(13.0692 -0.18889 9.41365e-20)
(13.3924 -0.192909 0)
(13.6585 -0.192975 -2.74838e-24)
(13.8741 -0.192775 0)
(14.0449 -0.191687 -4.12758e-20)
(14.1772 -0.190234 0)
(14.2773 -0.188828 0)
(14.3518 -0.186014 -7.505e-20)
(9.6965 -0.145067 6.24918e-20)
(11.3456 -0.253578 5.52282e-20)
(12.151 -0.222187 -4.15613e-19)
(12.6681 -0.24751 3.92296e-19)
(13.0628 -0.246031 -1.88257e-19)
(13.3854 -0.250623 0)
(13.651 -0.251171 -4.36998e-20)
(13.8665 -0.2512 0)
(14.0376 -0.250173 0)
(14.1703 -0.248607 0)
(14.2709 -0.247062 0)
(14.3457 -0.244407 -1.50767e-19)
(9.67609 -0.189466 1.24971e-19)
(11.3318 -0.305254 2.23488e-19)
(12.142 -0.276822 0)
(12.6604 -0.303435 2.93299e-19)
(13.0549 -0.303082 -9.45423e-20)
(13.3769 -0.308271 0)
(13.6421 -0.309301 -8.65283e-20)
(13.8575 -0.309581 8.65011e-20)
(14.0288 -0.308645 1.65889e-19)
(14.1619 -0.306977 2.40263e-19)
(14.2631 -0.305048 -1.57453e-19)
(14.3384 -0.302833 7.54012e-20)
(9.65435 -0.233589 -5.00157e-19)
(11.3162 -0.356714 -1.11789e-19)
(12.1313 -0.33136 1.03933e-19)
(12.651 -0.359277 -8.29866e-23)
(13.0455 -0.360026 -9.36949e-20)
(13.3668 -0.365829 9.0148e-20)
(13.6317 -0.36735 8.6412e-20)
(13.8472 -0.367895 -2.55205e-19)
(14.0188 -0.367084 0)
(14.1524 -0.365449 -2.40171e-19)
(14.2541 -0.363443 3.13074e-19)
(14.3297 -0.361258 -3.06047e-19)
(9.63087 -0.277749 2.50086e-19)
(11.2989 -0.408208 2.22796e-19)
(12.1188 -0.385758 -2.08634e-19)
(12.64 -0.415009 -9.80416e-20)
(13.0345 -0.41685 1.86333e-19)
(13.3553 -0.423269 -9.1881e-20)
(13.6199 -0.425265 -8.81421e-20)
(13.8354 -0.426065 8.46581e-20)
(14.0074 -0.425358 0)
(14.1416 -0.423642 0)
(14.2439 -0.421251 0)
(14.3201 -0.418858 7.76243e-22)
(9.60589 -0.321285 -2.50022e-19)
(11.2796 -0.459136 0)
(12.1045 -0.439969 -1.43208e-22)
(12.6274 -0.470599 0)
(13.0219 -0.473519 9.34543e-20)
(13.3424 -0.480544 -3.58454e-19)
(13.6067 -0.483011 2.63103e-19)
(13.8223 -0.484069 -8.4682e-20)
(13.9947 -0.483479 0)
(14.1296 -0.48185 -3.19136e-19)
(14.2328 -0.4798 3.14243e-19)
(14.3098 -0.47755 -7.67009e-20)
(9.57955 -0.364852 -3.74838e-19)
(11.2587 -0.510066 2.23019e-19)
(12.0884 -0.493974 -3.11372e-19)
(12.613 -0.526002 1.95522e-19)
(13.0078 -0.530006 -2.80168e-19)
(13.3279 -0.537652 0)
(13.5921 -0.540555 0)
(13.8078 -0.541824 3.36405e-19)
(13.9806 -0.541218 -4.94981e-19)
(14.1161 -0.539203 -1.58722e-19)
(14.2203 -0.536233 1.57925e-19)
(14.2997 -0.534602 0)
(9.55143 -0.408017 0)
(11.2359 -0.560601 -1.30479e-21)
(12.0707 -0.547741 -2.0854e-19)
(12.5971 -0.581215 -1.6578e-21)
(12.9922 -0.586284 -1.88089e-19)
(13.312 -0.594547 5.36986e-19)
(13.5759 -0.597904 -3.4939e-19)
(13.7918 -0.599411 1.67277e-19)
(13.965 -0.598897 -1.65775e-19)
(14.101 -0.596873 1.58179e-19)
(14.2057 -0.593642 -1.5738e-19)
(14.2855 -0.590157 2.99413e-19)
(9.52213 -0.45081 7.4844e-19)
(11.2116 -0.610767 2.2301e-19)
(12.0512 -0.601251 0)
(12.5795 -0.636214 3.90494e-19)
(12.975 -0.642369 3.70997e-19)
(13.2946 -0.651268 -1.82948e-19)
(13.5584 -0.655094 -3.48828e-19)
(13.7744 -0.656874 3.66574e-22)
(13.948 -0.656494 0)
(14.0846 -0.654546 0)
(14.19 -0.651237 0)
(14.2699 -0.647021 0)
(9.49153 -0.493376 -7.48268e-19)
(11.1853 -0.660749 -2.22237e-19)
(12.0299 -0.654594 0)
(12.5603 -0.691015 -1.95215e-19)
(12.9562 -0.698251 -1.85817e-19)
(13.2757 -0.707797 -1.77543e-19)
(13.5394 -0.712097 3.39039e-21)
(13.7556 -0.71417 8.41187e-19)
(13.9297 -0.713945 -3.29011e-19)
(14.0671 -0.712084 0)
(14.1733 -0.709061 3.08998e-19)
(14.2538 -0.705065 -3.04352e-19)
(9.45915 -0.535728 -2.49407e-19)
(11.1573 -0.710487 1.30737e-21)
(12.0068 -0.707653 2.08185e-19)
(12.5394 -0.745583 0)
(12.936 -0.753885 1.70578e-21)
(13.2554 -0.764073 3.58567e-19)
(13.5191 -0.768847 -3.44082e-19)
(13.7355 -0.771197 5.05001e-19)
(13.9101 -0.771078 0)
(14.0483 -0.769111 0)
(14.1554 -0.765709 0)
(14.237 -0.761917 4.47314e-19)
(9.42519 -0.577603 -9.94675e-19)
(11.1274 -0.759717 -6.64495e-19)
(11.982 -0.760337 6.20429e-19)
(12.5169 -0.799841 0)
(12.9142 -0.809235 -3.7069e-19)
(13.2336 -0.820073 -1.78541e-19)
(13.4973 -0.825309 0)
(13.714 -0.827942 3.32767e-19)
(13.8893 -0.827975 -3.27565e-19)
(14.0282 -0.826093 0)
(14.1362 -0.822842 0)
(14.2185 -0.818418 -1.50997e-19)
(9.38984 -0.619155 9.90725e-19)
(11.096 -0.808597 -2.23878e-19)
(11.9554 -0.812685 -2.04397e-19)
(12.4927 -0.853775 1.95996e-19)
(12.8908 -0.864265 1.8524e-19)
(13.2104 -0.87575 -5.31586e-19)
(13.4742 -0.88145 3.45825e-19)
(13.6912 -0.884356 -3.34052e-19)
(13.867 -0.884503 -3.23386e-19)
(14.0068 -0.882524 3.18277e-19)
(14.1158 -0.878985 0)
(14.1995 -0.87447 -1.48596e-19)
(9.353 -0.660209 4.92417e-19)
(11.0628 -0.856965 -6.65403e-19)
(11.9271 -0.864656 -2.05797e-19)
(12.4669 -0.90737 1.15758e-18)
(12.8659 -0.918962 -7.41195e-19)
(13.1856 -0.931097 1.7771e-19)
(13.4496 -0.937257 6.83049e-19)
(13.667 -0.94044 -5.02763e-19)
(13.8434 -0.940709 1.61794e-19)
(13.984 -0.938749 0)
(14.094 -0.935263 0)
(14.1786 -0.930941 1.49794e-19)
(9.31515 -0.700849 -9.22217e-22)
(11.0278 -0.904867 0)
(11.897 -0.916288 6.11613e-19)
(12.4394 -0.960625 -9.68996e-19)
(12.8394 -0.9733 -7.32674e-19)
(13.1594 -0.986104 7.10966e-19)
(13.4235 -0.992709 5.10266e-19)
(13.6413 -0.996142 -8.33537e-19)
(13.8184 -0.99654 -1.61879e-19)
(13.9599 -0.994458 -7.83349e-19)
(14.0708 -0.990483 4.63727e-19)
(14.1569 -0.98674 0)
(9.27524 -0.741391 -2.47245e-19)
(10.9909 -0.9527 0)
(11.8652 -0.967576 1.01901e-18)
(12.4102 -1.01352 -1.54007e-18)
(12.8114 -1.0273 3.70913e-19)
(13.1317 -1.04074 -3.52038e-19)
(13.3961 -1.04781 1.70905e-19)
(13.6143 -1.05151 4.9433e-19)
(13.792 -1.05208 -6.47523e-19)
(13.9343 -1.05012 1.57178e-19)
(14.0462 -1.04619 4.56269e-19)
(14.1329 -1.04326 -5.97603e-19)
(9.23362 -0.78105 4.9114e-19)
(10.9523 -0.999639 4.37763e-19)
(11.8315 -1.0183 8.12028e-19)
(12.3794 -1.06595 -1.536e-18)
(12.7817 -1.08088 1.1016e-18)
(13.1025 -1.09498 -3.47512e-19)
(13.3672 -1.10252 3.44019e-19)
(13.5858 -1.1065 3.30646e-19)
(13.7643 -1.10717 0)
(13.9075 -1.10516 0)
(14.0206 -1.10064 -3.00988e-19)
(14.1087 -1.09787 6.31106e-21)
(9.19108 -0.820295 -2.26723e-21)
(10.9121 -1.04607 -2.00855e-21)
(11.7961 -1.06857 0)
(12.3468 -1.11797 -3.80301e-19)
(12.7505 -1.13405 1.09615e-18)
(13.0718 -1.14882 -3.49587e-19)
(13.3368 -1.15681 -6.72551e-19)
(13.5559 -1.16111 3.32819e-19)
(13.7352 -1.1619 3.17216e-19)
(13.8793 -1.16001 -9.36944e-19)
(13.9934 -1.15545 0)
(14.082 -1.1535 -2.95296e-19)
(9.14705 -0.859119 -2.38828e-21)
(10.8699 -1.09203 4.32278e-19)
(11.7589 -1.11844 -4.0869e-19)
(12.3126 -1.16953 -1.14201e-18)
(12.7177 -1.18679 -3.57686e-19)
(13.0396 -1.20225 1.3995e-18)
(13.305 -1.21069 1.649e-21)
(13.5247 -1.21526 1.59953e-21)
(13.7046 -1.21618 3.19268e-19)
(13.8497 -1.21424 3.11022e-19)
(13.9649 -1.20912 0)
(14.0554 -1.20593 8.74272e-19)
(9.10156 -0.897582 -4.89073e-19)
(10.8264 -1.1376 -4.33352e-19)
(11.7199 -1.16777 -4.04896e-19)
(12.2767 -1.22064 -3.7783e-19)
(12.6833 -1.23907 7.27145e-19)
(13.0059 -1.25526 -1.04072e-18)
(13.2717 -1.26416 3.43456e-19)
(13.4919 -1.26904 6.57077e-19)
(13.6727 -1.27012 0)
(13.8187 -1.26837 3.06516e-19)
(13.9349 -1.26353 -1.2038e-18)
(14.0255 -1.26053 5.91439e-19)
(9.05422 -0.93547 4.83458e-19)
(10.7806 -1.18263 -4.35824e-19)
(11.6792 -1.21669 -1.20218e-18)
(12.2391 -1.27129 3.46323e-21)
(12.6474 -1.29089 0)
(12.9707 -1.30776 -3.45349e-19)
(13.237 -1.31716 -3.33719e-19)
(13.4579 -1.32236 3.2554e-19)
(13.6395 -1.32365 0)
(13.7866 -1.32199 3.08381e-19)
(13.904 -1.3173 5.96377e-19)
(13.9962 -1.3139 -6.40327e-21)
(9.00514 -0.972551 4.85973e-19)
(10.7332 -1.22673 0)
(11.6364 -1.26484 8.00468e-19)
(12.1997 -1.32131 -3.79601e-19)
(12.6098 -1.34216 -3.58108e-19)
(12.9339 -1.35973 1.03221e-18)
(13.2009 -1.36963 -9.98439e-19)
(13.4224 -1.37514 9.7183e-19)
(13.6049 -1.37659 0)
(13.7531 -1.3749 -3.03827e-19)
(13.8718 -1.36997 8.96993e-19)
(13.9654 -1.36628 2.88684e-19)
(8.95519 -1.00905 -9.65052e-19)
(10.6842 -1.2702 4.28194e-19)
(11.5921 -1.31241 -3.56518e-21)
(12.1587 -1.37082 -7.5424e-19)
(12.5706 -1.39291 7.14869e-19)
(12.8957 -1.41118 0)
(13.1633 -1.42159 -3.30466e-19)
(13.3856 -1.42742 -3.22475e-19)
(13.569 -1.42907 0)
(13.7182 -1.42751 3.00429e-19)
(13.8382 -1.42282 -8.94039e-19)
(13.9331 -1.41929 -2.9003e-19)
(8.90399 -1.04516 0)
(10.6333 -1.31323 2.70768e-21)
(11.5459 -1.35951 1.18987e-18)
(12.116 -1.41976 -6.598e-21)
(12.5298 -1.44312 -1.78007e-18)
(12.8559 -1.4621 1.3659e-18)
(13.1243 -1.47298 -1.31731e-18)
(13.3473 -1.47913 6.42984e-19)
(13.5316 -1.48092 0)
(13.682 -1.47931 0)
(13.8033 -1.47423 -2.93198e-19)
(13.9004 -1.4705 5.72126e-19)
(8.85083 -1.08067 0)
(10.5805 -1.35558 2.84673e-21)
(11.4979 -1.40598 -1.18141e-18)
(12.0715 -1.46811 7.47616e-19)
(12.4874 -1.49271 0)
(12.8146 -1.51245 6.76329e-19)
(13.0837 -1.52382 -3.30166e-19)
(13.3076 -1.53027 0)
(13.4929 -1.5323 -6.15591e-19)
(13.6444 -1.5309 6.0562e-19)
(13.7669 -1.52619 -2.94518e-19)
(13.8649 -1.52285 0)
(8.79602 -1.11558 9.5299e-19)
(10.5262 -1.39733 4.25174e-19)
(11.4481 -1.45172 7.87002e-19)
(12.0252 -1.51581 0)
(12.4433 -1.54169 7.01209e-19)
(12.7717 -1.56219 -3.43176e-19)
(13.0417 -1.57406 -6.55756e-19)
(13.2664 -1.58084 0)
(13.4527 -1.58304 3.0647e-19)
(13.6056 -1.5816 0)
(13.7296 -1.57657 0)
(13.8297 -1.5727 0)
(8.73954 -1.14964 4.71877e-19)
(10.4697 -1.43825 -8.4719e-19)
(11.3963 -1.49678 -3.92933e-19)
(11.9772 -1.56285 0)
(12.3975 -1.59003 6.97488e-19)
(12.7273 -1.6113 -3.38005e-19)
(12.9982 -1.62366 -6.45519e-19)
(13.2238 -1.63077 9.45431e-19)
(13.4112 -1.63317 -9.15082e-19)
(13.5653 -1.6319 8.95031e-19)
(13.6907 -1.62722 -8.66157e-19)
(13.7918 -1.62388 6.33349e-21)
(8.68171 -1.18287 1.88315e-18)
(10.4116 -1.47816 -4.24763e-19)
(11.3426 -1.54105 0)
(11.9273 -1.60915 1.09416e-18)
(12.3501 -1.63771 -6.27067e-21)
(12.6813 -1.65973 -6.71367e-19)
(12.9532 -1.67261 -3.21124e-19)
(13.1797 -1.68005 -2.38959e-21)
(13.3682 -1.68256 6.04475e-19)
(13.5236 -1.68122 -5.96887e-19)
(13.6506 -1.67604 1.14962e-18)
(13.7542 -1.67253 -1.11418e-18)
(8.6226 -1.21556 -9.38479e-19)
(10.3517 -1.51738 -4.18744e-19)
(11.287 -1.58459 -3.85548e-19)
(11.8757 -1.65473 -2.90765e-21)
(12.301 -1.68468 -3.44956e-19)
(12.6337 -1.70749 -6.61006e-19)
(12.9066 -1.7209 6.46297e-19)
(13.1342 -1.7287 -2.47962e-21)
(13.3237 -1.73145 0)
(13.4803 -1.73027 -8.79528e-19)
(13.6085 -1.72505 5.73237e-19)
(13.7129 -1.7208 0)
(8.56191 -1.24756 4.72717e-19)
(10.29 -1.5559 8.3299e-19)
(11.2297 -1.62737 1.15268e-18)
(11.8222 -1.69957 -1.09079e-18)
(12.2502 -1.73093 -3.39631e-19)
(12.5844 -1.75457 9.91259e-19)
(12.8586 -1.76856 3.19489e-19)
(13.0872 -1.77673 -3.09643e-19)
(13.2779 -1.77979 -1.19271e-18)
(13.4358 -1.77896 1.1729e-18)
(13.5654 -1.77431 -2.8533e-19)
(13.6707 -1.7701 -1.10781e-18)
(8.4995 -1.27881 -9.23909e-19)
(10.2264 -1.59362 1.64961e-18)
(11.1705 -1.66939 -3.86457e-19)
(11.767 -1.74365 3.58014e-19)
(12.1977 -1.77646 3.40396e-19)
(12.5337 -1.8009 -2.84101e-21)
(12.8091 -1.81547 9.43395e-19)
(13.0388 -1.824 -1.23091e-18)
(13.2308 -1.82731 0)
(13.3902 -1.82661 2.8837e-19)
(13.5217 -1.82221 0)
(13.6293 -1.81834 2.74549e-19)
(8.43539 -1.30922 -1.83652e-18)
(10.1609 -1.63041 1.64514e-18)
(11.1092 -1.71053 -3.81612e-19)
(11.7099 -1.78691 -3.58815e-19)