/*--------------------------------*- C++ -*----------------------------------*\
| =========                 |                                                 |
| \\      /  F ield         | OpenFOAM: The Open Source CFD Toolbox           |
|  \\    /   O peration     | Version:  2.3.1                                 |
|   \\  /    A nd           | Web:      www.OpenFOAM.org                      |
|    \\/     M anipulation  |                                                 |
\*---------------------------------------------------------------------------*/
FoamFile
{
    version     2.0;
    format      ascii;
    class       volVectorField;
    location    "2300";
    object      D;
}
// * * * * * * * * * * * * * * * * * * * * * * * * * * * * * * * * * * * * * //

dimensions      [0 1 0 0 0 0 0];

internalField   nonuniform List<vector> 
11800
(
(7.69511e-06 0.000220432 0)
(-9.75318e-06 0.000245507 0)
(5.43132e-06 7.45254e-05 0)
(-6.20934e-06 0.000101246 0)
(-8.91165e-06 0.000245093 0)
(-4.0275e-06 0.000101443 0)
(-1.48854e-06 0.000165617 0)
(-1.41833e-06 0.000127798 0)
(6.49865e-07 1.97395e-05 0)
(1.17451e-06 7.72883e-05 0)
(8.54565e-06 0.000219913 0)
(-7.74189e-06 8.63601e-05 0)
(-7.70176e-09 -6.13055e-09 0)
(4.82638e-06 7.40775e-05 0)
(-5.50882e-06 0.000101671 0)
(5.353e-06 1.21257e-05 0)
(-8.38914e-07 0.000165136 0)
(-8.13645e-07 0.000127342 0)
(3.64751e-07 1.99575e-05 0)
(7.21623e-07 7.69071e-05 0)
(-4.73762e-06 0.000101071 0)
(-7.09481e-06 8.67016e-05 0)
(-1.18132e-06 4.29605e-06 0)
(-1.26071e-06 4.47331e-06 0)
(4.77274e-06 1.38462e-05 0)
(-1.88698e-06 7.11488e-06 0)
(-7.60645e-06 5.16529e-05 0)
(1.09689e-05 0.000148506 0)
(-6.7868e-06 3.92266e-05 0)
(-5.88441e-06 2.824e-05 0)
(1.16126e-05 0.000187573 0)
(4.74833e-08 3.34682e-06 0)
(2.44939e-06 9.14066e-06 0)
(-5.93589e-06 0.000251915 0)
(4.78937e-06 0.000250784 0)
(-1.32569e-05 0.000200268 0)
(4.4606e-06 0.000251647 0)
(2.41036e-06 9.39695e-06 0)
(-1.45554e-06 0.000174886 0)
(1.17673e-06 8.4839e-05 0)
(-7.47875e-06 5.22292e-05 0)
(-6.67961e-06 3.97412e-05 0)
(1.07156e-05 0.00014766 0)
(-5.79833e-06 2.86918e-05 0)
(1.13546e-05 0.000186684 0)
(5.10573e-06 1.22221e-05 0)
(1.3538e-06 5.0847e-06 0)
(1.50961e-06 5.00384e-06 0)
(-2.27856e-06 0.000175035 0)
(1.83874e-06 8.49577e-05 0)
(-1.26115e-05 0.000129485 0)
(-1.34611e-05 0.000167314 0)
(-1.25199e-06 0.000218087 0)
(6.71818e-08 3.17645e-06 0)
(-6.56743e-06 1.44341e-05 0)
(8.96533e-07 7.50684e-07 0)
(-1.6542e-05 0.000255358 0)
(-4.18254e-06 7.17608e-05 0)
(4.74547e-06 0.000104419 0)
(-3.0431e-06 6.89521e-05 0)
(1.78752e-06 2.38819e-06 0)
(-2.1439e-06 0.00021825 0)
(-3.63845e-06 7.15996e-05 0)
(4.13633e-06 0.000104612 0)
(4.47044e-06 1.36352e-05 0)
(-1.57924e-05 0.000225842 0)
(-1.30831e-05 0.000128923 0)
(-1.40122e-05 0.000166697 0)
(-1.57125e-05 0.000254947 0)
(-1.97991e-06 7.34523e-06 0)
(-5.29328e-06 0.00025262 0)
(-9.33275e-06 0.000251258 0)
(-9.60362e-06 0.000250368 0)
(-8.49461e-08 9.61088e-08 0)
(1.90884e-06 2.49045e-06 0)
(-1.24884e-05 0.000200827 0)
(5.85095e-06 1.91097e-05 0)
(-1.60484e-05 0.000226683 0)
(-1.27826e-05 0.00022859 0)
(-1.19434e-05 0.000229351 0)
(-6.26095e-06 1.42374e-05 0)
(9.35792e-07 8.80768e-05 0)
(8.77098e-06 0.000249297 0)
(7.82746e-06 0.00024945 0)
(-1.14966e-06 9.05068e-05 0)
(-5.65238e-06 3.1786e-05 0)
(1.0497e-05 0.000180795 0)
(-6.44503e-06 4.32644e-05 0)
(-7.1696e-06 5.61578e-05 0)
(9.87934e-06 0.000142079 0)
(-3.01481e-07 0.000213391 0)
(2.60436e-06 8.69037e-06 0)
(-7.94599e-06 0.000230058 0)
(1.63842e-05 0.000257305 0)
(2.59233e-06 0.000111495 0)
(-2.05215e-09 -1.56053e-09 0)
(5.3007e-11 -3.31114e-10 0)
(2.04984e-09 -1.55881e-09 0)
(-1.85749e-07 0.000220757 0)
(-7.34984e-06 8.82594e-05 0)
(1.40999e-05 0.000256389 0)
(8.54431e-06 9.6921e-05 0)
(-3.16263e-06 1.26823e-05 0)
(-7.16624e-07 9.79845e-06 0)
(-4.74406e-07 0.000243999 0)
(8.60843e-07 2.0645e-05 0)
(-1.81704e-06 0.000125939 0)
(-1.88657e-06 0.000163559 0)
(2.77164e-06 4.75232e-06 0)
(6.47993e-06 4.32447e-05 0)
(5.68457e-06 3.17683e-05 0)
(7.20781e-06 5.61355e-05 0)
(-1.06709e-05 0.000180817 0)
(-1.00458e-05 0.00014211 0)
(1.52045e-06 7.57229e-05 0)
(2.19318e-06 4.33473e-06 0)
(1.56266e-05 0.000226762 0)
(-6.41302e-06 0.00023274 0)
(2.23367e-06 4.17697e-06 0)
(-1.08532e-06 7.82442e-05 0)
(-6.54589e-07 1.92205e-05 0)
(1.41676e-06 0.000166828 0)
(1.34567e-06 0.000128884 0)
(-1.98909e-06 0.00016002 0)
(-7.99773e-06 0.000230921 0)
(-7.14232e-07 0.000220071 0)
(-5.14321e-06 0.000244095 0)
(-1.20796e-06 0.000243434 0)
(-1.7752e-05 0.000263785 0)
(-1.8386e-05 0.000263149 0)
(-5.2696e-07 2.38134e-07 0)
(-2.37851e-06 5.61562e-06 0)
(1.07697e-05 0.000175449 0)
(-6.06434e-06 3.47387e-05 0)
(1.00994e-05 0.000137057 0)
(-6.8634e-06 4.66102e-05 0)
(-7.59338e-06 5.98636e-05 0)
(9.93589e-06 0.000175608 0)
(-5.58916e-06 3.46358e-05 0)
(9.3184e-06 0.000137204 0)
(-6.3272e-06 4.64963e-05 0)
(-7.0015e-06 5.97398e-05 0)
(-1.48313e-06 1.7808e-05 0)
(3.48065e-06 0.000170006 0)
(3.25e-06 0.000131949 0)
(-2.78973e-06 8.07816e-05 0)
(1.34555e-05 8.86216e-05 0)
(-1.33995e-05 8.67002e-05 0)
(8.40416e-06 9.76198e-05 0)
(-1.00244e-06 1.03956e-05 0)
(-8.84293e-06 0.000212412 0)
(-8.76663e-06 0.000213531 0)
(4.29303e-06 0.000248873 0)
(-9.88764e-06 0.000200545 0)
(3.94698e-06 0.000142009 0)
(4.27977e-06 0.0001807 0)
(-1.10169e-05 0.000159331 0)
(-1.02315e-05 0.000122003 0)
(5.22979e-06 2.27421e-05 0)
(-8.24798e-07 0.000214187 0)
(3.01342e-06 4.83633e-06 0)
(-9.03763e-06 0.000200742 0)
(6.12428e-06 1.93847e-05 0)
(-4.06583e-06 5.84371e-05 0)
(-3.66711e-06 4.53118e-05 0)
(-3.23094e-06 3.35805e-05 0)
(5.49193e-06 0.000138826 0)
(5.8497e-06 0.000177344 0)
(-2.66745e-06 3.32591e-06 0)
(-4.80915e-06 2.18824e-05 0)
(1.02513e-05 0.000161087 0)
(9.51332e-06 0.000123651 0)
(2.27695e-06 0.00016338 0)
(-1.51003e-05 0.000199341 0)
(-1.52524e-05 0.00020053 0)
(5.49662e-06 1.38698e-05 0)
(5.50306e-06 1.42505e-05 0)
(5.99726e-06 4.2001e-05 0)
(6.68552e-06 5.47542e-05 0)
(5.24563e-06 3.06722e-05 0)
(-9.44851e-06 0.000144013 0)
(-1.00246e-05 0.000182853 0)
(4.01545e-06 0.000141125 0)
(4.30362e-06 0.000179791 0)
(4.38234e-06 8.63562e-05 0)
(-2.11505e-06 8.06005e-05 0)
(-1.12966e-06 1.78993e-05 0)
(2.63041e-06 0.00016978 0)
(2.45502e-06 0.000131738 0)
(-3.45809e-06 0.000209523 0)
(-1.18509e-06 3.71926e-05 0)
(-1.33435e-06 4.93896e-05 0)
(-1.29976e-05 0.000224113 0)
(-3.66944e-07 8.53798e-06 0)
(-1.25786e-05 0.000106097 0)
(1.08614e-05 7.05353e-05 0)
(1.28661e-07 1.24729e-07 0)
(-7.7867e-06 0.000252315 0)
(1.55176e-05 0.00022767 0)
(-4.5951e-07 2.76808e-07 0)
(1.02153e-05 0.000238573 0)
(1.27654e-05 0.000204045 0)
(1.36924e-05 0.000204212 0)
(-4.18598e-07 0.00024523 0)
(-1.05826e-06 0.000246012 0)
(7.25984e-06 6.8842e-05 0)
(6.41097e-06 6.91448e-05 0)
(-8.58433e-06 0.00010789 0)
(-7.56518e-06 0.000107515 0)
(5.1853e-07 2.3442e-07 0)
(-1.44876e-06 1.24622e-05 0)
(-1.63413e-06 6.96366e-06 0)
(-3.84425e-08 1.45028e-08 0)
(4.95996e-06 8.24366e-06 0)
(-1.19605e-07 3.8089e-08 0)
(6.41024e-07 6.84019e-06 0)
(-8.82959e-06 0.000243945 0)
(-4.32325e-06 3.10282e-05 0)
(-4.92668e-06 4.24182e-05 0)
(-5.48878e-06 5.52225e-05 0)
(8.08884e-06 0.000182128 0)
(7.64124e-06 0.000143347 0)
(5.07864e-07 0.000169468 0)
(4.71787e-07 0.000131442 0)
(-2.36748e-07 1.80268e-05 0)
(-4.46383e-07 8.03622e-05 0)
(-1.75567e-07 2.92076e-08 0)
(6.66022e-07 2.25127e-05 0)
(-1.347e-06 0.000122232 0)
(-4.02378e-06 7.76404e-05 0)
(9.3219e-07 2.2184e-05 0)
(-1.88904e-06 0.000122874 0)
(-6.04065e-06 0.00023089 0)
(7.47525e-06 8.69836e-05 0)
(6.96371e-06 8.63208e-05 0)
(3.82059e-08 1.44238e-08 0)
(1.74989e-07 2.91221e-08 0)
(-1.16957e-05 0.000214975 0)
(-1.12522e-05 0.000215882 0)
(-1.11047e-05 7.37539e-05 0)
(1.2441e-05 0.000102343 0)
(9.92675e-06 0.000182775 0)
(9.35297e-06 0.000143945 0)
(-5.25555e-06 3.07175e-05 0)
(-6.01135e-06 4.20495e-05 0)
(-6.70147e-06 5.48082e-05 0)
(-3.76931e-07 0.000219195 0)
(-4.44548e-06 2.09402e-05 0)
(9.69003e-06 0.000163088 0)
(9.00589e-06 0.000125509 0)
(5.96701e-06 8.78856e-05 0)
(5.00851e-06 0.000206769 0)
(7.87571e-06 0.000257613 0)
(8.21411e-07 6.74145e-06 0)
(-2.95574e-06 6.96547e-05 0)
(-9.9469e-09 2.50295e-06 0)
(1.19056e-07 3.79386e-08 0)
(2.82019e-06 7.34669e-05 0)
(2.42523e-06 7.27057e-05 0)
(-3.08165e-06 0.000102531 0)
(-2.64233e-06 0.000103282 0)
(5.46093e-06 5.52053e-05 0)
(4.90227e-06 4.24028e-05 0)
(4.29235e-06 3.102e-05 0)
(-7.69215e-06 0.000143348 0)
(-8.16492e-06 0.000182151 0)
(-4.33322e-06 0.00025239 0)
(1.5061e-06 1.84946e-06 0)
(-1.46879e-08 0.000145563 0)
(-2.19654e-08 2.9712e-05 0)
(5.72171e-06 0.000243569 0)
(4.68537e-06 8.57359e-05 0)
(-1.82026e-05 0.000240693 0)
(5.38551e-06 8.85151e-05 0)
(2.15303e-07 1.59179e-07 0)
(1.49458e-05 0.000196889 0)
(1.50322e-05 0.000195789 0)
(-9.17946e-06 0.000125668 0)
(-9.87548e-06 0.000163253 0)
(-8.20238e-06 0.000125354 0)
(-8.82657e-06 0.000162917 0)
(4.47078e-06 2.08632e-05 0)
(4.00748e-06 2.10006e-05 0)
(4.44739e-06 0.000115505 0)
(5.29299e-06 0.000115371 0)
(4.81844e-06 0.0001523 0)
(5.73679e-06 0.000152154 0)
(-2.4982e-06 2.61509e-05 0)
(-2.9742e-06 2.62354e-05 0)
(-5.2936e-07 1.18143e-05 0)
(2.65091e-06 7.55156e-06 0)
(2.48183e-06 7.29157e-06 0)
(2.53627e-06 5.52533e-06 0)
(4.28009e-06 0.000207653 0)
(-1.48579e-05 0.000197251 0)
(-1.49373e-05 0.000196108 0)
(5.67456e-06 1.54823e-05 0)
(5.56363e-06 1.50433e-05 0)
(1.18041e-05 8.86412e-05 0)
(1.19625e-05 8.96281e-05 0)
(-1.1749e-05 8.66322e-05 0)
(-1.18117e-05 8.56614e-05 0)
(5.30005e-06 0.000248707 0)
(-1.45819e-05 0.000251938 0)
(-1.40163e-05 0.000212231 0)
(3.36244e-06 3.81951e-06 0)
(-8.5712e-06 0.000248788 0)
(-7.65539e-06 0.000247939 0)
(3.61538e-06 0.000116816 0)
(-2.26541e-06 0.00010506 0)
(1.99518e-06 7.1216e-05 0)
(-1.00769e-05 8.89704e-05 0)
(9.84636e-06 8.62198e-05 0)
(-4.83492e-06 1.52163e-05 0)
(-1.43213e-07 9.14637e-08 0)
(7.64443e-07 3.14617e-06 0)
(8.89715e-07 7.59613e-05 0)
(-8.49409e-06 7.64955e-05 0)
(9.09923e-06 9.9082e-05 0)
(-4.89943e-06 6.96824e-05 0)
(5.77954e-06 0.000106886 0)
(2.91183e-06 0.000185608 0)
(4.02369e-06 0.00018521 0)
(-1.75031e-06 4.02868e-05 0)
(-2.41264e-06 4.05282e-05 0)
(-1.95802e-06 5.28544e-05 0)
(-2.69758e-06 5.31229e-05 0)
(4.60126e-07 2.05045e-05 0)
(-9.99354e-07 0.00012622 0)
(-1.01108e-06 0.000163877 0)
(-1.62825e-06 0.000239533 0)
(2.31927e-06 5.49032e-06 0)
(-4.68742e-07 0.000102381 0)
(-6.93107e-06 0.00024552 0)
(9.66198e-07 7.78604e-07 0)
(6.17284e-06 0.000146255 0)
(-3.39773e-06 2.93871e-05 0)
(-1.04924e-05 0.000103458 0)
(-9.8555e-06 0.000102946 0)
(9.17119e-06 7.27216e-05 0)
(8.644e-06 7.31606e-05 0)
(-1.03733e-05 0.000255997 0)
(-1.04873e-05 0.000254901 0)
(-1.73976e-06 1.18878e-05 0)
(-2.0622e-06 1.18429e-05 0)
(8.37002e-07 3.2969e-06 0)
(-1.99035e-06 3.4209e-06 0)
(4.75156e-07 0.000107401 0)
(3.03074e-06 2.12417e-05 0)
(2.54732e-06 2.13764e-05 0)
(-6.17506e-06 0.000124809 0)
(-5.17968e-06 0.000124516 0)
(-6.64654e-06 0.000162339 0)
(-5.57616e-06 0.000162026 0)
(-1.34497e-05 0.000205419 0)
(-1.24471e-05 0.0002055 0)
(-2.97381e-06 6.23894e-05 0)
(-2.75353e-06 4.88753e-05 0)
(-2.44372e-06 3.67366e-05 0)
(4.23406e-06 0.000191732 0)
(-7.43653e-07 0.000217074 0)
(8.85759e-06 8.61374e-05 0)
(8.38547e-06 8.68816e-05 0)
(3.90626e-06 0.000165971 0)
(3.7389e-06 0.000128138 0)
(-1.79431e-06 1.95886e-05 0)
(1.67472e-06 2.19223e-05 0)
(1.37651e-06 2.23473e-05 0)
(-3.06116e-06 0.000159989 0)
(-3.63914e-06 0.00016081 0)
(-3.3752e-06 0.000123403 0)
(-2.75346e-06 0.000122564 0)
(-3.56242e-06 2.01036e-05 0)
(7.37034e-06 0.000127158 0)
(7.92e-06 0.000164864 0)
(-9.82035e-08 9.35478e-07 0)
(1.31648e-05 9.82189e-05 0)
(-1.21383e-05 7.75135e-05 0)
(-5.55347e-08 8.70535e-07 0)
(-3.97786e-06 0.000182738 0)
(-4.66255e-06 0.000183739 0)
(-3.65295e-06 0.000143981 0)
(-4.27525e-06 0.00014493 0)
(2.33353e-06 3.01005e-05 0)
(2.00864e-06 3.06267e-05 0)
(2.75192e-06 4.14115e-05 0)
(2.36011e-06 4.20105e-05 0)
(3.07102e-06 5.41072e-05 0)
(2.63079e-06 5.4775e-05 0)
(1.47994e-05 0.000205814 0)
(1.50753e-05 0.000206857 0)
(-1.41906e-06 7.02047e-06 0)
(5.54923e-06 0.00014698 0)
(-3.03479e-06 2.89832e-05 0)
(4.91834e-06 2.2937e-05 0)
(-9.57879e-06 0.000121601 0)
(-1.03385e-05 0.000158875 0)
(-1.39448e-07 4.24271e-08 0)
(1.90893e-06 0.000214468 0)
(4.85791e-06 2.18864e-05 0)
(-9.71134e-06 0.000123647 0)
(-1.04738e-05 0.000161047 0)
(3.71179e-06 6.41271e-06 0)
(-7.32853e-06 0.000232406 0)
(4.66787e-06 1.7483e-05 0)
(-1.15628e-05 0.000190908 0)
(-2.50918e-06 9.41931e-06 0)
(-2.67646e-06 9.76381e-06 0)
(2.61853e-06 9.66207e-06 0)
(-1.26409e-06 0.000102223 0)
(-9.83641e-09 -7.23719e-09 0)
(-7.78115e-06 0.000254597 0)
(-1.25013e-07 4.9831e-08 0)
(1.38746e-07 4.2241e-08 0)
(-3.65611e-06 2.1204e-05 0)
(7.90449e-06 0.000162459 0)
(7.34264e-06 0.000124921 0)
(6.08268e-06 0.000214805 0)
(-1.75263e-05 0.000230422 0)
(2.23942e-06 9.57102e-05 0)
(-1.46122e-06 9.32187e-05 0)
(-4.0616e-07 9.85521e-06 0)
(-1.13796e-06 1.19831e-06 0)
(-7.10054e-09 -6.39287e-09 0)
(-4.39579e-06 7.03303e-05 0)
(5.18012e-06 0.000106141 0)
(3.8708e-07 1.35939e-07 0)
(-5.95427e-07 9.18519e-05 0)
(-5.62439e-07 9.09683e-05 0)
(-2.61826e-08 7.71671e-05 0)
(-1.10924e-07 1.98376e-05 0)
(1.82265e-07 0.000127589 0)
(1.61922e-07 0.000165463 0)
(-3.89484e-07 1.36747e-07 0)
(1.58225e-06 1.06574e-05 0)
(-6.05806e-06 0.000187808 0)
(3.48001e-06 3.90146e-05 0)
(3.90153e-06 5.14287e-05 0)
(4.28346e-06 6.5179e-05 0)
(1.26891e-05 0.000244402 0)
(-4.73928e-06 1.89764e-05 0)
(1.08834e-05 0.000167515 0)
(1.01484e-05 0.000129635 0)
(-7.21613e-06 0.000225488 0)
(1.06909e-06 2.75142e-06 0)
(9.6962e-06 0.000221312 0)
(-2.12522e-06 3.3694e-06 0)
(6.78985e-06 0.000245372 0)
(-5.22408e-06 0.000187828 0)
(2.99491e-06 3.8998e-05 0)
(3.3578e-06 5.14112e-05 0)
(3.6889e-06 6.51562e-05 0)
(9.33795e-07 2.60794e-06 0)
(4.47393e-06 0.00015069 0)
(-2.3609e-06 2.69861e-05 0)
(-8.05259e-07 1.06134e-05 0)
(-1.27607e-05 0.000222096 0)
(-4.77717e-06 5.86526e-05 0)
(-4.31009e-06 4.55078e-05 0)
(-3.79904e-06 3.37551e-05 0)
(6.41239e-06 0.0001386 0)
(6.83086e-06 0.000177102 0)
(1.74941e-05 0.000258992 0)
(1.01785e-05 0.000227356 0)
(1.12865e-05 0.000226966 0)
(1.45506e-07 1.02573e-07 0)
(6.35483e-06 6.99387e-05 0)
(-7.44586e-06 0.000106572 0)
(-3.25087e-06 7.09332e-05 0)
(3.76713e-06 0.000105467 0)
(-1.10109e-06 0.000113567 0)
(-8.38515e-07 0.000183927 0)
(5.20057e-07 5.39681e-05 0)
(4.6617e-07 4.12845e-05 0)
(2.14088e-08 2.9102e-05 0)
(-1.92172e-07 0.000110374 0)
(-9.30212e-08 0.000146711 0)
(7.99948e-06 0.000258643 0)
(4.57937e-07 1.09304e-05 0)
(-2.02401e-07 2.53975e-06 0)
(1.52434e-06 0.000155717 0)
(7.72208e-08 2.62629e-06 0)
(-1.20689e-06 8.17289e-06 0)
(2.99194e-06 2.90313e-05 0)
(-5.61278e-06 0.000146885 0)
(-1.13893e-07 1.26891e-07 0)
(-1.18202e-05 0.000221993 0)
(-1.00134e-06 1.94599e-05 0)
(2.08599e-06 0.000166342 0)
(2.07083e-06 0.000128386 0)
(2.72267e-07 6.54037e-08 0)
(-3.56375e-06 6.51842e-06 0)
(3.884e-06 5.26966e-05 0)
(3.47213e-06 4.01485e-05 0)
(-5.95791e-06 0.000185876 0)
(1.14442e-06 7.31081e-05 0)
(-8.00145e-06 0.000251328 0)
(-1.36949e-07 1.92151e-08 0)
(-4.65813e-06 1.0181e-05 0)
(3.01999e-06 5.61774e-06 0)
(-3.05246e-06 3.36697e-06 0)
(8.9166e-06 8.77074e-05 0)
(6.7692e-06 0.000106593 0)
(-5.84655e-06 6.9915e-05 0)
(4.14787e-07 2.88062e-05 0)
(-9.80309e-07 0.000110791 0)
(-8.21982e-07 0.000147255 0)
(8.47996e-06 0.000218805 0)
(7.91818e-06 9.60236e-05 0)
(4.10322e-06 0.000253265 0)
(3.9524e-06 0.000254208 0)
(1.14143e-06 0.000106098 0)
(1.56637e-06 7.25631e-05 0)
(1.3649e-07 1.9159e-08 0)
(-1.14243e-05 0.000198461 0)
(4.20142e-06 1.45178e-05 0)
(1.4477e-08 2.03327e-07 0)
(2.17518e-06 0.00014194 0)
(2.84612e-06 0.00014243 0)
(3.971e-09 1.7804e-08 0)
(-2.21979e-06 5.43653e-06 0)
(5.44068e-06 5.35741e-05 0)
(4.87101e-06 4.09385e-05 0)
(4.25169e-06 2.96909e-05 0)
(-7.79003e-06 0.000145572 0)
(-8.25673e-06 0.000184586 0)
(7.19995e-06 9.14119e-05 0)
(1.03747e-06 0.000214698 0)
(-4.66217e-06 0.000242021 0)
(-4.41479e-06 0.000243294 0)
(-4.6152e-07 0.000186895 0)
(-3.97647e-07 0.000187918 0)
(3.12584e-07 3.89109e-05 0)
(2.84304e-07 3.94838e-05 0)
(3.50144e-07 5.13169e-05 0)
(3.18063e-07 5.19581e-05 0)
(2.25829e-07 6.50548e-05 0)
(2.71956e-07 6.57391e-05 0)
(5.56404e-07 0.000106451 0)
(1.03051e-06 0.000108151 0)
(1.79543e-06 0.000164416 0)
(-4.7098e-07 0.00011329 0)
(-2.73239e-07 6.56206e-08 0)
(-3.05325e-07 2.42247e-06 0)
(3.93938e-06 0.000149894 0)
(-2.09917e-06 2.74027e-05 0)
(1.06301e-06 3.3595e-06 0)
(1.5405e-05 0.0002456 0)
(-1.1878e-06 0.000188735 0)
(7.28108e-07 3.84751e-05 0)
(8.16839e-07 5.08287e-05 0)
(8.02656e-07 6.44892e-05 0)
(-1.17954e-05 0.000206477 0)
(4.06989e-06 7.42858e-05 0)
(6.00009e-06 0.000260647 0)
(6.78702e-06 0.000260069 0)
(-1.19951e-06 8.42625e-06 0)
(-7.61429e-07 0.000144803 0)
(3.91015e-07 3.0134e-05 0)
(1.78686e-07 1.84422e-07 0)
(1.5116e-05 0.000252509 0)
(-2.12918e-07 4.27213e-06 0)
(-2.87699e-06 4.36374e-05 0)
(-3.19875e-06 5.65825e-05 0)
(-3.82555e-06 5.71735e-05 0)
(-3.44396e-06 4.4171e-05 0)
(-2.49632e-06 3.20902e-05 0)
(-3.01811e-06 3.25732e-05 0)
(4.99731e-06 0.000140551 0)
(5.3193e-06 0.000179186 0)
(2.21726e-06 3.04868e-06 0)
(-1.43296e-07 8.7574e-08 0)
(-1.30697e-05 0.000171029 0)
(-1.36133e-05 0.000251995 0)
(4.43679e-06 0.000108066 0)
(-3.9016e-07 4.37126e-06 0)
(-7.08067e-06 0.000140297 0)
(-7.53054e-06 0.000178907 0)
(4.06658e-06 3.27696e-05 0)
(4.62329e-06 4.439e-05 0)
(5.13269e-06 5.74131e-05 0)
(6.53739e-06 0.000215516 0)
(1.48635e-05 0.000253403 0)
(-8.04759e-06 8.84914e-05 0)
(3.33257e-06 2.93791e-05 0)
(-6.22273e-06 0.00014625 0)
(4.24466e-06 0.000108902 0)
(-1.62917e-06 7.77667e-05 0)
(4.30214e-06 5.31431e-05 0)
(3.84888e-06 4.05494e-05 0)
(-6.56598e-06 0.000185209 0)
(-1.19586e-05 8.95018e-05 0)
(1.16465e-05 8.58362e-05 0)
(1.16453e-05 8.67879e-05 0)
(-1.18025e-05 8.84912e-05 0)
(-5.58608e-06 1.50352e-05 0)
(-5.7488e-06 1.55008e-05 0)
(-5.5537e-06 8.67761e-05 0)
(-2.87623e-06 3.44754e-06 0)
(-8.97831e-06 8.74376e-05 0)
(-1.31877e-06 0.000207669 0)
(-1.17822e-06 1.422e-06 0)
(9.03624e-06 5.11596e-05 0)
(8.05697e-06 3.87918e-05 0)
(-1.26868e-05 0.000130608 0)
(2.0507e-06 5.31763e-05 0)
(1.83493e-06 4.05754e-05 0)
(-3.15818e-06 0.000185125 0)
(4.26775e-06 1.29767e-05 0)
(7.00248e-06 0.000105735 0)
(-6.08839e-06 7.06616e-05 0)
(-3.39351e-06 3.83774e-06 0)
(3.58417e-06 0.000165071 0)
(3.42831e-06 0.000127333 0)
(-1.66506e-06 1.99734e-05 0)
(1.04159e-05 0.00015592 0)
(-5.17094e-06 2.43898e-05 0)
(9.62719e-06 0.000118866 0)
(-5.90956e-06 1.48362e-05 0)
(7.33198e-06 0.000242506 0)
(8.41099e-06 0.000242153 0)
(8.10416e-06 0.000184591 0)
(7.68555e-06 0.000145588 0)
(-4.25232e-06 2.97756e-05 0)
(-4.8489e-06 4.09344e-05 0)
(-5.4168e-06 5.35697e-05 0)
(-1.24142e-06 1.23305e-06 0)
(-6.4591e-06 0.000225259 0)
(7.0337e-06 0.000143982 0)
(-3.95235e-06 3.06643e-05 0)
(-7.54667e-07 9.48139e-07 0)
(6.0033e-06 0.000245213 0)
(1.49765e-06 1.24053e-06 0)
(1.24262e-06 9.41161e-07 0)
(3.13816e-06 4.49998e-06 0)
(7.26155e-06 0.000197268 0)
(-1.23262e-05 0.000202675 0)
(1.63823e-05 0.000245912 0)
(3.1776e-06 4.72954e-06 0)
(7.20924e-06 9.59945e-05 0)
(9.85826e-06 0.000209111 0)
(-1.58695e-05 0.000197776 0)
(5.90757e-06 1.48684e-05 0)
(-3.65275e-06 0.00021042 0)
(1.48343e-06 5.33406e-05 0)
(1.32782e-06 4.07222e-05 0)
(-2.29693e-06 0.000184873 0)
(-5.61207e-07 2.71264e-06 0)
(4.20393e-06 0.000113986 0)
(1.23624e-07 4.93226e-08 0)
(-4.92485e-06 1.0083e-05 0)
(-8.691e-07 9.37948e-05 0)
(-2.20037e-06 1.82563e-05 0)
(-2.56007e-06 1.83762e-05 0)
(4.77943e-06 0.000130999 0)
(5.55023e-06 0.000130757 0)
(5.94794e-06 0.000168727 0)
(5.12129e-06 0.000168988 0)
(1.45139e-07 5.495e-07 0)
(-3.98162e-08 6.80979e-06 0)
(-8.62396e-06 0.000117767 0)
(-9.33863e-06 0.000154734 0)
(4.64323e-06 2.49633e-05 0)
(-2.74643e-06 1.48983e-05 0)
(-1.62399e-06 0.000159076 0)
(-2.49576e-06 6.40483e-06 0)
(5.0194e-06 0.000242892 0)
(-4.08076e-06 7.99594e-05 0)
(-4.72676e-06 7.97592e-05 0)
(1.4254e-07 1.45995e-07 0)
(-2.70658e-06 8.26815e-05 0)
(-1.38573e-06 1.6802e-05 0)
(3.13112e-06 0.000134192 0)
(3.34752e-06 0.000172404 0)
(-3.78148e-06 0.000159102 0)
(-3.33254e-06 0.00012175 0)
(1.68818e-06 2.27713e-05 0)
(2.25977e-06 8.58546e-06 0)
(2.09895e-06 8.2749e-06 0)
(1.07391e-06 7.97273e-05 0)
(-1.41507e-06 0.000168665 0)
(-1.32808e-06 0.000130677 0)
(5.84019e-07 1.83806e-05 0)
(-1.30729e-06 3.15844e-05 0)
(-2.35017e-06 6.58302e-06 0)
(9.36094e-06 0.000248582 0)
(-9.16231e-06 0.000148988 0)
(7.07009e-06 7.03838e-05 0)
(-8.24571e-06 0.000106073 0)
(9.97894e-06 0.000210051 0)
(-9.23787e-06 6.47237e-05 0)
(-8.42514e-06 5.10095e-05 0)
(1.12363e-05 0.000112873 0)
(-7.50882e-06 3.86556e-05 0)
(-6.5098e-06 2.77608e-05 0)
(1.22543e-05 0.000149451 0)
(1.29473e-05 0.00018862 0)
(-3.37629e-06 0.000180527 0)
(-3.17942e-06 0.000141816 0)
(2.02942e-06 4.33568e-05 0)
(1.78158e-06 3.18545e-05 0)
(2.25671e-06 5.62722e-05 0)
(1.94028e-06 4.39772e-05 0)
(-3.20736e-06 0.000179519 0)
(2.15523e-06 5.69609e-05 0)
(1.7058e-06 3.24001e-05 0)
(-3.01848e-06 0.000140868 0)
(-1.78844e-06 0.000228787 0)
(-3.66586e-06 4.8265e-06 0)
(-3.95469e-06 2.25565e-05 0)
(8.28372e-06 0.0001596 0)
(7.67839e-06 0.000122267 0)
(-2.48378e-06 3.03388e-05 0)
(4.45754e-06 0.000144531 0)
(1.2291e-05 0.000178885 0)
(1.15533e-05 0.000140287 0)
(-6.72348e-06 3.28557e-05 0)
(-7.64457e-06 4.44737e-05 0)
(-8.48639e-06 5.7495e-05 0)
(1.29493e-05 0.000195171 0)
(1.41346e-05 0.000194924 0)
(3.20329e-07 5.81417e-06 0)
(-1.32066e-06 9.22681e-05 0)
(-3.54218e-06 9.83059e-06 0)
(1.81814e-07 3.42821e-07 0)
(-3.48409e-06 1.24754e-05 0)
(-5.61205e-07 0.000208082 0)
(1.43135e-07 5.56505e-06 0)
(-2.86179e-06 9.88409e-05 0)
(1.17513e-05 0.000130685 0)
(-5.408e-06 1.85295e-05 0)
(1.25919e-05 0.000168635 0)
(-1.20544e-08 -8.35163e-09 0)
(7.74624e-07 0.000155865 0)
(2.28834e-07 9.65706e-08 0)
(1.56131e-07 1.15923e-07 0)
(2.07955e-06 0.000112166 0)
(-2.61641e-07 2.13095e-07 0)
(9.56689e-06 0.000250435 0)
(7.05394e-07 0.000142389 0)
(-3.91496e-07 3.14889e-05 0)
(2.11673e-06 1.26985e-05 0)
(1.30924e-06 0.000141948 0)
(-7.54582e-07 3.1718e-05 0)
(-1.29626e-07 2.82477e-06 0)
(-9.04663e-06 5.11345e-05 0)
(-8.06461e-06 3.877e-05 0)
(-6.99272e-06 2.78682e-05 0)
(-5.82616e-06 1.85741e-05 0)
(1.26506e-05 0.000130635 0)
(1.31433e-05 0.000149288 0)
(1.35558e-05 0.000168579 0)
(1.38917e-05 0.000188449 0)
(-6.16575e-06 0.000203271 0)
(-5.48036e-06 0.000241552 0)
(-1.7685e-05 0.000199572 0)
(6.4459e-06 1.42409e-05 0)
(4.02257e-06 0.000256045 0)
(4.68099e-06 0.000254944 0)
(1.24548e-06 0.000138819 0)
(1.35049e-06 0.000177357 0)
(-9.81665e-07 5.85051e-05 0)
(-8.85154e-07 4.53698e-05 0)
(-7.79566e-07 3.36278e-05 0)
(-5.12944e-06 1.48755e-05 0)
(1.86534e-06 1.06785e-05 0)
(-6.89392e-06 6.12789e-05 0)
(9.05355e-06 0.000135129 0)
(-6.24324e-06 4.78899e-05 0)
(-5.53082e-06 3.58703e-05 0)
(9.66872e-06 0.000173395 0)
(-3.89667e-06 1.648e-05 0)
(9.78926e-06 0.000193423 0)
(1.64458e-06 8.83919e-05 0)
(-1.0402e-06 0.000215984 0)
(1.03177e-06 5.16908e-07 0)
(-7.64068e-07 0.00018973 0)
(4.80659e-07 3.79042e-05 0)
(5.39662e-07 5.01887e-05 0)
(4.99036e-07 6.37848e-05 0)
(3.05516e-06 0.00022374 0)
(-4.27733e-07 2.72588e-07 0)
(1.55374e-05 0.000220168 0)
(-2.35217e-06 9.3661e-05 0)
(-7.22724e-08 1.56677e-07 0)
(5.55737e-06 0.000133035 0)
(-2.48375e-06 1.73383e-05 0)
(5.94515e-06 0.000171165 0)
(1.24568e-07 9.7821e-08 0)
(-3.33104e-06 2.09059e-05 0)
(6.73817e-06 0.000125502 0)
(7.25046e-06 0.000163085 0)
(1.16119e-06 1.5331e-06 0)
(-4.75953e-06 8.17173e-05 0)
(9.94505e-07 8.73493e-05 0)
(-1.07792e-05 0.000235263 0)
(9.82383e-07 0.000139572 0)
(1.04715e-06 0.000178141 0)
(-8.30396e-07 5.79441e-05 0)
(-6.56664e-07 3.31829e-05 0)
(-7.48055e-07 4.48631e-05 0)
(1.59248e-06 8.90426e-05 0)
(-2.29321e-07 8.76503e-07 0)
(-2.03652e-07 2.9724e-06 0)
(4.60626e-07 0.000207744 0)
(1.06169e-05 9.5712e-05 0)
(-9.9909e-06 7.97652e-05 0)
(-7.56935e-06 0.00026319 0)
(-1.71701e-05 0.000172207 0)
(-1.60679e-05 0.000134037 0)
(-1.66674e-05 0.000152805 0)
(-1.53689e-05 0.00011601 0)
(8.4981e-06 2.61135e-05 0)
(9.85855e-06 3.6725e-05 0)
(1.11045e-05 4.88257e-05 0)
(1.22422e-05 6.22875e-05 0)
(1.7115e-05 0.000172205 0)
(1.6613e-05 0.000152805 0)
(-8.52558e-06 2.61152e-05 0)
(-9.89102e-06 3.67276e-05 0)
(1.6014e-05 0.000134036 0)
(-1.11424e-05 4.88276e-05 0)
(1.53182e-05 0.000116009 0)
(-1.22845e-05 6.22897e-05 0)
(-4.93762e-06 1.44611e-05 0)
(-2.6715e-06 0.000215526 0)
(-1.90868e-06 0.000215321 0)
(-2.37186e-06 0.000244015 0)
(3.90575e-06 0.000148054 0)
(-2.12142e-06 2.83874e-05 0)
(-7.66867e-07 1.13775e-06 0)
(-3.06575e-06 0.000257861 0)
(-3.37723e-06 5.58387e-05 0)
(-4.13539e-06 5.56294e-05 0)
(-3.03409e-06 4.2968e-05 0)
(-3.7141e-06 4.27811e-05 0)
(4.94843e-06 0.000181484 0)
(5.94606e-06 0.000181569 0)
(1.30835e-05 0.000178422 0)
(1.22944e-05 0.000139854 0)
(-7.18424e-06 3.31251e-05 0)
(-8.16271e-06 4.47764e-05 0)
(-9.05692e-06 5.78283e-05 0)
(-7.94873e-06 0.00011818 0)
(-8.60433e-06 0.000155183 0)
(4.25501e-06 2.47259e-05 0)
(-2.50755e-06 0.000105895 0)
(2.11292e-06 7.05013e-05 0)
(2.57194e-06 0.000186603 0)
(-1.53123e-06 3.96363e-05 0)
(-1.7152e-06 5.21278e-05 0)
(-1.85573e-06 6.58098e-05 0)
(4.90397e-06 6.96648e-05 0)
(4.15379e-06 6.98421e-05 0)
(-5.77105e-06 0.00010686 0)
(-4.88839e-06 0.000106642 0)
(-5.8008e-06 0.000255935 0)
(3.95913e-07 1.0927e-06 0)
(9.61363e-06 0.000220407 0)
(3.47072e-06 7.73436e-05 0)
(9.42976e-06 0.000152645 0)
(-4.84883e-06 2.60306e-05 0)
(8.69245e-06 0.000115838 0)
(-8.11701e-06 9.26624e-05 0)
(1.97925e-06 1.9726e-05 0)
(-4.5255e-06 0.000165619 0)
(-4.21634e-06 0.000127858 0)
(5.53016e-07 8.04604e-05 0)
(-7.11194e-07 0.000131545 0)
(-7.5521e-07 0.000169591 0)
(2.97823e-07 1.79798e-05 0)
(5.45915e-06 7.29022e-05 0)
(-6.23976e-06 0.000103127 0)
(-2.98827e-06 0.000228783 0)
(-1.37906e-05 0.000226602 0)
(2.45749e-06 9.83972e-05 0)
(6.18814e-06 9.87048e-05 0)
(-5.0743e-06 1.91718e-05 0)
(1.15968e-05 0.000167102 0)
(1.08105e-05 0.000129252 0)
(-5.66661e-07 2.41257e-06 0)
(-1.87688e-06 0.000191043 0)
(1.03816e-06 3.71462e-05 0)
(1.16805e-06 4.93376e-05 0)
(1.27717e-06 6.28574e-05 0)
(-2.8674e-06 9.32054e-05 0)
(-1.27839e-05 0.000226678 0)
(-3.71393e-06 3.71909e-05 0)
(-4.18038e-06 4.93828e-05 0)
(-4.59051e-06 6.2932e-05 0)
(6.49764e-06 0.000190977 0)
(1.20709e-08 1.59275e-08 0)
(8.01685e-06 9.19233e-05 0)
(1.01236e-07 7.25798e-06 0)
(-3.87762e-07 6.80007e-07 0)
(-8.04572e-07 3.11985e-06 0)
(-3.83683e-06 1.33017e-05 0)
(-3.96268e-07 1.4601e-07 0)
(1.58076e-06 4.19669e-05 0)
(1.3897e-06 3.0613e-05 0)
(1.76202e-06 5.47275e-05 0)
(-2.68386e-06 0.0001828 0)
(-2.54365e-06 0.000143994 0)
(-7.8196e-06 7.63312e-05 0)
(8.44017e-06 9.92954e-05 0)
(-7.84992e-07 4.64403e-07 0)
(1.02223e-05 0.000242588 0)
(7.36923e-06 0.000217099 0)
(-1.57393e-05 0.000204386 0)
(5.82741e-06 9.79458e-05 0)
(2.09281e-06 0.000106341 0)
(-3.97255e-06 0.000257744 0)
(-1.10479e-05 0.000111387 0)
(-1.05095e-05 0.000110897 0)
(1.55148e-05 0.000257668 0)
(-1.25671e-06 0.000229921 0)
(-3.51172e-06 7.02181e-05 0)
(4.18585e-06 0.00010632 0)
(1.26209e-07 7.51176e-06 0)
(1.95623e-06 2.66102e-06 0)
(3.93156e-07 1.44894e-07 0)
(3.69787e-06 0.000113245 0)
(1.36718e-05 0.000262944 0)
(-7.51279e-06 0.000182832 0)
(-7.07546e-06 0.00014399 0)
(3.91931e-06 3.06494e-05 0)
(5.00046e-06 5.47398e-05 0)
(4.4855e-06 4.19833e-05 0)
(-1.44327e-07 1.0149e-07 0)
(-5.7632e-07 0.000239287 0)
(7.0184e-06 9.89945e-05 0)
(-6.41702e-06 7.67177e-05 0)
(-1.12502e-05 0.000233501 0)
(-1.67946e-05 0.000173085 0)
(-1.63064e-05 0.000153653 0)
(-1.57268e-05 0.000134856 0)
(-1.50476e-05 0.000116794 0)
(8.23965e-06 2.56675e-05 0)
(9.57411e-06 3.62105e-05 0)
(1.07963e-05 4.82482e-05 0)
(1.19126e-05 6.16524e-05 0)
(1.6738e-05 0.000173079 0)
(1.6252e-05 0.000153653 0)
(-8.26644e-06 2.56709e-05 0)
(-9.60539e-06 3.62145e-05 0)
(1.56708e-05 0.000134853 0)
(-1.08329e-05 4.82517e-05 0)
(1.49954e-05 0.00011679 0)
(-1.19535e-05 6.16564e-05 0)
(-2.49411e-06 3.36254e-06 0)
(9.81163e-07 9.28852e-07 0)
(-1.31381e-06 2.4152e-06 0)
(6.24799e-06 9.71418e-05 0)
(-6.88266e-06 0.000100011 0)
(1.25099e-06 1.51652e-06 0)
(-1.94767e-07 3.25512e-08 0)
(-1.51356e-05 0.000204877 0)
(8.64232e-06 0.000260299 0)
(9.70075e-06 0.000260789 0)
(1.94181e-07 3.24685e-08 0)
(2.81456e-06 3.77095e-06 0)
(1.35439e-05 0.000237018 0)
(-5.17495e-06 0.000110507 0)
(-3.45028e-07 3.04187e-07 0)
(-7.80149e-07 1.2177e-06 0)
(-1.22045e-07 3.12326e-08 0)
(2.28254e-07 1.78626e-07 0)
(1.4045e-05 8.81785e-05 0)
(-1.40392e-05 8.71644e-05 0)
(4.30615e-06 6.65996e-05 0)
(-5.3042e-06 0.000108497 0)
(4.47084e-06 6.83003e-05 0)
(-2.36828e-07 4.02224e-06 0)
(-3.26694e-06 0.00017305 0)
(2.57131e-06 8.32247e-05 0)
(-1.82915e-06 0.00017118 0)
(-1.75184e-06 0.00013295 0)
(7.52803e-07 1.73474e-05 0)
(1.40792e-06 8.17239e-05 0)
(-5.77021e-06 0.000109947 0)
(2.99935e-06 3.99454e-06 0)
(4.82458e-06 6.70995e-05 0)
(1.78045e-06 9.85469e-05 0)
(1.36111e-05 0.000244747 0)
(-4.17227e-06 9.9355e-05 0)
(-4.79522e-06 0.000100027 0)
(-3.93506e-06 8.44218e-06 0)
(-4.65017e-06 0.000103186 0)
(-3.97874e-06 0.000102475 0)
(4.12433e-06 7.27832e-05 0)
(3.62117e-06 7.34969e-05 0)
(-4.39781e-06 2.04686e-05 0)
(9.02279e-06 0.000126468 0)
(9.70071e-06 0.000164119 0)
(-1.22352e-06 1.36952e-06 0)
(-5.7811e-06 0.00010907 0)
(4.85793e-06 6.78439e-05 0)
(-3.68608e-06 0.000140148 0)
(-3.91981e-06 0.000178754 0)
(2.10533e-06 3.28226e-05 0)
(2.65575e-06 5.74911e-05 0)
(2.39273e-06 4.44558e-05 0)
(-1.94296e-06 9.11647e-06 0)
(-1.20494e-05 0.000147757 0)
(-1.14191e-05 0.000147292 0)
(6.42775e-06 2.86562e-05 0)
(6.11356e-06 2.89039e-05 0)
(7.92598e-06 0.000117425 0)
(8.71562e-06 0.00011685 0)
(-4.33771e-06 2.51379e-05 0)
(-4.80206e-06 2.54691e-05 0)
(8.58639e-06 0.000154366 0)
(9.44648e-06 0.000153741 0)
(-3.47369e-06 0.000227947 0)
(6.88803e-06 0.000208218 0)
(6.98745e-06 0.000207249 0)
(-5.14593e-06 6.83068e-05 0)
(5.99862e-06 0.00010847 0)
(-1.81279e-05 0.000253892 0)
(-5.22864e-06 0.000202694 0)
(-5.02192e-06 0.000201747 0)
(1.76138e-06 1.32283e-05 0)
(1.81067e-06 1.28928e-05 0)
(1.56201e-05 0.000204938 0)
(-6.95074e-06 8.75157e-05 0)
(-5.96899e-06 8.75461e-05 0)
(1.54532e-05 0.000231294 0)
(-1.56581e-05 0.000243786 0)
(-1.56379e-05 0.000244944 0)
(-4.8852e-07 2.49597e-06 0)