/*--------------------------------*- C++ -*----------------------------------*\
| =========                 |                                                 |
| \\      /  F ield         | OpenFOAM: The Open Source CFD Toolbox           |
|  \\    /   O peration     | Version:  2.3.1                                 |
|   \\  /    A nd           | Web:      www.OpenFOAM.org                      |
|    \\/     M anipulation  |                                                 |
\*---------------------------------------------------------------------------*/
FoamFile
{
    version     2.0;
    format      ascii;
    class       volScalarField;
    location    "0.34";
    object      nut;
}
// * * * * * * * * * * * * * * * * * * * * * * * * * * * * * * * * * * * * * //

dimensions      [0 2 -1 0 0 0 0];

internalField   nonuniform List<scalar> 
9648
(
0.000272492
0.000272586
0.000272518
0.000272339
0.000271996
0.000271404
0.000270614
0.00026964
0.000268464
0.000267067
0.000265442
0.00026363
0.000261631
0.000259455
0.000257156
0.000254783
0.00025236
0.000249912
0.000247483
0.000245114
0.000242819
0.000240617
0.000238531
0.000236558
0.000234703
0.000232982
0.000231404
0.000229965
0.000228658
0.000227486
0.000226443
0.000225522
0.000224721
0.000224037
0.000223457
0.000222977
0.000222598
0.000222323
0.000222133
0.000222043
0.000222049
0.000222141
0.00022232
0.00022259
0.000222938
0.000223352
0.000223838
0.000224407
0.000225061
0.000225784
0.000226595
0.000227512
0.000228506
0.000229581
0.000230746
0.000231999
0.000233305
0.000234607
0.000235915
0.000237226
0.000238523
0.000452789
0.000457801
0.000463276
0.000469414
0.000475817
0.00048178
0.000488891
0.000498587
0.000511038
0.000526233
0.000544267
0.000565446
0.00058972
0.000616949
0.000646961
0.000679679
0.00071488
0.000752233
0.000791437
0.000832318
0.00087451
0.000917728
0.000961739
0.00100624
0.00105092
0.00109568
0.00114045
0.00118513
0.00122957
0.00127372
0.00131757
0.00136099
0.00140389
0.00144632
0.00148814
0.0015292
0.00156953
0.00160914
0.00164795
0.00168587
0.00172297
0.00175945
0.00179522
0.00183017
0.00186439
0.00189753
0.00192952
0.00196055
0.00199073
0.00201993
0.00204819
0.00207552
0.00210212
0.00212748
0.00215227
0.00217628
0.00220013
0.00222283
0.00224504
0.002267
0.00228891
0.000778825
0.000820478
0.000860983
0.000899644
0.000939123
0.000981732
0.00102674
0.00107535
0.0011271
0.00118274
0.00124165
0.00130441
0.00137093
0.00144112
0.00151475
0.00159154
0.00167122
0.00175325
0.00183724
0.00192276
0.00200934
0.00209661
0.00218407
0.00227134
0.00235809
0.0024441
0.00252927
0.00261338
0.0026964
0.00277831
0.00285902
0.00293859
0.00301708
0.00309432
0.00317027
0.00324487
0.00331795
0.00338973
0.00345996
0.00352882
0.00359636
0.00366243
0.00372746
0.00379124
0.00385376
0.00391508
0.00397496
0.00403366
0.0040909
0.00414681
0.00420145
0.00425492
0.00430784
0.00435873
0.00440985
0.00445886
0.00450765
0.00455348
0.00459947
0.00464466
0.00468919
0.00124454
0.00132532
0.00140473
0.00148276
0.0015612
0.00164165
0.0017245
0.00181035
0.00189928
0.001992
0.00208827
0.00218851
0.00229248
0.00240024
0.00251137
0.0026255
0.00274222
0.00286099
0.00298132
0.00310269
0.00322467
0.00334668
0.00346831
0.00358916
0.00370893
0.00382735
0.00394429
0.00405967
0.00417352
0.00428575
0.00439652
0.00450569
0.00461315
0.00471915
0.00482337
0.00492621
0.00502784
0.00512809
0.00522735
0.00532471
0.00541992
0.00551355
0.00560508
0.00569551
0.00578489
0.00587309
0.00596044
0.0060465
0.00613101
0.00621392
0.00629566
0.00637534
0.00645376
0.00653039
0.00660685
0.00668122
0.00675361
0.00682405
0.00689295
0.00696027
0.00702505
0.00178232
0.00189412
0.00200645
0.0021184
0.00223077
0.00234506
0.00246214
0.00258238
0.00270634
0.00283438
0.00296645
0.00310257
0.00324266
0.00338656
0.00353373
0.00368356
0.00383547
0.003989
0.00414355
0.00429866
0.00445378
0.00460839
0.004762
0.00491424
0.00506483
0.00521362
0.00536044
0.00550536
0.00564836
0.00578957
0.0059288
0.00606602
0.00620143
0.00633465
0.00646602
0.00659578
0.00672401
0.00685164
0.00697741
0.00710148
0.00722391
0.0073434
0.00746112
0.00757648
0.00768991
0.00780237
0.00791353
0.00802388
0.00813302
0.00823974
0.00834466
0.00844746
0.00854777
0.0086459
0.00874229
0.00883709
0.00892903
0.00901869
0.0091061
0.00919066
0.00927231
0.00232855
0.00246308
0.00260325
0.00274628
0.00289158
0.00303979
0.00319168
0.00334778
0.00350817
0.00367299
0.00384206
0.00401498
0.00419175
0.00437189
0.00455508
0.00474052
0.00492724
0.00511502
0.00530303
0.00549091
0.00567818
0.00586417
0.00604853
0.0062307
0.0064106
0.00658817
0.0067634
0.00693633
0.00710693
0.00727499
0.00744085
0.0076043
0.0077655
0.00792502
0.00808201
0.00823677
0.00838983
0.00853972
0.00868901
0.00883625
0.00898126
0.00912624
0.00926722
0.00940535
0.00954062
0.00967237
0.009804
0.00993375
0.0100624
0.0101892
0.0103129
0.0104339
0.0105521
0.0106671
0.01078
0.0108897
0.0109965
0.0111009
0.0112021
0.0112994
0.011394
0.00285727
0.00301056
0.00317802
0.00335296
0.00353285
0.00371717
0.00390629
0.00410042
0.00429945
0.0045028
0.00471037
0.00492122
0.00513516
0.00535177
0.00557134
0.00579245
0.00601397
0.00623581
0.00645682
0.00667675
0.00689552
0.00711203
0.00732622
0.00753699
0.00774464
0.00794948
0.00815139
0.00835098
0.00854722
0.00874053
0.00893068
0.00911741
0.00930252
0.00948523
0.00966584
0.00984406
0.0100179
0.0101903
0.010357
0.010521
0.0106868
0.0108499
0.0110135
0.0111729
0.0113242
0.011473
0.0116181
0.0117617
0.0119053
0.0120463
0.0121844
0.0123186
0.0124491
0.0125764
0.0126998
0.0128203
0.0129376
0.0130512
0.0131608
0.0132664
0.0133681
0.0033639
0.00353415
0.00372952
0.00393764
0.0041543
0.00437602
0.00460385
0.00483781
0.00507647
0.00531985
0.00556708
0.0058169
0.00606826
0.00632066
0.00657589
0.0068327
0.00708923
0.00734552
0.00759949
0.00785041
0.0080999
0.00834625
0.00859014
0.00882881
0.00906221
0.0092923
0.00951893
0.00974317
0.0099639
0.0101804
0.0103935
0.0106016
0.0108052
0.0110076
0.0112082
0.0114055
0.0116024
0.0117914
0.0119756
0.012157
0.0123332
0.0125129
0.01269
0.0128632
0.0130325
0.0131926
0.0133472
0.0134986
0.0136505
0.0138011
0.0139471
0.0140884
0.0142267
0.0143608
0.01449
0.0146152
0.0147366
0.0148551
0.0149688
0.0150768
0.01518
0.00385458
0.00403776
0.00426081
0.00449882
0.00475402
0.00501147
0.00527637
0.00555159
0.00582675
0.00611083
0.00639624
0.00668846
0.00697683
0.00726419
0.00754994
0.00784152
0.00813254
0.00842352
0.00871507
0.00899398
0.00927177
0.00954864
0.00982277
0.0100941
0.0103499
0.0106032
0.0108515
0.0110974
0.011342
0.0115816
0.0118203
0.0120495
0.0122644
0.0124797
0.0126969
0.0129088
0.0131205
0.0133329
0.013537
0.013731
0.0139209
0.0141112
0.0142927
0.0144821
0.0146662
0.0148368
0.0149992
0.0151508
0.0153068
0.0154578
0.0156095
0.0157469
0.0158849
0.0160252
0.0161585
0.0162784
0.0163995
0.0165128
0.0166289
0.016738
0.0168349
0.000239726
0.000240829
0.000241906
0.000242955
0.000243958
0.000244888
0.000245784
0.000246687
0.00024758
0.000248415
0.000249169
0.000249908
0.000250618
0.0002513
0.000251986
0.000252721
0.000253513
0.000254365
0.0002553
0.000256355
0.000257498
0.000258707
0.000259976
0.00026127
0.000262569
0.000263886
0.00026523
0.000266582
0.00026793
0.000269287
0.000270653
0.000272022
0.000273395
0.000274785
0.000276178
0.000277581
0.000279004
0.000280448
0.000281897
0.000283352
0.000284832
0.000286331
0.000287846
0.000289388
0.000290946
0.000292501
0.000294071
0.000295676
0.000297305
0.000298931
0.000300572
0.000302254
0.000303946
0.000305645
0.000307381
0.000309157
0.000310965
0.000312758
0.000314596
0.000316514
0.000318517
0.00231089
0.00233059
0.00234987
0.00236907
0.00238786
0.00240546
0.00242098
0.00243555
0.00244761
0.0024596
0.00246997
0.00247962
0.00248814
0.00249556
0.00250178
0.00250655
0.00250995
0.00251184
0.00251229
0.00251138
0.00250928
0.00250619
0.00250207
0.00249703
0.00249114
0.00248442
0.00247692
0.00246849
0.00245924
0.0024491
0.00243803
0.00242613
0.00241342
0.00239982
0.0023854
0.00237023
0.00235422
0.00233748
0.00232001
0.00230181
0.00228292
0.00226333
0.0022432
0.00222248
0.00220111
0.00217908
0.00215633
0.00213296
0.00210882
0.00208399
0.00205846
0.00203221
0.00200534
0.00197722
0.00194893
0.00191944
0.00188957
0.00185849
0.00182765
0.00179665
0.00176552
0.00473136
0.00477242
0.00481062
0.0048476
0.00488314
0.00491846
0.00495007
0.00498021
0.00500686
0.00503249
0.00505581
0.0050775
0.0050967
0.00511438
0.0051301
0.00514385
0.00515571
0.00516565
0.00517376
0.0051801
0.00518491
0.00518812
0.00518986
0.00519016
0.00518902
0.00518644
0.00518255
0.00517724
0.00517055
0.00516231
0.00515268
0.0051415
0.00512878
0.00511466
0.00509898
0.00508186
0.00506322
0.00504316
0.00502163
0.00499875
0.00497459
0.00494926
0.0049228
0.00489538
0.00486686
0.00483723
0.00480632
0.00477415
0.00474055
0.0047055
0.00466917
0.0046308
0.00459085
0.00454885
0.00450574
0.00446024
0.00441279
0.00436371
0.00431384
0.0042631
0.00421127
0.00708819
0.00714872
0.00720705
0.00726232
0.00731551
0.00736661
0.00741513
0.00746014
0.00750257
0.00754285
0.00758049
0.00761526
0.00764749
0.00767761
0.00770496
0.00773005
0.00775276
0.0077731
0.00779111
0.00780693
0.00782062
0.0078324
0.0078422
0.00785018
0.00785626
0.00786046
0.00786274
0.00786317
0.00786183
0.00785862
0.00785343
0.00784622
0.00783698
0.00782564
0.00781226
0.00779683
0.00777925
0.00775946
0.00773755
0.00771361
0.00768783
0.00766027
0.00763131
0.00760104
0.00756956
0.00753676
0.00750247
0.00746656
0.00742896
0.00738943
0.00734807
0.00730439
0.00725815
0.00720931
0.00715816
0.00710413
0.00704693
0.00698751
0.00692657
0.00686363
0.00679932
0.00935088
0.00942719
0.00950047
0.00957045
0.00963678
0.00970034
0.00976105
0.00981786
0.00987121
0.00992208
0.00996966
0.0100142
0.0100561
0.010095
0.0101311
0.0101648
0.0101949
0.0102223
0.0102468
0.0102684
0.0102873
0.0103039
0.0103182
0.0103302
0.0103399
0.0103473
0.0103524
0.0103555
0.0103565
0.0103557
0.0103528
0.0103476
0.01034
0.0103301
0.0103178
0.0103029
0.0102854
0.0102652
0.0102421
0.0102162
0.0101878
0.0101571
0.0101244
0.0100903
0.0100548
0.0100182
0.00998007
0.00993989
0.00989821
0.00985493
0.00980943
0.00976138
0.00971049
0.00965632
0.00959915
0.0095377
0.00947287
0.00940514
0.00933501
0.00926214
0.00918784
0.0114848
0.0115724
0.0116558
0.0117365
0.0118129
0.0118853
0.0119544
0.0120188
0.0120796
0.0121367
0.0121908
0.0122415
0.0122889
0.012333
0.0123737
0.0124112
0.0124451
0.0124757
0.0125028
0.0125259
0.0125458
0.0125626
0.0125766
0.0125881
0.0125968
0.0126026
0.0126056
0.0126062
0.0126047
0.0126015
0.0125967
0.0125897
0.0125805
0.0125688
0.0125549
0.0125382
0.0125184
0.0124954
0.012469
0.0124393
0.0124063
0.0123699
0.012331
0.0122901
0.0122478
0.0122047
0.01216
0.0121137
0.0120658
0.0120171
0.0119662
0.0119124
0.0118558
0.011796
0.0117325
0.0116641
0.0115916
0.0115148
0.0114358
0.0113538
0.0112696
0.0134659
0.0135597
0.0136491
0.0137341
0.013815
0.013892
0.0139643
0.0140319
0.0140956
0.0141551
0.0142107
0.0142628
0.0143116
0.0143561
0.0143967
0.0144343
0.0144684
0.0144988
0.0145248
0.0145457
0.0145624
0.0145753
0.0145848
0.0145914
0.0145948
0.0145946
0.0145907
0.0145832
0.0145732
0.0145618
0.0145499
0.0145362
0.0145211
0.0145039
0.0144855
0.0144646
0.0144399
0.0144117
0.0143801
0.0143451
0.0143063
0.014263
0.0142158
0.0141661
0.0141146
0.0140629
0.0140086
0.0139533
0.0138964
0.0138404
0.0137827
0.0137214
0.0136581
0.0135917
0.0135223
0.0134464
0.0133661
0.0132804
0.0131929
0.0131017
0.0130081
0.015279
0.015373
0.015462
0.0155455
0.0156244
0.0156978
0.0157671
0.015832
0.0158933
0.0159499
0.0160017
0.0160501
0.0160953
0.0161364
0.0161723
0.0162039
0.0162338
0.0162609
0.0162837
0.0163004
0.0163106
0.0163168
0.0163191
0.0163173
0.0163123
0.0163032
0.0162899
0.0162706
0.0162462
0.0162195
0.0161942
0.0161671
0.0161403
0.0161121
0.0160856
0.0160587
0.0160267
0.0159896
0.0159498
0.0159083
0.0158635
0.0158141
0.0157586
0.0156992
0.015638
0.0155771
0.0155117
0.0154456
0.0153767
0.0153111
0.0152456
0.0151745
0.0151026
0.0150289
0.0149538
0.0148706
0.0147831
0.0146883
0.0145928
0.0144931
0.0143915
0.0169333
0.0170227
0.0171089
0.0171811
0.0172516
0.0173081
0.017367
0.0174132
0.0174619
0.017513
0.0175565
0.0175861
0.0176214
0.0176557
0.017684
0.0177035
0.0177182
0.0177331
0.0177505
0.0177629
0.0177638
0.0177626
0.0177601
0.0177484
0.017732
0.0177113
0.017689
0.0176623
0.0176227
0.0175757
0.0175316
0.0174839
0.0174379
0.0173885
0.0173461
0.01731
0.0172689
0.0172176
0.0171636
0.0171104
0.0170569
0.0170064
0.0169437
0.0168753
0.0168091
0.0167401
0.0166681
0.016591
0.016511
0.0164328
0.016358
0.0162741
0.0161881
0.0161072
0.016023
0.0159363
0.0158412
0.0157411
0.015636
0.0155298
0.0154194
0.000320519
0.000322502
0.000324563
0.000326702
0.000328888
0.000331077
0.0003333
0.000335586
0.000337912
0.000340262
0.000342634
0.00034505
0.000347486
0.000350008
0.000353173
0.000355966
0.000358735
0.000361492
0.000364253
0.00036704
0.000369839
0.000372652
0.000375489
0.000378328
0.000381155
0.00038398
0.000386801
0.000389606
0.000392379
0.000395121
0.000397821
0.00040047
0.000403055
0.000405579
0.000408015
0.000410361
0.000412606
0.000414732
0.000416591
0.000417943
0.000418876
0.000419403
0.000419523
0.000419232
0.000418473
0.000417183
0.000415319
0.000412819
0.000409559
0.000405388
0.000400171
0.000393742
0.000385815
0.000376049
0.000364358
0.000342157
0.000331303
0.000325448
0.000323042
0.00032202
0.000320113
0.00173384
0.00170213
0.00166988
0.00163745
0.0016048
0.00157224
0.00153919
0.00150642
0.00147351
0.00144101
0.00140926
0.00137711
0.00134556
0.0013143
0.00127914
0.00124451
0.00121029
0.00117671
0.00114384
0.00111171
0.0010803
0.00104944
0.0010191
0.000989277
0.000959942
0.000931137
0.000902837
0.000875096
0.000847889
0.000821224
0.000795139
0.000769656
0.000744768
0.00072052
0.00069697
0.000674135
0.000652114
0.000630981
0.000610535
0.000587783
0.000564434
0.000541949
0.000520515
0.000500317
0.000481444
0.000464095
0.000448541
0.000435043
0.000423863
0.000415334
0.000409816
0.000407736
0.00040953
0.000415894
0.000424657
0.000446231
0.000479676
0.000533609
0.000616639
0.000736635
0.000865291
0.00415891
0.00410582
0.00405184
0.00399639
0.00393967
0.00388197
0.00382319
0.00376379
0.00370374
0.00364365
0.00358172
0.00352027
0.0034613
0.00340219
0.00334027
0.00327597
0.00321035
0.00314455
0.00307887
0.00301359
0.00294858
0.00288349
0.00281832
0.0027531
0.0026877
0.00262221
0.00255657
0.0024908
0.00242476
0.00235853
0.002292
0.00222516
0.00215807
0.00209062
0.00202288
0.00195485
0.00188656
0.00181799
0.001749
0.00167818
0.00160522
0.00152083
0.00142861
0.00133345
0.00123648
0.00113892
0.00104237
0.000948334
0.000858772
0.000775672
0.000701021
0.000636707
0.000584004
0.000544345
0.00051714
0.000506626
0.000515501
0.000548578
0.000614958
0.000727967
0.000890526
0.00673396
0.00666827
0.00660103
0.0065316
0.0064595
0.00638587
0.00631073
0.00623483
0.00615857
0.00608177
0.00600133
0.00592291
0.00584707
0.00577096
0.00569172
0.00560908
0.00552391
0.00543792
0.00535167
0.0052655
0.00517918
0.00509194
0.005004
0.00491542
0.00482598
0.00473571
0.00464448
0.0045523
0.0044589
0.00436422
0.00426817
0.00417079
0.00407201
0.00397185
0.00387034
0.00376748
0.00366322
0.00355756
0.00345029
0.00334085
0.00322842
0.00310977
0.00297719
0.00282698
0.0026651
0.00249178
0.00230778
0.00211429
0.00191363
0.00170979
0.00150722
0.0013131
0.00113385
0.000976355
0.000844361
0.000743064
0.00067593
0.00064304
0.000646206
0.000692313
0.000791232
0.00911166
0.00903497
0.00895646
0.00887576
0.0087909
0.00870385
0.00861511
0.00852635
0.00843704
0.00834719
0.00825286
0.00816086
0.00807109
0.00798131
0.00788842
0.00779169
0.00769162
0.00759073
0.00748937
0.00738801
0.00728602
0.00718227
0.00707744
0.00697168
0.00686445
0.00675594
0.00664573
0.00653383
0.0064198
0.00630361
0.00618515
0.00606462
0.00594206
0.00581762
0.00569129
0.00556319
0.00543332
0.00530163
0.00516796
0.00503203
0.0048933
0.00475049
0.00460047
0.00443442
0.00424964
0.00404891
0.00383067
0.00359349
0.00333616
0.00305943
0.00276463
0.00245637
0.00214325
0.00183747
0.00155298
0.00130439
0.00110457
0.000956502
0.000857846
0.000807582
0.000809175
0.0111825
0.011095
0.0110059
0.0109145
0.0108179
0.0107183
0.0106163
0.0105151
0.0104139
0.0103125
0.010206
0.0101015
0.00999896
0.00989732
0.00979214
0.00968323
0.0095706
0.00945787
0.0093446
0.00923134
0.00911692
0.00899951
0.00888116
0.00876207
0.00864092
0.00851801
0.00839265
0.00826495
0.00813408
0.00800035
0.00786364
0.00772463
0.00758345
0.00744048
0.00729558
0.00714904
0.00700082
0.00685102
0.00669948
0.0065461
0.00639041
0.00623191
0.00606915
0.00589844
0.0057093
0.00550465
0.00528183
0.00503934
0.00477404
0.00448311
0.00416445
0.00381657
0.00344117
0.00304574
0.00264233
0.00225176
0.00189711
0.00159476
0.00135162
0.00116903
0.00104644
0.0129098
0.0128116
0.0127123
0.0126115
0.0125034
0.0123916
0.0122764
0.0121632
0.0120507
0.011939
0.0118208
0.0117046
0.0115905
0.0114786
0.0113626
0.0112435
0.0111201
0.0109978
0.010875
0.0107524
0.0106279
0.0104987
0.0103695
0.0102405
0.0101081
0.00997349
0.0098352
0.00969425
0.00954871
0.00939984
0.0092475
0.0090936
0.00893779
0.00878105
0.00862263
0.00846327
0.0083026
0.00814124
0.00797893
0.00781587
0.0076514
0.00748533
0.00731688
0.0071441
0.00696286
0.00676249
0.00654625
0.00631212
0.00605744
0.00577927
0.00547377
0.005137
0.00476626
0.00435997
0.00392258
0.00346541
0.00300806
0.00257411
0.00218257
0.00184612
0.00157237
0.0142828
0.0141735
0.0140646
0.0139551
0.0138368
0.0137135
0.0135859
0.0134605
0.0133378
0.0132167
0.0130879
0.0129609
0.0128369
0.0127166
0.012592
0.0124642
0.0123324
0.0122023
0.0120721
0.0119426
0.0118093
0.0116697
0.0115325
0.0113964
0.0112547
0.0111092
0.010959
0.0108061
0.0106467
0.0104839
0.0103178
0.0101526
0.00998576
0.00981976
0.00965224
0.00948505
0.00931695
0.00915039
0.00898426
0.00881952
0.00865427
0.00848891
0.00832227
0.00815315
0.00797864
0.00779115
0.00758687
0.00736651
0.00712877
0.0068716
0.00659243
0.00628717
0.00595085
0.00557926
0.00516977
0.00472382
0.00424994
0.00376255
0.00328099
0.00282413
0.0024096
0.0153061
0.0151835
0.0150669
0.014946
0.0148224
0.0146866
0.0145508
0.0144104
0.01428
0.0141483
0.0140131
0.0138752
0.0137456
0.0136169
0.0134888
0.0133513
0.0132176
0.013078
0.0129431
0.0128103
0.0126671
0.0125213
0.012378
0.0122341
0.0120841
0.0119256
0.0117657
0.0115992
0.011427
0.0112506
0.0110748
0.010902
0.0107277
0.010556
0.010384
0.0102136
0.0100436
0.00988075
0.0097196
0.00956332
0.00940466
0.00924802
0.00908985
0.00892936
0.00876527
0.00859318
0.00840341
0.0081975
0.00797853
0.00774988
0.00750231
0.00723764
0.00694404
0.00662344
0.00626544
0.00587336
0.00543951
0.00497516
0.00448332
0.00397917
0.00348311
0.000316188
0.000311686
0.000306776
0.000301464
0.000295961
0.000290369
0.000284842
0.000279569
0.000274711
0.000270381
0.000266651
0.000263582
0.000261135
0.00025924
0.000257839
0.000256859
0.0002562
0.000255781
0.000255553
0.000255484
0.000255528
0.000255663
0.00025588
0.000256158
0.000256487
0.000256872
0.000257314
0.000257806
0.00025834
0.000258921
0.000259542
0.000260197
0.000260884
0.000261597
0.000262322
0.000263055
0.000263789
0.00026451
0.000265195
0.000265837
0.000266436
0.000266973
0.00026744
0.000267846
0.000268176
0.000268427
0.000268626
0.000268799
0.000268951
0.000269087
0.000269239
0.000269441
0.000269672
0.000269948
0.000270274
0.00027065
0.000271038
0.000271397
0.000271743
0.00027207
0.000272353
0.000931591
0.000987847
0.00103305
0.00106115
0.00107332
0.00107485
0.00106345
0.00103953
0.00100542
0.000963287
0.000915175
0.000864338
0.000813314
0.000764286
0.000717668
0.000675054
0.000637863
0.00060677
0.000581399
0.000561254
0.00054559
0.000533607
0.00052455
0.000517813
0.000512928
0.00050956
0.000507449
0.000506395
0.000506237
0.000506834
0.000508057
0.00050978
0.00051186
0.000514142
0.000516487
0.000518751
0.000520771
0.000522402
0.00052348
0.000523853
0.000523375
0.000521904
0.000519313
0.000515489
0.000510367
0.000503942
0.000496285
0.000487585
0.000478129
0.000468357
0.000458807
0.000450078
0.000442732
0.000437199
0.000433783
0.00043251
0.000433232
0.000435591
0.000439195
0.000443517
0.000448111
0.0010614
0.00123362
0.00140222
0.00155904
0.00166156
0.00174243
0.00179958
0.00182776
0.00182984
0.00180947
0.00176739
0.00170778
0.00163466
0.00155162
0.00146102
0.00136702
0.00127515
0.00119126
0.0011167
0.00105388
0.00100327
0.000964105
0.000934848
0.000913689
0.000898968
0.000889385
0.000883941
0.000881834
0.0008824
0.000885067
0.000889383
0.00089483
0.000900885
0.000907035
0.000912749
0.000917558
0.000920991
0.000922602
0.000921942
0.000918618
0.000912304
0.000902786
0.00088994
0.000873798
0.000854441
0.000832147
0.000807286
0.000780392
0.000752117
0.000723407
0.000695512
0.000669935
0.000648484
0.000632852
0.000624607
0.000624637
0.000633228
0.00064998
0.000674059
0.000704284
0.000739361
0.000939922
0.00113281
0.00135865
0.00159877
0.00181799
0.00201657
0.00219934
0.00233616
0.00243056
0.00249478
0.00252615
0.00252609
0.00249955
0.00244838
0.00237415
0.00227987
0.00216981
0.002054
0.0019399
0.00183387
0.00174071
0.00166381
0.00160394
0.00155991
0.00152953
0.00151068
0.00150147
0.00150033
0.00150577
0.00151646
0.00153134
0.00154932
0.00156918
0.00158965
0.00160956
0.00162778
0.00164314
0.00165454
0.00166086
0.00166108
0.00165426
0.00163968
0.0016168
0.00158539
0.00154542
0.00149733
0.00144182
0.00137993
0.0013128
0.0012422
0.00117043
0.00110057
0.0010366
0.000983462
0.000946727
0.00093108
0.000938502
0.000968538
0.00101883
0.00108591
0.00116385
0.000866974
0.000984756
0.00116378
0.00139678
0.00166046
0.00193429
0.00220311
0.00244491
0.00265298
0.00283431
0.00297294
0.00306183
0.00311816
0.00314195
0.00313419
0.00309978
0.00304074
0.00295809
0.00286275
0.00276378
0.0026669
0.00257914
0.00250572
0.0024491
0.00240937
0.00238557
0.00237639
0.00238048
0.00239591
0.00242073
0.00245341
0.00249224
0.00253526
0.00258035
0.00262554
0.00266886
0.00270834
0.00274206
0.002768
0.00278424
0.00278896
0.00278072
0.00275814
0.00272032
0.00266646
0.00259672
0.00251136
0.00241134
0.00229789
0.00217297
0.00203934
0.00190127
0.00176439
0.00163684
0.00153008
0.00145815
0.00142829
0.00144175
0.00149471
0.00157529
0.00167429
0.000985553
0.000988585
0.00105901
0.00119927
0.00140486
0.00166412
0.00195865
0.00226235
0.0025534
0.00282031
0.00305072
0.00323942
0.00339617
0.00350868
0.00357648
0.00361811
0.00363491
0.00362921
0.00360782
0.00357417
0.00353469
0.00349403
0.00345704
0.00342803
0.00341055
0.00340575
0.00341459
0.0034379
0.00347458
0.00352284
0.00358132
0.00364815
0.00372098
0.00379709
0.0038739
0.00394869
0.00401884
0.0040816
0.00413414
0.0041737
0.0041976
0.00420371
0.00418984
0.00415437
0.00409551
0.00401299
0.00390624
0.00377574
0.00362197
0.00344666
0.00325205
0.00304237
0.00282346
0.00260413
0.00239853
0.0022275
0.00210504
0.0020445
0.00204883
0.00210801
0.00220656
0.00136621
0.00123032
0.00116672
0.00117745
0.00126349
0.00142357
0.00165149
0.00193243
0.00224457
0.00256367
0.00286655
0.00313739
0.00337103
0.00356238
0.00371429
0.00384174
0.00393444
0.00399891
0.00405272
0.00409882
0.00414624
0.00419401
0.00424155
0.00428969
0.00433939
0.00439247
0.00445168
0.00452076
0.00459988
0.00468809
0.00478484
0.00488866
0.00499761
0.00510902
0.00522027
0.00532847
0.0054306
0.00552335
0.00560326
0.00566692
0.00571108
0.00573303
0.00573015
0.00570032
0.00564081
0.00555073
0.00542872
0.00527469
0.00508859
0.00487134
0.00462449
0.00435152
0.004057
0.00374823
0.00343778
0.00314613
0.00289929
0.00272546
0.00264312
0.00265133
0.00273097
0.00205125
0.00176009
0.00154312
0.00140483
0.00134705
0.00137011
0.00147277
0.00165069
0.00189433
0.00218697
0.00250541
0.00282526
0.00312757
0.00339747
0.00362963
0.00382705
0.00399167
0.00412967
0.00425872
0.00436507
0.00448341
0.00461027
0.00474362
0.0048821
0.00502615
0.00517305
0.00532115
0.00546869
0.00561791
0.00576978
0.00592391
0.00607879
0.00623332
0.00638612
0.00653515
0.00667826
0.00681268
0.00693486
0.00704082
0.00712672
0.00718976
0.00722608
0.00723333
0.00720926
0.00715055
0.00705498
0.00692144
0.00674797
0.00653514
0.00628265
0.00599194
0.00566477
0.00530406
0.0049157
0.00450833
0.00410097
0.00372641
0.00342843
0.003244
0.003187
0.00323786
0.00300966
0.00258154
0.00221393
0.00191671
0.00170024
0.00156836
0.0015224
0.00156008
0.0016778
0.00186872
0.00212003
0.00241519
0.00273497
0.00305803
0.00336601
0.00365211
0.00390206
0.00411619
0.00429735
0.00445361
0.00463561
0.00481494
0.00500108
0.00520152
0.00542294
0.00565959
0.00590613
0.00615524
0.00640121
0.00664121
0.00687542
0.00710009
0.00731286
0.00751718
0.00770982
0.00789178
0.00806107
0.00821422
0.00834647
0.0084531
0.00853532
0.00858378
0.00860064
0.00858167
0.00852567
0.0084258
0.00828538
0.00809395
0.00785987
0.00757655
0.00725076
0.00687811
0.00646047
0.00600631
0.00551722
0.0050106
0.00452378
0.004115
0.00383391
0.00371226
0.0037299
0.00525337
0.0184109
0.0187022
0.00179558
0.00539121
0.00712989
0.00124961
0.0057635
0.00128941
0.00334718
0.0106156
0.0149825
0.00124949
0.0133418
0.00668754
0.0198159
0.00126319
0.00613778
0.0100425
0.00125118
0.00178485
0.0132063
0.0181797
0.00127647
0.00127931
0.00479541
0.00125138
0.00300854
0.00125978
0.00131386
0.00723611
0.00126117
0.00272749
0.0087422
0.0140971
0.00935243
0.00818557
0.0141602
0.00124649
0.0140249
0.00498087
0.0132892
0.00124728
0.0196041
0.00523286
0.00996793
0.00135272
0.00242623
0.0011611
0.0151806
0.0106007
0.0153072
0.00124282
0.00143655
0.00194206
0.000171278
0.00131126
0.00465279
0.00899809
0.0177069
0.00403057
0.00135627
0.0012149
0.00368598
0.0191386
0.00613402
0.00920589
0.00426182
0.00147923
0.00124285
0.0135711
0.0144349
0.00479574
0.000668134
0.00270261
0.0183049
0.0185602
0.0173286
0.00124181
0.014492
0.00194148
0.0130666
0.000781484
0.0189981
0.00124282
0.0120697
0.00128539
0.0118062
0.00174075
0.00158992
0.00562845
0.00124144
0.00137851
0.0170804
0.019184
0.00133994
0.010958
0.00458919
0.00177512
0.0191684
0.00308109
0.0175863
0.008521
0.00124129
0.00124169
0.00124208
0.0060044
0.00669707
0.00126335
0.0195828
0.0188825
0.00159809
0.00792348
0.00759662
0.00526195
0.0122865
0.0101355
0.001402
0.00597349
0.00143236
0.00132242
0.00556646
0.00161587
0.0172153
0.0129058
0.00307464
0.00124691
0.013315
0.0137682
0.00124689
0.00349685
0.00377281
0.00289739
0.0015675
0.0130937
0.00124665
0.00124174
0.0134541
0.0157448
0.00125362
0.0033485
0.0194152
0.00431782
0.00908326
0.0081828
0.0168284
0.00046128
0.0088258
0.00250205
0.0162693
0.0119644
0.000189771
0.0145013
0.0189228
0.0192612
0.00128483
0.00126725
0.00827622
0.00123263
0.00838685
0.000721039
0.00161894
0.00124241
0.00124827
0.00124301
0.0178105
0.0040835
0.00650436
0.00128629
0.0144049
0.00670758
0.0022195
0.0128632
0.00252472
0.00766131
0.00570946
0.0114179
0.00125884
0.00171161
0.00394359
0.0124534
0.0135689
0.0174905
0.00124855
0.00132522
0.00890874
0.00397856
0.0116549
0.00124546
0.00135348
0.00573608
0.00129679
0.0163713
0.0105371
0.00123017
0.00867192
0.00327194
0.018466
0.00151142
0.00647713
0.00124848
0.00125415
0.0203344
0.0160025
0.0157866
0.00151933
0.00129398
0.0018177
0.0162902
0.00583279
0.0108903
0.018506
0.0153444
0.0187611
0.00395789
0.0196478
0.018597
0.0131881
0.0156061
0.0121534
0.00150594
0.0042015
0.00125206
0.0012543
0.0105215
0.00298079
0.0031336
0.00153785
0.00244926
0.0146458
0.00986171
0.00287886
0.0187138
0.014002
0.00487724
0.00124477
0.0045459
0.018098
0.0132858
0.00144662
0.00977976
0.00331932
0.00337786
0.00232417
0.0177245
0.00744369
0.00424581
0.019732
0.00138741
0.00124237
0.00142495
0.00230734
0.00956735
0.00129671
0.00158295
0.00124543
0.0077196
0.0194278
0.0184807
0.0137376
0.0117591
0.016261
0.0162064
0.0014831
0.00820901
0.0182256
0.00124666
0.00427138
0.00124294
0.00446524
0.00765625
0.00415484
0.00165424
0.00124725
0.0158846
0.00299297
0.00124299
0.00125578
0.00125909
0.00126101
0.00984847
0.00656803
0.0181152
0.00175899
0.00124292
0.00124363
0.00124126
0.0194916
0.00414488
0.00150789
0.0130973
0.0059747
0.00153278
0.00124177
0.00805517
0.00124269
0.00226155
0.00408561
0.00721102
0.00247299
0.00141032
0.00173713
0.0169825
0.00511644
0.00262871
0.0161294
0.001316
0.00124367
0.00124531
0.0196734
0.00127465
0.0147564
0.00124618
0.0134234
0.0102833
0.00270663
0.00549073
0.00591377
0.00154652
0.0133417
0.0128863
0.00274701
0.0216992
0.0111655
0.015856
0.0139483
0.0194514
0.00840175
0.0194406
0.00472818
0.00666845
0.0160344
0.0174888
0.0129543
0.0120861
0.00139811
0.016203
0.00536878
0.0186226
0.0036352
0.00133348
0.00124727
0.00129893
0.00399395
0.0102629
0.00730822
0.00616974
0.0012486
0.0195422
0.00124684
0.00708929
0.0144654
0.0193532
0.0146747
0.0161886
0.00166797
0.00147363
0.00144771
0.00818275
0.00221037
0.00614414
0.00929196
0.0105941
0.0185721
0.018133
0.0159839
0.00131259
0.0173528
0.0191653
0.00284948
0.00125484
0.0191261
0.0194614
0.00127872
0.0114267
0.00125582
0.0104986
0.01651
0.0111585
0.0194601
0.00499246
0.0196653
0.00127455
0.0197448
0.00139066
0.0172408
0.0179001
0.0115634
0.0174679
0.0128775
0.00833274
0.010606
0.00147123
0.00375668
0.00123753
0.00205553
0.00123587
0.00699762
0.00138405
0.0186701
0.00124239
0.00125603
0.00175939
0.00940816
0.00521466
0.014125
0.00154385
0.0195568
0.00786895
0.018621
0.0061793
0.0166008
0.0102598
0.00129682
0.0175008
0.0179512
0.00124993
0.0178289
0.0149619
0.00124228
0.00124156
0.00892928
0.00182628
0.0127638
0.00144977
0.00653615
0.00365969
0.00966558
0.016153
0.0182154
0.0160666
0.0173698
0.0179269
0.00139718
0.00120438
0.00892421
0.0120834
0.0157524
0.0110216
0.0185297
0.0046027
0.019315
0.0192976
0.00666518
0.00294686
0.0161988
0.0149976
0.00131854
0.018387
0.0144286
0.00144759
0.0191009
0.0166395
0.0162695
0.00344274
0.00468024
0.0128929
0.00167037
0.0159106
0.00153939
0.00327847
0.00125141
0.0113933
0.00285187
0.00863371
0.00156899
0.00136216
0.00867207
0.00863062
0.00164732
0.00269231
0.0105254
0.00275239
0.00128528
0.0161983
0.00895191
0.0130932
0.00772515
0.00351264
0.0119061
0.0170965
0.0182937
0.00710536
0.0121934
0.0167532
0.00617782
0.0150802
0.0196305
0.000356044
0.00590669
0.0121845
0.00129514
0.00319629
0.00784836
0.0119464
0.00276233
0.0215586
0.00428687
0.0105911
0.0063181
0.00167767