/*--------------------------------*- C++ -*----------------------------------*\
| =========                 |                                                 |
| \\      /  F ield         | OpenFOAM: The Open Source CFD Toolbox           |
|  \\    /   O peration     | Version:  2.3.1                                 |
|   \\  /    A nd           | Web:      www.OpenFOAM.org                      |
|    \\/     M anipulation  |                                                 |
\*---------------------------------------------------------------------------*/
FoamFile
{
    version     2.0;
    format      ascii;
    class       volScalarField;
    location    "0.95";
    object      p;
}
// * * * * * * * * * * * * * * * * * * * * * * * * * * * * * * * * * * * * * //

dimensions      [0 2 -2 0 0 0 0];

internalField   nonuniform List<scalar> 
9648
(
0.174216
-0.0639992
-0.353318
-0.720379
-1.16874
-1.70733
-2.34764
-3.09876
-3.96789
-4.97315
-6.1258
-7.43876
-8.92463
-10.594
-12.4561
-14.5207
-16.7958
-19.2896
-22.0054
-24.9473
-28.1198
-31.5192
-35.145
-38.992
-43.0556
-47.3259
-51.7919
-56.4446
-61.266
-66.2471
-71.367
-76.6103
-81.9613
-87.395
-92.9002
-98.4486
-104.027
-109.615
-115.187
-120.724
-126.202
-131.614
-136.92
-142.111
-147.176
-152.083
-156.821
-161.373
-165.743
-169.894
-173.796
-177.453
-180.867
-184.007
-186.877
-189.46
-191.744
-193.737
-195.414
-196.788
-197.847
0.788992
0.530981
0.23234
-0.131853
-0.573396
-1.09488
-1.70874
-2.42926
-3.26893
-4.23663
-5.3435
-6.60133
-8.02117
-9.61332
-11.3874
-13.3523
-15.5156
-17.8838
-20.4617
-23.2529
-26.2601
-29.4825
-32.9183
-36.5631
-40.4114
-44.4549
-48.6839
-53.0878
-57.6531
-62.3673
-67.2137
-72.1765
-77.2396
-82.3833
-87.5911
-92.8425
-98.1206
-103.406
-108.677
-113.914
-119.098
-124.212
-129.23
-134.138
-138.918
-143.55
-148.017
-152.301
-156.391
-160.285
-163.966
-167.417
-170.63
-173.592
-176.289
-178.718
-180.86
-182.726
-184.293
-185.564
-186.523
0.594749
0.368491
0.0946227
-0.239738
-0.640312
-1.12505
-1.70107
-2.38018
-3.17285
-4.09245
-5.14948
-6.35588
-7.72227
-9.25845
-10.974
-12.8771
-14.9754
-17.2747
-19.7796
-22.4937
-25.4191
-28.5557
-31.9015
-35.4521
-39.2018
-43.1424
-47.2649
-51.5587
-56.0112
-60.6093
-65.3375
-70.1799
-75.1205
-80.1415
-85.2251
-90.3527
-95.5066
-100.668
-105.817
-110.935
-116.002
-120.999
-125.907
-130.709
-135.387
-139.922
-144.298
-148.5
-152.512
-156.323
-159.921
-163.295
-166.44
-169.332
-171.976
-174.351
-176.467
-178.289
-179.829
-181.083
-182.058
0.828582
0.608805
0.334046
0.00251206
-0.392727
-0.862373
-1.41713
-2.06845
-2.82786
-3.70776
-4.72003
-5.8761
-7.18645
-8.66082
-10.3091
-12.139
-14.1577
-16.371
-18.7828
-21.3966
-24.2147
-27.2364
-30.4602
-33.8811
-37.4934
-41.2891
-45.259
-49.3936
-53.6804
-58.1064
-62.6574
-67.3169
-72.0698
-76.8998
-81.789
-86.7194
-91.6746
-96.6356
-101.584
-106.502
-111.371
-116.172
-120.885
-125.494
-129.982
-134.332
-138.528
-142.555
-146.401
-150.052
-153.497
-156.726
-159.732
-162.499
-165.019
-167.284
-169.288
-171.019
-172.474
-173.651
-174.547
0.909393
0.713021
0.468707
0.167595
-0.197185
-0.634814
-1.15511
-1.7687
-2.48779
-3.32338
-4.28809
-5.39195
-6.64564
-8.05789
-9.63942
-11.3967
-13.3369
-15.4654
-17.7849
-20.2996
-23.0118
-25.92
-29.0239
-32.3169
-35.7937
-39.4464
-43.2655
-47.2432
-51.3665
-55.6231
-59.9997
-64.479
-69.0474
-73.6902
-78.3888
-83.1259
-87.8872
-92.6527
-97.4064
-102.132
-106.809
-111.421
-115.946
-120.372
-124.68
-128.854
-132.881
-136.743
-140.43
-143.93
-147.232
-150.326
-153.206
-155.86
-158.277
-160.446
-162.359
-164.013
-165.406
-166.532
-167.387
1.01668
0.833902
0.608975
0.331178
-0.0063019
-0.41389
-0.900878
-1.47783
-2.15756
-2.94985
-3.86844
-4.92153
-6.1205
-7.47129
-8.98767
-10.6737
-12.536
-14.5806
-16.8072
-19.2217
-21.8274
-24.6203
-27.6038
-30.7672
-34.1061
-37.6127
-41.276
-45.0928
-49.0477
-53.129
-57.3261
-61.6182
-65.9939
-70.4423
-74.9422
-79.4767
-84.0353
-88.5955
-93.1441
-97.6673
-102.144
-106.556
-110.884
-115.116
-119.233
-123.22
-127.066
-130.751
-134.268
-137.605
-140.753
-143.702
-146.445
-148.976
-151.28
-153.343
-155.158
-156.723
-158.041
-159.104
-159.908
1.12394
0.958231
0.752841
0.497018
0.185393
-0.193814
-0.649319
-1.19059
-1.83256
-2.58246
-3.45696
-4.46118
-5.60773
-6.8971
-8.34997
-9.96516
-11.7493
-13.7108
-15.8437
-18.1555
-20.6544
-23.329
-26.1922
-29.2253
-32.4234
-35.7817
-39.2833
-42.9358
-46.7185
-50.6181
-54.6336
-58.734
-62.9077
-67.1559
-71.4538
-75.7768
-80.1263
-84.4742
-88.8086
-93.1242
-97.395
-101.604
-105.724
-109.753
-113.674
-117.467
-121.126
-124.626
-127.966
-131.132
-134.121
-136.915
-139.514
-141.918
-144.107
-146.062
-147.771
-149.237
-150.476
-151.478
-152.228
1.2264
1.07986
0.897127
0.662505
0.377653
0.025675
-0.400646
-0.904018
-1.51112
-2.21666
-3.05143
-4.00677
-5.10971
-6.33004
-7.72217
-9.26896
-10.9707
-12.8562
-14.8949
-17.0935
-19.4945
-22.0386
-24.7897
-27.6944
-30.7425
-33.9602
-37.2832
-40.7703
-44.384
-48.0869
-51.9321
-55.8393
-59.7863
-63.8341
-67.9448
-72.028
-76.1682
-80.3015
-84.4029
-88.5168
-92.5718
-96.5866
-100.476
-104.293
-108.028
-111.611
-115.091
-118.387
-121.551
-124.526
-127.364
-129.981
-132.42
-134.703
-136.789
-138.618
-140.223
-141.567
-142.726
-143.682
-144.368
1.33132
1.1944
1.05115
0.821779
0.575256
0.239632
-0.163892
-0.601547
-1.20528
-1.8322
-2.66329
-3.53924
-4.65319
-5.73865
-7.10952
-8.60664
-10.1844
-12.0384
-13.9634
-16.0159
-18.3983
-20.7296
-23.4325
-26.1854
-29.0611
-32.2138
-35.2775
-38.6314
-42.1141
-45.5451
-49.289
-52.9757
-56.6557
-60.5533
-64.5246
-68.1987
-72.2325
-76.1499
-79.9636
-83.9325
-87.6989
-91.5907
-95.1695
-98.8448
-102.446
-105.708
-109.111
-112.096
-115.149
-117.824
-120.574
-122.914
-125.216
-127.456
-129.42
-131.061
-132.658
-133.783
-134.936
-135.846
-136.401
-198.567
-198.969
-199.053
-198.808
-198.259
-197.392
-196.211
-194.716
-192.897
-190.784
-188.35
-185.613
-182.608
-179.338
-175.795
-171.991
-167.935
-163.654
-159.139
-154.405
-149.484
-144.363
-139.067
-133.607
-128.01
-122.284
-116.412
-110.432
-104.35
-98.1988
-91.9787
-85.7101
-79.4145
-73.0922
-66.7711
-60.4534
-54.1624
-47.9099
-41.704
-35.5617
-29.4943
-23.5253
-17.6519
-11.8944
-6.26689
-0.771596
4.57566
9.76665
14.7863
19.6279
24.2867
28.7517
33.0121
37.0665
40.9044
44.5207
47.9104
51.0682
53.9936
56.6821
59.1336
-187.172
-187.497
-187.547
-187.294
-186.743
-185.903
-184.761
-183.325
-181.58
-179.542
-177.207
-174.586
-171.722
-168.609
-165.239
-161.617
-157.755
-153.668
-149.36
-144.847
-140.143
-135.256
-130.199
-124.982
-119.621
-114.126
-108.532
-102.836
-97.0465
-91.1826
-85.2561
-79.2825
-73.2766
-67.2504
-61.2201
-55.1949
-49.191
-43.2219
-37.2992
-31.4354
-25.6438
-19.9402
-14.3318
-8.83208
-3.45338
1.7974
6.909
11.8709
16.6713
21.303
25.7594
30.0314
34.1098
37.9913
41.6669
45.1319
48.3793
51.407
54.2118
56.7909
59.143
-182.737
-183.137
-183.201
-182.96
-182.433
-181.633
-180.503
-179.084
-177.338
-175.306
-173.01
-170.447
-167.603
-164.494
-161.138
-157.547
-153.727
-149.691
-145.447
-141.007
-136.385
-131.587
-126.627
-121.516
-116.264
-110.882
-105.39
-99.7996
-94.1236
-88.3754
-82.5686
-76.7182
-70.8376
-64.9408
-59.0404
-53.1483
-47.2773
-41.4405
-35.6504
-29.9197
-24.2613
-18.6884
-13.2109
-7.8406
-2.58788
2.53877
7.52863
12.3715
17.057
21.5781
25.9262
30.0945
34.0749
37.863
41.4508
44.8331
48.0046
50.9616
53.7014
56.2207
58.5198
-175.159
-175.494
-175.531
-175.277
-174.723
-173.852
-172.712
-171.342
-169.718
-167.819
-165.64
-163.199
-160.492
-157.533
-154.329
-150.89
-147.226
-143.347
-139.265
-134.993
-130.542
-125.923
-121.146
-116.221
-111.16
-105.975
-100.68
-95.2894
-89.8154
-84.2705
-78.6674
-73.0215
-67.3462
-61.6557
-55.9605
-50.2728
-44.6043
-38.9671
-33.3744
-27.8384
-22.3716
-16.9866
-11.6938
-6.5042
-1.42733
3.52903
8.35351
13.0369
17.5681
21.9419
26.1488
30.1817
34.0352
37.703
41.1798
44.4576
47.5338
50.4021
53.0612
55.5073
57.7415
-167.967
-168.276
-168.306
-168.061
-167.534
-166.727
-165.666
-164.284
-162.658
-160.784
-158.654
-156.274
-153.646
-150.78
-147.682
-144.359
-140.817
-137.069
-133.124
-128.998
-124.701
-120.245
-115.636
-110.884
-106.001
-100.998
-95.8896
-90.6902
-85.4107
-80.0632
-74.658
-69.2126
-63.7391
-58.2536
-52.7633
-47.2803
-41.8148
-36.3782
-30.9848
-25.6456
-20.3726
-15.1792
-10.0746
-5.06986
-0.174157
4.60802
9.2611
13.7803
18.1511
22.3716
26.4314
30.3231
34.0429
37.5834
40.9427
44.1102
47.0858
49.8587
52.432
54.7991
56.9632
-160.448
-160.724
-160.731
-160.472
-159.946
-159.159
-158.11
-156.792
-155.22
-153.404
-151.344
-149.043
-146.503
-143.739
-140.754
-137.551
-134.138
-130.522
-126.718
-122.744
-118.607
-114.32
-109.888
-105.315
-100.616
-95.801
-90.8838
-85.8827
-80.8045
-75.6612
-70.4586
-65.2199
-59.9535
-54.6815
-49.4035
-44.1327
-38.8773
-33.6478
-28.4607
-23.3248
-18.2518
-13.2567
-8.34626
-3.53317
1.1741
5.7779
10.2549
14.6062
18.8098
22.8725
26.7796
30.5238
34.1057
37.5124
40.7516
43.8036
46.6754
49.3484
51.834
54.1168
56.2085
-152.725
-152.964
-152.95
-152.676
-152.152
-151.381
-150.354
-149.07
-147.546
-145.792
-143.806
-141.586
-139.137
-136.478
-133.611
-130.533
-127.251
-123.767
-120.106
-116.286
-112.315
-108.206
-103.957
-99.5683
-95.0586
-90.4337
-85.7126
-80.9156
-76.0449
-71.1104
-66.1128
-61.0836
-56.0282
-50.978
-45.9185
-40.8688
-35.8318
-30.815
-25.84
-20.915
-16.0476
-11.2557
-6.54487
-1.92956
2.58315
7.0051
11.3021
15.484
19.5152
23.4145
27.1633
30.7555
34.1938
37.4613
40.5783
43.5115
46.2798
48.8491
51.2433
53.4366
55.4541
-144.822
-145.014
-144.979
-144.681
-144.164
-143.409
-142.41
-141.138
-139.648
-137.973
-136.068
-133.926
-131.566
-129.015
-126.281
-123.33
-120.181
-116.823
-113.312
-109.654
-105.847
-101.922
-97.8748
-93.6668
-89.3501
-84.9195
-80.4016
-75.814
-71.1455
-66.4249
-61.6258
-56.8122
-51.9644
-47.1501
-42.313
-37.5043
-32.7063
-27.8928
-23.1313
-18.4364
-13.7688
-9.18045
-4.68245
-0.262283
4.04096
8.28709
12.3959
16.4148
20.2589
23.9928
27.5743
31.0014
34.3016
37.4204
40.4248
43.2331
45.9052
48.3555
50.659
52.7511
54.6986
-136.813
-136.93
-136.884
-136.558
-136.052
-135.283
-134.33
-132.996
-131.587
-130.1
-128.201
-126.14
-123.834
-121.376
-118.875
-115.978
-112.957
-109.794
-106.408
-102.926
-99.2012
-95.4425
-91.697
-87.5718
-83.4608
-79.3027
-74.9253
-70.5836
-66.0087
-61.6209
-56.8948
-52.4224
-47.6674
-43.1911
-38.5369
-33.9993
-29.5024
-24.7712
-20.2312
-15.8152
-11.2629
-6.9293
-2.68246
1.62457
5.56972
9.78486
13.5656
17.5428
21.0593
24.7047
28.136
31.2989
34.5808
37.4331
40.4654
43.0185
45.7049
47.8837
50.2263
52.1149
54.1036
61.3494
63.3281
65.0702
66.5766
67.8466
68.8845
69.6941
70.2804
70.6478
70.8024
70.767
70.5843
70.2462
69.7118
69.0098
68.1452
67.0793
65.8241
64.4017
62.8275
61.1131
59.2691
57.3078
55.24
53.0783
50.8354
48.5248
46.1605
43.7551
41.3242
38.881
36.4406
34.0183
31.6278
29.2859
27.0054
24.8016
22.6889
20.6901
18.8207
17.1048
15.548
14.1638
12.9719
11.9867
11.2177
10.6739
10.3568
10.26
10.3646
10.6358
11.0186
11.4334
11.7787
11.8893
11.1362
9.62075
8.11555
6.89922
5.98281
5.16451
61.2687
63.1686
64.8427
66.2915
67.5151
68.5156
69.2964
69.8615
70.2151
70.3593
70.3089
70.1229
69.8003
69.2899
68.607
67.7564
66.717
65.4974
64.1154
62.5852
60.9183
59.1252
57.2178
55.2084
53.1089
50.9314
48.6881
46.3921
44.056
41.6937
39.3184
36.9443
34.5856
32.2562
29.971
27.7442
25.5903
23.5206
21.5422
19.6818
17.948
16.3772
14.9761
13.7587
12.7371
11.9215
11.32
10.9347
10.7596
10.7779
10.9578
11.2487
11.5739
11.8298
11.8212
11.1185
9.78327
8.45251
7.41905
6.61561
5.78326
60.5976
62.4559
64.0942
65.5141
66.715
67.6997
68.4713
69.034
69.39
69.5363
69.4969
69.3355
69.0363
68.5485
67.8912
67.0716
66.0755
64.9091
63.5855
62.1177
60.5166
58.7924
56.9572
55.0222
52.9985
50.8981
48.7328
46.515
44.257
41.9722
39.6734
37.3743
35.0883
32.8293
30.6108
28.4469
26.3505
24.3339
22.4095
20.5987
18.9203
17.384
16.0054
14.7947
13.7628
12.9195
12.2712
11.8189
11.5564
11.4681
11.5235
11.6757
11.8481
11.9357
11.7566
11.0593
9.88835
8.67388
7.66789
6.82661
5.99118
59.7614
61.5698
63.1653
64.5509
65.7244
66.6901
67.4485
68.0054
68.3589
68.5046
68.4815
68.3501
68.0755
67.6171
66.99
66.2036
65.2509
64.1387
62.8755
61.4731
59.9415
58.2903
56.5319
54.6768
52.735
50.7195
48.6407
46.5112
44.3422
42.1471
39.9379
37.728
35.53
33.3574
31.2228
29.1398
27.1209
25.1787
23.326
21.5792
19.9531
18.4591
17.1089
15.9106
14.8742
14.0075
13.3144
12.7937
12.4379
12.2313
12.1447
12.1337
12.1292
12.0363
11.7177
11.0319
10.0118
8.91125
7.92429
7.05876
6.23602
58.9191
60.6737
62.2223
63.5705
64.7126
65.6562
66.3975
66.9451
67.2922
67.4381
67.433
67.3316
67.0798
66.652
66.0561
65.3048
64.3945
63.3358
62.1319
60.7949
59.3338
57.7556
56.0757
54.3026
52.4446
50.5166
48.5269
46.4887
44.4111
42.3086
40.1913
38.0732
35.965
33.8807
31.8313
29.8308
27.8903
26.0223
24.2381
22.5517
20.9755
19.5215
18.1994
17.0163
15.9782
15.0906
14.3555
13.7698
13.3242
13.0025
12.7773
12.608
12.4366
12.1882
11.7712
11.1056
10.2095
9.2219
8.27418
7.40168
6.57484
58.0958
59.7952
61.2932
62.6038
63.7116
64.6327
65.3549
65.893
66.233
66.3843
66.3962
66.3224
66.0917
65.6945
65.1294
64.4155
63.5466
62.5415
61.3957
60.124
58.7342
57.2284
55.6278
53.938
52.1638
50.3254
48.4254
46.4803
44.4945
42.486
40.4613
38.4359
36.4176
34.422
32.4575
30.5394
28.6765
26.8818
25.1633
23.5351
22.0066
20.5901
19.293
18.1212
17.0787
16.1676
15.3893
14.7389
14.2063
13.7764
13.4236
13.1131
12.7984
12.4247
11.9324
11.2766
10.4651
9.57094
8.67477
7.81465
6.98622
57.2691
58.9121
60.3567
61.6294
62.7013
63.6012
64.3045
64.8333
65.167
65.3278
65.356
65.3077
65.0978
64.7305
64.1961
63.5207
62.6934
61.7426
60.6533
59.4478
58.1311
56.6979
55.1779
53.5718
51.8813
50.1347
48.3258
46.4754
44.582
42.6692
40.7381
38.8066
36.878
34.9713
33.0908
31.2549
29.4696
27.7472
26.0921
24.5199
23.0363
21.6551
20.3811
19.2185
18.1695
17.2342
16.414
15.7017
15.0869
14.5582
14.0918
13.6597
13.2253
12.7503
12.1958
11.5363
10.7734
9.94504
9.09843
8.26222
7.4434
56.4292
58.0213
59.4043
60.6447
61.6729
62.5573
63.2378
63.7611
64.0867
64.2656
64.3035
64.2823
64.0899
63.7549
63.2481
62.614
61.8237
60.9362
59.8945
58.7581
57.5198
56.1526
54.7233
53.201
51.5858
49.9386
48.2187
46.4689
44.6632
42.8516
41.0117
39.1785
37.3366
35.5211
33.7193
31.9675
30.2578
28.61
27.0138
25.4974
24.052
22.7058
21.4519
20.3004
19.2438
18.2835
17.4274
16.6592
15.9686
15.3545
14.7888
14.2557
13.7214
13.1647
12.5558
11.8836
11.143
10.3569
9.54612
8.73463
7.93251
55.6144
57.2694
58.4876
59.8064
60.6769
61.6274
62.1753
62.7909
63.0247
63.3237
63.2669
63.3547
63.0976
62.8867
62.3279
61.8102
60.952
60.2337
59.1878
58.1285
57.0048
55.5946
54.3284
52.9226
51.2928
49.8214
48.1186
46.5392
44.7473
43.098
41.2852
39.6037
37.7997
36.1256
34.3463
32.7181
31.0399
29.505
27.9279
26.5029
25.0534
23.7696
22.5141
21.3843
20.3229
19.3212
18.4459
17.626
16.8588
16.1895
15.5268
14.9234
14.2947
13.6808
13.0138
12.3335
11.5906
10.8408
10.0454
9.24568
8.46403
4.36819
3.64515
2.96081
2.26795
1.57929
0.932847
0.339432
-0.191164
-0.637055
-0.992264
-1.2541
-1.42785
-1.51414
-1.51095
-1.44798
-1.34725
-1.2233
-1.09666
-0.981472
-0.884822
-0.809268
-0.748744
-0.700611
-0.660604
-0.615667
-0.581826
-0.539825
-0.491838
-0.431895
-0.35952
-0.272245
-0.16968
-0.0521354
0.0809266
0.226312
0.382689
0.545775
0.712522
0.878855
1.03892
1.18927
1.32433
1.44208
1.5381
1.60925
1.65568
1.67637
1.67259
1.64508
1.59693
1.53203
1.45355
1.36421
1.26934
1.17009
1.06906
0.964525
0.85396
0.735975
0.607284
0.440106
4.95717
4.27503
3.65057
3.00207
2.3432
1.72817
1.16386
0.653885
0.226107
-0.110433
-0.351826
-0.49494
-0.541799
-0.505968
-0.425791
-0.317413
-0.193415
-0.0708266
0.0379682
0.126565
0.194657
0.245996
0.285881
0.310965
0.348902
0.366536
0.396658
0.430663
0.475313
0.532199
0.602918
0.68849
0.789388
0.905164
1.03412
1.17406
1.32178
1.47316
1.62453
1.77212
1.9108
2.03617
2.14458
2.23272
2.29772
2.33841
2.35435
2.3457
2.31359
2.26033
2.18895
2.10267
2.00432
1.89947
1.78889
1.67662
1.56062
1.44161
1.3146
1.17264
0.996564
5.19867
4.52103
3.87929
3.18046
2.47381
1.84119
1.25472
0.706973
0.242114
-0.133273
-0.418919
-0.612783
-0.719477
-0.755848
-0.718675
-0.634263
-0.507306
-0.370148
-0.249333
-0.151827
-0.0776042
-0.0217039
0.0206989
0.0627027
0.0853091
0.124419
0.157166
0.199138
0.25079
0.314056
0.390439
0.481029
0.586091
0.704872
0.835683
0.976186
1.12339
1.27371
1.42312
1.56731
1.70191
1.82275
1.92612
2.00872
2.06806
2.10296
2.11311
2.09948
2.0637
2.00856
1.93725
1.85381
1.76169
1.6642
1.56386
1.46323
1.36063
1.2518
1.13089
0.987362
0.811748
5.46396
4.77244
4.10104
3.38703
2.68101
2.05011
1.44485
0.872695
0.406564
0.0384566
-0.246362
-0.433705
-0.523246
-0.530185
-0.459097
-0.329541
-0.1875
-0.0720136
0.040007
0.13835
0.216525
0.275539
0.319568
0.354676
0.376364
0.401705
0.424596
0.453108
0.489661
0.536524
0.595609
0.668727
0.75653
0.858407
0.97291
1.09792
1.23051
1.36745
1.50489
1.63888
1.76519
1.88007
1.97987
2.06167
2.12301
2.16281
2.18057
2.17712
2.15369
2.11283
2.05665
1.98849
1.91062
1.82566
1.73382
1.63717
1.53787
1.43302
1.31803
1.18681
1.03221
5.7962
5.07369
4.3721
3.6507
2.94111
2.28293
1.65118
1.07516
0.608339
0.223911
-0.087614
-0.28883
-0.38808
-0.413499
-0.368376
-0.274746
-0.163407
-0.0347063
0.0786888
0.173728
0.245797
0.300482
0.342106
0.376291
0.402584
0.428569
0.454569
0.485371
0.522952
0.568614
0.624956
0.69371
0.775685
0.870183
0.976309
1.09186
1.21453
1.34118
1.46842
1.59263
1.7099
1.81693
1.91004
1.98684
2.04456
2.08238
2.09924
2.09615
2.07349
2.03381
1.97899
1.91246
1.83723
1.75541
1.66898
1.58909
1.50662
1.41993
1.32453
1.21384
1.07761
6.19211
5.43537
4.70291
3.97178
3.25487
2.57411
1.92711
1.33839
0.84138
0.426112
0.102377
-0.103685
-0.223794
-0.272344
-0.233833
-0.137405
-0.0198484
0.100979
0.208774
0.292003
0.352122
0.397348
0.43139
0.459571
0.481008
0.501389
0.521345
0.546318
0.576812
0.614103
0.661118
0.720132
0.791586
0.874997
0.969335
1.07299
1.18319
1.29759
1.41271
1.52576
1.63264
1.73102
1.81683
1.88875
1.94342
1.98097
1.99964
2.00143
1.98589
1.9561
1.91349
1.86182
1.80431
1.74487
1.68647
1.61808
1.54858
1.47488
1.39075
1.29071
1.16721
6.64491
5.86916
5.11245
4.36879
3.64297
2.95093
2.29693
1.69966
1.17648
0.734681
0.38767
0.148683
-0.00409821
-0.062878
-0.0265517
0.0565889
0.163359
0.274022
0.370362
0.442193
0.483087
0.513358
0.533772
0.553391
0.565743
0.578841
0.590302
0.607943
0.630888
0.65775
0.695133
0.743362
0.804312
0.876195
0.959125
1.05024
1.1484
1.25026
1.35349
1.45544
1.55224
1.64211
1.72076
1.788
1.83942
1.87665
1.89688
1.9033
1.89429
1.87392
1.84228
1.80373
1.75984
1.71286
1.66484
1.61636
1.56522
1.50947
1.44308
1.36089
1.25547
7.14078
6.3631
5.59831
4.85276
4.12265
3.4325
2.78138
2.19143
1.66125
1.20714
0.840851
0.573261
0.378005
0.291389
0.291766
0.340355
0.436093
0.514216
0.580035
0.633662
0.644983
0.650339
0.648676
0.659091
0.657589
0.663101
0.660989
0.671677
0.687107
0.700382
0.72645
0.764872
0.817519
0.878782
0.950718
1.03129
1.11767
1.2086
1.30123
1.39462
1.48206
1.56532
1.63685
1.7009
1.74824
1.78552
1.80587
1.81654
1.81171
1.79877
1.77421
1.7453
1.71303
1.67727
1.64214
1.60756
1.57187
1.53364
1.48542
1.42348
1.33716
7.67108
6.91264
6.14466
5.4037
4.67623
4.00675
3.37228
2.82713
2.3058
1.8689
1.51805
1.26648
0.99566
0.876208
0.844207
0.823364
0.880132
0.807397
0.812098
0.890222
0.831131
0.811331
0.76379
0.795214
0.75535
0.767428
0.72608
0.736401
0.756471
0.745641
0.747889
0.785489
0.836738
0.883401
0.947301
1.01827
1.09279
1.17684
1.26076
1.35493
1.42723
1.51541
1.56961
1.64298
1.67497
1.72195
1.72752
1.7565
1.74209
1.74362
1.71359
1.68694
1.66662
1.64117
1.61916
1.59642
1.5729
1.55428
1.51975
1.48557
1.41068
4.83675
-4.22635
-5.55286
14.7984
5.70904
19.3848
17.9814
10.8856
11.4903
29.0999
1.66679
23.721
18.0914
2.99203
21.6824
-102.587
20.5328
12.2127
1.4701
17.4243
15.0253
3.34988
1.09058
20.1171
11.3953
17.1349
17.4889
9.52008
20.2822
6.7892
10.3876
16.6463
28.4346
1.82927
23.0102
0.877464
0.790621
57.2855
18.6335
17.4625
7.75402
-2.87819
17.9988
-88.5902
0.710024
31.6208
11.5278
2.9657
16.1568
25.3519
-3.28698
-46.0616
17.0644
9.46038
13.9452
16.1793
6.89672
7.60164
0.971614
-31.4487
3.87714
15.4667
17.0572
-8.24796
-25.8712
14.826
0.871223
8.79802
18.855
18.061
15.3357
59.4663
6.60001
13.3613
13.3603
6.32046
-12.4773
44.3153
17.1163
28.0943
-0.824239
16.4297
16.6773
-36.8165
17.951
50.2245
11.9624
1.88626
15.3157
1.52917
-13.9569
17.1058
5.0731
-31.9146
-37.3249
5.57454
44.199
9.91347
25.4711
-102.046
14.4543
16.1106
25.057
16.9921
18.0845
16.9595
15.1572
39.6703
19.7433
-78.4641
-109.66
15.9137
0.872566
1.62156
5.97717
2.24115
1.17765
19.5107
-7.74476
11.2478
12.8365
0.47473
11.2342
-118.464
-26.7294
10.6449
15.2716
-47.3199
-35.0724
17.8033
21.2733
-8.08082
5.59532
10.919
2.67676
10.7241
17.9895
-53.5441
-30.9757
11.6196
9.5234
-53.2815
14.8725
49.0234
1.67649
12.4495
16.6015
1.66937
31.761
-0.440773
16.1858
16.2054
58.9954
-33.7385
-59.6431
8.80863
8.22151
-28.0168
16.5642
0.779375
16.6102
26.3876
17.3699
12.4714
14.8794
13.0146
7.02538
9.71824
17.095
0.559737
-1.50138
1.61501
5.86528
17.4136
1.69916
1.68296
1.31687
8.80525
22.3904
2.06856
1.95288
-1.31579
-31.2508
9.67125
6.39935
1.14677
-10.5828
52.1089
9.77616
11.8259
25.4558
20.2187
-16.8925
-39.3948
16.5737
-31.834
4.30162
0.446865
21.3052
0.843797
9.8001
14.9494
13.3053
-59.0801
-1.4776
20.8354
8.43314
16.0653
-45.7962
0.941558
41.2077
-5.71514
16.2991
-117.896
11.1021
-77.9012
-65.7178
1.69526
33.2952
1.94684
11.3179
40.1251
11.9511
16.6842
1.17944
-7.79688
-9.35598
11.6714
17.0007
59.625
1.67393
21.4331
-5.13068
-37.8277
13.5761
19.2569
3.09297
-57.4336
-46.8467
19.286
13.2963
8.77915
10.9721
15.9226
-124.15
16.6902
8.41078
-98.9485
23.9111
17.2384
8.78929
23.7456
1.49505
8.38146
11.2886
18.6337
25.3498
15.1728
6.63334
2.06095
15.6242
9.42595
-65.1354
18.5409
0.744263
12.7652
17.4957
1.42715
17.5215
1.1126
24.0426
1.53465
22.7776
11.3517
52.7951
9.99714
14.2524
10.7194
15.9419
20.6906
50.2886
9.75818
-72.2204
15.2885
14.8462
18.6028
17.0212
-61.9629
7.9121
7.87112
-26.2398
40.499
14.4218
16.9542
35.1082
17.3671
9.4721
4.95112
-0.425292
16.3231
10.8939
5.41525
48.4444
-3.83887
5.36109
-79.3968
21.7937
18.6081
19.3664
-100.871
9.7202
11.893
11.4385
-12.5585
16.4209
14.2257
1.12379
1.41253
6.98906
2.01798
16.3721
3.60226
15.2522
14.9488
-26.8523
2.02492
15.4508
1.0234
-90.8764
6.47362
-27.3373
-44.7321
-101.885
2.21648
1.72068
16.8251
0.910748
1.19924
-124.464
35.0661
14.9935
14.7463
11.9555
11.6086
49.7437
11.2085
-9.4273
18.7538
-71.2107
14.9239
1.63354
-45.6524
-114.248
10.604
-62.1155
8.61184
2.66908
14.4482
1.97598
2.35152
10.2503
0.814716
1.09967
-6.83095
1.08849
16.0007
6.72193
-114.522
-34.1787
3.90258
16.5553
-26.282
-49.9933
12.6162
1.81642
15.6888
-5.49575
7.23999
1.71287
-74.1017
1.21338
-80.2748
20.2431
-89.7239
11.2063
4.88554
20.7933
1.38048
-117.995
-27.7791
47.4083
50.1668
3.19805
0.85903
17.1671
30.2536
16.7149
0.0185387
12.0121
-10.3734
17.2671
18.7782
21.9611
21.46
-7.73256
-46.9603
11.9941
-83.273
0.252179
-11.1424
2.03787
-62.2463
-1.5951
18.7558
-124.763
9.55553
9.34652
23.1324
-53.1581
17.0412
18.1793
1.54523
17.7345
9.90547
14.3374
1.50095
35.91
-26.2445
-51.9051
9.48117
-61.3638
9.06697
-54.6807
16.8073
15.6547
1.06816
3.952
-94.0228
-1.37272
1.68038
-10.9174
-62.4772
-60.077
18.3417
5.75704
-41.7147
-50.3045
17.0409
2.43077
-32.1501
22.8167
12.9646
36.3881
-40.1328
-0.352767
-9.7266
0.849557
9.03543
-90.6473
2.25574
10.5091
19.8454
47.004
3.81323
44.0628
2.00765
17.4035
1.96997
1.70039
13.6867
12.3935
0.580843
1.41354
16.7707
2.34639
1.67203
2.77754
1.67954
2.1286
1.5352
8.12941
4.71692
15.7767
15.6298
-111.59
10.072
-68.3668
-107.431
16.1705
0.881588
2.47229
19.0959
3.96058
1.64041
16.2848
17.0331
15.0731
5.32843
-37.7014
10.5366
26.5545
13.5959
13.9054
15.5174
5.47037
0.821639
13.455
19.2078
9.53304
1.62433
13.9033
13.5365
-12.795
12.5737
0.0649943
-3.4545
-4.32964
17.1618
19.9766
9.36779
22.4988
3.47452
2.76188
48.7129
-22.0067
-5.13409
21.9349
8.19494
1.36967
1.61911
-80.5191
-27.4339
20.9435
3.11819
10.3218
0.873811
-21.1996
18.6572
12.0164
-27.4663
-83.0726
12.6677
-17.7208
-54.3497
4.56475
-105.946
9.27958
9.4108
9.05941
-32.3551
13.8268
-81.3443
-2.01098
12.9948
1.08649
17.2554
-0.37224
14.9161
12.756
31.7464
2.95723
1.01561
14.8161
7.16011
0.847106
-46.942
-30.7227
8.03881
-34.3018
4.71169
28.6619
1.9082
9.37318
-95.9219
9.88866
8.49513
14.4195
1.62724
52.1476
1.75908
8.18645
8.49254
1.52927
1.2821
13.5687
15.5973
15.9363
9.50021
10.2018
29.2567
-76.4862
8.32325
17.8138
-32.1569
1.00283
-87.6365
13.609
0.851962
17.6844
-55.4456
4.23828
-21.1538
1.01523
0.94967
2.90976
-106.547
20.5372
17.3137
6.51889
16.021
-27.0638
-22.5047
-6.4813
9.98086
9.04693
4.9524
16.2659
-0.308791
0.822641
16.1782
23.2507
1.65737
-58.7387
20.9073
1.74917
20.5037
-8.36083
17.2138
36.3579
6.67363
29.5183
18.476
-30.2488
-21.4636
-4.41713
19.0515
10.5478
-32.5901
16.0691
12.4886
4.57438
5.5532
0.874806
-30.9923
40.4207
4.26278
2.14242
1.07947
-90.2057
9.5261
23.3708
15.6799
1.12879
5.56257
-23.028
14.412
12.4049
6.16802
1.64593
-6.96409
15.1809
2.11239
10.9267
-21.1471
1.66795
38.9647
1.03235
0.119694
8.28609
57.1933
17.0798
16.6859
1.57374
10.192
7.07616
8.81062
10.1394
-116.532
2.49916
-35.055
30.5466
17.5705
8.45233
19.315
-6.29055
-10.9823
1.64527
3.89556
1.59808
12.8589
-2.6535
18.5534
-88.9791
16.739
6.75311
2.17327
-3.54235
2.95307
-6.80452
10.5966
3.4019
1.162
19.2291
-121.49
15.3637
17.0736
10.7567
-4.04878
18.8835
3.7969
-21.468
15.6231
-13.864
-98.1187
17.4565
8.86083
14.5124
-63.4717
-6.56918
15.7804
42.766
12.5561
9.04568
11.5413
-111.488
-126.697
16.5642
-1.07346
-12.0251
1.68369
17.7796
6.8859
-11.5267
13.8054
15.318
0.379584
18.5089
19.5771
8.49545
14.8183
-3.09708
13.3109
-5.59747
23.1773
1.87238
-4.46895
42.6402
1.27915
6.79999
21.8948
4.37021
-45.544
24.514
-84.0713
20.8746
1.37847
-19.7454
10.1086
-9.60273
0.859337
12.8579
13.0948
-93.8448
-40.2027
13.4551
-65.5794
-8.84221
53.642
-16.085
-20.2049
21.3302
0.846872
5.91142
11.9365
-55.9284
-22.9688
-4.78303
-3.99385
-6.61425
1.07468
22.6119
19.122
13.3166
-122.037
-44.7221
27.4957
2.38521
-112.463
11.2272
14.434
10.3394
1.26995
4.73989
1.33615
-14.9299
21.4222
-121.621
-17.3236
-86.2201
-98.9702
18.8128
25.3615
-43.8278
26.2019
14.5589
12.2297
11.112
10.4111
26.0541
17.8998
2.34295
-51.8119
-30.4374
24.6018
2.18028
3.46951
13.7615
1.51613
12.8767
-53.7761
1.53943
49.2162
5.3917
22.2602
11.6172
18.5685
15.6787
-77.0837
13.1149
44.7498
1.03019
0.993257
32.2623
61.0321
12.6776
13.1963
25.0579
-50.8851
-15.5315
17.2476
10.0046
-92.0209
27.4507
17.3754
-63.4805
15.7174
3.68772
1.53239
6.2534
-16.4034
53.7223
0.811267
-8.54454
0.0171162
17.7806
0.720573
9.50652
14.8284
17.2738
12.1965
1.03228
17.31
0.715064
30.238
0.073664
11.3908
10.3511
16.6402
8.40327
-50.2698
9.73942
18.1202
-29.6674
-71.2688
33.9693
1.73407
7.47202
16.7451
34.3094
-85.1466
9.45903
-2.79588
11.1637
16.2941
-88.533
17.2024
9.81473
49.9666
29.8462
-19.635
4.3744
15.799
17.1423
-67.1947
-4.17978
10.1144
14.8876
1.38966
17.5063
-128.227
7.38055
0.957353
10.523
18.7434
0.348457
14.7141
22.9939
24.899
4.61213
-0.323895
17.7516
20.6751
17.446
20.3593
10.7651
18.1746
-70.7103
2.59168
18.0776
-25.7805
14.0725
7.32671
19.6399
11.6109
-62.4166
10.7508
5.03501
18.8635
-20.8715
16.694
-24.8499
-104.469
1.79977
1.55514
-47.8871
16.1642
18.3942
-21.5294
-105.261
1.31999
-14.3309
15.8671
-83.1281
13.3578
16.5702
18.2364
-18.423
7.09241
9.60555
-28.9166
17.4674
8.65663
-85.2651
10.4888
-119.665
47.0364
11.6351
18.2262
6.33423
16.793
-9.25945
-6.25465
20.1097
-18.4208
5.7082
12.8131
-38.3198
4.81235
17.5579
-49.5641
14.879
1.86345
-67.7204
-13.9269
17.1951
19.3204
14.7124
62.0738
8.7487
-2.46647
-23.9799
15.5978
-11.803
15.46
5.31011
15.4962
0.912226
9.84063
0.792639
-14.0569
58.8105
7.30715
59.1758
6.74462
12.774
4.07852
20.0478
-9.51406
17.8121
11.0965
1.81803
59.6896
16.8096
9.10484
-8.60583
0.730924
-109.231
15.8511
-5.73752
10.5103
-21.9308
-62.2815
1.11645
-73.8135
9.51483
3.04086
-25.8088
18.3297
15.7287
14.1512
12.3001
21.3996
16.1962
12.7977
17.636
1.33119
-68.8306
17.6137
20.2536
17.6745
7.92372
-73.3288
1.40356
-24.57
15.6952
-43.6679
0.963316
25.051
-67.7061
17.0191
0.864225
40.1608
1.58866
22.8234
4.15937
2.00833
15.9676
10.4464
-107.818
13.6991
-0.868783
-39.3661
1.66308
15.8834
10.939
30.9234
2.7242
1.65532
-79.6648
15.8733
16.4656
16.9808
-20.1847
-36.1078
14.0121
12.7648
15.097
1.34316
1.83567
49.3076
0.766314
-65.9167
2.24723
-59.3032
0.944942
0.827899
32.3314
50.898
12.9815
59.9748
45.3819
18.3351
17.5973
6.23333
14.4826
18.5571
2.37351
1.99517
19.6739
1.79113
10.2434
19.1683
8.99416
18.5137
28.7921
1.72242
-5.53651
-121.386
17.8509
12.0645
-50.8539
7.65253
22.4644
14.0117
10.9239
2.52867
17.3394
-2.30697
1.84838
30.3842
12.7838
1.19748
16.7486
17.4221
15.5963
5.7151
15.5065
17.0033
-3.65486
18.5056
20.6208
-77.0747
-28.9425
-18.6619
14.747
1.83942
-50.924
17.0746
1.71308
1.23595
-126.462
0.816296
16.732
8.62363
31.4237
-1.16103
1.36443
9.23163
46.3976
1.80397
16.1129
1.21698
16.6117
53.8901
14.1794
-21.0651
16.8038
1.07955
-69.8504
15.6699
42.3606
4.08687
13.0129
18.7504
29.4914
10.9425
19.7272
2.11466
16.151
10.6403
-123.587
4.43736
18.6457
19.9784
-65.3298
-82.9764
16.7748
18.1345
12.5685
11.4095
-59.7259
24.6441
-59.0843
17.8171
11.2855
17.3287
-12.1736
5.8708
17.4858
1.00382
1.67614
-90.045
-62.7351
8.18963
-2.45605
-74.9946
18.2704
18.401
18.4539
7.43417
18.9259
2.52153
18.209
9.5209
-1.39344
-25.3103
2.35634
12.6916
1.74189
36.3408
16.7004
19.6144
-104.665
15.5576
15.5244
20.1027
12.442
-74.152
-6.92158
1.5775
17.209
17.0347
17.6858
-3.77938
20.2546
-17.8589
8.33105
8.31249
13.504
9.53901
15.5887
11.0195
10.6111
9.73515
-1.76838
-10.4894
2.71343
-87.4115
11.8529
16.7795
0.875903
-91.9471
41.2102
2.7771
23.7352
15.9978
13.1237
11.822
16.62
60.7485
-8.36902
1.37337
-95.0856
16.7636
27.9053
-37.3304
3.65824
-52.1129
1.42338
30.9842
1.81528
16.6725
-23.0057
-13.3839
-38.3286
-8.56008
17.7971
1.60251
7.69631
22.4775
13.2278
19.5119
8.80733
56.711
20.4827
16.6346
43.9351
10.7283
15.6286
18.4513
20.3816
-10.7208
1.36618
9.79215
11.6404
-16.7167
13.8854
9.37916
15.0799
-3.43274