/*--------------------------------*- C++ -*----------------------------------*\
| =========                 |                                                 |
| \\      /  F ield         | OpenFOAM: The Open Source CFD Toolbox           |
|  \\    /   O peration     | Version:  2.3.1                                 |
|   \\  /    A nd           | Web:      www.OpenFOAM.org                      |
|    \\/     M anipulation  |                                                 |
\*---------------------------------------------------------------------------*/
FoamFile
{
    version     2.0;
    format      ascii;
    class       surfaceScalarField;
    location    "0.2";
    object      phi;
}
// * * * * * * * * * * * * * * * * * * * * * * * * * * * * * * * * * * * * * //

dimensions      [0 3 -1 0 0 0 0];

internalField   nonuniform List<scalar> 
1460
(
3.98618e-07
-3.98618e-07
6.53867e-07
-2.55249e-07
6.50857e-07
3.01021e-09
4.07781e-07
2.43076e-07
-6.3771e-08
4.71552e-07
-7.35124e-07
6.71353e-07
-1.55396e-06
8.18836e-07
-2.4369e-06
8.82937e-07
-3.29182e-06
8.54919e-07
-4.04092e-06
7.49107e-07
-4.63241e-06
5.91483e-07
4.0809e-07
-5.0405e-06
-1.50953e-07
-2.47666e-07
-6.12939e-07
2.06737e-07
-1.31512e-06
7.05192e-07
-2.18316e-06
1.11112e-06
-3.11255e-06
1.40094e-06
-3.99485e-06
1.55366e-06
-4.73788e-06
1.56186e-06
-5.28968e-06
1.43473e-06
-5.63735e-06
1.20259e-06
-5.79517e-06
9.06923e-07
-5.79292e-06
5.89237e-07
2.82617e-07
-5.66745e-06
-6.91069e-07
4.43404e-07
-1.59397e-06
1.10963e-06
-2.52054e-06
1.63177e-06
-3.36797e-06
1.95855e-06
-4.04837e-06
2.08133e-06
-4.51759e-06
2.02288e-06
-4.78188e-06
1.82615e-06
-4.88625e-06
1.53911e-06
-4.88864e-06
1.20498e-06
-4.83674e-06
8.55017e-07
-4.75475e-06
5.0725e-07
1.72207e-07
-4.64434e-06
-8.71788e-07
1.31519e-06
-1.81822e-06
2.05607e-06
-2.62761e-06
2.44116e-06
-3.22911e-06
2.56005e-06
-3.62345e-06
2.47567e-06
-3.86636e-06
2.26579e-06
-4.02948e-06
1.98927e-06
-4.16197e-06
1.67159e-06
-4.271e-06
1.31401e-06
-4.32982e-06
9.13841e-07
-4.30481e-06
4.82237e-07
3.71883e-08
-4.16979e-06
-7.61442e-07
2.07663e-06
-1.54753e-06
2.84215e-06
-2.14317e-06
3.0368e-06
-2.53665e-06
2.95353e-06
-2.80078e-06
2.7398e-06
-3.02473e-06
2.48975e-06
-3.2607e-06
2.22524e-06
-3.50648e-06
1.91737e-06
-3.72009e-06
1.52762e-06
-3.84795e-06
1.0417e-06
-3.84938e-06
4.83673e-07
-8.08093e-08
-3.73138e-06
-5.10392e-07
2.58703e-06
-1.07349e-06
3.40525e-06
-1.47134e-06
3.43465e-06
-1.73927e-06
3.22145e-06
-1.9795e-06
2.98003e-06
-2.26855e-06
2.77879e-06
-2.62519e-06
2.58188e-06
-3.01516e-06
2.30733e-06
-3.36791e-06
1.88037e-06
-3.59936e-06
1.27315e-06
-3.6447e-06
5.29013e-07
-2.60278e-07
-3.46523e-06
-1.95011e-07
2.78204e-06
-5.43384e-07
3.75362e-06
-7.79664e-07
3.67093e-06
-9.70888e-07
3.41268e-06
-1.21626e-06
3.22541e-06
-1.57454e-06
3.13707e-06
-2.05358e-06
3.06092e-06
-2.60674e-06
2.86049e-06
-3.13125e-06
2.40489e-06
-3.49468e-06
1.63658e-06
-3.58798e-06
6.22315e-07
-4.75176e-07
-3.37308e-06
1.51548e-07
2.63049e-06
6.70826e-09
3.89846e-06
-9.70565e-08
3.7747e-06
-2.2587e-07
3.54149e-06
-4.59353e-07
3.45889e-06
-8.59709e-07
3.53743e-06
-1.44246e-06
3.64368e-06
-2.14728e-06
3.56531e-06
-2.82575e-06
3.08335e-06
-3.29125e-06
2.10208e-06
-3.40195e-06
7.33017e-07
-7.39399e-07
-3.13773e-06
5.00813e-07
2.12968e-06
5.76636e-07
3.82264e-06
5.84104e-07
3.76723e-06
5.32747e-07
3.59285e-06
3.4892e-07
3.64272e-06
-3.31192e-08
3.91947e-06
-6.36734e-07
4.24729e-06
-1.38824e-06
4.31682e-06
-2.10479e-06
3.79989e-06
-2.57926e-06
2.57656e-06
-2.66017e-06
8.13927e-07
-1.03328e-06
-2.36629e-06
7.42369e-07
1.38731e-06
1.10845e-06
3.45656e-06
1.27603e-06
3.59965e-06
1.33791e-06
3.53097e-06
1.25366e-06
3.72697e-06
9.7751e-07
4.19562e-06
4.91632e-07
4.73317e-06
-1.34057e-07
4.94251e-06
-7.33657e-07
4.39949e-06
-1.12065e-06
2.96355e-06
-1.17312e-06
8.66397e-07
-1.32947e-06
-8.76934e-07
8.28193e-07
5.59115e-07
1.56825e-06
2.7165e-06
2.00117e-06
3.16673e-06
2.20514e-06
3.327e-06
2.25815e-06
3.67395e-06
2.17038e-06
4.28339e-06
1.92634e-06
4.97721e-06
1.5767e-06
5.29215e-06
1.2403e-06
4.7359e-06
1.03317e-06
3.17067e-06
1.02006e-06
8.79513e-07
-1.58884e-06
1.27942e-06
1.83789e-07
3.75325e-07
1.54382e-06
1.35647e-06
2.5493e-06
2.16125e-06
3.08328e-06
2.79302e-06
3.35215e-06
3.40509e-06
3.49152e-06
4.14402e-06
3.55125e-06
4.91748e-06
3.5525e-06
5.2909e-06
3.53584e-06
4.75255e-06
3.54753e-06
3.15898e-06
3.61028e-06
8.16768e-07
3.77503e-06
-1.75359e-06
-5.26313e-06
2.22633e-07
-5.32383e-06
6.07027e-08
-5.23985e-06
-8.398e-08
-4.99027e-06
-2.49581e-07
-4.58869e-06
-4.01578e-07
-4.04927e-06
-5.39422e-07
-3.37227e-06
-6.77005e-07
-2.56136e-06
-8.10908e-07
-1.65043e-06
-9.10924e-07
-7.54896e-07
-8.95537e-07
-1.14182e-07
-6.40714e-07
-1.14182e-07
-5.43163e-06
-1.31858e-08
-5.13591e-06
-2.35017e-07
-4.80426e-06
-4.15627e-07
-4.46206e-06
-5.91783e-07
-4.09786e-06
-7.65775e-07
-3.69306e-06
-9.44227e-07
-3.2311e-06
-1.13896e-06
-2.68453e-06
-1.35748e-06
-2.01635e-06
-1.5791e-06
-1.21559e-06
-1.6963e-06
-4.12304e-07
-1.444e-06
-5.26486e-07
-4.52648e-06
-1.31041e-07
-4.31263e-06
-4.48871e-07
-4.02364e-06
-7.04614e-07
-3.69146e-06
-9.23963e-07
-3.34021e-06
-1.11702e-06
-2.98635e-06
-1.29809e-06
-2.63913e-06
-1.48618e-06
-2.29211e-06
-1.70451e-06
-1.90182e-06
-1.96939e-06
-1.36856e-06
-2.22957e-06
-6.25309e-07
-2.18725e-06
-1.15179e-06
-3.93689e-06
-3.63937e-07
-3.65886e-06
-7.26905e-07
-3.33384e-06
-1.02963e-06
-2.98558e-06
-1.27222e-06
-2.63463e-06
-1.46798e-06
-2.29665e-06
-1.63607e-06
-1.98476e-06
-1.79807e-06
-1.71105e-06
-1.97822e-06
-1.47397e-06
-2.20647e-06
-1.19908e-06
-2.50445e-06
-6.87479e-07
-2.69885e-06
-1.83927e-06
-3.45921e-06
-6.36111e-07
-3.10214e-06
-1.08397e-06
-2.70695e-06
-1.42483e-06
-2.31365e-06
-1.66552e-06
-1.94975e-06
-1.83187e-06
-1.62913e-06
-1.95669e-06
-1.35596e-06
-2.07124e-06
-1.13142e-06
-2.20276e-06
-9.62412e-07
-2.37547e-06
-8.39321e-07
-2.62754e-06
-5.96063e-07
-2.94211e-06
-2.43534e-06
-3.11233e-06
-9.89012e-07
-2.63638e-06
-1.55992e-06
-2.12208e-06
-1.93912e-06
-1.6403e-06
-2.1473e-06
-1.23368e-06
-2.2385e-06
-9.17236e-07
-2.27313e-06
-6.87782e-07
-2.30069e-06
-5.33086e-07
-2.35746e-06
-4.4074e-07
-2.46782e-06
-4.09083e-07
-2.6592e-06
-3.8289e-07
-2.9683e-06
-2.81823e-06
-2.89485e-06
-1.46724e-06
-2.25501e-06
-2.19977e-06
-1.57709e-06
-2.61704e-06
-9.65743e-07
-2.75865e-06
-4.84355e-07
-2.71989e-06
-1.52856e-07
-2.60463e-06
3.99195e-08
-2.49347e-06
1.18858e-07
-2.4364e-06
1.09463e-07
-2.45842e-06
3.42049e-08
-2.58394e-06
-9.88129e-08
-2.83528e-06
-2.91704e-06
-2.55189e-06
-2.05308e-06
-1.77664e-06
-2.97501e-06
-9.63867e-07
-3.42981e-06
-2.4166e-07
-3.48086e-06
3.09581e-07
-3.27113e-06
6.61039e-07
-2.95609e-06
8.25051e-07
-2.65748e-06
8.32992e-07
-2.44434e-06
7.17344e-07
-2.34277e-06
5.00662e-07
-2.36726e-06
2.04694e-07
-2.53932e-06
-2.71235e-06
-1.7417e-06
-2.67767e-06
-9.30753e-07
-3.78596e-06
-9.22341e-08
-4.26833e-06
6.42758e-07
-4.21585e-06
1.19409e-06
-3.82246e-06
1.53147e-06
-3.29347e-06
1.66083e-06
-2.78684e-06
1.60633e-06
-2.38984e-06
1.39508e-06
-2.13152e-06
1.03919e-06
-2.01138e-06
5.49071e-07
-2.0492e-06
-2.16327e-06
-2.98929e-07
-3.25568e-06
4.21838e-07
-4.50673e-06
1.14404e-06
-4.99053e-06
1.76154e-06
-4.83335e-06
2.21175e-06
-4.27267e-06
2.47145e-06
-3.55317e-06
2.54185e-06
-2.85724e-06
2.43187e-06
-2.27986e-06
2.14925e-06
-1.8489e-06
1.67799e-06
-1.54011e-06
9.80967e-07
-1.35217e-06
-1.18231e-06
1.70829e-06
-3.68454e-06
2.21135e-06
-5.00979e-06
2.6937e-06
-5.47287e-06
3.08484e-06
-5.22449e-06
3.34761e-06
-4.53544e-06
3.4718e-06
-3.67735e-06
3.4578e-06
-2.84325e-06
3.30008e-06
-2.12214e-06
2.97973e-06
-1.52856e-06
2.44682e-06
-1.0072e-06
1.58846e-06
-4.93811e-07
4.06152e-07
3.99221e-06
-3.90173e-06
4.21305e-06
-5.23063e-06
4.39076e-06
-5.65059e-06
4.49833e-06
-5.33206e-06
4.52958e-06
-4.56669e-06
4.48992e-06
-3.63769e-06
4.38204e-06
-2.73536e-06
4.19449e-06
-1.93459e-06
3.88723e-06
-1.2213e-06
3.35442e-06
-4.74385e-07
2.38911e-06
4.715e-07
2.79526e-06
3.98765e-07
-3.98765e-07
6.54097e-07
-2.55332e-07
6.51098e-07
2.99922e-09
4.07973e-07
2.43125e-07
-6.36764e-08
4.71649e-07
-7.35128e-07
6.71452e-07
-1.55399e-06
8.1886e-07
-2.43687e-06
8.82881e-07
-3.29167e-06
8.54804e-07
-4.04065e-06
7.48976e-07
-4.63201e-06
5.9136e-07
4.07995e-07
-5.04e-06
-1.51021e-07
-2.47744e-07
-6.13181e-07
2.06828e-07
-1.31554e-06
7.05354e-07
-2.18366e-06
1.11125e-06
-3.11298e-06
1.40097e-06
-3.9951e-06
1.55358e-06
-4.73791e-06
1.56167e-06
-5.28951e-06
1.43447e-06
-5.63702e-06
1.20232e-06
-5.79471e-06
9.06671e-07
-5.79238e-06
5.89033e-07
2.82472e-07
-5.66686e-06
-6.9129e-07
4.43546e-07
-1.59436e-06
1.1099e-06
-2.52099e-06
1.63198e-06
-3.36833e-06
1.95858e-06
-4.04853e-06
2.08117e-06
-4.51754e-06
2.02258e-06
-4.78164e-06
1.82578e-06
-4.88589e-06
1.53872e-06
-4.8882e-06
1.20462e-06
-4.83623e-06
8.54701e-07
-4.75419e-06
5.06992e-07
1.72029e-07
-4.64374e-06
-8.7197e-07
1.31552e-06
-1.81848e-06
2.05642e-06
-2.62782e-06
2.44131e-06
-3.22918e-06
2.55995e-06
-3.62338e-06
2.47538e-06
-3.8662e-06
2.2654e-06
-4.02926e-06
1.98884e-06
-4.1617e-06
1.67116e-06
-4.27067e-06
1.31359e-06
-4.32941e-06
9.13447e-07
-4.30433e-06
4.81905e-07
3.69279e-08
-4.16923e-06
-7.61537e-07
2.07705e-06
-1.54763e-06
2.84251e-06
-2.1432e-06
3.03688e-06
-2.5366e-06
2.95334e-06
-2.80068e-06
2.73946e-06
-3.02464e-06
2.48935e-06
-3.2606e-06
2.22481e-06
-3.50633e-06
1.91689e-06
-3.71985e-06
1.5271e-06
-3.84757e-06
1.04117e-06
-3.84889e-06
4.83227e-07
-8.11335e-08
-3.73083e-06
-5.10419e-07
2.58747e-06
-1.07351e-06
3.4056e-06
-1.47133e-06
3.4347e-06
-1.73924e-06
3.22125e-06
-1.9795e-06
2.97973e-06
-2.2686e-06
2.77845e-06
-2.62527e-06
2.58147e-06
-3.01519e-06
2.30681e-06
-3.3678e-06
1.87972e-06
-3.59906e-06
1.27244e-06
-3.64422e-06
5.28379e-07
-2.6071e-07
-3.46464e-06
-1.94973e-07
2.78245e-06
-5.43368e-07
3.75399e-06
-7.79655e-07
3.67099e-06
-9.70913e-07
3.41251e-06
-1.21637e-06
3.22519e-06
-1.57476e-06
3.13684e-06
-2.05388e-06
3.06059e-06
-2.60701e-06
2.85993e-06
-3.13135e-06
2.40406e-06
-3.49453e-06
1.63562e-06
-3.58759e-06
6.21444e-07
-4.75757e-07
-3.37255e-06
1.51655e-07
2.63079e-06
6.75469e-09
3.89889e-06
-9.70622e-08
3.77481e-06
-2.25949e-07
3.5414e-06
-4.5956e-07
3.4588e-06
-8.60098e-07
3.53738e-06
-1.443e-06
3.6435e-06
-2.14782e-06
3.56476e-06
-2.82611e-06
3.08235e-06
-3.29136e-06
2.10087e-06
-3.40181e-06
7.31892e-07
-7.4011e-07
-3.13745e-06
5.00968e-07
2.12982e-06
5.76729e-07
3.82313e-06
5.841e-07
3.76744e-06
5.32647e-07
3.59285e-06
3.48669e-07
3.64277e-06
-3.3598e-08
3.91965e-06
-6.37423e-07
4.24732e-06
-1.38899e-06
4.31633e-06
-2.10543e-06
3.79879e-06
-2.57971e-06
2.57514e-06
-2.66045e-06
8.12632e-07
-1.03408e-06
-2.36648e-06
7.42546e-07
1.38728e-06
1.10855e-06
3.45712e-06
1.27606e-06
3.59993e-06
1.33784e-06
3.53107e-06
1.25344e-06
3.72718e-06
9.77069e-07
4.19601e-06
4.90962e-07
4.73343e-06
-1.34893e-07
4.94218e-06
-7.34551e-07
4.39845e-06
-1.12152e-06
2.96211e-06
-1.17393e-06
8.65042e-07
-1.33028e-06
-8.77726e-07
8.28364e-07
5.58913e-07
1.56828e-06
2.71721e-06
2.00129e-06
3.16692e-06
2.20518e-06
3.32719e-06
2.25803e-06
3.67432e-06
2.17009e-06
4.28396e-06
1.92583e-06
4.97768e-06
1.57595e-06
5.29206e-06
1.2393e-06
4.7351e-06
1.03197e-06
3.16944e-06
1.01871e-06
8.78303e-07
-1.58956e-06
1.27798e-06
1.83236e-07
3.75677e-07
1.54346e-06
1.35698e-06
2.54932e-06
2.16107e-06
3.08342e-06
2.79308e-06
3.35223e-06
3.40551e-06
3.49148e-06
4.14472e-06
3.55101e-06
4.91815e-06
3.55196e-06
5.29111e-06
3.53494e-06
4.75212e-06
3.54626e-06
3.15812e-06
3.60869e-06
8.15876e-07
3.77327e-06
-1.75413e-06
-5.26258e-06
2.22574e-07
-5.32326e-06
6.06825e-08
-5.23928e-06
-8.3982e-08
-4.98973e-06
-2.49548e-07
-4.58821e-06
-4.01519e-07
-4.04888e-06
-5.39335e-07
-3.37199e-06
-6.76885e-07
-2.56123e-06
-8.1076e-07
-1.65047e-06
-9.10767e-07
-7.55043e-07
-8.95424e-07
-1.14322e-07
-6.40721e-07
-1.14322e-07
-5.43099e-06
-1.33011e-08
-5.13526e-06
-2.35047e-07
-4.80362e-06
-4.15618e-07
-4.46143e-06
-5.91734e-07
-4.09726e-06
-7.65688e-07
-3.6925e-06
-9.441e-07
-3.2306e-06
-1.13878e-06
-2.68412e-06
-1.35724e-06
-2.01609e-06
-1.5788e-06
-1.2155e-06
-1.69601e-06
-4.12342e-07
-1.44388e-06
-5.26664e-07
-4.52586e-06
-1.31187e-07
-4.312e-06
-4.48898e-07
-4.02305e-06
-7.04577e-07
-3.6909e-06
-9.23878e-07
-3.33969e-06
-1.1169e-06
-2.98585e-06
-1.29793e-06
-2.63865e-06
-1.48598e-06
-2.29164e-06
-1.70425e-06
-1.90141e-06
-1.96903e-06
-1.36828e-06
-2.22914e-06
-6.25243e-07
-2.18692e-06
-1.15191e-06
-3.93635e-06
-3.64063e-07
-3.65833e-06
-7.26918e-07
-3.33336e-06
-1.02955e-06
-2.98515e-06
-1.27208e-06
-2.63425e-06
-1.4678e-06
-2.29632e-06
-1.63587e-06
-1.98445e-06
-1.79785e-06
-1.71074e-06
-1.97796e-06
-1.47364e-06
-2.20613e-06
-1.19878e-06
-2.504e-06
-6.87319e-07
-2.69838e-06
-1.83923e-06
-3.45864e-06
-6.36253e-07
-3.10163e-06
-1.08393e-06
-2.70651e-06
-1.42467e-06
-2.31332e-06
-1.66528e-06
-1.94951e-06
-1.8316e-06
-1.62895e-06
-1.95643e-06
-1.35583e-06
-2.07098e-06
-1.1313e-06
-2.20249e-06
-9.62266e-07
-2.37516e-06
-8.3913e-07
-2.62714e-06
-5.95904e-07
-2.94161e-06
-2.43513e-06
-3.11173e-06
-9.89164e-07
-2.63586e-06
-1.55981e-06
-2.12171e-06
-1.93881e-06
-1.64008e-06
-2.14691e-06
-1.23358e-06
-2.2381e-06
-9.17228e-07
-2.27278e-06
-6.87818e-07
-2.30039e-06
-5.33125e-07
-2.35718e-06
-4.40759e-07
-2.46753e-06
-4.09051e-07
-2.65885e-06
-3.82809e-07
-2.96785e-06
-2.81794e-06
-2.89431e-06
-1.46741e-06
-2.25458e-06
-2.19954e-06
-1.57682e-06
-2.61656e-06
-9.65637e-07
-2.7581e-06
-4.84371e-07
-2.71937e-06
-1.52933e-07
-2.60422e-06
3.98235e-08
-2.49314e-06
1.18762e-07
-2.43612e-06
1.09379e-07
-2.45814e-06
3.41685e-08
-2.58364e-06
-9.8786e-08
-2.8349e-06
-2.91672e-06
-2.55162e-06
-2.05323e-06
-1.7765e-06
-2.97466e-06
-9.63894e-07
-3.42917e-06
-2.41799e-07
-3.48019e-06
3.09434e-07
-3.2706e-06
6.60942e-07
-2.95573e-06
8.25014e-07
-2.65721e-06
8.32992e-07
-2.4441e-06
7.17348e-07
-2.3425e-06
5.00646e-07
-2.36694e-06
2.04699e-07
-2.53895e-06
-2.71202e-06
-1.74194e-06
-2.67778e-06
-9.31132e-07
-3.78546e-06
-9.27526e-08
-4.26755e-06
6.42195e-07
-4.21514e-06
1.19362e-06
-3.82203e-06
1.53121e-06
-3.29332e-06
1.6608e-06
-2.7868e-06
1.60643e-06
-2.38972e-06
1.39517e-06
-2.13124e-06
1.03926e-06
-2.01103e-06
5.49113e-07
-2.0488e-06
-2.16291e-06
-2.99792e-07
-3.25572e-06
4.20865e-07
-4.50612e-06
1.14297e-06
-4.98966e-06
1.76047e-06
-4.83264e-06
2.21086e-06
-4.27241e-06
2.47091e-06
-3.55337e-06
2.54173e-06
-2.85763e-06
2.43205e-06
-2.28004e-06
2.1495e-06
-1.84869e-06
1.67812e-06
-1.53965e-06
9.81012e-07
-1.35169e-06
-1.1819e-06
1.7068e-06
-3.68453e-06
2.20984e-06
-5.00916e-06
2.6922e-06
-5.47202e-06
3.08341e-06
-5.22385e-06
3.34638e-06
-4.53538e-06
3.47098e-06
-3.67797e-06
3.45757e-06
-2.84421e-06
3.30031e-06
-2.12279e-06
2.98006e-06
-1.52844e-06
2.44705e-06
-1.00665e-06
1.58857e-06
-4.93203e-07
4.06667e-07
3.99039e-06
-3.90165e-06
4.21126e-06
-5.23004e-06
4.38909e-06
-5.64984e-06
4.49677e-06
-5.33154e-06
4.52821e-06
-4.56682e-06
4.48896e-06
-3.63872e-06
4.38177e-06
-2.73702e-06
4.19485e-06
-1.93587e-06
3.8877e-06
-1.22129e-06
3.35469e-06
-4.73634e-07
2.38934e-06
4.72142e-07
2.79601e-06
3.32942e-06
1.90233e-06
-4.85642e-06
2.96811e-06
1.71777e-06
3.23025e-06
1.89911e-06
3.77942e-06
2.24385e-06
4.325e-06
2.85951e-06
4.78006e-06
3.68897e-06
5.17757e-06
4.51996e-06
5.53487e-06
4.9336e-06
5.82959e-06
4.45784e-06
6.04201e-06
2.94656e-06
6.15169e-06
7.07092e-07
-1.81596e-06
6.21406e-06
5.99399e-06
2.15303e-06
-6.24469e-06
5.49073e-06
2.22103e-06
5.06721e-06
2.32264e-06
4.95169e-06
2.35936e-06
5.2421e-06
2.5691e-06
5.81636e-06
3.1147e-06
6.51049e-06
3.82583e-06
7.20005e-06
4.24404e-06
7.7776e-06
3.88029e-06
8.16723e-06
2.55694e-06
8.33307e-06
5.41249e-07
-1.78241e-06
8.29952e-06
7.209e-06
1.89812e-06
-6.9541e-06
7.24613e-06
2.1839e-06
7.09347e-06
2.4753e-06
6.82988e-06
2.62295e-06
6.71603e-06
2.68295e-06
6.96425e-06
2.86648e-06
7.57398e-06
3.2161e-06
8.35966e-06
3.45836e-06
9.10751e-06
3.13244e-06
9.61407e-06
2.05038e-06
9.80106e-06
3.54259e-07
-1.76084e-06
9.77949e-06
7.80156e-06
-7.54176e-06
8.055e-06
8.27744e-06
8.37759e-06
8.39857e-06
8.50521e-06
8.85457e-06
9.44309e-06
1.01183e-05
1.06431e-05
1.07542e-05
1.0762e-05
6.21741e-06
-3.90508e-06
6.15509e-06
-5.1683e-06
6.02956e-06
-5.52506e-06
5.85769e-06
-5.1602e-06
5.66415e-06
-4.37315e-06
5.46863e-06
-3.44217e-06
5.27606e-06
-2.54279e-06
5.0755e-06
-1.73403e-06
4.8454e-06
-9.91189e-07
4.57956e-06
-2.08547e-07
4.38011e-06
6.70953e-07
2.3194e-06
8.11835e-06
-3.72391e-06
7.81841e-06
-4.86836e-06
7.44355e-06
-5.1502e-06
7.04405e-06
-4.76069e-06
6.67119e-06
-4.0003e-06
6.35616e-06
-3.12714e-06
6.10486e-06
-2.29149e-06
5.90567e-06
-1.53484e-06
5.75016e-06
-8.35672e-07
5.66282e-06
-1.21208e-07
5.71332e-06
6.20452e-07
1.78761e-06
9.53872e-06
-3.48314e-06
9.11327e-06
-4.44291e-06
8.5705e-06
-4.60743e-06
8.0109e-06
-4.2011e-06
7.51429e-06
-3.50368e-06
7.12324e-06
-2.7361e-06
6.84012e-06
-2.00837e-06
6.64868e-06
-1.3434e-06
6.54053e-06
-7.27514e-07
6.53356e-06
-1.14243e-07
6.5709e-06
5.83118e-07
1.40385e-06
1.05102e-05
1.00431e-05
9.4154e-06
8.76088e-06
8.20122e-06
7.78459e-06
7.49816e-06
7.31197e-06
7.22096e-06
7.27122e-06
7.31995e-06
3.32943e-06
1.90316e-06
2.96809e-06
1.71832e-06
3.22999e-06
1.89917e-06
3.77926e-06
2.24381e-06
4.32505e-06
2.85972e-06
4.7802e-06
3.68957e-06
5.17764e-06
4.52071e-06
5.53466e-06
4.93409e-06
5.82895e-06
4.45784e-06
6.04091e-06
2.94616e-06
6.15023e-06
7.06553e-07
-1.81625e-06
6.21235e-06
5.99478e-06
2.1541e-06
5.4914e-06
2.2217e-06
5.06748e-06
2.32308e-06
4.95162e-06
2.35967e-06
5.24197e-06
2.56937e-06
5.8164e-06
3.11514e-06
6.51064e-06
3.82647e-06
7.20008e-06
4.24465e-06
7.7773e-06
3.88062e-06
8.16648e-06
2.55697e-06
8.33186e-06
5.41174e-07
-1.78238e-06
8.298e-06
7.2098e-06
1.89927e-06
7.24674e-06
2.18477e-06
7.09386e-06
2.47596e-06
6.83e-06
2.62352e-06
6.71594e-06
2.68343e-06
6.96413e-06
2.86695e-06
7.57396e-06
3.21664e-06
8.35965e-06
3.45895e-06
9.1073e-06
3.13297e-06
9.61352e-06
2.05074e-06
9.80014e-06
3.54558e-07
-1.76053e-06
9.77829e-06
7.80221e-06
8.05552e-06
8.27773e-06
8.37766e-06
8.39846e-06
8.50498e-06
8.85431e-06
9.44277e-06
1.01179e-05
1.06424e-05
1.07533e-05
1.0761e-05
6.21559e-06
-3.90489e-06
6.15333e-06
-5.16778e-06
6.02799e-06
-5.52449e-06
5.85629e-06
-5.15984e-06
5.66288e-06
-4.3734e-06
5.4677e-06
-3.44354e-06
5.27589e-06
-2.54521e-06
5.07608e-06
-1.73607e-06
4.84603e-06
-9.91239e-07
4.57975e-06
-2.07348e-07
4.38037e-06
6.7152e-07
2.31996e-06
8.11675e-06
-3.72365e-06
7.81693e-06
-4.86796e-06
7.44232e-06
-5.14988e-06
7.04299e-06
-4.76051e-06
6.67015e-06
-4.00057e-06
6.3554e-06
-3.12879e-06
6.10502e-06
-2.29483e-06
5.90668e-06
-1.53772e-06
5.75097e-06
-8.35534e-07
5.66281e-06
-1.19185e-07
5.71284e-06
6.21491e-07
1.78811e-06
9.53749e-06
-3.48285e-06
9.11226e-06
-4.44273e-06
8.56976e-06
-4.60738e-06
8.01033e-06
-4.20109e-06
7.5135e-06
-3.50373e-06
7.1223e-06
-2.73759e-06
6.84028e-06
-2.01281e-06
6.65023e-06
-1.34767e-06
6.54149e-06
-7.26792e-07
6.53348e-06
-1.11177e-07
6.57014e-06
5.84832e-07
1.40415e-06
1.05094e-05
1.00426e-05
9.41526e-06
8.76095e-06
8.2011e-06
7.78344e-06
7.49597e-06
7.31071e-06
7.22041e-06
7.27108e-06
7.31917e-06
)
;

boundaryField
{
    rotor
    {
        type            calculated;
        value           nonuniform List<scalar> 
96
(
9.49127e-23
6.32292e-24
-1.35231e-23
2.0103e-23
1.15016e-22
-5.98139e-23
3.92785e-23
-3.57317e-23
1.07985e-22
-3.62957e-23
6.42318e-23
-1.09564e-22
2.00717e-23
1.44945e-23
4.54636e-23
-4.46176e-24
-1.33101e-23
1.36485e-23
-1.34918e-23
8.76686e-24
-4.47304e-23
-4.99379e-23
-3.05242e-23
-1.64371e-23
-2.84751e-23
-1.36228e-22
-6.71959e-23
1.2773e-22
1.60686e-22
-2.49846e-23
-2.01945e-22
7.82939e-23
-1.10848e-22
-1.05227e-22
-3.29494e-23
-4.10708e-23
-7.90208e-24
-9.82277e-23
-8.98995e-23
-2.59998e-23
1.48391e-23
-2.4452e-23
-5.13855e-24
-1.89876e-24
-1.14677e-24
8.54127e-24
-3.8044e-23
7.26289e-24
-4.23516e-22
0
0
8.47033e-22
8.47033e-22
0
-8.47033e-22
0
-8.47033e-22
8.47033e-22
0
0
0
-4.23516e-22
0
-8.47033e-22
-8.47033e-22
-8.47033e-22
0
1.69407e-21
8.47033e-22
0
1.69407e-21
0
0
4.23516e-22
0
0
0
0
0
8.47033e-22
-1.69407e-21
0
8.47033e-22
1.69407e-21
0
0
-8.47033e-22
0
-8.47033e-22
8.47033e-22
0
0
0
-8.47033e-22
0
-1.69407e-21
)
;
    }
    stator
    {
        type            calculated;
        value           nonuniform 0();
    }
    AMI1
    {
        type            cyclicAMI;
        value           nonuniform List<scalar> 
48
(
1.63832e-06
1.93046e-06
2.25286e-06
2.52281e-06
2.66197e-06
2.75985e-06
2.86674e-06
2.86984e-06
2.45722e-06
1.52564e-06
2.43102e-07
-1.76858e-06
-3.23139e-06
-3.97576e-06
-3.97977e-06
-3.54658e-06
-2.94402e-06
-2.31948e-06
-1.72194e-06
-1.1572e-06
-6.36505e-07
-1.64503e-07
5.34387e-07
1.18109e-06
1.63938e-06
1.93146e-06
2.25375e-06
2.52359e-06
2.66263e-06
2.76043e-06
2.86732e-06
2.87049e-06
2.45788e-06
1.52621e-06
2.43642e-07
-1.76823e-06
-3.23128e-06
-3.97589e-06
-3.98004e-06
-3.54677e-06
-2.94389e-06
-2.31993e-06
-1.72534e-06
-1.16241e-06
-6.36489e-07
-1.61841e-07
5.36732e-07
1.18157e-06
)
;
    }
    AMI2
    {
        type            cyclicAMI;
        value           nonuniform 0();
    }
    front
    {
        type            empty;
        value           nonuniform 0();
    }
    back
    {
        type            empty;
        value           nonuniform 0();
    }
    procBoundary3to2
    {
        type            processor;
        value           nonuniform List<scalar> 8(4.85596e-06 6.24511e-06 6.95465e-06 7.54271e-06 -4.85692e-06 -6.24571e-06 -6.95498e-06 -7.54231e-06);
    }
}


// ************************************************************************* //
