/*--------------------------------*- C++ -*----------------------------------*\
| =========                 |                                                 |
| \\      /  F ield         | OpenFOAM: The Open Source CFD Toolbox           |
|  \\    /   O peration     | Version:  2.3.1                                 |
|   \\  /    A nd           | Web:      www.OpenFOAM.org                      |
|    \\/     M anipulation  |                                                 |
\*---------------------------------------------------------------------------*/
FoamFile
{
    version     2.0;
    format      ascii;
    class       volVectorField;
    location    "3680";
    object      D;
}
// * * * * * * * * * * * * * * * * * * * * * * * * * * * * * * * * * * * * * //

dimensions      [0 1 0 0 0 0 0];

internalField   nonuniform List<vector> 
11800
(
(9.66696e-06 0.000274441 0)
(-1.2204e-05 0.000305847 0)
(6.78341e-06 9.19756e-05 0)
(-7.73876e-06 0.000125289 0)
(-1.11492e-05 0.000305328 0)
(-5.01342e-06 0.000125535 0)
(-1.84615e-06 0.000205791 0)
(-1.75598e-06 0.000158465 0)
(8.08573e-07 2.41139e-05 0)
(1.48061e-06 9.54152e-05 0)
(1.0733e-05 0.00027379 0)
(-9.64088e-06 0.00010672 0)
(-9.34689e-09 -7.44211e-09 0)
(6.02935e-06 9.14178e-05 0)
(-6.86394e-06 0.000125819 0)
(6.57638e-06 1.47721e-05 0)
(-1.03218e-06 0.000205189 0)
(-9.99299e-07 0.000157895 0)
(4.57452e-07 2.43819e-05 0)
(9.16061e-07 9.49404e-05 0)
(-5.90036e-06 0.000125071 0)
(-8.83396e-06 0.000107146 0)
(-1.44058e-06 5.20335e-06 0)
(-1.53773e-06 5.41918e-06 0)
(5.87028e-06 1.68799e-05 0)
(-2.30641e-06 8.64024e-06 0)
(-9.43063e-06 6.35475e-05 0)
(1.37561e-05 0.000184372 0)
(-8.39326e-06 4.81531e-05 0)
(-7.25703e-06 3.45833e-05 0)
(1.45742e-05 0.000233285 0)
(6.09454e-08 4.0486e-06 0)
(3.0082e-06 1.1116e-05 0)
(-7.41933e-06 0.000313872 0)
(6.0246e-06 0.000312456 0)
(-1.65963e-05 0.000249184 0)
(5.6125e-06 0.000313536 0)
(2.96087e-06 1.14294e-05 0)
(-1.80512e-06 0.000217396 0)
(1.4849e-06 0.000104823 0)
(-9.27305e-06 6.42623e-05 0)
(-8.26146e-06 4.87896e-05 0)
(1.34386e-05 0.000183314 0)
(-7.15165e-06 3.51404e-05 0)
(1.42509e-05 0.000232172 0)
(6.27354e-06 1.48899e-05 0)
(1.65946e-06 6.16431e-06 0)
(1.84982e-06 6.06592e-06 0)
(-2.83647e-06 0.000217583 0)
(2.31071e-06 0.000104971 0)
(-1.57624e-05 0.000160576 0)
(-1.68455e-05 0.000207917 0)
(-1.54761e-06 0.000271504 0)
(8.49099e-08 3.84156e-06 0)
(-8.06181e-06 1.76023e-05 0)
(1.09211e-06 9.04337e-07 0)
(-2.07114e-05 0.000318183 0)
(-5.19314e-06 8.85343e-05 0)
(5.94754e-06 0.00012925 0)
(-3.77288e-06 8.50389e-05 0)
(2.1824e-06 2.88633e-06 0)
(-2.66567e-06 0.000271708 0)
(-4.51537e-06 8.83335e-05 0)
(5.1865e-06 0.00012949 0)
(5.49849e-06 1.66209e-05 0)
(-1.97741e-05 0.000281217 0)
(-1.63521e-05 0.000159872 0)
(-1.75356e-05 0.000207143 0)
(-1.96721e-05 0.000317669 0)
(-2.42048e-06 8.92152e-06 0)
(-6.61374e-06 0.000314754 0)
(-1.1677e-05 0.000313048 0)
(-1.20165e-05 0.000311934 0)
(-1.03006e-07 1.14923e-07 0)
(2.33051e-06 3.01058e-06 0)
(-1.5633e-05 0.000249884 0)
(7.21128e-06 2.33429e-05 0)
(-2.00949e-05 0.00028227 0)
(-1.60017e-05 0.000284659 0)
(-1.49498e-05 0.000285612 0)
(-7.68504e-06 1.73606e-05 0)
(1.18485e-06 0.000108859 0)
(1.10154e-05 0.000310593 0)
(9.83278e-06 0.000310785 0)
(-1.41746e-06 0.000111889 0)
(-6.97699e-06 3.89578e-05 0)
(1.3175e-05 0.000224796 0)
(-7.97659e-06 5.315e-05 0)
(-8.89475e-06 6.91375e-05 0)
(1.2389e-05 0.00017633 0)
(-3.56076e-07 0.000265622 0)
(3.19715e-06 1.05657e-05 0)
(-9.9388e-06 0.000286497 0)
(2.05563e-05 0.000320622 0)
(3.2589e-06 0.000138088 0)
(-2.49021e-09 -1.89436e-09 0)
(6.43737e-11 -4.02481e-10 0)
(2.49113e-09 -1.89541e-09 0)
(-2.11091e-07 0.000274848 0)
(-9.1534e-06 0.000109088 0)
(1.76939e-05 0.000319474 0)
(1.06871e-05 0.000119892 0)
(-3.87811e-06 1.54515e-05 0)
(-8.73717e-07 1.19195e-05 0)
(-5.73465e-07 0.000303957 0)
(1.06898e-06 2.52273e-05 0)
(-2.25465e-06 0.00015614 0)
(-2.34476e-06 0.000203214 0)
(3.39086e-06 5.76099e-06 0)
(8.04491e-06 5.31266e-05 0)
(7.03747e-06 3.89369e-05 0)
(8.97094e-06 6.91111e-05 0)
(-1.33533e-05 0.000224823 0)
(-1.25586e-05 0.000176368 0)
(1.9113e-06 9.34658e-05 0)
(2.68339e-06 5.25186e-06 0)
(1.96078e-05 0.000282368 0)
(-8.01721e-06 0.000289857 0)
(2.73234e-06 5.05993e-06 0)
(-1.33609e-06 9.66057e-05 0)
(-7.98248e-07 2.34758e-05 0)
(1.79406e-06 0.000207307 0)
(1.7027e-06 0.000159823 0)
(-2.47274e-06 0.000198784 0)
(-1.00037e-05 0.000287579 0)
(-8.7359e-07 0.000273988 0)
(-6.42575e-06 0.000304078 0)
(-1.49292e-06 0.00030325 0)
(-2.22263e-05 0.000328734 0)
(-2.30204e-05 0.000327938 0)
(-6.3959e-07 2.87697e-07 0)
(-2.90554e-06 6.81161e-06 0)
(1.35157e-05 0.000218102 0)
(-7.49138e-06 4.26045e-05 0)
(1.26618e-05 0.000170046 0)
(-8.50052e-06 5.72949e-05 0)
(-9.42648e-06 7.37402e-05 0)
(1.24709e-05 0.000218301 0)
(-6.9035e-06 4.24771e-05 0)
(1.16843e-05 0.00017023 0)
(-7.83537e-06 5.71536e-05 0)
(-8.69049e-06 7.35862e-05 0)
(-1.81808e-06 2.174e-05 0)
(4.38045e-06 0.000211286 0)
(4.08637e-06 0.000163657 0)
(-3.46154e-06 9.97668e-05 0)
(1.68059e-05 0.000109542 0)
(-1.66979e-05 0.000107146 0)
(1.05127e-05 0.000120764 0)
(-1.22449e-06 1.26501e-05 0)
(-1.10637e-05 0.000264395 0)
(-1.0968e-05 0.000265798 0)
(5.40241e-06 0.000310062 0)
(-1.23733e-05 0.000249531 0)
(4.96103e-06 0.000176242 0)
(5.3833e-06 0.000224678 0)
(-1.37809e-05 0.000197922 0)
(-1.27798e-05 0.000151221 0)
(6.45607e-06 2.781e-05 0)
(-1.01208e-06 0.00026662 0)
(3.68622e-06 5.86364e-06 0)
(-1.13078e-05 0.000249778 0)
(7.54841e-06 2.36813e-05 0)
(-5.03968e-06 7.19671e-05 0)
(-4.53504e-06 5.56849e-05 0)
(-3.98545e-06 4.11727e-05 0)
(6.89453e-06 0.000172259 0)
(7.35033e-06 0.000220474 0)
(-3.25209e-06 4.02497e-06 0)
(-5.91894e-06 2.6751e-05 0)
(1.28621e-05 0.000200119 0)
(1.19198e-05 0.000153281 0)
(2.87182e-06 0.00020299 0)
(-1.89064e-05 0.000248022 0)
(-1.90971e-05 0.000249512 0)
(6.75897e-06 1.69098e-05 0)
(6.76821e-06 1.73767e-05 0)
(7.44454e-06 5.15867e-05 0)
(8.31995e-06 6.73962e-05 0)
(6.49285e-06 3.75838e-05 0)
(-1.18116e-05 0.00017875 0)
(-1.25438e-05 0.000227373 0)
(5.04656e-06 0.000175136 0)
(5.41302e-06 0.000223539 0)
(5.48432e-06 0.000106715 0)
(-2.62021e-06 9.95411e-05 0)
(-1.383e-06 2.18522e-05 0)
(3.3149e-06 0.000211003 0)
(3.09129e-06 0.000163392 0)
(-4.31326e-06 0.000260777 0)
(-1.45555e-06 4.56359e-05 0)
(-1.64265e-06 6.07386e-05 0)
(-1.62713e-05 0.000279051 0)
(-4.4488e-07 1.03781e-05 0)
(-1.56998e-05 0.000131348 0)
(1.35407e-05 8.70121e-05 0)
(1.5655e-07 1.49702e-07 0)
(-9.73923e-06 0.000314372 0)
(1.94711e-05 0.000283506 0)
(-5.58024e-07 3.33451e-07 0)
(1.28257e-05 0.000297162 0)
(1.6021e-05 0.000253917 0)
(1.71828e-05 0.000254126 0)
(-5.03543e-07 0.000305499 0)
(-1.3053e-06 0.000306479 0)
(9.05448e-06 8.49034e-05 0)
(7.99809e-06 8.52797e-05 0)
(-1.07105e-05 0.000133585 0)
(-9.43656e-06 0.000133116 0)
(6.3037e-07 2.83616e-07 0)
(-1.77325e-06 1.5181e-05 0)
(-1.99668e-06 8.4555e-06 0)
(-4.66709e-08 1.75659e-08 0)
(6.07861e-06 1.00228e-05 0)
(-1.45184e-07 4.61467e-08 0)
(7.89409e-07 8.3046e-06 0)
(-1.10464e-05 0.000303891 0)
(-5.33323e-06 3.80218e-05 0)
(-6.09383e-06 5.21017e-05 0)
(-6.80545e-06 6.79758e-05 0)
(1.01574e-05 0.000226465 0)
(9.58717e-06 0.000177916 0)
(6.55233e-07 0.000210612 0)
(6.09232e-07 0.000163022 0)
(-2.83815e-07 2.20088e-05 0)
(-5.39663e-07 9.92442e-05 0)
(-2.13002e-07 3.54095e-08 0)
(8.29803e-07 2.75252e-05 0)
(-1.66622e-06 0.000151505 0)
(-4.99852e-06 9.58538e-05 0)
(1.15778e-06 2.71206e-05 0)
(-2.34437e-06 0.000152309 0)
(-7.55047e-06 0.00028754 0)
(9.34351e-06 0.000107498 0)
(8.70471e-06 0.000106671 0)
(4.64627e-08 1.74936e-08 0)
(2.12631e-07 3.53449e-08 0)
(-1.46397e-05 0.000267606 0)
(-1.40837e-05 0.000268742 0)
(-1.38174e-05 9.10174e-05 0)
(1.55596e-05 0.000126661 0)
(1.24608e-05 0.000227276 0)
(1.17308e-05 0.000178664 0)
(-6.48484e-06 3.76389e-05 0)
(-7.4374e-06 5.16457e-05 0)
(-8.31144e-06 6.74621e-05 0)
(-4.5076e-07 0.000272891 0)
(-5.46931e-06 2.55916e-05 0)
(1.21597e-05 0.000202625 0)
(1.12863e-05 0.000155604 0)
(7.46259e-06 0.000108622 0)
(6.29955e-06 0.000257328 0)
(9.89326e-06 0.000321008 0)
(1.0102e-06 8.18417e-06 0)
(-3.66434e-06 8.5913e-05 0)
(-9.66216e-09 3.02365e-06 0)
(1.44752e-07 4.60261e-08 0)
(3.52971e-06 9.06572e-05 0)
(3.0374e-06 8.97098e-05 0)
(-3.83203e-06 0.000126892 0)
(-3.28328e-06 0.00012783 0)
(6.79932e-06 6.79555e-05 0)
(6.08835e-06 5.20834e-05 0)
(5.3155e-06 3.80124e-05 0)
(-9.61226e-06 0.000177917 0)
(-1.02134e-05 0.000226494 0)
(-5.41027e-06 0.000314467 0)
(1.8378e-06 2.23299e-06 0)
(6.72798e-10 0.000180688 0)
(-1.70689e-08 3.63969e-05 0)
(7.19324e-06 0.000303419 0)
(5.86203e-06 0.000105941 0)
(-2.27939e-05 0.000299818 0)
(6.73743e-06 0.000109406 0)
(2.61967e-07 1.91659e-07 0)
(1.87527e-05 0.000244953 0)
(1.88609e-05 0.000243575 0)
(-1.1466e-05 0.000155802 0)
(-1.23524e-05 0.000202831 0)
(-1.02434e-05 0.000155409 0)
(-1.10383e-05 0.000202411 0)
(5.51671e-06 2.54977e-05 0)
(4.94626e-06 2.56663e-05 0)
(5.57948e-06 0.000143097 0)
(6.63683e-06 0.000142931 0)
(6.0546e-06 0.00018912 0)
(7.20477e-06 0.000188938 0)
(-3.07423e-06 3.20061e-05 0)
(-3.66178e-06 3.21103e-05 0)
(-6.44021e-07 1.4387e-05 0)
(3.25148e-06 9.17442e-06 0)
(3.0439e-06 8.85682e-06 0)
(3.10592e-06 6.70237e-06 0)
(5.38655e-06 0.000258436 0)
(-1.86024e-05 0.000245405 0)
(-1.87018e-05 0.000243973 0)
(6.98298e-06 1.8888e-05 0)
(6.84526e-06 1.83491e-05 0)
(1.4746e-05 0.000109566 0)
(1.4945e-05 0.000110796 0)
(-1.46393e-05 0.000107061 0)
(-1.47162e-05 0.000105851 0)
(6.66471e-06 0.000309854 0)
(-1.82554e-05 0.000313901 0)
(-1.75482e-05 0.000264169 0)
(4.10632e-06 4.62738e-06 0)
(-1.07226e-05 0.000309956 0)
(-9.5747e-06 0.000308892 0)
(4.53951e-06 0.000144737 0)
(-2.81263e-06 0.000130049 0)
(2.50117e-06 8.78559e-05 0)
(-1.25564e-05 0.000109975 0)
(1.23004e-05 0.000106546 0)
(-5.93698e-06 1.85598e-05 0)
(-1.73842e-07 1.10207e-07 0)
(9.36423e-07 3.80511e-06 0)
(1.12538e-06 9.37625e-05 0)
(-1.05687e-05 9.44295e-05 0)
(1.13821e-05 0.000122589 0)
(-6.08457e-06 8.5948e-05 0)
(7.2408e-06 0.000132331 0)
(3.66914e-06 0.000230823 0)
(5.06275e-06 0.000230326 0)
(-2.15632e-06 4.94629e-05 0)
(-2.97703e-06 4.97617e-05 0)
(-2.41786e-06 6.50362e-05 0)
(-3.33656e-06 6.53694e-05 0)
(5.75176e-07 2.50545e-05 0)
(-1.23162e-06 0.000156491 0)
(-1.24786e-06 0.000203612 0)
(-2.01977e-06 0.000298364 0)
(2.84063e-06 6.65946e-06 0)
(-5.67643e-07 0.000126705 0)
(-8.66676e-06 0.000305862 0)
(1.17684e-06 9.38235e-07 0)
(7.74936e-06 0.000181555 0)
(-4.18779e-06 3.59966e-05 0)
(-1.30906e-05 0.000128052 0)
(-1.22946e-05 0.000127411 0)
(1.14399e-05 8.97318e-05 0)
(1.07839e-05 9.0278e-05 0)
(-1.29809e-05 0.000318983 0)
(-1.31239e-05 0.000317611 0)
(-2.13021e-06 1.44774e-05 0)
(-2.52603e-06 1.44226e-05 0)
(1.02524e-06 3.98831e-06 0)
(-2.42724e-06 4.13951e-06 0)
(6.12037e-07 0.000132974 0)
(3.74326e-06 2.59622e-05 0)
(3.14774e-06 2.61277e-05 0)
(-7.70679e-06 0.000154727 0)
(-6.4614e-06 0.000154361 0)
(-8.30729e-06 0.000201688 0)
(-6.9664e-06 0.000201295 0)
(-1.68378e-05 0.000255636 0)
(-1.55813e-05 0.000255738 0)
(-3.68394e-06 7.68777e-05 0)
(-3.40386e-06 6.01011e-05 0)
(-3.01348e-06 4.50722e-05 0)
(5.327e-06 0.000238493 0)
(-9.10411e-07 0.000270235 0)
(1.10669e-05 0.000106443 0)
(1.04789e-05 0.000107371 0)
(4.91329e-06 0.000206233 0)
(4.69721e-06 0.00015889 0)
(-2.20203e-06 2.39284e-05 0)
(2.07289e-06 2.67989e-05 0)
(1.70566e-06 2.73219e-05 0)
(-3.81564e-06 0.000198745 0)
(-4.5398e-06 0.000199773 0)
(-4.20364e-06 0.00015297 0)
(-3.42573e-06 0.000151921 0)
(-4.38036e-06 2.45623e-05 0)
(9.24094e-06 0.000157665 0)
(9.94255e-06 0.000204847 0)
(-1.18377e-07 1.12503e-06 0)
(1.64583e-05 0.000121514 0)
(-1.51113e-05 9.56991e-05 0)
(-6.64469e-08 1.04658e-06 0)
(-4.96623e-06 0.000227229 0)
(-5.8243e-06 0.000228483 0)
(-4.5549e-06 0.000178709 0)
(-5.33414e-06 0.000179896 0)
(2.89364e-06 3.68767e-05 0)
(2.49268e-06 3.75259e-05 0)
(3.42241e-06 5.08552e-05 0)
(2.93739e-06 5.15966e-05 0)
(3.82911e-06 6.65914e-05 0)
(3.28274e-06 6.74201e-05 0)
(1.85702e-05 0.000256132 0)
(1.89161e-05 0.000257438 0)
(-1.73341e-06 8.52474e-06 0)
(6.96857e-06 0.000182462 0)
(-3.73904e-06 3.54982e-05 0)
(6.07265e-06 2.80497e-05 0)
(-1.19631e-05 0.000150718 0)
(-1.2931e-05 0.000197351 0)
(-1.69258e-07 5.14041e-08 0)
(2.41474e-06 0.000266971 0)
(5.99585e-06 2.67566e-05 0)
(-1.21302e-05 0.000153275 0)
(-1.31013e-05 0.00020007 0)
(4.54524e-06 7.7858e-06 0)
(-9.16481e-06 0.000289439 0)
(5.75147e-06 2.13431e-05 0)
(-1.44723e-05 0.00023746 0)
(-3.07159e-06 1.14564e-05 0)
(-3.27715e-06 1.18778e-05 0)
(3.2166e-06 1.17538e-05 0)
(-1.56128e-06 0.000126508 0)
(-1.19373e-08 -8.78561e-09 0)
(-9.7321e-06 0.000317231 0)
(-1.51765e-07 6.03196e-08 0)
(1.68678e-07 5.12443e-08 0)
(-4.49722e-06 2.59157e-05 0)
(9.92253e-06 0.000201837 0)
(9.20504e-06 0.000154868 0)
(7.64612e-06 0.000267393 0)
(-2.19469e-05 0.000286952 0)
(2.81393e-06 0.00011838 0)
(-1.80671e-06 0.000115272 0)
(-4.92867e-07 1.19889e-05 0)
(-1.38446e-06 1.44402e-06 0)
(-8.61767e-09 -7.76046e-09 0)
(-5.45785e-06 8.6754e-05 0)
(6.49142e-06 0.0001314 0)
(4.70398e-07 1.648e-07 0)
(-7.25757e-07 0.000113567 0)
(-6.84572e-07 0.000112465 0)
(-1.59278e-08 9.52642e-05 0)
(-1.28555e-07 2.42344e-05 0)
(2.46866e-07 0.000158203 0)
(2.21823e-07 0.000205598 0)
(-4.72575e-07 1.65551e-07 0)
(1.94726e-06 1.2971e-05 0)
(-7.57306e-06 0.000233578 0)
(4.32174e-06 4.78901e-05 0)
(4.85793e-06 6.32683e-05 0)
(5.34604e-06 8.03465e-05 0)
(1.59262e-05 0.000304463 0)
(-5.8275e-06 2.31772e-05 0)
(1.36562e-05 0.000208168 0)
(1.27187e-05 0.000160764 0)
(-9.02402e-06 0.000280774 0)
(1.30764e-06 3.32598e-06 0)
(1.21751e-05 0.000275542 0)
(-2.59159e-06 4.07706e-06 0)
(8.53217e-06 0.000305677 0)
(-6.52782e-06 0.000233604 0)
(3.72098e-06 4.78692e-05 0)
(4.18281e-06 6.32464e-05 0)
(4.60613e-06 8.0318e-05 0)
(1.1423e-06 3.15166e-06 0)
(5.62276e-06 0.000187106 0)
(-2.90531e-06 3.30354e-05 0)
(-9.82578e-07 1.29166e-05 0)
(-1.59745e-05 0.000276525 0)
(-5.92415e-06 7.22349e-05 0)
(-5.33261e-06 5.59279e-05 0)
(-4.68826e-06 4.13885e-05 0)
(8.04685e-06 0.000171977 0)
(8.57996e-06 0.000220171 0)
(2.19467e-05 0.000322734 0)
(1.27797e-05 0.000283112 0)
(1.41683e-05 0.000282624 0)
(1.77004e-07 1.2363e-07 0)
(7.92905e-06 8.62675e-05 0)
(-9.28681e-06 0.000131939 0)
(-4.03236e-06 8.75041e-05 0)
(4.72551e-06 0.000130558 0)
(-1.35839e-06 0.000140676 0)
(-1.03175e-06 0.000228718 0)
(6.60225e-07 6.64183e-05 0)
(5.90001e-07 5.06976e-05 0)
(3.64159e-08 3.56444e-05 0)
(-2.2198e-07 0.000136687 0)
(-9.7381e-08 0.000182125 0)
(1.00484e-05 0.000322297 0)
(5.67793e-07 1.33049e-05 0)
(-2.4457e-07 3.06827e-06 0)
(1.92882e-06 0.000193397 0)
(9.68236e-08 3.17338e-06 0)
(-1.47427e-06 9.93209e-06 0)
(3.70584e-06 3.55578e-05 0)
(-7.00926e-06 0.000182343 0)
(-1.3815e-07 1.51831e-07 0)
(-1.47956e-05 0.000276396 0)
(-1.22533e-06 2.37701e-05 0)
(2.63256e-06 0.000206699 0)
(2.61003e-06 0.0001592 0)
(3.30819e-07 7.93773e-08 0)
(-4.35637e-06 7.91386e-06 0)
(4.83751e-06 6.48412e-05 0)
(4.31334e-06 4.92927e-05 0)
(-7.4476e-06 0.000231158 0)
(1.44209e-06 9.02105e-05 0)
(-1.00084e-05 0.000313136 0)
(-1.66155e-07 2.32944e-08 0)
(-5.70658e-06 1.23899e-05 0)
(3.69718e-06 6.81554e-06 0)
(-3.72076e-06 4.07552e-06 0)
(1.11424e-05 0.0001084 0)
(8.47729e-06 0.000131965 0)
(-7.26404e-06 8.62376e-05 0)
(5.22305e-07 3.52794e-05 0)
(-1.2072e-06 0.000137208 0)
(-1.01021e-06 0.000182806 0)
(1.06507e-05 0.000272402 0)
(9.90447e-06 0.000118772 0)
(5.16455e-06 0.000315563 0)
(4.9755e-06 0.000316743 0)
(1.44449e-06 0.000131347 0)
(1.96755e-06 8.95322e-05 0)
(1.65855e-07 2.325e-08 0)
(-1.42993e-05 0.000246921 0)
(5.17054e-06 1.7703e-05 0)
(1.79365e-08 2.42841e-07 0)
(2.74253e-06 0.000176155 0)
(3.58267e-06 0.000176768 0)
(4.8456e-09 2.1138e-08 0)
(-2.7112e-06 6.59319e-06 0)
(6.77198e-06 6.5931e-05 0)
(6.04738e-06 5.0271e-05 0)
(5.26305e-06 3.63723e-05 0)
(-9.73548e-06 0.000180701 0)
(-1.03286e-05 0.000229543 0)
(9.00404e-06 0.000113019 0)
(1.32229e-06 0.000267259 0)
(-5.82274e-06 0.00030148 0)
(-5.51266e-06 0.000303075 0)
(-5.58862e-07 0.000232435 0)
(-4.78641e-07 0.000233717 0)
(3.99028e-07 4.77608e-05 0)
(3.64171e-07 4.84694e-05 0)
(4.48513e-07 6.31287e-05 0)
(4.08841e-07 6.3924e-05 0)
(2.96552e-07 8.01912e-05 0)
(3.5409e-07 8.10421e-05 0)
(7.13459e-07 0.000131787 0)
(1.30617e-06 0.00013391 0)
(2.26851e-06 0.000204287 0)
(-5.70591e-07 0.00014033 0)
(-3.31481e-07 7.95414e-08 0)
(-3.70239e-07 2.92594e-06 0)
(4.95305e-06 0.000186109 0)
(-2.58241e-06 3.35489e-05 0)
(1.30131e-06 4.06456e-06 0)
(1.933e-05 0.000305963 0)
(-1.46888e-06 0.00023474 0)
(9.1343e-07 4.72218e-05 0)
(1.02775e-06 6.25232e-05 0)
(1.01419e-06 7.94879e-05 0)
(-1.47645e-05 0.000256961 0)
(5.08703e-06 9.16769e-05 0)
(7.54224e-06 0.000324808 0)
(8.52865e-06 0.000324083 0)
(-1.46536e-06 1.02417e-05 0)
(-9.34412e-07 0.000179737 0)
(4.93357e-07 3.69176e-05 0)
(2.17505e-07 2.21264e-07 0)
(1.89674e-05 0.000314615 0)
(-2.56932e-07 5.17403e-06 0)
(-3.55418e-06 5.36108e-05 0)
(-3.96085e-06 6.96638e-05 0)
(-4.74022e-06 7.03977e-05 0)
(-4.25749e-06 5.42717e-05 0)
(-3.07597e-06 3.93321e-05 0)
(-3.72145e-06 3.99286e-05 0)
(6.27576e-06 0.000174417 0)
(6.6859e-06 0.000222781 0)
(2.70835e-06 3.68854e-06 0)
(-1.7395e-07 1.05581e-07 0)
(-1.63564e-05 0.000212568 0)
(-1.70416e-05 0.000313972 0)
(5.56338e-06 0.000133805 0)
(-4.73591e-07 5.29469e-06 0)
(-8.84577e-06 0.0001741 0)
(-9.41807e-06 0.000222432 0)
(5.03917e-06 4.01722e-05 0)
(5.7453e-06 5.45439e-05 0)
(6.39412e-06 7.06965e-05 0)
(8.216e-06 0.000268283 0)
(1.8651e-05 0.000315736 0)
(-1.00241e-05 0.000109377 0)
(4.12709e-06 3.5987e-05 0)
(-7.77297e-06 0.000181548 0)
(5.32358e-06 0.000134849 0)
(-2.01392e-06 9.60109e-05 0)
(5.35732e-06 6.53955e-05 0)
(4.78056e-06 4.97889e-05 0)
(-8.20967e-06 0.000230323 0)
(-1.49047e-05 0.000110639 0)
(1.45449e-05 0.000106069 0)
(1.4545e-05 0.000107255 0)
(-1.47086e-05 0.000109378 0)
(-6.85916e-06 1.83384e-05 0)
(-7.06035e-06 1.89099e-05 0)
(-6.91147e-06 0.000107238 0)
(-3.50673e-06 4.1731e-06 0)
(-1.11843e-05 0.000108064 0)
(-1.63173e-06 0.000258455 0)
(-1.43393e-06 1.7144e-06 0)
(1.12319e-05 6.29377e-05 0)
(9.9882e-06 4.76177e-05 0)
(-1.58575e-05 0.00016198 0)
(2.56112e-06 6.54358e-05 0)
(2.2856e-06 4.98203e-05 0)
(-3.93891e-06 0.000230219 0)
(5.24777e-06 1.58136e-05 0)
(8.76819e-06 0.000130893 0)
(-7.56583e-06 8.71667e-05 0)
(-4.13812e-06 4.64834e-06 0)
(4.50968e-06 0.000205107 0)
(4.3084e-06 0.000157884 0)
(-2.04302e-06 2.44016e-05 0)
(1.30666e-05 0.000193652 0)
(-6.36947e-06 2.98379e-05 0)
(1.2059e-05 0.000147299 0)
(-7.25575e-06 1.80946e-05 0)
(9.21164e-06 0.000302087 0)
(1.05642e-05 0.000301645 0)
(1.01769e-05 0.00022955 0)
(9.64348e-06 0.00018072 0)
(-5.24397e-06 3.64762e-05 0)
(-5.99571e-06 5.02651e-05 0)
(-6.71432e-06 6.59246e-05 0)
(-1.5103e-06 1.48621e-06 0)
(-8.07512e-06 0.000280486 0)
(8.82666e-06 0.00017871 0)
(-4.87443e-06 3.75726e-05 0)
(-9.1785e-07 1.14117e-06 0)
(7.54623e-06 0.000305478 0)
(1.82447e-06 1.49682e-06 0)
(1.51318e-06 1.13501e-06 0)
(3.8369e-06 5.45445e-06 0)
(9.12219e-06 0.000245427 0)
(-1.54298e-05 0.000252199 0)
(2.05547e-05 0.000306354 0)
(3.88603e-06 5.73392e-06 0)
(9.0193e-06 0.000118736 0)
(1.23782e-05 0.000260262 0)
(-1.98701e-05 0.000246063 0)
(7.26699e-06 1.8135e-05 0)
(-4.55724e-06 0.0002619 0)
(1.85662e-06 6.56395e-05 0)
(1.65739e-06 5.00018e-05 0)
(-2.8595e-06 0.000229903 0)
(-6.82551e-07 3.27818e-06 0)
(5.2745e-06 0.000141199 0)
(1.50335e-07 5.97887e-08 0)
(-6.03291e-06 1.22703e-05 0)
(-1.0675e-06 0.00011599 0)
(-2.70127e-06 2.22912e-05 0)
(-3.14418e-06 2.24386e-05 0)
(6.00025e-06 0.000162469 0)
(6.96489e-06 0.000162165 0)
(7.47218e-06 0.000209685 0)
(6.43626e-06 0.000210011 0)
(1.77532e-07 6.59382e-07 0)
(-4.43749e-08 8.26734e-06 0)
(-1.07666e-05 0.000145925 0)
(-1.16774e-05 0.000192167 0)
(5.73772e-06 3.05445e-05 0)
(-3.36979e-06 1.81683e-05 0)
(-2.01529e-06 0.000197602 0)
(-3.05036e-06 7.77416e-06 0)
(6.31287e-06 0.000302572 0)
(-5.07077e-06 9.87426e-05 0)
(-5.87603e-06 9.84933e-05 0)
(1.73468e-07 1.75129e-07 0)
(-3.35841e-06 0.000102134 0)
(-1.69777e-06 2.05045e-05 0)
(3.93791e-06 0.000166462 0)
(4.21372e-06 0.000214289 0)
(-4.7178e-06 0.000197634 0)
(-4.15002e-06 0.000150903 0)
(2.09026e-06 2.78438e-05 0)
(2.77475e-06 1.04372e-05 0)
(2.57712e-06 1.00575e-05 0)
(1.35573e-06 9.84532e-05 0)
(-1.75421e-06 0.000209607 0)
(-1.64327e-06 0.000162065 0)
(7.26792e-07 2.24435e-05 0)
(-1.60576e-06 3.87076e-05 0)
(-2.87257e-06 7.99144e-06 0)
(1.17549e-05 0.000309697 0)
(-1.14549e-05 0.000184975 0)
(8.82013e-06 8.68216e-05 0)
(-1.0286e-05 0.000131316 0)
(1.25295e-05 0.000261439 0)
(-1.1479e-05 7.97818e-05 0)
(-1.04457e-05 6.275e-05 0)
(1.40659e-05 0.00013981 0)
(-9.286e-06 4.74473e-05 0)
(-8.028e-06 3.39929e-05 0)
(1.53661e-05 0.000185555 0)
(1.6247e-05 0.000234596 0)
(-4.21231e-06 0.00022446 0)
(-3.96189e-06 0.000176 0)
(2.52843e-06 5.32636e-05 0)
(2.21302e-06 3.90414e-05 0)
(2.81887e-06 6.92789e-05 0)
(2.41832e-06 5.40318e-05 0)
(-4.00061e-06 0.000223198 0)
(2.69316e-06 7.0134e-05 0)
(2.11975e-06 3.9715e-05 0)
(-3.76034e-06 0.000174814 0)
(-2.22032e-06 0.000284905 0)
(-4.4747e-06 5.85179e-06 0)
(-4.867e-06 2.758e-05 0)
(1.03969e-05 0.000198257 0)
(9.62357e-06 0.000151551 0)
(-3.05935e-06 3.71705e-05 0)
(5.60083e-06 0.000179397 0)
(1.54226e-05 0.000222405 0)
(1.44836e-05 0.000174088 0)
(-8.30278e-06 4.02792e-05 0)
(-9.46534e-06 5.46483e-05 0)
(-1.05329e-05 7.07985e-05 0)
(1.62504e-05 0.000242801 0)
(1.77358e-05 0.000242491 0)
(3.96054e-07 7.05288e-06 0)
(-1.6311e-06 0.000114086 0)
(-4.33839e-06 1.19602e-05 0)
(2.21727e-07 4.10861e-07 0)
(-4.27238e-06 1.51982e-05 0)
(-6.82074e-07 0.000258972 0)
(1.79065e-07 6.7491e-06 0)
(-3.55674e-06 0.000122287 0)
(1.4725e-05 0.000162077 0)
(-6.64937e-06 2.26286e-05 0)
(1.57969e-05 0.00020957 0)
(-1.46288e-08 -1.01388e-08 0)
(9.89598e-07 0.000193583 0)
(2.7826e-07 1.16976e-07 0)
(1.8994e-07 1.39609e-07 0)
(2.61799e-06 0.000138926 0)
(-3.17666e-07 2.55941e-07 0)
(1.2013e-05 0.000312019 0)
(9.0217e-07 0.000176717 0)
(-4.7361e-07 3.85897e-05 0)
(2.60616e-06 1.54709e-05 0)
(1.65827e-06 0.000176166 0)
(-9.22496e-07 3.88726e-05 0)
(-1.55616e-07 3.41431e-06 0)
(-1.12173e-05 6.29054e-05 0)
(-9.97415e-06 4.75893e-05 0)
(-8.62424e-06 3.41257e-05 0)
(-7.16388e-06 2.26839e-05 0)
(1.58502e-05 0.000162015 0)
(1.64794e-05 0.000185351 0)
(1.70045e-05 0.0002095 0)
(1.74305e-05 0.000234382 0)
(-7.70803e-06 0.000252946 0)
(-6.84834e-06 0.000300893 0)
(-2.21453e-05 0.000248312 0)
(7.92525e-06 1.73661e-05 0)
(5.06344e-06 0.000319044 0)
(5.88876e-06 0.000317665 0)
(1.57814e-06 0.000172249 0)
(1.71157e-06 0.000220491 0)
(-1.20571e-06 7.20513e-05 0)
(-1.085e-06 5.57566e-05 0)
(-9.53518e-07 4.12308e-05 0)
(-6.2979e-06 1.8142e-05 0)
(2.29464e-06 1.2997e-05 0)
(-8.55869e-06 7.54983e-05 0)
(1.13517e-05 0.000167634 0)
(-7.73328e-06 5.88806e-05 0)
(-6.83327e-06 4.40025e-05 0)
(1.21357e-05 0.00021553 0)
(-4.78629e-06 2.01102e-05 0)
(1.22898e-05 0.000240611 0)
(2.06937e-06 0.000109252 0)
(-1.28211e-06 0.00026887 0)
(1.25347e-06 6.24971e-07 0)
(-9.37651e-07 0.000235985 0)
(6.06808e-07 4.65158e-05 0)
(6.83458e-07 6.17295e-05 0)
(6.36264e-07 7.86122e-05 0)
(3.8512e-06 0.000278584 0)
(-5.19453e-07 3.2819e-07 0)
(1.94962e-05 0.000274109 0)
(-2.91911e-06 0.000115823 0)
(-8.75447e-08 1.87056e-07 0)
(6.9746e-06 0.000165014 0)
(-3.04929e-06 2.11634e-05 0)
(7.46901e-06 0.000212737 0)
(1.51535e-07 1.17729e-07 0)
(-4.09631e-06 2.55488e-05 0)
(8.44907e-06 0.000155594 0)
(9.10324e-06 0.00020262 0)
(1.41694e-06 1.84937e-06 0)
(-5.91804e-06 0.000100933 0)
(1.25802e-06 0.000107952 0)
(-1.34899e-05 0.000293016 0)
(1.2488e-06 0.000173191 0)
(1.33142e-06 0.000221472 0)
(-1.01762e-06 7.13546e-05 0)
(-8.0149e-07 4.06814e-05 0)
(-9.14932e-07 5.51288e-05 0)
(2.0045e-06 0.000110064 0)
(-2.78169e-07 1.05386e-06 0)
(-2.45955e-07 3.59363e-06 0)
(5.98805e-07 0.000258549 0)
(1.32738e-05 0.000118384 0)
(-1.24383e-05 9.85026e-05 0)
(-9.46604e-06 0.000327991 0)
(-2.14933e-05 0.000214043 0)
(-2.00914e-05 0.00016627 0)
(-2.0855e-05 0.000189754 0)
(-1.9199e-05 0.000143731 0)
(1.04949e-05 3.19653e-05 0)
(1.22113e-05 4.50637e-05 0)
(1.37921e-05 6.00452e-05 0)
(1.52409e-05 7.67566e-05 0)
(2.14645e-05 0.00021404 0)
(2.08262e-05 0.000189754 0)
(-1.05102e-05 3.19662e-05 0)
(-1.22286e-05 4.50654e-05 0)
(2.00619e-05 0.000166269 0)
(-1.38122e-05 6.00464e-05 0)
(1.91721e-05 0.000143731 0)
(-1.52634e-05 7.6758e-05 0)
(-6.06126e-06 1.76335e-05 0)
(-3.32701e-06 0.000268296 0)
(-2.37075e-06 0.00026804 0)
(-2.95181e-06 0.000303977 0)
(4.91054e-06 0.000183806 0)
(-2.61042e-06 3.47632e-05 0)
(-9.32889e-07 1.37013e-06 0)
(-3.82124e-06 0.000321318 0)
(-4.18228e-06 6.87403e-05 0)
(-5.12425e-06 6.84806e-05 0)
(-3.74855e-06 5.27819e-05 0)
(-4.59133e-06 5.25505e-05 0)
(6.2215e-06 0.00022566 0)
(7.47186e-06 0.000225765 0)
(1.64154e-05 0.000221825 0)
(1.5411e-05 0.000173546 0)
(-8.87282e-06 4.06121e-05 0)
(-1.01081e-05 5.50237e-05 0)
(-1.12423e-05 7.12127e-05 0)
(-9.92239e-06 0.000146442 0)
(-1.07578e-05 0.000192729 0)
(5.2584e-06 3.02518e-05 0)
(-3.11532e-06 0.000131092 0)
(2.64749e-06 8.69665e-05 0)
(3.24325e-06 0.00023207 0)
(-1.88472e-06 4.86581e-05 0)
(-2.11608e-06 6.41347e-05 0)
(-2.2939e-06 8.11301e-05 0)
(6.12235e-06 8.59263e-05 0)
(5.1884e-06 8.61468e-05 0)
(-7.19396e-06 0.000132298 0)
(-6.09076e-06 0.000132026 0)
(-7.24965e-06 0.000318905 0)
(4.83911e-07 1.31543e-06 0)
(1.20716e-05 0.000274409 0)
(4.34249e-06 9.54846e-05 0)
(1.18302e-05 0.000189553 0)
(-5.97494e-06 3.18589e-05 0)
(1.08879e-05 0.000143515 0)
(-1.01145e-05 0.000114579 0)
(2.44601e-06 2.40976e-05 0)
(-5.651e-06 0.000205794 0)
(-5.25707e-06 0.00015854 0)
(7.06414e-07 9.93665e-05 0)
(-8.71293e-07 0.00016315 0)
(-9.27445e-07 0.000210766 0)
(3.74258e-07 2.1951e-05 0)
(6.81658e-06 8.9955e-05 0)
(-7.77776e-06 0.000127637 0)
(-3.72431e-06 0.000284901 0)
(-1.72653e-05 0.000282169 0)
(3.0871e-06 0.000121733 0)
(7.74618e-06 0.000122118 0)
(-6.24021e-06 2.34177e-05 0)
(1.45499e-05 0.000207651 0)
(1.35469e-05 0.000160284 0)
(-6.89178e-07 2.91397e-06 0)
(-2.33221e-06 0.00023763 0)
(1.29665e-06 4.55786e-05 0)
(1.46306e-06 6.06742e-05 0)
(1.60399e-06 7.74594e-05 0)
(-3.56219e-06 0.000115255 0)
(-1.60034e-05 0.000282264 0)
(-4.58621e-06 4.56343e-05 0)
(-5.17513e-06 6.07307e-05 0)
(-5.6953e-06 7.75524e-05 0)
(8.164e-06 0.000237547 0)
(1.46733e-08 1.90293e-08 0)
(1.00241e-05 0.000113657 0)
(1.28553e-07 8.81443e-06 0)
(-4.71176e-07 8.17006e-07 0)
(-9.79746e-07 3.77284e-06 0)
(-4.70695e-06 1.6211e-05 0)
(-4.80847e-07 1.76711e-07 0)
(1.97149e-06 5.15424e-05 0)
(1.72778e-06 3.75088e-05 0)
(2.20337e-06 6.7361e-05 0)
(-3.34452e-06 0.000227307 0)
(-3.16598e-06 0.000178726 0)
(-9.72801e-06 9.42247e-05 0)
(1.05592e-05 0.000122855 0)
(-9.53396e-07 5.59641e-07 0)
(1.28344e-05 0.000302191 0)
(9.25853e-06 0.000270266 0)
(-1.97072e-05 0.000254341 0)
(7.29521e-06 0.00012117 0)
(2.63344e-06 0.000131649 0)
(-4.95791e-06 0.000321172 0)
(-1.37926e-05 0.000137954 0)
(-1.31192e-05 0.000137342 0)
(1.94668e-05 0.000321077 0)
(-1.55384e-06 0.000286326 0)
(-4.35691e-06 8.66142e-05 0)
(5.24905e-06 0.000131623 0)
(1.59253e-07 9.12433e-06 0)
(2.38888e-06 3.21755e-06 0)
(4.77827e-07 1.75606e-07 0)
(4.64151e-06 0.000140274 0)
(1.71572e-05 0.000327683 0)
(-9.39619e-06 0.000227346 0)
(-8.84025e-06 0.00017872 0)
(4.85389e-06 3.75547e-05 0)
(6.22665e-06 6.73774e-05 0)
(5.57126e-06 5.15639e-05 0)
(-1.75176e-07 1.22107e-07 0)
(-7.01209e-07 0.000298056 0)
(8.78327e-06 0.000122479 0)
(-7.9805e-06 9.47054e-05 0)
(-1.40803e-05 0.000290809 0)
(-2.10232e-05 0.000215143 0)
(-2.04034e-05 0.000190816 0)
(-1.96651e-05 0.000167295 0)
(-1.87981e-05 0.000144712 0)
(1.01747e-05 3.14155e-05 0)
(1.18579e-05 4.44275e-05 0)
(1.34082e-05 5.9329e-05 0)
(1.48296e-05 7.59671e-05 0)
(2.09926e-05 0.000215135 0)
(2.03746e-05 0.000190815 0)
(-1.01893e-05 3.14185e-05 0)
(-1.18739e-05 4.44309e-05 0)
(1.96331e-05 0.000167291 0)
(-1.34268e-05 5.93322e-05 0)
(1.87694e-05 0.000144707 0)
(-1.48504e-05 7.59706e-05 0)
(-3.04114e-06 4.0692e-06 0)
(1.19576e-06 1.11916e-06 0)
(-1.60059e-06 2.91769e-06 0)
(7.81991e-06 0.000120167 0)
(-8.57905e-06 0.000123748 0)
(1.52615e-06 1.82953e-06 0)
(-2.36284e-07 3.94638e-08 0)
(-1.89507e-05 0.000254957 0)
(1.08541e-05 0.000324371 0)
(1.21807e-05 0.000324984 0)
(2.35941e-07 3.94061e-08 0)
(3.43911e-06 4.56716e-06 0)
(1.69974e-05 0.000295214 0)
(-6.45041e-06 0.000136854 0)
(-4.19043e-07 3.65284e-07 0)
(-9.49125e-07 1.46676e-06 0)
(-1.48118e-07 3.78556e-08 0)
(2.77761e-07 2.1493e-07 0)
(1.75405e-05 0.00010899 0)
(-1.74965e-05 0.000107725 0)
(5.37555e-06 8.21132e-05 0)
(-6.61119e-06 0.000134342 0)
(5.58195e-06 8.42287e-05 0)
(-2.86214e-07 4.86994e-06 0)
(-4.07484e-06 0.000215098 0)
(3.2239e-06 0.000102811 0)
(-2.27316e-06 0.000212756 0)
(-2.17381e-06 0.000164908 0)
(9.33961e-07 2.11743e-05 0)
(1.77262e-06 0.000100941 0)
(-7.19431e-06 0.000136154 0)
(3.66531e-06 4.83936e-06 0)
(6.02126e-06 8.27352e-05 0)
(2.24155e-06 0.00012192 0)
(1.70818e-05 0.000304895 0)
(-5.19366e-06 0.000122928 0)
(-5.97193e-06 0.000123767 0)
(-4.81613e-06 1.02631e-05 0)
(-5.79183e-06 0.00012771 0)
(-4.95279e-06 0.000126822 0)
(5.15379e-06 8.98065e-05 0)
(4.52751e-06 9.06947e-05 0)
(-5.4098e-06 2.50116e-05 0)
(1.13081e-05 0.000156803 0)
(1.21734e-05 0.000203915 0)
(-1.48891e-06 1.65104e-06 0)
(-7.20752e-06 0.000135059 0)
(6.06343e-06 8.36611e-05 0)
(-4.59606e-06 0.000173913 0)
(-4.89348e-06 0.000222239 0)
(2.61414e-06 4.02369e-05 0)
(3.31562e-06 7.07926e-05 0)
(2.97968e-06 5.46248e-05 0)
(-2.37715e-06 1.10857e-05 0)
(-1.50698e-05 0.000183435 0)
(-1.42803e-05 0.000182854 0)
(7.94835e-06 3.50977e-05 0)
(7.56102e-06 3.54029e-05 0)
(9.9305e-06 0.000145498 0)
(1.09176e-05 0.000144779 0)
(-5.34297e-06 3.07587e-05 0)
(-5.91633e-06 3.1167e-05 0)
(1.07745e-05 0.000191707 0)
(1.18516e-05 0.000190924 0)
(-4.3328e-06 0.000283853 0)
(8.65543e-06 0.000259143 0)
(8.77999e-06 0.00025793 0)
(-6.39048e-06 8.42365e-05 0)
(7.51546e-06 0.000134309 0)
(-2.26986e-05 0.000316347 0)
(-6.53335e-06 0.000252223 0)
(-6.27424e-06 0.000251037 0)
(2.17043e-06 1.61201e-05 0)
(2.23055e-06 1.57088e-05 0)
(1.95986e-05 0.000255035 0)
(-8.65488e-06 0.000108161 0)
(-7.43007e-06 0.000108198 0)
(1.93902e-05 0.000288045 0)
(-1.9605e-05 0.000303691 0)
(-1.95796e-05 0.000305141 0)
(-5.93819e-07 3.01517e-06 0)