/*--------------------------------*- C++ -*----------------------------------*\
| =========                 |                                                 |
| \\      /  F ield         | OpenFOAM: The Open Source CFD Toolbox           |
|  \\    /   O peration     | Version:  2.3.1                                 |
|   \\  /    A nd           | Web:      www.OpenFOAM.org                      |
|    \\/     M anipulation  |                                                 |
\*---------------------------------------------------------------------------*/
FoamFile
{
    version     2.0;
    format      ascii;
    class       volScalarField;
    location    "3680";
    object      sigmaEq;
}
// * * * * * * * * * * * * * * * * * * * * * * * * * * * * * * * * * * * * * //

dimensions      [1 -1 -2 0 0 0 0];

internalField   nonuniform List<scalar> 
11800
(
184493
130656
612494
520059
126619
364542
172000
187677
201548
215177
183454
743513
95290
551836
470454
2.03875e+06
133748
134479
243591
148641
414037
671539
886578
794351
1.6708e+06
1.04574e+06
1.09218e+06
542323
1.18956e+06
1.28791e+06
360301
124093
1.04829e+06
137052
143437
346370
145534
1.11747e+06
145260
157347
1.13199e+06
1.23305e+06
569771
1.33591e+06
380119
1.90897e+06
849337
989920
173145
256976
780253
550270
141743
230271
2.17562e+06
1.7855e+06
70006.7
509470
397348
380671
1.78313e+06
156016
404503
333010
1.63837e+06
247025
802465
569746
69802.7
967182
145120
121208
117235
1.70457e+06
1.76586e+06
336303
1.71271e+06
234263
187628
191613
2.2116e+06
131902
126634
128905
130943
1.24159e+06
386897
1.14448e+06
1.04969e+06
565422
140604
1.24812e+06
160385
66640.1
197506
162517
21071.2
162517
143142
654290
80738.8
721345
1.18482e+06
409796
151993
348940
192259
166469
1.74161e+06
1.154e+06
1.2519e+06
1.0584e+06
392337
573548
235630
1.57252e+06
230077
150222
1.47662e+06
221774
213238
173524
193498
147937
157608
140431
142962
142635
101624
29629.9
1.99853e+06
1.33226e+06
419850
1.24493e+06
602516
1.14533e+06
1.04916e+06
367274
1.0656e+06
522204
980412
898321
535323
205722
258171
350209
1.28604e+06
1.31727e+06
751665
394042
217026
209228
142681
274736
251913
195419
498907
687044
1.36797e+06
148769
2.00109e+06
242769
1.74393e+06
503334
546998
591761
299822
226278
2.1546e+06
1.34328e+06
476566
656409
162889
391843
390045
1.90937e+06
1.93011e+06
1.02105e+06
936993
1.10795e+06
500260
342898
265897
214690
473691
227818
352316
159849
181518
169694
253442
236605
224840
207665
973124
1.23664e+06
1.76648e+06
129247
233508
2.07992e+06
144394
301516
337810
146973
151934
895082
748877
688440
569960
1.99684e+06
613460
905336
2.71799e+06
2.27456e+06
2.30525e+06
358443
136208
874775
802285
737201
276451
397271
135633
135712
240232
145114
1.31584e+06
267839
147016
492541
223000
183816
144756
691974
706538
2.71477e+06
1.31431e+06
233819
244584
1.21282e+06
993404
343145
499795
1.1072e+06
1.02346e+06
939034
151371
1.20026e+06
420810
579071
542536
161577
131101
430451
381688
151841
2.3029e+06
298828
344173
246987
284513
738059
803547
869763
395811
278418
144731
1.75329e+06
167452
86575.1
141948
434977
160256
569602
2.04482e+06
408505
404960
612916
443675
511063
371732
1.26242e+06
1.05579e+06
338040
422244
269072
323043
581646
764136
278783
1.23573e+06
1.32552e+06
1.59453e+06
178524
403880
401435
1.84642e+06
1.86369e+06
1.11392e+06
1.09619e+06
1.13609e+06
1.12455e+06
139677
95276.9
305241
2.38879e+06
126890
133326
316253
259813
278835
972631
996499
1.65428e+06
2.30695e+06
720533
193219
929051
768125
536227
438096
171413
180262
272805
483512
254141
447782
132174
176454
169798
150315
1.31599e+06
170741
132984
1.91826e+06
325204
739349
820483
799091
1.00972e+06
972012
107866
106739
666750
872371
602553
1.56039e+06
125896
864854
672708
441124
333315
328707
252333
335028
289482
383802
420799
453725
162396
143159
810739
860186
187625
233583
480474
406948
457756
208222
195156
244269
248906
938889
453162
334432
371250
1.13095e+06
1.31297e+06
356577
205483
193873
262280
243745
458259
532107
434258
509652
400449
470062
354299
336144
682349
346478
758609
1.30837e+06
657753
481842
2.11261e+06
139593
1.37392e+06
676018
491008
2.04289e+06
149044
1.40605e+06
347935
1.18392e+06
1.09273e+06
1.06301e+06
196921
89701.8
127741
2.44064e+06
2.11112e+06
937526
335561
454440
184551
243588
277300
152018
213382
1.61683e+06
65129.1
579444
443943
1.78379e+06
111201
181742
155183
154364
154321
155180
1.78496e+06
598142
239732
691819
637089
585947
121651
1.3391e+06
437928
612695
171903
882731
191935
1.71252e+06
139508
202266
500907
462076
425471
895532
238787
499654
440703
233814
695564
757400
821536
396344
284711
67358.5
175803
195281
2.21766e+06
761483
600394
434107
357204
189486
155201
114313
114334
197100
103033
119155
127299
168182
335883
151519
195421
599276
726464
342272
1.58302e+06
208395
375649
156652
185165
1.53435e+06
2.008e+06
628903
683959
249327
222118
123521
1.34326e+06
1.95148e+06
1.72493e+06
2.49451e+06
811378
566686
743430
125745
189626
174033
193846
737995
147944
145997
127892
184792
1.34197e+06
299278
1.36011e+06
807173
174616
223716
1.10919e+06
1.40361e+06
733343
798519
862227
391333
275891
667819
145516
146810
143289
164260
130712
193097
99891.7
186584
99320
183989
87881.3
179169
164319
170933
117554
1.5361e+06
237090
254600
567606
902013
124595
155030
134622
131756
117188
296842
430109
131971
131135
588907
123893
184944
1.66868e+06
82594.2
166818
524532
482750
505691
548195
562464
593350
277528
208196
1.93084e+06
2.38693e+06
496588
88153.2
353112
342536
378481
268968
807450
746131
685369
174864
86322.2
780878
729807
325096
361067
181736
623925
677942
235141
1.09969e+06
1.11426e+06
1.12725e+06
1.11682e+06
1.89574e+06
1.85496e+06
583234
2.26853e+06
820375
140937
1.58383e+06
1.39186e+06
1.51549e+06
773008
313231
338973
188570
1.61666e+06
533179
673178
2.40103e+06
214390
264303
526978
511555
1.34204e+06
696314
2.00259e+06
139381
136735
274370
392387
871064
800209
735101
1.83347e+06
154230
400290
860103
1.30499e+06
136535
2.15054e+06
2.01158e+06
2.08346e+06
241989
328052
125439
2.13031e+06
611326
246921
420046
1.99849e+06
149811
249714
265210
145037
489799
300757
2.44e+06
2.13619e+06
207360
604695
773242
296463
350109
261107
230197
649971
196100
600832
444040
1.13932e+06
996432
173713
1.304e+06
144004
410147
504383
1.74267e+06
330670
448218
250672
206344
190511
222866
424534
991674
1.09262e+06
144969
139543
140964
187030
354002
1.3222e+06
117746
455140
822402
640418
229883
1.09087e+06
1.20828e+06
783294
1.31583e+06
1.42689e+06
590062
386896
164158
195427
367970
392281
341934
377597
196202
348527
406861
238907
144497
2.47908e+06
1.06268e+06
399209
539555
496210
241097
429766
627797
1.35319e+06
1.24632e+06
1.14205e+06
351117
414782
204496
219510
1.54593e+06
1.1394e+06
1.31697e+06
155645
205541
291374
686924
1.52337e+06
486424
96786.7
157070
2.25318e+06
2.11789e+06
253802
1.93946e+06
115596
165634
123545
737400
131718
229299
254928
1.36957e+06
1.49155e+06
1.61633e+06
1.74517e+06
787645
670009
556888
439181
197220
138235
431394
2.13741e+06
146951
143509
157986
150281
157409
163773
169601
1.65504e+06
835924
853438
501806
930993
1.01216e+06
354682
1.1846e+06
283651
235403
153676
2.22794e+06
144786
173764
167256
174428
144620
2.02721e+06
285409
282675
1.093e+06
357508
753377
269358
2.06413e+06
904804
451411
337054
1.39523e+06
500323
193159
162015
144813
139492
242207
267227
255488
185045
502195
160694
141333
882985
986492
122800
625659
899918
763208
1.03539e+06
1.93833e+06
1.79188e+06
1.64687e+06
1.50239e+06
625498
762542
1.94136e+06
1.79466e+06
899311
1.64966e+06
1.03532e+06
1.50515e+06
1.73496e+06
160932
138831
151607
253192
549487
1.20682e+06
144898
457502
625227
495168
680338
201078
259052
453598
662885
1.41974e+06
1.30747e+06
1.19774e+06
568277
421668
1.06432e+06
216614
274256
173307
353624
328446
298660
610219
477028
490194
364292
136708
736544
202685
373634
459662
1.14033e+06
617969
722591
586203
214029
277532
193845
170726
161855
186301
642891
543355
147779
222878
243595
499795
1.49241e+06
487716
684007
518701
164735
232806
218914
201862
274459
197999
661609
609187
556076
217714
1.61238e+06
751879
226024
990126
666937
1.43147e+06
1.94945e+06
240887
268839
226506
154115
164059
797855
679465
2.03052e+06
136689
192032
373376
551764
240014
145774
805545
797049
62745.4
142904
387549
315157
94095.9
1.77664e+06
1.94889e+06
320598
126239
289747
407961
871044
736190
802013
2.225e+06
140726
631450
711041
172484
649880
793821
937241
1.07804e+06
2.02981e+06
1.87722e+06
1.72562e+06
1.57506e+06
649421
792969
2.03163e+06
1.87839e+06
935413
1.72702e+06
1.07729e+06
1.57628e+06
1.89497e+06
1.63175e+06
1.23064e+06
518903
592081
1.6315e+06
1.2152e+06
358603
125163
119959
1.21394e+06
2.15313e+06
163026
445415
1.77651e+06
1.21308e+06
1.94996e+06
1.98972e+06
1.27529e+06
1.27854e+06
585637
465005
607179
259543
191392
323319
165232
199989
242914
205772
443660
2.08554e+06
606390
206895
125159
389510
418007
1.89511e+06
395099
357177
452034
480026
1.22929e+06
580032
419272
1.58317e+06
448434
582743
211344
175015
404812
349681
377510
937676
606487
588592
1.42807e+06
1.36603e+06
581786
614072
1.077e+06
1.157e+06
433570
454406
143076
194146
203252
591716
460556
80227.1
172344
197572
690511
657495
355438
690779
534531
212330
130927
131201
548008
1.31685e+06
130812
1.94819e+06
281445
785932
721855
223978
279964
468807
155638
133596
1.6598e+06
418339
1.07755e+06
994227
912735
334556
486035
173565
1.50697e+06
1.98249e+06
183320
152209
1.08961e+06
397906
542610
937549
1.02114e+06
1.11885e+06
338300
490054
64849.8
797450
413530
1.97538e+06
334918
1.13809e+06
940725
1.05532e+06
146450
149775
152602
162424
163275
143466
1.64108e+06
507746
190958
222574
245779
276565
343772
381379
782227
757434
722120
696969
641165
663190
1.14719e+06
174551
145192
141186
191230
217963
155353
175363
1.36387e+06
280485
509571
432434
1.11443e+06
585191
206453
215577
481857
373570
664387
543609
1.33809e+06
1.1727e+06
1.08107e+06
991106
551051
1.54245e+06
760505
1.53978e+06
272130
227126
293380
285664
199612
182161
197473
1.56265e+06
2.03496e+06
362176
120978
269319
606658
470712
133189
159801
265467
251137
259814
241548
318502
299700
226112
513996
570473
555493
616575
471252
523861
580591
137018
1.2662e+06
1.00376e+06
531772
1.2763e+06
1.1992e+06
700435
2.03448e+06
383991
364900
413714
443541
204568
168972
182291
386836
151775
1.69977e+06
222451
147591
844543
62168.1
122496
1.69226e+06
194283
436175
1.39025e+06
639069
1.28112e+06
1.1742e+06
1.52601e+06
1.01418e+06
166028
642853
514263
216652
1.44046e+06
657425
219571
1.20113e+06
1.09449e+06
1.30738e+06
142296
144923
167641
2.45884e+06
293992
458286
559695
254882
147021
145655
441054
476959
187725
1.69374e+06
446274
1.7083e+06
261063
845229
144781
675990
808809
1.07403e+06
430817
579415
694259
281900
2.40781e+06
174189
123659
149448
2.05692e+06
1.35131e+06
338766
497819
1.12948e+06
1.04564e+06
959876
2.11737e+06
644772
522503
2.12019e+06
2.39397e+06
1.64886e+06
87144.2
567213
1.40014e+06
1.05072e+06
571545
425948
1.05373e+06
939940
433939
1.43329e+06
346096
285455
537523
473295
361030
1.66583e+06
2.52834e+06
131115
143965
170374
2.41721e+06
167629
195030
744418
571609
2.14145e+06
2.24302e+06
142344
636198
222160
211102
526560
227342
137372
568734
134478
152230
2.54157e+06
1.10454e+06
612791
458096
412440
295993
838252
773429
709258
220060
2.26934e+06
446255
403308
457286
1.9011e+06
773443
1.13486e+06
157245
245511
185339
851520
519681
692283
131368
297002
404502
857389
302888
194519
166767
328739
2.1164e+06
306155
412874
849740
1.36797e+06
1.93286e+06
1.30217e+06
892142
701098
829608
86773.6
245161
339779
725704
669335
615668
1.93207e+06
153255
197948
212302
211907
212545
206832
304483
143662
145032
692974
1.74745e+06
493513
1.09342e+06
1.00813e+06
925510
339773
1.97477e+06
630016
717676
858723
740277
1.20869e+06
1.93171e+06
581940
154416
751391
123063
906496
544116
989226
1.07579e+06
386796
1.25155e+06
309131
2.61863e+06
896675
146655
1.80035e+06
2.62569e+06
2.26063e+06
533198
141250
1.01088e+06
174316
163252
121542
285217
156293
160320
138534
144875
1.63296e+06
1.71413e+06
145549
1.12839e+06
183303
174036
143533
237329
1.17103e+06
1.17702e+06
268795
1.19197e+06
1.19497e+06
1.54214e+06
507768
191068
238275
324355
649792
705681
240308
63755.2
166619
773362
366134
893018
1.00514e+06
1.09874e+06
1.19493e+06
613758
433415
320868
179859
155763
1.9614e+06
1.08116e+06
134442
225329
963090
749357
407159
441281
203399
180918
334318
295712
120206
226944
156769
1.645e+06
638578
1.55358e+06
148286
138418
2.62667e+06
139782
2.0374e+06
2.00991e+06
146214
934619
470114
1.613e+06
159917
882957
1.01106e+06
2.20226e+06
246035
156582
132931
499053
236465
321544
649178
594495
546275
161451
131644
184445
175388
1.14436e+06
1.26099e+06
861110
1.47343e+06
1.35309e+06
1.56602e+06
2.23757e+06
280278
713761
2.13108e+06
630462
2.00503e+06
951347
1.03625e+06
1.12459e+06
497601
338591
419450
492911
1.85573e+06
169904
198136
291028
275655
256991
189018
383120
353497
330925
814805
838455
2.47554e+06
272384
129345
179396
1.95878e+06
561714
303238
292609
1.91208e+06
990050
683494
111922
206567
133084
975660
1.24451e+06
315874
1.40802e+06
193367
187715
2.55101e+06
1.6729e+06
2.04752e+06
397119
526179
922686
291211
725837
2.1261e+06
2.25166e+06
190486
219079
367664
300806
1.05691e+06
1.18045e+06
807250
909385
2.36146e+06
2.18079e+06
280037
187319
111330
1.55466e+06
128943
2.05068e+06
409963
309561
1.10126e+06
351287
146369
1.90618e+06
218202
282352
111207
132367
1.42002e+06
487738
149751
770759
366085
203353
152497
135060
710177
136143
1.94518e+06
1.75343e+06
320228
866183
491654
148113
164679
1.50555e+06
183368
1.01249e+06
260321
557851
1.16688e+06
1.33274e+06
1.85743e+06
201002
319122
2.02882e+06
254974
161642
150413
176408
136593
2.0805e+06
1.62034e+06
372370
511501
888155
887012
1.16356e+06
409130
561182
405531
587932
1.25561e+06
1.1572e+06
1.06059e+06
1.66449e+06
780977
558056
1.61048e+06
561740
1.75192e+06
654007
723308
1.93223e+06
2.62267e+06
2.24379e+06
439030
429462
1.20427e+06
572289
415872
141299
363752
1.85968e+06
157913
183742
2.36922e+06
1.76977e+06
2.04213e+06
939969
1.16585e+06
1.17592e+06
1.01502e+06
130965
123156
185253
125942
727838
792057
861040
401047
282282
621043
2.07044e+06
157895
210994
177481
164693
1.06266e+06
960547
196554
1.84159e+06
2.08517e+06
1.22759e+06
1.00211e+06
1.67663e+06
1.93138e+06
126140
926054
588792
1.28321e+06
171942
273530
292745
1.64692e+06
1.64052e+06
759225
380634
120136
143988
240505
504922
1.7245e+06
230144
1.32322e+06
159137
383355
261299
346114
593785
305780
470055
45677.7
13198.1
469459
2.45471e+06
213620
176598
178186
140141
129729
190164
196699
142960
144694
546577
141468
154238
189779
1.02351e+06
1.2625e+06
908065
1.72013e+06
2.18494e+06
152882
210993
399004
175213
1.5583e+06
221736
2.29009e+06
246040
319436
617112
456841
243457
251365
583626
136335
159916
201568
129641
193757
127006
2.02882e+06
113588
164077
295716
128471
97757
1.94731e+06
217043
1.68429e+06
1.78994e+06
649511
421100
338851
491879
1.1069e+06
1.03164e+06
947080
138721
1.22351e+06
636880
135506
2.08131e+06
143496
150160
385777
1.1427e+06
911204
1.01138e+06
1.39291e+06
201361
153481
431789
638937
1.39783e+06
742695
1.51189e+06
535127
1.28787e+06
1.18056e+06
426344
1.50043e+06
528992
1.38179e+06
628040
1.27366e+06
1.16746e+06
732421
1.51637e+06
191993
627974
489443
157693
199179
1.6961e+06
1.05487e+06
1.42981e+06
1.32987e+06
1.1604e+06
1.43737e+06
1.05981e+06
403776
442755
654563
1.58213e+06
154599
2.34691e+06
189493
154189
1.77149e+06
209732
330924
651641
646972
1.92342e+06
118032
1.21951e+06
1.12532e+06
1.03203e+06
375812
551469
2.35945e+06
396581
304143
704708
184263
737588
340554
360458
130535
210160
219032
190000
561799
128851
691082
370854
281943
940674
1.25402e+06
1.25985e+06
940278
460384
2.22609e+06
142344
143377
1.99015e+06
1.79978e+06
1.09266e+06
2.61377e+06
1.16938e+06
1.0082e+06
1.04415e+06
2.32316e+06
1.15627e+06
924449
2.0631e+06
443725
466831
690933
1.81663e+06
115625
1.55018e+06
185579
271462
421235
706351
769866
835719
409698
293084
472455
79231.7
84908.3
154765
164464
225001
186425
149346
203486
1.15468e+06
2.11299e+06
253243
188451
1.94659e+06
1.41003e+06
556174
754287
154609
162219
1.69315e+06
1.12107e+06
240633
891994
836236
1.11968e+06
137446
154646
160769
138821
1.32255e+06
2.14176e+06
2.09375e+06
1.42079e+06
2.26839e+06
287978
128455
371626
1.12978e+06
1.03621e+06
1.22584e+06
557234
378714
2.38856e+06
523853
660188
863532
281327
239787
997087
353727
182489
755259
288474
373206
2.21613e+06
381516
337556
1.1844e+06
1.09326e+06
1.00397e+06
505033
1.51185e+06
1.42347e+06
1.86722e+06
582305
602464
768425
1.59068e+06
754957
541674
1.41387e+06
273290
2.62412e+06
175364
2.00304e+06
534259
611016
145232
650060
1.24605e+06
151871
178265
174009
2.31649e+06
680582
623638
736303
363943
263384
334220
661211
1.51507e+06
667788
1.30203e+06
1.5375e+06
1.41938e+06
445679
1.44036e+06
1.09428e+06
1.15872e+06
1.37189e+06
1.44273e+06
1.09536e+06
1.16885e+06
1.38062e+06
797433
668693
51561.2
321109
197587
456994
673979
560800
781363
1.57505e+06
1.45812e+06
1.34315e+06
1.23095e+06
452479
1.25816e+06
621786
173104
120374
125936
216069
115517
537144
1.27365e+06
1.30204e+06
463290
2.15562e+06
178494
159897
1.67991e+06
2.0839e+06
103228
1.32774e+06
524142
709539
991059
553450
354544
158636
525326
750390
70688.1
146057
2.18209e+06
289416
217860
527575
485313
571677
367943
143616
149531
374882
1.31295e+06
2.03502e+06
2.35616e+06
362160
402483
1.69469e+06
1.5277e+06
1.98977e+06
123233
1.10915e+06
1.93779e+06
2.37024e+06
2.44525e+06
2.38881e+06
622301
1.08213e+06
466034
2.24982e+06
1.69867e+06
694922
1.46632e+06
163637
146094
1.74565e+06
1.74741e+06
147454
471264
2.17255e+06
1.82307e+06
1.73314e+06
1.79368e+06
2.45525e+06
1.66617e+06
2.16092e+06
1.86908e+06
164665
296021
1.37593e+06
656921
1.1279e+06
237711
157303
199041
183685
168267
222038
198279
467844
2.16654e+06
1.31668e+06
461981
638264
1.4088e+06
184854
653593
456659
2.51173e+06
350946
339880
626828
357953
581383
257473
201425
2.04438e+06
16785.7
163924
163679
33729.6
506466
544326
195412
214247
228162
159363
579809
569398
140605
2.18234e+06
1.86292e+06
668171
1.40542e+06
480625
135412
1.63993e+06
362524
2.16808e+06
598269
731505
865131
997246
1.8937e+06
1.75281e+06
1.61148e+06
1.47332e+06
597365
729908
1.89356e+06
1.75179e+06
862547
1.61087e+06
995011
1.4721e+06
331073
254051
616585
668635
590193
279799
229550
196122
158010
147862
167849
142082
149376
252438
1.01185e+06
1.08655e+06
973212
545107
1.06016e+06
1.1684e+06
1.81048e+06
765990
617386
1.92939e+06
644332
221348
137211
189676
156271
305026
280514
284691
151832
411530
324286
419116
859365
151039
225037
1.02172e+06
163729
120059
149372
128329
1.52555e+06
180775
213305
718331
573036
280450
717388
231011
139008
126608
2.29003e+06
2.35839e+06
1.42776e+06
1.16902e+06
1.13997e+06
1.45198e+06
2.31106e+06
1.195e+06
139149
771157
429172
328492
473404
226920
2.19295e+06
239909
1.29191e+06
1.19359e+06
1.09503e+06
575917
390645
677229
395836
301936
2.21575e+06
254786
139318
726823
725909
330641
207597
252941
426343
875812
1.66106e+06
694903
554624
1.02987e+06
1.35199e+06
368151
536536
1.16608e+06
1.0742e+06
985035
555179
597949
968650
797934
1.12184e+06
595364
1.23309e+06
1.3424e+06
388934
1.4553e+06
2.60974e+06
1.84057e+06
123387
883728
964649
1.04901e+06
322142
219225
1.58371e+06
274804
361075
448237
491866
210126
267580
216152
171166
1.50993e+06
1.15959e+06
1.21662e+06
1.45754e+06
338752
1.84249e+06
2.28409e+06
843434
149510
867683
946231
1.02934e+06
967114
1.12394e+06
314537
1.79751e+06
787163
729511
668365
790851
286060
397446
229978
213604
496715
585576
539430
619514
675691
733438
448271
444701
639473
642393
1.3024e+06
1.2959e+06
1.09725e+06
1.19823e+06
1.09133e+06
1.19206e+06
648847
705829
252198
158489
180198
214153
1.29943e+06
831236
146949
1.322e+06
1.09669e+06
1.05109e+06
1.36157e+06
216949
473925
1.70516e+06
719210
1.57304e+06
1.44377e+06
117462
282851
1.17681e+06
695791
492256
1.56111e+06
547026
75690.9
1.19495e+06
1.09645e+06
1.29706e+06
580550
392829
1.60178e+06
618169
500228
2.12921e+06
620339
877522
210512
154334
358127
334704
306390
1.81395e+06
449855
302071
513891
472766
554409
279131
212830
1.19975e+06
1.34692e+06
216511
770002
163411
1.03403e+06
2.07246e+06
1.30083e+06
637015
476979
1.13851e+06
581586
518238
427914
280864
175794
431545
213133
525550
212081
359178
151488
170097
2.16921e+06
437643
1.85027e+06
1.06099e+06
1.14178e+06
616824
460851
1.09828e+06
1.9761e+06
128634
156329
159645
150872
391766
37925.2
12544.7
391267
823118
152179
870998
387617
268703
181517
579752
809828
1.69495e+06
138091
109325
180631
210376
453042
292273
1.14613e+06
1.02225e+06
247631
161734
129367
2.2e+06
823160
139865
320583
157731
2.51167e+06
2.04578e+06
319551
239992
896007
432006
613079
1.20866e+06
1.01716e+06
1.11141e+06
2.36698e+06
1.88387e+06
155205
1.76487e+06
2.37854e+06
1.85907e+06
2.06748e+06
892603
183144
1.20015e+06
294804
183437
225743
441487
481103
352668
351634
798316
260859
178037
134384
1.16195e+06
1.42276e+06
1.54917e+06
1.67848e+06
1.79639e+06
803894
685508
565717
445082
281264
130002
554085
25683.7
271377
271018
13943.4
598792
300048
236234
94795.1
376575
426902
145090
383423
1.15264e+06
902135
622220
440162
502732
2.17795e+06
1.66563e+06
222171
714603
144617
155714
612199
721367
744877
1.47797e+06
431523
470838
150681
1.968e+06
160664
345016
401929
374813
1.42945e+06
1.55604e+06
807363
863172
862110
611677
785246
1.46985e+06
1.39936e+06
1.39771e+06
482187
668233
122574
134355
126784
299378
141644
646835
1.35912e+06
1.20656e+06
1.4785e+06
1.07944e+06
1.48869e+06
1.07818e+06
733546
487931
1.30361e+06
954530
1.30499e+06
957789
314110
1.43768e+06
1.20756e+06
1.05816e+06
1.3783e+06
1.22003e+06
1.50455e+06
1.09396e+06
1.5041e+06
1.09325e+06
1.36209e+06
2.51618e+06
549847
771510
1.63389e+06
599599
149690
159008
252189
24963.7
251844
22068.7
145863
464909
1.44308e+06
1.32365e+06
1.5656e+06
694325
481085
2.23039e+06
75513.6
139363
280929
963681
318908
879444
432825
2.26704e+06
2.28705e+06
1.36903e+06
163833
299124
1.54728e+06
822532
659350
446925
816483
748546
885078
309292
433126
2.3272e+06
546820
2.07149e+06
148323
144988
139469
147031
99268.7
2.0463e+06
166729
1.50597e+06
96769.8
1.1011e+06
1.39957e+06
167709
147823
213829
630145
223988
532031
489281
359394
389108
420966
179574
387848
523158
647712
435263
1.47041e+06
1.35772e+06
1.24534e+06
1.53238e+06
2.0483e+06
2.26006e+06
135057
132532
133764
145644
300036
176555
324930
2.27007e+06
2.31625e+06
2.32244e+06
1.77379e+06
70090.9
1.22334e+06
2.11861e+06
1.44663e+06
1.14116e+06
1.16468e+06
1.42742e+06
700295
621304
1.25608e+06
827451
1.48227e+06
109988
267457
342314
658440
271515
267608
304962
205702
236723
173574
201703
461353
463995
503380
501574
543455
543393
637545
628763
151077
148743
600104
387051
116473
226154
882189
1.48451e+06
151551
891871
1.92768e+06
595679
1.83385e+06
839813
233008
1.70586e+06
905890
761673
1.20713e+06
2.05455e+06
2.44851e+06
960911
410100
2.06112e+06
295912
216908
185572
457870
100892
867571
1.51672e+06
393844
595419
240984
144495
257756
2.21767e+06
398211
464850
449007
331416
947489
297826
235730
939654
207470
2.01704e+06
159657
1.19339e+06
442477
480665
1.87164e+06
1.59095e+06
962354
1.73508e+06
1.88223e+06
824534
2.03066e+06
688031
549464
1.59131e+06
1.735e+06
2.03352e+06
1.88253e+06
551308
827469
965787
690154
2.04906e+06
203783
1.60879e+06
176124
121803
154750
9238.66
70319.6
880443
95020.6
1.54694e+06
319887
238705
601353
649727
553079
462927
302777
1.34769e+06
301407
324024
1.21781e+06
104010
476720
441735
438251
1.3867e+06
1.27231e+06
1.50394e+06
659271
560224
237253
405516
796120
1.54521e+06
76620.2
394376
234301
150923
510234
1.63336e+06
922553
791805
1.72212e+06
195667
943779
2.01276e+06
1.01815e+06
1.88179e+06
168527
2.12076e+06
252900
1.41706e+06
507205
626056
148397
16242.8
162838
162557
27767.2
270888
1.44622e+06
206307
1.77432e+06
804907
292016
1.37426e+06
1.31951e+06
1.50072e+06
1.44118e+06
1.62979e+06
1.56553e+06
758501
733431
517273
501110
574662
387955
1.299e+06
1.20045e+06
1.10112e+06
347285
405877
375086
186507
1.22009e+06
1.06563e+06
98231.9
208797
155900
177071
187520
2.05343e+06
1.71989e+06
449698
1.47851e+06
1.35746e+06
1.60106e+06
130966
758648
1.39061e+06
1.44984e+06
147997
138615
1.66279e+06
528881
180616
305611
355874
330501
191697
572374
528675
488944
1.92005e+06
2.51148e+06
1.84985e+06
1.31571e+06
643663
464425
197417
215081
322850
232376
147555
131394
243244
702216
560557
146160
1.51992e+06
1.76072e+06
731303
637321
186924
179598
159563
169866
492510
1.66109e+06
1.29505e+06
998475
1.02834e+06
1.22628e+06
141348
158552
236245
142408
145499
320502
2.59582e+06
2.06049e+06
159413
198480
878479
757913
526765
1.63603e+06
1.76469e+06
1.38005e+06
1.50637e+06
891444
463472
397267
430608
200469
250973
1.90209e+06
508598
1.21222e+06
89930.8
1.76206e+06
161747
694416
806119
2.59329e+06
143388
715832
171204
670091
182106
422774
1.28927e+06
590039
1.48243e+06
962265
1.62006e+06
1.76019e+06
831953
1.90248e+06
699971
569383
701109
569902
271384
831460
939445
1.22869e+06
149921
243193
1.51105e+06
654818
2.38001e+06
1.93419e+06
2.16787e+06
391041
1.69732e+06
796646
617220
302206
230879
2.32438e+06
1.20449e+06
142530
2.52252e+06
2.12915e+06
73284.1
738414
603849
93086.2
976664
785774
116854
199090
1.63136e+06
2.4238e+06
148125
854596
876888
1.7575e+06
1.70231e+06
620434
635861
620940
635895
153468
154440
153691
144741
116298
2.49531e+06
1.94244e+06
1.75309e+06
2.21181e+06
835027
446136
1.80534e+06
1.01143e+06
1.10506e+06
1.20172e+06
80927.1
1.85156e+06
322911
1.38799e+06
1.98258e+06
588228
412910
2.52251e+06
675063
708758
496091
523293
1.33677e+06
1.29188e+06
224720
221300
123237
145868
434599
1.5806e+06
1.45812e+06
1.33848e+06
661135
2.49216e+06
151869
301272
135739
1.32243e+06
1.44371e+06
843837
1.56727e+06
721173
1.70738e+06
610017
1.61777e+06
1.36472e+06
1.48969e+06
1.74587e+06
489455
867689
748245
611554
143044
200031
213384
276101
516266
436991
474776
2.05822e+06
955225
1.16542e+06
1.89996e+06
223093
341058
145770
535679
747864
257911
359138
1.92226e+06
205506
140330
143134
145951
141104
91051.2
225694
173632
187657
1.6538e+06
1.95398e+06
171744
148999
189658
328359
714828
2.11217e+06
1.96773e+06
876618
149830
213742
1.68131e+06
151934
152987
2.56343e+06
991688
1.9352e+06
544441
1.31154e+06
829458
811600
225119
920157
1.38737e+06
668938
481141
190467
434900
148054
114034
133504
2.07967e+06
1.22638e+06
1.25046e+06
2.05372e+06
321751
345211
179532
651486
160780
145542
156591
410803
324053
32993.7
323655
22597
144556
1.28609e+06
387562
561640
1.1901e+06
1.09652e+06
1.00474e+06
202134
2.36057e+06
778032
449679
2.03038e+06
1.21032e+06
1.25862e+06
208135
20444.5
207825
21510.7
1.79546e+06
443846
749190
887882
818657
166440
1.92627e+06
451718
324123
1.0386e+06
797840
139748
44012.5
1.41417e+06
293483
1.41291e+06
360167
478636
881438
983570
825750
179121
722433
297042
382563
183928
197576
686504
715637
237766
432837
151327
152524
1.14681e+06
574368
421457
161433
609891
15790.8
59093.7
609127
762579
616253
912411
1.08319e+06
125918
2.35217e+06
2.44971e+06
308218
147844
164191
255817
281839
29140.3
281502
25118.4
1.23634e+06
422794
586846
2.28267e+06
2.31677e+06
1.96749e+06
1.78469e+06
1.06451e+06
943348
902731
801099
1.93364e+06
279332
552514
199324
130261
144808
398091
558185
799088
2.24144e+06
2.26284e+06
284433
147637
742219
807182
271392
1.22707e+06
503330
412419
1.7936e+06
178009
163285
219094
1.19875e+06
1.2058e+06
1.27494e+06
808622
404945
566052
98068.8
99704.7
1.38596e+06
144415
1.22899e+06
158480
604117
982049
860671
1.43572e+06
1.67937e+06
150204
197107
455965
1.99402e+06
9615.1
119021
35303.4
119582
321448
296110
97432.7
2.16165e+06
38545.1
2.04796e+06
533201
51653.8
16658.5
532536
349384
173265
19946.1
173127
444553
1.93471e+06
447364
2.13067e+06
2.45132e+06
71061.8
703967
833438
768693
995875
477925
347899
1.07024e+06
675846
117830
263357
417783
299218
744573
984564
275297
276432
2.35627e+06
849138
985467
918664
1.06031e+06
1.4935e+06
136449
149197
1.2499e+06
1.52058e+06
511154
289093
332832
171544
343671
505437
154624
266747
386024
152160
106423
1.36567e+06
1.5963e+06
308960
684642
534043
545630
1.69173e+06
769809
333656
257860
651959
539641
134401
391197
1.52176e+06
1.94592e+06
520325
362499
916881
1.08592e+06
1.00058e+06
92295.8
146009
377767
268717
1.44665e+06
524707
116314
56491.6
87811
507474
355827
887239
1.05062e+06
968275
150303
2.10313e+06
2.40142e+06
165473
166168
157924
153818
2.10416e+06
418878
309883
895155
2.59998e+06
2.09e+06
593377
207217
548026
505369
308917
288370
329028
183336
160707
161187
447552
2.04645e+06
120421
1.13392e+06
1.22823e+06
1.93952e+06
1.39855e+06
1.36488e+06
522071
514713
702884
713993
326860
366557
315841
145089
142562
827787
268025
1.90262e+06
1.31671e+06
333784
141505
813513
2.43239e+06
139660
1.29892e+06
1.08053e+06
1.02665e+06
1.34166e+06
920517
395723
551246
1.22258e+06
213869
892331
386506
432230
221554
452717
274357
356866
979724
485690
206684
179225
238367
1.25603e+06
1.03135e+06
224543
214155
201531
231388
147455
663114
510053
131493
483213
150949
276466
447338
2.22481e+06
1.9589e+06
1.3323e+06
388253
275388
868362
804018
738944
349746
349693
167962
1.20472e+06
165274
680197
886067
258857
226033
1.98491e+06
113096
394726
367933
176888
2.09369e+06
110233
144680
589829
695529
210042
199099
220895
159536
151589
1.33062e+06
120178
163803
20362.1
163619
1.32903e+06
1.26442e+06
2.39345e+06
1.43215e+06
1.80263e+06
150330
1.86196e+06
1.27204e+06
18419.4
133690
315340
238631
537668
584298
630808
825877
463376
1.9338e+06
1.13469e+06
1.23182e+06
196444
131035
127623
147841
160929
168847
262492
1.11113e+06
133798
2.40485e+06
589595
238353
1.24511e+06
816129
414519
577905
266180
230852
328724
494913
319387
659275
599022
237513
151929
851760
1.18384e+06
103668
112381
204675
120559
123476
1.80369e+06
477432
350356
1.01524e+06
1.74848e+06
477465
344692
858419
729660
790713
669730
386348
278117
155054
10834.5
85741.4
820259
675295
963574
2.00888e+06
1.70434e+06
1.85536e+06
675623
818847
2.01287e+06
1.85846e+06
962528
1.70723e+06
219515
451001
374816
371085
138319
248386
220610
654943