/*--------------------------------*- C++ -*----------------------------------*\
| =========                 |                                                 |
| \\      /  F ield         | OpenFOAM: The Open Source CFD Toolbox           |
|  \\    /   O peration     | Version:  2.3.1                                 |
|   \\  /    A nd           | Web:      www.OpenFOAM.org                      |
|    \\/     M anipulation  |                                                 |
\*---------------------------------------------------------------------------*/
FoamFile
{
    version     2.0;
    format      ascii;
    class       volVectorField;
    location    "0.86";
    object      U;
}
// * * * * * * * * * * * * * * * * * * * * * * * * * * * * * * * * * * * * * //

dimensions      [0 1 -1 0 0 0 0];

internalField   nonuniform List<vector> 
9648
(
(0.165857 -4.73909 1.3335e-23)
(0.282064 -4.71777 -1.12887e-22)
(0.398978 -4.68557 0)
(0.51855 -4.65845 0)
(0.63907 -4.63546 1.01723e-20)
(0.760707 -4.61863 1.57257e-20)
(0.885976 -4.61146 -2.78316e-20)
(1.01721 -4.61635 -1.27806e-20)
(1.15575 -4.63446 1.2749e-20)
(1.30197 -4.66776 3.85014e-20)
(1.45794 -4.71791 -3.83412e-20)
(1.62552 -4.78596 -5.5104e-20)
(1.80671 -4.87251 2.92887e-19)
(2.00353 -4.97754 7.56912e-20)
(2.21771 -5.10025 -7.1015e-19)
(2.45051 -5.23942 0)
(2.70309 -5.39337 0)
(2.97634 -5.56005 1.29121e-19)
(3.27095 -5.7369 4.16172e-19)
(3.58704 -5.92114 -1.19767e-18)
(3.92463 -6.11016 -2.09097e-20)
(4.28363 -6.3009 3.30091e-19)
(4.66329 -6.49047 3.90355e-19)
(5.06294 -6.67609 -1.77498e-18)
(5.48166 -6.85503 0)
(5.91844 -7.02469 1.0634e-18)
(6.37197 -7.18255 -1.11541e-18)
(6.84088 -7.32654 0)
(7.32376 -7.45446 0)
(7.81896 -7.56463 -6.77537e-19)
(8.325 -7.65535 -1.49964e-18)
(8.84007 -7.72515 2.35537e-18)
(9.36258 -7.77289 0)
(9.89075 -7.79734 0)
(10.4227 -7.79781 1.80598e-18)
(10.957 -7.77343 -1.94403e-18)
(11.4914 -7.72377 0)
(12.0246 -7.64854 4.17578e-18)
(12.5548 -7.54733 1.12676e-18)
(13.0801 -7.42 -3.33584e-18)
(13.5986 -7.26659 6.29691e-20)
(14.109 -7.08757 2.37454e-18)
(14.6095 -6.8828 -3.15517e-18)
(15.0983 -6.65283 6.34703e-19)
(15.5743 -6.3984 0)
(16.036 -6.11967 0)
(16.4817 -5.81731 4.79081e-18)
(16.9103 -5.49215 7.01215e-19)
(17.321 -5.14514 -2.16737e-18)
(17.7133 -4.77632 -7.29656e-19)
(18.085 -4.38608 -7.59182e-19)
(18.4344 -3.97688 7.54439e-19)
(18.761 -3.55047 3.89856e-19)
(19.0642 -3.10765 -3.87733e-19)
(19.3426 -2.65013 1.97956e-18)
(19.596 -2.17898 -1.9493e-18)
(19.8233 -1.69568 -2.16991e-20)
(20.0241 -1.20144 0)
(20.198 -0.697729 -3.96075e-19)
(20.3445 -0.186219 -5.12318e-20)
(20.4636 0.331873 -4.85742e-20)
(-0.0556558 -2.44181 9.54239e-23)
(0.00618621 -2.44214 0)
(0.0719288 -2.45542 0)
(0.144378 -2.48278 5.91479e-21)
(0.221802 -2.52964 -6.11369e-21)
(0.308474 -2.59967 -3.70489e-20)
(0.405984 -2.69118 0)
(0.516024 -2.80226 0)
(0.640373 -2.93339 -4.35839e-20)
(0.779561 -3.08469 0)
(0.934898 -3.25508 -1.04192e-19)
(1.10722 -3.44304 8.20659e-20)
(1.29747 -3.64729 -4.43503e-20)
(1.50663 -3.86616 0)
(1.73548 -4.09773 2.76318e-19)
(1.98434 -4.33992 1.63614e-19)
(2.25357 -4.59048 -1.60961e-19)
(2.54332 -4.84719 2.09224e-19)
(2.85378 -5.10753 -6.37294e-19)
(3.18474 -5.36904 5.07564e-19)
(3.53587 -5.62939 -5.62136e-19)
(3.90693 -5.88602 -3.0293e-19)
(4.29711 -6.1366 -3.10777e-19)
(4.70567 -6.37878 1.06858e-18)
(5.13168 -6.61036 3.70091e-19)
(5.57424 -6.82917 4.40234e-19)
(6.0322 -7.03317 -3.90171e-19)
(6.50429 -7.22061 0)
(6.98929 -7.38969 0)
(7.48566 -7.53904 0)
(7.99209 -7.66718 0)
(8.50693 -7.7729 0)
(9.02868 -7.8552 0)
(9.55583 -7.91306 0)
(10.0866 -7.9459 -8.09505e-19)
(10.6194 -7.95292 7.3507e-19)
(11.1527 -7.93385 8.11199e-19)
(11.6847 -7.88835 -4.12129e-18)
(12.2139 -7.81611 -8.75108e-19)
(12.7386 -7.71706 2.69158e-18)
(13.2571 -7.5913 1.8893e-18)
(13.7677 -7.43925 -1.95036e-18)
(14.269 -7.26079 9.31478e-19)
(14.7593 -7.05659 9.83277e-19)
(15.2371 -6.8273 -1.04568e-18)
(15.701 -6.57313 1.03639e-18)
(16.1496 -6.29494 -2.22243e-18)
(16.5816 -5.99356 0)
(16.9954 -5.66999 -5.67996e-19)
(17.3905 -5.32436 1.14149e-18)
(17.766 -4.95721 -5.73655e-19)
(18.1207 -4.57049 0)
(18.4536 -4.16559 1.1796e-18)
(18.7636 -3.74332 0)
(19.0498 -3.30516 0)
(19.3115 -2.85228 2.79755e-18)
(19.5478 -2.38598 -1.26104e-18)
(19.7581 -1.9079 -3.06814e-19)
(19.9422 -1.41891 3.23903e-19)
(20.0993 -0.920736 0)
(20.2291 -0.414638 8.14694e-20)
(0.0528052 -1.37206 -2.36602e-22)
(0.104591 -1.41391 0)
(0.163677 -1.47688 -5.33447e-22)
(0.231643 -1.56261 -2.89296e-22)
(0.307777 -1.66823 0)
(0.395469 -1.7921 3.17836e-20)
(0.49576 -1.93621 2.12387e-20)
(0.609988 -2.09947 0)
(0.739779 -2.28142 2.21792e-21)
(0.886861 -2.48065 4.45591e-20)
(1.05223 -2.69609 8.87616e-20)
(1.23655 -2.92587 -3.07518e-20)
(1.44038 -3.16823 0)
(1.66412 -3.42113 0)
(1.90804 -3.6825 2.09661e-19)
(2.17211 -3.95024 -1.33376e-19)
(2.4563 -4.22212 -1.42947e-19)
(2.76045 -4.49596 0)
(3.08433 -4.76951 5.50856e-19)
(3.4276 -5.04058 -5.71858e-19)
(3.7898 -5.30709 -4.27625e-19)
(4.17039 -5.56693 -4.71041e-19)
(4.5686 -5.81803 0)
(4.98355 -6.05844 -8.44871e-19)
(5.41431 -6.28618 -2.97117e-19)
(5.8599 -6.49943 3.53356e-19)
(6.31922 -6.69645 3.90447e-19)
(6.7911 -6.87569 0)
(7.27427 -7.03572 0)
(7.76735 -7.17525 0)
(8.26894 -7.2931 0)
(8.77757 -7.38824 0)
(9.29178 -7.45975 0)
(9.81006 -7.5069 0)
(10.3308 -7.52912 -1.77229e-18)
(10.8525 -7.52586 5.88803e-19)
(11.3735 -7.49685 -6.49943e-19)
(11.8923 -7.44186 3.27147e-18)
(12.4074 -7.36072 0)
(12.9172 -7.25347 1.39267e-18)
(13.42 -7.12031 1.44081e-18)
(13.9143 -6.96152 7.13911e-19)
(14.3986 -6.77724 -8.1847e-19)
(14.8714 -6.56803 -1.57648e-18)
(15.3315 -6.3344 2.45715e-18)
(15.7773 -6.07688 -8.31305e-19)
(16.2075 -5.79625 -1.69634e-18)
(16.6211 -5.49329 0)
(17.0167 -5.16903 0)
(17.3932 -4.82442 -4.63484e-19)
(17.7496 -4.46062 -4.53234e-19)
(18.0852 -4.07852 -9.27206e-19)
(18.399 -3.67919 -9.70859e-19)
(18.6901 -3.26407 0)
(18.9578 -2.83396 -9.60564e-19)
(19.2013 -2.39059 -1.00134e-18)
(19.42 -1.93471 0)
(19.6133 -1.46849 1.62992e-20)
(19.7805 -0.992288 0)
(19.9215 -0.507846 0)
(20.036 -0.0161927 -6.20811e-20)
(0.0219746 -0.860925 5.13187e-22)
(0.078936 -0.941343 -6.44367e-22)
(0.147555 -1.04196 -1.56311e-22)
(0.228212 -1.16169 -1.99453e-21)
(0.320811 -1.29938 0)
(0.425197 -1.45465 -1.32729e-20)
(0.542806 -1.62761 -1.83258e-20)
(0.674946 -1.81766 0)
(0.823071 -2.02396 3.02543e-21)
(0.988108 -2.24535 -3.80538e-20)
(1.17097 -2.48042 8.52422e-20)
(1.37201 -2.72753 1.02827e-19)
(1.59164 -2.98471 0)
(1.83007 -3.24997 -8.07899e-20)
(2.08754 -3.52132 -1.71273e-19)
(2.36381 -3.79676 -9.12056e-20)
(2.65875 -4.07419 3.51196e-19)
(2.97215 -4.35155 -2.53736e-19)
(3.30364 -4.6268 2.84473e-19)
(3.6529 -4.89791 4.84566e-19)
(4.01953 -5.16307 7.01375e-19)
(4.40282 -5.42044 3.95652e-19)
(4.80213 -5.66816 1.90297e-19)
(5.21654 -5.90452 6.91945e-19)
(5.64518 -6.12771 2.27246e-19)
(6.08711 -6.33609 2.58655e-19)
(6.5413 -6.52811 3.05395e-19)
(7.00677 -6.70234 -9.14041e-19)
(7.48228 -6.85755 6.56403e-19)
(7.96652 -6.99257 7.42074e-19)
(8.45829 -7.10632 -1.51727e-18)
(8.95613 -7.19789 7.74853e-19)
(9.45868 -7.2664 -8.30481e-19)
(9.96464 -7.31119 4.13989e-19)
(10.4724 -7.33179 4.53992e-19)
(10.9806 -7.32771 5.04149e-19)
(11.4878 -7.29863 -4.97803e-19)
(11.9925 -7.24442 -5.42673e-19)
(12.4932 -7.16494 -1.62718e-18)
(12.9884 -7.06027 -1.17447e-18)
(13.4766 -6.93063 -2.38176e-18)
(13.9564 -6.77622 -3.0866e-18)
(14.4262 -6.59733 1.26586e-18)
(14.8848 -6.39435 2.86823e-20)
(15.3308 -6.16781 -7.09484e-19)
(15.7628 -5.91827 -6.96136e-19)
(16.1797 -5.64638 4.20968e-18)
(16.5803 -5.35293 -7.05746e-19)
(16.9635 -5.03871 0)
(17.3283 -4.70463 0)
(17.6737 -4.35172 -7.09455e-19)
(17.9988 -3.98118 3.17639e-20)
(18.3028 -3.594 7.61752e-19)
(18.5849 -3.19132 0)
(18.8443 -2.77442 8.11778e-19)
(19.0802 -2.34463 0)
(19.292 -1.90312 0)
(19.4792 -1.45085 6.19109e-19)
(19.6414 -0.989375 1.96936e-19)
(19.7781 -0.520156 -2.0073e-19)
(19.8891 -0.0446737 1.02746e-19)
(0.109255 -0.610261 3.99167e-23)
(0.168875 -0.712263 5.62973e-22)
(0.242331 -0.831956 -6.66639e-22)
(0.3301 -0.969436 1.11288e-21)
(0.431738 -1.12434 -3.09261e-21)
(0.547744 -1.29615 5.35725e-21)
(0.678724 -1.48442 2.27235e-21)
(0.825429 -1.68818 -1.35178e-20)
(0.988974 -1.90651 3.95743e-20)
(1.16959 -2.13812 -5.70497e-20)
(1.36791 -2.38152 6.39954e-20)
(1.58376 -2.63502 -7.94458e-20)
(1.81743 -2.89661 -4.57619e-20)
(2.06876 -3.16434 0)
(2.33807 -3.43624 8.37143e-20)
(2.62479 -3.71059 8.03109e-20)
(2.92872 -3.98537 0)
(3.24967 -4.25862 1.98646e-19)
(3.58705 -4.52848 0)
(3.94071 -4.793 -2.63182e-19)
(4.31028 -5.05063 2.87317e-19)
(4.69492 -5.29979 1.00766e-20)
(5.09413 -5.53875 -1.6812e-20)
(5.50684 -5.76607 2.8673e-20)
(5.93228 -5.97997 -8.08036e-19)
(6.36962 -6.17896 -4.64094e-19)
(6.8178 -6.36163 9.55469e-19)
(7.27607 -6.52661 1.03706e-18)
(7.74318 -6.67295 -5.61577e-19)
(8.21796 -6.79948 0)
(8.69928 -6.90523 0)
(9.18568 -6.98942 0)
(9.67599 -7.05113 7.11848e-19)
(10.169 -7.0898 -2.94106e-18)
(10.6632 -7.10507 1.53964e-18)
(11.1573 -7.09644 -7.83161e-19)
(11.6499 -7.06358 -1.69048e-18)
(12.1396 -7.0065 1.71522e-18)
(12.6251 -6.92501 3.95806e-20)
(13.1049 -6.81924 -9.69443e-19)
(13.5777 -6.68946 1.00173e-18)
(14.042 -6.53587 1.03631e-18)
(14.4963 -6.35873 0)
(14.9393 -6.15835 -1.05308e-18)
(15.37 -5.9353 0)
(15.7869 -5.6901 -1.6838e-18)
(16.1889 -5.42342 5.20532e-19)
(16.5749 -5.13596 0)
(16.944 -4.82842 -6.11424e-19)
(17.295 -4.50182 -1.47584e-20)
(17.6271 -4.15697 1.3035e-18)
(17.9395 -3.79507 -6.19558e-19)
(18.2314 -3.41719 -3.4482e-19)
(18.5021 -3.02443 6.31368e-19)
(18.7507 -2.61817 -4.86983e-21)
(18.9764 -2.19937 3.29493e-19)
(19.1786 -1.76936 1.59204e-19)
(19.3567 -1.32906 3.36183e-19)
(19.5107 -0.879705 -8.44821e-19)
(19.64 -0.4228 3.3943e-19)
(19.7444 0.0400967 -4.34484e-20)
(0.188399 -0.479611 -2.67708e-22)
(0.262032 -0.596577 0)
(0.350328 -0.729914 1.35325e-21)
(0.453757 -0.880037 0)
(0.571269 -1.04659 8.72749e-22)
(0.703812 -1.22882 7.55146e-21)
(0.851657 -1.42618 8.46264e-21)
(1.01534 -1.6374 2.60964e-20)
(1.19593 -1.86147 3.63213e-21)
(1.39298 -2.09719 5.59338e-21)
(1.60726 -2.3429 1.09719e-21)
(1.83786 -2.5971 -3.01908e-20)
(2.08526 -2.8577 4.43053e-20)
(2.34855 -3.12276 -1.34964e-19)
(2.62882 -3.39031 1.14786e-19)
(2.92497 -3.65924 -8.24098e-21)
(3.2366 -3.92724 -1.42242e-19)
(3.56385 -4.19261 -1.71376e-19)
(3.9057 -4.45368 0)
(4.26225 -4.7084 2.03996e-19)
(4.63344 -4.95559 8.20343e-21)
(5.01791 -5.19398 -5.29011e-19)
(5.41575 -5.42183 -2.2777e-20)
(5.82541 -5.63814 -2.86826e-19)
(6.24623 -5.84096 1.01269e-18)
(6.67755 -6.02895 3.47972e-20)
(7.11822 -6.20084 -3.76765e-19)
(7.56793 -6.35523 -4.03032e-20)
(8.02534 -6.49156 0)
(8.48922 -6.60863 0)
(8.95886 -6.70547 0)
(9.43251 -6.78164 0)
(9.90915 -6.83598 0)
(10.388 -6.86796 5.63903e-20)
(10.8674 -6.87753 -6.59158e-19)
(11.3459 -6.86415 -3.86336e-20)
(11.8227 -6.82726 2.86612e-20)
(12.2962 -6.76722 6.81071e-19)
(12.7651 -6.68369 1.55787e-18)
(13.2285 -6.57682 -2.35064e-18)
(13.6847 -6.44714 1.63694e-18)
(14.1323 -6.29466 -8.2655e-19)
(14.5699 -6.11975 0)
(14.9964 -5.92243 9.19137e-19)
(15.4108 -5.7034 0)
(15.8115 -5.46321 9.68516e-19)
(16.1978 -5.20229 -9.9153e-19)
(16.5683 -4.92167 4.65831e-19)
(16.9222 -4.62165 4.9789e-19)
(17.2586 -4.30326 -5.19906e-19)
(17.5767 -3.96736 3.72377e-20)
(17.8757 -3.61518 -1.06993e-20)
(18.1549 -3.24748 1.05881e-18)
(18.4136 -2.86567 -1.09029e-18)
(18.651 -2.47096 -5.38148e-19)
(18.8662 -2.06468 -2.63561e-19)
(19.0584 -1.64759 -8.38914e-19)
(19.2273 -1.22055 0)
(19.3729 -0.784684 5.67175e-19)
(19.4948 -0.341818 -1.45676e-19)
(19.5927 0.10677 0)
(0.288033 -0.419034 0)
(0.376817 -0.546546 0)
(0.481293 -0.690027 -8.0363e-22)
(0.602641 -0.849698 7.61113e-23)
(0.73777 -1.0248 -2.20383e-21)
(0.888683 -1.21405 -1.19464e-20)
(1.0548 -1.41689 6.13007e-21)
(1.236 -1.6317 -1.86438e-20)
(1.43463 -1.85772 -1.22214e-21)
(1.64803 -2.09374 4.75403e-20)
(1.87866 -2.3381 -8.70005e-20)
(2.12353 -2.58964 0)
(2.38445 -2.84595 0)
(2.65848 -3.10532 1.5349e-19)
(2.94931 -3.36529 9.81467e-20)
(3.25407 -3.62611 -2.16218e-19)
(3.57221 -3.88487 3.50587e-19)
(3.90504 -4.14 1.46572e-19)
(4.25009 -4.39046 -2.932e-19)
(4.60825 -4.63344 -1.77594e-19)
(4.98046 -4.86822 2.04326e-19)
(5.36342 -5.09441 -4.96847e-21)
(5.75928 -5.30941 0)
(6.16483 -5.51369 5.27152e-19)
(6.5799 -5.70441 -8.68572e-19)
(7.00446 -5.88028 2.89275e-19)
(7.43618 -6.04063 6.40029e-19)
(7.8765 -6.18325 -1.7815e-18)
(8.32334 -6.30873 3.62889e-19)
(8.77509 -6.41567 0)
(9.23234 -6.50266 0)
(9.69223 -6.57043 0)
(10.1539 -6.61695 4.98887e-19)
(10.6177 -6.64144 1.54502e-18)
(11.0816 -6.6448 -1.0453e-18)
(11.5432 -6.62661 5.77334e-19)
(12.0033 -6.58496 6.33069e-19)
(12.4596 -6.52165 -1.2562e-18)
(12.9107 -6.43577 0)
(13.3567 -6.32718 -1.29134e-18)
(13.7952 -6.19738 6.70931e-19)
(14.2253 -6.04575 3.48319e-20)
(14.645 -5.8732 -3.13725e-20)
(15.0539 -5.6787 7.40198e-19)
(15.4509 -5.46357 3.13807e-20)
(15.8344 -5.22863 -2.36645e-18)
(16.204 -4.97345 8.02173e-19)
(16.5578 -4.69987 -1.66732e-18)
(16.8956 -4.40727 0)
(17.2162 -4.09751 0)
(17.5194 -3.7705 1.76339e-18)
(17.804 -3.4285 -4.21378e-19)
(18.0693 -3.0714 -9.14612e-19)
(18.3153 -2.7005 -4.39817e-19)
(18.5409 -2.31789 1.40522e-18)
(18.7448 -1.92459 7.09157e-19)
(18.9263 -1.52089 2.45256e-19)
(19.085 -1.10795 -4.61489e-21)
(19.2213 -0.685893 -2.45598e-19)
(19.3354 -0.257176 0)
(19.4262 0.176338 0)
(0.404055 -0.402584 3.08493e-22)
(0.511269 -0.537714 0)
(0.633158 -0.688472 0)
(0.775188 -0.855412 -3.55106e-22)
(0.92849 -1.03673 0)
(1.09892 -1.23035 4.80393e-21)
(1.28371 -1.43585 5.91111e-21)
(1.48162 -1.65122 -1.21737e-20)
(1.69968 -1.87637 0)
(1.92818 -2.11003 -2.84234e-20)
(2.17629 -2.35053 3.70637e-21)
(2.4339 -2.59741 0)
(2.70919 -2.84746 0)
(2.99102 -3.09954 -6.45324e-20)
(3.29283 -3.34867 7.05186e-20)
(3.60593 -3.60007 -8.82982e-20)
(3.92869 -3.84817 -1.0155e-19)
(4.2671 -4.09138 0)
(4.61394 -4.33085 1.30948e-19)
(4.97216 -4.56076 -2.76521e-19)
(5.34618 -4.78166 -3.09904e-19)
(5.72526 -4.99535 -3.63266e-19)
(6.11943 -5.1959 -3.25267e-20)
(6.51993 -5.38826 -4.61802e-19)
(6.92822 -5.56643 4.43023e-19)
(7.34616 -5.72938 4.94285e-19)
(7.76683 -5.87827 -5.62711e-19)
(8.19741 -6.00773 3.08746e-20)
(8.63334 -6.12201 4.16569e-20)
(9.07101 -6.21885 -6.5005e-19)
(9.51565 -6.29496 0)
(9.96083 -6.35473 -7.92118e-19)
(10.4064 -6.39305 1.5715e-18)
(10.8546 -6.40888 -4.40729e-20)
(11.3026 -6.40627 9.23168e-19)
(11.745 -6.38445 -9.18889e-19)
(12.1885 -6.3367 1.01364e-18)
(12.6264 -6.27024 1.05798e-18)
(13.0583 -6.18192 -2.09194e-18)
(13.486 -6.07079 1.14521e-18)
(13.9055 -5.94133 1.12672e-18)
(14.3176 -5.79014 1.78079e-18)
(14.7176 -5.62035 -6.34236e-19)
(15.1079 -5.42752 0)
(15.4868 -5.21639 3.40486e-20)
(15.8513 -4.9877 6.90009e-19)
(16.2037 -4.73785 -6.71059e-19)
(16.5392 -4.4727 7.23039e-19)
(16.8599 -4.18746 0)
(17.1632 -3.88738 0)
(17.4506 -3.56915 -3.97146e-20)
(17.7195 -3.23838 7.78303e-19)
(17.9698 -2.89123 0)
(18.2022 -2.53105 3.86954e-19)
(18.4155 -2.16168 3.90498e-19)
(18.6074 -1.78249 -7.95947e-19)
(18.7777 -1.39276 -3.90601e-19)
(18.9246 -0.995057 -2.07645e-19)
(19.0505 -0.586367 0)
(19.1564 -0.172886 0)
(19.2396 0.244067 2.48983e-20)
(0.536859 -0.414023 -8.7218e-22)
(0.668722 -0.553573 1.67249e-21)
(0.807589 -0.707319 -3.08534e-23)
(0.976608 -0.879509 -1.09058e-21)
(1.14453 -1.06388 7.31063e-22)
(1.33423 -1.26163 -4.03663e-22)
(1.53857 -1.46568 0)
(1.74954 -1.67766 1.33585e-21)
(1.99225 -1.90035 -1.43763e-20)
(2.23011 -2.12817 0)
(2.5016 -2.3635 5.77353e-20)
(2.7648 -2.60522 -3.59365e-20)
(3.05803 -2.849 3.66055e-20)
(3.34022 -3.09405 4.65965e-20)
(3.65577 -3.32654 -6.09002e-20)
(3.97682 -3.56948 -7.43953e-20)
(4.29995 -3.80685 2.45548e-19)
(4.64836 -4.0345 -2.55738e-19)
(4.9904 -4.26548 0)
(5.3438 -4.48383 -9.04949e-21)
(5.72638 -4.68943 7.60976e-19)
(6.09333 -4.89342 -2.89308e-20)
(6.49349 -5.07396 -3.61125e-19)
(6.88279 -5.25738 6.91979e-19)
(7.28234 -5.42547 0)
(7.69683 -5.57537 -4.26027e-19)
(8.10001 -5.71446 -4.36705e-19)
(8.52268 -5.82914 9.6883e-19)
(8.94875 -5.93313 -6.50943e-21)
(9.36805 -6.02153 5.7563e-19)
(9.8028 -6.08381 -1.17678e-18)
(10.2292 -6.13809 1.87218e-18)
(10.6562 -6.16988 -1.34318e-18)
(11.0897 -6.17693 -1.40947e-18)
(11.5243 -6.16751 0)
(11.9426 -6.14276 8.03676e-19)
(12.375 -6.08607 0)
(12.791 -6.01964 -2.93055e-21)
(13.2011 -5.93088 9.54263e-19)
(13.6132 -5.81392 -1.77536e-18)
(14.011 -5.68405 -6.51678e-21)
(14.4064 -5.5334 -1.96623e-18)
(14.7808 -5.3692 0)
(15.1515 -5.17933 -5.63958e-19)
(15.5131 -4.97354 2.16464e-18)
(15.854 -4.7523 -5.50779e-19)
(16.193 -4.50719 5.83804e-19)
(16.506 -4.25165 0)
(16.8115 -3.97279 6.0161e-19)
(17.0948 -3.68154 -1.81654e-18)
(17.3674 -3.36837 -2.54379e-20)
(17.6192 -3.04898 0)
(17.8511 -2.71462 6.25477e-19)
(18.0704 -2.36563 -1.88473e-20)
(18.2725 -2.00717 0)
(18.4493 -1.64068 3.53273e-19)
(18.6101 -1.27257 -3.20876e-19)
(18.7425 -0.892205 3.36674e-19)
(18.856 -0.498054 3.34168e-19)
(18.9565 -0.0962472 -1.67918e-19)
(19.0287 0.304761 -6.35749e-20)
(20.5546 0.855619 1.51128e-19)
(20.6168 1.3833 -5.12406e-20)
(20.6508 1.91442 0)
(20.6566 2.44653 0)
(20.6346 2.97783 8.14524e-19)
(20.5849 3.5072 1.172e-18)
(20.5077 4.03287 -1.20698e-18)
(20.4032 4.55336 -3.97817e-19)
(20.2714 5.06718 3.97757e-19)
(20.113 5.57325 7.7856e-19)
(19.9282 6.07097 -7.79019e-19)
(19.7172 6.55849 -7.57521e-19)
(19.4814 7.03473 3.76772e-18)
(19.2221 7.49854 7.32863e-19)
(18.9397 7.94843 -6.4671e-18)
(18.6348 8.38289 0)
(18.3083 8.801 0)
(17.9615 9.20179 6.7283e-19)
(17.5951 9.58473 1.98744e-18)
(17.2099 9.94846 -5.10879e-18)
(16.8075 10.2923 -7.50149e-20)
(16.3886 10.6158 1.17088e-18)
(15.9543 10.9178 1.20493e-18)
(15.5058 11.1979 -4.49605e-18)
(15.0445 11.4557 0)
(14.5714 11.6916 2.11207e-18)
(14.0867 11.9047 -1.95697e-18)
(13.5925 12.0934 0)
(13.0903 12.2574 0)
(12.5818 12.3962 -8.96904e-19)
(12.0683 12.5101 -1.63989e-18)
(11.5509 12.5986 2.33742e-18)
(11.0312 12.6619 0)
(10.5103 12.7 0)
(9.98967 12.7129 1.17952e-18)
(9.47043 12.7008 -1.12157e-18)
(8.95395 12.6638 0)
(8.44152 12.6025 1.76777e-18)
(7.93417 12.517 3.68419e-19)
(7.43316 12.4077 -1.019e-18)
(6.93971 12.275 3.5733e-20)
(6.45524 12.1196 4.29119e-19)
(5.98052 11.9423 -4.2473e-19)
(5.51675 11.7432 7.43266e-20)
(5.06512 11.5235 0)
(4.62635 11.2838 0)
(4.20149 11.0247 -1.73221e-19)
(3.79146 10.7471 -3.72443e-20)
(3.39727 10.4521 2.21498e-19)
(3.0196 10.1408 9.21027e-20)
(2.65909 9.81385 1.43968e-19)
(2.31656 9.47228 -1.4585e-19)
(1.99277 9.11733 -9.7699e-20)
(1.68802 8.7502 9.90347e-20)
(1.40303 8.37181 -5.91448e-19)
(1.13819 7.98358 6.45368e-19)
(0.893928 7.58666 -1.35701e-21)
(0.670553 7.18255 0)
(0.468231 6.7723 1.64369e-19)
(0.287317 6.357 2.23241e-20)
(0.127888 5.9379 2.36309e-20)
(20.3311 0.0977745 -8.15599e-20)
(20.4045 0.614457 0)
(20.4499 1.13282 0)
(20.4679 1.65253 9.36798e-19)
(20.4584 2.17228 -6.2646e-19)
(20.4215 2.69083 -2.20793e-18)
(20.3576 3.20649 0)
(20.2666 3.71813 0)
(20.1488 4.22422 -1.20267e-18)
(20.0044 4.72317 0)
(19.8336 5.21431 -1.76258e-18)
(19.6369 5.6954 1.16952e-18)
(19.416 6.16459 -5.80616e-19)
(19.1718 6.62155 0)
(18.9046 7.06589 2.29705e-18)
(18.6147 7.49629 1.07589e-18)
(18.3029 7.91155 -1.07809e-18)
(17.9703 8.31049 1.02562e-18)
(17.6178 8.69247 -3.03088e-18)
(17.2462 9.05626 2.04144e-18)
(16.857 9.40075 -1.98276e-18)
(16.451 9.72548 -1.01105e-18)
(16.0293 10.0292 -9.14336e-19)
(15.5932 10.3113 2.6532e-18)
(15.1439 10.5709 8.50375e-19)
(14.6821 10.8079 7.78133e-19)
(14.209 11.0225 -7.02826e-19)
(13.7265 11.2137 0)
(13.2356 11.3809 0)
(12.7379 11.5234 0)
(12.2345 11.6412 0)
(11.7268 11.7341 0)
(11.2162 11.8019 0)
(10.7038 11.8448 0)
(10.1912 11.8626 -4.90992e-19)
(9.67952 11.8554 4.35553e-19)
(9.17015 11.8232 3.48791e-19)
(8.66429 11.7665 -1.69315e-18)
(8.16306 11.6857 -2.64192e-19)
(7.6678 11.5808 7.88389e-19)
(7.17974 11.4525 4.33898e-19)
(6.70024 11.3011 -3.45916e-19)
(6.23018 11.1274 1.28096e-19)
(5.77091 10.9317 9.38525e-20)
(5.32352 10.7147 -7.13136e-21)
(4.88882 10.4774 7.21177e-21)
(4.4679 10.2201 9.39436e-20)
(4.06172 9.94393 0)
(3.67133 9.64966 8.09926e-20)
(3.29753 9.33832 -1.83698e-19)
(2.94096 9.0108 1.02998e-19)
(2.60255 8.66798 0)
(2.28314 8.311 -3.06778e-19)
(1.98299 7.94103 0)
(1.70302 7.559 0)
(1.44346 7.16634 -9.52883e-19)
(1.20497 6.76424 4.59605e-19)
(0.987749 6.35411 1.27088e-19)
(0.792361 5.93697 -1.32907e-19)
(0.619119 5.51408 0)
(0.468255 5.08668 -3.74911e-20)
(20.124 0.480643 6.21379e-20)
(20.1856 0.981473 0)
(20.2204 1.48282 -2.48019e-19)
(20.2275 1.98454 -1.63946e-20)
(20.2077 2.48527 0)
(20.1617 2.98433 1.99122e-18)
(20.0895 3.48083 9.72268e-19)
(19.9908 3.97457 0)
(19.8658 4.46327 3.22323e-20)
(19.7149 4.94478 9.41761e-19)
(19.5389 5.41733 1.43099e-18)
(19.339 5.87957 -4.70458e-19)
(19.1158 6.32985 0)
(18.8695 6.76726 0)
(18.6006 7.19138 1.73342e-18)
(18.3101 7.60132 -8.55469e-19)
(17.9988 7.99609 -8.01589e-19)
(17.6677 8.37471 0)
(17.3176 8.73638 2.42221e-18)
(16.9497 9.08016 -2.32426e-18)
(16.5649 9.4051 -1.48456e-18)
(16.1645 9.7105 -1.43667e-18)
(15.7493 9.99545 0)
(15.3206 10.2592 -2.05318e-18)
(14.8795 10.5012 -6.70025e-19)
(14.4272 10.7209 6.12122e-19)
(13.965 10.9175 6.02573e-19)
(13.494 11.0911 0)
(13.0155 11.2412 0)
(12.5307 11.3676 0)
(12.0409 11.47 0)
(11.5473 11.5483 0)
(11.0512 11.6025 0)
(10.554 11.6325 0)
(10.0569 11.6384 -1.0524e-18)
(9.5611 11.6201 3.36926e-19)
(9.06792 11.5779 -2.68486e-19)
(8.57849 11.512 1.27878e-18)
(8.09395 11.4227 0)
(7.61551 11.3105 3.58712e-19)
(7.14438 11.1757 2.92218e-19)
(6.68177 11.0188 1.24884e-19)
(6.22871 10.8404 -7.4494e-20)
(5.78636 10.641 -9.26873e-20)
(5.35576 10.4213 2.67667e-20)
(4.93779 10.1818 -3.00395e-22)
(4.53334 9.92341 1.04984e-19)
(4.14337 9.64683 0)
(3.7688 9.35302 0)
(3.41047 9.04283 8.12948e-20)
(3.06912 8.71718 9.81819e-20)
(2.74541 8.37701 2.1143e-19)
(2.44013 8.02326 2.41935e-19)
(2.15369 7.65707 0)
(1.88681 7.27932 3.01082e-19)
(1.63974 6.89147 3.31992e-19)
(1.41297 6.49458 0)
(1.20689 6.09012 -1.77842e-21)
(1.02203 5.679 0)
(0.858626 5.26253 0)
(0.716933 4.8418 2.88286e-20)
(19.9742 0.436004 -1.02827e-19)
(20.0335 0.920289 2.01179e-19)
(20.0668 1.40766 -3.96786e-19)
(20.0736 1.89612 -2.1349e-19)
(20.0541 2.38411 0)
(20.0081 2.87044 -8.272e-19)
(19.9351 3.35443 -8.21495e-19)
(19.8365 3.83446 0)
(19.7133 4.3102 3.42105e-20)
(19.5659 4.77976 -7.94509e-19)
(19.3943 5.24088 1.50021e-18)
(19.199 5.69253 1.47711e-18)
(18.9804 6.1336 0)
(18.739 6.5629 -7.20144e-19)
(18.4757 6.97917 -1.4306e-18)
(18.1914 7.38119 -7.05555e-19)
(17.8867 7.7681 2.06708e-18)
(17.5627 8.13901 -1.32818e-18)
(17.2202 8.49317 1.2925e-18)
(16.8603 8.82973 1.87663e-18)
(16.4841 9.14786 2.43684e-18)
(16.0926 9.44679 1.20491e-18)
(15.6869 9.72566 5.54549e-19)
(15.268 9.98379 1.6768e-18)
(14.837 10.2207 5.13176e-19)
(14.395 10.4358 5.13859e-19)
(13.9431 10.6286 4.65604e-19)
(13.4828 10.7988 -1.35588e-18)
(13.0151 10.9461 8.40689e-19)
(12.5414 11.0702 7.84617e-19)
(12.0627 11.1707 -1.52264e-18)
(11.5803 11.2478 7.37943e-19)
(11.0955 11.3013 -6.41954e-19)
(10.6096 11.3313 3.01287e-19)
(10.124 11.3376 2.91121e-19)
(9.6397 11.3203 2.36329e-19)
(9.15798 11.2796 -2.37898e-19)
(8.67989 11.2157 -2.24251e-19)
(8.20659 11.1291 -5.11668e-19)
(7.73928 11.02 -2.967e-19)
(7.27913 10.8889 -4.62432e-19)
(6.82725 10.7363 -4.28475e-19)
(6.38482 10.5628 1.22894e-19)
(5.95288 10.3688 7.37808e-21)
(5.53245 10.1549 -7.0404e-22)
(5.12444 9.92176 3.21578e-20)
(4.72957 9.67008 -2.73134e-19)
(4.34884 9.40069 5.88973e-20)
(3.98308 9.11453 0)
(3.63324 8.81236 0)
(3.2999 8.49504 1.50829e-19)
(2.98388 8.16365 8.93424e-22)
(2.6858 7.81899 -1.97348e-19)
(2.40612 7.46211 0)
(2.14546 7.09384 -2.44883e-19)
(1.904 6.71564 0)
(1.68231 6.32864 0)
(1.48061 5.93412 -2.35408e-19)
(1.29972 5.5332 -8.38582e-20)
(1.13959 5.12704 8.71164e-20)
(1.0008 4.71681 -4.621e-20)
(19.8235 0.507832 1.86625e-21)
(19.8773 0.979156 -1.73921e-19)
(19.9057 1.45314 5.09838e-19)
(19.9085 1.92823 3.38361e-19)
(19.8858 2.40322 -4.98541e-19)
(19.8376 2.87685 3.34092e-19)
(19.7646 3.3472 -2.38661e-21)
(19.6668 3.81195 -6.4718e-19)
(19.5442 4.27108 9.86116e-19)
(19.398 4.72371 -1.28475e-18)
(19.2286 5.16882 1.20921e-18)
(19.0363 5.60491 -1.28609e-18)
(18.8215 6.03089 -6.17998e-19)
(18.5848 6.4457 0)
(18.3271 6.848 6.36727e-19)
(18.0491 7.23654 5.43332e-19)
(17.7513 7.61061 0)
(17.4347 7.96921 1.07061e-18)
(17.1003 8.31165 0)
(16.7489 8.63716 -1.05956e-18)
(16.3819 8.94488 9.35535e-19)
(16.0002 9.23403 -4.0698e-20)
(15.6048 9.50369 -4.57108e-20)
(15.1967 9.75316 1.81752e-21)
(14.7769 9.98201 -1.76225e-18)
(14.3465 10.1897 -8.01405e-19)
(13.9065 10.376 1.56625e-18)
(13.4583 10.5404 1.44813e-18)
(13.0032 10.6825 -7.22376e-19)
(12.5421 10.8021 0)
(12.0763 10.899 0)
(11.6068 10.9731 0)
(11.135 11.0243 5.5055e-19)
(10.6622 11.0529 -1.92712e-18)
(10.1898 11.0585 8.94318e-19)
(9.71867 11.0412 -4.26352e-19)
(9.25005 11.0012 -6.81481e-19)
(8.78498 10.9386 6.39666e-19)
(8.32446 10.8539 2.17431e-20)
(7.86977 10.7475 -2.00969e-19)
(7.42202 10.6199 2.20969e-19)
(6.98228 10.4715 1.42984e-19)
(6.55178 10.3028 0)
(6.13153 10.1144 -3.83789e-20)
(5.7225 9.90677 0)
(5.32566 9.6803 8.03451e-20)
(4.94148 9.43592 -4.16251e-20)
(4.57097 9.17437 0)
(4.2148 8.89661 9.5816e-20)
(3.87426 8.60334 1.96964e-20)
(3.54963 8.29529 -2.50694e-19)
(3.24174 7.97357 1.47457e-19)
(2.95137 7.639 9.68663e-20)
(2.67872 7.29252 -1.77784e-19)
(2.42467 6.93491 8.16454e-21)
(2.18882 6.56748 -1.07783e-19)
(1.97218 6.19146 -5.81198e-20)
(1.77469 5.80815 -1.29131e-19)
(1.59747 5.41863 3.42349e-19)
(1.44014 5.02403 -1.45598e-19)
(1.30379 4.62547 1.92725e-20)
(19.6661 0.559875 3.65532e-20)
(19.7151 1.01633 0)
(19.7393 1.47499 -5.70243e-19)
(19.739 1.9347 0)
(19.714 2.3941 2.83932e-19)
(19.6646 2.85183 8.30924e-19)
(19.591 3.30647 5.45254e-19)
(19.4932 3.75736 1.10613e-18)
(19.3717 4.20271 9.71009e-21)
(19.2273 4.64157 -6.73034e-21)
(19.0606 5.07253 -5.98898e-20)
(18.8716 5.49461 -5.26519e-19)
(18.6609 5.90675 5.08532e-19)
(18.4293 6.30801 -1.49113e-18)
(18.1774 6.69716 1.01208e-18)
(17.906 7.07293 -4.87031e-20)
(17.6155 7.43453 -9.17977e-19)
(17.3067 7.78109 -9.40769e-19)
(16.9805 8.11206 0)
(16.6381 8.42686 8.42412e-19)
(16.2806 8.72448 -3.7855e-20)
(15.909 9.00417 -1.65811e-18)
(15.5245 9.265 -5.88821e-21)
(15.1277 9.50606 -6.8786e-19)
(14.7196 9.72716 2.09444e-18)
(14.3012 9.92782 -3.47545e-20)
(13.8736 10.1077 -6.68925e-19)
(13.4381 10.2666 -7.09643e-20)
(12.9959 10.4041 0)
(12.5482 10.5197 0)
(12.0959 10.6131 0)
(11.6399 10.6847 0)
(11.1817 10.7342 0)
(10.7225 10.7621 5.44308e-20)
(10.2639 10.7676 -3.46834e-19)
(9.80655 10.7509 3.93345e-20)
(9.35167 10.712 5.36009e-20)
(8.9002 10.6512 2.21924e-19)
(8.45292 10.569 4.22235e-19)
(8.01125 10.466 -5.2475e-19)
(7.57635 10.3422 3.08153e-19)
(7.14908 10.1986 -9.45412e-20)
(6.73086 10.0355 0)
(6.32268 9.8534 3.35195e-20)
(5.92544 9.65289 0)
(5.54031 9.43387 -4.20806e-20)
(5.16703 9.19759 7.93226e-20)
(4.80721 8.94469 -5.49466e-20)
(4.46089 8.67634 -6.90856e-20)
(4.13001 8.3929 1.03332e-19)
(3.81437 8.09504 1.94364e-20)
(3.51484 7.78404 1.54594e-20)
(3.23242 7.46045 -2.84273e-19)
(2.967 7.12535 3.23874e-19)
(2.71977 6.77915 1.7737e-19)
(2.4896 6.42345 9.27699e-20)
(2.27822 6.05928 3.08466e-19)
(2.08461 5.68813 0)
(1.91101 5.31092 -2.35959e-19)
(1.75629 4.92888 6.26603e-20)
(1.62228 4.54285 0)
(19.4935 0.614208 0)
(19.5371 1.05513 0)
(19.5569 1.49819 2.47344e-19)
(19.5531 1.94196 -4.7398e-19)
(19.5256 2.38546 -2.4473e-19)
(19.4747 2.8274 -1.18856e-18)
(19.4006 3.26607 4.59079e-19)
(19.3031 3.7005 -9.49656e-19)
(19.1827 4.13026 1.54036e-20)
(19.0404 4.55409 1.34681e-18)
(18.8767 4.97001 -1.79849e-18)
(18.6915 5.37713 0)
(18.4854 5.7744 0)
(18.259 6.16154 1.70459e-18)
(18.0134 6.5371 8.24058e-19)
(17.7493 6.89912 -1.673e-18)
(17.4665 7.24746 2.39578e-18)
(17.166 7.5812 7.62217e-19)
(16.8484 7.89999 -1.49439e-18)
(16.5151 8.20357 -7.50272e-19)
(16.1676 8.49045 6.92242e-19)
(15.8067 8.76027 -7.11014e-20)
(15.4336 9.01192 0)
(15.0491 9.24389 1.2973e-18)
(14.6532 9.45674 -1.8303e-18)
(14.2474 9.64992 5.89651e-19)
(13.8328 9.82298 1.06099e-18)
(13.4105 9.97623 -2.5766e-18)
(12.9822 10.1086 5.04245e-19)
(12.5486 10.2202 0)
(12.1108 10.3098 0)
(11.6689 10.379 0)
(11.2253 10.4267 3.49513e-19)
(10.7804 10.4542 9.88971e-19)
(10.3368 10.4598 -5.82731e-19)
(9.89422 10.4439 2.54077e-19)
(9.45405 10.4066 2.43547e-19)
(9.01736 10.3475 -4.32924e-19)
(8.58407 10.268 0)
(8.15611 10.1685 -2.41096e-19)
(7.73492 10.0489 1.25639e-19)
(7.32055 9.91028 1.43811e-20)
(6.91505 9.75305 9.76129e-21)
(6.5196 9.5777 2.85521e-20)
(6.13456 9.38506 -1.05772e-20)
(5.76228 9.17384 1.57011e-19)
(5.40032 8.94642 -6.68201e-20)
(5.05205 8.70264 2.26111e-19)
(4.71567 8.44464 0)
(4.39547 8.17199 0)
(4.08936 7.88501 -4.05341e-19)
(3.79838 7.58565 1.10293e-19)
(3.52489 7.27398 2.52748e-19)
(3.26682 6.95121 1.49381e-19)
(3.02755 6.61706 -4.70449e-19)
(2.80297 6.27378 -2.63252e-19)
(2.59744 5.92203 -9.68462e-20)
(2.40734 5.564 -2.12205e-21)
(2.2381 5.20003 1.0376e-19)
(2.08557 4.83137 0)
(1.95439 4.45868 0)
(19.3002 0.665662 -2.49394e-20)
(19.3376 1.08993 0)
(19.3525 1.5165 0)
(19.3446 1.94363 2.10129e-19)
(19.3142 2.37024 0)
(19.262 2.79533 8.10174e-19)
(19.1881 3.21721 3.99848e-19)
(19.091 3.63425 -7.85558e-19)
(18.9711 4.0483 0)
(18.8311 4.45726 -7.98208e-19)
(18.6718 4.85649 4.3991e-20)
(18.4909 5.24784 0)
(18.2901 5.62902 0)
(18.069 6.00116 -7.45353e-19)
(17.83 6.36323 6.88333e-19)
(17.5745 6.71027 -7.13328e-19)
(17.3001 7.04462 -6.95683e-19)
(17.0082 7.36519 0)
(16.7 7.67064 6.57795e-19)
(16.3762 7.96244 -1.19955e-18)
(16.0396 8.23768 -1.15924e-18)
(15.6901 8.49718 -1.19096e-18)
(15.3287 8.73988 -9.6334e-21)
(14.958 8.96153 -9.83312e-19)
(14.5747 9.1656 1.04332e-18)
(14.1818 9.3512 9.40377e-19)
(13.7814 9.51644 -9.54899e-19)
(13.3724 9.66401 6.01197e-20)
(12.959 9.79048 1.11176e-21)
(12.5394 9.89892 -7.98343e-19)
(12.118 9.98344 0)
(11.69 10.051 -6.36446e-19)
(11.2626 10.096 1.22602e-18)
(10.8318 10.1244 -4.666e-20)
(10.4054 10.1306 5.24784e-19)
(9.97881 10.1156 -4.26742e-19)
(9.5545 10.0803 3.62548e-19)
(9.13467 10.0227 2.59304e-19)
(8.71616 9.946 -5.70893e-19)
(8.30247 9.8503 2.39883e-19)
(7.89664 9.73501 1.52538e-19)
(7.49504 9.60144 1.6069e-19)
(7.10236 9.4501 -3.42822e-20)
(6.72064 9.28178 0)