/*--------------------------------*- C++ -*----------------------------------*\
| =========                 |                                                 |
| \\      /  F ield         | OpenFOAM: The Open Source CFD Toolbox           |
|  \\    /   O peration     | Version:  2.3.1                                 |
|   \\  /    A nd           | Web:      www.OpenFOAM.org                      |
|    \\/     M anipulation  |                                                 |
\*---------------------------------------------------------------------------*/
FoamFile
{
    version     2.0;
    format      ascii;
    class       volScalarField;
    location    "0.6";
    object      epsilon;
}
// * * * * * * * * * * * * * * * * * * * * * * * * * * * * * * * * * * * * * //

dimensions      [0 2 -3 0 0 0 0];

internalField   nonuniform List<scalar> 
1000
(
0.000994712
0.00102995
0.0010306
0.00103055
0.00103053
0.00103052
0.00103052
0.00103051
0.00103044
0.00102755
0.00103079
0.00103578
0.00103607
0.00103606
0.00103605
0.00103604
0.00103603
0.00103602
0.00103568
0.00102845
0.00103256
0.00103735
0.0010377
0.0010377
0.0010377
0.00103769
0.00103767
0.00103765
0.00103726
0.00102952
0.00103384
0.00103905
0.00103946
0.00103949
0.00103949
0.00103949
0.00103946
0.00103943
0.00103901
0.00103096
0.00103569
0.00104161
0.00104211
0.0010422
0.00104222
0.00104221
0.00104219
0.00104211
0.00104166
0.00103294
0.0010299
0.00103472
0.00103517
0.00103524
0.00103527
0.00103528
0.00103529
0.00103528
0.00103499
0.00102849
0.00103537
0.000658424
0.000641204
0.000640544
0.000640483
0.000640454
0.000640437
0.000640805
0.000657006
0.00103378
0.00103672
0.000639096
0.000620773
0.000620153
0.000620137
0.000620133
0.000620135
0.000620563
0.00063803
0.00103511
0.00103801
0.000638461
0.000620115
0.000619505
0.000619493
0.000619491
0.000619495
0.000619929
0.000637532
0.00103643
0.00103977
0.000639073
0.000620642
0.000620052
0.000620049
0.000620049
0.000620048
0.000620469
0.000638216
0.00103823
0.00103171
0.00103583
0.00103625
0.00103632
0.00103636
0.00103638
0.00103638
0.00103638
0.00103606
0.00102928
0.00103625
0.000641054
0.000622821
0.000622166
0.000622126
0.000622107
0.000622096
0.000622505
0.000639833
0.00103481
0.00103744
0.00062113
0.000601493
0.000600817
0.000600801
0.000600799
0.000600804
0.000601273
0.000619978
0.00103602
0.00103861
0.000620547
0.000600844
0.000600171
0.000600158
0.000600157
0.000600161
0.000600635
0.000619457
0.00103717
0.00104015
0.000620987
0.000601218
0.000600553
0.000600544
0.000600543
0.000600545
0.000601012
0.000619937
0.00103872
0.00103243
0.00103646
0.00103685
0.0010369
0.00103693
0.00103695
0.00103696
0.00103695
0.00103663
0.00102983
0.00103678
0.000639577
0.000621413
0.000620788
0.00062076
0.000620749
0.000620745
0.000621162
0.000638578
0.00103532
0.00103783
0.000620382
0.000600758
0.000600086
0.00060007
0.000600069
0.000600075
0.000600546
0.000619298
0.00103642
0.00103887
0.00061986
0.000600164
0.000599492
0.000599478
0.000599477
0.000599482
0.000599955
0.000618797
0.00103743
0.00104021
0.000620149
0.000600416
0.000599748
0.000599736
0.000599735
0.000599737
0.000600208
0.000619104
0.00103876
0.00103281
0.00103681
0.00103716
0.00103721
0.00103723
0.00103724
0.00103725
0.00103725
0.00103692
0.00103011
0.00103709
0.000638664
0.000620532
0.00061992
0.000619899
0.000619892
0.000619893
0.000620316
0.000637777
0.00103558
0.00103805
0.00062023
0.000600653
0.000599985
0.00059997
0.00059997
0.000599976
0.000600446
0.000619195
0.00103662
0.00103901
0.000619765
0.000600125
0.000599457
0.000599443
0.000599442
0.000599448
0.000599918
0.000618731
0.00103756
0.00104024
0.000619975
0.000600327
0.000599662
0.000599649
0.000599649
0.000599651
0.000600118
0.000618948
0.00103878
0.00103288
0.00103696
0.00103731
0.00103734
0.00103736
0.00103738
0.00103738
0.00103737
0.00103705
0.00103013
0.00103718
0.000638126
0.000620016
0.000619419
0.000619406
0.000619407
0.000619414
0.000619842
0.00063733
0.00103563
0.00103814
0.000620176
0.000600636
0.000599972
0.000599959
0.000599959
0.000599966
0.000600436
0.00061918
0.00103669
0.00103913
0.000619762
0.000600167
0.000599504
0.000599491
0.000599492
0.000599497
0.000599964
0.00061876
0.00103766
0.00104038
0.00061996
0.000600373
0.000599715
0.000599703
0.000599703
0.000599705
0.000600167
0.000618958
0.00103889
0.00103267
0.00103695
0.00103731
0.00103734
0.00103736
0.00103737
0.00103737
0.00103736
0.00103702
0.00102989
0.00103706
0.000638102
0.00062001
0.000619414
0.000619402
0.000619403
0.00061941
0.000619837
0.000637324
0.00103548
0.00103814
0.000620248
0.000600731
0.000600071
0.000600058
0.000600059
0.000600065
0.000600532
0.000619267
0.00103666
0.00103926
0.000619892
0.00060032
0.000599661
0.000599649
0.00059965
0.000599654
0.000600116
0.000618896
0.00103777
0.00104067
0.000620162
0.000600604
0.000599951
0.00059994
0.000599941
0.00059994
0.000600395
0.000619158
0.00103915
0.00103218
0.00103665
0.00103701
0.00103705
0.00103706
0.00103707
0.00103707
0.00103705
0.0010367
0.00102938
0.00103669
0.000638696
0.000620664
0.000620073
0.000620061
0.000620062
0.000620068
0.000620494
0.000637936
0.00103509
0.00103795
0.000621043
0.000601603
0.00060095
0.000600938
0.00060094
0.000600945
0.000601406
0.000620078
0.00103644
0.00103929
0.000620872
0.000601395
0.000600747
0.000600739
0.00060074
0.000600741
0.000601193
0.000619892
0.00103776
0.00104099
0.000621521
0.000602101
0.00060147
0.000601467
0.000601469
0.000601459
0.000601892
0.000620533
0.00103943
0.00103137
0.00103571
0.00103605
0.00103608
0.00103609
0.0010361
0.00103609
0.00103608
0.00103575
0.00102854
0.00103581
0.000657771
0.000641013
0.000640487
0.000640485
0.000640491
0.000640494
0.00064088
0.000657217
0.00103412
0.00103726
0.000642194
0.000624238
0.000623673
0.000623677
0.000623683
0.000623679
0.000624084
0.000641468
0.00103565
0.00103884
0.00064361
0.000625743
0.00062521
0.000625227
0.000625235
0.000625215
0.000625584
0.000642876
0.0010372
0.00104093
0.00064739
0.000629854
0.000629398
0.000629443
0.000629448
0.000629398
0.000629691
0.000646666
0.00103925
0.00102765
0.00102778
0.0010278
0.00102781
0.00102781
0.00102782
0.00102781
0.00102781
0.00102773
0.00102467
0.00102877
0.00103358
0.00103398
0.00103401
0.00103402
0.00103402
0.00103402
0.001034
0.00103363
0.00102586
0.00103015
0.00103532
0.00103579
0.00103584
0.00103586
0.00103587
0.00103585
0.00103581
0.00103538
0.00102723
0.00103196
0.00103717
0.00103768
0.00103776
0.00103779
0.00103779
0.00103776
0.00103769
0.00103719
0.00102902
0.0010347
0.00103999
0.00104057
0.00104067
0.00104071
0.00104071
0.00104066
0.00104054
0.00103998
0.0010318
0.0010415
0.00104625
0.00104689
0.00104703
0.00104706
0.00104706
0.00104701
0.00104686
0.00104616
0.00103867
0.0010506
0.00106399
0.00106505
0.00106494
0.00106481
0.0010648
0.00106493
0.00106498
0.00106424
0.00104815
0.00113766
0.0013234
0.00132972
0.00132214
0.00131942
0.00131933
0.00132165
0.00132904
0.0013283
0.00113961
0.00207297
0.00429352
0.00441946
0.004352
0.00432648
0.00432464
0.00434577
0.00441052
0.00434462
0.00212127
0.00861179
0.0245214
0.0263273
0.0263597
0.0263384
0.0263261
0.0263193
0.0262673
0.0248091
0.00885728
0.0010432
0.000655826
0.000639139
0.000638837
0.000638918
0.000638921
0.000638836
0.000638983
0.000655186
0.00104152
0.00104661
0.000677426
0.000662744
0.000662823
0.000662947
0.00066295
0.000662828
0.000662632
0.000677103
0.00104506
0.0010604
0.000784806
0.000777959
0.000779451
0.000779869
0.000779872
0.00077945
0.000778013
0.000785989
0.0010594
0.00130352
0.00210372
0.002096
0.00207635
0.00207403
0.00207352
0.00207505
0.00209392
0.0021393
0.00131599
0.0135941
0.0714406
0.0762707
0.0759446
0.0757339
0.0757037
0.0758493
0.0761783
0.072455
0.0141291
0.00104202
0.000622541
0.000603237
0.000602643
0.000602651
0.00060265
0.000602629
0.000603023
0.000621563
0.0010405
0.00104403
0.000624556
0.000605485
0.000604929
0.000604936
0.000604937
0.000604917
0.000605278
0.000623646
0.0010426
0.0010477
0.00065183
0.000635764
0.000636045
0.000636277
0.000636283
0.000636055
0.000635668
0.000651508
0.00104647
0.00120618
0.00187738
0.00193934
0.00194251
0.00194251
0.0019423
0.00194207
0.00194047
0.0019012
0.00121418
0.014447
0.0733637
0.077108
0.0770017
0.0768922
0.0768775
0.0769607
0.0771286
0.0744273
0.0150196
0.00104106
0.000619972
0.000600384
0.000599735
0.000599727
0.000599726
0.000599719
0.000600166
0.000618956
0.00103957
0.00104251
0.000619908
0.000600303
0.00059964
0.000599623
0.000599621
0.000599624
0.000600085
0.000618908
0.00104106
0.00104454
0.000633321
0.000614859
0.000614364
0.000614406
0.000614409
0.000614363
0.000614698
0.00063268
0.00104324
0.00119237
0.00185367
0.00191251
0.00191577
0.00191591
0.00191583
0.00191569
0.00191443
0.00187783
0.00119981
0.0151844
0.0783751
0.0822342
0.0822981
0.0822523
0.0822461
0.0822852
0.0823214
0.079577
0.015812
0.0010405
0.000619575
0.000599933
0.000599272
0.000599261
0.000599259
0.000599258
0.000599719
0.000618561
0.00103902
0.00104177
0.000619414
0.000599738
0.000599062
0.000599043
0.000599041
0.000599047
0.000599524
0.000618407
0.00104031
0.00104354
0.000630352
0.000611635
0.000611074
0.000611096
0.000611098
0.000611073
0.000611469
0.000629656
0.00104221
0.00119014
0.00186024
0.0019177
0.00192109
0.00192139
0.00192138
0.00192121
0.00191998
0.00188492
0.0011975
0.0155343
0.0806437
0.0846113
0.0847708
0.0847636
0.0847627
0.0847749
0.0847343
0.0819149
0.0161897
0.00104037
0.000619652
0.000599916
0.00059925
0.000599239
0.000599237
0.000599236
0.000599702
0.00061862
0.0010389
0.00104174
0.000619612
0.000599747
0.000599063
0.000599045
0.000599043
0.000599051
0.000599537
0.000618592
0.0010403
0.00104379
0.000631512
0.000612887
0.000612411
0.000612459
0.00061246
0.000612411
0.00061273
0.000630829
0.00104243
0.00124842
0.00229396
0.00240663
0.00243533
0.00244561
0.00244584
0.00243671
0.00241217
0.00232973
0.00125908
0.0156332
0.0807905
0.0847424
0.08492
0.0849232
0.0849233
0.0849312
0.0848809
0.0820818
0.0163042
0.00104057
0.000620117
0.000600236
0.000599574
0.000599568
0.000599566
0.000599564
0.000600027
0.000619081
0.00103914
0.0010423
0.000620348
0.000600114
0.000599425
0.000599409
0.00059941
0.000599416
0.000599913
0.000619326
0.00104085
0.00104542
0.000639116
0.000621131
0.000621063
0.000621261
0.000621266
0.000621085
0.000621016
0.000638589
0.00104409
0.00137296
0.00294055
0.0031405
0.00321616
0.00324445
0.00324519
0.00321977
0.00315129
0.00298965
0.00139014
0.0156544
0.0795364
0.0833373
0.0835011
0.0835053
0.0835056
0.0835193
0.0834894
0.0808243
0.0163469
0.00104101
0.000621354
0.000601328
0.000600681
0.000600683
0.000600685
0.000600675
0.000601132
0.00062033
0.00103959
0.00104306
0.000622914
0.000602248
0.000601598
0.000601598
0.000601599
0.000601598
0.000602051
0.00062191
0.00104158
0.00104967
0.000657866
0.000641109
0.000642076
0.000642664
0.000642683
0.000642128
0.000641087
0.000657503
0.00104839
0.00153983
0.00269407
0.00292724
0.00309182
0.0031541
0.00315574
0.00309918
0.00294196
0.00272145
0.00156227
0.0154779
0.0747763
0.0781629
0.0783212
0.0783374
0.0783394
0.0783486
0.0783297
0.0759708
0.0161821
0.00104144
0.000639353
0.00062041
0.00061982
0.000619824
0.000619825
0.000619821
0.000620242
0.000638521
0.00103995
0.00104347
0.000647493
0.000628125
0.000627781
0.000627875
0.000627883
0.000627789
0.00062798
0.000646748
0.00104187
0.00105725
0.000707953
0.000691988
0.000693227
0.000693933
0.000693947
0.000693278
0.000691983
0.000707802
0.00105604
0.00131858
0.00176152
0.0018258
0.00184473
0.00185154
0.00185159
0.00184547
0.00182868
0.00178061
0.00132695
0.0136082
0.055696
0.0580111
0.0583343
0.0584436
0.0584488
0.0583711
0.0581494
0.0564316
0.0141453
0.00103613
0.00104467
0.0010456
0.00104577
0.00104583
0.00104584
0.00104576
0.00104565
0.00104483
0.00103328
0.00103689
0.00104851
0.00104966
0.00104981
0.00104985
0.00104984
0.00104981
0.00104971
0.00104862
0.00103399
0.00106184
0.00108183
0.00108434
0.00108497
0.00108514
0.00108512
0.00108502
0.00108433
0.00108217
0.00105931
0.00114412
0.00127534
0.00129482
0.00129847
0.00129958
0.00129965
0.00129861
0.00129554
0.00127894
0.00114465
0.00603729
0.0112357
0.0115506
0.0116268
0.0116529
0.0116538
0.0116328
0.0115685
0.0113144
0.00614191
)
;

boundaryField
{
    walls
    {
        type            epsilonWallFunction;
        value           nonuniform List<scalar> 
500
(
0.000994712
0.000994712
0.000994712
0.00102995
0.00102995
0.0010306
0.0010306
0.00103055
0.00103055
0.00103053
0.00103053
0.00103052
0.00103052
0.00103052
0.00103052
0.00103051
0.00103051
0.00103044
0.00103044
0.00102755
0.00102755
0.00102755
0.00103079
0.00103079
0.00103578
0.00103607
0.00103606
0.00103605
0.00103604
0.00103603
0.00103602
0.00103568
0.00102845
0.00102845
0.00103256
0.00103256
0.00103735
0.0010377
0.0010377
0.0010377
0.00103769
0.00103767
0.00103765
0.00103726
0.00102952
0.00102952
0.00103384
0.00103384
0.00103905
0.00103946
0.00103949
0.00103949
0.00103949
0.00103946
0.00103943
0.00103901
0.00103096
0.00103096
0.00103569
0.00103569
0.00104161
0.00104211
0.0010422
0.00104222
0.00104221
0.00104219
0.00104211
0.00104166
0.00103294
0.00103294
0.0010299
0.0010299
0.00103472
0.00103517
0.00103524
0.00103527
0.00103528
0.00103529
0.00103528
0.00103499
0.00102849
0.00102849
0.00103537
0.00103378
0.00103672
0.00103511
0.00103801
0.00103643
0.00103977
0.00103823
0.00103171
0.00103171
0.00103583
0.00103625
0.00103632
0.00103636
0.00103638
0.00103638
0.00103638
0.00103606
0.00102928
0.00102928
0.00103625
0.00103481
0.00103744
0.00103602
0.00103861
0.00103717
0.00104015
0.00103872
0.00103243
0.00103243
0.00103646
0.00103685
0.0010369
0.00103693
0.00103695
0.00103696
0.00103695
0.00103663
0.00102983
0.00102983
0.00103678
0.00103532
0.00103783
0.00103642
0.00103887
0.00103743
0.00104021
0.00103876
0.00103281
0.00103281
0.00103681
0.00103716
0.00103721
0.00103723
0.00103724
0.00103725
0.00103725
0.00103692
0.00103011
0.00103011
0.00103709
0.00103558
0.00103805
0.00103662
0.00103901
0.00103756
0.00104024
0.00103878
0.00103288
0.00103288
0.00103696
0.00103731
0.00103734
0.00103736
0.00103738
0.00103738
0.00103737
0.00103705
0.00103013
0.00103013
0.00103718
0.00103563
0.00103814
0.00103669
0.00103913
0.00103766
0.00104038
0.00103889
0.00103267
0.00103267
0.00103695
0.00103731
0.00103734
0.00103736
0.00103737
0.00103737
0.00103736
0.00103702
0.00102989
0.00102989
0.00103706
0.00103548
0.00103814
0.00103666
0.00103926
0.00103777
0.00104067
0.00103915
0.00103218
0.00103218
0.00103665
0.00103701
0.00103705
0.00103706
0.00103707
0.00103707
0.00103705
0.0010367
0.00102938
0.00102938
0.00103669
0.00103509
0.00103795
0.00103644
0.00103929
0.00103776
0.00104099
0.00103943
0.00103137
0.00103137
0.00103571
0.00103605
0.00103608
0.00103609
0.0010361
0.00103609
0.00103608
0.00103575
0.00102854
0.00102854
0.00103581
0.00103412
0.00103726
0.00103565
0.00103884
0.0010372
0.00104093
0.00103925
0.00102765
0.00102765
0.00102765
0.00102778
0.00102778
0.0010278
0.0010278
0.00102781
0.00102781
0.00102781
0.00102781
0.00102782
0.00102782
0.00102781
0.00102781
0.00102781
0.00102781
0.00102773
0.00102773
0.00102467
0.00102467
0.00102467
0.00102877
0.00102877
0.00103358
0.00103398
0.00103401
0.00103402
0.00103402
0.00103402
0.001034
0.00103363
0.00102586
0.00102586
0.00103015
0.00103015
0.00103532
0.00103579
0.00103584
0.00103586
0.00103587
0.00103585
0.00103581
0.00103538
0.00102723
0.00102723
0.00103196
0.00103196
0.00103717
0.00103768
0.00103776
0.00103779
0.00103779
0.00103776
0.00103769
0.00103719
0.00102902
0.00102902
0.0010347
0.0010347
0.00103999
0.00104057
0.00104067
0.00104071
0.00104071
0.00104066
0.00104054
0.00103998
0.0010318
0.0010318
0.0010415
0.0010415
0.00104625
0.00104689
0.00104703
0.00104706
0.00104706
0.00104701
0.00104686
0.00104616
0.00103867
0.00103867
0.0010506
0.0010506
0.00106399
0.00106505
0.00106494
0.00106481
0.0010648
0.00106493
0.00106498
0.00106424
0.00104815
0.00104815
0.00113766
0.00113766
0.0013234
0.00132972
0.00132214
0.00131942
0.00131933
0.00132165
0.00132904
0.0013283
0.00113961
0.00113961
0.00207297
0.00207297
0.00429352
0.00441946
0.004352
0.00432648
0.00432464
0.00434577
0.00441052
0.00434462
0.00212127
0.00212127
0.00861179
0.00861179
0.0245214
0.0263273
0.0263597
0.0263384
0.0263261
0.0263193
0.0262673
0.0248091
0.00885728
0.00885728
0.0010432
0.00104152
0.00104661
0.00104506
0.0010604
0.0010594
0.00130352
0.00131599
0.0135941
0.0141291
0.00104202
0.0010405
0.00104403
0.0010426
0.0010477
0.00104647
0.00120618
0.00121418
0.014447
0.0150196
0.00104106
0.00103957
0.00104251
0.00104106
0.00104454
0.00104324
0.00119237
0.00119981
0.0151844
0.015812
0.0010405
0.00103902
0.00104177
0.00104031
0.00104354
0.00104221
0.00119014
0.0011975
0.0155343
0.0161897
0.00104037
0.0010389
0.00104174
0.0010403
0.00104379
0.00104243
0.00124842
0.00125908
0.0156332
0.0163042
0.00104057
0.00103914
0.0010423
0.00104085
0.00104542
0.00104409
0.00137296
0.00139014
0.0156544
0.0163469
0.00104101
0.00103959
0.00104306
0.00104158
0.00104967
0.00104839
0.00153983
0.00156227
0.0154779
0.0161821
0.00104144
0.00103995
0.00104347
0.00104187
0.00105725
0.00105604
0.00131858
0.00132695
0.0136082
0.0141453
0.00103613
0.00103613
0.00104467
0.0010456
0.00104577
0.00104583
0.00104584
0.00104576
0.00104565
0.00104483
0.00103328
0.00103328
0.00103689
0.00103689
0.00104851
0.00104966
0.00104981
0.00104985
0.00104984
0.00104981
0.00104971
0.00104862
0.00103399
0.00103399
0.00106184
0.00106184
0.00108183
0.00108434
0.00108497
0.00108514
0.00108512
0.00108502
0.00108433
0.00108217
0.00105931
0.00105931
0.00114412
0.00114412
0.00127534
0.00129482
0.00129847
0.00129958
0.00129965
0.00129861
0.00129554
0.00127894
0.00114465
0.00114465
0.00603729
0.00603729
0.0112357
0.0115506
0.0116268
0.0116529
0.0116538
0.0116328
0.0115685
0.0113144
0.00614191
0.00614191
)
;
        Cmu             0.09;
        kappa           0.41;
        E               9.8;
    }
    lid
    {
        type            epsilonWallFunction;
        value           nonuniform List<scalar> 
100
(
0.00861179
0.0245214
0.0263273
0.0263597
0.0263384
0.0263261
0.0263193
0.0262673
0.0248091
0.00885728
0.0135941
0.0714406
0.0762707
0.0759446
0.0757339
0.0757037
0.0758493
0.0761783
0.072455
0.0141291
0.014447
0.0733637
0.077108
0.0770017
0.0768922
0.0768775
0.0769607
0.0771286
0.0744273
0.0150196
0.0151844
0.0783751
0.0822342
0.0822981
0.0822523
0.0822461
0.0822852
0.0823214
0.079577
0.015812
0.0155343
0.0806437
0.0846113
0.0847708
0.0847636
0.0847627
0.0847749
0.0847343
0.0819149
0.0161897
0.0156332
0.0807905
0.0847424
0.08492
0.0849232
0.0849233
0.0849312
0.0848809
0.0820818
0.0163042
0.0156544
0.0795364
0.0833373
0.0835011
0.0835053
0.0835056
0.0835193
0.0834894
0.0808243
0.0163469
0.0154779
0.0747763
0.0781629
0.0783212
0.0783374
0.0783394
0.0783486
0.0783297
0.0759708
0.0161821
0.0136082
0.055696
0.0580111
0.0583343
0.0584436
0.0584488
0.0583711
0.0581494
0.0564316
0.0141453
0.00603729
0.0112357
0.0115506
0.0116268
0.0116529
0.0116538
0.0116328
0.0115685
0.0113144
0.00614191
)
;
        Cmu             0.09;
        kappa           0.41;
        E               9.8;
    }
}


// ************************************************************************* //
