/*--------------------------------*- C++ -*----------------------------------*\
| =========                 |                                                 |
| \\      /  F ield         | OpenFOAM: The Open Source CFD Toolbox           |
|  \\    /   O peration     | Version:  2.3.1                                 |
|   \\  /    A nd           | Web:      www.OpenFOAM.org                      |
|    \\/     M anipulation  |                                                 |
\*---------------------------------------------------------------------------*/
FoamFile
{
    version     2.0;
    format      ascii;
    class       volScalarField;
    location    "0.6";
    object      p;
}
// * * * * * * * * * * * * * * * * * * * * * * * * * * * * * * * * * * * * * //

dimensions      [0 2 -2 0 0 0 0];

internalField   nonuniform List<scalar> 
1000
(
-0.00512053
-0.00434691
-0.00413337
-0.00408762
-0.00402808
-0.00398711
-0.00394831
-0.00391481
-0.00388854
-0.00387742
-0.00515749
-0.00491096
-0.00480984
-0.00477959
-0.0047445
-0.00471177
-0.00466945
-0.00462923
-0.00458995
-0.00456919
-0.00634017
-0.00630893
-0.00629954
-0.00630842
-0.00630243
-0.00627783
-0.00623208
-0.00616777
-0.00609253
-0.00603515
-0.00860864
-0.00867505
-0.00875264
-0.00881765
-0.00884426
-0.00882899
-0.00876703
-0.0086606
-0.00851292
-0.00838094
-0.0120807
-0.0123149
-0.0125195
-0.0126722
-0.0127459
-0.0127377
-0.0126484
-0.0124537
-0.0121784
-0.0118742
-0.00363972
-0.00345935
-0.0033628
-0.00333142
-0.00329193
-0.00325875
-0.0032252
-0.003195
-0.00317068
-0.00315551
-0.00411755
-0.00403054
-0.00397896
-0.00395853
-0.00393406
-0.00390629
-0.00387038
-0.00383292
-0.00379681
-0.00377125
-0.00530023
-0.0053003
-0.00530783
-0.0053202
-0.00531761
-0.00529643
-0.00525515
-0.00519644
-0.00512645
-0.00506381
-0.00729192
-0.0073793
-0.00745898
-0.00752219
-0.00754831
-0.00753435
-0.00747867
-0.00737829
-0.00724238
-0.00710131
-0.0102021
-0.010443
-0.0106373
-0.0107795
-0.0108467
-0.0108408
-0.0107565
-0.0105828
-0.0103249
-0.0100178
-0.00199969
-0.0019588
-0.00191067
-0.00189122
-0.00186839
-0.00184476
-0.00181881
-0.00179472
-0.00177537
-0.00176164
-0.00244267
-0.00242222
-0.00240019
-0.00238943
-0.0023744
-0.00235399
-0.00232555
-0.00229558
-0.00226651
-0.00224374
-0.00340389
-0.00342329
-0.00343892
-0.00345236
-0.00345194
-0.00343547
-0.00340256
-0.0033552
-0.00329946
-0.0032458
-0.00494244
-0.00502316
-0.00509213
-0.00514386
-0.00516457
-0.00515335
-0.00510853
-0.00502909
-0.00491974
-0.00480195
-0.00709151
-0.00730421
-0.00745927
-0.00756851
-0.00761898
-0.00761285
-0.00754861
-0.00741323
-0.00721285
-0.00695138
4.02863e-06
1.85224e-05
4.21389e-05
5.71269e-05
7.28797e-05
8.9713e-05
0.000108103
0.000124891
0.00013777
0.000146874
-0.000293121
-0.000285672
-0.000275018
-0.000266917
-0.000255735
-0.000240704
-0.000221054
-0.000200291
-0.00018116
-0.000166755
-0.000922985
-0.000936122
-0.000947184
-0.000954939
-0.000953015
-0.0009407
-0.000917812
-0.000885974
-0.000849359
-0.0008154
-0.00191175
-0.00196228
-0.00200662
-0.0020389
-0.00205056
-0.00204183
-0.00201162
-0.00195912
-0.0018887
-0.00181428
-0.00326599
-0.00339202
-0.00348727
-0.00355376
-0.00358324
-0.00357832
-0.00353651
-0.00345188
-0.00332621
-0.0031681
0.00230283
0.00231008
0.00232482
0.00233817
0.00235156
0.00236396
0.00237568
0.00238502
0.00239112
0.00239467
0.00218366
0.00218907
0.00219873
0.00220851
0.00221965
0.00223087
0.00224271
0.00225358
0.00226266
0.00226859
0.00193093
0.0019282
0.00192817
0.00193022
0.0019364
0.00194568
0.00195833
0.00197363
0.00199007
0.00200535
0.001527
0.0015082
0.00149232
0.00148235
0.00148139
0.00148793
0.00150297
0.00152697
0.00155842
0.00159063
0.000961918
0.000909551
0.000869678
0.000843238
0.000833581
0.000837336
0.000856166
0.000893911
0.000948943
0.00101718
0.00471339
0.00472389
0.00473979
0.00475575
0.0047701
0.00477977
0.00478558
0.00478722
0.00478594
0.00478408
0.00479067
0.00480084
0.00481655
0.00483181
0.00484653
0.00485501
0.00485968
0.00486011
0.00485793
0.00485657
0.00493947
0.00495089
0.00496672
0.00498207
0.00499487
0.0050021
0.00500465
0.00500264
0.00499814
0.00499406
0.00513909
0.00515308
0.00516859
0.00518319
0.00519441
0.00519932
0.00519906
0.00519398
0.00518639
0.00517666
0.00536515
0.00537888
0.00539103
0.00540357
0.00541275
0.00541512
0.00541226
0.00540467
0.00539564
0.0053832
0.00704066
0.00705827
0.00708038
0.00710214
0.00711892
0.0071272
0.00712758
0.00712121
0.00711236
0.007104
0.00731995
0.00733916
0.00736546
0.00739022
0.00740842
0.00741601
0.00741388
0.00740336
0.00738918
0.00737803
0.00788104
0.00791204
0.00794839
0.00798042
0.00800145
0.00800757
0.00799984
0.00797908
0.00795167
0.00792413
0.00869719
0.00875252
0.00880536
0.00884882
0.00887426
0.00887823
0.00886174
0.00882492
0.00877443
0.00871467
0.00971738
0.00981179
0.00988473
0.00994197
0.00997255
0.009974
0.00994755
0.0098904
0.00981037
0.00970289
0.00907727
0.00910327
0.00913397
0.00916314
0.00918347
0.0091909
0.00918619
0.00917203
0.00915518
0.00913983
0.00955377
0.00958651
0.00962613
0.00966203
0.0096856
0.00969249
0.00968369
0.0096616
0.00963428
0.00960956
0.0105263
0.0105849
0.0106463
0.0106978
0.0107285
0.0107341
0.0107156
0.0106747
0.0106208
0.0105623
0.0119736
0.0120902
0.0121892
0.0122668
0.0123089
0.0123122
0.0122787
0.0122059
0.0121052
0.0119776
0.0138224
0.0140431
0.014195
0.0143075
0.0143636
0.0143651
0.0143117
0.0141964
0.0140285
0.0137828
0.0106182
0.0106502
0.0106892
0.0107253
0.0107491
0.0107561
0.0107473
0.0107263
0.0107021
0.0106821
0.0112723
0.0113144
0.0113674
0.0114139
0.0114428
0.0114493
0.0114346
0.0114021
0.0113615
0.0113271
0.0126309
0.0127172
0.012805
0.0128761
0.0129165
0.0129217
0.0128934
0.0128325
0.0127511
0.0126634
0.0147175
0.0149042
0.0150553
0.0151689
0.0152282
0.0152322
0.0151805
0.0150714
0.0149147
0.0147145
0.0174706
0.0178762
0.0181233
0.0183003
0.0183846
0.0183856
0.0183055
0.0181228
0.0178558
0.0174188
0.0114528
0.0114831
0.0115274
0.0115677
0.0115936
0.0116006
0.0115893
0.0115642
0.0115345
0.0115157
0.0122309
0.0122756
0.0123385
0.0123919
0.0124243
0.0124308
0.0124123
0.0123725
0.0123214
0.0122833
0.0139023
0.0140083
0.0141191
0.0142048
0.0142521
0.0142578
0.0142217
0.0141459
0.0140393
0.0139319
0.0166331
0.0169058
0.0171108
0.0172563
0.0173292
0.0173329
0.0172685
0.0171258
0.0169156
0.0166295
0.0207135
0.0214165
0.0217835
0.0220235
0.0221316
0.0221341
0.0220284
0.021781
0.0213981
0.0206636
0.0265633
0.0285115
0.02912
0.0294824
0.0296138
0.0296111
0.0294716
0.029091
0.0284651
0.0264606
0.0403879
0.0432378
0.0443415
0.0451376
0.0454706
0.0454722
0.0451243
0.044292
0.0432012
0.0403021
0.0327788
0.0442683
0.0447693
0.0451925
0.0450984
0.0450679
0.0451328
0.0446459
0.0442865
0.0328274
0.0976804
0.121169
0.12763
0.129986
0.130735
0.130748
0.130003
0.127706
0.121678
0.0983513
-0.0102121
-0.0255044
-0.0259469
-0.0269848
-0.0271266
-0.0271208
-0.0269464
-0.0258357
-0.02561
-0.0103169
0.0202034
0.0209643
0.0212262
0.0214018
0.0214796
0.0214788
0.0213879
0.0211884
0.0208958
0.0200768
0.0307921
0.0324062
0.033298
0.033909
0.0342051
0.0342005
0.0339025
0.0332721
0.0323357
0.0306976
0.0140199
0.014756
0.0140349
0.0134192
0.0132381
0.0132227
0.0133637
0.0138561
0.014547
0.0138284
0.0358195
0.0386227
0.0400893
0.042497
0.0434108
0.0434351
0.0425611
0.0401976
0.0384759
0.0358891
-0.000799962
-0.0122265
-0.0132477
-0.0142123
-0.0143776
-0.0143782
-0.0141891
-0.013162
-0.0120273
-0.000785304
0.015608
0.0159245
0.0160391
0.0161237
0.0161618
0.0161597
0.0161128
0.0160091
0.0158658
0.0155084
0.0233957
0.0242515
0.0248129
0.0252304
0.0254402
0.0254396
0.0252242
0.0247949
0.024211
0.0233364
0.0126589
0.0130028
0.0127126
0.0125157
0.0123893
0.0123726
0.0124644
0.0126043
0.0128613
0.0125243
0.0340342
0.0348596
0.035344
0.0361202
0.0364952
0.036507
0.0361557
0.0353932
0.0349045
0.0341656
0.00913993
0.00451461
0.00416914
0.00380095
0.00377129
0.00376879
0.0038013
0.00420435
0.00456941
0.0092002
0.0107441
0.0108489
0.0108836
0.0109172
0.0109338
0.0109322
0.0109118
0.0108671
0.0108156
0.0106909
0.0151043
0.0155056
0.0158108
0.016051
0.0161756
0.0161754
0.0160474
0.0158015
0.0154866
0.0150772
0.00921519
0.00918811
0.00903863
0.00897642
0.00892317
0.00891067
0.00894108
0.00897205
0.00910025
0.00913197
0.0214281
0.0225624
0.0230763
0.02358
0.0238246
0.0238313
0.0236002
0.023115
0.0226379
0.0215391
0.00961022
0.00842824
0.00844504
0.00837334
0.00838254
0.00837651
0.00836116
0.00844786
0.00844312
0.00963755
0.00556092
0.00555098
0.00553517
0.00553146
0.00553254
0.00553256
0.00553202
0.00553383
0.00554822
0.00555812
0.00657898
0.00660914
0.00665821
0.00671463
0.00674839
0.0067469
0.00671156
0.00665167
0.00660071
0.00657698
0.00533006
0.00519617
0.00510814
0.00507524
0.00505942
0.0050541
0.00505729
0.00507529
0.00516156
0.0053051
0.00879328
0.00874289
0.00877813
0.00890723
0.0089824
0.00898074
0.00890743
0.00878747
0.00876186
0.00882763
0.00649315
0.0062784
0.00634375
0.00636497
0.00637802
0.00637035
0.0063419
0.00631993
0.0062441
0.00643952
0.000269492
0.000168917
0.000114631
8.30799e-05
7.1263e-05
7.25403e-05
9.0189e-05
0.000128752
0.000199556
0.000321846
-0.00226095
-0.00263682
-0.00285781
-0.00299096
-0.00304682
-0.00304779
-0.00299786
-0.00287236
-0.00264658
-0.00224864
0.00155059
0.0013041
0.00128773
0.00133488
0.00137986
0.00137836
0.00133868
0.00128889
0.00132189
0.00159155
-0.00477413
-0.00667873
-0.00725268
-0.00758288
-0.00770956
-0.00771601
-0.00761285
-0.00728615
-0.00673124
-0.00482557
0.00254687
0.00286979
0.00297084
0.00308647
0.00311953
0.00310887
0.00306947
0.00294036
0.00277103
0.00238859
-0.00467256
-0.00485786
-0.00492955
-0.00497582
-0.00499623
-0.00499265
-0.00496444
-0.00489869
-0.00479181
-0.00456067
-0.011814
-0.0127178
-0.0132336
-0.0135765
-0.0137453
-0.0137534
-0.0135918
-0.0132551
-0.0127276
-0.0117844
-0.00158534
-0.00166737
-0.00152398
-0.00152827
-0.00152374
-0.00152021
-0.00153653
-0.00152668
-0.00158001
-0.0014642
-0.0221362
-0.0285991
-0.0301951
-0.0310531
-0.0313292
-0.0313504
-0.0310958
-0.0302374
-0.0288528
-0.0224454
-0.000927081
0.000456472
0.000743346
0.00106963
0.001173
0.00118136
0.00107493
0.000682192
0.000399965
-0.00103464
-0.00862959
-0.00883745
-0.00887967
-0.00891443
-0.00893169
-0.00892988
-0.0088984
-0.00883505
-0.00872631
-0.00843917
-0.0222538
-0.0237104
-0.0245298
-0.0251118
-0.0253941
-0.0254019
-0.0251453
-0.0245764
-0.0237181
-0.0222142
-0.00223364
-0.00210049
-0.00164367
-0.00165932
-0.00167594
-0.00168647
-0.00166991
-0.00160077
-0.00206394
-0.0022544
-0.0491505
-0.0607596
-0.063608
-0.0654381
-0.0659984
-0.06601
-0.0654939
-0.0638577
-0.0610584
-0.0496291
-0.00111356
0.00358972
0.00478689
0.00569308
0.0059122
0.00592113
0.0057017
0.00488462
0.0035573
-0.00108867
-0.0109552
-0.0110821
-0.0110387
-0.0110399
-0.011043
-0.0110379
-0.0110229
-0.0109724
-0.0109302
-0.0107025
-0.0319655
-0.0337482
-0.0347855
-0.0355585
-0.0359372
-0.0359518
-0.0355903
-0.034825
-0.0337872
-0.0320012
-0.000427896
-0.000275758
0.000250762
0.000410375
0.000501603
0.000507807
0.000435033
0.000280899
-0.000221719
-0.00055075
-0.0764978
-0.090313
-0.0937006
-0.096234
-0.0971987
-0.0972226
-0.0963357
-0.0938799
-0.0908195
-0.0778096
0.00287066
0.0134464
0.0158103
0.017132
0.0174835
0.0174878
0.0171631
0.0158165
0.0136582
0.00379502
-0.0117757
-0.0116818
-0.0115263
-0.011476
-0.0114546
-0.0114506
-0.0114471
-0.0114393
-0.0114997
-0.0114905
-0.0389937
-0.0407475
-0.0418495
-0.0426601
-0.0430653
-0.0430757
-0.0426845
-0.0418777
-0.0407734
-0.0390031
0.000924086
0.00200898
0.00282321
0.00311863
0.00328936
0.00330418
0.00316114
0.00289002
0.00207391
0.000926803
-0.100347
-0.111254
-0.114228
-0.116703
-0.11771
-0.117738
-0.116795
-0.114452
-0.111665
-0.101053
0.0109184
0.0241691
0.0261825
0.0275753
0.0278846
0.0278876
0.0275761
0.0261836
0.0243697
0.0112039
)
;

boundaryField
{
    walls
    {
        type            zeroGradient;
    }
    lid
    {
        type            zeroGradient;
    }
}


// ************************************************************************* //
