/*--------------------------------*- C++ -*----------------------------------*\
| =========                 |                                                 |
| \\      /  F ield         | OpenFOAM: The Open Source CFD Toolbox           |
|  \\    /   O peration     | Version:  2.3.1                                 |
|   \\  /    A nd           | Web:      www.OpenFOAM.org                      |
|    \\/     M anipulation  |                                                 |
\*---------------------------------------------------------------------------*/
FoamFile
{
    version     2.0;
    format      ascii;
    class       volScalarField;
    location    "0.84";
    object      epsilon;
}
// * * * * * * * * * * * * * * * * * * * * * * * * * * * * * * * * * * * * * //

dimensions      [0 2 -3 0 0 0 0];

internalField   nonuniform List<scalar> 
1000
(
0.000863982
0.000894277
0.000895211
0.00089519
0.000895175
0.000895169
0.000895161
0.000895157
0.000895051
0.000892483
0.000895614
0.000904583
0.000905314
0.000905345
0.000905347
0.000905343
0.000905328
0.000905288
0.000904561
0.000894216
0.000898703
0.000907823
0.000908693
0.000908752
0.000908765
0.000908757
0.00090873
0.000908667
0.000907798
0.000896196
0.000901329
0.00091135
0.000912359
0.000912474
0.000912509
0.000912504
0.000912458
0.000912353
0.000911371
0.000898921
0.000903453
0.00091511
0.000916286
0.000916446
0.000916496
0.00091649
0.000916452
0.000916309
0.000915208
0.000901145
0.00089491
0.000902262
0.000902995
0.000903091
0.000903119
0.000903132
0.000903134
0.000903115
0.000902525
0.000894135
0.000903275
0.000607827
0.000591153
0.000590396
0.000590352
0.00059033
0.000590312
0.000590839
0.000606807
0.000901967
0.000905713
0.000587922
0.000569431
0.000568639
0.00056862
0.000568617
0.00056862
0.000569256
0.000587094
0.000904374
0.000908129
0.000587166
0.00056846
0.000567662
0.000567645
0.000567644
0.000567653
0.000568308
0.000586439
0.000906804
0.000910518
0.000590033
0.00057119
0.000570508
0.000570553
0.000570556
0.000570511
0.000571062
0.00058938
0.000909226
0.000897558
0.000904271
0.000905012
0.000905103
0.000905137
0.000905154
0.000905159
0.000905137
0.000904478
0.000895527
0.000904955
0.000590723
0.00057251
0.000571704
0.00057167
0.000571655
0.000571646
0.000572253
0.000589793
0.000903739
0.000907102
0.000569843
0.000549506
0.000548604
0.000548582
0.000548581
0.00054859
0.000549318
0.000568936
0.000905928
0.000909185
0.000569224
0.000548658
0.000547752
0.000547734
0.000547734
0.000547742
0.000548481
0.000568365
0.000907999
0.000911597
0.00057077
0.00055003
0.000549175
0.000549187
0.000549187
0.000549171
0.000549863
0.000569951
0.000910418
0.000898671
0.000905347
0.000906066
0.000906143
0.000906175
0.00090619
0.000906195
0.00090617
0.000905505
0.000896511
0.00090588
0.000588616
0.000570336
0.000569546
0.000569519
0.00056951
0.00056951
0.000570134
0.000587851
0.000904651
0.000907784
0.000568701
0.000548315
0.00054741
0.000547387
0.000547386
0.000547398
0.000548134
0.00056785
0.000906622
0.000909603
0.000568206
0.000547626
0.000546721
0.000546703
0.000546703
0.000546711
0.000547449
0.000567368
0.000908422
0.000911888
0.000568952
0.000548229
0.000547336
0.000547327
0.000547327
0.000547327
0.000548055
0.000568129
0.000910699
0.000899276
0.000905937
0.000906638
0.000906704
0.00090673
0.000906743
0.000906746
0.000906718
0.000906049
0.000897025
0.000906416
0.000587147
0.000568826
0.000568038
0.000568012
0.000568007
0.000568015
0.000568654
0.000586467
0.000905145
0.000908175
0.000568362
0.000548018
0.000547117
0.000547094
0.000547093
0.000547107
0.000547843
0.000567552
0.000906991
0.000909851
0.00056796
0.000547472
0.000546575
0.000546557
0.000546557
0.000546565
0.000547298
0.000567148
0.000908655
0.00091202
0.000568392
0.000547831
0.000546936
0.00054692
0.00054692
0.000546925
0.000547655
0.000567585
0.000910811
0.000899366
0.000906254
0.000906968
0.000907033
0.000907058
0.000907068
0.000907068
0.000907033
0.000906344
0.000897071
0.000906543
0.000586255
0.000567911
0.00056713
0.000567109
0.00056711
0.000567124
0.000567772
0.000585647
0.000905245
0.000908311
0.000568247
0.000547937
0.000547043
0.00054702
0.000547021
0.000547035
0.000547769
0.000567471
0.000907109
0.000910019
0.000567922
0.000547503
0.000546615
0.000546598
0.000546599
0.000546606
0.000547332
0.000567138
0.000908809
0.000912214
0.00056831
0.000547883
0.000547001
0.000546987
0.000546987
0.00054699
0.000547708
0.000567524
0.00091099
0.000898976
0.000906427
0.000907183
0.000907252
0.000907276
0.000907283
0.000907278
0.000907233
0.000906501
0.000896653
0.000906277
0.000586251
0.000567922
0.000567143
0.000567122
0.000567123
0.000567138
0.000567784
0.000585657
0.000904952
0.000908226
0.000568436
0.000548162
0.000547274
0.000547254
0.000547255
0.000547266
0.000547995
0.000567672
0.000906998
0.000910173
0.00056821
0.000547834
0.000546956
0.000546942
0.000546943
0.000546947
0.000547663
0.000567431
0.000908935
0.000912613
0.000568866
0.000548517
0.000547662
0.000547658
0.000547658
0.000547651
0.000548341
0.000568082
0.000911359
0.000898086
0.000906054
0.000906849
0.000906924
0.000906947
0.000906954
0.000906943
0.000906888
0.000906117
0.000895747
0.000905571
0.0005874
0.000569214
0.000568448
0.00056843
0.000568432
0.000568444
0.00056908
0.000586826
0.000904221
0.000907823
0.000570069
0.00055
0.000549138
0.000549125
0.000549127
0.000549132
0.000549838
0.000569329
0.000906567
0.000910155
0.000570323
0.000550213
0.000549377
0.000549377
0.000549379
0.000549371
0.000550047
0.000569572
0.000908884
0.000913059
0.000572258
0.000552347
0.000551602
0.000551636
0.000551639
0.000551593
0.00055218
0.000571513
0.000911767
0.00089664
0.00090435
0.000905092
0.000905163
0.000905187
0.00090519
0.000905176
0.00090512
0.000904393
0.000894277
0.000903872
0.000608326
0.000592055
0.000591422
0.000591426
0.000591432
0.000591429
0.000591961
0.000607925
0.000902421
0.000906433
0.000594447
0.000576738
0.00057607
0.000576096
0.000576102
0.000576078
0.000576626
0.000593921
0.000905059
0.000909205
0.000597894
0.000580483
0.000579926
0.000579993
0.000580001
0.000579933
0.000580372
0.000597374
0.0009078
0.000912819
0.000606954
0.000590527
0.000590287
0.000590459
0.000590465
0.000590295
0.000590425
0.000606492
0.000911382
0.000892632
0.000892932
0.000892974
0.000892989
0.000892995
0.000892998
0.000892992
0.000892979
0.000892862
0.000890125
0.000894628
0.000901587
0.000902304
0.000902376
0.000902397
0.0009024
0.000902382
0.000902324
0.000901629
0.000892194
0.000897081
0.000904715
0.000905579
0.000905699
0.000905739
0.000905744
0.000905705
0.0009056
0.000904766
0.000894648
0.000900371
0.00090819
0.000909172
0.000909356
0.000909423
0.000909427
0.000909358
0.00090918
0.000908218
0.000897931
0.000905502
0.000914062
0.000915291
0.000915577
0.000915667
0.000915667
0.000915569
0.000915271
0.000914075
0.000903101
0.00091771
0.000936165
0.000939168
0.00093932
0.000939261
0.000939252
0.000939272
0.000939114
0.000936468
0.000915547
0.000968
0.00118014
0.00121128
0.00120196
0.0011975
0.00119727
0.00120119
0.00121052
0.00118649
0.000968996
0.00149012
0.00403885
0.00441143
0.00426835
0.00421017
0.00420726
0.00425823
0.00440177
0.00411088
0.00152349
0.00528292
0.0242861
0.0273977
0.0269051
0.0266414
0.0266229
0.0268444
0.027349
0.0247187
0.00550689
0.0216783
0.110204
0.126635
0.12732
0.127044
0.12698
0.127129
0.126522
0.111778
0.0224607
0.000918459
0.000626221
0.00061189
0.000612116
0.00061237
0.000612374
0.000612121
0.000611809
0.000625943
0.000917046
0.000926802
0.000694635
0.000688355
0.000689298
0.000689335
0.000689314
0.000689248
0.000688319
0.000695556
0.000925694
0.000986269
0.00119925
0.0012461
0.00122564
0.00121741
0.00121706
0.00122437
0.00124527
0.00121073
0.000988351
0.00189336
0.0119939
0.0129626
0.011953
0.0115753
0.0115654
0.0119203
0.0129462
0.0122253
0.00194213
0.0357803
0.266402
0.297288
0.29824
0.297704
0.297612
0.297981
0.297318
0.269676
0.0371914
0.0009162
0.000576063
0.000556659
0.000556118
0.000556223
0.000556225
0.000556111
0.000556498
0.000575365
0.000914954
0.000920355
0.000583724
0.000565479
0.000565127
0.000565209
0.000565209
0.000565117
0.000565336
0.000583221
0.000919196
0.0009312
0.000698017
0.000694271
0.000695665
0.000695954
0.000695936
0.000695629
0.000694375
0.000699839
0.000930615
0.00144139
0.00722386
0.00783083
0.0077764
0.0077439
0.00774211
0.0077721
0.00783805
0.00733715
0.00146585
0.0378771
0.275331
0.298876
0.298935
0.298401
0.29836
0.298838
0.299189
0.278756
0.0393547
0.000914353
0.000570022
0.000549797
0.000549039
0.000549078
0.000549078
0.000549027
0.000549622
0.000569248
0.000913127
0.000918004
0.000570061
0.000549889
0.000549055
0.000549042
0.000549041
0.00054904
0.000549711
0.000569329
0.000916831
0.000924541
0.000654986
0.000642436
0.000642276
0.000642676
0.000642709
0.000642357
0.000642583
0.000655986
0.000923816
0.00139193
0.00726377
0.00784759
0.00787621
0.00787426
0.00787384
0.00787635
0.0078618
0.0073772
0.00141427
0.0413131
0.301818
0.32599
0.327076
0.326931
0.326919
0.327082
0.326532
0.305711
0.0429903
0.0009133
0.000569112
0.000548755
0.000547953
0.000547979
0.000547979
0.000547943
0.000548582
0.000568333
0.000912084
0.000916831
0.000568171
0.000547697
0.000546788
0.000546758
0.000546757
0.000546773
0.000547519
0.000567403
0.000915656
0.000921719
0.000640548
0.000627362
0.000627687
0.000628264
0.000628299
0.000627815
0.000627571
0.000641429
0.00092092
0.00141965
0.00807235
0.00874511
0.00884702
0.00887488
0.00887527
0.00885162
0.00876961
0.00820581
0.00144486
0.0430085
0.311769
0.336251
0.337804
0.337845
0.337847
0.337863
0.336904
0.315855
0.0447863
0.0009131
0.000569682
0.000549136
0.000548336
0.000548368
0.000548369
0.000548327
0.000548967
0.000568892
0.000911898
0.000916921
0.000568791
0.000547667
0.000546721
0.00054669
0.000546688
0.000546709
0.00054749
0.000568003
0.000915756
0.000922562
0.00064927
0.000639149
0.000640764
0.000641559
0.000641577
0.000640861
0.000639373
0.000650303
0.000921775
0.00175095
0.0102644
0.011251
0.011607
0.011733
0.011736
0.0116227
0.0112946
0.0104296
0.00179285
0.0436116
0.308084
0.331742
0.333257
0.333322
0.333326
0.333345
0.33244
0.312131
0.0454394
0.000913604
0.000571346
0.000550575
0.000549804
0.00054986
0.000549862
0.000549802
0.000550415
0.000570557
0.000912435
0.000917812
0.00057095
0.000548972
0.000548043
0.000548025
0.000548027
0.000548037
0.000548806
0.000570157
0.000916648
0.000928054
0.000673642
0.000666027
0.000670818
0.000672929
0.000672985
0.00067106
0.000666473
0.000674873
0.000927455
0.00219861
0.0093985
0.0103025
0.0108932
0.0111562
0.0111635
0.0109216
0.0103518
0.00951863
0.00225715
0.0436911
0.290723
0.311859
0.313385
0.313516
0.313527
0.313507
0.312569
0.294414
0.0455055
0.000914869
0.000574001
0.000553053
0.000552299
0.000552368
0.000552373
0.000552302
0.000552905
0.000573226
0.000913718
0.000918646
0.000578086
0.000555682
0.000555043
0.000555134
0.000555138
0.000555054
0.000555543
0.000577346
0.000917466
0.000938077
0.000692124
0.00068311
0.000687665
0.000689762
0.000689822
0.000687895
0.000683512
0.000693109
0.000937577
0.00219731
0.00677988
0.00741077
0.00760583
0.0076817
0.00768331
0.00761475
0.00743467
0.00687138
0.00223122
0.0407574
0.238644
0.254181
0.256087
0.256621
0.256645
0.256249
0.254794
0.24131
0.042296
0.000916377
0.00059224
0.000572901
0.000572195
0.00057224
0.000572244
0.000572201
0.000572778
0.000591614
0.000915151
0.000917906
0.000613762
0.000594041
0.000594265
0.000594634
0.000594648
0.000594304
0.000593992
0.000613331
0.000916626
0.000948153
0.000739123
0.000728276
0.00073111
0.000732487
0.00073252
0.000731245
0.000728509
0.000739817
0.000947539
0.00150124
0.00434468
0.00471131
0.00477582
0.0047978
0.00479788
0.00477824
0.00472167
0.00439743
0.00152076
0.029169
0.141538
0.149578
0.15089
0.151341
0.151359
0.150993
0.149913
0.14284
0.0299977
0.000910412
0.000925173
0.000927006
0.000927406
0.000927562
0.000927577
0.000927419
0.000927087
0.000925384
0.00090808
0.000905891
0.000929287
0.000932029
0.000932426
0.000932542
0.000932549
0.000932463
0.000932139
0.000929549
0.000903534
0.00095196
0.000989052
0.000994043
0.000995374
0.000995803
0.000995798
0.000995441
0.000994146
0.000989596
0.000950012
0.00112549
0.00147347
0.00153371
0.00154377
0.00154667
0.00154669
0.00154405
0.00153518
0.00148062
0.00112926
0.009266
0.0208588
0.0217844
0.0220345
0.0221151
0.0221177
0.0220484
0.0218242
0.0210016
0.00940414
)
;

boundaryField
{
    walls
    {
        type            epsilonWallFunction;
        value           nonuniform List<scalar> 
500
(
0.000863982
0.000863982
0.000863982
0.000894277
0.000894277
0.000895211
0.000895211
0.00089519
0.00089519
0.000895175
0.000895175
0.000895169
0.000895169
0.000895161
0.000895161
0.000895157
0.000895157
0.000895051
0.000895051
0.000892483
0.000892483
0.000892483
0.000895614
0.000895614
0.000904583
0.000905314
0.000905345
0.000905347
0.000905343
0.000905328
0.000905288
0.000904561
0.000894216
0.000894216
0.000898703
0.000898703
0.000907823
0.000908693
0.000908752
0.000908765
0.000908757
0.00090873
0.000908667
0.000907798
0.000896196
0.000896196
0.000901329
0.000901329
0.00091135
0.000912359
0.000912474
0.000912509
0.000912504
0.000912458
0.000912353
0.000911371
0.000898921
0.000898921
0.000903453
0.000903453
0.00091511
0.000916286
0.000916446
0.000916496
0.00091649
0.000916452
0.000916309
0.000915208
0.000901145
0.000901145
0.00089491
0.00089491
0.000902262
0.000902995
0.000903091
0.000903119
0.000903132
0.000903134
0.000903115
0.000902525
0.000894135
0.000894135
0.000903275
0.000901967
0.000905713
0.000904374
0.000908129
0.000906804
0.000910518
0.000909226
0.000897558
0.000897558
0.000904271
0.000905012
0.000905103
0.000905137
0.000905154
0.000905159
0.000905137
0.000904478
0.000895527
0.000895527
0.000904955
0.000903739
0.000907102
0.000905928
0.000909185
0.000907999
0.000911597
0.000910418
0.000898671
0.000898671
0.000905347
0.000906066
0.000906143
0.000906175
0.00090619
0.000906195
0.00090617
0.000905505
0.000896511
0.000896511
0.00090588
0.000904651
0.000907784
0.000906622
0.000909603
0.000908422
0.000911888
0.000910699
0.000899276
0.000899276
0.000905937
0.000906638
0.000906704
0.00090673
0.000906743
0.000906746
0.000906718
0.000906049
0.000897025
0.000897025
0.000906416
0.000905145
0.000908175
0.000906991
0.000909851
0.000908655
0.00091202
0.000910811
0.000899366
0.000899366
0.000906254
0.000906968
0.000907033
0.000907058
0.000907068
0.000907068
0.000907033
0.000906344
0.000897071
0.000897071
0.000906543
0.000905245
0.000908311
0.000907109
0.000910019
0.000908809
0.000912214
0.00091099
0.000898976
0.000898976
0.000906427
0.000907183
0.000907252
0.000907276
0.000907283
0.000907278
0.000907233
0.000906501
0.000896653
0.000896653
0.000906277
0.000904952
0.000908226
0.000906998
0.000910173
0.000908935
0.000912613
0.000911359
0.000898086
0.000898086
0.000906054
0.000906849
0.000906924
0.000906947
0.000906954
0.000906943
0.000906888
0.000906117
0.000895747
0.000895747
0.000905571
0.000904221
0.000907823
0.000906567
0.000910155
0.000908884
0.000913059
0.000911767
0.00089664
0.00089664
0.00090435
0.000905092
0.000905163
0.000905187
0.00090519
0.000905176
0.00090512
0.000904393
0.000894277
0.000894277
0.000903872
0.000902421
0.000906433
0.000905059
0.000909205
0.0009078
0.000912819
0.000911382
0.000892632
0.000892632
0.000892632
0.000892932
0.000892932
0.000892974
0.000892974
0.000892989
0.000892989
0.000892995
0.000892995
0.000892998
0.000892998
0.000892992
0.000892992
0.000892979
0.000892979
0.000892862
0.000892862
0.000890125
0.000890125
0.000890125
0.000894628
0.000894628
0.000901587
0.000902304
0.000902376
0.000902397
0.0009024
0.000902382
0.000902324
0.000901629
0.000892194
0.000892194
0.000897081
0.000897081
0.000904715
0.000905579
0.000905699
0.000905739
0.000905744
0.000905705
0.0009056
0.000904766
0.000894648
0.000894648
0.000900371
0.000900371
0.00090819
0.000909172
0.000909356
0.000909423
0.000909427
0.000909358
0.00090918
0.000908218
0.000897931
0.000897931
0.000905502
0.000905502
0.000914062
0.000915291
0.000915577
0.000915667
0.000915667
0.000915569
0.000915271
0.000914075
0.000903101
0.000903101
0.00091771
0.00091771
0.000936165
0.000939168
0.00093932
0.000939261
0.000939252
0.000939272
0.000939114
0.000936468
0.000915547
0.000915547
0.000968
0.000968
0.00118014
0.00121128
0.00120196
0.0011975
0.00119727
0.00120119
0.00121052
0.00118649
0.000968996
0.000968996
0.00149012
0.00149012
0.00403885
0.00441143
0.00426835
0.00421017
0.00420726
0.00425823
0.00440177
0.00411088
0.00152349
0.00152349
0.00528292
0.00528292
0.0242861
0.0273977
0.0269051
0.0266414
0.0266229
0.0268444
0.027349
0.0247187
0.00550689
0.00550689
0.0216783
0.0216783
0.110204
0.126635
0.12732
0.127044
0.12698
0.127129
0.126522
0.111778
0.0224607
0.0224607
0.000918459
0.000917046
0.000926802
0.000925694
0.000986269
0.000988351
0.00189336
0.00194213
0.0357803
0.0371914
0.0009162
0.000914954
0.000920355
0.000919196
0.0009312
0.000930615
0.00144139
0.00146585
0.0378771
0.0393547
0.000914353
0.000913127
0.000918004
0.000916831
0.000924541
0.000923816
0.00139193
0.00141427
0.0413131
0.0429903
0.0009133
0.000912084
0.000916831
0.000915656
0.000921719
0.00092092
0.00141965
0.00144486
0.0430085
0.0447863
0.0009131
0.000911898
0.000916921
0.000915756
0.000922562
0.000921775
0.00175095
0.00179285
0.0436116
0.0454394
0.000913604
0.000912435
0.000917812
0.000916648
0.000928054
0.000927455
0.00219861
0.00225715
0.0436911
0.0455055
0.000914869
0.000913718
0.000918646
0.000917466
0.000938077
0.000937577
0.00219731
0.00223122
0.0407574
0.042296
0.000916377
0.000915151
0.000917906
0.000916626
0.000948153
0.000947539
0.00150124
0.00152076
0.029169
0.0299977
0.000910412
0.000910412
0.000925173
0.000927006
0.000927406
0.000927562
0.000927577
0.000927419
0.000927087
0.000925384
0.00090808
0.00090808
0.000905891
0.000905891
0.000929287
0.000932029
0.000932426
0.000932542
0.000932549
0.000932463
0.000932139
0.000929549
0.000903534
0.000903534
0.00095196
0.00095196
0.000989052
0.000994043
0.000995374
0.000995803
0.000995798
0.000995441
0.000994146
0.000989596
0.000950012
0.000950012
0.00112549
0.00112549
0.00147347
0.00153371
0.00154377
0.00154667
0.00154669
0.00154405
0.00153518
0.00148062
0.00112926
0.00112926
0.009266
0.009266
0.0208588
0.0217844
0.0220345
0.0221151
0.0221177
0.0220484
0.0218242
0.0210016
0.00940414
0.00940414
)
;
        Cmu             0.09;
        kappa           0.41;
        E               9.8;
    }
    lid
    {
        type            epsilonWallFunction;
        value           nonuniform List<scalar> 
100
(
0.0216783
0.110204
0.126635
0.12732
0.127044
0.12698
0.127129
0.126522
0.111778
0.0224607
0.0357803
0.266402
0.297288
0.29824
0.297704
0.297612
0.297981
0.297318
0.269676
0.0371914
0.0378771
0.275331
0.298876
0.298935
0.298401
0.29836
0.298838
0.299189
0.278756
0.0393547
0.0413131
0.301818
0.32599
0.327076
0.326931
0.326919
0.327082
0.326532
0.305711
0.0429903
0.0430085
0.311769
0.336251
0.337804
0.337845
0.337847
0.337863
0.336904
0.315855
0.0447863
0.0436116
0.308084
0.331742
0.333257
0.333322
0.333326
0.333345
0.33244
0.312131
0.0454394
0.0436911
0.290723
0.311859
0.313385
0.313516
0.313527
0.313507
0.312569
0.294414
0.0455055
0.0407574
0.238644
0.254181
0.256087
0.256621
0.256645
0.256249
0.254794
0.24131
0.042296
0.029169
0.141538
0.149578
0.15089
0.151341
0.151359
0.150993
0.149913
0.14284
0.0299977
0.009266
0.0208588
0.0217844
0.0220345
0.0221151
0.0221177
0.0220484
0.0218242
0.0210016
0.00940414
)
;
        Cmu             0.09;
        kappa           0.41;
        E               9.8;
    }
}


// ************************************************************************* //
