/*--------------------------------*- C++ -*----------------------------------*\
| =========                 |                                                 |
| \\      /  F ield         | OpenFOAM: The Open Source CFD Toolbox           |
|  \\    /   O peration     | Version:  2.3.1                                 |
|   \\  /    A nd           | Web:      www.OpenFOAM.org                      |
|    \\/     M anipulation  |                                                 |
\*---------------------------------------------------------------------------*/
FoamFile
{
    version     2.0;
    format      ascii;
    class       volScalarField;
    location    "0.84";
    object      k;
}
// * * * * * * * * * * * * * * * * * * * * * * * * * * * * * * * * * * * * * //

dimensions      [0 2 -2 0 0 0 0];

internalField   nonuniform List<scalar> 
1000
(
0.00225635
0.00230872
0.00231035
0.00231032
0.00231029
0.00231028
0.00231027
0.00231026
0.00231007
0.00230564
0.00231107
0.00232687
0.00232817
0.00232822
0.00232823
0.00232822
0.0023282
0.00232812
0.00232684
0.00230872
0.00231651
0.00233259
0.00233414
0.00233424
0.00233427
0.00233425
0.00233421
0.00233409
0.00233255
0.00231222
0.00232118
0.00233883
0.00234062
0.00234082
0.00234089
0.00234088
0.0023408
0.00234061
0.00233887
0.00231705
0.00232483
0.00234537
0.00234745
0.00234773
0.00234782
0.00234781
0.00234774
0.00234749
0.00234554
0.00232087
0.00230987
0.00232275
0.00232404
0.0023242
0.00232425
0.00232427
0.00232428
0.00232424
0.0023232
0.00230857
0.00232452
0.002649
0.00267305
0.00267445
0.00267456
0.00267459
0.00267459
0.0026737
0.00265212
0.00232228
0.00232882
0.00267845
0.00270512
0.00270667
0.00270677
0.00270677
0.00270672
0.00270563
0.00268153
0.00232653
0.00233309
0.002682
0.00270898
0.00271055
0.00271065
0.00271065
0.00271059
0.00270945
0.00268499
0.00233082
0.00233723
0.00269116
0.00271954
0.00272164
0.00272195
0.00272196
0.00272171
0.00272009
0.00269426
0.00233502
0.00231452
0.00232629
0.00232759
0.00232775
0.00232781
0.00232784
0.00232785
0.00232781
0.00232664
0.00231103
0.00232749
0.00267307
0.0026993
0.00270081
0.00270091
0.00270094
0.00270093
0.00269992
0.0026763
0.00232541
0.00233127
0.00270372
0.00273298
0.0027347
0.0027348
0.0027348
0.00273475
0.00273353
0.00270713
0.00232926
0.00233494
0.00270719
0.00273681
0.00273859
0.0027387
0.0027387
0.00273863
0.00273734
0.00271055
0.00233291
0.00233916
0.00271141
0.00274179
0.00274384
0.00274406
0.00274406
0.00274389
0.00274235
0.0027148
0.00233715
0.00231648
0.00232818
0.00232945
0.00232959
0.00232964
0.00232967
0.00232967
0.00232963
0.00232846
0.00231277
0.00232912
0.00267566
0.00270194
0.00270342
0.00270351
0.00270352
0.00270351
0.00270248
0.00267869
0.00232702
0.00233247
0.00270502
0.0027343
0.00273601
0.0027361
0.0027361
0.00273606
0.00273483
0.00270836
0.00233049
0.00233567
0.00270824
0.00273786
0.00273964
0.00273975
0.00273975
0.00273968
0.00273839
0.00271157
0.00233366
0.00233969
0.00271011
0.00274003
0.0027419
0.00274204
0.00274204
0.00274194
0.00274055
0.00271343
0.00233766
0.00231754
0.00232922
0.00233046
0.00233058
0.00233062
0.00233064
0.00233065
0.0023306
0.00232942
0.00231368
0.00233007
0.0026772
0.00270347
0.00270494
0.00270502
0.00270503
0.00270501
0.00270397
0.0026801
0.00232789
0.00233316
0.00270515
0.00273433
0.00273603
0.00273612
0.00273612
0.00273608
0.00273486
0.00270843
0.00233114
0.00233611
0.00270811
0.00273758
0.00273934
0.00273945
0.00273945
0.00273938
0.0027381
0.0027114
0.00233407
0.00233993
0.00270931
0.00273885
0.00274063
0.00274075
0.00274075
0.00274067
0.00273935
0.00271257
0.00233787
0.0023177
0.00232979
0.00233104
0.00233116
0.0023312
0.00233122
0.00233122
0.00233116
0.00232994
0.00231376
0.00233029
0.00267833
0.00270463
0.0027061
0.00270617
0.00270618
0.00270615
0.00270509
0.00268115
0.00232807
0.0023334
0.00270544
0.00273458
0.00273628
0.00273637
0.00273638
0.00273633
0.0027351
0.00270867
0.00233135
0.00233641
0.0027083
0.00273769
0.00273944
0.00273956
0.00273956
0.00273949
0.0027382
0.00271155
0.00233434
0.00234028
0.00270958
0.00273897
0.00274074
0.00274086
0.00274086
0.00274078
0.00273946
0.00271279
0.00233819
0.00231701
0.0023301
0.00233144
0.00233156
0.0023316
0.00233162
0.00233161
0.00233153
0.00233023
0.00231302
0.00232982
0.00267882
0.00270514
0.00270662
0.00270669
0.0027067
0.00270666
0.00270559
0.00268161
0.00232755
0.00233325
0.00270588
0.00273502
0.00273674
0.00273683
0.00273684
0.00273678
0.00273554
0.00270909
0.00233116
0.00233668
0.00270887
0.00273826
0.00274003
0.00274015
0.00274016
0.00274008
0.00273876
0.00271209
0.00233457
0.00234097
0.00271078
0.00274025
0.0027421
0.00274224
0.00274225
0.00274213
0.00274074
0.00271396
0.00233883
0.00231544
0.00232946
0.00233087
0.002331
0.00233104
0.00233105
0.00233103
0.00233093
0.00232957
0.00231142
0.00232857
0.00267787
0.00270409
0.00270557
0.00270565
0.00270565
0.00270561
0.00270453
0.00268063
0.00232626
0.00233254
0.00270468
0.00273365
0.00273537
0.00273547
0.00273548
0.00273542
0.00273416
0.00270784
0.0023304
0.00233665
0.00270767
0.00273686
0.00273865
0.00273878
0.00273879
0.0027387
0.00273736
0.00271083
0.00233448
0.00234175
0.00271069
0.00274012
0.00274209
0.00274229
0.0027423
0.00274212
0.00274059
0.00271378
0.00233955
0.00231288
0.00232646
0.00232777
0.0023279
0.00232794
0.00232795
0.00232792
0.00232782
0.00232653
0.00230882
0.00232558
0.00265131
0.0026751
0.0026764
0.00267647
0.00267647
0.00267643
0.00267547
0.00265371
0.00232309
0.00233009
0.00267453
0.00270057
0.00270206
0.00270213
0.00270214
0.00270209
0.00270099
0.00267725
0.00232774
0.00233498
0.00267559
0.00270162
0.00270316
0.00270324
0.00270325
0.00270317
0.00270202
0.00267826
0.00233257
0.00234133
0.00267828
0.00270455
0.00270641
0.00270662
0.00270662
0.00270642
0.00270491
0.00268085
0.00233887
0.00230591
0.00230644
0.00230652
0.00230655
0.00230656
0.00230656
0.00230655
0.00230653
0.00230632
0.00230159
0.00230944
0.00232162
0.00232289
0.00232301
0.00232305
0.00232306
0.00232302
0.00232292
0.00232169
0.00230526
0.00231379
0.00232714
0.00232867
0.00232888
0.00232895
0.00232896
0.00232889
0.0023287
0.00232723
0.00230961
0.00231961
0.00233329
0.00233502
0.00233535
0.00233547
0.00233547
0.00233535
0.00233503
0.00233334
0.00231543
0.00232869
0.00234375
0.00234594
0.00234645
0.00234661
0.00234661
0.00234643
0.00234591
0.00234378
0.00232459
0.00235046
0.00238504
0.00239075
0.00239095
0.00239081
0.00239078
0.00239086
0.00239065
0.00238566
0.00234682
0.00244362
0.00282965
0.00288595
0.00286938
0.00286143
0.00286101
0.00286799
0.00288466
0.00284087
0.00244592
0.00331654
0.00665621
0.00708598
0.0069287
0.0068635
0.00686022
0.00691746
0.00707567
0.00673753
0.00336914
0.00782023
0.0219617
0.023857
0.0235776
0.0234232
0.0234124
0.0235423
0.0238301
0.0222227
0.00804312
0.0199349
0.0595473
0.0654317
0.0656826
0.0655881
0.0655663
0.0656176
0.065396
0.0601125
0.020415
0.00235133
0.002681
0.00270715
0.00270908
0.00270921
0.00270921
0.00270906
0.00270743
0.00268348
0.00234893
0.00236645
0.0027763
0.00281627
0.00282023
0.00282013
0.00282008
0.00282014
0.00281668
0.00278082
0.00236462
0.00247432
0.00349599
0.00361483
0.00361202
0.00360761
0.00360725
0.00361084
0.00361496
0.00351196
0.00247832
0.00388733
0.00972012
0.0102528
0.00986949
0.00972258
0.00971804
0.00985549
0.010247
0.00983536
0.00395589
0.0278384
0.106448
0.114637
0.114904
0.11477
0.114747
0.114839
0.114649
0.107312
0.0285648
0.00234733
0.00271465
0.00274477
0.00274715
0.0027475
0.0027475
0.00274718
0.00274523
0.00271776
0.00234521
0.00235469
0.00271981
0.00275063
0.00275304
0.00275317
0.00275317
0.00275306
0.0027511
0.00272317
0.00235272
0.00237422
0.0029093
0.00296838
0.00297873
0.00298081
0.00298082
0.00297886
0.00296954
0.00291613
0.0023733
0.00321661
0.0071047
0.00745312
0.00744828
0.00743939
0.0074386
0.0074467
0.00745788
0.00716552
0.00325412
0.0289039
0.10888
0.115096
0.115123
0.114986
0.114976
0.115099
0.11518
0.109774
0.0296497
0.00234408
0.0027142
0.00274437
0.00274656
0.00274685
0.00274685
0.00274659
0.00274487
0.00271742
0.00234199
0.00235055
0.0027104
0.00273981
0.00274159
0.00274166
0.00274165
0.00274161
0.00274027
0.00271363
0.00234855
0.00236233
0.00280273
0.00284092
0.00284463
0.00284543
0.00284546
0.00284477
0.00284179
0.0028077
0.00236114
0.00313937
0.00690563
0.00722029
0.00724269
0.00724459
0.00724444
0.00724303
0.00722787
0.00696437
0.00317401
0.0306551
0.115774
0.121969
0.122253
0.122219
0.122216
0.122256
0.122106
0.116759
0.0314776
0.00234221
0.00271264
0.00274274
0.00274483
0.00274509
0.00274509
0.00274487
0.00274325
0.00271591
0.00234013
0.0023485
0.00270792
0.00273716
0.00273883
0.00273888
0.00273887
0.00273885
0.00273764
0.00271115
0.00234649
0.00235731
0.00277919
0.00281515
0.0028182
0.00281883
0.00281885
0.00281835
0.00281597
0.00278388
0.00235599
0.00318859
0.00713234
0.0074619
0.00750651
0.0075182
0.00751839
0.00750846
0.00747298
0.00719677
0.0032277
0.0314964
0.118255
0.124458
0.124852
0.124864
0.124864
0.124868
0.12462
0.119275
0.0323564
0.00234186
0.00271364
0.00274419
0.00274637
0.00274666
0.00274666
0.00274641
0.00274473
0.00271698
0.0023398
0.00234865
0.00270733
0.00273735
0.00273909
0.00273915
0.00273914
0.00273912
0.00273786
0.00271063
0.00234667
0.00235889
0.00278651
0.00282555
0.00282964
0.00283043
0.00283045
0.00282977
0.00282642
0.00279136
0.00235759
0.00368761
0.00807542
0.0085299
0.00867778
0.00873001
0.00873124
0.00868421
0.00854849
0.00815089
0.00374804
0.0317951
0.117234
0.123242
0.123629
0.123646
0.123647
0.123651
0.123416
0.118246
0.0326741
0.00234274
0.00271758
0.00274896
0.00275136
0.00275174
0.00275174
0.00275143
0.00274955
0.00272104
0.00234075
0.0023502
0.00270945
0.00274125
0.00274334
0.00274344
0.00274344
0.00274339
0.00274183
0.00271289
0.00234822
0.00236871
0.00283595
0.00288169
0.00288938
0.00289153
0.00289159
0.00288966
0.00288284
0.00284146
0.00236775
0.00429901
0.00793329
0.00840377
0.00866726
0.00878131
0.00878438
0.00867956
0.00842679
0.0079938
0.00437596
0.0318137
0.112543
0.117993
0.118406
0.118449
0.118452
0.118438
0.118174
0.113477
0.0326821
0.00234499
0.00272177
0.00275381
0.00275637
0.00275679
0.00275681
0.00275645
0.00275445
0.00272533
0.00234303
0.00235161
0.00272521
0.00276171
0.00276526
0.00276576
0.00276576
0.00276536
0.00276243
0.00272905
0.00234961
0.00238611
0.00294463
0.00300047
0.0030118
0.00301529
0.00301539
0.00301219
0.00300196
0.00295104
0.00238531
0.00425301
0.00682832
0.00721763
0.00733059
0.0073736
0.00737452
0.00733544
0.00723095
0.00687799
0.00429499
0.0302789
0.0982121
0.102467
0.102992
0.103141
0.103148
0.103036
0.102631
0.098928
0.0310262
0.00234766
0.00270154
0.00273129
0.00273354
0.00273387
0.00273388
0.00273363
0.0027319
0.0027048
0.00234557
0.00235024
0.00276171
0.00280535
0.00281178
0.00281326
0.0028133
0.00281197
0.00280631
0.00276607
0.00234807
0.0024032
0.00306888
0.0031307
0.00314278
0.00314652
0.0031466
0.00314316
0.00313221
0.00307508
0.0024022
0.00329317
0.00564419
0.00596774
0.00600784
0.00601869
0.00601864
0.00600904
0.00597469
0.00568074
0.00332203
0.0240755
0.0690462
0.0716638
0.072087
0.072232
0.0722378
0.0721198
0.07177
0.069462
0.0245217
0.00233735
0.00236317
0.00236638
0.00236708
0.00236736
0.00236738
0.00236711
0.00236652
0.00236353
0.00233337
0.0023292
0.00237034
0.00237517
0.00237588
0.00237608
0.0023761
0.00237594
0.00237537
0.0023708
0.00232518
0.00240929
0.00247319
0.00248175
0.00248402
0.00248475
0.00248475
0.00248413
0.00248193
0.00247412
0.00240602
0.0027029
0.00325161
0.00334261
0.00335759
0.00336187
0.0033619
0.003358
0.00334477
0.00326228
0.00270917
0.0111309
0.019202
0.019776
0.0199298
0.0199791
0.0199807
0.0199382
0.0198001
0.0192894
0.0112406
)
;

boundaryField
{
    walls
    {
        type            kqRWallFunction;
        value           nonuniform List<scalar> 
500
(
0.00225635
0.00225635
0.00225635
0.00230872
0.00230872
0.00231035
0.00231035
0.00231032
0.00231032
0.00231029
0.00231029
0.00231028
0.00231028
0.00231027
0.00231027
0.00231026
0.00231026
0.00231007
0.00231007
0.00230564
0.00230564
0.00230564
0.00231107
0.00231107
0.00232687
0.00232817
0.00232822
0.00232823
0.00232822
0.0023282
0.00232812
0.00232684
0.00230872
0.00230872
0.00231651
0.00231651
0.00233259
0.00233414
0.00233424
0.00233427
0.00233425
0.00233421
0.00233409
0.00233255
0.00231222
0.00231222
0.00232118
0.00232118
0.00233883
0.00234062
0.00234082
0.00234089
0.00234088
0.0023408
0.00234061
0.00233887
0.00231705
0.00231705
0.00232483
0.00232483
0.00234537
0.00234745
0.00234773
0.00234782
0.00234781
0.00234774
0.00234749
0.00234554
0.00232087
0.00232087
0.00230987
0.00230987
0.00232275
0.00232404
0.0023242
0.00232425
0.00232427
0.00232428
0.00232424
0.0023232
0.00230857
0.00230857
0.00232452
0.00232228
0.00232882
0.00232653
0.00233309
0.00233082
0.00233723
0.00233502
0.00231452
0.00231452
0.00232629
0.00232759
0.00232775
0.00232781
0.00232784
0.00232785
0.00232781
0.00232664
0.00231103
0.00231103
0.00232749
0.00232541
0.00233127
0.00232926
0.00233494
0.00233291
0.00233916
0.00233715
0.00231648
0.00231648
0.00232818
0.00232945
0.00232959
0.00232964
0.00232967
0.00232967
0.00232963
0.00232846
0.00231277
0.00231277
0.00232912
0.00232702
0.00233247
0.00233049
0.00233567
0.00233366
0.00233969
0.00233766
0.00231754
0.00231754
0.00232922
0.00233046
0.00233058
0.00233062
0.00233064
0.00233065
0.0023306
0.00232942
0.00231368
0.00231368
0.00233007
0.00232789
0.00233316
0.00233114
0.00233611
0.00233407
0.00233993
0.00233787
0.0023177
0.0023177
0.00232979
0.00233104
0.00233116
0.0023312
0.00233122
0.00233122
0.00233116
0.00232994
0.00231376
0.00231376
0.00233029
0.00232807
0.0023334
0.00233135
0.00233641
0.00233434
0.00234028
0.00233819
0.00231701
0.00231701
0.0023301
0.00233144
0.00233156
0.0023316
0.00233162
0.00233161
0.00233153
0.00233023
0.00231302
0.00231302
0.00232982
0.00232755
0.00233325
0.00233116
0.00233668
0.00233457
0.00234097
0.00233883
0.00231544
0.00231544
0.00232946
0.00233087
0.002331
0.00233104
0.00233105
0.00233103
0.00233093
0.00232957
0.00231142
0.00231142
0.00232857
0.00232626
0.00233254
0.0023304
0.00233665
0.00233448
0.00234175
0.00233955
0.00231288
0.00231288
0.00232646
0.00232777
0.0023279
0.00232794
0.00232795
0.00232792
0.00232782
0.00232653
0.00230882
0.00230882
0.00232558
0.00232309
0.00233009
0.00232774
0.00233498
0.00233257
0.00234133
0.00233887
0.00230591
0.00230591
0.00230591
0.00230644
0.00230644
0.00230652
0.00230652
0.00230655
0.00230655
0.00230656
0.00230656
0.00230656
0.00230656
0.00230655
0.00230655
0.00230653
0.00230653
0.00230632
0.00230632
0.00230159
0.00230159
0.00230159
0.00230944
0.00230944
0.00232162
0.00232289
0.00232301
0.00232305
0.00232306
0.00232302
0.00232292
0.00232169
0.00230526
0.00230526
0.00231379
0.00231379
0.00232714
0.00232867
0.00232888
0.00232895
0.00232896
0.00232889
0.0023287
0.00232723
0.00230961
0.00230961
0.00231961
0.00231961
0.00233329
0.00233502
0.00233535
0.00233547
0.00233547
0.00233535
0.00233503
0.00233334
0.00231543
0.00231543
0.00232869
0.00232869
0.00234375
0.00234594
0.00234645
0.00234661
0.00234661
0.00234643
0.00234591
0.00234378
0.00232459
0.00232459
0.00235046
0.00235046
0.00238504
0.00239075
0.00239095
0.00239081
0.00239078
0.00239086
0.00239065
0.00238566
0.00234682
0.00234682
0.00244362
0.00244362
0.00282965
0.00288595
0.00286938
0.00286143
0.00286101
0.00286799
0.00288466
0.00284087
0.00244592
0.00244592
0.00331654
0.00331654
0.00665621
0.00708598
0.0069287
0.0068635
0.00686022
0.00691746
0.00707567
0.00673753
0.00336914
0.00336914
0.00782023
0.00782023
0.0219617
0.023857
0.0235776
0.0234232
0.0234124
0.0235423
0.0238301
0.0222227
0.00804312
0.00804312
0.0199349
0.0199349
0.0595473
0.0654317
0.0656826
0.0655881
0.0655663
0.0656176
0.065396
0.0601125
0.020415
0.020415
0.00235133
0.00234893
0.00236645
0.00236462
0.00247432
0.00247832
0.00388733
0.00395589
0.0278384
0.0285648
0.00234733
0.00234521
0.00235469
0.00235272
0.00237422
0.0023733
0.00321661
0.00325412
0.0289039
0.0296497
0.00234408
0.00234199
0.00235055
0.00234855
0.00236233
0.00236114
0.00313937
0.00317401
0.0306551
0.0314776
0.00234221
0.00234013
0.0023485
0.00234649
0.00235731
0.00235599
0.00318859
0.0032277
0.0314964
0.0323564
0.00234186
0.0023398
0.00234865
0.00234667
0.00235889
0.00235759
0.00368761
0.00374804
0.0317951
0.0326741
0.00234274
0.00234075
0.0023502
0.00234822
0.00236871
0.00236775
0.00429901
0.00437596
0.0318137
0.0326821
0.00234499
0.00234303
0.00235161
0.00234961
0.00238611
0.00238531
0.00425301
0.00429499
0.0302789
0.0310262
0.00234766
0.00234557
0.00235024
0.00234807
0.0024032
0.0024022
0.00329317
0.00332203
0.0240755
0.0245217
0.00233735
0.00233735
0.00236317
0.00236638
0.00236708
0.00236736
0.00236738
0.00236711
0.00236652
0.00236353
0.00233337
0.00233337
0.0023292
0.0023292
0.00237034
0.00237517
0.00237588
0.00237608
0.0023761
0.00237594
0.00237537
0.0023708
0.00232518
0.00232518
0.00240929
0.00240929
0.00247319
0.00248175
0.00248402
0.00248475
0.00248475
0.00248413
0.00248193
0.00247412
0.00240602
0.00240602
0.0027029
0.0027029
0.00325161
0.00334261
0.00335759
0.00336187
0.0033619
0.003358
0.00334477
0.00326228
0.00270917
0.00270917
0.0111309
0.0111309
0.019202
0.019776
0.0199298
0.0199791
0.0199807
0.0199382
0.0198001
0.0192894
0.0112406
0.0112406
)
;
    }
    lid
    {
        type            kqRWallFunction;
        value           nonuniform List<scalar> 
100
(
0.0199349
0.0595473
0.0654317
0.0656826
0.0655881
0.0655663
0.0656176
0.065396
0.0601125
0.020415
0.0278384
0.106448
0.114637
0.114904
0.11477
0.114747
0.114839
0.114649
0.107312
0.0285648
0.0289039
0.10888
0.115096
0.115123
0.114986
0.114976
0.115099
0.11518
0.109774
0.0296497
0.0306551
0.115774
0.121969
0.122253
0.122219
0.122216
0.122256
0.122106
0.116759
0.0314776
0.0314964
0.118255
0.124458
0.124852
0.124864
0.124864
0.124868
0.12462
0.119275
0.0323564
0.0317951
0.117234
0.123242
0.123629
0.123646
0.123647
0.123651
0.123416
0.118246
0.0326741
0.0318137
0.112543
0.117993
0.118406
0.118449
0.118452
0.118438
0.118174
0.113477
0.0326821
0.0302789
0.0982121
0.102467
0.102992
0.103141
0.103148
0.103036
0.102631
0.098928
0.0310262
0.0240755
0.0690462
0.0716638
0.072087
0.072232
0.0722378
0.0721198
0.07177
0.069462
0.0245217
0.0111309
0.019202
0.019776
0.0199298
0.0199791
0.0199807
0.0199382
0.0198001
0.0192894
0.0112406
)
;
    }
}


// ************************************************************************* //
