/*--------------------------------*- C++ -*----------------------------------*\
| =========                 |                                                 |
| \\      /  F ield         | OpenFOAM: The Open Source CFD Toolbox           |
|  \\    /   O peration     | Version:  2.3.1                                 |
|   \\  /    A nd           | Web:      www.OpenFOAM.org                      |
|    \\/     M anipulation  |                                                 |
\*---------------------------------------------------------------------------*/
FoamFile
{
    version     2.0;
    format      ascii;
    class       volScalarField;
    location    "0.84";
    object      nut;
}
// * * * * * * * * * * * * * * * * * * * * * * * * * * * * * * * * * * * * * //

dimensions      [0 2 -1 0 0 0 0];

internalField   nonuniform List<scalar> 
1000
(
0.000530336
0.00053643
0.000536628
0.000536624
0.000536621
0.00053662
0.000536619
0.000536618
0.000536595
0.000536077
0.000536721
0.000538689
0.000538854
0.000538862
0.000538863
0.000538862
0.000538859
0.00053885
0.000538687
0.000536465
0.000537398
0.000539411
0.000539607
0.000539621
0.000539624
0.000539623
0.000539617
0.000539603
0.000539408
0.000536904
0.000537993
0.000540201
0.000540428
0.000540454
0.000540463
0.000540462
0.000540452
0.000540428
0.000540207
0.000537517
0.000538417
0.000540994
0.000541258
0.000541294
0.000541305
0.000541304
0.000541296
0.000541264
0.000541015
0.000537962
0.000536586
0.000538163
0.000538322
0.000538343
0.000538348
0.000538351
0.000538351
0.000538347
0.000538216
0.000536444
0.000538382
0.00103902
0.00108782
0.00109036
0.00109053
0.00109059
0.00109062
0.00108893
0.00104323
0.000538125
0.000538919
0.00109822
0.00115658
0.00115952
0.00115964
0.00115965
0.0011596
0.00115737
0.0011023
0.000538655
0.000539456
0.00110255
0.00116186
0.00116484
0.00116496
0.00116496
0.0011649
0.00116258
0.00110639
0.000539196
0.000539953
0.0011047
0.00116534
0.00116853
0.00116871
0.00116871
0.00116859
0.00116607
0.00110848
0.0005397
0.000537156
0.000538606
0.000538768
0.000538788
0.000538795
0.000538798
0.000538799
0.000538793
0.000538647
0.000536753
0.000538755
0.00108863
0.00114541
0.00114831
0.00114847
0.00114852
0.00114853
0.00114645
0.00109298
0.000538514
0.000539227
0.00115455
0.00122333
0.00122688
0.00122702
0.00122703
0.00122696
0.00122424
0.0011593
0.000538996
0.000539687
0.00115877
0.00122866
0.00123229
0.00123243
0.00123243
0.00123235
0.00122953
0.0011634
0.000539454
0.000540204
0.00115923
0.00123005
0.00123381
0.00123398
0.00123398
0.00123387
0.00123093
0.0011638
0.000539974
0.0005374
0.000538842
0.000539001
0.000539018
0.000539024
0.000539027
0.000539028
0.000539022
0.000538874
0.000536972
0.000538959
0.00109465
0.00115203
0.00115489
0.00115502
0.00115505
0.00115504
0.0011529
0.00109855
0.000538716
0.000539378
0.00115797
0.00122717
0.00123073
0.00123087
0.00123087
0.0012308
0.00122805
0.00116257
0.00053915
0.000539777
0.00116175
0.00123192
0.00123556
0.0012357
0.0012357
0.00123562
0.00123279
0.00116633
0.000539547
0.000540278
0.00116182
0.00123251
0.00123621
0.00123636
0.00123636
0.00123626
0.00123338
0.00116636
0.000540046
0.000537533
0.000538973
0.000539128
0.000539142
0.000539147
0.00053915
0.00053915
0.000539144
0.000538995
0.000537087
0.000539077
0.00109864
0.00115639
0.00115926
0.00115938
0.0011594
0.00115937
0.00115717
0.00110231
0.000538827
0.000539465
0.00115878
0.00122787
0.00123142
0.00123155
0.00123155
0.00123148
0.00122873
0.00116325
0.000539233
0.000539833
0.00116214
0.00123201
0.00123562
0.00123576
0.00123576
0.00123568
0.00123287
0.00116663
0.000539599
0.000540311
0.00116228
0.00123234
0.00123597
0.00123611
0.00123611
0.00123603
0.0012332
0.00116673
0.000540075
0.000537552
0.000539044
0.000539202
0.000539217
0.000539222
0.000539224
0.000539224
0.000539216
0.000539062
0.000537097
0.000539105
0.00110125
0.00115925
0.00116211
0.00116222
0.00116222
0.00116216
0.00115993
0.00110471
0.00053885
0.000539495
0.00115926
0.00122827
0.00123181
0.00123194
0.00123194
0.00123187
0.00122911
0.00116362
0.00053926
0.000539871
0.00116238
0.00123204
0.00123562
0.00123576
0.00123576
0.00123568
0.00123288
0.00116678
0.000539634
0.000540355
0.00116268
0.00123233
0.00123592
0.00123606
0.00123606
0.00123598
0.00123317
0.00116705
0.000540116
0.000537466
0.000539089
0.000539258
0.000539273
0.000539278
0.00053928
0.000539278
0.000539268
0.000539104
0.000537005
0.000539046
0.00110165
0.00115967
0.00116253
0.00116264
0.00116264
0.00116258
0.00116033
0.00110507
0.000538785
0.000539477
0.00115925
0.00122816
0.0012317
0.00123183
0.00123183
0.00123176
0.001229
0.00116357
0.000539236
0.000539905
0.00116227
0.0012318
0.00123539
0.00123552
0.00123552
0.00123545
0.00123265
0.00116664
0.000539663
0.000540441
0.00116258
0.00123207
0.00123565
0.00123579
0.00123579
0.00123571
0.0012329
0.00116691
0.000540196
0.000537268
0.000539012
0.000539191
0.000539208
0.000539213
0.000539215
0.000539212
0.000539199
0.000539025
0.000536804
0.00053889
0.00109872
0.00115614
0.00115896
0.00115906
0.00115907
0.00115901
0.00115679
0.00110207
0.000538624
0.000539388
0.0011549
0.00122283
0.00122629
0.00122641
0.00122641
0.00122635
0.00122364
0.00115911
0.000539141
0.000539901
0.00115694
0.00122523
0.0012287
0.00122881
0.00122882
0.00122875
0.00122604
0.00116117
0.000539652
0.000540537
0.00115561
0.0012234
0.00122682
0.00122693
0.00122693
0.00122687
0.00122419
0.00115975
0.000540284
0.000536947
0.000538637
0.000538803
0.00053882
0.000538826
0.000538826
0.000538823
0.00053881
0.000538646
0.000536478
0.000538513
0.00103999
0.00108783
0.00109006
0.0010901
0.00109009
0.00109006
0.00108831
0.00104255
0.000538225
0.000539078
0.00108299
0.00113808
0.00114066
0.00114067
0.00114067
0.00114067
0.00113866
0.00108616
0.000538807
0.000539691
0.0010776
0.00113162
0.001134
0.00113394
0.00113393
0.001134
0.00113217
0.00108069
0.000539413
0.000540483
0.00106365
0.00111479
0.00111678
0.00111662
0.00111661
0.00111677
0.00111528
0.0010665
0.0005402
0.00053611
0.000536179
0.000536189
0.000536192
0.000536194
0.000536194
0.000536193
0.00053619
0.000536164
0.000535611
0.000536555
0.000538044
0.000538202
0.000538218
0.000538223
0.000538224
0.00053822
0.000538206
0.000538053
0.000536072
0.000537104
0.000538737
0.000538928
0.000538956
0.000538965
0.000538966
0.000538957
0.000538932
0.000538748
0.000536621
0.000537837
0.000539514
0.000539731
0.000539774
0.00053979
0.00053979
0.000539775
0.000539733
0.000539521
0.000537355
0.000538987
0.000540867
0.000541149
0.000541216
0.000541236
0.000541237
0.000541213
0.000541147
0.000540872
0.000538515
0.000541803
0.000546865
0.000547731
0.000547735
0.000547703
0.000547697
0.000547723
0.000547717
0.000546973
0.000541404
0.000555181
0.000610625
0.000618833
0.00061649
0.000615362
0.000615306
0.000616295
0.000618669
0.000612181
0.000555653
0.000664344
0.000987275
0.00102438
0.00101225
0.00100701
0.00100675
0.00101136
0.00102365
0.000993823
0.000670565
0.00104186
0.00178737
0.00186964
0.00185954
0.00185344
0.00185302
0.00185817
0.00186875
0.00179808
0.00105727
0.00164985
0.00289582
0.00304274
0.00304961
0.00304747
0.00304697
0.00304816
0.00304215
0.00290948
0.00167001
0.000541765
0.00103302
0.00107793
0.00107907
0.00107874
0.00107872
0.00107905
0.00107831
0.00103539
0.00054149
0.000543813
0.000998661
0.001037
0.0010385
0.00103837
0.00103836
0.0010385
0.00103736
0.00100059
0.000543623
0.000558674
0.000917225
0.000943766
0.000958036
0.000962155
0.000962241
0.000958396
0.000944464
0.000916842
0.000559301
0.000718313
0.000708968
0.000729854
0.000733424
0.000734974
0.000734918
0.000733349
0.000729949
0.000712138
0.000725193
0.00194933
0.00382805
0.00397844
0.00398425
0.00398216
0.00398178
0.00398322
0.00397886
0.00384322
0.00197452
0.000541255
0.00115134
0.00121805
0.00122135
0.00122143
0.00122143
0.00122139
0.00121881
0.00115537
0.000541013
0.000542193
0.00114055
0.00120418
0.00120704
0.00120698
0.00120698
0.00120708
0.0012049
0.00114435
0.000541969
0.000544806
0.00109132
0.00114223
0.0011479
0.00114903
0.00114906
0.00114806
0.00114295
0.0010936
0.000544726
0.000646035
0.000628875
0.000638427
0.00064206
0.000643218
0.000643228
0.000642143
0.000638654
0.000629812
0.00065016
0.00198508
0.0038751
0.00398911
0.00399014
0.00398781
0.00398764
0.00398978
0.00399069
0.00389062
0.00201042
0.000540844
0.00116315
0.0012329
0.00123656
0.00123674
0.00123674
0.00123662
0.00123373
0.00116749
0.000540605
0.000541671
0.00115981
0.00122859
0.00123206
0.00123215
0.00123215
0.00123211
0.00122941
0.00116407
0.000541444
0.000543248
0.00107938
0.00113066
0.00113389
0.00113382
0.00113379
0.00113386
0.00113109
0.00108156
0.000543126
0.000637254
0.000590863
0.000597882
0.000599411
0.000599874
0.000599882
0.000599457
0.000598055
0.000591718
0.000641101
0.0020472
0.00399689
0.00410714
0.0041126
0.00411211
0.00411207
0.00411268
0.00410955
0.00401338
0.00207431
0.000540604
0.00116367
0.00123377
0.00123746
0.00123763
0.00123763
0.00123752
0.00123461
0.00116807
0.000540367
0.000541418
0.00116155
0.00123112
0.00123468
0.00123479
0.00123479
0.00123473
0.00123196
0.00116589
0.000541189
0.000542595
0.00108524
0.00113691
0.00113879
0.00113825
0.0011382
0.00113867
0.0011372
0.00108741
0.00054246
0.000644553
0.000567161
0.000573029
0.00057322
0.000573202
0.000573205
0.00057322
0.000573126
0.000568063
0.000648939
0.00207592
0.00403689
0.00414593
0.0041531
0.00415335
0.00415336
0.00415339
0.00414868
0.00405375
0.00210386
0.000540561
0.00116336
0.00123421
0.00123798
0.00123817
0.00123817
0.00123804
0.00123508
0.00116785
0.000540325
0.000541435
0.00115977
0.00123136
0.00123506
0.00123519
0.00123518
0.00123512
0.00123222
0.00116422
0.000541211
0.000542828
0.00107632
0.00112421
0.00112462
0.00112386
0.00112384
0.00112456
0.0011245
0.00107835
0.000542693
0.000698969
0.000571792
0.000582019
0.000583901
0.000584606
0.000584622
0.000583979
0.000582308
0.000573304
0.000705189
0.00208623
0.00401493
0.00412061
0.00412764
0.00412798
0.004128
0.00412802
0.00412358
0.00403162
0.00211454
0.000540672
0.00116334
0.00123527
0.00123917
0.00123938
0.00123938
0.00123923
0.00123616
0.00116792
0.000540446
0.000541625
0.00115719
0.00123194
0.00123591
0.00123604
0.00123604
0.00123597
0.00123283
0.00116175
0.000541399
0.000544116
0.00107451
0.00112214
0.00112007
0.00111822
0.00111818
0.00111989
0.00112228
0.00107672
0.000544031
0.000756539
0.000602685
0.000616951
0.000620655
0.000622076
0.000622105
0.000620802
0.000617379
0.000604192
0.000763534
0.00208486
0.00392101
0.00401788
0.00402634
0.00402758
0.00402763
0.00402695
0.00402103
0.0039364
0.0021125
0.000540961
0.00116154
0.00123408
0.00123807
0.00123829
0.00123829
0.00123813
0.00123499
0.00116615
0.000540738
0.000541783
0.00115624
0.0012353
0.0012399
0.00124015
0.00124014
0.00123997
0.00123625
0.00116099
0.000541556
0.000546243
0.00112751
0.00118613
0.00118719
0.00118632
0.0011863
0.0011871
0.00118661
0.00113082
0.000546168
0.000740874
0.000618939
0.000632658
0.000635877
0.000637006
0.000637033
0.000635974
0.000632953
0.000619615
0.000744087
0.0020245
0.00363766
0.00371764
0.00372789
0.0037309
0.00373102
0.0037287
0.00372058
0.00365011
0.00204833
0.000541301
0.00110909
0.00117192
0.0011753
0.00117549
0.00117549
0.00117537
0.00117269
0.00111294
0.000541063
0.000541587
0.00111841
0.00119234
0.00119736
0.00119788
0.00119788
0.00119744
0.00119325
0.00112273
0.000541341
0.000548207
0.0011468
0.00121124
0.00121587
0.00121647
0.00121648
0.00121594
0.00121202
0.00115035
0.000548106
0.000650159
0.000659916
0.000680331
0.000680191
0.000679523
0.000679501
0.000680117
0.000680421
0.000660471
0.000653112
0.00178842
0.00303144
0.00309012
0.00309953
0.00310273
0.00310286
0.00310023
0.00309236
0.00304009
0.00180407
0.000540073
0.000543261
0.000543662
0.000543749
0.000543784
0.000543787
0.000543753
0.000543679
0.000543306
0.000539618
0.000538991
0.000544143
0.000544759
0.00054485
0.000544876
0.000544878
0.000544858
0.000544783
0.000544202
0.000538531
0.000548783
0.000556596
0.000557638
0.000557913
0.000558002
0.000558001
0.000557926
0.000557661
0.000556706
0.000548419
0.000584202
0.000645801
0.00065565
0.000657228
0.00065767
0.000657671
0.000657268
0.000655871
0.000646907
0.000584954
0.0012034
0.00159091
0.00161574
0.00162235
0.00162444
0.00162451
0.0016227
0.00161674
0.00159451
0.00120921
)
;

boundaryField
{
    walls
    {
        type            nutkWallFunction;
        Cmu             0.09;
        kappa           0.41;
        E               9.8;
        value           nonuniform List<scalar> 
500
(
6.45892e-05
6.45892e-05
6.45892e-05
6.5329e-05
6.5329e-05
6.53519e-05
6.53519e-05
6.53514e-05
6.53514e-05
6.53511e-05
6.53511e-05
6.53509e-05
6.53509e-05
6.53507e-05
6.53507e-05
6.53506e-05
6.53506e-05
6.5348e-05
6.5348e-05
6.52858e-05
6.52858e-05
6.52858e-05
6.5362e-05
6.5362e-05
6.55832e-05
6.56013e-05
6.56021e-05
6.56022e-05
6.56021e-05
6.56017e-05
6.56007e-05
6.55827e-05
6.5329e-05
6.5329e-05
6.54383e-05
6.54383e-05
6.56631e-05
6.56847e-05
6.56862e-05
6.56865e-05
6.56863e-05
6.56856e-05
6.56841e-05
6.56626e-05
6.53781e-05
6.53781e-05
6.55036e-05
6.55036e-05
6.57501e-05
6.5775e-05
6.57779e-05
6.57788e-05
6.57787e-05
6.57775e-05
6.57749e-05
6.57507e-05
6.54459e-05
6.54459e-05
6.55547e-05
6.55547e-05
6.58412e-05
6.58701e-05
6.5874e-05
6.58753e-05
6.58751e-05
6.58742e-05
6.58707e-05
6.58436e-05
6.54994e-05
6.54994e-05
6.53452e-05
6.53452e-05
6.55256e-05
6.55436e-05
6.55459e-05
6.55466e-05
6.55469e-05
6.55469e-05
6.55465e-05
6.55319e-05
6.53269e-05
6.53269e-05
6.55504e-05
6.55191e-05
6.56104e-05
6.55784e-05
6.567e-05
6.56384e-05
6.57278e-05
6.5697e-05
6.54103e-05
6.54103e-05
6.55751e-05
6.55933e-05
6.55955e-05
6.55963e-05
6.55967e-05
6.55969e-05
6.55963e-05
6.55801e-05
6.53614e-05
6.53614e-05
6.55919e-05
6.55628e-05
6.56447e-05
6.56166e-05
6.56959e-05
6.56676e-05
6.57547e-05
6.57266e-05
6.54378e-05
6.54378e-05
6.56016e-05
6.56193e-05
6.56212e-05
6.56219e-05
6.56223e-05
6.56224e-05
6.56218e-05
6.56054e-05
6.53858e-05
6.53858e-05
6.56146e-05
6.55853e-05
6.56615e-05
6.56337e-05
6.57061e-05
6.5678e-05
6.57621e-05
6.57338e-05
6.54527e-05
6.54527e-05
6.56161e-05
6.56334e-05
6.5635e-05
6.56356e-05
6.56359e-05
6.5636e-05
6.56353e-05
6.56188e-05
6.53986e-05
6.53986e-05
6.56278e-05
6.55975e-05
6.56711e-05
6.56429e-05
6.57122e-05
6.56838e-05
6.57654e-05
6.57367e-05
6.54549e-05
6.54549e-05
6.56239e-05
6.56415e-05
6.56431e-05
6.56437e-05
6.5644e-05
6.5644e-05
6.56431e-05
6.56261e-05
6.53997e-05
6.53997e-05
6.5631e-05
6.56e-05
6.56744e-05
6.56458e-05
6.57164e-05
6.56876e-05
6.57703e-05
6.57411e-05
6.54453e-05
6.54453e-05
6.56284e-05
6.56471e-05
6.56488e-05
6.56493e-05
6.56495e-05
6.56494e-05
6.56483e-05
6.56302e-05
6.53894e-05
6.53894e-05
6.56244e-05
6.55928e-05
6.56724e-05
6.56431e-05
6.57202e-05
6.56907e-05
6.57799e-05
6.57501e-05
6.54232e-05
6.54232e-05
6.56194e-05
6.5639e-05
6.56409e-05
6.56415e-05
6.56416e-05
6.56414e-05
6.564e-05
6.56209e-05
6.53669e-05
6.53669e-05
6.5607e-05
6.55747e-05
6.56625e-05
6.56325e-05
6.57197e-05
6.56894e-05
6.57908e-05
6.57601e-05
6.53874e-05
6.53874e-05
6.55775e-05
6.55958e-05
6.55976e-05
6.55982e-05
6.55983e-05
6.55979e-05
6.55965e-05
6.55785e-05
6.53305e-05
6.53305e-05
6.55651e-05
6.55303e-05
6.56282e-05
6.55953e-05
6.56964e-05
6.56628e-05
6.57849e-05
6.57507e-05
6.52895e-05
6.52895e-05
6.52895e-05
6.5297e-05
6.5297e-05
6.52981e-05
6.52981e-05
6.52985e-05
6.52985e-05
6.52986e-05
6.52986e-05
6.52987e-05
6.52987e-05
6.52986e-05
6.52986e-05
6.52982e-05
6.52982e-05
6.52953e-05
6.52953e-05
6.52289e-05
6.52289e-05
6.52289e-05
6.53392e-05
6.53392e-05
6.55098e-05
6.55275e-05
6.55293e-05
6.55298e-05
6.55299e-05
6.55294e-05
6.5528e-05
6.55108e-05
6.52804e-05
6.52804e-05
6.54001e-05
6.54001e-05
6.5587e-05
6.56083e-05
6.56113e-05
6.56123e-05
6.56124e-05
6.56114e-05
6.56088e-05
6.55883e-05
6.53415e-05
6.53415e-05
6.54817e-05
6.54817e-05
6.56729e-05
6.5697e-05
6.57016e-05
6.57032e-05
6.57033e-05
6.57016e-05
6.56972e-05
6.56736e-05
6.54231e-05
6.54231e-05
6.56087e-05
6.56087e-05
6.58187e-05
6.58491e-05
6.58562e-05
6.58584e-05
6.58584e-05
6.5856e-05
6.58487e-05
6.58191e-05
6.55513e-05
6.55513e-05
6.59119e-05
6.59119e-05
6.63905e-05
6.64692e-05
6.6472e-05
6.647e-05
6.64696e-05
6.64707e-05
6.64678e-05
6.63991e-05
6.58614e-05
6.58614e-05
6.71925e-05
6.71925e-05
7.22276e-05
7.29291e-05
7.27234e-05
7.26245e-05
7.26193e-05
7.27062e-05
7.29132e-05
7.2368e-05
6.72237e-05
6.72237e-05
7.8059e-05
7.8059e-05
0.000109102
0.000112389
0.000111199
0.000110701
0.000110676
0.000111113
0.000112311
0.000109732
7.86595e-05
7.86595e-05
0.000117758
0.000117758
0.000190761
0.000198204
0.000197128
0.000196531
0.000196489
0.000196992
0.000198101
0.000191806
0.000119332
0.000119332
0.000182396
0.000182396
0.000301817
0.000315118
0.00031567
0.000315462
0.000315414
0.000315527
0.000315039
0.000303125
0.000184419
0.000184419
6.59241e-05
6.58906e-05
6.61337e-05
6.61084e-05
6.76085e-05
6.76625e-05
8.43161e-05
8.50322e-05
0.000212843
0.000215387
6.58685e-05
6.5839e-05
6.59707e-05
6.59433e-05
6.62412e-05
6.62285e-05
7.69031e-05
7.73394e-05
0.000216562
0.00021912
6.58232e-05
6.57941e-05
6.59132e-05
6.58854e-05
6.60767e-05
6.60602e-05
7.59961e-05
7.64044e-05
0.000222513
0.000225243
6.57971e-05
6.57683e-05
6.58847e-05
6.58568e-05
6.6007e-05
6.59888e-05
7.65756e-05
7.70325e-05
0.000225305
0.000228117
6.57923e-05
6.57637e-05
6.58868e-05
6.58592e-05
6.6029e-05
6.6011e-05
8.21888e-05
8.28391e-05
0.000226286
0.000229145
6.58046e-05
6.57769e-05
6.59084e-05
6.58808e-05
6.6165e-05
6.61518e-05
8.85166e-05
8.92765e-05
0.000226347
0.000229171
6.58359e-05
6.58086e-05
6.5928e-05
6.59001e-05
6.64053e-05
6.63943e-05
8.80587e-05
8.84767e-05
0.000221251
0.000223749
6.5873e-05
6.5844e-05
6.59089e-05
6.58787e-05
6.66403e-05
6.66266e-05
7.77904e-05
7.81218e-05
0.000199041
0.000200737
6.57295e-05
6.57295e-05
6.60883e-05
6.61328e-05
6.61425e-05
6.61463e-05
6.61466e-05
6.61428e-05
6.61347e-05
6.60934e-05
6.5674e-05
6.5674e-05
6.56158e-05
6.56158e-05
6.61875e-05
6.62544e-05
6.62641e-05
6.6267e-05
6.62672e-05
6.6265e-05
6.62571e-05
6.61939e-05
6.55596e-05
6.55596e-05
6.67238e-05
6.67238e-05
6.75933e-05
6.77087e-05
6.77394e-05
6.77492e-05
6.77491e-05
6.77409e-05
6.77112e-05
6.76058e-05
6.6679e-05
6.6679e-05
7.06192e-05
7.06192e-05
7.73102e-05
7.83573e-05
7.85281e-05
7.85768e-05
7.85771e-05
7.85327e-05
7.8382e-05
7.74338e-05
7.06997e-05
7.06997e-05
0.000139036
0.000139036
0.000179257
0.000181721
0.000182375
0.000182584
0.000182591
0.000182411
0.000181824
0.000179635
0.000139676
0.000139676
)
;
    }
    lid
    {
        type            nutkWallFunction;
        Cmu             0.09;
        kappa           0.41;
        E               9.8;
        value           nonuniform List<scalar> 
100
(
0.000182396
0.000301817
0.000315118
0.00031567
0.000315462
0.000315414
0.000315527
0.000315039
0.000303125
0.000184419
0.000212843
0.000393566
0.000407099
0.000407531
0.000407315
0.000407278
0.000407427
0.000407118
0.00039502
0.000215387
0.000216562
0.000397643
0.000407843
0.000407885
0.000407665
0.000407648
0.000407847
0.000407977
0.00039913
0.00021912
0.000222513
0.000408937
0.000418773
0.000419218
0.000419164
0.00041916
0.000419221
0.000418988
0.000410518
0.000225243
0.000225305
0.000412909
0.000422647
0.000423258
0.000423276
0.000423276
0.000423282
0.000422898
0.00041453
0.000228117
0.000226286
0.000411279
0.000420761
0.000421362
0.000421388
0.00042139
0.000421396
0.000421031
0.000412895
0.000229145
0.000226347
0.00040369
0.000412492
0.000413149
0.000413218
0.000413222
0.0004132
0.00041278
0.000405215
0.000229171
0.000221251
0.000379367
0.000386781
0.000387684
0.00038794
0.000387951
0.000387759
0.000387064
0.000380627
0.000223749
0.000199041
0.000322964
0.000328506
0.000329391
0.000329694
0.000329706
0.00032946
0.000328728
0.000323852
0.000200737
0.000139036
0.000179257
0.000181721
0.000182375
0.000182584
0.000182591
0.000182411
0.000181824
0.000179635
0.000139676
)
;
    }
}


// ************************************************************************* //
