/*--------------------------------*- C++ -*----------------------------------*\
| =========                 |                                                 |
| \\      /  F ield         | OpenFOAM: The Open Source CFD Toolbox           |
|  \\    /   O peration     | Version:  2.3.1                                 |
|   \\  /    A nd           | Web:      www.OpenFOAM.org                      |
|    \\/     M anipulation  |                                                 |
\*---------------------------------------------------------------------------*/
FoamFile
{
    version     2.0;
    format      ascii;
    class       surfaceScalarField;
    location    "0.84";
    object      phi;
}
// * * * * * * * * * * * * * * * * * * * * * * * * * * * * * * * * * * * * * //

dimensions      [0 3 -1 0 0 0 0];

internalField   nonuniform List<scalar> 
2700
(
2.91263e-06
4.63776e-05
-4.29323e-05
2.47025e-06
4.51184e-05
-4.47086e-05
1.37641e-06
4.54871e-05
-4.44354e-05
8.62163e-07
4.54193e-05
-4.49473e-05
2.53472e-07
4.5591e-05
-4.50259e-05
-2.60034e-07
4.55592e-05
-4.50867e-05
-5.96543e-07
4.53733e-05
-4.50769e-05
-6.52834e-07
4.50697e-05
-4.50525e-05
-4.06729e-07
4.47446e-05
-4.50437e-05
4.45204e-05
-4.49628e-05
8.85563e-07
9.48624e-05
-4.93929e-05
1.33975e-06
9.4762e-05
-5.01186e-05
1.32119e-06
9.5667e-05
-5.01854e-05
8.63579e-07
9.62513e-05
-5.03952e-05
2.10892e-07
9.66943e-05
-5.04692e-05
-4.31227e-07
9.66902e-05
-5.05045e-05
-8.59183e-07
9.62643e-05
-5.04765e-05
-8.69479e-07
9.54917e-05
-5.04362e-05
-4.27268e-07
9.46263e-05
-5.03479e-05
9.36489e-05
-4.95689e-05
1.45833e-06
0.000152157
-5.87215e-05
2.10438e-06
0.00015416
-6.00184e-05
2.02195e-06
0.000155982
-6.01989e-05
1.25808e-06
0.000157446
-6.03897e-05
2.05494e-07
0.000158287
-6.04949e-05
-8.39556e-07
0.000158309
-6.05206e-05
-1.58357e-06
0.00015751
-6.04673e-05
-1.66928e-06
0.000155993
-6.03834e-05
-1.02379e-06
0.000154246
-6.02422e-05
0.000151935
-5.92765e-05
2.1154e-06
0.000224377
-7.43204e-05
3.11623e-06
0.000228404
-7.5217e-05
3.00633e-06
0.000231377
-7.52414e-05
1.84097e-06
0.00023399
-7.53331e-05
2.14712e-07
0.000235389
-7.54175e-05
-1.42142e-06
0.000235433
-7.5441e-05
-2.6098e-06
0.000234127
-7.53927e-05
-2.78212e-06
0.000231562
-7.53601e-05
-1.8744e-06
0.000228721
-7.53515e-05
0.000224617
-7.45308e-05
7.67891e-06
-0.000109357
0.000325994
9.04743e-06
-0.000111676
0.000338653
7.58967e-06
-0.000112474
0.000345252
4.2781e-06
-0.000113051
0.00035029
3.08655e-07
-0.000113393
0.000352688
-3.66836e-06
-0.000113424
0.000352753
-6.98815e-06
-0.000113144
0.000350527
-8.50381e-06
-0.000112632
0.000345658
-7.29532e-06
-0.000111891
0.00033936
-0.000109624
0.000326886
7.42941e-07
4.01023e-05
-8.38154e-05
9.38749e-07
4.10602e-05
-8.6001e-05
9.46805e-07
4.16103e-05
-8.60957e-05
6.36373e-07
4.17957e-05
-8.64763e-05
1.84033e-07
4.19718e-05
-8.65905e-05
-2.70531e-07
4.19615e-05
-8.66372e-05
-5.94171e-07
4.17874e-05
-8.6579e-05
-7.14818e-07
4.1485e-05
-8.64619e-05
-5.81745e-07
4.10948e-05
-8.63245e-05
4.01137e-05
-8.56952e-05
7.17002e-07
8.3799e-05
-9.38163e-05
1.12712e-06
8.53701e-05
-9.48586e-05
1.1674e-06
8.64022e-05
-9.50363e-05
7.64027e-07
8.71103e-05
-9.53202e-05
1.76204e-07
8.75409e-05
-9.54648e-05
-4.19001e-07
8.7549e-05
-9.55018e-05
-8.45176e-07
8.71411e-05
-9.5417e-05
-9.46963e-07
8.63925e-05
-9.52569e-05
-6.60517e-07
8.54891e-05
-9.50512e-05
8.3977e-05
-9.40917e-05
1.50415e-06
0.000134599
-0.000110999
2.00591e-06
0.000137144
-0.00011225
1.88181e-06
0.000138986
-0.000112608
1.16169e-06
0.000140467
-0.000112977
1.84423e-07
0.000141281
-0.000113193
-8.02545e-07
0.000141303
-0.000113232
-1.536e-06
0.000140542
-0.00011308
-1.74877e-06
0.000139071
-0.000112811
-1.3043e-06
0.000137333
-0.000112483
0.0001348
-0.000111359
2.82475e-06
0.000195773
-0.000138275
3.39256e-06
0.000201158
-0.000139766
3.01347e-06
0.00020436
-0.000140192
1.79685e-06
0.000207036
-0.000140633
1.97906e-07
0.000208423
-0.000140916
-1.40728e-06
0.000208471
-0.00014095
-2.6589e-06
0.000207172
-0.000140745
-3.10842e-06
0.000204582
-0.000140372
-2.63807e-06
0.000201534
-0.000139988
0.000196209
-0.000138542
7.41654e-06
-0.000193087
0.000272054
8.55781e-06
-0.000195662
0.000283982
7.08187e-06
-0.000197139
0.000290466
3.96746e-06
-0.000198431
0.000295501
2.84457e-07
-0.000199163
0.000297855
-3.41043e-06
-0.000199227
0.000297921
-6.53203e-06
-0.000198595
0.000295735
-8.06359e-06
-0.000197419
0.000290876
-7.08283e-06
-0.000196041
0.000284695
-0.00019354
0.000273014
1.05467e-06
3.2249e-05
-0.000117149
1.02612e-06
3.27195e-05
-0.000118728
8.44519e-07
3.30638e-05
-0.000119017
5.20075e-07
3.32358e-05
-0.000119428
1.45331e-07
3.33683e-05
-0.000119626
-2.20601e-07
3.33637e-05
-0.000119673
-4.905e-07
3.32184e-05
-0.000119565
-6.12853e-07
3.29642e-05
-0.000119345
-5.45104e-07
3.26241e-05
-0.000119068
3.17388e-05
-0.000118007
8.57667e-07
6.624e-05
-0.000128679
1.06274e-06
6.74939e-05
-0.000129845
9.97025e-07
6.83085e-05
-0.000130223
6.31206e-07
6.89097e-05
-0.000130635
1.44493e-07
6.92606e-05
-0.000130871
-3.42756e-07
6.92653e-05
-0.000130916
-7.01384e-07
6.89261e-05
-0.000130764
-8.2451e-07
6.82905e-05
-0.000130472
-6.38208e-07
6.75059e-05
-0.000130124
6.60968e-05
-0.000129077
1.4042e-06
0.000104856
-0.000150961
1.74591e-06
0.000107226
-0.000152275
1.57144e-06
0.000108816
-0.000152884
9.58395e-07
0.000110077
-0.000153465
1.47889e-07
0.000110752
-0.000153813
-6.61557e-07
0.000110775
-0.000153858
-1.28886e-06
0.000110128
-0.000153605
-1.5151e-06
0.000108888
-0.000153122
-1.21534e-06
0.00010735
-0.000152574
0.000104933
-0.000151349
2.64463e-06
0.00014995
-0.000185999
3.05149e-06
0.000154956
-0.000187853
2.61374e-06
0.000157883
-0.000188771
1.52711e-06
0.000160201
-0.000189627
1.64905e-07
0.000161392
-0.000190125
-1.215e-06
0.000161418
-0.000190182
-2.31318e-06
0.000160318
-0.000189773
-2.80882e-06
0.000158066
-0.000189023
-2.48364e-06
0.000155263
-0.000188173
0.000150304
-0.000186365
6.46097e-06
-0.000247265
0.000197717
7.18963e-06
-0.000250602
0.000209169
5.83143e-06
-0.000252858
0.00021497
3.23932e-06
-0.000254813
0.000219221
2.19918e-07
-0.000255906
0.000221171
-2.78203e-06
-0.000255972
0.000221233
-5.39482e-06
-0.000255048
0.000219403
-6.78725e-06
-0.000253232
0.000215302
-6.19384e-06
-0.000251117
0.000209761
-0.000247885
0.000198475
5.17183e-07
2.10381e-05
-0.00013873
5.40937e-07
2.14744e-05
-0.000140253
4.87559e-07
2.16988e-05
-0.000140695
3.12318e-07
2.18405e-05
-0.000141124
9.45659e-08
2.19296e-05
-0.000141371
-1.18552e-07
2.19276e-05
-0.000141416
-2.82797e-07
2.18314e-05
-0.00014126
-3.6882e-07
2.1661e-05
-0.000140955
-3.4499e-07
2.144e-05
-0.000140572
2.09104e-05
-0.000139277
4.85201e-07
4.34564e-05
-0.000151578
6.39118e-07
4.43295e-05
-0.000152855
6.11222e-07
4.48822e-05
-0.000153376
3.9263e-07
4.53069e-05
-0.000153878
9.73062e-08
4.55433e-05
-0.000154182
-1.98187e-07
4.5548e-05
-0.000154229
-4.22792e-07
4.53143e-05
-0.000154017
-4.99608e-07
4.48832e-05
-0.000153615
-3.75025e-07
4.43436e-05
-0.00015315
4.34367e-05
-0.000151955
8.57662e-07
6.8348e-05
-0.000176681
1.11583e-06
6.99801e-05
-0.000178134
1.00841e-06
7.11027e-05
-0.00017894
6.14704e-07
7.19814e-05
-0.000179693
1.01382e-07
7.24517e-05
-0.000180141
-4.1842e-07
7.24601e-05
-0.000180194
-8.21608e-07
7.20175e-05
-0.000179846
-9.71764e-07
7.11497e-05
-0.000179195
-7.53865e-07
7.00664e-05
-0.000178454
6.84328e-05
-0.000177054
1.7775e-06
9.62332e-05
-0.000215612
2.09642e-06
9.96718e-05
-0.000217834
1.77739e-06
0.000101846
-0.000219163
1.03435e-06
0.0001035
-0.000220354
1.06998e-07
0.00010433
-0.000221047
-8.16964e-07
0.000104358
-0.000221105
-1.58266e-06
0.000103564
-0.000220538
-1.93186e-06
0.000101974
-0.000219451
-1.67101e-06
9.98753e-05
-0.000218214
9.64642e-05
-0.000216041
4.34002e-06
-0.000275966
0.000120609
4.85468e-06
-0.000279987
0.000128587
3.90047e-06
-0.000282796
0.000132776
2.14435e-06
-0.000285182
0.00013565
1.52014e-07
-0.000286489
0.000136974
-1.85767e-06
-0.000286584
0.000136987
-3.60623e-06
-0.000285431
0.000135767
-4.5974e-06
-0.000283226
0.000132971
-4.17801e-06
-0.000280567
0.00012896
-0.000276638
0.000121067
1.46476e-07
8.74103e-06
-0.000147636
1.18728e-07
8.89514e-06
-0.000149141
9.83966e-08
8.97162e-06
-0.000149666
6.86655e-08
9.01733e-06
-0.000150136
4.95522e-08
9.04633e-06
-0.000150417
2.93517e-08
9.04209e-06
-0.000150461
4.87987e-09
9.00716e-06
-0.000150263
-3.30034e-08
8.94554e-06
-0.000149889
-6.46074e-08
8.86335e-06
-0.000149429
8.6744e-06
-0.00014802
1.24429e-07
1.82243e-05
-0.000161183
1.44469e-07
1.85599e-05
-0.000162535
1.3644e-07
1.87784e-05
-0.00016317
9.55819e-08
1.89412e-05
-0.000163756
4.92476e-08
1.90279e-05
-0.000164115
3.3109e-09
1.90267e-05
-0.000164159
-4.1094e-08
1.89332e-05
-0.000163895
-7.28085e-08
1.87603e-05
-0.000163398
-6.61623e-08
1.85423e-05
-0.000162827
1.81922e-05
-0.000161524
2.6916e-07
2.90021e-05
-0.000187705
3.28672e-07
2.96958e-05
-0.000189309
2.86855e-07
3.02044e-05
-0.000190298
1.76658e-07
3.05883e-05
-0.000191203
4.78746e-08
3.07854e-05
-0.000191739
-8.35855e-08
3.07874e-05
-0.000191794
-2.00448e-07
3.05882e-05
-0.000191363
-2.60135e-07
3.02089e-05
-0.000190556
-2.16945e-07
2.97083e-05
-0.00018964
2.90105e-05
-0.000188075
6.82125e-07
4.10871e-05
-0.0002284
7.77076e-07
4.26961e-05
-0.000230923
6.28193e-07
4.38003e-05
-0.000232601
3.54375e-07
4.45913e-05
-0.000234079
4.88557e-08
4.49902e-05
-0.000234923
-2.65552e-07
4.49903e-05
-0.000234991
-5.39322e-07
4.46187e-05
-0.000234272
-7.06318e-07
4.38361e-05
-0.000232918
-6.34642e-07
4.27654e-05
-0.000231333
4.11648e-05
-0.000228856
1.89538e-06
-0.000286981
5.02608e-05
2.05733e-06
-0.000291446
5.40067e-05
1.58072e-06
-0.000294651
5.61481e-05
8.52117e-07
-0.000297332
5.75222e-05
5.62905e-08
-0.000298818
5.81224e-05
-7.2405e-07
-0.000298898
5.81424e-05
-1.46875e-06
-0.000297608
5.754e-05
-1.94848e-06
-0.000295086
5.62192e-05
-1.83125e-06
-0.000292047
5.41401e-05
-0.000287674
5.03922e-05
-2.52843e-07
-4.26752e-06
-0.000143126
-3.71291e-07
-4.4445e-06
-0.000144591
-3.44559e-07
-4.54356e-06
-0.000145166
-2.02005e-07
-4.62877e-06
-0.000145662
6.34596e-09
-4.68175e-06
-0.000145966
2.19904e-07
-4.68564e-06
-0.000146002
3.62139e-07
-4.64815e-06
-0.00014578
3.85833e-07
-4.57416e-06
-0.000145358
2.70644e-07
-4.48527e-06
-0.000144845
-4.31882e-06
-0.000143423
-2.95067e-07
-8.32906e-06
-0.000156838
-4.45932e-07
-8.597e-06
-0.000158241
-4.19285e-07
-8.78134e-06
-0.000158967
-2.49035e-07
-8.94974e-06
-0.000159622
5.65727e-09
-9.04438e-06
-0.000160013
2.56783e-07
-9.05692e-06
-0.000160058
4.30541e-07
-8.97989e-06
-0.00015975
4.52871e-07
-8.83264e-06
-0.000159178
3.08745e-07
-8.65988e-06
-0.000158513
-8.39838e-06
-0.000157142
-4.28927e-07
-1.17254e-05
-0.000183904
-6.19729e-07
-1.20552e-05
-0.000185684
-5.79132e-07
-1.22885e-05
-0.000186859
-3.40989e-07
-1.25097e-05
-0.000187903
-6.71945e-09
-1.26375e-05
-0.000188514
3.30992e-07
-1.26498e-05
-0.000188564
5.69111e-07
-1.25461e-05
-0.000188061
6.1371e-07
-1.23487e-05
-0.000187112
4.34748e-07
-1.21309e-05
-0.000186013
-1.18125e-05
-0.00018427
-6.29157e-07
-1.375e-05
-0.000225783
-8.58294e-07
-1.40606e-05
-0.000228745
-7.90626e-07
-1.42006e-05
-0.000230807
-4.6748e-07
-1.43752e-05
-0.000232572
-1.92402e-08
-1.44841e-05
-0.000233557
4.32008e-07
-1.44883e-05
-0.000233624
7.56311e-07
-1.44093e-05
-0.00023277
8.35345e-07
-1.4246e-05
-0.000231129
6.19826e-07
-1.41335e-05
-0.00022918
-1.38461e-05
-0.00022627
-7.8849e-07
-0.000284223
-1.57985e-05
-1.07382e-06
-0.000289422
-1.58257e-05
-1.00545e-06
-0.000293141
-1.57828e-05
-6.05743e-07
-0.000296205
-1.59267e-05
-2.3985e-08
-0.000297847
-1.59967e-05
5.38786e-07
-0.000297939
-1.60227e-05
9.57092e-07
-0.000296468
-1.59467e-05
1.0228e-06
-0.000293591
-1.58439e-05
7.50059e-07
-0.000290035
-1.5908e-05
-0.000284917
-1.59013e-05
-6.67725e-07
-1.75003e-05
-0.000124968
-9.03076e-07
-1.80786e-05
-0.000126289
-8.20968e-07
-1.8393e-05
-0.00012686
-4.98262e-07
-1.865e-05
-0.000127352
-2.95919e-08
-1.87952e-05
-0.000127645
4.35e-07
-1.88074e-05
-0.00012768
7.67797e-07
-1.86787e-05
-0.00012745
8.54815e-07
-1.84422e-05
-0.000127022
6.50004e-07
-1.81402e-05
-0.000126498
-1.75657e-05
-0.000125202
-7.88038e-07
-3.55081e-05
-0.000138063
-1.12993e-06
-3.6504e-05
-0.000139502
-1.04931e-06
-3.71859e-05
-0.000140288
-6.30028e-07
-3.77547e-05
-0.000140968
-4.00242e-08
-3.80749e-05
-0.000141371
5.54873e-07
-3.80917e-05
-0.000141407
9.79147e-07
-3.7815e-05
-0.000141083
1.07525e-06
-3.7281e-05
-0.000140473
7.6523e-07
-3.66289e-05
-0.000139744
-3.56446e-05
-0.000138328
-1.29456e-06
-5.35896e-05
-0.000164603
-1.75698e-06
-5.51712e-05
-0.000166643
-1.58627e-06
-5.63061e-05
-0.000167999
-9.39227e-07
-5.72506e-05
-0.000169153
-5.66753e-08
-5.77526e-05
-0.000169798
8.20551e-07
-5.77824e-05
-0.000169849
1.48153e-06
-5.73274e-05
-0.000169294
1.67542e-06
-5.64354e-05
-0.000168232
1.25423e-06
-5.53554e-05
-0.000166956
-5.37982e-05
-0.000164951
-2.31203e-06
-7.00881e-05
-0.000207091
-2.88119e-06
-7.26533e-05
-0.000210797
-2.49724e-06
-7.4268e-05
-0.000213321
-1.436e-06
-7.55931e-05
-0.000215371
-8.71386e-08
-7.62716e-05
-0.000216475
1.26935e-06
-7.62961e-05
-0.00021653
2.33837e-06
-7.5679e-05
-0.000215558
2.74772e-06
-7.442e-05
-0.000213637
2.23976e-06
-7.28794e-05
-0.000211231
-7.03565e-05
-0.000207583
-3.99072e-06
-0.000267817
-8.25213e-05
-4.72133e-06
-0.000274899
-8.64776e-05
-3.96775e-06
-0.000279511
-8.86607e-05
-2.22775e-06
-0.000283099
-9.04364e-05
-1.17396e-07
-0.000284924
-9.1298e-05
1.98956e-06
-0.000285005
-9.13196e-05
3.73008e-06
-0.000283353
-9.05541e-05
4.51602e-06
-0.000279935
-8.8836e-05
3.85841e-06
-0.000275541
-8.67799e-05
-0.000268545
-8.28912e-05
-1.07865e-06
-3.03626e-05
-9.3527e-05
-1.43496e-06
-3.14718e-05
-9.44587e-05
-1.30033e-06
-3.20664e-05
-9.49312e-05
-7.85751e-07
-3.25316e-05
-9.53354e-05
-6.45268e-08
-3.27947e-05
-9.55814e-05
6.60349e-07
-3.28075e-05
-9.5605e-05
1.18389e-06
-3.25762e-05
-9.54092e-05
1.34247e-06
-3.21377e-05
-9.50499e-05
1.0345e-06
-3.15684e-05
-9.46141e-05
-3.04622e-05
-9.36933e-05
-1.38367e-06
-6.23967e-05
-0.000104679
-1.88914e-06
-6.43326e-05
-0.000106187
-1.71492e-06
-6.56458e-05
-0.000106933
-1.02799e-06
-6.6712e-05
-0.000107538
-7.58425e-08
-6.72847e-05
-0.000107886
8.73848e-07
-6.73163e-05
-0.000107917
1.57526e-06
-6.67996e-05
-0.000107626
1.77894e-06
-6.57917e-05
-0.000107076
1.33069e-06
-6.45337e-05
-0.000106379
-6.26216e-05
-0.000104888
-2.42948e-06
-9.63857e-05
-0.000128308
-3.10452e-06
-9.97047e-05
-0.000130707
-2.71945e-06
-0.000102032
-0.000132123
-1.58076e-06
-0.000103888
-0.000133232
-1.07507e-07
-0.000104854
-0.000133837
1.37124e-06
-0.000104889
-0.000133873
2.52235e-06
-0.000104011
-0.000133344
2.94555e-06
-0.000102246
-0.000132316
2.34355e-06
-0.000100012
-0.000130973
-9.67407e-05
-0.000128601
-4.61978e-06
-0.000130263
-0.000168694
-5.41458e-06
-0.000136292
-0.000173535
-4.51442e-06
-0.000139939
-0.000176411
-2.54162e-06
-0.000142775
-0.000178557
-1.43961e-07
-0.000144151
-0.000179642
2.24287e-06
-0.000144199
-0.000179691
4.2243e-06
-0.000142925
-0.000178715
5.16877e-06
-0.000140192
-0.000176673
4.47474e-06
-0.000136722
-0.000173948
-0.000130759
-0.00016916
-8.50799e-06
-0.000231146
-0.000158476
-9.33814e-06
-0.000241745
-0.000168598
-7.47904e-06
-0.000247445
-0.000173824
-4.06168e-06
-0.000251446
-0.000177818
-2.00942e-07
-0.000253319
-0.000179602
3.64889e-06
-0.000253385
-0.000179658
7.06682e-06
-0.000251653
-0.000177995
8.92783e-06
-0.000247836
-0.000174146
8.27122e-06
-0.000242395
-0.000169186
-0.000231881
-0.000159162
-1.358e-06
-4.16466e-05
-5.05061e-05
-1.86188e-06
-4.31172e-05
-5.0836e-05
-1.69732e-06
-4.39904e-05
-5.10982e-05
-1.02886e-06
-4.46776e-05
-5.13292e-05
-8.8393e-08
-4.50521e-05
-5.14699e-05
8.53391e-07
-4.50712e-05
-5.14841e-05
1.53595e-06
-4.47346e-05
-5.137e-05
1.73503e-06
-4.40847e-05
-5.11631e-05
1.29996e-06
-4.32473e-05
-5.09178e-05
-4.17921e-05
-5.05999e-05
-1.83799e-06
-8.68839e-05
-5.76569e-05
-2.54172e-06
-8.96749e-05
-5.89683e-05
-2.30734e-06
-9.17035e-05
-5.95119e-05
-1.37314e-06
-9.33127e-05
-5.98958e-05
-1.06007e-07
-9.41602e-05
-6.01145e-05
1.16289e-06
-9.41971e-05
-6.01313e-05
2.11306e-06
-9.34261e-05
-5.99452e-05
2.38782e-06
-9.19011e-05
-5.95962e-05
1.75757e-06
-8.99546e-05
-5.90841e-05
-8.71996e-05
-5.77799e-05
-3.51377e-06
-0.000137887
-7.38669e-05
-4.43556e-06
-0.000143331
-7.62479e-05
-3.81831e-06
-0.000147161
-7.73918e-05
-2.19205e-06
-0.000150114
-7.81705e-05
-1.43132e-07
-0.000151583
-7.85687e-05
1.90583e-06
-0.000151633
-7.85881e-05
3.54109e-06
-0.000150284
-7.8238e-05
4.21069e-06
-0.000147447
-7.75019e-05
3.38762e-06
-0.000143789
-7.6424e-05
-0.000138424
-7.40648e-05
-7.2944e-06
-0.00019484
-0.000104617
-8.23891e-06
-0.000206127
-0.000109848
-6.66475e-06
-0.000212778
-0.000112416
-3.65763e-06
-0.000217676
-0.000114046
-1.95373e-07
-0.000219934
-0.000114795
3.24878e-06
-0.000220001
-0.000114829
6.26822e-06
-0.000217884
-0.000114129
7.85727e-06
-0.000213175
-0.000112592
7.07586e-06
-0.000206818
-0.000110139
-0.000195643
-0.000104939
-1.47578e-05
-0.000160709
-0.000250327
-1.50955e-05
-0.000174985
-0.00027252
-1.1491e-05
-0.000180836
-0.000282923
-6.00158e-06
-0.000184159
-0.000290398
-2.69676e-07
-0.000185479
-0.000293449
5.44533e-06
-0.000185504
-0.00029352
1.08847e-05
-0.000184292
-0.000290659
1.44723e-05
-0.000181067
-0.000283395
1.43982e-05
-0.000175603
-0.000273604
-0.000161387
-0.000251571
-1.38284e-06
-4.91244e-05
-2.03354e-06
-5.01841e-05
-1.90213e-06
-5.12349e-05
-1.15576e-06
-5.2082e-05
-1.01563e-07
-5.25359e-05
9.55594e-07
-5.25564e-05
1.71905e-06
-5.21441e-05
1.89178e-06
-5.13424e-05
1.31263e-06
-5.03367e-05
-4.93021e-05
-2.03753e-06
-0.00010477
-2.92001e-06
-0.000108311
-2.67073e-06
-0.000111038
-1.58247e-06
-0.000113112
-1.20954e-07
-0.00011416
1.34313e-06
-0.000114199
2.44539e-06
-0.000113243
2.74084e-06
-0.000111263
1.94042e-06
-0.000108658
-0.000105177
-4.45602e-06
-0.000174281
-5.48145e-06
-0.00018359
-4.62617e-06
-0.000189342
-2.60589e-06
-0.00019336
-1.60811e-07
-0.000195227
2.27395e-06
-0.000195289
4.30757e-06
-0.000193545
5.19817e-06
-0.000189702
4.29197e-06
-0.000184207
-0.000174998
-1.05268e-05
-0.000268326
-1.10496e-05
-0.000292961
-8.48455e-06
-0.000304334
-4.48127e-06
-0.00031142
-2.26669e-07
-0.000314306
4.02365e-06
-0.00031436
7.98591e-06
-0.000311672
1.05457e-05
-0.0003048
1.02443e-05
-0.00029413
-0.000269653
-2.59742e-05
-0.000403101
-2.27759e-05
-0.000471093
-1.5489e-05
-0.000492459
-7.53363e-06
-0.000503567
-2.92679e-07
-0.000507028
6.86854e-06
-0.000507093
1.47431e-05
-0.000503746
2.18086e-05
-0.000493077
2.5461e-05
-0.000473309
-0.000405508
-6.84969e-05
-0.000611371
0.000277052
-4.97463e-05
-0.000808944
0.000318809
-2.71703e-05
-0.000848181
0.000332829
-1.17514e-05
-0.000859197
0.000339927
-3.71604e-07
-0.00086096
0.000342227
1.0956e-05
-0.000860862
0.000342278
2.59003e-05
-0.000859183
0.000340071
4.78801e-05
-0.000848542
0.0003333
6.75065e-05
-0.00081357
0.000320211
-0.000616522
0.000278642
-0.000146611
-0.00091733
0.000452104
-9.86713e-05
-0.00138921
0.000532158
-4.45107e-05
-0.00145943
0.00055675
-1.74662e-05
-0.00145432
0.000567735
-4.0106e-07
-0.00144855
0.000570359
1.6337e-05
-0.00144827
0.000570332
4.24591e-05
-0.00145332
0.000567849
9.50615e-05
-0.00145896
0.000557182
0.000144819
-0.00139746
0.000534405
-0.000926496
0.000454694
-0.000345038
-0.00129249
0.000720118
-0.000182146
-0.00241829
0.000865321
-5.3637e-05
-0.00250796
0.000919409
-1.45612e-05
-0.00244039
0.000946352
-1.23082e-07
-0.00241556
0.000951872
1.39612e-05
-0.00241484
0.000951895
5.08159e-05
-0.00243767
0.000946569
0.000176135
-0.00250515
0.000920667
0.000341038
-0.00243196
0.000868786
-0.00131134
0.000725567
-0.000349147
-0.00192789
0.000983278
-0.000140828
-0.00342663
0.000797465
-3.83873e-05
-0.00350022
0.00088694
-8.17751e-06
-0.00341677
0.000943273
-7.68975e-08
-0.00338648
0.000959908
7.75499e-06
-0.00338573
0.000960055
3.67557e-05
-0.00341378
0.000944312
0.000136682
-0.00349707
0.000889079
0.000344672
-0.00343983
0.00079742
-0.00195227
0.000984517
0.000348741
-0.00227658
0.000182097
-0.00325996
5.70075e-05
-0.00337515
1.59933e-05
-0.00337577
9.89593e-08
-0.00337073
-1.53402e-05
-0.00337039
-5.42286e-05
-0.00337477
-0.000176076
-0.00337526
-0.000344145
-0.00327173
-0.00229625
-3.03149e-05
-0.00026449
0.000321402
-2.6055e-05
-0.000305774
0.000347731
-1.76445e-05
-0.000317364
0.000358707
-8.47842e-06
-0.000325732
0.000365935
-3.1462e-07
-0.00032845
0.000368904
7.79929e-06
-0.000328492
0.00036898
1.68313e-05
-0.000325962
0.000366216
2.50478e-05
-0.000317822
0.000359245
2.97919e-05
-0.000307086
0.000348938
-0.00026596
0.00032274
-5.68581e-05
-0.000227056
0.000471608
-4.90995e-05
-0.000301719
0.000520236
-3.23307e-05
-0.000317242
0.000539772
-1.52579e-05
-0.000327607
0.000552427
-5.09247e-07
-0.00033017
0.000557277
1.41362e-05
-0.000330198
0.000557377
3.08822e-05
-0.000327855
0.000552797
4.73968e-05
-0.000317668
0.000540568
5.58553e-05
-0.00030337
0.000522106
-0.000229166
0.000473752
-5.52418e-05
2.04103e-05
0.000527266
-4.59797e-05
-8.21043e-05
0.000637398
-2.19608e-05
-8.11629e-05
0.000660466
-8.78193e-06
-6.68894e-05
0.000673474
-2.14804e-07
-6.22863e-05
0.00067656
8.21261e-06
-6.2256e-05
0.000676571
2.08978e-05
-6.65781e-05
0.000673694
4.46451e-05
-8.0786e-05
0.000661073
5.42032e-05
-8.29845e-05
0.000640033
1.96653e-05
0.000530554
-0.000104103
0.000218242
0.00089077
-8.9517e-05
-0.000229224
0.000932977
-5.29575e-05
-0.00021954
0.000991839
-2.44244e-05
-0.000176858
0.00102786
-8.64068e-07
-0.000162164
0.00103929
2.25716e-05
-0.000161965
0.00103943
5.10207e-05
-0.000176098
0.00102851
8.84579e-05
-0.00021906
0.00099307
0.000102275
-0.000231324
0.000934916
0.000212839
0.000894831
0.000231097
-0.00228942
0.000128841
-0.0033871
4.4038e-05
-0.00351011
1.27721e-05
-0.00352151
1.17778e-07
-0.00352049
-1.21582e-05
-0.00352031
-4.20189e-05
-0.00352115
-0.000124977
-0.00351154
-0.000228497
-0.00339992
-0.00231194
-1.48122e-05
-0.000157579
0.000335309
-1.36617e-05
-0.00017208
0.000349985
-1.00414e-05
-0.000176165
0.000357307
-5.10471e-06
-0.000179589
0.000362682
-2.22862e-07
-0.000180868
0.000365165
4.64441e-06
-0.000180897
0.000365268
9.53675e-06
-0.000179739
0.000362963
1.31131e-05
-0.000176406
0.000357824
1.45155e-05
-0.000172662
0.000350878
-0.000158224
0.000336278
-2.83563e-05
-0.000130671
0.000472917
-2.61577e-05
-0.000151132
0.000496983
-1.92266e-05
-0.000153823
0.000510342
-9.74848e-06
-0.000157088
0.000520283
-3.95827e-07
-0.00015789
0.000524861
8.90206e-06
-0.000157932
0.000524993
1.83025e-05
-0.00015724
0.000520771
2.51308e-05
-0.000154095
0.000511186
2.77463e-05
-0.000151693
0.000498477
-0.000131465
0.000474661
-2.18369e-05
8.10255e-06
0.000409981
-1.50777e-05
2.70538e-05
0.000451918
-8.21975e-06
3.74331e-05
0.000461775
-3.66779e-06
4.29487e-05
0.000468327
-1.28303e-07
4.42688e-05
0.000470253
3.40333e-06
4.42586e-05
0.0004703
7.76824e-06
4.29551e-05
0.000468503
1.44754e-05
3.75827e-05
0.000462165
2.14685e-05
2.76096e-05
0.000453141
8.96035e-06
0.000411202
-6.79033e-05
0.000310139
0.00065612
-5.26428e-05
0.000308419
0.000635638
-3.36218e-05
0.000348067
0.000661275
-1.64853e-05
0.000369788
0.000682941
-7.2593e-07
0.000375939
0.000690973
1.49247e-05
0.000375921
0.000691166
3.19136e-05
0.000369866
0.000683748
5.10243e-05
0.00034811
0.00066256
6.63866e-05
0.000309342
0.000637011
0.000311524
0.000658213
8.41446e-05
-0.00206332
4.41439e-05
-0.00303864
1.41614e-05
-0.00313189
3.45454e-06
-0.00314091
2.26988e-08
-0.00314102
-3.23385e-06
-0.00314096
-1.34341e-05
-0.00314096
-4.29595e-05
-0.00313379
-8.32425e-05
-0.00305031
-0.00208363
-5.94484e-06
-7.98392e-05
0.000338482
-5.95231e-06
-8.43697e-05
0.000347873
-4.71685e-06
-8.55796e-05
0.000352974
-2.54986e-06
-8.69109e-05
0.000356913
-1.13218e-07
-8.7458e-05
0.00035892
2.27089e-06
-8.75089e-05
0.000358987
4.46982e-06
-8.69894e-05
0.000357209
5.68542e-06
-8.57356e-05
0.000353429
5.78132e-06
-8.46385e-05
0.000348575
-8.01294e-05
0.000339261
-1.18891e-05
-6.58451e-05
0.000470929
-1.2015e-05
-7.49078e-05
0.000487722
-9.54064e-06
-7.63816e-05
0.000498733
-5.09055e-06
-7.81736e-05
0.000507215
-2.58007e-07
-7.88027e-05
0.00051137
4.59914e-06
-7.88136e-05
0.000511565
9.00535e-06
-7.83257e-05
0.000507713
1.14841e-05
-7.65893e-05
0.000499645
1.15527e-05
-7.5271e-05
0.000489108
-6.63507e-05
0.000472524
-5.11831e-06
-3.8869e-05
0.000387902
-3.85579e-06
-2.96874e-05
0.000405325
-2.78343e-06
-2.6347e-05
0.00041046
-1.52415e-06
-2.59062e-05
0.000414529
-6.44895e-08
-2.6346e-05
0.00041617
1.34925e-06
-2.64269e-05
0.000416197
2.62421e-06
-2.59967e-05
0.000414752
3.638e-06
-2.6462e-05
0.000410772
4.97513e-06
-2.95909e-05
0.000405994
-3.88844e-05
0.00038859
-3.52867e-05
8.37181e-05
0.00056905
-2.84831e-05
6.51536e-05
0.000534337
-1.96583e-05
7.49889e-05
0.000551611
-9.89032e-06
7.96173e-05
0.000568209
-5.30111e-07
8.07576e-05
0.000574921
8.84862e-06
8.07782e-05
0.00057521
1.84959e-05
7.95701e-05
0.000568962
2.74148e-05
7.48489e-05
0.000552864
3.43216e-05
6.51929e-05
0.000535655
8.33527e-05
0.000570419
1.88281e-05
-0.00199871
8.10181e-06
-0.00296269
1.19015e-06
-0.00304993
-4.02282e-07
-0.00305968
1.43788e-08
-0.00306067
4.78304e-07
-0.00306069
-9.71503e-07
-0.00305992
-7.85603e-06
-0.00305204
-1.8648e-05
-0.00297428
-0.00201907
-5.45491e-07
-9.74462e-06
0.000333088
-8.26146e-07
-8.07781e-06
0.000340419
-8.82604e-07
-6.99457e-06
0.000344245
-5.35239e-07
-6.62676e-06
0.000347317
-4.45842e-08
-6.53542e-06
0.000348902
4.87223e-07
-6.51828e-06
0.000349003
8.03315e-07
-6.69528e-06
0.000347556
7.64813e-07
-7.03213e-06
0.00034468
5.00701e-07
-8.10725e-06
0.00034104
-9.8248e-06
0.000333761
-1.21583e-07
-1.90573e-05
0.000480262
-8.90855e-07
-1.62382e-05
0.000496822
-1.33189e-06
-1.53814e-05
0.000507635
-9.3829e-07
-1.55536e-05
0.000515773
-5.42935e-08
-1.5699e-05
0.000519833
7.46434e-07
-1.57565e-05
0.00051997
1.22425e-06
-1.56009e-05
0.000516331
7.75453e-07
-1.5506e-05
0.000508555
1.08652e-08
-1.63489e-05
0.000498265
-1.92356e-05
0.000482007
3.80867e-06
-2.0209e-05
0.000385677
2.32944e-06
-8.60537e-06
0.000398664
9.32743e-07
-6.96778e-06
0.00040287
2.45376e-07
-7.22152e-06
0.000406352
-3.66645e-08
-7.72175e-06
0.000407797
-2.40227e-07
-7.70934e-06
0.000407867
-9.4048e-07
-7.34152e-06
0.000406565
-2.33031e-06
-7.07743e-06
0.00040325
-3.78585e-06
-8.6389e-06
0.000399249
-2.04908e-05
0.000386249
7.83702e-06
-3.16132e-05
0.000572065
1.52736e-06
-3.57412e-05
0.000568274
-3.16053e-06
-3.77556e-05
0.000588671
-2.90259e-06
-4.14046e-05
0.000603322
-2.24939e-07
-4.28745e-05
0.00060885
2.33406e-06
-4.2929e-05
0.000609056
2.80314e-06
-4.15317e-05
0.000604028
-1.79864e-06
-3.80685e-05
0.000589796
-8.28473e-06
-3.5952e-05
0.000570331
-3.24521e-05
0.000573851
-3.05261e-06
-0.00202702
-4.62613e-06
-0.002997
-3.62766e-06
-0.00308885
-2.0118e-06
-0.00310286
-2.39533e-08
-0.00310583
1.98833e-06
-0.0031059
3.57854e-06
-0.00310336
4.63117e-06
-0.00309118
3.1234e-06
-0.00300905
-0.00204842
3.22551e-06
6.38974e-05
0.000316193
2.965e-06
7.18205e-05
0.000322918
2.07003e-06
7.55396e-05
0.000325781
1.0248e-06
7.77196e-05
0.000328172
6.0297e-08
7.86253e-05
0.000329455
-9.36356e-07
7.86107e-05
0.000329514
-1.95018e-06
7.77742e-05
0.000328418
-2.86778e-06
7.56377e-05
0.000326153
-3.18479e-06
7.20873e-05
0.000323458
6.41997e-05
0.000316813
1.23717e-05
3.29106e-05
0.000499324
1.01755e-05
5.38089e-05
0.000517249
6.54936e-06
5.90268e-05
0.000528022
3.10164e-06
6.10458e-05
0.000536383
8.70031e-08
6.135e-05
0.000540474
-2.87077e-06
6.13497e-05
0.000540669
-6.29071e-06
6.09967e-05
0.00053697
-9.83197e-06
5.90197e-05
0.000529044
-1.22041e-05
5.41193e-05
0.000518787
3.30564e-05
0.000501266
1.05365e-05
3.04476e-05
0.000377043
7.5048e-06
6.44921e-05
0.000390827
4.17184e-06
7.18574e-05
0.000393155
1.75242e-06
7.3383e-05
0.000395919
6.01125e-08
7.31637e-05
0.000397293
-1.6241e-06
7.31249e-05
0.000397385
-3.99608e-06
7.32875e-05
0.000396176
-7.3742e-06
7.17535e-05
0.00039344
-1.04488e-05
6.50671e-05
0.000391432
3.07751e-05
0.000377793
7.20597e-05
-0.000147205
0.000678346
3.91687e-05
-8.61946e-05
0.000752669
1.4397e-05
-9.07394e-05
0.000776981
4.52105e-06
-0.000104048
0.000792196
1.47072e-08
-0.000109613
0.000797773
-4.42572e-06
-0.00010977
0.000797953
-1.39264e-05
-0.0001047
0.000792862
-3.80725e-05
-9.14542e-05
0.000778423
-7.18289e-05
-8.60988e-05
0.000755883
-0.000148814
0.000681918
-2.70319e-05
-0.00214749
-1.98292e-05
-0.00309062
-1.0433e-05
-0.0031894
-4.54103e-06
-0.00321348
-7.91901e-08
-0.00322058
4.33891e-06
-0.00322075
1.01987e-05
-0.00321433
1.93596e-05
-0.0031924
2.69138e-05
-0.00310296
-0.0021704
6.45653e-06
0.000152338
0.000278174
5.96573e-06
0.000168375
0.000283617
4.40369e-06
0.000175003
0.000285103
2.30632e-06
0.000179385
0.000286619
1.19819e-07
0.000181204
0.000287431
-2.02973e-06
0.000181258
0.000287507
-4.15005e-06
0.00017954
0.000286803
-5.72621e-06
0.000175324
0.000285394
-6.30371e-06
0.000168982
0.000284027
0.000153056
0.00027862
2.62339e-05
0.000118026
0.000507483
2.1877e-05
0.000169251
0.000520882
1.48461e-05
0.000180593
0.000529762
7.20399e-06
0.000186443
0.000537295
2.83932e-07
0.000188073
0.000541096
-6.58194e-06
0.000188078
0.000541272
-1.41298e-05
0.000186548
0.000537865
-2.10938e-05
0.00018081
0.0005307
-2.57142e-05
0.000170363
0.000522298
0.000119311
0.000509447
1.72466e-05
0.000136293
0.000341458
1.20544e-05
0.000215241
0.000350416
7.10344e-06
0.000230914
0.000348177
3.34594e-06
0.000238069
0.000348194
1.52734e-07
0.000239968
0.000348041
-3.0471e-06
0.00023998
0.000348083
-6.84261e-06
0.000238113
0.000348318
-1.16306e-05
0.00023125
0.000348365
-1.69747e-05
0.00021676
0.000350595
0.000138062
0.000341789
0.000164714
-0.000245941
0.000896461
9.42983e-05
2.98965e-05
0.00101173
4.01914e-05
3.43001e-05
0.00103102
1.5086e-05
1.10591e-05
0.00104336
3.50364e-07
8.92215e-08
0.00104834
-1.41802e-05
-2.54714e-07
0.00104854
-3.85166e-05
9.9668e-06
0.00104409
-9.14197e-05
3.34329e-05
0.00103244
-0.000162663
3.19907e-05
0.001015
-0.000244874
0.000903057
-7.14905e-05
-0.00232213
-4.85173e-05
-0.0030871
-2.49152e-05
-0.00318202
-1.03838e-05
-0.00321572
-2.22836e-07
-0.00322592
9.85024e-06
-0.00322614
2.41138e-05
-0.00321685
4.70508e-05
-0.00318544
7.06231e-05
-0.00309764
-0.002345
8.48717e-06
0.000255949
0.000211542