/*--------------------------------*- C++ -*----------------------------------*\
| =========                 |                                                 |
| \\      /  F ield         | OpenFOAM: The Open Source CFD Toolbox           |
|  \\    /   O peration     | Version:  2.3.1                                 |
|   \\  /    A nd           | Web:      www.OpenFOAM.org                      |
|    \\/     M anipulation  |                                                 |
\*---------------------------------------------------------------------------*/
FoamFile
{
    version     2.0;
    format      ascii;
    class       volScalarField;
    location    "0.41";
    object      epsilon;
}
// * * * * * * * * * * * * * * * * * * * * * * * * * * * * * * * * * * * * * //

dimensions      [0 2 -3 0 0 0 0];

internalField   nonuniform List<scalar> 
1000
(
0.00114857
0.00117929
0.00117965
0.00117958
0.00117956
0.00117955
0.00117954
0.00117954
0.00117951
0.00117629
0.00117975
0.00118175
0.00118179
0.00118176
0.00118175
0.00118174
0.00118173
0.00118173
0.00118162
0.00117671
0.00118066
0.00118241
0.00118248
0.00118246
0.00118245
0.00118244
0.00118243
0.00118243
0.00118232
0.00117726
0.0011813
0.00118321
0.00118332
0.00118331
0.00118331
0.0011833
0.00118328
0.00118328
0.00118317
0.00117804
0.0011823
0.00118446
0.00118461
0.00118463
0.00118464
0.00118462
0.00118462
0.0011846
0.00118448
0.00117909
0.00117904
0.00118128
0.00118151
0.00118156
0.00118158
0.00118159
0.00118159
0.0011816
0.0011815
0.00117677
0.00118168
0.000699954
0.000683728
0.000683211
0.000683151
0.000683123
0.000683106
0.0006833
0.000698344
0.00117991
0.00118236
0.000682421
0.000665683
0.00066525
0.000665239
0.000665237
0.000665236
0.000665457
0.000681233
0.0011806
0.00118307
0.000681912
0.000665238
0.000664814
0.000664806
0.000664804
0.000664806
0.000665029
0.000680859
0.00118132
0.00118408
0.000682096
0.000665414
0.000664997
0.000664989
0.000664989
0.000664992
0.000665214
0.000681109
0.00118234
0.00118005
0.0011818
0.001182
0.00118206
0.00118209
0.00118211
0.00118212
0.00118212
0.00118202
0.0011772
0.00118205
0.000683719
0.000666976
0.000666496
0.000666458
0.00066644
0.000666428
0.000666638
0.000682359
0.00118045
0.00118266
0.000665949
0.000648384
0.000647925
0.000647916
0.000647915
0.000647916
0.00064815
0.000664648
0.00118109
0.00118334
0.000665515
0.000647962
0.000647506
0.000647498
0.000647497
0.000647499
0.000647734
0.000664274
0.00118173
0.00118422
0.000665696
0.000648142
0.00064769
0.000647683
0.000647681
0.000647685
0.000647916
0.000664494
0.0011826
0.0011805
0.00118217
0.00118232
0.00118236
0.00118239
0.00118241
0.00118242
0.00118242
0.00118232
0.00117749
0.00118235
0.000682694
0.00066608
0.000665634
0.000665611
0.0006656
0.000665593
0.000665806
0.000681563
0.00118072
0.00118287
0.000665459
0.000647936
0.000647481
0.000647473
0.000647473
0.000647475
0.000647708
0.000664225
0.0011813
0.00118346
0.000665081
0.000647547
0.000647092
0.000647085
0.000647084
0.000647087
0.000647319
0.000663867
0.00118186
0.00118422
0.000665221
0.000647694
0.000647242
0.000647234
0.000647234
0.000647234
0.000647467
0.000664025
0.00118261
0.00118073
0.00118237
0.0011825
0.00118253
0.00118255
0.00118256
0.00118257
0.00118257
0.00118247
0.00117764
0.00118253
0.000682116
0.00066556
0.000665129
0.000665113
0.000665107
0.000665104
0.000665319
0.000681095
0.00118085
0.00118299
0.000665383
0.000647902
0.000647449
0.000647442
0.000647442
0.000647444
0.000647676
0.000664193
0.00118139
0.00118352
0.000665042
0.000647544
0.000647092
0.000647085
0.000647084
0.000647086
0.000647317
0.000663853
0.0011819
0.0011842
0.000665157
0.000647673
0.000647223
0.000647216
0.000647215
0.000647215
0.000647445
0.000663977
0.00118256
0.00118079
0.00118244
0.00118256
0.00118258
0.0011826
0.00118261
0.00118262
0.00118262
0.00118251
0.00117765
0.00118259
0.000681778
0.000665255
0.000664839
0.000664833
0.000664834
0.000664837
0.000665055
0.000680842
0.00118088
0.00118305
0.000665358
0.000647907
0.000647458
0.000647452
0.000647453
0.000647455
0.000647686
0.0006642
0.00118143
0.00118359
0.000665046
0.000647582
0.000647134
0.000647127
0.000647127
0.00064713
0.000647358
0.000663887
0.00118195
0.00118426
0.000665164
0.000647718
0.000647272
0.000647265
0.000647266
0.000647265
0.000647492
0.000664006
0.00118261
0.0011807
0.0011824
0.00118252
0.00118254
0.00118255
0.00118256
0.00118256
0.00118256
0.00118245
0.00117753
0.00118256
0.000681762
0.000665258
0.000664844
0.000664838
0.000664839
0.000664841
0.000665058
0.000680845
0.00118082
0.00118309
0.000665393
0.000647965
0.000647519
0.000647512
0.000647513
0.000647515
0.000647745
0.000664252
0.00118144
0.0011837
0.000665122
0.000647677
0.000647231
0.000647225
0.000647226
0.000647227
0.000647453
0.000663968
0.00118204
0.00118445
0.00066528
0.000647855
0.00064741
0.000647404
0.000647405
0.000647403
0.000647626
0.000664119
0.00118277
0.00118047
0.00118221
0.00118233
0.00118234
0.00118235
0.00118236
0.00118236
0.00118235
0.00118225
0.00117727
0.00118239
0.000682029
0.000665549
0.000665136
0.00066513
0.00066513
0.000665133
0.000665351
0.000681128
0.00118063
0.00118303
0.000665743
0.00064834
0.000647896
0.000647889
0.000647891
0.000647893
0.00064812
0.000664612
0.00118135
0.00118375
0.000665546
0.000648134
0.000647691
0.000647686
0.000647687
0.000647688
0.00064791
0.000664402
0.00118205
0.00118466
0.000665841
0.000648462
0.000648022
0.000648017
0.000648019
0.000648014
0.000648231
0.000664685
0.00118295
0.00118006
0.00118177
0.00118188
0.00118189
0.0011819
0.0011819
0.0011819
0.0011819
0.00118179
0.00117683
0.00118202
0.000698752
0.00068301
0.000682626
0.000682626
0.000682631
0.000682635
0.000682842
0.00069808
0.00118019
0.00118275
0.000683639
0.000667058
0.00066665
0.000666652
0.000666657
0.000666658
0.000666873
0.000682762
0.00118099
0.00118359
0.000684276
0.000667731
0.000667333
0.000667338
0.000667346
0.000667339
0.000667539
0.000683388
0.00118181
0.00118471
0.000686134
0.000669723
0.000669344
0.000669357
0.000669361
0.000669342
0.000669522
0.000685246
0.00118291
0.00117638
0.00117642
0.00117643
0.00117643
0.00117643
0.00117644
0.00117643
0.00117643
0.0011764
0.00117299
0.00117697
0.00117983
0.00118003
0.00118005
0.00118005
0.00118005
0.00118005
0.00118004
0.00117989
0.00117365
0.00117769
0.00118074
0.00118097
0.00118099
0.00118099
0.001181
0.00118099
0.00118098
0.0011808
0.00117437
0.00117863
0.00118168
0.00118191
0.00118194
0.00118195
0.00118195
0.00118194
0.00118191
0.0011817
0.0011753
0.00118005
0.00118305
0.00118329
0.00118332
0.00118334
0.00118333
0.00118332
0.00118327
0.00118304
0.00117675
0.00118523
0.00118698
0.00118717
0.00118721
0.00118722
0.00118722
0.0011872
0.00118712
0.00118693
0.00118206
0.0011896
0.00119178
0.00119204
0.00119209
0.0011921
0.0011921
0.00119209
0.00119203
0.00119184
0.00118658
0.00120545
0.0012173
0.00121745
0.00121716
0.00121704
0.00121705
0.00121712
0.00121748
0.00121762
0.0012029
0.00141641
0.00167288
0.00166854
0.00166205
0.00165994
0.00165979
0.00166166
0.00166765
0.00167885
0.00142463
0.00404215
0.00669364
0.00685221
0.00685787
0.00685802
0.00685696
0.00685389
0.00684539
0.00674105
0.00412198
0.00118566
0.000690682
0.000674736
0.000674411
0.000674434
0.000674435
0.000674408
0.000674533
0.000689861
0.00118387
0.00118755
0.000700036
0.000684752
0.000684525
0.000684563
0.000684566
0.000684521
0.000684579
0.000699368
0.00118587
0.00119111
0.000739313
0.000726878
0.000727265
0.000727459
0.000727466
0.000727282
0.000726812
0.00073927
0.00118948
0.00125295
0.00102059
0.00102029
0.00102056
0.00102064
0.00102061
0.0010205
0.00102041
0.0010263
0.0012556
0.00566432
0.0152499
0.0156942
0.0156751
0.0156629
0.0156605
0.0156671
0.0156886
0.0154377
0.00584142
0.00118482
0.000666179
0.000648809
0.000648371
0.000648366
0.000648364
0.000648359
0.000648567
0.000665026
0.00118316
0.00118579
0.000666993
0.000649698
0.000649276
0.000649272
0.000649273
0.000649264
0.000649463
0.000665879
0.00118422
0.00118686
0.000672898
0.00065623
0.000655963
0.000655998
0.000655999
0.000655957
0.000656031
0.000671952
0.00118531
0.00123303
0.000941168
0.000938249
0.000939041
0.000939285
0.000939277
0.000939034
0.000938468
0.000946275
0.00123527
0.0058954
0.0158619
0.0162877
0.016285
0.0162782
0.0162768
0.0162812
0.0162941
0.0160656
0.00608625
0.00118424
0.000664926
0.000647437
0.000646986
0.000646977
0.000646976
0.000646973
0.000647197
0.000663749
0.00118259
0.00118485
0.000664927
0.000647433
0.000646982
0.000646972
0.000646971
0.000646969
0.000647194
0.000663764
0.00118326
0.00118545
0.000666405
0.000649028
0.000648598
0.000648593
0.000648592
0.000648588
0.000648801
0.000665305
0.00118389
0.00122925
0.000920277
0.000915302
0.000915613
0.000915727
0.000915726
0.000915614
0.000915507
0.000925078
0.00123132
0.00600947
0.0162863
0.0167306
0.01674
0.0167372
0.0167365
0.0167388
0.0167437
0.0165033
0.00620915
0.00118391
0.000664723
0.000647203
0.000646749
0.00064674
0.000646739
0.000646738
0.000646968
0.00066355
0.00118227
0.00118446
0.000664678
0.000647149
0.000646693
0.000646683
0.000646682
0.000646682
0.000646915
0.000663511
0.00118285
0.001185
0.000665827
0.000648371
0.00064792
0.00064791
0.00064791
0.000647911
0.000648142
0.000664711
0.00118341
0.00122849
0.000916744
0.000911215
0.000911389
0.000911467
0.000911471
0.000911403
0.000911429
0.000921497
0.00123052
0.00605321
0.0164509
0.0169054
0.0169208
0.0169203
0.0169202
0.0169211
0.0169217
0.0166736
0.00625651
0.00118387
0.000664723
0.000647157
0.0006467
0.000646691
0.000646689
0.000646688
0.000646923
0.000663533
0.00118224
0.00118449
0.000664745
0.00064715
0.000646694
0.000646685
0.000646683
0.000646685
0.000646919
0.000663569
0.00118286
0.00118516
0.00066608
0.000648555
0.000648113
0.000648109
0.00064811
0.000648106
0.000648337
0.00066496
0.00118353
0.00123477
0.000950788
0.00094961
0.000951703
0.000952545
0.00095259
0.000951867
0.000950164
0.00095663
0.0012372
0.00606295
0.0164736
0.0169286
0.0169458
0.0169461
0.0169461
0.0169467
0.0169462
0.016698
0.00626792
0.00118403
0.000664865
0.00064723
0.000646773
0.000646764
0.000646761
0.000646764
0.000646998
0.000663672
0.00118241
0.00118484
0.000665052
0.000647337
0.000646884
0.000646875
0.000646878
0.000646875
0.000647117
0.000663875
0.00118317
0.00118581
0.000667206
0.000649528
0.000649123
0.000649137
0.000649135
0.000649125
0.000649305
0.000666101
0.00118412
0.00125381
0.00104514
0.00105607
0.00106312
0.00106577
0.00106588
0.00106354
0.0010574
0.0010534
0.00125736
0.00605201
0.0163899
0.0168369
0.0168534
0.0168539
0.0168539
0.0168548
0.0168554
0.0166151
0.0062591
0.00118429
0.000665344
0.000647627
0.000647176
0.000647165
0.000647168
0.000647167
0.000647407
0.000664157
0.00118264
0.0011853
0.000665971
0.000648058
0.000647612
0.000647609
0.000647606
0.000647612
0.000647835
0.000664799
0.00118356
0.00118707
0.000672377
0.000654611
0.000654331
0.000654383
0.000654389
0.000654324
0.000654411
0.000671318
0.00118533
0.00129736
0.00118729
0.00121923
0.00123597
0.00124202
0.00124225
0.00123683
0.00122147
0.00119753
0.00130333
0.00601175
0.0161119
0.016538
0.016553
0.0165536
0.0165536
0.016555
0.0165583
0.0163353
0.00622325
0.00118445
0.000681357
0.000664271
0.000663849
0.000663843
0.000663842
0.000663849
0.000664072
0.000680388
0.00118272
0.00118588
0.000683429
0.000666067
0.000665644
0.000665647
0.000665653
0.000665638
0.00066587
0.000682462
0.00118403
0.00118966
0.000705066
0.000687998
0.000688096
0.000688287
0.000688287
0.000688102
0.000687829
0.000704329
0.00118798
0.00131983
0.000993096
0.000993815
0.000998755
0.00100039
0.00100042
0.000998981
0.000994362
0.000997912
0.00132438
0.00575452
0.0146552
0.0150313
0.015059
0.0150657
0.0150661
0.0150623
0.0150517
0.0148301
0.00594235
0.00118022
0.0011844
0.00118476
0.00118481
0.00118482
0.00118481
0.0011848
0.00118477
0.00118448
0.00117687
0.00118245
0.00118767
0.00118818
0.00118824
0.00118825
0.00118825
0.00118822
0.00118818
0.00118767
0.00117909
0.00119016
0.00119922
0.00120005
0.00120018
0.00120018
0.00120017
0.00120022
0.0012
0.00119939
0.00118712
0.0012214
0.00126328
0.00126854
0.00126963
0.00126994
0.00127
0.00126966
0.00126883
0.00126473
0.00121986
0.00367513
0.00550401
0.00558866
0.00560267
0.00560686
0.00560697
0.00560389
0.00559299
0.00553512
0.00373233
)
;

boundaryField
{
    walls
    {
        type            epsilonWallFunction;
        value           nonuniform List<scalar> 
500
(
0.00114857
0.00114857
0.00114857
0.00117929
0.00117929
0.00117965
0.00117965
0.00117958
0.00117958
0.00117956
0.00117956
0.00117955
0.00117955
0.00117954
0.00117954
0.00117954
0.00117954
0.00117951
0.00117951
0.00117629
0.00117629
0.00117629
0.00117975
0.00117975
0.00118175
0.00118179
0.00118176
0.00118175
0.00118174
0.00118173
0.00118173
0.00118162
0.00117671
0.00117671
0.00118066
0.00118066
0.00118241
0.00118248
0.00118246
0.00118245
0.00118244
0.00118243
0.00118243
0.00118232
0.00117726
0.00117726
0.0011813
0.0011813
0.00118321
0.00118332
0.00118331
0.00118331
0.0011833
0.00118328
0.00118328
0.00118317
0.00117804
0.00117804
0.0011823
0.0011823
0.00118446
0.00118461
0.00118463
0.00118464
0.00118462
0.00118462
0.0011846
0.00118448
0.00117909
0.00117909
0.00117904
0.00117904
0.00118128
0.00118151
0.00118156
0.00118158
0.00118159
0.00118159
0.0011816
0.0011815
0.00117677
0.00117677
0.00118168
0.00117991
0.00118236
0.0011806
0.00118307
0.00118132
0.00118408
0.00118234
0.00118005
0.00118005
0.0011818
0.001182
0.00118206
0.00118209
0.00118211
0.00118212
0.00118212
0.00118202
0.0011772
0.0011772
0.00118205
0.00118045
0.00118266
0.00118109
0.00118334
0.00118173
0.00118422
0.0011826
0.0011805
0.0011805
0.00118217
0.00118232
0.00118236
0.00118239
0.00118241
0.00118242
0.00118242
0.00118232
0.00117749
0.00117749
0.00118235
0.00118072
0.00118287
0.0011813
0.00118346
0.00118186
0.00118422
0.00118261
0.00118073
0.00118073
0.00118237
0.0011825
0.00118253
0.00118255
0.00118256
0.00118257
0.00118257
0.00118247
0.00117764
0.00117764
0.00118253
0.00118085
0.00118299
0.00118139
0.00118352
0.0011819
0.0011842
0.00118256
0.00118079
0.00118079
0.00118244
0.00118256
0.00118258
0.0011826
0.00118261
0.00118262
0.00118262
0.00118251
0.00117765
0.00117765
0.00118259
0.00118088
0.00118305
0.00118143
0.00118359
0.00118195
0.00118426
0.00118261
0.0011807
0.0011807
0.0011824
0.00118252
0.00118254
0.00118255
0.00118256
0.00118256
0.00118256
0.00118245
0.00117753
0.00117753
0.00118256
0.00118082
0.00118309
0.00118144
0.0011837
0.00118204
0.00118445
0.00118277
0.00118047
0.00118047
0.00118221
0.00118233
0.00118234
0.00118235
0.00118236
0.00118236
0.00118235
0.00118225
0.00117727
0.00117727
0.00118239
0.00118063
0.00118303
0.00118135
0.00118375
0.00118205
0.00118466
0.00118295
0.00118006
0.00118006
0.00118177
0.00118188
0.00118189
0.0011819
0.0011819
0.0011819
0.0011819
0.00118179
0.00117683
0.00117683
0.00118202
0.00118019
0.00118275
0.00118099
0.00118359
0.00118181
0.00118471
0.00118291
0.00117638
0.00117638
0.00117638
0.00117642
0.00117642
0.00117643
0.00117643
0.00117643
0.00117643
0.00117643
0.00117643
0.00117644
0.00117644
0.00117643
0.00117643
0.00117643
0.00117643
0.0011764
0.0011764
0.00117299
0.00117299
0.00117299
0.00117697
0.00117697
0.00117983
0.00118003
0.00118005
0.00118005
0.00118005
0.00118005
0.00118004
0.00117989
0.00117365
0.00117365
0.00117769
0.00117769
0.00118074
0.00118097
0.00118099
0.00118099
0.001181
0.00118099
0.00118098
0.0011808
0.00117437
0.00117437
0.00117863
0.00117863
0.00118168
0.00118191
0.00118194
0.00118195
0.00118195
0.00118194
0.00118191
0.0011817
0.0011753
0.0011753
0.00118005
0.00118005
0.00118305
0.00118329
0.00118332
0.00118334
0.00118333
0.00118332
0.00118327
0.00118304
0.00117675
0.00117675
0.00118523
0.00118523
0.00118698
0.00118717
0.00118721
0.00118722
0.00118722
0.0011872
0.00118712
0.00118693
0.00118206
0.00118206
0.0011896
0.0011896
0.00119178
0.00119204
0.00119209
0.0011921
0.0011921
0.00119209
0.00119203
0.00119184
0.00118658
0.00118658
0.00120545
0.00120545
0.0012173
0.00121745
0.00121716
0.00121704
0.00121705
0.00121712
0.00121748
0.00121762
0.0012029
0.0012029
0.00141641
0.00141641
0.00167288
0.00166854
0.00166205
0.00165994
0.00165979
0.00166166
0.00166765
0.00167885
0.00142463
0.00142463
0.00404215
0.00404215
0.00669364
0.00685221
0.00685787
0.00685802
0.00685696
0.00685389
0.00684539
0.00674105
0.00412198
0.00412198
0.00118566
0.00118387
0.00118755
0.00118587
0.00119111
0.00118948
0.00125295
0.0012556
0.00566432
0.00584142
0.00118482
0.00118316
0.00118579
0.00118422
0.00118686
0.00118531
0.00123303
0.00123527
0.0058954
0.00608625
0.00118424
0.00118259
0.00118485
0.00118326
0.00118545
0.00118389
0.00122925
0.00123132
0.00600947
0.00620915
0.00118391
0.00118227
0.00118446
0.00118285
0.001185
0.00118341
0.00122849
0.00123052
0.00605321
0.00625651
0.00118387
0.00118224
0.00118449
0.00118286
0.00118516
0.00118353
0.00123477
0.0012372
0.00606295
0.00626792
0.00118403
0.00118241
0.00118484
0.00118317
0.00118581
0.00118412
0.00125381
0.00125736
0.00605201
0.0062591
0.00118429
0.00118264
0.0011853
0.00118356
0.00118707
0.00118533
0.00129736
0.00130333
0.00601175
0.00622325
0.00118445
0.00118272
0.00118588
0.00118403
0.00118966
0.00118798
0.00131983
0.00132438
0.00575452
0.00594235
0.00118022
0.00118022
0.0011844
0.00118476
0.00118481
0.00118482
0.00118481
0.0011848
0.00118477
0.00118448
0.00117687
0.00117687
0.00118245
0.00118245
0.00118767
0.00118818
0.00118824
0.00118825
0.00118825
0.00118822
0.00118818
0.00118767
0.00117909
0.00117909
0.00119016
0.00119016
0.00119922
0.00120005
0.00120018
0.00120018
0.00120017
0.00120022
0.0012
0.00119939
0.00118712
0.00118712
0.0012214
0.0012214
0.00126328
0.00126854
0.00126963
0.00126994
0.00127
0.00126966
0.00126883
0.00126473
0.00121986
0.00121986
0.00367513
0.00367513
0.00550401
0.00558866
0.00560267
0.00560686
0.00560697
0.00560389
0.00559299
0.00553512
0.00373233
0.00373233
)
;
        Cmu             0.09;
        kappa           0.41;
        E               9.8;
    }
    lid
    {
        type            epsilonWallFunction;
        value           nonuniform List<scalar> 
100
(
0.00404215
0.00669364
0.00685221
0.00685787
0.00685802
0.00685696
0.00685389
0.00684539
0.00674105
0.00412198
0.00566432
0.0152499
0.0156942
0.0156751
0.0156629
0.0156605
0.0156671
0.0156886
0.0154377
0.00584142
0.0058954
0.0158619
0.0162877
0.016285
0.0162782
0.0162768
0.0162812
0.0162941
0.0160656
0.00608625
0.00600947
0.0162863
0.0167306
0.01674
0.0167372
0.0167365
0.0167388
0.0167437
0.0165033
0.00620915
0.00605321
0.0164509
0.0169054
0.0169208
0.0169203
0.0169202
0.0169211
0.0169217
0.0166736
0.00625651
0.00606295
0.0164736
0.0169286
0.0169458
0.0169461
0.0169461
0.0169467
0.0169462
0.016698
0.00626792
0.00605201
0.0163899
0.0168369
0.0168534
0.0168539
0.0168539
0.0168548
0.0168554
0.0166151
0.0062591
0.00601175
0.0161119
0.016538
0.016553
0.0165536
0.0165536
0.016555
0.0165583
0.0163353
0.00622325
0.00575452
0.0146552
0.0150313
0.015059
0.0150657
0.0150661
0.0150623
0.0150517
0.0148301
0.00594235
0.00367513
0.00550401
0.00558866
0.00560267
0.00560686
0.00560697
0.00560389
0.00559299
0.00553512
0.00373233
)
;
        Cmu             0.09;
        kappa           0.41;
        E               9.8;
    }
}


// ************************************************************************* //
