/*--------------------------------*- C++ -*----------------------------------*\
| =========                 |                                                 |
| \\      /  F ield         | OpenFOAM: The Open Source CFD Toolbox           |
|  \\    /   O peration     | Version:  2.3.1                                 |
|   \\  /    A nd           | Web:      www.OpenFOAM.org                      |
|    \\/     M anipulation  |                                                 |
\*---------------------------------------------------------------------------*/
FoamFile
{
    version     2.0;
    format      ascii;
    class       surfaceScalarField;
    location    "0.41";
    object      phi;
}
// * * * * * * * * * * * * * * * * * * * * * * * * * * * * * * * * * * * * * //

dimensions      [0 3 -1 0 0 0 0];

internalField   nonuniform List<scalar> 
2700
(
1.67437e-05
3.06082e-05
1.47808e-06
7.94707e-06
1.7918e-05
-9.33951e-06
3.87009e-06
1.5345e-05
-1.14455e-05
2.08041e-06
1.42966e-05
-1.26755e-05
1.17115e-06
1.39284e-05
-1.31302e-05
6.18339e-07
1.37629e-05
-1.3307e-05
2.80588e-07
1.365e-05
-1.33749e-05
8.62129e-08
1.3549e-05
-1.33992e-05
7.29238e-09
1.34689e-05
-1.3412e-05
1.34325e-05
-1.34026e-05
4.94373e-06
3.60642e-05
-1.02494e-05
3.71982e-06
3.20097e-05
-1.27518e-05
2.57605e-06
3.0586e-05
-1.39798e-05
1.65352e-06
2.99391e-05
-1.46062e-05
9.93409e-07
2.96362e-05
-1.48922e-05
5.05975e-07
2.94339e-05
-1.50211e-05
1.85267e-07
2.92351e-05
-1.50702e-05
1.97245e-08
2.90124e-05
-1.50835e-05
2.24726e-08
2.88006e-05
-1.50796e-05
2.86449e-05
-1.49389e-05
2.15084e-06
5.08939e-05
-1.62738e-05
2.26786e-06
5.00168e-05
-1.73904e-05
1.88402e-06
4.9658e-05
-1.79292e-05
1.32086e-06
4.9535e-05
-1.82578e-05
7.76834e-07
4.94355e-05
-1.84401e-05
3.03149e-07
4.92678e-05
-1.85259e-05
-2.59713e-08
4.89744e-05
-1.85504e-05
-1.50978e-07
4.85499e-05
-1.85408e-05
-2.98159e-08
4.81104e-05
-1.85189e-05
4.77019e-05
-1.83451e-05
1.44767e-06
7.48266e-05
-2.37823e-05
1.92368e-06
7.57154e-05
-2.43404e-05
1.74976e-06
7.64201e-05
-2.46537e-05
1.21126e-06
7.69229e-05
-2.48937e-05
6.02991e-07
7.7111e-05
-2.50374e-05
1.23249e-08
7.69891e-05
-2.51006e-05
-4.41022e-07
7.65581e-05
-2.50892e-05
-6.01457e-07
7.57746e-05
-2.50296e-05
-2.68352e-07
7.47899e-05
-2.49577e-05
7.35941e-05
-2.47013e-05
2.11436e-06
-3.58201e-05
0.00011149
2.61414e-06
-3.65242e-05
0.000114598
2.24748e-06
-3.69146e-05
0.000116831
1.3972e-06
-3.72116e-05
0.000117953
4.79503e-07
-3.73817e-05
0.000118427
-4.20329e-07
-3.74267e-05
0.000118361
-1.22669e-06
-3.73662e-05
0.00011765
-1.55537e-06
-3.71983e-05
0.000116478
-1.13636e-06
-3.69794e-05
0.000114117
-3.64452e-05
0.000110897
3.79295e-06
1.56443e-05
-1.79985e-05
3.13372e-06
1.38562e-05
-2.26357e-05
2.36144e-06
1.31803e-05
-2.39716e-05
1.57195e-06
1.27634e-05
-2.47836e-05
9.8321e-07
1.25583e-05
-2.52096e-05
5.49122e-07
1.2439e-05
-2.54196e-05
2.56234e-07
1.23435e-05
-2.55089e-05
7.08784e-08
1.22516e-05
-2.55357e-05
-2.24221e-08
1.21655e-05
-2.55331e-05
1.19813e-05
-2.54161e-05
2.1645e-06
2.82683e-05
-2.49118e-05
2.29358e-06
2.7394e-05
-2.63316e-05
1.8987e-06
2.68394e-05
-2.71695e-05
1.35224e-06
2.65058e-05
-2.77406e-05
8.63386e-07
2.6308e-05
-2.80705e-05
4.58804e-07
2.61476e-05
-2.82405e-05
1.72824e-07
2.59717e-05
-2.83068e-05
9.29667e-09
2.57698e-05
-2.83142e-05
-2.2915e-08
2.55662e-05
-2.82954e-05
2.53272e-05
-2.81349e-05
1.41023e-06
4.32639e-05
-3.21562e-05
1.7146e-06
4.31496e-05
-3.29121e-05
1.54419e-06
4.30756e-05
-3.34389e-05
1.13918e-06
4.30536e-05
-3.38373e-05
6.94855e-07
4.29945e-05
-3.40871e-05
2.81884e-07
4.28486e-05
-3.42119e-05
-1.8942e-08
4.25896e-05
-3.42382e-05
-1.55949e-07
4.22134e-05
-3.42034e-05
-9.56903e-08
4.1817e-05
-3.41428e-05
4.14159e-05
-3.39682e-05
1.21746e-06
6.25546e-05
-4.30346e-05
1.63123e-06
6.34115e-05
-4.36178e-05
1.51027e-06
6.40636e-05
-4.40552e-05
1.07089e-06
6.45141e-05
-4.44196e-05
5.4395e-07
6.46764e-05
-4.46485e-05
2.4647e-08
6.45722e-05
-4.47411e-05
-3.81091e-07
6.41884e-05
-4.47104e-05
-5.54639e-07
6.35137e-05
-4.4591e-05
-3.19663e-07
6.26722e-05
-4.4437e-05
6.16816e-05
-4.41524e-05
1.82696e-06
-6.00729e-05
8.7173e-05
2.25974e-06
-6.09419e-05
8.9727e-05
1.95456e-06
-6.15735e-05
9.15089e-05
1.23148e-06
-6.20777e-05
9.25568e-05
4.38584e-07
-6.2363e-05
9.29717e-05
-3.58648e-07
-6.24432e-05
9.28953e-05
-1.0575e-06
-6.23215e-05
9.23326e-05
-1.36661e-06
-6.20122e-05
9.12088e-05
-1.0227e-06
-6.16163e-05
8.93835e-05
-6.09732e-05
8.68123e-05
2.04987e-06
1.11567e-05
-3.12311e-05
1.85961e-06
1.03956e-05
-3.29051e-05
1.52425e-06
1.00367e-05
-3.37665e-05
1.12293e-06
9.83836e-06
-3.43376e-05
7.60407e-07
9.72568e-06
-3.46859e-05
4.53171e-07
9.6464e-06
-3.48773e-05
2.25904e-07
9.57488e-06
-3.49604e-05
6.90257e-08
9.50394e-06
-3.4978e-05
-2.21841e-08
9.43821e-06
-3.49599e-05
9.2841e-06
-3.47658e-05
1.26545e-06
2.1023e-05
-3.60034e-05
1.46716e-06
2.07288e-05
-3.68507e-05
1.31848e-06
2.04664e-05
-3.74522e-05
1.01111e-06
2.02984e-05
-3.79121e-05
6.8544e-07
2.01782e-05
-3.82104e-05
3.87562e-07
2.00622e-05
-3.83745e-05
1.62289e-07
1.9927e-05
-3.84355e-05
2.18403e-08
1.97692e-05
-3.84306e-05
-2.56466e-08
1.96127e-05
-3.83968e-05
1.94068e-05
-3.82274e-05
8.98714e-07
3.2183e-05
-4.39617e-05
1.19288e-06
3.22678e-05
-4.44948e-05
1.13965e-06
3.22782e-05
-4.49401e-05
8.83155e-07
3.22885e-05
-4.53174e-05
5.65642e-07
3.22495e-05
-4.55702e-05
2.52316e-07
3.2136e-05
-4.5698e-05
1.13236e-08
3.19353e-05
-4.57164e-05
-1.06839e-07
3.16473e-05
-4.5658e-05
-8.61903e-08
3.13534e-05
-4.5571e-05
3.10525e-05
-4.53923e-05
8.56826e-07
4.51546e-05
-5.61722e-05
1.19572e-06
4.57456e-05
-5.66834e-05
1.14281e-06
4.61893e-05
-5.71249e-05
8.38685e-07
4.64959e-05
-5.75143e-05
4.49301e-07
4.6601e-05
-5.77667e-05
5.2237e-08
4.65095e-05
-5.78661e-05
-2.51068e-07
4.62196e-05
-5.78186e-05
-4.01685e-07
4.57424e-05
-5.76586e-05
-2.4462e-07
4.51639e-05
-5.74639e-05
4.45214e-05
-5.71914e-05
1.24515e-06
-7.40433e-05
5.91782e-05
1.62613e-06
-7.48209e-05
6.0669e-05
1.44582e-06
-7.54784e-05
6.17705e-05
9.42928e-07
-7.60266e-05
6.24613e-05
3.57258e-07
-7.63499e-05
6.27307e-05
-2.33474e-07
-7.64332e-05
6.26686e-05
-7.43938e-07
-7.62877e-05
6.22688e-05
-9.66492e-07
-7.59357e-05
6.14926e-05
-6.71575e-07
-7.54975e-05
6.03555e-05
-7.49413e-05
5.88733e-05
9.00084e-07
6.64066e-06
-3.88218e-05
1.0383e-06
6.46779e-06
-3.95816e-05
9.55456e-07
6.31559e-06
-4.00909e-05
7.70341e-07
6.21947e-06
-4.04827e-05
5.64301e-07
6.15515e-06
-4.07491e-05
3.66403e-07
6.10353e-06
-4.09043e-05
2.05922e-07
6.05541e-06
-4.09689e-05
8.24802e-08
6.00888e-06
-4.09728e-05
-5.81354e-09
5.96946e-06
-4.09411e-05
5.88106e-06
-4.07151e-05
6.61822e-07
1.30571e-05
-4.31144e-05
8.7974e-07
1.29816e-05
-4.36273e-05
8.59164e-07
1.28583e-05
-4.40326e-05
7.08604e-07
1.27664e-05
-4.4381e-05
5.16808e-07
1.26888e-05
-4.46255e-05
3.22795e-07
1.26084e-05
-4.47635e-05
1.64381e-07
1.25164e-05
-4.48085e-05
5.43222e-08
1.24139e-05
-4.47899e-05
-1.18278e-09
1.23176e-05
-4.47458e-05
1.21907e-05
-4.45618e-05
5.14286e-07
1.99008e-05
-5.12766e-05
7.51753e-07
1.99687e-05
-5.16806e-05
7.63005e-07
1.99738e-05
-5.203e-05
6.27572e-07
1.99684e-05
-5.23537e-05
4.3491e-07
1.99284e-05
-5.25807e-05
2.30876e-07
1.98429e-05
-5.2693e-05
6.47432e-08
1.97092e-05
-5.26973e-05
-2.78121e-08
1.95253e-05
-5.26243e-05
-3.54798e-08
1.9347e-05
-5.2527e-05
1.91772e-05
-5.23268e-05
5.03936e-07
2.71973e-05
-6.37583e-05
7.53569e-07
2.74815e-05
-6.42182e-05
7.5436e-07
2.77003e-05
-6.46105e-05
5.84919e-07
2.78461e-05
-6.49765e-05
3.48082e-07
2.78798e-05
-6.52192e-05
9.72372e-08
2.7805e-05
-6.53094e-05
-9.67385e-08
2.76143e-05
-6.52511e-05
-2.00896e-07
2.73327e-05
-6.5072e-05
-1.25323e-07
2.70078e-05
-6.48678e-05
2.66887e-05
-6.45717e-05
6.8679e-07
-8.09983e-05
3.39562e-05
9.66776e-07
-8.16892e-05
3.46037e-05
8.98523e-07
-8.22749e-05
3.51334e-05
6.18397e-07
-8.27871e-05
3.54683e-05
2.72819e-07
-8.30981e-05
3.55872e-05
-8.25805e-08
-8.31764e-05
3.55242e-05
-3.92862e-07
-8.3017e-05
3.52898e-05
-5.23381e-07
-8.26727e-05
3.48647e-05
-3.42241e-07
-8.22606e-05
3.42762e-05
-8.17373e-05
3.36299e-05
4.0978e-07
2.47696e-06
-4.17748e-05
5.59524e-07
2.42412e-06
-4.22309e-05
5.70992e-07
2.3521e-06
-4.2542e-05
5.04773e-07
2.29613e-06
-4.28121e-05
4.08131e-07
2.25361e-06
-4.30096e-05
3.00315e-07
2.22e-06
-4.31264e-05
2.00647e-07
2.19267e-06
-4.31688e-05
1.09739e-07
2.17042e-06
-4.31579e-05
2.73206e-08
2.15441e-06
-4.31156e-05
2.12309e-06
-4.28778e-05
3.29807e-07
4.89886e-06
-4.59335e-05
4.88402e-07
4.85615e-06
-4.62904e-05
5.16951e-07
4.77641e-06
-4.65666e-05
4.64847e-07
4.7045e-06
-4.68279e-05
3.77487e-07
4.64218e-06
-4.702e-05
2.75798e-07
4.58675e-06
-4.71266e-05
1.81066e-07
4.53578e-06
-4.71515e-05
9.81785e-08
4.48861e-06
-4.71188e-05
3.05419e-08
4.45088e-06
-4.70657e-05
4.40552e-06
-4.68719e-05
2.59372e-07
7.41483e-06
-5.41111e-05
4.07771e-07
7.41054e-06
-5.4446e-05
4.4402e-07
7.36762e-06
-5.47248e-05
4.01456e-07
7.3175e-06
-5.49981e-05
3.21465e-07
7.26061e-06
-5.51928e-05
2.24719e-07
7.19694e-06
-5.52828e-05
1.34369e-07
7.12584e-06
-5.52696e-05
6.17822e-08
7.04873e-06
-5.51821e-05
1.44635e-08
6.98011e-06
-5.5077e-05
6.92095e-06
-5.48611e-05
2.28899e-07
9.98979e-06
-6.661e-05
3.64507e-07
1.00511e-05
-6.70424e-05
3.93112e-07
1.00766e-05
-6.73995e-05
3.43565e-07
1.00763e-05
-6.774e-05
2.57039e-07
1.00421e-05
-6.79656e-05
1.53251e-07
9.97928e-06
-6.80407e-05
5.7931e-08
9.88945e-06
-6.79657e-05
-4.0465e-09
9.773e-06
-6.77769e-05
-1.11953e-08
9.65608e-06
-6.75614e-05
9.55557e-06
-6.72322e-05
2.59212e-07
-8.34671e-05
1.21615e-05
3.89098e-07
-8.41326e-05
1.23204e-05
3.9262e-07
-8.46846e-05
1.24448e-05
3.09256e-07
-8.51757e-05
1.25075e-05
1.9389e-07
-8.54737e-05
1.25011e-05
6.3158e-08
-8.55394e-05
1.24439e-05
-4.84641e-08
-8.53739e-05
1.23368e-05
-1.1438e-07
-8.50178e-05
1.218e-05
-8.77358e-08
-8.46003e-05
1.1983e-05
-8.405e-05
1.17946e-05
1.65501e-07
-1.57491e-06
-4.04316e-05
2.66809e-07
-1.63509e-06
-4.07665e-05
3.07163e-07
-1.68687e-06
-4.09708e-05
3.09331e-07
-1.73472e-06
-4.11613e-05
2.91535e-07
-1.77127e-06
-4.13054e-05
2.57437e-07
-1.79373e-06
-4.13884e-05
2.10889e-07
-1.80245e-06
-4.14104e-05
1.47916e-07
-1.80138e-06
-4.13873e-05
6.8787e-08
-1.79549e-06
-4.13374e-05
-1.77021e-06
-4.11072e-05
1.35996e-07
-3.27616e-06
-4.44478e-05
2.20203e-07
-3.36199e-06
-4.47293e-05
2.61763e-07
-3.45252e-06
-4.49304e-05
2.75053e-07
-3.53943e-06
-4.513e-05
2.70972e-07
-3.60575e-06
-4.52787e-05
2.49899e-07
-3.64509e-06
-4.5356e-05
2.12584e-07
-3.65783e-06
-4.5362e-05
1.52183e-07
-3.64952e-06
-4.53163e-05
6.5678e-08
-3.63073e-06
-4.52535e-05
-3.59239e-06
-4.50615e-05
7.53646e-08
-5.06969e-06
-5.25021e-05
1.31942e-07
-5.17558e-06
-5.28022e-05
1.75776e-07
-5.29938e-06
-5.30427e-05
2.08927e-07
-5.41822e-06
-5.32804e-05
2.31376e-07
-5.50693e-06
-5.34466e-05
2.3651e-07
-5.55616e-06
-5.35145e-05
2.19939e-07
-5.56562e-06
-5.34836e-05
1.68682e-07
-5.54128e-06
-5.33803e-05
7.6846e-08
-5.49883e-06
-5.32592e-05
-5.44117e-06
-5.30377e-05
-8.11639e-09
-6.79863e-06
-6.50631e-05
9.9523e-09
-6.94251e-06
-6.54947e-05
5.79475e-08
-7.10855e-06
-6.58538e-05
1.20262e-07
-7.25858e-06
-6.61877e-05
1.81709e-07
-7.36456e-06
-6.64026e-05
2.26212e-07
-7.41805e-06
-6.64624e-05
2.42934e-07
-7.41809e-06
-6.63683e-05
2.08565e-07
-7.36831e-06
-6.61548e-05
1.09135e-07
-7.28675e-06
-6.59052e-05
-7.19419e-06
-6.55554e-05
-1.2092e-07
-8.24053e-05
-8.0869e-06
-1.44942e-07
-8.31263e-05
-8.2953e-06
-8.66816e-08
-8.37343e-05
-8.50946e-06
1.40647e-08
-8.42567e-05
-8.68012e-06
1.27879e-07
-8.45646e-05
-8.79614e-06
2.25853e-07
-8.46207e-05
-8.8499e-06
2.91516e-07
-8.44277e-05
-8.83645e-06
2.87969e-07
-8.40235e-05
-8.76268e-06
1.73352e-07
-8.35294e-05
-8.62579e-06
-8.29045e-05
-8.46693e-06
1.88161e-08
-5.50075e-06
-3.50141e-05
7.35216e-08
-5.61061e-06
-3.5275e-05
1.20847e-07
-5.67222e-06
-3.54145e-05
1.67138e-07
-5.73015e-06
-3.55484e-05
2.09095e-07
-5.77097e-06
-3.56511e-05
2.35251e-07
-5.7871e-06
-3.57066e-05
2.33613e-07
-5.77873e-06
-3.57142e-05
1.93531e-07
-5.75342e-06
-3.56861e-05
1.13095e-07
-5.72322e-06
-3.56379e-05
-5.63544e-06
-3.54387e-05
3.25889e-09
-1.13451e-05
-3.87023e-05
2.21614e-08
-1.1516e-05
-3.89414e-05
6.63295e-08
-1.16534e-05
-3.90971e-05
1.28643e-07
-1.17808e-05
-3.92504e-05
1.94092e-07
-1.18658e-05
-3.93632e-05
2.43346e-07
-1.18961e-05
-3.94165e-05
2.5743e-07
-1.18715e-05
-3.94091e-05
2.15399e-07
-1.18047e-05
-3.93571e-05
1.06974e-07
-1.17223e-05
-3.92892e-05
-1.15891e-05
-3.91072e-05
-7.88733e-08
-1.76382e-05
-4.63077e-05
-1.04242e-07
-1.78879e-05
-4.65896e-05
-5.47114e-08
-1.81336e-05
-4.68106e-05
4.47973e-08
-1.83502e-05
-4.70198e-05
1.63697e-07
-1.84885e-05
-4.71619e-05
2.6632e-07
-1.853e-05
-4.72108e-05
3.21272e-07
-1.84761e-05
-4.71679e-05
2.90847e-07
-1.83411e-05
-4.70538e-05
1.54389e-07
-1.8168e-05
-4.69162e-05
-1.797e-05
-4.66933e-05
-2.52358e-07
-2.4104e-05
-5.87067e-05
-3.44524e-07
-2.45219e-05
-5.91629e-05
-2.69767e-07
-2.49358e-05
-5.95475e-05
-9.10807e-08
-2.52742e-05
-5.98841e-05
1.2186e-07
-2.5473e-05
-6.00899e-05
3.18595e-07
-2.55229e-05
-6.01372e-05
4.52616e-07
-2.54246e-05
-6.00268e-05
4.56559e-07
-2.51846e-05
-5.9786e-05
2.71998e-07
-2.48602e-05
-5.94921e-05
-2.4508e-05
-5.91113e-05
-5.7424e-07
-7.70367e-05
-2.95218e-05
-7.50981e-07
-7.79098e-05
-3.02436e-05
-6.06357e-07
-7.86517e-05
-3.08911e-05
-2.91541e-07
-7.92402e-05
-3.13473e-05
7.1459e-08
-7.9566e-05
-3.15946e-05
4.16659e-07
-7.96133e-05
-3.16455e-05
6.89449e-07
-7.93875e-05
-3.14936e-05
7.73711e-07
-7.89067e-05
-3.11391e-05
5.25932e-07
-7.82757e-05
-3.05814e-05
-7.74979e-05
-2.99093e-05
-7.13252e-08
-9.13234e-06
-2.58849e-05
-5.79522e-08
-9.31506e-06
-2.60502e-05
-1.04091e-08
-9.4048e-06
-2.6135e-05
6.58774e-08
-9.48335e-06
-2.62219e-05
1.5412e-07
-9.53437e-06
-2.6289e-05
2.27646e-07
-9.54763e-06
-2.63236e-05
2.61376e-07
-9.52313e-06
-2.63253e-05
2.37966e-07
-9.47201e-06
-2.63032e-05
1.52019e-07
-9.41082e-06
-2.62725e-05
-9.24646e-06
-2.61432e-05
-1.03542e-07
-1.90022e-05
-2.88636e-05
-1.2599e-07
-1.92868e-05
-2.90857e-05
-8.22756e-08
-1.94982e-05
-2.9194e-05
1.77169e-08
-1.96841e-05
-2.93025e-05
1.41467e-07
-1.97998e-05
-2.93822e-05
2.50579e-07
-1.98259e-05
-2.94159e-05
3.08809e-07
-1.9765e-05
-2.94054e-05
2.84305e-07
-1.96342e-05
-2.93617e-05
1.63694e-07
-1.94745e-05
-2.9307e-05
-1.92295e-05
-2.91206e-05
-2.45441e-07
-3.0114e-05
-3.52488e-05
-3.29577e-07
-3.0573e-05
-3.55363e-05
-2.63422e-07
-3.09906e-05
-3.5719e-05
-9.40252e-08
-3.1338e-05
-3.58865e-05
1.15143e-07
-3.15413e-05
-3.59964e-05
3.08823e-07
-3.15814e-05
-3.60303e-05
4.34229e-07
-3.14591e-05
-3.59873e-05
4.31341e-07
-3.11947e-05
-3.58848e-05
2.59698e-07
-3.08576e-05
-3.57601e-05
-3.04666e-05
-3.55198e-05
-5.54601e-07
-4.25151e-05
-4.63557e-05
-7.32794e-07
-4.33772e-05
-4.68563e-05
-6.05023e-07
-4.41564e-05
-4.72295e-05
-2.96984e-07
-4.47497e-05
-4.75354e-05
7.45846e-08
-4.50696e-05
-4.77136e-05
4.2864e-07
-4.51197e-05
-4.77474e-05
6.9164e-07
-4.49055e-05
-4.76414e-05
7.53642e-07
-4.44229e-05
-4.74114e-05
4.98617e-07
-4.37545e-05
-4.71105e-05
-4.29781e-05
-4.66775e-05
-1.2166e-06
-6.45811e-05
-5.47255e-05
-1.49435e-06
-6.56699e-05
-5.64133e-05
-1.19423e-06
-6.64877e-05
-5.77708e-05
-6.18068e-07
-6.70824e-05
-5.86435e-05
2.35493e-08
-6.73901e-05
-5.9072e-05
6.43057e-07
-6.74275e-05
-5.91227e-05
1.16928e-06
-6.72013e-05
-5.87858e-05
1.40641e-06
-6.66951e-05
-5.80349e-05
1.07041e-06
-6.59854e-05
-5.67926e-05
-6.49965e-05
-5.51531e-05
-1.22464e-07
-1.20942e-05
-1.37673e-05
-1.37753e-07
-1.23246e-05
-1.38102e-05
-9.4501e-08
-1.24425e-05
-1.38396e-05
3.7871e-10
-1.25436e-05
-1.38794e-05
1.19988e-07
-1.26072e-05
-1.39141e-05
2.26072e-07
-1.2619e-05
-1.39308e-05
2.83134e-07
-1.25814e-05
-1.3933e-05
2.65274e-07
-1.25071e-05
-1.39264e-05
1.67095e-07
-1.24169e-05
-1.39261e-05
-1.2206e-05
-1.39023e-05
-1.67448e-07
-2.54841e-05
-1.55039e-05
-2.34893e-07
-2.58557e-05
-1.56919e-05
-1.88798e-07
-2.61483e-05
-1.57467e-05
-5.82083e-08
-2.63961e-05
-1.58013e-05
1.08613e-07
-2.65432e-05
-1.58436e-05
2.61296e-07
-2.65695e-05
-1.5862e-05
3.52163e-07
-2.64752e-05
-1.58566e-05
3.36082e-07
-2.6283e-05
-1.5836e-05
1.88483e-07
-2.60469e-05
-1.58124e-05
-2.57266e-05
-1.56458e-05
-3.67315e-07
-4.14216e-05
-1.93848e-05
-5.10071e-07
-4.20838e-05
-1.9643e-05
-4.2945e-07
-4.27034e-05
-1.97502e-05
-2.0347e-07
-4.31943e-05
-1.98457e-05
8.19943e-08
-4.3468e-05
-1.99091e-05
3.52112e-07
-4.3508e-05
-1.99277e-05
5.3638e-07
-4.33209e-05
-1.99036e-05
5.54757e-07
-4.29244e-05
-1.98476e-05
3.35171e-07
-4.24e-05
-1.97773e-05
-4.18258e-05
-1.95523e-05
-8.44622e-07
-6.11058e-05
-2.66978e-05
-1.1057e-06
-6.25444e-05
-2.71511e-05
-9.10841e-07
-6.37925e-05
-2.73996e-05
-4.75369e-07
-6.46843e-05
-2.75937e-05
4.10113e-08
-6.51363e-05
-2.77033e-05
5.35847e-07
-6.51901e-05
-2.77261e-05
9.22313e-07
-6.48531e-05
-2.76614e-05
1.05561e-06
-6.4085e-05
-2.75115e-05
7.17651e-07
-6.29839e-05
-2.73129e-05
-6.16635e-05
-2.69215e-05
-2.00136e-06
-4.03819e-05
-8.46074e-05
-2.31818e-06
-4.13915e-05
-8.78831e-05
-1.7958e-06
-4.20175e-05
-9.03128e-05
-9.2931e-07
-4.24227e-05
-9.17263e-05
-1.51812e-08
-4.26205e-05
-9.23691e-05
8.73272e-07
-4.26424e-05
-9.24212e-05
1.68288e-06
-4.24955e-05
-9.18652e-05
2.12345e-06
-4.21511e-05
-9.06099e-05
1.75185e-06
-4.16007e-05
-8.83559e-05
-4.06489e-05
-8.51258e-05
-1.07273e-07
-1.37507e-05
-1.62043e-07
-1.38487e-05
-1.29771e-07
-1.3967e-05
-2.80681e-08
-1.40799e-05
1.03702e-07
-1.41493e-05
2.23499e-07
-1.41621e-05
2.88084e-07
-1.41173e-05
2.6151e-07
-1.40305e-05
1.29217e-07
-1.394e-05
-1.38674e-05
-1.51657e-07
-2.92924e-05
-2.72077e-07
-2.96216e-05
-2.39677e-07
-2.99574e-05
-9.69157e-08
-3.02447e-05
9.14297e-08
-3.04122e-05
2.67041e-07
-3.04386e-05
3.71255e-07
-3.0326e-05
3.44392e-07
-3.00991e-05
1.45087e-07
-2.98248e-05
-2.9559e-05
-3.78239e-07
-4.8724e-05
-5.96491e-07
-4.95192e-05
-5.21394e-07
-5.02779e-05
-2.6519e-07
-5.08676e-05
6.45879e-08
-5.11872e-05
3.76836e-07
-5.12314e-05
5.91365e-07
-5.10035e-05
6.07078e-07
-5.05126e-05
3.03134e-07
-4.98619e-05
-4.91823e-05
-9.79566e-07
-7.51929e-05
-1.32994e-06
-7.71804e-05
-1.10234e-06
-7.88253e-05
-5.83566e-07
-7.99328e-05
1.91415e-08
-8.04728e-05
6.01766e-07
-8.05254e-05
1.07257e-06
-8.0106e-05
1.23375e-06
-7.91392e-05
7.8793e-07
-7.76667e-05
-7.57936e-05
-2.59248e-06
-0.000113734
-2.92644e-06
-0.000119322
-2.20479e-06
-0.000122749
-1.12664e-06
-0.000124547
-3.66012e-08
-0.000125312
1.02301e-06
-0.000125367
2.03399e-06
-0.000124678
2.65931e-06
-0.000123032
2.28025e-06
-0.000119941
-0.000114417
-7.19071e-06
-0.000175307
6.72249e-05
-6.29189e-06
-0.00019173
7.02063e-05
-4.02499e-06
-0.000198113
7.17244e-05
-1.91228e-06
-0.00020044
7.25041e-05
-9.68369e-08
-0.000201195
7.28285e-05
1.73023e-06
-0.00020117
7.28539e-05
3.69938e-06
-0.000200461
7.25704e-05
5.70242e-06
-0.000198391
7.18462e-05
6.81292e-06
-0.000192253
7.05527e-05
-0.000175968
6.76397e-05
-1.95778e-05
-0.000279456
0.000123883
-1.26078e-05
-0.000332441
0.00013287
-6.49427e-06
-0.000341038
0.000136278
-2.76697e-06
-0.000342234
0.000137539
-7.12248e-08
-0.00034217
0.000137977
2.53593e-06
-0.000342133
0.000137982
5.9074e-06
-0.000342209
0.000137549
1.1843e-05
-0.000340918
0.000136517
1.90601e-05
-0.000333738
0.000133263
-0.000281121
0.000124408
-6.01992e-05
-0.000462902
0.000243756
-2.4457e-05
-0.000648241
0.000280843
-9.26459e-06
-0.00064409
0.000288096
-3.17824e-06
-0.000637196
0.000289473
-3.60846e-08
-0.000634461
0.00028963
2.89065e-06
-0.000634473
0.000289574
8.66933e-06
-0.000636825
0.000289476
2.26381e-05
-0.000643395
0.00028815
5.9288e-05
-0.000651225
0.000282014
-0.000466833
0.000245341
-0.000174432
-0.000941735
0.000654837
-6.60023e-05
-0.0014389
0.000683003
-2.01248e-05
-0.00139899
0.000710499
-5.37171e-06
-0.0013696
0.000718627
-1.61052e-07
-0.0013598
0.000720848
5.01402e-06
-0.00135948
0.000720924
1.87497e-05
-0.00136863
0.000718699
6.26459e-05
-0.00139672
0.000711065
0.000171998
-0.00144468
0.000685111
-0.000951751
0.00065792
0.000221105
-0.00116178
9.472e-05
-0.00131136
3.43054e-05
-0.00133751
1.10519e-05
-0.00134533
2.40064e-07
-0.00134786
-1.03951e-05
-0.00134793
-3.21656e-05
-0.00134543
-8.94601e-05
-0.00133809
-0.000217493
-0.00131534
-0.00116833
-4.78779e-06
-0.00010725
9.38761e-05
-4.72672e-06
-0.000115486
9.6596e-05
-3.22395e-06
-0.000119534
9.84432e-05
-1.58567e-06
-0.000121399
9.95631e-05
-7.53799e-08
-0.000122083
0.000100081
1.44178e-06
-0.000122082
0.000100119
2.95273e-06
-0.00012148
9.96781e-05
4.36106e-06
-0.000119695
9.86823e-05
4.48074e-06
-0.0001159
9.70027e-05
-0.000107712
9.43818e-05
-1.14825e-05
-0.000111262
0.000138773
-8.80693e-06
-0.000132154
0.000146441
-5.14702e-06
-0.000137656
0.000150314
-2.31726e-06
-0.00013924
0.000152242
-7.18401e-08
-0.0001396
0.00015301
2.08782e-06
-0.000139617
0.000153029
4.7963e-06
-0.000139234
0.000152341
8.21071e-06
-0.000137761
0.000150556
1.11288e-05
-0.000132667
0.000146997
-0.000111776
0.000139454
-2.43517e-05
-3.70789e-05
0.000193998
-1.48395e-05
-7.54528e-05
0.000214618
-7.36429e-06
-7.8839e-05
0.000221791
-2.95394e-06
-7.91635e-05
0.000224762
-9.23258e-08
-7.88707e-05
0.00022578
2.72908e-06
-7.88667e-05
0.000225791
6.87998e-06
-7.92266e-05
0.000224826
1.40459e-05
-7.88326e-05
0.000222057
2.39712e-05
-7.60926e-05
0.000215426
-3.75626e-05
0.000194966
-0.000132065
0.000349507
0.000401239
-5.41375e-05
4.12711e-05
0.000489601
-1.74882e-05
7.87176e-05
0.00051724
-4.89885e-06
0.000101717
0.00052583
-1.32904e-07
0.000109683
0.000528186
4.39044e-06
0.000109841
0.00052823
1.62791e-05
0.000102382
0.00052604
5.16498e-05
7.9951e-05
0.000517913
0.000130368
3.91942e-05
0.000492393
0.0003465
0.000404914
0.000148619
-0.000959838
6.29713e-05
-0.00118341
2.30153e-05
-0.00121789
7.47887e-06
-0.00122716
1.48642e-07
-0.00122998
-6.97214e-06
-0.00123003
-2.15529e-05
-0.00122734
-5.97615e-05
-0.00121873
-0.000146478
-0.00118832
-0.000967615
-2.62068e-06
-6.1186e-05
0.000102234
-2.84262e-06
-6.44966e-05
0.000104086
-2.07623e-06
-6.63812e-05
0.000105535
-1.05517e-06
-6.73811e-05
0.000106538
-2.98817e-08
-6.77962e-05
0.000107046
9.88273e-07
-6.7813e-05
0.000107092
1.92969e-06
-6.74776e-05
0.000106681
2.64271e-06
-6.65352e-05
0.000105805
2.41636e-06
-6.47535e-05
0.000104493
-6.14606e-05
0.000102737
-5.29114e-06
-5.07433e-05
0.000133135
-4.76932e-06
-5.61895e-05
0.000137189
-3.12781e-06
-5.78789e-05
0.000139757
-1.50378e-06
-5.84689e-05
0.000141312
-5.15736e-08
-5.86235e-05
0.000142025
1.35634e-06
-5.86442e-05
0.000142058
2.92373e-06
-5.84997e-05
0.000141446
4.47436e-06
-5.79512e-05
0.000140014
5.06438e-06
-5.63372e-05
0.000137631
-5.08158e-05
0.000133677
-8.63987e-06
-9.96888e-06
0.000161925
-6.65708e-06
-1.31564e-05
0.000169566
-3.94983e-06
-1.21567e-05
0.000173289
-1.77394e-06
-1.13594e-05
0.000175303
-6.93589e-08
-1.08738e-05
0.000176142
1.61083e-06
-1.08695e-05
0.000176173
3.69889e-06
-1.13859e-05
0.000175416
6.32016e-06
-1.21223e-05
0.000173535
8.46309e-06
-1.31515e-05
0.000170043
-9.83507e-06
0.000162486
-3.54628e-05
0.00021372
0.000213603
-1.70587e-05
0.000225917
0.000233003
-6.58127e-06
0.00025228
0.000243125
-2.08326e-06
0.000263837
0.000246827
-8.94499e-08
0.000268028
0.000247983
1.79295e-06
0.000268103
0.000248019
6.08589e-06
0.000264192
0.000246991
1.6172e-05
0.000253073
0.000243525
3.49902e-05
0.00022722
0.000234067
0.000215642
0.000214915
4.97374e-05
-0.000795288
2.45181e-05
-0.0009317
1.01997e-05
-0.000950792
3.59487e-06
-0.000956252
7.27439e-08
-0.000958002
-3.32771e-06
-0.000958031
-9.50439e-06
-0.000956395
-2.3135e-05
-0.000951412
-4.89154e-05
-0.00093476
-0.000800617
-1.18271e-06
-3.06501e-05
0.000104018
-1.39692e-06
-3.18208e-05
0.000105324
-1.06823e-06
-3.2594e-05
0.000106377
-5.4391e-07
-3.30507e-05
0.00010719
2.01667e-08
-3.32668e-05
0.000107632
5.733e-07
-3.32973e-05
0.000107685
1.04978e-06
-3.31571e-05
0.000107351
1.33229e-06
-3.27625e-05
0.000106662
1.07704e-06
-3.20425e-05
0.000105736
-3.0883e-05
0.000104527
-2.17747e-06
-2.3041e-05
0.000127364
-2.19991e-06
-2.46608e-05
0.000129714
-1.55561e-06
-2.51857e-05
0.000131386
-7.76386e-07
-2.53638e-05
0.000132535
-1.02533e-08
-2.54142e-05
0.000133117
7.30656e-07
-2.5437e-05
0.000133163
1.47549e-06
-2.54186e-05
0.000132686
2.08436e-06
-2.52704e-05
0.000131663
2.05686e-06
-2.47642e-05
0.000130125
-2.30966e-05
0.000127879
-3.35515e-06
-3.64037e-06
0.00014596
-2.86909e-06
-4.95744e-06
0.000149473
-1.84005e-06
-4.49041e-06
0.000151678
-8.80178e-07
-3.96877e-06
0.00015303
-3.21578e-08
-3.69695e-06
0.000153667
8.01133e-07
-3.70344e-06
0.000153707
1.72997e-06
-3.99277e-06
0.000153168
2.73962e-06
-4.4903e-06
0.000151933
3.28436e-06
-4.95229e-06
0.000149874
-3.56595e-06
0.000146444
-1.09365e-05
7.74561e-05
0.000143774
-5.41047e-06
8.18444e-05
0.000141169
-2.23802e-06
9.12176e-05
0.000144715
-7.68109e-07
9.56105e-05
0.000146211
-4.66127e-08
9.72987e-05
0.0001467
6.1934e-07
9.7328e-05
0.000146732
2.05412e-06
9.57615e-05
0.000146341
5.12593e-06
9.15699e-05
0.000144959
1.08038e-05
8.24568e-05
0.000141523
7.83013e-05
0.000144174
1.48962e-05
-0.000732536
8.67931e-06
-0.000843458
4.02078e-06
-0.000854804
1.50733e-06
-0.000858035
3.20396e-08
-0.000859156
-1.38431e-06
-0.000859173
-3.72394e-06
-0.000858124
-8.17133e-06
-0.000855217
-1.45729e-05
-0.0008457
-0.000736855
-3.02533e-07
-7.8545e-06
0.000103925
-3.66271e-07
-8.14854e-06
0.000105042
-2.62709e-07
-8.34992e-06
0.000105947
-1.03518e-07
-8.49465e-06
0.000106678
7.41061e-08
-8.58077e-06
0.000107089
2.41005e-07
-8.619e-06
0.000107151
3.67657e-07
-8.61161e-06
0.000106862
4.27026e-07
-8.52825e-06
0.00010627
2.99295e-07
-8.37431e-06
0.000105505
-8.08406e-06
0.000104524
-5.58477e-07
-5.44538e-06
0.000125519
-5.76573e-07
-5.80476e-06
0.00012745
-4.15792e-07
-5.91556e-06
0.000128857
-1.99371e-07
-5.96617e-06
0.000129872
3.64765e-08
-5.99197e-06
0.000130403
2.54001e-07
-6.02158e-06
0.00013046
4.6047e-07
-6.03794e-06
0.000130052
5.90132e-07
-6.02841e-06
0.000129177
5.50149e-07
-5.92404e-06
0.00012793
-5.53776e-06
0.000126146
-8.2289e-07
-9.03392e-07
0.000142436
-7.28217e-07
-1.31231e-06
0.00014512
-4.97076e-07
-1.21469e-06
0.00014702
-2.43813e-07
-1.12712e-06
0.00014821
9.13249e-09
-1.07701e-06
0.00014878
2.55318e-07
-1.09368e-06
0.000148831
5.02301e-07
-1.17774e-06
0.000148373
7.36958e-07
-1.27372e-06
0.000147325
8.47204e-07
-1.37237e-06
0.000145574
-9.77676e-07
0.000142994
-2.4892e-06
1.67442e-05
0.000128545
-1.27126e-06
1.70177e-05
0.000121783
-5.90001e-07
1.90955e-05
0.00012385
-2.30847e-07
2.00774e-05
0.000124772
-1.3262e-08
2.04559e-05
0.00012507
1.84372e-07
2.04578e-05
0.000125105
5.59391e-07
2.01022e-05
0.000124885
1.22189e-06
1.91594e-05
0.000124062
2.47751e-06
1.71175e-05
0.000122025
1.6881e-05
0.000128758
3.01792e-06
-0.000719058
1.80259e-06
-0.000825458
8.25041e-07
-0.000834989
3.07617e-07
-0.000837674
1.14946e-08
-0.000838648
-2.59177e-07
-0.000838661
-7.33024e-07
-0.000837735
-1.66178e-06
-0.000835313
-2.93111e-06
-0.000827483
-0.000723158
3.8553e-07
1.3202e-05
0.000102953
5.13078e-07
1.35523e-05
0.000104189
4.57202e-07
1.38057e-05
0.000105188
3.04543e-07
1.39209e-05
0.000105977
1.36856e-07
1.39424e-05
0.000106416
-4.46792e-08
1.3899e-05
0.000106489
-2.13431e-07
1.3798e-05
0.0001062
-3.12859e-07
1.36216e-05
0.000105584
-2.48539e-07
1.33387e-05
0.000104773
1.29978e-05
0.000103735
7.02716e-07
1.05308e-05
0.000128131
7.77667e-07
1.11108e-05
0.000130504
5.84568e-07
1.13741e-05
0.000132205
3.33388e-07
1.14076e-05
0.00013337
9.45249e-08
1.13793e-05
0.000133964
-1.52044e-07
1.13403e-05
0.000134034
-4.00983e-07
1.13113e-05
0.000133585
-6.09247e-07
1.1232e-05
0.000132598
-5.50804e-07
1.09556e-05
0.000131095
1.03569e-05
0.000128902
1.2083e-06
7.91716e-07
0.000150969
1.111e-06
1.46186e-06
0.000155267
6.76081e-07
1.31853e-06
0.000157844
3.3443e-07
9.6163e-07
0.000159344
6.04782e-08
7.38278e-07
0.000160029
-2.07878e-07
7.03524e-07
0.000160086
-5.30717e-07
8.60573e-07
0.00015954
-9.56476e-07
1.16139e-06
0.000158175
-1.06375e-06
1.31094e-06
0.00015587
5.98998e-07
0.000151675
3.07293e-06
-2.62896e-05
0.000152216
1.49446e-06
-2.86843e-05
0.000153003
4.59235e-07
-3.16058e-05
0.000157378
1.17591e-07
-3.319e-05
0.000158853
2.30911e-08
-3.38228e-05
0.000159295
-6.22055e-08
-3.38486e-05
0.000159328
-4.10171e-07
-3.32778e-05
0.000158981
-1.33423e-06
-3.18234e-05
0.000157695
-3.04151e-06
-2.91041e-05
0.000153498
-2.6884e-05
0.000152667
-4.51568e-06
-0.000741957
-3.04809e-06
-0.000856268
-1.65508e-06
-0.000868661
-6.77677e-07
-0.000872439
-1.66627e-09
-0.000873762
6.83618e-07
-0.000873781
1.61277e-06
-0.000872529
2.95243e-06
-0.000869113
4.39083e-06
-0.000858567
-0.000746452
1.20953e-06
3.7885e-05
9.92203e-05
1.49285e-06
3.9238e-05
0.000100813
1.23831e-06
4.01578e-05
0.000102033
7.42036e-07
4.06295e-05
0.000102935
2.10171e-07
4.07955e-05
0.000103409
-3.31024e-07
4.07479e-05
0.000103493
-8.22921e-07
4.04974e-05
0.000103183
-1.10958e-06
3.99685e-05
0.000102483
-8.60256e-07
3.90308e-05
0.000101506
3.76721e-05
0.000100141
2.37594e-06
3.22957e-05
0.000132404
2.43687e-06
3.49903e-05
0.000136111
1.74185e-06
3.60216e-05
0.000138419
9.26127e-07
3.6311e-05
0.000139858
1.64606e-07
3.63381e-05
0.000140545
-5.9843e-07
3.62874e-05
0.000140613
-1.38089e-06
3.61901e-05
0.000140083
-2.07683e-06
3.58134e-05
0.000138841
-2.02742e-06
3.48465e-05
0.000136794
3.20473e-05
0.000133271
4.54876e-06
9.11864e-06
0.000170011
3.64125e-06
1.31576e-05
0.000177984
2.1723e-06
1.3445e-05
0.000181975
1.02486e-06
1.27229e-05
0.000184087
1.17359e-07
1.22281e-05
0.000185024
-7.60988e-07
1.21714e-05
0.000185091
-1.89414e-06
1.25606e-05
0.000184259
-3.21927e-06
1.3247e-05
0.000182379
-4.28493e-06
1.2904e-05
0.000178592
8.5677e-06
0.000170661
1.49368e-05
-9.81998e-05
0.00024239
6.82365e-06
-0.000102308
0.000275361
2.2991e-06
-0.000112914
0.00028686
6.75516e-07
-0.000118408
0.000290262
6.10794e-08
-0.00012051
0.000291272
-5.54273e-07
-0.000120581
0.000291319
-1.9989e-06
-0.000118688
0.000290462
-6.35741e-06
-0.000113666
0.000287239
-1.48496e-05
-0.000103343
0.000277034
-9.97833e-05
0.000244335
-1.78517e-05
-0.000823497
-1.0973e-05
-0.000966672
-5.33487e-06
-0.000988226
-2.05226e-06
-0.000994904
-2.56899e-08
-0.000997094
1.98996e-06
-0.000997141
5.0482e-06
-0.00099511
1.05338e-05
-0.000988949
1.74087e-05
-0.000970329
-0.000829743
2.43688e-06
7.08358e-05
8.74743e-05
2.71388e-06
7.43099e-05
8.9406e-05