/*--------------------------------*- C++ -*----------------------------------*\
| =========                 |                                                 |
| \\      /  F ield         | OpenFOAM: The Open Source CFD Toolbox           |
|  \\    /   O peration     | Version:  2.3.1                                 |
|   \\  /    A nd           | Web:      www.OpenFOAM.org                      |
|    \\/     M anipulation  |                                                 |
\*---------------------------------------------------------------------------*/
FoamFile
{
    version     2.0;
    format      ascii;
    class       surfaceScalarField;
    location    "0.48";
    object      phi;
}
// * * * * * * * * * * * * * * * * * * * * * * * * * * * * * * * * * * * * * //

dimensions      [0 3 -1 0 0 0 0];

internalField   nonuniform List<scalar> 
2700
(
1.47839e-05
3.31682e-05
-5.08161e-06
7.74244e-06
2.17291e-05
-1.49635e-05
3.79271e-06
2.00087e-05
-1.6332e-05
2.0661e-06
1.90346e-05
-1.75805e-05
1.13046e-06
1.87219e-05
-1.80418e-05
5.31416e-07
1.85631e-05
-1.8222e-05
1.46904e-07
1.84125e-05
-1.82858e-05
-6.33384e-08
1.82355e-05
-1.82997e-05
-1.12699e-07
1.80408e-05
-1.82965e-05
1.79155e-05
-1.82701e-05
4.32559e-06
4.48247e-05
-1.63111e-05
3.3955e-06
4.0945e-05
-1.86547e-05
2.53102e-06
4.0095e-05
-1.96076e-05
1.66399e-06
3.9701e-05
-2.01971e-05
9.49181e-07
3.95236e-05
-2.04814e-05
3.7963e-07
3.93393e-05
-2.06085e-05
-1.79715e-08
3.90522e-05
-2.06469e-05
-2.05638e-07
3.86395e-05
-2.06408e-05
-2.03742e-07
3.81889e-05
-2.06012e-05
3.77597e-05
-2.03781e-05
2.28498e-06
6.50842e-05
-2.30503e-05
2.43271e-06
6.45227e-05
-2.42935e-05
2.08738e-06
6.46421e-05
-2.47963e-05
1.45024e-06
6.48409e-05
-2.51302e-05
7.4675e-07
6.49162e-05
-2.53236e-05
9.11035e-08
6.47566e-05
-2.54076e-05
-4.01732e-07
6.42967e-05
-2.54072e-05
-6.41554e-07
6.35785e-05
-2.53539e-05
-5.46207e-07
6.27018e-05
-2.52636e-05
6.17481e-05
-2.49747e-05
1.95584e-06
9.48973e-05
-3.25121e-05
2.53445e-06
9.63453e-05
-3.32275e-05
2.26352e-06
9.75958e-05
-3.3592e-05
1.51068e-06
9.8496e-05
-3.38708e-05
5.798e-07
9.88896e-05
-3.40435e-05
-3.47607e-07
9.87559e-05
-3.40992e-05
-1.1178e-06
9.80959e-05
-3.40411e-05
-1.49385e-06
9.68637e-05
-3.39083e-05
-1.21004e-06
9.52167e-05
-3.37236e-05
9.3217e-05
-3.32687e-05
3.02664e-06
-4.76295e-05
0.000138316
3.73246e-06
-4.84836e-05
0.000142866
3.14993e-06
-4.89314e-05
0.000145731
1.90104e-06
-4.92881e-05
0.000147499
4.44065e-07
-4.94952e-05
0.000148238
-1.02583e-06
-4.95274e-05
0.000148135
-2.34088e-06
-4.93942e-05
0.000147189
-3.07766e-06
-4.91077e-05
0.000145242
-2.70971e-06
-4.87409e-05
0.000142306
-4.79589e-05
0.000137561
3.26163e-06
1.89673e-05
-2.74991e-05
2.73231e-06
1.76013e-05
-3.22539e-05
2.23024e-06
1.72563e-05
-3.33166e-05
1.52714e-06
1.69588e-05
-3.40722e-05
9.30475e-07
1.68107e-05
-3.4487e-05
4.6215e-07
1.67013e-05
-3.4691e-05
1.29378e-07
1.65739e-05
-3.47656e-05
-7.46206e-08
1.64141e-05
-3.47664e-05
-1.52679e-07
1.6224e-05
-3.47291e-05
1.59001e-05
-3.45458e-05
1.98475e-06
3.58325e-05
-3.54514e-05
2.13884e-06
3.5323e-05
-3.68511e-05
1.87346e-06
3.51314e-05
-3.75549e-05
1.35697e-06
3.50211e-05
-3.80929e-05
8.17649e-07
3.49385e-05
-3.84213e-05
3.4044e-07
3.47961e-05
-3.85847e-05
-1.591e-08
3.45457e-05
-3.8627e-05
-2.09376e-07
3.41779e-05
-3.85923e-05
-2.44546e-07
3.37633e-05
-3.85136e-05
3.32281e-05
-3.82433e-05
1.55786e-06
5.52828e-05
-4.44891e-05
1.90403e-06
5.55586e-05
-4.53507e-05
1.73587e-06
5.58921e-05
-4.58879e-05
1.25516e-06
5.61638e-05
-4.63187e-05
6.65809e-07
5.62628e-05
-4.65937e-05
9.15102e-08
5.61307e-05
-4.6713e-05
-3.55866e-07
5.57271e-05
-4.66946e-05
-5.97929e-07
5.50878e-05
-4.65758e-05
-5.49287e-07
5.42981e-05
-4.64041e-05
5.33967e-05
-4.6044e-05
1.69831e-06
7.90166e-05
-5.8523e-05
2.20287e-06
8.05094e-05
-5.93174e-05
1.9863e-06
8.1702e-05
-5.98747e-05
1.34133e-06
8.25324e-05
-6.03393e-05
5.2809e-07
8.28935e-05
-6.06256e-05
-2.96073e-07
8.27823e-05
-6.07104e-05
-9.90349e-07
8.21977e-05
-6.05942e-05
-1.3601e-06
8.11182e-05
-6.03228e-05
-1.1794e-06
7.96592e-05
-5.99613e-05
7.78758e-05
-5.93561e-05
2.77963e-06
-8.03366e-05
0.000108115
3.35027e-06
-8.15489e-05
0.000112136
2.80298e-06
-8.23995e-05
0.000114705
1.70008e-06
-8.30725e-05
0.000116307
4.15987e-07
-8.34561e-05
0.000116959
-8.93027e-07
-8.35161e-05
0.000116871
-2.06078e-06
-8.325e-05
0.000116056
-2.77481e-06
-8.26983e-05
0.000114309
-2.52534e-06
-8.19622e-05
0.00011169
-8.08056e-05
0.000107561
2.00209e-06
1.40742e-05
-4.37319e-05
1.75995e-06
1.3347e-05
-4.55323e-05
1.46798e-06
1.31086e-05
-4.6318e-05
1.08923e-06
1.29867e-05
-4.68707e-05
7.11338e-07
1.29166e-05
-4.72173e-05
3.7864e-07
1.28468e-05
-4.7401e-05
1.22423e-07
1.27528e-05
-4.74621e-05
-4.78567e-08
1.26307e-05
-4.74419e-05
-1.30391e-07
1.24863e-05
-4.73746e-05
1.22207e-05
-4.70815e-05
1.27852e-06
2.68172e-05
-4.97062e-05
1.46113e-06
2.66931e-05
-5.0632e-05
1.33205e-06
2.66325e-05
-5.12136e-05
1.0176e-06
2.66162e-05
-5.16813e-05
6.45412e-07
2.65823e-05
-5.19908e-05
2.91573e-07
2.64828e-05
-5.21483e-05
1.23538e-08
2.62943e-05
-5.21772e-05
-1.4887e-07
2.60138e-05
-5.21149e-05
-1.974e-07
2.56999e-05
-5.20039e-05
2.52736e-05
-5.17207e-05
1.05108e-06
4.09256e-05
-5.99607e-05
1.37559e-06
4.13e-05
-6.06209e-05
1.30038e-06
4.15983e-05
-6.11339e-05
9.73602e-07
4.18289e-05
-6.15772e-05
5.41553e-07
4.19138e-05
-6.18708e-05
1.04609e-07
4.18163e-05
-6.1994e-05
-2.43411e-07
4.15128e-05
-6.19558e-05
-4.43376e-07
4.10337e-05
-6.17916e-05
-4.23836e-07
4.0449e-05
-6.15724e-05
3.9768e-05
-6.12028e-05
1.2401e-06
5.66118e-05
-7.57891e-05
1.65182e-06
5.77262e-05
-7.65368e-05
1.51835e-06
5.85958e-05
-7.71554e-05
1.05089e-06
5.92058e-05
-7.76909e-05
4.40838e-07
5.94663e-05
-7.80249e-05
-1.85358e-07
5.93803e-05
-7.81197e-05
-7.13279e-07
5.89513e-05
-7.79695e-05
-1.00952e-06
5.81676e-05
-7.76244e-05
-8.82622e-07
5.71191e-05
-7.7181e-05
5.58601e-05
-7.65595e-05
2.03244e-06
-9.87439e-05
7.25088e-05
2.4957e-06
-9.99562e-05
7.52094e-05
2.12141e-06
-0.000100945
7.69966e-05
1.31063e-06
-0.000101745
7.80886e-05
3.54341e-07
-0.000102198
7.85382e-05
-6.22153e-07
-0.000102268
7.84758e-05
-1.50315e-06
-0.000101955
7.7898e-05
-2.03297e-06
-0.000101293
7.67033e-05
-1.82086e-06
-0.000100415
7.48926e-05
-9.92584e-05
7.21084e-05
8.91938e-07
8.39341e-06
-5.31492e-05
9.976e-07
8.2595e-06
-5.40378e-05
9.18986e-07
8.16529e-06
-5.45508e-05
7.38623e-07
8.1148e-06
-5.4954e-05
5.22401e-07
8.07823e-06
-5.52297e-05
3.12785e-07
8.03461e-06
-5.53786e-05
1.38273e-07
7.97421e-06
-5.5418e-05
1.16252e-08
7.89697e-06
-5.53785e-05
-6.65044e-08
7.81097e-06
-5.5295e-05
7.65859e-06
-5.49465e-05
6.82272e-07
1.65211e-05
-5.86927e-05
8.89441e-07
1.65428e-05
-5.93092e-05
8.65796e-07
1.65296e-05
-5.97468e-05
7.03811e-07
1.65288e-05
-6.01305e-05
4.8307e-07
1.65069e-05
-6.03976e-05
2.57747e-07
1.64406e-05
-6.05307e-05
6.85433e-08
1.63203e-05
-6.05403e-05
-5.3156e-08
1.61447e-05
-6.04579e-05
-9.58723e-08
1.59501e-05
-6.03355e-05
1.57082e-05
-6.00259e-05
6.05406e-07
2.49818e-05
-6.92364e-05
8.64767e-07
2.52155e-05
-6.97749e-05
8.58251e-07
2.53934e-05
-7.02202e-05
6.77367e-07
2.55257e-05
-7.06299e-05
4.15008e-07
2.55673e-05
-7.09074e-05
1.38443e-07
2.54978e-05
-7.10173e-05
-8.79237e-08
2.53081e-05
-7.09637e-05
-2.25931e-07
2.50145e-05
-7.07766e-05
-2.31652e-07
2.46669e-05
-7.0541e-05
2.42896e-05
-7.01672e-05
7.27372e-07
3.35326e-05
-8.52648e-05
1.03268e-06
3.41302e-05
-8.59574e-05
9.84562e-07
3.46142e-05
-8.65473e-05
7.15433e-07
3.49556e-05
-8.70762e-05
3.43875e-07
3.50955e-05
-8.74108e-05
-4.8158e-08
3.50347e-05
-8.74996e-05
-3.74994e-07
3.47705e-05
-8.73397e-05
-5.65115e-07
3.43097e-05
-8.69739e-05
-4.87152e-07
3.37127e-05
-8.6526e-05
3.304e-05
-8.59178e-05
1.16504e-06
-0.000107062
4.05676e-05
1.50425e-06
-0.000108188
4.18379e-05
1.32257e-06
-0.000109125
4.2784e-05
8.55127e-07
-0.00010991
4.33731e-05
2.82625e-07
-0.000110366
4.36061e-05
-3.05102e-07
-0.000110439
4.35578e-05
-8.43575e-07
-0.000110124
4.32309e-05
-1.15128e-06
-0.000109474
4.25694e-05
-9.96872e-07
-0.000108639
4.15658e-05
-0.000107565
4.02592e-05
3.96697e-07
3.03341e-06
-5.66843e-05
5.19222e-07
2.99473e-06
-5.72637e-05
5.24921e-07
2.94372e-06
-5.76109e-05
4.64399e-07
2.90733e-06
-5.79117e-05
3.72566e-07
2.87845e-06
-5.81276e-05
2.71591e-07
2.85125e-06
-5.82407e-05
1.75134e-07
2.8221e-06
-5.82569e-05
8.79756e-08
2.79025e-06
-5.82009e-05
5.97743e-09
2.75842e-06
-5.81039e-05
2.70368e-06
-5.77402e-05
3.25074e-07
5.9781e-06
-6.20861e-05
4.67163e-07
5.96976e-06
-6.25539e-05
4.8989e-07
5.93252e-06
-6.28877e-05
4.38032e-07
5.89965e-06
-6.32014e-05
3.48556e-07
5.86447e-06
-6.34246e-05
2.45666e-07
5.82058e-06
-6.35288e-05
1.46656e-07
5.76392e-06
-6.3517e-05
6.24647e-08
5.69467e-06
-6.34183e-05
-3.37574e-09
5.62182e-06
-6.32864e-05
5.53797e-06
-6.2964e-05
2.79265e-07
8.94911e-06
-7.26192e-05
4.27181e-07
9.00426e-06
-7.30943e-05
4.55284e-07
9.03043e-06
-7.34849e-05
4.01402e-07
9.04023e-06
-7.3857e-05
3.03976e-07
9.02329e-06
-7.41092e-05
1.89043e-07
8.97437e-06
-7.41986e-05
7.86405e-08
8.8912e-06
-7.41252e-05
-6.7089e-09
8.77765e-06
-7.39253e-05
-4.71213e-08
8.64654e-06
-7.36813e-05
8.52581e-06
-7.32945e-05
2.97601e-07
1.17895e-05
-8.85263e-05
4.51251e-07
1.19635e-05
-8.91916e-05
4.63534e-07
1.21008e-05
-8.97541e-05
3.83144e-07
1.21865e-05
-9.02666e-05
2.54215e-07
1.22056e-05
-9.05886e-05
1.05633e-07
1.21599e-05
-9.0664e-05
-3.16606e-08
1.20512e-05
-9.04903e-05
-1.24e-07
1.18742e-05
-9.01161e-05
-1.35808e-07
1.16632e-05
-8.96569e-05
1.14468e-05
-8.90504e-05
4.23726e-07
-0.000109544
1.37615e-05
5.85068e-07
-0.000110615
1.41537e-05
5.48435e-07
-0.000111512
1.44466e-05
4.0215e-07
-0.000112273
1.46222e-05
2.08168e-07
-0.000112718
1.46781e-05
-3.19391e-09
-0.000112783
1.46411e-05
-2.00971e-07
-0.000112469
1.45137e-05
-3.3392e-07
-0.000111823
1.42778e-05
-3.10614e-07
-0.000111012
1.39387e-05
-0.000109989
1.35259e-05
1.23067e-07
-2.21328e-06
-5.46676e-05
1.95666e-07
-2.28835e-06
-5.51229e-05
2.31979e-07
-2.34678e-06
-5.53756e-05
2.51324e-07
-2.39808e-06
-5.56078e-05
2.59809e-07
-2.43421e-06
-5.57766e-05
2.54776e-07
-2.45168e-06
-5.58585e-05
2.30052e-07
-2.45159e-06
-5.58548e-05
1.77728e-07
-2.43861e-06
-5.57857e-05
9.16637e-08
-2.42014e-06
-5.56798e-05
-2.3772e-06
-5.53248e-05
9.04198e-08
-4.55006e-06
-5.99122e-05
1.44361e-07
-4.65994e-06
-6.03084e-05
1.83827e-07
-4.76576e-06
-6.058e-05
2.1793e-07
-4.86075e-06
-6.0844e-05
2.44496e-07
-4.92689e-06
-6.10291e-05
2.56031e-07
-4.95669e-06
-6.11063e-05
2.43263e-07
-4.95147e-06
-6.10754e-05
1.92848e-07
-4.91853e-06
-6.09618e-05
9.52967e-08
-4.87222e-06
-6.08165e-05
-4.80237e-06
-6.04941e-05
1.63604e-08
-6.93161e-06
-7.03233e-05
4.29107e-08
-7.0744e-06
-7.07738e-05
9.05532e-08
-7.22315e-06
-7.1141e-05
1.52279e-07
-7.35543e-06
-7.14885e-05
2.14477e-07
-7.44312e-06
-7.17184e-05
2.6032e-07
-7.47855e-06
-7.17871e-05
2.74532e-07
-7.46169e-06
-7.16941e-05
2.35059e-07
-7.40108e-06
-7.14738e-05
1.27775e-07
-7.31589e-06
-7.12054e-05
-7.21012e-06
-7.0803e-05
-8.79999e-08
-9.11768e-06
-8.63305e-05
-9.68298e-08
-9.31373e-06
-8.70189e-05
-3.46603e-08
-9.50631e-06
-8.76039e-05
6.49563e-08
-9.66698e-06
-8.81224e-05
1.78554e-07
-9.76978e-06
-8.8441e-05
2.76023e-07
-9.80547e-06
-8.85019e-05
3.32873e-07
-9.77457e-06
-8.83039e-05
3.1604e-07
-9.68221e-06
-8.7892e-05
1.98521e-07
-9.54676e-06
-8.73839e-05
-9.38203e-06
-8.67317e-05
-2.42897e-07
-0.000107926
-1.05478e-05
-2.8403e-07
-0.000109104
-1.08243e-05
-1.95083e-07
-0.000110092
-1.10484e-05
-3.7215e-08
-0.000110904
-1.1222e-05
1.42471e-07
-0.000111366
-1.13251e-05
3.06528e-07
-0.00011142
-1.13572e-05
4.23525e-07
-0.000111069
-1.13146e-05
4.47495e-07
-0.000110355
-1.11967e-05
3.19097e-07
-0.000109437
-1.10162e-05
-0.00010829
-1.07492e-05
-5.36455e-08
-7.3288e-06
-4.73262e-05
-4.04332e-08
-7.48747e-06
-4.76896e-05
6.53153e-09
-7.58308e-06
-4.78805e-05
8.51797e-08
-7.66812e-06
-4.80594e-05
1.78616e-07
-7.72065e-06
-4.819e-05
2.57989e-07
-7.73271e-06
-4.82461e-05
2.97767e-07
-7.70404e-06
-4.82295e-05
2.76086e-07
-7.64411e-06
-4.81562e-05
1.84287e-07
-7.57044e-06
-4.80518e-05
-7.42098e-06
-4.77364e-05
-8.896e-08
-1.49808e-05
-5.21895e-05
-1.16809e-07
-1.52406e-05
-5.25425e-05
-6.63711e-08
-1.5453e-05
-5.27743e-05
3.63076e-08
-1.56347e-05
-5.29925e-05
1.67881e-07
-1.57473e-05
-5.31455e-05
2.85767e-07
-1.5769e-05
-5.32001e-05
3.54368e-07
-1.5701e-05
-5.31566e-05
3.35181e-07
-1.55597e-05
-5.30365e-05
2.05626e-07
-1.5382e-05
-5.28828e-05
-1.51382e-05
-5.25657e-05
-2.30183e-07
-2.29429e-05
-6.21291e-05
-3.15711e-07
-2.33407e-05
-6.25784e-05
-2.45967e-07
-2.37116e-05
-6.29364e-05
-7.16841e-08
-2.40167e-05
-6.32606e-05
1.46044e-07
-2.41942e-05
-6.3467e-05
3.51248e-07
-2.42221e-05
-6.35177e-05
4.90206e-07
-2.41003e-05
-6.34108e-05
4.99979e-07
-2.38475e-05
-6.31745e-05
3.29892e-07
-2.35198e-05
-6.28801e-05
-2.31473e-05
-6.24552e-05
-5.13668e-07
-3.06421e-05
-7.81192e-05
-6.74969e-07
-3.13071e-05
-7.88823e-05
-5.47365e-07
-3.18995e-05
-7.9522e-05
-2.48293e-07
-3.23526e-05
-8.00574e-05
1.17674e-07
-3.25981e-05
-8.03696e-05
4.70714e-07
-3.26279e-05
-8.0416e-05
7.36807e-07
-3.2444e-05
-8.01946e-05
8.13973e-07
-3.20508e-05
-7.97404e-05
5.88198e-07
-3.15084e-05
-7.91546e-05
-3.08707e-05
-7.84098e-05
-1.02315e-06
-0.000101277
-3.62183e-05
-1.25468e-06
-0.000102746
-3.73564e-05
-9.97493e-07
-0.000103943
-3.82147e-05
-4.96069e-07
-0.000104856
-3.8797e-05
8.71469e-08
-0.000105348
-3.9086e-05
6.54615e-07
-0.00010539
-3.91144e-05
1.1252e-06
-0.000104987
-3.88817e-05
1.34336e-06
-0.000104154
-3.83541e-05
1.07075e-06
-0.000103015
-3.75537e-05
-0.000101561
-3.64182e-05
-1.87231e-07
-1.21165e-05
-3.50271e-05
-2.21007e-07
-1.23943e-05
-3.52648e-05
-1.65159e-07
-1.2548e-05
-3.53927e-05
-3.82631e-08
-1.26748e-05
-3.55155e-05
1.23215e-07
-1.27504e-05
-3.56056e-05
2.74264e-07
-1.27603e-05
-3.56411e-05
3.7003e-07
-1.27032e-05
-3.56218e-05
3.73744e-07
-1.25934e-05
-3.55615e-05
2.71442e-07
-1.24543e-05
-3.54821e-05
-1.21749e-05
-3.52632e-05
-2.56222e-07
-2.50021e-05
-3.90086e-05
-3.43953e-07
-2.5458e-05
-3.93454e-05
-2.85214e-07
-2.58104e-05
-3.95214e-05
-1.11903e-07
-2.61026e-05
-3.9686e-05
1.14049e-07
-2.62707e-05
-3.97978e-05
3.28592e-07
-2.62887e-05
-3.98331e-05
4.72878e-07
-2.61559e-05
-3.97903e-05
4.87847e-07
-2.58949e-05
-3.96859e-05
3.40091e-07
-2.55643e-05
-3.95532e-05
-2.51131e-05
-3.92295e-05
-5.06246e-07
-3.90447e-05
-4.7487e-05
-6.7598e-07
-3.98017e-05
-4.79555e-05
-5.68406e-07
-4.04669e-05
-4.82688e-05
-2.76324e-07
-4.09887e-05
-4.85387e-05
9.576e-08
-4.12741e-05
-4.8704e-05
4.57126e-07
-4.1298e-05
-4.87372e-05
7.24095e-07
-4.106e-05
-4.86361e-05
7.94994e-07
-4.05847e-05
-4.84233e-05
5.83165e-07
-3.99539e-05
-4.81469e-05
-3.92161e-05
-4.76851e-05
-1.04012e-06
-5.38997e-05
-6.20986e-05
-1.31511e-06
-5.52943e-05
-6.29568e-05
-1.07994e-06
-5.64528e-05
-6.35895e-05
-5.60425e-07
-5.72873e-05
-6.40832e-05
7.11351e-08
-5.77138e-05
-6.43573e-05
6.91519e-07
-5.774e-05
-6.43881e-05
1.18766e-06
-5.73733e-05
-6.41767e-05
1.3988e-06
-5.65985e-05
-6.37371e-05
1.09967e-06
-5.54954e-05
-6.31421e-05
-5.41256e-05
-6.22907e-05
-2.10534e-06
-8.57376e-05
-6.70149e-05
-2.44868e-06
-8.76265e-05
-6.97586e-05
-1.90902e-06
-8.89678e-05
-7.16093e-05
-9.89635e-07
-8.99018e-05
-7.27875e-05
4.21295e-08
-9.0372e-05
-7.33289e-05
1.05976e-06
-9.04019e-05
-7.3354e-05
1.95564e-06
-8.99963e-05
-7.28734e-05
2.47987e-06
-8.91246e-05
-7.17575e-05
2.14027e-06
-8.78442e-05
-7.00038e-05
-8.59559e-05
-6.72668e-05
-2.61643e-07
-1.60895e-05
-1.86445e-05
-3.40637e-07
-1.64437e-05
-1.87082e-05
-2.87465e-07
-1.66515e-05
-1.87592e-05
-1.26168e-07
-1.68224e-05
-1.88195e-05
8.81882e-08
-1.69202e-05
-1.88638e-05
2.93268e-07
-1.69293e-05
-1.8881e-05
4.29237e-07
-1.68472e-05
-1.88691e-05
4.46762e-07
-1.66903e-05
-1.88368e-05
3.26943e-07
-1.64916e-05
-1.88049e-05
-1.61323e-05
-1.87444e-05
-3.60711e-07
-3.36543e-05
-2.09858e-05
-5.12953e-07
-3.4265e-05
-2.12639e-05
-4.46676e-07
-3.47663e-05
-2.13604e-05
-2.21161e-07
-3.51697e-05
-2.14467e-05
7.97259e-08
-3.53937e-05
-2.15059e-05
3.71308e-07
-3.54098e-05
-2.15228e-05
5.75986e-07
-3.52165e-05
-2.14958e-05
6.1215e-07
-3.48418e-05
-2.14377e-05
4.28345e-07
-3.43566e-05
-2.13592e-05
-3.37447e-05
-2.10783e-05
-7.26152e-07
-5.4004e-05
-2.62295e-05
-9.80976e-07
-5.5126e-05
-2.66337e-05
-8.36211e-07
-5.61318e-05
-2.68253e-05
-4.40918e-07
-5.68883e-05
-2.69802e-05
6.32497e-08
-5.72868e-05
-2.70733e-05
5.58724e-07
-5.73082e-05
-2.70892e-05
9.3599e-07
-5.69562e-05
-2.70271e-05
1.06398e-06
-5.62437e-05
-2.68969e-05
7.96099e-07
-5.52742e-05
-2.67235e-05
-5.41711e-05
-2.6317e-05
-1.56362e-06
-7.81062e-05
-3.61159e-05
-1.9418e-06
-8.0494e-05
-3.68777e-05
-1.57563e-06
-8.24039e-05
-3.73146e-05
-8.36152e-07
-8.36977e-05
-3.76253e-05
3.81813e-08
-8.4326e-05
-3.77893e-05
9.05762e-07
-8.43516e-05
-3.78048e-05
1.62993e-06
-8.37848e-05
-3.76695e-05
1.98843e-06
-8.25596e-05
-3.73869e-05
1.61563e-06
-8.07289e-05
-3.69777e-05
-7.83614e-05
-3.62108e-05
-3.44697e-06
-5.47418e-05
-0.000105089
-3.80081e-06
-5.65399e-05
-0.000110627
-2.8602e-06
-5.75846e-05
-0.000114068
-1.46901e-06
-5.82226e-05
-0.000116081
1.10744e-08
-5.85225e-05
-0.000116944
1.47493e-06
-5.85391e-05
-0.000116968
2.84461e-06
-5.82688e-05
-0.000116176
3.77255e-06
-5.76726e-05
-0.000114255
3.48059e-06
-5.6668e-05
-0.000110975
-5.48731e-05
-0.000105465
-2.48329e-07
-1.83534e-05
-3.79818e-07
-1.853e-05
-3.4158e-07
-1.87501e-05
-1.68456e-07
-1.89435e-05
7.13057e-08
-1.90543e-05
3.03759e-07
-1.90624e-05
4.57467e-07
-1.89654e-05
4.67909e-07
-1.87844e-05
3.066e-07
-1.857e-05
-1.83875e-05
-3.54677e-07
-3.88864e-05
-5.78974e-07
-3.94631e-05
-5.26227e-07
-4.00499e-05
-2.76298e-07
-4.05224e-05
6.39922e-08
-4.07801e-05
3.97722e-07
-4.07952e-05
6.29867e-07
-4.05665e-05
6.62229e-07
-4.0119e-05
4.17277e-07
-3.95476e-05
-3.89717e-05
-7.86628e-07
-6.41436e-05
-1.13605e-06
-6.55536e-05
-9.85496e-07
-6.68182e-05
-5.31852e-07
-6.7738e-05
4.83243e-08
-6.82087e-05
6.20963e-07
-6.82296e-05
1.06294e-06
-6.78028e-05
1.20277e-06
-6.69305e-05
8.4685e-07
-6.57123e-05
-6.43178e-05
-1.8756e-06
-9.81083e-05
-2.3402e-06
-0.00010164
-1.88566e-06
-0.000104238
-1.00002e-06
-0.000105879
2.49694e-08
-0.000106644
1.04318e-06
-0.00010667
1.9144e-06
-0.000105966
2.35999e-06
-0.000104408
1.92929e-06
-0.000101907
-9.84025e-05
-4.60238e-06
-0.000147696
-4.8453e-06
-0.000157388
-3.51946e-06
-0.000162537
-1.77341e-06
-0.000165228
-5.01332e-09
-0.000166296
1.75171e-06
-0.000166314
3.46378e-06
-0.000165329
4.77997e-06
-0.000162763
4.62835e-06
-0.000157883
-0.000148273
-1.18438e-05
-0.000226745
9.19122e-05
-1.00039e-05
-0.000254897
9.68512e-05
-6.29284e-06
-0.000264401
9.93589e-05
-2.90392e-06
-0.000267995
0.000100664
-2.98236e-08
-0.000269044
0.000101192
2.79209e-06
-0.000269072
0.000101205
6.10935e-06
-0.00026805
0.000100724
9.68516e-06
-0.000264661
9.94934e-05
1.17601e-05
-0.000255885
9.71064e-05
-0.000228002
9.22087e-05
-3.05676e-05
-0.000359711
0.000164406
-1.97741e-05
-0.000442995
0.000178396
-1.01419e-05
-0.000456101
0.000183261
-4.12107e-06
-0.000458155
0.000185311
-6.19512e-08
-0.000457924
0.000185975
3.97049e-06
-0.00045788
0.000185994
9.73629e-06
-0.00045812
0.00018536
1.89554e-05
-0.000456218
0.000183396
3.01902e-05
-0.000445087
0.000178939
-0.000362639
0.000165077
-8.54468e-05
-0.000561862
0.000287641
-3.28706e-05
-0.000849298
0.000353386
-8.96962e-06
-0.000844029
0.00036365
-2.3257e-06
-0.000831192
0.000366
4.1557e-08
-0.000826773
0.000366098
2.28337e-06
-0.000826698
0.000366061
8.48325e-06
-0.000830718
0.000365956
3.12697e-05
-0.000843246
0.000363771
8.43746e-05
-0.000854103
0.000355019
-0.000568467
0.000289695
-0.000207293
-0.00109524
0.000738718
-8.65458e-05
-0.00173674
0.000764841
-2.86779e-05
-0.00170557
0.00080155
-8.38998e-06
-0.00166568
0.000812039
-1.21978e-07
-0.00165204
0.00081474
7.93145e-06
-0.00165167
0.000814753
2.69957e-05
-0.00166417
0.000812173
8.23489e-05
-0.00170305
0.000802156
0.000203839
-0.00174438
0.000767069
-0.00110836
0.000742166
0.000256884
-0.00135328
0.000119511
-0.00160046
4.35384e-05
-0.00163069
1.41065e-05
-0.0016374
3.09988e-07
-0.00163938
-1.31663e-05
-0.00163937
-4.11066e-05
-0.00163736
-0.000113928
-0.00163098
-0.000253285
-0.00160591
-0.00136197
-7.94355e-06
-0.000127672
0.000123071
-7.29289e-06
-0.000141474
0.000127923
-4.91462e-06
-0.000147032
0.000130807
-2.35933e-06
-0.000149605
0.00013255
-1.88562e-08
-0.000150491
0.000133331
2.29261e-06
-0.000150518
0.00013336
4.80579e-06
-0.000149671
0.000132651
7.11475e-06
-0.000147253
0.000130998
7.92565e-06
-0.000142001
0.000128239
-0.00012831
0.000123412
-1.85359e-05
-0.000123778
0.000180016
-1.36898e-05
-0.000160562
0.000193443
-7.88524e-06
-0.000168161
0.000199572
-3.43598e-06
-0.000170442
0.000202668
-5.04177e-08
-0.000170804
0.000203868
3.31444e-06
-0.000170799
0.000203902
7.59398e-06
-0.000170532
0.000202784
1.32472e-05
-0.000168321
0.000199845
1.83429e-05
-0.000161633
0.00019402
-0.000125286
0.000180707
-1.96924e-05
-2.26247e-05
0.000205773
-1.07783e-05
-4.79898e-05
0.000231964
-5.28032e-06
-4.71919e-05
0.000237068
-2.11036e-06
-4.69195e-05
0.0002392
1.20654e-08
-4.67477e-05
0.000239798
2.05005e-06
-4.67987e-05
0.00023979
5.18776e-06
-4.69709e-05
0.000239248
1.03478e-05
-4.73911e-05
0.000237153
1.94755e-05
-4.85853e-05
0.000232695
-2.3255e-05
0.000206585
-0.000163113
0.000360673
0.000517368
-8.14205e-05
9.51631e-06
0.000623982
-3.04042e-05
4.09235e-05
0.000660626
-9.8456e-06
6.80658e-05
0.000674646
-2.32529e-07
7.77277e-05
0.000678738
9.17104e-06
7.7949e-05
0.000678816
2.86041e-05
6.8759e-05
0.000674955
7.82682e-05
4.19333e-05
0.000661583
0.000160755
6.8282e-06
0.000627331
0.000356934
0.000521679
0.000170498
-0.00116424
8.05771e-05
-0.00150219
3.00572e-05
-0.00154043
9.85197e-06
-0.00155034
2.65144e-07
-0.00155327
-9.12297e-06
-0.00155329
-2.83695e-05
-0.00155044
-7.73316e-05
-0.00154116
-0.000168704
-0.00150861
-0.00117405
-4.27277e-06
-7.15043e-05
0.000132159
-4.31566e-06
-7.66047e-05
0.00013527
-3.11225e-06
-7.90268e-05
0.000137466
-1.54818e-06
-8.02961e-05
0.000138978
1.44404e-08
-8.07919e-05
0.000139725
1.55676e-06
-8.08149e-05
0.000139764
3.09593e-06
-8.03533e-05
0.00013911
4.25608e-06
-7.91805e-05
0.000137686
4.28915e-06
-7.68724e-05
0.000135586
-7.18086e-05
0.000132496
-8.5823e-06
-5.19086e-05
0.000169472
-7.25726e-06
-6.03038e-05
0.00017631
-4.63232e-06
-6.17816e-05
0.000180279
-2.14985e-06
-6.21801e-05
0.000182646
-1.25904e-08
-6.2183e-05
0.000183699
2.11488e-06
-6.21885e-05
0.000183743
4.50633e-06
-6.22402e-05
0.000182779
7.07669e-06
-6.18734e-05
0.000180551
8.53315e-06
-6.06482e-05
0.000176745
-5.24109e-05
0.000169954
-4.15326e-06
-1.80809e-05
0.000175985
-2.93496e-06
-1.23626e-05
0.000182748
-2.23063e-06
-9.87786e-06
0.000184362
-1.14631e-06
-9.61511e-06
0.000185449
2.20977e-08
-9.61034e-06
0.00018594
1.15711e-06
-9.65369e-06
0.000185951
2.24471e-06
-9.70288e-06
0.000185515
2.87612e-06
-1.00273e-05
0.000184457
4.10675e-06
-1.25073e-05
0.000182987
-1.82691e-05
0.000176226
-4.55088e-05
0.00024586
0.000298166
-2.72474e-05
0.000265443
0.000326931
-1.28781e-05
0.000293241
0.000342056
-4.80329e-06
0.00030664
0.000349205
-1.4312e-07
0.000311674
0.000351657
4.41553e-06
0.000311765
0.000351733
1.20953e-05
0.000306934
0.000349492
2.60348e-05
0.000293748
0.00034272
4.46647e-05
0.000266658
0.000328522
0.000247375
0.000300145
6.22602e-05
-0.000981335
3.06463e-05
-0.00120588
1.26422e-05
-0.00122994
4.38677e-06
-0.00123622
1.68988e-07
-0.00123814
-3.96183e-06
-0.00123817
-1.18677e-05
-0.00123635
-2.93339e-05
-0.00123059
-6.17033e-05
-0.00121016
-0.000988532
-1.93146e-06
-3.58718e-05
0.000133894
-2.12031e-06
-3.77486e-05
0.000136023
-1.59326e-06
-3.87486e-05
0.000137665
-7.94893e-07
-3.93116e-05
0.000138895
5.71744e-08
-3.95527e-05
0.000139548
8.96138e-07
-3.95723e-05
0.000139599
1.66535e-06
-3.93731e-05
0.000139053
2.15425e-06
-3.8867e-05
0.00013792
1.9699e-06
-3.79273e-05
0.000136362
-3.60662e-05
0.000134258
-3.5356e-06
-2.31293e-05
0.000160466
-3.28219e-06
-2.58634e-05
0.000164408
-2.24494e-06
-2.62443e-05
0.000167
-1.07305e-06
-2.62823e-05
0.000168721
3.65384e-08
-2.62412e-05
0.000169563
1.13063e-06
-2.62549e-05
0.000169609
2.25762e-06
-2.63265e-05
0.00016887
3.25444e-06
-2.63253e-05
0.000167263
3.54692e-06
-2.60361e-05
0.00016478
-2.33694e-05
0.000160868
-1.40769e-06
-1.53487e-05
0.000169524
-1.21568e-06
-1.5725e-05
0.00017235
-1.07377e-06
-1.56461e-05
0.000173529
-5.90042e-07
-1.58406e-05
0.000174422
3.96159e-08
-1.59438e-05
0.000174888
6.58267e-07
-1.59748e-05
0.00017491
1.12784e-06
-1.5923e-05
0.000174501
1.23305e-06
-1.57915e-05
0.000173651
1.40406e-06
-1.59554e-05
0.000172532
-1.56593e-05
0.000169717
-1.69043e-05
9.29299e-05
0.000206416
-1.01581e-05
9.74885e-05
0.000206511
-5.20561e-06
0.000107779
0.000213197
-2.09416e-06
0.000112898
0.000216847
-5.43368e-08
0.000114925
0.000218237
1.93897e-06
0.00011496
0.0002183
4.89734e-06
0.00011302
0.000217067
9.67001e-06
0.000108009
0.000213639
1.65547e-05
9.79723e-05
0.000207228
9.35335e-05
0.000207259
1.91891e-05
-0.000907895
1.05533e-05
-0.00110005
4.72089e-06
-0.00111662
1.71518e-06
-0.00112059
1.13103e-07
-0.00112189
-1.46206e-06
-0.00112191
-4.36433e-06
-0.00112069
-1.00688e-05
-0.00111712
-1.9031e-05
-0.00110343
-0.00091404
-4.63419e-07
-1.03245e-05
0.000134172
-5.16448e-07
-1.07125e-05
0.000136014
-3.75463e-07
-1.09208e-05
0.00013745
-1.44321e-07
-1.10659e-05
0.00013857
1.09988e-07
-1.11457e-05
0.00013918
3.51823e-07
-1.117e-05
0.000139241
5.45602e-07
-1.11381e-05
0.000138751
6.32952e-07
-1.10376e-05
0.000137744
5.25153e-07
-1.08714e-05
0.000136393
-1.04964e-05
0.000134589
-7.91081e-07
-7.39777e-06
0.000158377
-7.64256e-07
-7.8343e-06
0.000161537
-5.41548e-07
-7.79679e-06
0.000163681
-2.37129e-07
-7.8008e-06
0.000165166
8.65023e-08
-7.81236e-06
0.000165907
3.93256e-07
-7.83511e-06
0.000165958
6.67669e-07
-7.86342e-06
0.000165317
8.38353e-07
-7.9065e-06
0.000163943
8.36426e-07
-7.97781e-06
0.0001619
-7.58386e-06
0.000158764
-6.69306e-08
-7.88567e-06
0.000169919
-9.1847e-08
-7.88084e-06
0.000172266
-1.99703e-07
-7.78818e-06
0.000173458
-1.22701e-07
-8.04218e-06
0.000174362
6.41199e-08
-8.18241e-06
0.00017484
2.43462e-07
-8.20601e-06
0.000174869
2.97729e-07
-8.11011e-06
0.000174446
1.55531e-07
-7.89531e-06
0.000173599
8.61682e-08
-8.06193e-06
0.000172502
-8.12381e-06
0.000170155
-3.82896e-06
1.66161e-05
0.000185694
-2.50227e-06
1.60901e-05
0.000181124
-1.49672e-06
1.81739e-05
0.000186117
-6.69544e-07
1.91124e-05
0.000188789
1.23703e-08
1.94831e-05
0.000189808
6.71219e-07
1.94892e-05
0.000189862
1.45503e-06
1.9134e-05
0.000188969
2.40511e-06
1.82065e-05
0.000186471
3.72959e-06
1.61587e-05
0.000181608
1.67081e-05
0.000186217
3.61885e-06
-0.000894808
1.85244e-06
-0.00108203
6.96016e-07
-0.00109708
2.18595e-07
-0.00110073
8.0806e-08
-0.00110197
-6.07341e-08
-0.00110198
-5.35642e-07
-0.0011008
-1.69681e-06
-0.00109751
-3.54809e-06
-0.0010852
-0.000900696
7.47834e-07
1.3059e-05
0.000134111
8.75648e-07
1.37452e-05
0.000136175
7.26907e-07
1.41481e-05
0.000137777
4.60648e-07
1.43192e-05
0.000138982
1.71327e-07
1.43502e-05
0.00013962
-1.32079e-07
1.4315e-05
0.000139682
-4.44143e-07
1.42145e-05
0.000139164
-6.7227e-07
1.39941e-05
0.000138083
-6.51719e-07
1.35619e-05
0.000136574
1.28464e-05
0.000134546
1.33175e-06
6.51032e-06
0.000163178
1.30011e-06
7.45303e-06
0.000167596
9.18197e-07
7.5334e-06
0.000170339
5.02684e-07
7.37139e-06
0.000172082
1.37901e-07
7.23879e-06
0.000172918
-2.42823e-07
7.19962e-06
0.000172971
-6.82348e-07
7.25884e-06
0.000172244
-1.12918e-06
7.36246e-06
0.000170614
-1.26203e-06
7.28353e-06
0.000168077
6.27512e-06
0.000163668
1.28212e-06
1.51953e-06
0.000173573
1.05314e-06
2.8824e-06
0.000176773
6.79034e-07
3.05931e-06
0.000177957
3.57119e-07
2.84045e-06
0.000178835
9.40504e-08
2.65609e-06
0.000179256
-1.81714e-07
2.63899e-06
0.000179273
-5.25184e-07
2.79972e-06
0.000178874
-9.00461e-07
2.99139e-06
0.000178065
-1.24412e-06
2.83077e-06
0.00017691
1.47798e-06
0.000173719
6.57363e-06
-4.36862e-05
0.00022447
3.51964e-06
-4.68814e-05
0.000234333
1.35379e-06
-5.09012e-05
0.000242761
4.25777e-07
-5.34028e-05
0.000246372
7.05998e-08
-5.44201e-05
0.000247734
-2.87306e-07
-5.44345e-05
0.000247811
-1.19889e-06
-5.34769e-05
0.000246561
-3.31155e-06
-5.10742e-05
0.000243155
-6.48634e-06
-4.71907e-05
0.00023546
-4.41258e-05
0.000225665
-6.6747e-06
-0.000931044
-4.62657e-06
-0.00113026
-2.60434e-06
-0.00114923
-1.07155e-06
-0.00115449
6.47519e-08
-0.00115636
1.19285e-06
-0.00115638
2.65273e-06
-0.00115452
4.59025e-06
-0.00114968
6.74911e-06
-0.00113394
-0.000937496
2.18218e-06
4.12543e-05
0.000130624
2.44548e-06
4.405e-05
0.000133217
1.92043e-06
4.54747e-05
0.000135031
1.09587e-06
4.61268e-05
0.000136329
2.34941e-07
4.63335e-05
0.000136999
-6.46822e-07
4.62865e-05
0.000137055
-1.51392e-06
4.59975e-05
0.000136493
-2.15263e-06
4.528e-05
0.000135303
-2.05703e-06
4.3936e-05
0.000133633
4.10855e-05
0.000131047
4.57612e-06
2.53141e-05
0.000174024
3.98788e-06
3.04724e-05
0.000180941
2.64801e-06
3.14515e-05
0.000184741
1.3378e-06
3.14055e-05
0.000187
1.91529e-07
3.12031e-05
0.000187971
-9.66403e-07
3.11572e-05
0.000188011
-2.30065e-06
3.12737e-05
0.000187129
-3.62044e-06
3.12864e-05
0.000185049
-4.49275e-06
3.03708e-05
0.000181445
2.51717e-05
0.000174614
2.96313e-06
1.95391e-05
0.000175849
2.24264e-06
2.63229e-05
0.000181361
1.5597e-06
2.78902e-05
0.000182116
7.85145e-07
2.79364e-05
0.000182327
1.1158e-07
2.79142e-05
0.000182599
-5.89302e-07
2.79352e-05
0.000182628
-1.33344e-06
2.7942e-05
0.000182242
-2.0788e-06
2.78902e-05
0.00018201
-2.88933e-06
2.67059e-05
0.000181562
1.99835e-05
0.000175996
2.72769e-05
-0.000138116
0.000356133
1.39834e-05
-0.000136401
0.000411733
5.60259e-06
-0.000148682
0.00042844
2.01051e-06
-0.000156235
0.000435947
1.55109e-07
-0.000159411
0.000438498
-1.74709e-06
-0.000159499
0.000438472
-5.157e-06
-0.000156394
0.000436415
-1.3053e-05
-0.000149134
0.000429425
-2.6893e-05
-0.000137259
0.000414333
-0.000139542
0.000359489
-2.50844e-05
-0.00104295
-1.56964e-05
-0.00127509
-7.61785e-06
-0.00130409
-3.03404e-06
-0.0013137
2.38229e-08
-0.0013169
3.16148e-06
-0.00131677
7.46744e-06
-0.0013139
1.50684e-05
-0.00130506
2.5125e-05
-0.00127994
-0.00105125
4.13044e-06
8.29926e-05
0.000115013
4.27722e-06
8.9652e-05
0.000117532