/*--------------------------------*- C++ -*----------------------------------*\
| =========                 |                                                 |
| \\      /  F ield         | OpenFOAM: The Open Source CFD Toolbox           |
|  \\    /   O peration     | Version:  2.3.1                                 |
|   \\  /    A nd           | Web:      www.OpenFOAM.org                      |
|    \\/     M anipulation  |                                                 |
\*---------------------------------------------------------------------------*/
FoamFile
{
    version     2.0;
    format      ascii;
    class       volVectorField;
    location    "0.48";
    object      U;
}
// * * * * * * * * * * * * * * * * * * * * * * * * * * * * * * * * * * * * * //

dimensions      [0 1 -1 0 0 0 0];

internalField   nonuniform List<vector> 
1000
(
(0.0002757 0.0020032 0.00117409)
(-0.000659959 0.00115881 0.00136538)
(-0.000825468 0.0010264 0.000450688)
(-0.000896214 0.000970901 0.000276974)
(-0.000921714 0.000952337 0.000153984)
(-0.000931651 0.000943302 8.05359e-05)
(-0.000935196 0.000935377 3.21939e-05)
(-0.000936069 0.000926447 2.21631e-06)
(-0.000936105 0.000916782 -1.04187e-05)
(-0.000935589 0.000910473 -6.33066e-06)
(-0.0007299 0.00408365 0.000321762)
(-0.000938354 0.00313697 0.000453511)
(-0.00100345 0.00298861 0.000288699)
(-0.00103799 0.00291524 0.000207071)
(-0.00105433 0.00288815 0.000128717)
(-0.00106154 0.00287 6.49275e-05)
(-0.00106381 0.00284795 1.62473e-05)
(-0.00106368 0.00281881 -1.56983e-05)
(-0.00106173 0.00278723 -2.20878e-05)
(-0.00104399 0.00276201 -9.92648e-06)
(-0.00117231 0.00541381 0.000142628)
(-0.00124779 0.00524038 0.000258097)
(-0.00127816 0.00520685 0.000227952)
(-0.00129741 0.00519624 0.000177077)
(-0.00130831 0.00519004 0.000109452)
(-0.00131307 0.00517231 4.09254e-05)
(-0.00131328 0.00513498 -1.85653e-05)
(-0.00131074 0.00507922 -5.82846e-05)
(-0.00130612 0.00501456 -5.93889e-05)
(-0.00128271 0.00494973 -2.60312e-05)
(-0.00167481 0.00793725 0.000111947)
(-0.00172451 0.00798391 0.000235001)
(-0.00174517 0.00805194 0.00024448)
(-0.00176045 0.00810631 0.000190075)
(-0.00176984 0.00812933 0.000104687)
(-0.00177299 0.00811448 9.86534e-06)
(-0.00177015 0.00805882 -7.68119e-05)
(-0.00176349 0.00796263 -0.000136265)
(-0.00175397 0.00784033 -0.000139151)
(-0.00171912 0.00770232 -6.49781e-05)
(-0.00249349 0.0115608 0.0001729)
(-0.00255403 0.0118364 0.000354195)
(-0.00257853 0.0120364 0.000350537)
(-0.00259752 0.0121693 0.000254284)
(-0.00260855 0.0122265 0.000117518)
(-0.00261037 0.0122149 -2.95718e-05)
(-0.00260355 0.0121341 -0.000170366)
(-0.00258883 0.0119766 -0.000277077)
(-0.00256935 0.0117547 -0.000302037)
(-0.00251289 0.0114452 -0.000152104)
(-0.00131019 0.00101431 0.000247554)
(-0.00229481 0.000919076 0.000354644)
(-0.00247929 0.000889768 0.000242671)
(-0.00258429 0.000870623 0.000185792)
(-0.00262965 0.000861281 0.000121176)
(-0.00264958 0.000854978 6.83526e-05)
(-0.00265679 0.000848251 2.84238e-05)
(-0.00265766 0.000840142 1.56953e-06)
(-0.00265569 0.000830504 -1.37933e-05)
(-0.00264402 0.000807757 -8.74394e-06)
(-0.00252625 0.00274956 0.000134364)
(-0.00277752 0.002638 0.000228974)
(-0.00286616 0.00260587 0.00020257)
(-0.00292538 0.00258243 0.000161507)
(-0.00295759 0.00256922 0.000107959)
(-0.00297283 0.00255591 5.69125e-05)
(-0.00297717 0.00253691 1.48069e-05)
(-0.00297525 0.00251085 -1.4263e-05)
(-0.002969 0.00248149 -2.46724e-05)
(-0.00293771 0.00243938 -1.22753e-05)
(-0.00338144 0.00453844 9.33064e-05)
(-0.0034979 0.00452098 0.000185331)
(-0.00355341 0.00452584 0.000185295)
(-0.00359368 0.00453231 0.000150585)
(-0.00361815 0.00453212 9.59982e-05)
(-0.0036288 0.00451796 3.71567e-05)
(-0.00362804 0.00448532 -1.57146e-05)
(-0.00361946 0.0044357 -5.21891e-05)
(-0.00360573 0.00437762 -5.98549e-05)
(-0.00356416 0.00431576 -2.795e-05)
(-0.00457793 0.00669323 9.50201e-05)
(-0.00466868 0.00677381 0.000204797)
(-0.00471763 0.00684737 0.000213818)
(-0.00475613 0.00690143 0.000168119)
(-0.0047798 0.00692399 9.38265e-05)
(-0.00478712 0.00691166 1.03217e-05)
(-0.00477842 0.00686248 -6.72727e-05)
(-0.00475802 0.00677764 -0.000122051)
(-0.00472944 0.00666872 -0.000132502)
(-0.00466248 0.00654465 -6.24495e-05)
(-0.00647932 0.0093392 0.000155122)
(-0.00660706 0.0095999 0.000324044)
(-0.00667573 0.00978361 0.000313234)
(-0.00672867 0.00990472 0.000227125)
(-0.00675891 0.00995566 0.000106182)
(-0.00676371 0.00994582 -2.43123e-05)
(-0.00674346 0.00987565 -0.000149718)
(-0.00670076 0.00973526 -0.000246814)
(-0.00664266 0.00953626 -0.000279481)
(-0.00652169 0.00925641 -0.000138169)
(-0.00372704 0.000724797 0.00012836)
(-0.00391868 0.000689464 0.000212923)
(-0.00400037 0.000674156 0.000161994)
(-0.00406451 0.00066629 0.000127818)
(-0.0041029 0.000661839 8.96494e-05)
(-0.00412264 0.000657865 5.40114e-05)
(-0.00412964 0.000652923 2.44533e-05)
(-0.00412876 0.000646723 3.13341e-06)
(-0.0041235 0.000639424 -1.11451e-05)
(-0.00409757 0.000621439 -7.71949e-06)
(-0.0042909 0.00204173 7.82208e-05)
(-0.00439682 0.00199621 0.00014865)
(-0.00445997 0.00197887 0.000141987)
(-0.00451046 0.0019703 0.000118137)
(-0.00454286 0.0019642 8.30405e-05)
(-0.00455928 0.00195534 4.64049e-05)
(-0.00456304 0.00194116 1.43358e-05)
(-0.00455823 0.00192123 -8.80076e-06)
(-0.00454829 0.00189885 -1.92293e-05)
(-0.00451907 0.00186448 -1.02538e-05)
(-0.00525016 0.00338277 5.99848e-05)
(-0.00532714 0.00338957 0.000128232)
(-0.00538043 0.00339991 0.000136603)
(-0.00542476 0.00340962 0.000114866)
(-0.00545369 0.00341155 7.59761e-05)
(-0.00546612 0.00340142 3.19693e-05)
(-0.00546341 0.00337685 -8.8394e-06)
(-0.0054492 0.00333923 -3.76563e-05)
(-0.00542893 0.0032955 -4.5649e-05)
(-0.00538995 0.00324663 -2.1717e-05)
(-0.00675464 0.0048741 6.77921e-05)
(-0.00683552 0.00494543 0.000151187)
(-0.00689593 0.00500259 0.000161856)
(-0.00694672 0.00504408 0.000130012)
(-0.00697823 0.00506108 7.50085e-05)
(-0.00698742 0.00505179 1.18658e-05)
(-0.00697407 0.00501521 -4.76943e-05)
(-0.00694296 0.00495252 -8.99856e-05)
(-0.00690147 0.00487223 -9.89276e-05)
(-0.00683627 0.00477891 -4.61542e-05)
(-0.00901556 0.00646441 0.0001109)
(-0.00914316 0.0066534 0.000238318)
(-0.0092379 0.00678541 0.00023516)
(-0.00931276 0.00687065 0.000173313)
(-0.00935523 0.00690642 8.36742e-05)
(-0.00936188 0.006899 -1.38685e-05)
(-0.00933265 0.00684847 -0.000108079)
(-0.0092711 0.00674958 -0.000180846)
(-0.00918804 0.0066077 -0.00020284)
(-0.00906612 0.00640758 -9.75367e-05)
(-0.00487389 0.000429928 5.31239e-05)
(-0.00500195 0.00042558 0.00010213)
(-0.00506433 0.000419717 9.73235e-05)
(-0.00511129 0.000416438 8.32993e-05)
(-0.00514226 0.000414146 6.30815e-05)
(-0.00515895 0.000411688 4.16406e-05)
(-0.00516405 0.000408511 2.23261e-05)
(-0.00516111 0.000404574 7.25e-06)
(-0.00515353 0.000400234 -4.40973e-06)
(-0.00511917 0.000389747 -4.30497e-06)
(-0.0054451 0.00124264 3.95056e-05)
(-0.005526 0.00123716 8.33166e-05)
(-0.00557665 0.00123084 8.96132e-05)
(-0.00561894 0.00122756 7.92535e-05)
(-0.00564781 0.00122421 5.95174e-05)
(-0.00566246 0.00121851 3.69281e-05)
(-0.00566448 0.00120944 1.59483e-05)
(-0.00565725 0.00119689 -3.52444e-10)
(-0.00564485 0.00118312 -8.52863e-06)
(-0.00560883 0.00116322 -5.14187e-06)
(-0.00648511 0.00207517 3.34772e-05)
(-0.00655224 0.00208503 7.67584e-05)
(-0.00660082 0.00209251 8.80999e-05)
(-0.00664355 0.00209858 7.77478e-05)
(-0.00667224 0.00209925 5.49216e-05)
(-0.00668402 0.0020923 2.75888e-05)
(-0.00667951 0.00207678 1.29976e-06)
(-0.00666191 0.00205345 -1.80521e-05)
(-0.00663825 0.00202682 -2.40389e-05)
(-0.00659304 0.00199891 -1.12543e-05)
(-0.00808067 0.00292807 3.89815e-05)
(-0.0081618 0.00296959 9.13926e-05)
(-0.00822339 0.00300232 0.000103054)
(-0.00827685 0.00302576 8.61286e-05)
(-0.00831046 0.00303471 5.3348e-05)
(-0.00831975 0.0030281 1.45689e-05)
(-0.00830428 0.00300537 -2.27821e-05)
(-0.00826863 0.00296776 -4.98191e-05)
(-0.00822296 0.00292089 -5.48899e-05)
(-0.00815206 0.00286863 -2.47269e-05)
(-0.0103202 0.00371822 6.22093e-05)
(-0.0104473 0.00381393 0.00013936)
(-0.0105451 0.0038856 0.000144149)
(-0.0106246 0.00393242 0.000110114)
(-0.0106702 0.00395131 5.72577e-05)
(-0.0106775 0.00394584 -1.71417e-06)
(-0.0106461 0.00391606 -5.90001e-05)
(-0.0105803 0.00385975 -0.000102579)
(-0.0104934 0.00377971 -0.000112665)
(-0.0103715 0.00367867 -5.23181e-05)
(-0.00551563 0.000155393 2.2431e-05)
(-0.00558811 0.000154458 4.82115e-05)
(-0.00562964 0.000151503 5.32186e-05)
(-0.00566417 0.000149362 4.98829e-05)
(-0.00568851 0.000147687 4.19894e-05)
(-0.00570155 0.000146169 3.22323e-05)
(-0.00570433 0.000144611 2.23098e-05)
(-0.00569957 0.000142961 1.31075e-05)
(-0.00569052 0.000141346 4.10123e-06)
(-0.00565259 0.000137601 7.67721e-08)
(-0.00606272 0.000449921 1.82576e-05)
(-0.00612243 0.000447765 4.14304e-05)
(-0.00616091 0.000442989 4.89236e-05)
(-0.00619538 0.000439239 4.69673e-05)
(-0.00621975 0.00043585 3.95566e-05)
(-0.00623159 0.000432192 2.97642e-05)
(-0.0062315 0.000427861 1.95737e-05)
(-0.00622245 0.000422818 1.03394e-05)
(-0.00620901 0.000417652 2.63155e-06)
(-0.00617069 0.000410623 -2.14649e-07)
(-0.00711573 0.000747234 1.52784e-05)
(-0.00717388 0.000748674 3.66136e-05)
(-0.00721617 0.000747833 4.5105e-05)
(-0.00725509 0.000746459 4.34184e-05)
(-0.00728153 0.000743694 3.55273e-05)
(-0.00729151 0.000738954 2.4724e-05)
(-0.0072852 0.000731918 1.33186e-05)
(-0.00726587 0.000722784 3.37294e-06)
(-0.00724109 0.000712703 -3.07451e-06)
(-0.00719512 0.000703419 -2.38959e-06)
(-0.00871113 0.00103882 1.58695e-05)
(-0.00878697 0.00105055 3.86369e-05)
(-0.00884523 0.00105861 4.66697e-05)
(-0.0088972 0.00106327 4.2905e-05)
(-0.00893001 0.0010633 3.21297e-05)
(-0.00893825 0.0010585 1.80673e-05)
(-0.00892164 0.00104885 3.47722e-06)
(-0.00888473 0.00103432 -8.81566e-06)
(-0.00883865 0.00101725 -1.39896e-05)
(-0.00876977 0.00100023 -6.72791e-06)
(-0.0108469 0.00128333 2.23348e-05)
(-0.0109633 0.001313 5.21962e-05)
(-0.0110554 0.00133464 5.77242e-05)
(-0.0111324 0.00134779 4.80784e-05)
(-0.0111774 0.00135161 3.07512e-05)
(-0.0111844 0.00134744 1.0301e-05)
(-0.011153 0.00133552 -1.08179e-05)
(-0.0110885 0.00131479 -2.82088e-05)
(-0.0110059 0.00128722 -3.3643e-05)
(-0.0108944 0.00125456 -1.56731e-05)
(-0.00558832 -0.000112157 6.93919e-06)
(-0.00564143 -0.000116796 1.64548e-05)
(-0.00567073 -0.00011991 2.18723e-05)
(-0.00569697 -0.000122632 2.44262e-05)
(-0.005716 -0.000124565 2.56975e-05)
(-0.00572567 -0.000125531 2.58221e-05)
(-0.00572625 -0.000125588 2.43158e-05)
(-0.00571999 -0.000124984 2.04714e-05)
(-0.00570979 -0.000124076 1.34167e-05)
(-0.00567152 -0.000121024 4.57647e-06)
(-0.00612265 -0.000336021 5.22455e-06)
(-0.00617216 -0.000345426 1.22535e-05)
(-0.0062027 -0.000353703 1.68098e-05)
(-0.0062313 -0.000361088 2.03752e-05)
(-0.00625156 -0.000366261 2.33039e-05)
(-0.00626057 -0.000368677 2.5174e-05)
(-0.00625841 -0.000368463 2.51093e-05)
(-0.00624776 -0.00036623 2.19733e-05)
(-0.00623314 -0.000363073 1.43733e-05)
(-0.00619412 -0.000357233 4.77955e-06)
(-0.00716979 -0.000573159 1.23378e-06)
(-0.00722385 -0.000585185 3.10258e-06)
(-0.00726234 -0.00059788 6.82677e-06)
(-0.00729816 -0.000609278 1.23295e-05)
(-0.00732218 -0.000617025 1.85022e-05)
(-0.00733006 -0.000620345 2.39211e-05)
(-0.00732174 -0.000619305 2.6969e-05)
(-0.00730073 -0.000614714 2.58043e-05)
(-0.00727429 -0.000608275 1.8293e-05)
(-0.00722683 -0.000600092 6.42729e-06)
(-0.0087641 -0.000803105 -4.65387e-06)
(-0.00883976 -0.00082044 -1.02231e-05)
(-0.00889776 -0.000837523 -7.27807e-06)
(-0.00894917 -0.000852212 1.28055e-06)
(-0.00898113 -0.000861804 1.22929e-05)
(-0.00898795 -0.000865417 2.29418e-05)
(-0.00896941 -0.000863081 3.07844e-05)
(-0.0089302 -0.000855504 3.30041e-05)
(-0.00888113 -0.00084455 2.63168e-05)
(-0.0088101 -0.000830587 1.01389e-05)
(-0.0108892 -0.000989728 -1.30906e-05)
(-0.0110079 -0.00101467 -2.8397e-05)
(-0.0111023 -0.00103584 -2.5093e-05)
(-0.0111807 -0.00105279 -1.20023e-05)
(-0.0112259 -0.00106327 5.2939e-06)
(-0.0112319 -0.00106672 2.26741e-05)
(-0.0111987 -0.00106297 3.6946e-05)
(-0.011131 -0.0010523 4.44113e-05)
(-0.0110444 -0.00103622 3.98094e-05)
(-0.0109296 -0.00101321 1.6739e-05)
(-0.00511884 -0.000372689 -3.02254e-06)
(-0.00516179 -0.000383362 -5.54397e-06)
(-0.0051837 -0.000388246 -1.70253e-06)
(-0.00520403 -0.000392572 4.61279e-06)
(-0.00521887 -0.000395272 1.32887e-05)
(-0.00522569 -0.000395933 2.1983e-05)
(-0.00522461 -0.000394539 2.79974e-05)
(-0.00521744 -0.000391584 2.8975e-05)
(-0.00520683 -0.000387915 2.32965e-05)
(-0.00517096 -0.000377645 9.19623e-06)
(-0.00562778 -0.00110995 -4.61674e-06)
(-0.00567164 -0.00113111 -1.09048e-05)
(-0.00569737 -0.00114629 -9.8955e-06)
(-0.00572135 -0.00115952 -1.9155e-06)
(-0.00573816 -0.00116774 1.02912e-05)
(-0.00574468 -0.00116946 2.29179e-05)
(-0.00574089 -0.00116472 3.23941e-05)
(-0.00572911 -0.00115483 3.50862e-05)
(-0.00571332 -0.00114255 2.73348e-05)
(-0.00567475 -0.00112261 1.03345e-05)
(-0.00664795 -0.00189425 -1.20725e-05)
(-0.00670107 -0.00192455 -2.86195e-05)
(-0.00673821 -0.00195328 -2.91661e-05)
(-0.00677179 -0.00197748 -1.64693e-05)
(-0.00679357 -0.00199195 3.62683e-06)
(-0.0067995 -0.00199447 2.51737e-05)
(-0.00678944 -0.00198509 4.26828e-05)
(-0.00676648 -0.00196561 5.05714e-05)
(-0.00673733 -0.00194083 4.23285e-05)
(-0.00668772 -0.00191261 1.66988e-05)
(-0.00825061 -0.00268069 -2.71095e-05)
(-0.00833245 -0.00273416 -6.22392e-05)
(-0.00839476 -0.00278207 -6.28011e-05)
(-0.00844755 -0.0028199 -4.05403e-05)
(-0.00847913 -0.00284109 -6.65225e-06)
(-0.00848447 -0.00284403 2.98043e-05)
(-0.00846343 -0.00282881 6.12778e-05)
(-0.00841998 -0.00279669 7.93139e-05)
(-0.00836417 -0.00275354 7.22907e-05)
(-0.00828498 -0.00270267 3.0181e-05)
(-0.0104879 -0.00335906 -5.50253e-05)
(-0.0106295 -0.00345221 -0.000120193)
(-0.0107397 -0.00352533 -0.000115206)
(-0.010826 -0.00357761 -7.55813e-05)
(-0.0108737 -0.00360473 -2.05076e-05)
(-0.0108786 -0.00360772 3.74882e-05)
(-0.0108408 -0.00358662 9.01161e-05)
(-0.0107634 -0.00354021 0.000126054)
(-0.0106595 -0.00347257 0.000126138)
(-0.0105202 -0.00338074 5.65202e-05)
(-0.00413491 -0.000615822 -1.01111e-05)
(-0.00416706 -0.000634334 -2.18188e-05)
(-0.00418294 -0.000642116 -1.97748e-05)
(-0.00419792 -0.000648475 -1.07429e-05)
(-0.00420889 -0.000652298 4.03681e-06)
(-0.00421341 -0.000652831 2.00793e-05)
(-0.00421155 -0.000650004 3.25661e-05)
(-0.00420479 -0.00064457 3.76901e-05)
(-0.00419548 -0.000637627 3.28674e-05)
(-0.00416654 -0.000618958 1.35899e-05)
(-0.00458216 -0.00184529 -1.36611e-05)
(-0.00461845 -0.00188174 -3.1377e-05)
(-0.00463929 -0.00190642 -3.25119e-05)
(-0.00465842 -0.00192705 -2.04243e-05)
(-0.00467162 -0.0019391 -2.00165e-08)
(-0.00467604 -0.00194052 2.24481e-05)
(-0.00467164 -0.00193119 4.06902e-05)
(-0.00466027 -0.001913 4.90445e-05)
(-0.00464533 -0.00189017 4.19111e-05)
(-0.00461146 -0.00185385 1.71285e-05)
(-0.00551038 -0.00319617 -2.69861e-05)
(-0.00555918 -0.00325079 -6.15122e-05)
(-0.0055936 -0.00330043 -6.38013e-05)
(-0.00562348 -0.00334065 -4.30688e-05)
(-0.00564211 -0.00336317 -9.21039e-06)
(-0.00564626 -0.0033653 2.80655e-05)
(-0.00563572 -0.00334698 6.00161e-05)
(-0.00561299 -0.00331069 7.76858e-05)
(-0.00558351 -0.0032639 7.05418e-05)
(-0.00553625 -0.00321053 2.99145e-05)
(-0.00705372 -0.00464375 -5.5889e-05)
(-0.00713911 -0.00474887 -0.000123387)
(-0.00720427 -0.0048389 -0.000122448)
(-0.00725625 -0.00490632 -8.31433e-05)
(-0.00728579 -0.00494188 -2.46268e-05)
(-0.00728961 -0.00494444 3.86518e-05)
(-0.00726771 -0.00491434 9.53166e-05)
(-0.00722247 -0.00485233 0.00013216)
(-0.0071619 -0.00476684 0.000129495)
(-0.00707774 -0.00466388 5.75415e-05)
(-0.00941331 -0.00606001 -0.00011543)
(-0.00958709 -0.00626707 -0.000241407)
(-0.0097167 -0.00641748 -0.000221973)
(-0.00981025 -0.00651864 -0.000146197)
(-0.0098589 -0.00656757 -4.73424e-05)
(-0.00986254 -0.00657023 5.56452e-05)
(-0.00982154 -0.00652743 0.000152278)
(-0.00973517 -0.00643254 0.000225777)
(-0.00961154 -0.0062897 0.000243314)
(-0.00943859 -0.00608397 0.000115677)
(-0.00268782 -0.000816771 -1.38782e-05)
(-0.0027042 -0.000841068 -3.1581e-05)
(-0.00271307 -0.000851542 -3.20368e-05)
(-0.00272214 -0.000860066 -2.13219e-05)
(-0.00272881 -0.000864978 -2.18825e-06)
(-0.0027314 -0.000865456 1.93311e-05)
(-0.00272979 -0.000861385 3.66103e-05)
(-0.00272513 -0.00085363 4.45504e-05)
(-0.00271953 -0.000843707 3.92603e-05)
(-0.00270418 -0.000819068 1.6213e-05)
(-0.00300825 -0.00246913 -1.92684e-05)
(-0.00304606 -0.00251625 -4.50639e-05)
(-0.00306015 -0.00255052 -4.92919e-05)
(-0.00307271 -0.00257864 -3.41638e-05)
(-0.00308125 -0.00259448 -7.27654e-06)
(-0.00308383 -0.00259575 2.29255e-05)
(-0.00308027 -0.00258224 4.81735e-05)
(-0.00307204 -0.00255627 6.08507e-05)
(-0.00306096 -0.00252327 5.26231e-05)
(-0.00302353 -0.00247584 2.16986e-05)
(-0.00370343 -0.00436573 -3.90548e-05)
(-0.00375709 -0.00444217 -8.84757e-05)
(-0.00378335 -0.00451494 -9.30797e-05)
(-0.00380484 -0.00457192 -6.4896e-05)
(-0.00381785 -0.0046027 -1.90846e-05)
(-0.00382029 -0.0046046 3.15952e-05)
(-0.00381198 -0.00457774 7.59522e-05)
(-0.00379455 -0.00452445 0.000102403)
(-0.00377104 -0.00445431 9.51156e-05)
(-0.00371745 -0.00437886 4.12233e-05)
(-0.00495409 -0.00658493 -8.52172e-05)
(-0.00505136 -0.00675013 -0.000183553)
(-0.00510728 -0.00689207 -0.000179594)
(-0.00514838 -0.00699343 -0.000121945)
(-0.00517064 -0.00704457 -3.99268e-05)
(-0.00517296 -0.007047 4.78979e-05)
(-0.00515525 -0.00700141 0.000128381)
(-0.00511829 -0.00690579 0.000184759)
(-0.0050657 -0.00676962 0.00018716)
(-0.0049684 -0.00660642 8.60978e-05)
(-0.00714395 -0.00914918 -0.000192695)
(-0.00735925 -0.00953231 -0.000385567)
(-0.00748505 -0.00979677 -0.000338284)
(-0.00756616 -0.00996217 -0.000217661)
(-0.0076056 -0.0100373 -7.26784e-05)
(-0.00760793 -0.0100399 7.48311e-05)
(-0.00757324 -0.00997149 0.000217396)
(-0.00749745 -0.00981424 0.000335838)
(-0.00737694 -0.00956157 0.000383962)
(-0.00716163 -0.00918071 0.000192386)
(-0.000954837 -0.000931683 -1.32627e-05)
(-0.000957235 -0.000940498 -3.21121e-05)
(-0.00095967 -0.000951257 -3.7098e-05)
(-0.000962709 -0.000960804 -2.62966e-05)
(-0.00096497 -0.000966314 -5.15538e-06)
(-0.000965864 -0.000966738 1.90276e-05)
(-0.000965296 -0.000961957 3.86533e-05)
(-0.000963711 -0.000953066 4.73638e-05)
(-0.000962292 -0.000942625 3.87088e-05)
(-0.000960097 -0.000933498 1.53461e-05)
(-0.00107566 -0.00283767 -1.94675e-05)
(-0.0010964 -0.00287227 -4.7459e-05)
(-0.00110141 -0.00291133 -5.70081e-05)
(-0.00110582 -0.00294387 -4.10435e-05)
(-0.00110886 -0.00296197 -1.08879e-05)
(-0.00110976 -0.00296313 2.34528e-05)
(-0.00110843 -0.00294717 5.22681e-05)
(-0.00110552 -0.00291649 6.65114e-05)
(-0.00110154 -0.00287849 5.4061e-05)
(-0.00108058 -0.00284366 2.17134e-05)
(-0.00134924 -0.00511946 -4.2919e-05)
(-0.00137908 -0.00521259 -9.84454e-05)
(-0.00138918 -0.00530238 -0.000108891)
(-0.00139717 -0.00537068 -7.69653e-05)
(-0.00140199 -0.00540669 -2.43644e-05)
(-0.00140284 -0.00540853 3.39436e-05)
(-0.00139968 -0.00537624 8.54537e-05)
(-0.00139304 -0.00531162 0.000116325)
(-0.00138402 -0.0052249 0.000104087)
(-0.00135396 -0.00513272 4.49106e-05)
(-0.00187412 -0.00805017 -0.000103969)
(-0.00192615 -0.00827974 -0.000218838)
(-0.00194954 -0.0084667 -0.000215733)
(-0.00196584 -0.00859297 -0.000145535)
(-0.00197442 -0.00865459 -4.87741e-05)
(-0.00197527 -0.00865704 5.39521e-05)
(-0.00196826 -0.00860091 0.000149347)
(-0.00195352 -0.00848126 0.000218392)
(-0.00193169 -0.00830127 0.000221071)
(-0.00187934 -0.00807385 0.000104801)
(-0.00289803 -0.0121698 -0.000263758)
(-0.0030129 -0.0127753 -0.000500065)
(-0.00307062 -0.0131533 -0.000423725)
(-0.00310484 -0.0133707 -0.000265277)
(-0.00312073 -0.0134642 -8.85061e-05)
(-0.00312163 -0.0134667 8.772e-05)
(-0.00310738 -0.0133807 0.000261597)
(-0.00307548 -0.0131738 0.000417328)
(-0.00302011 -0.0128135 0.000496039)
(-0.00290521 -0.0122128 0.000263097)
(-0.00507098 -0.0182013 -0.000713345)
(-0.0053803 -0.0198247 -0.00119208)
(-0.005524 -0.0205166 -0.000815304)
(-0.00559517 -0.0208333 -0.000457194)
(-0.00562311 -0.0209442 -0.000144822)
(-0.00562386 -0.0209467 0.000137512)
(-0.00559827 -0.0208414 0.000442802)
(-0.00553126 -0.0205414 0.000789138)
(-0.00539524 -0.0198918 0.00117109)
(-0.00508816 -0.0182843 0.000709101)
(-0.00975274 -0.022631 -0.00199979)
(-0.0106856 -0.0279847 -0.00285749)
(-0.0109818 -0.0285875 -0.00143793)
(-0.0110921 -0.0286364 -0.000690607)
(-0.0111249 -0.0285805 -0.000200852)
(-0.0111257 -0.0285746 0.000189475)
(-0.0110939 -0.0286272 0.000664728)
(-0.0109895 -0.0285782 0.00137037)
(-0.0107186 -0.0281056 0.0027934)
(-0.00979346 -0.0227838 0.0019838)
(-0.0195461 -0.0736325 -0.00584375)
(-0.023578 -0.0876903 -0.00702903)
(-0.0243158 -0.0913631 -0.00147421)
(-0.0244609 -0.092364 -0.00045258)
(-0.0244632 -0.0926208 -8.47466e-05)
(-0.0244606 -0.0926274 9.2407e-05)
(-0.0244576 -0.0923865 0.000440902)
(-0.0243233 -0.0914468 0.00132138)
(-0.0236816 -0.0881182 0.00685143)
(-0.0196828 -0.0742388 0.00580974)
(-0.0345598 0.01029 -0.0158257)
(-0.0278163 -0.0175764 -0.0155681)
(-0.0300215 -0.0110057 -0.0050083)
(-0.0308455 -0.00698596 -0.00159705)
(-0.031079 -0.00567158 -0.000370457)
(-0.0310823 -0.00564345 0.0003413)
(-0.030864 -0.00685933 0.00151926)
(-0.0300747 -0.010736 0.00465799)
(-0.0278066 -0.0177568 0.015114)
(-0.0345529 0.0100488 0.015673)
(0.122395 -0.302011 0.0183176)
(0.137679 -0.430528 0.0218706)
(0.140247 -0.432542 0.00682427)
(0.140862 -0.428687 0.00249456)
(0.141046 -0.427295 0.000627532)
(0.141048 -0.427246 -0.000561777)
(0.14086 -0.428491 -0.00236437)
(0.140275 -0.432284 -0.00631219)
(0.138052 -0.432357 -0.0213176)
(0.123015 -0.305103 -0.0181594)
(-0.0111007 -0.0117729 -0.000460371)
(-0.011661 -0.0126994 -0.00083058)
(-0.0119474 -0.0131742 -0.000614159)
(-0.0121056 -0.0134186 -0.000363028)
(-0.0121727 -0.0135126 -0.000117691)
(-0.0121748 -0.0135153 0.000113755)
(-0.0121137 -0.0134274 0.000354455)
(-0.0119638 -0.0131962 0.000598864)
(-0.0116912 -0.012744 0.000819324)
(-0.0111342 -0.0118259 0.000458728)
(-0.0182447 -0.00875988 -0.00114422)
(-0.0197871 -0.00991423 -0.00180753)
(-0.02037 -0.00998158 -0.001068)
(-0.0206354 -0.00998223 -0.000557286)
(-0.0207298 -0.00996165 -0.000169593)
(-0.0207324 -0.00995983 0.000160208)
(-0.0206431 -0.00997978 0.000537366)
(-0.0203914 -0.00997582 0.00102888)
(-0.019846 -0.00993633 0.00177424)
(-0.0183161 -0.00878418 0.00113593)
(-0.0274098 -0.0280913 -0.00139538)
(-0.0328578 -0.0370752 -0.00198612)
(-0.0337017 -0.0395837 -0.000660004)
(-0.0339299 -0.0405434 -0.000330118)
(-0.0339573 -0.0408199 -9.19895e-05)
(-0.0339541 -0.0408286 9.28375e-05)
(-0.033929 -0.0405781 0.000326265)
(-0.0337111 -0.0396738 0.000621559)
(-0.0329953 -0.037367 0.00194533)
(-0.0275772 -0.0284857 0.00138954)
(-0.080371 0.034995 -0.0117037)
(-0.0907641 0.0423806 -0.0141827)
(-0.0946081 0.0462405 -0.00461725)
(-0.0957568 0.0480325 -0.00176131)
(-0.0960607 0.0486443 -0.000441886)
(-0.0960637 0.0486567 0.000391071)
(-0.0957707 0.0480841 0.00166189)
(-0.0946767 0.0463666 0.00431277)
(-0.0911223 0.0426841 0.0138512)
(-0.0809057 0.0354094 0.0116124)
(0.126256 0.00902237 0.0116679)
(0.160428 -0.0557248 0.0147008)
(0.163737 -0.0543273 0.00469108)
(0.164366 -0.05142 0.00174932)
(0.164537 -0.0503665 0.000444309)
(0.164534 -0.0503439 -0.000389462)
(0.164361 -0.0513504 -0.00164773)
(0.163778 -0.0542974 -0.00437492)
(0.161086 -0.0566752 -0.0143952)
(0.127253 0.00785985 -0.0116006)
(-0.0128398 -0.00705442 -0.000242294)
(-0.0132418 -0.00746694 -0.000463736)
(-0.0135003 -0.00770241 -0.000375803)
(-0.0136656 -0.00783593 -0.000233578)
(-0.0137431 -0.00789226 -7.62717e-05)
(-0.0137465 -0.00789469 7.88478e-05)
(-0.0136773 -0.00784357 0.000233298)
(-0.013521 -0.00771859 0.000371456)
(-0.0132736 -0.00749405 0.000460371)
(-0.012874 -0.00708401 0.000242383)
(-0.0175283 -0.00468541 -0.000514475)
(-0.0185188 -0.00486056 -0.000871834)
(-0.0190284 -0.00477309 -0.000595641)
(-0.0193061 -0.00472365 -0.000337201)
(-0.019421 -0.00470014 -0.000106386)
(-0.0194249 -0.00469975 0.000104573)
(-0.0193188 -0.004723 0.000329367)
(-0.0190559 -0.00477021 0.000579616)
(-0.0185696 -0.00486027 0.000859748)
(-0.0175873 -0.00468507 0.000512343)
(-0.0188312 -0.0119296 -0.000325421)
(-0.0202917 -0.0142642 -0.00049026)
(-0.0206287 -0.0150431 -0.000236304)
(-0.0208086 -0.015396 -0.000159654)
(-0.0208728 -0.0155105 -5.21541e-05)
(-0.0208733 -0.0155169 5.58916e-05)
(-0.020815 -0.0154191 0.000161982)
(-0.0206393 -0.0150935 0.000232001)
(-0.0203379 -0.0143846 0.000483796)
(-0.0188798 -0.0120835 0.00032402)
(-0.0386052 0.0152623 -0.00321126)
(-0.0465565 0.0198236 -0.00425684)
(-0.0493467 0.0216493 -0.0017718)
(-0.0504836 0.0224655 -0.00080406)
(-0.0508345 0.02276 -0.000225373)
(-0.0508428 0.0227671 0.000194328)
(-0.0505162 0.0224933 0.000752347)
(-0.049435 0.0217174 0.00165476)
(-0.0468263 0.0199953 0.00414058)
(-0.0389611 0.0154706 0.00317897)
(0.10772 0.0166966 0.00431927)
(0.133737 0.0138298 0.00530576)
(0.136789 0.0159528 0.00197017)
(0.137653 0.0168919 0.000771316)
(0.137913 0.01724 0.000204326)
(0.137916 0.0172396 -0.000169762)
(0.137667 0.0168891 -0.000715909)
(0.136861 0.0159217 -0.00184361)
(0.134242 0.013774 -0.00519576)
(0.108546 0.0166394 -0.00430169)
(-0.0133204 -0.00366875 -0.000107296)
(-0.0135868 -0.00383144 -0.000216665)
(-0.0137786 -0.00393201 -0.00018888)
(-0.0139156 -0.00399347 -0.000120146)
(-0.0139856 -0.00402178 -3.68001e-05)
(-0.0139902 -0.00402419 4.79696e-05)
(-0.0139301 -0.00400095 0.000128964)
(-0.0138023 -0.00394526 0.000193948)
(-0.0136195 -0.00385072 0.000219492)
(-0.0133554 -0.00368884 0.000108777)
(-0.0164857 -0.00255636 -0.000206067)
(-0.0170078 -0.0025887 -0.000369658)
(-0.0173315 -0.00253904 -0.000278634)
(-0.017535 -0.00251146 -0.000165787)
(-0.0176298 -0.00250017 -5.13336e-05)
(-0.0176343 -0.0025011 5.84106e-05)
(-0.0175492 -0.00251396 0.000169425)
(-0.0173583 -0.00254233 0.00027758)
(-0.0170478 -0.00259316 0.000368333)
(-0.0165297 -0.00256153 0.000206731)
(-0.0171343 -0.00499474 -0.00010772)
(-0.0175069 -0.00586111 -0.000175951)
(-0.017624 -0.00616774 -0.000111417)
(-0.0177188 -0.00630441 -8.1351e-05)
(-0.0177664 -0.00635051 -2.64869e-05)
(-0.0177681 -0.00635506 3.42334e-05)
(-0.0177261 -0.00631933 8.78277e-05)
(-0.0176347 -0.00619744 0.000114624)
(-0.0175257 -0.00591962 0.000176457)
(-0.017154 -0.00506917 0.000107844)
(-0.0240091 0.0052586 -0.00111531)
(-0.024698 0.00663425 -0.0015443)
(-0.0256072 0.0072795 -0.000715604)
(-0.0261055 0.00759024 -0.000343276)
(-0.0262905 0.00770996 -0.000100376)
(-0.0262976 0.00771336 8.82097e-05)
(-0.0261314 0.00760277 0.000322089)
(-0.0256611 0.00730873 0.000671329)
(-0.0247967 0.00669468 0.00149905)
(-0.0241288 0.00532778 0.0011005)
(0.0944145 0.00613558 0.00131737)
(0.115107 0.00481897 0.00168438)
(0.117125 0.00552174 0.000729594)
(0.11765 0.00583747 0.000298907)
(0.117817 0.00596003 8.32909e-05)
(0.117819 0.00595791 -6.06425e-05)
(0.117662 0.0058318 -0.000268872)
(0.117184 0.00550381 -0.000682059)
(0.115488 0.00479151 -0.00164888)
(0.0950815 0.00610875 -0.00131326)
(-0.0134069 -0.00106265 -2.59234e-05)
(-0.0136055 -0.00109944 -5.27979e-05)
(-0.0137582 -0.0011231 -4.5675e-05)
(-0.0138751 -0.00114014 -2.62581e-05)
(-0.013938 -0.00114976 -1.65918e-06)
(-0.0139436 -0.00115257 2.32787e-05)
(-0.013892 -0.00114839 4.53059e-05)
(-0.0137857 -0.00113637 5.99582e-05)
(-0.0136413 -0.00111697 6.14445e-05)
(-0.0134459 -0.00108114 2.90852e-05)
(-0.0159202 -0.000793715 -4.65102e-05)
(-0.0162577 -0.000786944 -8.47153e-05)
(-0.0164889 -0.000764486 -6.61861e-05)
(-0.0166471 -0.000755526 -3.88016e-05)
(-0.0167255 -0.000754022 -7.17554e-06)
(-0.0167304 -0.000756389 2.40778e-05)
(-0.0166621 -0.000761904 5.32759e-05)
(-0.016515 -0.000774485 7.61751e-05)
(-0.0162941 -0.000799409 9.05136e-05)
(-0.0159593 -0.00080781 4.89816e-05)
(-0.0168927 -0.00148252 -1.18085e-05)
(-0.0170988 -0.00167881 -1.80554e-05)
(-0.0172039 -0.00175806 -1.42743e-05)
(-0.0172896 -0.00180482 -1.58164e-05)
(-0.0173356 -0.00182564 -2.53021e-06)
(-0.0173382 -0.00182938 1.54077e-05)
(-0.0172977 -0.00181601 2.72326e-05)
(-0.0172169 -0.00177788 2.24499e-05)
(-0.0171186 -0.00170722 2.22562e-05)
(-0.0169132 -0.00151878 1.2918e-05)
(-0.0192776 0.000932261 -0.00025105)
(-0.0188192 0.00121037 -0.000357256)
(-0.0193429 0.00134606 -0.000189397)
(-0.0196414 0.00140808 -0.00010467)
(-0.0197573 0.00143081 -3.12418e-05)
(-0.0197633 0.0014316 3.32943e-05)
(-0.0196616 0.00141137 0.000103184)
(-0.0193818 0.00135402 0.000182308)
(-0.0188735 0.00122534 0.000346824)
(-0.0193404 0.00094956 0.000245582)
(0.0899602 0.000819677 0.00024422)
(0.108745 0.000320377 0.000306302)
(0.110278 0.000426988 0.000123475)
(0.110649 0.000458835 4.0724e-05)
(0.110774 0.000470406 1.29548e-05)
(0.110775 0.000468879 3.27749e-06)
(0.110657 0.000453329 -2.36054e-05)
(0.110324 0.000414202 -0.000106022)
(0.109067 0.000300841 -0.000295113)
(0.090557 0.000795825 -0.000241871)
(-0.0134193 0.00136086 3.99878e-05)
(-0.0136158 0.00141815 8.48394e-05)
(-0.0137669 0.00145419 8.13703e-05)
(-0.0138826 0.00147245 5.98184e-05)
(-0.0139448 0.00147732 3.17583e-05)
(-0.013951 0.00147377 2.01029e-06)
(-0.0139009 0.00146195 -2.91157e-05)
(-0.013797 0.00143842 -5.71013e-05)
(-0.0136548 0.00139879 -6.96944e-05)
(-0.0134619 0.00133928 -3.44764e-05)
(-0.0160591 0.000984883 7.41836e-05)
(-0.0164236 0.00103108 0.000139772)
(-0.0166633 0.00103923 0.000112016)
(-0.016823 0.00103612 7.11565e-05)
(-0.0169013 0.00103054 3.20543e-05)
(-0.0169065 0.0010266 -5.03708e-06)
(-0.0168387 0.00102486 -4.61157e-05)
(-0.0166902 0.00102163 -9.14268e-05)
(-0.0164656 0.00101153 -0.00012755)
(-0.0161027 0.00096166 -7.02905e-05)
(-0.0171051 0.00125426 7.90082e-05)
(-0.0173384 0.00159415 0.000133351)
(-0.0174467 0.00170313 8.65017e-05)
(-0.0175323 0.00171934 5.11392e-05)
(-0.0175761 0.00171387 2.22479e-05)
(-0.0175784 0.0017105 -3.66017e-06)
(-0.0175384 0.00171002 -3.4091e-05)
(-0.0174591 0.00168988 -7.06328e-05)
(-0.0173563 0.00158673 -0.000124229)
(-0.0171235 0.00124364 -7.77737e-05)
(-0.0201763 -0.00209515 0.0004079)
(-0.0201552 -0.00242479 0.000567419)
(-0.0207767 -0.00262281 0.000229439)
(-0.0210789 -0.0027487 7.82133e-05)
(-0.0211948 -0.0028044 2.21819e-05)
(-0.0212014 -0.00280557 -7.95274e-06)