/*--------------------------------*- C++ -*----------------------------------*\
| =========                 |                                                 |
| \\      /  F ield         | OpenFOAM: The Open Source CFD Toolbox           |
|  \\    /   O peration     | Version:  2.3.1                                 |
|   \\  /    A nd           | Web:      www.OpenFOAM.org                      |
|    \\/     M anipulation  |                                                 |
\*---------------------------------------------------------------------------*/
FoamFile
{
    version     2.0;
    format      ascii;
    class       volScalarField;
    location    "0.72";
    object      k;
}
// * * * * * * * * * * * * * * * * * * * * * * * * * * * * * * * * * * * * * //

dimensions      [0 2 -2 0 0 0 0];

internalField   nonuniform List<scalar> 
15166
(
1.07911
1.32442
1.70734
2.10975
2.42103
2.73159
2.9535
3.08642
3.13275
3.11034
3.02677
2.91527
1.07949
1.29579
1.7112
2.10197
2.41265
2.70204
2.90346
3.0196
3.0555
3.02818
2.94586
2.82555
1.08756
1.2642
1.69582
2.07992
2.38991
2.66267
2.84849
2.95201
2.98071
2.95
2.86779
2.74423
1.0981
1.23886
1.67421
2.05149
2.35864
2.61728
2.79074
2.88471
2.90831
2.87521
2.79227
2.66386
1.1095
1.21978
1.6511
2.02086
2.32313
2.56915
2.73219
2.81866
2.83848
2.80372
2.72029
2.59118
1.12182
1.20528
1.6276
1.98939
2.28546
2.51998
2.67402
2.75438
2.7713
2.73533
2.65144
2.5211
1.13508
1.19425
1.60436
1.9577
2.24664
2.47068
2.61681
2.69213
2.70672
2.66981
2.58519
2.45186
1.14909
1.18605
1.58188
1.92624
2.20746
2.42186
2.56096
2.63199
2.6447
2.6071
2.5222
2.38956
1.16362
1.18019
1.56053
1.89546
2.16851
2.37396
2.5067
2.57402
2.58518
2.54711
2.46226
2.33041
1.17849
1.1762
1.54041
1.86553
2.13019
2.32726
2.4542
2.51824
2.52807
2.48975
2.40546
2.2762
1.19358
1.17377
1.52157
1.83657
2.09271
2.28192
2.4035
2.4646
2.4733
2.43498
2.35175
2.22601
1.20876
1.17255
1.50395
1.80866
2.05624
2.23802
2.35462
2.41304
2.42079
2.38272
2.30134
2.18145
1.22395
1.17232
1.4875
1.78176
2.02085
2.19561
2.30754
2.36349
2.37044
2.33286
2.25377
2.1398
1.23907
1.17292
1.47217
1.75588
1.98659
2.15466
2.26221
2.31587
2.32214
2.28516
2.20786
2.09433
1.25405
1.17412
1.45786
1.73104
1.95348
2.11518
2.21858
2.27011
2.27582
2.23958
2.16445
2.05569
1.26883
1.17582
1.44448
1.70718
1.9215
2.07711
2.1766
2.22613
2.23135
2.19593
2.12306
2.01817
1.28337
1.17787
1.43194
1.68427
1.89065
2.04043
2.13618
2.18383
2.18864
2.15411
2.08344
1.98171
1.29764
1.18021
1.42019
1.6623
1.86092
2.00509
2.09728
2.14315
2.14762
2.114
2.04543
1.94653
1.31158
1.18276
1.40914
1.64119
1.83224
1.97102
2.05981
2.10399
2.10817
2.07549
2.00907
1.91359
1.32518
1.18543
1.39873
1.62092
1.8046
1.93819
2.02372
2.06628
2.07021
2.0385
1.9742
1.88198
1.33841
1.18819
1.3889
1.60145
1.77795
1.90652
1.98892
2.02995
2.03366
2.00289
1.94054
1.85042
1.35127
1.19096
1.37957
1.58275
1.75225
1.87599
1.95537
1.99492
1.99844
1.96858
1.90799
1.81971
1.36372
1.19374
1.37072
1.56475
1.72747
1.84653
1.92301
1.96114
1.96448
1.93548
1.87643
1.78939
1.37575
1.19649
1.36229
1.54744
1.70356
1.8181
1.89178
1.92855
1.9317
1.9035
1.84585
1.76014
1.38736
1.19919
1.35424
1.53079
1.6805
1.79067
1.86164
1.89708
1.90005
1.87259
1.81623
1.73198
1.39852
1.20182
1.34653
1.51475
1.65825
1.76417
1.83252
1.86667
1.86946
1.84269
1.78758
1.70495
1.40926
1.20436
1.33912
1.49928
1.63677
1.73857
1.80438
1.83728
1.83988
1.81375
1.75991
1.67927
1.41956
1.20682
1.33201
1.48436
1.61601
1.71383
1.77718
1.80886
1.81126
1.78576
1.73323
1.65507
1.42939
1.20919
1.32515
1.46997
1.59596
1.68992
1.75087
1.78136
1.78356
1.75866
1.70747
1.63155
1.4388
1.21144
1.31852
1.45606
1.57658
1.66678
1.72541
1.75474
1.75673
1.73243
1.68252
1.60842
1.44774
1.21361
1.31209
1.44261
1.55783
1.6444
1.70076
1.72896
1.73074
1.70701
1.65837
1.58617
1.45623
1.21567
1.30586
1.4296
1.53969
1.62273
1.6769
1.70398
1.70555
1.68237
1.63494
1.56442
1.46427
1.21763
1.2998
1.41701
1.52215
1.60176
1.65378
1.67977
1.68112
1.65847
1.61224
1.54353
1.47189
1.21949
1.29392
1.40482
1.50515
1.58144
1.63138
1.6563
1.65743
1.6353
1.59022
1.52314
1.47902
1.22125
1.28818
1.393
1.48869
1.56175
1.60966
1.63353
1.63444
1.61281
1.56885
1.50348
1.48575
1.22293
1.28261
1.38153
1.47274
1.54267
1.5886
1.61144
1.61213
1.59097
1.54811
1.48429
1.49204
1.2245
1.27716
1.3704
1.45727
1.52416
1.56816
1.58999
1.59045
1.56975
1.52799
1.46603
1.49788
1.22599
1.27185
1.35959
1.44227
1.5062
1.54832
1.56916
1.56939
1.54914
1.50847
1.44843
1.50332
1.22741
1.26666
1.34908
1.42771
1.48878
1.52906
1.54893
1.54894
1.52913
1.48951
1.43099
1.50832
1.22874
1.26159
1.33887
1.41358
1.47186
1.51036
1.52928
1.52906
1.50968
1.47116
1.41464
1.51287
1.23001
1.25663
1.32894
1.39986
1.45544
1.4922
1.51017
1.50972
1.49074
1.45312
1.39693
1.51698
1.23117
1.25177
1.31928
1.38653
1.43949
1.47454
1.4916
1.49091
1.4723
1.43544
1.3796
1.52065
1.23225
1.24702
1.30988
1.37358
1.42399
1.45739
1.47354
1.47261
1.45434
1.41823
1.36366
1.52389
1.23321
1.24237
1.30072
1.36099
1.40892
1.4407
1.45597
1.4548
1.43683
1.40146
1.3479
1.52672
1.23404
1.23782
1.29183
1.34876
1.39427
1.42448
1.43888
1.43745
1.41978
1.38514
1.33293
1.52914
1.23473
1.23338
1.28319
1.33685
1.38002
1.4087
1.42224
1.42056
1.40315
1.3692
1.31785
1.53115
1.23532
1.22904
1.27475
1.32525
1.36617
1.39334
1.40604
1.4041
1.38694
1.35372
1.30388
1.53277
1.23577
1.22479
1.26655
1.31395
1.35269
1.37839
1.39026
1.38805
1.37114
1.33862
1.28985
1.534
1.23611
1.22061
1.25854
1.30297
1.33957
1.36383
1.37488
1.3724
1.35572
1.32391
1.27657
1.53485
1.23635
1.21652
1.25074
1.29227
1.32679
1.34965
1.35989
1.35714
1.34066
1.30952
1.2631
1.53531
1.23651
1.21249
1.24312
1.28187
1.31434
1.33583
1.34527
1.34224
1.32596
1.29549
1.25029
1.53541
1.23659
1.20853
1.23569
1.27173
1.30222
1.32236
1.33102
1.32771
1.31162
1.28181
1.23783
1.53514
1.23659
1.20464
1.22844
1.26185
1.29041
1.30924
1.31713
1.31353
1.29762
1.26841
1.22515
1.53451
1.23653
1.20082
1.22135
1.25223
1.27891
1.29646
1.30358
1.29969
1.28395
1.25536
1.21336
1.53352
1.2364
1.19707
1.21444
1.24285
1.2677
1.28399
1.29036
1.28619
1.27061
1.24265
1.20199
1.53219
1.23618
1.19338
1.20768
1.23371
1.25677
1.27184
1.27747
1.273
1.25758
1.23028
1.191
1.53052
1.23588
1.18975
1.20108
1.22479
1.24612
1.25999
1.2649
1.26014
1.24487
1.21819
1.17993
1.52851
1.23554
1.1862
1.19464
1.21609
1.23574
1.24844
1.25263
1.24759
1.23246
1.20638
1.16917
1.52616
1.23511
1.18271
1.18834
1.20761
1.22561
1.23718
1.24067
1.23534
1.22034
1.19478
1.1579
1.52348
1.23464
1.1793
1.18219
1.19933
1.21574
1.22619
1.22899
1.22337
1.2085
1.18343
1.14742
1.52047
1.23409
1.17595
1.17619
1.19125
1.20611
1.21547
1.21759
1.21169
1.19692
1.17238
1.13756
1.51714
1.2335
1.17266
1.17032
1.18337
1.19672
1.20501
1.20647
1.20028
1.18562
1.16161
1.128
1.51349
1.23284
1.16944
1.16459
1.17568
1.18755
1.19481
1.19562
1.18915
1.17459
1.15109
1.11835
1.50952
1.23214
1.16629
1.159
1.16818
1.17861
1.18486
1.18503
1.17828
1.16381
1.1408
1.10893
1.50524
1.2314
1.16322
1.15355
1.16087
1.1699
1.17516
1.1747
1.16767
1.15328
1.13073
1.09946
1.50064
1.23062
1.16022
1.14823
1.15373
1.1614
1.16569
1.16461
1.15731
1.143
1.12087
1.09034
1.49575
1.22978
1.15728
1.14305
1.14677
1.15311
1.15646
1.15478
1.1472
1.13296
1.11121
1.08121
1.49054
1.22889
1.15443
1.138
1.13999
1.14502
1.14745
1.14518
1.13733
1.12314
1.10177
1.07251
1.48502
1.228
1.15166
1.13309
1.13338
1.13714
1.13866
1.13582
1.1277
1.11355
1.09254
1.06395
1.47922
1.22703
1.14896
1.1283
1.12694
1.12945
1.1301
1.12668
1.11829
1.10418
1.08352
1.0557
1.47311
1.22604
1.14634
1.12365
1.12066
1.12196
1.12174
1.11777
1.10911
1.09503
1.0747
1.0474
1.4667
1.22498
1.14379
1.11914
1.11455
1.11465
1.11359
1.10907
1.10015
1.08608
1.06606
1.03941
1.46001
1.22392
1.14133
1.11475
1.1086
1.10754
1.10565
1.10059
1.0914
1.07735
1.05763
1.03161
1.45301
1.22283
1.13897
1.11051
1.10283
1.10062
1.09792
1.09233
1.08288
1.06883
1.0494
1.02391
1.44572
1.2217
1.13666
1.10639
1.09721
1.09387
1.09038
1.08427
1.07455
1.0605
1.04134
1.01642
1.43817
1.22051
1.13445
1.10242
1.09175
1.08731
1.08303
1.07642
1.06643
1.05238
1.03346
1.00887
1.43032
1.21927
1.13233
1.09857
1.08646
1.08093
1.07588
1.06876
1.05852
1.04444
1.02573
1.00151
1.42217
1.21802
1.13028
1.09487
1.08133
1.07473
1.06893
1.06131
1.05081
1.0367
1.01818
0.994241
1.41375
1.21675
1.12834
1.0913
1.07637
1.06871
1.06216
1.05405
1.04329
1.02915
1.0108
0.987205
1.40504
1.21543
1.12649
1.08788
1.07156
1.06287
1.05558
1.04699
1.03597
1.02179
1.00358
0.980194
1.39605
1.21409
1.12473
1.08461
1.06693
1.0572
1.04919
1.04012
1.02883
1.01459
0.996522
0.973512
1.38679
1.21269
1.12305
1.08147
1.06245
1.05171
1.04298
1.03343
1.02189
1.00757
0.989627
0.967026
1.37724
1.21126
1.12147
1.07848
1.05815
1.0464
1.03696
1.02694
1.01513
1.00075
0.98292
0.960612
1.36742
1.2098
1.11999
1.07564
1.05401
1.04127
1.03112
1.02065
1.00857
0.99411
0.976381
0.954249
1.35731
1.20831
1.11862
1.07295
1.05004
1.03632
1.02547
1.01453
1.00219
0.987642
0.969999
0.948161
1.34694
1.20676
1.11734
1.07042
1.04625
1.03154
1.02
1.0086
0.995991
0.981357
0.963784
0.942076
1.3363
1.20515
1.11614
1.06805
1.04263
1.02695
1.01472
1.00286
0.989978
0.975238
0.957718
0.936335
1.32538
1.20351
1.11506
1.06583
1.03919
1.02255
1.00963
0.997306
0.984151
0.969313
0.95185
0.930624
1.31418
1.20184
1.11408
1.06378
1.03594
1.01833
1.00473
0.991942
0.978511
0.963567
0.946148
0.925112
1.3027
1.20015
1.11321
1.0619
1.03287
1.0143
1.00001
0.986764
0.973055
0.957991
0.940578
0.919435
1.29095
1.19839
1.11243
1.06018
1.02998
1.01046
0.995481
0.98177
0.967779
0.952588
0.935197
0.914561
1.27892
1.1966
1.11176
1.05864
1.0273
1.00682
0.991151
0.976976
0.962708
0.947404
0.930065
0.909684
1.26664
1.19471
1.1112
1.05727
1.0248
1.00338
0.98702
0.972377
0.957823
0.942388
0.925071
0.904922
1.25407
1.19282
1.11074
1.05609
1.02251
1.00015
0.983091
0.967975
0.953131
0.937559
0.920257
0.900208
1.24124
1.19083
1.1104
1.05509
1.02043
0.997122
0.979365
0.963775
0.948633
0.932916
0.915606
0.895632
1.22814
1.18877
1.11015
1.05427
1.01856
0.99431
0.975849
0.959778
0.944337
0.928475
0.911142
0.891124
1.21477
1.18666
1.11004
1.05366
1.01691
0.991718
0.972548
0.95599
0.940238
0.924209
0.906821
0.886856
1.2011
1.18452
1.11002
1.05324
1.01549
0.989356
0.969468
0.952412
0.936345
0.920145
0.902705
0.88271
1.18718
1.18224
1.11013
1.05303
1.0143
0.987225
0.966615
0.949052
0.93266
0.916278
0.89876
0.878766
1.17297
1.17992
1.11034
1.05303
1.01335
0.985341
0.963996
0.945919
0.929193
0.912622
0.895033
0.874951
1.15849
1.17752
1.11067
1.05325
1.01265
0.983702
0.961615
0.943012
0.925936
0.909159
0.891472
0.871456
1.14372
1.17508
1.11112
1.05369
1.01222
0.982326
0.959484
0.94034
0.922906
0.905918
0.888133
0.868137
1.12868
1.17256
1.11168
1.05436
1.01205
0.98122
0.957618
0.937923
0.920124
0.902922
0.88504
0.864951
1.11337
1.16993
1.11236
1.05526
1.01216
0.980397
0.95602
0.935759
0.917583
0.900151
0.882167
0.86206
1.09779
1.16716
1.11316
1.0564
1.01255
0.979868
0.954699
0.933858
0.915287
0.897613
0.879515
0.859476
1.08192
1.16433
1.11407
1.0578
1.01325
0.979643
0.953671
0.932232
0.913253
0.895338
0.877134
0.857016
1.06578
1.16136
1.1151
1.05945
1.01425
0.979733
0.95295
0.930894
0.911484
0.893296
0.874936
0.854825
1.04935
1.15831
1.11625
1.06136
1.01559
0.980164
0.952551
0.929863
0.910007
0.891538
0.873022
0.852804
1.03264
1.15523
1.11751
1.06356
1.01726
0.980949
0.952495
0.929151
0.90883
0.890066
0.871375
0.851036
1.01564
1.15194
1.11892
1.06605
1.0193
0.982105
0.9528
0.928772
0.907963
0.888871
0.86996
0.849445
0.998345
1.14858
1.12045
1.06883
1.02172
0.983659
0.953485
0.928755
0.907434
0.887997
0.868872
0.848192
0.980765
1.14512
1.12209
1.07192
1.02454
0.985624
0.954573
0.929118
0.907262
0.887467
0.868126
0.847355
0.962915
1.14141
1.12386
1.07533
1.02776
0.988036
0.956088
0.929887
0.907479
0.887327
0.867794
0.846809
0.944769
1.13764
1.12576
1.07905
1.03141
0.990901
0.958053
0.931069
0.908073
0.887508
0.867676
0.84615
0.926332
1.13375
1.12775
1.08313
1.03552
0.994253
0.960485
0.932686
0.909058
0.888035
0.867871
0.846
0.907618
1.12963
1.1299
1.08754
1.0401
0.998114
0.96342
0.934777
0.910486
0.888992
0.86852
0.846371
0.888595
1.12544
1.13216
1.09234
1.04519
1.00254
0.966905
0.937386
0.91239
0.890379
0.869519
0.847045
0.869281
1.12096
1.13459
1.09752
1.05082
1.00756
0.970988
0.940561
0.914829
0.892279
0.871057
0.84837
0.849672
1.11633
1.1371
1.10311
1.05703
1.01322
0.975711
0.944342
0.917836
0.894722
0.873131
0.850272
0.829793
1.11162
1.13975
1.10911
1.06384
1.01956
0.981123
0.948786
0.921454
0.897743
0.875764
0.852515
0.809615
1.10664
1.14254
1.11556
1.0713
1.02664
0.987264
0.953919
0.9257
0.901288
0.878741
0.85469
0.789125
1.10143
1.14548
1.12248
1.07944
1.03451
0.994208
0.959806
0.930644
0.905478
0.882356
0.857881
0.76835
1.09595
1.14856
1.1299
1.08833
1.04324
1.00204
0.966549
0.936393
0.910442
0.886789
0.862021
0.747298
1.09044
1.15177
1.13785
1.09803
1.0529
1.01084
0.974218
0.942984
0.916149
0.891785
0.866443
0.725929
1.08454
1.15517
1.14639
1.1086
1.06361
1.0207
0.98291
0.950525
0.922717
0.897606
0.871585
0.704261
1.07837
1.15876
1.15557
1.12015
1.07546
1.03176
0.992743
0.959115
0.930213
0.904204
0.877491
0.682312
1.07217
1.16256
1.16545
1.13279
1.08859
1.04416
1.00388
0.968916
0.938817
0.911852
0.884425
0.660026
1.06554
1.16668
1.17617
1.14666
1.1032
1.05807
1.01648
0.980062
0.948647
0.920586
0.892103
0.637424
1.05875
1.17117
1.18786
1.16196
1.11946
1.0737
1.03072
0.992686
0.959777
0.930491
0.901063
0.614446
1.05171
1.17619
1.20082
1.17896
1.13767
1.09129
1.04678
1.00695
0.97232
0.941575
0.910985
0.591097
1.04468
1.18213
1.21538
1.19808
1.15816
1.11113
1.06494
1.02308
0.986503
0.954183
0.922423
0.567258
1.03781
1.18956
1.23223
1.21983
1.18133
1.13355
1.08545
1.04125
1.00242
0.968222
0.935016
0.542866
1.03237
1.19969
1.25232
1.24484
1.20761
1.15878
1.10845
1.06162
1.02016
0.983718
0.948598
0.517793
1.03186
1.21574
1.27802
1.27442
1.23784
1.18756
1.13471
1.08475
1.04019
1.00096
0.963601
0.488281
1.03317
1.23062
1.30433
1.30263
1.26675
1.21531
1.16113
1.10812
1.06116
1.01909
0.980036
1.0407
0.00468006
0.347416
0.321801
0.320738
0.288909
0.279331
0.646844
0.830959
0.77792
0.567784
0.00777922
0.0326158
3.0186
0.277065
0.00354997
2.83096
0.110618
0.107653
0.00348338
0.140584
0.176121
0.144819
0.0269065
1.05615
0.346504
0.160016
0.37505
0.604652
0.812982
0.538074
1.16682
0.0042006
0.558272
0.0311392
0.165939
0.387304
0.470847
0.39305
0.0081829
0.0704791
0.00337729
0.0716725
0.531587
0.268449
0.173095
0.0608477
0.0248528
0.271387
0.140031
0.164095
0.634587
0.262998
0.00321463
1.98786
0.0044469
0.0106634
0.00337424
0.471545
0.266432
0.155739
1.19157
0.0032091
0.0168824
0.183598
0.00453279
0.88889
0.252363
1.53223
0.689187
1.88399
0.0535751
0.383405
0.729125
0.0273705
0.00323014
0.797581
0.00309478
0.0702096
0.241062
0.103477
0.00310386
0.405746
0.295304
0.0163655
1.11907
0.884536
0.00319468
0.390991
0.237791
0.353799
0.653796
0.00319826
0.00392206
0.456865
0.00326193
0.36249
0.012842
0.00317208
0.899044
1.10872
0.203695
0.00335325
0.0043406
0.00312134
0.514839
0.512244
0.689487
0.533171
0.00886252
0.0944754
0.00312705
0.202571
0.0037268
0.00318215
0.219923
0.0195238
0.219992
1.09332
0.176125
1.0245
0.029342
1.69983
0.199699
0.125667
1.29233
0.00405451
1.96535
0.0323842
0.00320012
0.231678
0.00323636
0.233185
0.00434538
0.162787
0.00514922
0.233314
0.595953
0.208028
0.00585716
0.0170207
0.145384
0.269573
0.0254537
0.174606
1.89731
0.298921
0.0045429
0.983098
0.374165
0.064083
0.214046
0.00309227
0.114721
0.156548
0.00314728
0.248543
0.003202
1.27997
0.00708525
0.0270418
0.00356927
0.128083
0.0132882
0.149778
0.0844449
0.984657
0.291705
0.335189
0.00307307
1.88823
0.758515
1.99264
0.0179156
0.00305944
0.574578
0.00311686
0.305936
0.138026
0.719695
1.00917
0.438047
0.062926
0.371211
0.00339039
0.262746
0.00317802
0.00315336
0.17535
0.00318555
0.487616
0.00310671
0.936802
0.00475749
0.284102
0.296509
0.271769
0.165144
0.00312702
3.17552
1.01995
0.318217
0.413989
0.217261
0.324907
0.105014
0.0915468
0.228931
0.703497
0.216978
0.288264
0.900071
0.500565
0.396576
0.00315442
0.283577
0.012968
0.427436
3.25233
0.21031
0.294668
1.0211
0.338903
0.00315697
0.0031882
1.30872
1.11838
0.00327021
4.20616
0.032407
0.312489
0.121386
0.00311783
0.947474
0.414199
0.253647
0.246315
1.07898
0.656997
0.322201
0.154773
0.161398
1.25517
1.68694
0.375292
0.281826
0.227985
0.00350596
1.39593
0.289876
0.650689
0.72684
0.378956
3.95174
0.236706
0.240415
0.210438
0.310505
0.57806
0.341718
0.216421
0.258169
0.0157557
0.0899664
0.683918
0.261859
0.922059
0.506963
0.361388
1.49128
0.288099
0.0502874
1.63945
0.209099
0.208349
1.69584
0.242287
0.260472
0.301823
0.203603
0.866183
0.238758
0.37266
0.331606
0.614212
0.273144
0.474494
0.207983
1.1208
0.12859
0.201679
1.66872
0.226326
0.224879
0.283014
0.91984
0.119713
0.206076
0.0677731
0.480368
0.183644
0.106139
1.36668
2.05754
0.154298
0.954102
0.323525
0.00318779
0.201465
0.166118
0.211162
0.288922
0.00315766
1.18632
0.320044
0.0673965
0.225816
0.762332
0.00315194
0.63877
0.0388428
0.57957
0.42267
4.92982
0.503348
0.758443
0.539095
0.00313881
0.00316297
0.285049
0.447193
0.00307749
0.517291
0.00311578
0.0031623
0.00322465
0.00311707
0.140397
0.0031637
0.00580782
1.03855
0.5123
0.003229
0.334973
0.00987154
0.19585
0.295647
1.28832
4.14641
0.481122
0.00301096
0.00323876
0.0819576
0.134223
0.20897
0.0030643
0.0988725
0.315842
0.87856
0.377777
0.177648
0.2733
1.02608
4.08655
0.15712
0.325533
0.0036491
0.00318514
0.159084
0.258134
0.116372
0.173463
0.50585
2.744
1.69547
0.143826
0.343372
1.0142
0.00319835
0.419832
0.753641
0.00527047
0.00316292
0.520382
3.82727
0.734979
0.0030802
0.0489271
0.154766
0.0256727
0.00319885
0.833387
0.382686
0.277379
0.282032
0.00374824
3.81429
0.00314286
0.235826
0.544821
0.00649067
0.0111335
0.962718
0.00879736
1.40935
0.767076
1.15118
0.653575
0.172244
0.681603
0.00313953
0.00309426
0.00317226
1.03844
0.0754673
1.2625
2.7626
0.164713
0.592064
0.00317912
0.0109259
0.274334
0.00308087
0.00317183
0.703335
0.00306837
0.227929
0.916439
0.371908
0.00302994
0.00749521
0.110588
0.116052
0.237031
0.144971
0.00310504
3.34346
0.836832
0.109495
0.0123934
0.327389
0.199604
0.00711821
0.279665
0.00690461
0.846246
0.0035282
0.250307
0.133134
0.00311625
1.30276
0.238424
0.322182
0.00930161
0.47129
0.144121
0.00516825
0.217478
0.490098
0.352342
1.10892
0.0240646
0.0508996
0.0115463
1.31216
0.676432
0.0630448
0.137581
0.163218
0.334921
0.182164
0.511036
1.1034
0.00304567
2.04944
0.91497
0.22664
0.00309809
0.267647
0.963221
0.0255404
0.436743
0.348871
0.256772
0.126717
0.177137
0.25943
0.00358645
0.0189257
0.875655
0.0391541
0.00438481
0.923019
4.08771
0.0395617
0.19989
0.788978
0.0904685
0.491435
0.259217
0.843746
0.321201
0.290981
0.00323008
0.0851833
0.447599
0.382343
1.3329
0.214167
1.42371
0.937611
3.75205
0.888724
0.310536
0.00316689
1.26405
0.204166
0.801704
0.416479
0.163774
0.0844158
0.426546
0.00321466
0.297439
0.00317781
0.340866
0.421633
0.213241
0.17507
1.27228
0.241275
1.04348
0.64277
1.97775
0.00321794
0.123861
0.933251
2.4493
0.196092
0.717544
0.0036172
0.0282467
0.350277
1.85832
0.592221
0.00310244
0.0582258
0.00312257
0.0586916
0.351313
0.0375846
0.846822
0.142974
0.589653
0.155838
0.125201
1.23016
0.709046
0.00319514
0.00319639
0.257768
1.21776
0.27564
0.598499
0.441258
0.667498
0.266634
0.00302343
0.187562
0.253729
0.00485935
1.04936
0.265187
0.176374
0.274333
0.0127531
0.00302464
0.0237199
0.00313934
0.647193
0.81778
0.709548
0.638182
0.00319306
1.47825
0.0898861
0.742951
0.135472
1.73234
0.00867553
0.154664
0.00307428
0.497145
0.71671
0.315652
0.409604
0.00300691
1.30176
0.805986
0.510931
0.00311652
0.0709167
0.813962
0.617961
0.00610453
2.17326
0.0037391
0.805242
0.614637
0.0036302
0.131743
0.0877316
0.202516
0.00310546
0.00319887
1.15775
0.431725
0.322118
0.526605
0.00488082
0.12805
0.0982811
0.768965
0.208424
0.00395863
0.209066
1.20891
0.00307799
0.00821251
0.28631
0.635132
1.11621
0.0031581
0.729483
0.221375
1.30865
0.0298747
0.151751
0.8165
0.00319986
0.199384
0.137924
0.376255
0.38336
0.726072
0.276566
1.21708
1.17701
0.282366
2.70765
0.00323658
0.00315036
1.4971
0.783646
0.0047588
0.00315674
0.473405
0.00320625
0.823769
0.540441
0.248052
0.00311694
0.808204
0.0530301
0.291411
1.21612
0.235412
0.148534
0.145233
1.34686
0.0031921
0.285558
0.981613
0.234542
0.557306
0.00673603
0.533439
0.263315
2.03174
0.00313014
0.148921
0.683749
0.305788
0.00332103
0.095297
0.342185
0.439234
1.26974
0.0592635
1.87645
0.406351
0.0928385
0.404965
0.00313422
0.00737522
0.363052
0.00306756
0.1753
0.00316529
0.24471
0.0107784
0.839626
0.00321719
0.110644
0.493972
1.61076
0.356925
0.669929
0.163593
2.44856
0.0156032
0.0934932
0.571843
0.00309936
0.00320601
0.380336
0.156045
0.248863
0.390768
0.00328419
0.216263
0.21875
0.20101
0.492359
1.14826
0.200077
0.00319667
1.88295
2.42481
0.506895
0.00323832
0.0108346
2.09389
0.260428
0.00311983
1.29444
0.00310059
0.0804675
2.74574
0.00354816
0.29154
0.00314941
0.0566204
0.75143
0.00324368
0.00401704
0.00318308
0.00379997
0.0216798
3.81122
0.805136
0.0939073
0.242143
0.00316397
0.765554
0.00317339
0.248063
0.23275
0.0247983
0.159762
0.0139107
1.15106
0.00318443
4.32699
0.218274
0.629209
0.351569
0.163028
0.00309676
0.193401
1.09775
0.129336
0.752516
0.886087
1.69379
0.349812
0.0419613
0.62789
0.0840752
0.00406575
0.106699
2.47089
1.14891
0.120012
0.00846501
0.297501
0.0037559
0.443717
0.872043
1.08654
0.842951
0.896331
0.0371999
0.00583189
0.325984
0.224511
0.0483644
0.269497
0.00316116
0.261376
1.96578
0.00330254
1.69702
0.783295
0.114533
0.101938
1.45073
0.0236546
0.101414
0.457682
0.310683
0.29413
0.00322322
0.673988
0.0763056
0.27138
0.383126
0.199044
0.223024
0.00685732
0.68899
0.00317337
0.00316055
0.228472
0.104963
0.160165
1.91868
0.00303327
1.14082
0.0646094
0.0578777
0.00338881
1.7224
0.363859
0.0899656
0.784603
0.0598009
1.16009
0.154624
0.00314252
1.19384
2.08941
0.00546384
0.00876331
0.203566
1.03762
0.0993735
1.32474
0.0352594
0.23351
0.104147
0.156976
0.681
0.203264
0.00318776
1.17582
0.328877
0.015164
0.197112
4.25595
0.276463
0.00317662
0.00307079
0.764149
0.184078
1.01365
0.00306549
0.715149
0.295957
0.408497
0.00376693
0.314003
0.777353
0.00538485
0.258584
0.00321639
1.1234
0.2111
0.345392
0.262363
0.00314612
0.00314548
0.345556
1.4059
0.385965
0.732499
0.003028
0.0454079
0.0032083
0.00626187
1.15985
0.0742162
0.0971193
0.124891
0.325377
0.305709
0.356475
1.21027
0.00317283
0.30434
0.732066
0.245567
0.00319247
0.943171
0.00320555
0.00316624
0.0885905
0.211995
0.0251613
1.36395
0.203237
2.80227
0.00328522
0.00476028
0.039776
0.90327
0.306057
0.962739
0.00316826
0.00314853
0.0062916
0.0083591
1.10577
0.805839
0.640757
0.123541
0.0448943
0.315542
0.164208
0.578071
0.275874
0.87955
0.312612
0.00308098
0.332979
0.00536884
0.194635
0.88908
0.184412
0.231716
0.133298
0.00380966
1.34383
0.516344
0.489077
0.314535
0.00315936
0.588638
0.762552
0.334203
0.00825241
0.913104
0.479542
0.838571
0.328768
0.336684
0.590127
0.120061
0.861578
0.258605
0.0979655
0.236259
0.00317894
1.21452
0.862555
0.00311821
0.684679
0.00477399
0.538051
0.204622
0.237265
0.266693
0.73072
0.953179
0.262308
0.131367
0.174756
0.219548
0.0125463
0.00310407
1.02786
0.0615854
0.938013
0.549806
0.224621
0.834622
0.544981
0.00314509
0.278253
1.53428
1.06108
0.226809
0.239315
0.570704
1.89723
0.190821
0.234673
0.024931
0.0837566
0.546909
1.19625
0.111637
0.842159
0.821305
0.785944
0.23983
0.23132
0.425502
0.692695
0.00319155
1.94168
0.669912
0.205007
0.00319069
0.592502
0.47447
0.294877
0.00317438
0.591408
0.00317258
0.243212
0.0912311
0.00319457
0.823315
0.347653
0.00310567
0.531878
0.373564
0.608887
0.258809
0.519387
0.279645
0.705967
0.169206
0.157382
0.00312932
0.00470825
0.343428
0.173404
0.0243276
0.00322964
0.3549
0.00604325
0.119781
0.118555
0.44574
0.207248
0.0574965
0.0943224
0.54944
1.63706
0.329533
4.1188
0.870176
0.00311845
0.54108
0.589056
1.6775
0.00312663
0.173384
0.00318786
0.00359159
0.277284
0.289789
0.0391305
0.00340826
0.806078
3.72618
0.00739233
0.00317653
0.129319
0.263037
0.0240201
0.0740491
3.85301
0.140584
0.00339061
0.00317761
0.969197
0.262622
0.135715
0.0592913
0.651858
1.13166
0.39204
0.247356
0.679528
0.00317322
0.502302
0.00315978
0.231097
0.274221
5.38262
0.178325
0.0898057
0.00382908
1.18566
0.0031945
0.00313404
0.00585733
0.272527
0.287289
0.977118
0.00314931
0.507696
0.00317251
0.692932
0.977249
0.00320493
0.725391
0.225061
0.00317312
0.00330209
0.0319687
1.10733
0.383679
0.0264348
0.0031745
0.0031327
0.848849
0.685867
0.327466
0.753951
0.117757
0.438707
0.00314897
0.0103097
0.382892
0.810796
0.759505
0.0088759
0.00317631
0.397867
0.00319772
0.203649
0.805843
0.35395
0.0431406
0.20087
0.506428
0.157238
0.00316975
0.513338
1.33286
0.648223
0.00644089
0.0306067
0.690377
3.69255
0.0548475
0.373705
0.00311028
0.00308662
0.00321468
0.0187777
0.401775
1.07555
0.0106793
0.220963
0.63396
1.23462
0.206222
0.0197126
0.00796643
0.00757999
0.158534
0.171373
0.23679
0.00322348
1.34462
0.00314333
0.0136505
0.844372
0.85302
0.0364519
0.372722
0.468139
0.00409995
0.130323
0.255674
0.0031548
0.00378136
1.12396
0.00365648
0.0032248
0.707219
0.235374
2.09315
0.209264
2.41316
0.00356025
0.00311458
3.24579
0.296052
0.225234
0.498428
0.0604023
0.232639
0.196498
1.0213
0.814677
0.588457
0.582171
0.233365
0.111224
0.321595
0.728511
0.0146489
0.351356
0.00392247
0.439656
0.366682
0.107067
0.38433
0.188557
0.413339
0.20794
0.262183
1.11065
0.45968
0.215613
0.31732
0.710833
0.326198
0.00421338
0.00315953
0.110998
2.22845
0.00316167
1.78892
0.00312465
0.00989763
0.340468
0.221509
0.820581
0.68064
0.902949
1.14001
0.522641
0.386286
0.00316723
0.290831
1.05824
0.00323919
1.24783
0.0071426
1.70952
0.940771
1.13402
0.274175
0.206241
0.283962
0.0918494
0.284533
1.2362
0.360738
0.780225
0.169825
0.203107
0.0853778
0.231787
0.954722
0.00955241
0.666486
0.00319427
0.00393388
0.300202
1.5184
0.338434
0.273872
0.164436
0.110682
0.12176
0.00346921
0.341079
0.00346723
0.706369
0.00341834
0.0580685
0.943397
0.171792
0.306298
0.334159
0.318438
0.00623954
0.00321491
0.0992444
0.266846
0.114828
0.517127
0.0424971
0.366002
0.240404
0.374548
0.791934
0.00359434
0.00314781
1.68915
0.226569
0.172014
0.811088
0.688257
0.817702
0.00987905
1.68538
0.3358
0.213181
0.00347802
0.196948
0.403711
0.205465
0.207738
0.266035
0.0032306
0.472956
0.00313414
0.628392
0.010674
0.439935
0.118066
0.409633
0.00324326
6.54567
0.00319251
1.51063
0.0256324
0.00317523
0.0145931
0.274994
0.0031708
0.00318046
0.396911
0.0328098
0.327492
0.0569859
0.00332665
0.218981
0.186482
0.445029
0.00334122
0.224019
0.189936
1.35632
0.707287
0.394666
0.415605
0.215745
0.30664
0.778719
0.832229
0.211253
0.00322413
0.145043
0.362393
0.306286
0.00471778
0.00856095
0.234324
1.57404
0.00318406
0.206294
1.23549
0.00305008
0.849721
0.935891
0.357313
0.594762
0.79696
0.259128
0.130049
2.59087
0.411579
0.88536
0.821864
0.222436
0.107509
0.0031663
0.420481
0.00587448
0.00321786
0.00313426
0.300481
0.00316628
0.00373378
0.537765
4.05839
0.406944
0.212645
0.833907
0.239593
0.00318233
0.165935
1.14395
0.0252622
0.164363
1.01907
0.313007
0.125606
0.0312127
0.00314371
0.00316818
0.0272987
0.0449175
0.30283
0.299997
1.23637
0.267413
0.268778
0.00395548
0.50337
0.213623
0.0032118
0.342804
3.37882
0.00320851
0.362729
1.01679
0.739472
0.656235
0.189874
1.10329
0.00356307
0.210224
0.00331898
0.00633657
0.00320971
0.83522
0.568562
0.074137
0.00319328
0.00307303
1.11331
0.386833
0.28922
0.235308
0.354565
0.435312
0.306092
0.349967
0.35004
0.0031772
0.151179
0.123616
0.136322
0.385293
1.05926
0.767813
0.590837
0.363233
1.11614
0.826559
0.963137
0.416029
0.88146
0.0647107
0.825358
0.393181
0.0281187
1.01267
0.855885
0.447198
0.00311412
0.00320084
0.00361082
0.00444256
0.47224
0.00304521
0.494351
0.165092
0.996386
0.76683
0.00317142
0.474263
0.283352
0.186885
0.276007
0.390346
0.552731
0.00326542
0.00319927
0.00911214
0.100527
0.00313252
0.637536
0.267334
0.253037
0.760423
0.514613
0.441398
0.532107
0.00316787
0.319243
0.669127
0.00381456
0.0789432
0.409229
0.315015
0.537616
0.193284
0.00325607
0.37557
0.358451
0.00385279
0.0204917
0.0031579
0.178789
0.00440683
0.143965
1.28756
0.1116
0.0735144
1.00143
1.81235
0.00326947
0.628952
0.00305227
0.224976
0.346937
0.2478
0.484199
0.691016
0.676929
0.80233
1.22353
0.746823
0.00317862
0.00314518
0.0531811
0.101386
0.606595
0.172312
0.00319371
1.58821
0.253977
0.00825328
0.788513
0.0587036
0.00816866
0.0403906
0.997784
0.00646961
0.00319499
0.258382
0.205954
0.640861
0.118252
0.226226
0.202942
0.00321397
0.291333
0.0902764
0.0600323
0.00337582
0.202593
0.534387
0.173662
1.44931
1.33533
0.316587
0.413408
0.00316339
0.359721
0.00319511
2.73029
0.0103363
0.430729
0.0942371
0.840416
0.0163765
0.00933712
0.248376
0.307768
1.30282
0.00356465
0.212141
0.482244
0.609098
0.185544
0.999391
0.120685
0.00343511
0.00320506
0.479163
0.635613
1.06302
0.289453
0.0848835
0.530375
0.328533
0.819076
0.046011
0.00316921
0.00318277
0.122286
0.707431
0.689915
0.993098
0.00353341
0.0109606
0.167982
0.452398
0.268484
0.759179
0.349927
0.879204
0.00319888
0.00320958
1.13664
0.275257
0.885348
2.87797
0.360001
0.0246358
1.41152
0.00318408
1.02331
0.027721
0.0308292
0.00317113
0.0418003
0.0845674
0.837366
0.794279
0.00322673
0.758407
0.00316013
0.601096
1.56607
0.00314505
0.157374
0.00322657
0.259039
0.12754
0.174708
0.00308787
0.262057
0.211773
0.257336
1.02366
0.170225
1.22476
0.217516
0.833554
0.237364
1.11762
0.638019
0.00384251
0.00320865
0.375461
0.195128
0.823717
0.00317726
2.11178
0.00315893
0.00478214
0.0389346
0.00316026
1.14235
0.974591
0.00324379
0.665462
0.256681
0.102526
0.70935
0.00608346
0.0031292
0.42297
0.385979
0.00977416
0.776453
6.66903
1.35831
0.155339
1.19734
0.104346
0.00318524
0.00368815
0.035178
0.137069
0.844317
1.09011
1.31563
0.795693
0.531631
0.509192
0.257832
0.652046
1.94378
0.591109
0.0430501
0.0783224
0.2788
1.50663
0.00338242
0.194292
0.655467
0.33347
0.00317286
0.423952
0.00305912
0.0138652
0.843746
0.0033876
0.298126
1.84991
0.00318984
0.352639
0.00351442
0.337264
0.0141157
0.00406729
0.76709
0.255193
0.915552
0.399756
1.12067
1.64652
0.489665
0.175871
0.752179
0.38851
0.0031157
0.577485