/*--------------------------------*- C++ -*----------------------------------*\
| =========                 |                                                 |
| \\      /  F ield         | OpenFOAM: The Open Source CFD Toolbox           |
|  \\    /   O peration     | Version:  2.3.1                                 |
|   \\  /    A nd           | Web:      www.OpenFOAM.org                      |
|    \\/     M anipulation  |                                                 |
\*---------------------------------------------------------------------------*/
FoamFile
{
    version     2.0;
    format      ascii;
    class       volVectorField;
    location    "0.72";
    object      U;
}
// * * * * * * * * * * * * * * * * * * * * * * * * * * * * * * * * * * * * * //

dimensions      [0 1 -1 0 0 0 0];

internalField   nonuniform List<vector> 
15166
(
(5.97422 0.560547 3.19279e-19)
(7.18721 1.03438 1.59863e-18)
(8.26912 0.902145 -8.93997e-19)
(9.30111 0.95627 8.01734e-19)
(10.0961 1.02017 8.23966e-19)
(10.8727 1.07496 4.34244e-19)
(11.5267 1.1734 -8.59487e-19)
(12.0688 1.23917 8.32971e-19)
(12.4641 1.33352 -4.2253e-19)
(12.7711 1.39301 1.67142e-18)
(12.997 1.44848 -1.22762e-18)
(13.1507 1.50679 1.22173e-18)
(6.66621 1.02656 4.89015e-19)
(7.60242 1.42483 5.2397e-20)
(8.55505 1.20931 2.74456e-20)
(9.47678 1.22943 4.56084e-19)
(10.2373 1.24936 -3.96003e-19)
(10.965 1.27587 0)
(11.5823 1.3375 4.25013e-19)
(12.0879 1.38344 1.45291e-21)
(12.4665 1.44388 4.18295e-19)
(12.7601 1.4857 -8.43343e-19)
(12.9764 1.52576 1.65661e-18)
(13.1344 1.5647 -1.23422e-18)
(7.2087 1.25751 -4.63375e-19)
(8.03764 1.56812 -2.478e-18)
(8.8994 1.37637 4.88122e-19)
(9.72194 1.41044 -9.25274e-19)
(10.4313 1.4172 -1.65945e-20)
(11.1023 1.43289 8.83995e-19)
(11.6751 1.4725 -1.26958e-18)
(12.1419 1.50342 -4.35692e-19)
(12.4973 1.54164 8.31601e-19)
(12.7724 1.56904 5.99633e-21)
(12.9766 1.59529 -1.23785e-18)
(13.1301 1.62009 1.62278e-18)
(7.51485 1.37415 0)
(8.3504 1.62652 -1.08481e-18)
(9.18109 1.47813 2.54409e-18)
(9.94674 1.52634 -1.4451e-18)
(10.6198 1.53133 9.25254e-19)
(11.2454 1.54614 1.36577e-18)
(11.7793 1.57484 -4.23935e-19)
(12.2125 1.59689 4.357e-19)
(12.5453 1.62124 -8.51534e-19)
(12.8022 1.63803 8.41222e-19)
(12.9949 1.65298 4.17403e-19)
(13.1437 1.66615 8.27397e-19)
(7.72616 1.44767 -6.25649e-19)
(8.59204 1.66225 -5.80171e-19)
(9.40729 1.55329 -1.57526e-18)
(10.1388 1.60709 1.48599e-18)
(10.7878 1.61243 -4.70708e-19)
(11.3802 1.62865 -4.5602e-19)
(11.8831 1.65151 -4.4478e-19)
(12.2893 1.6682 4.51111e-19)
(12.6024 1.68384 -4.29781e-19)
(12.8434 1.69336 -4.23422e-19)
(13.0254 1.70077 -1.26305e-18)
(13.1673 1.70718 -4.66309e-21)
(7.91384 1.49909 1.23991e-18)
(8.80894 1.68481 1.17543e-18)
(9.60759 1.60957 -1.09926e-18)
(10.3124 1.66473 2.07593e-18)
(10.9415 1.67166 -1.98435e-18)
(11.5069 1.68943 9.50181e-19)
(11.9844 1.70866 0)
(12.3682 1.72175 9.0513e-19)
(12.6643 1.73169 -1.76274e-18)
(12.8915 1.73607 8.61709e-19)
(13.0638 1.73806 0)
(13.1986 1.73922 1.2561e-18)
(8.08662 1.53346 -6.74602e-19)
(9.01009 1.69512 6.20894e-19)
(9.7924 1.64852 0)
(10.4749 1.70353 0)
(11.0854 1.71327 5.19063e-19)
(11.6276 1.73265 4.97763e-19)
(12.0831 1.74965 -9.51112e-19)
(12.4478 1.76032 1.38425e-18)
(12.729 1.76637 4.54189e-19)
(12.9442 1.7669 0)
(13.1082 1.76443 4.35628e-19)
(13.2378 1.76132 0)
(8.24119 1.55405 -1.36309e-18)
(9.19336 1.69572 1.25578e-18)
(9.96184 1.67308 5.7479e-19)
(10.6261 1.72704 5.61879e-19)
(11.2201 1.74012 -2.61908e-18)
(11.7421 1.76103 5.0964e-19)
(12.1786 1.77683 0)
(12.5268 1.78599 -4.65756e-19)
(12.7951 1.7895 4.64862e-19)
(13 1.7874 2.75865e-21)
(13.1565 1.78198 -8.70987e-19)
(13.2798 1.77625 8.59072e-19)
(8.37874 1.56381 1.40257e-18)
(9.35924 1.68906 -1.29115e-18)
(10.1164 1.68646 5.90157e-19)
(10.7659 1.73873 -1.69063e-18)
(11.3453 1.75506 2.15637e-18)
(11.85 1.77722 -2.06478e-18)
(12.2701 1.79243 9.94048e-19)
(12.6042 1.80072 0)
(12.8613 1.80265 4.72826e-19)
(13.0573 1.79884 0)
(13.2072 1.79136 9.01322e-19)
(13.3251 1.78318 -4.3703e-19)
(8.50244 1.56507 1.44223e-18)
(9.51038 1.67687 0)
(10.258 1.69106 6.23237e-19)
(10.8952 1.74122 5.8807e-19)
(11.4616 1.76048 5.58644e-19)
(11.9513 1.78352 5.34347e-19)
(12.3573 1.79847 0)
(12.6792 1.80628 0)
(12.9268 1.80724 -1.42734e-18)
(13.1152 1.80233 2.33099e-18)
(13.2592 1.79357 -9.02393e-19)
(13.372 1.78522 -1.33969e-18)
(8.615 1.55963 1.47159e-18)
(9.64931 1.66033 -2.01472e-18)
(10.3888 1.6885 1.89425e-18)
(11.0154 1.73634 -1.77351e-18)
(11.57 1.7581 -5.56666e-19)
(12.0465 1.78169 -5.33028e-19)
(12.4401 1.79654 1.03607e-18)
(12.7515 1.80409 -1.00411e-18)
(12.9908 1.80451 -1.46308e-18)
(13.1726 1.79896 -4.67494e-19)
(13.3117 1.78907 1.85648e-18)
(13.4196 1.77935 -8.93828e-19)
(8.71815 1.54864 -1.50758e-18)
(9.77771 1.64008 -2.05016e-18)
(10.5103 1.67994 -3.18135e-19)
(11.1275 1.72536 1.21229e-18)
(11.6712 1.7492 8.56863e-19)
(12.1361 1.77308 -2.20018e-18)
(12.5188 1.78789 2.11546e-18)
(12.821 1.79533 -3.85526e-21)
(13.053 1.79554 -1.49094e-18)
(13.2291 1.78986 9.65934e-19)
(13.3634 1.77982 -4.66322e-19)
(13.4667 1.76925 9.05388e-19)
(8.813 1.53306 -1.1485e-18)
(9.89673 1.61673 -3.5361e-19)
(10.6236 1.66627 3.22593e-19)
(11.2322 1.70924 0)
(11.766 1.73476 2.89662e-19)
(12.2205 1.7587 -2.82763e-19)
(12.5935 1.77352 0)
(12.8875 1.78091 0)
(13.113 1.78106 2.54174e-19)
(13.2838 1.77546 0)
(13.4131 1.76582 0)
(13.5104 1.75538 -9.15797e-19)
(8.90056 1.51361 -3.8692e-19)
(10.0075 1.59069 3.5196e-19)
(10.7295 1.64823 0)
(11.3304 1.68876 0)
(11.855 1.7156 1.18758e-18)
(12.3001 1.7394 -8.60615e-19)
(12.6644 1.75416 1.0923e-18)
(12.9513 1.76145 -1.0607e-18)
(13.1711 1.76142 7.67881e-19)
(13.3375 1.75535 -5.67773e-21)
(13.4632 1.74487 -1.93844e-18)
(13.5579 1.73722 1.17931e-18)
(8.98156 1.49087 -1.59007e-18)
(10.1108 1.56228 0)
(10.8288 1.6264 1.34313e-18)
(11.4226 1.66455 -1.59644e-18)
(11.9387 1.69236 0)
(12.3753 1.71587 2.91873e-19)
(12.7318 1.73056 1.10938e-18)
(13.0123 1.73782 -2.41968e-18)
(13.2272 1.73791 2.08199e-18)
(13.3897 1.73221 -1.01446e-18)
(13.5123 1.72175 9.81259e-19)
(13.6039 1.70851 -1.19472e-18)
(9.05668 1.46531 3.47834e-21)
(10.2074 1.53177 7.35631e-19)
(10.9221 1.60129 0)
(11.5093 1.6371 3.19717e-19)
(12.0175 1.66561 0)
(12.4463 1.68874 8.79693e-19)
(12.7959 1.70334 -7.81672e-21)
(13.0707 1.71057 -8.23963e-19)
(13.2811 1.71079 0)
(13.44 1.70541 -2.58305e-19)
(13.5592 1.69541 2.5126e-19)
(13.648 1.68081 0)
(9.1265 1.43734 4.02392e-19)
(10.2978 1.49941 -1.1195e-18)
(11.0099 1.57328 1.03885e-18)
(11.591 1.60683 -4.57431e-21)
(12.0919 1.63578 3.09107e-19)
(12.5135 1.65843 -2.97821e-19)
(12.8567 1.67291 0)
(13.1264 1.68009 0)
(13.3329 1.68041 1.0675e-18)
(13.4885 1.67524 -7.85947e-19)
(13.6046 1.66576 -5.05974e-19)
(13.6902 1.65217 -2.4554e-19)
(9.19138 1.40722 4.11455e-19)
(10.3826 1.46531 3.7275e-19)
(11.0927 1.54268 -3.47714e-19)
(11.6681 1.57406 6.59458e-19)
(12.1621 1.60324 -1.57335e-18)
(12.5771 1.62536 3.06283e-19)
(12.9146 1.63967 0)
(13.1796 1.64682 5.58367e-19)
(13.3825 1.64726 -5.45093e-19)
(13.5353 1.64231 -7.90404e-19)
(13.649 1.63325 2.58656e-19)
(13.7322 1.62088 7.4377e-19)
(9.2518 1.37524 0)
(10.4623 1.42966 0)
(11.1709 1.50981 0)
(11.7409 1.53907 3.37061e-19)
(12.2284 1.56831 0)
(12.6374 1.58984 6.08629e-19)
(12.9695 1.60395 -8.8614e-19)
(13.2304 1.61107 0)
(13.43 1.6117 -5.47646e-19)
(13.5803 1.60708 5.32751e-19)
(13.6918 1.59846 0)
(13.7731 1.58636 0)
(9.3081 1.34162 2.12258e-18)
(10.5372 1.39258 -1.53822e-18)
(11.2448 1.47487 7.18583e-19)
(11.8097 1.5021 -1.01052e-18)
(12.2911 1.53123 1.29024e-18)
(12.6944 1.55212 -9.25303e-19)
(13.0217 1.56601 8.92912e-19)
(13.2787 1.57309 2.83129e-19)
(13.4754 1.57393 -1.11309e-18)
(13.6232 1.56971 8.11213e-19)
(13.7325 1.56172 0)
(13.8119 1.54929 0)
(9.36054 1.30654 -1.71733e-18)
(10.6077 1.35417 0)
(11.3146 1.43809 0)
(11.8748 1.46334 -6.81268e-19)
(12.3504 1.49221 6.54596e-19)
(12.7485 1.51242 -9.32875e-19)
(13.0712 1.52605 5.11613e-21)
(13.3247 1.53305 8.72412e-19)
(13.5187 1.53403 5.60486e-19)
(13.6642 1.5301 -5.48964e-19)
(13.7714 1.52261 -2.67086e-19)
(13.8486 1.50988 0)
(9.40928 1.27017 -1.2999e-18)
(10.674 1.31458 1.18165e-18)
(11.3807 1.39964 0)
(11.9364 1.42294 -6.87773e-19)
(12.4066 1.45144 9.9227e-19)
(12.7997 1.47095 0)
(13.1183 1.48426 0)
(13.3685 1.49113 2.9526e-19)
(13.56 1.49215 5.66467e-19)
(13.7036 1.48833 -5.5496e-19)
(13.8092 1.48099 5.37079e-19)
(13.8853 1.47007 0)
(9.4548 1.23255 -4.25463e-21)
(10.7364 1.27373 -1.18797e-18)
(11.4432 1.35963 0)
(11.9946 1.38107 1.04427e-18)
(12.4598 1.40911 -9.98059e-19)
(12.8482 1.42787 3.20478e-19)
(13.163 1.44084 3.08616e-19)
(13.4102 1.44758 -8.85781e-19)
(13.5996 1.44871 5.77483e-19)
(13.7415 1.44517 -2.80485e-19)
(13.8457 1.43824 2.68476e-21)
(13.9207 1.4285 0)
(9.49662 1.19375 -8.7983e-19)
(10.7951 1.23178 8.01677e-19)
(11.5023 1.31825 0)
(12.0497 1.33784 -3.49577e-19)
(12.5101 1.36534 0)
(12.8942 1.38335 -3.20084e-19)
(13.2054 1.39598 3.08966e-21)
(13.45 1.40257 3.00983e-19)
(13.6372 1.40382 -2.91643e-19)
(13.7776 1.4005 -2.69182e-21)
(13.8806 1.39376 -2.5335e-21)
(13.9547 1.38524 -1.07125e-18)
(9.53539 1.15424 -4.48031e-19)
(10.8502 1.18912 -8.02056e-19)
(11.5582 1.27568 7.51768e-19)
(12.1019 1.29342 3.55947e-19)
(12.5577 1.3203 0)
(12.9378 1.33755 3.26043e-19)
(13.2456 1.34981 -6.25385e-19)
(13.4877 1.35625 -5.99005e-19)
(13.6731 1.35758 8.80372e-19)
(13.8121 1.35452 -2.58007e-21)
(13.914 1.34801 -2.47286e-21)
(13.9872 1.33993 2.68965e-19)
(9.57164 1.11383 4.42966e-19)
(10.9021 1.14546 -8.14536e-19)
(11.6111 1.23194 -3.79427e-19)
(12.1513 1.2479 -3.55306e-19)
(12.6027 1.27411 -3.42388e-19)
(12.979 1.29057 3.2577e-19)
(13.2837 1.30245 -1.26446e-18)
(13.5235 1.30872 2.92172e-21)
(13.7072 1.31012 0)
(13.8449 1.3073 8.5735e-19)
(13.9461 1.30104 -2.83116e-19)
(14.0189 1.29393 -2.71762e-19)
(9.60495 1.07255 -4.54989e-19)
(10.9508 1.1009 0)
(11.661 1.18714 3.14504e-21)
(12.198 1.20134 3.61131e-19)
(12.6453 1.22684 6.86783e-19)
(13.0179 1.24252 3.25395e-19)
(13.3198 1.254 -1.27449e-18)
(13.5574 1.26012 3.12002e-19)
(13.7396 1.26163 8.98372e-19)
(13.8762 1.25914 0)
(13.9765 1.25325 0)
(14.0489 1.24602 0)
(9.63528 1.03042 1.82563e-18)
(10.9965 1.05548 -8.19852e-19)
(11.7082 1.14139 7.71374e-19)
(12.2421 1.15385 -3.60559e-19)
(12.6855 1.17859 6.97419e-19)
(13.0547 1.19349 9.92257e-19)
(13.3539 1.20456 -9.62423e-19)
(13.5894 1.2105 5.93856e-21)
(13.7702 1.21206 1.20433e-18)
(13.9057 1.20982 -8.79749e-19)
(14.0052 1.20443 2.84965e-19)
(14.0768 1.19802 -5.4487e-19)
(9.66298 0.987804 -4.57788e-19)
(11.0391 1.00954 -4.15259e-19)
(11.7526 1.0948 -3.84063e-19)
(12.2837 1.10548 -7.25745e-19)
(12.7234 1.12945 -3.40779e-19)
(13.0893 1.14356 3.36325e-19)
(13.386 1.15419 3.18456e-19)
(13.6197 1.15993 -9.35498e-19)
(13.7992 1.1615 3.06906e-19)
(13.9338 1.1594 5.88303e-19)
(14.0327 1.15419 -2.85075e-19)
(14.1036 1.14936 -2.79691e-19)
(9.68815 0.944612 -9.20664e-19)
(11.079 0.962993 1.66947e-18)
(11.7945 1.04745 0)
(12.3229 1.05634 0)
(12.7591 1.0795 0)
(13.122 1.0928 6.73443e-19)
(13.4162 1.10299 6.4981e-19)
(13.6482 1.10853 -3.13281e-19)
(13.8266 1.11014 3.06036e-19)
(13.9604 1.10827 2.05507e-21)
(14.0588 1.10328 -5.73551e-19)
(14.1293 1.09876 5.60804e-19)
(9.71123 0.901081 9.31175e-19)
(11.1164 0.915913 -2.07201e-19)
(11.8339 0.99928 -1.95766e-19)
(12.3598 1.00644 0)
(12.7926 1.02879 0)
(13.1526 1.04128 -3.37677e-19)
(13.4446 1.05103 3.25018e-19)
(13.6751 1.05637 -6.3614e-19)
(13.8523 1.05801 3.05077e-19)
(13.9855 1.05635 -8.97238e-19)
(14.0834 1.05165 0)
(14.1536 1.04768 -2.81514e-19)
(9.73167 0.857039 -1.86888e-18)
(11.1511 0.868133 6.36717e-19)
(11.8709 0.950301 1.95556e-19)
(12.3945 0.955827 -5.52518e-19)
(12.8242 0.977371 7.12035e-19)
(13.1814 0.989059 0)
(13.4713 0.998367 6.54905e-19)
(13.7003 1.00351 -6.40201e-19)
(13.8765 1.00517 0)
(14.0091 1.00376 0)
(14.1065 0.999419 0)
(14.1763 0.994885 5.60432e-19)
(9.74976 0.813 0)
(11.183 0.820207 0)
(11.9054 0.900739 -3.92728e-19)
(12.427 0.904594 1.69403e-21)
(12.8536 0.925318 0)
(13.2082 0.936215 -6.82275e-19)
(13.4961 0.945079 1.48977e-18)
(13.7238 0.949993 -4.83398e-19)
(13.8992 0.951639 -6.18839e-19)
(14.0312 0.950369 1.57706e-19)
(14.1282 0.946292 6.05068e-21)
(14.1976 0.942049 5.77305e-19)
(9.76579 0.768566 4.71181e-19)
(11.2126 0.771638 -2.1434e-19)
(11.9376 0.850544 1.98749e-19)
(12.4573 0.852823 -1.86246e-19)
(12.8811 0.872703 8.95846e-19)
(13.2332 0.882803 -1.73407e-19)
(13.5193 0.891218 -4.9711e-19)
(13.7457 0.895919 -3.19069e-19)
(13.9204 0.897573 3.14371e-19)
(14.0519 0.896503 -3.04097e-19)
(14.1487 0.892809 1.48348e-19)
(14.2178 0.888591 -1.41534e-19)
(9.77978 0.723721 7.12109e-19)
(11.2397 0.722568 -6.4291e-19)
(11.9676 0.799817 -1.98607e-19)
(12.4856 0.800507 1.88625e-19)
(12.9067 0.81956 -5.37681e-19)
(13.2564 0.828877 5.19837e-19)
(13.5407 0.836848 -3.22585e-21)
(13.766 0.841352 -1.64032e-19)
(13.94 0.84304 -3.12977e-19)
(14.0712 0.842163 4.59953e-19)
(14.1678 0.838807 1.47666e-19)
(14.2369 0.835122 -4.38257e-19)
(9.79123 0.67874 2.39691e-19)
(11.2644 0.673264 0)
(11.9954 0.748656 -2.00513e-19)
(12.5118 0.747719 9.26768e-22)
(12.9304 0.765927 0)
(13.2778 0.774461 1.74357e-19)
(13.5605 0.782001 0)
(13.7847 0.78633 0)
(13.958 0.78809 0)
(14.0889 0.787523 0)
(14.1853 0.784674 -2.97736e-19)
(14.2546 0.780807 5.80752e-19)
(9.80111 0.633557 -4.80339e-19)
(11.2868 0.623658 0)
(12.0211 0.697077 4.01719e-19)
(12.5361 0.694454 -1.89309e-19)
(12.9522 0.711841 -3.61333e-19)
(13.2974 0.719598 1.76736e-19)
(13.5786 0.726695 -3.36016e-19)
(13.8018 0.730815 3.28836e-19)
(13.9745 0.732586 -3.16167e-19)
(14.1049 0.732235 3.16347e-21)
(14.201 0.729998 1.53789e-19)
(14.2701 0.727321 2.91538e-19)
(9.80878 0.587885 0)
(11.307 0.573491 -2.16946e-19)
(12.0446 0.645028 -2.0123e-19)
(12.5583 0.64072 0)
(12.9722 0.657318 -3.62772e-19)
(13.3154 0.664286 7.01595e-19)
(13.595 0.670931 -3.40727e-19)
(13.8173 0.674812 0)
(13.9894 0.676517 0)
(14.1195 0.676165 -1.55532e-19)
(14.2154 0.67396 -1.50783e-19)
(14.2837 0.673968 0)
(9.81435 0.542241 4.81899e-19)
(11.3248 0.523338 -4.21835e-21)
(12.0661 0.592672 -2.93476e-21)
(12.5787 0.586573 -3.37259e-21)
(12.9904 0.602412 -5.50579e-19)
(13.3316 0.60859 0)
(13.6099 0.614765 0)
(13.8313 0.618396 0)
(14.0031 0.620031 0)
(14.1331 0.619646 1.5561e-19)
(14.2294 0.616891 -1.49788e-19)
(14.2987 0.618753 2.94508e-21)
(9.81812 0.496144 -6.05496e-19)
(11.3405 0.472711 6.56001e-19)
(12.0854 0.539933 4.04407e-19)
(12.5971 0.532024 -3.85396e-19)
(13.0069 0.547173 9.1253e-20)
(13.3462 0.552571 0)
(13.6232 0.558311 3.40023e-19)
(13.8439 0.561739 -3.30991e-21)
(14.0153 0.56347 -3.23537e-19)
(14.1452 0.5636 0)
(14.2415 0.561607 -2.28529e-19)
(14.3105 0.55823 0)
(9.81994 0.449946 2.05211e-21)
(11.3541 0.421972 4.39741e-19)
(12.1027 0.486877 1.02049e-19)
(12.6136 0.477147 2.86852e-19)
(13.0216 0.491664 -2.77864e-19)
(13.3592 0.496267 0)
(13.635 0.501561 3.41213e-19)
(13.8549 0.504753 -3.32605e-21)
(14.0259 0.506414 -2.43854e-19)
(14.1557 0.506594 0)
(14.2518 0.504982 1.53046e-19)
(14.3212 0.505117 0)
(9.82044 0.403773 1.21349e-21)
(11.3655 0.370954 3.30418e-19)
(12.118 0.433356 -1.02037e-19)
(12.6283 0.422023 1.92963e-19)
(13.0345 0.435939 0)
(13.3705 0.439702 0)
(13.6451 0.444547 -8.61211e-20)
(13.8644 0.447495 -8.35348e-20)
(14.0352 0.44911 -8.09371e-20)
(14.165 0.449421 -7.89878e-20)
(14.2613 0.448042 -1.5258e-19)
(14.331 0.448531 1.48921e-19)
(9.81905 0.357347 -1.22541e-19)
(11.3747 0.319417 -1.09856e-19)
(12.1314 0.379383 2.04011e-19)
(12.6412 0.366666 -4.83666e-19)
(13.0459 0.379997 1.85916e-19)
(13.3802 0.382903 0)
(13.6538 0.387298 8.61352e-20)
(13.8725 0.390003 8.35579e-20)
(14.0431 0.391594 -1.61807e-19)
(14.1729 0.392026 2.38138e-19)
(14.2694 0.390795 1.53537e-19)
(14.3392 0.391362 -1.51192e-19)
(9.81596 0.311187 0)
(11.3816 0.268021 0)
(12.1427 0.325072 1.02872e-19)
(12.6523 0.31105 0)
(13.0555 0.323914 -9.29018e-20)
(13.3884 0.325889 8.94938e-20)
(13.6609 0.32984 1.72127e-19)
(13.8791 0.332306 -2.52665e-19)
(14.0495 0.333876 0)
(14.1794 0.334492 -7.94822e-20)
(14.276 0.333638 7.66139e-20)
(14.3461 0.333479 -2.25085e-19)
(9.81128 0.264831 6.17456e-20)
(11.3864 0.216235 2.20473e-19)
(12.1518 0.270473 -3.09402e-19)
(12.6617 0.255332 0)
(13.0637 0.267645 4.63487e-20)
(13.395 0.268645 8.88505e-20)
(13.6666 0.272185 -3.46808e-19)
(13.8843 0.274407 4.20553e-19)
(14.0546 0.275929 -1.64418e-19)
(14.1846 0.276626 1.19378e-19)
(14.2814 0.275986 0)
(14.3518 0.275651 7.57734e-20)
(9.8048 0.218588 -6.17658e-20)
(11.3894 0.164387 0)
(12.1589 0.215801 -5.10652e-20)
(12.6694 0.199687 9.78633e-20)
(13.0701 0.211183 1.39312e-19)
(13.4 0.211129 -9.02205e-20)
(13.6707 0.214356 -4.34819e-20)
(13.888 0.216357 4.22e-20)
(14.0582 0.217867 8.15706e-20)
(14.1883 0.218784 -1.20119e-19)
(14.2854 0.218784 -3.89112e-20)
(14.3564 0.217487 -3.75877e-20)
(9.79672 0.172413 -9.22905e-20)
(11.3905 0.112336 1.39276e-19)
(12.1641 0.161144 -7.74913e-20)
(12.6753 0.144054 1.21564e-19)
(13.0747 0.154365 -2.1004e-19)
(13.4035 0.15343 1.79918e-19)
(13.6734 0.156438 -6.57716e-20)
(13.8903 0.158156 4.18634e-20)
(14.0604 0.159596 -1.64352e-19)
(14.1907 0.160519 6.04132e-20)
(14.2881 0.16071 3.89406e-20)
(14.3591 0.159569 3.81131e-20)
(9.78714 0.126575 -9.27759e-20)
(11.3897 0.0600929 2.80821e-20)
(12.1675 0.106473 2.58583e-20)
(12.6795 0.0882664 -2.44052e-20)
(13.0776 0.0972876 -2.31643e-20)
(13.4054 0.0958425 4.5248e-20)
(13.6745 0.0983734 2.17821e-20)
(13.8911 0.0998264 0)
(14.0613 0.101243 0)
(14.1918 0.102318 2.0024e-20)
(14.2895 0.103046 0)
(14.3611 0.102128 0)
(9.77611 0.0808032 -1.55435e-20)
(11.3871 0.00762846 1.38725e-20)
(12.1692 0.0517669 7.13605e-22)
(12.6818 0.0323997 -1.26641e-20)
(13.079 0.0400664 0)
(13.4059 0.0381895 0)
(13.6742 0.0402046 1.15368e-20)
(13.8905 0.0413932 -2.11782e-20)
(14.0607 0.0427691 1.03527e-20)
(14.1915 0.043896 6.2713e-22)
(14.2896 0.0447841 0)
(14.3614 0.0444113 0)
(9.76325 0.0352149 4.67024e-20)
(11.3825 -0.0449224 2.77746e-20)
(12.1691 -0.00308831 -1.38506e-20)
(12.6824 -0.0235079 3.82244e-22)
(13.0789 -0.017175 -1.17062e-20)
(13.4047 -0.0195533 1.12793e-20)
(13.6725 -0.0180579 -1.16023e-20)
(13.8885 -0.0171032 -3.16884e-20)
(14.0587 -0.0157665 -1.00992e-20)
(14.1898 -0.014482 9.51265e-21)
(14.2882 -0.0130938 -9.78215e-21)
(14.3607 -0.0128933 0)
(9.74887 -0.0100946 4.64539e-20)
(11.3761 -0.0972544 -8.37585e-20)
(12.1673 -0.0579113 1.31309e-20)
(12.6813 -0.0794816 -2.42777e-20)
(13.0772 -0.0744341 3.55513e-20)
(13.4021 -0.0773373 3.40614e-20)
(13.6692 -0.0763759 1.09188e-20)
(13.8851 -0.075681 1.06004e-20)
(14.0554 -0.0744482 1.03114e-20)
(14.1867 -0.073217 3.01302e-20)
(14.2854 -0.0718894 -9.79009e-21)
(14.3575 -0.0707969 5.72817e-20)
(9.73309 -0.0553356 -6.17931e-20)
(11.3676 -0.149566 -8.28394e-20)
(12.1636 -0.112719 1.30183e-19)
(12.6785 -0.135496 -2.44986e-20)
(13.074 -0.13169 -1.16694e-19)
(13.398 -0.135145 1.8054e-19)
(13.6646 -0.134704 -4.4121e-20)
(13.8803 -0.134278 0)
(14.0508 -0.133168 4.1274e-20)
(14.1826 -0.13198 -2.00922e-20)
(14.282 -0.130925 1.95767e-20)
(14.3552 -0.128458 -1.91328e-20)
(9.71553 -0.100417 -1.25501e-19)
(11.3575 -0.201751 -5.53091e-22)
(12.1582 -0.167497 0)
(12.6741 -0.191521 -9.76281e-20)
(13.0692 -0.188888 9.41376e-20)
(13.3924 -0.192908 0)
(13.6585 -0.192974 -2.75754e-24)
(13.8741 -0.192774 0)
(14.0449 -0.191686 -4.12763e-20)
(14.1772 -0.190234 0)
(14.2773 -0.188827 0)
(14.3518 -0.186012 -7.50509e-20)
(9.69645 -0.145065 6.24926e-20)
(11.3455 -0.253574 5.52288e-20)
(12.151 -0.222184 -4.15617e-19)
(12.6681 -0.247506 3.923e-19)
(13.0628 -0.246028 -1.88259e-19)
(13.3854 -0.250621 0)
(13.651 -0.251169 -4.37003e-20)
(13.8665 -0.251199 0)
(14.0376 -0.250172 0)
(14.1703 -0.248605 0)
(14.2709 -0.24706 0)
(14.3457 -0.244405 -1.50769e-19)
(9.67603 -0.189464 1.24973e-19)
(11.3318 -0.30525 2.2349e-19)
(12.142 -0.276818 0)
(12.6604 -0.30343 2.93302e-19)
(13.0549 -0.303078 -9.45434e-20)
(13.3769 -0.308268 0)
(13.6421 -0.309299 -8.65293e-20)
(13.8575 -0.309579 8.65021e-20)
(14.0288 -0.308643 1.65891e-19)
(14.1619 -0.306975 2.40266e-19)
(14.2631 -0.305046 -1.57455e-19)
(14.3384 -0.302831 7.54021e-20)
(9.6543 -0.233586 -5.00163e-19)
(11.3161 -0.356709 -1.1179e-19)
(12.1313 -0.331356 1.03934e-19)
(12.651 -0.359272 -8.29927e-23)
(13.0455 -0.360022 -9.36959e-20)
(13.3668 -0.365826 9.0149e-20)
(13.6317 -0.367347 8.64129e-20)
(13.8472 -0.367892 -2.55208e-19)
(14.0188 -0.367081 0)
(14.1524 -0.365446 -2.40174e-19)
(14.2541 -0.36344 3.13078e-19)
(14.3297 -0.361256 -3.06051e-19)
(9.63082 -0.277746 2.50089e-19)
(11.2989 -0.408203 2.22798e-19)
(12.1188 -0.385753 -2.08636e-19)
(12.64 -0.415003 -9.80426e-20)
(13.0345 -0.416846 1.86335e-19)
(13.3553 -0.423265 -9.1882e-20)
(13.6199 -0.425261 -8.81431e-20)
(13.8354 -0.426062 8.4659e-20)
(14.0074 -0.425355 0)
(14.1416 -0.423639 0)
(14.2439 -0.421248 0)
(14.3201 -0.418855 7.76247e-22)
(9.60583 -0.321282 -2.50025e-19)
(11.2796 -0.459131 0)
(12.1045 -0.439964 -1.43218e-22)
(12.6273 -0.470593 0)
(13.0219 -0.473514 9.34553e-20)
(13.3424 -0.48054 -3.58458e-19)
(13.6067 -0.483007 2.63106e-19)
(13.8223 -0.484066 -8.4683e-20)
(13.9947 -0.483475 0)
(14.1296 -0.481847 -3.1914e-19)
(14.2328 -0.479797 3.14246e-19)
(14.3098 -0.477548 -7.67017e-20)
(9.57949 -0.364849 -3.74843e-19)
(11.2586 -0.51006 2.23021e-19)
(12.0884 -0.493969 -3.11376e-19)
(12.613 -0.525996 1.95524e-19)
(13.0078 -0.530001 -2.80171e-19)
(13.3279 -0.537647 0)
(13.5921 -0.540551 0)
(13.8078 -0.54182 3.36408e-19)
(13.9806 -0.541215 -4.94986e-19)
(14.1161 -0.539199 -1.58724e-19)
(14.2203 -0.53623 1.57926e-19)
(14.2997 -0.534599 0)
(9.55136 -0.408013 0)
(11.2358 -0.560595 -1.3048e-21)
(12.0707 -0.547736 -2.08542e-19)
(12.5971 -0.581209 -1.65782e-21)
(12.9922 -0.586279 -1.88091e-19)
(13.312 -0.594543 5.36992e-19)
(13.5759 -0.597899 -3.49394e-19)
(13.7918 -0.599408 1.67278e-19)
(13.965 -0.598894 -1.65777e-19)
(14.101 -0.59687 1.5818e-19)
(14.2057 -0.593639 -1.57382e-19)
(14.2855 -0.590154 2.99417e-19)
(9.52207 -0.450806 7.48449e-19)
(11.2115 -0.610761 2.23013e-19)
(12.0511 -0.601246 0)
(12.5795 -0.636208 3.90498e-19)
(12.975 -0.642364 3.71001e-19)
(13.2946 -0.651263 -1.8295e-19)
(13.5584 -0.65509 -3.48832e-19)
(13.7744 -0.65687 3.66622e-22)
(13.948 -0.656491 0)
(14.0846 -0.654543 0)
(14.19 -0.651234 0)
(14.2699 -0.647019 0)
(9.49146 -0.493372 -7.48277e-19)
(11.1852 -0.660743 -2.22239e-19)
(12.0298 -0.654588 0)
(12.5603 -0.691009 -1.95217e-19)
(12.9562 -0.698246 -1.85818e-19)
(13.2757 -0.707792 -1.77545e-19)
(13.5394 -0.712093 3.39042e-21)
(13.7556 -0.714166 8.41195e-19)
(13.9297 -0.713942 -3.29014e-19)
(14.0671 -0.712081 0)
(14.1733 -0.709059 3.09002e-19)
(14.2538 -0.705063 -3.04355e-19)
(9.45908 -0.535724 -2.4941e-19)
(11.1572 -0.71048 1.30738e-21)
(12.0067 -0.707647 2.08187e-19)
(12.5394 -0.745577 0)
(12.936 -0.75388 1.70579e-21)
(13.2554 -0.764069 3.5857e-19)
(13.5191 -0.768843 -3.44086e-19)
(13.7355 -0.771194 5.05006e-19)
(13.9101 -0.771075 0)
(14.0483 -0.769109 0)
(14.1554 -0.765707 0)
(14.237 -0.761916 4.47319e-19)
(9.42512 -0.577599 -9.94686e-19)
(11.1274 -0.75971 -6.64501e-19)
(11.982 -0.760331 6.20435e-19)
(12.5168 -0.799835 0)
(12.9142 -0.809231 -3.70694e-19)
(13.2336 -0.820069 -1.78543e-19)
(13.4973 -0.825305 0)
(13.714 -0.827939 3.3277e-19)
(13.8893 -0.827973 -3.27568e-19)
(14.0282 -0.826091 0)
(14.1362 -0.822841 0)
(14.2185 -0.818418 -1.50998e-19)
(9.38976 -0.61915 9.90735e-19)
(11.0959 -0.808589 -2.2388e-19)
(11.9553 -0.81268 -2.04399e-19)
(12.4927 -0.85377 1.95998e-19)
(12.8908 -0.864261 1.85242e-19)
(13.2104 -0.875747 -5.31591e-19)
(13.4742 -0.881447 3.45828e-19)
(13.6912 -0.884354 -3.34055e-19)
(13.867 -0.884502 -3.23389e-19)
(14.0068 -0.882523 3.1828e-19)
(14.1158 -0.878985 0)
(14.1995 -0.874471 -1.48597e-19)
(9.35292 -0.660204 4.92422e-19)
(11.0627 -0.856958 -6.65408e-19)
(11.927 -0.864651 -2.05799e-19)
(12.4669 -0.907365 1.15759e-18)
(12.8659 -0.918959 -7.41201e-19)
(13.1856 -0.931094 1.77712e-19)
(13.4496 -0.937255 6.83055e-19)
(13.667 -0.940439 -5.02768e-19)
(13.8434 -0.940709 1.61795e-19)
(13.984 -0.938749 0)
(14.094 -0.935263 0)
(14.1786 -0.930943 1.49795e-19)
(9.31507 -0.700845 -9.22348e-22)
(11.0277 -0.90486 0)
(11.897 -0.916283 6.11618e-19)
(12.4393 -0.960621 -9.69004e-19)
(12.8394 -0.973297 -7.32679e-19)
(13.1594 -0.986103 7.10971e-19)
(13.4235 -0.992709 5.1027e-19)
(13.6413 -0.996142 -8.33544e-19)
(13.8184 -0.99654 -1.6188e-19)
(13.9599 -0.994459 -7.83355e-19)
(14.0708 -0.990484 4.63731e-19)
(14.1569 -0.986743 0)
(9.27516 -0.741386 -2.47247e-19)
(10.9909 -0.952693 0)
(11.8651 -0.967571 1.01902e-18)
(12.4102 -1.01352 -1.54008e-18)
(12.8113 -1.0273 3.70915e-19)
(13.1317 -1.04074 -3.52041e-19)
(13.3961 -1.04781 1.70906e-19)
(13.6143 -1.05152 4.94334e-19)
(13.7921 -1.05208 -6.47528e-19)
(13.9343 -1.05012 1.57179e-19)
(14.0463 -1.04619 4.56273e-19)
(14.133 -1.04326 -5.97607e-19)
(9.23355 -0.781046 4.91144e-19)
(10.9522 -0.999632 4.37766e-19)
(11.8314 -1.0183 8.12033e-19)
(12.3793 -1.06595 -1.53601e-18)
(12.7817 -1.08088 1.10161e-18)
(13.1025 -1.09498 -3.47514e-19)
(13.3672 -1.10252 3.44022e-19)
(13.5858 -1.10651 3.30648e-19)
(13.7643 -1.10717 0)
(13.9076 -1.10516 0)
(14.0206 -1.10065 -3.0099e-19)
(14.1087 -1.09787 6.31106e-21)
(9.19101 -0.820291 -2.26753e-21)
(10.912 -1.04606 -2.00882e-21)
(11.796 -1.06857 0)
(12.3468 -1.11797 -3.80303e-19)
(12.7505 -1.13405 1.09616e-18)
(13.0718 -1.14882 -3.49589e-19)
(13.3368 -1.15682 -6.72555e-19)
(13.5559 -1.16111 3.32822e-19)
(13.7352 -1.16191 3.17218e-19)
(13.8793 -1.16001 -9.3695e-19)
(13.9934 -1.15545 0)
(14.082 -1.15351 -2.95298e-19)
(9.14698 -0.859115 -2.38859e-21)
(10.8699 -1.09203 4.3228e-19)
(11.7589 -1.11844 -4.08692e-19)
(12.3126 -1.16953 -1.14202e-18)
(12.7177 -1.18679 -3.57688e-19)
(13.0396 -1.20226 1.39951e-18)
(13.305 -1.2107 1.64922e-21)
(13.5247 -1.21527 1.59973e-21)
(13.7046 -1.21618 3.1927e-19)
(13.8498 -1.21425 3.11024e-19)
(13.9649 -1.20913 0)
(14.0554 -1.20594 8.74278e-19)
(9.1015 -0.897578 -4.89076e-19)
(10.8263 -1.13759 -4.33354e-19)
(11.7199 -1.16777 -4.04898e-19)
(12.2766 -1.22064 -3.77832e-19)
(12.6833 -1.23908 7.27148e-19)
(13.0059 -1.25526 -1.04073e-18)
(13.2717 -1.26417 3.43458e-19)
(13.492 -1.26904 6.57081e-19)
(13.6727 -1.27013 0)
(13.8187 -1.26838 3.06517e-19)
(13.9349 -1.26353 -1.20381e-18)
(14.0255 -1.26054 5.91443e-19)
(9.05416 -0.935467 4.83461e-19)
(10.7805 -1.18263 -4.35826e-19)
(11.6791 -1.21669 -1.20218e-18)
(12.2391 -1.27129 3.4632e-21)
(12.6474 -1.29089 0)
(12.9707 -1.30776 -3.4535e-19)
(13.237 -1.31717 -3.3372e-19)
(13.4579 -1.32237 3.25542e-19)
(13.6395 -1.32365 0)
(13.7866 -1.322 3.08383e-19)
(13.904 -1.31731 5.9638e-19)
(13.9962 -1.31391 -6.40323e-21)
(9.00508 -0.972548 4.85976e-19)
(10.7331 -1.22673 0)
(11.6364 -1.26484 8.0047e-19)
(12.1997 -1.32131 -3.79602e-19)
(12.6097 -1.34216 -3.58109e-19)
(12.9339 -1.35973 1.03222e-18)
(13.2009 -1.36964 -9.98443e-19)
(13.4225 -1.37515 9.71833e-19)
(13.6049 -1.3766 0)
(13.7531 -1.37491 -3.03828e-19)
(13.8718 -1.36998 8.96997e-19)
(13.9655 -1.36629 2.88685e-19)
(8.95514 -1.00905 -9.65055e-19)
(10.6841 -1.27019 4.28195e-19)
(11.592 -1.31241 -3.56489e-21)
(12.1587 -1.37082 -7.54241e-19)
(12.5706 -1.39291 7.14871e-19)
(12.8957 -1.41119 0)
(13.1633 -1.4216 -3.30466e-19)
(13.3856 -1.42743 -3.22476e-19)
(13.569 -1.42908 0)
(13.7183 -1.42752 3.0043e-19)
(13.8382 -1.42283 -8.94042e-19)
(13.9331 -1.4193 -2.90031e-19)
(8.90394 -1.04516 0)
(10.6332 -1.31322 2.70793e-21)
(11.5459 -1.35951 1.18987e-18)
(12.116 -1.41976 -6.59796e-21)
(12.5298 -1.44312 -1.78008e-18)
(12.8559 -1.46211 1.36591e-18)
(13.1243 -1.47299 -1.31732e-18)
(13.3473 -1.47913 6.42986e-19)
(13.5317 -1.48093 0)
(13.682 -1.47933 0)
(13.8033 -1.47424 -2.93199e-19)
(13.9004 -1.47051 5.72127e-19)
(8.85079 -1.08066 0)
(10.5805 -1.35557 2.84696e-21)
(11.4979 -1.40598 -1.18141e-18)
(12.0715 -1.46811 7.47616e-19)
(12.4874 -1.49271 0)
(12.8146 -1.51246 6.7633e-19)
(13.0838 -1.52383 -3.30166e-19)
(13.3076 -1.53028 0)
(13.4929 -1.53231 -6.15592e-19)
(13.6444 -1.53091 6.05621e-19)
(13.767 -1.5262 -2.94519e-19)
(13.865 -1.52286 0)
(8.79598 -1.11558 9.52991e-19)
(10.5262 -1.39733 4.25174e-19)
(11.448 -1.45172 7.87002e-19)
(12.0252 -1.51581 0)
(12.4433 -1.5417 7.01209e-19)
(12.7717 -1.5622 -3.43176e-19)
(13.0417 -1.57407 -6.55757e-19)
(13.2664 -1.58085 0)
(13.4528 -1.58305 3.06471e-19)
(13.6056 -1.58162 0)
(13.7296 -1.57658 0)
(13.8297 -1.57271 0)
(8.73951 -1.14964 4.71878e-19)
(10.4697 -1.43825 -8.47189e-19)
(11.3962 -1.49678 -3.92933e-19)
(11.9771 -1.56285 0)
(12.3975 -1.59004 6.97488e-19)
(12.7273 -1.61131 -3.38005e-19)
(12.9982 -1.62367 -6.4552e-19)
(13.2238 -1.63078 9.45432e-19)
(13.4112 -1.63318 -9.15083e-19)
(13.5653 -1.63191 8.95033e-19)
(13.6907 -1.62723 -8.66158e-19)
(13.7918 -1.62389 6.33333e-21)
(8.68168 -1.18287 1.88315e-18)
(10.4115 -1.47816 -4.24762e-19)
(11.3426 -1.54105 0)
(11.9273 -1.60915 1.09416e-18)
(12.3501 -1.63772 -6.27061e-21)
(12.6813 -1.65974 -6.71367e-19)
(12.9532 -1.67262 -3.21124e-19)
(13.1798 -1.68006 -2.38965e-21)
(13.3682 -1.68257 6.04476e-19)
(13.5236 -1.68123 -5.96887e-19)
(13.6506 -1.67605 1.14962e-18)
(13.7542 -1.67254 -1.11418e-18)
(8.62258 -1.21556 -9.38479e-19)
(10.3517 -1.51737 -4.18744e-19)
(11.287 -1.58459 -3.85547e-19)
(11.8757 -1.65473 -2.90769e-21)
(12.301 -1.68469 -3.44956e-19)
(12.6337 -1.7075 -6.61006e-19)
(12.9067 -1.72091 6.46297e-19)
(13.1342 -1.72872 -2.47965e-21)
(13.3238 -1.73146 0)
(13.4803 -1.73028 -8.79529e-19)
(13.6085 -1.72506 5.73237e-19)
(13.7129 -1.72082 0)
(8.56189 -1.24756 4.72717e-19)
(10.2899 -1.5559 8.32989e-19)
(11.2297 -1.62737 1.15268e-18)
(11.8222 -1.69957 -1.09079e-18)
(12.2502 -1.73094 -3.39631e-19)
(12.5844 -1.75458 9.91258e-19)
(12.8586 -1.76857 3.19489e-19)
(13.0872 -1.77675 -3.09643e-19)
(13.2779 -1.7798 -1.19271e-18)
(13.4358 -1.77897 1.1729e-18)
(13.5654 -1.77432 -2.8533e-19)
(13.6707 -1.77011 -1.10781e-18)
(8.49948 -1.27882 -9.23908e-19)
(10.2264 -1.59362 1.64961e-18)
(11.1704 -1.66939 -3.86456e-19)
(11.767 -1.74366 3.58013e-19)
(12.1977 -1.77647 3.40396e-19)
(12.5337 -1.80091 -2.84095e-21)
(12.8091 -1.81548 9.43395e-19)
(13.0388 -1.82401 -1.23091e-18)
(13.2308 -1.82732 0)
(13.3902 -1.82662 2.88371e-19)
(13.5217 -1.82223 0)
(13.6293 -1.81835 2.74549e-19)
(8.43538 -1.30922 -1.83652e-18)
(10.1608 -1.63041 1.64514e-18)
(11.1092 -1.71053 -3.81611e-19)