/*--------------------------------*- C++ -*----------------------------------*\
| =========                 |                                                 |
| \\      /  F ield         | OpenFOAM: The Open Source CFD Toolbox           |
|  \\    /   O peration     | Version:  2.3.1                                 |
|   \\  /    A nd           | Web:      www.OpenFOAM.org                      |
|    \\/     M anipulation  |                                                 |
\*---------------------------------------------------------------------------*/
FoamFile
{
    version     2.0;
    format      ascii;
    class       volVectorField;
    location    "2380";
    object      D;
}
// * * * * * * * * * * * * * * * * * * * * * * * * * * * * * * * * * * * * * //

dimensions      [0 1 0 0 0 0 0];

internalField   nonuniform List<vector> 
11800
(
(7.84635e-06 0.000224587 0)
(-9.94116e-06 0.000250147 0)
(5.53503e-06 7.58727e-05 0)
(-6.32667e-06 0.0001031 0)
(-9.08327e-06 0.000249725 0)
(-4.10314e-06 0.000103301 0)
(-1.51597e-06 0.00016871 0)
(-1.44423e-06 0.000130161 0)
(6.62063e-07 2.0079e-05 0)
(1.19797e-06 7.86876e-05 0)
(8.71342e-06 0.000224057 0)
(-7.88758e-06 8.79312e-05 0)
(-7.82735e-09 -6.23213e-09 0)
(4.91865e-06 7.54163e-05 0)
(-5.61279e-06 0.000103533 0)
(5.44691e-06 1.23316e-05 0)
(-8.53741e-07 0.00016822 0)
(-8.27889e-07 0.000129697 0)
(3.71885e-07 2.03009e-05 0)
(7.36522e-07 7.82993e-05 0)
(-4.82682e-06 0.000102922 0)
(-7.22824e-06 8.82792e-05 0)
(-1.20124e-06 4.36733e-06 0)
(-1.28199e-06 4.54758e-06 0)
(4.85698e-06 1.40821e-05 0)
(-1.91918e-06 7.23411e-06 0)
(-7.74641e-06 5.25726e-05 0)
(1.11827e-05 0.000151268 0)
(-6.91006e-06 3.99176e-05 0)
(-5.98973e-06 2.87317e-05 0)
(1.18398e-05 0.000191091 0)
(4.85167e-08 3.40211e-06 0)
(2.49227e-06 9.29472e-06 0)
(-6.04967e-06 0.000256679 0)
(4.88411e-06 0.000255526 0)
(-1.35131e-05 0.000204032 0)
(4.54895e-06 0.000256406 0)
(2.45261e-06 9.55542e-06 0)
(-1.48235e-06 0.000178158 0)
(1.20036e-06 8.63812e-05 0)
(-7.61642e-06 5.31595e-05 0)
(-6.80098e-06 4.04416e-05 0)
(1.09245e-05 0.000150406 0)
(-5.90216e-06 2.91916e-05 0)
(1.15768e-05 0.000190185 0)
(5.19537e-06 1.24297e-05 0)
(1.37727e-06 5.16934e-06 0)
(1.53573e-06 5.08712e-06 0)
(-2.32136e-06 0.00017831 0)
(1.87494e-06 8.65021e-05 0)
(-1.28532e-05 0.000131881 0)
(-1.37207e-05 0.00017044 0)
(-1.27467e-06 0.000222196 0)
(6.85441e-08 3.22888e-06 0)
(-6.68213e-06 1.46804e-05 0)
(9.11606e-07 7.62985e-07 0)
(-1.68618e-05 0.000260189 0)
(-4.26009e-06 7.3056e-05 0)
(4.83768e-06 0.000106334 0)
(-3.09911e-06 7.01945e-05 0)
(1.8179e-06 2.42751e-06 0)
(-2.18392e-06 0.000222362 0)
(-3.70574e-06 7.28918e-05 0)
(4.21689e-06 0.00010653 0)
(4.54935e-06 1.38674e-05 0)
(-1.60978e-05 0.000230101 0)
(-1.33339e-05 0.000131307 0)
(-1.42825e-05 0.000169811 0)
(-1.60162e-05 0.00025977 0)
(-2.01373e-06 7.46841e-06 0)
(-5.39455e-06 0.000257398 0)
(-9.51255e-06 0.000256009 0)
(-9.78868e-06 0.000255102 0)
(-8.63635e-08 9.76553e-08 0)
(1.94128e-06 2.53148e-06 0)
(-1.27295e-05 0.000204601 0)
(5.95536e-06 1.94383e-05 0)
(-1.63587e-05 0.000230958 0)
(-1.30295e-05 0.000232903 0)
(-1.2174e-05 0.000233678 0)
(-6.37026e-06 1.44802e-05 0)
(9.54896e-07 8.96804e-05 0)
(8.94313e-06 0.00025401 0)
(7.98127e-06 0.000254167 0)
(-1.17022e-06 9.21565e-05 0)
(-5.754e-06 3.23416e-05 0)
(1.07024e-05 0.000184181 0)
(-6.56255e-06 4.40293e-05 0)
(-7.30197e-06 5.71611e-05 0)
(1.00718e-05 0.000144718 0)
(-3.05669e-07 0.000217409 0)
(2.64986e-06 8.83669e-06 0)
(-8.09884e-06 0.000234399 0)
(1.67042e-05 0.000262174 0)
(2.64347e-06 0.000113545 0)
(-2.08553e-09 -1.58651e-09 0)
(5.38478e-11 -3.36617e-10 0)
(2.08337e-09 -1.58521e-09 0)
(-1.87691e-07 0.000224918 0)
(-7.48821e-06 8.98665e-05 0)
(1.43755e-05 0.000261239 0)
(8.70867e-06 9.86929e-05 0)
(-3.21754e-06 1.28978e-05 0)
(-7.28673e-07 9.96381e-06 0)
(-4.82002e-07 0.00024861 0)
(8.76839e-07 2.10006e-05 0)
(-1.85061e-06 0.000128266 0)
(-1.92171e-06 0.000166612 0)
(2.81917e-06 4.83142e-06 0)
(6.59999e-06 4.40093e-05 0)
(5.78838e-06 3.23236e-05 0)
(7.34306e-06 5.71384e-05 0)
(-1.08767e-05 0.000184204 0)
(-1.02385e-05 0.000144749 0)
(1.55042e-06 7.70927e-05 0)
(2.23081e-06 4.40673e-06 0)
(1.5932e-05 0.000231039 0)
(-6.53606e-06 0.000237133 0)
(2.27195e-06 4.24631e-06 0)
(-1.10457e-06 7.96616e-05 0)
(-6.65594e-07 1.95509e-05 0)
(1.4457e-06 0.000169945 0)
(1.37305e-06 0.000131268 0)
(-2.0262e-06 0.000163005 0)
(-8.15158e-06 0.000235279 0)
(-7.26453e-07 0.000224218 0)
(-5.24158e-06 0.000248708 0)
(-1.22982e-06 0.000248034 0)
(-1.80951e-05 0.000268779 0)
(-1.87414e-05 0.00026813 0)
(-5.35631e-07 2.42035e-07 0)
(-2.41899e-06 5.70929e-06 0)
(1.09803e-05 0.000178732 0)
(-6.17382e-06 3.53479e-05 0)
(1.02959e-05 0.000139598 0)
(-6.98902e-06 4.74367e-05 0)
(-7.73403e-06 6.09359e-05 0)
(1.01303e-05 0.000178894 0)
(-5.68999e-06 3.5243e-05 0)
(9.49987e-06 0.000139748 0)
(-6.44292e-06 4.73207e-05 0)
(-7.13109e-06 6.08098e-05 0)
(-1.50882e-06 1.81133e-05 0)
(3.54967e-06 0.000173184 0)
(3.31415e-06 0.000134392 0)
(-2.84128e-06 8.22469e-05 0)
(1.37126e-05 9.02359e-05 0)
(-1.36525e-05 8.82779e-05 0)
(8.5659e-06 9.9405e-05 0)
(-1.01948e-06 1.05713e-05 0)
(-9.01326e-06 0.000216411 0)
(-8.93548e-06 0.000217552 0)
(4.37812e-06 0.000253578 0)
(-1.00783e-05 0.000204314 0)
(4.02475e-06 0.000144646 0)
(4.36441e-06 0.000184085 0)
(-1.12289e-05 0.000162303 0)
(-1.0427e-05 0.000124255 0)
(5.32391e-06 2.31352e-05 0)
(-8.39162e-07 0.000218221 0)
(3.06506e-06 4.91687e-06 0)
(-9.21175e-06 0.000204515 0)
(6.23359e-06 1.97182e-05 0)
(-4.14056e-06 5.94828e-05 0)
(-3.73372e-06 4.61143e-05 0)
(-3.28882e-06 3.41686e-05 0)
(5.59951e-06 0.000141402 0)
(5.96481e-06 0.000180664 0)
(-2.7124e-06 3.38097e-06 0)
(-4.89431e-06 2.22601e-05 0)
(1.04516e-05 0.000164092 0)
(9.69792e-06 0.000125935 0)
(2.32258e-06 0.00016643 0)
(-1.53922e-05 0.000203086 0)
(-1.55473e-05 0.000204298 0)
(5.59351e-06 1.41062e-05 0)
(5.60017e-06 1.44936e-05 0)
(6.10828e-06 4.27428e-05 0)
(6.81089e-06 5.57314e-05 0)
(5.34134e-06 3.12077e-05 0)
(-9.62977e-06 0.000146689 0)
(-1.02178e-05 0.000186279 0)
(4.09453e-06 0.000143745 0)
(4.38871e-06 0.000183158 0)
(4.46687e-06 8.79271e-05 0)
(-2.15382e-06 8.20624e-05 0)
(-1.14909e-06 1.82063e-05 0)
(2.68291e-06 0.000172954 0)
(2.50382e-06 0.000134177 0)
(-3.52368e-06 0.000213466 0)
(-1.20586e-06 3.78464e-05 0)
(-1.35803e-06 5.02673e-05 0)
(-1.32487e-05 0.000228339 0)
(-3.72922e-07 8.6816e-06 0)
(-1.2818e-05 0.000108044 0)
(1.10669e-05 7.18077e-05 0)
(1.3082e-07 1.26777e-07 0)
(-7.93645e-06 0.000257087 0)
(1.58208e-05 0.000231965 0)
(-4.67095e-07 2.81337e-07 0)
(1.04155e-05 0.000243079 0)
(1.30151e-05 0.000207882 0)
(1.39601e-05 0.000208052 0)
(-4.25111e-07 0.000249864 0)
(-1.07721e-06 0.000250662 0)
(7.3975e-06 7.00824e-05 0)
(6.53271e-06 7.03908e-05 0)
(-8.74743e-06 0.000109872 0)
(-7.70874e-06 0.000109489 0)
(5.2716e-07 2.38272e-07 0)
(-1.47366e-06 1.26737e-05 0)
(-1.66197e-06 7.0803e-06 0)
(-3.90763e-08 1.47419e-08 0)
(5.04584e-06 8.38249e-06 0)
(-1.21572e-07 3.87197e-08 0)
(6.52403e-07 6.95469e-06 0)
(-8.99961e-06 0.000248555 0)
(-4.40072e-06 3.157e-05 0)
(-5.01624e-06 4.31676e-05 0)
(-5.5898e-06 5.62083e-05 0)
(8.24751e-06 0.00018554 0)
(7.79049e-06 0.00014601 0)
(5.19167e-07 0.000172635 0)
(4.82323e-07 0.000133876 0)
(-2.4034e-07 1.8336e-05 0)
(-4.53563e-07 8.18196e-05 0)
(-1.78445e-07 2.96768e-08 0)
(6.78611e-07 2.29015e-05 0)
(-1.37148e-06 0.000124488 0)
(-4.09857e-06 7.90464e-05 0)
(9.49521e-07 2.25669e-05 0)
(-1.92397e-06 0.000125143 0)
(-6.15645e-06 0.000235247 0)
(7.61856e-06 8.85666e-05 0)
(7.09726e-06 8.78911e-05 0)
(3.88441e-08 1.46593e-08 0)
(1.77887e-07 2.95794e-08 0)
(-1.19215e-05 0.000219024 0)
(-1.14694e-05 0.000219948 0)
(-1.13128e-05 7.50868e-05 0)
(1.26802e-05 0.000104219 0)
(1.01211e-05 0.0001862 0)
(9.53534e-06 0.000146619 0)
(-5.34985e-06 3.12538e-05 0)
(-6.12077e-06 4.27921e-05 0)
(-6.82499e-06 5.57864e-05 0)
(-3.82593e-07 0.000223325 0)
(-4.52404e-06 2.13011e-05 0)
(9.87946e-06 0.000166132 0)
(9.18082e-06 0.000127829 0)
(6.08173e-06 8.94856e-05 0)
(5.10753e-06 0.000210658 0)
(8.03046e-06 0.000262488 0)
(8.35892e-07 6.85426e-06 0)
(-3.01012e-06 7.09102e-05 0)
(-9.91124e-09 2.54413e-06 0)
(1.21036e-07 3.8562e-08 0)
(2.87461e-06 7.47942e-05 0)
(2.47218e-06 7.40187e-05 0)
(-3.13922e-06 0.000104409 0)
(-2.69151e-06 0.000105175 0)
(5.56359e-06 5.61909e-05 0)
(4.99324e-06 4.31519e-05 0)
(4.37086e-06 3.15617e-05 0)
(-7.83944e-06 0.00014601 0)
(-8.32204e-06 0.000185564 0)
(-4.41582e-06 0.000257164 0)
(1.53163e-06 1.87983e-06 0)
(-1.35166e-08 0.000148268 0)
(-2.15664e-08 3.023e-05 0)
(5.83458e-06 0.000248171 0)
(4.77563e-06 8.72951e-05 0)
(-1.85547e-05 0.00024524 0)
(5.4892e-06 9.0127e-05 0)
(2.18905e-07 1.61806e-07 0)
(1.52378e-05 0.000200587 0)
(1.53259e-05 0.000199466 0)
(-9.35486e-06 0.000127991 0)
(-1.00655e-05 0.0001663 0)
(-8.35895e-06 0.00012767 0)
(-8.99623e-06 0.000165958 0)
(4.55106e-06 2.12228e-05 0)
(4.07954e-06 2.13626e-05 0)
(4.53423e-06 0.000117632 0)
(5.39608e-06 0.000117496 0)
(4.91325e-06 0.000155135 0)
(5.84938e-06 0.000154987 0)
(-2.54239e-06 2.66049e-05 0)
(-3.02694e-06 2.66909e-05 0)
(-5.3817e-07 1.20146e-05 0)
(2.69702e-06 7.67832e-06 0)
(2.52498e-06 7.41387e-06 0)
(2.57999e-06 5.61752e-06 0)
(4.36496e-06 0.00021156 0)
(-1.51451e-05 0.000200956 0)
(-1.5226e-05 0.000199791 0)
(5.77498e-06 1.5747e-05 0)
(5.66199e-06 1.53002e-05 0)
(1.20298e-05 9.02557e-05 0)
(1.21913e-05 9.12613e-05 0)
(-1.19708e-05 8.82086e-05 0)
(-1.20346e-05 8.72193e-05 0)
(5.40472e-06 0.000253409 0)
(-1.48636e-05 0.000256703 0)
(-1.42872e-05 0.000216227 0)
(3.41959e-06 3.88294e-06 0)
(-8.73621e-06 0.000253492 0)
(-7.8026e-06 0.000252626 0)
(3.68627e-06 0.000118968 0)
(-2.3074e-06 0.000106987 0)
(2.03397e-06 7.2501e-05 0)
(-1.02671e-05 9.0591e-05 0)
(1.00346e-05 8.77883e-05 0)
(-4.91951e-06 1.54761e-05 0)
(-1.4558e-07 9.2966e-08 0)
(7.77659e-07 3.19811e-06 0)
(9.07781e-07 7.73356e-05 0)
(-8.65325e-06 7.788e-05 0)
(9.27435e-06 0.000100895 0)
(-4.99037e-06 7.09385e-05 0)
(5.89164e-06 0.000108848 0)
(2.96992e-06 0.000189088 0)
(4.10339e-06 0.000188683 0)
(-1.78146e-06 4.09971e-05 0)
(-2.45595e-06 4.12429e-05 0)
(-1.9933e-06 5.37962e-05 0)
(-2.74661e-06 5.40697e-05 0)
(4.68977e-07 2.08576e-05 0)
(-1.01717e-06 0.000128552 0)
(-1.02925e-06 0.000166936 0)
(-1.65828e-06 0.000244057 0)
(2.35929e-06 5.58189e-06 0)
(-4.76339e-07 0.000104257 0)
(-7.0642e-06 0.00025016 0)
(9.82427e-07 7.9137e-07 0)
(6.29375e-06 0.000148974 0)
(-3.45832e-06 2.98993e-05 0)
(-1.06917e-05 0.000105355 0)
(-1.00426e-05 0.000104832 0)
(9.34522e-06 7.4035e-05 0)
(8.80815e-06 7.44823e-05 0)
(-1.05733e-05 0.00026084 0)
(-1.06896e-05 0.000259723 0)
(-1.76972e-06 1.20894e-05 0)
(-2.09779e-06 1.20438e-05 0)
(8.51463e-07 3.35137e-06 0)
(-2.02394e-06 3.47751e-06 0)
(4.85656e-07 0.000109373 0)
(3.08544e-06 2.16079e-05 0)
(2.59341e-06 2.17451e-05 0)
(-6.29256e-06 0.000127115 0)
(-5.278e-06 0.000126816 0)
(-6.77394e-06 0.000165369 0)
(-5.68281e-06 0.000165049 0)
(-1.37096e-05 0.000209282 0)
(-1.26875e-05 0.000209365 0)
(-3.02832e-06 6.35088e-05 0)
(-2.80345e-06 4.97435e-05 0)
(-2.48745e-06 3.7382e-05 0)
(4.31789e-06 0.00019533 0)
(-7.56443e-07 0.000221164 0)
(9.02707e-06 8.77043e-05 0)
(8.54605e-06 8.84626e-05 0)
(3.9835e-06 0.00016907 0)
(3.8124e-06 0.000130508 0)
(-1.82558e-06 1.99255e-05 0)
(1.7053e-06 2.23006e-05 0)
(1.40179e-06 2.27332e-05 0)
(-3.11904e-06 0.000162973 0)
(-3.70823e-06 0.00016381 0)
(-3.43874e-06 0.000125682 0)
(-2.80502e-06 0.000124827 0)
(-3.62518e-06 2.04497e-05 0)
(7.51384e-06 0.000129508 0)
(8.07514e-06 0.000167942 0)
(-9.97335e-08 9.50698e-07 0)
(1.34174e-05 0.000100016 0)
(-1.23664e-05 7.89173e-05 0)
(-5.63534e-08 8.84693e-07 0)
(-4.05367e-06 0.000186162 0)
(-4.75166e-06 0.000187183 0)
(-3.72214e-06 0.000146656 0)
(-4.35647e-06 0.000147623 0)
(2.37652e-06 3.06256e-05 0)
(2.04579e-06 3.11613e-05 0)
(2.80333e-06 4.21423e-05 0)
(2.40437e-06 4.27523e-05 0)
(3.12916e-06 5.50723e-05 0)
(2.68079e-06 5.57525e-05 0)
(1.50886e-05 0.000209685 0)
(1.53699e-05 0.000210748 0)
(-1.4432e-06 7.13807e-06 0)
(5.65809e-06 0.000149713 0)
(-3.0888e-06 2.94881e-05 0)
(5.00694e-06 2.33336e-05 0)
(-9.76169e-06 0.000123845 0)
(-1.05373e-05 0.000161837 0)
(-1.41741e-07 4.31273e-08 0)
(1.94772e-06 0.000218507 0)
(4.94525e-06 2.22642e-05 0)
(-9.89689e-06 0.00012593 0)
(-1.06754e-05 0.000164051 0)
(3.77576e-06 6.52007e-06 0)
(-7.46937e-06 0.000236792 0)
(4.75104e-06 1.77828e-05 0)
(-1.1786e-05 0.00019449 0)
(-2.55234e-06 9.57816e-06 0)
(-2.72256e-06 9.92863e-06 0)
(2.66442e-06 9.82514e-06 0)
(-1.2869e-06 0.000104096 0)
(-9.99683e-09 -7.35729e-09 0)
(-7.93079e-06 0.000259413 0)
(-1.27072e-07 5.0656e-08 0)
(1.41055e-07 4.29301e-08 0)
(-3.72065e-06 2.15696e-05 0)
(8.05928e-06 0.000165491 0)
(7.48551e-06 0.000127229 0)
(6.2026e-06 0.000218851 0)
(-1.78653e-05 0.000234769 0)
(2.28348e-06 9.74589e-05 0)
(-1.48774e-06 9.492e-05 0)
(-4.12809e-07 1.00215e-05 0)
(-1.15691e-06 1.2179e-06 0)
(-7.21633e-09 -6.49846e-09 0)
(-4.47729e-06 7.15985e-05 0)
(5.28072e-06 0.000108089 0)
(3.9351e-07 1.38164e-07 0)
(-6.05441e-07 9.35272e-05 0)
(-5.71824e-07 9.26268e-05 0)
(-2.54112e-08 7.85642e-05 0)
(-1.12259e-07 2.01788e-05 0)
(1.87218e-07 0.000129948 0)
(1.66514e-07 0.000168553 0)
(-3.95879e-07 1.38996e-07 0)
(1.61025e-06 1.08376e-05 0)
(-6.17425e-06 0.00019133 0)
(3.54459e-06 3.97017e-05 0)
(3.9749e-06 5.23442e-05 0)
(4.36494e-06 6.63506e-05 0)
(1.29374e-05 0.000249021 0)
(-4.82278e-06 1.93025e-05 0)
(1.1096e-05 0.000170645 0)
(1.03456e-05 0.000132034 0)
(-7.35479e-06 0.000229741 0)
(1.08744e-06 2.79675e-06 0)
(9.88633e-06 0.000225483 0)
(-2.16107e-06 3.42515e-06 0)
(6.92348e-06 0.000250009 0)
(-5.32407e-06 0.000191351 0)
(3.05062e-06 3.96847e-05 0)
(3.42109e-06 5.23263e-05 0)
(3.75923e-06 6.63274e-05 0)
(9.49835e-07 2.65086e-06 0)
(4.56204e-06 0.000153495 0)
(-2.40265e-06 2.74551e-05 0)
(-8.18869e-07 1.07929e-05 0)
(-1.30072e-05 0.000226283 0)
(-4.86519e-06 5.97023e-05 0)
(-4.38856e-06 4.63139e-05 0)
(-3.86725e-06 3.43464e-05 0)
(6.53775e-06 0.000141171 0)
(6.96502e-06 0.000180417 0)
(1.78356e-05 0.000263893 0)
(1.0378e-05 0.000231644 0)
(1.15075e-05 0.000231247 0)
(1.47937e-07 1.04273e-07 0)
(6.47558e-06 7.11997e-05 0)
(-7.58709e-06 0.000108528 0)
(-3.31085e-06 7.22128e-05 0)
(3.84065e-06 0.000107402 0)
(-1.12082e-06 0.000115657 0)
(-8.53336e-07 0.000187374 0)
(5.30806e-07 5.49306e-05 0)
(4.75659e-07 4.2013e-05 0)
(2.25794e-08 2.96091e-05 0)
(-1.94456e-07 0.000112403 0)
(-9.33627e-08 0.000149439 0)
(8.15663e-06 0.000263537 0)
(4.66361e-07 1.11154e-05 0)
(-2.05635e-07 2.58153e-06 0)
(1.55535e-06 0.000158619 0)
(7.8739e-08 2.66952e-06 0)
(-1.22741e-06 8.31024e-06 0)
(3.04673e-06 2.95371e-05 0)
(-5.7199e-06 0.000149616 0)
(-1.15788e-07 1.28936e-07 0)
(-1.20485e-05 0.000226177 0)
(-1.01851e-06 1.97945e-05 0)
(2.12791e-06 0.000169449 0)
(2.11218e-06 0.00013076 0)
(2.76783e-07 6.64558e-08 0)
(-3.62461e-06 6.62757e-06 0)
(3.95714e-06 5.36356e-05 0)
(3.53665e-06 4.08563e-05 0)
(-6.07217e-06 0.00018936 0)
(1.16724e-06 7.44286e-05 0)
(-8.15538e-06 0.000256081 0)
(-1.39193e-07 1.95221e-08 0)
(-4.73861e-06 1.03531e-05 0)
(3.07197e-06 5.71151e-06 0)
(-3.10385e-06 3.42274e-06 0)
(9.08735e-06 8.93041e-05 0)
(6.90023e-06 0.00010855 0)
(-5.95531e-06 7.11755e-05 0)
(4.23052e-07 2.93079e-05 0)
(-9.97709e-07 0.000112828 0)
(-8.36427e-07 0.000149993 0)
(8.64645e-06 0.000222927 0)
(8.07054e-06 9.77783e-05 0)
(4.18462e-06 0.000258055 0)
(4.03088e-06 0.000259016 0)
(1.16468e-06 0.000108045 0)
(1.59713e-06 7.38734e-05 0)
(1.38748e-07 1.94564e-08 0)
(-1.16448e-05 0.00020219 0)
(4.2758e-06 1.47654e-05 0)
(1.47314e-08 2.06619e-07 0)
(2.21869e-06 0.000144575 0)
(2.90261e-06 0.000145075 0)
(4.03727e-09 1.80947e-08 0)
(-2.25753e-06 5.52716e-06 0)
(5.5428e-06 5.45294e-05 0)
(4.96124e-06 4.16607e-05 0)
(4.3293e-06 3.02087e-05 0)
(-7.93926e-06 0.000148278 0)
(-8.41564e-06 0.000188046 0)
(7.33833e-06 9.30789e-05 0)
(1.05931e-06 0.000218741 0)
(-4.75118e-06 0.000246593 0)
(-4.49899e-06 0.000247891 0)
(-4.68984e-07 0.0001904 0)
(-4.03857e-07 0.000191443 0)
(3.19203e-07 3.9596e-05 0)
(2.90419e-07 4.01794e-05 0)
(3.57678e-07 5.22302e-05 0)
(3.25019e-07 5.28833e-05 0)
(2.31226e-07 6.62241e-05 0)
(2.78228e-07 6.69212e-05 0)
(5.6845e-07 0.000108405 0)
(1.05166e-06 0.000110137 0)
(1.83171e-06 0.000167486 0)
(-4.78614e-07 0.000115374 0)
(-2.77722e-07 6.66898e-08 0)
(-3.10304e-07 2.4623e-06 0)
(4.01712e-06 0.000152683 0)
(-2.13624e-06 2.78791e-05 0)
(1.08132e-06 3.41503e-06 0)
(1.5706e-05 0.000250242 0)
(-1.20936e-06 0.000192275 0)
(7.42316e-07 3.91523e-05 0)
(8.33007e-07 5.1733e-05 0)
(8.18855e-07 6.56479e-05 0)
(-1.20231e-05 0.000210361 0)
(4.14791e-06 7.56286e-05 0)
(6.11837e-06 0.000265581 0)
(6.9206e-06 0.000264991 0)
(-1.21991e-06 8.56796e-06 0)
(-7.74704e-07 0.000147494 0)
(3.9889e-07 3.06596e-05 0)
(1.81684e-07 1.87447e-07 0)
(1.54114e-05 0.000257284 0)
(-2.16299e-07 4.34298e-06 0)
(-2.92896e-06 4.44091e-05 0)
(-3.25723e-06 5.75936e-05 0)
(-3.89574e-06 5.81956e-05 0)
(-3.50639e-06 4.49525e-05 0)
(-2.54077e-06 3.26512e-05 0)
(-3.07205e-06 3.3143e-05 0)
(5.09536e-06 0.00014316 0)
(5.42412e-06 0.000182542 0)
(2.25502e-06 3.09905e-06 0)
(-1.45664e-07 8.90134e-08 0)
(-1.33218e-05 0.000174227 0)
(-1.38762e-05 0.000256761 0)
(4.52321e-06 0.000110051 0)
(-3.96567e-07 4.44378e-06 0)
(-7.21606e-06 0.000142901 0)
(-7.67531e-06 0.000182257 0)
(4.14122e-06 3.3343e-05 0)
(4.70935e-06 4.51756e-05 0)
(5.22945e-06 5.84397e-05 0)
(6.66614e-06 0.000219575 0)
(1.5154e-05 0.000258196 0)
(-8.19923e-06 9.0103e-05 0)
(3.39354e-06 2.98911e-05 0)
(-6.34165e-06 0.000148968 0)
(4.32742e-06 0.000110903 0)
(-1.6587e-06 7.91751e-05 0)
(4.38308e-06 5.40904e-05 0)
(3.92034e-06 4.12645e-05 0)
(-6.69204e-06 0.000188681 0)
(-1.21846e-05 9.11326e-05 0)
(1.18688e-05 8.73975e-05 0)
(1.18677e-05 8.83673e-05 0)
(-1.20254e-05 9.01028e-05 0)
(-5.6838e-06 1.5292e-05 0)
(-5.84946e-06 1.57658e-05 0)
(-5.65788e-06 8.8355e-05 0)
(-2.92471e-06 3.50465e-06 0)
(-9.14756e-06 8.90291e-05 0)
(-1.34277e-06 0.000211576 0)
(-1.19788e-06 1.44528e-06 0)
(9.20468e-06 5.20703e-05 0)
(8.20516e-06 3.9475e-05 0)
(-1.293e-05 0.000133025 0)
(2.08984e-06 5.41241e-05 0)
(1.86948e-06 4.1291e-05 0)
(-3.21806e-06 0.000188596 0)
(4.34298e-06 1.31974e-05 0)
(7.13794e-06 0.000107675 0)
(-6.20175e-06 7.19361e-05 0)
(-3.45075e-06 3.90144e-06 0)
(3.65516e-06 0.000168153 0)
(3.49582e-06 0.000129687 0)
(-1.69405e-06 2.03171e-05 0)
(1.06192e-05 0.000158826 0)
(-5.2629e-06 2.48123e-05 0)
(9.81373e-06 0.000121057 0)
(-6.01289e-06 1.50894e-05 0)
(7.47615e-06 0.000247087 0)
(8.57614e-06 0.000246728 0)
(8.26315e-06 0.000188051 0)
(7.83572e-06 0.000148293 0)
(-4.32839e-06 3.02948e-05 0)
(-4.93691e-06 4.16566e-05 0)
(-5.51636e-06 5.45248e-05 0)
(-1.2621e-06 1.25322e-06 0)
(-6.58305e-06 0.000229507 0)
(7.17122e-06 0.000146657 0)
(-4.02307e-06 3.11995e-05 0)
(-7.67213e-07 9.63601e-07 0)
(6.12164e-06 0.000249847 0)
(1.52281e-06 1.26087e-06 0)
(1.26346e-06 9.56603e-07 0)
(3.1918e-06 4.57486e-06 0)
(7.40426e-06 0.000200973 0)
(-1.25643e-05 0.000206485 0)
(1.67023e-05 0.00025056 0)
(3.23198e-06 4.8083e-06 0)
(7.34808e-06 9.77487e-05 0)
(1.00515e-05 0.000213046 0)
(-1.61763e-05 0.000201492 0)
(6.01191e-06 1.51223e-05 0)
(-3.72212e-06 0.00021438 0)
(1.51205e-06 5.42914e-05 0)
(1.35308e-06 4.14404e-05 0)
(-2.34008e-06 0.000188339 0)
(-5.70522e-07 2.75731e-06 0)
(4.28606e-06 0.000116083 0)
(1.25687e-07 5.01356e-08 0)
(-5.0099e-06 1.02534e-05 0)
(-8.84332e-07 9.55071e-05 0)
(-2.23879e-06 1.85696e-05 0)
(-2.60487e-06 1.86916e-05 0)
(4.87307e-06 0.000133424 0)
(5.65874e-06 0.000133177 0)
(6.06485e-06 0.00017188 0)
(5.22215e-06 0.000172146 0)
(1.47652e-07 5.58425e-07 0)
(-4.01741e-08 6.92376e-06 0)
(-8.78831e-06 0.000119937 0)
(-9.51803e-06 0.000157617 0)
(4.72723e-06 2.53961e-05 0)
(-2.79428e-06 1.51525e-05 0)
(-1.65401e-06 0.000162042 0)
(-2.53835e-06 6.51196e-06 0)
(5.11861e-06 0.000247482 0)
(-4.15672e-06 8.14092e-05 0)
(-4.81493e-06 8.12052e-05 0)
(1.44931e-07 1.48392e-07 0)
(-2.7566e-06 8.41828e-05 0)
(-1.40968e-06 1.70896e-05 0)
(3.193e-06 0.000136678 0)
(3.41396e-06 0.000175628 0)
(-3.85331e-06 0.000162069 0)
(-3.39524e-06 0.000123997 0)
(1.71905e-06 2.31648e-05 0)
(2.29929e-06 8.72996e-06 0)
(2.13565e-06 8.41405e-06 0)
(1.09551e-06 8.11727e-05 0)
(-1.44109e-06 0.000171817 0)
(-1.35226e-06 0.000133095 0)
(5.94993e-07 1.8696e-05 0)
(-1.33016e-06 3.21362e-05 0)
(-2.39029e-06 6.69318e-06 0)
(9.54456e-06 0.000253281 0)
(-9.33816e-06 0.000151759 0)
(7.20433e-06 7.16532e-05 0)
(-8.40222e-06 0.00010802 0)
(1.01746e-05 0.000214005 0)
(-9.40981e-06 6.58869e-05 0)
(-8.58017e-06 5.19173e-05 0)
(1.14534e-05 0.000114949 0)
(-7.64519e-06 3.93362e-05 0)
(-6.62629e-06 2.82439e-05 0)
(1.2493e-05 0.000152232 0)
(1.32004e-05 0.000192158 0)
(-3.44041e-06 0.000183908 0)
(-3.23944e-06 0.00014445 0)
(2.06767e-06 4.41234e-05 0)
(1.8147e-06 3.24112e-05 0)
(2.29982e-06 5.72775e-05 0)
(1.97692e-06 4.47551e-05 0)
(-3.2682e-06 0.000182881 0)
(2.19648e-06 5.7979e-05 0)
(1.73757e-06 3.29667e-05 0)
(-3.07539e-06 0.000143483 0)
(-1.82156e-06 0.000233103 0)
(-3.72801e-06 4.90691e-06 0)
(-4.02469e-06 2.29462e-05 0)
(8.4458e-06 0.000162576 0)
(7.82761e-06 0.000124524 0)
(-2.52791e-06 3.08682e-05 0)
(4.54522e-06 0.000147216 0)
(1.25312e-05 0.000182235 0)
(1.1778e-05 0.000142891 0)
(-6.84465e-06 3.34307e-05 0)
(-7.78428e-06 4.52609e-05 0)
(-8.64342e-06 5.85232e-05 0)
(1.32025e-05 0.000198836 0)
(1.44108e-05 0.000198584 0)
(3.26134e-07 5.91114e-06 0)
(-1.34449e-06 9.39512e-05 0)
(-3.60329e-06 9.99662e-06 0)
(1.84894e-07 3.484e-07 0)
(-3.54459e-06 1.26873e-05 0)
(-5.70475e-07 0.000211997 0)
(1.45887e-07 5.65779e-06 0)
(-2.91511e-06 0.000100649 0)
(1.19794e-05 0.000133104 0)
(-5.50326e-06 1.88477e-05 0)
(1.28377e-05 0.000171787 0)
(-1.2251e-08 -8.49049e-09 0)
(7.91104e-07 0.000158769 0)
(2.32651e-07 9.81593e-08 0)
(1.5874e-07 1.1784e-07 0)
(2.12086e-06 0.000114229 0)
(-2.65963e-07 2.16563e-07 0)
(9.7545e-06 0.000255171 0)
(7.20482e-07 0.000145033 0)
(-3.97776e-07 3.2039e-05 0)
(2.1543e-06 1.29142e-05 0)
(1.33601e-06 0.000144584 0)
(-7.67444e-07 3.22723e-05 0)
(-1.3162e-07 2.87131e-06 0)
(-9.21318e-06 5.20446e-05 0)
(-8.21113e-06 3.94527e-05 0)
(-7.1179e-06 2.83532e-05 0)
(-5.92882e-06 1.88932e-05 0)
(1.2896e-05 0.000133053 0)
(1.33992e-05 0.000152065 0)
(1.38203e-05 0.00017173 0)
(1.41632e-05 0.000191984 0)
(-6.28404e-06 0.000207093 0)
(-5.58529e-06 0.000246115 0)
(-1.80271e-05 0.000203322 0)
(6.55945e-06 1.44839e-05 0)
(4.10241e-06 0.000260889 0)
(4.77363e-06 0.000259766 0)
(1.27099e-06 0.000141394 0)
(1.37819e-06 0.000180678 0)
(-9.98869e-07 5.9552e-05 0)
(-9.00507e-07 4.61734e-05 0)
(-7.92898e-07 3.42167e-05 0)
(-5.21912e-06 1.51294e-05 0)
(1.89828e-06 1.08591e-05 0)
(-7.02165e-06 6.23776e-05 0)
(9.22983e-06 0.000137633 0)
(-6.35757e-06 4.874e-05 0)
(-5.63074e-06 3.65e-05 0)
(9.85794e-06 0.000176638 0)
(-3.96495e-06 1.6762e-05 0)
(9.98106e-06 0.000197054 0)
(1.67717e-06 9.00014e-05 0)
(-1.05876e-06 0.000220053 0)
(1.04887e-06 5.25434e-07 0)
(-7.77379e-07 0.000193289 0)
(4.90327e-07 3.85709e-05 0)
(5.50678e-07 5.10812e-05 0)
(5.09534e-07 6.49303e-05 0)
(3.11622e-06 0.000227959 0)
(-4.34798e-07 2.77041e-07 0)
(1.5841e-05 0.000224317 0)
(-2.39567e-06 9.53707e-05 0)
(-7.34698e-08 1.592e-07 0)
(5.66608e-06 0.000135499 0)
(-2.52714e-06 1.76354e-05 0)
(6.06203e-06 0.000174365 0)
(1.26652e-07 9.94346e-08 0)
(-3.38976e-06 2.12662e-05 0)
(6.86942e-06 0.000127821 0)
(7.39258e-06 0.000166129 0)
(1.18089e-06 1.55821e-06 0)
(-4.84841e-06 8.32004e-05 0)
(1.01472e-06 8.8939e-05 0)
(-1.09871e-05 0.000239704 0)
(1.00281e-06 0.000142161 0)
(1.06896e-06 0.000181476 0)
(-8.44776e-07 5.89806e-05 0)
(-6.6776e-07 3.37637e-05 0)
(-7.60881e-07 4.56573e-05 0)
(1.62408e-06 9.06646e-05 0)
(-2.33065e-07 8.90765e-07 0)
(-2.06898e-07 3.02141e-06 0)
(4.71225e-07 0.000211653 0)
(1.08207e-05 9.74609e-05 0)
(-1.01787e-05 8.12115e-05 0)
(-7.71482e-06 0.000268172 0)
(-1.75017e-05 0.000175428 0)
(-1.63766e-05 0.00013652 0)
(-1.69887e-05 0.00015565 0)
(-1.56627e-05 0.000118147 0)
(8.65136e-06 2.65671e-05 0)
(1.00391e-05 3.73706e-05 0)
(1.13107e-05 4.96934e-05 0)
(1.24723e-05 6.34054e-05 0)
(1.74486e-05 0.000175425 0)
(1.69362e-05 0.00015565 0)
(-8.67786e-06 2.65688e-05 0)
(-1.00704e-05 3.73731e-05 0)
(1.63245e-05 0.00013652 0)
(-1.13473e-05 4.96952e-05 0)
(1.56138e-05 0.000118146 0)
(-1.2513e-05 6.34075e-05 0)
(-5.02387e-06 1.47078e-05 0)
(-2.72178e-06 0.000219585 0)
(-1.94412e-06 0.000219377 0)
(-2.41634e-06 0.000248626 0)
(3.98281e-06 0.000150807 0)
(-2.15892e-06 2.88816e-05 0)
(-7.79622e-07 1.15633e-06 0)
(-3.1237e-06 0.00026274 0)
(-3.439e-06 5.6836e-05 0)
(-4.21126e-06 5.66228e-05 0)
(-3.08891e-06 4.37275e-05 0)
(-3.78141e-06 4.35371e-05 0)
(5.04607e-06 0.000184884 0)
(6.06309e-06 0.00018497 0)
(1.3339e-05 0.000181763 0)
(1.25334e-05 0.000142449 0)
(-7.31381e-06 3.3705e-05 0)
(-8.31199e-06 4.55692e-05 0)
(-9.22461e-06 5.88627e-05 0)
(-8.10012e-06 0.000120359 0)
(-8.76951e-06 0.000158074 0)
(4.33202e-06 2.51544e-05 0)
(-2.55418e-06 0.000107838 0)
(2.1539e-06 7.17728e-05 0)
(2.62343e-06 0.000190102 0)
(-1.55836e-06 4.03347e-05 0)
(-1.74596e-06 5.30562e-05 0)
(-1.88937e-06 6.69932e-05 0)
(4.99741e-06 7.09206e-05 0)
(4.23313e-06 7.11013e-05 0)
(-5.88021e-06 0.000108822 0)
(-4.98064e-06 0.000108599 0)
(-5.91192e-06 0.000260776 0)
(4.02696e-07 1.11051e-06 0)
(9.80216e-06 0.000224561 0)
(3.53757e-06 7.87441e-05 0)
(9.61387e-06 0.000155487 0)
(-4.93523e-06 2.64825e-05 0)
(8.86086e-06 0.000117972 0)
(-8.27025e-06 9.43532e-05 0)
(2.01509e-06 2.00653e-05 0)
(-4.61183e-06 0.000168712 0)
(-4.29617e-06 0.000130223 0)
(5.64756e-07 8.19197e-05 0)
(-7.2348e-07 0.00013398 0)
(-7.68421e-07 0.000172761 0)
(3.03707e-07 1.82882e-05 0)
(5.56327e-06 7.42189e-05 0)
(-6.35776e-06 0.000105018 0)
(-3.04472e-06 0.000233099 0)
(-1.40571e-05 0.000230876 0)
(2.50577e-06 0.000100197 0)
(6.30765e-06 0.000100511 0)
(-5.16376e-06 1.95014e-05 0)
(1.18233e-05 0.000170224 0)
(1.10204e-05 0.000131643 0)
(-5.76064e-07 2.45223e-06 0)
(-1.9118e-06 0.000194628 0)
(1.05799e-06 3.77991e-05 0)
(1.19067e-06 5.02143e-05 0)
(1.30222e-06 6.39855e-05 0)
(-2.92071e-06 9.49064e-05 0)
(-1.30309e-05 0.000230953 0)
(-3.78087e-06 3.78446e-05 0)
(-4.25671e-06 5.02603e-05 0)
(-4.67529e-06 6.40615e-05 0)
(6.62545e-06 0.00019456 0)
(1.22755e-08 1.61879e-08 0)
(8.17081e-06 9.36e-05 0)
(1.03327e-07 7.37963e-06 0)
(-3.94184e-07 6.91065e-07 0)
(-8.1803e-07 3.17135e-06 0)
(-3.90362e-06 1.3528e-05 0)
(-4.02775e-07 1.48413e-07 0)
(1.61071e-06 4.27079e-05 0)
(1.41566e-06 3.11472e-05 0)
(1.79587e-06 5.57041e-05 0)
(-2.73454e-06 0.000186225 0)
(-2.59139e-06 0.000146669 0)
(-7.96601e-06 7.77126e-05 0)
(8.60272e-06 0.000101113 0)
(-7.97965e-07 4.71994e-07 0)
(1.04227e-05 0.000247172 0)
(7.51414e-06 0.000221189 0)
(-1.60436e-05 0.000208229 0)
(5.94e-06 9.97371e-05 0)
(2.13428e-06 0.000108292 0)
(-4.04812e-06 0.000262621 0)
(-1.12584e-05 0.000113435 0)
(-1.07097e-05 0.000112936 0)
(1.58179e-05 0.000262544 0)
(-1.2795e-06 0.000234259 0)
(-3.57658e-06 7.14843e-05 0)
(4.26741e-06 0.000108271 0)
(1.2874e-07 7.63776e-06 0)
(1.9895e-06 2.7049e-06 0)
(3.99688e-07 1.47271e-07 0)
(3.77026e-06 0.000115329 0)
(1.39391e-05 0.000267922 0)
(-7.65724e-06 0.000186258 0)
(-7.21082e-06 0.000146665 0)
(3.99102e-06 3.11844e-05 0)
(5.09451e-06 5.57167e-05 0)
(4.56878e-06 4.27247e-05 0)
(-1.46715e-07 1.03152e-07 0)
(-5.85896e-07 0.000243806 0)
(7.15378e-06 0.000100806 0)
(-6.53698e-06 7.81064e-05 0)
(-1.14672e-05 0.000237908 0)
(-1.7119e-05 0.000176323 0)
(-1.66207e-05 0.000156515 0)
(-1.60289e-05 0.000137355 0)
(-1.53353e-05 0.000118946 0)
(8.38817e-06 2.61131e-05 0)
(9.74935e-06 3.68467e-05 0)
(1.09967e-05 4.91052e-05 0)
(1.21364e-05 6.27585e-05 0)
(1.70643e-05 0.000176317 0)
(1.65682e-05 0.000156515 0)
(-8.41399e-06 2.61165e-05 0)
(-9.77946e-06 3.68506e-05 0)
(1.59748e-05 0.000137353 0)
(-1.10319e-05 4.91086e-05 0)
(1.52849e-05 0.000118942 0)
(-1.21757e-05 6.27624e-05 0)
(-2.53617e-06 3.4182e-06 0)
(9.97691e-07 9.44057e-07 0)
(-1.33583e-06 2.45495e-06 0)
(6.36856e-06 9.89179e-05 0)
(-7.0128e-06 0.000101842 0)
(1.27217e-06 1.54136e-06 0)
(-1.97959e-07 3.30722e-08 0)
(-1.54282e-05 0.00020873 0)
(8.81197e-06 0.000265225 0)
(9.89096e-06 0.000265725 0)
(1.97397e-07 3.29758e-08 0)
(2.86253e-06 3.8335e-06 0)
(1.38088e-05 0.000241493 0)
(-5.27279e-06 0.000112539 0)
(-3.50733e-07 3.09135e-07 0)
(-7.93131e-07 1.23759e-06 0)
(-1.24049e-07 3.17455e-08 0)
(2.32076e-07 1.81571e-07 0)
(1.43132e-05 8.97844e-05 0)
(-1.43045e-05 8.87509e-05 0)
(4.38816e-06 6.77979e-05 0)
(-5.40446e-06 0.00011049 0)
(4.55605e-06 6.95305e-05 0)
(-2.40623e-07 4.08889e-06 0)
(-3.32891e-06 0.000176287 0)
(2.62135e-06 8.47363e-05 0)
(-1.86321e-06 0.000174381 0)
(-1.78421e-06 0.000135412 0)
(7.66723e-07 1.76447e-05 0)
(1.43587e-06 8.3207e-05 0)
(-5.87945e-06 0.000111968 0)
(3.05049e-06 4.06087e-06 0)
(4.91635e-06 6.83072e-05 0)
(1.81581e-06 0.00010035 0)
(1.38773e-05 0.000249373 0)
(-4.25063e-06 0.000101173 0)
(-4.88549e-06 0.000101857 0)
(-4.00269e-06 8.58431e-06 0)
(-4.73776e-06 0.000105077 0)
(-4.05347e-06 0.000104352 0)
(4.20329e-06 7.40977e-05 0)
(3.69068e-06 7.48248e-05 0)
(-4.47546e-06 2.08212e-05 0)
(9.1981e-06 0.000128806 0)
(9.89037e-06 0.000167183 0)
(-1.24392e-06 1.39193e-06 0)
(-5.89052e-06 0.000111074 0)
(4.95038e-06 6.90656e-05 0)
(-3.75588e-06 0.000142749 0)
(-3.99449e-06 0.000182101 0)
(2.14438e-06 3.33969e-05 0)
(2.70635e-06 5.85191e-05 0)
(2.43773e-06 4.52426e-05 0)
(-1.97627e-06 9.27007e-06 0)
(-1.22811e-05 0.000150505 0)
(-1.16386e-05 0.000150031 0)
(6.54444e-06 2.91554e-05 0)
(6.22464e-06 2.94076e-05 0)
(8.07975e-06 0.000119589 0)
(8.88453e-06 0.000119003 0)
(-4.41484e-06 2.55738e-05 0)
(-4.88755e-06 2.59109e-05 0)
(8.75422e-06 0.000157242 0)
(9.63095e-06 0.000156604 0)
(-3.53958e-06 0.000232247 0)
(7.02359e-06 0.000212135 0)
(7.12494e-06 0.000211148 0)
(-5.24142e-06 6.9537e-05 0)
(6.11498e-06 0.000110462 0)
(-1.84785e-05 0.000258694 0)
(-5.32871e-06 0.000206504 0)
(-5.11797e-06 0.000205539 0)
(1.79277e-06 1.34533e-05 0)
(1.8429e-06 1.31119e-05 0)
(1.59252e-05 0.000208792 0)
(-7.08149e-06 8.91087e-05 0)
(-6.08109e-06 8.91397e-05 0)
(1.57551e-05 0.000235658 0)
(-1.59608e-05 0.000248393 0)
(-1.59402e-05 0.000249573 0)