/*--------------------------------*- C++ -*----------------------------------*\
| =========                 |                                                 |
| \\      /  F ield         | OpenFOAM: The Open Source CFD Toolbox           |
|  \\    /   O peration     | Version:  2.3.1                                 |
|   \\  /    A nd           | Web:      www.OpenFOAM.org                      |
|    \\/     M anipulation  |                                                 |
\*---------------------------------------------------------------------------*/
FoamFile
{
    version     2.0;
    format      ascii;
    class       volScalarField;
    location    "0.19";
    object      epsilon;
}
// * * * * * * * * * * * * * * * * * * * * * * * * * * * * * * * * * * * * * //

dimensions      [0 2 -3 0 0 0 0];

internalField   nonuniform List<scalar> 
9648
(
2391.5
2415.47
2404.78
2389.64
2370.1
2346.06
2316.95
2282.53
2242.92
2198.52
2149.94
2097.7
2042.89
1986.63
1929.77
1873.19
1817.82
1764.43
1713.48
1665.27
1620.1
1578.11
1539.3
1503.72
1471.31
1441.91
1415.38
1391.59
1370.45
1351.79
1335.51
1321.49
1309.6
1299.72
1291.77
1285.6
1281.14
1278.28
1277.02
1277.27
1278.93
1282.06
1286.63
1292.58
1300
1308.93
1319.36
1331.32
1344.9
1360.25
1377.37
1396.26
1417.11
1439.78
1464.08
1489.55
1515.7
1542.03
1567.89
1592.86
1616.75
581.332
573.521
563.928
558.165
554.809
553.922
554.939
558.024
562.851
568.93
575.969
583.322
590.649
597.696
604.272
610.16
615.313
619.795
623.669
626.928
629.698
632.059
634.066
635.836
637.483
639.053
640.584
642.136
643.782
645.57
647.526
649.712
652.163
654.862
657.834
661.077
664.589
668.359
672.403
676.772
681.449
686.428
691.724
697.318
703.19
709.364
715.832
722.569
729.512
736.691
744.061
751.559
759.121
766.763
774.326
781.781
788.976
796.045
802.869
809.397
815.608
240.289
245.315
252.567
262.256
273.649
286.547
300.97
316.61
333.235
350.351
367.724
384.928
401.683
417.738
432.905
447.053
460.112
472.075
482.954
492.785
501.631
509.55
516.635
522.975
528.666
533.785
538.405
542.606
546.449
550.008
553.344
556.508
559.542
562.475
565.325
568.124
570.884
573.622
576.361
579.093
581.855
584.646
587.445
590.27
593.097
595.932
598.77
601.582
604.37
607.118
609.816
612.449
614.977
617.455
619.765
622.014
624.106
626.191
628.106
629.901
631.568
147.241
158.812
172.273
187.416
203.957
221.773
240.693
260.426
280.651
300.976
321.087
340.65
359.414
377.165
393.755
409.077
423.086
435.783
447.192
457.367
466.369
474.27
481.164
487.148
492.324
496.788
500.628
503.927
506.758
509.197
511.307
513.154
514.783
516.234
517.551
518.746
519.872
520.916
521.882
522.82
523.7
524.572
525.449
526.304
527.176
528.042
528.908
529.765
530.598
531.403
532.16
532.899
533.598
534.27
534.865
535.445
536.006
536.542
537.033
537.488
537.946
117.165
132.063
148.678
166.791
186.198
206.715
228.069
249.935
271.957
293.743
314.964
335.309
354.555
372.524
389.107
404.211
417.823
429.967
440.686
450.061
458.164
465.071
470.891
475.721
479.685
482.893
485.438
487.416
488.891
489.944
490.652
491.063
491.254
491.262
491.108
490.86
490.507
490.073
489.597
489.042
488.483
487.91
487.313
486.737
486.149
485.601
485.091
484.598
484.11
483.616
483.101
482.577
482.056
481.532
480.999
480.458
479.934
479.403
478.849
478.285
477.717
107.377
124.52
143.376
163.693
185.188
207.612
230.627
253.866
276.945
299.454
321.075
341.498
360.553
378.082
394.046
408.337
420.971
432.02
441.531
449.634
456.413
461.928
466.323
469.681
472.162
473.887
474.955
475.472
475.49
475.095
474.365
473.367
472.163
470.802
469.312
467.698
466.048
464.329
462.555
460.831
459.076
457.351
455.658
453.928
452.247
450.607
449.039
447.566
446.123
444.698
443.281
441.866
440.467
439.081
437.702
436.36
435.043
433.726
432.396
431.064
429.716
106.072
125.065
145.774
167.884
190.99
214.822
238.973
263.053
286.696
309.405
330.946
350.951
369.357
386.001
400.992
414.112
425.428
435.086
443.096
449.68
454.937
458.864
461.699
463.446
464.342
464.524
464.065
463.134
461.705
459.889
457.805
455.441
452.952
450.356
447.603
444.822
442.002
439.113
436.295
433.462
430.726
428.077
425.438
422.873
420.272
417.743
415.329
413.007
410.787
408.614
406.466
404.337
402.242
400.142
398.066
396.035
394.046
392.094
390.128
388.13
386.148
108.749
129.346
151.641
175.237
199.564
224.36
249.223
273.751
297.587
320.105
341.215
360.381
377.778
393.159
406.972
418.692
428.467
436.589
442.875
447.772
451.407
453.6
454.853
454.887
454.145
452.752
450.753
448.413
445.557
442.37
438.992
435.341
431.641
427.866
423.986
420.084
416.239
412.315
408.413
404.645
400.914
397.325
393.932
390.543
387.188
383.912
380.692
377.645
374.698
371.856
369.055
366.29
363.56
360.804
358.092
355.47
352.864
350.356
347.796
345.189
342.668
113.048
134.823
158.484
183.091
208.46
233.799
258.932
283.796
307.413
329.623
349.988
368.223
384.261
398.115
410.598
420.853
429.044
435.517
440.285
443.528
445.335
445.756
445.197
443.688
441.388
438.302
434.876
431.181
426.808
422.308
417.592
412.788
408.14
403.197
398.022
393.223
388.287
383.295
378.559
373.615
368.742
363.938
359.791
355.685
351.548
347.772
343.616
339.913
336.079
332.541
328.872
325.51
322.21
318.748
315.385
312.315
308.988
306.212
303.018
299.704
296.757
1639.79
1661.95
1683.01
1702.98
1722.15
1741.01
1759.77
1778.33
1795.53
1811.87
1827.07
1841.65
1855.99
1870.47
1885.31
1901.25
1918.91
1938.8
1961.21
1986.4
2013.84
2042.95
2073.36
2104.72
2136.77
2169.58
2202.98
2236.95
2271.42
2306.4
2342.08
2378.32
2415.14
2452.71
2491.03
2530
2569.75
2610.39
2651.99
2694.43
2737.71
2782.1
2827.56
2873.94
2921.57
2970.31
3020.05
3070.84
3122.88
3176.21
3230.77
3286.43
3343.73
3402.3
3462.48
3524.09
3587.84
3653.79
3721.94
3792.19
3864.69
821.516
827.571
833.406
838.973
844.316
849.58
854.936
860.228
865.431
870.409
875.388
880.319
885.279
890.273
895.318
900.472
905.749
911.183
916.752
922.413
928.121
933.815
939.483
945.106
950.661
956.107
961.378
966.488
971.427
976.215
980.871
985.367
989.724
993.963
998.079
1002.07
1005.97
1009.76
1013.45
1017.03
1020.53
1023.96
1027.29
1030.54
1033.71
1036.8
1039.8
1042.68
1045.49
1048.22
1050.85
1053.37
1055.81
1058.3
1060.62
1063.03
1065.42
1068.03
1070.55
1073.16
1075.93
633.227
634.86
636.519
638.142
639.739
641.214
642.731
644.174
645.556
646.825
648.065
649.274
650.509
651.706
652.871
654.003
655.097
656.149
657.145
658.072
658.915
659.676
660.343
660.914
661.384
661.754
662.013
662.157
662.181
662.093
661.883
661.555
661.112
660.551
659.887
659.115
658.238
657.253
656.162
654.962
653.659
652.257
650.763
649.162
647.466
645.663
643.74
641.69
639.52
637.231
634.797
632.265
629.596
626.821
623.858
620.814
617.686
614.488
611.213
607.9
604.615
538.376
538.794
539.172
539.548
539.89
540.176
540.427
540.653
540.785
540.841
540.842
540.796
540.687
540.501
540.267
539.97
539.609
539.175
538.662
538.062
537.378
536.607
535.755
534.816
533.785
532.659
531.44
530.125
528.712
527.204
525.599
523.891
522.082
520.177
518.186
516.106
513.938
511.681
509.328
506.884
504.355
501.753
499.08
496.345
493.547
490.684
487.735
484.699
481.571
478.369
475.063
471.663
468.182
464.604
460.902
457.083
453.193
449.219
445.192
441.153
437.133
477.145
476.534
475.89
475.209
474.491
473.714
472.922
472.123
471.296
470.408
469.485
468.517
467.489
466.406
465.265
464.062
462.825
461.517
460.138
458.686
457.163
455.578
453.936
452.239
450.481
448.656
446.762
444.798
442.77
440.678
438.516
436.275
433.955
431.56
429.103
426.584
423.998
421.34
418.602
415.788
412.911
409.977
407.003
404.001
400.98
397.938
394.84
391.714
388.522
385.288
381.989
378.615
375.188
371.692
368.105
364.417
360.649
356.792
352.914
349.025
345.147
428.373
427.01
425.633
424.205
422.748
421.258
419.742
418.204
416.629
415.023
413.374
411.7
409.987
408.225
406.418
404.579
402.714
400.787
398.794
396.738
394.627
392.473
390.29
388.085
385.844
383.558
381.227
378.85
376.446
374.014
371.551
369.031
366.457
363.824
361.158
358.455
355.698
352.891
350.013
347.066
344.063
341.013
337.94
334.87
331.821
328.803
325.759
322.727
319.667
316.622
313.541
310.4
307.241
304.019
300.752
297.362
293.909
290.378
286.858
283.299
279.767
384.174
382.203
380.217
378.212
376.164
374.069
371.958
369.848
367.701
365.504
363.293
361.075
358.822
356.544
354.22
351.884
349.55
347.167
344.719
342.199
339.626
337.035
334.432
331.848
329.255
326.628
323.974
321.284
318.606
315.947
313.327
310.672
308.005
305.292
302.587
299.865
297.084
294.272
291.4
288.464
285.469
282.409
279.332
276.271
273.25
270.333
267.394
264.536
261.67
258.912
256.16
253.328
250.512
247.642
244.77
241.723
238.666
235.498
232.422
229.276
226.183
340.14
337.663
335.168
332.707
330.211
327.718
325.185
322.718
320.219
317.608
315.003
312.438
309.831
307.198
304.483
301.8
299.194
296.55
293.844
290.993
288.067
285.166
282.248
279.374
276.561
273.715
270.846
267.883
264.948
262.095
259.419
256.727
254.116
251.477
248.925
246.392
243.727
241
238.265
235.522
232.678
229.711
226.723
223.737
220.772
218.025
215.192
212.539
209.87
207.484
205.161
202.688
200.273
197.798
195.384
192.684
190.056
187.258
184.699
182.021
179.444
293.571
290.622
287.51
284.738
281.801
279.278
276.437
273.976
271.484
268.782
266.075
263.605
260.913
258.238
255.263
252.269
249.616
247.062
244.532
241.728
238.516
235.534
232.469
229.374
226.448
223.574
220.821
217.728
214.429
211.315
208.611
205.89
203.407
200.97
198.901
196.9
194.572
191.964
189.449
187.132
184.752
181.998
179.176
176.41
173.553
171.078
168.264
165.827
163.243
161.354
159.569
157.453
155.533
153.528
151.681
149.276
147.105
144.606
142.618
140.443
138.497
3940.5
4019.17
4099.96
4182.83
4268.14
4356.74
4448.02
4541.85
4637.99
4737.03
4838.63
4941.79
5051.5
5180.61
5316.35
5443.53
5573.34
5705.79
5840.88
5978.52
6118.91
6262.01
6407.51
6555.53
6705.79
6857.57
7010.57
7164.53
7319.24
7473.78
7628.06
7781.45
7933.01
8082.15
8228.3
8370.01
8506.25
8633.19
8739.95
8817.75
8869
8894.81
8894.71
8866.76
8809.27
8719.71
8593.98
8427.39
8215.63
7954.1
7636.59
7256.39
6808.42
6285.88
5639.94
4708.26
4303.4
4106.22
4032.78
3998.6
3917.72
1078.98
1082.18
1085.62
1089.14
1092.77
1096.64
1101.02
1105.78
1110.96
1116.59
1121.2
1122.64
1125.55
1129.48
1134.68
1140.62
1146.49
1152.38
1158.43
1164.7
1171.19
1177.94
1184.91
1192.12
1199.56
1207.22
1215.13
1223.33
1231.86
1240.79
1250.16
1260.05
1270.57
1281.87
1294.05
1307.36
1322.04
1338.32
1360.65
1392.35
1429.43
1469.19
1512.18
1558.53
1608.9
1663.62
1722.74
1786.53
1855.2
1928.27
2004.8
2083.09
2161.62
2239.02
2307.38
2372.44
2433.4
2522.28
2628.83
2733.34
2671.75
601.333
598.085
594.828
591.566
588.251
584.953
581.736
578.617
575.484
572.329
567.258
561.169
556.166
551.789
548.062
544.652
541.165
537.552
533.877
530.178
526.485
522.795
519.102
515.408
511.714
508.022
504.345
500.689
497.079
493.512
490.015
486.609
483.31
480.163
477.197
474.464
472.011
469.915
468.457
468.007
469.4
475.23
484.436
497.015
513.448
534.406
560.62
593.121
632.901
681.025
738.483
806.045
884.922
975.399
1077.11
1186.72
1295.91
1415.91
1563.43
1753.41
1936.7
433.138
429.183
425.251
421.319
417.341
413.352
409.381
405.441
401.393
396.993
391.232
385.345
380.178
375.504
371.241
367.189
363.13
359.035
354.912
350.792
346.678
342.555
338.431
334.311
330.195
326.095
322.015
317.957
313.925
309.923
305.956
302.029
298.155
294.344
290.608
286.966
283.438
280.04
276.812
273.816
271.178
269.206
268.841
270.014
272.813
277.6
284.859
295.265
309.685
329.162
355.123
388.89
432.111
485.848
550.646
624.422
703.157
788.612
889.429
1019.37
1179.74
341.305
337.552
333.845
330.133
326.355
322.565
318.759
314.969
311.068
306.76
301.595
296.559
292.014
287.863
283.972
280.241
276.53
272.853
269.195
265.575
261.976
258.356
254.744
251.149
247.565
244.005
240.471
236.966
233.482
230.023
226.589
223.188
219.823
216.504
213.24
210.041
206.919
203.883
200.946
198.125
195.454
193.001
190.929
189.684
189.135
189.439
190.826
193.61
198.237
205.266
215.514
230.007
249.958
276.617
310.949
353.002
401.338
455.536
517.993
594.392
690.708
276.245
272.868
269.546
266.243
262.801
259.356
255.869
252.445
248.936
245.124
240.706
236.501
232.649
229.136
225.769
222.525
219.284
216.137
213.041
210.015
207.02
203.98
200.967
197.991
195.024
192.096
189.189
186.317
183.453
180.609
177.779
174.978
172.206
169.477
166.794
164.169
161.609
159.122
156.711
154.388
152.167
150.073
148.15
146.498
145.366
144.63
144.419
144.861
146.173
148.641
152.648
158.733
167.584
179.981
196.797
218.573
245.402
277.334
314.993
360.056
415.589
223.006
220.045
217.152
214.331
211.252
208.199
205.057
202.079
199.054
195.893
192.183
188.727
185.512
182.648
179.812
177.09
174.317
171.714
169.164
166.706
164.287
161.77
159.324
156.961
154.593
152.28
149.967
147.7
145.413
143.142
140.864
138.626
136.411
134.25
132.126
130.063
128.055
126.116
124.242
122.448
120.738
119.135
117.649
116.322
115.266
114.502
114.019
113.884
114.201
115.107
116.796
119.528
123.629
129.541
137.744
148.731
162.912
180.599
202.243
228.616
260.978
176.605
174.058
171.617
169.353
166.654
164.029
161.23
158.753
156.262
153.817
150.735
147.932
145.256
143.019
140.658
138.465
136.114
134.041
131.994
130.032
128.127
126.036
124.098
122.351
120.54
118.785
116.98
115.265
113.463
111.685
109.86
108.122
106.399
104.763
103.143
101.597
100.076
98.629
97.2378
95.9384
94.7113
93.5918
92.5832
91.6826
90.9295
90.4381
90.115
89.9885
90.1242
90.5947
91.501
92.9678
95.1694
98.3075
102.637
108.449
116.043
125.754
137.946
153.113
171.901
135.972
133.776
131.802
130.175
127.854
125.68
123.189
121.274
119.335
117.625
115.083
112.819
110.527
108.908
106.904
105.26
103.242
101.706
100.092
98.4814
97.0154
95.2076
93.7281
92.6947
91.3498
90.0061
88.5583
87.3563
85.8784
84.4742
82.9281
81.6587
80.3381
79.1916
77.9742
76.8724
75.6796
74.6131
73.6155
72.7406
71.9454
71.2471
70.6731
70.1857
69.7371
69.4285
69.2909
69.2648
69.4565
69.7942
70.5182
71.5469
73.0879
75.1075
77.8222
81.2703
85.7458
91.346
98.4666
107.37
118.406
3777.05
3624.08
3462.1
3294.7
3130.75
2974.82
2829.12
2696.7
2579.96
2479.96
2396.44
2328.11
2273.52
2230.81
2197.9
2172.89
2154.18
2140.64
2131.31
2125.34
2122.28
2121.71
2123.26
2126.84
2132.38
2139.68
2148.6
2159.09
2171.17
2184.65
2199.42
2215.35
2232.21
2249.68
2267.53
2285.41
2302.84
2319.42
2334.86
2348.74
2360.54
2370
2377.02
2381.42
2383.43
2383.49
2381.93
2379.24
2376.21
2373.77
2372.32
2372.06
2373.48
2376.66
2381.12
2386.34
2391.79
2397.17
2401.17
2402.81
2401.02
2469.41
2255.91
2048.43
1853.06
1684.46
1532.33
1395.14
1272.92
1164.88
1071.02
990.788
922.997
866.026
818.526
780.005
749.375
724.777
704.616
687.79
673.602
661.594
651.405
642.819
635.699
629.993
625.615
622.475
620.56
619.829
620.272
621.895
624.678
628.606
633.607
639.586
646.469
654.145
662.477
671.272
680.29
689.187
697.497
704.681
710.14
713.285
713.552
710.491
703.975
694.348
682.369
668.797
654.623
640.973
628.841
618.573
610.259
603.366
597.462
592.174
588.028
584.752
2014.11
1988.52
1872.62
1687.4
1502.26
1326.77
1160.26
1013.04
884.206
772.153
676.967
597.381
531.777
478.654
436.913
404.543
378.564
357.319
339.741
325.185
313.054
302.873
294.273
286.971
280.774
275.531
271.129
267.496
264.575
262.329
260.724
259.749
259.373
259.548
260.236
261.375
262.904
264.755
266.855
269.103
271.378
273.551
275.461
276.895
277.645
277.455
276.079
273.316
269.124
263.628
257.099
250.045
243.061
236.79
231.737
228.368
226.863
227.113
228.672
231.108
234.671
1344.4
1487.16
1576.27
1582.7
1504.49
1372.86
1202.47
1035.25
883.842
746.563
628.995
531.695
452.234
389.05
339.617
300.989
270.523
245.852
225.829
209.594
196.419
185.713
176.98
169.791
163.804
158.762
154.501
150.904
147.889
145.388
143.361
141.779
140.605
139.786
139.268
138.996
138.913
138.962
139.081
139.199
139.242
139.136
138.798
138.149
137.11
135.615
133.616
131.098
128.101
124.698
121.033
117.342
113.872
111
109.283
109.207
110.957
114.625
120.231
127.835
136.869
807.769
942.564
1083.45
1206.5
1282.73
1295.66
1241.62
1134.36
998.751
847.85
707.069
587.387
485.617
403.475
338.71
287.577
247.388
215.522
190.037
169.743
153.646
140.937
130.904
122.907
116.434
111.108
106.685
102.997
99.9266
97.3698
95.2669
93.5823
92.2708
91.2743
90.5348
89.9968
89.6055
89.306
89.044
88.7599
88.3921
87.8823
87.1749
86.2184
84.9692
83.3991
81.5043
79.3037
76.8361
74.1806
71.4551
68.8356
66.5886
65.0624
64.7748
66.1133
69.4465
74.9658
82.6756
92.4255
103.944
484.548
569.867
672.238
787.462
903.467
1002.81
1065.76
1077.32
1035.52
948.63
833.962
710.617
587.82
482.43
396.847
326.698
271.357
227.4
192.083
164.304
142.733
126.191
113.558
103.805
96.1312
89.9646
84.9448
80.8435
77.4893
74.729
72.4744
70.6756
69.2774
68.2114
67.4138
66.8262
66.3921
66.06
65.7778
65.4913
65.1451
64.691
64.0807
63.2746
62.2349
60.9437
59.4006
57.6275
55.6536
53.5409
51.3866
49.3488
47.6785
46.7502
46.9501
48.7564
52.6505
58.9552
67.7445
78.868
92.1152
301.018
350.911
412.894
488.353
576.359
672.346
766.584
845.123
893.575
901.307
866.144
795.625
702.28
600.407
501.624
409.579
334.487
273.322
222.587
182.689
151.995
129.027
112.021
99.2394
89.4133
81.6745
75.5177
70.5979
66.6597
63.4666
60.8858
58.8422
57.267
56.0727
55.1849
54.537
54.0694
53.7291
53.4653
53.2257
52.9567
52.6182
52.1635
51.5582
50.7621
49.7647
48.562
47.176
45.6243
43.9631
42.2738
40.6962
39.4499
38.8664
39.3489
41.4045
45.6076
52.425
62.0489
74.3489
89.0905
195.251
224.347
260.711
305.914
361.266
427.04
501.632
580.202
654.918
714.944
749.612
752.389
723.576
667.79
594.119
510.993
428.311
351.201
280.41
223.722
179.035
146.174
122.529
105.11
91.9189
81.6652
73.6139
67.3164
62.4072
58.4834
55.348
52.8763
50.9875
49.5577
48.4973
47.7233
47.17
46.7774
46.4967
46.2729
46.053
45.8034
45.4788
45.0457
44.4577
43.7106
42.7946
41.7334
40.5352
39.25
37.9504
36.7612
35.878
35.596
36.3331
38.6191
43.0965
50.3672
60.7524
74.1501
90.2549
132.235
149.364
170.722
197.54
230.867
271.736
320.589
377.001
438.609
501.422
557.526
600.743
624.67
626.451
604.43
560.77
501.301
430.686
358.835
287.753
223.929
177.897
145.261
121.295
102.962
88.8231
77.7888
69.3593
62.9365
57.8527
53.851
50.6862
48.2988
46.4864
45.1447
44.1513
43.4402
42.9262
42.5761
42.3135
42.0985
41.8927
41.6625
41.3591
40.9419
40.3971
39.7285
38.9386
38.0479
37.0819
36.1266
35.2856
34.7502
34.7875
35.8014
38.3486
43.0956
50.7689
61.7609
76.1034
93.2554
0.951257
194.425
173.155
2.58273
1.31914
0.182999
0.000739606
106.584
0.000776855
0.0144234
108.381
6.57105
0.00073866
258.115
0.148989
131.134
0.000752737
106.472
132.436
0.000754393
2.58875
249.047
183.096
0.000779225
0.000765108
0.209582
0.000751693
8.90667
0.000749106
0.000794636
3.83631
0.000972017
0.00881241
92.2582
3.71669
128.242
91.0149
15.3125
0.000731707
40.184
66.3399
22.7425
0.000741588
98.8754
213.878
0.672243
0.000796135
0.00773039
8.14058
6.80898
379.02
344.371
0.000724264
0.000998441
0.0762093
0.0409428
0.000791687
9.69331
76.8742
269.672
159.137
0.000869505
2.15685
0.0235032
189.154
7.0963
55.4162
77.2354
0.00117081
0.000747433
9.55597
40.0144
57.1542
0.192463
0.0562777
103.628
212.797
53.6254
0.000716511
5.13654
0.00215783
41.239
0.0290459
106.743
0.00074971
8.38074
0.000773838
51.4961
0.0128349
0.00128699
0.20492
0.000714829
0.000891074
293.658
135.202
0.000833145
1.50099
0.987378
0.00186463
201.799
4.2654
19.093
5.92396
0.000713934
0.000729511
0.0007201
1.4222
0.205579
0.000757596
168.119
217.409
0.00558411
273.489
37.4611
139.063
75.498
40.7952
0.00100906
0.100924
0.000980379
0.0029282
230.616
0.00223112
282.196
402.799
33.67
0.000744756
6.51646
6.39903
0.000742396
0.030062
0.0253701
100.362
0.00156943
87.3425
0.000747695
0.000728265
384.963
336.746
0.000744362
0.362177
142.623
0.233735
0.888409
35.9036
111.712
2.90621
37.2994
0.00493932
264.695
10.7118
0.0526994
48.1286
104.366
181.2
0.000750353
0.000742634
0.473623
0.000766483
59.7646
0.266349
0.0014505
0.000744863
0.00074599
0.000758381
38.6242
86.1579
35.0869
0.000884642
285.453
335.49
414.008
168.311
0.00710275
200.733
67.6093
39.4133
0.000740348
0.00156875
211.425
79.9372
23.3405
66.0007
0.000742984
0.000813684
275.02
0.0278753
2.38448
0.000756536
0.000786416
0.167465
0.000814753
316.486
3.5831
0.000755394
0.619159
102.905
126.013
0.00122995
75.2356
0.000744457
0.000745957
103.86
30.5554
291.032
0.00124742
0.000778604
0.00303472
38.6489
100.99
9.66943
109.599
7.40906
227.014
0.88643
82.8707
78.0437
20.9821
10.1263
54.8369
0.00121649
0.0278855
0.000744112
0.000892415
40.6303
0.00928248
0.0108374
0.00146813
0.00646216
46.0978
231.745
0.011198
154.722
6.88763
0.973808
0.000732726
0.364702
36.2315
6.6551
0.00110067
7.04343
42.8501
0.959337
10.0755
266.126
7.64181
5.44302
118.539
0.000963643
0.000729949
0.000969744
0.00441005
39.9721
0.00076566
0.00185531
0.000730025
1.73515
66.4701
96.3616
60.198
11.6082
10.7152
315.353
0.00117814
67.2851
99.5039
0.00074239
116.747
0.000749367
338.193
1.73366
78.4422
0.00143941
0.000747269
19.4449
8.66686
0.000759461
0.000744643
0.00074909
0.000750692
1.13084
36.4824
42.0415
0.0125645
0.000760298
0.00072844
0.000713804
100.873
0.656611
0.00111025
16.7317
0.111556
0.117971
0.000717392
0.773156
0.000760076
0.0558268
49.2872
307.722
14.0753
0.000920356
0.00175121
54.3198
0.284493
139.515
314.266
0.00082164
0.000739316
0.000733946
152.129
0.000759047
125.915
0.000748949
20.8393
14.489
0.0254927
181.221
249.023
0.00118451
61.2484
43.3728
93.3561
91.7559
2.6943
334.171
50.6035
62.0082
156.645
91.1011
57.3566
0.307338
325.083
273.977
73.8874
46.352
0.00125425
259.519
166.193
225.58
0.0178343
0.000836948
0.000744357
0.000790112
0.747147
1.4716
3.76208
0.11425
0.000735012
163.996
0.000745176
37.7258
21.3918
187.735
30.8575
17.318
0.00177385
0.00104913
0.55669
119.529
0.0040999
8.29478
291.568
50.1497
80.9306
175.965
52.5996
0.000795769
277.497
134.124
99.4803
0.000745849
182.408
145.229
0.000766674
42.1484
0.000746629
401.129
173.996
38.5124
78.0979
152.689
143.62
0.000775528
143.473
0.000916528
83.6609
78.4216
39.2367
273.825
3.3077
0.475566
2.50585
0.00104824
452.031
2.32319
0.00280036
0.00458893
292.753
0.000907811
89.3822
0.000742027
0.000745168
0.00186837
31.807
0.168047
19.8266
0.0014275
80.1107
0.281755
202.234
294.343
35.688
355.927
0.000821922
274.019
40.4111
0.000738096
75.8676
23.5991
0.000720937
0.000730339
132.151
0.00208843
19.1327
0.55733
110.872
0.0165657
3.03056
36.603
108.278
30.5929
67.7529
65.2544
0.0013004
0.0426635
42.1389
16.2384
323.62
353.981
125.21
0.076397
118.287
117.243
3.4452
100.833
42.2744
23.8994
0.000970139
81.2413
370.331
0.00103273
95.5294
18.1497
42.8599
0.0137105
0.0802621
280.551
0.00177364
319.596
0.00117808
2.01964
0.000738718
7.62308
180.261
0.532226
0.0012488
0.000953258
107.02
36.2694
0.958729
6.272
317.233
551.792
0.00249931
10.8849
36.8997
98.9162
35.3236
460.67
39.632
159.273
49.6179
5.85701
9.78074
296.276
55.132
344.291
166.954
2.47986
215.743
83.9369
0.000817801
104.094
41.9931
11.9468
0.010193
100.21
46.5007
3.71133
54.0857
0.00160117
0.000746407
0.914975
15.2882
91.2429
91.8296
0.000749558
0.000739246
0.000739827
38.4918
0.0308781
0.000743949
0.218873
86.8002
306.585
0.00410482
0.00419713
0.000727622
0.000738647
0.00178205
29.79
104.036
15.9901
1.85601
281.824
399.844
0.00153133
49.2813
39.2082
39.0812
72.4197
427.866
0.000833899
0.00421233
0.000744227
410.065
0.684063
0.000729371
9.83437
0.321435
294.361
0.000759087
308.349
7.99434
0.0489082
196.503
0.000740598
0.000732929
0.000997424
391.394
50.8031
125.33
348.13
5.4687
41.7015
0.000718885
0.00172358
0.555276
0.00709925
0.0152451
182.534
56.3275
0.000744546
26.2196
66.2724
175.767
393.981
0.00262581
397.673
0.00173479
0.0196759
189.667
0.000735845
141.981
0.000758506
0.000771513
0.024211
47.7963
2.7982
329.935
62.9651
0.000861498
39.5302
508.92
0.658638
2.48972
11.4854
0.000759315
0.000749222
0.00227922
131.468
5.88305
0.000824533
256.857
298.478
209.758
0.577434
82.972
0.00113056
28.0614
0.368913
0.120018
145.274
44.3504
156.567
169.138
0.000767168
0.000720578
0.0043271
80.2562
94.4407
5.40034
0.00605943
0.000758383
0.00074083
0.00325005
0.154818
0.00194428
96.4838
24.0094
0.00511565
35.7086
165.257
0.000755559
49.3079
0.000741995
2.60412
0.000762428
0.0125409
28.4358
0.0108829
0.000744373
3.69269
348.131
245.122
0.000740617
0.000737787
1.40809
0.165092
0.000746857
83.8907
0.000866007
48.2909
363.231
28.3625
96.6561
302.509
146.643
328.35
0.000740923
0.00251879
0.0128829
300.25
65.913
187.845
1.41093
4.92898
102.874
209.396
113.34
8.46835
36.8483
0.000749556
1.31583
61.4989
31.6563
319.331
20.7458
0.634395
39.9415
0.205521
0.0281819
61.3339
0.000743633
170.758
0.000862721
2.88872
287.188
202.197
2.68429
0.00237055
7.2521
0.000753147
0.000735344
0.173143
0.0123948
78.3898
0.00786204
39.4427
0.000749907
0.0170896
0.00072877
91.6205
0.00400815
94.4792
308.638
0.0131029
172.255
364.607
0.000747903
101.888
261.764
0.00080858
281.834
0.33157
0.000938748
0.000766701
264.345
0.000732124
0.00106949
0.111387
0.219203
428.032
263.789
0.000751308
0.000740025
4.73783
25.9365
0.00657391
9.48235
21.0128
0.000746566
0.000908363
0.000830664
164.107
265.919
3.50016
285.52
0.0158622
36.7066
0.000815538
0.00640224
0.014717
0.0462965
0.000746122
296.085
0.00074152
0.0146733
0.00075472
4.23858
0.0136198
0.205774
1.92919
5.11088
46.947
1.63641
9.07715
39.4319
193.977
0.000803566
189.827
313.94
12.7505
72.1445
0.000763134
277.84
71.6786
0.000743273
403.98
86.7772
0.00901916
0.110852
157.425
156.922
0.112644
306.203
403.772
4.21542
424.384
248.176
124.815
72.4589
15.7411
32.8652
254.825
275.544
0.0131416
295.4
34.7333
411.883
0.000810883
1.57952
0.878458
220.8
156.72
0.0107557
455.473
191.171
8.01827
0.0666131
2.925
40.0634
0.00142943
39.9413
437.75
0.0291976
217.048
12.0394
89.5162
184.354
0.000742369
0.0016881
6.69845
5.3411
0.0147708
0.000747248
0.90328
2.02786
0.00116196
0.00075862
286.855
6.43345
47.5734
10.7438
0.00281612
0.00102257
0.353711
99.6232
0.000800241
19.9216
42.9287
1.7402
177.848
0.000965649
0.447158
0.000739175
3.17872
83.5198
0.00280894
0.176497
56.6767
148.652
0.475422
93.2314
5.29248
0.213849
0.000972885
30.4762
316.084
0.000742035
0.000744299
142.952
0.0142618
0.000758121
69.0771
8.25981
167.772
40.4539
39.2643
0.278857
16.401
216.494
148.266
281.385
0.000755076
301.503
0.000937546
25.9808
0.000877444
0.00126485
62.5375
0.00212011
264.818
0.0120785
0.0294307
46.2269
7.9971
3.61774
0.000856525
176.747
0.000849651
0.000727887
330.099
155.099
38.974
39.2863
0.000787814
0.000719128
18.0466
143.399
0.000722849
200.733
37.9692
0.000747327
165.132
0.000725593
3.74733
6.2271
10.0629
1.31649
79.1807
15.6577
0.000725162
260.874
317.312
0.00074109
0.0153215
40.2809
0.000727844
234.197
166.534
411.188
0.000742388
0.000729582
240.34
0.118734
0.000834843
31.4653
82.6016
290.486
0.000726963
0.000806726
0.0144129
0.0116617
0.000745144
0.00206433
121.875
62.2172
0.000743179
11.5213
0.000746249
10.8755
0.00112701
0.000834926
25.3282
0.000737883
0.233411
0.000731276
43.6372
6.02859
17.7028
181.331
367.852
188.03
4.70536
21.5375
0.000758201
5.16303
271.514
538.061
0.143636
0.000804482
124.176
0.000744781
0.221784
0.000728004
435.572
16.5395
3.45211
185.659
52.8152
5.42405
76.8424
8.03646
219.509
110.6
0.000759972
0.000789919
0.00290698
0.000905502
0.0132617
87.0101
0.000958442
234.526
0.00177561
0.0651134
2.73034
178.945
0.00140299
38.4546
0.0155864
45.8538
28.3824
434.713
0.000886359
0.000987375
3.64841
83.4693
78.8902
62.9755
1.68199
9.89284
16.4701
0.0632121
7.16919
2.99769
45.1986
0.0007438
399.174
1.30666
54.087
0.000766818
51.32
17.0649
0.00363564
92.6192
16.3287
0.0757434
0.000736062
0.000743312
235.448
46.9025
16.4169
0.000729609
0.00880002
71.5165
183.535
6.5104
0.00538749
0.00072713
136.357
124.428
49.5028
33.4198
0.000740139
133.332
425.92
0.000746711
0.000748847
18.8479
0.00156306
0.0035046
2.24031
48.1726
0.00109499
48.3948
335.018
0.000776353
0.000841393
0.000731545
0.00075221
63.2752
523.971
320.381
0.0188605
30.7769
64.2406
0.130252
41.8572
0.000948791
47.2419
0.514487
41.2494
5.25505
84.6595
137.348
0.169278
0.000758521
155.166
98.4553
313.315
5.21241
42.3219
0.528428
13.9482
0.00335538
0.00124103
194.844
137.835
0.042873
7.73161
0.000748798
0.0913033
18.1669
0.030962
14.0723
9.44624
400.092
52.2093
1.70665
269.245
135.672
67.2241
14.3437
240.421
200.958
3.13679
36.4906
0.00847205
46.0356
43.4893
0.000743108
0.00072861
0.232658
0.000744847
0.0008042
68.088
311.653
0.000741547
97.3998
0.000742411
0.000735908
0.00073207
0.000779486
0.00175346
40.7911
37.2053
244.351
0.000740061
0.00100037
6.08609
0.000822245
0.0282286
0.000762658
0.000820736
200.649
0.000941175
0.00441654
200.296
0.00400452
0.000748705
228.266
0.000743594
0.000753331
2.27316
0.000835762
9.73403
0.00128959
0.0216122
0.000743609
0.000755606
295.323
409.453
38.5125
0.0250602
149.11
14.6748
0.00135074
37.8152
316.444
230.345
483.717
0.000776979
19.6756
56.0872
0.239131
40.3018
102.927
0.338147
43.5607
1.57752
40.8631
3.01713
7.08233
0.000757363
207.276
0.000962559
41.5488
29.9666
0.000747315
0.875338
0.00221642
0.0114556
0.000737024
3.6392
0.000856575
0.000749368
52.8525
0.0367542
0.149981
225.917
155.736
0.000851424
0.000998713
28.3312
253.887
0.000735632
0.000748182
0.233506
24.5699
142.586
0.00212018
14.5415
0.0007423
0.000795003
0.00072481
0.0260261
25.7558
0.00416361
277.86
41.7698
252.76
165.501
0.00081236
286.561
63.2191
0.000734057
0.000753983
0.000750402
0.00113083
0.000738426
157.789
0.000745102
0.00074189
358.761
1.07766
0.00241464
0.0112851
88.5282
7.35955
0.0324649
0.000804841
180.694
0.000762587
11.0811
0.000763834
0.000817959
157.254
149.836
0.00310863
0.000917085
14.7069
0.000743792
375.612
0.000760091
139.486
0.0165817
8.87418
0.543719
3.4793
3.56159
30.3713
0.000760417
0.000827699
0.0043881
51.7768
0.218002
295.883
0.000744901
0.00129241
0.00155184
250.704
61.3089
289.517
0.00227483
0.00358496
0.843261
0.000750565
24.1297
36.7884
0.00805975
288.862
175.704
35.7544
0.00147889
1.31848
190.985
216.624
39.2365
0.0104954
161.646
4.15793
123.916
0.130886
2.08752
35.8719
0.0007619
39.3034
0.00118727
0.00455011
0.0150295
0.0422616
0.000865785
10.4199
0.000743054
47.4455
0.126216
0.000828978
2.37736
0.000756626
0.690579
0.200002
52.912
4.00938
110.812
0.691725
0.000747747
0.000726339
9.1469