/*--------------------------------*- C++ -*----------------------------------*\
| =========                 |                                                 |
| \\      /  F ield         | OpenFOAM: The Open Source CFD Toolbox           |
|  \\    /   O peration     | Version:  2.3.1                                 |
|   \\  /    A nd           | Web:      www.OpenFOAM.org                      |
|    \\/     M anipulation  |                                                 |
\*---------------------------------------------------------------------------*/
FoamFile
{
    version     2.0;
    format      ascii;
    class       volScalarField;
    location    "0.88";
    object      epsilon;
}
// * * * * * * * * * * * * * * * * * * * * * * * * * * * * * * * * * * * * * //

dimensions      [0 2 -3 0 0 0 0];

internalField   nonuniform List<scalar> 
9648
(
2424.61
2411.88
2411.4
2405.47
2394.44
2377.99
2356.68
2330.16
2298.37
2261.39
2219.44
2172.64
2121.82
2067.93
2011.77
1954.28
1896.59
1839.72
1784.37
1731.11
1680.49
1632.86
1588.38
1547.23
1509.45
1474.94
1443.6
1415.34
1390.05
1367.54
1347.69
1330.36
1315.39
1302.64
1292.03
1283.38
1276.6
1271.59
1268.33
1266.71
1266.63
1268.07
1271.01
1275.36
1281.17
1288.47
1297.23
1307.42
1319.14
1332.5
1347.52
1364.16
1382.64
1402.95
1425.03
1448.71
1473.74
1499.75
1525.97
1551.83
1576.91
605.12
597.084
588.567
578.67
569.956
564.665
562.026
561.28
562.303
565.243
569.917
575.702
582.197
589.025
595.842
602.268
608.113
613.335
617.919
621.799
625.077
627.82
630.082
631.985
633.659
635.169
636.572
637.945
639.371
640.902
642.56
644.403
646.472
648.762
651.309
654.138
657.241
660.617
664.279
668.256
672.538
677.11
681.981
687.161
692.631
698.42
704.521
710.904
717.548
724.448
731.559
738.849
746.264
753.835
761.421
768.998
776.413
783.774
790.94
797.837
804.425
239.793
243.304
247.892
254.689
263.466
273.835
285.883
299.289
314.02
329.738
346.277
363.216
380.234
397.005
413.241
428.705
443.226
456.711
469.102
480.384
490.584
499.739
507.928
515.238
521.767
527.602
532.828
537.537
541.801
545.694
549.28
552.618
555.755
558.736
561.6
564.372
567.085
569.753
572.395
575.028
577.666
580.324
583.001
585.706
588.44
591.195
593.967
596.736
599.497
602.227
604.922
607.575
610.148
612.693
615.095
617.452
619.668
621.879
623.924
625.848
627.642
133.131
143.602
155.347
168.619
183.403
199.588
217.092
235.706
255.207
275.265
295.586
315.817
335.66
354.827
373.085
390.235
406.154
420.769
434.045
445.994
456.648
466.059
474.311
481.497
487.723
493.092
497.704
501.655
505.025
507.901
510.356
512.457
514.268
515.836
517.206
518.417
519.505
520.49
521.397
522.247
523.058
523.846
524.624
525.4
526.177
526.956
527.737
528.515
529.289
530.052
530.784
531.511
532.205
532.878
533.482
534.074
534.651
535.203
535.711
536.18
536.65
96.6112
109.96
124.918
141.478
159.563
179.04
199.701
221.275
243.445
265.83
288.083
309.848
330.836
350.793
369.526
386.861
402.715
417.048
429.858
441.189
451.09
459.625
466.895
472.998
478.064
482.21
485.545
488.176
490.184
491.661
492.69
493.341
493.688
493.783
493.667
493.386
492.98
492.469
491.883
491.239
490.555
489.854
489.152
488.462
487.784
487.125
486.489
485.871
485.266
484.679
484.091
483.505
482.929
482.352
481.77
481.184
480.619
480.051
479.464
478.869
478.272
82.3764
97.571
114.697
133.621
154.14
176.043
199.021
222.715
246.726
270.615
294.006
316.52
337.905
357.921
376.449
393.306
408.446
421.887
433.638
443.803
452.45
459.632
465.495
470.12
473.676
476.301
478.105
479.216
479.697
479.654
479.181
478.336
477.214
475.871
474.33
472.652
470.888
469.041
467.148
465.227
463.285
461.356
459.457
457.605
455.791
454.025
452.308
450.652
449.042
447.467
445.923
444.401
442.901
441.422
439.954
438.527
437.132
435.743
434.348
432.954
431.549
77.3877
94.1521
113.108
134.017
156.532
180.38
205.147
230.405
255.719
280.534
304.521
327.223
348.477
368.041
385.943
401.898
415.92
428.113
438.452
447.146
454.283
459.86
464.125
467.079
468.975
469.968
470.151
469.709
468.64
467.074
465.136
462.836
460.321
457.633
454.76
451.792
448.811
445.765
442.727
439.701
436.674
433.703
430.802
427.992
425.239
422.565
419.974
417.463
415.033
412.664
410.343
408.059
405.826
403.598
401.4
399.253
397.155
395.103
393.044
390.959
388.893
76.8022
95.0122
115.621
138.273
162.453
187.833
213.968
240.374
266.575
291.881
316.063
338.482
359.189
377.86
394.872
409.642
422.275
433.03
441.694
448.703
454.188
457.966
460.579
461.721
461.862
461.163
459.675
457.702
455.072
451.997
448.661
444.949
441.119
437.165
433.028
428.856
424.734
420.524
416.417
412.369
408.326
404.373
400.573
396.896
393.283
389.811
386.418
383.156
379.984
376.907
373.894
370.938
368.034
365.116
362.248
359.475
356.727
354.089
351.408
348.685
346.054
78.3212
97.6671
119.725
143.688
169.324
195.813
222.845
250.213
276.816
302.438
326.44
348.463
368.237
385.73
401.627
415.107
426.27
435.436
442.651
448.002
451.588
453.512
454.21
453.732
452.187
449.645
446.59
443.132
438.832
434.293
429.487
424.528
419.653
414.431
408.916
403.721
398.35
392.934
387.84
382.633
377.459
372.273
367.74
363.215
358.677
354.593
350.257
346.343
342.25
338.448
334.53
330.954
327.452
323.782
320.219
316.975
313.471
310.526
307.169
303.696
300.607
1601.33
1624.94
1647.45
1668.84
1689.3
1709.25
1728.8
1748.26
1767.46
1785.69
1802.64
1818.84
1834.54
1850.15
1865.85
1882.33
1900.16
1919.83
1941.71
1966.27
1993.19
2021.96
2052.18
2083.46
2115.45
2148.11
2181.6
2215.56
2249.98
2284.88
2320.44
2356.53
2393.17
2430.51
2468.56
2507.21
2546.59
2586.82
2627.96
2669.87
2712.57
2756.32
2801.08
2846.69
2893.48
2941.31
2990.07
3039.8
3090.71
3142.83
3196.09
3250.38
3306.24
3363.27
3421.84
3481.73
3543.7
3607.71
3673.78
3741.8
3811.9
810.679
817.008
823.161
829.062
834.733
840.295
845.895
851.383
856.956
862.285
867.574
872.761
877.961
883.193
888.449
893.778
899.195
904.745
910.417
916.185
922.01
927.83
933.626
939.375
945.067
950.68
956.144
961.431
966.537
971.484
976.29
980.93
985.421
989.787
994.021
998.124
1002.12
1006
1009.77
1013.43
1016.98
1020.47
1023.84
1027.12
1030.31
1033.41
1036.4
1039.27
1042.06
1044.75
1047.33
1049.8
1052.17
1054.59
1056.82
1059.13
1061.4
1063.88
1066.24
1068.65
1071.18
629.404
631.088
632.818
634.516
636.187
637.76
639.405
640.953
642.481
643.867
645.205
646.491
647.796
649.072
650.322
651.535
652.706
653.832
654.903
655.906
656.828
657.669
658.417
659.069
659.619
660.066
660.403
660.629
660.733
660.722
660.587
660.331
659.959
659.465
658.866
658.157
657.34
656.413
655.378
654.231
652.978
651.624
650.176
648.617
646.96
645.193
643.303
641.283
639.14
636.876
634.463
631.95
629.297
626.535
623.581
620.544
617.418
614.215
610.925
607.58
604.242
537.092
537.532
537.939
538.331
538.69
539.018
539.305
539.581
539.787
539.892
539.936
539.938
539.877
539.735
539.54
539.28
538.956
538.562
538.089
537.531
536.889
536.162
535.354
534.46
533.476
532.393
531.216
529.942
528.571
527.103
525.539
523.869
522.097
520.228
518.272
516.226
514.09
511.864
509.543
507.13
504.63
502.056
499.41
496.7
493.926
491.086
488.158
485.141
482.031
478.843
475.55
472.162
468.689
465.117
461.419
457.602
453.713
449.736
445.701
441.645
437.591
477.677
477.054
476.405
475.724
475.013
474.239
473.411
472.58
471.744
470.858
469.938
468.975
467.953
466.876
465.74
464.542
463.311
462.012
460.643
459.201
457.691
456.12
454.492
452.81
451.068
449.259
447.38
445.431
443.419
441.342
439.196
436.969
434.663
432.281
429.837
427.33
424.757
422.111
419.385
416.583
413.718
410.795
407.831
404.839
401.827
398.794
395.706
392.587
389.402
386.172
382.876
379.503
376.074
372.574
368.979
365.283
361.505
357.639
353.75
349.844
345.938
430.154
428.747
427.331
425.869
424.381
422.858
421.294
419.716
418.096
416.454
414.774
413.073
411.336
409.552
407.726
405.868
403.987
402.046
400.042
397.977
395.859
393.7
391.513
389.307
387.065
384.779
382.448
380.073
377.67
375.241
372.78
370.262
367.69
365.059
362.393
359.69
356.934
354.127
351.249
348.302
345.3
342.249
339.175
336.104
333.053
330.034
326.99
323.957
320.896
317.848
314.763
311.617
308.45
305.216
301.935
298.528
295.056
291.508
287.969
284.391
280.833
386.843
384.801
382.751
380.686
378.583
376.436
374.259
372.083
369.872
367.614
365.347
363.078
360.779
358.46
356.1
353.729
351.363
348.952
346.479
343.939
341.347
338.74
336.126
333.531
330.931
328.298
325.638
322.945
320.265
317.605
314.983
312.327
309.658
306.942
304.233
301.505
298.721
295.904
293.027
290.085
287.083
284.015
280.929
277.857
274.826
271.899
268.953
266.089
263.217
260.451
257.69
254.851
252.024
249.14
246.249
243.181
240.098
236.905
233.804
230.634
227.513
343.422
340.848
338.263
335.72
333.151
330.596
327.97
325.417
322.837
320.149
317.469
314.839
312.168
309.48
306.719
303.994
301.351
298.672
295.932
293.056
290.106
287.184
284.25
281.365
278.545
275.694
272.818
269.854
266.919
264.069
261.394
258.704
256.093
253.454
250.897
248.36
245.692
242.961
240.22
237.469
234.615
231.636
228.633
225.627
222.643
219.876
217.028
214.361
211.683
209.282
206.949
204.469
202.042
199.553
197.121
194.4
191.741
188.913
186.32
183.61
180.999
297.276
294.196
290.947
288.055
285
282.376
279.411
276.876
274.312
271.519
268.724
266.194
263.421
260.677
257.656
254.618
251.939
249.359
246.788
243.965
240.731
237.72
234.635
231.523
228.598
225.729
222.964
219.875
216.579
213.478
210.775
208.068
205.586
203.161
201.084
199.081
196.761
194.155
191.636
189.312
186.92
184.158
181.317
178.522
175.633
173.125
170.284
167.815
165.225
163.313
161.513
159.394
157.458
155.442
153.583
151.163
148.964
146.431
144.399
142.186
140.195
3885.13
3961.02
4038.95
4118.94
4201.43
4287.33
4376.09
4467.65
4561.71
4658.46
4758.29
4859.91
4963.8
5074.29
5213.76
5339.9
5465.95
5594.56
5725.69
5859.31
5995.74
6135.05
6276.82
6421.29
6568.21
6716.86
6866.97
7018.27
7170.57
7322.98
7475.43
7627.28
7777.67
7925.98
8071.71
8213.42
8349.96
8479.84
8594.55
8679.06
8736.6
8768.76
8775.36
8754.64
8705.02
8624.03
8507.65
8351.24
8150.49
7900.78
7595.88
7228.97
6794.88
6286.01
5676.34
4728.33
4308.54
4097.81
4014.5
3975.25
3895.34
1073.95
1076.82
1079.91
1083.05
1086.29
1089.77
1093.78
1098.2
1103.09
1108.26
1113.91
1117.25
1118.72
1121.79
1125.49
1130.67
1135.95
1141.16
1146.51
1152.11
1157.98
1164.16
1170.6
1177.32
1184.3
1191.5
1198.99
1206.75
1214.86
1223.36
1232.29
1241.71
1251.75
1262.52
1274.14
1286.84
1300.8
1316.38
1335.03
1364.7
1400.55
1439.35
1481.34
1526.66
1575.99
1629.69
1687.82
1750.67
1818.52
1890.93
1967.03
2045.21
2123.87
2202
2272.3
2338.85
2398.69
2485.95
2590.4
2698.74
2659.43
600.882
597.527
594.14
590.734
587.274
583.84
580.518
577.348
574.242
571.1
567.443
561.866
556.08
551.091
546.612
542.759
538.983
535.101
531.158
527.207
523.288
519.399
515.532
511.688
507.861
504.05
500.262
496.502
492.789
489.12
485.515
481.998
478.578
475.301
472.193
469.305
466.681
464.394
462.588
461.751
462.077
466.638
474.993
486.655
502.081
521.925
546.903
578.038
616.324
662.838
718.591
784.376
861.392
950.014
1050.18
1158.74
1266.58
1384.36
1528.33
1714.26
1904.64
433.543
429.507
425.472
421.422
417.327
413.234
409.192
405.247
401.277
397.209
392.304
386.406
380.736
375.591
370.835
366.431
362.129
357.839
353.545
349.274
345.027
340.787
336.562
332.356
328.164
323.996
319.854
315.738
311.649
307.591
303.565
299.577
295.638
291.76
287.952
284.235
280.627
277.147
273.82
270.708
267.89
265.671
264.728
265.489
267.829
272.088
278.726
288.392
301.923
320.339
345.042
377.354
418.931
470.905
533.987
606.289
683.655
767.453
865.864
992.499
1151.55
342.052
338.229
334.428
330.605
326.717
322.829
318.959
315.171
311.351
307.416
302.685
297.481
292.575
288.063
283.801
279.776
275.846
272.005
268.216
264.489
260.802
257.104
253.426
249.776
246.141
242.536
238.959
235.411
231.884
228.38
224.898
221.447
218.031
214.66
211.342
208.088
204.91
201.818
198.822
195.938
193.192
190.647
188.432
186.892
186.15
186.22
187.323
189.758
193.953
200.443
210.016
223.67
242.597
268.058
301.086
341.842
388.953
441.918
502.941
577.514
672.054
277.275
273.838
270.43
267.022
263.475
259.935
256.385
252.951
249.489
245.959
241.723
237.31
233.175
229.38
225.724
222.232
218.798
215.511
212.31
209.206
206.151
203.056
199.998
196.984
193.981
191.018
188.074
185.163
182.257
179.367
176.487
173.636
170.813
168.033
165.3
162.626
160.016
157.481
155.022
152.651
150.379
148.229
146.239
144.497
143.24
142.371
142.009
142.274
143.369
145.566
149.231
154.882
163.184
174.903
190.915
211.797
237.689
268.659
305.309
349.259
403.607
224.308
221.297
218.328
215.409
212.234
209.088
205.88
202.871
199.842
196.841
193.16
189.495
186.052
182.969
179.903
176.979
174.04
171.321
168.69
166.177
163.717
161.158
158.681
156.291
153.892
151.546
149.193
146.881
144.543
142.219
139.883
137.589
135.32
133.105
130.929
128.816
126.757
124.771
122.851
121.014
119.261
117.614
116.082
114.696
113.516
112.696
112.141
111.916
112.121
112.888
114.4
116.907
120.723
126.276
134.034
144.492
158.067
175.085
196.006
221.603
253.141
178.134
175.549
173.047
170.693
167.907
165.193
162.321
159.796
157.25
154.855
151.705
148.708
145.857
143.453
140.916
138.561
136.072
133.909
131.808
129.812
127.879
125.753
123.791
122.025
120.182
118.385
116.529
114.759
112.893
111.049
109.159
107.361
105.579
103.888
102.21
100.609
99.0342
97.5395
96.1032
94.7631
93.496
92.3384
91.2912
90.3491
89.5423
88.9669
88.5958
88.4114
88.4783
88.8666
89.6732
91.0177
93.067
96.0143
100.106
105.625
112.866
122.163
133.882
148.517
166.722
137.634
135.408
133.392
131.689
129.289
127.032
124.447
122.493
120.465
118.713
116.037
113.615
111.212
109.466
107.34
105.569
103.433
101.838
100.201
98.5761
97.0861
95.2471
93.7476
92.6981
91.3144
89.9106
88.4005
87.1295
85.5764
84.0962
82.4856
81.161
79.7799
78.5788
77.2961
76.1329
74.8867
73.7797
72.7407
71.8336
71.0004
70.2702
69.6597
69.1359
68.6505
68.2729
68.0745
67.9882
68.1225
68.4003
69.0576
70.0114
71.4657
73.3807
75.9666
79.2565
83.5376
88.9008
95.7328
104.299
114.943
3751.54
3593.75
3424.63
3246.61
3068.69
2896.22
2732.52
2581.94
2448.28
2333.73
2238.83
2162.65
2103.67
2059.72
2028.13
2006.32
1992.11
1983.89
1980.22
1979.86
1982.1
1986.4
1992.25
1999.62
2008.45
2018.36
2029.5
2041.77
2055.25
2069.81
2085.43
2102.05
2119.53
2137.66
2156.32
2175.21
2194
2212.41
2230.22
2247.08
2262.54
2276.35
2288.34
2298.29
2306.28
2312.55
2317.24
2320.61
2323.26
2326
2329.24
2333.27
2338.7
2345.77
2354.25
2363.89
2374.44
2385.89
2397.22
2407.39
2415.82
2468.25
2264.52
2065.73
1874.62
1707.41
1552.87
1409.95
1279.32
1161.28
1056.67
965.695
887.912
822.446
767.787
723.688
689.383
663.071
642.838
627.156
614.932
605.393
597.937
592.192
587.796
584.832
582.79
581.838
581.858
582.844
584.786
587.7
591.569
596.39
602.134
608.754
616.184
624.303
633
642.117
651.457
660.746
669.622
677.657
684.379
689.337
692.083
692.227
689.579
684.23
676.562
667.195
656.984
646.936
637.956
630.517
625.064
621.367
619.054
616.969
614.093
609.935
1993.37
1982.4
1883.43
1710.63
1531.8
1358.33
1189.56
1035.98
898.643
776.819
671.471
582.224
507.921
447.333
399.519
362.741
334.391
311.956
294.196
280.27
269.347
260.744
253.931
248.512
244.136
240.682
237.922
235.817
234.297
233.33
232.886
232.963
233.544
234.595
236.094
238.002
240.283
242.896
245.783
248.868
252.056
255.239
258.288
261.027
263.282
264.836
265.473
264.993
263.267
260.228
255.955
250.753
245.084
239.562
234.726
231.21
229.337
229.187
230.455
232.787
236.062
1317.64
1465.87
1565.06
1585.03
1518.57
1395.24
1228.73
1058.55
901.38
756.362
629.609
523.383
435.638
365.173
309.828
266.756
233.242
206.762
185.95
169.764
157.265
147.672
140.318
134.643
130.192
126.677
123.872
121.64
119.884
118.534
117.55
116.906
116.574
116.519
116.702
117.088
117.642
118.327
119.101
119.916
120.719
121.458
122.072
122.501
122.683
122.559
122.077
121.198
119.905
118.19
116.08
113.676
111.151
108.757
106.807
105.789
106.167
108.172
111.851
117.174
124.268
787.841
922.679
1065.98
1194.65
1278.52
1299.7
1252.69
1149.37
1014.16
860.706
713.09
586.326
477.256
387.858
316.93
260.751
216.654
182.132
155.143
134.271
118.323
106.321
97.3703
90.678
85.6083
81.7106
78.6816
76.3147
74.468
73.031
71.9404
71.1594
70.6488
70.3643
70.2643
70.3109
70.4676
70.698
70.9658
71.2306
71.4497
71.5823
71.5886
71.4306
71.0743
70.4938
69.6786
68.6297
67.3522
65.8725
64.2371
62.5283
60.8877
59.5055
58.6691
58.6431
59.9634
63.0361
68.16
75.5564
85.1071
471.4
555.805
657.939
774.162
892.554
995.577
1063
1079.01
1040.82
955.964
840.915
715.008
587.838
475.614
383.951
308.235
248.063
200.459
162.521
133.166
110.983
94.6086
82.6964
74.0124
67.5981
62.7814
59.1303
56.3492
54.2292
52.6032
51.3752
50.4895
49.8935
49.5311
49.3536
49.3195
49.3894
49.5283
49.7007
49.8697
49.9969
50.049
49.9913
49.7951
49.4306
48.8812
48.1412
47.2198
46.1229
44.8761
43.5205
42.1305
40.8238
39.7718
39.235
39.5646
41.2186
44.692
50.4207
58.6503
69.3739
292.332
341.409
402.727
477.864
566.038
662.78
758.362
838.76
889.49
899.716
866.779
797.624
704.14
600.166
497.8
401.042
320.471
254.804
199.941
156.897
124.201
100.345
83.3602
71.226
62.4369
55.9504
51.1264
47.5319
44.8563
42.8362
41.3241
40.233
39.4907
39.0211
38.764
38.6689
38.6921
38.7964
38.9459
39.1047
39.2354
39.3111
39.298
39.1723
38.9019
38.478
37.893
37.1597
36.2773
35.2737
34.181
33.0674
32.0363
31.2347
30.8983
31.3904
33.1456
36.746
42.7537
51.529
63.1489
189.448
217.901
253.637
298.292
353.224
418.751
493.281
572.003
647.13
707.982
743.946
748.394
721.109
666.234
592.457
508.071
423.04
342.832
266.893
205.349
156.617
121.071
96.2175
78.6585
66.0171
56.744
49.9193
44.9376
41.3223
38.6279
36.6287
35.1808
34.1845
33.5308
33.1399
32.9466
32.8977
32.9516
33.0695
33.2146
33.3483
33.451
33.4871
33.4372
33.2627
32.9632
32.5246
31.9661
31.2781
30.4907
29.6295
28.7596
27.9724
27.3981
27.2607
27.8925
29.7338
33.4509
39.6971
48.9689
61.4189
128.333
144.981
165.822
192.118
224.929
265.317
313.713
369.697
430.915
493.444
549.544
593.116
617.677
620.241
599.007
556.063
497.252
426.736
353.506
278.665
208.961
157.805
122.222
96.8672
78.18
64.4306
54.3257
47.0846
41.9383
38.1365
35.3512
33.32
31.9111
30.9601
30.3539
30.0003
29.8316
29.7961
29.8518
29.9537
30.0666
30.1754
30.2427
30.2498
30.1545
29.9584
29.6475
29.2379
28.7187
28.1155
27.4569
26.803
26.2446
25.8977
25.9674
26.7766
28.7701
32.6472
39.1202
48.8231
61.9371
1.58368
218.339
195.018
2.34899
2.29538
0.203068
0.000719941
91.4658
0.000796377
0.0146684
94.6015
7.00425
0.000720846
249.362
0.16622
134.032
0.000757413
92.9481
119.356
0.000716229
2.34598
237.695
207.248
0.000767068
0.000781105
0.209376
0.000717343
8.10245
0.000753178
0.0008198
6.61516
0.000742964
0.00876644
63.0815
3.97801
113.095
72.3456
15.8406
0.000723271
44.7618
64.647
29.1551
0.000743321
101.819
173.416
0.715467
0.00086917
0.00866523
1.30154
7.21782
376.152
359.638
0.000698506
0.00102944
0.0650181
0.0359163
0.000816904
9.21642
59.1499
287.321
139.9
0.000905926
1.53745
0.0250149
203.284
2.38135
38.7386
64.3961
0.00113266
0.000747678
9.74854
40.7386
55.6566
0.0376802
0.0519075
79.4618
234.094
55.4457
0.00070022
5.46964
0.00234247
47.4756
0.0127508
109.231
0.000749937
8.63846
0.000791075
36.81
0.0112134
0.00136784
0.230494
0.000698528
0.000933893
311.386
144.056
0.000867311
1.58172
1.88396
0.00184785
206.899
1.01796
31.766
5.82548
0.00069693
0.000725955
0.000694282
1.39342
0.20959
0.000748067
173.938
222.428
0.00480399
237.858
26.6501
114.912
53.5358
28.2937
0.000977882
0.11046
0.00110567
0.00162576
190.685
0.00308202
288.04
419.545
28.9113
0.000746027
7.15227
7.00494
0.000743937
0.0299237
0.026894
91.6547
0.00187071
62.7755
0.00074885
0.000723806
398.313
355.035
0.000748817
0.767133
149.617
0.228905
0.906703
26.7932
119.189
0.305592
27.7619
0.00525753
283.622
11.0189
0.0385547
48.8128
106.872
189.518
0.000766068
0.000757201
0.512611
0.000695752
41.4074
0.114908
0.00144912
0.000740438
0.000747489
0.000758572
40.4449
71.0132
34.1708
0.000768689
292.019
309.217
402.894
165.976
0.00692623
158.151
42.4064
28.3054
0.000750052
0.00169661
193.247
68.2044
30.0543
72.0602
0.000745355
0.000842049
241.882
0.0295817
2.48741
0.000757823
0.000867215
0.1728
0.000797934
338.13
3.98756
0.000691356
0.679898
91.1059
146.386
0.00119816
52.7931
0.000746624
0.000750205
107.389
32.426
309.505
0.00121521
0.000800646
0.00286757
41.2699
77.2593
9.80797
125.914
14.2489
231.578
0.812826
85.5177
81.6517
27.8795
10.7332
39.1662
0.00144247
0.0293374
0.000747671
0.000726416
28.403
0.0100227
0.0117519
0.0019796
0.00628782
46.9173
197.352
0.0111253
175.182
7.52179
2.88921
0.000732467
0.543681
38.3179
7.27366
0.00106367
12.9201
36.2703
0.873119
2.43331
271.195
7.38265
5.09918
121.433
0.000955304
0.000724123
0.00102679
0.00428462
28.8265
0.000784604
0.00249421
0.000723664
1.7371
75.3358
76.2953
49.2396
11.9762
11.4431
327.244
0.00114052
48.2328
98.4148
0.000743913
80.185
0.000749608
332.62
1.73512
49.746
0.00154769
0.000748496
20.2872
7.91216
0.000759627
0.000750554
0.000755354
0.000751518
1.18469
35.5016
44.3255
0.0110073
0.000760436
0.000724425
0.000696029
103.485
1.20403
0.00119055
18.8142
0.116308
0.0988005
0.000692293
0.78403
0.000760156
0.109715
47.5133
276.761
3.15913
0.000978214
0.00184845
56.1353
0.353074
129.628
324.157
0.000838128
0.00073992
0.000733987
154.846
0.000773574
135.858
0.000749844
24.2782
12.2615
0.0242958
138.816
241.737
0.00127207
50.0657
50.5453
89.0413
90.3834
9.7113
353.143
38.7185
70.9484
142.677
93.9668
55.8676
0.338525
340.795
280.943
62.8084
33.5716
0.00100257
276.59
123.625
228.493
0.0187941
0.000867378
0.000745771
0.000811611
0.69042
1.56289
6.53518
0.124671
0.00072633
170.528
0.000746383
26.5993
23.277
191.226
42.9231
18.7256
0.00192807
0.00110662
0.476234
84.0669
0.00437669
7.96471
262.572
36.0088
83.353
199.266
61.3138
0.000821369
283.394
143.142
96.2996
0.000750475
195.472
152.398
0.000781434
30.5667
0.000751606
403.077
173.703
28.1897
80.7395
111.771
148.672
0.000764763
147.628
0.000964866
68.5329
80.6167
28.3407
279.574
3.64723
0.492404
2.57808
0.00110047
440.695
1.48971
0.00290397
0.00182246
258.903
0.000953284
91.8405
0.000737607
0.00075001
0.00183788
31.14
0.192775
21.519
0.00197924
82.6882
0.307724
223.471
280.029
37.8924
345.494
0.000794018
279.146
42.2326
0.000742253
78.0648
25.3912
0.000696642
0.000727445
116.966
0.00206307
27.7093
0.474492
73.8328
0.0176764
3.41698
39.1798
122.229
32.5161
85.2997
68.6788
0.00100225
0.0343979
28.761
22.3645
332.189
347.412
145.662
0.0846188
123.225
122.167
3.32588
91.8549
45.4073
25.6881
0.000822706
83.6516
387.753
0.00107595
90.4146
19.1623
46.0406
0.0153197
0.0893848
272.648
0.00193058
328.331
0.00124704
1.87266
0.00073804
7.77916
167.458
0.555359
0.00132167
0.000902968
74.1936
26.9561
0.365803
5.7115
298.674
542.838
0.00139353
11.6919
27.4013
71.3317
26.2926
449.461
28.876
154.977
51.6994
3.48787
7.19274
302.815
53.7575
356.028
170.653
0.236024
173.808
59.4943
0.000792138
92.7031
28.9229
13.0057
0.00978689
96.4535
44.9569
4.11757
52.7131
0.00159254
0.000747174
0.154002
28.4346
110.48
73.5466
0.00075021
0.000731316
0.000743856
28.4055
0.0281351
0.000745729
0.245855
94.479
276.505
0.00441249
0.00453845
0.00072152
0.000738751
0.0019399
29.1357
100.379
21.8852
1.89009
301.827
390.154
0.00151077
64.2955
27.947
28.5491
75.0462
441.466
0.000821932
0.00447151
0.000750887
396.363
0.773976
0.000726906
10.5237
0.352258
303.435
0.000759335
329.381
8.70101
0.0668263
201.195
0.000748076
0.000736431
0.00102743
408.252
52.8576
129.374
324.397
10.7253
28.6113
0.000708817
0.00184714
0.476398
0.0152928
0.0163399
176.721
41.0321
0.000747842
25.513
45.1159
185.254
410.761
0.00294713
413.775
0.00182768
0.0217918
147.087
0.000739241
144.685
0.000759584
0.00079155
0.0215134
34.3652
2.93074
321.433
61.3585
0.000886304
28.5742
502.878
0.208825
2.25864
7.34021
0.000774735
0.000759609
0.002308
134.037
5.58381
0.000783662
273.124
282.512
216.231
0.110238
60.0113
0.00109065
29.9188
0.555967
0.131024
123.719
29.6712
149.283
172.84
0.000761108
0.000711612
0.00494734
73.1086
103.507
5.91851
0.00659177
0.000772764
0.000749909
0.00344476
0.128746
0.00211511
72.9543
21.516
0.00498493
26.4584
172.718
0.000760541
38.2627
0.000742616
3.24924
0.000762491
0.0132256
39.3514
0.0116423
0.000744595
4.05542
368.697
269.078
0.000731087
0.000748536
1.5444
0.139169
0.000747736
102.283
0.000905376
31.8567
381
29.7842
87.9393
293.98
132.991
337.157
0.000747581
0.00250242
0.0112172
293.521
60.7387
202.59
5.45713
4.50888
99.6051
166.104
129.697
4.91428
48.2041
0.000750538
1.51227
38.8964
33.1421
313.065
27.388
1.1742
40.6891
0.203172
0.00982595
39.3097
0.000750989
177.688
0.000887428
2.72285
293.146
185.475
3.00612
0.00251029
6.99792
0.000768728
0.000736238
0.198712
0.0135005
49.3913
0.00877918
28.8134
0.000750519
0.0190393
0.000725477
94.4412
0.00181607
85.8955
299.542
0.0143444
166.681
381.276
0.000756984
98.212
224.49
0.000785764
287.38
0.276717
0.000825285
0.000791656
288.264
0.000731619
0.00111907
0.122108
0.214194
437.497
270.881
0.000751498
0.000754644
9.11753
27.6649
0.00710457
2.29978
22.1779
0.000747666
0.000953915
0.000912771
167.498
270.711
3.35423
302.748
0.0171754
26.6735
0.000772276
0.00718241
0.0160288
0.0435902
0.000749662
303.618
0.000741929
0.0160683
0.0007718
1.32532
0.0148471
0.0393028
2.48391
5.02831
35.0657
2.15371
9.2409
27.9535
189.676
0.00081631
165.643
329.036
12.5164
74.7246
0.000761811
268.623
79.7337
0.000745625
417.506
66.4137
0.00618352
0.0242388
160.08
159.26
0.221462
317.645
415.944
4.41845
436.917
267.776
126.872
50.6143
22.0322
28.7667
266.254
294.83
0.0143083
316.526
41.9756
407.65
0.000813457
1.56247
2.73983
223.706
165.663
0.0118329
444.637
193.909
7.21667
0.0562315
2.75073
28.1386
0.0015474
28.2909
445.432
0.0293439
219.959
13.9298
92.4653
189.02
0.00074605
0.00167957
7.35042
5.243
0.0134344
0.000748298
0.831645
1.86874
0.00120854
0.000758695
268.318
7.01797
52.1907
10.4975
0.00314722
0.00107561
0.414451
87.7642
0.000823895
21.473
29.7175
1.84762
164.865
0.0010051
0.403191
0.000740602
1.79408
86.0702
0.00162763
0.185027
40.9206
172.052
0.502492
94.4998
5.05055
0.900804
0.000987711
32.6454
337.82
0.000744063
0.000755915
147.07
0.0157943
0.000758246
72.144
2.08619
162.954
29.6968
38.0834
0.312703
17.1854
205.233
166.594
245.979
0.000763217
278.183
0.000969448
37.5375
0.00079715
0.00146699
45.1014
0.00209796
257.064
0.0121939
0.032307
45.0777
7.66484
0.578928
0.000897175
186.13
0.000886726
0.000719257
348.555
161.195
40.7115
28.7782
0.000813739
0.000683414
19.1209
147.931
0.000732475
224.831
36.9892
0.000752878
167.684
0.000702653
3.48575
6.41284
10.7005
1.50879
76.0801
21.0828
0.00070088
271.012
335.421
0.00074449
0.0135367
28.96
0.000708997
237.357
162.316
404.667
0.000745525
0.000727856
201.615
0.099649
0.000836872
30.8583
80.1713
256.929
0.000720915
0.000794048
0.0157652
0.0116325
0.000746811
0.00203236
124.439
50.8512
0.000746649
13.0885
0.000747039
10.2553
0.00109127
0.000866959
27.025
0.000748753
0.353024
0.000730522
49.1322
2.14755
19.8833
184.033
362.202
146.639
5.15312
15.0335
0.000758249
5.66542
278.313
528.626
0.156279
0.000826585
128.18
0.000746075
0.115351
0.000720615
446.393
15.395
3.23417
198.547
51.6862
5.09687
79.4415
7.72012
222.229
112.506
0.000773747
0.000756313
0.0030889
0.000737087
0.0140752
101.323
0.000932345
254.597
0.00186752
0.297253
3.02113
153.212
0.00136058
41.0831
0.0137836
57.9597
30.2054
442.144
0.000796141
0.00095531
1.42959
84.2729
65.0318
65.2317
1.92766
7.97683
19.7568
0.0626639
10.7794
1.78337
30.1159
0.000756708
395.199
1.43456
55.5409
0.000787971
52.6565
16.3886
0.00185108
88.2751
17.28
0.0846231
0.000715202
0.000746004
204.13
47.6285
14.9416
0.000737832
0.00955068
50.5478
186.275
3.43657
0.00586227
0.000735819
149.001
129.728
35.8687
35.4
0.000743607
100.696
439.692
0.000746914
0.000749292
18.2301
0.0012632
0.00386851
0.223939
46.9671
0.00105255
36.3956
346.518
0.000731943
0.000821711
0.00072746
0.000769917
65.8284
517.693
339.799
0.0205818
33.3491
47.2642
0.133021
44.0064
0.00082444
31.2725
0.532789
30.6063
5.1647
81.6712
99.9207
0.148058
0.000759142
158.34
85.095
282.992
5.71925
29.8378
0.52173
21.1632
0.00353335
0.00133444
150.938
142.599
0.0342785
1.20695
0.000753975
0.0994415
19.5993
0.028304
13.5695
4.36288
386.074
36.7716
1.74328
280.552
138.218
56.5846
15.5029
200.577
189.746
3.15227
37.9991
0.00360025
46.9419
45.1971
0.000743455
0.000711094
0.356386
0.000748439
0.00077556
57.6122
298.492
0.000744607
84.1773
0.000744927
0.000736799
0.000740814
0.000752956
0.0018149
29.6616
45.6026
249.206
0.000718838
0.00106388
6.65625
0.000855063
0.0283288
0.000762783
0.000866268
166.427
0.000983042
0.00467462
182.742
0.00425673
0.000749447
186.653
0.000745367
0.000760513
1.50238
0.000870653
6.59122
0.00123992
0.0241014
0.000743842
0.000753559
305.251
425.279
43.8239
0.0238296
107.199
15.874
0.00130286
27.774
310.968
233.251
477.888
0.000700853
28.376
55.5256
0.261422
28.6121
100.961
0.351148
31.6833
1.0478
28.4857
0.290928
7.40374
0.000757623
224.499
0.000757281
28.6991
31.8527
0.000747867
0.917379
0.00245596
0.0292321
0.00072652
3.88328
0.000893674
0.00074192
40.3619
0.0363103
0.164845
228.736
151.209
0.000819312
0.000968496
30.0768
261.982
0.000690399
0.000753949
0.202185
23.8444
145.073
0.00209648
15.7356
0.000745426
0.000818163
0.000718505
0.027907
24.1842
0.00409452
278.489
29.7114
259.981
172.861
0.000843037
307.168
65.6901
0.000732726
0.000754065
0.000750338
0.00115943
0.00074021
122.962
0.000745391
0.000750358
357.807
1.20081
0.00267684
0.0347888
56.6203
7.44407
0.0077769
0.000823943
184.879
0.000762691
6.71488
0.000755028
0.000845509
163.07
168.543
0.00334774
0.000835535
3.99637
0.000744254
375.914
0.000753073
153.103
0.0272017
8.51925
0.117176
3.24479
1.9887
29.5371
0.000760955
0.000859914
0.00489418
60.6835
0.291254
304.625
0.000747043
0.00124362
0.00164156
257.779
61.1091
271.903
0.00226099
0.00351489
0.812823
0.000751314
19.9039
37.5576
0.00876705
272.668
178.238
42.0633
0.00154638
1.44039
170.191
227.063
27.9879
0.010573
118.76
0.544733
135.104
0.144247
2.27758
43.1219
0.000761953
28.5905
0.00122378
0.00508928
0.00620817
0.0477467
0.000906949
10.8823
0.000745949
46.497
0.132172
0.000867591
1.61366
0.000756578
0.76308
0.227215
40.399
3.78394
92.7786
0.800732
0.00074839
0.000732228
4.71338
0.159309
42.445