/*--------------------------------*- C++ -*----------------------------------*\
| =========                 |                                                 |
| \\      /  F ield         | OpenFOAM: The Open Source CFD Toolbox           |
|  \\    /   O peration     | Version:  2.3.1                                 |
|   \\  /    A nd           | Web:      www.OpenFOAM.org                      |
|    \\/     M anipulation  |                                                 |
\*---------------------------------------------------------------------------*/
FoamFile
{
    version     2.0;
    format      ascii;
    class       volScalarField;
    location    "0.88";
    object      p;
}
// * * * * * * * * * * * * * * * * * * * * * * * * * * * * * * * * * * * * * //

dimensions      [0 2 -2 0 0 0 0];

internalField   nonuniform List<scalar> 
9648
(
0.197891
-0.0204897
-0.288315
-0.636373
-1.06493
-1.58217
-2.19911
-2.92452
-3.76602
-4.7416
-5.86256
-7.14199
-8.59269
-10.2255
-12.0498
-14.0759
-16.3116
-18.7659
-21.442
-24.3443
-27.4779
-30.8391
-34.4278
-38.2391
-42.2686
-46.5068
-50.9427
-55.5676
-60.3637
-65.3219
-70.4218
-75.6478
-80.9844
-86.4066
-91.9031
-97.4456
-103.021
-108.608
-114.183
-119.726
-125.211
-130.632
-135.95
-141.155
-146.237
-151.162
-155.919
-160.49
-164.881
-169.057
-172.984
-176.666
-180.105
-183.271
-186.167
-188.777
-191.088
-193.107
-194.81
-196.21
-197.296
0.793101
0.56756
0.288292
-0.05731
-0.479298
-0.979587
-1.57042
-2.26603
-3.07852
-4.01706
-5.09292
-6.3181
-7.70383
-9.26066
-10.9985
-12.9263
-15.0519
-17.3823
-19.9223
-22.6759
-25.646
-28.832
-32.2325
-35.8433
-39.6591
-43.672
-47.8723
-52.2497
-56.7907
-61.4831
-66.3102
-71.2563
-76.3054
-81.4379
-86.6371
-91.8827
-97.1576
-102.442
-107.715
-112.957
-118.147
-123.27
-128.299
-133.22
-138.016
-142.663
-147.149
-151.453
-155.564
-159.477
-163.18
-166.655
-169.891
-172.878
-175.599
-178.053
-180.219
-182.11
-183.702
-184.998
-185.982
0.627833
0.410477
0.152539
-0.163949
-0.545167
-1.00914
-1.56266
-2.21733
-2.98356
-3.87472
-4.90144
-6.07583
-7.40873
-8.9102
-10.59
-12.4567
-14.5179
-16.78
-19.2476
-21.9247
-24.8137
-27.9145
-31.2256
-34.7428
-38.4605
-42.371
-46.4652
-50.7328
-55.1613
-59.7379
-64.447
-69.273
-74.1997
-79.2096
-84.2846
-89.4062
-94.5568
-99.7173
-104.868
-109.99
-115.063
-120.069
-124.988
-129.802
-134.494
-139.045
-143.439
-147.66
-151.693
-155.524
-159.144
-162.541
-165.709
-168.625
-171.293
-173.692
-175.831
-177.678
-179.241
-180.519
-181.517
0.866554
0.649257
0.387107
0.0718764
-0.304894
-0.754138
-1.28657
-1.91359
-2.64676
-3.49852
-4.4809
-5.60548
-6.88298
-8.32335
-9.93673
-11.731
-13.7137
-15.8907
-18.2662
-20.8442
-23.6268
-26.6139
-29.8041
-33.1927
-36.7742
-40.5407
-44.4833
-48.5926
-52.8563
-57.2615
-61.794
-66.4377
-71.1771
-75.9963
-80.8772
-85.8017
-90.7535
-95.7135
-100.663
-105.585
-110.46
-115.269
-119.992
-124.613
-129.115
-133.479
-137.692
-141.737
-145.602
-149.272
-152.738
-155.989
-159.016
-161.805
-164.348
-166.636
-168.662
-170.416
-171.894
-173.093
-174.012
0.93187
0.746603
0.516173
0.231348
-0.115213
-0.532751
-1.03104
-1.62068
-2.31389
-3.12177
-4.0571
-5.13004
-6.35156
-7.73055
-9.278
-11.0006
-12.9056
-14.9989
-17.2832
-19.763
-22.4408
-25.3154
-28.3868
-31.6486
-35.0955
-38.72
-42.5127
-46.4659
-50.5669
-54.8033
-59.1621
-63.626
-68.1813
-72.8135
-77.5039
-82.2351
-86.9929
-91.7571
-96.5119
-101.241
-105.924
-110.542
-115.078
-119.515
-123.836
-128.024
-132.066
-135.945
-139.65
-143.169
-146.49
-149.605
-152.505
-155.18
-157.618
-159.809
-161.744
-163.419
-164.834
-165.981
-166.857
1.02807
0.858702
0.648342
0.38686
0.0674927
-0.320112
-0.785219
-1.33833
-1.99238
-2.75718
-3.64672
-4.66932
-5.83668
-7.1549
-8.638
-10.2902
-12.1182
-14.1285
-16.3209
-18.7017
-21.2742
-24.0346
-26.9867
-30.1198
-33.4299
-36.9094
-40.5474
-44.3406
-48.274
-52.3357
-56.5157
-60.7929
-65.156
-69.594
-74.0858
-78.6143
-83.1694
-87.7282
-92.2777
-96.8039
-101.286
-105.705
-110.041
-114.284
-118.413
-122.414
-126.274
-129.975
-133.509
-136.863
-140.03
-142.997
-145.76
-148.311
-150.635
-152.718
-154.553
-156.138
-157.476
-158.56
-159.383
1.12474
0.972596
0.781753
0.542017
0.248303
-0.111105
-0.544808
-1.06228
-1.67862
-2.4011
-3.24674
-4.2207
-5.33608
-6.59345
-8.01376
-9.59587
-11.3466
-13.2748
-15.3745
-17.6536
-20.1204
-22.7636
-25.5964
-28.6003
-31.7707
-35.103
-38.5802
-42.2103
-45.9721
-49.853
-53.8519
-57.9379
-62.0993
-66.3374
-70.6272
-74.9444
-79.2903
-83.6367
-87.9718
-92.2902
-96.5658
-100.781
-104.91
-108.949
-112.881
-116.686
-120.358
-123.873
-127.229
-130.411
-133.418
-136.229
-138.847
-141.269
-143.477
-145.45
-147.177
-148.663
-149.92
-150.941
-151.709
1.21594
1.0823
0.913453
0.694515
0.427133
0.0946398
-0.310026
-0.789699
-1.37121
-2.04931
-2.85529
-3.78038
-4.85242
-6.04127
-7.40161
-8.91589
-10.5851
-12.438
-14.4443
-16.6113
-18.9814
-21.495
-24.2166
-27.0932
-30.1147
-33.3076
-36.6072
-40.073
-43.6665
-47.3511
-51.1803
-55.0735
-59.0088
-63.0468
-67.1496
-71.2269
-75.3637
-79.4954
-83.5973
-87.7138
-91.7729
-95.7939
-99.6909
-103.516
-107.262
-110.857
-114.349
-117.658
-120.837
-123.827
-126.682
-129.315
-131.77
-134.07
-136.174
-138.02
-139.643
-141.004
-142.181
-143.154
-143.857
1.30821
1.18358
1.05272
0.838856
0.609021
0.292411
-0.0896239
-0.503992
-1.08239
-1.68147
-2.48414
-3.32917
-4.41248
-5.46629
-6.80744
-8.27191
-9.81761
-11.6399
-13.5321
-15.5544
-17.908
-20.209
-22.8833
-25.6084
-28.4591
-31.5882
-34.6291
-37.9634
-41.4264
-44.8388
-48.5673
-52.2403
-55.9101
-59.7983
-63.7616
-67.429
-71.4608
-75.3762
-79.1896
-83.1616
-86.9308
-90.829
-94.4143
-98.0975
-101.709
-104.981
-108.396
-111.393
-114.461
-117.148
-119.914
-122.27
-124.586
-126.842
-128.823
-130.48
-132.093
-133.233
-134.403
-135.329
-135.899
-198.043
-198.469
-198.576
-198.355
-197.828
-196.983
-195.823
-194.349
-192.55
-190.456
-188.041
-185.321
-182.332
-179.077
-175.548
-171.759
-167.716
-163.447
-158.944
-154.221
-149.31
-144.199
-138.912
-133.46
-127.871
-122.153
-116.287
-110.314
-104.238
-98.092
-91.877
-85.6131
-79.3219
-73.0036
-66.6863
-60.3721
-54.0842
-47.8349
-41.632
-35.4925
-29.4279
-23.4616
-17.5907
-11.8359
-6.21085
-0.718056
4.62673
9.81527
14.8325
19.6716
24.3279
28.7904
33.0481
37.0999
40.9351
44.5488
47.9358
51.0909
54.0134
56.699
59.1475
-186.656
-187.002
-187.074
-186.843
-186.313
-185.493
-184.371
-182.954
-181.229
-179.209
-176.892
-174.288
-171.437
-168.339
-164.983
-161.374
-157.525
-153.45
-149.154
-144.651
-139.958
-135.08
-130.032
-124.824
-119.47
-113.983
-108.395
-102.705
-96.922
-91.0638
-85.1425
-79.1738
-73.1724
-67.1505
-61.1242
-55.1027
-49.1023
-43.1366
-37.2171
-31.3563
-25.5678
-19.8671
-14.2616
-8.76477
-3.38888
1.85914
6.96801
11.9272
16.7248
21.3539
25.8075
30.0767
34.1522
38.031
41.7037
45.1658
48.4103
51.435
54.2368
56.8127
59.1616
-182.218
-182.644
-182.731
-182.512
-182.005
-181.223
-180.116
-178.715
-176.991
-174.976
-172.695
-170.148
-167.321
-164.226
-160.884
-157.305
-153.497
-149.472
-145.239
-140.809
-136.196
-131.408
-126.456
-121.353
-116.109
-110.734
-105.248
-99.6637
-93.9934
-88.2505
-82.4487
-76.6029
-70.7267
-64.8337
-58.9371
-53.0484
-47.1808
-41.3471
-35.5601
-29.8323
-24.1768
-18.6067
-13.1319
-7.76435
-2.51433
2.60965
7.59688
12.4371
17.1199
21.6383
25.9838
30.1493
34.127
37.9122
41.4971
44.8765
48.045
50.999
53.7356
56.2517
58.5476
-174.645
-175.001
-175.06
-174.826
-174.293
-173.444
-172.318
-170.965
-169.355
-167.474
-165.311
-162.885
-160.194
-157.249
-154.058
-150.632
-146.979
-143.112
-139.04
-134.778
-130.337
-125.726
-120.957
-116.04
-110.986
-105.808
-100.519
-95.1348
-89.6665
-84.127
-78.529
-72.8878
-67.2169
-61.5304
-55.839
-50.1548
-44.4898
-38.8558
-33.2663
-27.7334
-22.2696
-16.8876
-11.5978
-6.41099
-1.33696
3.61656
8.43823
13.1188
17.6471
22.018
26.222
30.2521
34.1027
37.7674
41.2411
44.5158
47.5888
50.4538
53.1096
55.5522
57.7829
-167.458
-167.786
-167.836
-167.61
-167.102
-166.314
-165.275
-163.908
-162.296
-160.436
-158.321
-155.955
-153.341
-150.489
-147.403
-144.091
-140.561
-136.822
-132.888
-128.771
-124.483
-120.034
-115.433
-110.688
-105.812
-100.816
-95.7135
-90.5199
-85.2459
-79.9035
-74.5032
-69.0623
-63.5931
-58.1114
-52.6248
-47.1452
-41.683
-36.2495
-30.8592
-25.523
-20.253
-15.0625
-9.96092
-4.95904
-0.0661628
4.71312
9.36335
13.8796
18.2475
22.4651
26.5219
30.4106
34.1274
37.6648
41.0209
44.1852
47.1573
49.9267
52.4965
54.8599
57.0203
-159.942
-160.237
-160.263
-160.022
-159.514
-158.743
-157.709
-156.409
-154.852
-153.051
-151.005
-148.717
-146.19
-143.438
-140.464
-137.273
-133.87
-130.264
-126.469
-122.503
-118.375
-114.096
-109.67
-105.104
-100.412
-95.6028
-90.6915
-85.696
-80.6231
-75.4847
-70.2869
-65.0526
-59.7903
-54.5221
-49.2475
-43.9801
-38.7279
-33.5014
-28.3173
-23.1843
-18.1144
-13.1222
-8.21478
-3.40463
1.29982
5.90063
10.3747
14.723
18.9236
22.9833
26.8872
30.6285
34.2072
37.6108
40.8466
43.8953
46.7634
49.4329
51.9147
54.1937
56.2815
-152.224
-152.481
-152.484
-152.228
-151.72
-150.965
-149.952
-148.683
-147.174
-145.433
-143.46
-141.253
-138.815
-136.168
-133.312
-130.245
-126.972
-123.497
-119.845
-116.033
-112.07
-107.967
-103.725
-99.3425
-94.8389
-90.2198
-85.5045
-80.7129
-75.8474
-70.9176
-65.9248
-60.8997
-55.8486
-50.8019
-45.7458
-40.6993
-35.6656
-30.6518
-25.6795
-20.7576
-15.8933
-11.1043
-6.39652
-1.78429
2.72564
7.14435
11.4385
15.617
19.6452
23.5412
27.2869
30.8761
34.311
37.5754
40.6887
43.6186
46.3831
48.9487
51.3388
53.5283
55.5416
-144.327
-144.536
-144.516
-144.234
-143.732
-142.993
-142.008
-140.749
-139.273
-137.61
-135.717
-133.586
-131.237
-128.697
-125.973
-123.032
-119.892
-116.543
-113.04
-109.39
-105.59
-101.671
-97.6294
-93.4276
-89.1165
-84.6912
-80.1792
-75.5966
-70.9334
-66.2171
-61.4231
-56.6133
-51.7701
-46.959
-42.1254
-37.3199
-32.525
-27.7149
-22.9557
-18.2639
-13.6
-9.01424
-4.51937
-0.102678
4.19812
8.44036
12.5465
16.5615
20.4028
24.133
27.7113
31.1355
34.4319
37.5477
40.548
43.3531
46.0209
48.4678
50.7667
52.8551
54.798
-136.326
-136.459
-136.428
-136.116
-135.624
-134.869
-133.929
-132.608
-131.209
-129.733
-127.847
-125.795
-123.5
-121.052
-118.559
-115.673
-112.661
-109.505
-106.126
-102.652
-98.9353
-95.1811
-91.4394
-87.3219
-83.2156
-79.0616
-74.6896
-70.3519
-65.7843
-61.3991
-56.6798
-52.2092
-47.4609
-42.9863
-38.3361
-33.8009
-29.306
-24.5813
-20.0425
-15.6289
-11.0826
-6.7505
-2.50655
1.7953
5.74023
9.9486
13.7288
17.6994
21.2153
24.8551
28.2831
31.4446
34.7208
37.5719
40.5973
43.1494
45.8289
48.0067
50.3423
52.229
54.211
61.3602
63.3356
65.0744
66.5772
67.8435
68.8775
69.6831
70.2652
70.6284
70.7788
70.7399
70.5544
70.213
69.6742
68.9682
68.0992
67.0278
65.767
64.3389
62.7589
61.0386
59.1887
57.2212
55.1473
52.9793
50.7301
48.413
46.0422
43.6302
41.1925
38.7424
36.2951
33.8657
31.468
29.1187
26.8308
24.6194
22.4988
20.4918
18.6134
16.8889
15.323
13.9291
12.7271
11.7314
10.9513
10.3963
10.0679
9.96063
10.0562
10.3212
10.7022
11.1215
11.478
11.6529
10.9721
9.47462
7.96041
6.72088
5.7954
4.98198
61.2841
63.1805
64.8511
66.2962
67.5161
68.5126
69.2894
69.8503
70.1996
70.3394
70.2853
70.0967
69.7708
69.256
68.5688
67.7136
66.6688
65.4436
64.0559
62.5199
60.8471
59.048
57.1345
55.1191
53.0133
50.8294
48.5798
46.2772
43.9345
41.5655
39.1833
36.8022
34.4365
32.0999
29.8074
27.5732
25.4118
23.3346
21.3482
19.4799
17.738
16.1571
14.7466
13.5195
12.4877
11.6615
11.0493
10.6532
10.468
10.4776
10.6515
10.9405
11.2702
11.5426
11.585
10.9424
9.62533
8.28229
7.22458
6.42623
5.60524
60.6219
62.4767
64.1115
65.5276
66.7245
67.7052
68.4727
69.0311
69.3828
69.5243
69.4815
69.3174
69.0142
68.522
67.8602
67.0357
66.0342
64.8621
63.5328
62.0592
60.4521
58.7219
56.8805
54.9393
52.9092
50.8024
48.6306
46.4062
44.1415
41.8498
39.5442
37.2381
34.945
32.6787
30.453
28.2816
26.1778
24.1535
22.2212
20.4022
18.7144
17.1704
15.783
14.563
13.5215
12.6684
12.0103
11.5482
11.2767
11.1808
11.2312
11.3825
11.5611
11.6669
11.527
10.8742
9.7214
8.49968
7.47805
6.64178
5.81018
59.7992
61.604
63.1956
64.5773
65.7468
66.7082
67.4623
68.0148
68.3637
68.5042
68.4779
68.3437
68.0647
67.6016
66.9697
66.178
65.2198
64.1019
62.8328
61.4244
59.8868
58.2293
56.4646
54.6031
52.6549
50.6327
48.5473
46.411
44.2352
42.0331
39.8169
37.5999
35.3946
33.2146
31.0727
28.9822
26.9558
25.0058
23.1453
21.3903
19.7558
18.2538
16.8952
15.6881
14.6427
13.7671
13.0651
12.536
12.1725
11.9599
11.8697
11.8592
11.8615
11.785
11.4951
10.841
9.83754
8.73586
7.74084
6.87622
6.05425
58.9725
60.7232
62.2678
63.6118
64.7497
65.6889
66.4258
66.9687
67.311
67.4516
67.4434
67.339
67.0823
66.6495
66.0485
65.2918
64.3758
63.3111
62.1012
60.7581
59.2908
57.7063
56.0199
54.2402
52.3755
50.4408
48.4442
46.399
44.3143
42.2046
40.0802
37.9547
35.8392
33.7474
31.6905
29.6824
27.7342
25.8584
24.0664
22.372
20.7876
19.3256
17.9953
16.8039
15.7576
14.8619
14.119
13.5261
13.0742
12.7479
12.5204
12.3525
12.1876
11.9524
11.5557
10.9121
10.0301
9.04564
8.09538
7.22273
6.39636
58.1649
59.8602
61.3541
62.6603
63.7637
64.6802
65.3977
65.9311
66.2661
66.4119
66.4207
66.3438
66.1079
65.7053
65.135
64.4155
63.5408
62.5295
61.3777
60.0998
58.7036
57.1913
55.5841
53.8875
52.1066
50.2612
48.3542
46.4018
44.4089
42.393
40.3609
38.3281
36.3023
34.299
32.3269
30.401
28.5305
26.7279
25.0016
23.3655
21.8291
20.4047
19.0997
17.9203
16.8703
15.9517
15.1665
14.5099
13.9722
13.5387
13.1846
12.8759
12.5667
12.2031
11.725
11.0844
10.2841
9.39488
8.49943
7.64011
6.81278
57.3526
58.9912
60.4317
61.6997
62.7672
63.6623
64.3609
64.8847
65.2134
65.3686
65.3935
65.3418
65.1267
64.7538
64.214
63.5328
62.6997
61.7426
60.6472
59.4354
58.1123
56.6727
55.1459
53.5329
51.8356
50.0818
48.2658
46.408
44.5074
42.5871
40.6485
38.7094
36.7733
34.8588
32.9706
31.127
29.3339
27.6038
25.9409
24.361
22.8697
21.481
20.1994
19.0296
17.9736
17.0318
16.2054
15.4878
14.8687
14.3373
13.8701
13.4396
13.0098
12.5422
11.9976
11.3486
10.5942
9.77096
8.92685
8.09218
7.27531
56.5248
58.1121
59.491
60.7264
61.7503
62.6295
63.3055
63.8236
64.1443
64.3176
64.352
64.327
64.1294
63.7886
63.2764
62.6364
61.8405
60.9464
59.8987
58.7562
57.5114
56.1381
54.7018
53.1724
51.5506
49.8961
48.1691
46.4117
44.5988
42.7796
40.9325
39.0914
37.242
35.4187
33.6094
31.8497
30.1325
28.477
26.8733
25.3492
23.8966
22.543
21.2822
20.1239
19.0607
18.0945
17.233
16.4601
15.766
15.1497
14.5835
14.0517
13.5209
12.9696
12.3676
11.7026
10.9684
10.187
9.37914
8.57002
7.76965
55.7204
57.3682
58.5842
59.8956
60.7639
61.7072
62.2523
62.861
63.092
63.3839
63.3242
63.4066
63.1457
62.9274
62.3649
61.84
60.978
60.2516
59.2007
58.1353
57.0043
55.59
54.3159
52.9023
51.2675
49.7878
48.0789
46.4908
44.6928
43.0352
41.216
39.526
37.7154
36.0328
34.2468
32.6104
30.9253
29.3823
27.7985
26.3656
24.9097
23.6184
22.3565
21.2205
20.1527
19.1458
18.2657
17.4415
16.6715
16.0001
15.3371
14.7344
14.1086
13.4982
12.8361
12.1606
11.4225
10.6766
9.88427
9.08735
8.30738
4.18441
3.46142
2.78422
2.0998
1.41468
0.769325
0.176479
-0.354748
-0.803133
-1.16104
-1.42481
-1.60014
-1.68939
-1.68749
-1.62371
-1.52104
-1.39367
-1.26244
-1.14181
-1.03985
-0.95934
-0.894805
-0.842658
-0.794021
-0.751384
-0.714101
-0.669603
-0.619833
-0.559585
-0.487278
-0.398813
-0.293329
-0.171892
-0.0342695
0.115774
0.277084
0.446326
0.618998
0.791295
0.957596
1.11289
1.25343
1.37671
1.47802
1.55418
1.60525
1.63017
1.63015
1.60599
1.56074
1.49837
1.42218
1.33505
1.24263
1.14634
1.04911
0.949761
0.846168
0.73753
0.621486
0.466479
4.76973
4.08423
3.46711
2.8293
2.17382
1.55964
0.996135
0.486061
0.0555932
-0.284089
-0.528487
-0.67481
-0.723527
-0.689747
-0.606732
-0.495054
-0.366704
-0.23914
-0.12489
-0.0309042
0.0420718
0.0977378
0.138582
0.179215
0.204474
0.232558
0.26296
0.298502
0.342993
0.399467
0.471143
0.55931
0.663861
0.783959
0.917689
1.06266
1.21497
1.37147
1.52817
1.68122
1.82611
1.95711
2.07095
2.16432
2.23432
2.27973
2.30003
2.29543
2.267
2.21708
2.14866
2.06505
1.96908
1.8666
1.75857
1.6494
1.53757
1.42449
1.30552
1.17331
1.00773
5.01065
4.33019
3.70078
3.01436
2.30738
1.67501
1.09053
0.544232
0.0763224
-0.302054
-0.590344
-0.787477
-0.896335
-0.932984
-0.89745
-0.812654
-0.683281
-0.540985
-0.414061
-0.310721
-0.231077
-0.16967
-0.120318
-0.0830206
-0.0432547
-0.00955908
0.0274858
0.0704589
0.121832
0.184692
0.261968
0.354931
0.463364
0.586141
0.721398
0.866753
1.01897
1.17444
1.32913
1.47868
1.61866
1.74486
1.85347
1.94111
2.0052
2.04447
2.05852
2.04825
2.01532
1.96255
1.89327
1.81166
1.72157
1.6266
1.52975
1.43365
1.33671
1.23554
1.12454
0.993581
0.827125
5.27851
4.58679
3.92675
3.22207
2.51632
1.88475
1.28337
0.712715
0.240615
-0.131074
-0.418105
-0.610336
-0.703652
-0.71304
-0.643756
-0.512572
-0.365221
-0.244467
-0.126962
-0.0226281
0.0611712
0.126053
0.175613
0.212548
0.240629
0.2679
0.293311
0.322689
0.358978
0.40558
0.465686
0.541004
0.631968
0.737546
0.856343
0.985745
1.12295
1.26447
1.40681
1.54588
1.67736
1.79728
1.90201
1.98856
2.05442
2.09843
2.12
2.11995
2.09949
2.06123
2.00737
1.94139
1.8658
1.78345
1.69471
1.60132
1.50551
1.40763
1.30231
1.18084
1.04107
5.61653
4.89533
4.20185
3.48751
2.77983
2.12241
1.49373
0.916769
0.443619
0.0578279
-0.255768
-0.463899
-0.567339
-0.594266
-0.550923
-0.456204
-0.341554
-0.207766
-0.0879174
0.0140284
0.09337
0.154596
0.202
0.240565
0.270956
0.30031
0.32806
0.359209
0.396017
0.441419
0.498381
0.569
0.653524
0.751342
0.860986
0.980535
1.10702
1.2378
1.36947
1.4985
1.62055
1.73233
1.83007
1.9114
1.97351
2.01546
2.03612
2.03645
2.01682
1.97973
1.9271
1.86237
1.78874
1.70863
1.62413
1.54705
1.47035
1.3894
1.30143
1.20289
1.08156
6.01939
5.26463
4.53751
3.81174
3.09765
2.41876
1.77395
1.18399
0.682668
0.26519
-0.0631288
-0.276877
-0.399281
-0.449844
-0.415075
-0.318476
-0.197402
-0.0709291
0.0443223
0.136292
0.203164
0.255678
0.295051
0.328239
0.353928
0.377426
0.398644
0.423251
0.453228
0.489987
0.537827
0.598265
0.67209
0.758053
0.855551
0.961993
1.07555
1.19332
1.31267
1.43015
1.54157
1.64425
1.73436
1.81045
1.86921
1.91064
1.93283
1.9378
1.925
1.89759
1.85688
1.80672
1.75034
1.69214
1.63687
1.57063
1.50535
1.43802
1.36281
1.27418
1.16414
6.47833
5.70493
4.95234
4.21265
3.48995
2.79996
2.14751
1.54968
1.02367
0.579202
0.226415
-0.0187578
-0.174818
-0.237309
-0.205495
-0.121185
-0.0108154
0.105491
0.211338
0.289306
0.340113
0.377148
0.40377
0.428375
0.445227
0.46067
0.472825
0.490377
0.512088
0.538879
0.576385
0.62604
0.688688
0.762679
0.847355
0.941108
1.04102
1.14596
1.25285
1.35918
1.45989
1.55379
1.63615
1.70719
1.76235
1.80323
1.82672
1.83604
1.82956
1.81136
1.78149
1.74426
1.70146
1.65512
1.60726
1.56237
1.51528
1.46541
1.40764
1.33631
1.24331
6.97973
6.20423
5.44229
4.70012
3.97267
3.28449
2.63433
2.04368
1.51193
1.05491
0.684091
0.411258
0.212101
0.119476
0.115817
0.165226
0.265851
0.352005
0.423857
0.485641
0.505919
0.522478
0.52719
0.543098
0.544775
0.552515
0.551888
0.562308
0.577451
0.589638
0.615699
0.653965
0.707575
0.770199
0.844343
0.92548
1.01361
1.10627
1.20196
1.29837
1.38941
1.4759
1.55073
1.61799
1.66878
1.70949
1.7328
1.74609
1.74357
1.73279
1.70972
1.68205
1.65072
1.6155
1.58083
1.54792
1.51528
1.48224
1.44162
1.38968
1.31471
7.51574
6.75859
5.9924
5.25364
4.52796
3.85959
3.22489
2.67799
2.15549
1.71723
1.36287
1.10585
0.829623
0.705297
0.666049
0.647427
0.708844
0.644043
0.652447
0.735893
0.69968
0.693182
0.652704
0.689098
0.650085
0.665669
0.628264
0.6382
0.657019
0.645526
0.646307
0.682481
0.734187
0.782776
0.84844
0.919849
0.993898
1.07868
1.16414
1.25983
1.33504
1.42605
1.48279
1.55852
1.59333
1.64373
1.65182
1.6833
1.67073
1.67463
1.64588
1.62035
1.60118
1.5759
1.55428
1.53043
1.50905
1.49463
1.4669
1.44131
1.37742
4.88911
-4.16173
-5.49202
14.859
5.76098
19.4585
18.0114
10.8627
11.5537
29.0571
1.54906
23.8047
18.1204
2.85309
21.7521
-102.215
20.5577
12.189
1.33152
17.4622
15.0927
3.19994
1.0488
20.1276
11.4589
17.0635
17.5258
9.49316
20.308
6.86311
10.4403
16.702
28.3935
1.70667
23.0921
0.675666
0.593297
57.3062
18.6587
17.5632
7.60165
-2.83485
18.0357
-88.1998
0.726053
31.6821
11.5853
3.04408
16.1951
25.4379
-3.1424
-45.4373
17.1124
9.52877
13.9482
16.2548
6.97053
7.73137
0.840483
-30.9748
3.64478
15.5207
17.1547
-8.13754
-25.4943
14.8778
0.76559
8.77883
18.8486
18.0957
15.4031
59.4957
6.45559
13.4073
13.3395
6.23821
-12.2708
44.4423
17.1628
28.1795
-0.726884
16.5504
16.7423
-36.5848
17.9867
50.199
12.0243
1.79554
15.3498
1.61883
-13.8314
17.1531
5.15301
-31.4191
-36.9256
5.6529
44.2402
9.97166
25.4458
-101.498
14.5043
16.1605
24.9445
17.0427
18.1157
17.0111
15.0574
39.702
19.7582
-77.9217
-109.113
15.9509
0.849906
1.55349
5.95365
2.13043
1.09335
19.5085
-7.6285
11.3103
12.8822
0.495244
11.301
-117.852
-26.1887
10.6404
15.3201
-47.1156
-34.8956
17.8412
21.2046
-7.97118
2.46655
10.9851
2.55671
10.7868
18.0216
-52.8296
-30.4529
11.6806
9.58407
-52.8101
14.841
49.0067
1.60514
12.4733
16.6487
1.59484
31.7838
-0.47016
16.2457
16.2762
59.0468
-33.5113
-59.1135
8.87631
8.29152
-27.8529
16.6307
0.689363
16.6883
26.3726
17.4054
12.5292
14.9286
13.1576
6.99879
9.57643
17.1378
0.489294
-1.36698
1.43103
5.83809
17.3616
1.60861
1.59732
1.23216
8.87363
22.4322
1.28718
1.88597
-1.28343
-30.9596
9.73645
6.47547
1.09786
-10.4637
52.1232
9.84068
11.8816
25.3729
20.2262
-16.5202
-39.1812
16.6423
-31.661
4.07995
0.440993
21.2912
0.753951
9.86499
14.9997
13.3746
-58.7678
-1.44959
20.8235
8.50453
16.0996
-45.4913
0.842372
41.1501
-5.63983
16.3821
-117.368
11.1396
-77.6213
-65.2965
1.71604
33.3781
1.85264
11.3819
40.1117
12.0111
16.7395
1.09566
-7.68286
-9.23743
11.7352
16.952
59.675
1.54325
21.3705
-5.07809
-37.644
13.6403
19.2816
3.15458
-57.2157
-46.6438
19.2809
13.3493
8.76615
10.9622
15.962
-123.586
16.5668
8.39902
-98.5886
23.9097
17.2786
8.86234
23.7057
1.40821
8.45072
11.3546
18.6595
25.2507
15.2457
6.56371
1.9865
15.6708
9.54909
-64.4407
18.5369
0.639689
12.7936
17.5348
1.38955
17.5593
0.95799
23.9417
1.48052
22.8162
11.4127
52.8644
9.97451
14.304
10.7829
15.9893
20.7086
50.2865
9.61397
-71.949
15.3143
14.8955
18.6295
17.0713
-61.7154
7.967
7.9472
-26.0454
40.5271
14.4424
17.0064
35.0394
17.4058
9.53685
5.03671
-0.363722
16.3582
10.9573
5.49158
48.5541
-3.75742
1.62758
-78.6968
21.8199
18.6396
19.3907
-100.554
9.78773
11.9243
11.4992
-12.4375
16.4604
14.2136
1.10019
0.982613
7.06748
1.94496
16.5006
3.46754
15.3304
15.0243
-26.362
1.95248
15.5214
0.790797
-90.5043
6.33036
-27.1714
-44.1252
-101.25
2.15506
1.63195
16.8714
0.858833
1.16739
-124.087
35.09
15.0487
14.7967
12.0178
11.648
49.7389
11.2623
-9.30749
18.7776
-70.6776
14.9736
1.56118
-45.3799
-113.806
10.6437
-61.8495
8.68215
2.75465
14.4861
1.84664
2.43231
10.2808
0.773758
1.0163
-6.6292
1.02954
16.1117
6.79699
-113.913
-33.7953
3.81195
16.5999
-25.9046
-49.5318
12.6758
1.73294
15.7372
-5.26918
7.12574
1.63346
-73.8188
1.18399
-79.7663
20.2539
-89.2318
11.273
4.81123
20.9681
1.29771
-117.394
-27.6176
47.3901
50.1427
3.28209
0.535463
17.2613
30.2437
16.7669
0.0719071
12.0763
-10.1658
17.3032
18.8121
21.9368
21.3164
-7.63235
-46.6834
12.0571
-82.9792
0.356654
-10.9615
1.69765
-61.9078
-1.52407
18.7695
-124.191
9.7166
9.41258
23.3028
-52.8603
17.0901
18.2101
1.31872
17.7137
9.94952
14.37
1.4065
35.892
-26.0645
-51.5743
9.45707
-61.0519
9.07393
-54.3184
16.8561
15.701
0.976464
3.97896
-93.2982
-1.30204
1.65428
-10.7993
-62.0217
-59.6191
18.2231
2.71362
-41.4179
-50.0217
17.084
2.6107
-31.5902
22.8466
13.0072
36.4874
-39.8395
-0.253242
-9.61423
0.740451
9.10521
-89.9346
2.34363
10.4913
19.8656
46.9696
0.232772
44.0918
2.09541
17.4268
1.84041
1.62682
13.747
12.402
0.554977
1.23414
16.8224
2.46704
1.59971
2.65194
1.60832
1.83662
1.45476
8.05143
4.87529
15.844
15.6951
-110.931
9.92072
-67.6454
-106.971
16.2232
0.875109
2.34809
19.1078
3.66479
1.54638
16.3254
16.9786
15.152
5.41622
-37.4931
10.385
26.5352
13.6499
13.957
15.5711
5.43458
0.639904
13.5096
19.2282
9.599
1.54629
13.8853
13.5912
-12.6744
12.6388
0.085181
-3.35411
-4.22543
17.2034
19.9967
9.43654
22.3604
3.40576
2.7909
48.6915
-21.6024
-4.87744
21.9147
8.2042
1.28208
1.53916
-80.2245
-26.8584
20.9488
3.19622
10.3864
0.505285
-21.0453
18.6838
12.1358
-27.2981
-82.3867
12.7245
-17.338
-54.113
4.63453
-105.411
9.34662
9.47427
9.12874
-31.7764
13.9713
-80.875
-1.86793
13.0485
1.00258
17.2979
-0.278113
14.9649
12.8178
31.7803
2.83768
0.920811
14.8669
7.17899
0.751011
-46.4611
-30.1499
8.11811
-33.7029
4.78984
28.7081
1.805
9.43723
-95.606
9.9529
8.56603
14.4204
1.5389
52.167
1.60895
8.03672
8.56251
1.44335
1.08528
13.6228
15.6743
15.996
9.56814
10.2675
29.2457
-76.2212
8.55627
17.8384
-31.6778
0.933339
-87.0526
13.6599
0.76524
17.6905
-55.2305
4.29829
-21.0049
0.917753
0.860176
2.72558
-106.086
20.5491
17.3546
6.59039
16.0921
-26.7684
-22.3498
-6.37129
10.0446
9.11468
5.02852
16.3517
-0.212665
0.727537
16.2259
23.2059
1.58628
-58.2288
20.93
1.67768
20.5226
-8.2693
17.2532
36.3434
6.69748
29.5546
18.5081
-30.0836
-21.028
-4.31876
19.0728
10.6077
-32.3979
16.1514
12.5462
4.54371
5.63205
0.777407
-30.451
40.5431
3.09393
1.99861
0.856079
-89.4735
9.59245
23.3362
15.7172
0.702585
5.56871
-22.7033
14.4878
12.4096
6.11754
1.58191
-6.86595
15.248
2.12707
10.9887
-20.9941
1.57977
39.0893
0.896249
0.149906
8.3433
57.2156
17.0074
16.7452
1.48477
10.2572
6.96238
8.8796
10.3954
-115.904
1.19576
-34.8529
30.5608
17.4489
8.52255
19.3414
-6.19736
-10.8599
1.55693
3.97109
1.51472
12.9153
-2.54826
18.5806
-88.6106
16.7903
6.70254
2.02392
-3.447
2.85379
-6.61911
10.6611
3.32227
1.12205
19.2412
-120.89
15.4214
17.1133
10.8174
-3.96212
18.9104
3.8798
-21.319
15.584
-13.4685
-97.491
17.4945
8.92809
14.5921
-63.225
-6.45894
15.8194
42.8492
12.6136
9.1176
11.6004
-111.048
-126.158
16.4468
-1.08866
-11.9019
1.6113
17.806
6.96998
-11.4048
13.7903
15.367
0.330571
18.5409
19.6396
8.56415
14.8705
-3.00488
13.3608
-5.52136
23.0632
1.79388
-4.39704
42.5913
1.18991
6.76879
21.9188
4.20011
-44.9311
24.3943
-83.7722
20.8889
1.06386
-19.5273
10.1729
-9.2798
0.691195
12.9164
13.1394
-93.5636
-39.9884
13.5191
-64.8978
-8.54103
53.6654
-15.6857
-19.8615
21.4977
0.750904
5.94123
11.9356
-55.3392
-22.5541
-4.68256
-3.91004
-6.53946
0.903675
22.6223
19.0073
13.3822
-121.66
-44.2717
27.5374
2.09481
-112.125
11.2271
14.4494
10.5917
1.18468
4.82488
1.25056
-14.488
21.3511
-121.246
-17.178
-85.8225
-98.4365
18.8458
25.3397
-43.6315
26.0961
14.5512
12.288
11.1057
10.3908
26.0703
17.9354
2.01193
-51.5769
-30.1686
24.4834
2.27174
3.55304
13.8224
1.42394
12.9369
-53.4899
1.47287
49.2418
0.946786
22.293
11.6138
18.6017
15.751
-76.816
13.157
44.7339
0.933702
0.943973
32.3201
61.1205
12.5931
13.2665
25.067
-50.57
-15.2129
17.2884
10.0678
-91.5323
27.4968
17.4139
-63.0834
15.7649
3.54694
1.45566
6.21946
-16.2673
53.7851
0.697982
-8.41634
0.0424852
17.8217
0.670162
9.57382
14.8833
17.3095
12.2545
0.928261
17.287
0.579125
30.1962
0.173883
11.241
10.3021
16.6914
8.47604
-49.7616
9.80926
18.1506
-29.1727
-70.7491
34.1024
1.65276
7.54573
16.8075
34.4037
-84.65
9.52294
-2.75449
11.0186
16.34
-88.2636
17.2467
9.78693
49.9411
29.9359
-19.4877
4.31791
15.8824
17.1881
-66.5604
-4.09969
10.1791
14.8966
1.30958
17.5448
-127.816
7.27932
0.67901
10.5867
18.77
0.385696
14.743
23.0028
24.7704
4.52554
-0.244462
17.786
20.6823
17.5121
20.2975
10.8278
18.1519
-70.4547
2.52405
18.1147
-25.5908
14.125
7.20865
19.6311
11.6758
-62.1779
10.81
5.09948
18.8901
-20.6673
16.7621
-24.6606
-104.155
1.39948
1.44841
-47.6643
16.217
18.4265
-21.3856
-104.619
1.13189
-14.201
15.9179
-82.6651
13.4133
16.6367
18.2658
-17.9485
6.97801
9.58581
-28.5255
17.2931
8.63731
-84.9516
10.5541
-119.318
47.1723
11.6974
18.2488
6.40654
16.8431
-9.14362
-6.1818
20.1089
-18.1048
5.78266
12.8816
-38.1119
4.64873
17.5551
-49.2468
14.8947
1.87649
-67.459
-13.51
17.2334
19.3212
14.7674
62.1317
8.7243
-2.30219
-23.8107
15.6615
-11.6875
15.4176
5.35287
15.565
0.822929
9.90433
0.622887
-13.9244
58.8974
7.37983
59.2589
7.59751
12.8234
3.9361
20.154
-9.40148
17.8452
11.1585
1.6841
59.7488
16.8738
9.17063
-8.48865
0.616365
-108.9
15.9114
-5.62987
10.5696
-21.6408
-61.802
1.03559
-73.4981
9.58066
2.88289
-25.2617
18.3627
15.7748
14.02
12.3537
21.4509
16.2468
12.644
17.6461
1.26383
-68.1185
17.6475
20.2593
17.7093
7.995
-73.0595
1.21501
-24.1076
15.7663
-43.3699
0.849077
24.9693
-67.3593
17.0606
0.769094
40.1101
1.50922
22.7092
4.09225
1.8767
16.0447
10.5095
-107.415
13.7399
-0.790362
-39.1803
1.5764
15.8081
10.9902
30.9396
2.81201
1.58392
-79.1733
15.9258
16.5044
17.0238
-20.0402
-35.9193
13.9954
12.6409
15.1551
0.92569
1.73957
49.291
0.701693
-65.6715
2.17718
-59.0583
0.887443
0.475564
32.2431
50.9841
13.0339
60.0355
45.4879
18.3682
17.6341
6.29384
14.5346
18.5743
2.30454
1.7596
19.7016
1.70633
10.3076
19.196
9.06103
18.5343
28.7894
1.64332
-5.47026
-120.844
17.8825
12.1198
-50.6287
7.72647
22.3963
14.0641
10.9853
2.38198
17.3887
-2.20981
1.26421
30.4056
12.8404
1.13964
16.7914
17.4645
15.6714
5.7927
15.5613
17.0162
-3.56062
18.5373
20.636
-76.3895
-28.3866
-18.4886
14.7259
1.72918
-50.6586
17.0818
1.63422
0.970049
-126.075
0.588793
16.7882
8.6617
31.3185
-1.05461
1.27299
9.20105
46.3847
1.71677
16.1945
1.12447
16.6563
53.8843
14.2312
-20.7355
16.8518
0.996529
-69.5572
15.7164
42.4029
4.17297
13.0776
18.7738
29.5701
11.0096
19.7436
2.04139
16.2368
10.7305
-123.221
4.29074
18.6585
19.9754
-65.0704
-82.3437
16.8323
18.1727
12.5493
11.2755
-59.4995
24.6162
-58.8378
17.8559
11.3498
17.3689
-12.0496
5.64103
17.4416
0.90332
1.58949
-89.4062
-62.2111
8.26207
-2.40653
-74.7148
18.301
18.4332
18.4847
7.50637
18.9574
2.34489
18.243
9.58775
-1.3101
-25.1419
2.4464
12.7583
1.65095
36.2671
16.7538
19.6521
-104.164
15.6042
15.579
20.1155
12.5041
-73.6344
-6.80872
1.66209
17.2441
17.0823
17.7229
-3.6486
20.2679
-17.6145
8.39909
8.81374
13.5577
9.51669
15.6605
10.8802
10.6738
9.80408
-1.66754
-10.373
2.77848
-86.7296
11.9131
16.7957
0.965602
-91.3129
41.1504
1.26079
23.7073
15.9838
13.1869
11.8817
16.7475
60.7732
-8.25298
1.27865
-94.8141
16.8994
27.9182
-37.1372
3.45773
-51.559
1.33623
30.9476
1.71424
16.7255
-22.7208
-13.2586
-38.1413
-8.46974
17.8334
1.51709
7.76827
22.5292
13.2813
19.5795
8.87968
56.7223
20.5047
16.7093
43.9231
10.7909
15.7032
18.4824
20.4581
-10.6075
1.31804
10.0723
11.6452
-16.5833
13.9383
9.44312
15.1445