/*--------------------------------*- C++ -*----------------------------------*\
| =========                 |                                                 |
| \\      /  F ield         | OpenFOAM: The Open Source CFD Toolbox           |
|  \\    /   O peration     | Version:  2.3.1                                 |
|   \\  /    A nd           | Web:      www.OpenFOAM.org                      |
|    \\/     M anipulation  |                                                 |
\*---------------------------------------------------------------------------*/
FoamFile
{
    version     2.0;
    format      ascii;
    class       surfaceScalarField;
    location    "0.88";
    object      phi;
}
// * * * * * * * * * * * * * * * * * * * * * * * * * * * * * * * * * * * * * //

dimensions      [0 3 -1 0 0 0 0];

internalField   nonuniform List<scalar> 
15416
(
-0.000708733
-8.43286e-06
0.000711605
-0.000703772
-4.95952e-06
-0.000701015
-2.75409e-06
-0.00069958
-1.4312e-06
-0.000699453
-1.23601e-07
-0.000700905
1.45596e-06
-0.000704636
3.73605e-06
-0.0007109
6.26835e-06
-0.000719871
8.97557e-06
-0.00073188
1.20144e-05
-0.00074734
1.54654e-05
-0.000766468
1.91348e-05
-0.000789404
2.29421e-05
-0.000816232
2.6835e-05
-0.000847049
3.08252e-05
-0.000881783
3.47416e-05
-0.000920249
3.84748e-05
-0.000962244
4.2004e-05
-0.00100763
4.53927e-05
-0.00105607
4.84557e-05
-0.00110732
5.12542e-05
-0.00116111
5.37991e-05
-0.00121708
5.59853e-05
-0.00127488
5.78064e-05
-0.00133426
5.9383e-05
-0.00139496
6.0718e-05
-0.00145671
6.17533e-05
-0.00151917
6.24691e-05
-0.00158213
6.29645e-05
-0.0016454
6.32809e-05
-0.0017087
6.33071e-05
-0.00177182
6.31265e-05
-0.00183466
6.28521e-05
-0.001897
6.2339e-05
-0.00195862
6.1631e-05
-0.00201949
6.08713e-05
-0.00207949
6.00014e-05
-0.00213844
5.89504e-05
-0.00219611
5.76737e-05
-0.00225249
5.63811e-05
-0.00230756
5.5074e-05
-0.00236115
5.359e-05
-0.00241314
5.19896e-05
-0.00246357
5.04351e-05
-0.00251218
4.86027e-05
-0.00255893
4.67457e-05
-0.00260393
4.49984e-05
-0.00264718
4.3257e-05
-0.00268851
4.132e-05
-0.00272784
3.93277e-05
-0.00276514
3.73012e-05
-0.00280059
3.54461e-05
-0.00283368
3.30949e-05
-0.00286489
3.12027e-05
-0.00289399
2.91025e-05
-0.00292136
2.73652e-05
-0.00294604
2.4679e-05
-0.00296846
2.24173e-05
-0.00298897
2.05134e-05
-0.00300775
1.87716e-05
1.70634e-05
-0.00302481
-0.000407877
-6.78548e-06
0.00040623
-0.000409755
-3.08192e-06
-0.000413807
1.29719e-06
-0.000420855
5.61728e-06
-0.000432377
1.13978e-05
-0.000447636
1.67147e-05
-0.000466799
2.28982e-05
-0.000489665
2.91344e-05
-0.000516913
3.62231e-05
-0.000548088
4.31895e-05
-0.000583384
5.07614e-05
-0.000622666
5.84175e-05
-0.000665838
6.61155e-05
-0.000712781
7.37803e-05
-0.000763205
8.12505e-05
-0.000816974
8.85139e-05
-0.000873831
9.53347e-05
-0.000933564
0.00010174
-0.000995819
0.000107651
-0.00106039
0.000113033
-0.00112707
0.000117931
-0.0011954
0.000122136
-0.0012652
0.000125791
-0.00133625
0.000128861
-0.00140824
0.000131374
-0.00148093
0.000133404
-0.00155397
0.0001348
-0.00162732
0.000135823
-0.00170067
0.000136316
-0.00177369
0.000136308
-0.0018464
0.000136021
-0.00191863
0.000135361
-0.00198999
0.000134215
-0.00206045
0.000132802
-0.00213001
0.000131192
-0.00219828
0.000129142
-0.00226529
0.000127011
-0.00233089
0.00012456
-0.0023951
0.000121877
-0.00245768
0.000118969
-0.00251835
0.000115745
-0.00257738
0.000112626
-0.00263459
0.000109196
-0.0026897
0.000105546
-0.00274289
0.000101794
-0.00279396
9.7826e-05
-0.00284301
9.40413e-05
-0.00288958
8.98317e-05
-0.00293406
8.58056e-05
-0.0029764
8.16633e-05
-0.00301659
7.74903e-05
-0.00305494
7.37981e-05
-0.00308982
6.79778e-05
-0.00312401
6.53915e-05
-0.00315438
5.94713e-05
-0.0031832
5.6186e-05
-0.00320766
4.91435e-05
-0.00323195
4.6711e-05
-0.00325396
4.25224e-05
-0.0032738
3.86091e-05
3.25532e-05
-0.00328929
-0.00026341
1.87819e-06
0.000254747
-0.000274679
8.18761e-06
-0.000289394
1.60126e-05
-0.000308447
2.46702e-05
-0.000331043
3.39941e-05
-0.000358126
4.37978e-05
-0.000389246
5.40181e-05
-0.000424694
6.45827e-05
-0.000464392
7.59213e-05
-0.000508452
8.72499e-05
-0.000556608
9.89183e-05
-0.000608491
0.000110302
-0.000664234
0.00012186
-0.000723461
0.000133009
-0.000785975
0.000143766
-0.000851494
0.000154036
-0.0009198
0.000163643
-0.000990614
0.000172558
-0.00106362
0.000180658
-0.00113865
0.000188066
-0.00121524
0.000194528
-0.00129332
0.000200219
-0.00137258
0.000205053
-0.00145276
0.00020904
-0.00153356
0.000212176
-0.00161474
0.000214585
-0.00169613
0.000216197
-0.00177747
0.000217161
-0.00185846
0.000217313
-0.00193921
0.000217066
-0.00201926
0.00021607
-0.00209839
0.000214491
-0.00217679
0.00021262
-0.00225399
0.000210003
-0.00232989
0.000207097
-0.00240446
0.000203713
-0.00247752
0.000200073
-0.00254892
0.000195963
-0.00261862
0.00019158
-0.00268651
0.000186866
-0.00275265
0.000181881
-0.00281646
0.00017644
-0.00287833
0.000171068
-0.00293801
0.000165226
-0.00299549
0.000159273
-0.00305078
0.000153125
-0.00310365
0.000146912
-0.00315421
0.000140391
-0.0032022
0.000133793
-0.00324838
0.000127847
-0.00329085
0.000119963
-0.00333072
0.000113669
-0.00336896
0.000106215
-0.00340488
0.000101319
-0.00343865
9.32436e-05
-0.00346814
8.56676e-05
-0.00349746
7.84713e-05
-0.00352246
7.17105e-05
-0.00354523
6.52893e-05
-0.00356373
5.71064e-05
5.09445e-05
-0.00358212
-0.00019206
1.77469e-05
0.000176191
-0.000211926
2.80541e-05
-0.000235716
3.98026e-05
-0.000263553
5.25066e-05
-0.000295594
6.60354e-05
-0.000332014
8.02168e-05
-0.000372746
9.47495e-05
-0.00041817
0.000110005
-0.000467863
0.000125614
-0.000521941
0.000141328
-0.000579979
0.000156956
-0.000642173
0.000172495
-0.000708098
0.000187785
-0.00077734
0.000202251
-0.000849838
0.000216266
-0.00092524
0.000229439
-0.00100326
0.000241664
-0.00108359
0.000252894
-0.00116602
0.000263088
-0.00125013
0.000272175
-0.0013359
0.000280295
-0.00142281
0.00028714
-0.00151079
0.000293032
-0.0015995
0.000297749
-0.00168875
0.000301429
-0.00177812
0.000303958
-0.00186751
0.000305588
-0.00195672
0.00030637
-0.00204561
0.000306204
-0.0021337
0.000305162
-0.00222108
0.000303455
-0.00230762
0.000301032
-0.00239278
0.000297781
-0.00247676
0.000293993
-0.00255937
0.000289707
-0.00264044
0.000284779
-0.00271963
0.000279268
-0.00279712
0.00027346
-0.00287269
0.000267152
-0.00294637
0.000260549
-0.00301773
0.000253243
-0.00308716
0.00024587
-0.003154
0.000237908
-0.0032186
0.000229835
-0.0032807
0.000221367
-0.00334027
0.000212701
-0.00339727
0.000203919
-0.00345201
0.000195127
-0.00350337
0.000185157
-0.00355218
0.000176659
-0.00359957
0.000167355
-0.00364285
0.00015695
-0.0036839
0.000147266
-0.00372081
0.000138235
-0.00375736
0.000129795
-0.00378976
0.000118071
-0.0038199
0.000108608
-0.00384779
9.9601e-05
-0.00387147
8.89781e-05
-0.00389291
7.8545e-05
6.81877e-05
-0.00391015
-0.0001582
4.06359e-05
0.000135311
-0.000184855
5.47093e-05
-0.000215794
7.07413e-05
-0.000251215
8.79271e-05
-0.000291188
0.000106008
-0.000335943
0.000124971
-0.000385676
0.000144482
-0.000439874
0.000164202
-0.000498797
0.000184536
-0.000562077
0.000204606
-0.000629762
0.000224641
-0.00070155
0.000244282
-0.000776911
0.000263147
-0.000855885
0.000281225
-0.000938263
0.000298644
-0.00102304
0.000314213
-0.00111051
0.000329138
-0.00120024
0.000342626
-0.00129186
0.000354704
-0.0013852
0.00036552
-0.00147992
0.000375013
-0.0015759
0.000383119
-0.00167273
0.000389863
-0.00177014
0.000395166
-0.00186776
0.000399051
-0.00196566
0.000401854
-0.00206332
0.000403253
-0.00216059
0.000403646
-0.0022573
0.000402913
-0.00235332
0.000401187
-0.00244834
0.000398479
-0.00254213
0.000394816
-0.00263468
0.000390332
-0.00272582
0.000385135
-0.0028152
0.000379098
-0.00290279
0.000372368
-0.00298875
0.000365234
-0.00307255
0.00035726
-0.00315422
0.000348824
-0.00323354
0.000339876
-0.00331081
0.000330508
-0.0033855
0.000320561
-0.00345777
0.000310189
-0.00352739
0.000299452
-0.00359432
0.000288303
-0.0036592
0.000277578
-0.00371929
0.000264014
-0.00377731
0.000253146
-0.00383364
0.000241494
-0.003886
0.000229017
-0.00393604
0.000217401
-0.00398387
0.000204782
-0.00402771
0.000191108
-0.00406929
0.000179809
-0.00410485
0.000165364
-0.00413996
0.000153181
-0.00417283
0.000141478
-0.00420151
0.000128278
-0.00422602
0.000113493
-0.00425027
0.000102794
8.82614e-05
-0.00427034
-0.000142941
6.97926e-05
0.000113784
-0.000176468
8.82365e-05
-0.000214485
0.000108758
-0.000257648
0.00013109
-0.000305913
0.000154272
-0.000359141
0.000178197
-0.000417377
0.000202717
-0.000480808
0.000227632
-0.000548932
0.000252658
-0.000621992
0.000277665
-0.000699481
0.000302129
-0.000780942
0.000325743
-0.000866397
0.000348601
-0.000955048
0.000369876
-0.0010467
0.000390295
-0.00114138
0.000408894
-0.00123858
0.000426342
-0.00133813
0.000442177
-0.00143935
0.000455924
-0.00154211
0.000468277
-0.00164633
0.000479237
-0.00175143
0.000488221
-0.00185744
0.00049587
-0.00196394
0.00050167
-0.00207069
0.000505795
-0.00217725
0.00050842
-0.00228359
0.000509591
-0.00238933
0.000509395
-0.00249438
0.000507962
-0.00259854
0.00050535
-0.00270157
0.000501506
-0.00280313
0.000496387
-0.00290329
0.000490486
-0.00300181
0.000483662
-0.00309839
0.000475676
-0.0031931
0.000467086
-0.00328563
0.000457761
-0.00337597
0.000447607
-0.00346411
0.000436964
-0.00354994
0.000425711
-0.00363298
0.000413544
-0.00371349
0.00040108
-0.00379114
0.000387839
-0.00386552
0.000373834
-0.00393733
0.000360121
-0.00400647
0.000346718
-0.00407354
0.000331087
-0.00413656
0.000316164
-0.00419559
0.000300523
-0.00425233
0.000285764
-0.00430507
0.000270147
-0.00435372
0.000253432
-0.0044019
0.00023929
-0.00444426
0.000222174
-0.0044862
0.0002073
-0.004524
0.000190986
-0.00455565
0.000173127
-0.004585
0.000157634
-0.00461415
0.000142635
-0.00463722
0.000125875
0.000109137
-0.0046581
-0.000140925
0.000105071
0.000105645
-0.000181407
0.000128718
-0.000227136
0.000154485
-0.000278504
0.000182457
-0.000335122
0.000210888
-0.000397439
0.000240512
-0.000465119
0.000270395
-0.000537926
0.000300437
-0.000616126
0.000330855
-0.000698821
0.000360358
-0.000786424
0.00038973
-0.000878326
0.000417644
-0.000973804
0.000444078
-0.00107261
0.000468678
-0.00117504
0.000492721
-0.00128018
0.000514036
-0.00138748
0.000533638
-0.00149709
0.000551794
-0.00160834
0.000567174
-0.00172125
0.00058118
-0.00183534
0.000593335
-0.00195033
0.000603205
-0.00206617
0.000611714
-0.00218233
0.000617829
-0.00229847
0.000621935
-0.00241444
0.00062439
-0.00252968
0.000624833
-0.0026445
0.000624215
-0.00275845
0.000621919
-0.00287107
0.00061797
-0.00298256
0.000613003
-0.00309248
0.000606301
-0.00320037
0.00059838
-0.00330659
0.000589888
-0.00341093
0.000580011
-0.00351281
0.000568973
-0.00361256
0.000557515
-0.00370979
0.000544835
-0.00380443
0.000531614
-0.00389646
0.000517746
-0.0039859
0.000502983
-0.00407172
0.000486904
-0.00415523
0.000471356
-0.00423556
0.000454163
-0.00431311
0.00043767
-0.00438663
0.000420245
-0.00445624
0.000400693
-0.00452341
0.000383339
-0.00458826
0.000365379
-0.00464735
0.000344853
-0.00470417
0.00032697
-0.0047587
0.000307964
-0.00480744
0.000288034
-0.00485408
0.00026881
-0.00489667
0.000249895
-0.00493502
0.000229343
-0.00497288
0.000210982
-0.00500462
0.000189381
-0.0050324
0.00017041
-0.00505619
0.000149671
0.000130706
-0.00507776
-0.000149574
0.000146633
0.000108012
-0.000197358
0.000176502
-0.000251031
0.000208157
-0.000311412
0.000242837
-0.000377461
0.000276935
-0.000449245
0.000312294
-0.000526912
0.00034806
-0.000609527
0.000383049
-0.000698174
0.0004195
-0.000791453
0.000453635
-0.000890308
0.000488583
-0.00099281
0.000520144
-0.00109998
0.000551245
-0.00120947
0.000578164
-0.00132238
0.000605632
-0.00143884
0.000630496
-0.00155723
0.000652027
-0.0016777
0.00067226
-0.00180027
0.000689744
-0.00192318
0.000704086
-0.0020481
0.000718261
-0.00217324
0.000728343
-0.00229983
0.000738305
-0.00242655
0.000744548
-0.00255268
0.000748062
-0.00267885
0.000750562
-0.00280353
0.000749516
-0.00292775
0.000748433
-0.00305117
0.000745347
-0.0031725
0.000739294
-0.00329311
0.000733621
-0.00341189
0.000725081
-0.00352796
0.000714448
-0.00364239
0.000704327
-0.00375499
0.000692609
-0.00386419
0.00067818
-0.00397132
0.000664648
-0.00407575
0.000649269
-0.00417674
0.000632607
-0.0042754
0.000616411
-0.00437158
0.000599156
-0.00446484
0.000580167
-0.00455241
0.000558937
-0.00463923
0.000540978
-0.00472098
0.000519431
-0.00479832
0.000497583
-0.0048753
0.000477678
-0.00494596
0.000453999
-0.00501303
0.000432453
-0.00507724
0.000409065
-0.00513632
0.000386048
-0.0051927
0.000364356
-0.00524511
0.00034044
-0.00529577
0.000319475
-0.00534082
0.000294948
-0.00538311
0.000271634
-0.00541941
0.000247285
-0.00545102
0.000220995
-0.00548094
0.00020033
-0.00550734
0.000176067
0.000152678
-0.00552931
-0.000166682
0.000119638
0.000193679
-0.000222994
0.000232816
-0.000283895
0.00026906
-0.000354765
0.000313708
-0.000430148
0.000352317
-0.000512413
0.000394559
-0.000600891
0.000436535
-0.000692758
0.000474913
-0.000794315
0.000521055
-0.000897052
0.000556369
-0.00100956
0.000601084
-0.00112212
0.000632707
-0.00124431
0.000673431
-0.00136254
0.000696383
-0.00148824
0.000731333
-0.0016175
0.000759746
-0.00174566
0.000780194
-0.00187963
0.00080622
-0.00201358
0.0008237
-0.0021468
0.000837296
-0.00228651
0.000857972
-0.00242033
0.000862152
-0.00255944
0.000877425
-0.00269781
0.000882914
-0.00283415
0.000884394
-0.00297297
0.000889384
-0.00310616
0.000882704
-0.00324094
0.000883213
-0.00337554
0.000879948
-0.00350482
0.000868581
-0.00363596
0.000864758
-0.00376384
0.000852967
-0.00388809
0.0008387
-0.00401118
0.000827412
-0.00413421
0.000815643
-0.00424895
0.000792921
-0.00436525
0.000780946
-0.00447702
0.000761043
-0.00458395
0.000739534
-0.00469134
0.000723801
-0.0047907
0.000698514
-0.00489077
0.000680235
-0.00498477
0.000652942
-0.00507542
0.000631627
-0.00516509
0.000609106
-0.00524725
0.000579735
-0.00532816
0.000558589
-0.00540198
0.000527821
-0.00547376
0.000504241
-0.00553937
0.000474667
-0.00560491
0.000451589
-0.00566339
0.000422839
-0.00571872
0.00039577
-0.00577017
0.00037093
-0.00581929
0.000344067
-0.00586049
0.000312835
-0.00590016
0.000286952
-0.00593332
0.000254162
-0.00596388
0.000230888
-0.00599098
0.000203162
-0.0060124
0.000174107
-0.00303829
1.34767e-05
-0.00304995
1.16674e-05
-0.00305993
9.97857e-06
-0.00306803
8.103e-06
-0.00307388
5.85189e-06
-0.00307712
3.23871e-06
-0.00307861
1.48985e-06
-0.00307801
-5.99095e-07
-0.00307541
-2.58753e-06
-0.0030704
-5.01192e-06
-0.0030635
-6.89718e-06
-0.00305456
-8.93243e-06
-0.00304357
-1.09857e-05
-0.00303052
-1.30488e-05
-0.00301571
-1.4805e-05
-0.00299906
-1.66452e-05
-0.00298038
-1.8666e-05
-0.00295967
-2.0709e-05
-0.00293725
-2.24087e-05
-0.00291296
-2.42853e-05
-0.00288688
-2.60757e-05
-0.00285917
-2.76971e-05
-0.00282973
-2.94395e-05
-0.00279845
-3.12703e-05
-0.00276554
-3.29061e-05
-0.00273125
-3.42823e-05
-0.00269529
-3.59586e-05
-0.00265766
-3.76182e-05
-0.0026185
-3.91553e-05
-0.00257796
-4.05343e-05
-0.00253593
-4.20232e-05
-0.00249246
-4.34679e-05
-0.00244774
-4.47139e-05
-0.00240171
-4.60272e-05
-0.00235435
-4.73549e-05
-0.00230583
-4.85145e-05
-0.00225622
-4.96073e-05
-0.00220548
-5.07332e-05
-0.00215354
-5.19328e-05
-0.00210057
-5.2968e-05
-0.00204671
-5.38629e-05
-0.00199191
-5.47971e-05
-0.00193619
-5.57178e-05
-0.00187971
-5.64703e-05
-0.00182234
-5.73687e-05
-0.00176416
-5.81806e-05
-0.00170534
-5.88132e-05
-0.00164598
-5.93612e-05
-0.00158595
-6.003e-05
-0.00152535
-6.05985e-05
-0.0014643
-6.1048e-05
-0.00140292
-6.13834e-05
-0.00134102
-6.19029e-05
-0.00127889
-6.21266e-05
-0.00121653
-6.2365e-05
-0.00115414
-6.23917e-05
-0.00109145
-6.26838e-05
-0.00102871
-6.27391e-05
-0.000966099
-6.26149e-05
-0.000903685
-6.24149e-05
-6.21764e-05
-0.000841509
-0.00330463
2.88178e-05
-0.0033154
2.24406e-05
-0.00332417
1.87437e-05
-0.00333071
1.46488e-05
-0.00333713
1.22709e-05
-0.00333937
5.47687e-06
-0.00334005
2.16838e-06
-0.00333694
-3.70592e-06
-0.00333318
-6.34549e-06
-0.00332584
-1.23501e-05
-0.00331668
-1.60648e-05
-0.0033052
-2.04056e-05
-0.0032917
-2.44921e-05
-0.00327632
-2.84282e-05
-0.00325848
-3.2646e-05
-0.00323859
-3.65273e-05
-0.00321658
-4.06761e-05
-0.00319262
-4.46668e-05
-0.00316644
-4.85924e-05
-0.00313832
-5.24007e-05
-0.00310844
-5.59574e-05
-0.00307636
-5.97807e-05
-0.00304236
-6.34395e-05
-0.00300661
-6.70196e-05
-0.00296902
-7.049e-05
-0.00292959
-7.37188e-05
-0.00288836
-7.71872e-05
-0.00284563
-8.03452e-05
-0.00280123
-8.35547e-05
-0.002755
-8.67618e-05
-0.00270734
-8.96807e-05
-0.0026583
-9.25132e-05
-0.00260758
-9.54328e-05
-0.00255543
-9.81752e-05
-0.00250205
-0.00010073
-0.00244719
-0.00010338
-0.00239104
-0.000105759
-0.00233363
-0.000108139
-0.00227512
-0.00011044
-0.00221544
-0.000112647
-0.00215447
-0.000114836
-0.00209259
-0.000116679
-0.00202974
-0.000118562
-0.00196583
-0.000120385
-0.00190108
-0.000122111
-0.00183546
-0.000123801
-0.00176908
-0.000125193
-0.00170178
-0.000126665
-0.0016339
-0.00012791
-0.00156542
-0.000129075
-0.00149637
-0.000130098
-0.00142697
-0.000130789
-0.00135658
-0.000132285
-0.00128645
-0.000132261
-0.00121538
-0.000133433
-0.00114433
-0.000133441
-0.00107247
-0.000134542
-0.00100123
-0.00013398
-0.00092994
-0.000133906
-0.000858665
-0.00013369
-0.000133882
-0.000786959
-0.00359617
4.28737e-05
-0.00361033
3.65959e-05
-0.00362003
2.84446e-05
-0.00362746
2.2079e-05
-0.00363061
1.54173e-05
-0.0036339
8.76608e-06
-0.00363276
1.02756e-06
-0.00362959
-6.87107e-06
-0.00362411
-1.18331e-05
-0.00361695
-1.95108e-05
-0.00360732
-2.56944e-05
-0.00359396
-3.37669e-05
-0.00357887
-3.95807e-05
-0.00356117
-4.61305e-05
-0.00354116
-5.26549e-05
-0.00351875
-5.8942e-05
-0.00349417
-6.52576e-05
-0.00346738
-7.14525e-05
-0.00343834
-7.76363e-05
-0.00340734
-8.34052e-05
-0.00337383
-8.94603e-05
-0.00333842
-9.51903e-05
-0.00330098
-0.000100884
-0.00326154
-0.000106463
-0.00322004
-0.000111985
-0.00317654
-0.000117226
-0.00313122
-0.00012251
-0.00308399
-0.000127569
-0.00303482
-0.000132734
-0.0029842
-0.000137374
-0.00293171
-0.000142172
-0.00287743
-0.0001468
-0.00282185
-0.000151013
-0.00276457
-0.000155452
-0.00270574
-0.000159558
-0.00264551
-0.000163617
-0.00258382
-0.000167451
-0.0025207
-0.000171251
-0.00245631
-0.000174834
-0.00239068
-0.000178278
-0.00232398
-0.000181538
-0.00225588
-0.000184779
-0.00218683
-0.000187607
-0.00211671
-0.000190509
-0.00204563
-0.000193188
-0.00197367
-0.000195759
-0.00190079
-0.000198081
-0.0018271
-0.000200355
-0.00175258
-0.000202426
-0.00167771
-0.000203947
-0.00160155
-0.000206254
-0.00152481
-0.000207531
-0.00144794
-0.00020916
-0.0013707
-0.000209502
-0.00129317
-0.000210954
-0.00121474
-0.000211875
-0.0011369
-0.00021238
-0.00105837
-0.000212513
-0.00097987
-0.000212405
-0.000900958
-0.000212602
-0.00021214
-0.000822699
-0.00392713
5.98544e-05
-0.00394001
4.94728e-05
-0.00395061
3.90444e-05
-0.00395695
2.84219e-05
-0.00396111
1.95794e-05
-0.00396282
1.04772e-05
-0.00396018
-1.61153e-06
-0.00395761
-9.43608e-06
-0.00395103
-1.84186e-05
-0.00394239
-2.81463e-05
-0.0039295
-3.8584e-05
-0.00391542
-4.78454e-05
-0.00389883
-5.61753e-05
-0.00387882
-6.61418e-05
-0.00385661
-7.48562e-05
-0.00383187
-8.36844e-05
-0.00380463
-9.24984e-05
-0.00377486
-0.000101221
-0.00374287
-0.000109628
-0.0037082
-0.000118072
-0.0036716
-0.000126066
-0.00363247
-0.000134313
-0.00359127
-0.00014209
-0.00354784
-0.000149889
-0.00350239
-0.000157433
-0.00345457
-0.00016505
-0.00340472
-0.000172355
-0.00335294
-0.000179352
-0.00329936
-0.000186318
-0.00324353
-0.000193203
-0.00318601
-0.000199686
-0.00312685
-0.00020596
-0.00306566
-0.000212202
-0.00300296
-0.00021816
-0.00293865
-0.000223861
-0.00287279
-0.000229481
-0.00280518
-0.000235059
-0.00273619
-0.000240236
-0.00266579
-0.000245243
-0.00259412
-0.000249943
-0.00252097
-0.000254688
-0.00244684
-0.000258904
-0.00237133
-0.000263124
-0.00229481
-0.000267028
-0.00221717
-0.000270824
-0.00213849
-0.000274435
-0.00205886
-0.000277714
-0.00197851
-0.000280704
-0.00189699
-0.000283951
-0.00181474
-0.00028619
-0.00173245
-0.000288548
-0.00164884
-0.000291136
-0.00156488
-0.000293124
-0.00147985
-0.000294529
-0.00139531
-0.000295495
-0.00130996
-0.000297225
-0.00122452
-0.000297823
-0.00113912
-0.000297911
-0.00105321
-0.00029831
-0.000967497
-0.000298315
-0.000298136
-0.0008815
-0.0042862
7.57103e-05
-0.00429788
6.11515e-05
-0.00430931
5.04814e-05
-0.00431657
3.56769e-05
-0.00431963
2.2637e-05
-0.00432038
1.12356e-05
-0.00432127
-7.26676e-07
-0.00431562
-1.5084e-05
-0.00430789
-2.61515e-05
-0.00429624
-3.97942e-05
-0.00428251
-5.23081e-05
-0.00426661
-6.37497e-05
-0.00424669
-7.60983e-05
-0.0042253
-8.75293e-05
-0.00420206
-9.80973e-05
-0.00417381
-0.000111934
-0.00414364
-0.000122667
-0.00411081
-0.000134057
-0.00407529
-0.000145149
-0.00403742
-0.000155943
-0.0039969
-0.000166583
-0.00395429
-0.000176932
-0.00390908
-0.000187299
-0.00386144
-0.000197525
-0.00381124
-0.000207635
-0.00375907
-0.000217226
-0.0037046
-0.000226819
-0.00364782
-0.00023613
-0.00358897
-0.000245177
-0.00352818
-0.000253993
-0.00346525
-0.000262613
-0.00340031
-0.000270904
-0.00333362
-0.000278886
-0.00326518
-0.000286604
-0.00319485
-0.000294189
-0.00312272
-0.000301615
-0.00304919
-0.000308586
-0.00297383
-0.000315599
-0.00289692
-0.000322151
-0.00281843
-0.000328438
-0.00273877
-0.000334343
-0.00265769
-0.000339985
-0.00257548
-0.000345338
-0.002492
-0.000350501
-0.00240739
-0.000355432
-0.00232205
-0.000359775
-0.00223451
-0.000365258
-0.0021465
-0.000368712
-0.00205827
-0.000372177
-0.00196864
-0.00037582
-0.00187853
-0.000378656
-0.00178807
-0.000381593
-0.00169652
-0.000384679
-0.00160466
-0.000386388
-0.00151116
-0.000388988
-0.00141828
-0.000390106
-0.00132536
-0.000390741
-0.00123197
-0.000391307
-0.00113816
-0.000392118
-0.00104514
-0.000391333
-0.000391439
-0.000951835
-0.0046748
9.24086e-05
-0.00468931
7.56601e-05
-0.00469765
5.88296e-05
-0.0047058
4.38201e-05
-0.00471174
2.85855e-05
-0.00471156
1.1052e-05
-0.00470731
-4.97319e-06
-0.00470279
-1.96048e-05
-0.00469231
-3.66302e-05
-0.00468165
-5.04558e-05
-0.00466696
-6.70028e-05
-0.00464826
-8.24441e-05
-0.00462746
-9.68999e-05
-0.00460273
-0.00011226
-0.004574
-0.000126835
-0.00454336
-0.000142572
-0.00451013
-0.000155892
-0.00447442
-0.000169767
-0.00443539
-0.000184189
-0.00439359
-0.000197741
-0.00434932
-0.000210855
-0.00430214
-0.000224116
-0.00425245
-0.000236987
-0.00420026
-0.000249712
-0.00414562
-0.000262282
-0.00408827
-0.000274578
-0.00402871
-0.000286372
-0.00396668
-0.000298166
-0.00390234
-0.000309514
-0.00383595
-0.00032039
-0.0037672
-0.000331363
-0.00369631
-0.000341797
-0.0036235
-0.000351692
-0.00354886
-0.000361248
-0.00347208
-0.000370966
-0.00339363
-0.000380065
-0.00331314
-0.000389078
-0.00323092
-0.000397823
-0.00314713
-0.000405941
-0.00306182
-0.00041375
-0.00297476
-0.000421401
-0.00288647
-0.000428281
-0.0027968
-0.000435006
-0.00270559
-0.000441707
-0.00261347
-0.000447554
-0.0025202
-0.000453041
-0.00242644
-0.000459019
-0.00233099
-0.000464164
-0.00223427
-0.000468897
-0.00213705
-0.000473039
-0.00203861
-0.000477095
-0.00193913
-0.000481071
-0.00184002
-0.000483789
-0.00173931
-0.000487095
-0.00163894
-0.000489356
-0.00153794
-0.000491112
-0.00143563
-0.000493047
-0.00133369
-0.000493249
-0.00123241
-0.000493392
-0.00113051
-0.000493237
-0.000493076
-0.00102887
-0.00509519
0.000109844
-0.00511042
9.08912e-05
-0.00512156
6.99703e-05
-0.00512857
5.08272e-05
-0.00512952
2.95393e-05
-0.00513036
1.18912e-05
-0.00512706
-8.27839e-06
-0.00511965
-2.7016e-05
-0.00511016
-4.61156e-05
-0.00509489
-6.57253e-05
-0.00507759
-8.4303e-05
-0.00505809
-0.000101948
-0.00503271
-0.000122277
-0.00500532
-0.000139651
-0.00497596
-0.000156198
-0.00494263
-0.000175903
-0.00490527
-0.00019325
-0.00486509
-0.000209953
-0.00482173
-0.000227547
-0.00477649
-0.000242978
-0.00472757
-0.000259777
-0.00467614
-0.000275554
-0.00462181
-0.000291314
-0.00456458
-0.00030695
-0.00450455
-0.000322307
-0.00444188
-0.000337248
-0.00437651
-0.000351743
-0.00430888
-0.000365805
-0.00423887
-0.000379519
-0.00416629
-0.000392975
-0.00409125
-0.0004064
-0.00401408
-0.00041897
-0.00393453
-0.000431243
-0.00385317
-0.000442614
-0.0037698
-0.000454338
-0.00368429
-0.000465572
-0.00359678
-0.000476591
-0.0035072
-0.0004874
-0.00341581
-0.00049733
-0.00332264
-0.00050692
-0.00322795
-0.000516097
-0.00313128
-0.000524946
-0.00303382
-0.000532469
-0.00293506
-0.000540469
-0.00283529
-0.000547323
-0.00273353
-0.000554805
-0.0026304
-0.000562148
-0.00252662
-0.000567943
-0.0024226
-0.000572917
-0.00231635
-0.000579283
-0.00220966
-0.000583784
-0.0021028
-0.000587935
-0.00199407
-0.000592514
-0.00188525
-0.00059592
-0.0017753
-0.000599304
-0.00166489
-0.000601525
-0.00155496
-0.000602975
-0.00144436
-0.000603842
-0.00133335
-0.0006044
-0.00122248
-0.000604106
-0.00060371
-0.00111185
-0.00554735
0.000127887
-0.00556105
0.000104592
-0.00557096
7.98778e-05
-0.00557852
5.83892e-05
-0.0055823
3.33233e-05
-0.00558026
9.85448e-06
-0.00557623
-1.23164e-05
-0.00556581
-3.74309e-05
-0.00555338
-5.85438e-05
-0.00553757
-8.15339e-05
-0.00551967
-0.00010221
-0.00549584
-0.000125781
-0.00546965
-0.00014846
-0.00543978
-0.00016953
-0.00540457
-0.000191409
-0.00536872
-0.00021175
-0.00532898
-0.000232992
-0.00528326
-0.000255676
-0.00523709
-0.000273723
-0.00518598
-0.000294087
-0.00513167
-0.00031409
-0.00507538
-0.000331843
-0.00501631
-0.000350385
-0.00495354
-0.000369718
-0.00488786
-0.000387989
-0.00481922
-0.000405894
-0.00474783
-0.000423131
-0.00467382
-0.000439822
-0.00459726
-0.00045608
-0.0045182
-0.000472035
-0.00443625
-0.000488345
-0.0043523
-0.000502925
-0.00426569
-0.000517854
-0.0041777
-0.000530604
-0.00408703
-0.000545014
-0.00399414
-0.000558461
-0.00389914
-0.000571592
-0.00380159
-0.000584949
-0.00370181
-0.000597116
-0.00360054
-0.000608188
-0.00349766
-0.000618979
-0.00339297
-0.000629637
-0.00328609
-0.000639344
-0.00317937
-0.000647186
-0.00307045
-0.000656244
-0.00295933
-0.000665928
-0.00284893
-0.000672548
-0.00273572
-0.000681148
-0.00262228
-0.000686364
-0.0025079
-0.000693658
-0.00239147
-0.000700215
-0.00227525
-0.000704149
-0.00215772
-0.000710049
-0.0020403
-0.00071334
-0.00192045
-0.00071915
-0.00180122
-0.00072075
-0.00168037
-0.000723834
-0.00156022
-0.000723982
-0.00143985
-0.000724778
-0.00132
-0.000723951
-0.000724259
-0.00119945
-0.00603103
0.000146509
-0.00604444
0.000118012
-0.0060548
9.02389e-05
-0.00605841
6.19995e-05
-0.00606083
3.5737e-05
-0.00605947
8.49355e-06
-0.00605366
-1.81184e-05
-0.00604308
-4.80162e-05
-0.00602731
-7.43138e-05
-0.0060109
-9.79385e-05
-0.00598849
-0.000124628
-0.00596248
-0.000151784
-0.00593412
-0.000176825
-0.0058989
-0.000204746
-0.00586446
-0.000225857
-0.00582278
-0.000253427
-0.00577676
-0.00027901
-0.00572941
-0.00030303
-0.00567545
-0.000327685
-0.00562052
-0.000349018
-0.005563
-0.00037161
-0.00549972
-0.000395127
-0.00543646
-0.000413649
-0.00536747
-0.000438711
-0.0052949
-0.000460554
-0.00522076
-0.000480033
-0.00514181
-0.000502081
-0.00506189
-0.00051975
-0.00497648
-0.000541488
-0.00489245
-0.00055607
-0.00480104
-0.000579753
-0.00471122
-0.000592745
-0.00461528
-0.000613797
-0.00452159
-0.000624293
-0.00442352
-0.000643081
-0.00432239
-0.000659599
-0.00422055
-0.000673427
-0.00411372
-0.000691783
-0.00400482
-0.000706014
-0.00389644
-0.000716568
-0.00378266
-0.000732757
-0.00366749
-0.000744815
-0.00355359
-0.000753239
-0.00343486
-0.00076592
-0.00332017
-0.000770935
-0.00319767
-0.000788428
-0.00307892
-0.000791293
-0.00295419
-0.000805879
-0.00283361
-0.000806937
-0.00270973
-0.000817547
-0.00258296
-0.000826983
-0.00245931
-0.000827794
-0.00233035
-0.000839014
-0.0022047
-0.000838983
-0.0020721
-0.00085175
-0.00194452
-0.000848332
-0.00181054
-0.000857814
-0.00168426
-0.000850259
-0.00155089
-0.000858142
-0.00142333
-0.000851512
-0.0012892
-0.000858392
-0.000779138
-6.23724e-05
-0.000717122
-6.20163e-05
-0.000655481
-6.1642e-05
-0.000594251
-6.12308e-05
-0.000533492
-6.07601e-05
-0.000473252
-6.02412e-05
-0.000413786
-5.94667e-05
-0.000355143
-5.86439e-05
-0.000297532
-5.76123e-05
-0.000241087
-5.64454e-05
-0.00018566
-5.54272e-05
-0.000129407
-5.6254e-05
-7.1406e-05
-5.80013e-05
-1.22308e-05
-5.91754e-05
4.58666e-05
-5.80974e-05
0.000101314
-5.54473e-05
0.000154483
-5.31685e-05
0.00020589
-5.14068e-05
0.000255721
-4.98304e-05
0.000303987
-4.82653e-05
0.000350704
-4.6717e-05
0.000395817
-4.51121e-05
0.000439257
-4.34384e-05
0.000480891
-4.16326e-05
0.000520659
-3.97674e-05
0.0005585
-3.78389e-05
0.000594293
-3.57916e-05
0.000627906
-3.36119e-05
0.000659224
-3.13169e-05
0.000688156
-2.89303e-05
0.000714502
-2.63452e-05
0.000738105
-2.36014e-05
0.000758841
-2.07348e-05
0.000776464
-1.76222e-05
0.000790757
-1.42921e-05
0.000801525
-1.0768e-05
0.000808512
-6.98623e-06
0.000811445
-2.9335e-06
0.000810963
4.81316e-07
0.000806949
4.01376e-06
0.000799498
7.44984e-06
0.000787944
1.15521e-05
0.000771775
1.61669e-05
0.000750564
2.12087e-05
0.000723676
2.68853e-05
0.000690485
3.31885e-05
0.00065037
4.01118e-05
0.000602594
4.77736e-05
0.000546299
5.62918e-05
0.00048072
6.55752e-05
0.000405135
7.55818e-05
0.000318981
8.61505e-05
0.000221691
9.72878e-05
0.000112464
0.000109223
-1.47375e-05
0.000127199
-0.000154638
0.000139898
-0.00028414
0.000129501
-0.000391625
0.000107485
-0.000473135
8.15104e-05
-0.000533991
6.08572e-05
5.0899e-05
-0.000584888
-0.000715875
-0.000133456
-0.000644485
-0.000133406
-0.000573313
-0.000132814
-0.000502398
-0.000132146
-0.000432099
-0.000131058
-0.000361919
-0.000130421
-0.000292276
-0.00012911
-0.000223025
-0.000127895
-0.000154498
-0.000126139
-8.65258e-05
-0.000124418
-1.81598e-05
-0.000123793
5.06164e-05
-0.00012503
0.000118313
-0.000125697
0.000184736
-0.000125598
0.000250435
-0.000123796
0.000315524
-0.000120536
0.000379535
-0.000117179
0.000442235
-0.000114106
0.000503538
-0.000111132
0.000563462
-0.000108188
0.000622011
-0.000105265
0.000679046
-0.000102145
0.000734538
-9.8929e-05
0.000788483
-9.55753e-05
0.000840776
-9.20583e-05
0.000891356
-8.84173e-05
0.000940093
-8.45256e-05
0.000987004
-8.05204e-05
0.00103194
-7.62517e-05
0.00107473
-7.17161e-05
0.00111539
-6.70029e-05
0.00115381