/*--------------------------------*- C++ -*----------------------------------*\
| =========                 |                                                 |
| \\      /  F ield         | OpenFOAM: The Open Source CFD Toolbox           |
|  \\    /   O peration     | Version:  2.3.1                                 |
|   \\  /    A nd           | Web:      www.OpenFOAM.org                      |
|    \\/     M anipulation  |                                                 |
\*---------------------------------------------------------------------------*/
FoamFile
{
    version     2.0;
    format      ascii;
    class       volScalarField;
    location    "1";
    object      p;
}
// * * * * * * * * * * * * * * * * * * * * * * * * * * * * * * * * * * * * * //

dimensions      [0 2 -2 0 0 0 0];

internalField   nonuniform List<scalar> 
768
(
-0.0487065
-0.048521
-0.0482786
-0.0480196
-0.0477529
-0.0474043
-0.0468323
-0.0460959
-0.045206
-0.0442002
-0.0431298
-0.0420535
-0.0456187
-0.0455549
-0.0456496
-0.0458062
-0.0458163
-0.045577
-0.0451548
-0.0443861
-0.0432735
-0.0419209
-0.040464
-0.0390497
-0.0440088
-0.0441424
-0.0445922
-0.0450959
-0.0453699
-0.0452797
-0.0447021
-0.0437059
-0.0423267
-0.0406488
-0.0388181
-0.0370009
-0.041562
-0.0419345
-0.0426323
-0.0432489
-0.0435452
-0.0433978
-0.0428047
-0.0417453
-0.0402467
-0.0383771
-0.0362413
-0.0339495
-0.0388097
-0.0392132
-0.0398692
-0.0404193
-0.0406575
-0.0404719
-0.0398144
-0.038682
-0.0370763
-0.0350358
-0.0325844
-0.0298257
-0.0355819
-0.0357268
-0.0361486
-0.0365336
-0.0366967
-0.0364731
-0.03578
-0.0345755
-0.032829
-0.0305534
-0.0276643
-0.0244965
-0.03219
-0.0318164
-0.0318356
-0.0320524
-0.0322184
-0.0319838
-0.0311656
-0.0296008
-0.0274798
-0.024711
-0.0215569
-0.0182204
-0.0289057
-0.0278205
-0.0275435
-0.0278968
-0.0284124
-0.028291
-0.027041
-0.0248718
-0.0219657
-0.0186781
-0.0152493
-0.011992
-0.0257525
-0.0240163
-0.0237542
-0.0246569
-0.0258335
-0.0259366
-0.0244016
-0.0214395
-0.0176529
-0.0136882
-0.00999278
-0.00688321
-0.0222959
-0.0202163
-0.0201933
-0.0217293
-0.0235764
-0.0240089
-0.0224387
-0.0191241
-0.0148824
-0.0105301
-0.00657887
-0.0033561
-0.0181675
-0.015983
-0.0163881
-0.0186449
-0.0211642
-0.0220908
-0.0207153
-0.0173496
-0.0130138
-0.00864853
-0.00472445
-0.00146819
-0.0135525
-0.0115878
-0.0124738
-0.0155673
-0.0187108
-0.0200799
-0.0190512
-0.0158577
-0.0117003
-0.00753263
-0.00375534
-0.000552711
-0.041038
-0.0401392
-0.0393847
-0.0388031
-0.0384736
-0.038384
-0.038457
-0.0385133
-0.0383544
-0.0379225
-0.0373355
-0.0368032
-0.0378082
-0.0367927
-0.0360143
-0.0355704
-0.0355393
-0.0359097
-0.0365109
-0.0369918
-0.0369773
-0.0363478
-0.0352587
-0.0342635
-0.0352996
-0.0337424
-0.0324733
-0.0317467
-0.0316703
-0.0321546
-0.0330266
-0.0338349
-0.034051
-0.0333814
-0.0322308
-0.0312797
-0.0316048
-0.0294279
-0.0277594
-0.0268008
-0.0265136
-0.0268434
-0.0275443
-0.0282893
-0.0286417
-0.0284096
-0.0279345
-0.0275846
-0.027008
-0.0245956
-0.0229236
-0.0219977
-0.0216886
-0.021837
-0.022221
-0.0226191
-0.0228125
-0.0228554
-0.0231815
-0.0236352
-0.0214853
-0.0191985
-0.017834
-0.0172136
-0.0170706
-0.0171715
-0.0173585
-0.0175389
-0.0175438
-0.0173769
-0.0177847
-0.0193346
-0.0153081
-0.0133333
-0.0123847
-0.0121574
-0.0122906
-0.0124985
-0.0125998
-0.0125388
-0.0123981
-0.0121926
-0.0123167
-0.0143765
-0.00935706
-0.00768664
-0.00711563
-0.00723469
-0.0075796
-0.00783446
-0.00784693
-0.00766222
-0.00726104
-0.00687517
-0.00679397
-0.00840454
-0.00454998
-0.00311867
-0.00269365
-0.00295434
-0.00341531
-0.00369696
-0.00361467
-0.00312429
-0.00239079
-0.00147496
-0.000735571
-0.00132329
-0.00107723
0.000143393
0.000499214
0.000299964
-6.83679e-05
-0.000288648
-0.000119163
0.000553801
0.00173221
0.00329898
0.00514885
0.00614341
0.000928509
0.00231855
0.00279121
0.0026615
0.00237023
0.00225714
0.00252688
0.00332569
0.00476587
0.00690043
0.00975547
0.0121733
0.00189666
0.00346237
0.00419814
0.0043111
0.00413452
0.00402076
0.00428066
0.0050663
0.00648919
0.00868617
0.0120506
0.015137
-0.0487492
-0.0485616
-0.0483196
-0.0480594
-0.0477908
-0.0474403
-0.0468658
-0.0461265
-0.0452337
-0.0442249
-0.0431516
-0.0420727
-0.0456641
-0.0455999
-0.0456913
-0.0458457
-0.0458536
-0.045612
-0.0451878
-0.0444154
-0.0432991
-0.0419431
-0.0404833
-0.0390669
-0.0440572
-0.0441892
-0.0446365
-0.0451381
-0.0454099
-0.0453172
-0.0447355
-0.043736
-0.0423526
-0.0406707
-0.038837
-0.0370176
-0.0416145
-0.0419845
-0.0426803
-0.043295
-0.0435887
-0.0434379
-0.0428413
-0.0417777
-0.0402744
-0.0384001
-0.0362607
-0.0339653
-0.0388647
-0.0392677
-0.0399228
-0.0404714
-0.0407069
-0.0405176
-0.0398556
-0.0387179
-0.0371068
-0.0350603
-0.0326039
-0.02984
-0.0356408
-0.0357859
-0.0362088
-0.0365933
-0.0367542
-0.036527
-0.035829
-0.0346187
-0.0328643
-0.0305772
-0.0276836
-0.0245104
-0.0322515
-0.0318797
-0.0319007
-0.0321175
-0.0322813
-0.0320428
-0.031221
-0.0296504
-0.0275225
-0.0247471
-0.0215802
-0.0182373
-0.0289682
-0.0278852
-0.0276096
-0.0279626
-0.0284761
-0.0283507
-0.0270947
-0.0249201
-0.0220082
-0.0187136
-0.0152757
-0.0120145
-0.0258157
-0.0240813
-0.0238203
-0.0247241
-0.0259013
-0.0260012
-0.0244586
-0.0214868
-0.0176913
-0.0137203
-0.0100209
-0.00691051
-0.0223619
-0.0202833
-0.0202616
-0.0218009
-0.0236514
-0.0240815
-0.0225022
-0.0191745
-0.0149209
-0.010561
-0.00660673
-0.00338454
-0.0182408
-0.0160562
-0.0164619
-0.0187214
-0.0212448
-0.0221695
-0.0207847
-0.017404
-0.0130549
-0.00868151
-0.00475393
-0.00149692
-0.0136402
-0.0116728
-0.0125553
-0.0156461
-0.0187919
-0.0201585
-0.0191235
-0.0159158
-0.011745
-0.00756898
-0.00378744
-0.000582726
-0.0410548
-0.0401536
-0.0393958
-0.0388099
-0.0384756
-0.0383812
-0.0384506
-0.0385052
-0.0383458
-0.0379143
-0.0373281
-0.0367964
-0.0378231
-0.0368036
-0.0360201
-0.0355707
-0.0355335
-0.0358983
-0.0364955
-0.0369743
-0.0369602
-0.036333
-0.0352478
-0.034255
-0.0353131
-0.033751
-0.0324769
-0.0317452
-0.031663
-0.0321406
-0.0330069
-0.0338121
-0.0340283
-0.0333595
-0.0322176
-0.0312707
-0.0316167
-0.0294369
-0.0277658
-0.026803
-0.0265097
-0.0268329
-0.027528
-0.0282704
-0.0286258
-0.0284035
-0.0279289
-0.0275797
-0.0270191
-0.0246062
-0.0229324
-0.0220008
-0.0216839
-0.0218251
-0.0222046
-0.0226028
-0.0227997
-0.0228468
-0.0231745
-0.0236291
-0.0214977
-0.0192114
-0.0178432
-0.0172141
-0.0170603
-0.017153
-0.0173362
-0.0175204
-0.0175313
-0.0173677
-0.0177738
-0.0193247
-0.0153252
-0.0133512
-0.0123974
-0.0121585
-0.0122782
-0.0124771
-0.0125772
-0.0125185
-0.0123846
-0.0121839
-0.0123065
-0.0143649
-0.00938
-0.00771135
-0.00713523
-0.00724121
-0.00757079
-0.00781478
-0.00782392
-0.00763922
-0.00724754
-0.00686666
-0.00678544
-0.00839438
-0.00457841
-0.00314751
-0.00271794
-0.00296672
-0.00341244
-0.00368221
-0.00359587
-0.00311088
-0.00238341
-0.00146815
-0.000729279
-0.00131748
-0.00110736
0.000113416
0.000474073
0.00028564
-6.89225e-05
-0.000277286
-0.000101686
0.000571428
0.00175068
0.00330654
0.00515094
0.00614237
0.000899569
0.00229056
0.00276788
0.00264753
0.00236825
0.00226636
0.00254319
0.00334391
0.00478188
0.00690812
0.00975462
0.0121658
0.00186823
0.00343663
0.00417757
0.00429845
0.00413144
0.00402777
0.004295
0.00508396
0.00650592
0.00869843
0.0120551
0.0151319
-0.00603731
-0.00732429
-0.00947275
-0.013521
-0.0171045
-0.018612
-0.0174673
-0.0144215
-0.0106231
-0.00681222
-0.0032721
-0.000165414
-0.00282942
-0.0067872
-0.00941754
-0.0127751
-0.0156909
-0.0167221
-0.0154835
-0.0128704
-0.00969074
-0.00634925
-0.0030519
-2.09678e-05
-0.00115455
-0.00564938
-0.00857581
-0.0112643
-0.0135241
-0.0144259
-0.0133678
-0.0114542
-0.00901499
-0.00619924
-0.0031413
-7.1315e-05
-0.000172244
-0.00384408
-0.00681733
-0.00937989
-0.0115519
-0.0127782
-0.0114965
-0.0100086
-0.00810173
-0.00578295
-0.00313751
-0.000428644
0.0023114
0.00398869
0.0049274
0.00528453
0.00527757
0.00517969
0.00531672
0.0058972
0.00695342
0.00832566
0.00945894
0.00683408
0.00244695
0.00412015
0.00518265
0.00573332
0.00590985
0.00581651
0.00583348
0.00612187
0.00664109
0.00711833
0.00674191
0.00435836
0.00250442
0.00405837
0.00521387
0.00585327
0.00614454
0.00596272
0.00597159
0.00606068
0.00614801
0.00609535
0.00536991
0.0036288
0.00206942
0.00335595
0.00484314
0.0056858
0.00614082
0.00566843
0.0056834
0.00570839
0.00558289
0.00525947
0.00445194
0.0029219
-0.00614064
-0.00743055
-0.00956499
-0.0136002
-0.017183
-0.018694
-0.0175414
-0.0144827
-0.0106718
-0.0068526
-0.00330736
-0.000196992
-0.00295325
-0.00690735
-0.00951452
-0.0128575
-0.0157719
-0.0168039
-0.0155584
-0.0129335
-0.00974312
-0.00639383
-0.00309083
-5.4988e-05
-0.00126749
-0.00575671
-0.00866907
-0.0113486
-0.0136051
-0.0145037
-0.0134397
-0.0115178
-0.00907012
-0.00624719
-0.00318348
-0.000108051
-0.000265731
-0.00393197
-0.00689757
-0.00945481
-0.0116243
-0.0128482
-0.0115638
-0.0100704
-0.00815678
-0.00583186
-0.00318166
-0.000467558
0.00228305
0.00396413
0.0049082
0.00527252
0.00527401
0.00518406
0.00532781
0.0059127
0.00697006
0.00834124
0.00946624
0.0068348
0.0024176
0.00409559
0.00516345
0.00572035
0.00590363
0.0058176
0.00584062
0.00613349
0.00665511
0.00713274
0.00674981
0.00435294
0.00247301
0.00403274
0.00519332
0.00583824
0.00613467
0.0059602
0.00597482
0.00606838
0.00615843
0.00610632
0.00537662
0.00362544
0.00203615
0.00332942
0.00482068
0.00566828
0.00612616
0.00566207
0.00568237
0.00571213
0.00558983
0.005268
0.00446037
0.00293137
)
;

boundaryField
{
    rotor
    {
        type            zeroGradient;
    }
    stator
    {
        type            zeroGradient;
    }
    AMI1
    {
        type            cyclicAMI;
        value           nonuniform List<scalar> 
48
(
-0.000144628
-0.00341667
-0.00627277
-0.00873478
-0.0107672
-0.0119536
-0.0107947
-0.00947114
-0.00769808
-0.00552694
-0.00304904
-0.000542839
0.00179126
0.00317678
0.0046378
0.00547136
0.00593552
0.00560275
0.00560446
0.00557021
0.00537379
0.00495882
0.00409105
0.00257044
-0.000234149
-0.0035008
-0.00635042
-0.00880791
-0.0108382
-0.0120224
-0.0108609
-0.00953282
-0.00775343
-0.00557646
-0.00309354
-0.000581644
0.00175885
0.00315041
0.00461553
0.00545363
0.00592078
0.00559613
0.00560298
0.00557355
0.00538062
0.00496787
0.00410152
0.0025845
)
;
    }
    AMI2
    {
        type            cyclicAMI;
        value           nonuniform 0();
    }
    front
    {
        type            empty;
    }
    back
    {
        type            empty;
    }
    procBoundary2to3
    {
        type            processor;
        value           nonuniform List<scalar> 8(0.00689801 0.0044474 0.00372549 0.0030147 -0.00610094 -0.00294916 -0.00126184 -0.000242637);
    }
}


// ************************************************************************* //
