/*--------------------------------*- C++ -*----------------------------------*\
| =========                 |                                                 |
| \\      /  F ield         | OpenFOAM: The Open Source CFD Toolbox           |
|  \\    /   O peration     | Version:  2.3.1                                 |
|   \\  /    A nd           | Web:      www.OpenFOAM.org                      |
|    \\/     M anipulation  |                                                 |
\*---------------------------------------------------------------------------*/
FoamFile
{
    version     2.0;
    format      ascii;
    class       volScalarField;
    location    "0.77";
    object      k;
}
// * * * * * * * * * * * * * * * * * * * * * * * * * * * * * * * * * * * * * //

dimensions      [0 2 -2 0 0 0 0];

internalField   nonuniform List<scalar> 
15166
(
1.0792
1.32442
1.70744
2.10976
2.42107
2.73162
2.95354
3.08645
3.13278
3.11037
3.0268
2.9153
1.07956
1.29579
1.7113
2.102
2.41268
2.70207
2.9035
3.01964
3.05553
3.02821
2.94589
2.82558
1.0876
1.26422
1.69591
2.07997
2.38995
2.6627
2.84853
2.95204
2.98073
2.95003
2.86782
2.74425
1.09813
1.23889
1.6743
2.05154
2.35868
2.61731
2.79077
2.88473
2.90833
2.87524
2.7923
2.66389
1.10952
1.21982
1.65119
2.02092
2.32317
2.56918
2.73222
2.81868
2.8385
2.80375
2.72031
2.59121
1.12182
1.20532
1.62771
1.98945
2.28551
2.52001
2.67404
2.7544
2.77132
2.73535
2.65146
2.52112
1.13508
1.1943
1.60447
1.95777
2.24669
2.47071
2.61683
2.69214
2.70674
2.66983
2.58521
2.45189
1.14908
1.1861
1.582
1.92631
2.20751
2.42189
2.56098
2.632
2.64472
2.60712
2.52222
2.38958
1.1636
1.18025
1.56065
1.89553
2.16856
2.37397
2.50671
2.57404
2.58519
2.54713
2.46228
2.33043
1.17848
1.17627
1.54054
1.8656
2.13023
2.32728
2.45421
2.51825
2.52808
2.48977
2.40548
2.27622
1.19356
1.17384
1.5217
1.83665
2.09275
2.28193
2.4035
2.4646
2.47332
2.435
2.35177
2.22603
1.20874
1.17262
1.50407
1.80874
2.05628
2.23804
2.35463
2.41305
2.42081
2.38274
2.30136
2.18147
1.22393
1.1724
1.48763
1.78184
2.02089
2.19562
2.30754
2.36349
2.37045
2.33287
2.25379
2.13982
1.23905
1.173
1.47229
1.75597
1.98663
2.15467
2.26221
2.31588
2.32215
2.28517
2.20788
2.09435
1.25403
1.1742
1.45799
1.73113
1.95351
2.11518
2.21858
2.27012
2.27583
2.23959
2.16446
2.05571
1.26882
1.1759
1.44461
1.70726
1.92154
2.07712
2.1766
2.22613
2.23136
2.19594
2.12307
2.01819
1.28336
1.17796
1.43206
1.68435
1.89069
2.04043
2.13618
2.18384
2.18865
2.15412
2.08345
1.98173
1.29762
1.1803
1.42031
1.66238
1.86096
2.0051
2.09728
2.14315
2.14763
2.11401
2.04545
1.94655
1.31157
1.18285
1.40925
1.64127
1.83228
1.97103
2.05981
2.10399
2.10818
2.0755
2.00908
1.9136
1.32517
1.18552
1.39885
1.621
1.80464
1.9382
2.02372
2.06629
2.07022
2.03851
1.97421
1.88199
1.3384
1.18827
1.38901
1.60153
1.77799
1.90654
1.98892
2.02995
2.03367
2.0029
1.94055
1.85044
1.35126
1.19105
1.37968
1.58283
1.75229
1.876
1.95538
1.99493
1.99845
1.96859
1.908
1.81972
1.36371
1.19382
1.37083
1.56483
1.72751
1.84654
1.92302
1.96115
1.96448
1.93549
1.87644
1.7894
1.37575
1.19657
1.36239
1.54751
1.7036
1.81812
1.89179
1.92855
1.93171
1.90351
1.84586
1.76015
1.38735
1.19927
1.35434
1.53086
1.68054
1.79068
1.86164
1.89708
1.90006
1.87259
1.81624
1.73199
1.39852
1.20189
1.34662
1.51482
1.65829
1.76419
1.83252
1.86668
1.86947
1.84269
1.78759
1.70496
1.40926
1.20442
1.33921
1.49935
1.63681
1.73859
1.80439
1.83729
1.83989
1.81376
1.75992
1.67928
1.41956
1.20688
1.33209
1.48442
1.61605
1.71385
1.77719
1.80886
1.81127
1.78576
1.73324
1.65508
1.4294
1.20923
1.32521
1.47003
1.596
1.68994
1.75087
1.78136
1.78356
1.75867
1.70748
1.63156
1.43881
1.21148
1.31858
1.45612
1.57662
1.6668
1.72542
1.75474
1.75673
1.73243
1.68253
1.60843
1.44775
1.21363
1.31214
1.44266
1.55787
1.64442
1.70078
1.72896
1.73074
1.70701
1.65838
1.58618
1.45625
1.21567
1.30589
1.42964
1.53973
1.62276
1.67691
1.70399
1.70555
1.68238
1.63495
1.56443
1.46429
1.21761
1.29982
1.41705
1.52218
1.60178
1.6538
1.67978
1.68113
1.65848
1.61225
1.54354
1.47192
1.21945
1.29392
1.40485
1.50519
1.58147
1.6314
1.6563
1.65743
1.6353
1.59022
1.52314
1.47905
1.22119
1.28817
1.39303
1.48873
1.56178
1.60968
1.63354
1.63445
1.61281
1.56886
1.50349
1.48578
1.22284
1.28258
1.38154
1.47277
1.5427
1.58862
1.61145
1.61214
1.59097
1.54811
1.4843
1.49207
1.22439
1.27712
1.37041
1.4573
1.52419
1.56818
1.59
1.59046
1.56976
1.52799
1.46604
1.49792
1.22585
1.27179
1.35959
1.44229
1.50623
1.54834
1.56918
1.5694
1.54915
1.50848
1.44843
1.50335
1.22724
1.26658
1.34907
1.42773
1.48881
1.52909
1.54895
1.54895
1.52914
1.48952
1.43099
1.50836
1.22855
1.2615
1.33885
1.4136
1.4719
1.51039
1.5293
1.52907
1.50969
1.47116
1.41464
1.51291
1.22979
1.25652
1.32891
1.39987
1.45547
1.49222
1.51019
1.50973
1.49075
1.45313
1.39694
1.51701
1.23093
1.25164
1.31924
1.38654
1.43952
1.47457
1.49162
1.49093
1.47231
1.43544
1.3796
1.52068
1.23198
1.24687
1.30983
1.37359
1.42402
1.45742
1.47357
1.47263
1.45435
1.41824
1.36366
1.52393
1.23292
1.2422
1.30067
1.36101
1.40896
1.44074
1.456
1.45481
1.43684
1.40146
1.34791
1.52676
1.23373
1.23764
1.29177
1.34877
1.39431
1.42452
1.43891
1.43747
1.41979
1.38514
1.33294
1.52917
1.2344
1.23318
1.28312
1.33685
1.38006
1.40874
1.42227
1.42058
1.40316
1.36921
1.31786
1.53118
1.23498
1.22883
1.27468
1.32525
1.3662
1.39338
1.40607
1.40412
1.38696
1.35373
1.30388
1.53279
1.23541
1.22457
1.26646
1.31396
1.35273
1.37843
1.39029
1.38808
1.37115
1.33863
1.28986
1.53402
1.23573
1.22038
1.25845
1.30296
1.33961
1.36388
1.37492
1.37243
1.35573
1.32392
1.27658
1.53487
1.23596
1.21628
1.25064
1.29227
1.32682
1.34969
1.35993
1.35716
1.34068
1.30953
1.26311
1.53533
1.2361
1.21224
1.24302
1.28186
1.31438
1.33587
1.34531
1.34226
1.32598
1.2955
1.2503
1.53542
1.23618
1.20827
1.23558
1.27172
1.30226
1.32241
1.33106
1.32773
1.31164
1.28182
1.23784
1.53515
1.23618
1.20438
1.22833
1.26184
1.29045
1.30929
1.31717
1.31356
1.29764
1.26843
1.22516
1.53451
1.23612
1.20056
1.22124
1.25222
1.27895
1.29651
1.30362
1.29972
1.28397
1.25538
1.21337
1.53352
1.23598
1.1968
1.21432
1.24284
1.26774
1.28404
1.29041
1.28622
1.27063
1.24267
1.202
1.53219
1.23576
1.19311
1.20756
1.23369
1.25681
1.27189
1.27752
1.27303
1.2576
1.23029
1.19101
1.53051
1.23546
1.18948
1.20096
1.22477
1.24616
1.26004
1.26494
1.26017
1.24489
1.2182
1.17994
1.52849
1.23513
1.18593
1.19451
1.21607
1.23577
1.24849
1.25268
1.24762
1.23248
1.20639
1.16918
1.52614
1.23471
1.18244
1.18822
1.20758
1.22565
1.23723
1.24071
1.23537
1.22036
1.19479
1.15791
1.52345
1.23424
1.17903
1.18207
1.19931
1.21577
1.22624
1.22904
1.22341
1.20852
1.18345
1.14743
1.52044
1.23371
1.17568
1.17606
1.19123
1.20614
1.21552
1.21764
1.21172
1.19695
1.1724
1.13757
1.51711
1.23313
1.1724
1.1702
1.18335
1.19674
1.20506
1.20652
1.20032
1.18564
1.16163
1.12801
1.51346
1.23249
1.16919
1.16447
1.17566
1.18758
1.19486
1.19566
1.18918
1.17461
1.15111
1.11836
1.50949
1.23181
1.16605
1.15888
1.16816
1.17864
1.18491
1.18507
1.17831
1.16383
1.14082
1.10894
1.5052
1.23107
1.16299
1.15343
1.16084
1.16992
1.1752
1.17474
1.16771
1.15331
1.13075
1.09947
1.5006
1.23031
1.15999
1.14812
1.1537
1.16142
1.16573
1.16466
1.15735
1.14303
1.12089
1.09035
1.49571
1.22949
1.15707
1.14294
1.14675
1.15313
1.1565
1.15482
1.14724
1.13298
1.11123
1.08122
1.4905
1.22862
1.15423
1.13789
1.13996
1.14504
1.14749
1.14522
1.13737
1.12316
1.10179
1.07253
1.48498
1.22775
1.15146
1.13298
1.13335
1.13715
1.1387
1.13586
1.12773
1.11358
1.09256
1.06397
1.47918
1.22679
1.14878
1.1282
1.12691
1.12947
1.13013
1.12672
1.11833
1.1042
1.08354
1.05572
1.47307
1.22582
1.14617
1.12356
1.12063
1.12197
1.12178
1.11781
1.10915
1.09505
1.07472
1.04741
1.46667
1.22478
1.14363
1.11904
1.11452
1.11467
1.11363
1.10911
1.10018
1.08611
1.06608
1.03942
1.45997
1.22373
1.14118
1.11466
1.10858
1.10755
1.10568
1.10063
1.09144
1.07738
1.05765
1.03162
1.45297
1.22266
1.13882
1.11043
1.1028
1.10063
1.09794
1.09236
1.0829
1.06885
1.04941
1.02392
1.44569
1.22154
1.13653
1.10632
1.09718
1.09388
1.0904
1.0843
1.07458
1.06053
1.04136
1.01644
1.43813
1.22037
1.13433
1.10234
1.09173
1.08732
1.08306
1.07644
1.06646
1.0524
1.03348
1.00888
1.43029
1.21914
1.13221
1.0985
1.08644
1.08094
1.07591
1.06879
1.05855
1.04446
1.02575
1.00153
1.42214
1.2179
1.13017
1.0948
1.08131
1.07474
1.06895
1.06134
1.05083
1.03672
1.0182
0.994253
1.41372
1.21664
1.12824
1.09124
1.07634
1.06871
1.06218
1.05408
1.04332
1.02917
1.01081
0.987218
1.40502
1.21533
1.1264
1.08782
1.07154
1.06287
1.0556
1.04701
1.03599
1.02181
1.00359
0.980206
1.39603
1.214
1.12465
1.08455
1.0669
1.0572
1.04921
1.04014
1.02886
1.01461
0.996537
0.973524
1.38676
1.21261
1.12298
1.08142
1.06243
1.05171
1.04299
1.03345
1.02191
1.00759
0.989642
0.967038
1.37722
1.21118
1.1214
1.07843
1.05813
1.0464
1.03697
1.02696
1.01515
1.00077
0.982935
0.960624
1.3674
1.20973
1.11993
1.0756
1.05399
1.04127
1.03114
1.02066
1.00859
0.994127
0.976395
0.95426
1.3573
1.20825
1.11856
1.07291
1.05003
1.03632
1.02548
1.01455
1.0022
0.987658
0.970013
0.948171
1.34693
1.20671
1.11729
1.07039
1.04623
1.03154
1.02001
1.00862
0.996008
0.981372
0.963797
0.942086
1.33629
1.20511
1.1161
1.06802
1.04262
1.02695
1.01473
1.00287
0.989993
0.975253
0.95773
0.936345
1.32537
1.20347
1.11502
1.0658
1.03918
1.02255
1.00964
0.997318
0.984165
0.969327
0.951861
0.930633
1.31417
1.20181
1.11404
1.06375
1.03592
1.01833
1.00473
0.991954
0.978525
0.96358
0.946159
0.925121
1.30269
1.20012
1.11317
1.06187
1.03286
1.0143
1.00002
0.986775
0.973068
0.958003
0.940589
0.919444
1.29094
1.19836
1.1124
1.06016
1.02997
1.01046
0.995487
0.981781
0.967791
0.952599
0.935207
0.914569
1.27892
1.19657
1.11174
1.05862
1.02729
1.00682
0.991158
0.976985
0.962719
0.947415
0.930075
0.909692
1.26664
1.19469
1.11118
1.05726
1.0248
1.00338
0.987026
0.972387
0.957834
0.942398
0.92508
0.90493
1.25407
1.1928
1.11073
1.05607
1.02251
1.00015
0.983097
0.967984
0.953141
0.937569
0.920266
0.900215
1.24124
1.19082
1.11038
1.05507
1.02043
0.997124
0.979371
0.963784
0.948643
0.932925
0.915614
0.895639
1.22814
1.18876
1.11014
1.05426
1.01855
0.994312
0.975855
0.959787
0.944346
0.928483
0.91115
0.891131
1.21477
1.18665
1.11003
1.05365
1.01691
0.991721
0.972554
0.955999
0.940247
0.924217
0.906829
0.886862
1.2011
1.18452
1.11001
1.05324
1.01548
0.989359
0.969474
0.95242
0.936353
0.920153
0.902712
0.882716
1.18718
1.18224
1.11013
1.05303
1.0143
0.987228
0.966621
0.949059
0.932668
0.916285
0.898767
0.878772
1.17298
1.17992
1.11034
1.05303
1.01335
0.985344
0.964001
0.945927
0.929201
0.91263
0.895039
0.874956
1.1585
1.17752
1.11067
1.05325
1.01265
0.983706
0.96162
0.943019
0.925944
0.909167
0.891479
0.871461
1.14373
1.17508
1.11112
1.05369
1.01222
0.98233
0.95949
0.940347
0.922914
0.905925
0.888139
0.868142
1.12869
1.17257
1.11168
1.05436
1.01205
0.981223
0.957623
0.93793
0.920131
0.902929
0.885045
0.864956
1.11338
1.16993
1.11236
1.05526
1.01216
0.9804
0.956025
0.935765
0.91759
0.900158
0.882172
0.862064
1.0978
1.16716
1.11316
1.0564
1.01255
0.979871
0.954704
0.933863
0.915293
0.897618
0.87952
0.85948
1.08193
1.16434
1.11407
1.0578
1.01325
0.979646
0.953675
0.932236
0.913258
0.895343
0.877139
0.85702
1.06579
1.16136
1.1151
1.05945
1.01425
0.979735
0.952953
0.930899
0.911489
0.893301
0.874941
0.854829
1.04936
1.15831
1.11624
1.06136
1.01558
0.980165
0.952553
0.929867
0.910011
0.891542
0.873025
0.852807
1.03264
1.15523
1.11751
1.06356
1.01726
0.980949
0.952497
0.929154
0.908833
0.890069
0.871378
0.851039
1.01564
1.15194
1.11891
1.06605
1.0193
0.982104
0.952801
0.928774
0.907965
0.888874
0.869963
0.849448
0.998352
1.14858
1.12045
1.06883
1.02172
0.983657
0.953485
0.928756
0.907436
0.887999
0.868874
0.848194
0.980772
1.14512
1.12209
1.07192
1.02453
0.985621
0.954571
0.929118
0.907263
0.887469
0.868128
0.847356
0.962922
1.14141
1.12386
1.07532
1.02775
0.988032
0.956085
0.929886
0.907479
0.887328
0.867795
0.84681
0.944775
1.13763
1.12576
1.07905
1.0314
0.990895
0.958049
0.931066
0.908072
0.887508
0.867676
0.846151
0.926338
1.13375
1.12774
1.08312
1.03551
0.994246
0.960479
0.932682
0.909056
0.888034
0.867871
0.846
0.907624
1.12963
1.1299
1.08753
1.04009
0.998106
0.963413
0.934772
0.910482
0.88899
0.868519
0.846371
0.8886
1.12544
1.13216
1.09233
1.04518
1.00253
0.966897
0.93738
0.912385
0.890376
0.869517
0.847044
0.869286
1.12096
1.13458
1.09751
1.05081
1.00755
0.970979
0.940553
0.914823
0.892275
0.871055
0.848368
0.849676
1.11633
1.13709
1.1031
1.05702
1.01321
0.9757
0.944333
0.917829
0.894717
0.873128
0.85027
0.829797
1.11161
1.13974
1.1091
1.06383
1.01955
0.981111
0.948777
0.921446
0.897737
0.87576
0.852512
0.809619
1.10664
1.14253
1.11555
1.07128
1.02662
0.987251
0.953908
0.925691
0.901281
0.878736
0.854687
0.789129
1.10143
1.14547
1.12247
1.07943
1.03449
0.994194
0.959794
0.930634
0.90547
0.88235
0.857877
0.768354
1.09595
1.14855
1.12988
1.08832
1.04322
1.00202
0.966536
0.936382
0.910434
0.886783
0.862016
0.747302
1.09044
1.15176
1.13784
1.09802
1.05288
1.01082
0.974203
0.942971
0.916139
0.891778
0.866437
0.725932
1.08453
1.15516
1.14637
1.10859
1.06359
1.02069
0.982895
0.950512
0.922706
0.897597
0.871579
0.704264
1.07837
1.15875
1.15556
1.12013
1.07544
1.03174
0.992727
0.959101
0.930201
0.904195
0.877484
0.682315
1.07216
1.16255
1.16544
1.13277
1.08858
1.04414
1.00387
0.968901
0.938805
0.911842
0.884418
0.660029
1.06554
1.16667
1.17616
1.14664
1.10318
1.05805
1.01646
0.980047
0.948633
0.920575
0.892095
0.637426
1.05875
1.17116
1.18785
1.16195
1.11944
1.07368
1.0307
0.992669
0.959763
0.93048
0.901054
0.614449
1.05171
1.17618
1.20081
1.17894
1.13765
1.09127
1.04676
1.00693
0.972305
0.941563
0.910975
0.591099
1.04468
1.18212
1.21537
1.19806
1.15814
1.11111
1.06492
1.02306
0.986488
0.95417
0.922412
0.567261
1.03781
1.18955
1.23222
1.21981
1.18131
1.13353
1.08543
1.04124
1.00241
0.968208
0.935005
0.542868
1.03237
1.19968
1.2523
1.24483
1.20759
1.15876
1.10843
1.0616
1.02014
0.983704
0.948586
0.517795
1.03186
1.21573
1.27801
1.2744
1.23782
1.18754
1.13469
1.08473
1.04017
1.00094
0.963589
0.488283
1.03317
1.23062
1.30432
1.30262
1.26673
1.21529
1.16111
1.1081
1.06114
1.01907
0.980023
1.04069
0.00468008
0.347416
0.321802
0.320739
0.288907
0.279329
0.646843
0.830965
0.777928
0.567792
0.00777926
0.0326162
3.01863
0.277064
0.00354997
2.83099
0.110619
0.107654
0.00348339
0.140584
0.176121
0.144821
0.0269067
1.05615
0.346504
0.160016
0.375049
0.604656
0.812985
0.538078
1.16682
0.00420062
0.55828
0.0311396
0.165939
0.387303
0.47085
0.39305
0.00818295
0.07048
0.0033773
0.0716735
0.531583
0.268449
0.173095
0.0608485
0.0248532
0.271387
0.140031
0.164094
0.634586
0.262998
0.00321463
1.98788
0.00444691
0.0106635
0.00337424
0.471548
0.266431
0.155738
1.19157
0.0032091
0.0168827
0.183599
0.00453281
0.88888
0.252363
1.53223
0.689196
1.88401
0.0535759
0.383405
0.729122
0.0273707
0.00323014
0.797587
0.00309478
0.0702108
0.241062
0.103478
0.00310386
0.405744
0.295304
0.0163657
1.11908
0.884527
0.00319468
0.390995
0.237791
0.353799
0.653801
0.00319826
0.00392207
0.456863
0.00326193
0.362489
0.0128419
0.00317208
0.899036
1.10871
0.203695
0.00335325
0.00434061
0.00312134
0.514838
0.512248
0.689486
0.53317
0.00886252
0.0944763
0.00312705
0.202571
0.0037268
0.00318215
0.219923
0.019524
0.219991
1.09333
0.176127
1.02449
0.0293423
1.69984
0.199699
0.125668
1.29235
0.00405451
1.96535
0.0323849
0.00320012
0.231677
0.00323636
0.233188
0.00434539
0.162787
0.00514925
0.233314
0.59596
0.208028
0.0058572
0.0170209
0.145385
0.269573
0.0254535
0.174606
1.89733
0.298921
0.00454291
0.983105
0.374163
0.0640825
0.214045
0.00309227
0.114723
0.156548
0.00314728
0.248543
0.003202
1.27998
0.00708528
0.0270421
0.00356927
0.128084
0.0132883
0.149778
0.084446
0.984656
0.291704
0.335187
0.00307307
1.88825
0.758514
1.99267
0.0179158
0.00305944
0.574582
0.00311686
0.305935
0.138026
0.719698
1.00917
0.438054
0.0629264
0.37121
0.00339039
0.262746
0.00317802
0.00315336
0.17535
0.00318555
0.48762
0.00310671
0.9368
0.0047575
0.284102
0.296507
0.271769
0.165145
0.00312702
3.17556
1.01996
0.318216
0.413987
0.217262
0.324907
0.105015
0.0915472
0.228933
0.703495
0.216979
0.288255
0.900078
0.500565
0.396576
0.00315442
0.283577
0.0129681
0.427436
3.25237
0.21031
0.294668
1.0211
0.338902
0.00315697
0.0031882
1.30874
1.11839
0.00327021
4.20621
0.0324076
0.312489
0.121387
0.00311783
0.947464
0.414199
0.253646
0.246316
1.07899
0.656991
0.322201
0.154774
0.161399
1.25519
1.68696
0.375292
0.281821
0.227989
0.00350597
1.39595
0.289875
0.650696
0.726838
0.378959
3.95177
0.236706
0.240417
0.210437
0.310505
0.578065
0.341718
0.216421
0.258168
0.0157559
0.0899669
0.683918
0.261859
0.922066
0.506963
0.361386
1.49129
0.288099
0.0502881
1.63946
0.209098
0.208349
1.69585
0.242287
0.260471
0.301823
0.203603
0.866181
0.238758
0.37266
0.331606
0.614214
0.273144
0.474497
0.207982
1.12081
0.128591
0.201679
1.66873
0.226325
0.224879
0.283013
0.919839
0.119713
0.206075
0.067774
0.480367
0.183644
0.106139
1.36667
2.05757
0.154298
0.954108
0.323525
0.00318779
0.201465
0.16612
0.211165
0.288921
0.00315766
1.18633
0.320044
0.0673975
0.225815
0.762334
0.00315194
0.63877
0.0388435
0.579575
0.42267
4.92985
0.503347
0.758445
0.539097
0.00313881
0.00316297
0.285048
0.447191
0.00307749
0.517295
0.00311578
0.0031623
0.00322465
0.00311707
0.140398
0.0031637
0.00580786
1.03854
0.5123
0.003229
0.334973
0.00987166
0.195849
0.295646
1.28833
4.14645
0.481122
0.00301096
0.00323876
0.0819587
0.134223
0.208969
0.0030643
0.0988735
0.315841
0.878567
0.37778
0.177648
0.273299
1.02608
4.0866
0.15712
0.325534
0.00364909
0.00318514
0.159083
0.25813
0.116373
0.173463
0.505849
2.744
1.69548
0.143827
0.343371
1.01421
0.00319835
0.419835
0.753635
0.00527049
0.00316292
0.520382
3.8273
0.734978
0.0030802
0.048928
0.154766
0.0256731
0.00319885
0.83339
0.382689
0.277379
0.282032
0.00374824
3.81434
0.00314286
0.235828
0.544823
0.00649071
0.0111336
0.962707
0.00879744
1.40937
0.767075
1.15118
0.65358
0.172244
0.681602
0.00313953
0.00309426
0.00317226
1.03845
0.0754684
1.2625
2.76263
0.164714
0.592063
0.00317912
0.0109259
0.274334
0.00308087
0.00317183
0.703334
0.00306837
0.22793
0.916446
0.371907
0.00302994
0.00749526
0.110588
0.116053
0.237031
0.144973
0.00310504
3.34349
0.836836
0.109496
0.0123935
0.327389
0.199604
0.00711827
0.279664
0.00690467
0.84624
0.0035282
0.250307
0.133134
0.00311625
1.30278
0.238424
0.322181
0.00930171
0.471293
0.144122
0.00516828
0.217478
0.490097
0.352348
1.10892
0.024065
0.0509005
0.0115464
1.31216
0.676433
0.0630455
0.137582
0.163218
0.33492
0.182165
0.511035
1.1034
0.00304567
2.04946
0.914977
0.226639
0.00309809
0.267647
0.963209
0.0255402
0.436742
0.348871
0.256773
0.126718
0.177137
0.259429
0.00358645
0.0189259
0.875661
0.0391547
0.00438481
0.923017
4.08775
0.0395623
0.199891
0.788977
0.0904681
0.491435
0.259217
0.843751
0.321201
0.29098
0.00323008
0.0851844
0.447598
0.382343
1.33291
0.214167
1.42373
0.93761
3.75208
0.888716
0.310539
0.00316689
1.26403
0.204165
0.801707
0.416479
0.163774
0.0844174
0.426546
0.00321466
0.297438
0.00317781
0.340868
0.421633
0.213241
0.17507
1.2723
0.241275
1.04347
0.64277
1.97778
0.00321794
0.123862
0.933258
2.44931
0.196092
0.71755
0.0036172
0.0282471
0.350278
1.85835
0.592226
0.00310244
0.0582265
0.00312257
0.0586924
0.35131
0.0375852
0.846816
0.142974
0.589652
0.155841
0.125202
1.23016
0.709047
0.00319514
0.00319639
0.257769
1.21774
0.27564
0.598506
0.441264
0.6675
0.266634
0.00302343
0.187562
0.253729
0.00485937
1.04937
0.265187
0.176374
0.274333
0.0127532
0.00302464
0.0237203
0.00313934
0.647197
0.817792
0.709546
0.638187
0.00319306
1.47826
0.0898871
0.742949
0.135473
1.73235
0.00867553
0.154665
0.00307428
0.497144
0.71671
0.315652
0.40961
0.00300691
1.30177
0.805991
0.510931
0.00311652
0.0709163
0.813963
0.617962
0.00610457
2.17326
0.00373911
0.805235
0.614635
0.0036302
0.131744
0.0877325
0.202517
0.00310546
0.00319887
1.15776
0.431725
0.322118
0.526604
0.00488084
0.128051
0.0982814
0.768967
0.208424
0.00395862
0.209065
1.20891
0.00307799
0.00821259
0.28631
0.635123
1.11622
0.0031581
0.729484
0.221375
1.30865
0.0298753
0.151751
0.816498
0.00319986
0.199384
0.137925
0.376255
0.383362
0.726067
0.276565
1.21708
1.17702
0.282367
2.70768
0.00323658
0.00315036
1.49711
0.783648
0.00475882
0.00315674
0.473409
0.00320625
0.823772
0.54044
0.248056
0.00311694
0.80821
0.0530298
0.29141
1.21613
0.235412
0.148535
0.145233
1.34686
0.0031921
0.285561
0.98162
0.234542
0.55731
0.00673603
0.533444
0.263316
2.03174
0.00313014
0.148921
0.683749
0.305788
0.00332103
0.0952979
0.342185
0.439233
1.26976
0.0592644
1.87647
0.406351
0.0928396
0.404965
0.00313422
0.00737528
0.363049
0.00306756
0.1753
0.00316529
0.244709
0.0107785
0.83963
0.00321719
0.110645
0.49397
1.61078
0.356924
0.66993
0.163594
2.44859
0.0156034
0.0934941
0.571847
0.00309936
0.00320601
0.380335
0.156046
0.248862
0.390768
0.00328419
0.216262
0.218749
0.20101
0.492366
1.14825
0.200076
0.00319667
1.88295
2.4248
0.506895
0.00323832
0.0108347
2.09391
0.260427
0.00311983
1.29445
0.00310059
0.0804687
2.74578
0.00354817
0.291541
0.00314941
0.0566213
0.751428
0.00324368
0.00401705
0.00318308
0.00379997
0.02168
3.81126
0.805139
0.0939083
0.242142
0.00316397
0.765551
0.00317339
0.248061
0.232751
0.0247988
0.159763
0.0139109
1.15107
0.00318443
4.32696
0.218274
0.629207
0.351569
0.163028
0.00309676
0.193401
1.09774
0.129337
0.752511
0.886093
1.6938
0.349812
0.0419617
0.62789
0.0840767
0.00406576
0.1067
2.47091
1.14889
0.120013
0.00846503
0.2975
0.00375591
0.443721
0.872049
1.08653
0.842945
0.896338
0.0372003
0.00583192
0.325983
0.224511
0.0483648
0.269501
0.00316116
0.261376
1.9658
0.00330254
1.69703
0.783297
0.114533
0.101939
1.45074
0.0236548
0.101415
0.457682
0.310686
0.294133
0.00322322
0.673994
0.0763062
0.27138
0.383127
0.199044
0.223023
0.00685735
0.688985
0.00317337
0.00316055
0.228472
0.104964
0.160165
1.9187
0.00303327
1.14083
0.0646104
0.0578786
0.00338881
1.72242
0.363857
0.0899666
0.784608
0.0598018
1.16009
0.154624
0.00314252
1.19383
2.08943
0.00546388
0.00876341
0.203565
1.03763
0.0993745
1.32474
0.0352599
0.23351
0.104148
0.156978
0.681001
0.203264
0.00318776
1.17583
0.328876
0.0151642
0.197112
4.256
0.276463
0.00317662
0.00307079
0.764155
0.184078
1.01366
0.00306549
0.715153
0.295959
0.408496
0.00376694
0.314002
0.777355
0.00538488
0.258584
0.00321639
1.1234
0.2111
0.345392
0.262362
0.00314612
0.00314548
0.345557
1.40591
0.385968
0.732501
0.003028
0.0454083
0.0032083
0.00626192
1.15986
0.0742172
0.0971203
0.124891
0.325376
0.305708
0.356476
1.21029
0.00317283
0.304339
0.732068
0.245567
0.00319247
0.94318
0.00320555
0.00316624
0.0885919
0.211995
0.0251616
1.36393
0.203236
2.8023
0.00328522
0.00476029
0.0397769
0.90327
0.306057
0.962738
0.00316826
0.00314853
0.00629163
0.00835917
1.10575
0.805844
0.640756
0.123542
0.0448949
0.315545
0.164208
0.57807
0.275874
0.879556
0.312612
0.00308098
0.332979
0.00536886
0.194634
0.889086
0.184412
0.231719
0.133299
0.00380966
1.34384
0.516352
0.489074
0.314535
0.00315936
0.588637
0.762555
0.334202
0.00825238
0.91311
0.479541
0.838574
0.328768
0.336684
0.590112
0.120062
0.861578
0.258601
0.0979673
0.236258
0.00317894
1.21452
0.862553
0.00311821
0.684678
0.00477401
0.538049
0.204622
0.237267
0.266693
0.730719
0.953168
0.262309
0.131368
0.174756
0.219549
0.0125464
0.00310407
1.02788
0.0615857
0.938025
0.549805
0.22462
0.834626
0.54498
0.00314509
0.278253
1.53428
1.06108
0.226809
0.239315
0.570708
1.89725
0.190821
0.234675
0.0249313
0.0837577
0.546908
1.19626
0.111639
0.842163
0.821302
0.78594
0.23983
0.23132
0.425503
0.692697
0.00319155
1.9417
0.669911
0.205006
0.00319069
0.592498
0.474467
0.294877
0.00317438
0.591407
0.00317258
0.243212
0.0912315
0.00319457
0.823321
0.347652
0.00310567
0.531877
0.373563
0.608888
0.258808
0.519382
0.279644
0.70596
0.169206
0.157381
0.00312932
0.00470827
0.343427
0.173405
0.0243273
0.00322964
0.354899
0.00604329
0.119782
0.118556
0.445743
0.207248
0.057497
0.0943232
0.549421
1.63707
0.329533
4.11884
0.870181
0.00311845
0.541079
0.589061
1.67752
0.00312663
0.173384
0.00318786
0.00359159
0.277284
0.289789
0.0391311
0.00340826
0.806074
3.72621
0.0073924
0.00317653
0.129319
0.263037
0.0240205
0.0740501
3.85307
0.140585
0.00339061
0.00317761
0.969205
0.262622
0.135716
0.0592924
0.651857
1.13165
0.392039
0.247355
0.679528
0.00317322
0.502302
0.00315978
0.231096
0.274221
5.38267
0.178325
0.0898067
0.00382908
1.18567
0.0031945
0.00313404
0.00585737
0.272527
0.287289
0.977125
0.00314931
0.507696
0.00317251
0.692932
0.977256
0.00320493
0.725389
0.22506
0.00317312
0.00330209
0.0319694
1.10731
0.383682
0.0264352
0.0031745
0.0031327
0.848848
0.685866
0.327467
0.753957
0.117758
0.438707
0.00314897
0.0103098
0.382895
0.810794
0.759502
0.00887599
0.00317631
0.397866
0.00319772
0.203649
0.805841
0.353949
0.0431412
0.20087
0.506429
0.157238
0.00316975
0.513346
1.33287
0.648222
0.00644089
0.030607
0.69038
3.69256
0.0548484
0.373708
0.00311028
0.00308662
0.00321468
0.0187779
0.401774
1.07556
0.0106793
0.220962
0.633965
1.23462
0.206221
0.0197128
0.00796651
0.00757997
0.158533
0.171373
0.23679
0.00322348
1.34464
0.00314333
0.0136506
0.844367
0.853026
0.0364526
0.372725
0.468143
0.00409996
0.130324
0.255671
0.0031548
0.00378137
1.12394
0.00365648
0.0032248
0.707208
0.235374
2.09315
0.209264
2.41317
0.00356025
0.00311458
3.24582
0.296052
0.225236
0.498435
0.0604031
0.232639
0.1965
1.0213
0.814681
0.588457
0.582169
0.233364
0.111225
0.321594
0.72851
0.0146491
0.351355
0.00392247
0.439656
0.366684
0.107068
0.384331
0.188557
0.413346
0.207939
0.262182
1.11066
0.459679
0.215613
0.317319
0.710835
0.326196
0.00421339
0.00315953
0.110999
2.22848
0.00316167
1.78895
0.00312465
0.00989774
0.340468
0.221509
0.820587
0.680623
0.902949
1.14002
0.522639
0.386285
0.00316723
0.290831
1.05825
0.00323919
1.24781
0.00714261
1.70952
0.940769
1.13402
0.274175
0.206241
0.28396
0.0918502
0.284533
1.23621
0.360735
0.780235
0.169825
0.203107
0.0853785
0.231787
0.954716
0.00955249
0.666485
0.00319427
0.00393388
0.300202
1.51842
0.338434
0.273872
0.164438
0.110683
0.121761
0.0034692
0.341079
0.00346723
0.706381
0.00341834
0.0580694
0.943395
0.171792
0.3063
0.334159
0.318438
0.00623958
0.00321491
0.0992454
0.266846
0.114829
0.517125
0.0424978
0.366002
0.240403
0.374547
0.791936
0.00359434
0.00314781
1.68917
0.226573
0.172014
0.811088
0.688262
0.817707
0.00987914
1.6854
0.335799
0.21318
0.00347802
0.196948
0.40371
0.205465
0.20774
0.266035
0.0032306
0.47296
0.00313414
0.628392
0.010674
0.439934
0.118067
0.409632
0.00324326
6.54572
0.00319251
1.51064
0.025633
0.00317523
0.0145933
0.274994
0.0031708
0.00318046
0.396908
0.0328105
0.327492
0.0569865
0.00332665
0.218981
0.186482
0.445028
0.00334123
0.224018
0.189936
1.35632
0.707288
0.394665
0.415606
0.215744
0.30664
0.778718
0.832228
0.211252
0.00322413
0.145043
0.362393
0.306285
0.0047178
0.00856091
0.234324
1.57404
0.00318406
0.206294
1.2355
0.00305009
0.849725
0.9359
0.357312
0.594761
0.796961
0.259128
0.130051
2.5909
0.411581
0.885352
0.821868
0.222435
0.10751
0.0031663
0.42048
0.00587449
0.00321786
0.00313426
0.300481
0.00316628
0.00373378
0.537767
4.05835
0.40695
0.212643
0.83391
0.239593
0.00318233
0.165935
1.14395
0.0252624
0.164363
1.01908
0.313006
0.125607
0.0312132
0.00314371
0.00316818
0.0272991
0.0449184
0.302829
0.299997
1.23638
0.267413
0.268777
0.00395548
0.50337
0.213623
0.0032118
0.342804
3.37885
0.00320851
0.36273
1.0168
0.739471
0.656234
0.189877
1.10327
0.00356307
0.210227
0.00331898
0.0063366
0.00320971
0.835216
0.568567
0.0741381
0.00319328
0.00307303
1.11331
0.386833
0.289222
0.235308
0.354566
0.435311
0.306092
0.349966
0.35004
0.0031772
0.151181
0.123617
0.136324
0.385293
1.05927
0.76781
0.590835
0.363233
1.11615
0.826557
0.963125
0.416028
0.881471
0.0647116
0.825361
0.393181
0.0281192
1.01268
0.855889
0.447201
0.00311412
0.00320084
0.00361082
0.00444256
0.472239
0.00304521
0.49435
0.165092
0.996384
0.766836
0.00317142
0.474267
0.283351
0.186884
0.276007
0.390346
0.552735
0.00326542
0.00319927
0.00911223
0.100529
0.00313252
0.637535
0.267334
0.253035
0.760422
0.514616
0.441397
0.532105
0.00316787
0.319243
0.669128
0.00381457
0.0789444
0.409228
0.315015
0.537614
0.193284
0.00325607
0.375572
0.35845
0.00385279
0.0204919
0.0031579
0.178789
0.00440684
0.143965
1.28757
0.111601
0.0735152
1.00144
1.81235
0.00326947
0.62895
0.00305227
0.224976
0.346937
0.2478
0.484194
0.691016
0.67693
0.802332
1.22351
0.746822
0.00317862
0.00314518
0.0531819
0.101386
0.606602
0.172313
0.00319371
1.58822
0.253977
0.00825332
0.788512
0.0587044
0.00816874
0.0403914
0.997793
0.00646966
0.003195
0.258382
0.205953
0.640865
0.118251
0.226225
0.202942
0.00321397
0.291333
0.0902773
0.060033
0.00337582
0.202593
0.534385
0.173663
1.44932
1.33534
0.316585
0.413415
0.00316339
0.35972
0.00319511
2.73032
0.0103364
0.430729
0.094238
0.84042
0.0163768
0.00933718
0.248373
0.307771
1.30281
0.00356465
0.21214
0.482243
0.609096
0.185544
0.999392
0.120686
0.00343511
0.00320506
0.479166
0.635617
1.06301
0.289456
0.0848846
0.530374
0.328533
0.819073
0.0460118
0.00316921
0.00318277
0.122287
0.707434
0.689923
0.993084
0.00353341
0.0109607
0.167982
0.452396
0.268484
0.759181
0.349925
0.87921
0.00319888
0.00320958
1.13662
0.275256
0.885354
2.87799
0.36
0.0246363
1.41152
0.00318407
1.02331
0.0277215
0.0308298
0.00317113
0.0418011
0.0845689
0.837369
0.794282
0.00322673
0.758405
0.00316013
0.601095
1.56608
0.00314505
0.157375
0.00322657
0.259039
0.127541
0.174707
0.00308787
0.262057
0.211772
0.257335
1.02367
0.170225
1.22477
0.217516
0.833548
0.237363
1.11762
0.638018
0.00384251
0.00320865
0.37546
0.195129
0.82371
0.00317726
2.1118
0.00315893
0.00478216
0.0389342
0.00316026
1.14234
0.974578
0.00324379
0.665466
0.256682
0.102528
0.709354
0.00608349
0.0031292
0.422968
0.385978
0.00977409
0.776456
6.66908
1.35832
0.155339
1.19732
0.104348
0.00318524
0.00368816
0.0351784
0.13707
0.844321
1.09009
1.31561
0.795694
0.53163
0.509196
0.257829
0.652036
1.94381
0.591102
0.0430508
0.0783233
0.278799
1.50665
0.00338242
0.194293
0.655474
0.33347
0.00317286
0.42395
0.00305912
0.0138654
0.843745
0.0033876
0.298125
1.84988
0.00318984
0.352639
0.00351441
0.337265
0.0141159
0.0040673
0.76709
0.255194
0.91556
0.399758
1.12067
1.64652
0.489663
0.175871
0.752184
0.388506
0.0031157
0.577474