/*--------------------------------*- C++ -*----------------------------------*\
| =========                 |                                                 |
| \\      /  F ield         | OpenFOAM: The Open Source CFD Toolbox           |
|  \\    /   O peration     | Version:  2.3.1                                 |
|   \\  /    A nd           | Web:      www.OpenFOAM.org                      |
|    \\/     M anipulation  |                                                 |
\*---------------------------------------------------------------------------*/
FoamFile
{
    version     2.0;
    format      ascii;
    class       volScalarField;
    location    "0.77";
    object      p;
}
// * * * * * * * * * * * * * * * * * * * * * * * * * * * * * * * * * * * * * //

dimensions      [0 2 -2 0 0 0 0];

internalField   nonuniform List<scalar> 
15166
(
-17.2916
-22.3201
-25.094
-27.3051
-29.185
-30.7835
-32.2164
-33.4739
-34.561
-35.3677
-36.1098
-36.683
-22.0127
-24.5269
-25.8879
-27.5559
-29.1299
-30.5556
-31.8601
-33.039
-34.0708
-34.9002
-35.6414
-36.2348
-27.2021
-28.0918
-28.3652
-29.3019
-30.2996
-31.3147
-32.3136
-33.2455
-34.0946
-34.8203
-35.4654
-36.0028
-30.1777
-30.5911
-30.5846
-31.1463
-31.7377
-32.4061
-33.1101
-33.7976
-34.4481
-35.0268
-35.5461
-35.9748
-32.0449
-32.3006
-32.2747
-32.6753
-33.0524
-33.5066
-34.0004
-34.4976
-34.9804
-35.4221
-35.8251
-36.1741
-33.6922
-33.8126
-33.7554
-34.0304
-34.2665
-34.5754
-34.9164
-35.2664
-35.6123
-35.9348
-36.2313
-36.4937
-35.2826
-35.2832
-35.1768
-35.3303
-35.4477
-35.6352
-35.8496
-36.0762
-36.3045
-36.5195
-36.7149
-36.8775
-36.7558
-36.6688
-36.5245
-36.5773
-36.5973
-36.6811
-36.7873
-36.9079
-37.034
-37.1544
-37.2627
-37.3494
-38.0935
-37.9405
-37.7728
-37.7486
-37.694
-37.6937
-37.7107
-37.7424
-37.7815
-37.8202
-37.8529
-37.8704
-39.3163
-39.1101
-38.9267
-38.8421
-38.7302
-38.6623
-38.6069
-38.565
-38.5311
-38.4995
-38.4643
-38.4172
-40.4461
-40.1965
-40.0009
-39.8669
-39.709
-39.5858
-39.4709
-39.3676
-39.2719
-39.1806
-39.0888
-38.9781
-41.5002
-41.2134
-41.0074
-40.8314
-40.6355
-40.4658
-40.3011
-40.1461
-39.9979
-39.8555
-39.7181
-39.5748
-42.4855
-42.1676
-41.9531
-41.7412
-41.5134
-41.304
-41.0971
-40.8978
-40.7044
-40.5165
-40.3349
-40.1603
-43.4098
-43.0649
-42.8431
-42.6006
-42.3457
-42.1025
-41.8593
-41.6213
-41.3874
-41.1558
-40.918
-40.6612
-44.2793
-43.9111
-43.6828
-43.4136
-43.1355
-42.8633
-42.5891
-42.3183
-42.0509
-41.7892
-41.5362
-41.2731
-45.0992
-44.7105
-44.4765
-44.1841
-43.8861
-43.5889
-43.2882
-42.9895
-42.6931
-42.4011
-42.1183
-41.8419
-45.8737
-45.4674
-45.2281
-44.9154
-44.5999
-44.2808
-43.957
-43.6336
-43.3116
-42.9921
-42.6783
-42.3764
-46.6079
-46.1852
-45.9407
-45.6098
-45.2789
-44.9404
-44.5964
-44.2516
-43.9075
-43.5655
-43.2269
-42.8981
-47.3034
-46.8664
-46.6173
-46.2702
-45.9257
-45.5702
-45.2083
-44.8444
-44.4808
-44.1198
-43.7629
-43.4137
-47.9638
-47.5138
-47.2602
-46.8986
-46.5417
-46.1709
-45.7931
-45.4122
-45.031
-44.6522
-44.279
-43.9192
-48.5911
-48.1294
-47.8715
-47.4968
-47.1289
-46.7442
-46.3519
-45.9555
-45.5579
-45.1615
-44.7691
-44.3918
-49.187
-48.7149
-48.4532
-48.0665
-47.6884
-47.2913
-46.886
-46.4754
-46.0626
-45.6496
-45.2363
-44.8308
-49.7565
-49.2732
-49.0071
-48.6094
-48.2221
-47.8137
-47.3967
-46.9735
-46.548
-46.1228
-45.6992
-45.2833
-50.2972
-49.8037
-49.5343
-49.1266
-48.7309
-48.3124
-47.8849
-47.4507
-47.0138
-46.5769
-46.1405
-45.7058
-50.8056
-50.3072
-50.0355
-49.6189
-49.2158
-48.7882
-48.3513
-47.9072
-47.4599
-47.0123
-46.566
-46.1198
-51.2956
-50.7882
-50.5127
-50.0878
-49.6779
-49.2421
-48.7967
-48.3436
-47.8868
-47.4295
-46.9729
-46.5144
-51.7609
-51.2455
-50.9672
-50.5344
-50.1182
-49.6747
-49.2216
-48.7602
-48.2951
-47.8298
-47.3675
-46.9029
-52.2036
-51.6799
-51.3991
-50.9592
-50.5372
-50.0868
-49.6264
-49.1575
-48.6843
-48.2099
-47.7374
-47.2683
-52.6194
-52.0918
-51.8095
-51.3629
-50.9355
-50.4787
-50.0118
-49.5358
-49.0551
-48.5726
-48.0893
-47.6015
-53.0159
-52.4825
-52.1991
-51.7462
-51.314
-50.8514
-50.3785
-49.8961
-49.409
-48.9203
-48.4326
-47.9389
-53.3922
-52.8557
-52.5691
-52.1101
-51.6735
-51.2054
-50.727
-50.2389
-49.7458
-49.2511
-48.7573
-48.257
-53.7521
-53.2105
-52.9205
-52.4553
-52.0143
-51.5411
-51.0577
-50.5643
-50.0658
-49.5655
-49.0673
-48.5657
-54.0825
-53.5427
-53.2514
-52.7811
-52.3364
-51.8587
-51.3708
-50.8726
-50.369
-49.8628
-49.357
-48.8474
-54.4021
-53.8579
-53.5631
-53.0884
-52.6405
-52.1588
-51.6667
-51.1643
-50.6564
-50.146
-49.637
-49.1273
-54.7025
-54.1538
-53.8574
-53.378
-52.9269
-52.4414
-51.9457
-51.4395
-50.928
-50.4142
-49.9011
-49.386
-54.98
-54.4307
-54.1335
-53.6499
-53.196
-52.7069
-52.2077
-51.698
-51.1831
-50.6665
-50.1527
-49.639
-55.2417
-54.6901
-54.3924
-53.9042
-53.4477
-52.9553
-52.4528
-51.9395
-51.4207
-50.899
-50.3786
-49.8641
-55.4913
-54.9335
-54.6346
-54.1416
-53.6826
-53.1869
-52.6811
-52.1641
-51.6412
-51.1145
-50.5844
-50.0481
-55.7142
-55.1573
-54.8597
-54.3619
-53.9007
-53.4021
-52.8934
-52.3732
-51.8471
-51.3173
-50.783
-50.2238
-55.9288
-55.3656
-55.0683
-54.5652
-54.1024
-53.6013
-53.0902
-52.568
-52.0401
-51.5111
-50.9899
-50.4643
-56.1205
-55.556
-55.2599
-54.7516
-54.2879
-53.7845
-53.2714
-52.747
-52.2164
-51.6816
-51.1461
-50.6105
-56.2971
-55.7327
-55.4336
-54.921
-54.4571
-53.9518
-53.4367
-52.9101
-52.3773
-51.8409
-51.3046
-50.7622
-56.4622
-55.8941
-55.5915
-55.0748
-54.6108
-54.1034
-53.5867
-53.0582
-52.5236
-51.9856
-51.4478
-50.9004
-56.602
-56.0376
-55.7351
-55.212
-54.7494
-54.2401
-53.7217
-53.1916
-52.6552
-52.1156
-51.5778
-51.0368
-56.7338
-56.1663
-55.8614
-55.335
-54.8738
-54.3617
-53.8418
-53.31
-52.7719
-52.2301
-51.6885
-51.1423
-56.8431
-56.2769
-55.9702
-55.4433
-54.9844
-54.468
-53.9467
-53.4135
-52.8743
-52.3316
-51.7916
-51.2577
-56.9388
-56.3732
-56.0629
-55.5389
-55.0785
-54.5575
-54.0364
-53.5022
-52.9615
-52.4166
-51.8706
-51.3258
-57.0173
-56.4559
-56.1377
-55.6209
-55.1515
-54.634
-54.1119
-53.5762
-53.0345
-52.4891
-51.9443
-51.4083
-57.0835
-56.5227
-56.1995
-55.6864
-55.2127
-54.6957
-54.1725
-53.6358
-53.0931
-52.5466
-51.9986
-51.453
-57.1333
-56.5748
-56.2466
-55.7352
-55.2599
-54.7428
-54.2184
-53.681
-53.1375
-52.5904
-52.0434
-51.5057
-57.1638
-56.6088
-56.2793
-55.7687
-55.2921
-54.775
-54.2498
-53.7118
-53.1674
-52.6185
-52.066
-51.5128
-57.1834
-56.6289
-56.2979
-55.7879
-55.3101
-54.793
-54.2674
-53.7291
-53.1843
-52.635
-52.0821
-51.5205
-57.1866
-56.6335
-56.3015
-55.7917
-55.3134
-54.7967
-54.2711
-53.7333
-53.1892
-52.6422
-52.0969
-51.5498
-57.1707
-56.623
-56.2901
-55.7811
-55.3023
-54.786
-54.2607
-53.7233
-53.1796
-52.6323
-52.0851
-51.5331
-57.1437
-56.5985
-56.2641
-55.7557
-55.2769
-54.7609
-54.2358
-53.6986
-53.1549
-52.607
-52.0597
-51.5148
-57.101
-56.559
-56.2234
-55.7158
-55.237
-54.7216
-54.1968
-53.6599
-53.1164
-52.5683
-52.0185
-51.4667
-57.0481
-56.5042
-56.1682
-55.6614
-55.1827
-54.668
-54.1438
-53.6078
-53.0652
-52.5184
-51.9712
-51.4295
-56.9708
-56.4347
-56.0983
-55.5926
-55.1142
-54.6004
-54.0772
-53.5422
-53.0007
-52.4548
-51.9061
-51.3484
-56.8881
-56.3502
-56.0136
-55.5093
-55.0315
-54.5186
-53.9964
-53.4628
-52.9232
-52.3809
-51.844
-51.3225
-56.7843
-56.2505
-55.9141
-55.411
-54.934
-54.4224
-53.9013
-53.3688
-52.83
-52.2868
-51.7421
-51.2049
-56.6666
-56.1364
-55.8004
-55.2988
-54.8224
-54.3118
-53.7914
-53.2596
-52.7212
-52.178
-51.6315
-51.0869
-56.5388
-56.0104
-55.6733
-55.1728
-54.697
-54.1874
-53.668
-53.1371
-52.5994
-52.0572
-51.5116
-50.959
-56.3956
-55.8681
-55.5315
-55.0322
-54.5574
-54.0491
-53.5312
-53.0019
-52.4659
-51.9261
-51.3867
-50.8518
-56.2332
-55.7102
-55.3748
-54.8775
-54.4039
-53.8971
-53.3808
-52.8533
-52.3191
-51.7805
-51.239
-50.6932
-56.059
-55.5383
-55.2035
-54.7083
-54.2361
-53.7313
-53.2168
-52.6914
-52.1594
-51.6236
-51.0879
-50.5552
-55.8683
-55.3522
-55.0184
-54.5251
-54.0545
-53.5515
-53.0391
-52.5157
-51.9859
-51.452
-50.9166
-50.3779
-55.6647
-55.153
-54.8195
-54.328
-53.859
-53.3579
-52.8475
-52.3263
-51.7986
-51.2676
-50.7376
-50.2158
-55.4531
-54.9396
-54.6061
-54.1167
-53.6493
-53.1502
-52.6418
-52.1229
-51.5973
-51.0673
-50.5352
-50.0042
-55.214
-54.7085
-54.3775
-53.8909
-53.4254
-52.9287
-52.4225
-51.9059
-51.3829
-50.8559
-50.3293
-49.8179
-54.9661
-54.4645
-54.135
-53.6508
-53.1875
-52.693
-52.1894
-51.675
-51.1546
-50.6299
-50.1026
-49.5829
-54.7062
-54.2082
-53.8789
-53.3973
-52.9357
-52.4436
-51.9425
-51.4307
-50.9128
-50.391
-49.8683
-49.3658
-54.4322
-53.9361
-53.6086
-53.1298
-52.6704
-52.1805
-51.6817
-51.1726
-50.657
-50.137
-49.6123
-49.0927
-54.1443
-53.6516
-53.3242
-52.8478
-52.3908
-51.9037
-51.4075
-50.9011
-50.3881
-49.871
-49.3499
-48.8352
-53.8346
-53.3491
-53.0252
-52.5524
-52.0978
-51.6136
-51.1204
-50.6172
-50.1076
-49.5947
-49.0806
-48.5784
-53.5131
-53.033
-52.7115
-52.2421
-51.7906
-51.3096
-50.8196
-50.3197
-49.8135
-49.3035
-48.7899
-48.2801
-53.1858
-52.7078
-52.386
-51.9191
-51.4699
-50.9921
-50.5053
-50.0088
-49.5062
-49.0003
-48.4941
-48.0033
-52.8389
-52.3656
-52.0457
-51.5823
-51.136
-50.661
-50.1776
-49.6845
-49.1851
-48.6817
-48.1741
-47.6694
-52.4778
-52.0076
-51.6905
-51.2308
-50.7877
-50.3162
-49.836
-49.3466
-48.8511
-48.3523
-47.8525
-47.3686
-52.1014
-51.6368
-51.3215
-50.8653
-50.4254
-49.9573
-49.4811
-48.9953
-48.5037
-48.0089
-47.5105
-47.0142
-51.7067
-51.2497
-50.9375
-50.4857
-50.0491
-49.5848
-49.1123
-48.6304
-48.1433
-47.6531
-47.1639
-46.6926
-51.3031
-50.8503
-50.5401
-50.0924
-49.6591
-49.1987
-48.7299
-48.2517
-47.7681
-47.2806
-46.789
-46.3101
-50.8866
-50.4378
-50.1298
-49.6858
-49.256
-48.7993
-48.3341
-47.8597
-47.3796
-46.895
-46.4043
-45.9147
-50.4545
-50.0104
-49.7046
-49.2651
-48.839
-48.3865
-47.9254
-47.4557
-46.9804
-46.502
-46.0215
-45.5449
-50.0069
-49.5684
-49.2654
-48.8305
-48.4084
-47.9603
-47.5039
-47.0393
-46.5697
-46.0978
-45.6275
-45.1736
-49.5442
-49.1118
-48.812
-48.3819
-47.964
-47.5204
-47.0687
-46.6089
-46.1436
-45.6749
-45.2027
-44.7362
-49.0661
-48.6417
-48.3452
-47.9198
-47.506
-47.0667
-46.6196
-46.1646
-45.7042
-45.2405
-44.7762
-44.3322
-48.5824
-48.1599
-47.865
-47.4445
-47.0346
-46.5998
-46.1575
-45.707
-45.2515
-44.7923
-44.3282
-43.8623
-48.0788
-47.6623
-47.3704
-46.955
-46.5495
-46.1197
-45.6822
-45.2371
-44.7871
-44.335
-43.8839
-43.4501
-47.5592
-47.1494
-46.8611
-46.4511
-46.0507
-45.626
-45.1939
-44.7543
-44.3097
-43.8632
-43.4172
-42.9955
-47.0258
-46.6229
-46.3386
-45.9341
-45.5383
-45.1189
-44.6921
-44.2577
-43.8182
-43.3755
-42.9309
-42.5115
-46.4796
-46.0826
-45.8017
-45.4028
-45.012
-44.5981
-44.1768
-43.7476
-43.3133
-42.8749
-42.4283
-41.9833
-45.9199
-45.529
-45.2519
-44.8588
-44.4731
-44.0647
-43.6493
-43.2266
-42.8
-42.3725
-41.9477
-41.5596
-45.3475
-44.9634
-44.689
-44.3015
-43.9209
-43.5183
-43.109
-42.6927
-42.2726
-41.8506
-41.4238
-41.0083
-44.7625
-44.3823
-44.1119
-43.7306
-43.3553
-42.9586
-42.555
-42.1448
-41.7308
-41.3142
-40.8948
-40.4982
-44.1568
-43.7866
-43.5208
-43.1458
-42.776
-42.3854
-41.9879
-41.5842
-41.1765
-40.7666
-40.3524
-39.9429
-43.5458
-43.1791
-42.9161
-42.547
-42.1834
-41.7989
-41.4079
-41.0112
-40.6108
-40.2093
-39.809
-39.4336
-42.9195
-42.5581
-42.2984
-41.9354
-41.5774
-41.1993
-40.8151
-40.4251
-40.0313
-39.6354
-39.2349
-38.8364
-42.2687
-41.9183
-41.6651
-41.3095
-40.958
-40.5869
-40.2092
-39.8263
-39.4399
-39.0521
-38.6646
-38.3006
-41.6155
-41.2699
-41.0194
-40.6703
-40.3252
-39.9611
-39.5906
-39.2149
-38.8363
-38.4561
-38.073
-37.6936
-40.9447
-40.6067
-40.3607
-40.0185
-39.6802
-39.3229
-38.9597
-38.5916
-38.2208
-37.8492
-37.4804
-37.1368
-40.2632
-39.9304
-39.6884
-39.3531
-39.0214
-38.6717
-38.3158
-37.9555
-37.5921
-37.2264
-36.8565
-36.4987
-39.5627
-39.2388
-39.0023
-38.6749
-38.3502
-38.0078
-37.6597
-37.3072
-36.9519
-36.5952
-36.235
-35.8836
-38.8505
-38.5346
-38.3033
-37.9837
-37.6661
-37.3318
-36.9921
-36.6482
-36.3023
-35.9572
-35.6144
-35.287
-38.1309
-37.8196
-37.5922
-37.2801
-36.9698
-36.6434
-36.3122
-35.977
-35.6401
-35.3033
-34.9677
-34.6534
-37.3941
-37.0912
-36.8687
-36.5638
-36.2612
-35.9427
-35.6197
-35.293
-34.9645
-34.6349
-34.3023
-33.9782
-36.6457
-36.3492
-36.1318
-35.8352
-35.5402
-35.2301
-34.9152
-34.5977
-34.2789
-33.9604
-33.6441
-33.3554
-35.8821
-35.5945
-35.3822
-35.0937
-34.8066
-34.5053
-34.1996
-33.8912
-33.5815
-33.2717
-32.9584
-32.65
-35.1095
-34.8278
-34.6199
-34.3399
-34.0612
-33.7688
-33.4727
-33.1742
-32.8743
-32.5749
-32.275
-31.9891
-34.3233
-34.0478
-33.8458
-33.5745
-33.3042
-33.0213
-32.7349
-32.4469
-32.1582
-31.871
-31.5865
-31.3223
-33.5214
-33.2555
-33.0592
-32.7967
-32.5353
-32.2625
-31.9863
-31.7086
-31.4306
-31.1537
-30.8751
-30.6021
-32.7104
-32.4516
-32.2612
-32.0077
-31.7556
-31.4928
-31.2273
-30.9605
-30.694
-30.4291
-30.1672
-29.9265
-31.8859
-31.6357
-31.4516
-31.2074
-30.9645
-30.7121
-30.4577
-30.2025
-29.9483
-29.6953
-29.4409
-29.2009
-31.0555
-30.8113
-30.632
-30.3969
-30.1633
-29.9214
-29.6782
-29.4351
-29.194
-28.9565
-28.7224
-28.5227
-30.2122
-29.9752
-29.8008
-29.5752
-29.3515
-29.1207
-28.8884
-28.657
-28.4279
-28.2029
-27.9803
-27.767
-29.3552
-29.1274
-28.9603
-28.7441
-28.5301
-28.3098
-28.0889
-27.8685
-27.6495
-27.4319
-27.2119
-26.9917
-28.4947
-28.271
-28.1088
-27.9023
-27.6985
-27.4896
-27.2808
-27.0728
-26.8667
-26.6636
-26.4653
-26.2942
-27.617
-27.403
-27.2481
-27.052
-26.8588
-26.6617
-26.4657
-26.2714
-26.0796
-25.8907
-25.7015
-25.5169
-26.7339
-26.5273
-26.3783
-26.1926
-26.0108
-25.8268
-25.6444
-25.4648
-25.288
-25.1155
-24.9474
-24.801
-25.8415
-25.6445
-25.5019
-25.3265
-25.1559
-24.9846
-24.8161
-24.6519
-24.4918
-24.3358
-24.1823
-24.0463
-24.947
-24.7543
-24.6174
-24.4526
-24.2942
-24.1365
-23.9827
-23.8335
-23.69
-23.5521
-23.4196
-23.3217
-24.0421
-23.8564
-23.7265
-23.5724
-23.4258
-23.282
-23.1434
-23.0099
-22.8817
-22.7592
-22.6391
-22.5213
-23.1273
-22.9511
-22.8287
-22.6863
-22.5524
-22.423
-22.2998
-22.1823
-22.07
-21.962
-21.8549
-21.7489
-22.2119
-22.0428
-21.9265
-21.7956
-21.6754
-21.5612
-21.4548
-21.3557
-21.263
-21.1777
-21.1027
-21.065
-21.2939
-21.1301
-21.0209
-20.9017
-20.7954
-20.6977
-20.6091
-20.5293
-20.4567
-20.39
-20.3253
-20.2688
-20.3682
-20.2129
-20.1115
-20.0054
-19.9139
-19.8335
-19.7643
-19.7046
-19.653
-19.6078
-19.5677
-19.5571
-19.4425
-19.2946
-19.2003
-19.107
-19.0318
-18.9705
-18.9218
-18.8845
-18.8558
-18.8332
-18.8112
-18.7961
-18.5172
-18.3748
-18.289
-18.2102
-18.1523
-18.1118
-18.0861
-18.0731
-18.07
-18.0741
-18.0825
-18.1049
-17.5887
-17.4541
-17.3774
-17.3144
-17.2761
-17.2585
-17.2585
-17.2729
-17.2981
-17.3316
-17.3714
-17.4257
-16.6636
-16.535
-16.4681
-16.423
-16.4068
-16.4153
-16.4438
-16.4875
-16.5423
-16.605
-16.6738
-16.7616
-15.7375
-15.6171
-15.5621
-15.5378
-15.5483
-15.5867
-15.6471
-15.7232
-15.8088
-15.8987
-15.9867
-16.078
-14.8156
-14.7017
-14.6617
-14.6636
-14.7065
-14.7812
-14.8785
-14.9909
-15.1112
-15.2339
-15.3557
-15.4925
-13.8933
-13.7886
-13.7702
-13.8083
-13.8938
-14.0125
-14.1524
-14.3041
-14.4605
-14.6159
-14.7642
-14.9118
-12.967
-12.8761
-12.8946
-12.9868
-13.1288
-13.3001
-13.4875
-13.6809
-13.8733
-14.0598
-14.2347
-14.404
-12.0293
-11.9711
-12.0585
-12.2338
-12.4493
-12.6804
-12.9146
-13.1443
-13.3693
-13.5835
-13.7757
-13.9337
-11.058
-11.1441
-11.3813
-11.6847
-11.9814
-12.2599
-12.5296
-12.7862
-13.0295
-13.2723
-13.4727
-13.6557
-1.51156
9.70864
-10.3088
-19.2168
-19.8571
-7.19992
-4.75749
32.7498
-44.791
-39.9601
-35.0473
-14.855
16.5881
-41.2457
1.38584
-6.75743
-41.271
-30.5993
-30.0394
-6.4889
27.983
26.3247
17.7848
-16.1202
-0.857694
-10.8528
24.3648
0.645972
-42.514
-37.8097
-42.4768
30.9143
9.58114
-34.6559
16.7936
18.0434
33.6639
-30.8183
33.2343
-14.7596
2.3227
-1.99099
24.6821
-0.420051
33.4336
26.1242
19.0531
19.9916
33.3649
27.9716
18.7594
32.5674
30.9377
1.4908
-36.9587
9.41816
12.9039
-2.36886
-31.5742
0.921331
24.1692
30.3288
1.53626
-3.96684
17.5254
9.71172
-13.6891
30.4921
16.3348
-39.4149
-37.0556
13.9387
33.1333
-13.258
-15.493
2.61648
-44.3286
-1.67799
10.0151
28.8018
2.66433
-1.93255
33.9138
32.5579
1.96509
-44.3981
-13.7148
0.919511
-39.574
33.5431
27.9868
-41.3223
-0.226554
7.82798
34.3247
-4.18776
0.516146
-1.90765
-0.64219
-13.3451
-15.8567
14.5774
5.57194
8.91213
-1.70941
33.9712
1.83109
33.2501
-13.6624
0.350418
17.9786
-2.06981
30.5197
-7.73165
1.6868
15.6662
-19.9036
-6.20114
-45.7003
-33.336
-10.6055
-21.5297
-42.0195
15.4071
-18.1224
-40.3269
-1.92281
11.6043
19.3703
1.03069
31.5957
1.40004
21.4176
8.84729
23.5181
10.78
34.0284
-39.3997
31.5451
10.3895
-19.15
28.7191
27.1228
0.538133
30.8962
-37.1299
31.6714
-10.684
-47.9226
3.35535
0.321553
16.6468
-1.66775
4.7634
22.1788
3.22714
31.8295
-1.35029
-41.7122
-14.5818
-22.0911
-6.32612
-30.1841
-15.0633
24.1411
26.3772
31.5944
34.3122
10.9008
1.48666
-38.1096
-18.0679
-36.9178
-19.251
-1.10232
-41.2493
1.95418
32.3909
25.2138
-36.9816
31.0678
-32.2831
-7.56611
33.4017
6.30566
31.4885
3.49393
-1.70594
31.7775
1.62149
-40.3787
-1.74518
31.9148
-5.90101
32.0476
8.05985
26.9523
30.4
2.3817
-61.42
-47.5671
32.4141
34.3549
31.1707
32.8671
14.1222
-7.97481
-36.2494
-13.8285
-15.9306
4.30676
-46.9819
33.4126
34.2281
1.93895
31.1852
-11.191
-13.1311
-63.5293
30.5447
32.4363
-47.8286
33.5686
-3.23909
-3.26714
-39.9204
-44.8066
-2.07342
-56.4287
20.0275
33.7382
-17.112
-2.30158
-13.0113
-13.3754
27.404
31.2409
-47.3667
-1.8075
32.8942
-33.332
19.4549
-40.7454
-45.9334
33.0707
2.45054
19.8823
6.01816
-42.4801
31.3422
-40.1267
-13.3941
-40.3664
-71.5296
28.2597
-31.6905
0.0947736
32.6676
-42.1991
33.4
-15.2351
27.0936
17.3272
-8.60977
-14.3255
27.5833
-46.5802
32.7185
-3.68272
6.48022
0.177131
18.6137
-45.2868
33.0931
32.8854
-44.4143
21.8586
34.4526
34.2539
32.6632
32.6383
23.3657
33.6994
33.1971
-25.465
27.4651
-33.0661
33.228
-50.0975
29.5069
32.6455
-42.322
34.956
34.949
30.4558
32.0085
28.043
30.7005
23.9774
34.2469
29.0809
-0.741311
-10.8256
-37.566
22.3454
-46.5048
34.4992
1.55026
14.3868
16.6654
-27.9373
34.707
3.44684
-50.9236
32.5037
24.3753
34.9041
-31.4264
2.01222
27.8125
22.0458
-41.8217
-15.3308
69.7058
34.2388
-30.7884
-26.2041
-2.31639
2.57487
34.7396
-4.08413
0.640455
-41.8268
-2.27035
2.63699
4.24876
-1.70761
14.9905
2.15788
6.52421
-0.323352
33.0152
0.121532
29.3955
12.9121
31.6243
33.6234
-42.1349
-60.7264
-12.6697
-0.170179
-4.06272
13.8573
26.0111
34.7969
-1.1788
-25.3461
33.5388
-46.1394
-40.0122
30.1011
33.7027
-49.002
-61.3654
21.2617
-21.634
-3.18221
0.324618
-1.55292
0.707345
-29.7903
30.2465
33.994
-33.1989
-41.7277
28.7305
33.1787
-48.2764
3.57197
-35.8024
-11.0465
-11.0819
-1.39277
33.1489
-67.0656
28.0376
-0.864897
21.7729
28.6231
19.7464
3.50467
-37.2368
-35.6888
30.765
30.2909
-3.02429
-55.7588
-2.80587
-33.8539
-26.8313
13.1526
-14.3694
-12.9857
14.1071
-43.4313
30.9285
-48.7956
-41.2346
31.3148
33.3117
-2.21858
-0.821424
1.55658
-49.2656
12.7161
28.7864
-62.5276
30.404
30.6386
3.41152
0.202329
30.6394
1.69695
-3.00139
32.5316
0.583763
-21.6435
-47.312
33.9102
0.580214
-14.0846
-11.2364
-31.4655
29.4253
-32.5513
1.96316
-41.4941
-37.331
28.6092
-6.84191
34.5697
33.2529
12.985
32.0709
8.54971
-14.4565
-6.82794
31.8916
27.0095
2.12654
-37.5274
29.7144
33.4658
10.7458
-41.8302
28.3661
9.66294
34.7979
34.2328
-32.4329
28.6083
-10.4219
22.8581
-4.52622
-50.1394
-28.1421
2.28258
29.3302
22.8504
33.3537
-25.8525
33.6559
19.1351
0.823426
-38.0164
-46.7777
30.8413
1.9911
31.8788
-13.1585
0.115659
33.51
33.2828
-23.2126
-20.6291
30.2079
34.174
-6.22579
-19.4049
-42.8958
-22.3529
0.944804
32.4122
-57.7252
-17.2724
30.5444
-23.7878
-1.02671
33.1336
33.928
-40.5085
31.0782
33.6241
2.4537
26.2928
34.3915
22.9634
-48.3237
31.0993
-37.6738
31.7012
-49.538
-13.775
-36.835
2.00597
-15.7093
31.4396
-37.6473
-13.9792
21.4093
15.8631
-12.5259
1.31234
31.556
-0.694224
3.77165
-14.8051
33.6809
30.2585
-38.9823
34.9537
-15.2387
-17.4606
-37.2817
-2.15898
25.9694
-47.4009
-36.3956
30.3884
-42.5658
-7.71213
-17.814
-21.4708
-48.244
-43.3063
-1.82934
-26.3765
1.95666
19.6122
9.06643
13.8133
-17.3892
28.4737
33.6713
-30.3882
26.223
29.0594
-13.8713
0.00795738
-0.106251
16.6566
-13.4313
30.6452
-39.1192
-31.5295
-25.9522
31.7888
0.499608
16.9992
27.6795
10.8619
-49.6762
24.3568
30.0031
30.3204
12.4571
0.449925
-9.38815
-2.67432
-36.0465
-36.1246
33.0707
-43.747
4.26539
-45.8293
25.0432
33.0042
27.5529
-43.9607
0.130054
-32.4615
1.30775
28.5275
-13.3952
32.2827
-36.7079
-0.0879491
-46.0908
-40.8499
33.4606
1.83857
-0.660968
-26.6586
-17.3411
11.7116
11.9934
8.30429
-12.7972
-6.2649
7.62091
29.7405
-29.246
-33.8717
-1.86133
0.820862
-44.446
34.1616
32.6955
33.5986
10.7178
29.3627
-6.83696
-30.6975
25.6759
-1.786
11.3481
30.242
1.56005
14.4132
33.8739
-50.3712
-50.7113
3.39476
-13.0612
29.1766
-49.7368
19.3726
25.1676
32.2122
-2.12209
31.985
29.4066
23.5543
-22.1534
-9.3903
-0.32157
-48.2333
-50.9597
32.2002
-60.8148
4.45204
2.76256
-45.9046
-31.0177
10.4446
1.964
-41.9239
-1.12065
-36.304
31.7155
-31.2636
2.02339
-45.9067
-0.0557555
32.8856
-37.7951
33.5812
17.0763
25.4816
-48.4527
-1.14377
19.0921
-48.1161
31.7541
-36.84
-3.9818
-40.3367
-17.9676
1.3444
2.35858
24.1739
-15.0308
32.2643
4.06462
-25.4103
34.2335
34.304
-38.7183
23.5395
-38.4751
33.8132
27.4065
33.0818
-2.17952
13.5332
-1.13208
1.5034
30.1588
2.13787
34.8893
-10.698
-35.4062
1.45851
28.6792
34.1122
-37.1411
-5.31358
-26.7277
18.8934
-52.7984
-17.355
-28.6039
-40.611
-1.86536
0.844947
33.2052
20.6277
34.3397
29.6524
3.82763
34.8361
34.9154
32.8925
-37.0522
-16.6341
32.8877
-0.533105
4.46233
-56.5852
33.498
1.26148
15.1419
-38.4371
6.44596
-2.37123
-41.5407
2.05406
-26.6076
-57.9161
6.35001
32.1524
-1.61953
23.0339
32.7932
1.41688
-8.69822
-1.28436
7.34544
-9.47249
-52.4264
-32.0874
27.6009
29.3694
1.92128
-13.8793
-0.634826
-0.648664
-21.2375
14.898
30.6166
16.5074
-43.6545
-2.86916
-109.928
-0.506695
-10.2913
33.0053
30.1055
-1.66021
31.6937
-17.487
29.2845
-10.4852
-42.7107
-43.9291
31.3881
-24.7436
-15.0099
17.342
8.05715
27.3583
-58.0205
-13.3483
29.0357
0.119179
32.56
-8.11893
-39.5388
-44.947
-16.1665
-13.9749
-43.1431
-23.8662
6.08237
34.3736
29.1904
-12.408
7.35068
-3.33213
33.8414
-37.4049
-5.3067
-42.256
-28.3811
25.9427
24.2428
-48.3391
-11.1445
27.685
-12.2071
-38.9229
-38.7162
0.20953
-43.2189
-15.7619
34.1369
32.4844
30.5673
0.113459
-10.7379
-2.8229
1.74857
2.38264
31.0467
23.1993
20.4823
-37.8733
0.665568
-43.7972
15.5696
23.5981
1.95695
-38.5734
-4.19209
26.4397
-42.6964
23.7773
30.6363
28.5198
-2.12418
26.3503
-38.164
10.2426
14.1345
31.9726
-39.9676
28.0086
16.0801
-15.3866
-13.989
26.9791
-26.9052
-28.8912
30.8749
0.417438
-50.6022
15.3057
12.614
-9.05597
-58.3943
26.8689
-0.425025
1.19817
-45.3469
29.9377
-48.6149
1.38815
-36.3586
-38.192
33.7615
6.52047
33.5862
-29.9323
6.5617
29.3279
-2.04947
-50.3316
34.0856
34.0221
34.6385
3.19274
1.99472
15.4295
-41.332
-40.5929
-32.0395
0.323061
-14.3857
3.88929
12.7772
-39.716
25.0439
27.7163
28.0078
16.8944
33.3534
32.6237
-37.5232
0.00670397
34.2917
-32.3077
31.6937
1.15128
-41.691
-4.33772
1.98083
4.47967
29.8319
-20.8227
-10.819
26.3736
-54.7506
-4.70332
3.80036
16.3246
23.141
-11.7451
27.9144
2.61417
-3.12753
-13.7405
13.9225
-12.9844
-40.9049
33.2472
-16.5742
22.2404
-35.6765
28.3164
30.4533
32.3704
-40.4897
31.8765
1.66863
32.8124
-10.5735
-2.26262
-41.3782
30.0152
21.145
25.7233
-8.22027
-44.0116
-35.8611
-0.41468
34.1245
2.7391
33.1898
-31.5353
33.204
-2.03556
-45.3652
34.2536
-35.5529
33.1185
32.9914
-15.114
-29.5382
23.731
0.626452
15.099
34.9203
-1.37927
-48.2952
32.2823
-2.3282
-15.4483
10.6852
33.2674
33.6728
-31.4994
31.4343
32.6514
-10.2925
31.5615
27.0203
30.5854
31.298
1.56157
-1.61601
-40.2607
-6.00706
-38.882
32.9993
-0.80845
-36.877
33.2246
-2.27771
30.064
25.2494
31.1482
31.0624
18.4295
-41.1716
-38.1734
30.8019
-33.1004
-21.2881
26.1202
33.8679
-45.5448
-30.7041
-38.594
-21.5085
-15.8932
28.5316
-9.88281
-18.2692
-31.1196
-0.441812
-40.5808
33.0396
12.6589
1.70914
-3.20582
-3.2069
31.5025
-2.11198
32.6852
-0.164326
31.7905
-7.40119
3.34932
-46.3815
33.7312
1.88251
31.4896
33.756
-25.0794
27.0592
-17.8711
32.2716
-1.61922
30.3538
21.4523
2.92905
10.3906
34.4823
30.9576
-0.140367
2.31258
33.7327
2.32822
28.6955
-31.3625
-31.538
31.3349
-19.2653
18.8104
-100.843
-44.9347
33.5162
-53.7451
-41.4552
2.31043
31.1341
-43.0734
-44.4737
2.46801
26.405
-1.20404
-7.25335
30.6221
-10.4834
-17.3585
6.32736
-13.877
-62.0448
13.9521
-1.15867
25.0338
0.472683
10.48
24.7292
-64.6517
24.657
5.48171
-3.15694
-47.6636
26.8692
4.72166
7.88309
27.875
24.5465
33.6664
34.7276
-15.0229
-1.3982
-13.657
2.63313
39.3292
26.7189
-87.8011
29.5236
-29.8724
1.1046
-50.7337
-0.330311
2.74613
11.6267
30.7685
31.6866
-48.1348
2.64192
-16.9666
-1.9136
27.2522
-48.2246
0.94933
32.9988
1.38622
1.1093
5.79041
16.4223
-13.2168
-40.6066
-22.1803
2.97827
-2.63352
31.3926
32.4263
32.1378
-44.8418
27.6005
31.3204
2.88144
11.4045
-35.248
32.4818
-14.2195
14.1038
1.29025
34.1248
-2.04985
31.9497
32.1901
-7.6492
-12.1771
33.2151
-16.453
21.8002
1.67012
-35.9984
-40.7799
33.1616
-2.8626
-17.8752
-35.3421
-20.3017
23.3231
-38.7321
1.95651
1.53396
0.316436
-19.6484
33.9727
-47.0195
0.244591
34.8609
-43.5486
29.7668
25.6962
-19.0921
14.1023
1.71583
20.5039
30.4622
31.2485
-1.03908
-40.527
-2.35411
-16.8487
-17.0903
-44.2263
21.6101
-39.8731
-41.5205
8.90311
14.5454
2.25745
-1.66527
6.32607
-12.6567
-7.35191
0.963766
-44.044
33.3933
-0.583728
31.4928
-34.9068
3.53385
1.8953
-62.366
31.4388
-35.7657
-20.8095
23.5531
30.2916
-27.0116
20.2101
-40.0722
33.0506
32.647
34.7958
25.843
33.7723
31.8038
-18.4933
33.7083
3.71735
33.3285
15.4458
28.4471
-22.9031
29.3645
-32.9961
11.3402
34.4981
23.0338
34.2954
33.3732
34.5999
-28.1203
-3.82836
8.57852
2.09852
-20.35
-39.3711
1.93379
-45.0913
2.5957
15.4197
32.8992
30.9632
-43.4655
-22.7223
22.8399
-46.3381
-7.21161
34.5394
-2.81401
32.3632
-49.2542
0.775739
-15.954
-4.19054
21.4192
32.2059
30.8646
25.3502
31.5584
-1.80285
21.1876
30.5593
-46.7153
5.89896
14.3473
29.3262
31.4846
-19.031
32.0481
-16.8396
-7.39605
-12.5818
1.21837
-8.95114
32.4807
-41.5753
33.3062
29.7228
-26.7538
-30.0123
25.8105
1.44955
32.8996
1.23995
1.62787
-0.748847
16.0367
32.1444
28.6414
-38.4425
33.0744
32.6655
6.31778
3.49965
26.5305
26.63
19.8715
33.1015
-22.4576
33.5615
-0.838873
33.7139
7.68947
7.3418
1.93163
-37.5708
-19.1509
28.7867
-26.2802
-42.0512
-46.0017
2.01506
-40.1611
34.544
33.833
-0.335607
-9.59849
28.0761
32.7309
-35.1128
31.8976
-1.74661
-37.1834
3.08941
32.3479
-16.321
31.1435
13.6594
-12.3288
-0.662414
43.5759
-0.893818
-45.0967
18.203
3.31342
16.3237
30.705
-1.39561
-0.602143
-1.90017
16.0582
32.9163
-25.9225
-3.49843
31.6103
25.0824
34.0988
1.85155
34.4751
25.91
27.8123
-21.8933
33.6729
-16.0173
34.8268
-11.0362
30.828
32.2954
33.9252
-0.742752
26.0026
32.5849
31.903
7.62446
0.810848
31.3788
23.9705
1.73453
-4.78646
-50.7252
0.913486
-37.1467
-45.3321
32.9795
33.5739
-27.2281
24.6968
-31.7016
-52.1794
-25.8375
-13.3691
-35.9587
34.7805
28.4326
-1.48655
33.8315
-5.61131
-0.81644
2.92477
-0.216379
1.89887
4.17669
-25.6971
-100.268
-31.4014
8.13067
-37.8242
29.1179
-3.71383
30.983
28.4087
-21.3938
27.1203
-43.4175
34.6848
24.725
20.2512
-2.00252
2.23397
16.4975
21.3966
33.6455
32.8214
-44.0828
27.9062
30.9254
-9.00742
32.8814
33.3688
-1.13724
32.8031
-42.4151
4.05531
-18.5836
14.8394
-18.3195
33.0213
-32.1608
-15.9462
7.04726
-33.0324
5.31198
-10.4807
1.1971
-18.6872
-40.3561
-25.6268
-0.642119
-1.4447
25.6427
32.4811
-38.2123
31.237
-24.4731
33.3049
32.1831
2.02422
33.6204
-1.26777
-33.1773
27.9863
-31.7772
24.2363
-49.5415
-16.0644
33.5934
33.8504
-50.5663
32.4903
-14.2884
34.6227
-38.7948
22.8508
-31.6127
33.9219
12.0562
5.43024
-41.0622
-32.2187
1.70955
-0.122592
-6.96312
-5.50428
34.4046
-0.920225
33.0504
30.2893
31.884
-43.202
2.92383
-33.8318
30.4092
34.1805
32.1972
32.9078
-42.3673
-5.05131
1.62483
3.43613
-28.858
2.90962
33.5271
31.342
5.20224
-17.6196
-35.9839
34.0543
33.0432
1.87942
31.2074
-27.0656
8.7177
11.549
34.2538
33.5291
-9.85357
26.5603
-1.45943
2.72837
34.6399
7.32467
-19.683
2.4617
32.5992
-9.88169
23.7488
-50.1418
16.2257
-28.0631
-40.5645
6.43352
3.43934
-9.85582
0.808681
30.7837
33.4184
32.4242
-1.11705
22.8852
-27.9179
8.40245
-13.1685
-16.8213
-0.314946
2.12625
14.6182
-11.7769
0.710478
28.8855
4.03736
-46.0705
-5.95252
-7.49427
-22.5223
23.2173
13.9084
21.3904
-48.2615
12.3564
-1.91953
32.4547
30.9388
-40.3044
0.0217274
34.7908
31.3382
-4.36348
32.1843
-28.2124
-26.5698
5.6919
26.4906
-9.29229
30.9011
-48.0454
-40.1176
11.0569
-30.3659
-1.5174
33.5407
-1.83132
-23.4755
14.6267
31.2214
-27.8326
-38.2388
16.6817
-13.8931
-0.801675
-32.9515
-10.6319
3.23245
-3.68614
34.1153
33.6551
25.1474
14.0077
29.3978
-6.39467
1.55656
2.42111
-40.4556
-15.2272
-36.2062
26.4181
33.6575
32.8129
-21.2153
17.2451
2.79965
-1.24189
29.4112
-26.6836
-38.8979
-14.5221
4.11045
-16.1146
20.4284
34.3539
33.1889
-25.632
34.4216
-40.5939
-0.705366
4.19877
-17.507
33.8107
-41.0063
32.858
34.6815
8.05261
-48.8496
-2.71051
31.6802
19.7979
20.0048
-1.62028
21.504
17.7117
-37.66
-32.9107
-1.00728
32.3833
-3.22193
33.5523
-42.9762
-1.68173
21.1549
-0.385595
29.347
-26.3674
26.8762
-1.64433
29.5019
33.7634
31.6136
-38.4749
19.8946
-36.9302
3.58794
-14.4779
34.3238
-49.8681
-12.4299
-8.48703
-4.31652
33.6313
6.55463
-13.5653
1.34109
-24.4643
1.91251
7.5891
-0.0298107
-3.1635
-16.5777
-13.2693
1.19623
-43.6828
-17.3046
-26.1683
-38.023
-8.681
-2.54008
34.3581
-6.4958
0.908883
-29.5451
-11.0289
-43.9474
21.8633
-12.2787
10.5229
-0.948596
-7.58367
-22.7075
20.4095
-36.0641
-12.5909
-11.2223
-26.8772
33.666
-41.0271
3.47624
-0.307065
-43.1526
-11.8288
12.1331
18.4377
1.48546
-40.5269
5.66847
-30.696
-40.4946
33.0121
-2.41892
34.4471
1.24163
-14.1451
31.3032
1.81768
34.4981
-30.0526
1.68786
32.831
1.5783
13.6626
15.0688
3.99177
-23.8255
29.1109
-43.8118
-27.6028
-48.2648
11.8313
32.9903
29.8038
-42.3066
-17.0629
2.04822
-58.2851
23.7716
-43.6507
13.0168
-18.5113
0.253149
-2.66258
31.2887
-14.6356
31.1361
-28.537
31.3178
-2.60103
1.9568
4.33083
22.5606
12.0501
-23.1014
-1.87964
-30.4934
32.0928
18.3099
-16.1677
-38.4866
0.220721
27.8971
0.856231
1.87349
30.9266
-41.235
-25.5344