/*--------------------------------*- C++ -*----------------------------------*\
| =========                 |                                                 |
| \\      /  F ield         | OpenFOAM: The Open Source CFD Toolbox           |
|  \\    /   O peration     | Version:  2.3.1                                 |
|   \\  /    A nd           | Web:      www.OpenFOAM.org                      |
|    \\/     M anipulation  |                                                 |
\*---------------------------------------------------------------------------*/
FoamFile
{
    version     2.0;
    format      ascii;
    class       volVectorField;
    location    "0.77";
    object      U;
}
// * * * * * * * * * * * * * * * * * * * * * * * * * * * * * * * * * * * * * //

dimensions      [0 1 -1 0 0 0 0];

internalField   nonuniform List<vector> 
15166
(
(5.97361 0.559125 3.19417e-19)
(7.18627 1.03476 1.59817e-18)
(8.26901 0.902505 -8.93933e-19)
(9.30097 0.956369 8.01668e-19)
(10.0961 1.02027 8.23914e-19)
(10.8727 1.07505 4.34241e-19)
(11.5267 1.17347 -8.59482e-19)
(12.0689 1.23922 8.32972e-19)
(12.4642 1.33356 -4.22534e-19)
(12.7711 1.39304 1.67143e-18)
(12.9971 1.4485 -1.22763e-18)
(13.1508 1.50682 1.22174e-18)
(6.66644 1.02603 4.88954e-19)
(7.6018 1.42548 5.24917e-20)
(8.55514 1.20956 2.74678e-20)
(9.4768 1.2296 4.56095e-19)
(10.2373 1.24947 -3.95986e-19)
(10.9651 1.27594 0)
(11.5824 1.33755 4.25014e-19)
(12.088 1.38348 1.45114e-21)
(12.4665 1.44391 4.18296e-19)
(12.7601 1.48572 -8.43344e-19)
(12.9764 1.52578 1.65662e-18)
(13.1344 1.56472 -1.23422e-18)
(7.20901 1.25725 -4.63285e-19)
(8.03721 1.56859 -2.47806e-18)
(8.89949 1.37643 4.88152e-19)
(9.72204 1.41061 -9.25288e-19)
(10.4314 1.41727 -1.65891e-20)
(11.1024 1.43293 8.84003e-19)
(11.6752 1.47253 -1.26959e-18)
(12.142 1.50344 -4.35693e-19)
(12.4973 1.54166 8.31603e-19)
(12.7724 1.56905 5.99653e-21)
(12.9766 1.59531 -1.23785e-18)
(13.1301 1.62011 1.62278e-18)
(7.51493 1.37393 0)
(8.35001 1.62682 -1.08482e-18)
(9.18112 1.47808 2.54408e-18)
(9.94685 1.52648 -1.44509e-18)
(10.6199 1.53137 9.25268e-19)
(11.2455 1.54615 1.36578e-18)
(11.7794 1.57485 -4.23943e-19)
(12.2126 1.5969 4.35698e-19)
(12.5453 1.62125 -8.51531e-19)
(12.8023 1.63804 8.41218e-19)
(12.9949 1.65299 4.174e-19)
(13.1437 1.66616 8.27394e-19)
(7.72601 1.44746 -6.2561e-19)
(8.59165 1.66247 -5.80155e-19)
(9.40727 1.55322 -1.57523e-18)
(10.1389 1.6072 1.48597e-18)
(10.7879 1.61246 -4.70714e-19)
(11.3803 1.62864 -4.56023e-19)
(11.8832 1.6515 -4.4478e-19)
(12.2893 1.6682 4.51105e-19)
(12.6025 1.68385 -4.29776e-19)
(12.8434 1.69336 -4.23419e-19)
(13.0255 1.70078 -1.26304e-18)
(13.1674 1.7072 -4.66417e-21)
(7.91362 1.4989 1.23983e-18)
(8.80855 1.68497 1.17539e-18)
(9.60755 1.60953 -1.09924e-18)
(10.3125 1.66483 2.07588e-18)
(10.9416 1.67169 -1.98433e-18)
(11.507 1.68943 9.50177e-19)
(11.9845 1.70865 0)
(12.3683 1.72175 9.05116e-19)
(12.6644 1.73169 -1.76271e-18)
(12.8915 1.73608 8.61697e-19)
(13.0638 1.73807 0)
(13.1987 1.73923 1.25609e-18)
(8.08638 1.53328 -6.74578e-19)
(9.00972 1.69524 6.20856e-19)
(9.79238 1.6485 0)
(10.475 1.70361 0)
(11.0856 1.7133 5.19058e-19)
(11.6276 1.73266 4.9776e-19)
(12.0832 1.74964 -9.51099e-19)
(12.4478 1.76032 1.38423e-18)
(12.7291 1.76638 4.54182e-19)
(12.9442 1.76691 0)
(13.1082 1.76444 4.35624e-19)
(13.2378 1.76133 0)
(8.24093 1.5539 -1.36304e-18)
(9.19301 1.69579 1.25573e-18)
(9.96184 1.67307 5.7478e-19)
(10.6262 1.72711 5.61885e-19)
(11.2202 1.74014 -2.61905e-18)
(11.7422 1.76104 5.09637e-19)
(12.1787 1.77682 0)
(12.5268 1.78598 -4.6575e-19)
(12.7952 1.7895 4.64858e-19)
(13 1.7874 2.76096e-21)
(13.1565 1.78198 -8.70977e-19)
(13.2798 1.77626 8.59068e-19)
(8.37846 1.56368 1.40253e-18)
(9.35892 1.68911 -1.29111e-18)
(10.1164 1.68645 5.90139e-19)
(10.766 1.73878 -1.69061e-18)
(11.3454 1.75508 2.15635e-18)
(11.8501 1.77722 -2.06477e-18)
(12.2702 1.79242 9.94046e-19)
(12.6042 1.80071 0)
(12.8614 1.80265 4.72823e-19)
(13.0574 1.79884 0)
(13.2073 1.79136 9.0132e-19)
(13.3251 1.78318 -4.37027e-19)
(8.50216 1.56496 1.44219e-18)
(9.51007 1.6769 0)
(10.258 1.69104 6.23226e-19)
(10.8953 1.74126 5.88066e-19)
(11.4618 1.76049 5.58644e-19)
(11.9514 1.78352 5.34347e-19)
(12.3573 1.79845 0)
(12.6792 1.80627 0)
(12.9268 1.80724 -1.42733e-18)
(13.1152 1.80233 2.33098e-18)
(13.2593 1.79357 -9.02388e-19)
(13.3721 1.78522 -1.33968e-18)
(8.61471 1.55953 1.47158e-18)
(9.64902 1.66033 -2.01469e-18)
(10.3888 1.68849 1.89423e-18)
(11.0155 1.73637 -1.7735e-18)
(11.5701 1.7581 -5.56666e-19)
(12.0466 1.78169 -5.33029e-19)
(12.4402 1.79652 1.03607e-18)
(12.7515 1.80407 -1.00411e-18)
(12.9908 1.8045 -1.46308e-18)
(13.1727 1.79895 -4.67493e-19)
(13.3117 1.78907 1.85647e-18)
(13.4196 1.77934 -8.93826e-19)
(8.71786 1.54855 -1.50757e-18)
(9.77743 1.64008 -2.05015e-18)
(10.5103 1.67992 -3.18147e-19)
(11.1276 1.72538 1.21228e-18)
(11.6713 1.7492 8.56864e-19)
(12.1362 1.77307 -2.20019e-18)
(12.5189 1.78788 2.11547e-18)
(12.821 1.79531 -3.85846e-21)
(13.053 1.79553 -1.49094e-18)
(13.2291 1.78985 9.65931e-19)
(13.3634 1.77981 -4.66321e-19)
(13.4667 1.76925 9.05386e-19)
(8.81272 1.53298 -1.14849e-18)
(9.89648 1.61672 -3.53609e-19)
(10.6236 1.66625 3.22591e-19)
(11.2324 1.70925 0)
(11.7662 1.73476 2.89663e-19)
(12.2206 1.75869 -2.82765e-19)
(12.5935 1.7735 0)
(12.8876 1.78089 0)
(13.113 1.78104 2.54174e-19)
(13.2838 1.77545 0)
(13.4131 1.76581 0)
(13.5105 1.75537 -9.15795e-19)
(8.90029 1.51354 -3.86919e-19)
(10.0073 1.59067 3.51959e-19)
(10.7295 1.64821 0)
(11.3305 1.68877 0)
(11.8552 1.71559 1.18759e-18)
(12.3002 1.73938 -8.60623e-19)
(12.6645 1.75414 1.09231e-18)
(12.9513 1.76143 -1.0607e-18)
(13.1711 1.7614 7.6788e-19)
(13.3375 1.75534 -5.67833e-21)
(13.4632 1.74486 -1.93843e-18)
(13.5579 1.73721 1.1793e-18)
(8.9813 1.49081 -1.59007e-18)
(10.1106 1.56226 0)
(10.8288 1.62638 1.34314e-18)
(11.4227 1.66455 -1.59644e-18)
(11.9388 1.69235 0)
(12.3754 1.71586 2.91875e-19)
(12.7319 1.73055 1.10938e-18)
(13.0123 1.7378 -2.41969e-18)
(13.2272 1.7379 2.08199e-18)
(13.3897 1.7322 -1.01446e-18)
(13.5123 1.72174 9.81255e-19)
(13.6039 1.7085 -1.19471e-18)
(9.05644 1.46525 3.47595e-21)
(10.2072 1.53175 7.35628e-19)
(10.9221 1.60127 0)
(11.5094 1.63711 3.19718e-19)
(12.0177 1.6656 0)
(12.4464 1.68873 8.79696e-19)
(12.7959 1.70332 -7.82187e-21)
(13.0707 1.71055 -8.23966e-19)
(13.2811 1.71077 0)
(13.44 1.7054 -2.58303e-19)
(13.5592 1.6954 2.51259e-19)
(13.648 1.6808 0)
(9.12627 1.43729 4.02394e-19)
(10.2976 1.49939 -1.1195e-18)
(11.0099 1.57326 1.03884e-18)
(11.5911 1.60683 -4.57157e-21)
(12.092 1.63578 3.09108e-19)
(12.5136 1.65842 -2.97823e-19)
(12.8568 1.67289 0)
(13.1264 1.68008 0)
(13.3329 1.6804 1.06749e-18)
(13.4885 1.67523 -7.85943e-19)
(13.6047 1.66575 -5.05971e-19)
(13.6902 1.65217 -2.45538e-19)
(9.19118 1.40718 4.11454e-19)
(10.3825 1.46529 3.72749e-19)
(11.0927 1.54267 -3.47712e-19)
(11.6682 1.57406 6.59457e-19)
(12.1622 1.60324 -1.57335e-18)
(12.5772 1.62535 3.06284e-19)
(12.9146 1.63966 0)
(13.1796 1.64681 5.58364e-19)
(13.3825 1.64725 -5.45091e-19)
(13.5353 1.64229 -7.90398e-19)
(13.649 1.63324 2.58654e-19)
(13.7322 1.62087 7.43763e-19)
(9.25161 1.37521 0)
(10.4622 1.42964 0)
(11.1709 1.50979 0)
(11.741 1.53908 3.37059e-19)
(12.2285 1.56831 0)
(12.6375 1.58983 6.08627e-19)
(12.9695 1.60394 -8.86139e-19)
(13.2304 1.61105 0)
(13.4301 1.61169 -5.47641e-19)
(13.5803 1.60706 5.32747e-19)
(13.6918 1.59845 0)
(13.7731 1.58635 0)
(9.30792 1.34159 2.12257e-18)
(10.5371 1.39256 -1.53821e-18)
(11.2448 1.47486 7.18576e-19)
(11.8098 1.5021 -1.01052e-18)
(12.2912 1.53123 1.29024e-18)
(12.6945 1.55212 -9.253e-19)
(13.0217 1.566 8.92909e-19)
(13.2787 1.57308 2.83126e-19)
(13.4754 1.57391 -1.11308e-18)
(13.6232 1.5697 8.11205e-19)
(13.7325 1.56171 0)
(13.8119 1.54928 0)
(9.36038 1.30651 -1.71732e-18)
(10.6076 1.35416 0)
(11.3146 1.43807 0)
(11.8748 1.46334 -6.81264e-19)
(12.3505 1.49221 6.54593e-19)
(12.7486 1.51242 -9.3287e-19)
(13.0713 1.52604 5.11793e-21)
(13.3247 1.53304 8.72406e-19)
(13.5187 1.53402 5.6048e-19)
(13.6642 1.53009 -5.48958e-19)
(13.7714 1.5226 -2.67082e-19)
(13.8486 1.50987 0)
(9.40914 1.27015 -1.29989e-18)
(10.6739 1.31456 1.18164e-18)
(11.3806 1.39963 0)
(11.9364 1.42294 -6.87768e-19)
(12.4067 1.45144 9.92263e-19)
(12.7998 1.47095 0)
(13.1183 1.48425 0)
(13.3685 1.49111 2.95257e-19)
(13.56 1.49214 5.66461e-19)
(13.7037 1.48831 -5.54953e-19)
(13.8092 1.48098 5.37071e-19)
(13.8853 1.47006 0)
(9.45468 1.23253 -4.25289e-21)
(10.7363 1.27371 -1.18796e-18)
(11.4432 1.35961 0)
(11.9947 1.38106 1.04426e-18)
(12.4598 1.4091 -9.98052e-19)
(12.8483 1.42786 3.20476e-19)
(13.163 1.44083 3.08613e-19)
(13.4103 1.44756 -8.85773e-19)
(13.5996 1.4487 5.77477e-19)
(13.7415 1.44516 -2.80481e-19)
(13.8457 1.43822 2.68476e-21)
(13.9207 1.42848 0)
(9.49651 1.19373 -8.79826e-19)
(10.795 1.23176 8.0167e-19)
(11.5023 1.31823 0)
(12.0498 1.33783 -3.49575e-19)
(12.5101 1.36533 0)
(12.8943 1.38334 -3.20082e-19)
(13.2054 1.39596 3.08953e-21)
(13.45 1.40255 3.0098e-19)
(13.6373 1.4038 -2.9164e-19)
(13.7776 1.40049 -2.69186e-21)
(13.8806 1.39375 -2.53357e-21)
(13.9547 1.38522 -1.07123e-18)
(9.5353 1.15423 -4.48028e-19)
(10.8501 1.18911 -8.0205e-19)
(11.5582 1.27566 7.5176e-19)
(12.102 1.29341 3.55944e-19)
(12.5577 1.32029 0)
(12.9379 1.33753 3.2604e-19)
(13.2457 1.34979 -6.2538e-19)
(13.4877 1.35623 -5.98999e-19)
(13.6731 1.35756 8.80362e-19)
(13.8121 1.3545 -2.58007e-21)
(13.914 1.348 -2.47283e-21)
(13.9873 1.33992 2.68961e-19)
(9.57158 1.11382 4.42964e-19)
(10.902 1.14544 -8.14528e-19)
(11.6111 1.23191 -3.79423e-19)
(12.1514 1.24788 -3.55303e-19)
(12.6028 1.27409 -3.42385e-19)
(12.9791 1.29056 3.25767e-19)
(13.2838 1.30243 -1.26445e-18)
(13.5235 1.3087 2.92224e-21)
(13.7072 1.3101 0)
(13.845 1.30728 8.57339e-19)
(13.9461 1.30102 -2.83112e-19)
(14.0189 1.29392 -2.71758e-19)
(9.60491 1.07254 -4.54984e-19)
(10.9507 1.10088 0)
(11.661 1.18711 3.14455e-21)
(12.198 1.20131 3.61127e-19)
(12.6454 1.22682 6.86776e-19)
(13.018 1.24251 3.25391e-19)
(13.3198 1.25398 -1.27447e-18)
(13.5574 1.2601 3.11999e-19)
(13.7396 1.26161 8.98362e-19)
(13.8762 1.25912 0)
(13.9766 1.25323 0)
(14.0489 1.246 0)
(9.63527 1.03041 1.82561e-18)
(10.9964 1.05546 -8.19844e-19)
(11.7082 1.14135 7.71365e-19)
(12.2421 1.15382 -3.60555e-19)
(12.6855 1.17857 6.97411e-19)
(13.0548 1.19347 9.92247e-19)
(13.3539 1.20453 -9.62413e-19)
(13.5895 1.21048 5.9395e-21)
(13.7702 1.21204 1.20431e-18)
(13.9058 1.2098 -8.79737e-19)
(14.0052 1.20441 2.84961e-19)
(14.0768 1.19801 -5.44862e-19)
(9.663 0.987804 -4.57782e-19)
(11.0391 1.00952 -4.15255e-19)
(11.7526 1.09476 -3.84058e-19)
(12.2837 1.10545 -7.25736e-19)
(12.7234 1.12943 -3.40775e-19)
(13.0894 1.14353 3.36322e-19)
(13.386 1.15417 3.18452e-19)
(13.6197 1.15991 -9.35486e-19)
(13.7992 1.16148 3.06903e-19)
(13.9338 1.15938 5.88294e-19)
(14.0327 1.15417 -2.8507e-19)
(14.1036 1.14935 -2.79687e-19)
(9.68821 0.944616 -9.20651e-19)
(11.079 0.962967 1.66944e-18)
(11.7945 1.04741 0)
(12.3229 1.0563 0)
(12.7591 1.07947 0)
(13.122 1.09277 6.73435e-19)
(13.4162 1.10296 6.49802e-19)
(13.6483 1.10851 -3.13277e-19)
(13.8266 1.11011 3.06032e-19)
(13.9604 1.10825 2.05512e-21)
(14.0588 1.10326 -5.73542e-19)
(14.1293 1.09874 5.60796e-19)
(9.71133 0.901084 9.3116e-19)
(11.1164 0.915883 -2.07199e-19)
(11.8339 0.999242 -1.95764e-19)
(12.3599 1.00641 0)
(12.7927 1.02877 0)
(13.1527 1.04125 -3.37673e-19)
(13.4447 1.051 3.25014e-19)
(13.6751 1.05635 -6.36132e-19)
(13.8524 1.05798 3.05073e-19)
(13.9855 1.05633 -8.97226e-19)
(14.0835 1.05163 0)
(14.1536 1.04766 -2.8151e-19)
(9.73181 0.857041 -1.86885e-18)
(11.1511 0.868101 6.36709e-19)
(11.8709 0.950263 1.95553e-19)
(12.3945 0.955793 -5.52511e-19)
(12.8242 0.977341 7.12026e-19)
(13.1814 0.989035 0)
(13.4713 0.998346 6.54897e-19)
(13.7003 1.00349 -6.40193e-19)
(13.8766 1.00515 0)
(14.0091 1.00374 0)
(14.1065 0.999403 0)
(14.1763 0.994871 5.60426e-19)
(9.74993 0.813004 0)
(11.1831 0.820175 0)
(11.9054 0.900701 -3.92723e-19)
(12.427 0.90456 1.69396e-21)
(12.8537 0.925288 0)
(13.2082 0.936192 -6.82266e-19)
(13.4962 0.945059 1.48975e-18)
(13.7238 0.949976 -4.83392e-19)
(13.8992 0.951623 -6.18832e-19)
(14.0312 0.950354 1.57705e-19)
(14.1282 0.946278 6.0504e-21)
(14.1976 0.942037 5.77299e-19)
(9.766 0.768572 4.71172e-19)
(11.2127 0.771606 -2.14337e-19)
(11.9377 0.850507 1.98747e-19)
(12.4573 0.852789 -1.86244e-19)
(12.8811 0.872674 8.95836e-19)
(13.2332 0.882782 -1.73405e-19)
(13.5193 0.891202 -4.97104e-19)
(13.7457 0.895904 -3.19066e-19)
(13.9204 0.89756 3.14367e-19)
(14.0519 0.89649 -3.04095e-19)
(14.1487 0.892798 1.48347e-19)
(14.2178 0.888581 -1.41533e-19)
(9.78002 0.72373 7.12095e-19)
(11.2398 0.722537 -6.42902e-19)
(11.9676 0.799783 -1.98605e-19)
(12.4856 0.800475 1.88623e-19)
(12.9067 0.819534 -5.37676e-19)
(13.2564 0.828858 5.19832e-19)
(13.5408 0.836834 -3.22569e-21)
(13.7661 0.841341 -1.64031e-19)
(13.94 0.84303 -3.12975e-19)
(14.0712 0.842153 4.59949e-19)
(14.1678 0.838797 1.47665e-19)
(14.2369 0.835113 -4.38254e-19)
(9.7915 0.678751 2.39686e-19)
(11.2645 0.673235 0)
(11.9954 0.748624 -2.00512e-19)
(12.5118 0.747689 9.26828e-22)
(12.9304 0.765904 0)
(13.2778 0.774446 1.74355e-19)
(13.5605 0.781991 0)
(13.7847 0.786322 0)
(13.9581 0.788083 0)
(14.0889 0.787516 0)
(14.1853 0.784667 -2.97735e-19)
(14.2546 0.7808 5.8075e-19)
(9.80142 0.633572 -4.80328e-19)
(11.2869 0.623631 0)
(12.0211 0.697048 4.01716e-19)
(12.536 0.694427 -1.89308e-19)
(12.9522 0.71182 -3.6133e-19)
(13.2974 0.719585 1.76735e-19)
(13.5786 0.726688 -3.36013e-19)
(13.8018 0.730811 3.28834e-19)
(13.9745 0.732582 -3.16165e-19)
(14.1049 0.732231 3.16325e-21)
(14.2009 0.729993 1.53788e-19)
(14.2701 0.727317 2.91537e-19)
(9.80912 0.587901 0)
(11.3071 0.573467 -2.16943e-19)
(12.0446 0.645003 -2.01228e-19)
(12.5583 0.640696 0)
(12.9722 0.657301 -3.62769e-19)
(13.3154 0.664276 7.0159e-19)
(13.595 0.670927 -3.40725e-19)
(13.8173 0.67481 0)
(13.9894 0.676516 0)
(14.1195 0.676163 -1.55532e-19)
(14.2154 0.673958 -1.50782e-19)
(14.2837 0.673966 0)
(9.8147 0.542259 4.81887e-19)
(11.325 0.523316 -4.21814e-21)
(12.0661 0.592651 -2.93452e-21)
(12.5786 0.586553 -3.37234e-21)
(12.9904 0.602398 -5.50575e-19)
(13.3316 0.608584 0)
(13.6099 0.614764 0)
(13.8313 0.618397 0)
(14.0031 0.620032 0)
(14.1331 0.619647 1.55609e-19)
(14.2294 0.616892 -1.49788e-19)
(14.2987 0.618753 2.94481e-21)
(9.8185 0.496164 -6.05481e-19)
(11.3407 0.472691 6.55994e-19)
(12.0855 0.539915 4.04404e-19)
(12.5971 0.532007 -3.85393e-19)
(13.0068 0.547162 9.12524e-20)
(13.3462 0.552567 0)
(13.6232 0.558313 3.40021e-19)
(13.8439 0.561742 -3.30964e-21)
(14.0153 0.563474 -3.23535e-19)
(14.1452 0.563604 0)
(14.2414 0.561611 -2.28528e-19)
(14.3105 0.558233 0)
(9.82033 0.449967 2.05223e-21)
(11.3543 0.421955 4.39736e-19)
(12.1028 0.486864 1.02049e-19)
(12.6136 0.477133 2.86851e-19)
(13.0215 0.491656 -2.77861e-19)
(13.3591 0.496266 0)
(13.6349 0.501565 3.4121e-19)
(13.8549 0.50476 -3.32578e-21)
(14.026 0.506421 -2.43852e-19)
(14.1557 0.5066 0)
(14.2518 0.504988 1.53046e-19)
(14.3212 0.505121 0)
(9.82084 0.403794 1.21355e-21)
(11.3657 0.370939 3.30415e-19)
(12.118 0.433346 -1.02037e-19)
(12.6283 0.422011 1.92962e-19)
(13.0345 0.435934 0)
(13.3705 0.439703 0)
(13.6451 0.444553 -8.61203e-20)
(13.8644 0.447504 -8.3534e-20)
(14.0352 0.44912 -8.09365e-20)
(14.165 0.44943 -7.89872e-20)
(14.2613 0.44805 -1.5258e-19)
(14.3309 0.448537 1.4892e-19)
(9.81947 0.357368 -1.22538e-19)
(11.3749 0.319404 -1.09855e-19)
(12.1314 0.379377 2.0401e-19)
(12.6411 0.366657 -4.83662e-19)
(13.0458 0.379995 1.85914e-19)
(13.3802 0.382907 0)
(13.6538 0.387307 8.61344e-20)
(13.8725 0.390014 8.35572e-20)
(14.0431 0.391606 -1.61806e-19)
(14.1729 0.392037 2.38136e-19)
(14.2694 0.390805 1.53536e-19)
(14.3392 0.391371 -1.51191e-19)
(9.81638 0.311207 0)
(11.3817 0.26801 0)
(12.1427 0.325069 1.02872e-19)
(12.6522 0.311043 0)
(13.0555 0.323915 -9.29011e-20)
(13.3884 0.325896 8.9493e-20)
(13.6609 0.329851 1.72126e-19)
(13.8791 0.332319 -2.52663e-19)
(14.0495 0.333889 0)
(14.1794 0.334505 -7.94815e-20)
(14.276 0.33365 7.66133e-20)
(14.3461 0.33349 -2.25084e-19)
(9.81171 0.264851 6.1744e-20)
(11.3866 0.216226 2.20471e-19)
(12.1518 0.270473 -3.09401e-19)
(12.6616 0.255329 0)
(13.0636 0.267649 4.63484e-20)
(13.3949 0.268654 8.88498e-20)
(13.6665 0.272198 -3.46805e-19)
(13.8843 0.274422 4.20549e-19)
(14.0546 0.275944 -1.64416e-19)
(14.1846 0.27664 1.19377e-19)
(14.2814 0.276 0)
(14.3518 0.275663 7.57728e-20)
(9.80523 0.218608 -6.17642e-20)
(11.3896 0.16438 0)
(12.1589 0.215804 -5.1065e-20)
(12.6693 0.199686 9.78629e-20)
(13.07 0.211189 1.39311e-19)
(13.4 0.211139 -9.02198e-20)
(13.6707 0.21437 -4.34816e-20)
(13.888 0.216374 4.21996e-20)
(14.0582 0.217884 8.15699e-20)
(14.1883 0.2188 -1.20118e-19)
(14.2854 0.218799 -3.89109e-20)
(14.3564 0.217501 -3.75874e-20)
(9.79715 0.172432 -9.22881e-20)
(11.3906 0.11233 1.39275e-19)
(12.1641 0.16115 -7.74911e-20)
(12.6752 0.144057 1.21563e-19)
(13.0746 0.154374 -2.10039e-19)
(13.4034 0.153443 1.79917e-19)
(13.6733 0.156454 -6.57711e-20)
(13.8903 0.158174 4.1863e-20)
(14.0604 0.159614 -1.64351e-19)
(14.1907 0.160536 6.04127e-20)
(14.2881 0.160726 3.89402e-20)
(14.3591 0.159583 3.81128e-20)
(9.78757 0.126594 -9.27736e-20)
(11.3899 0.0600886 2.8082e-20)
(12.1675 0.106483 2.58583e-20)
(12.6794 0.0882718 -2.44051e-20)
(13.0775 0.0972989 -2.31641e-20)
(13.4054 0.0958576 4.52476e-20)
(13.6745 0.0983915 2.17818e-20)
(13.8911 0.0998458 0)
(14.0613 0.101262 0)
(14.1918 0.102336 2.00238e-20)
(14.2895 0.103063 0)
(14.3611 0.102144 0)
(9.77653 0.0808222 -1.55431e-20)
(11.3873 0.00762553 1.38725e-20)
(12.1692 0.0517794 7.13607e-22)
(12.6817 0.0324084 -1.2664e-20)
(13.0789 0.0400803 0)
(13.4058 0.0382066 0)
(13.6742 0.0402243 1.15366e-20)
(13.8905 0.0414139 -2.1178e-20)
(14.0607 0.0427896 1.03526e-20)
(14.1915 0.0439156 6.27124e-22)
(14.2896 0.0448025 0)
(14.3614 0.0444284 0)
(9.76366 0.0352335 4.67014e-20)
(11.3827 -0.044924 2.77746e-20)
(12.1691 -0.00307298 -1.38506e-20)
(12.6823 -0.0234961 3.82243e-22)
(13.0788 -0.0171586 -1.17062e-20)
(13.4046 -0.0195343 1.12792e-20)
(13.6724 -0.0180368 -1.16022e-20)
(13.8885 -0.0170814 -3.16881e-20)
(14.0588 -0.0157449 -1.00991e-20)
(14.1898 -0.0144613 9.51256e-21)
(14.2882 -0.0130744 -9.78207e-21)
(14.3607 -0.0128752 0)
(9.74927 -0.0100763 4.64529e-20)
(11.3762 -0.0972546 -8.37585e-20)
(12.1672 -0.0578933 1.31309e-20)
(12.6812 -0.0794671 -2.42777e-20)
(13.0771 -0.0744157 3.55512e-20)
(13.4021 -0.0773169 3.40612e-20)
(13.6692 -0.0763539 1.09187e-20)
(13.8851 -0.0756584 1.06003e-20)
(14.0554 -0.0744259 1.03113e-20)
(14.1867 -0.0731956 3.013e-20)
(14.2854 -0.0718694 -9.79003e-21)
(14.3575 -0.0707782 5.72813e-20)
(9.73348 -0.0553178 -6.17919e-20)
(11.3678 -0.149565 -8.28394e-20)
(12.1636 -0.112699 1.30183e-19)
(12.6784 -0.135479 -2.44986e-20)
(13.0738 -0.13167 -1.16694e-19)
(13.3979 -0.135124 1.80539e-19)
(13.6646 -0.134681 -4.41207e-20)
(13.8803 -0.134255 0)
(14.0509 -0.133145 4.12737e-20)
(14.1826 -0.131958 -2.0092e-20)
(14.282 -0.130905 1.95766e-20)
(14.3552 -0.128439 -1.91327e-20)
(9.7159 -0.100399 -1.25499e-19)
(11.3576 -0.201748 -5.53146e-22)
(12.1582 -0.167475 0)
(12.674 -0.191502 -9.76283e-20)
(13.069 -0.188867 9.41375e-20)
(13.3924 -0.192886 0)
(13.6585 -0.192951 -2.7045e-24)
(13.8741 -0.192751 0)
(14.0449 -0.191663 -4.1276e-20)
(14.1772 -0.190212 0)
(14.2774 -0.188807 0)
(14.3518 -0.185993 -7.50505e-20)
(9.6968 -0.145046 6.24917e-20)
(11.3457 -0.253569 5.5229e-20)
(12.151 -0.222161 -4.1562e-19)
(12.6679 -0.247486 3.92301e-19)
(13.0627 -0.246006 -1.88259e-19)
(13.3853 -0.250599 0)
(13.651 -0.251147 -4.37001e-20)
(13.8665 -0.251176 0)
(14.0376 -0.250149 0)
(14.1703 -0.248584 0)
(14.2709 -0.24704 0)
(14.3457 -0.244386 -1.50768e-19)
(9.67636 -0.189444 1.24971e-19)
(11.3319 -0.305243 2.23491e-19)
(12.142 -0.276794 0)
(12.6602 -0.303409 2.93303e-19)
(13.0548 -0.303055 -9.45434e-20)
(13.3768 -0.308245 0)
(13.642 -0.309276 -8.65291e-20)
(13.8575 -0.309556 8.65018e-20)
(14.0289 -0.308621 1.6589e-19)
(14.162 -0.306954 2.40266e-19)
(14.2631 -0.305027 -1.57455e-19)
(14.3385 -0.302813 7.54021e-20)
(9.65461 -0.233567 -5.00157e-19)
(11.3163 -0.356702 -1.1179e-19)
(12.1312 -0.331331 1.03935e-19)
(12.6509 -0.359249 -8.29424e-23)
(13.0453 -0.359998 -9.3696e-20)
(13.3667 -0.365803 9.0149e-20)
(13.6316 -0.367325 8.64129e-20)
(13.8471 -0.367871 -2.55208e-19)
(14.0188 -0.36706 0)
(14.1524 -0.365426 -2.40174e-19)
(14.2541 -0.363422 3.13078e-19)
(14.3297 -0.361238 -3.06051e-19)
(9.6311 -0.277728 2.50087e-19)
(11.299 -0.408195 2.228e-19)
(12.1187 -0.385728 -2.08637e-19)
(12.6399 -0.414979 -9.8043e-20)
(13.0343 -0.416821 1.86335e-19)
(13.3552 -0.423243 -9.18818e-20)
(13.6199 -0.42524 -8.8143e-20)
(13.8354 -0.426041 8.4659e-20)
(14.0074 -0.425335 0)
(14.1416 -0.423621 0)
(14.2439 -0.421231 0)
(14.3202 -0.418839 7.76233e-22)
(9.60609 -0.321263 -2.50023e-19)
(11.2797 -0.459122 0)
(12.1045 -0.439937 -1.43156e-22)
(12.6272 -0.470568 0)
(13.0218 -0.47349 9.34555e-20)
(13.3423 -0.480518 -3.58458e-19)
(13.6066 -0.482986 2.63106e-19)
(13.8223 -0.484046 -8.46829e-20)
(13.9947 -0.483457 0)
(14.1296 -0.481829 -3.1914e-19)
(14.2328 -0.479781 3.14247e-19)
(14.3099 -0.477533 -7.67018e-20)
(9.57973 -0.364831 -3.7484e-19)
(11.2587 -0.510051 2.23023e-19)
(12.0884 -0.493942 -3.11378e-19)
(12.6129 -0.525971 1.95525e-19)
(13.0077 -0.529977 -2.80172e-19)
(13.3278 -0.537626 0)
(13.592 -0.540532 0)
(13.8078 -0.541802 3.36409e-19)
(13.9806 -0.541198 -4.94987e-19)
(14.1162 -0.539184 -1.58724e-19)
(14.2203 -0.536216 1.57926e-19)
(14.2997 -0.534586 0)
(9.55158 -0.407997 0)
(11.2359 -0.560586 -1.30471e-21)
(12.0706 -0.547709 -2.08544e-19)
(12.597 -0.581184 -1.65769e-21)
(12.9921 -0.586255 -1.88092e-19)
(13.3119 -0.594522 5.36993e-19)
(13.5759 -0.597882 -3.49394e-19)
(13.7918 -0.599392 1.67279e-19)
(13.965 -0.598879 -1.65777e-19)
(14.1011 -0.596857 1.58181e-19)
(14.2057 -0.593627 -1.57382e-19)
(14.2855 -0.590143 2.99417e-19)
(9.52226 -0.450791 7.48447e-19)
(11.2116 -0.610752 2.23015e-19)
(12.0511 -0.60122 0)
(12.5794 -0.636184 3.90501e-19)
(12.9749 -0.642341 3.71002e-19)
(13.2945 -0.651244 -1.8295e-19)
(13.5584 -0.655074 -3.48833e-19)
(13.7744 -0.656856 3.66563e-22)
(13.948 -0.656479 0)
(14.0847 -0.654532 0)
(14.19 -0.651224 0)
(14.2699 -0.647009 0)
(9.49163 -0.493358 -7.48276e-19)
(11.1853 -0.660734 -2.22242e-19)
(12.0298 -0.654563 0)
(12.5602 -0.690986 -1.95219e-19)
(12.9561 -0.698224 -1.85819e-19)
(13.2757 -0.707774 -1.77545e-19)
(13.5394 -0.712079 3.39033e-21)
(13.7556 -0.714155 8.41197e-19)
(13.9297 -0.713932 -3.29015e-19)
(14.0671 -0.712072 0)
(14.1734 -0.709051 3.09002e-19)
(14.2538 -0.705055 -3.04356e-19)
(9.45922 -0.53571 -2.4941e-19)
(11.1573 -0.710472 1.30731e-21)
(12.0067 -0.707623 2.0819e-19)
(12.5393 -0.745555 0)
(12.9359 -0.753859 1.70574e-21)
(13.2553 -0.764053 3.58571e-19)
(13.519 -0.768831 -3.44087e-19)
(13.7355 -0.771185 5.05008e-19)
(13.9102 -0.771068 0)
(14.0483 -0.769103 0)
(14.1555 -0.765701 0)
(14.2371 -0.761911 4.4732e-19)
(9.42525 -0.577587 -9.94688e-19)
(11.1274 -0.759702 -6.64509e-19)
(11.9819 -0.760309 6.20443e-19)
(12.5168 -0.799815 0)
(12.9141 -0.809212 -3.70696e-19)
(13.2335 -0.820055 -1.78544e-19)
(13.4973 -0.825296 0)
(13.714 -0.827933 3.32771e-19)
(13.8893 -0.827967 -3.27569e-19)
(14.0282 -0.826087 0)
(14.1362 -0.822837 0)
(14.2186 -0.818414 -1.50999e-19)
(9.38987 -0.619139 9.90739e-19)
(11.096 -0.808582 -2.23883e-19)
(11.9553 -0.812659 -2.04401e-19)
(12.4926 -0.85375 1.95999e-19)
(12.8907 -0.864244 1.85243e-19)
(13.2103 -0.875735 -5.31593e-19)
(13.4741 -0.88144 3.45829e-19)
(13.6912 -0.884349 -3.34057e-19)
(13.867 -0.884499 -3.2339e-19)
(14.0068 -0.882521 3.18281e-19)
(14.1158 -0.878983 0)
(14.1995 -0.874469 -1.48597e-19)
(9.35301 -0.660194 4.92424e-19)
(11.0628 -0.856951 -6.65417e-19)
(11.927 -0.864632 -2.05802e-19)
(12.4668 -0.907347 1.1576e-18)
(12.8658 -0.918944 -7.41206e-19)
(13.1856 -0.931084 1.77713e-19)
(13.4495 -0.937249 6.83058e-19)
(13.667 -0.940436 -5.0277e-19)
(13.8435 -0.940708 1.61796e-19)
(13.9841 -0.938749 0)
(14.094 -0.935263 0)
(14.1786 -0.930942 1.49796e-19)
(9.31515 -0.700836 -9.22223e-22)
(11.0277 -0.904854 0)
(11.897 -0.916265 6.11626e-19)
(12.4393 -0.960605 -9.69013e-19)
(12.8393 -0.973283 -7.32685e-19)
(13.1593 -0.986094 7.10976e-19)
(13.4235 -0.992705 5.10273e-19)
(13.6413 -0.996141 -8.33548e-19)
(13.8184 -0.996541 -1.6188e-19)
(13.9599 -0.994461 -7.83358e-19)
(14.0709 -0.990486 4.63732e-19)
(14.157 -0.986744 0)
(9.27523 -0.741378 -2.47249e-19)
(10.9909 -0.952687 0)
(11.8651 -0.967556 1.01903e-18)
(12.4101 -1.0135 -1.5401e-18)
(12.8113 -1.02729 3.70918e-19)
(13.1316 -1.04073 -3.52043e-19)
(13.396 -1.04781 1.70907e-19)
(13.6143 -1.05152 4.94336e-19)
(13.7921 -1.05208 -6.47531e-19)
(13.9344 -1.05013 1.5718e-19)
(14.0463 -1.0462 4.56274e-19)
(14.133 -1.04326 -5.97609e-19)
(9.2336 -0.781039 4.91148e-19)
(10.9523 -0.999627 4.37772e-19)
(11.8314 -1.01828 8.12044e-19)
(12.3793 -1.06593 -1.53602e-18)
(12.7816 -1.08087 1.10161e-18)
(13.1024 -1.09498 -3.47516e-19)
(13.3671 -1.10252 3.44024e-19)
(13.5858 -1.10651 3.3065e-19)
(13.7643 -1.10718 0)
(13.9076 -1.10516 0)
(14.0206 -1.10065 -3.00992e-19)
(14.1087 -1.09788 6.31136e-21)
(9.19105 -0.820284 -2.2674e-21)
(10.912 -1.04606 -2.0087e-21)
(11.796 -1.06856 0)
(12.3467 -1.11796 -3.80307e-19)
(12.7504 -1.13404 1.09617e-18)
(13.0717 -1.14881 -3.49592e-19)
(13.3368 -1.15682 -6.72559e-19)
(13.5559 -1.16111 3.32823e-19)
(13.7352 -1.16191 3.1722e-19)
(13.8794 -1.16002 -9.36955e-19)
(13.9934 -1.15546 0)
(14.0821 -1.15351 -2.95299e-19)
(9.14701 -0.859109 -2.38846e-21)
(10.8699 -1.09202 4.32286e-19)
(11.7589 -1.11843 -4.08698e-19)
(12.3125 -1.16952 -1.14203e-18)
(12.7176 -1.18678 -3.57691e-19)
(13.0395 -1.20225 1.39952e-18)
(13.305 -1.2107 1.64912e-21)
(13.5247 -1.21527 1.59963e-21)
(13.7047 -1.21619 3.19271e-19)
(13.8498 -1.21426 3.11026e-19)
(13.965 -1.20913 0)
(14.0554 -1.20594 8.74281e-19)
(9.10152 -0.897573 -4.89081e-19)
(10.8263 -1.13759 -4.3336e-19)
(11.7198 -1.16776 -4.04903e-19)
(12.2766 -1.22063 -3.77836e-19)
(12.6833 -1.23907 7.27154e-19)
(13.0058 -1.25526 -1.04074e-18)
(13.2717 -1.26417 3.4346e-19)
(13.492 -1.26905 6.57085e-19)
(13.6727 -1.27014 0)
(13.8188 -1.26838 3.06519e-19)
(13.9349 -1.26354 -1.20381e-18)
(14.0255 -1.26054 5.91446e-19)
(9.05417 -0.935462 4.83466e-19)
(10.7805 -1.18262 -4.35832e-19)
(11.6791 -1.21668 -1.2022e-18)
(12.2391 -1.27129 3.46329e-21)
(12.6473 -1.29088 0)
(12.9706 -1.30776 -3.45353e-19)
(13.237 -1.31717 -3.33723e-19)
(13.4579 -1.32237 3.25544e-19)
(13.6395 -1.32366 0)
(13.7866 -1.32201 3.08385e-19)
(13.904 -1.31731 5.96383e-19)
(13.9962 -1.31391 -6.40342e-21)
(9.00509 -0.972543 4.85981e-19)
(10.7331 -1.22673 0)
(11.6364 -1.26483 8.00481e-19)
(12.1997 -1.32131 -3.79607e-19)
(12.6097 -1.34215 -3.58112e-19)
(12.9339 -1.35973 1.03223e-18)
(13.2009 -1.36964 -9.9845e-19)
(13.4224 -1.37516 9.7184e-19)
(13.6049 -1.37661 0)
(13.7531 -1.37492 -3.0383e-19)
(13.8718 -1.36999 8.97003e-19)
(13.9655 -1.36629 2.88687e-19)
(8.95514 -1.00904 -9.65066e-19)
(10.6842 -1.27019 4.28201e-19)
(11.592 -1.31241 -3.5651e-21)
(12.1587 -1.37082 -7.5425e-19)
(12.5706 -1.39291 7.14877e-19)
(12.8957 -1.41119 0)
(13.1633 -1.4216 -3.30469e-19)
(13.3856 -1.42744 -3.22478e-19)
(13.569 -1.42908 0)
(13.7183 -1.42753 3.00432e-19)
(13.8382 -1.42284 -8.94049e-19)
(13.9331 -1.41931 -2.90033e-19)
(8.90394 -1.04516 0)
(10.6332 -1.31322 2.70792e-21)
(11.5459 -1.35951 1.18989e-18)
(12.1159 -1.41976 -6.59807e-21)
(12.5298 -1.44312 -1.78009e-18)
(12.8559 -1.46211 1.36592e-18)
(13.1243 -1.473 -1.31733e-18)
(13.3473 -1.47914 6.42991e-19)
(13.5317 -1.48094 0)
(13.6821 -1.47933 0)
(13.8033 -1.47425 -2.93201e-19)
(13.9004 -1.47052 5.72132e-19)
(8.85079 -1.08066 0)
(10.5805 -1.35558 2.847e-21)
(11.4979 -1.40598 -1.18143e-18)
(12.0715 -1.46811 7.47624e-19)
(12.4874 -1.49271 0)
(12.8146 -1.51246 6.76335e-19)
(13.0837 -1.52384 -3.30169e-19)
(13.3076 -1.53029 0)
(13.4929 -1.53232 -6.15598e-19)
(13.6445 -1.53092 6.05626e-19)
(13.767 -1.52621 -2.94521e-19)
(13.865 -1.52286 0)
(8.79598 -1.11558 9.53001e-19)
(10.5262 -1.39733 4.2518e-19)
(11.448 -1.45172 7.87012e-19)
(12.0252 -1.51581 0)
(12.4433 -1.5417 7.01216e-19)
(12.7717 -1.5622 -3.43179e-19)
(13.0417 -1.57408 -6.55763e-19)
(13.2664 -1.58086 0)
(13.4528 -1.58306 3.06473e-19)
(13.6056 -1.58162 0)
(13.7296 -1.57659 0)
(13.8297 -1.57272 0)
(8.7395 -1.14964 4.71883e-19)
(10.4697 -1.43825 -8.472e-19)
(11.3962 -1.49678 -3.92938e-19)
(11.9771 -1.56285 0)
(12.3975 -1.59004 6.97495e-19)
(12.7273 -1.61131 -3.38008e-19)
(12.9982 -1.62368 -6.45525e-19)
(13.2238 -1.63079 9.4544e-19)
(13.4112 -1.63318 -9.15091e-19)
(13.5653 -1.63192 8.95041e-19)
(13.6908 -1.62724 -8.66166e-19)
(13.7919 -1.62389 6.33339e-21)
(8.68168 -1.18287 1.88317e-18)
(10.4115 -1.47816 -4.24767e-19)
(11.3426 -1.54105 0)
(11.9273 -1.60915 1.09417e-18)
(12.3501 -1.63772 -6.27052e-21)
(12.6813 -1.65975 -6.71373e-19)
(12.9532 -1.67263 -3.21127e-19)
(13.1798 -1.68006 -2.38964e-21)
(13.3682 -1.68258 6.04481e-19)
(13.5236 -1.68124 -5.96893e-19)
(13.6506 -1.67606 1.14963e-18)
(13.7542 -1.67255 -1.11419e-18)
(8.62257 -1.21556 -9.38489e-19)
(10.3517 -1.51738 -4.18749e-19)
(11.287 -1.58459 -3.85551e-19)
(11.8757 -1.65473 -2.90773e-21)
(12.301 -1.68469 -3.44959e-19)
(12.6337 -1.7075 -6.61012e-19)
(12.9066 -1.72092 6.46303e-19)
(13.1342 -1.72872 -2.47965e-21)
(13.3238 -1.73147 0)
(13.4803 -1.73029 -8.79537e-19)
(13.6085 -1.72507 5.73243e-19)
(13.7129 -1.72082 0)
(8.56189 -1.24756 4.72722e-19)
(10.29 -1.5559 8.32998e-19)
(11.2297 -1.62737 1.15269e-18)
(11.8222 -1.69957 -1.0908e-18)
(12.2502 -1.73094 -3.39634e-19)
(12.5844 -1.75458 9.91267e-19)
(12.8586 -1.76858 3.19492e-19)
(13.0872 -1.77675 -3.09646e-19)
(13.2779 -1.77981 -1.19272e-18)
(13.4358 -1.77898 1.17291e-18)
(13.5654 -1.77433 -2.85333e-19)
(13.6708 -1.77012 -1.10782e-18)
(8.49948 -1.27881 -9.23918e-19)
(10.2264 -1.59362 1.64963e-18)
(11.1705 -1.66939 -3.8646e-19)
(11.767 -1.74366 3.58017e-19)
(12.1976 -1.77647 3.40399e-19)
(12.5337 -1.80091 -2.84096e-21)
(12.8091 -1.81549 9.43404e-19)
(13.0388 -1.82402 -1.23092e-18)
(13.2308 -1.82733 0)
(13.3902 -1.82663 2.88373e-19)
(13.5217 -1.82223 0)
(13.6294 -1.81836 2.74552e-19)
(8.43537 -1.30922 -1.83654e-18)
(10.1609 -1.63041 1.64516e-18)
(11.1092 -1.71053 -3.81615e-19)