/*--------------------------------*- C++ -*----------------------------------*\
| =========                 |                                                 |
| \\      /  F ield         | OpenFOAM: The Open Source CFD Toolbox           |
|  \\    /   O peration     | Version:  2.3.1                                 |
|   \\  /    A nd           | Web:      www.OpenFOAM.org                      |
|    \\/     M anipulation  |                                                 |
\*---------------------------------------------------------------------------*/
FoamFile
{
    version     2.0;
    format      ascii;
    class       volScalarField;
    location    "1580";
    object      sigmaEq;
}
// * * * * * * * * * * * * * * * * * * * * * * * * * * * * * * * * * * * * * //

dimensions      [1 -1 -2 0 0 0 0];

internalField   nonuniform List<scalar> 
11800
(
132473
106509
372972
320950
102138
234515
127832
133047
139804
147318
130299
452109
64557.7
334835
294897
1.30562e+06
105385
101147
177559
105089
259653
411003
591283
528485
1.06556e+06
687293
669708
333847
737558
807372
228751
108052
679074
114928
117642
223575
117899
721972
113487
114583
694327
764386
351193
836832
240806
1.22204e+06
559925
648042
126864
167733
471457
337707
116295
182393
1.39173e+06
1.19151e+06
57145.6
318135
246135
242720
1.1787e+06
124189
254580
211248
1.04502e+06
161746
483946
348355
57984.9
634243
120459
101036
97220.6
1.16932e+06
1.16655e+06
219805
1.08281e+06
151945
132323
138061
1.41733e+06
97869.5
102892
105917
100723
776924
243217
708393
644301
344706
113488
807591
121129
55689.7
133132
110102
14226.7
109725
116041
398460
71565.7
436799
766800
278687
122450
233624
131512
121181
1.13952e+06
707255
776715
643127
246284
350876
151589
1.03038e+06
152484
118012
968583
153649
150644
129298
135365
109321
118345
115236
116479
115087
90441.8
29867.7
1.35155e+06
875721
261100
777313
364277
706162
641960
232055
665660
318607
604829
550309
351990
142989
166443
219860
771996
796183
454137
264881
152648
146384
116007
181647
163036
138042
309167
418142
859505
119485
1.30863e+06
164187
1.10173e+06
315781
344883
377588
190354
153665
1.42477e+06
853063
292752
395917
122361
247017
247740
1.21751e+06
1.23118e+06
625996
569263
687995
308340
218866
174111
150663
291873
150749
241692
119807
125207
127574
173467
159950
152512
161446
582493
746641
1.19808e+06
108339
153649
1.40361e+06
108703
190327
213704
119781
122768
542816
457620
416427
345521
1.34587e+06
405952
594524
1.84075e+06
1.47146e+06
1.56136e+06
248831
108205
551865
500634
456402
180542
246304
105695
100627
177493
106109
892422
188117
107240
307076
153394
130869
112574
418117
426709
1.83177e+06
888350
157065
165087
734339
598980
219603
307887
693233
634485
576899
121388
763373
261007
350615
329806
116894
110723
283479
240030
127661
1.55427e+06
191260
217334
166181
187888
450017
494851
542280
246661
182254
119037
1.16247e+06
123129
81854.1
116153
270585
104493
348963
1.37875e+06
254960
252507
374291
274379
314031
231579
795748
667198
212986
260714
176061
206501
372910
486738
203873
801438
860496
1.04105e+06
128386
253661
252283
1.17421e+06
1.18563e+06
669183
658692
687437
681023
112929
79498.3
196449
1.56772e+06
105316
110763
200782
173623
177322
590144
598759
1.05933e+06
1.56528e+06
480405
136631
564335
463784
330966
269755
131971
132284
182827
312901
168934
287310
103065
128011
128239
121262
859456
127533
109022
1.28095e+06
204503
470209
495299
483128
607628
585655
92857.7
92140.4
438874
567629
399364
1.0343e+06
95851.6
545191
428459
275951
211953
209258
162715
216026
189427
245933
272609
297573
115081
115782
487337
518008
134894
152344
319275
261820
295735
140268
133608
163847
165260
600813
276944
212957
278344
680070
797430
268036
145310
140560
171498
161818
288385
336103
270980
318621
246796
290558
221860
208130
453018
219597
480475
823040
399350
296900
1.4319e+06
112989
865553
410942
303219
1.32919e+06
114537
890915
222948
771751
711394
686339
138644
60774.8
107283
1.65293e+06
1.42595e+06
599128
213662
277866
134621
155934
180391
110542
165694
1.08272e+06
44122
359529
271936
1.20495e+06
90249.4
133131
115926
124771
114695
119544
1.20976e+06
390384
165396
426927
389226
356299
91153.9
852851
271074
370047
127395
585960
133702
1.13374e+06
111114
145402
310780
284007
260453
592356
157136
323434
301747
157189
431301
472645
518818
245465
185501
53285.9
123575
133585
1.49773e+06
463152
365341
272494
224765
131665
122941
91637.5
95069.1
151050
82819.5
93590.4
108413
123224
244545
116519
159574
400656
452568
217523
1.08376e+06
144057
256763
117635
125364
1.03728e+06
1.31207e+06
381908
420184
172281
153536
102802
911163
1.26246e+06
1.12531e+06
1.64893e+06
488474
342412
457337
97396.4
133411
126024
138099
446930
120466
118523
97042.4
126960
907188
196024
865726
576256
121877
152919
789973
922464
444964
489930
536484
245767
184908
405295
117617
117514
115262
128582
106340
144464
82914.2
136004
80207.3
131677
73427.3
129610
118874
126262
90885.2
1.04198e+06
176807
164793
367311
597659
89904.5
120781
104679
99891.3
90218.7
193530
265815
113918
112293
388325
96197.3
142424
1.12863e+06
66195.2
129839
330726
302843
319915
348527
359021
382073
175588
141692
1.27198e+06
1.618e+06
306660
76382.5
221889
247759
235301
173906
503913
461968
420313
129771
69627.4
475925
457106
205888
224796
125096
380993
418661
161980
664632
668629
676851
674806
1.2125e+06
1.18635e+06
358593
1.49811e+06
499300
111776
1.05979e+06
847830
932683
466404
194021
212386
140032
1.03296e+06
324610
413645
1.58214e+06
149408
169845
346393
315733
848072
422012
1.28181e+06
112823
108530
181496
244990
548405
499400
454577
1.22711e+06
117787
250190
541758
877557
110474
1.4334e+06
1.34263e+06
1.36342e+06
158878
215026
87673.4
1.39404e+06
371768
163758
263320
1.27278e+06
115377
166290
179144
114786
333891
190848
1.64647e+06
1.38229e+06
147812
393098
501172
189361
217447
172396
157870
457403
157278
365371
275644
714978
642983
126515
854397
118053
255641
309099
1.18275e+06
214299
293670
168031
148954
129755
148920
277536
641863
708885
108035
108201
105270
142264
236745
867200
94518
282848
500599
386986
152780
663193
740598
472061
815637
895078
361179
243981
121599
131873
237036
254712
217848
237158
142660
216567
257500
159113
114144
1.62835e+06
675341
251352
329613
321076
159123
267257
380188
844413
768684
698459
220648
258318
158376
153358
1.00307e+06
777609
849923
121085
149668
189916
414847
969351
300301
65583.2
123555
1.52048e+06
1.4317e+06
166048
1.31312e+06
96332.7
122187
103854
473575
100072
169225
193587
838700
923318
1.01313e+06
1.10963e+06
474743
408857
342145
275438
143086
110623
268587
1.36343e+06
119800
119091
116654
116948
115473
120638
128292
1.05977e+06
540796
523704
304705
575056
633400
222632
758840
183618
161008
122255
1.50053e+06
113697
127372
120448
122830
112458
1.36813e+06
184464
186569
764110
227057
484037
181920
1.396e+06
577167
278305
217305
927353
310686
136920
120559
106165
109285
167523
190072
177696
125749
355057
135153
111844
533554
599401
105357
383971
543939
465559
623637
1.20972e+06
1.10358e+06
1.00221e+06
907681
382639
463196
1.21857e+06
1.11117e+06
541208
1.01006e+06
622349
912953
1.11176e+06
126124
112026
122601
164714
355391
812669
120519
291561
388264
317259
425521
142886
174748
279680
399737
885557
806199
732555
346968
263044
667398
146310
178010
129979
232723
213725
192609
372276
295407
302863
228247
114480
495821
142337
228040
285204
719566
375493
438076
378422
140336
174861
136548
122277
121703
134744
390223
335518
114924
151736
155717
304350
948820
302022
413831
353453
126959
154874
144714
132057
175660
138458
417351
379345
344448
146479
1.11347e+06
457186
175116
674868
447529
921914
1.32076e+06
162596
181332
150950
119489
116654
484443
413049
1.36701e+06
104581
139485
237634
337672
157532
120827
488140
481843
58912
111741
246025
198888
86696.9
1.17283e+06
1.31603e+06
200814
106964
193348
256176
541394
446563
491672
1.50971e+06
115387
385413
432431
128889
399286
486504
568546
650707
1.26749e+06
1.15566e+06
1.04953e+06
950971
398618
483970
1.27495e+06
1.16268e+06
564520
1.05713e+06
648546
955940
1.25347e+06
1.08759e+06
822205
318000
363436
1.08322e+06
824539
229565
106405
102093
820864
1.41323e+06
111816
276723
1.20128e+06
814897
1.3218e+06
1.34259e+06
765847
771951
355923
287077
371207
197952
133877
206029
123002
139281
161224
144447
272589
1.36815e+06
371549
143692
93772.6
245386
264157
1.23168e+06
251549
227185
277664
295558
783351
348775
258461
1.05909e+06
278087
355689
140638
127625
260621
221253
241564
612857
372711
359555
888180
850522
355910
372215
680028
731515
272265
281026
113658
133854
139798
364214
282644
56782.4
127279
142567
443910
427293
222064
420702
328187
138851
92912.7
94690.2
378352
877503
100308
1.31605e+06
187672
489767
446094
149729
183843
299435
119841
111003
1.07942e+06
260014
676605
617665
562372
213646
298858
125563
1.01951e+06
1.26899e+06
132396
118785
693770
247085
329146
569134
625931
695611
219548
303693
53328.9
532515
257995
1.25856e+06
244638
732517
571135
638526
120046
115948
112681
128412
119825
111000
1.06013e+06
310836
127108
150539
162140
182931
214732
239260
493392
480828
450769
437106
399538
411462
800208
128671
113982
115286
136742
165547
121227
126677
939234
185528
339559
270516
704516
357717
134145
141341
297552
233833
403597
332670
841858
726351
661885
601458
336965
976808
458123
1.02154e+06
177244
151999
191515
192793
137824
135383
135092
1.01293e+06
1.379e+06
225867
96088.4
169701
374984
287729
92807.8
120752
188395
175098
167145
161322
200395
190296
151703
318878
354564
346011
385497
288725
322259
388609
113098
769852
601464
327857
831149
782989
454599
1.374e+06
248281
235603
268829
292530
135079
122561
134183
263817
117665
1.10217e+06
162759
120395
511189
51020.3
101944
1.14358e+06
133693
271125
867858
387261
790852
718753
1.03207e+06
688949
112194
393691
316364
157034
923161
403878
170056
730948
661360
803661
117700
119501
113079
1.65986e+06
197110
284249
343657
169312
115158
110327
282123
307095
135478
1.14846e+06
276124
1.08093e+06
168922
566945
113266
409787
492898
679460
266901
351718
422979
185820
1.56115e+06
126569
95360
111136
1.35265e+06
908342
215215
306298
708433
649622
590856
1.39248e+06
393089
321331
1.44018e+06
1.6169e+06
1.0928e+06
86601.5
379741
896959
657818
349619
266027
632888
564284
268747
909795
220562
199502
331359
287769
229107
1.11638e+06
1.66771e+06
102950
116318
137534
1.61964e+06
120823
134088
457497
344823
1.44754e+06
1.51539e+06
118807
422597
160209
149282
349369
155162
98132.1
378535
106931
122507
1.66985e+06
690120
375438
286720
258061
192929
519545
475488
431591
166408
1.53047e+06
304631
270891
282001
1.28686e+06
506788
726004
109272
171287
128023
573872
317468
421977
105505
187179
249946
544817
193093
141864
125726
237955
1.42667e+06
195270
256849
538326
927247
1.30856e+06
841702
584666
426004
503828
65105.5
166226
215509
454130
414196
376925
1.30383e+06
111193
133528
143430
142759
142356
145130
191801
116600
114022
456846
1.15e+06
302992
680470
619769
564062
216228
1.30502e+06
386974
436832
519009
446808
780841
1.27008e+06
394340
118987
532715
102605
555341
331401
609946
671742
243973
800747
200751
1.7747e+06
598381
115522
1.17404e+06
1.77632e+06
1.52981e+06
353257
116874
661827
127561
115539
103954
204131
119821
117352
107970
104911
1.06026e+06
1.11248e+06
113057
770196
133831
124843
113831
164886
702976
711387
174358
715792
721526
1.00971e+06
336009
133449
153586
203235
405921
444798
162997
43185.8
124360
533509
228638
539594
607474
669382
735546
372572
268487
216685
124780
112713
1.32909e+06
718897
113819
154983
617690
486996
258763
282278
148865
123692
229689
202622
100622
150078
116671
1.1061e+06
391377
967968
106834
111466
1.77973e+06
116862
1.37301e+06
1.34238e+06
109487
603427
293042
1.09423e+06
121170
551358
681326
1.49068e+06
162035
113997
105441
337529
160696
206675
404367
367192
333741
111570
111726
122633
116008
689928
761944
523434
905253
823395
974377
1.45398e+06
178830
464062
1.38516e+06
440616
1.33976e+06
578154
635765
699650
306932
216695
273122
331045
1.25303e+06
128768
137470
189704
179001
164866
138533
245345
223858
209843
542030
506255
1.63632e+06
171032
100573
142904
1.32273e+06
382984
196117
187903
1.29536e+06
597114
413084
91760.9
146500
104634
585196
750302
205581
896335
131713
128892
1.70732e+06
1.12973e+06
1.38451e+06
249849
320666
581146
206160
440574
1.38958e+06
1.52483e+06
131027
149896
243650
205224
644197
717616
484642
545992
1.53034e+06
1.45873e+06
186165
136465
92525.1
1.01481e+06
102450
1.33451e+06
290472
197602
712375
221421
110192
1.27136e+06
154667
181794
97005.1
111205
959395
299636
116307
501149
232871
139839
113903
112494
429638
112284
1.27114e+06
1.18881e+06
204830
526852
303858
112614
122911
1.01297e+06
130476
665959
173139
358862
702064
808224
1.20797e+06
136397
223012
1.35642e+06
171494
121492
104944
127813
113740
1.41486e+06
1.06191e+06
233304
309519
562259
535700
741344
254113
339647
254649
360339
777066
707713
642717
1.05686e+06
469233
340368
1.08891e+06
343935
1.18369e+06
426947
438977
1.2792e+06
1.78262e+06
1.49812e+06
271207
312755
767451
345842
258861
109872
249963
1.25731e+06
118412
130940
1.55393e+06
1.15469e+06
1.37625e+06
565116
701060
710272
610863
104350
95552.1
146238
98389.8
451881
494873
544100
246068
180886
406988
1.39222e+06
116213
156993
132019
119928
639474
578953
147810
1.22898e+06
1.4128e+06
744539
602726
1.12374e+06
1.29401e+06
108612
624836
402375
830677
119658
174149
186545
1.05917e+06
1.05536e+06
512849
238669
102547
117663
157813
326745
1.13107e+06
153514
849120
111851
238225
175662
218143
380950
199573
318719
30830.3
8928.96
317222
1.66298e+06
140892
123827
132562
110404
107617
138301
146056
111747
119727
338577
109508
117862
138966
618749
767173
545977
1.18156e+06
1.47176e+06
116903
151567
251979
124419
997422
167887
1.52884e+06
161821
202618
392210
281537
164126
163488
378092
111867
127236
146994
105029
138359
100346
1.30374e+06
93682.7
117133
189164
108967
85758
1.31949e+06
141509
1.13247e+06
1.17903e+06
434443
299764
217292
304872
694089
640962
582934
113047
790795
436071
113459
1.40528e+06
117472
120293
242071
762178
550556
615767
899659
136084
113126
267788
389087
865877
450823
950795
330228
787667
715961
264636
950949
322453
862960
380467
786446
714638
440197
1.03879e+06
136253
388524
297244
114262
138741
1.12517e+06
632621
863382
800928
699506
872604
635726
248358
273315
402160
985140
119841
1.58915e+06
139703
117025
1.20854e+06
137553
205957
424447
434413
1.25459e+06
100412
762646
696688
633353
236371
336479
1.52723e+06
245109
194506
448825
133015
468155
215306
254133
103940
150272
159877
134530
346378
109019
435771
236762
183020
566287
756869
764772
565756
287796
1.41877e+06
117735
117951
1.28072e+06
1.17716e+06
705433
1.76421e+06
709314
607691
683775
1.57308e+06
703078
554523
1.3921e+06
306185
311014
421518
1.21374e+06
99183.4
1.06838e+06
127962
188987
262539
436384
478798
525431
253595
189691
336559
67020.2
70504.5
117606
118255
160044
130097
113786
159020
739641
1.4228e+06
165058
137608
1.31445e+06
881025
343108
458768
115320
121629
1.1289e+06
760235
178346
582322
543670
756651
105007
114775
130060
113395
853646
1.42311e+06
1.41355e+06
947937
1.54247e+06
191145
104264
232181
691788
628984
759942
341365
237869
1.54633e+06
324900
400776
524263
181006
164372
659148
242749
124141
486071
185803
229962
1.47182e+06
239044
213822
742860
679844
617882
312310
990146
925867
1.20578e+06
378151
395662
467025
1.01004e+06
452787
329631
896302
174860
1.77121e+06
129610
1.35564e+06
351343
404528
99326.9
425739
801408
115229
131873
125235
1.56836e+06
421996
381306
459107
224375
169039
228705
400852
1.03287e+06
405171
797715
962423
878132
276471
874097
655388
697049
825063
871406
655499
704414
834630
486311
435968
34924.7
215497
137838
283453
410124
346168
473725
990278
903202
821417
746468
279217
798531
376057
129306
92235.7
99232.2
162985
90074.6
331407
763425
788366
289686
1.37159e+06
132612
114892
1.08443e+06
1.35343e+06
89184.2
829422
325324
432884
601764
386657
221372
117985
323347
509574
63256.6
117860
1.39452e+06
186376
150072
327997
298463
357790
243863
118137
121073
252461
866377
1.37217e+06
1.58941e+06
228565
252716
1.07505e+06
969278
1.27952e+06
106782
743497
1.24e+06
1.59584e+06
1.65111e+06
1.58383e+06
380117
673250
287233
1.45709e+06
1.05824e+06
426052
949509
118623
115206
1.12944e+06
1.13155e+06
114646
315459
1.45747e+06
1.19767e+06
1.12924e+06
1.16812e+06
1.65726e+06
1.11559e+06
1.38137e+06
1.22258e+06
121864
194957
877617
471346
734415
158631
110163
138974
129098
129740
155842
138611
290957
1.37864e+06
836482
282868
383952
901608
133415
421949
306482
1.70267e+06
222306
210787
417112
224539
382323
166546
141286
1.3844e+06
11327.4
111097
110543
22842.1
307403
373370
135641
148371
160244
119508
415729
376485
111549
1.44217e+06
1.24356e+06
401430
892763
293812
114482
1.0433e+06
231058
1.43947e+06
367427
448336
524134
602059
1.1833e+06
1.08069e+06
981121
890221
366884
444795
1.19032e+06
1.08614e+06
519980
987218
598696
893728
205141
165066
398449
411394
358099
176942
154083
137112
117734
112872
117035
109101
109273
179787
656289
706183
585805
330284
639476
705025
1.15384e+06
468036
375402
1.29461e+06
434800
150265
91182.5
130232
118656
205679
184888
189639
122574
289895
224506
261202
522694
121674
152888
692909
124038
103013
121438
102982
965564
135106
170818
434696
347112
199456
441103
172436
102849
94264.1
1.54912e+06
1.55728e+06
864427
702936
682484
875853
1.49957e+06
762018
115981
490779
263450
208175
294116
149544
1.4827e+06
158649
808762
739745
672663
351447
244548
431104
244691
192630
1.49984e+06
169886
115918
492960
490668
212118
145056
167784
272822
583266
1.09652e+06
427160
336729
723305
877796
230241
325280
729797
664935
604901
338532
366614
626903
481653
682359
364863
756281
832823
245361
913942
1.72708e+06
1.2344e+06
105950
533936
587040
644525
210846
154458
1.03687e+06
176447
230264
300865
321343
138373
174586
152227
124010
917060
694014
730974
876521
231533
1.24275e+06
1.5407e+06
566195
110589
525278
576058
632932
621666
746770
203871
1.1782e+06
518161
448572
406311
490161
184732
246509
152253
145635
308693
371152
337750
384120
421504
463326
278198
274682
386612
389291
805046
799843
664576
731772
660285
727129
402269
441715
170779
119975
129925
142216
878985
503560
118685
800016
660703
628908
822193
150522
295995
1.06769e+06
437886
972524
883391
91107.8
180508
757527
421154
305400
993853
368201
66301.3
732455
666209
805585
355635
246734
1.06712e+06
377926
307768
1.38183e+06
378957
529170
136143
120293
233682
216466
196324
1.16606e+06
278589
210349
322148
293115
349211
176821
143897
788471
896675
151473
491190
115387
696075
1.38161e+06
882922
386666
295913
716393
354803
320592
264162
180138
124944
282865
142994
325733
141079
247851
115217
119131
1.46333e+06
273900
1.17253e+06
636362
693981
372684
285292
691025
1.33023e+06
98665.3
119947
126300
115965
265617
25596.2
8488.42
264363
540808
109450
550772
241401
194599
123150
354967
490790
1.06773e+06
109838
96132.5
127687
139737
297396
188581
695823
616642
169066
116039
105145
1.47022e+06
542156
109349
221993
113566
1.70216e+06
1.32339e+06
222808
158217
540572
268415
371406
745173
614924
677544
1.53028e+06
1.20952e+06
120013
1.16156e+06
1.60586e+06
1.21687e+06
1.3375e+06
603261
136491
835849
189223
129170
150301
287785
297746
226341
220564
515889
173961
128880
106584
766419
870449
958503
1.05228e+06
1.14267e+06
485538
418564
348301
279275
178811
105602
370415
17331.6
183976
183097
9445.08
383458
192978
153329
85658.2
234851
269598
120339
267312
817432
544730
377560
272227
310992
1.42034e+06
1.10501e+06
141470
469626
118116
122988
372629
440456
490584
994175
264924
293324
121735
1.28317e+06
124212
218735
258909
240279
870199
957337
487880
585412
582676
369773
481394
948274
901703
888555
294764
401388
92195.7
108307
96300.6
189931
101191
429619
817445
727887
892896
647663
903753
646467
445734
330746
786177
574721
791372
576598
206480
915989
728628
636858
829993
735755
907869
657982
912195
656803
875897
1.69906e+06
335461
467031
1.03003e+06
394660
107506
123027
170950
16846.7
170127
14941.7
113921
288823
883314
803059
971437
422830
296039
1.47266e+06
65062.4
112008
209432
682338
201650
556351
269370
1.51786e+06
1.53155e+06
945301
114000
223373
993949
497932
400547
305174
502197
455528
549333
199272
268463
1.58377e+06
371810
1.39753e+06
112205
114408
117726
112977
86351.4
1.37537e+06
118418
984958
85631.1
714706
964965
113792
122324
149945
412234
159062
334553
304711
228251
248332
271999
129416
237879
319650
392806
269860
920313
840461
763828
1.02789e+06
1.3824e+06
1.52965e+06
103902
105392
110303
113554
192173
117337
203014
1.52081e+06
1.56259e+06
1.49656e+06
1.20941e+06
47488.4
861670
1.39163e+06
873813
681985
701122
863528
457043
434278
809255
502954
1.0031e+06
91362.3
182797
218138
424077
174571
169968
196933
141085
163451
120690
139976
288130
294782
321954
315900
346336
351837
413166
414052
117262
118563
365581
248388
100357
148100
626699
1.00793e+06
118287
569405
1.2362e+06
365915
1.16378e+06
506991
160201
1.14495e+06
548524
461392
728926
1.31099e+06
1.64533e+06
652643
250337
1.39563e+06
194008
149098
131229
327717
82602.7
595310
1.00996e+06
246575
386535
162515
119942
168628
1.4958e+06
247546
282847
273623
211473
607879
190567
156266
627194
137370
1.30775e+06
120756
770298
272359
294301
1.20228e+06
971924
577758
1.06997e+06
1.17616e+06
496119
1.28576e+06
418751
335589
966186
1.06255e+06
1.28111e+06
1.16845e+06
336738
499991
581018
420314
1.38728e+06
144822
1.08936e+06
124930
106155
114993
6240.32
47470.7
578760
68535.4
1.04891e+06
202520
161838
374423
407028
341054
327069
194307
857566
193044
204540
802967
92265.6
299107
274420
271918
849630
772625
934102
400813
385806
158414
261035
480510
1.04416e+06
70608.2
248587
156773
109318
346798
1.12878e+06
603255
529075
1.17478e+06
154185
623402
1.35564e+06
673066
1.23518e+06
125509
1.37478e+06
173240
930196
314009
387535
117164
10960.6
110371
109798
18803.6
177992
989034
136821
1.13475e+06
539093
186559
838199
804467
923455
886347
1.01519e+06
974800
457780
442550
318397
308814
350744
243103
812557
743619
675635
220156
262854
240086
132565
741261
640889
88957.1
141578
111854
128515
132970
1.38023e+06
1.1189e+06
278236
907800
825684
996124
111998
532951
924338
939795
123158
116364
1.1295e+06
377666
137070
190689
224685
207821
133499
366127
334206
307022
1.21343e+06
1.69575e+06
1.21634e+06
828324
392467
286671
136266
147980
207489
155138
120040
112984
156685
431526
340485
111460
1.04387e+06
1.18987e+06
444148
419731
134186
135141
123047
123869
335646
1.12468e+06
786784
598158
618761
737615
115053
114509
173943
110559
107588
202726
1.75887e+06
1.39046e+06
110954
140683
530555
458894
324401
1.01288e+06
1.10841e+06
836635
920420
606495
294160
248203
271806
142316
164080
1.27251e+06
313761
794568
75151.4
1.19488e+06
115270
423416
486837
1.75073e+06
111252
433285
126636
406078
128779
260966
822591
354960
902026
576839
994737
1.09423e+06
502164
1.19968e+06
425303
350535
429262
350976
171593
502678
569946
739162
110070
174602
979265
436670
1.58711e+06
1.31019e+06
1.46759e+06
273203
1.1175e+06
547332
395358
192023
150425
1.51137e+06
810097
105804
1.66986e+06
1.3667e+06
49658.1
447557
369272
63591.9
685721
511275
101169
129746
1.12651e+06
1.60252e+06
117518
513661
527530
1.11013e+06
1.07485e+06
377968
387659
380002
391816
115197
117259
117096
111471
83649.3
1.69051e+06
1.2658e+06
1.17696e+06
1.48165e+06
540936
276876
1.14274e+06
611962
673635
739932
74319.5
1.23442e+06
206717
910433
1.34128e+06
389182
263120
1.67543e+06
407608
428192
304238
322077
843035
816251
165027
165204
94878.3
113710
273577
989865
901948
818909
404228
1.68234e+06
118878
189976
99866
807690
889465
506576
977193
434830
1.07941e+06
370525
1.00127e+06
827079
910117
1.09644e+06
300479
524745
453702
375951
112718
145367
149874
180238
323434
268792
295312
1.33499e+06
574432
701181
1.26524e+06
157530
217202
113078
346760
472762
169305
226812
1.30774e+06
141139
111056
118233
120067
111843
81796.1
176508
127372
138059
1.07752e+06
1.28624e+06
124219
106897
129046
224278
470870
1.41908e+06
1.31611e+06
614009
122906
139064
1.09547e+06
119479
122344
1.72035e+06
637421
1.26918e+06
331295
849740
504554
516295
156115
643356
875017
406737
295744
131014
289747
113333
76854.6
102339
1.40137e+06
739946
751254
1.31186e+06
212227
228527
129018
421413
119069
115062
129277
252904
219657
22268.5
218630
15292.5
116802
849248
242351
343508
736309
670523
608765
135995
1.54587e+06
535387
280935
1.29043e+06
726122
761902
141071
13795.4
140370
14564.9
1.1644e+06
319993
455011
549846
503492
117693
1.31268e+06
276257
204951
627414
480497
111203
29803.9
940512
189517
954785
226142
293644
554997
597208
498533
122046
462043
192970
238505
130146
140027
443723
461308
156082
266482
109851
111056
722438
352238
262849
123243
413523
10676.2
39886.8
411592
462580
374760
549481
653379
95145.3
1.56822e+06
1.64594e+06
196391
117235
123895
170813
191021
19667.1
190129
17001.2
780806
261522
358568
1.53374e+06
1.55462e+06
1.27241e+06
1.20278e+06
643820
569656
543994
484851
1.30536e+06
182028
353828
138688
100349
112273
246828
339904
482781
1.44204e+06
1.46322e+06
183874
95133.7
460588
505240
179439
775772
309583
259384
1.21665e+06
128719
125615
158520
722821
722008
772787
489734
250640
345112
87881.2
84914.4
900960
103389
778086
100561
366720
593633
520477
916937
1.07191e+06
119835
141651
286171
1.26539e+06
6482.64
80662.1
23914.8
80757.4
206225
195917
85672
1.45889e+06
26098.8
1.38782e+06
361490
34862.4
11265.9
359798
219808
117408
13463.5
116907
279303
1.22717e+06
278549
1.44171e+06
1.61808e+06
48128.3
428070
516908
473195
629413
294332
217705
692219
470644
83011.6
172572
255980
190160
447851
600497
176287
176861
1.56043e+06
513533
594142
559888
644871
996122
112224
101982
833540
1.02836e+06
366508
182215
207924
119610
233404
313863
122499
174843
242210
119018
82922.1
907208
1.06863e+06
195484
416724
327486
337185
1.07446e+06
465978
208314
172320
421328
375781
101132
243860
1.03263e+06
1.28421e+06
319019
228192
555780
672270
612494
83423.3
110677
236574
177277
969688
352299
92204.2
44652.4
59480.3
313696
226789
537321
649464
592260
117482
1.41583e+06
1.60629e+06
128326
116410
109212
105316
1.39437e+06
260144
202930
574672
1.72899e+06
1.4054e+06
364041
146175
348188
317665
202159
186535
217311
128038
122263
120417
281204
1.382e+06
103332
683959
740897
1.2354e+06
883795
862226
322545
317463
426318
433282
225626
227812
203197
107332
112555
502814
170755
1.26771e+06
852507
210964
110558
564889
1.64082e+06
107835
785169
651827
613833
810954
595328
249417
335312
781519
149193
571433
243966
269365
149016
333408
175221
224170
617775
300187
143706
126419
159630
754763
620162
154891
146877
144476
160445
115739
406697
311458
111558
297277
121075
175256
274769
1.49631e+06
1.31829e+06
909895
242881
184284
542267
495144
450337
225613
232496
107618
814921
122831
408593
542081
174000
181161
1.34691e+06
85666.5
246548
228871
123339
1.4013e+06
82042.4
120841
358668
425087
145253
136130
154312
114735
117195
902306
103328
110979
13746.4
110472
898142
830143
1.56536e+06
992051
1.21872e+06
123443
1.26647e+06
835805
12437.3
90253.7
200959
162267
337284
368241
402124
537597
288718
1.22491e+06
680094
747226
133132
99195.8
95034.2
110574
124561
122483
173284
740890
90638
1.56329e+06
393268
151087
787630
494433
256664
352629
173724
149486
209681
325824
205231
432997
403886
158413
120950
516345
791366
84916
88523.2
155372
94204.7
104430
1.22341e+06
290679
222725
650383
1.16257e+06
321449
216125
518483
449997
491317
409126
242701
182153
117028
7315.99
57883.2
499645
413071
581255
1.25232e+06
1.0378e+06
1.1419e+06
412636
496077
1.26197e+06
1.14923e+06
579058
1.04498e+06
157991
279358
232355
244875
111178
167522
145511
424670
200730
165199
186376
325814
927434
440887
118065
167172
107647
120229
180262
272384
114085
109499
102630
685039
246389
321363
224211
287026
600423
509593
596996
479246
858072
252554
152233
226285
518315
389705
193245
256610
361960
118231
227370
137528
135948
419094
418954
160061
539116
170283
177024
990749
829518
108412
127683
1.34985e+06
96137.9
152095
96934.3
167345
204104
650896
591480
534657
350587
352244
657099
158257
120059
114967
903342
170451
158401
168113
158554
146615
150438
92085.3
136470
1.06133e+06
1.05393e+06
311527
246677
121496
708488
606797
250088
342340
486069
115347
82172
119988
1.36362e+06
488279
585503
62017.1
417976
167704
69968.9
160686
175530
160047
408021
116677
252817
198755
122435
1.66948e+06
267039
780883
219815
1.28006e+06
526854
617811
323880
239404
757091
96894.3
122186
140129
286670
351600
242394
164816
97489.5
73692.6
596504
251539
193180
100220
105349
109867
112144
263031
218204
241732
61331.5
125322
1.20503e+06
116231
1.66464e+06
357126
154447
616268
131862
100980
455817
164646
160080
744545
107912
485310
1.00448e+06
913287
1.09818e+06
97165.5
167246
322872
988910
935990
256955
117003
275248
278750
396538
461588
867633
395926
451472
957558
857078
931216
717129
789333
708204
779489
1.18862e+06
254681
191623
1.3867e+06
104447
136809
491931
1.16089e+06
359791
199221
159515
105772
96368.2
122866
136965
102838
917133
227007
293092
538745
119202
643717
149315
236948
249763
377844
141455
121012
159355
122429
110347
162562
152070
142635
1.37407e+06
136483
112521
278651
352172
82859.9
189995
193524
1.05222e+06
205967
143027
126281
133767
139660
1.36053e+06
233686
213357
518279
231648
184283
1.31877e+06
1.02058e+06
1.0864e+06
343673
125689
1.16675e+06
348946
396312
171211
682403
546094
777582
629858
856338
437987
1.14125e+06
742876
977106
755980
514055
410235
107689
122136
1.20356e+06
102157
115009
112985
115533
112253
100568
711467
742752
159253
336124
32565.3
4476.6
334544
146557
97934.4
1.19715e+06
408517
556585
213454
179843
202175
148007
163448
294919
338321
115007
158927
451523
316068
230151
436177
677699
573799
100108
674588
566495
1.64164e+06
1.00333e+06
604099
1.10487e+06
1.21498e+06
520178
1.32813e+06
439431
354328
998096
1.09764e+06
1.20741e+06
1.32405e+06
522745
354014
606354
441418
114093
597753
89402.7
748430
744945
1.65814e+06
138192
299786
893883
127553
563088
92665.7
103364
854758
119484
194210
482948