/*--------------------------------*- C++ -*----------------------------------*\
| =========                 |                                                 |
| \\      /  F ield         | OpenFOAM: The Open Source CFD Toolbox           |
|  \\    /   O peration     | Version:  2.3.1                                 |
|   \\  /    A nd           | Web:      www.OpenFOAM.org                      |
|    \\/     M anipulation  |                                                 |
\*---------------------------------------------------------------------------*/
FoamFile
{
    version     2.0;
    format      ascii;
    class       volScalarField;
    location    "0.7";
    object      k;
}
// * * * * * * * * * * * * * * * * * * * * * * * * * * * * * * * * * * * * * //

dimensions      [0 2 -2 0 0 0 0];

internalField   nonuniform List<scalar> 
9648
(
2.69595
2.68783
2.68558
2.68011
2.67137
2.65871
2.64243
2.62238
2.59837
2.57031
2.53823
2.50236
2.46315
2.4212
2.37721
2.33194
2.28618
2.24065
2.19599
2.15273
2.1113
2.07203
2.03514
2.00076
1.96897
1.93977
1.91315
1.88905
1.86739
1.84807
1.83101
1.81609
1.80323
1.79232
1.78326
1.77598
1.7704
1.76642
1.76399
1.76304
1.76353
1.76541
1.76865
1.77321
1.77908
1.78625
1.79475
1.80459
1.81581
1.82843
1.84251
1.85808
1.8752
1.89385
1.91403
1.93558
1.95818
1.98131
2.00451
2.02739
2.04963
1.75171
1.73995
1.72767
1.71589
1.70727
1.70402
1.70832
1.72115
1.74232
1.77182
1.8093
1.85406
1.9051
1.96136
2.02175
2.08524
2.15088
2.21785
2.28544
2.35312
2.42042
2.48701
2.55266
2.6172
2.68052
2.74263
2.80355
2.8633
2.92193
2.97952
3.03619
3.09199
3.14701
3.20138
3.25514
3.30834
3.36111
3.41353
3.46559
3.51727
3.56865
3.61984
3.67079
3.72149
3.77203
3.82226
3.87221
3.92198
3.97162
4.02097
4.06992
4.1184
4.16648
4.21377
4.26055
4.30654
4.35194
4.39605
4.43914
4.48124
4.52241
1.46452
1.50182
1.54002
1.58323
1.63436
1.69455
1.76377
1.84203
1.92873
2.0233
2.12444
2.2311
2.34202
2.45588
2.57146
2.68757
2.80326
2.9176
3.0299
3.13958
3.24621
3.34953
3.44931
3.54551
3.63816
3.72734
3.81324
3.89594
3.97567
4.05261
4.12694
4.1989
4.2687
4.33645
4.40234
4.46656
4.52921
4.59045
4.65036
4.70904
4.76658
4.82303
4.87853
4.93311
4.98676
5.03947
5.09121
5.14205
5.19185
5.24064
5.2884
5.33515
5.3811
5.42556
5.46947
5.5118
5.55331
5.59291
5.63183
5.66963
5.70639
1.39986
1.4853
1.5738
1.66805
1.76983
1.88008
1.99902
2.12621
2.2607
2.40136
2.5466
2.69499
2.84495
2.99517
3.14426
3.29105
3.4346
3.57409
3.70894
3.83871
3.96312
4.08193
4.19515
4.30288
4.40534
4.50276
4.59544
4.68366
4.76774
4.84795
4.92469
4.99824
5.0689
5.13697
5.20262
5.26614
5.32769
5.38748
5.44564
5.50232
5.55766
5.61179
5.6648
5.7168
5.76781
5.81786
5.86699
5.91521
5.96246
6.00875
6.05418
6.09842
6.14168
6.18378
6.22523
6.26546
6.30453
6.34242
6.37921
6.41492
6.44936
1.44253
1.57014
1.7029
1.84164
1.98727
2.14056
2.30148
2.46927
2.64281
2.82049
3.00057
3.18121
3.36092
3.53825
3.71186
3.88047
4.0432
4.19946
4.34874
4.49085
4.62558
4.75285
4.8728
4.98563
5.09179
5.19173
5.28583
5.37453
5.45818
5.53722
5.61208
5.68317
5.75093
5.81565
5.87758
5.93707
5.99437
6.04962
6.10304
6.1548
6.20504
6.25394
6.30168
6.34835
6.39398
6.43864
6.48234
6.5251
6.56701
6.60784
6.64777
6.68665
6.72435
6.76092
6.79652
6.83122
6.86475
6.89718
6.92842
6.95835
6.98701
1.53331
1.69873
1.87142
2.05066
2.23617
2.4282
2.6264
2.82984
3.03701
3.24596
3.45481
3.66144
3.86449
4.06239
4.25423
4.43848
4.61424
4.78132
4.93915
5.08792
5.22761
5.358
5.47962
5.59255
5.69763
5.79548
5.88661
5.97168
6.0509
6.12486
6.19419
6.25919
6.32058
6.37872
6.43374
6.48611
6.53626
6.5842
6.63024
6.67452
6.71712
6.75836
6.79844
6.83752
6.87556
6.91269
6.94904
6.98435
7.01888
7.05248
7.08506
7.11661
7.14709
7.17633
7.20457
7.23177
7.25802
7.28323
7.30712
7.32947
7.35065
1.65265
1.85273
2.06238
2.27903
2.50099
2.72813
2.95963
3.19436
3.43078
3.66605
3.89876
4.12605
4.34701
4.55999
4.76516
4.95998
5.1438
5.31696
5.4785
5.62935
5.76973
5.89893
6.01827
6.12714
6.22711
6.31915
6.40365
6.48185
6.55337
6.61908
6.67992
6.73578
6.78795
6.83682
6.88215
6.9247
6.96532
7.00346
7.03983
7.07447
7.1072
7.13859
7.16891
7.19842
7.22674
7.25422
7.28103
7.30697
7.33228
7.35664
7.38006
7.4024
7.42371
7.44368
7.46238
7.48033
7.49747
7.51362
7.52823
7.54114
7.55287
1.7894
2.02112
2.26491
2.516
2.77117
3.02942
3.29032
3.55266
3.81426
4.07176
4.32419
4.56738
4.80148
5.02415
5.23836
5.43954
5.62733
5.80305
5.9641
6.11276
6.25021
6.37421
6.48843
6.5895
6.68054
6.76322
6.83756
6.90605
6.9668
7.02129
7.07116
7.11493
7.15504
7.19199
7.22494
7.25504
7.28346
7.30884
7.33306
7.3558
7.37626
7.39523
7.41334
7.43087
7.44702
7.46268
7.47738
7.49148
7.50502
7.51788
7.52972
7.54052
7.55057
7.55887
7.5659
7.5724
7.57775
7.58314
7.58646
7.58749
7.58792
1.93533
2.19321
2.46817
2.74783
3.03431
3.31867
3.60368
3.89183
4.17262
4.45004
4.71725
4.97504
5.21745
5.44541
5.66314
5.86736
6.05605
6.23112
6.39257
6.53581
6.66542
6.78165
6.88669
6.98054
7.05953
7.1286
7.19042
7.24643
7.29313
7.33405
7.37057
7.40126
7.42709
7.44883
7.46614
7.48206
7.49374
7.50323
7.51286
7.52018
7.52544
7.52802
7.53234
7.53511
7.53636
7.5388
7.53744
7.53709
7.53455
7.53196
7.52757
7.52303
7.51899
7.51306
7.50603
7.49883
7.48839
7.48233
7.47168
7.45746
7.44459
2.07096
2.09128
2.11072
2.12928
2.147
2.16405
2.18066
2.1972
2.21347
2.22884
2.24301
2.25662
2.26977
2.28269
2.29566
2.3093
2.324
2.34005
2.35781
2.3777
2.39941
2.42249
2.44665
2.4715
2.49672
2.52235
2.54852
2.57491
2.60149
2.6283
2.65545
2.68283
2.71046
2.73848
2.76683
2.79549
2.82456
2.8541
2.88409
2.91443
2.94524
2.97661
3.00851
3.0409
3.0739
3.10733
3.14121
3.17568
3.21076
3.24634
3.28246
3.3192
3.35667
3.39463
3.43343
3.47298
3.5136
3.55498
3.59749
3.64125
3.68636
4.56271
4.60097
4.63832
4.67488
4.71037
4.74438
4.77645
4.80724
4.8358
4.8636
4.88968
4.91475
4.93873
4.96168
4.98348
5.004
5.02338
5.04157
5.05861
5.07447
5.0892
5.10285
5.11527
5.12653
5.13666
5.14561
5.15323
5.15929
5.16389
5.167
5.16862
5.16879
5.16757
5.16492
5.16089
5.15554
5.14885
5.14089
5.13165
5.12114
5.10942
5.09653
5.08256
5.06745
5.05118
5.03369
5.01486
4.99476
4.97329
4.9505
4.92634
4.90072
4.87381
4.84513
4.81543
4.78407
4.75172
4.71788
4.68363
4.64884
4.61365
5.74151
5.77555
5.80805
5.83963
5.87018
5.90012
5.92814
5.95479
5.97927
6.00245
6.02403
6.04437
6.06333
6.08123
6.09783
6.11308
6.12698
6.13954
6.15072
6.16052
6.16901
6.17616
6.18196
6.18644
6.18957
6.19133
6.19175
6.19079
6.1884
6.18452
6.17919
6.17235
6.164
6.15421
6.14295
6.13028
6.11615
6.10061
6.08364
6.06528
6.04562
6.02473
6.00267
5.97948
5.95511
5.92951
5.90253
5.87411
5.8442
5.81279
5.77984
5.74511
5.70868
5.6704
5.63048
5.58859
5.54499
5.49993
5.45389
5.40695
5.35927
6.48279
6.51491
6.54576
6.57506
6.60316
6.63007
6.65553
6.67921
6.70132
6.7218
6.74069
6.758
6.77377
6.78805
6.80074
6.812
6.82177
6.83002
6.83672
6.84187
6.84553
6.84777
6.8486
6.84805
6.84605
6.84257
6.83759
6.83116
6.82329
6.81394
6.80307
6.7906
6.77655
6.76093
6.74381
6.72518
6.705
6.68323
6.65988
6.635
6.60872
6.58114
6.55244
6.52272
6.49202
6.46027
6.42726
6.39294
6.35724
6.32015
6.28154
6.24124
6.19924
6.15541
6.10969
6.06188
6.01217
5.96088
5.90849
5.85506
5.801
7.01437
7.04053
7.06525
7.08838
7.10982
7.12967
7.14796
7.1647
7.18008
7.19408
7.20655
7.21751
7.227
7.23489
7.24127
7.24622
7.24958
7.25137
7.25149
7.24996
7.24688
7.2424
7.23659
7.2295
7.22104
7.21114
7.19984
7.18716
7.1732
7.15797
7.14141
7.12332
7.1037
7.08256
7.06003
7.03604
7.0105
6.98336
6.9545
6.924
6.892
6.85865
6.82423
6.789
6.75308
6.71651
6.6789
6.64027
6.6005
6.55975
6.51764
6.47393
6.42872
6.38172
6.33282
6.28152
6.2283
6.17328
6.11719
6.05997
6.0022
7.37049
7.38899
7.40592
7.42138
7.43511
7.44712
7.45756
7.46625
7.47338
7.47899
7.48324
7.4861
7.48749
7.48732
7.48561
7.48253
7.47802
7.47188
7.46394
7.45416
7.44275
7.42996
7.41596
7.40089
7.38455
7.36682
7.34774
7.32737
7.30602
7.28378
7.26067
7.23623
7.21051
7.1834
7.1552
7.12572
7.0947
7.06215
7.02782
6.99174
6.95403
6.91476
6.87439
6.83339
6.79207
6.75074
6.70858
6.66599
6.62259
6.57897
6.5343
6.48807
6.44076
6.39177
6.34114
6.28768
6.23232
6.17485
6.11677
6.05735
5.99746
7.56336
7.57254
7.58017
7.5862
7.59051
7.59306
7.59383
7.59314
7.59083
7.58671
7.58126
7.57468
7.56671
7.55719
7.54601
7.53374
7.52045
7.50553
7.48866
7.46954
7.4486
7.42635
7.40296
7.37885
7.35372
7.32712
7.29916
7.26973
7.23962
7.2092
7.17891
7.14757
7.11561
7.08245
7.04893
7.01447
6.97825
6.94061
6.90129
6.86024
6.81738
6.77249
6.72625
6.67938
6.63242
6.58651
6.53959
6.49326
6.44634
6.40077
6.3548
6.30689
6.25855
6.20866
6.15782
6.10308
6.04697
5.98808
5.9298
5.86968
5.8095
7.58695
7.58503
7.58145
7.57669
7.57021
7.5623
7.5523
7.54182
7.52992
7.51543
7.49964
7.48339
7.46568
7.44656
7.42501
7.40264
7.38059
7.35727
7.33204
7.30351
7.27232
7.24033
7.20706
7.1732
7.13921
7.1037
7.06676
7.02714
6.98653
6.94626
6.90828
6.86943
6.83146
6.79264
6.75516
6.71773
6.67729
6.63469
6.59116
6.54695
6.50047
6.45109
6.39985
6.34753
6.29488
6.24518
6.19314
6.14335
6.09265
6.0464
6.00105
5.9524
5.90417
5.8546
5.80543
5.75015
5.69475
5.63519
5.57883
5.51977
5.46172
7.42874
7.41336
7.39493
7.3773
7.35697
7.33884
7.31662
7.29678
7.27681
7.25427
7.22982
7.20566
7.17935
7.15303
7.12117
7.08682
7.05586
7.02614
6.99699
6.96304
6.92071
6.88083
6.83932
6.79519
6.75228
6.70908
6.66702
6.61908
6.56528
6.5127
6.46625
6.41841
6.37405
6.32964
6.29185
6.25631
6.21488
6.16684
6.11933
6.07478
6.02894
5.97762
5.92246
5.86665
5.80938
5.75778
5.69967
5.6466
5.59071
5.54627
5.50425
5.45532
5.40888
5.36195
5.31707
5.26173
5.20852
5.14842
5.09608
5.04021
4.98753
3.73281
3.78025
3.82893
3.87887
3.93009
3.98272
4.03668
4.09211
4.14874
4.20651
4.26556
4.32551
4.38634
4.45037
4.53009
4.60227
4.67362
4.74575
4.81868
4.89256
4.96742
5.04328
5.12001
5.19758
5.27577
5.35434
5.43319
5.51211
5.59092
5.66928
5.7471
5.82406
5.89976
5.97399
6.04638
6.11639
6.18355
6.24712
6.30276
6.34346
6.37112
6.38641
6.38926
6.37898
6.35451
6.31442
6.2568
6.1793
6.07917
5.95321
5.79761
5.60788
5.37895
5.10444
4.75519
4.21819
3.97024
3.84377
3.79351
3.76873
3.71594
4.57779
4.54156
4.50451
4.46676
4.42829
4.3898
4.35104
4.31276
4.27445
4.23649
4.19957
4.15717
4.1113
4.06801
4.01936
3.97268
3.92586
3.87895
3.83241
3.78651
3.74125
3.69634
3.65169
3.60726
3.56296
3.51884
3.47489
3.43122
3.38785
3.34486
3.30237
3.2605
3.21938
3.17924
3.14033
3.10296
3.06754
3.03466
3.00497
2.98
2.95724
2.93687
2.91925
2.90499
2.895
2.89022
2.89168
2.90072
2.91882
2.94724
2.98724
3.03995
3.10669
3.18908
3.27873
3.41413
3.59216
3.86551
4.25237
4.75056
5.0643
5.31104
5.26228
5.21269
5.16198
5.11008
5.05752
5.00459
4.95176
4.89861
4.84507
4.78815
4.72312
4.6586
4.59724
4.53596
4.47542
4.41411
4.35206
4.28966
4.22733
4.1651
4.10271
4.04011
3.9773
3.91417
3.85075
3.78701
3.72298
3.65858
3.59384
3.52873
3.46329
3.39754
3.33154
3.26537
3.19911
3.13289
3.06682
3.00106
2.93583
2.87108
2.80646
2.74252
2.68008
2.61948
2.56129
2.5064
2.45606
2.41192
2.37617
2.35164
2.34193
2.35181
2.38661
2.44967
2.552
2.69821
2.91902
3.25937
3.77015
4.38421
5.74648
5.69186
5.63654
5.58015
5.52227
5.46368
5.40471
5.346
5.28693
5.22689
5.16004
5.0872
5.01671
4.94952
4.88344
4.81815
4.75244
4.68646
4.62033
4.55438
4.4885
4.42221
4.35568
4.28896
4.22191
4.1546
4.08699
4.01907
3.95074
3.88197
3.81272
3.74304
3.67295
3.60252
3.5318
3.46087
3.38979
3.31864
3.24741
3.17612
3.10474
3.03321
2.96087
2.88766
2.81424
2.74071
2.66734
2.59455
2.52304
2.45391
2.3886
2.3293
2.27896
2.24133
2.22025
2.22197
2.25496
2.33707
2.49801
2.78116
3.21159
5.94391
5.88594
5.8275
5.7681
5.70671
5.64455
5.58191
5.51988
5.45735
5.39356
5.32155
5.24581
5.17307
5.1037
5.03541
4.96793
4.90022
4.83305
4.76622
4.69993
4.63376
4.5669
4.49986
4.43274
4.36528
4.29765
4.22971
4.16149
4.09276
4.02355
3.9538
3.88366
3.81316
3.74246
3.67161
3.60072
3.52989
3.45918
3.38857
3.31811
3.24778
3.1776
3.10745
3.03677
2.96535
2.89332
2.82077
2.74774
2.67442
2.60113
2.52828
2.45649
2.38671
2.32018
2.2585
2.20472
2.165
2.15022
2.1773
2.27163
2.46299
5.93666
5.87694
5.81705
5.75647
5.69292
5.62858
5.56337
5.49949
5.43519
5.37002
5.29597
5.22015
5.14753
5.0787
5.01033
4.94273
4.87481
4.8085
4.743
4.67857
4.61432
4.54881
4.48345
4.41838
4.35285
4.28732
4.22135
4.15517
4.08823
4.02075
3.95265
3.88432
3.81576
3.74727
3.67883
3.61065
3.54279
3.47535
3.40833
3.34179
3.27574
3.21025
3.14531
3.08079
3.01622
2.95111
2.88548
2.8194
2.75293
2.68615
2.61916
2.55201
2.48467
2.41715
2.34929
2.28176
2.21705
2.16057
2.1213
2.11287
2.15417
5.74705
5.68697
5.62709
5.5674
5.50272
5.43749
5.37056
5.30645
5.24211
5.17818
5.10399
5.0301
4.95922
4.89336
4.82669
4.76112
4.69443
4.63091
4.56847
4.50761
4.44695
4.3839
4.32194
4.26113
4.19944
4.13794
4.07558
4.01323
3.94955
3.88537
3.82034
3.75558
3.69079
3.62659
3.56258
3.49926
3.43645
3.37451
3.31329
3.25306
3.19368
3.13538
3.0781
3.02179
2.96625
2.91108
2.85551
2.79957
2.7434
2.68716
2.63089
2.57457
2.51803
2.46081
2.40227
2.34183
2.27962
2.21741
2.15901
2.11095
2.08326
5.3983
5.33883
5.28054
5.22435
5.15979
5.09529
5.02739
4.96503
4.90263
4.84275
4.76972
4.69911
4.63093
4.57026
4.50646
4.44492
4.38046
4.32152
4.26352
4.20726
4.15125
4.09091
4.03355
3.97952
3.92313
3.8668
3.8087
3.75152
3.6916
3.63148
3.57006
3.51034
3.45062
3.39255
3.33444
3.27765
3.22118
3.16633
3.11254
3.06058
3.0097
2.96059
2.913
2.86664
2.82142
2.7774
2.73334
2.6889
2.64454
2.6005
2.55708
2.51422
2.47176
2.42917
2.38571
2.34045
2.29263
2.24211
2.18984
2.13816
2.09152
4.92404
4.86483
4.81019
4.76041
4.69751
4.63521
4.56679
4.50887
4.4509
4.3977
4.32694
4.26019
4.19466
4.14133
4.08068
4.02526
3.9634
3.91096
3.85839
3.8063
3.75508
3.69663
3.64501
3.60184
3.55119
3.49893
3.44448
3.39363
3.33642
3.28006
3.22133
3.16861
3.11457
3.06442
3.01256
2.96328
2.91256
2.86566
2.82034
2.77829
2.7372
2.69846
2.66174
2.62629
2.59103
2.55659
2.52272
2.4883
2.45555
2.42342
2.39425
2.36629
2.34016
2.31435
2.28863
2.26164
2.23273
2.20096
2.16631
2.1284
2.08882
3.62348
3.52048
3.40869
3.2895
3.16834
3.04837
2.93229
2.82366
2.72563
2.64028
2.56855
2.51046
2.46511
2.43106
2.40651
2.38963
2.37869
2.37237
2.3696
2.36949
2.37141
2.37493
2.37974
2.3857
2.3927
2.40063
2.4095
2.41925
2.42988
2.44136
2.45361
2.46657
2.48016
2.49423
2.50861
2.52314
2.53758
2.5517
2.56528
2.57807
2.58984
2.60034
2.60946
2.61711
2.62328
2.62812
2.63183
2.63469
2.63705
2.63937
2.64202
2.64526
2.64928
2.65421
2.65987
2.66607
2.67241
2.6787
2.68447
2.68925
2.69277
5.05596
4.98331
4.86208
4.69109
4.50101
4.29345
4.0662
3.82618
3.58164
3.34051
3.10908
2.89386
2.69872
2.52506
2.37363
2.2459
2.14133
2.05703
1.98992
1.93728
1.89656
1.86543
1.84195
1.82461
1.81258
1.80457
1.80038
1.7995
1.80165
1.80657
1.81408
1.82393
1.83587
1.84959
1.86477
1.88106
1.89797
1.91507
1.9318
1.94757
1.96166
1.97324
1.98142
1.98528
1.98404
1.97705
1.96394
1.94491
1.92076
1.893
1.86367
1.83516
1.80989
1.78971
1.77549
1.76739
1.76419
1.76409
1.76432
1.76252
1.75793
4.88434
5.2393
5.43441
5.44287
5.3117
5.11775
4.86197
4.56808
4.25271
3.92759
3.60475
3.29564
3.00785
2.74661
2.51527
2.31542
2.14559
2.00165
1.88135
1.78382
1.70665
1.6469
1.60145
1.5674
1.54224
1.52428
1.51204
1.50463
1.50128
1.50138
1.50448
1.51012
1.51783
1.52708
1.53736
1.54817
1.559
1.56932
1.57856
1.5861
1.59134
1.5937
1.59261
1.58746
1.57776
1.56306
1.54305
1.51767
1.48727
1.4527
1.41564
1.3787
1.34522
1.31875
1.30226
1.29802
1.30637
1.3261
1.35448
1.38857
1.42589
3.7483
4.33825
4.90164
5.33341
5.55303
5.59536
5.4745
5.22774
4.9147
4.55554
4.17764
3.8047
3.44912
3.12207
2.82873
2.5693
2.34111
2.14295
1.9737
1.83267
1.71808
1.62771
1.55831
1.50614
1.46751
1.43969
1.42045
1.40821
1.40165
1.39972
1.40167
1.40687
1.4146
1.42409
1.43463
1.44551
1.45602
1.46548
1.47314
1.47827
1.48011
1.478
1.47131
1.4595
1.44214
1.41903
1.39015
1.35573
1.3162
1.2724
1.2257
1.17844
1.13407
1.09718
1.07312
1.06723
1.08217
1.11779
1.17143
1.2392
1.31665
2.77104
3.20514
3.75002
4.34553
4.89215
5.31137
5.55216
5.58934
5.45898
5.18906
4.82939
4.43824
4.03566
3.6478
3.28977
2.96458
2.67395
2.41621
2.19284
2.00385
1.84756
1.72238
1.62507
1.55109
1.49568
1.455
1.42613
1.40689
1.39543
1.39017
1.39011
1.39442
1.40221
1.41251
1.42441
1.43705
1.44955
1.46108
1.47075
1.47768
1.48094
1.47977
1.47338
1.46113
1.44246
1.41711
1.38504
1.34649
1.30182
1.25181
1.19767
1.14151
1.08655
1.03764
1.00188
0.987419
1.00009
1.04306
1.1148
1.20976
1.32099
2.2671
2.47529
2.79773
3.23732
3.76531
4.3254
4.84094
5.22988
5.44422
5.47138
5.32559
5.05085
4.68058
4.27262
3.8704
3.48347
3.12893
2.80801
2.51936
2.26935
2.06054
1.8922
1.76064
1.65984
1.58341
1.52608
1.48425
1.45517
1.43642
1.42577
1.42187
1.42375
1.43037
1.44053
1.45313
1.46714
1.48156
1.4954
1.50768
1.51735
1.52337
1.52489
1.521
1.51096
1.49401
1.46984
1.43828
1.39954
1.3538
1.30176
1.24445
1.18381
1.12282
1.06606
1.02079
0.996494
1.00201
1.04452
1.12543
1.23954
1.37831
2.08983
2.14857
2.28018
2.50446
2.8326
3.26016
3.75852
4.27289
4.73484
5.07867
5.25889
5.26566
5.11726
4.8466
4.49862
4.09876
3.70211
3.32329
2.96045
2.63609
2.3591
2.13379
1.95738
1.82113
1.7166
1.63663
1.5768
1.53382
1.5046
1.48585
1.47577
1.47315
1.47681
1.48527
1.49723
1.51148
1.52685
1.54222
1.55646
1.56843
1.57696
1.58117
1.58002
1.57277
1.55839
1.53659
1.50703
1.46998
1.42542
1.37405
1.31675
1.25542
1.19284
1.13314
1.08308
1.05241
1.05171
1.0915
1.17715
1.30564
1.46772
2.05699
2.04489
2.06908
2.14645
2.29466
2.52819
2.85274
3.25754
3.71324
4.17019
4.5685
4.85613
5.00437
5.00229
4.86515
4.61634
4.29282
3.92226
3.50759
3.11099
2.75192
2.45406
2.22068
2.03905
1.89777
1.78739
1.70256
1.63982
1.59594
1.56568
1.5466
1.53698
1.53557
1.54052
1.55027
1.56337
1.57845
1.59425
1.60947
1.62283
1.63312
1.63945
1.64071
1.63617
1.6245
1.60545
1.57856
1.54408
1.50189
1.45267
1.39726
1.33748
1.2759
1.21636
1.16536
1.13209
1.12787
1.16586
1.25499
1.39524
1.57755
2.05033
2.01764
1.9986
2.00345
2.04536
2.13907
2.29868
2.53351
2.84304
3.21484
3.61423
4.00469
4.34286
4.59342
4.72636
4.7329
4.6153
4.38022
4.06324
3.66431
3.23189
2.86088
2.56615
2.3313
2.14093
1.98846
1.86835
1.7787
1.71457
1.66794
1.63625
1.61635
1.60707
1.60636
1.61201
1.62235
1.63578
1.65078
1.66586
1.6794
1.69063
1.69821
1.70136
1.69911
1.69017
1.67388
1.65024
1.61862
1.57961
1.53327
1.48106
1.42429
1.36557
1.30879
1.2595
1.22635
1.22135
1.2594
1.35148
1.50137
1.69958
0.287581
6.48752
6.1706
0.226502
0.349642
0.126539
0.00316219
2.46936
0.00337875
0.0233639
3.32573
1.09764
0.00316395
6.11217
0.110903
5.44514
0.00326115
2.58707
3.62495
0.00315783
0.228029
5.95865
6.31267
0.00330014
0.00333286
0.106184
0.0031601
0.507371
0.00324745
0.0034609
0.712859
0.00324505
0.0163145
2.54415
0.798438
3.39727
2.53468
1.61805
0.00316535
2.58131
1.8699
1.98277
0.00320898
4.71442
3.23085
0.281708
0.00360951
0.0151992
0.136967
1.12269
6.52496
7.65583
0.00310701
0.00405337
0.0375482
0.00891992
0.00345161
0.672074
2.41104
7.33362
2.46366
0.00369647
0.151048
0.0318942
6.39985
0.436959
1.98171
1.75872
0.00432509
0.00321285
1.20564
2.61981
1.69799
0.014649
0.0394644
4.02839
6.74727
3.35223
0.00310791
0.952918
0.00711034
2.59516
0.0108059
4.88266
0.00321771
1.10134
0.00336196
2.19509
0.0149676
0.00491667
0.119751
0.00310343
0.00378428
7.50358
5.41623
0.0035957
0.44062
0.301649
0.00604863
6.5615
0.204549
2.44826
0.756031
0.00309925
0.00316499
0.00309625
0.308014
0.124826
0.00324172
6.06258
6.75647
0.00938806
4.6134
1.49643
2.57744
2.72296
1.78711
0.00390962
0.085547
0.00418091
0.00437598
3.4775
0.00725368
7.33492
7.58145
1.00622
0.00321407
1.04915
1.05382
0.00320976
0.0341247
0.0334481
1.68874
0.00566013
3.05119
0.00321941
0.00316029
7.56945
7.69899
0.00322909
0.164454
5.5754
0.105358
0.303343
1.55506
4.77763
0.0391929
1.6463
0.0120972
7.01963
1.22501
0.00925015
2.87122
4.82215
6.24502
0.00330639
0.00326747
0.217391
0.00311288
1.95154
0.0310365
0.00511332
0.0031987
0.00321875
0.00323666
2.90467
1.78058
1.55333
0.00332067
6.76236
4.72159
3.16191
4.90765
0.0139845
3.79377
1.69683
1.89702
0.0032402
0.00568458
2.87493
3.07139
2.02865
3.66724
0.00321465
0.00352327
4.94224
0.0360492
0.571507
0.00323727
0.00360602
0.105065
0.00339342
7.64271
0.694584
0.00310133
0.256669
1.78496
5.30604
0.00449479
1.92865
0.00321709
0.00323262
5.01388
2.42888
7.21288
0.00453894
0.00339459
0.00769053
2.7326
2.20609
1.11445
4.91054
1.54218
6.88226
0.187351
4.38496
4.0855
1.91963
1.39368
2.29897
0.00487942
0.0369952
0.00322442
0.00319924
1.82442
0.0181845
0.0201776
0.00570285
0.013127
2.83067
4.75998
0.0188891
5.84425
1.10191
0.38632
0.00318317
0.159428
2.83913
1.05655
0.00414363
1.20327
1.15986
0.177532
0.265245
7.23431
0.787432
0.477093
5.17801
0.00384144
0.00316124
0.00403448
0.0105056
1.75229
0.00336178
0.0064832
0.00316488
0.391696
4.08983
3.95649
2.74022
1.27175
1.46867
7.53094
0.00434621
2.07943
4.48573
0.00320935
2.06187
0.00321714
4.01587
0.389746
1.60016
0.00533804
0.00321947
1.94101
0.500776
0.00323891
0.00323593
0.00325038
0.00324597
0.361389
1.59226
3.04527
0.0148739
0.00324057
0.00316427
0.00309759
4.80443
0.223627
0.00446902
1.65041
0.0878304
0.0414701
0.00309077
0.266484
0.00323971
0.0509856
1.44107
4.67859
0.307086
0.00391341
0.00596561
3.33768
0.140256
1.92281
7.49117
0.00350243
0.00319724
0.00318714
5.84735
0.00331098
4.83395
0.00322108
1.85776
1.21165
0.0270964
3.01363
3.92372
0.00467816
2.72418
2.68878
1.62298
4.67949
1.05728
7.70009
2.44291
3.95829
3.60422
4.52815
1.68891
0.158577
7.62274
7.28322
3.00751
2.11816
0.00395646
6.93392
2.82929
6.86193
0.0275472
0.00358624
0.00321395
0.00342348
0.174047
0.424198
0.717652
0.0923696
0.00317488
5.988
0.00321471
1.44601
1.95165
6.37996
2.64388
1.87929
0.00595911
0.00425776
0.0902126
2.87249
0.0103374
0.729651
5.2302
2.0562
4.23654
6.189
3.28216
0.00346314
7.30176
5.39304
1.72062
0.00323425
6.27618
5.62995
0.00333246
1.96472
0.00323796
6.70117
5.76034
1.86662
4.24434
2.60346
5.63303
0.00329263
5.64155
0.0038635
3.61752
4.09413
1.90989
7.27987
0.731072
0.213645
0.557835
0.00424198
4.2758
0.147824
0.00815095
0.00508884
4.4761
0.00383099
4.45457
0.00319228
0.00323525
0.00600638
1.81418
0.105084
1.85763
0.00570509
4.29281
0.163642
6.59967
4.33283
2.66799
6.18423
0.0033856
7.29302
2.97895
0.00321107
4.02226
2.0783
0.00310177
0.00316811
3.36997
0.00649121
1.93799
0.0894454
2.42286
0.0268104
0.612989
2.65883
5.02339
2.43953
4.02899
3.67822
0.00395488
0.0220753
1.69007
1.64146
7.50695
6.42603
5.30925
0.0654988
5.07537
5.04844
0.502381
1.70409
2.84456
2.09126
0.00347847
4.22427
7.70894
0.00416302
4.38884
1.93112
2.86711
0.0241956
0.0678081
6.24893
0.00596537
7.49951
0.00462006
0.254459
0.00320409
1.01468
2.28166
0.230823
0.00480052
0.0037044
2.76292
1.60261
0.0820397
0.413538
5.88784
4.08358
0.0045062
1.48144
1.64668
3.26597
1.49593
4.18058
1.95555
5.56557
3.32412
0.496171
0.982379
7.4106
1.90319
7.58234
6.06817
0.0326316
3.45335
2.86883
0.00337917
1.78113
1.59014
1.33512
0.0173862
4.83532
1.43621
0.707565
1.9067
0.00545747
0.00321489
0.0427654
2.27699
4.56928
2.59028
0.00322107
0.00318964
0.00321526
1.71388
0.0277733
0.00321524
0.124577
4.61438
4.97346
0.0105401
0.0107651
0.00315527
0.00320533
0.00598531
1.75949
1.72186
1.60895
0.461765
7.44796
5.76214
0.00526565
3.35849
1.83906
1.93884
4.08205
7.30656
0.00346327
0.0104906
0.00323796
3.84258
0.245385
0.0031692
1.39831
0.162982
7.40679
0.00323852
7.60419
1.16941
0.0474057
6.50081
0.00323176
0.00319507
0.00404648
7.63918
3.3361
5.26636
4.94842
1.04478
1.76496
0.00312627
0.0060315
0.0904947
0.0133813
0.0251705
1.95284
2.15014
0.00322442
1.26254
1.83418
6.16724
7.63037
0.00823436
7.59672
0.00591812
0.0303452
3.66923
0.00320137
5.65328
0.00324067
0.0033671
0.0223495
2.11678
0.631593
2.55237
1.87008
0.00365947
1.76744
4.61118
0.0518543
0.224112
0.843612
0.00331501
0.00326718
0.0069374
5.45125
0.525356
0.00335861
7.21073
5.99393
6.65946
0.0322017
2.03385
0.00421472
2.45256
0.160952
0.0913645
2.6546
1.67133
1.88681
6.10524
0.00327956
0.00313258
0.010479
4.09593
4.50313
0.991214
0.013883
0.0033341
0.00323896
0.00883256
0.0262568
0.00661201
2.17952
1.7491
0.011583
1.55529
5.98583
0.00327135
2.38087
0.00321773
0.530044
0.00324484
0.0222046
2.39819
0.0201281
0.00320605
0.777358
7.73455
7.06696
0.00319001
0.00326436
0.393989
0.0275371
0.00321633
4.35044
0.00370164
1.67639
7.71888
2.44115
1.6705
2.44187
3.67663
7.5191
0.00322909
0.00744669
0.0149482
4.20362
1.41053
6.37771
0.656518
0.362826
4.27498
3.70456
5.00705
0.724255
2.699
0.00322231
0.362716
1.67667
2.59246
3.93383
1.89386
0.221643
2.58312
0.103105
0.00936068
1.74491
0.00323937
5.87242
0.00366385
0.374324
7.3626
2.70585
0.573075
0.00742062
0.765218
0.00329912
0.0031917
0.106967
0.0225365
1.82533
0.015343
1.7447
0.00322127
0.0280066
0.00316639
4.5393
0.00509033
4.08419
2.50672
0.0219665
1.90769
7.46085
0.00325805
1.69556
4.47786
0.00335953
7.33533
0.0629564
0.00348443
0.00339497
7.19918
0.00317851
0.00429228
0.0871311
0.101376
7.01919
7.202
0.00322104
0.00327053
1.0893
2.35625
0.0146126
0.256851
2.07579
0.00321763
0.00383427
0.0037252
6.03488
7.23894
0.495935
7.13297
0.0261273
1.58745
0.00332504
0.0147957
0.0249226
0.0363296
0.00322983
6.85108
0.00320088
0.0250649
0.00332228
0.239652
0.0224956
0.0149621
0.439719
0.691617
2.27415
0.39739
1.09504
1.8262
5.08088
0.00343922
5.00528
7.57566
1.14591
4.0624
0.00327912
4.3108
3.84451
0.00321569
7.32903
2.31642
0.00813029
0.0108751
5.91724
5.75775
0.0574198
7.49238
7.2576
0.807654
7.21134
7.15282
5.02059
1.93015
1.63635
1.03562
7.15793
7.38794
0.021937
7.34137
2.5308
4.34547
0.00343353
0.343204
0.370512
6.80181
5.83507
0.0202488
4.25475
6.439
0.472091
0.0338782
0.378031
1.81799
0.00535281
1.85403
6.83129
0.0338322
6.75964
1.34828
4.46278
6.32166
0.00322221
0.00566303
1.08065
0.714469
0.0183181
0.00321826
0.188734
0.2551
0.0045136
0.00323647
4.18716
1.0161
3.049
1.02599
0.00862894
0.00417417
0.0893763
3.3775
0.00346006
1.88693
1.66315
0.48048
2.28594
0.0039725
0.116303
0.00320212
0.347531
4.3821
0.00436918
0.118411
2.10951
5.76203
0.22498
4.06943
0.59239
0.158816
0.00392831
2.39728
7.63231
0.00321142
0.00328266
5.63721
0.0245439
0.00323561
3.8108
0.242746
1.91372
2.00631
1.45366
0.146006
1.77359
3.4826
5.71681
4.40762
0.00327543
5.61864
0.00389115
2.56885
0.00340171
0.00452959
2.1148
0.00656974
3.85632
0.020731
0.0398184
1.83219
0.717359
0.063172
0.00367438
6.19007
0.00364372
0.00315335
7.68101
5.82568
2.89714
1.92109
0.00343481
0.00307106
1.91956
5.62271
0.00319899
6.56049
1.67106
0.0032424
6.02497
0.00311663
0.350079
0.933051
1.38926
0.362036
1.5675
1.9358
0.00311254
7.19215
7.36493
0.00321534
0.016925
1.92798
0.00313139
6.9599
5.60989
4.38139
0.00321756
0.00317079
3.53278
0.0416579
0.00350283
1.84611
1.69566
4.15007
0.00315382
0.0033806
0.0243578
0.0194592
0.00321694
0.0064248
5.24761
2.86954
0.00322234
1.34131
0.00321466
0.696491
0.00421814
0.00358629
2.31034
0.0032668
0.120246
0.00317621
2.90837
0.180949
1.71036
6.28594
4.35567
3.76351
0.835213
1.23702
0.00323547
0.949641
7.26392
4.07549
0.106981
0.00346684
5.24572
0.00321461
0.0313695
0.00315613
7.06018
0.765968
0.361565
6.32856
2.21173
0.475264
4.2107
0.70961
6.78833
4.61603
0.00331011
0.00327522
0.0082015
0.00323149
0.0227937
4.33268
0.00378188
7.00612
0.0060101
0.0727555
0.592658
4.8404
0.0048851
2.73882
0.017064
3.05969
2.47487
6.84398
0.00339956
0.0038473
0.248275
3.73168
1.69005
3.7592
0.427058
1.04173
1.61378
0.0507457
1.00309
0.26278
1.68708
0.0032834
4.32027
0.418017
3.20232
0.00336532
3.11163
0.96853
0.0046191
1.61499
1.83817
0.0653817
0.00314922
0.00321788
4.9677
2.86848
1.38648
0.00320734
0.0175964
1.996
6.32552
0.462693
0.0126219
0.00322446
5.45726
5.22378
2.08358
2.69179
0.00321312
3.59412
7.3299
0.00321102
0.00321769
1.23708
0.00411178
0.00988045
0.0316953
1.92932
0.00411286
2.21321
7.5674
0.00320503
0.00346429
0.00316811
0.00330627
3.80236
4.63066
7.65084
0.0290379
2.38388
2.20265
0.0873132
2.93426
0.00348259
1.69121
0.222386
2.0717
0.698373
1.62804
3.18674
0.0285361
0.00323889
5.88809
4.44476
4.63031
0.926237
1.75733
0.176398
1.63794
0.00929002
0.00483603
3.51114
5.50818
0.02204
0.131547
0.00324509
0.0781778
1.95078
0.0277966
1.03018
0.69054
3.79431
2.12991
0.439838
6.81716
5.50711
2.9458
1.68362
4.27652
3.52039
0.574871
2.72947
0.00614483
2.86147
3.01928
0.00320395
0.00313633
0.120614
0.00322651
0.0033312
3.0083
4.3366
0.00322008
3.23826
0.0032146
0.00319231
0.00321587
0.00326323
0.00594991
1.92429
2.66454
7.04985
0.00315985
0.00391014
0.98316
0.00355487
0.0330335
0.00324572
0.00361066
4.48685
0.00391025
0.0109647
2.78344
0.0104902
0.0032196
4.01275
0.00321413
0.00326651
0.264839
0.00360608
0.937372
0.00458547
0.0300878
0.00320421
0.00325424
7.41802
7.52201
2.69124
0.0268014
3.03324
1.59245
0.0047424
1.76342
4.14713
6.91406
4.56574
0.00312471
1.93818
2.56407
0.146682
1.74257
4.4576
0.173494
2.04004
0.210467
1.72071
0.0383892
1.04067
0.00323487
6.66091
0.00329062
1.79839
2.52603
0.00321511
0.314085
0.00731099
0.0192043
0.00317653
0.776396
0.00366353
0.00322177
2.51145
0.00937996
0.110465
6.86556
1.89654
0.00346088
0.00388254
2.45109
7.11816
0.00309194
0.00324641
0.071874
1.35264
5.61047
0.00659562
1.68984
0.0032179
0.00344321
0.00314795
0.034869
0.976344
0.0101478
6.53586
1.79177
7.11224
5.99428
0.00351931
7.26891
3.79042
0.00317937
0.00322624
0.00321814
0.00439771
0.00320255
3.89011
0.00320798
0.00323933
6.6842
0.328327
0.00775839
0.0214691
2.01392
0.939661
0.00824093
0.0034595
6.27352
0.00324544
0.805462
0.00326254
0.00352371
5.86696
5.75728
0.00871152
0.00351414
0.337155
0.0032064
6.72094
0.00325561
5.52398
0.0249384
0.718019
0.0331602
0.363641
0.369184
1.49828
0.0032427
0.00356626
0.011575
3.20909
0.119171
7.40858
0.00321928
0.00459614
0.00556184
7.09032
2.83202
3.05584
0.00694375
0.00900747
0.212076
0.00322343
1.26706
2.54061
0.0170017
5.95846
6.19397
2.03041
0.00534266
0.391858
2.82243
6.74645
1.80315
0.0188262
3.18816
0.0616093
5.18195
0.0915769
0.527981
2.5836
0.00324365
1.76387
0.00455139
0.0118684
0.00810352
0.0501138
0.00370215
1.31616
0.00322655
3.03853
0.0956181
0.00361232
0.245849
0.00323205
0.28429
0.117723
2.31058
0.458317
4.63221
0.244244
0.00321692
0.00319047
0.719223
0.0916613
2.87945
7.12784
0.00322399
3.87742
2.73845
0.0232255
2.00557
0.613625
2.34202
2.14782
0.0340876
0.0058895
7.04973
1.51493
5.90622
0.00321074
1.6359
0.00321533
1.25658
2.40289