/*--------------------------------*- C++ -*----------------------------------*\
| =========                 |                                                 |
| \\      /  F ield         | OpenFOAM: The Open Source CFD Toolbox           |
|  \\    /   O peration     | Version:  2.3.1                                 |
|   \\  /    A nd           | Web:      www.OpenFOAM.org                      |
|    \\/     M anipulation  |                                                 |
\*---------------------------------------------------------------------------*/
FoamFile
{
    version     2.0;
    format      ascii;
    class       volScalarField;
    location    "0.7";
    object      nut;
}
// * * * * * * * * * * * * * * * * * * * * * * * * * * * * * * * * * * * * * //

dimensions      [0 2 -1 0 0 0 0];

internalField   nonuniform List<scalar> 
9648
(
0.000272141
0.000271693
0.000271572
0.00027132
0.000270908
0.000270262
0.000269423
0.000268403
0.000267182
0.00026574
0.000264068
0.000262205
0.000260151
0.000257919
0.00025556
0.000253125
0.00025064
0.000248129
0.000245637
0.000243208
0.000240857
0.000238607
0.000236481
0.00023448
0.000232607
0.000230876
0.000229292
0.00022785
0.000226542
0.000225371
0.000224331
0.000223417
0.000222623
0.000221951
0.000221387
0.000220933
0.000220589
0.000220347
0.000220194
0.000220131
0.000220164
0.000220284
0.000220487
0.00022078
0.00022115
0.000221588
0.000222108
0.000222723
0.000223423
0.000224192
0.000225046
0.000226004
0.000227041
0.00022816
0.00022937
0.000230668
0.000232016
0.000233359
0.000234702
0.000236046
0.000237373
0.000459163
0.000461026
0.000463245
0.000466327
0.00047001
0.000473667
0.000478791
0.000486624
0.000497471
0.00051122
0.000527972
0.000548019
0.000571302
0.00059767
0.000626941
0.000659011
0.000693632
0.00073045
0.000769146
0.000809533
0.000851259
0.000894062
0.000937746
0.000982035
0.00102665
0.00107146
0.00111636
0.0011612
0.0012058
0.00125007
0.00129401
0.00133747
0.00138038
0.00142276
0.00146455
0.00150564
0.0015461
0.00158595
0.0016251
0.0016634
0.00170091
0.00173771
0.0017737
0.00180878
0.00184308
0.00187634
0.00190856
0.0019399
0.00197045
0.00200007
0.00202872
0.00205644
0.00208342
0.0021092
0.00213444
0.00215893
0.00218329
0.00220654
0.00222931
0.00225185
0.00227435
0.000800878
0.000835524
0.000866825
0.000896897
0.000928559
0.000963803
0.00100211
0.0010447
0.00109126
0.00114248
0.00119772
0.00125742
0.00132143
0.00138953
0.00146144
0.00153679
0.00161522
0.00169615
0.0017791
0.00186365
0.00194929
0.00203568
0.00212238
0.00220905
0.0022954
0.00238121
0.00246636
0.00255057
0.00263379
0.00271591
0.0027968
0.00287647
0.00295495
0.00303209
0.00310789
0.00318245
0.00325567
0.00332765
0.00339835
0.00346775
0.00353589
0.00360267
0.00366828
0.00373267
0.00379577
0.00385758
0.00391805
0.0039774
0.00403541
0.00409226
0.00414791
0.00420244
0.00425644
0.00430844
0.00436071
0.00441094
0.00446099
0.00450815
0.00455551
0.0046021
0.00464806
0.00129445
0.00136216
0.001425
0.0014859
0.00154775
0.00161272
0.00168175
0.00175569
0.00183469
0.00191931
0.00200908
0.00210413
0.00220396
0.0023084
0.00241683
0.00252873
0.00264354
0.00276062
0.0028794
0.0029993
0.00311987
0.00324055
0.00336099
0.00348085
0.00359987
0.0037178
0.00383452
0.00394985
0.00406372
0.00417599
0.00428674
0.00439593
0.00450351
0.00460961
0.00471411
0.00481713
0.00491862
0.00501871
0.00511735
0.00521461
0.0053105
0.00540505
0.00549824
0.00559021
0.00568085
0.0057702
0.00585828
0.00594515
0.00603063
0.00611477
0.00619802
0.00627934
0.00635948
0.00643787
0.00651614
0.0065924
0.00666677
0.00673929
0.00681037
0.00687994
0.00694707
0.00187349
0.00196618
0.00205302
0.0021371
0.00222185
0.00231052
0.00240501
0.00250613
0.0026144
0.00272984
0.00285195
0.00298022
0.00311412
0.00325309
0.00339627
0.0035428
0.0036919
0.00384294
0.00399522
0.00414821
0.00430131
0.00445403
0.00460593
0.00475671
0.00490615
0.00505414
0.00520044
0.00534498
0.00548766
0.00562845
0.00576733
0.00590435
0.0060396
0.00617306
0.00630471
0.0064347
0.00656303
0.00668966
0.00681467
0.00693808
0.00705998
0.0071803
0.00729919
0.0074166
0.00753252
0.00764692
0.00775974
0.00787102
0.00798095
0.00808891
0.0081955
0.00830034
0.00840289
0.00850337
0.00860222
0.00869958
0.00879423
0.00888675
0.00897716
0.0090649
0.0091499
0.00247038
0.00257983
0.00268526
0.00278927
0.00289541
0.00300714
0.0031269
0.00325582
0.00339391
0.00354082
0.00369568
0.0038574
0.00402531
0.00419837
0.00437578
0.00455642
0.00473904
0.0049232
0.00510794
0.00529277
0.0054772
0.00566053
0.00584249
0.00602259
0.00620083
0.00637708
0.00655127
0.00672331
0.00689298
0.00706031
0.00722539
0.00738815
0.00754884
0.00770748
0.00786398
0.00801846
0.00817107
0.00832171
0.00847042
0.00861719
0.00876193
0.00890482
0.0090459
0.0091852
0.00932264
0.00945829
0.00959235
0.00972378
0.00985347
0.00998116
0.0101066
0.0102299
0.0103508
0.0104688
0.0105848
0.0106978
0.0108083
0.0109164
0.0110217
0.0111233
0.0112224
0.00305022
0.00317417
0.00329927
0.00342545
0.00355565
0.00369313
0.00384061
0.00399926
0.0041689
0.00434844
0.00453693
0.0047326
0.00493441
0.00514124
0.00535275
0.00556708
0.00578279
0.0059995
0.00621589
0.00643159
0.0066464
0.00685925
0.0070701
0.00727798
0.0074832
0.00768597
0.0078861
0.00808386
0.00827854
0.00847024
0.00865926
0.00884516
0.00902855
0.00920967
0.00938808
0.00956396
0.0097378
0.00990912
0.0100782
0.0102449
0.0104088
0.0105702
0.0107293
0.0108862
0.0110405
0.0111925
0.0113423
0.0114895
0.0116345
0.0117767
0.0119164
0.0120533
0.012187
0.0123179
0.0124453
0.0125702
0.0126922
0.0128109
0.0129259
0.0130372
0.0131451
0.0036026
0.00374213
0.00389035
0.0040424
0.00420072
0.00436637
0.00454362
0.00473397
0.00493599
0.00514934
0.00537212
0.00560226
0.00583771
0.00607714
0.00632152
0.0065691
0.00681767
0.00706689
0.00731454
0.00755973
0.00780388
0.00804523
0.0082845
0.00851907
0.00874899
0.00897606
0.00919981
0.00942123
0.0096389
0.00985275
0.0100636
0.0102696
0.010472
0.0106723
0.0108695
0.0110632
0.0112546
0.011443
0.011629
0.0118126
0.0119926
0.0121688
0.0123411
0.0125111
0.0126776
0.012841
0.0130016
0.0131585
0.0133131
0.0134646
0.0136127
0.0137574
0.0138998
0.0140386
0.014173
0.0143039
0.0144315
0.0145567
0.0146777
0.0147936
0.0149051
0.00413377
0.00428787
0.00446214
0.00463914
0.00482971
0.00502279
0.0052285
0.00545243
0.00568339
0.00593112
0.00618612
0.00645372
0.00672186
0.00699255
0.00726423
0.00754359
0.00782403
0.00810563
0.00838851
0.00865986
0.00893069
0.00920086
0.00946867
0.00973395
0.00998459
0.0102334
0.0104779
0.0107199
0.01096
0.0111943
0.0114279
0.0116533
0.0118665
0.012082
0.0122973
0.0125043
0.0127079
0.0129111
0.0131098
0.0133096
0.0135066
0.0136998
0.0138804
0.0140595
0.0142377
0.0144068
0.0145755
0.0147347
0.0148966
0.0150495
0.0152038
0.0153456
0.0154891
0.0156359
0.0157762
0.0159034
0.0160326
0.0161548
0.0162811
0.0164012
0.0165092
0.000238606
0.000239737
0.000240842
0.000241919
0.00024295
0.000243907
0.000244831
0.000245761
0.000246678
0.000247536
0.000248314
0.000249075
0.000249807
0.000250509
0.000251215
0.000251969
0.00025278
0.000253649
0.000254602
0.000255675
0.000256838
0.000258069
0.00025936
0.000260677
0.000261998
0.000263337
0.000264703
0.000266076
0.000267445
0.000268822
0.000270208
0.000271596
0.000272987
0.000274395
0.000275805
0.000277225
0.000278664
0.000280123
0.000281587
0.000283056
0.000284549
0.000286061
0.000287588
0.000289141
0.00029071
0.000292275
0.000293854
0.000295467
0.000297104
0.000298736
0.000300382
0.000302069
0.000303764
0.000305466
0.000307202
0.000308979
0.000310787
0.000312578
0.000314414
0.000316329
0.000318329
0.00229693
0.00231724
0.00233714
0.00235697
0.00237639
0.00239462
0.00241079
0.00242599
0.00243872
0.00245138
0.00246242
0.00247275
0.00248196
0.00249006
0.00249695
0.00250238
0.00250643
0.00250895
0.00251002
0.0025097
0.00250816
0.00250563
0.00250204
0.00249751
0.00249212
0.00248589
0.00247887
0.0024709
0.0024621
0.00245239
0.00244174
0.00243024
0.00241792
0.0024047
0.00239064
0.00237582
0.00236013
0.00234371
0.00232652
0.00230861
0.00228998
0.00227063
0.00225073
0.00223022
0.00220904
0.0021872
0.00216461
0.00214138
0.00211737
0.00209264
0.0020672
0.00204099
0.00201416
0.00198603
0.00195771
0.00192816
0.00189821
0.00186702
0.00183606
0.00180492
0.00177363
0.00469171
0.00473427
0.00477406
0.00481265
0.00484983
0.00488681
0.00492013
0.00495196
0.00498038
0.00500777
0.0050329
0.0050564
0.00507744
0.00509694
0.00511451
0.00513009
0.00514376
0.00515552
0.00516541
0.00517352
0.00518008
0.00518502
0.00518847
0.00519045
0.00519097
0.00519003
0.00518774
0.00518402
0.00517888
0.00517215
0.00516401
0.00515428
0.00514299
0.00513025
0.00511591
0.00510009
0.00508271
0.00506385
0.00504349
0.00502171
0.00499861
0.00497429
0.00494879
0.00492229
0.00489464
0.00486583
0.00483569
0.00480424
0.00477129
0.00473685
0.00470105
0.00466314
0.00462356
0.00458185
0.00453893
0.00449354
0.0044461
0.00439696
0.00434696
0.00429603
0.00424395
0.00701265
0.00707569
0.00713664
0.00719464
0.00725063
0.00730463
0.00735616
0.00740403
0.00744955
0.00749296
0.00753381
0.00757184
0.00760736
0.00764081
0.00767152
0.00769999
0.0077261
0.00774986
0.00777128
0.0077905
0.0078076
0.00782276
0.00783594
0.00784727
0.00785667
0.00786416
0.00786969
0.00787333
0.00787516
0.00787507
0.00787294
0.00786876
0.00786249
0.00785408
0.00784355
0.00783091
0.00781605
0.0077989
0.00777953
0.00775804
0.00773462
0.00770932
0.00768254
0.00765436
0.00762488
0.007594
0.00756153
0.00752735
0.0074914
0.00745341
0.00741347
0.00737107
0.00732597
0.0072781
0.00722777
0.00717436
0.00711762
0.00705851
0.00699775
0.00693486
0.00687047
0.00923197
0.00931194
0.00938904
0.00946298
0.00953343
0.00960126
0.00966635
0.00972768
0.00978573
0.00984141
0.0098939
0.00994346
0.00999045
0.0100345
0.0100758
0.0101148
0.0101503
0.0101831
0.010213
0.0102401
0.0102645
0.0102866
0.0103063
0.0103238
0.0103389
0.0103516
0.010362
0.0103703
0.0103765
0.0103807
0.0103829
0.0103826
0.01038
0.0103748
0.0103673
0.0103571
0.0103441
0.0103283
0.0103094
0.0102877
0.0102633
0.0102364
0.0102074
0.0101768
0.0101448
0.0101114
0.0100764
0.0100392
0.0100004
0.00995981
0.00991687
0.00987118
0.00982243
0.00977016
0.00971463
0.00965452
0.00959076
0.00952387
0.00945439
0.00938194
0.00930789
0.011318
0.0114106
0.0114994
0.0115855
0.0116677
0.0117461
0.0118214
0.0118921
0.0119596
0.0120236
0.0120847
0.0121426
0.0121972
0.0122488
0.012297
0.0123422
0.0123838
0.0124223
0.0124573
0.0124884
0.0125162
0.012541
0.012563
0.0125824
0.0125989
0.0126126
0.0126234
0.0126315
0.0126375
0.0126417
0.0126442
0.0126443
0.0126421
0.0126374
0.0126303
0.0126204
0.0126071
0.0125905
0.0125704
0.0125467
0.0125195
0.0124887
0.0124551
0.0124194
0.012382
0.0123436
0.0123033
0.0122613
0.0122176
0.0121727
0.0121256
0.0120753
0.0120218
0.011965
0.011904
0.0118376
0.0117669
0.0116915
0.0116135
0.0115323
0.0114487
0.0132493
0.0133499
0.0134465
0.013539
0.0136278
0.0137129
0.0137937
0.0138701
0.0139429
0.0140118
0.014077
0.014139
0.0141979
0.0142526
0.0143035
0.0143515
0.0143963
0.0144374
0.0144743
0.0145062
0.0145339
0.0145578
0.0145783
0.0145957
0.0146099
0.0146204
0.0146272
0.0146301
0.0146303
0.0146288
0.0146266
0.0146222
0.0146164
0.0146083
0.014599
0.0145871
0.0145711
0.0145514
0.014528
0.014501
0.0144699
0.014434
0.0143938
0.0143508
0.0143056
0.0142601
0.0142116
0.0141617
0.01411
0.014059
0.0140061
0.0139493
0.0138902
0.0138276
0.0137615
0.0136883
0.0136101
0.0135261
0.01344
0.0133498
0.0132569
0.0150128
0.015116
0.0152147
0.0153083
0.0153978
0.0154822
0.0155629
0.0156395
0.0157129
0.0157822
0.015847
0.0159087
0.0159676
0.0160226
0.0160722
0.0161176
0.0161613
0.0162024
0.0162396
0.0162709
0.0162957
0.0163166
0.0163334
0.0163458
0.0163548
0.0163596
0.0163603
0.0163548
0.0163438
0.0163301
0.0163171
0.0163015
0.016286
0.0162687
0.0162533
0.0162375
0.0162163
0.0161897
0.0161599
0.0161281
0.0160928
0.0160525
0.0160057
0.0159545
0.015901
0.0158476
0.015789
0.0157293
0.0156663
0.0156064
0.0155464
0.0154805
0.0154134
0.0153441
0.015273
0.0151928
0.0151077
0.0150146
0.0149203
0.0148215
0.0147206
0.0166199
0.0167215
0.0168212
0.0169066
0.0169912
0.0170624
0.017137
0.0171982
0.0172621
0.01733
0.0173908
0.0174374
0.0174912
0.0175446
0.0175914
0.0176291
0.0176605
0.0176923
0.0177279
0.0177587
0.0177785
0.0177964
0.017813
0.0178199
0.0178203
0.0178162
0.0178115
0.0178024
0.0177804
0.0177505
0.0177225
0.017688
0.0176549
0.0176172
0.0175872
0.0175634
0.017535
0.0174961
0.0174537
0.0174111
0.017368
0.0173283
0.0172755
0.0172162
0.0171586
0.0170987
0.0170342
0.0169643
0.0168902
0.0168177
0.0167484
0.01667
0.0165886
0.0165125
0.0164327
0.016349
0.016256
0.016157
0.0160527
0.0159468
0.0158366
0.000320327
0.000322305
0.000324362
0.000326495
0.000328676
0.00033086
0.000333077
0.000335357
0.000337679
0.000340024
0.000342388
0.000344795
0.000347219
0.00034973
0.000352839
0.000355647
0.000358404
0.000361151
0.000363902
0.00036668
0.00036947
0.000372276
0.000375106
0.00037794
0.000380762
0.000383583
0.0003864
0.000389204
0.000391974
0.000394715
0.000397415
0.000400064
0.000402649
0.000405173
0.000407611
0.000409957
0.000412204
0.000414325
0.000416161
0.000417491
0.000418403
0.000418907
0.000419
0.000418677
0.00041788
0.000416545
0.000414628
0.000412062
0.000408724
0.000404458
0.000399125
0.000392555
0.000384455
0.000374505
0.000361471
0.000340455
0.0003303
0.00032496
0.0003228
0.000321754
0.000319542
0.00174177
0.00170987
0.00167742
0.00164478
0.0016119
0.00157909
0.00154579
0.00151276
0.0014796
0.00144682
0.00141467
0.00138216
0.00135019
0.00131848
0.0012831
0.00124797
0.00121327
0.00117923
0.00114591
0.00111337
0.00108157
0.00105032
0.00101962
0.000989433
0.000959751
0.000930613
0.000901992
0.000873945
0.000846446
0.000819506
0.000793161
0.000767436
0.000742323
0.000717869
0.000694134
0.000671134
0.000648971
0.000627722
0.000606943
0.000584008
0.000560475
0.000537975
0.000516557
0.000496409
0.000477629
0.000460422
0.000445063
0.000431817
0.000420952
0.000412802
0.00040773
0.000406169
0.000408538
0.000415314
0.000425585
0.000448502
0.00048396
0.000540687
0.000627749
0.000752525
0.000871535
0.00419128
0.00413783
0.00408344
0.00402752
0.00397028
0.00391198
0.00385256
0.00379247
0.00373168
0.00367077
0.00360802
0.00354531
0.00348523
0.00342499
0.0033619
0.00329635
0.00322942
0.0031623
0.00309532
0.00302878
0.00296252
0.00289618
0.00282978
0.00276331
0.00269668
0.00262997
0.00256312
0.00249616
0.00242896
0.00236157
0.00229392
0.00222598
0.00215782
0.00208933
0.00202059
0.00195159
0.00188237
0.00181291
0.00174296
0.00167121
0.00159732
0.0015113
0.00141793
0.00132176
0.00122395
0.00112576
0.00102883
0.000934715
0.000845417
0.000762942
0.000689268
0.000626238
0.000575051
0.000536985
0.000511932
0.000503898
0.00051555
0.000552078
0.00062319
0.000742871
0.000906701
0.00680491
0.00673893
0.00667129
0.00660133
0.00652857
0.00645412
0.00637803
0.00630105
0.00622358
0.00614542
0.00606353
0.0059832
0.0059055
0.00582744
0.00574606
0.00566116
0.00557363
0.00548526
0.00539663
0.0053081
0.00521939
0.00512972
0.00503932
0.00494826
0.00485633
0.00476354
0.00466979
0.00457509
0.00447918
0.004382
0.00428348
0.00418366
0.00408247
0.00397995
0.00387615
0.00377106
0.00366461
0.00355683
0.00344748
0.003336
0.00322153
0.00310063
0.0029649
0.00281199
0.00264741
0.00247145
0.00228494
0.0020892
0.00188674
0.00168175
0.00147892
0.00128558
0.00110816
0.000953399
0.000825138
0.000728267
0.000665578
0.000637077
0.00064499
0.000697032
0.000801592
0.00923174
0.00915493
0.00907613
0.00899496
0.00890937
0.00882136
0.00873142
0.00864122
0.00855026
0.00845852
0.00836208
0.00826757
0.00817514
0.00808248
0.00798638
0.00788624
0.00778259
0.00767809
0.0075731
0.00746806
0.00736231
0.00725468
0.0071459
0.00703613
0.00692479
0.00681211
0.00669769
0.00658155
0.00646326
0.0063428
0.0062201
0.00609537
0.00596867
0.00584016
0.00570984
0.00557784
0.00544416
0.00530878
0.00517151
0.00503208
0.00488994
0.00474374
0.00459013
0.0044197
0.00423102
0.00402631
0.00380404
0.00356281
0.00330151
0.00302105
0.00272308
0.00241261
0.00209875
0.00179416
0.00151319
0.00127022
0.00107691
0.000935274
0.000842704
0.000798616
0.00080666
0.0113618
0.0112742
0.0111849
0.0110931
0.0109956
0.010895
0.0107915
0.0106884
0.010585
0.0104812
0.0103719
0.0102643
0.0101582
0.0100527
0.00994313
0.00982953
0.00971199
0.0095943
0.00947599
0.00935759
0.00923784
0.00911487
0.00899082
0.00886589
0.00873871
0.00860964
0.00847803
0.00834401
0.00820676
0.00806662
0.00792351
0.00777817
0.00763073
0.00748159
0.00733063
0.00717815
0.00702411
0.00686865
0.00671162
0.00655291
0.00639206
0.00622854
0.00606084
0.00588509
0.00569056
0.00548071
0.00525277
0.00500519
0.00473485
0.00443893
0.00411542
0.00376307
0.003384
0.00298642
0.0025833
0.00219608
0.00184738
0.00155237
0.00131694
0.00114199
0.00102705
0.0131588
0.0130606
0.012961
0.0128596
0.0127505
0.0126373
0.0125202
0.0124046
0.0122894
0.0121747
0.012053
0.011933
0.0118144
0.0116975
0.011576
0.0114509
0.0113212
0.0111925
0.0110632
0.0109339
0.0108024
0.0106658
0.010529
0.010392
0.0102515
0.0101084
0.00996151
0.00981188
0.00965751
0.00949976
0.00933855
0.00917589
0.0090114
0.00884609
0.00867919
0.00851146
0.00834259
0.00817326
0.00800318
0.00783259
0.0076608
0.0074876
0.00731223
0.00713266
0.00694434
0.00673727
0.00651457
0.00627422
0.00601354
0.00572961
0.00541855
0.00507646
0.0047008
0.00429038
0.00385035
0.00339289
0.00293812
0.00250935
0.00212483
0.00179648
0.00153144
0.0146119
0.0145022
0.0143926
0.0142822
0.0141624
0.0140373
0.0139073
0.0137789
0.0136528
0.0135281
0.0133951
0.0132635
0.0131343
0.013008
0.0128767
0.0127416
0.0126022
0.0124644
0.0123263
0.0121886
0.0120466
0.0118977
0.0117508
0.0116046
0.0114522
0.0112959
0.0111346
0.0109705
0.0107996
0.0106253
0.0104477
0.0102711
0.010093
0.00991587
0.0097371
0.00955878
0.00937976
0.00920265
0.0090262
0.00885138
0.00867613
0.00850104
0.00832487
0.00814646
0.00796284
0.00776613
0.00755337
0.007325
0.00707973
0.00681557
0.00652989
0.00621862
0.00587678
0.00550029
0.00508685
0.0046384
0.00416405
0.00367859
0.00320132
0.0027508
0.00234426
0.0157227
0.0155991
0.0154811
0.0153584
0.0152326
0.0150943
0.0149558
0.0148114
0.0146769
0.0145406
0.0144009
0.0142576
0.0141224
0.0139868
0.0138511
0.0137053
0.0135632
0.0134146
0.0132706
0.0131284
0.0129748
0.012818
0.0126631
0.0125068
0.0123436
0.0121718
0.0119986
0.0118186
0.0116321
0.0114418
0.011252
0.0110655
0.0108773
0.0106918
0.0105053
0.0103207
0.010137
0.00996116
0.00978689
0.00961773
0.00944539
0.0092758
0.00910461
0.00893128
0.00875484
0.00857094
0.00836964
0.00815302
0.00792392
0.00768624
0.00743037
0.00715829
0.00685776
0.00653135
0.00616858
0.00577282
0.00533688
0.00487239
0.0043826
0.0038825
0.00339258
0.000315542
0.000310978
0.000305991
0.000300619
0.000295062
0.000289415
0.00028384
0.000278536
0.000273669
0.000269353
0.000265659
0.000262647
0.000260271
0.000258458
0.000257143
0.000256248
0.000255669
0.000255325
0.000255167
0.000255161
0.000255262
0.000255449
0.000255711
0.000256037
0.000256404
0.000256827
0.000257303
0.000257828
0.000258393
0.000259004
0.000259653
0.000260337
0.000261049
0.000261787
0.000262535
0.000263289
0.000264043
0.000264781
0.00026548
0.000266134
0.000266741
0.000267282
0.000267749
0.000268149
0.000268469
0.000268706
0.000268887
0.000269038
0.000269168
0.000269279
0.000269404
0.000269579
0.00026978
0.000270021
0.000270305
0.00027063
0.000270957
0.000271245
0.000271513
0.000271762
0.00027198
0.000936503
0.000991676
0.00103502
0.0010612
0.00107246
0.00107283
0.00105983
0.00103424
0.00099842
0.00095449
0.000904652
0.000852291
0.000800083
0.000750095
0.00070293
0.000660305
0.000623799
0.000593549
0.000569147
0.000549991
0.000535274
0.00052417
0.000515907
0.00050988
0.000505686
0.000502877
0.000501301
0.000500734
0.000501036
0.000502072
0.000503721
0.000505865
0.000508368
0.000511085
0.000513884
0.00051663
0.000519168
0.000521361
0.000523048
0.000524083
0.000524315
0.000523592
0.000521782
0.000518765
0.000514458
0.000508839
0.000501968
0.00049403
0.000485317
0.00047628
0.000467477
0.000459518
0.000452966
0.000448218
0.000445517
0.000444794
0.000445764
0.000447921
0.000450743
0.000453696
0.000456546
0.00107786
0.00124963
0.00141812
0.00156754
0.0016675
0.001746
0.00180012
0.00182469
0.00182356
0.00179976
0.00175411
0.00169101
0.00161446
0.00152806
0.00143402
0.00133745
0.00124513
0.00116094
0.00108688
0.00102509
0.000975858
0.000938258
0.000910631
0.000890941
0.000877736
0.000869443
0.000865199
0.000864171
0.000865716
0.000869268
0.000874383
0.000880556
0.000887274
0.000894039
0.000900334
0.000905708
0.000909703
0.000911899
0.000911873
0.000909261
0.00090377
0.000895227
0.000883523
0.000868694
0.000850826
0.000830185
0.000807119
0.000782128
0.000755823
0.000729116
0.000703243
0.000679739
0.000660485
0.000647264
0.000641697
0.000644628
0.000656073
0.000675275
0.000700913
0.000731338
0.000765026
0.000955424
0.00115242
0.00138095
0.00161877
0.00183532
0.00203118
0.00221162
0.00234161
0.00243182
0.00249184
0.00251811
0.00251329
0.00248185
0.00242548
0.00234591
0.00224668
0.00213202
0.00201375
0.00189792
0.00179094
0.00169772
0.00162159
0.0015631
0.00152082
0.00149237
0.0014755
0.00146827
0.00146903
0.00147625
0.00148859
0.00150495
0.00152424
0.00154522
0.00156663
0.0015873
0.00160608
0.00162184
0.00163346
0.00163991
0.00164018
0.0016334
0.00161891
0.00159627
0.0015653
0.00152603
0.00147899
0.00142491
0.00136486
0.0013
0.00123205
0.0011633
0.00109688
0.001037
0.00098906
0.000959158
0.000952223
0.000969497
0.00100991
0.00106986
0.00114276
0.00122062
0.00087114
0.000995739
0.00118125
0.00141829
0.00168357
0.00195686
0.00222379
0.00246109
0.00266481
0.00284251
0.00297303
0.00305593
0.00310637
0.00312327
0.00310898
0.00306842
0.00300323
0.00291528
0.00281677
0.00271527
0.00261663
0.0025281
0.00245491
0.00239944
0.00236141
0.00233981
0.00233323
0.00234013
0.00235844
0.00238613
0.00242157
0.002463
0.00250836
0.00255551
0.00260242
0.00264707
0.00268746
0.00272166
0.00274768
0.00276361
0.00276771
0.0027586
0.00273499
0.00269609
0.00264118
0.00257052
0.00248448
0.00238414
0.00227084
0.00214663
0.00201436
0.00187854
0.00174542
0.0016244
0.00152902
0.00147556
0.00146693
0.00150379
0.00157595
0.00167029
0.00177283
0.000973792
0.00098453
0.0010628
0.00121048
0.00142236
0.00168602
0.0019825
0.00228512
0.0025732
0.00283603
0.00306021
0.00324244
0.00339312
0.00349551
0.00355517
0.00358937
0.00359844
0.00358624
0.00355954
0.00352198
0.00348009
0.00343809
0.00340087
0.00337312
0.00335735
0.00335499
0.00336716
0.00339436
0.00343532
0.0034881
0.00355122
0.00362264
0.00369986
0.00378004
0.00386049
0.00393837
0.00401098
0.00407552
0.00412911
0.004169
0.00419255
0.00419769
0.00418233
0.00414488
0.00408361
0.00399837
0.00388865
0.00375507
0.00359825
0.00342007
0.003223
0.00301181
0.00279342
0.0025788
0.00238597
0.00223702
0.00214703
0.0021253
0.00216563
0.00224985
0.0023564
0.00133423
0.0012073
0.00115257
0.00117201
0.00126639
0.00143413
0.00166836
0.00195332
0.00226675
0.00258446
0.00288326
0.00314833
0.0033751
0.00355786
0.00370092
0.00382
0.00390131
0.00395678
0.00400352
0.00404378
0.00408772
0.00413352
0.00418044
0.00422864
0.00428003
0.00433637
0.00440058
0.00447533
0.00456071
0.00465559
0.00475936
0.00487032
0.00498628
0.0051044
0.00522186
0.00533561
0.00544247
0.00553902
0.00562169
0.00568708
0.00573191
0.00575358
0.00574946
0.00571749
0.00565493
0.00556092
0.00543414
0.00527462
0.0050824
0.00485862
0.00460511
0.00432609
0.00402758
0.00371959
0.00341939
0.00315291
0.00294689
0.0028245
0.00279298
0.00283781
0.00293125
0.00199508
0.00171379
0.001507
0.00137882
0.0013308
0.00136311
0.00147434
0.00165971
0.0019091
0.00220509
0.00252393
0.00284127
0.00313867
0.00340159
0.00362544
0.00381348
0.00396737
0.00409454
0.00421393
0.00430972
0.00442134
0.00454282
0.00467341
0.00481176
0.00495803
0.00510902
0.00526228
0.00541677
0.00557503
0.00573631
0.00590038
0.00606549
0.0062301
0.00639264
0.00655081
0.00670226
0.00684401
0.00697235
0.00708311
0.00717243
0.00723747
0.00727447
0.00728105
0.00725498
0.00719286
0.00709242
0.00695263
0.00677153
0.00654987
0.00628748
0.00598616
0.00564864
0.00527947
0.0048874
0.00448862
0.00410816
0.00377933
0.00354087
0.00341871
0.00340912
0.00348101
0.00292714
0.00250848
0.00215147
0.00186557
0.00166053
0.00153968
0.00150403
0.00155113
0.00167721
0.00187505
0.00213128
0.00242883
0.00274827
0.00306817
0.00337047
0.00364857
0.00388838
0.00409084
0.00425972
0.00440409
0.00457694
0.00474414
0.00492253
0.00511934
0.00534071
0.00558078
0.00583374
0.00609154
0.00634739
0.00659957
0.00684704
0.00708565
0.00731199
0.00752937
0.00773429
0.00792752
0.00810684
0.00826863
0.00840776
0.00851946
0.00860504
0.00865509
0.00867196
0.00865102
0.0085913
0.00848559
0.00833755
0.00813647
0.00789118
0.00759519
0.00725544
0.00686916
0.00643994
0.00597942
0.00549789
0.00501665
0.00457863
0.00423462
0.00402484
0.00396072
0.00400801
0.00483236
0.0176338
0.017845
0.00200771
0.00497105
0.00706653
0.0012504
0.00598013
0.00128964
0.00334287
0.0106211
0.0152367
0.00125014
0.013574
0.00663102
0.0197522
0.00126347
0.0064538
0.0100101
0.00125417
0.0020305
0.0135166
0.0176428
0.00127768
0.00127945
0.00482154
0.00125386
0.00290787
0.00125996
0.00131401
0.00726904
0.00127941
0.00272759
0.00901698
0.0142158
0.00928462
0.00808587
0.0146294
0.00124679
0.0133972
0.0048383
0.0122423
0.00124676
0.0194868
0.00534432
0.00992825
0.00135262
0.00240739
0.00132739
0.0154519
0.010299
0.0147399
0.00124522
0.0014365
0.00198274
0.000209151
0.00131159
0.00443388
0.0089305
0.0169659
0.00391568
0.00135659
0.00133903
0.00364954
0.018234
0.00715433
0.00918154
0.00432211
0.001486
0.00124254
0.0133751
0.0149672
0.00463729
0.000483485
0.00270805
0.0183077
0.0177141
0.0179797
0.00124252
0.0146946
0.00193832
0.0127333
0.000834311
0.0194661
0.00124255
0.0124424
0.00128546
0.0117636
0.00181955
0.00158868
0.00556864
0.00124192
0.00137894
0.0163885
0.0183134
0.00134058
0.0109645
0.00456458
0.00177962
0.0186401
0.00361519
0.0170534
0.00875122
0.00124132
0.0012419
0.00124417
0.00606779
0.0066755
0.00126419
0.0189399
0.0183838
0.00166383
0.00802178
0.00756553
0.00520792
0.0123404
0.0102071
0.00140649
0.00593327
0.00142309
0.00102866
0.00564837
0.0015247
0.0167535
0.0124287
0.0031599
0.00124622
0.0136335
0.0140422
0.00124635
0.00349589
0.00373362
0.00279816
0.00153601
0.0131976
0.00124566
0.00124192
0.0129944
0.0151385
0.00125309
0.0033118
0.0186463
0.00433576
0.00908348
0.00818996
0.0172857
0.000468991
0.00886338
0.00250031
0.0158894
0.0122274
0.000207397
0.015026
0.0194033
0.0184979
0.00128382
0.00126832
0.0082349
0.00125461
0.0083357
0.000763819
0.0016221
0.00124378
0.0012474
0.00124291
0.0184919
0.0040293
0.0063153
0.00129317
0.0142732
0.0065272
0.00222232
0.0131101
0.00253884
0.00805109
0.00589857
0.0115101
0.00125938
0.0017115
0.00385331
0.0125426
0.0124745
0.0167136
0.0012477
0.00132579
0.00906199
0.00393968
0.0117104
0.00124466
0.00135316
0.00572959
0.00129859
0.0157196
0.0107581
0.00125241
0.00864438
0.00315831
0.0176399
0.00151664
0.00639763
0.00124751
0.00125353
0.0212186
0.0162061
0.0153626
0.00152497
0.00129467
0.00186117
0.0161208
0.00573976
0.0112595
0.0174637
0.0149967
0.0183123
0.0038622
0.0200452
0.0182542
0.012133
0.0159882
0.0121135
0.00148246
0.0041867
0.00125142
0.00127144
0.0105989
0.00296079
0.00310961
0.00146956
0.0024646
0.0151787
0.0102611
0.00288221
0.0178144
0.0142991
0.00462301
0.00124493
0.00426451
0.018702
0.0136073
0.0014524
0.0102148
0.00334895
0.00326254
0.00261795
0.0172915
0.00748818
0.00404432
0.0197133
0.00138948
0.00124249
0.00142536
0.00231487
0.00965119
0.00129573
0.00150633
0.00124571
0.00788839
0.020118
0.0184617
0.0138117
0.0121568
0.0166735
0.0156329
0.00149035
0.00813745
0.0184753
0.00124607
0.00458456
0.00124266
0.00442253
0.00782303
0.00442045
0.00165445
0.0012463
0.0164296
0.00290306
0.00124291
0.00125544
0.00125864
0.00126157
0.00985211
0.00638497
0.0186225
0.00182836
0.00124286
0.0012439
0.00124172
0.019901
0.00391128
0.001508
0.0128754
0.00595379
0.00160557
0.00124319
0.00810542
0.00124266
0.0021811
0.00392055
0.00712778
0.00275802
0.00141095
0.00173291
0.0176257
0.00498716
0.00255698
0.0155911
0.00131663
0.00124336
0.00124545
0.0197138
0.00127499
0.0154785
0.00124532
0.0126912
0.0108643
0.00271818
0.00576069
0.00580901
0.00154642
0.0134285
0.0128236
0.0026488
0.021878
0.0103261
0.0152377
0.0139347
0.0199792
0.0082907
0.0194755
0.00457114
0.00663713
0.0154249
0.0169556
0.0130532
0.0120507
0.00140834
0.0158941
0.00567663
0.018416
0.00362629
0.00133374
0.00124654
0.00129912
0.00391943
0.0102831
0.0074488
0.0061288
0.00124901
0.0188577
0.00124612
0.00706361
0.0145646
0.0190318
0.0151524
0.0167173
0.00165608
0.00147297
0.00158372
0.00860093
0.00219996
0.00596952
0.00937662
0.0106261
0.0191679
0.0176421
0.0157928
0.00131319
0.0168761
0.0182787
0.00274955
0.00125433
0.0182189
0.0186729
0.00127865
0.0114087
0.00125531
0.0101434
0.0173429
0.0112026
0.0198914
0.00530054
0.0191041
0.00127568
0.0192815
0.00139113
0.0172355
0.0185105
0.0116549
0.0169995
0.0129815
0.00830858
0.0107414
0.00147034
0.00374409
0.00132391
0.00205556
0.00128611
0.00695757
0.0013845
0.0192345
0.00124363
0.00125584
0.00176501
0.00944509
0.00513328
0.014276
0.00147009
0.0198761
0.00778829
0.017757
0.00606275
0.01673
0.0100512
0.00129934
0.0170749
0.018636
0.00124996
0.018445
0.015142
0.00124433
0.00124178
0.00884426
0.00183783
0.0127086
0.00156127
0.0069057
0.00364913
0.00977425
0.0160767
0.0189497
0.016299
0.0176219
0.0175831
0.00140802
0.00130572
0.00897627
0.0111331
0.0152607
0.0108022
0.0177702
0.004546
0.018711
0.0186748
0.0067696
0.00284494
0.0158901
0.0151536
0.00132613
0.0189831
0.0138919
0.0014484
0.0192469
0.0171929
0.0159206
0.00342772
0.00461511
0.0129892
0.00165684
0.015412
0.00153866
0.00315448
0.00125176
0.0117476
0.00278979
0.0086045
0.00156765
0.00136859
0.00903087
0.00864598
0.00161206
0.00275607
0.0104986
0.00276317
0.00131749
0.0166103
0.00898228
0.0132777
0.00771568
0.00350686
0.0119937
0.018099
0.0189742
0.00636716
0.0120784
0.0162809
0.00602505
0.0145653
0.0192901
0.000411608
0.00608719
0.0122979
0.0012974
0.00308791
0.00782786
0.012376
0.00277598
0.0218714
0.00411508
0.0108115
0.00616654
0.00168125
0.00124496
0.00101156
0.0164705
0.0174487