/*--------------------------------*- C++ -*----------------------------------*\
| =========                 |                                                 |
| \\      /  F ield         | OpenFOAM: The Open Source CFD Toolbox           |
|  \\    /   O peration     | Version:  2.3.1                                 |
|   \\  /    A nd           | Web:      www.OpenFOAM.org                      |
|    \\/     M anipulation  |                                                 |
\*---------------------------------------------------------------------------*/
FoamFile
{
    version     2.0;
    format      ascii;
    class       volScalarField;
    location    "0.23";
    object      epsilon;
}
// * * * * * * * * * * * * * * * * * * * * * * * * * * * * * * * * * * * * * //

dimensions      [0 2 -3 0 0 0 0];

internalField   nonuniform List<scalar> 
9648
(
2435.96
2420.22
2417.18
2408.24
2393.41
2373.51
2348.59
2318.27
2282.6
2241.8
2196.31
2146.49
2093.35
2037.97
1981.21
1924.01
1867.41
1812.3
1759.26
1708.7
1661.05
1616.53
1575.21
1537.21
1502.51
1470.97
1442.47
1416.88
1394.1
1373.96
1356.36
1341.14
1328.18
1317.28
1308.3
1301.1
1295.55
1291.64
1289.39
1288.75
1289.69
1292.17
1296.14
1301.51
1308.3
1316.57
1326.32
1337.54
1350.35
1364.92
1381.22
1399.26
1419.24
1441.09
1464.67
1489.65
1515.64
1542.12
1568.38
1593.91
1618.42
594.748
584.836
574.847
565.601
559.618
556.964
556.972
558.708
562.541
568.007
574.816
582.282
589.999
597.635
604.915
611.547
617.424
622.573
627.032
630.779
633.943
636.607
638.837
640.761
642.507
644.134
645.69
647.245
648.878
650.638
652.551
654.66
656.992
659.529
662.293
665.328
668.629
672.212
676.112
680.348
684.907
689.758
694.873
700.278
705.962
711.973
718.314
724.939
731.814
738.909
746.211
753.661
761.2
768.854
776.467
784.013
791.333
798.55
805.531
812.219
818.584
238.345
241.814
247.664
255.89
266.136
278.154
291.932
307.07
323.476
340.653
358.363
376.152
393.693
410.684
426.877
442.088
456.2
469.172
480.991
491.678
501.289
509.881
517.551
524.394
530.513
535.992
540.914
545.365
549.419
553.152
556.629
559.907
563.022
565.997
568.862
571.611
574.28
576.898
579.5
582.163
584.886
587.662
590.464
593.251
596.04
598.826
601.615
604.406
607.186
609.937
612.65
615.306
617.863
620.376
622.73
625.027
627.172
629.31
631.277
633.121
634.835
139.208
150.032
162.421
176.515
192.249
209.509
228.116
247.785
268.212
289
309.811
330.276
350.1
369.017
386.829
403.381
418.591
432.426
444.891
456.026
465.886
474.544
482.097
488.645
494.302
499.173
503.352
506.931
509.981
512.582
514.814
516.745
518.459
520.005
521.39
522.63
523.689
524.582
525.4
526.172
526.992
527.853
528.706
529.565
530.388
531.196
531.998
532.787
533.581
534.364
535.113
535.851
536.548
537.219
537.814
538.397
538.963
539.504
540.001
540.463
540.927
106.773
120.684
136.24
153.456
172.244
192.431
213.744
235.853
258.394
280.951
303.158
324.66
345.184
364.501
382.454
398.907
413.811
427.164
438.991
449.363
458.348
466.023
472.502
477.89
482.323
485.919
488.786
491.017
492.681
493.862
494.631
495.086
495.309
495.364
495.298
495.072
494.698
494.171
493.498
492.803
492.092
491.396
490.757
490.127
489.531
488.946
488.356
487.78
487.21
486.661
486.114
485.566
485.024
484.479
483.927
483.37
482.834
482.294
481.735
481.169
480.602
95.2989
111.302
129.12
148.657
169.701
192.015
215.251
239.019
262.908
286.468
309.332
331.137
351.658
370.688
388.142
403.87
417.859
430.156
440.795
449.899
457.551
463.815
468.843
472.726
475.635
477.707
479.045
479.771
479.933
479.623
478.939
477.925
476.7
475.322
473.785
472.174
470.469
468.658
466.835
464.924
463.003
461.103
459.197
457.415
455.696
454.037
452.428
450.838
449.296
447.788
446.314
444.861
443.427
442.011
440.604
439.237
437.902
436.572
435.234
433.898
432.551
92.5608
110.363
130.101
151.569
174.418
198.374
223.009
247.897
272.62
296.635
319.648
341.229
361.258
379.525
396.096
410.712
423.415
434.336
443.466
451.032
457.133
461.769
465.194
467.416
468.688
469.158
468.913
468.123
466.784
465.022
462.937
460.562
458.009
455.299
452.446
449.477
446.531
443.611
440.689
437.844
434.951
432.005
429.148
426.375
423.729
421.215
418.749
416.356
414.019
411.744
409.524
407.34
405.205
403.068
400.96
398.903
396.892
394.926
392.95
390.948
388.964
93.9632
113.401
134.843
157.967
182.258
207.424
233.034
258.635
283.798
307.854
330.637
351.545
370.693
387.784
403.239
416.491
427.665
437.043
444.427
450.268
454.705
457.552
459.343
459.788
459.355
458.194
456.342
454.092
451.264
448.054
444.657
440.945
437.169
433.297
429.203
425.057
420.965
416.814
412.929
409.132
405.319
401.527
397.771
394.19
390.707
387.404
384.188
381.057
378.007
375.053
372.169
369.347
366.57
363.774
361.025
358.372
355.74
353.215
350.643
348.028
345.501
97.2107
117.918
140.852
165.166
190.711
216.658
242.78
268.95
294.095
318.047
340.255
360.384
378.272
393.905
408.057
419.866
429.45
437.16
443.014
447.159
449.716
450.734
450.653
449.499
447.436
444.512
441.189
437.543
433.137
428.551
423.735
418.817
414.07
409.046
403.721
398.648
393.35
388.014
383.088
378.182
373.35
368.393
364.011
359.598
355.219
351.311
347.217
343.485
339.535
335.881
332.126
328.708
325.361
321.848
318.442
315.339
311.98
309.176
305.964
302.63
299.667
1642.12
1664.94
1686.62
1707.17
1726.84
1746.09
1765.1
1784.22
1802.17
1819.2
1835
1850.11
1864.83
1879.59
1894.58
1910.52
1928.02
1947.6
1969.59
1994.37
2021.5
2050.41
2080.7
2111.99
2143.98
2176.68
2210.08
2244.01
2278.42
2313.32
2348.9
2385.04
2421.74
2459.17
2497.33
2536.13
2575.67
2616.1
2657.47
2699.65
2742.66
2786.74
2831.87
2877.9
2925.15
2973.49
3022.8
3073.13
3124.67
3177.49
3231.5
3286.57
3343.28
3401.2
3460.72
3521.61
3584.63
3649.78
3717.07
3786.41
3857.91
824.624
830.776
836.726
842.412
847.872
853.238
858.672
864.045
869.375
874.466
879.537
884.533
889.564
894.621
899.715
904.903
910.202
915.652
921.235
926.918
932.653
938.381
944.083
949.738
955.329
960.821
966.146
971.302
976.28
981.104
985.79
990.312
994.69
998.945
1003.07
1007.07
1010.97
1014.76
1018.44
1022.01
1025.49
1028.9
1032.21
1035.42
1038.56
1041.61
1044.55
1047.39
1050.14
1052.81
1055.37
1057.83
1060.19
1062.6
1064.83
1067.16
1069.45
1071.96
1074.36
1076.84
1079.46
636.531
638.175
639.854
641.499
643.117
644.625
646.186
647.696
649.136
650.448
651.722
652.956
654.218
655.447
656.644
657.807
658.93
660.01
661.035
661.992
662.865
663.656
664.352
664.951
665.448
665.842
666.123
666.29
666.334
666.264
666.069
665.753
665.321
664.768
664.11
663.341
662.465
661.479
660.385
659.18
657.869
656.458
654.952
653.337
651.625
649.804
647.86
645.788
643.594
641.279
638.816
636.255
633.554
630.746
627.747
624.666
621.499
618.258
614.935
611.567
608.218
541.364
541.795
542.19
542.578
542.936
543.254
543.533
543.797
543.967
544.053
544.085
544.073
543.996
543.839
543.634
543.364
543.031
542.625
542.14
541.567
540.909
540.164
539.337
538.421
537.413
536.306
535.105
533.806
532.407
530.911
529.316
527.616
525.812
523.912
521.922
519.841
517.671
515.409
513.05
510.599
508.061
505.447
502.762
500.013
497.199
494.318
491.35
488.294
485.143
481.917
478.585
475.157
471.647
468.039
464.305
460.452
456.528
452.518
448.452
444.37
440.3
480.035
479.436
478.808
478.149
477.456
476.704
475.916
475.126
474.318
473.453
472.554
471.612
470.609
469.551
468.434
467.253
466.039
464.754
463.397
461.965
460.463
458.896
457.271
455.591
453.848
452.036
450.153
448.198
446.177
444.09
441.933
439.693
437.372
434.975
432.513
429.987
427.394
424.725
421.976
419.149
416.258
413.307
410.316
407.296
404.255
401.192
398.073
394.924
391.707
388.447
385.121
381.718
378.261
374.733
371.112
367.391
363.587
359.695
355.781
351.853
347.932
431.212
429.859
428.496
427.086
425.648
424.176
422.656
421.134
419.574
417.985
416.354
414.7
413.007
411.263
409.475
407.654
405.806
403.896
401.92
399.879
397.782
395.64
393.468
391.274
389.041
386.761
384.435
382.061
379.658
377.225
374.76
372.236
369.656
367.014
364.337
361.622
358.851
356.028
353.132
350.165
347.142
344.07
340.974
337.88
334.805
331.762
328.692
325.634
322.547
319.474
316.363
313.192
310.001
306.745
303.444
300.018
296.528
292.961
289.404
285.808
282.238
386.994
385.03
383.056
381.065
379.035
376.958
374.849
372.749
370.614
368.429
366.23
364.025
361.786
359.521
357.21
354.886
352.563
350.191
347.753
345.241
342.675
340.089
337.491
334.91
332.319
329.692
327.035
324.342
321.659
318.993
316.365
313.7
311.021
308.294
305.573
302.832
300.031
297.198
294.302
291.341
288.319
285.23
282.123
279.031
275.978
273.03
270.061
267.173
264.277
261.489
258.705
255.842
252.993
250.088
247.18
244.097
241.002
237.797
234.683
231.501
228.371
342.971
340.495
338.007
335.555
333.073
330.599
328.065
325.604
323.111
320.506
317.907
315.349
312.746
310.119
307.411
304.734
302.133
299.492
296.788
293.938
291.01
288.105
285.184
282.305
279.488
276.635
273.755
270.78
267.832
264.966
262.276
259.569
256.941
254.284
251.71
249.154
246.464
243.711
240.948
238.175
235.299
232.297
229.272
226.248
223.244
220.459
217.591
214.903
212.202
209.783
207.429
204.924
202.476
199.967
197.518
194.782
192.116
189.281
186.685
183.969
181.356
296.466
293.505
290.379
287.596
284.65
282.124
279.276
276.822
274.335
271.63
268.917
266.45
263.75
261.07
258.094
255.096
252.444
249.89
247.351
244.543
241.32
238.322
235.242
232.13
229.193
226.308
223.535
220.422
217.099
213.963
211.235
208.496
205.992
203.536
201.441
199.416
197.063
194.426
191.88
189.532
187.118
184.327
181.462
178.651
175.748
173.227
170.371
167.892
165.277
163.354
161.539
159.393
157.441
155.404
153.525
151.089
148.884
146.348
144.322
142.112
140.129
3932.67
4010.19
4089.81
4171.49
4255.65
4343.17
4433.46
4526.41
4621.7
4719.6
4820.56
4922.98
5030.25
5149.33
5291.84
5416.62
5544.82
5675.72
5809.2
5945.21
6084.01
6225.59
6369.58
6516.17
6665.08
6815.59
6967.41
7120.28
7274
7427.66
7581.19
7733.93
7885.02
8033.82
8179.81
8321.56
8457.95
8586.36
8697.22
8778.53
8833.13
8862.29
8865.72
8841.59
8788.26
8703.23
8582.46
8421.29
8215.4
7960.19
7649.45
7276.36
6835.81
6320.08
5710.97
4744.93
4322.54
4112.13
4030.69
3993.7
3915.81
1082.35
1085.36
1088.6
1091.92
1095.34
1099
1103.2
1107.81
1112.89
1118.33
1123.6
1125.34
1127.56
1131.21
1135.72
1141.5
1147.14
1152.74
1158.49
1164.48
1170.72
1177.22
1183.96
1190.96
1198.2
1205.65
1213.37
1221.37
1229.71
1238.43
1247.59
1257.25
1267.54
1278.57
1290.46
1303.45
1317.75
1333.65
1354.05
1384.68
1421.23
1460.37
1502.75
1548.48
1598.22
1652.31
1710.8
1773.96
1842.06
1914.64
1990.8
2068.88
2147.21
2224.82
2294.31
2360.34
2419.51
2507.19
2612.22
2719.99
2677.81
604.861
601.525
598.17
594.804
591.386
587.992
584.7
581.545
578.417
575.365
570.839
564.601
559.29
554.649
550.581
547.031
543.431
539.693
535.887
532.063
528.256
524.461
520.674
516.894
513.122
509.357
505.61
501.887
498.209
494.576
491.009
487.531
484.155
480.927
477.874
475.046
472.49
470.279
468.625
467.955
468.665
473.859
482.623
494.705
510.576
530.897
556.389
588.077
626.957
674.099
730.509
796.963
874.641
963.923
1064.74
1174.07
1282.48
1400.93
1545.75
1732.24
1922.53
436.247
432.222
428.21
424.193
420.13
416.064
412.034
408.076
404.043
399.924
394.334
388.222
382.86
377.971
373.488
369.298
365.137
360.945
356.73
352.523
348.329
344.133
339.942
335.761
331.588
327.435
323.303
319.196
315.116
311.066
307.05
303.073
299.147
295.283
291.492
287.792
284.205
280.746
277.448
274.373
271.616
269.497
268.82
269.762
272.302
276.79
283.693
293.671
307.571
326.418
351.626
384.513
426.731
479.407
543.246
616.35
694.465
778.986
878.171
1005.6
1165.31
344.041
340.228
336.45
332.661
328.806
324.948
321.09
317.284
313.397
309.327
304.19
298.951
294.251
289.932
285.873
282.016
278.206
274.445
270.713
267.026
263.368
259.692
256.03
252.389
248.761
245.159
241.585
238.04
234.516
231.016
227.541
224.096
220.687
217.324
214.015
210.77
207.601
204.518
201.532
198.661
195.932
193.413
191.25
189.839
189.172
189.337
190.559
193.141
197.518
204.235
214.089
228.09
247.438
273.398
306.997
348.383
396.132
449.722
511.369
586.579
681.736
278.672
275.243
271.859
268.485
264.974
261.465
257.93
254.484
250.97
247.303
242.858
238.494
234.516
230.869
227.369
224.013
220.68
217.46
214.302
211.225
208.186
205.105
202.054
199.044
196.044
193.084
190.144
187.238
184.339
181.459
178.59
175.75
172.938
170.169
167.446
164.781
162.18
159.653
157.201
154.837
152.573
150.433
148.459
146.744
145.532
144.712
144.408
144.743
145.926
148.236
152.046
157.881
166.418
178.43
194.801
216.104
242.459
273.915
311.061
355.509
410.349
225.157
222.151
219.203
216.318
213.176
210.066
206.875
203.865
200.812
197.716
193.953
190.375
187.059
184.093
181.148
178.332
175.477
172.812
170.215
167.72
165.27
162.722
160.25
157.864
155.47
153.132
150.791
148.494
146.173
143.869
141.554
139.279
137.028
134.831
132.67
130.571
128.526
126.551
124.641
122.812
121.066
119.426
117.902
116.53
115.398
114.591
114.057
113.861
114.105
114.924
116.507
119.107
123.046
128.758
136.719
147.427
161.298
178.651
199.936
225.915
257.844
178.484
175.9
173.413
171.09
168.335
165.659
162.81
160.293
157.757
155.32
152.171
149.272
146.522
144.209
141.761
139.491
137.071
134.95
132.872
130.886
128.962
126.848
124.892
123.132
121.302
119.524
117.693
115.949
114.115
112.303
110.443
108.673
106.916
105.249
103.595
102.016
100.462
98.9831
97.5607
96.2313
94.9738
93.8242
92.7847
91.8513
91.06
90.5268
90.1602
89.9869
90.0714
90.4847
91.3257
92.7166
94.8281
97.8579
102.058
107.715
115.129
124.634
136.594
151.499
169.998
137.57
135.344
133.334
131.657
129.283
127.068
124.52
122.571
120.581
118.838
116.219
113.884
111.549
109.872
107.8
106.096
104.02
102.455
100.828
99.2061
97.7273
95.9022
94.4119
93.3728
92.0126
90.6445
89.1693
87.9391
86.4289
84.9917
83.4147
82.1194
80.7698
79.5971
78.348
77.2164
75.9943
74.9034
73.8804
72.9837
72.1636
71.4426
70.8433
70.3294
69.8516
69.4881
69.3134
69.2476
69.3994
69.6949
70.3735
71.3525
72.8383
74.7949
77.4364
80.7983
85.1726
90.6538
97.6338
106.374
117.221
3773.16
3617.18
3451.18
3277.87
3106.43
2941.9
2787.01
2645.3
2519.83
2412.14
2322.34
2249.29
2191.53
2147.15
2113.81
2089.38
2072.04
2060.43
2053.32
2049.66
2048.86
2050.4
2053.86
2059.13
2066.14
2074.69
2084.65
2096
2108.77
2122.8
2138.01
2154.3
2171.5
2189.32
2207.58
2225.93
2244.01
2261.46
2278.02
2293.32
2306.9
2318.54
2328.09
2335.44
2340.77
2344.46
2346.76
2348.06
2349.05
2350.58
2353.04
2356.63
2361.82
2368.7
2376.89
2386.01
2395.68
2405.85
2415.49
2423.59
2429.7
2480.93
2271.11
2067.06
1871.85
1702.88
1548.78
1408.35
1281.76
1168.81
1069.78
984.451
911.947
851.023
800.052
758.573
725.644
699.786
679.223
662.655
649.179
638.198
629.24
621.999
616.259
611.876
608.787
606.897
606.164
606.529
607.966
610.474
614.02
618.587
624.127
630.566
637.787
645.665
654.071
662.814
671.654
680.276
688.293
695.213
700.513
703.727
704.426
702.286
697.241
689.56
679.825
668.834
657.542
646.939
637.793
630.348
624.769
620.586
617.248
613.494
608.356
601.784
2008.66
1992.71
1887.49
1708.03
1524.97
1349.57
1181.36
1030.2
896.791
779.695
679.34
594.925
524.969
468.033
423.028
388.142
360.899
338.929
321.122
306.753
295.131
285.687
277.967
271.623
266.397
262.12
258.669
255.954
253.906
252.478
251.634
251.361
251.631
252.396
253.618
255.247
257.23
259.504
261.997
264.613
267.24
269.745
271.981
273.756
274.879
275.127
274.291
272.204
268.799
264.109
258.349
251.961
245.515
239.651
234.854
231.614
230.052
230.049
231.165
233.049
235.484
1331.22
1477.83
1573.63
1589.11
1518
1390.95
1222.94
1053.15
898.262
756.75
634.038
531.927
448.032
380.909
328.265
287.217
255.08
229.39
208.835
192.491
179.542
169.306
161.207
154.757
149.569
145.352
141.908
139.101
136.836
135.038
133.663
132.68
132.054
131.735
131.675
131.824
132.134
132.555
133.029
133.497
133.89
134.143
134.185
133.945
133.356
132.358
130.909
128.984
126.601
123.793
120.652
117.357
114.171
111.431
109.51
108.87
109.823
112.432
116.605
122.361
129.839
797.928
932.647
1074.95
1201.69
1282.96
1301.34
1252
1147.37
1012.07
860.105
714.953
591.161
485.309
399.013
330.829
276.944
234.594
201.219
174.818
154.089
137.933
125.454
115.864
108.454
102.658
98.0558
94.3696
91.407
89.0316
87.1301
85.6359
84.5096
83.7053
83.1677
82.8433
82.6822
82.6357
82.6553
82.693
82.6965
82.6115
82.3876
81.977
81.3365
80.429
79.2307
77.7385
75.9666
73.94
71.7142
69.3769
67.066
64.9959
63.4391
62.7226
63.2259
65.4098
69.5402
75.8267
84.1941
94.5323
478.575
563.246
665.309
780.993
898.376
1000.07
1066.1
1080.9
1041.82
956.635
841.96
717.181
592.097
482.438
393.334
320.078
261.987
215.993
179.186
150.446
128.391
111.76
99.3417
90.0173
82.9123
77.4006
73.0718
69.6654
66.9869
64.8697
63.216
61.9692
61.0711
60.4549
60.0602
59.8336
59.7239
59.6849
59.6704
59.6326
59.5225
59.2992
58.9213
58.3559
57.5704
56.5505
55.2968
53.8295
52.1692
50.3638
48.487
46.6585
45.0599
43.9456
43.6589
44.6525
47.3908
52.2827
59.5759
69.2603
81.2156
297.413
346.818
408.347
483.505
571.463
667.77
762.791
842.617
892.812
902.55
869.219
799.889
706.719
603.654
502.782
408.196
329.791
266.104
213.055
171.345
139.437
115.823
98.6574
86.0644
76.657
69.4775
63.9629
59.7194
56.4521
53.9077
51.9393
50.4613
49.3985
48.6636
48.1845
47.899
47.7516
47.6945
47.6816
47.6666
47.6022
47.455
47.1847
46.7639
46.1569
45.3573
44.3623
43.1945
41.8643
40.4184
38.9167
37.4657
36.2266
35.4302
35.4202
36.6469
39.6425
44.9397
52.9105
63.6125
76.9015
193.03
221.785
257.794
302.655
357.7
423.229
497.676
576.27
651.267
711.968
747.727
751.895
724.372
669.408
595.848
512.09
428.056
349.287
275.572
216.085
169.113
134.646
110.196
92.5559
79.5268
69.6829
62.1975
56.5412
52.2995
49.0399
46.5418
44.6673
43.319
42.3744
41.7433
41.3473
41.1228
41.0161
40.9806
40.9679
40.9301
40.8421
40.663
40.3687
39.9161
39.307
38.5316
37.6176
36.5649
35.4187
34.2306
33.0992
32.1692
31.6544
31.882
33.2977
36.5044
42.1324
50.6958
62.3287
76.8524
130.837
147.727
168.82
195.359
228.392
268.959
317.497
373.594
434.92
497.552
553.725
597.313
621.859
624.38
603.106
560.114
501.192
430.732
358.078
284.828
217.82
168.775
134.431
109.63
91.0153
76.9916
66.3635
58.5027
52.7304
48.324
44.9885
42.4737
40.6676
39.3832
38.5046
37.9202
37.5575
37.3458
37.2441
37.1884
37.1394
37.0733
36.9539
36.7499
36.4188
35.96
35.3692
34.6634
33.8458
32.9495
32.0321
31.1819
30.5427
30.3075
30.7846
32.429
35.8628
41.8048
50.8598
63.2961
78.8042
1.12025
203.132
181.024
2.9905
1.57344
0.191365
0.000732646
98.5468
0.000786815
0.0144937
105.11
6.73796
0.000732054
256.662
0.156088
133.599
0.000755083
101.429
129.714
0.000743597
3.19084
246.636
191.916
0.000773657
0.000773376
0.2101
0.000741628
8.30301
0.000751184
0.000808432
4.58714
0.00098
0.00876323
77.5128
3.82031
123.238
82.563
15.5156
0.000727981
46.1315
65.7469
24.92
0.000742166
101.111
195.944
0.69038
0.000851699
0.00809046
2.58269
6.96428
378.589
350.971
0.000722782
0.00103398
0.0740336
0.213655
0.000805285
9.34943
69.1204
276.816
143.392
0.00088662
2.24929
0.0244224
194.832
4.10398
47.7762
69.5535
0.00115713
0.000747334
6.42991
40.4502
56.5103
0.106113
0.0543586
91.2487
220.869
54.5334
0.00071566
5.26296
0.00225671
50.2261
0.018203
108.661
0.00074961
8.48246
0.00078274
43.412
0.0126926
0.0013303
0.215989
0.000713371
0.000912945
300.883
139.241
0.00085073
1.53183
1.22947
0.00185272
204.899
2.05088
27.9937
5.92511
0.000711329
0.000728336
0.000718963
1.42084
0.207082
0.000753102
171.383
220.503
0.00550697
259.357
31.6644
118.467
63.4416
35.4421
0.000996454
0.105313
0.00107562
0.00198862
213.123
0.0025017
285.564
410.304
32.1567
0.000744855
6.78429
6.64988
0.000742819
0.029981
0.0263162
94.324
0.00173333
74.0822
0.00074739
0.000726804
391.226
344.302
0.000746362
0.468147
146.131
0.232482
0.89618
31.4329
111.674
0.485205
32.8523
0.00505742
272.402
11.2313
0.296037
48.6201
106.254
185.202
0.000758336
0.000750206
0.492005
0.000822934
51.06
0.165321
0.00144602
0.000745008
0.00074602
0.000758358
39.4727
73.456
34.7547
0.000817086
289.201
324.477
407.893
168.372
0.00700301
183.503
54.9969
34.7617
0.000745599
0.00162011
198.408
77.2356
25.5587
68.8754
0.000743353
0.000829473
262.538
0.0289511
2.42362
0.000756257
0.000843085
0.169934
0.000807219
325.02
3.76287
0.000803359
0.646519
93.5308
132.887
0.00121656
64.2238
0.00074459
0.000747785
100.232
31.6675
298.602
0.00123434
0.000789874
0.00303944
40.1698
89.4044
9.75628
115.25
10.3989
230.044
0.850632
84.7613
80.3167
23.1057
10.3529
46.1892
0.00136671
0.0284215
0.000745543
0.000935918
35.4388
0.00969081
0.0112527
0.00171246
0.00636614
46.6082
219.228
0.0111293
162.054
7.1517
1.61992
0.000732697
0.415911
37.3278
6.91859
0.00108649
9.18668
39.2198
0.911159
5.3478
269.313
7.60015
5.20081
120.916
0.000958272
0.000729429
0.00099658
0.00434378
35.3012
0.000775741
0.00210254
0.000727137
1.74327
67.576
86.2006
56.7561
12.6054
11.0026
320.695
0.0011652
58.2602
96.6618
0.000742759
100.3
0.000749259
336.903
1.74228
64.9878
0.00148318
0.000747031
19.7822
8.11344
0.000759448
0.000747571
0.000752065
0.000751162
1.15195
36.1451
43.3401
0.0123872
0.00076029
0.000726721
0.000711831
102.875
0.79598
0.00114851
17.749
0.113358
0.117975
0.000715614
0.778219
0.000760072
0.068936
48.2539
294.929
4.8914
0.000983031
0.00180875
55.2444
0.309284
133.346
318.916
0.000828817
0.000739462
0.000734075
154.689
0.000766814
129.764
0.000748607
22.2947
13.4973
0.0248944
162.887
244.982
0.00122794
57.894
54.3284
90.8699
87.3377
4.92527
341.867
45.1662
63.8503
151.412
93.2516
56.7123
0.321779
331.753
277.625
71.3096
39.5516
0.00107929
266.582
147.699
228.404
0.0181922
0.000851474
0.00074453
0.000800969
0.720984
1.50708
4.52686
0.119107
0.000731231
167.462
0.000745216
31.7863
22.4031
190.487
33.9495
17.9728
0.00184334
0.00108014
0.593759
103.115
0.0042445
8.17528
280.898
44.1688
82.4494
184.398
61.9445
0.000809623
280.836
138.181
97.9361
0.000747925
187.685
148.771
0.000774287
36.0609
0.000748902
402.661
173.982
33.5708
79.9213
134.749
146.669
0.000770564
146.248
0.000939369
76.6958
79.7808
34.6548
277.146
3.44548
0.482366
2.5324
0.00107813
446.172
2.12359
0.00282945
0.00235863
278.648
0.000929326
90.9998
0.000742218
0.000747534
0.00185443
31.8211
0.17808
20.7364
0.00170281
81.9967
0.292918
210.213
283.596
37.0035
352.53
0.00080987
277.241
41.2765
0.000740067
77.194
24.5948
0.00071981
0.000729357
126.908
0.00208227
21.3951
0.587395
93.6373
0.0169675
3.20458
38.0876
111.948
31.717
72.4689
67.3372
0.00108414
0.043525
36.2977
18.0272
327.981
352.306
132.017
0.0801513
121.13
120.056
3.42306
94.5414
44.0094
24.9002
0.000873031
82.7407
377.741
0.00105044
91.2834
18.5371
44.6129
0.0144404
0.0843083
279.291
0.00184913
323.825
0.0012149
1.92328
0.000738455
7.69162
172.293
0.54112
0.00128949
0.000931202
90.8855
31.7131
0.125746
6.24729
311.064
547.52
0.00168163
11.2087
32.3728
84.4418
30.7793
454.913
35.1059
156.351
50.6675
6.22467
4.93732
299.825
54.7217
349.689
169.733
0.944436
197.733
70.68
0.000806731
95.1542
34.8366
13.6007
0.00998685
94.7841
45.6097
3.89414
53.6813
0.00159296
0.000746198
0.341727
24.2125
97.185
83.7639
0.000749265
0.00073547
0.000741757
33.9974
0.0297605
0.000744297
0.23052
86.2066
294.657
0.00428534
0.00439201
0.000727051
0.000738782
0.00186278
29.7944
102.21
17.7606
1.86915
289.694
396.652
0.00152183
53.3679
34.4819
34.4964
74.2066
434.647
0.000828055
0.00434882
0.000747652
402.523
0.722904
0.00072834
10.1031
0.335939
298.349
0.000759061
316.603
8.306
0.0540682
199.5
0.000744624
0.000733605
0.00102877
398.818
51.8429
127.997
338.382
7.42287
36.0028
0.000717485
0.00179115
0.598925
0.00624382
0.0156712
179.647
49.8141
0.000745839
25.8538
55.9232
180.062
401.429
0.00276592
404.934
0.00179059
0.0205277
172.334
0.00073655
144.461
0.000758337
0.000781981
0.0235218
40.5075
2.84882
325.5
62.398
0.000881026
34.9008
507.119
0.0925727
3.09168
9.43016
0.000767489
0.000754805
0.00228101
133.781
5.68932
0.000805016
263.449
293.745
213.227
0.186659
71.7003
0.00111826
28.9819
0.421367
0.125432
134.903
37.6962
152.478
171.91
0.000764282
0.000719108
0.00452011
78.5084
98.4154
5.61022
0.00634684
0.000769553
0.000745745
0.00334909
0.253167
0.0020324
84.9656
21.0011
0.0050466
31.0454
168.913
0.000757999
44.9993
0.000742403
2.85796
0.000762432
0.0127896
31.4185
0.0111814
0.000744316
3.84064
356.508
254.149
0.000736195
0.00074549
1.46965
0.343416
0.000746617
89.5443
0.000885703
40.5704
370.724
28.9446
90.3975
297.991
142.426
332.71
0.000744382
0.00250253
0.0127624
296.369
62.2331
193.693
2.27926
4.823
103.294
191.563
119.14
2.22547
40.2721
0.00074921
1.39985
49.8513
32.2791
317.56
22.8613
0.77353
40.4074
0.205068
0.0143752
49.8643
0.000747515
173.413
0.000883383
2.81253
290.577
190.558
2.82643
0.00242251
7.20915
0.000761467
0.000735817
0.183417
0.0129563
64.3199
0.00820691
34.886
0.000749643
0.0179867
0.000727398
93.7565
0.00229241
91.034
303.794
0.0137076
169.454
371.578
0.000752702
100
246.987
0.000798624
285.141
0.359752
0.000867606
0.000788625
273.601
0.000731995
0.00109943
0.116587
0.217732
433.053
267.459
0.000751224
0.000746806
4.21906
26.7993
0.0068729
5.54517
21.4647
0.000746386
0.000930163
0.000897613
166.826
269.075
3.46728
292.702
0.0165496
31.4159
0.000794743
0.00674753
0.0153879
0.0450445
0.000747477
300.157
0.00074153
0.0152393
0.000763617
1.0324
0.0142197
0.083131
2.13488
5.11384
41.1787
1.82152
9.16264
34.6133
192.565
0.000808904
180.524
320.253
12.7639
73.9479
0.000762552
272.216
75.0999
0.000743731
410.113
77.0403
0.00313275
0.0801253
159.988
159.226
0.0491439
311.284
409.405
4.28968
430.486
255.855
126.554
61.7508
17.4852
33.0006
259.759
283.138
0.0137311
303.828
37.3818
411.383
0.000811428
1.58254
1.49751
223.579
160.819
0.0111855
450
193.916
7.84711
0.0657187
2.84753
35.03
0.00148869
35.0599
442.356
0.0292414
219.852
12.8968
91.6769
187.308
0.000744126
0.00167994
6.96993
5.33605
0.0143451
0.00074702
0.868191
1.9246
0.00117937
0.00075861
272.112
6.69234
49.8421
10.7345
0.00296012
0.0010517
0.0948268
97.9279
0.000811988
20.7614
35.6466
1.78175
169.675
0.000982286
0.423997
0.000739752
3.19857
85.3892
0.00221992
0.179728
49.7993
156.886
0.486878
94.3126
5.22358
0.36356
0.000977695
31.7229
324.637
0.00074277
0.000751269
145.738
0.0148757
0.000758103
71.074
5.81387
165.623
35.9589
38.6711
0.293654
16.703
210.968
154.955
266.747
0.000759075
293.374
0.000971313
30.4629
0.000831711
0.00115649
54.5983
0.00211577
260.957
0.0121102
0.0307475
45.9049
7.88025
0.728528
0.000876066
181.086
0.000867759
0.000724677
337.635
158.408
39.753
34.2093
0.000800942
0.00071709
18.4607
146.275
0.000726382
209.54
37.6762
0.000749935
167.702
0.000723347
3.55839
6.29744
10.3028
1.39933
77.4284
21.1368
0.000723297
265.509
324.689
0.000742428
0.0149613
35.5894
0.000724088
237.038
164.217
408.314
0.000743475
0.000728911
223.224
0.119976
0.000834988
31.5056
81.4472
275.961
0.00072521
0.000800841
0.0149723
0.0116074
0.000745175
0.0020546
124.091
58.1034
0.000744747
12.2703
0.000746064
10.4127
0.00111284
0.00085052
26.1799
0.000746796
0.26631
0.000731023
46.1177
2.54183
18.7676
184.026
365.004
171.321
4.90221
14.6959
0.000758195
5.36666
275.097
533.461
0.149599
0.000815245
126.848
0.000744788
0.169787
0.000725131
441.347
15.5848
3.29907
190.958
52.7393
5.18901
78.6876
7.91551
222.313
112.084
0.000767124
0.000774639
0.00299338
0.000849058
0.0137199
92.0775
0.000947179
242.352
0.00183193
0.0988768
2.85842
168.281
0.0013925
39.9811
0.0152963
49.6055
29.3181
439.152
0.000833037
0.000974553
0.688819
84.3188
67.871
64.2239
1.78758
5.83631
17.8092
0.0629803
8.16887
5.26586
38.2866
0.000750595
398.71
1.36032
54.8873
0.000777715
52.0466
16.6315
0.00202163
90.0999
16.7046
0.079685
0.000729755
0.000744105
224.3
47.372
15.4079
0.000733997
0.0092035
61.2746
186.248
6.87243
0.0056525
0.00073085
141.47
127.423
43.864
34.5072
0.000741548
117.86
432.726
0.000746632
0.000748683
18.7115
0.00109041
0.00364959
1.0552
47.8821
0.00108136
43.8014
340.403
0.000757955
0.000832667
0.00073065
0.000761312
64.9034
522.086
328.2
0.0195838
32.1836
56.7283
0.131593
43.2195
0.000869066
39.7922
0.521989
36.485
5.25765
83.0806
120.521
0.448727
0.000758425
157.81
91.9295
300.609
5.42203
35.4395
0.52836
15.8856
0.0034209
0.00128616
176.606
140.758
0.0436472
2.86557
0.000751172
0.0953619
18.793
0.0299278
13.9381
3.32391
392.285
43.5918
1.72109
274.71
137.978
64.4026
14.8675
224.648
195.237
3.1521
37.1543
0.00301484
46.5594
44.2738
0.000743065
0.000724387
0.266071
0.000746283
0.000791541
65.4076
302.344
0.000743156
94.3669
0.00074312
0.000736353
0.000736988
0.000767608
0.00177168
35.0274
40.2292
247.478
0.000732945
0.000937565
6.335
0.000838449
0.0282516
0.000762662
0.000865264
187.394
0.000960349
0.00458645
187.543
0.00409852
0.000748419
211.463
0.00074408
0.000756819
3.06214
0.000853867
4.9005
0.00127907
0.0227231
0.000743573
0.0007547
299.93
416.766
40.8538
0.024451
131.043
15.2977
0.0013414
33.1582
313.893
233.154
481.771
0.000786341
21.9694
56.3467
0.248797
35.4243
101.599
0.343238
37.3478
1.75883
35.6245
0.526374
7.20217
0.000757323
214.058
0.000863204
35.9964
30.9688
0.000747154
0.891962
0.00232095
0.0107382
0.00073251
3.73326
0.000874467
0.000745748
46.9924
0.0707786
0.156127
228.736
153.748
0.000837836
0.000986126
29.245
257.76
0.000739682
0.000750962
0.221793
24.3474
144.914
0.0021041
15.0853
0.000743683
0.000806666
0.000723635
0.0270586
24.4888
0.00412042
279.693
35.1718
256.304
169.192
0.000827536
294.785
64.8261
0.000733662
0.000753963
0.000750409
0.00115974
0.000739259
142.504
0.00074502
0.000746449
359.263
1.13199
0.00252944
0.0133322
73.2372
7.42197
0.0120171
0.000813747
183.55
0.00076259
8.74797
0.000759742
0.000831459
160.485
156.622
0.00323264
0.000870537
4.37637
0.000743721
376.509
0.000756777
144.83
0.0190749
8.69582
0.121132
3.31898
3.54107
30.1136
0.000760366
0.00084356
0.00461741
55.2027
0.240852
300.021
0.00074529
0.00128267
0.0016048
254.206
61.7198
278.937
0.00226201
0.00355916
0.8351
0.000750258
21.3633
37.1935
0.00842876
284.236
178.327
51.5086
0.00150329
1.37273
174.551
221.239
34.512
0.01051
143.412
0.739093
128.512
0.136999
2.16924
38.6013
0.0007619
34.7233
0.00122
0.00476288
0.00445768
0.0444631
0.000885781
10.5875
0.000744519
49.2344
0.128452
0.000867176
4.89692
0.000756635
0.720581
0.211413
48.2633
3.91063
100.689
0.737448
0.000747515
0.000728889
2.72038
0.145249
41.6119
259.133
0.000750493
158.97
35.813
0.0132589