/*--------------------------------*- C++ -*----------------------------------*\
| =========                 |                                                 |
| \\      /  F ield         | OpenFOAM: The Open Source CFD Toolbox           |
|  \\    /   O peration     | Version:  2.3.1                                 |
|   \\  /    A nd           | Web:      www.OpenFOAM.org                      |
|    \\/     M anipulation  |                                                 |
\*---------------------------------------------------------------------------*/
FoamFile
{
    version     2.0;
    format      ascii;
    class       volScalarField;
    location    "0.23";
    object      k;
}
// * * * * * * * * * * * * * * * * * * * * * * * * * * * * * * * * * * * * * //

dimensions      [0 2 -2 0 0 0 0];

internalField   nonuniform List<scalar> 
9648
(
2.72018
2.70825
2.70593
2.69941
2.68851
2.67355
2.65473
2.63187
2.60487
2.57377
2.53878
2.50031
2.45892
2.41531
2.37022
2.32443
2.27867
2.23359
2.18974
2.14758
2.10746
2.06962
2.03424
2.00141
1.97116
1.94347
1.9183
1.89557
1.87519
1.8571
1.8412
1.82741
1.8156
1.80564
1.79741
1.79079
1.78573
1.78215
1.78003
1.77939
1.78021
1.78247
1.78612
1.79109
1.79736
1.80493
1.8138
1.82407
1.83574
1.84887
1.86351
1.87973
1.89756
1.91693
1.93777
1.9598
1.98256
2.00545
2.02804
2.05003
2.07121
1.74313
1.73539
1.72879
1.72458
1.72533
1.73255
1.74749
1.77032
1.80091
1.83915
1.88441
1.93583
1.9924
2.05305
2.11676
2.1826
2.24973
2.31744
2.38514
2.45241
2.5189
2.58438
2.64872
2.71183
2.77366
2.83425
2.89364
2.95188
3.00904
3.06523
3.12063
3.17527
3.22916
3.28235
3.3348
3.38656
3.43776
3.48853
3.53902
3.58922
3.63928
3.68928
3.73906
3.78857
3.83789
3.8869
3.9356
3.98408
4.0324
4.08037
4.12776
4.1747
4.2212
4.26685
4.3119
4.35608
4.39959
4.44174
4.48279
4.52281
4.56188
1.47373
1.52023
1.56985
1.62752
1.69468
1.77067
1.85479
1.94659
2.04522
2.14992
2.25936
2.37256
2.48833
2.60551
2.723
2.8398
2.9551
3.06816
3.17842
3.28549
3.38907
3.48903
3.5853
3.67791
3.76699
3.85265
3.93511
4.01448
4.091
4.16491
4.23639
4.30573
4.37309
4.43853
4.5022
4.56408
4.62424
4.68283
4.73997
4.79617
4.8515
4.906
4.95976
5.01247
5.0642
5.1149
5.16453
5.21328
5.26095
5.30763
5.35326
5.39784
5.44159
5.4838
5.52541
5.56541
5.60455
5.64175
5.67823
5.71359
5.74787
1.43537
1.53122
1.63356
1.74454
1.86463
1.99333
2.12956
2.27209
2.41956
2.57071
2.72396
2.87804
3.03158
3.18351
3.3327
3.47821
3.61933
3.75547
3.88624
4.01138
4.13079
4.24438
4.3523
4.45475
4.55206
4.64452
4.73246
4.81619
4.89596
4.97201
5.04481
5.11465
5.18201
5.24729
5.31043
5.37164
5.43051
5.48713
5.54212
5.59556
5.64826
5.70021
5.75099
5.80093
5.84964
5.89735
5.94418
5.99004
6.03501
6.07898
6.12206
6.16389
6.2047
6.24431
6.28321
6.32089
6.35738
6.39266
6.42681
6.45988
6.49167
1.50586
1.64356
1.79046
1.94671
2.1118
2.28478
2.46414
2.64809
2.835
3.02305
3.21054
3.39587
3.57781
3.75528
3.92726
4.09276
4.2512
4.40225
4.54563
4.68138
4.80946
4.92993
5.04309
5.14926
5.24903
5.34288
5.43127
5.51458
5.59309
5.66721
5.73728
5.80395
5.86777
5.92911
5.9884
6.04523
6.09977
6.15196
6.20172
6.25029
6.29751
6.34358
6.38893
6.43298
6.47624
6.5185
6.55962
6.59989
6.63922
6.67753
6.71492
6.75121
6.78627
6.82013
6.85299
6.88493
6.91566
6.94525
6.97364
7.00068
7.02644
1.62494
1.79989
1.9864
2.18309
2.38815
2.60005
2.81682
3.0364
3.25663
3.47532
3.69064
3.9007
4.10453
4.30093
4.48942
4.66881
4.83851
4.99865
5.14893
5.28977
5.42133
5.54356
5.65713
5.76226
5.8599
5.95078
6.03536
6.11435
6.18783
6.25634
6.32062
6.38077
6.43783
6.4922
6.54366
6.59311
6.64015
6.68478
6.72811
6.76907
6.8087
6.84713
6.88375
6.92018
6.95562
6.99026
7.02424
7.05672
7.08853
7.11942
7.14929
7.17813
7.2058
7.23217
7.25749
7.28175
7.30501
7.32718
7.348
7.36726
7.38533
1.77273
1.98176
2.20441
2.43764
2.67831
2.92457
3.17391
3.42399
3.6726
3.91653
4.15445
4.38371
4.60388
4.8137
5.01388
5.20216
5.37827
5.54291
5.69538
5.83689
5.96787
6.08772
6.19796
6.29808
6.38982
6.47415
6.55151
6.62306
6.68841
6.74852
6.80404
6.85523
6.90302
6.94762
6.9892
7.02762
7.06446
7.09983
7.13306
7.16563
7.1959
7.22364
7.25076
7.27678
7.30244
7.32785
7.35199
7.37526
7.39758
7.41901
7.43962
7.4591
7.47751
7.49446
7.5101
7.52494
7.53893
7.55187
7.56321
7.57283
7.58124
1.93725
2.17733
2.43295
2.69915
2.97142
3.24725
3.52457
3.80086
4.07334
4.33801
4.59415
4.83763
5.06927
5.28707
5.49474
5.68784
5.86638
6.03216
6.18275
6.32083
6.44781
6.56145
6.66567
6.75722
6.83939
6.91388
6.98064
7.04223
7.09662
7.14519
7.18987
7.2289
7.26485
7.29804
7.32676
7.35256
7.37672
7.39786
7.4199
7.44066
7.459
7.4753
7.48922
7.50358
7.51709
7.53054
7.54294
7.55392
7.5643
7.5741
7.58297
7.59089
7.59793
7.60309
7.60693
7.61023
7.61232
7.61436
7.61423
7.61178
7.60872
2.1087
2.37401
2.65953
2.95231
3.25397
3.55389
3.8535
4.15395
4.44408
4.72693
4.99635
5.25258
5.49075
5.71194
5.9218
6.11665
6.29472
6.4587
6.60838
6.7399
6.85827
6.96328
7.05758
7.14107
7.21067
7.27116
7.32531
7.37442
7.41468
7.44971
7.48073
7.50645
7.52833
7.54694
7.56098
7.57299
7.57992
7.58472
7.59095
7.59671
7.60088
7.60076
7.60142
7.60035
7.59862
7.59867
7.59554
7.59229
7.58616
7.5804
7.57287
7.56537
7.55832
7.54912
7.53877
7.5283
7.51455
7.50517
7.49092
7.47304
7.45656
2.09139
2.1105
2.12874
2.14612
2.16272
2.17873
2.19445
2.21028
2.22513
2.23915
2.25204
2.26444
2.27647
2.28842
2.30054
2.31348
2.32764
2.34334
2.3609
2.38066
2.4022
2.42504
2.4489
2.47341
2.49829
2.52362
2.54939
2.57545
2.60171
2.62824
2.65513
2.68228
2.70971
2.73756
2.76576
2.79431
2.8233
2.8528
2.88278
2.91315
2.94401
2.97549
3.00752
3.04009
3.07331
3.107
3.14119
3.176
3.21149
3.24752
3.28414
3.32143
3.3595
3.39812
3.43762
3.47793
3.51936
3.56162
3.60507
3.64984
3.69602
4.60008
4.63624
4.67147
4.70581
4.73901
4.77069
4.80039
4.82879
4.85515
4.88079
4.90475
4.92776
4.94971
4.97063
4.99038
5.00888
5.02627
5.04252
5.05765
5.07165
5.08456
5.09641
5.10709
5.11665
5.12509
5.13234
5.13823
5.14262
5.14559
5.14712
5.14721
5.1459
5.14324
5.1392
5.13383
5.1272
5.11926
5.11011
5.09973
5.08813
5.07537
5.06149
5.04658
5.03058
5.01347
4.9952
4.97564
4.95487
4.9328
4.90947
4.88482
4.85879
4.83152
4.80256
4.77263
4.74112
4.70867
4.67481
4.64061
4.60597
4.57106
5.78053
5.81214
5.84229
5.87147
5.89961
5.92708
5.95249
5.9761
5.99786
6.01849
6.0376
6.05552
6.07211
6.08763
6.10183
6.1147
6.12625
6.13648
6.14538
6.15292
6.15919
6.16414
6.1678
6.17016
6.17122
6.17098
6.16943
6.16652
6.16223
6.1565
6.14936
6.14076
6.13071
6.11927
6.10642
6.09221
6.0766
6.05963
6.04129
6.02163
6.00071
5.97863
5.95543
5.93116
5.90577
5.8792
5.8513
5.82204
5.79134
5.75922
5.72563
5.69033
5.65342
5.61473
5.57448
5.53235
5.48856
5.4434
5.39733
5.35049
5.30304
6.5224
6.55176
6.57983
6.60641
6.63179
6.65596
6.67864
6.69933
6.71847
6.73614
6.75228
6.76684
6.77984
6.79139
6.80142
6.81003
6.81719
6.82285
6.82698
6.82961
6.83077
6.83055
6.82895
6.82601
6.82166
6.81588
6.80868
6.80005
6.79004
6.7786
6.76569
6.75124
6.73526
6.71777
6.69884
6.67847
6.6566
6.63322
6.60831
6.58196
6.55427
6.52535
6.49539
6.46446
6.43261
6.39978
6.36576
6.33049
6.2939
6.25602
6.21668
6.17575
6.13321
6.08895
6.04289
5.99484
5.94498
5.89361
5.84125
5.78795
5.73418
7.05086
7.07403
7.09571
7.11578
7.13413
7.15091
7.16624
7.18015
7.1926
7.20363
7.21314
7.22116
7.22771
7.23269
7.23618
7.23828
7.23881
7.23779
7.23514
7.23086
7.22508
7.21792
7.20948
7.1998
7.18879
7.1764
7.16266
7.1476
7.13132
7.11381
7.09504
7.07479
7.05308
7.02991
7.0054
6.97951
6.95212
6.92321
6.89267
6.86055
6.82704
6.79225
6.75648
6.71997
6.68284
6.64513
6.60644
6.56681
6.52612
6.48452
6.44163
6.39724
6.35146
6.30401
6.25478
6.20329
6.14998
6.09495
6.03895
5.98193
5.9245
7.40202
7.41734
7.43105
7.44328
7.45375
7.46251
7.46963
7.47521
7.4793
7.48183
7.48298
7.48274
7.48103
7.47778
7.473
7.46688
7.45935
7.4502
7.43929
7.42655
7.41224
7.39657
7.37973
7.36187
7.34278
7.32236
7.30065
7.2777
7.25385
7.22918
7.20369
7.17695
7.14899
7.11969
7.08936
7.05782
7.02481
6.99035
6.9542
6.91638
6.87704
6.83625
6.79448
6.75216
6.70961
6.66712
6.62386
6.58025
6.53591
6.49142
6.44596
6.39903
6.35112
6.30167
6.25073
6.19714
6.14178
6.08442
6.02653
5.96741
5.90794
7.58839
7.59419
7.59841
7.60102
7.60187
7.60095
7.59822
7.59426
7.58872
7.58137
7.57268
7.56285
7.55162
7.53884
7.52442
7.50894
7.49244
7.47434
7.45428
7.43201
7.40794
7.38261
7.35618
7.32907
7.30099
7.27149
7.24069
7.20847
7.17567
7.14265
7.10985
7.07609
7.04177
7.00632
6.97056
6.93389
6.89554
6.85587
6.81462
6.77173
6.72714
6.68065
6.63296
6.58479
6.53661
6.48956
6.4416
6.39429
6.34648
6.3001
6.25335
6.20473
6.1558
6.10544
6.05431
5.9995
5.94352
5.8849
5.82698
5.76729
5.70766
7.60421
7.59873
7.59156
7.58318
7.57305
7.56146
7.54781
7.53395
7.51869
7.50082
7.48164
7.46197
7.44083
7.41825
7.39327
7.36754
7.34215
7.31548
7.2869
7.25497
7.22044
7.18516
7.14863
7.11157
7.07445
7.03585
6.99587
6.95323
6.9097
6.86662
6.82602
6.78469
6.74437
6.70323
6.66349
6.62377
6.58108
6.53636
6.49085
6.44475
6.39648
6.34543
6.29274
6.23918
6.18542
6.13466
6.08172
6.03112
5.97968
5.93277
5.88674
5.83741
5.78866
5.73863
5.68915
5.63389
5.57877
5.51971
5.46393
5.40554
5.34822
7.43696
7.41795
7.39568
7.37438
7.35026
7.32836
7.30245
7.27915
7.25576
7.22969
7.20169
7.17399
7.14405
7.11399
7.07838
7.04042
7.00611
6.97304
6.94048
6.90296
6.85704
6.81369
6.76864
6.72113
6.67505
6.62872
6.58355
6.53234
6.47535
6.4196
6.37032
6.32007
6.27354
6.22703
6.18722
6.1495
6.10568
6.05547
6.00607
5.95976
5.91224
5.85913
5.80253
5.74565
5.68748
5.63493
5.5762
5.52267
5.46629
5.42155
5.37909
5.32955
5.28281
5.23545
5.19018
5.13494
5.08217
5.02285
4.97139
4.9165
4.86478
3.74361
3.79227
3.84221
3.89341
3.94588
3.99973
4.05485
4.11135
4.16894
4.22764
4.28761
4.34823
4.41124
4.48048
4.56271
4.63425
4.7072
4.78094
4.8555
4.931
5.00744
5.0848
5.16299
5.24195
5.32144
5.40122
5.48119
5.56115
5.6409
5.72011
5.79868
5.8763
5.95253
6.02719
6.0999
6.17011
6.23738
6.30044
6.35451
6.39395
6.42046
6.43461
6.43627
6.42473
6.39894
6.35746
6.29838
6.21938
6.11774
5.99028
5.83323
5.64214
5.41202
5.13617
4.80068
4.24282
3.98716
3.8564
3.80509
3.78185
3.73291
4.53562
4.49994
4.46357
4.42656
4.38887
4.35111
4.31301
4.27534
4.23763
4.20074
4.1634
4.1184
4.07487
4.03224
3.98558
3.9418
3.89735
3.85272
3.80833
3.76435
3.7208
3.67745
3.63423
3.59113
3.54812
3.50524
3.46252
3.42007
3.37793
3.33618
3.29495
3.25436
3.21455
3.17573
3.13817
3.10218
3.06819
3.03675
3.00874
2.98507
2.96358
2.94446
2.92813
2.91515
2.90644
2.90293
2.90562
2.91584
2.93502
2.96442
3.00526
3.05863
3.12571
3.20881
3.29713
3.43206
3.60754
3.87913
4.26339
4.76013
5.09787
5.25521
5.20704
5.1582
5.10833
5.0573
5.00559
4.9534
4.90115
4.84838
4.79597
4.73512
4.6694
4.6084
4.54966
4.4914
4.43377
4.37497
4.31522
4.25497
4.19461
4.13417
4.07344
4.0124
3.95105
3.88933
3.82727
3.76489
3.7022
3.63916
3.5758
3.51208
3.44804
3.38372
3.31914
3.25438
3.18954
3.12472
3.06003
2.99565
2.93175
2.86824
2.80481
2.74222
2.68108
2.62176
2.56484
2.51121
2.46212
2.41923
2.3847
2.36136
2.35276
2.36362
2.39945
2.46314
2.56618
2.71208
2.93152
3.26887
3.7742
4.39555
5.68014
5.62622
5.57181
5.51648
5.45971
5.40222
5.34423
5.28628
5.22759
5.16811
5.09736
5.02521
4.95857
4.8947
4.83217
4.77018
4.70732
4.64385
4.57999
4.5161
4.45213
4.38768
4.3229
4.25786
4.19246
4.12679
4.06082
3.99456
3.92791
3.86084
3.79333
3.7254
3.65706
3.58837
3.51937
3.45013
3.38072
3.31117
3.2415
3.17172
3.10179
3.03163
2.96045
2.88852
2.81632
2.74397
2.67172
2.60002
2.52957
2.46144
2.39711
2.33876
2.28933
2.25264
2.23247
2.23499
2.26832
2.35003
2.50941
2.78915
3.21792
5.86676
5.80958
5.75219
5.69405
5.63401
5.5732
5.51179
5.45072
5.3887
5.32482
5.25048
5.17645
5.10755
5.0418
4.97734
4.91344
4.84888
4.78441
4.71996
4.65583
4.59169
4.52682
4.4617
4.39647
4.3309
4.26519
4.19921
4.13298
4.0663
3.99917
3.93154
3.86353
3.79515
3.72654
3.65774
3.58887
3.52
3.45118
3.38241
3.31371
3.24507
3.17652
3.10788
3.03853
2.96843
2.89766
2.82629
2.75438
2.6821
2.60977
2.53781
2.46684
2.39783
2.33205
2.27112
2.218
2.17873
2.164
2.19055
2.28335
2.47256
5.84775
5.7889
5.73018
5.67102
5.60902
5.54627
5.48253
5.41986
5.35638
5.29106
5.21628
5.14306
5.07429
5.00921
4.94478
4.88093
4.81633
4.75284
4.68981
4.6276
4.56548
4.50213
4.43887
4.37589
4.31253
4.24923
4.18559
4.12179
4.05731
3.99236
3.92681
3.861
3.79496
3.72892
3.66289
3.59705
3.53146
3.46622
3.4013
3.33678
3.27267
3.20903
3.14584
3.08296
3.01984
2.95612
2.89179
2.82693
2.76158
2.69583
2.62976
2.56343
2.49682
2.42996
2.36273
2.29576
2.23149
2.17526
2.13596
2.12701
2.16719
5.6459
5.58676
5.52815
5.47001
5.40702
5.3436
5.27836
5.21578
5.15274
5.08913
5.01562
4.94499
4.87801
4.81591
4.75317
4.69136
4.62806
4.56739
4.50741
4.4488
4.39035
4.32964
4.26995
4.21144
4.15224
4.09335
4.03373
3.97421
3.91347
3.85227
3.79024
3.72841
3.6665
3.6051
3.54385
3.4832
3.42297
3.3635
3.30465
3.24668
3.18945
3.13323
3.07791
3.02349
2.96973
2.91609
2.86195
2.80735
2.75242
2.69731
2.64205
2.58663
2.53086
2.47432
2.41638
2.35648
2.29473
2.23287
2.17468
2.1266
2.09856
5.28563
5.22716
5.17021
5.11564
5.0529
4.99041
4.92444
4.8639
4.80343
4.7446
4.6735
4.60654
4.54219
4.48514
4.4251
4.36718
4.30609
4.2499
4.19427
4.1402
4.08647
4.02863
3.97372
3.92218
3.86865
3.81537
3.76048
3.70657
3.65009
3.59339
3.53535
3.47887
3.42234
3.36735
3.31232
3.25851
3.20491
3.15276
3.10154
3.05201
3.0035
2.95665
2.91126
2.867
2.8238
2.78177
2.73927
2.69633
2.65336
2.6106
2.56831
2.52646
2.48487
2.44303
2.40023
2.35554
2.30823
2.25814
2.20621
2.15476
2.10817
4.80244
4.74435
4.69105
4.64288
4.58191
4.52178
4.45563
4.39962
4.34423
4.29295
4.22522
4.16212
4.10007
4.05006
3.99275
3.94073
3.88215
3.83224
3.78177
3.73172
3.68287
3.62705
3.57798
3.53752
3.49014
3.44143
3.39054
3.34337
3.29
3.2374
3.18219
3.13281
3.08214
3.03524
2.98678
2.94076
2.89305
2.84885
2.80618
2.76662
2.72815
2.69186
2.6576
2.62455
2.59154
2.55927
2.52744
2.49486
2.46376
2.43308
2.40522
2.3784
2.3533
2.32838
2.30343
2.27712
2.2488
2.21753
2.18328
2.14572
2.10638
3.64169
3.54026
3.43102
3.31534
3.19892
3.08487
2.97552
2.87378
2.78222
2.70237
2.6348
2.57929
2.53499
2.50058
2.47459
2.45554
2.44199
2.43283
2.42718
2.4243
2.42366
2.42487
2.42764
2.43181
2.43729
2.44399
2.45183
2.46076
2.47074
2.4817
2.49354
2.50618
2.51948
2.53324
2.54727
2.56134
2.5752
2.58857
2.60117
2.61276
2.62308
2.63191
2.63914
2.64476
2.64882
2.65155
2.65324
2.65428
2.6551
2.65621
2.65802
2.66079
2.66468
2.6698
2.67594
2.68286
2.69015
2.69757
2.70463
2.71073
2.71554
5.08746
5.00865
4.88164
4.70358
4.50892
4.30102
4.07884
3.84859
3.61819
3.39454
3.18252
2.98701
2.81025
2.65223
2.51263
2.39225
2.29051
2.20569
2.13559
2.07849
2.03265
1.99632
1.96789
1.9461
1.92995
1.91876
1.91197
1.90912
1.90976
1.91355
1.92017
1.9293
1.94056
1.95354
1.96779
1.98279
1.99798
2.01286
2.02676
2.03898
2.04872
2.05509
2.05709
2.05377
2.04435
2.02829
2.00544
1.97631
1.94212
1.90489
1.8671
1.83147
1.80055
1.77617
1.75902
1.74906
1.745
1.74502
1.74631
1.74643
1.745
4.90094
5.25732
5.45026
5.45711
5.31949
5.12229
4.86934
4.58305
4.28099
3.97395
3.67252
3.38685
3.12295
2.88454
2.67346
2.49014
2.33254
2.19676
2.08071
1.98411
1.90551
1.84277
1.7935
1.75531
1.72615
1.70447
1.68911
1.67909
1.67358
1.67189
1.67347
1.67776
1.68414
1.69195
1.70053
1.70925
1.71745
1.72446
1.72958
1.7321
1.73128
1.72648
1.71709
1.70251
1.68227
1.65601
1.62359
1.58523
1.54164
1.49421
1.44524
1.39792
1.35604
1.32322
1.30224
1.29491
1.30133
1.32028
1.3492
1.38563
1.42773
3.75364
4.34289
4.90532
5.34001
5.55975
5.6013
5.48338
5.24263
4.94009
4.5971
4.23894
3.88904
3.55837
3.25652
2.98743
2.75014
2.54115
2.3581
2.19978
2.06572
1.9548
1.86527
1.79463
1.73991
1.69815
1.66693
1.6444
1.62909
1.6198
1.61544
1.61527
1.61856
1.62449
1.63216
1.64069
1.64921
1.65687
1.66282
1.66617
1.66603
1.66154
1.65193
1.63652
1.61477
1.58627
1.55093
1.5089
1.46069
1.40708
1.34937
1.28954
1.23061
1.17665
1.13271
1.10404
1.09505
1.10771
1.14163
1.19456
1.26348
1.34494
2.77776
3.20826
3.7491
4.34287
4.88979
5.31136
5.55652
5.60092
5.47931
5.22322
4.87965
4.50829
4.12932
3.76678
3.43521
3.13631
2.8703
2.63418
2.42795
2.25173
2.1045
1.98452
1.88922
1.81482
1.75742
1.7138
1.6816
1.65895
1.64422
1.63593
1.63307
1.63486
1.64032
1.64836
1.65792
1.66796
1.67746
1.6854
1.69074
1.69242
1.68939
1.68077
1.66572
1.64359
1.61382
1.57628
1.53109
1.47877
1.41999
1.356
1.28857
1.22052
1.15589
1.10029
1.0609
1.04473
1.05649
1.09845
1.16914
1.26417
1.37802
2.27821
2.48344
2.80173
3.23681
3.76104
4.3197
4.83738
5.23261
5.45589
5.49432
5.36206
5.1032
4.75418
4.36932
3.99308
3.63438
3.30765
3.01331
2.74881
2.51905
2.32537
2.16723
2.04159
1.94314
1.86649
1.80716
1.76232
1.72964
1.70722
1.69297
1.68566
1.68438
1.68811
1.69552
1.70539
1.71653
1.72775
1.73791
1.74583
1.75029
1.75011
1.7443
1.7319
1.71214
1.68426
1.64807
1.60356
1.5512
1.49148
1.42554
1.35497
1.28242
1.21173
1.14846
1.10032
1.07579
1.08251
1.12628
1.2079
1.32285
1.46409
2.10429
2.16147
2.29056
2.51127
2.83515
3.25865
3.75467
4.27005
4.73702
5.08953
5.28128
5.30158
5.16922
4.91733
4.59149
4.21945
3.85106
3.50199
3.16928
2.87191
2.61748
2.40917
2.24446
2.11541
2.01436
1.93481
1.8729
1.82641
1.79334
1.77059
1.75652
1.7501
1.75026
1.75543
1.7642
1.7752
1.7871
1.79861
1.80841
1.81517
1.81755
1.81456
1.80509
1.78833
1.76326
1.72969
1.68744
1.63701
1.5787
1.51361
1.44319
1.36997
1.2976
1.23131
1.17859
1.14865
1.15115
1.19515
1.28462
1.41624
1.58183
2.07346
2.06079
2.08386
2.15935
2.30485
2.53498
2.85609
3.25853
3.71423
4.17448
4.57978
4.87764
5.03897
5.05243
4.93339
4.70586
4.40642
4.06387
3.68328
3.31923
2.99146
2.71922
2.50511
2.33674
2.20359
2.09708
2.01277
1.94819
1.90069
1.86621
1.84265
1.82855
1.82297
1.82396
1.82993
1.83926
1.85049
1.8621
1.8727
1.88076
1.8849
1.88412
1.87724
1.86345
1.84141
1.81091
1.7717
1.72421
1.66864
1.60605
1.53781
1.46633
1.39499
1.32885
1.27519
1.24313
1.2436
1.28855
1.38496
1.5314
1.71894
2.06802
2.03528
2.01594
2.02009
2.06076
2.1526
2.30983
2.54216
2.84981
3.22126
3.62282
4.0185
4.36547
4.62825
4.77661
4.80146
4.70397
4.49149
4.20073
3.83365
3.44043
3.10313
2.83635
2.62291
2.44772
2.30477
2.18884
2.09978
2.03391
1.98353
1.94711
1.92198
1.90784
1.90234
1.9035
1.90932
1.91838
1.92863
1.93884
1.9468
1.95186
1.95228
1.94757
1.9363
1.91738
1.88999
1.85456
1.81035
1.75852
1.69928
1.63475
1.56668
1.49849
1.43521
1.3831
1.35148
1.35212
1.3993
1.5015
1.66076
1.86563
0.245893
6.41759
6.0943
0.253604
0.292362
0.121189
0.00320024
2.69336
0.00335019
0.0231396
3.63463
1.0504
0.00319754
6.25222
0.105971
5.37755
0.00325392
2.85321
3.92734
0.00323875
0.262327
6.10281
6.20486
0.00331917
0.00330965
0.104861
0.00323205
0.525489
0.00324126
0.00342631
0.563125
0.0038095
0.0162787
2.77049
0.766363
3.71232
2.87325
1.55232
0.00317949
2.77262
1.89011
1.85866
0.00320551
4.64876
3.46214
0.273512
0.00355353
0.0146693
0.288772
1.07542
6.75989
7.72964
0.00317691
0.00406185
0.0396386
0.0338591
0.00341632
0.69007
2.75006
7.36735
2.58264
0.00364093
0.186629
0.0314377
6.3995
0.910358
2.31293
1.92496
0.00438542
0.00321184
0.854666
2.529
1.71889
0.0319778
0.0402927
4.35184
6.72469
3.21669
0.00315258
0.91307
0.00692404
2.85356
0.0122608
4.7515
0.00321676
1.05953
0.003337
2.42153
0.0156883
0.00482127
0.115175
0.00314573
0.00372403
7.55032
5.40108
0.00354677
0.428001
0.234873
0.00605225
6.56769
0.489074
2.23027
0.741317
0.00313927
0.00317219
0.00316591
0.304009
0.123092
0.00325643
6.0656
6.76455
0.00987206
4.88642
1.6473
2.73392
2.97124
2.07983
0.00395796
0.0827207
0.00413064
0.00389047
3.71991
0.00676427
7.36645
7.70031
1.10777
0.00321059
0.991415
0.997138
0.00320641
0.034116
0.033031
1.74444
0.00549314
3.30819
0.00321514
0.00316937
7.66057
7.76899
0.00322172
0.125884
5.57077
0.104755
0.298459
1.71938
4.8246
0.061611
1.83469
0.0117711
7.04289
1.27203
0.0453313
2.77921
4.68936
6.25792
0.00328121
0.00324598
0.21105
0.00343903
2.28801
0.0367893
0.00510085
0.00321178
0.0032144
0.00323604
2.77484
1.88954
1.57152
0.00345862
6.8648
5.00266
3.18316
5.07648
0.0140504
4.06399
1.8907
2.17424
0.0032266
0.00550471
2.99915
3.35835
1.90009
3.6063
0.00320871
0.00348558
5.21037
0.0355561
0.556091
0.00323298
0.00352951
0.103288
0.00341975
7.69832
0.657665
0.0033937
0.247947
1.86414
5.16278
0.00453885
2.25769
0.00321108
0.00322535
4.62448
2.3444
7.27068
0.00458457
0.00336228
0.00788945
2.66056
2.52161
1.07835
4.80667
1.15761
6.88795
0.191361
4.2614
4.03075
1.77337
1.33017
2.53455
0.00477984
0.0361724
0.00321805
0.00371507
2.11668
0.0177892
0.0196804
0.00541664
0.0131961
2.73499
5.01499
0.0188499
5.75842
1.04309
0.258412
0.00318379
0.141833
2.71077
1.00048
0.00420118
0.916864
1.25888
0.183316
0.62554
7.25284
0.784331
0.491475
5.10322
0.00384799
0.00317695
0.00395065
0.0105871
2.00541
0.00333341
0.006113
0.00317529
0.382264
3.69458
4.27076
3.01933
1.36246
1.39859
7.59309
0.00440686
2.41989
4.63183
0.0032059
2.25411
0.00321613
4.16041
0.38057
1.77695
0.00518154
0.00321517
1.85566
0.518353
0.0032384
0.00322695
0.00324046
0.0032446
0.352649
1.61046
2.92218
0.0155722
0.00324015
0.00317116
0.00314196
4.67984
0.183234
0.00435748
1.57783
0.0860085
0.0448277
0.00315568
0.261448
0.00323947
0.0409229
1.46413
4.95621
0.514622
0.0039223
0.0058907
3.20539
0.130655
1.97387
7.55189
0.00347466
0.00319586
0.00318732
5.76926
0.00329054
4.93029
0.00321746
1.78071
1.3687
0.0273222
3.24591
4.14204
0.00456317
3.00718
2.99944
1.65077
4.48904
0.619573
7.76818
2.70948
3.59762
3.90875
4.44452
1.7099
0.153106
7.68745
7.32214
3.28911
2.34744
0.00413386
6.95699
3.06082
6.8315
0.0269064
0.00353987
0.00321027
0.00339185
0.177024
0.411969
0.561256
0.0894001
0.00318955
5.98888
0.00321125
1.59222
1.87154
6.35586
2.23802
1.7787
0.00584173
0.00418551
0.0998099
3.11608
0.0101693
0.739835
5.49452
2.37301
4.09363
6.07013
3.49871
0.00342765
7.33303
5.37677
1.74325
0.00322656
6.27607
5.62835
0.00331102
2.1797
0.00322982
6.9276
5.65216
2.08974
4.11767
2.82056
5.61766
0.00330935
5.62019
0.00379139
3.91293
3.95312
2.18227
7.30764
0.694074
0.209624
0.542406
0.00418062
4.35885
0.181167
0.00799988
0.00563115
4.75195
0.00376296
4.31203
0.00320555
0.0032277
0.00603855
1.80929
0.100417
1.77988
0.00540464
4.18026
0.157871
6.56624
4.52858
2.58115
6.43157
0.00343105
7.31444
2.84866
0.00320442
3.88091
1.99629
0.00316788
0.00317387
3.68879
0.00652766
1.65116
0.0990778
2.66888
0.0260713
0.579513
2.5803
4.6865
2.35104
3.63685
3.61991
0.00414415
0.0240357
1.98125
1.49065
7.5663
6.65961
5.1547
0.0634608
5.05315
5.02786
0.497592
1.76304
2.77459
2.01088
0.00361788
4.08037
7.79756
0.00409316
4.56899
1.83857
2.79929
0.0231884
0.0655549
6.41158
0.00585667
7.5561
0.00453519
0.263426
0.00320516
0.979905
2.35019
0.225764
0.00471772
0.00378024
2.99739
1.77571
0.0411802
0.435645
6.13554
4.11127
0.00485453
1.40671
1.83163
3.52552
1.64831
4.25043
2.22596
5.41958
3.18566
0.931222
0.760605
7.45151
1.92198
7.65393
6.04023
0.120362
3.69897
3.11686
0.00342105
1.85535
1.75295
1.41497
0.0175236
4.67063
1.45844
0.67074
1.92508
0.0054526
0.00321201
0.0935813
2.01266
4.3059
2.92862
0.00321831
0.00320198
0.0032089
1.92716
0.0284605
0.00321099
0.119879
4.19436
5.25168
0.010351
0.0105258
0.00317161
0.00320525
0.00588841
1.75284
1.74514
1.46687
0.452277
7.48199
6.02658
0.00528919
3.01858
2.11466
2.19663
3.95921
7.44803
0.00348003
0.0103411
0.0032282
3.91447
0.233881
0.00317347
1.33119
0.157692
7.45501
0.00323774
7.65337
1.10637
0.0430796
6.50106
0.00322126
0.00318668
0.00404682
7.74299
3.19795
5.23732
5.23081
0.781424
2.0625
0.00315199
0.00590358
0.100044
0.00997693
0.0244253
1.97411
2.47598
0.00321842
1.28171
2.16332
6.17635
7.73799
0.00788115
7.70401
0.00584862
0.0290849
3.94031
0.0031935
5.56826
0.00323732
0.0033383
0.0231729
2.34066
0.613062
2.56754
1.88998
0.00364127
2.01811
4.69089
0.0312602
0.257596
1.13013
0.00329313
0.00325263
0.00687831
5.34549
0.539718
0.00341984
7.24076
6.21561
6.67903
0.0525722
2.36286
0.00428307
2.3323
0.14289
0.0885631
2.93012
1.97227
1.91511
6.07997
0.00328856
0.00315501
0.0100336
4.32826
4.4513
0.93912
0.01352
0.003319
0.00322627
0.00870677
0.0464134
0.0064276
2.5008
1.73568
0.0116611
1.71697
5.99138
0.00326345
2.65605
0.00321688
0.490822
0.00324467
0.0216896
2.12958
0.0195464
0.00320523
0.738589
7.81273
7.05423
0.00320522
0.00324753
0.377748
0.0580797
0.00321304
4.10616
0.00364462
1.98771
7.80414
2.32605
1.73016
2.45874
3.97566
7.57946
0.00321939
0.00743669
0.0156885
4.39011
1.45264
6.37247
0.334948
0.378946
4.46029
3.9705
4.91078
0.421324
2.49688
0.00321844
0.342631
1.86406
2.47256
4.08661
1.75489
0.180149
2.49629
0.102263
0.0107658
1.93471
0.00322884
5.72869
0.00364881
0.381064
7.39709
2.81502
0.542879
0.00723639
0.76151
0.00327704
0.00319038
0.102242
0.0218788
2.03256
0.0148216
1.97946
0.00321871
0.0268754
0.00317213
4.45837
0.00556503
4.31148
2.52467
0.0213964
1.92966
7.59456
0.0032451
1.72001
4.74989
0.00339657
7.36373
0.070479
0.00360168
0.00337667
7.20638
0.0031796
0.00423826
0.0843095
0.100861
7.21293
7.23808
0.00322025
0.00324529
0.565003
2.24123
0.0142761
0.664371
1.97591
0.00321386
0.00376672
0.0036811
5.99893
7.25387
0.493782
7.1897
0.025464
1.75019
0.00338984
0.0141574
0.0242289
0.0368375
0.00322329
6.96447
0.00319969
0.0241325
0.00329615
0.236849
0.0219501
0.0256325
0.403988
0.678233
2.52922
0.362598
1.05719
2.10552
5.25654
0.00341689
5.13836
7.63454
1.12948
3.94781
0.0032809
4.53208
3.77969
0.00321006
7.49879
2.65671
0.00629897
0.0252085
5.83309
5.64297
0.0260824
7.55052
7.43662
0.779879
7.38552
7.16602
4.88804
2.26271
1.46694
1.16559
7.19803
7.41967
0.0214225
7.39386
2.42303
4.46036
0.00342684
0.336654
0.246118
6.77119
5.8344
0.0194511
4.33307
6.38358
0.498854
0.0361823
0.384559
2.10507
0.00520983
2.13946
7.02761
0.0336951
6.7246
1.28182
4.39167
6.31985
0.00321635
0.00565742
1.02127
0.700608
0.0187991
0.00321451
0.192947
0.264128
0.00443567
0.00323623
4.37007
0.962402
2.98118
1.01238
0.00826798
0.00410827
0.0366634
3.66883
0.00342477
1.8058
1.83249
0.465735
2.35835
0.00390864
0.119632
0.00319955
0.672604
4.26283
0.00389556
0.115832
2.43761
5.60284
0.219116
3.95488
0.596145
0.0918377
0.00389901
2.31838
7.68871
0.00320753
0.00326368
5.61268
0.0235252
0.0032352
3.75161
0.717951
1.93292
2.27838
1.47485
0.140509
1.69369
3.70981
5.64546
4.68095
0.00326292
5.8732
0.00389165
2.17374
0.00349923
0.00419951
2.45149
0.00660275
4.05235
0.0205972
0.0384539
1.84986
0.726578
0.0810431
0.0036135
6.19882
0.00358873
0.0031697
7.74698
5.82085
2.76783
2.14892
0.00339657
0.00316145
1.82624
5.60336
0.00317929
6.49419
1.68825
0.00323352
5.94088
0.00317712
0.362393
0.900363
1.32511
0.34248
1.59304
1.90354
0.0031777
7.23665
7.45016
0.00320915
0.0175987
2.21167
0.00317632
6.94058
5.49912
4.49225
0.00321144
0.00317392
3.77764
0.0450523
0.00349643
1.83468
1.71786
4.41939
0.00316685
0.00339972
0.0234653
0.0193886
0.0032121
0.00646807
5.13651
3.1459
0.00321658
1.27328
0.00321179
0.715705
0.00427189
0.00353829
2.19879
0.00325191
0.10653
0.00317767
2.83087
0.212145
1.63873
6.2206
4.49551
4.03121
0.792488
1.25579
0.00323532
0.900286
7.30031
4.10616
0.103652
0.00343331
5.21287
0.0032108
0.0372246
0.00316976
7.2358
0.78748
0.373075
6.33138
2.2195
0.489615
4.09329
0.720041
6.74722
4.4844
0.00329018
0.00332873
0.00806772
0.00354981
0.0224926
4.22098
0.00382121
7.00745
0.00594493
0.0411317
0.563226
4.97308
0.00495809
2.66305
0.017755
2.87657
2.3584
7.04373
0.00350358
0.00389793
0.158324
3.63381
1.80409
3.61648
0.403147
0.836936
1.53076
0.0505843
0.880724
0.776439
1.99297
0.0032609
4.43905
0.400821
3.08522
0.00333387
2.99712
0.988919
0.00404768
1.6435
1.75102
0.0631202
0.00319271
0.00321223
5.20827
2.7731
1.45331
0.00319528
0.0171719
2.33373
6.26481
0.969988
0.0123243
0.00320243
5.42175
5.20832
2.39637
2.57668
0.0032069
3.80768
7.47299
0.00321019
0.0032159
1.24541
0.00377536
0.00949063
0.136133
1.9459
0.00418526
2.50845
7.63759
0.00328152
0.00349499
0.00317779
0.00327999
3.67361
4.70582
7.71057
0.0280066
2.30532
2.53822
0.0862299
2.84714
0.00360623
2.00232
0.217917
2.32782
0.685702
1.65191
3.43448
0.0725196
0.00323692
5.84254
4.68293
4.90948
0.877816
1.93729
0.17392
1.34874
0.00907717
0.00471226
3.77719
5.48753
0.024022
0.330596
0.00323664
0.0757742
1.84366
0.0284821
1.03857
0.661929
3.86731
2.3465
0.430782
6.87933
5.39656
3.22242
1.59242
4.54654
3.77058
0.558893
2.60958
0.00499975
2.76176
2.88924
0.00320279
0.00317606
0.106418
0.00322005
0.00337745
3.28447
4.52655
0.00321558
3.5395
0.00320921
0.00319093
0.00320392
0.00330619
0.00584811
2.13759
2.54415
7.06091
0.00320202
0.00370186
0.930558
0.00350606
0.0329168
0.00324538
0.00359823
4.72207
0.00384659
0.0108427
2.90406
0.010214
0.00321659
4.28127
0.00321028
0.00325536
0.5212
0.00355657
0.794251
0.00467644
0.02921
0.00320341
0.00325729
7.47313
7.64487
2.60873
0.0270395
3.29989
1.51823
0.00483028
1.97741
4.31215
6.88722
4.65058
0.00336877
1.66977
2.54108
0.141492
2.01099
4.62125
0.170235
2.26414
0.39161
2.00153
0.0676752
1.0013
0.003234
6.65616
0.00359021
2.09609
2.41297
0.00321301
0.306198
0.00702797
0.0133028
0.00319448
0.745885
0.00360794
0.00323297
2.78046
0.0151805
0.106327
6.83166
1.91601
0.00351323
0.00392859
2.33976
7.15538
0.00323032
0.00323735
0.0751529
1.36704
5.50033
0.00660321
1.59888
0.00321263
0.0034091
0.00316338
0.0341493
1.00098
0.0101609
6.65948
1.97688
7.1471
5.9985
0.00347363
7.31196
3.66523
0.00318217
0.00322595
0.00321835
0.00439611
0.00319965
4.11033
0.00320689
0.00322743
6.89854
0.313427
0.00745723
0.0150378
2.23582
0.91078
0.00976611
0.00342918
6.26265
0.00324516
1.10142
0.00327618
0.00348236
5.86278
5.68421
0.00854055
0.00361107
0.396602
0.00320482
6.94258
0.00326629
5.48477
0.0214209
0.732374
0.0359412
0.375235
0.693986
1.51435
0.00324111
0.00351843
0.0111138
3.10767
0.109196
7.4585
0.00321407
0.0046864
0.00547443
7.1226
2.78888
3.13835
0.006937
0.00905413
0.21144
0.00322036
1.38514
2.44783
0.0165261
6.16998
6.11695
2.48008
0.00523626
0.377089
2.95973
6.77392
2.07255
0.0187155
3.45531
0.0855058
5.14509
0.0886968
0.505437
2.47691
0.0032435
2.0055
0.00454293
0.0113406
0.00627287
0.0477082
0.00364116
1.26103
0.00322205
3.2086
0.0935927
0.00360307
0.733768
0.00323222
0.271719
0.112761
2.61106
0.466788
4.86677
0.231181
0.00321435
0.00317996
0.528623
0.0872195
2.78763
7.16611
0.00322071
4.09339
2.6258
0.0222219
2.02189
0.830355
2.6034
2.36078
0.0373006
0.00575378
7.2233
1.54178
5.81223
0.00320903
1.80397
0.00321159