/*--------------------------------*- C++ -*----------------------------------*\
| =========                 |                                                 |
| \\      /  F ield         | OpenFOAM: The Open Source CFD Toolbox           |
|  \\    /   O peration     | Version:  2.3.1                                 |
|   \\  /    A nd           | Web:      www.OpenFOAM.org                      |
|    \\/     M anipulation  |                                                 |
\*---------------------------------------------------------------------------*/
FoamFile
{
    version     2.0;
    format      ascii;
    class       surfaceScalarField;
    location    "0.23";
    object      phi;
}
// * * * * * * * * * * * * * * * * * * * * * * * * * * * * * * * * * * * * * //

dimensions      [0 3 -1 0 0 0 0];

internalField   nonuniform List<scalar> 
15416
(
-0.000698231
-8.14128e-06
0.000700822
-0.000693702
-4.5281e-06
-0.000691547
-2.15423e-06
-0.000690923
-6.22787e-07
-0.000691898
9.75312e-07
-0.000694882
2.98293e-06
-0.000700546
5.6637e-06
-0.000708884
8.33653e-06
-0.000720364
1.14786e-05
-0.000735231
1.48646e-05
-0.000753835
1.86021e-05
-0.000776328
2.24896e-05
-0.00080277
2.64394e-05
-0.000833168
3.03944e-05
-0.000867543
3.43712e-05
-0.00090575
3.82036e-05
-0.000947545
4.17912e-05
-0.000992675
4.51272e-05
-0.00104097
4.82907e-05
-0.00109207
5.11027e-05
-0.00114571
5.36374e-05
-0.00120162
5.59109e-05
-0.00125945
5.78208e-05
-0.00131883
5.93613e-05
-0.00137953
6.0665e-05
-0.00144132
6.17404e-05
-0.0015039
6.2534e-05
-0.00156698
6.3039e-05
-0.00163035
6.33513e-05
-0.00169384
6.35094e-05
-0.00175716
6.338e-05
-0.0018201
6.30114e-05
-0.00188253
6.25274e-05
-0.00194424
6.17788e-05
-0.00200509
6.0832e-05
-0.00206509
5.99008e-05
-0.0021242
5.89136e-05
-0.00218229
5.7872e-05
-0.00223912
5.67036e-05
-0.00229467
5.55517e-05
-0.00234888
5.43706e-05
-0.0024015
5.28873e-05
-0.00245237
5.11344e-05
-0.00250153
4.93934e-05
-0.00254877
4.73859e-05
-0.00259415
4.54105e-05
-0.00263783
4.36196e-05
-0.00267983
4.18692e-05
-0.00271993
3.99647e-05
-0.00275788
3.78409e-05
-0.00279385
3.59126e-05
-0.00282797
3.41024e-05
-0.00285973
3.17638e-05
-0.0028896
2.98801e-05
-0.00291737
2.77792e-05
-0.00294342
2.60486e-05
-0.00296678
2.33598e-05
-0.0029879
2.11081e-05
-0.00300712
1.92175e-05
-0.00302462
1.74943e-05
1.57839e-05
-0.00304041
-0.000399449
-5.32505e-06
0.000396634
-0.000403058
-9.18289e-07
-0.000408987
3.77564e-06
-0.000419138
9.52856e-06
-0.000433687
1.55243e-05
-0.000452037
2.13327e-05
-0.000474422
2.8048e-05
-0.000500866
3.4779e-05
-0.000531725
4.23369e-05
-0.00056654
4.96773e-05
-0.000605469
5.75286e-05
-0.000648328
6.53469e-05
-0.000694977
7.30857e-05
-0.000745257
8.06715e-05
-0.000798839
8.79492e-05
-0.000855566
9.49274e-05
-0.000915158
0.00010138
-0.000977391
0.000107358
-0.0010419
0.000112797
-0.00110848
0.00011768
-0.00117691
0.000122067
-0.00124675
0.000125748
-0.00131781
0.000128877
-0.0013899
0.00013143
-0.00146269
0.000133443
-0.00153595
0.000134998
-0.00160935
0.000135951
-0.00168285
0.000136563
-0.00175618
0.000136678
-0.00182902
0.000136312
-0.00190143
0.000135698
-0.00197323
0.000134754
-0.00204398
0.000133363
-0.00211364
0.000131726
-0.00218221
0.000129869
-0.00224933
0.000127453
-0.0023151
0.00012489
-0.00237942
0.000122035
-0.00244238
0.000119095
-0.00250382
0.000116203
-0.00256341
0.000113169
-0.00262141
0.000110295
-0.00267747
0.000107064
-0.00273127
0.000103451
-0.002783
9.96099e-05
-0.00283255
9.5418e-05
-0.00288004
9.13629e-05
-0.00292507
8.69511e-05
-0.00296801
8.28227e-05
-0.00300892
7.86344e-05
-0.00304764
7.45288e-05
-0.00308452
7.09196e-05
-0.00311792
6.51362e-05
-0.00315065
6.26024e-05
-0.00317955
5.6681e-05
-0.00320692
5.34265e-05
-0.00322993
4.63669e-05
-0.0032528
4.39785e-05
-0.0032734
3.98098e-05
-0.00329184
3.59326e-05
2.98645e-05
-0.00330592
-0.000261564
5.39571e-06
0.000250844
-0.000275545
1.30639e-05
-0.000293649
2.18804e-05
-0.00031557
3.14494e-05
-0.000341543
4.14971e-05
-0.000372175
5.19645e-05
-0.00040695
6.28226e-05
-0.000446138
7.39657e-05
-0.0004896
8.57974e-05
-0.000537384
9.746e-05
-0.000589174
0.000109317
-0.000644541
0.000120712
-0.000703603
0.000132145
-0.000765948
0.000143013
-0.000831362
0.00015336
-0.00089955
0.000163112
-0.000970286
0.000172113
-0.00104329
0.000180358
-0.00111824
0.000187742
-0.00119497
0.000194412
-0.00127302
0.000200115
-0.00135233
0.000205044
-0.00143259
0.000209121
-0.00151355
0.000212372
-0.00159491
0.000214806
-0.00167642
0.000216558
-0.00175794
0.000217539
-0.00183919
0.000217896
-0.00191993
0.000217434
-0.00200029
0.000216607
-0.00207981
0.000215098
-0.0021583
0.000213118
-0.00223596
0.000211027
-0.00231228
0.000208268
-0.00238722
0.000205147
-0.00246069
0.000201378
-0.00253251
0.000197055
-0.00260252
0.000192187
-0.0026707
0.000187209
-0.00273709
0.000182114
-0.00280178
0.000177148
-0.00286421
0.000171882
-0.00292472
0.000166736
-0.00298296
0.000161233
-0.00303896
0.000155477
-0.00309276
0.00014938
-0.00314405
0.000142997
-0.00319297
0.000136153
-0.00323926
0.000129295
-0.00328378
0.000123205
-0.0033246
0.000115306
-0.00336283
0.00010909
-0.00339946
0.00010171
-0.0034338
9.68982e-05
-0.00346599
8.88562e-05
-0.00349388
8.13138e-05
-0.00352166
7.41464e-05
-0.00354511
6.7427e-05
-0.00356635
6.10508e-05
-0.00358332
5.29087e-05
4.67746e-05
-0.00360024
-0.000197991
2.41765e-05
0.000179211
-0.000220766
3.58399e-05
-0.000247673
4.87885e-05
-0.000278773
6.25495e-05
-0.000314314
7.70382e-05
-0.000354433
9.20823e-05
-0.000398968
0.000107358
-0.000448248
0.000123245
-0.000501765
0.000139313
-0.00055959
0.000155283
-0.000621228
0.000170953
-0.000686864
0.000186345
-0.00075603
0.000201308
-0.000828281
0.00021526
-0.000903554
0.00022863
-0.000981486
0.000241041
-0.00106179
0.000252412
-0.00114415
0.000262724
-0.00122837
0.000271956
-0.00131401
0.000280051
-0.00140107
0.000287173
-0.00148905
0.000293013
-0.00157787
0.000297923
-0.00166719
0.00030169
-0.00175684
0.000304469
-0.00184639
0.000306134
-0.00193575
0.000306944
-0.00202474
0.000306925
-0.00211325
0.000305997
-0.00220077
0.000304226
-0.00228742
0.000301816
-0.00237303
0.000298794
-0.00245716
0.000294997
-0.00254012
0.000290787
-0.00262175
0.000286252
-0.00270195
0.000281056
-0.00278014
0.000275392
-0.00285636
0.000269319
-0.00293038
0.000262417
-0.00300218
0.000255092
-0.00307161
0.000246752
-0.00313919
0.000238527
-0.00320418
0.000230337
-0.00326714
0.000222615
-0.00332768
0.000215023
-0.00338579
0.000207071
-0.00344128
0.000198521
-0.00349432
0.000189551
-0.00354385
0.000179185
-0.00359079
0.00017041
-0.00363636
0.00016099
-0.00367785
0.000150588
-0.00371715
0.000140974
-0.00375232
0.000132025
-0.00378717
0.000123665
-0.00381786
0.000111989
-0.00384631
0.000102586
-0.00387253
9.36447e-05
-0.00389456
8.3078e-05
-0.00391435
7.27044e-05
6.24004e-05
-0.00392997
-0.000170896
4.96481e-05
0.000145426
-0.000200551
6.54957e-05
-0.00023483
8.30677e-05
-0.000273856
0.000101576
-0.000317629
0.000120811
-0.000366328
0.000140781
-0.000420086
0.000161115
-0.000478275
0.000181433
-0.000541119
0.000202156
-0.000608182
0.000222345
-0.000679488
0.000242258
-0.0007547
0.000261555
-0.000833245
0.00027985
-0.000915174
0.000297186
-0.00100027
0.000313723
-0.00108747
0.000328242
-0.00117713
0.000342069
-0.00126878
0.000354381
-0.00136207
0.000365241
-0.00145684
0.000374815
-0.00155273
0.000383059
-0.00164965
0.000389927
-0.00174719
0.000395454
-0.00184507
0.000399582
-0.00194294
0.000402333
-0.00204087
0.00040406
-0.00213839
0.000404418
-0.00223533
0.000403861
-0.00233153
0.000402252
-0.00242689
0.000399713
-0.00252099
0.000396206
-0.00261368
0.000391604
-0.00270498
0.000386164
-0.0027948
0.000380072
-0.00288308
0.000373384
-0.00296961
0.000366688
-0.00305458
0.000359942
-0.00313734
0.000352495
-0.00321755
0.00034422
-0.00329521
0.000334207
-0.00337046
0.000323121
-0.00344278
0.000311171
-0.00351262
0.000299372
-0.00357989
0.000288774
-0.00364495
0.000278629
-0.00370838
0.000269254
-0.00376704
0.00025655
-0.00382344
0.000245799
-0.00387788
0.00023393
-0.00392819
0.000221115
-0.0039762
0.000209289
-0.00402208
0.000196602
-0.00406401
0.00018293
-0.00410372
0.000171704
-0.00413741
0.000157321
-0.00417068
0.000145228
-0.00420173
0.000133619
-0.0042286
0.000120502
-0.00425131
0.00010579
-0.0042738
9.51885e-05
8.0733e-05
-0.00429212
-0.000162358
8.1721e-05
0.000130287
-0.000199224
0.000102363
-0.000240919
0.000124763
-0.000288043
0.000148701
-0.000340452
0.000173221
-0.000397891
0.00019822
-0.000460332
0.000223555
-0.00052792
0.000249021
-0.00060005
0.000274285
-0.000676975
0.000299268
-0.000758114
0.000323395
-0.000842985
0.000346423
-0.000931612
0.000368474
-0.00102316
0.000388734
-0.00111743
0.000407991
-0.00121448
0.000425292
-0.00131379
0.000441379
-0.00141519
0.000455784
-0.00151799
0.00046804
-0.00162206
0.000478892
-0.00172736
0.000488355
-0.00183328
0.00049585
-0.00193986
0.00050204
-0.0020467
0.000506425
-0.00215356
0.000509189
-0.00226003
0.000510503
-0.00236606
0.000510431
-0.00247131
0.000509036
-0.0025757
0.000506554
-0.00267908
0.000503019
-0.00278125
0.000498254
-0.00288174
0.000492268
-0.00298063
0.00048528
-0.00307767
0.00047732
-0.00317246
0.000468429
-0.00326552
0.000459154
-0.00335647
0.000450091
-0.00344553
0.000440705
-0.00353295
0.000430502
-0.00361774
0.000419366
-0.00369931
0.000405693
-0.00377748
0.000390805
-0.00385164
0.000375713
-0.00392274
0.000360739
-0.00399193
0.000347657
-0.00405937
0.000335476
-0.00412527
0.000320781
-0.00418677
0.000306493
-0.00424391
0.000290852
-0.00429848
0.000275925
-0.00434898
0.000260122
-0.00439546
0.000243281
-0.00444158
0.000229142
-0.0044819
0.000212047
-0.00452185
0.000197256
-0.00455767
0.000181034
-0.00458733
0.000163265
-0.00461473
0.000147886
-0.00464195
0.000133001
-0.00466311
0.000116349
9.97219e-05
-0.0046821
-0.00016726
0.0001206
0.000128383
-0.000211655
0.000146759
-0.000261565
0.000174674
-0.000317314
0.00020445
-0.000378397
0.000234304
-0.000445223
0.000265047
-0.000517339
0.000295671
-0.000594443
0.000326125
-0.000676779
0.00035662
-0.000763371
0.000385859
-0.000854648
0.000414671
-0.00094998
0.000441755
-0.00104859
0.00046708
-0.00115025
0.000490398
-0.00125528
0.000513022
-0.00136274
0.000532752
-0.00147206
0.000550704
-0.00158344
0.000567164
-0.00169618
0.000580786
-0.00181032
0.000593036
-0.00192537
0.00060343
-0.00204106
0.000611558
-0.00215735
0.000618339
-0.00227371
0.000622779
-0.00238984
0.000625295
-0.00250556
0.000626228
-0.00262036
0.000625182
-0.00273445
0.000623148
-0.00284754
0.000619477
-0.00295929
0.000614299
-0.00306983
0.000608439
-0.00317892
0.000600939
-0.00328571
0.000592478
-0.00339027
0.000583289
-0.00349257
0.000572103
-0.00359163
0.000559765
-0.00368871
0.000546933
-0.00378437
0.000533611
-0.00387805
0.000521403
-0.00397028
0.000508439
-0.00405952
0.000494167
-0.00414304
0.000477361
-0.00422276
0.000459938
-0.0042984
0.000441466
-0.00437226
0.000423946
-0.00444379
0.000406306
-0.00451202
0.000387343
-0.00457793
0.000370523
-0.00464096
0.00035308
-0.00469776
0.000332677
-0.00475218
0.000314739
-0.00480437
0.000295692
-0.00485085
0.00027574
-0.00489529
0.000256553
-0.00493571
0.000237704
-0.00497192
0.000217244
-0.00500766
0.000199005
-0.00503731
0.000177518
-0.00506299
0.000158676
-0.00508472
0.000138065
0.000119252
-0.00510425
-0.000183213
0.000166632
0.000137183
-0.000235622
0.00019917
-0.000294058
0.00023311
-0.000359337
0.000269729
-0.000430277
0.000305245
-0.000506873
0.000341642
-0.000589233
0.000378032
-0.000676299
0.00041319
-0.000769208
0.000449529
-0.000866486
0.000483135
-0.0009691
0.000517284
-0.00107504
0.00054769
-0.00118538
0.000577418
-0.00129771
0.000602728
-0.00141314
0.000628461
-0.00153189
0.000651502
-0.00165225
0.000671067
-0.00177439
0.000689307
-0.0018984
0.000704793
-0.0020224
0.000717052
-0.00214817
0.000729223
-0.0022739
0.000737315
-0.00240081
0.000745268
-0.00252755
0.000749538
-0.0026535
0.000751199
-0.00277932
0.000751932
-0.00290341
0.000749252
-0.00302679
0.00074657
-0.00314914
0.000741881
-0.00326918
0.000734308
-0.00338868
0.000727287
-0.00350632
0.000717928
-0.00362127
0.000706978
-0.00373461
0.000696722
-0.0038451
0.000684477
-0.00395143
0.000668229
-0.00405511
0.000652012
-0.00415592
0.000634387
-0.00425553
0.000617054
-0.00435438
0.000602778
-0.00445124
0.000587967
-0.00454364
0.000570253
-0.00462695
0.000549297
-0.00470874
0.000529655
-0.00478594
0.000505229
-0.00486024
0.000480964
-0.00493582
0.000460755
-0.00500506
0.000438234
-0.00507038
0.000417599
-0.00513231
0.000394416
-0.00518878
0.000371272
-0.00524262
0.00034957
-0.00529258
0.000325776
-0.0053409
0.000304914
-0.0053836
0.000280446
-0.00542358
0.000257253
-0.00545758
0.000233008
-0.00548693
0.000206858
-0.00551462
0.000186342
-0.00553878
0.000162225
0.000139028
-0.00555857
-0.000207881
0.000155507
0.000219005
-0.000269726
0.000261013
-0.000335994
0.000299376
-0.000412449
0.000346179
-0.000493162
0.000385954
-0.000580655
0.000429129
-0.000674176
0.000471548
-0.000770688
0.000509697
-0.000876775
0.000555611
-0.000983635
0.00058999
-0.00110008
0.000633722
-0.00121614
0.000663748
-0.00134162
0.000702896
-0.00146264
0.000723748
-0.00159091
0.000756723
-0.00172243
0.000783021
-0.00185245
0.000801092
-0.00198808
0.000824935
-0.00212336
0.000840078
-0.00225754
0.000851227
-0.00239804
0.000869738
-0.00253233
0.000871616
-0.00267163
0.000884613
-0.00280979
0.000887755
-0.00294575
0.000887153
-0.00308399
0.000890076
-0.00321644
0.00088139
-0.00335038
0.000880456
-0.00348377
0.000875793
-0.00361154
0.000862689
-0.00374088
0.000857041
-0.00386674
0.000843508
-0.00398927
0.00082799
-0.00411123
0.000816153
-0.0042333
0.000804473
-0.00434632
0.000781588
-0.0044592
0.000768712
-0.00456608
0.000745467
-0.00466842
0.000720723
-0.00477424
0.000704023
-0.0048745
0.000680424
-0.00497423
0.000664528
-0.00506583
0.000641019
-0.00515306
0.000621494
-0.00523826
0.000595644
-0.00531573
0.000561141
-0.00539359
0.000538111
-0.00546579
0.000509718
-0.00553608
0.000487161
-0.00559956
0.000457409
-0.00566227
0.000433847
-0.00571785
0.000405163
-0.00577058
0.000378518
-0.00581955
0.0003539
-0.00586609
0.000327019
-0.00590483
0.000296005
-0.00594197
0.00027016
-0.00597274
0.000237643
-0.00600091
0.000214503
-0.00602555
0.000186862
-0.00604466
0.000158139
-0.00305257
1.21626e-05
-0.00306304
1.04676e-05
-0.00307183
8.78866e-06
-0.00307876
6.92709e-06
-0.00308345
4.69351e-06
-0.00308553
2.08303e-06
-0.00308588
3.44668e-07
-0.00308412
-1.76031e-06
-0.0030804
-3.72134e-06
-0.00307429
-6.11105e-06
-0.00306631
-7.98307e-06
-0.00305632
-9.99178e-06
-0.00304434
-1.19773e-05
-0.0030303
-1.40368e-05
-0.00301452
-1.57861e-05
-0.0029969
-1.76117e-05
-0.00297729
-1.96151e-05
-0.00295565
-2.16389e-05
-0.00293233
-2.3319e-05
-0.00290715
-2.51747e-05
-0.00288021
-2.69431e-05
-0.00285166
-2.85421e-05
-0.0028214
-3.02629e-05
-0.00278933
-3.20703e-05
-0.0027557
-3.36284e-05
-0.00272058
-3.51121e-05
-0.00268386
-3.67202e-05
-0.00264551
-3.83484e-05
-0.00260564
-3.98641e-05
-0.00256441
-4.12245e-05
-0.00252172
-4.26938e-05
-0.0024776
-4.41191e-05
-0.00243225
-4.53473e-05
-0.0023856
-4.66417e-05
-0.00233765
-4.79501e-05
-0.00228856
-4.90914e-05
-0.00223839
-5.0166e-05
-0.00218711
-5.12732e-05
-0.00213466
-5.24523e-05
-0.00208119
-5.34684e-05
-0.00202684
-5.4345e-05
-0.00197158
-5.52601e-05
-0.00191541
-5.61612e-05
-0.00185852
-5.68957e-05
-0.00180074
-5.77735e-05
-0.00174217
-5.85648e-05
-0.00168299
-5.91785e-05
-0.00162328
-5.97079e-05
-0.00156292
-6.03555e-05
-0.00150202
-6.09032e-05
-0.00144068
-6.13325e-05
-0.00137903
-6.16486e-05
-0.00131688
-6.21444e-05
-0.00125453
-6.23481e-05
-0.00119196
-6.25649e-05
-0.00112939
-6.25726e-05
-0.00106655
-6.28373e-05
-0.00100368
-6.28676e-05
-0.000940955
-6.27216e-05
-0.000878451
-6.25019e-05
-6.22465e-05
-0.000816202
-0.00331977
2.60111e-05
-0.0033293
1.99995e-05
-0.00333676
1.62487e-05
-0.00334202
1.21831e-05
-0.0033472
9.87602e-06
-0.00334819
3.07438e-06
-0.00334767
-1.76876e-07
-0.00334329
-6.13994e-06
-0.0033383
-8.72005e-06
-0.00332976
-1.4642e-05
-0.00331941
-1.83353e-05
-0.00330678
-2.2623e-05
-0.00329225
-2.65145e-05
-0.00327579
-3.0491e-05
-0.00325688
-3.46948e-05
-0.00323595
-3.85424e-05
-0.00321291
-4.2654e-05
-0.00318795
-4.66046e-05
-0.00316077
-5.04893e-05
-0.00313169
-5.42559e-05
-0.00310086
-5.77701e-05
-0.00306785
-6.15513e-05
-0.00303295
-6.5168e-05
-0.00299631
-6.86997e-05
-0.00295783
-7.21086e-05
-0.00291761
-7.53313e-05
-0.00287557
-7.87566e-05
-0.00283205
-8.18718e-05
-0.00278687
-8.50407e-05
-0.00273988
-8.82082e-05
-0.00269148
-9.10888e-05
-0.00264172
-9.38836e-05
-0.0025903
-9.67648e-05
-0.00253747
-9.94694e-05
-0.00248343
-0.000101987
-0.00242792
-0.000104599
-0.00237114
-0.000106941
-0.00231313
-0.000109283
-0.00225404
-0.000111545
-0.00219379
-0.000113714
-0.00213227
-0.000115863
-0.00206986
-0.000117668
-0.00200651
-0.000119513
-0.00194211
-0.000121297
-0.00187689
-0.000122984
-0.00181082
-0.000124634
-0.00174401
-0.000125987
-0.0016763
-0.000127418
-0.00160803
-0.000128624
-0.00153918
-0.000129749
-0.00146978
-0.000130731
-0.00140004
-0.000131386
-0.00132936
-0.000132827
-0.00125893
-0.000132776
-0.0011876
-0.000133893
-0.0011163
-0.000133867
-0.00104423
-0.000134902
-0.00097279
-0.000134309
-0.00090132
-0.000134189
-0.00082989
-0.00013393
-0.000134066
-0.000758069
-0.00361293
3.87085e-05
-0.00362552
3.25882e-05
-0.00363377
2.44986e-05
-0.00363979
1.8202e-05
-0.00364164
1.17265e-05
-0.00364352
4.95316e-06
-0.00364115
-2.55309e-06
-0.00363652
-1.0769e-05
-0.00362969
-1.55463e-05
-0.00362129
-2.30468e-05
-0.00361044
-2.9185e-05
-0.00359587
-3.71876e-05
-0.0035795
-4.28868e-05
-0.00356061
-4.93846e-05
-0.00353945
-5.58582e-05
-0.0035159
-6.20884e-05
-0.00349021
-6.83439e-05
-0.00346234
-7.44774e-05
-0.00343223
-8.05982e-05
-0.00340018
-8.63035e-05
-0.00336565
-9.22934e-05
-0.00332924
-9.79584e-05
-0.00329082
-0.000103587
-0.00325043
-0.000109097
-0.00320798
-0.000114551
-0.00316357
-0.000119739
-0.00311736
-0.000124964
-0.00306927
-0.000129961
-0.00301924
-0.000135065
-0.0029678
-0.000139646
-0.00291451
-0.000144384
-0.00285944
-0.000148953
-0.00280309
-0.00015311
-0.00274507
-0.000157489
-0.00268552
-0.000161538
-0.00262457
-0.000165539
-0.0025622
-0.000169316
-0.00249842
-0.000173057
-0.00243338
-0.000176581
-0.00236713
-0.000179965
-0.00229982
-0.000183168
-0.00223114
-0.000186348
-0.00216153
-0.000189118
-0.00209087
-0.000191959
-0.00201927
-0.000194579
-0.00194681
-0.00019709
-0.00187345
-0.000199352
-0.0017993
-0.000201563
-0.00172435
-0.000203573
-0.00164906
-0.000205037
-0.00157252
-0.000207271
-0.00149541
-0.000208489
-0.00141819
-0.000210048
-0.00134062
-0.000210344
-0.00126279
-0.000211721
-0.00118408
-0.000212571
-0.00110597
-0.000213008
-0.00102721
-0.00021307
-0.000948504
-0.000212894
-0.000869426
-0.000213007
-0.000212485
-0.000791006
-0.00394541
5.41452e-05
-0.00395668
4.38635e-05
-0.00396571
3.35225e-05
-0.0039705
2.29954e-05
-0.00397307
1.42967e-05
-0.00397315
5.02773e-06
-0.00396921
-6.49039e-06
-0.00396535
-1.46335e-05
-0.00395738
-2.35176e-05
-0.00394732
-3.31033e-05
-0.00393307
-4.34402e-05
-0.00391766
-5.25983e-05
-0.00389972
-6.08197e-05
-0.00387841
-7.06954e-05
-0.00385495
-7.93239e-05
-0.00382897
-8.80672e-05
-0.00380052
-9.67952e-05
-0.00376956
-0.000105432
-0.00373641
-0.000113752
-0.0037006
-0.000122108
-0.00366288
-0.000130013
-0.00362267
-0.00013817
-0.0035804
-0.000145857
-0.00353593
-0.000153565
-0.00348946
-0.000161022
-0.00344064
-0.000168557
-0.00338982
-0.000175779
-0.00333709
-0.000182692
-0.00328258
-0.000189575
-0.00322584
-0.000196376
-0.00316745
-0.000202778
-0.00310743
-0.000208972
-0.0030454
-0.000215134
-0.00298188
-0.000221012
-0.00291678
-0.000226636
-0.00285014
-0.000232176
-0.00278178
-0.000237674
-0.00271207
-0.000242771
-0.00264095
-0.000247697
-0.0025686
-0.000252317
-0.00249478
-0.000256979
-0.00242001
-0.000261116
-0.00234388
-0.000265253
-0.00226676
-0.000269075
-0.00218855
-0.000272788
-0.00210932
-0.000276316
-0.00202916
-0.000279512
-0.0019483
-0.00028242
-0.0018663
-0.000285575
-0.0017836
-0.000287736
-0.00170086
-0.000290008
-0.00161685
-0.0002925
-0.0015325
-0.000294398
-0.00144712
-0.00029572
-0.00136223
-0.00029661
-0.00127656
-0.000298234
-0.00119082
-0.000298743
-0.00110515
-0.000298741
-0.00101901
-0.00029903
-0.000933092
-0.000298928
-0.000298648
-0.000846928
-0.00430626
6.82824e-05
-0.00431622
5.38285e-05
-0.00432598
4.32818e-05
-0.00433158
2.85914e-05
-0.00433294
1.56607e-05
-0.00433226
4.34272e-06
-0.00433128
-7.47265e-06
-0.00432418
-2.17277e-05
-0.00431498
-3.27212e-05
-0.00430184
-4.62463e-05
-0.00428664
-5.86365e-05
-0.00426929
-6.99502e-05
-0.00424794
-8.21741e-05
-0.00422515
-9.3485e-05
-0.00420053
-0.000103937
-0.00417094
-0.000117661
-0.00413946
-0.000128281
-0.00410533
-0.000139559
-0.00406854
-0.000150539
-0.00402943
-0.00016122
-0.0039877
-0.000171745
-0.00394389
-0.000181978
-0.00389751
-0.000192229
-0.00384874
-0.00020234
-0.00379742
-0.000212338
-0.00374415
-0.000221822
-0.00368862
-0.000231307
-0.00363081
-0.00024051
-0.00357093
-0.000249447
-0.00350915
-0.000258155
-0.00344526
-0.000266669
-0.00337937
-0.000274855
-0.00331177
-0.000282735
-0.00324243
-0.00029035
-0.00317123
-0.000297833
-0.00309825
-0.000305157
-0.0030239
-0.000312026
-0.00294773
-0.000318935
-0.00287005
-0.000325382
-0.0027908
-0.000331564
-0.00271041
-0.000337365
-0.00262862
-0.000342902
-0.00254573
-0.00034815
-0.00246159
-0.000353206
-0.00237635
-0.00035803
-0.00229039
-0.00036227
-0.00220228
-0.000367628
-0.00211371
-0.000370982
-0.00202495
-0.00037434
-0.00193481
-0.00037787
-0.00184422
-0.000380599
-0.00175329
-0.000383421
-0.00166131
-0.000386381
-0.00156904
-0.000387985
-0.00147519
-0.000390459
-0.00138196
-0.000391468
-0.0012887
-0.000391997
-0.00119501
-0.000392434
-0.00110094
-0.000393096
-0.00100767
-0.000392196
-0.00039216
-0.000914156
-0.00469692
8.31136e-05
-0.00470959
6.64941e-05
-0.0047161
4.97958e-05
-0.00472244
3.49323e-05
-0.00472661
1.98347e-05
-0.00472471
2.437e-06
-0.00471872
-1.34581e-05
-0.00471251
-2.7941e-05
-0.00470039
-4.48406e-05
-0.00468811
-5.85246e-05
-0.00467182
-7.49284e-05
-0.00465155
-9.02194e-05
-0.0046292
-0.000104527
-0.00460295
-0.000119739
-0.00457271
-0.000134168
-0.00454061
-0.000149764
-0.00450595
-0.000162942
-0.00446883
-0.000176679
-0.0044284
-0.000190964
-0.00438525
-0.000204375
-0.00433964
-0.000217348
-0.00429115
-0.000230464
-0.00424019
-0.000243192
-0.00418676
-0.000255775
-0.00413089
-0.000268206
-0.00407234
-0.000280368
-0.00401161
-0.000292031
-0.00394843
-0.000303687
-0.00388298
-0.000314899
-0.0038155
-0.000325639
-0.00374569
-0.000336478
-0.00367376
-0.000346779
-0.00359995
-0.000356546
-0.00352432
-0.000365974
-0.00344659
-0.000375564
-0.00336721
-0.000384537
-0.00328581
-0.000393423
-0.0032027
-0.000402039
-0.00311806
-0.000410027
-0.00303192
-0.000417704
-0.00294406
-0.000425225
-0.00285498
-0.000431975
-0.00276456
-0.00043857
-0.00267263
-0.000445135
-0.00257981
-0.00045085
-0.00248587
-0.00045621
-0.00239145
-0.000462043
-0.00229538
-0.000467051
-0.00219807
-0.000471643
-0.00210029
-0.000475652
-0.00200132
-0.000479566
-0.00190135
-0.000483388
-0.00180176
-0.000485975
-0.00170062
-0.000489123
-0.00159982
-0.000491254
-0.00149842
-0.000492868
-0.00139577
-0.000494648
-0.0012935
-0.000494699
-0.00119191
-0.000494687
-0.00108974
-0.000494356
-0.000494028
-0.000987875
-0.00511967
9.853e-05
-0.00513291
7.97357e-05
-0.00514207
5.89641e-05
-0.00514712
3.99871e-05
-0.00514614
1.88555e-05
-0.00514509
1.38482e-06
-0.00513993
-1.8618e-05
-0.00513069
-3.71809e-05
-0.00511941
-5.61138e-05
-0.00510238
-7.55615e-05
-0.00508333
-9.39691e-05
-0.00506212
-0.000111434
-0.00503505
-0.000131596
-0.005006
-0.000148789
-0.00497501
-0.000165159
-0.00494008
-0.000184694
-0.00490115
-0.000201868
-0.00485942
-0.000218408
-0.00481454
-0.00023584
-0.00476781
-0.000251102
-0.00471743
-0.000267732
-0.00466456
-0.000283334
-0.00460883
-0.000298919
-0.00455022
-0.000314384
-0.00448885
-0.000329572
-0.00442486
-0.000344352
-0.0043582
-0.000358689
-0.0042893
-0.000372586
-0.00421807
-0.000386133
-0.00414429
-0.00039942
-0.00406808
-0.000412681
-0.00398977
-0.000425089
-0.00390911
-0.000437203
-0.00382667
-0.000448416
-0.00374224
-0.000459986
-0.00365571
-0.000471064
-0.00356721
-0.000481929
-0.00347666
-0.000492583
-0.00338433
-0.000502354
-0.00329025
-0.00051178
-0.00319468
-0.000520801
-0.00309716
-0.000529489
-0.00299887
-0.00053686
-0.00289931
-0.000544697
-0.00279876
-0.000551393
-0.00269626
-0.000558713
-0.00259242
-0.000565874
-0.00248796
-0.000571509
-0.00238328
-0.000576322
-0.00227643
-0.000582504
-0.00216915
-0.00058684
-0.00206173
-0.000590814
-0.00195249
-0.000595209
-0.00184318
-0.000598432
-0.00173278
-0.00060165
-0.00162195
-0.000603697
-0.0015116
-0.000604998
-0.00140064
-0.000605661
-0.0012893
-0.000606021
-0.00117815
-0.000605506
-0.000604914
-0.00106726
-0.00557443
0.000114392
-0.00558598
9.12846e-05
-0.00559374
6.67288e-05
-0.0055992
4.54458e-05
-0.00560088
2.05468e-05
-0.00559679
-2.70542e-06
-0.00559073
-2.46717e-05
-0.00557833
-4.9584e-05
-0.00556396
-7.04873e-05
-0.00554623
-9.32934e-05
-0.00552641
-0.000113781
-0.00550071
-0.000137136
-0.00547268
-0.000159629
-0.00544098
-0.000180485
-0.00540399
-0.000202153
-0.00536639
-0.000222297
-0.00532492
-0.00024333
-0.00527751
-0.000265821
-0.00522966
-0.000283686
-0.00517692
-0.000303845
-0.00512099
-0.000323659
-0.00506312
-0.0003412
-0.00500251
-0.000359532
-0.00493823
-0.000378663
-0.00487107
-0.00039673
-0.00480098
-0.000414445
-0.00472816
-0.000431499
-0.00465275
-0.000447994
-0.00457483
-0.000464055
-0.00449445
-0.000479802
-0.00441121
-0.000495915
-0.004326
-0.0005103
-0.00423817
-0.000525033
-0.00414899
-0.000537592
-0.00405716
-0.000551813
-0.00396315
-0.000565073
-0.00386706
-0.000578016
-0.00376845
-0.000591193
-0.00366763
-0.000603167
-0.00356538
-0.000614033
-0.00346153
-0.000624646
-0.0033559
-0.000635118
-0.00324814
-0.000644627
-0.00314053
-0.000652302
-0.00303077
-0.000661152
-0.00291884
-0.000670638
-0.00280764
-0.000677069
-0.0026937
-0.000685448
-0.00257955
-0.000690474
-0.00246449
-0.000697563
-0.00234743
-0.000703902
-0.00223061
-0.000707632
-0.00211251
-0.000713308
-0.00199455
-0.000716386
-0.00187422
-0.000721974
-0.00175454
-0.000723384
-0.00163325
-0.000726282
-0.00151271
-0.000726195
-0.00139197
-0.000726759
-0.00127181
-0.000725672
-0.000725735
-0.00115098
-0.0060609
0.000130625
-0.00607205
0.000102429
-0.00608006
7.47443e-05
-0.00608144
4.68269e-05
-0.00608154
2.0645e-05
-0.00607802
-6.21434e-06
-0.00607
-3.26944e-05
-0.00605723
-6.23462e-05
-0.00603933
-8.8388e-05
-0.00602084
-0.000111778
-0.00599628
-0.000138341
-0.00596827
-0.000165145
-0.00593785
-0.000190049
-0.00590063
-0.000217704
-0.00586425
-0.000238542
-0.00582061
-0.000265931
-0.00577269
-0.000291253
-0.0057235
-0.000315015
-0.00566767
-0.000339516
-0.00561097
-0.000360549
-0.00555165
-0.000382973
-0.00548662
-0.000406225
-0.00542167
-0.000424485
-0.00535099
-0.00044934
-0.00527679
-0.000470926
-0.00520108
-0.000490156
-0.00512053
-0.000512044
-0.00503908
-0.000529443
-0.00495215
-0.000550987
-0.00486668
-0.000565273
-0.00477382
-0.000588773
-0.00468263
-0.000601485
-0.00458532
-0.000622343
-0.00449035
-0.000632563
-0.004391
-0.000651156
-0.00428863
-0.000667447
-0.00418562
-0.000681025
-0.00407762
-0.000699189
-0.00396759
-0.000713191
-0.00385814
-0.000723485
-0.00374333
-0.000739457
-0.00362715
-0.000751294
-0.00351227
-0.000759502
-0.00339258
-0.000771995
-0.00327699
-0.000776745
-0.00315358
-0.000794041
-0.003034
-0.000796651
-0.00290845
-0.000810993
-0.00278714
-0.000811788
-0.00266249
-0.00082221
-0.002535
-0.000831385
-0.00241071
-0.000831922
-0.00228111
-0.000842907
-0.00215493
-0.000842563
-0.0020218
-0.000855101
-0.00189377
-0.000851412
-0.00175933
-0.000860725
-0.00163261
-0.000852911
-0.00149887
-0.000860501
-0.00137097
-0.000853567
-0.00123653
-0.00086018
-0.00075379
-6.24105e-05
-0.000691747
-6.20411e-05
-0.000630094
-6.16514e-05
-0.000568878
-6.12139e-05
-0.000508174
-6.07031e-05
-0.00044803
-6.0143e-05
-0.000388724
-5.93043e-05
-0.000330326
-5.83978e-05
-0.000273078
-5.72469e-05
-0.000217181
-5.58959e-05
-0.000161677
-5.55035e-05
-0.000104522
-5.71553e-05
-4.58504e-05
-5.8671e-05
1.32493e-05
-5.90995e-05
7.06537e-05
-5.74045e-05
0.000125376
-5.4723e-05
0.000178093
-5.27173e-05
0.000229198
-5.11045e-05
0.000278777
-4.95797e-05
0.0003268
-4.80233e-05
0.000373268
-4.64689e-05
0.000418129
-4.48618e-05
0.000461286
-4.31577e-05
0.000502608
-4.13223e-05
0.00054204
-3.94328e-05
0.000579519
-3.74804e-05
0.000614928
-3.54091e-05
0.000648131
-3.32045e-05
0.000679016
-3.08856e-05
0.000707492
-2.84767e-05
0.000733359
-2.58684e-05
0.00075646
-2.31019e-05
0.000776673
-2.02137e-05
0.00079375
-1.70786e-05
0.000807475
-1.37252e-05
0.00081765
-1.0176e-05
0.00082399
-6.34161e-06
0.000826435
-2.44521e-06
0.000825439
9.94795e-07
0.000820938
4.49937e-06
0.00081292
8.0173e-06
0.000800763
1.21564e-05
0.000783956
1.68052e-05
0.000762075
2.18802e-05
0.000734484
2.75897e-05
0.000700559
3.39242e-05
0.000659681
4.0877e-05
0.000611114
4.85663e-05
0.000554003
5.71103e-05
0.000487587
6.64151e-05
0.000411149
7.64365e-05
0.000324139
8.701e-05
0.000226017
9.81209e-05
0.000116075
0.000109941
-1.19265e-05
0.000128
-0.000152864
0.000140937
-0.000283203
0.000130337
-0.000391256
0.000108052
-0.000473004
8.17459e-05
-0.000533767
6.07617e-05
5.04916e-05
-0.00058426
-0.000686871
-0.000133607
-0.000615401
-0.00013351
-0.000544161
-0.00013289
-0.000473186
-0.000132187
-0.000402823
-0.000131065
-0.000332625
-0.00013034
-0.000262986
-0.000128942
-0.000193791
-0.000127591
-0.000125338
-0.000125699
-5.73246e-05
-0.000123909
1.13744e-05
-0.000124202
8.0048e-05
-0.000125829
0.000147213
-0.000125836
0.000213385
-0.000125271
0.000278969
-0.000122989
0.000343907
-0.000119661
0.000407675
-0.000116486
0.000470122
-0.000113552
0.000531186
-0.000110644
0.000590881
-0.000107718
0.0006492
-0.000104789
0.000705984
-0.000101646
0.000761216
-9.83906e-05
0.000814885
-9.49916e-05
0.000866881
-9.14296e-05
0.000917143
-8.77426e-05
0.000965535
-8.38023e-05
0.00101208
-7.97498e-05
0.00105663
-7.54336e-05
0.001099
-7.08501e-05
0.00113922
-6.60918e-05