/*--------------------------------*- C++ -*----------------------------------*\
| =========                 |                                                 |
| \\      /  F ield         | OpenFOAM: The Open Source CFD Toolbox           |
|  \\    /   O peration     | Version:  2.3.1                                 |
|   \\  /    A nd           | Web:      www.OpenFOAM.org                      |
|    \\/     M anipulation  |                                                 |
\*---------------------------------------------------------------------------*/
FoamFile
{
    version     2.0;
    format      ascii;
    class       volScalarField;
    location    "0.1";
    object      p;
}
// * * * * * * * * * * * * * * * * * * * * * * * * * * * * * * * * * * * * * //

dimensions      [0 2 -2 0 0 0 0];

internalField   nonuniform List<scalar> 
768
(
0.015298
0.0134809
0.00959698
0.00421657
-0.00170394
-0.00859223
-0.0160684
-0.021181
-0.0189841
-0.0148488
-0.00981188
-0.00474245
0.0142078
0.012404
0.00918297
0.00474805
-0.000301792
-0.00581044
-0.0110309
-0.0141804
-0.0135807
-0.0109785
-0.0072484
-0.0032216
0.0129834
0.0111875
0.00843961
0.00482058
0.000692698
-0.00362487
-0.00749
-0.00982941
-0.00980899
-0.00801678
-0.00519251
-0.00199458
0.0116841
0.0100859
0.00767647
0.00467401
0.00130258
-0.00212462
-0.00511618
-0.00697581
-0.00708325
-0.00580073
-0.00362308
-0.00103365
-0.000272152
0.00332661
0.00606582
0.00822677
0.0100357
0.0115979
0.0129733
0.0142732
0.0150775
0.0157422
0.0160032
0.0159426
0.000479449
0.00358782
0.00607226
0.00810827
0.00983091
0.011322
0.0126262
0.0137816
0.0145942
0.0151806
0.0152549
0.0149002
0.00106831
0.00381157
0.00605032
0.00795367
0.00958914
0.0110098
0.0122412
0.0132525
0.0140709
0.0145974
0.0145318
0.0138285
0.00156503
0.00397482
0.00602246
0.00780199
0.00935218
0.0107052
0.0118744
0.0128367
0.0135975
0.0141066
0.0139964
0.0128571
0.015298
0.0134854
0.00960636
0.00423093
-0.00168491
-0.00856887
-0.016039
-0.0211388
-0.0189451
-0.0148111
-0.00977543
-0.00470755
0.0142086
0.0124094
0.00919291
0.00476233
-0.0002834
-0.00578803
-0.0110035
-0.0141461
-0.0135461
-0.0109438
-0.00721414
-0.00318822
0.0129849
0.0111939
0.00845029
0.00483516
0.000710994
-0.00360294
-0.00746396
-0.00979882
-0.00977696
-0.00798418
-0.00515988
-0.00196239
0.0116872
0.0100934
0.00768797
0.00468898
0.00132091
-0.00210296
-0.00509104
-0.00694732
-0.00705295
-0.00576958
-0.00359164
-0.00100234
-0.000238763
0.00335874
0.00609733
0.00825836
0.0100679
0.0116314
0.0130091
0.0143125
0.015112
0.0157744
0.016034
0.0159724
0.000511817
0.00361943
0.00610351
0.00813966
0.0098629
0.0113551
0.0126608
0.0138177
0.0146279
0.0152125
0.0152856
0.01493
0.00109989
0.00384278
0.00608135
0.0079849
0.00962092
0.0110424
0.0122748
0.0132868
0.0141039
0.0146291
0.0145624
0.0138582
0.00159605
0.00400566
0.00605328
0.00783305
0.00938371
0.0107374
0.0119073
0.0128698
0.0136299
0.0141381
0.0140271
0.0128871
0.0103999
0.00908939
0.00702535
0.00452833
0.00173895
-0.00104353
-0.00341873
-0.00488969
-0.00505474
-0.00410897
-0.00238663
-0.000249534
0.00903079
0.0081372
0.00645518
0.0043877
0.00206631
-0.000224726
-0.00214974
-0.00333657
-0.00352431
-0.00280258
-0.00140485
0.000391456
0.00809771
0.00735901
0.00598722
0.00425011
0.0023035
0.000395939
-0.00119103
-0.00217015
-0.00235353
-0.00178146
-0.000619256
0.000917639
0.00736421
0.00675191
0.00560555
0.00413021
0.00247944
0.000870265
-0.000458685
-0.0012793
-0.0014476
-0.000978028
1.07688e-05
0.00134895
0.00678436
0.00627035
0.00529812
0.00403055
0.0026131
0.00123659
0.000105874
-0.000592452
-0.000742659
-0.000344483
0.000515352
0.00170087
0.00633575
0.00589373
0.00505399
0.00394962
0.00271538
0.00152011
0.000542121
-6.16899e-05
-0.000193947
0.000153843
0.000917123
0.00198546
0.00598992
0.00560245
0.00486354
0.00388587
0.0027938
0.00173876
0.000877868
0.00034674
0.000230506
0.000542377
0.00123326
0.00221198
0.00572809
0.00538133
0.00471831
0.0038375
0.00285388
0.00190554
0.00113314
0.000656966
0.000553976
0.000840038
0.00147695
0.0023878
0.00553622
0.00521906
0.0046118
0.00380276
0.00289947
0.00202992
0.00132251
0.000886461
0.00079368
0.00106114
0.00165841
0.00251891
0.00540377
0.00510711
0.00453882
0.0037802
0.00293337
0.00211895
0.00145674
0.00104802
0.000962462
0.00121653
0.0017856
0.00261019
0.00532292
0.00503914
0.00449546
0.00376879
0.00295767
0.00217791
0.00154387
0.00115103
0.00107002
0.00131458
0.00186481
0.0026657
0.00528709
0.00500884
0.00447711
0.00376597
0.00297227
0.00220956
0.00159032
0.00121205
0.00112432
0.00136232
0.00190182
0.00268991
0.0019819
0.00411329
0.00599435
0.00765976
0.00912923
0.0104186
0.0115327
0.0124533
0.0131685
0.0136573
0.013655
0.0122128
0.00233011
0.00423293
0.00597102
0.00753293
0.00892717
0.0101577
0.0112224
0.0121059
0.012788
0.0132441
0.0133752
0.012615
0.00262215
0.00433569
0.00595535
0.00742315
0.00874844
0.00992569
0.0109468
0.0117968
0.0124553
0.0128955
0.0130729
0.0126311
0.00286617
0.00442077
0.00594877
0.00733003
0.00859344
0.00972353
0.0107069
0.0115278
0.0121667
0.0126004
0.0127961
0.0125295
0.00306938
0.0044902
0.00594856
0.00725151
0.00846116
0.00955054
0.0105018
0.0112984
0.0119216
0.012352
0.0125652
0.0124333
0.00323829
0.00456637
0.00593145
0.00718431
0.00835008
0.00940525
0.0103299
0.0111066
0.011718
0.0121468
0.0123752
0.0123383
0.00337497
0.00462789
0.00591812
0.00712857
0.00825864
0.00928587
0.0101889
0.0109498
0.0115523
0.0119808
0.0122217
0.0122465
0.00348175
0.00467462
0.00590823
0.00708369
0.0081853
0.00919041
0.0100766
0.0108255
0.0114214
0.0118502
0.0121015
0.0121658
0.003561
0.00470755
0.00590058
0.00704875
0.00812851
0.00911695
0.00999078
0.010731
0.0113223
0.0117517
0.0120112
0.0121004
0.00361498
0.00472739
0.00589501
0.00702212
0.00808672
0.00906367
0.00992927
0.0106639
0.0112523
0.0116826
0.0119481
0.0120525
0.00364575
0.00473401
0.00589105
0.00700335
0.0080585
0.00902899
0.00989013
0.0106218
0.0112089
0.0116402
0.0119098
0.012023
0.00365687
0.00472851
0.00589172
0.00699259
0.00804355
0.00901172
0.0098712
0.0106024
0.0111894
0.0116215
0.0118931
0.0120111
0.0104057
0.00909811
0.00703784
0.00454377
0.00175737
-0.00102208
-0.00339427
-0.00486251
-0.00502569
-0.00407891
-0.0023561
-0.000218909
0.00903909
0.00814696
0.00646891
0.00440363
0.00208484
-0.000203452
-0.00212581
-0.00331026
-0.0034962
-0.00277338
-0.00137504
0.00042154
0.00810767
0.00737031
0.00600129
0.00426639
0.00232216
0.000417079
-0.00116748
-0.00214446
-0.00232614
-0.00175293
-0.000590015
0.000947294
0.00737554
0.00676432
0.00562009
0.0041468
0.00249821
0.000891321
-0.000435426
-0.00125407
-0.00142076
-0.000950024
3.95635e-05
0.00137827
0.00679673
0.00628365
0.00531313
0.00404744
0.00263198
0.00125759
0.000128912
-0.000567577
-0.00071624
-0.000316889
0.000543793
0.00172992
0.00634894
0.00590769
0.00506943
0.00396677
0.00273438
0.00154107
0.00056499
-3.70835e-05
-0.000167849
0.000181117
0.000945284
0.00201429
0.00600373
0.00561694
0.00487933
0.00390322
0.0028129
0.0017597
0.000900611
0.000371144
0.000256355
0.000569401
0.0012612
0.00224064
0.00574239
0.00539624
0.00473438
0.00385504
0.00287306
0.00192646
0.00115579
0.00068122
0.000579636
0.000866871
0.00150473
0.00241632
0.00555087
0.00523427
0.00462808
0.00382043
0.00291873
0.00205084
0.00134509
0.000910608
0.000819203
0.00108783
0.00168606
0.00254733
0.00541867
0.00512254
0.00455525
0.00379798
0.00295269
0.00213988
0.00147928
0.00107209
0.000987887
0.00124313
0.00181317
0.00263855
0.00533798
0.00505471
0.00451199
0.00378663
0.00297702
0.00219884
0.00156638
0.00117507
0.00109538
0.00134111
0.00189232
0.00269402
0.00530223
0.00502448
0.00449368
0.00378384
0.00299164
0.00223049
0.0016128
0.00123594
0.00114965
0.00138883
0.00192931
0.00271822
0.00201246
0.00414383
0.00602499
0.00769065
0.00916053
0.0104504
0.011565
0.0124857
0.0132004
0.0136885
0.0136855
0.0122432
0.0023603
0.00426319
0.00600149
0.00756365
0.00895825
0.0101891
0.0112542
0.0121378
0.0128195
0.0132751
0.0134056
0.0126455
0.00265203
0.00436571
0.00598569
0.00745371
0.00877932
0.00995689
0.0109783
0.0118283
0.0124866
0.0129263
0.0131033
0.0126617
0.00289583
0.00445064
0.00597893
0.0073604
0.00862413
0.00975451
0.0107381
0.0115591
0.0121977
0.0126312
0.0128265
0.0125602
0.0030989
0.00452038
0.00597812
0.00728169
0.00849169
0.00958135
0.0105328
0.0113294
0.0119526
0.0123827
0.0125957
0.012464
0.00326765
0.00459625
0.00596106
0.00721437
0.00838048
0.00943592
0.0103607
0.0111375
0.0117488
0.0121775
0.0124057
0.012369
0.00340419
0.00465756
0.00594772
0.00715853
0.00828894
0.00931643
0.0102196
0.0109806
0.0115831
0.0120114
0.0122523
0.0122771
0.00351086
0.00470416
0.00593779
0.00711357
0.0082155
0.00922088
0.0101073
0.0108563
0.0114521
0.0118808
0.0121321
0.0121964
0.00359005
0.00473705
0.00593007
0.00707856
0.00815864
0.00914736
0.0100214
0.0107617
0.011353
0.0117824
0.0120418
0.012131
0.003644
0.00475691
0.00592439
0.00705185
0.0081168
0.00909403
0.0099598
0.0106945
0.0112829
0.0117132
0.0119787
0.0120831
0.00367477
0.00476366
0.00592026
0.00703301
0.00808854
0.00905932
0.00992062
0.0106524
0.0112395
0.0116708
0.0119404
0.0120536
0.00368592
0.00475844
0.00592062
0.0070222
0.00807357
0.00904204
0.00990169
0.010633
0.01122
0.0116521
0.0119237
0.0120416
)
;

boundaryField
{
    rotor
    {
        type            zeroGradient;
    }
    stator
    {
        type            zeroGradient;
    }
    AMI1
    {
        type            cyclicAMI;
        value           nonuniform 0();
    }
    AMI2
    {
        type            cyclicAMI;
        value           nonuniform List<scalar> 
48
(
0.0160382
0.0142349
0.00991635
0.00381355
-0.00279521
-0.010666
-0.019448
-0.0253174
-0.0238386
-0.0186899
-0.0121917
-0.00589434
-0.000664205
0.00328762
0.00616433
0.00837285
0.0102019
0.0117765
0.01314
0.0144104
0.0153415
0.0161149
0.0165622
0.0166573
0.0160379
0.0142391
0.00992587
0.00382848
-0.00277543
-0.0106419
-0.0194175
-0.0252759
-0.0237962
-0.0186482
-0.0121522
-0.00585771
-0.000630037
0.00332007
0.00619599
0.00840452
0.0102342
0.0118101
0.0131761
0.0144486
0.0153758
0.0161468
0.0165927
0.0166868
)
;
    }
    front
    {
        type            empty;
    }
    back
    {
        type            empty;
    }
    procBoundary1to0
    {
        type            processor;
        value           nonuniform List<scalar> 8(0.0159471 0.0149046 0.0138332 0.0128628 0.0153272 0.0142377 0.0130141 0.0117162);
    }
}


// ************************************************************************* //
