/*--------------------------------*- C++ -*----------------------------------*\
| =========                 |                                                 |
| \\      /  F ield         | OpenFOAM: The Open Source CFD Toolbox           |
|  \\    /   O peration     | Version:  2.3.1                                 |
|   \\  /    A nd           | Web:      www.OpenFOAM.org                      |
|    \\/     M anipulation  |                                                 |
\*---------------------------------------------------------------------------*/
FoamFile
{
    version     2.0;
    format      ascii;
    class       volScalarField;
    location    "0.17";
    object      epsilon;
}
// * * * * * * * * * * * * * * * * * * * * * * * * * * * * * * * * * * * * * //

dimensions      [0 2 -3 0 0 0 0];

internalField   nonuniform List<scalar> 
9648
(
2374.11
2410.86
2398.85
2382.16
2361.19
2335.65
2304.99
2269.01
2227.89
2182.15
2132.46
2079.39
2024.07
1967.61
1910.83
1854.58
1799.73
1747.02
1696.85
1649.48
1605.2
1564.11
1526.19
1491.48
1459.93
1431.35
1405.63
1382.63
1362.24
1344.28
1328.68
1315.31
1304.06
1294.79
1287.4
1281.72
1277.62
1275.06
1274.01
1274.47
1276.39
1279.78
1284.65
1290.92
1298.64
1307.84
1318.54
1330.74
1344.57
1360.16
1377.54
1396.69
1417.78
1440.65
1465.06
1490.49
1516.48
1542.53
1568.03
1592.61
1616.09
578.524
571.18
560.607
555.558
553.091
552.905
554.76
558.559
563.937
570.393
577.639
585.049
592.312
599.202
605.557
611.185
616.061
620.263
623.866
626.872
629.414
631.574
633.411
635.04
636.578
638.072
639.562
641.107
642.776
644.609
646.624
648.87
651.37
654.097
657.061
660.298
663.789
667.563
671.643
676.055
680.805
685.841
691.149
696.735
702.578
708.734
715.212
721.965
728.912
736.091
743.446
750.915
758.43
766.01
773.495
780.86
787.957
794.928
801.655
808.094
814.227
242.01
247.09
254.585
264.906
276.946
290.419
305.342
321.354
338.211
355.419
372.752
389.802
406.306
422.037
436.827
450.564
463.194
474.722
485.173
494.591
503.047
510.606
517.362
523.409
528.843
533.743
538.181
542.234
545.965
549.435
552.703
555.819
558.813
561.709
564.526
567.264
569.963
572.62
575.271
577.964
580.693
583.486
586.301
589.117
591.94
594.745
597.541
600.313
603.06
605.782
608.456
611.064
613.562
616.007
618.282
620.496
622.555
624.612
626.503
628.276
629.928
150.514
162.424
176.38
192.094
209.157
227.398
246.626
266.537
286.804
307.042
326.948
346.206
364.587
381.897
398.008
412.828
426.327
438.517
449.431
459.134
467.691
475.18
481.7
487.347
492.227
496.437
500.064
503.191
505.877
508.193
510.197
511.946
513.515
514.935
516.245
517.468
518.565
519.558
520.452
521.278
522.138
523.008
523.907
524.818
525.699
526.573
527.415
528.234
529.044
529.835
530.592
531.335
532.036
532.707
533.299
533.876
534.435
534.971
535.462
535.919
536.381
121.455
136.834
153.983
172.611
192.448
213.276
234.808
256.711
278.634
300.195
321.081
341.003
359.76
377.195
393.217
407.751
420.795
432.384
442.57
451.441
459.074
465.55
470.979
475.461
479.121
482.069
484.402
486.204
487.536
488.463
489.047
489.364
489.471
489.44
489.315
489.091
488.807
488.392
487.866
487.298
486.661
486.053
485.47
484.907
484.404
483.908
483.419
482.921
482.406
481.903
481.395
480.887
480.385
479.875
479.355
478.824
478.309
477.785
477.238
476.68
476.117
112.526
130.188
149.558
170.326
192.161
214.788
237.858
261.006
283.857
306.016
327.187
347.082
365.555
382.469
397.805
411.469
423.491
433.951
442.903
450.484
456.781
461.86
465.867
468.883
471.069
472.547
473.407
473.762
473.644
473.139
472.326
471.236
469.979
468.579
467.062
465.515
463.904
462.271
460.608
458.86
457.125
455.332
453.552
451.873
450.239
448.721
447.24
445.778
444.335
442.897
441.488
440.096
438.72
437.358
435.997
434.671
433.367
432.061
430.739
429.415
428.073
111.989
131.489
152.66
175.141
198.487
222.408
246.491
270.355
293.649
315.893
336.879
356.263
374.006
389.969
404.276
416.725
427.394
436.44
443.875
449.931
454.707
458.206
460.664
462.088
462.713
462.665
462.025
460.936
459.395
457.499
455.349
452.975
450.457
447.833
445.093
442.258
439.505
436.72
433.98
431.361
428.653
425.951
423.251
420.575
418.07
415.67
413.368
411.137
408.929
406.757
404.615
402.506
400.438
398.362
396.309
394.297
392.324
390.385
388.429
386.44
384.464
115.376
136.432
159.114
182.983
207.439
232.205
256.877
281.068
304.442
326.387
346.844
365.305
381.97
396.616
409.699
420.713
429.818
437.309
443.014
447.385
450.548
452.328
453.224
452.96
451.974
450.386
448.226
445.765
442.813
439.562
436.168
432.517
428.856
425.135
421.246
417.364
413.483
409.561
405.849
402.217
398.696
395.152
391.625
388.211
384.839
381.672
378.605
375.665
372.779
369.938
367.145
364.408
361.707
358.977
356.288
353.688
351.101
348.609
346.061
343.465
340.954
120.326
142.491
166.452
191.231
216.617
241.807
266.634
291.051
314.105
335.642
355.265
372.712
387.955
401.026
412.747
422.266
429.767
435.598
439.776
442.5
443.847
443.876
442.982
441.197
438.684
435.426
431.885
428.106
423.671
419.128
414.39
409.604
405.019
400.187
395.134
390.399
385.446
380.395
375.601
370.859
366.258
361.609
357.583
353.371
349.136
345.324
341.348
337.805
334.067
330.552
326.888
323.561
320.297
316.863
313.527
310.479
307.177
304.421
301.244
297.95
295.019
1638.73
1660.51
1681.24
1700.93
1719.88
1738.62
1757.37
1775.57
1792.45
1808.55
1823.58
1838.07
1852.44
1867.08
1882.21
1898.6
1916.86
1937.48
1960.65
1986.51
2014.45
2043.9
2074.57
2106.14
2138.37
2171.39
2204.91
2239.03
2273.67
2308.82
2344.68
2381.11
2418.14
2455.93
2494.48
2533.69
2573.69
2614.6
2656.5
2699.23
2742.84
2787.56
2833.38
2880.14
2928.16
2977.32
3027.5
3078.76
3131.28
3185.13
3240.22
3296.44
3354.33
3413.52
3474.34
3536.6
3601.05
3667.73
3736.66
3807.74
3881.11
820.078
826.086
831.876
837.402
842.715
847.964
853.324
858.57
863.748
868.715
873.701
878.663
883.654
888.687
893.783
898.997
904.341
909.84
915.465
921.169
926.906
932.621
938.308
943.947
949.516
954.963
960.224
965.333
970.272
975.065
979.726
984.232
988.601
992.854
996.988
1001
1004.92
1008.74
1012.45
1016.07
1019.6
1023.07
1026.45
1029.74
1032.96
1036.1
1039.15
1042.09
1044.96
1047.76
1050.45
1053.06
1055.57
1058.14
1060.54
1063.04
1065.51
1068.23
1070.85
1073.57
1076.46
631.585
633.221
634.884
636.514
638.12
639.599
641.118
642.547
643.922
645.193
646.442
647.667
648.917
650.124
651.299
652.442
653.545
654.604
655.605
656.534
657.378
658.139
658.805
659.375
659.845
660.216
660.476
660.621
660.646
660.561
660.354
660.03
659.594
659.04
658.384
657.621
656.755
655.782
654.703
653.517
652.228
650.843
649.366
647.784
646.108
644.326
642.426
640.4
638.255
635.993
633.588
631.085
628.448
625.705
622.775
619.766
616.674
613.514
610.279
607.011
603.777
536.814
537.233
537.613
537.993
538.339
538.621
538.887
539.106
539.231
539.285
539.285
539.235
539.122
538.935
538.701
538.402
538.039
537.603
537.088
536.485
535.797
535.024
534.169
533.227
532.194
531.067
529.849
528.535
527.125
525.62
524.019
522.316
520.513
518.616
516.633
514.562
512.404
510.157
507.816
505.385
502.869
500.28
497.623
494.904
492.123
489.277
486.346
483.33
480.223
477.042
473.759
470.383
466.928
463.377
459.703
455.914
452.054
448.11
444.115
440.11
436.128
475.549
474.939
474.294
473.61
472.886
472.105
471.329
470.534
469.709
468.819
467.894
466.924
465.892
464.808
463.665
462.46
461.221
459.912
458.532
457.078
455.555
453.97
452.328
450.633
448.876
447.054
445.164
443.205
441.183
439.097
436.943
434.709
432.398
430.014
427.568
425.061
422.488
419.843
417.119
414.321
411.459
408.541
405.583
402.599
399.595
396.571
393.492
390.385
387.213
384
380.723
377.371
373.969
370.498
366.939
363.279
359.539
355.712
351.864
348.005
344.16
426.734
425.373
423.997
422.569
421.112
419.619
418.105
416.571
414.999
413.394
411.745
410.071
408.358
406.595
404.789
402.95
401.085
399.159
397.168
395.114
393.006
390.855
388.675
386.475
384.239
381.958
379.634
377.266
374.87
372.448
369.995
367.486
364.925
362.305
359.653
356.965
354.225
351.434
348.573
345.644
342.66
339.629
336.575
333.525
330.495
327.497
324.472
321.46
318.42
315.397
312.337
309.218
306.082
302.884
299.644
296.282
292.857
289.354
285.863
282.333
278.832
382.495
380.527
378.543
376.538
374.49
372.394
370.286
368.179
366.036
363.843
361.635
359.42
357.17
354.895
352.574
350.242
347.911
345.532
343.089
340.575
338.007
335.423
332.827
330.25
327.666
325.048
322.404
319.725
317.059
314.411
311.804
309.163
306.511
303.814
301.126
298.421
295.659
292.866
290.013
287.098
284.125
281.087
278.033
274.995
271.996
269.101
266.183
263.346
260.5
257.764
255.032
252.22
249.425
246.578
243.73
240.709
237.68
234.54
231.492
228.376
225.312
338.434
335.962
333.472
331.014
328.52
326.027
323.499
321.037
318.544
315.94
313.342
310.783
308.183
305.557
302.848
300.172
297.572
294.935
292.239
289.396
286.479
283.589
280.681
277.819
275.017
272.183
269.327
266.377
263.456
260.617
257.957
255.28
252.685
250.063
247.53
245.016
242.369
239.662
236.948
234.227
231.408
228.466
225.504
222.544
219.605
216.884
214.075
211.444
208.795
206.43
204.127
201.672
199.276
196.82
194.427
191.749
189.146
186.374
183.843
181.193
178.648
291.848
288.914
285.816
283.056
280.13
277.616
274.787
272.332
269.845
267.154
264.458
261.994
259.315
256.651
253.684
250.7
248.055
245.508
242.992
240.197
236.999
234.032
230.982
227.905
224.991
222.129
219.394
216.318
213.038
209.938
207.253
204.546
202.082
199.659
197.609
195.626
193.315
190.725
188.231
185.935
183.577
180.85
178.055
175.317
172.492
170.047
167.261
164.851
162.286
160.419
158.652
156.551
154.647
152.659
150.828
148.439
146.286
143.808
141.845
139.697
137.785
3957.86
4037.54
4119.39
4203.32
4289.68
4379.28
4471.46
4566.03
4662.84
4762.81
4864.99
4969.2
5080.2
5219.28
5349.53
5478.17
5609.25
5742.98
5879.46
6018.53
6160.35
6304.87
6451.79
6601.21
6752.83
6905.94
7060.22
7215.42
7371.33
7527.03
7682.41
7836.84
7989.41
8139.47
8286.49
8429.02
8566.03
8693.56
8800.88
8879.3
8931.18
8957.62
8958.19
8930.97
8874.33
8785.79
8661.32
8496.32
8286.56
8027.54
7713.14
7336.72
6893.32
6374.64
5790.1
4786.37
4347.55
4128.66
4045.99
4013.82
3945.94
1079.66
1083.01
1086.62
1090.34
1094.16
1098.23
1102.8
1107.74
1113.03
1118.7
1122.48
1124.1
1127.42
1131.58
1137.39
1143.48
1149.52
1155.63
1161.92
1168.42
1175.12
1182.07
1189.23
1196.62
1204.23
1212.05
1220.12
1228.47
1237.15
1246.23
1255.73
1265.76
1276.42
1287.84
1300.14
1313.57
1328.35
1344.73
1367.19
1398.99
1436.11
1475.9
1518.88
1565.17
1615.45
1670.02
1728.94
1792.5
1860.94
1933.82
2010.23
2088.52
2166.85
2244.71
2314.72
2381.24
2439.27
2527.21
2631.81
2741.45
2711.5
600.555
597.377
594.201
591.029
587.808
584.605
581.473
578.407
575.322
571.819
566.362
560.567
555.732
551.536
548.084
544.799
541.398
537.879
534.302
530.699
527.096
523.488
519.87
516.245
512.615
508.98
505.357
501.753
498.191
494.67
491.217
487.855
484.597
481.491
478.563
475.866
473.447
471.38
469.948
469.517
470.907
476.703
485.847
498.326
514.608
535.351
561.27
593.381
632.667
680.188
736.938
803.683
881.583
971.13
1072.46
1182.94
1292.25
1411.18
1555.43
1740.34
1936.43
432.178
428.275
424.405
420.542
416.635
412.717
408.803
404.888
400.852
396.119
390.245
384.575
379.532
375.008
370.919
366.981
363.003
358.98
354.927
350.873
346.819
342.753
338.681
334.609
330.538
326.479
322.438
318.416
314.42
310.454
306.52
302.626
298.784
295.005
291.299
287.686
284.185
280.812
277.608
274.632
272.008
270.041
269.659
270.797
273.536
278.228
285.343
295.542
309.669
328.744
354.171
387.256
429.642
482.485
546.607
620.27
699.037
784.017
883.073
1009.5
1169.38
340.354
336.645
332.988
329.333
325.613
321.881
318.12
314.346
310.448
305.923
300.734
295.847
291.407
287.378
283.616
279.988
276.354
272.741
269.14
265.57
262.017
258.439
254.866
251.308
247.757
244.229
240.725
237.25
233.795
230.366
226.961
223.589
220.252
216.961
213.724
210.552
207.454
204.443
201.527
198.727
196.074
193.634
191.569
190.318
189.751
190.021
191.352
194.047
198.541
205.376
215.348
229.462
248.913
274.974
308.712
350.337
398.408
452.291
514.014
588.865
683.478
275.341
272
268.72
265.465
262.07
258.672
255.223
251.817
248.319
244.385
239.98
235.887
232.123
228.707
225.443
222.287
219.117
216.026
212.975
209.988
207.028
204.02
201.036
198.087
195.145
192.242
189.36
186.512
183.675
180.856
178.052
175.278
172.531
169.828
167.169
164.569
162.032
159.567
157.176
154.873
152.669
150.59
148.678
147.034
145.9
145.152
144.919
145.323
146.576
148.953
152.829
158.727
167.323
179.393
195.833
217.237
243.734
275.344
312.581
356.95
411.496
222.163
219.232
216.374
213.592
210.55
207.534
204.425
201.47
198.47
195.253
191.577
188.21
185.068
182.283
179.529
176.881
174.167
171.608
169.094
166.665
164.271
161.778
159.353
157.009
154.659
152.366
150.073
147.828
145.564
143.317
141.064
138.85
136.659
134.521
132.419
130.379
128.391
126.472
124.617
122.841
121.147
119.558
118.085
116.766
115.714
114.948
114.457
114.305
114.594
115.457
117.082
119.721
123.695
129.44
137.437
148.191
162.125
179.55
200.896
226.878
258.703
175.836
173.316
170.904
168.671
166
163.401
160.63
158.177
155.721
153.266
150.232
147.501
144.884
142.71
140.418
138.283
135.976
133.934
131.913
129.97
128.082
126.008
124.084
122.349
120.551
118.812
117.026
115.332
113.552
111.796
109.994
108.279
106.577
104.961
103.361
101.835
100.333
98.904
97.5297
96.2456
95.0327
93.9259
92.9285
92.0371
91.2904
90.801
90.4758
90.3421
90.4641
90.9123
91.7852
93.2045
95.3409
98.3929
102.614
108.295
115.738
125.278
137.271
152.194
170.667
135.29
133.12
131.17
129.569
127.27
125.106
122.642
120.747
118.844
117.156
114.67
112.463
110.209
108.643
106.702
105.097
103.105
101.589
99.9884
98.3904
96.9357
95.1403
93.6688
92.6402
91.3052
89.9784
88.5494
87.3678
85.911
84.529
83.0023
81.7502
80.4482
79.3187
78.1194
77.035
75.8597
74.8079
73.8245
72.9615
72.1783
71.4906
70.9269
70.4486
70.007
69.7037
69.567
69.538
69.7227
70.0479
70.7531
71.7553
73.261
75.2349
77.8919
81.269
85.6592
91.1586
98.1577
106.912
117.76
3807.92
3656.96
3497.56
3332.23
3170.45
3017.2
2874.55
2745.11
2631.2
2533.73
2452.34
2385.62
2332.02
2289.67
2256.45
2230.55
2210.44
2195.04
2183.47
2174.97
2169.19
2165.76
2164.37
2164.96
2167.48
2171.74
2177.66
2185.19
2194.33
2204.88
2216.72
2229.72
2243.67
2258.24
2273.23
2288.25
2302.93
2316.88
2329.86
2341.51
2351.38
2359.32
2365.22
2369.04
2371.03
2371.64
2371.16
2369.97
2368.74
2368.22
2368.69
2370.18
2373.02
2377.13
2381.94
2386.93
2391.53
2395.4
2397.22
2395.98
2390.41
2509.61
2291.98
2081.11
1879.3
1707.23
1552.75
1414.58
1292.14
1184.69
1091.9
1013.11
947.047
891.983
846.328
809.372
779.9
756.174
736.638
720.152
705.955
693.63
682.866
673.498
665.418
658.536
652.787
648.154
644.76
642.517
641.363
641.275
642.215
644.16
647.055
650.805
655.296
660.412
666.034
671.988
678.06
683.983
689.443
693.996
697.158
698.506
697.637
694.22
688.154
679.645
669.201
657.532
645.492
633.96
623.579
614.496
606.711
599.613
592.878
586.485
581.668
578.671
2026.24
2010.59
1903.11
1717.26
1528.65
1350.27
1182.08
1032.97
903.655
791.773
697.134
618.504
554.029
502.042
461.253
429.677
404.703
384.172
367.073
352.735
340.614
330.268
321.346
313.569
306.733
300.701
295.407
290.849
286.982
283.74
281.081
278.988
277.426
276.337
275.674
275.372
275.364
275.576
275.929
276.328
276.663
276.82
276.677
276.086
274.914
273.001
270.209
266.43
261.654
255.965
249.632
243.144
237.087
232.05
228.327
226.151
225.483
226.2
227.923
230.68
235.204
1336.02
1483.8
1580.89
1597.87
1526.14
1397.45
1229.05
1059.32
906.712
768.911
650.508
553.001
473.597
410.583
361.499
323.38
293.479
269.328
249.586
233.461
220.221
209.286
200.186
192.519
185.969
180.301
175.365
171.055
167.287
163.999
161.157
158.74
156.713
155.025
153.616
152.428
151.401
150.473
149.578
148.643
147.593
146.355
144.853
143.02
140.795
138.133
135.014
131.451
127.515
123.324
119.082
115.096
111.729
109.34
108.259
108.826
111.288
115.636
121.935
130.068
139.669
798.965
932.969
1074.95
1202.65
1285.86
1306.63
1259.61
1156.74
1022.94
873.25
730.618
609.875
507.382
424.444
359.404
308.329
268.318
236.601
211.18
190.826
174.526
161.486
151.03
142.547
135.543
129.646
124.596
120.237
116.469
113.199
110.374
107.972
105.952
104.258
102.831
101.612
100.543
99.5661
98.6235
97.6516
96.5857
95.3652
93.933
92.2389
90.2426
87.9218
85.2794
82.344
79.1673
75.8523
72.5544
69.503
67.0135
65.4666
65.2587
67.0055
70.9342
77.1101
85.4536
95.7546
107.775
479.16
562.977
664.014
778.975
896.475
999.646
1068.59
1087.1
1051.52
969.195
856.643
733.698
610.831
503.765
417.308
346.737
291.076
247.043
211.655
183.698
161.831
144.89
131.78
121.482
113.207
106.397
100.728
95.9705
91.9325
88.4817
85.5414
83.0756
81.0379
79.3606
77.9778
76.8284
75.8524
74.995
74.2002
73.4088
72.5615
71.6055
70.4892
69.1709
67.6132
65.7999
63.7333
61.4405
58.9576
56.3609
53.7678
51.3613
49.4088
48.2861
48.5007
50.584
54.9652
61.8728
71.2812
82.9809
96.7576
298.006
346.925
407.73
482.025
569.237
665.369
761.312
843.444
897.066
910.632
880.686
813.859
722.519
621.008
521.85
429.558
353.662
292.299
241.359
201.182
170.121
146.675
129.136
115.77
105.312
96.8877
90.0046
84.3528
79.719
75.8358
72.5747
69.8799
67.6949
65.9314
64.5125
63.3681
62.4347
61.6553
60.9751
60.3356
59.6792
58.9586
58.1238
57.1365
55.9563
54.5728
52.9838
51.214
49.2854
47.2633
45.2409
43.3752
41.9023
41.1633
41.6592
43.956
48.6118
56.0235
66.2799
79.1831
94.4806
193.6
222.141
257.785
302.125
356.551
421.532
495.804
574.966
651.554
714.855
753.846
761.235
736.467
683.546
611.485
529.068
446.526
369.689
298.673
241.661
196.635
163.235
139.029
121.01
107.168
96.2041
87.3973
80.3328
74.6756
70.0259
66.1902
63.0552
60.559
58.572
57.0031
55.7643
54.7868
54.0036
53.3648
52.8054
52.2696
51.7133
51.0895
50.3572
49.4721
48.4276
47.2171
45.8652
44.3836
42.8286
41.2816
39.8821
38.8438
38.482
39.2739
41.8203
46.7642
54.6528
65.6934
79.7102
96.3716
131.347
148.158
169.1
195.393
228.088
268.266
316.477
372.49
434.214
497.921
555.923
601.931
629.232
634.467
615.535
574.371
516.664
447.196
375.913
304.945
241.161
194.489
161.359
136.883
117.933
103.098
91.2744
82.0545
74.8685
69.0268
64.2783
60.409
57.3942
55.0075
53.1547
51.6996
50.5828
49.6978
49.0253
48.4641
47.9817
47.5165
47.0447
46.4969
45.8438
45.062
44.1663
43.153
42.0516
40.8883
39.7599
38.7797
38.162
38.1968
39.3282
42.1761
47.4215
55.7547
67.4239
82.3845
100.068
0.834232
189.947
168.959
2.7988
1.12986
0.177273
0.000741716
83.8654
0.000770941
0.0142564
115.471
6.45908
0.000740923
260.693
0.144058
129.762
0.000751608
83.6012
139.646
0.000756534
3.07887
252.29
178.71
0.000783351
0.000760051
0.207332
0.000753821
8.22992
0.000747992
0.000786681
3.15163
0.000894126
0.00877321
102.088
3.64127
136.464
101.367
15.2159
0.000733831
46.9584
66.0768
21.4193
0.000740692
97.631
222.238
0.658664
0.000771718
0.00747313
7.45089
6.70945
380.159
340.848
0.000725423
0.000955184
0.0759515
0.0387358
0.00078401
9.54291
86.0329
265.846
154.734
0.000859876
6.68337
0.0229343
186.04
6.71078
64.002
61.8558
0.00118459
0.000747399
14.0907
39.9163
56.8287
0.156599
0.0551463
110.671
208.572
53.1564
0.000718241
5.05247
0.0020944
49.2658
0.0667948
105.71
0.00074972
8.33189
0.000768287
57.6564
0.0138205
0.00125724
0.198825
0.000717248
0.000877412
289.802
132.979
0.000822642
1.47871
0.798201
0.00186622
200.064
4.09684
13.1283
5.93995
0.000717134
0.000730359
0.000722235
1.41599
0.204607
0.000760896
166.323
215.656
0.0064506
280.771
41.8553
118.328
84.2048
47.0783
0.00102071
0.0978581
0.000911343
0.00244569
238.855
0.00193983
280.225
399.105
27.1445
0.000744067
6.33943
6.22964
0.000741594
0.029738
0.0248022
98.0941
0.00138783
96.7529
0.000747471
0.000729206
381.579
332.811
0.000742103
0.289081
140.707
0.231398
0.882091
39.7893
105.419
3.94579
41.4407
0.00486694
261.511
15.1684
0.0385789
47.9779
103.347
179.033
0.0007467
0.000739242
0.460703
0.000751734
69.5423
0.947791
0.00145253
0.000744748
0.000745158
0.000758425
38.1256
71.7671
35.0187
0.000921566
284.788
341.31
411.114
164.977
0.00701293
209.822
75.1737
44.7619
0.000737395
0.0015397
211.261
86.1162
21.9433
64.4523
0.000742075
0.000804226
281.899
0.0271758
2.35761
0.000756751
0.000764505
0.165003
0.000820422
312.116
3.47579
0.000744183
0.600329
99.2457
122.047
0.00123775
87.901
0.000743711
0.000743809
93.4551
29.9184
287.903
0.00125578
0.000772558
0.00325948
37.8118
115.247
9.649
106.392
13.4236
225.292
0.872429
81.7805
76.798
19.5352
9.97509
61.2969
0.00109125
0.0273903
0.000742192
0.000837441
46.6949
0.00899044
0.0105354
0.00128376
0.00637804
45.9335
239.416
0.0111071
150.679
6.70947
0.72576
0.000733027
0.3332
35.5501
6.48091
0.00111394
5.15958
34.4675
0.934896
7.81301
264.267
7.65656
5.32779
117.207
0.000966822
0.000730435
0.00095454
0.00441239
45.2539
0.000760185
0.00161183
0.000731916
1.73229
55.0684
102.593
65.5186
15.8649
10.5198
312.481
0.00119331
77.4672
98.1003
0.000741583
124.502
0.000749373
354.217
1.73085
85.2809
0.00141432
0.000746894
19.2548
8.00747
0.000759497
0.000741968
0.000746404
0.000751076
1.11475
36.4165
41.2501
0.0132491
0.000760325
0.000729785
0.000716811
99.7469
0.552243
0.00108823
16.179
0.110291
0.122362
0.000720217
0.769701
0.000760094
0.0478857
48.7387
314.31
14.9942
0.000870505
0.00168579
53.8241
0.271326
136.433
311.737
0.000818191
0.000738965
0.000734084
150.718
0.000754458
111.475
0.000748861
20.0267
17.8739
0.0250508
189.853
260.494
0.00115907
66.6845
51.5136
91.7838
78.0035
4.83066
330.13
55.7447
50.4839
165.947
89.8848
57.023
0.297704
321.499
271.955
79.5739
51.7658
0.00151866
256.735
174.972
224.004
0.0175983
0.000828683
0.000743556
0.000783672
0.737078
1.44413
3.06714
0.110827
0.000737146
162.082
0.000744545
42.1172
20.8282
186.193
26.6123
16.9026
0.00166172
0.00102761
0.602865
129.718
0.00397625
8.26962
297.633
56.984
80.1066
171.696
56.2281
0.00078788
275.539
131.884
98.2526
0.000743718
179.484
143.277
0.000761703
47.1669
0.000744309
401.254
174.991
43.0811
77.0371
161.064
141.968
0.000779291
141.948
0.000903873
89.9072
77.7104
44.4409
271.881
3.21323
0.469806
2.48858
0.00102663
458.12
7.74781
0.00277718
0.00714914
299.858
0.000895931
88.52
0.000741918
0.0007434
0.00186712
31.9286
0.162839
19.3153
0.00124818
79.0211
0.27404
198.046
299.977
34.9433
358.522
0.000832216
272.13
39.9075
0.000736502
75.1698
23.0359
0.000722626
0.00073113
140.922
0.00208261
16.7401
0.584852
120.423
0.0161907
2.93279
35.7829
103.258
29.9463
62.6474
64.1146
0.00159401
0.0518084
49.0841
14.9368
321.358
355.764
121.199
0.0742127
116.737
115.702
3.45024
98.4511
41.326
23.3347
0.00104746
80.4348
366.454
0.00102341
94.5347
17.9082
41.903
0.0132083
0.0780139
282.834
0.00164988
317.308
0.00115326
1.96265
0.000739375
7.59945
177.917
0.525831
0.0012196
0.000990934
117.524
40.2733
1.87146
5.72828
321.279
554.679
0.00395057
10.6628
41.0195
109.15
39.1214
465.889
44.7075
160.482
49.0162
4.54794
11.9081
294.22
55.0564
341.326
165.411
1.4699
224.313
93.3306
0.000826745
101.009
47.2128
15.9801
0.0100662
88.8393
46.0343
3.60281
54.0265
0.00160483
0.000746159
0.878918
10.6242
86.9906
101.928
0.000749539
0.00074184
0.00073802
42.976
0.0303064
0.000742882
0.2126
77.0528
312.895
0.00397161
0.00405974
0.000728258
0.000738968
0.00164692
29.9111
102.639
14.7636
1.84762
277.679
402.286
0.00153251
45.2504
44.6823
43.9804
71.3754
424.705
0.000838505
0.00408739
0.000741404
412.065
0.662384
0.00073036
9.65096
0.311786
291.731
0.000759139
304.063
7.79474
0.0460109
194.825
0.000737885
0.00073286
0.000958561
387.561
50.2125
123.866
353.432
3.9287
48.3706
0.000720084
0.00167581
0.624535
0.0149857
0.0149667
179.728
63.6767
0.000742788
26.0876
78.1037
173.388
390.182
0.00253792
393.929
0.00167572
0.0191018
198.906
0.000735596
140.602
0.000758679
0.000765821
0.0241628
53.5071
2.76376
325.854
62.7426
0.000843439
44.6892
521.301
1.15889
3.17094
12.4692
0.000754626
0.00074558
0.00227814
130.203
5.80596
0.000843394
253.287
302.1
207.826
0.623486
96.0553
0.00115553
27.4804
0.336249
0.116365
160.668
52.1788
153.667
167.598
0.000769651
0.000721585
0.00411142
77.4806
92.2872
5.25629
0.00585535
0.000751084
0.000737897
0.00313572
0.130345
0.0018865
110.373
22.4668
0.00510906
39.6605
163.2
0.000754518
54.3792
0.000742226
2.46832
0.000762438
0.012309
25.8012
0.0106922
0.000744288
3.59134
343.869
240.659
0.000743389
0.000734129
1.36957
0.159518
0.000746597
79.9083
0.000854568
57.2556
359.239
28.0214
94.1372
298.531
154.226
325.947
0.000738345
0.00250591
0.0141993
311.465
64.0789
184.648
3.13257
4.57141
110.058
218.337
110.131
12.34
34.439
0.000749542
1.26927
68.7904
31.3012
335.2
19.3742
0.529954
39.7897
0.203416
0.0639943
68.6672
0.000740707
169.669
0.00084308
2.86533
285.174
201.724
2.60016
0.00233824
7.26916
0.000748816
0.000735011
0.167906
0.0119931
86.3266
0.00760232
44.3114
0.000749917
0.0164698
0.000729931
90.4129
0.00655999
100.874
304.489
0.0127274
169.591
361.704
0.000744474
100.424
269.317
0.000816323
279.892
0.400993
0.00101002
0.000754609
259.977
0.000732416
0.00104708
0.107863
0.217115
426.246
261.716
0.000751339
0.000737699
10.7195
25.3941
0.0063607
6.68404
20.7362
0.000746045
0.00089619
0.000796397
162.597
264.083
3.50388
282.686
0.0153669
40.9979
0.000833981
0.00617449
0.0142368
0.0455148
0.000744274
295.18
0.000741298
0.0143313
0.000750571
5.67599
0.013252
0.196081
1.81652
5.1218
52.0165
1.53364
9.0522
45.0467
183.026
0.000801182
197.224
310.425
12.7912
71.095
0.000764343
287.305
69.8047
0.000742216
401.555
98.2825
0.017066
0.0780175
156.017
155.741
0.38645
303.331
401.649
4.16723
421.928
244.115
123.987
84.6881
14.3395
26.7759
252.02
271.506
0.012773
291.646
33.1972
427.16
0.000811762
1.57509
0.691691
219.243
154.464
0.0104727
461.617
189.66
7.1581
0.0687385
2.90209
45.9598
0.00139472
45.6348
436.166
0.0288492
215.483
11.5713
88.3063
182.705
0.000740887
0.00168952
6.51676
5.35908
0.0146038
0.00074696
0.889006
1.97018
0.00115237
0.000758637
290.849
6.26882
46.3499
10.7853
0.00272111
0.00100218
1.12012
106.03
0.000793513
19.4398
48.3293
1.71066
175.48
0.000956714
0.434173
0.000738415
2.54928
82.4397
0.00213425
0.173642
64.5164
144.297
0.467092
92.7596
5.28756
0.265838
0.000971371
29.7816
311.737
0.000740905
0.000740319
141.42
0.0138539
0.000758155
67.9742
4.91088
165.578
45.506
39.0008
0.270724
16.2362
230.657
144.601
288.702
0.000752144
306.457
0.000900758
19.1779
0.000922152
0.00161698
71.5205
0.00211304
278.265
0.011964
0.0285266
46.2198
7.97617
7.07755
0.000845745
174.383
0.000839501
0.000729409
326.152
153.288
38.5301
43.9342
0.000780797
0.000721659
17.7798
141.818
0.000722833
196.257
37.9605
0.000744871
163.727
0.000726422
3.61812
6.19142
9.90011
1.27082
78.0075
14.7971
0.000726087
258.314
314.202
0.000739462
0.0155176
45.7133
0.000728589
232.597
168.169
421.393
0.000740795
0.000730337
248.434
0.126394
0.000836648
31.5836
81.7459
297.68
0.000727859
0.000811208
0.0140645
0.0115517
0.000744406
0.00205946
120.648
67.6648
0.000741625
11.1136
0.000745931
10.6544
0.00113886
0.000826284
24.7914
0.000733809
0.213286
0.000731699
42.2944
15.7425
17.1243
179.842
378.96
197.296
4.58019
23.321
0.000758209
5.02244
269.473
540.871
0.139424
0.000798058
122.708
0.00074407
0.70735
0.000729553
433.253
15.9063
3.37127
182.743
53.0097
5.30786
75.7714
8.01147
217.958
109.894
0.000755381
0.000801577
0.00278258
0.000886392
0.0129492
84.1228
0.000967524
230.413
0.00170629
0.0855793
2.65211
187.06
0.00142063
37.6137
0.0159881
43.3028
27.7981
433.242
0.000935006
0.00100003
5.69529
83.1656
64.6802
62.2831
1.62301
12.1066
15.7229
0.0623509
6.40879
2.19103
53.2543
0.000740236
414.226
1.26969
53.6953
0.000761411
50.9699
16.9069
0.00341092
91.0132
16.0914
0.0734943
0.00073754
0.000741873
242.633
46.7369
18.052
0.000728082
0.00851069
83.1223
182.034
4.44506
0.00520351
0.000726329
133.55
122.799
55.9577
32.757
0.000738687
144.327
422.772
0.000746677
0.000748805
18.8809
0.00175568
0.00341957
1.15669
48.2157
0.00112458
53.9065
332.125
0.000785065
0.000848211
0.000732148
0.000747856
62.3096
536.164
316.279
0.018408
30.0049
72.8988
0.128496
41.0768
0.00102305
55.863
0.508281
46.0703
5.26645
83.5289
147.686
0.177178
0.000758635
153.7
97.3933
319.842
5.07031
47.6575
0.524772
11.8027
0.00331528
0.00121269
203.999
136.229
0.0542803
6.16538
0.000746554
0.0884803
17.7547
0.0304366
14.0749
11.5539
401.719
58.7088
1.69676
267.676
134.422
72.7378
14.0069
248.544
213.542
3.13559
36.1148
0.010427
45.8174
43.0665
0.000742952
0.000729515
0.211831
0.000742934
0.000814632
73.5965
317.889
0.000740551
103.935
0.000741137
0.000735521
0.000730064
0.000787956
0.00174318
45.6446
35.4527
242.552
0.000741949
0.00110657
5.92666
0.000813436
0.0279025
0.000762675
0.000793208
209.229
0.00093061
0.00428821
199.792
0.0039469
0.000748617
236.735
0.000742589
0.00075057
2.45361
0.000824772
11.5885
0.00132925
0.0209897
0.000743525
0.000756891
292.661
405.881
37.2403
0.0246398
158.889
14.3117
0.00138304
42.2632
329.685
228.769
495.243
0.000764811
17.397
56.1988
0.232422
46.0237
106.929
0.333766
48.6898
1.09859
47.0994
3.54677
7.00571
0.000757427
203.645
0.000960593
48.0119
29.348
0.000747171
0.863258
0.00215059
0.0244003
0.000739396
3.57547
0.000846796
0.000752146
58.1262
0.0284648
0.145733
224.347
153.799
0.00086431
0.00100922
27.7599
251.796
0.000733988
0.000745918
0.22533
24.562
141.336
0.00211831
14.1923
0.000740784
0.00078821
0.000725702
0.0253079
25.0285
0.00411857
278.393
46.9817
250.486
163.501
0.000804138
282.954
62.2653
0.000734512
0.000753993
0.000750404
0.00109203
0.000737571
168.098
0.000745003
0.000738936
359.461
1.04637
0.00234131
0.0161756
97.2217
7.34718
0.0648906
0.000800002
179.103
0.000762602
10.4717
0.000766976
0.000810392
155.467
146.097
0.0030072
0.000972406
21.1442
0.00074359
376.066
0.000762762
136.536
0.0149396
8.82209
0.706208
3.39886
3.26413
30.3579
0.000760505
0.000818805
0.00423489
49.8558
0.205305
293.383
0.000743744
0.00133844
0.00151204
248.52
61.327
287.8
0.0022676
0.00354332
0.837244
0.000750622
35.8744
36.6474
0.00778975
292.658
174.272
49.1268
0.00146416
1.28252
188.118
214.046
44.6861
0.0104084
171.362
6.72878
121.377
0.127344
2.03202
34.322
0.000761909
44.2638
0.00114097
0.00442033
0.0212281
0.0407551
0.000854647
10.3229
0.000742507
43.6462
0.124203
0.000801858
2.03653
0.000756618
0.668902
0.193921
58.6047
3.98206
113.144
0.66677
0.000747639