/*--------------------------------*- C++ -*----------------------------------*\
| =========                 |                                                 |
| \\      /  F ield         | OpenFOAM: The Open Source CFD Toolbox           |
|  \\    /   O peration     | Version:  2.3.1                                 |
|   \\  /    A nd           | Web:      www.OpenFOAM.org                      |
|    \\/     M anipulation  |                                                 |
\*---------------------------------------------------------------------------*/
FoamFile
{
    version     2.0;
    format      ascii;
    class       volScalarField;
    location    "0.17";
    object      p;
}
// * * * * * * * * * * * * * * * * * * * * * * * * * * * * * * * * * * * * * //

dimensions      [0 2 -2 0 0 0 0];

internalField   nonuniform List<scalar> 
9648
(
-0.478747
-0.910123
-1.41361
-1.95249
-2.57974
-3.31291
-4.15925
-5.13567
-6.2549
-7.53097
-8.97321
-10.5932
-12.4024
-14.4097
-16.6223
-19.0481
-21.6923
-24.5608
-27.6529
-30.9692
-34.5115
-38.2721
-42.2471
-46.4272
-50.8036
-55.3634
-60.095
-64.995
-70.0496
-75.2505
-80.5687
-85.979
-91.4532
-96.96
-102.496
-108.046
-113.607
-119.156
-124.669
-130.119
-135.482
-140.744
-145.851
-150.799
-155.594
-160.23
-164.713
-169.018
-173.095
-176.934
-180.508
-183.818
-186.87
-189.639
-192.132
-194.335
-196.236
-197.845
-199.137
-200.123
-200.783
-0.030559
-0.413127
-0.856527
-1.36626
-1.96546
-2.6675
-3.48506
-4.42632
-5.50216
-6.72447
-8.10377
-9.65082
-11.3754
-13.2863
-15.3911
-17.6969
-20.2087
-22.9307
-25.8643
-29.0097
-32.3667
-35.9312
-39.6981
-43.6584
-47.8027
-52.1194
-56.5989
-61.2364
-66.0238
-70.9497
-75.9897
-81.117
-86.3004
-91.5124
-96.7427
-101.987
-107.237
-112.476
-117.684
-122.839
-127.923
-132.902
-137.731
-142.402
-146.917
-151.285
-155.5
-159.533
-163.374
-166.988
-170.356
-173.477
-176.346
-178.955
-181.292
-183.357
-185.13
-186.628
-187.824
-188.72
-189.29
-0.137765
-0.494251
-0.914348
-1.39631
-1.96152
-2.62505
-3.39743
-4.29173
-5.31867
-6.49075
-7.81765
-9.31006
-10.9773
-12.8277
-14.8688
-17.1071
-19.5477
-22.1942
-25.048
-28.1097
-31.3782
-34.8506
-38.5214
-42.3821
-46.4225
-50.632
-55.0022
-59.527
-64.1992
-69.004
-73.9203
-78.9229
-83.984
-89.0834
-94.2093
-99.3458
-104.47
-109.55
-114.579
-119.562
-124.495
-129.362
-134.114
-138.73
-143.204
-147.528
-151.688
-155.647
-159.389
-162.904
-166.187
-169.236
-172.048
-174.598
-176.896
-178.918
-180.681
-182.145
-183.327
-184.224
-184.853
0.0485403
-0.287605
-0.683582
-1.14709
-1.69118
-2.32785
-3.0683
-3.9244
-4.90784
-6.03038
-7.30293
-8.73562
-10.3374
-12.1162
-14.0802
-16.2348
-18.5851
-21.1345
-23.8839
-26.8339
-29.9838
-33.3299
-36.8676
-40.5879
-44.4824
-48.5413
-52.7565
-57.1201
-61.6175
-66.2322
-70.9431
-75.7335
-80.5951
-85.5172
-90.4966
-95.4922
-100.437
-105.295
-110.04
-114.727
-119.397
-124.018
-128.58
-133.041
-137.389
-141.624
-145.679
-149.506
-153.085
-156.421
-159.538
-162.44
-165.119
-167.557
-169.742
-171.667
-173.326
-174.709
-175.815
-176.641
-177.196
0.168897
-0.136037
-0.499787
-0.931743
-1.4422
-2.04257
-2.74357
-3.55619
-4.49286
-5.56401
-6.78154
-8.15405
-9.69071
-11.3983
-13.286
-15.3578
-17.619
-20.0728
-22.7188
-25.5584
-28.5908
-31.8118
-35.2181
-38.8008
-42.5528
-46.4649
-50.5262
-54.7253
-59.048
-63.4747
-67.9908
-72.5823
-77.2351
-81.963
-86.7524
-91.5628
-96.3552
-101.045
-105.65
-110.184
-114.616
-118.96
-123.187
-127.355
-131.537
-135.694
-139.727
-143.493
-146.949
-150.13
-153.085
-155.841
-158.396
-160.73
-162.824
-164.667
-166.25
-167.569
-168.627
-169.417
-169.94
0.293569
0.0143309
-0.321355
-0.72404
-1.20198
-1.76708
-2.42916
-3.19909
-4.08995
-5.11075
-6.27469
-7.58836
-9.06165
-10.6983
-12.5108
-14.5008
-16.673
-19.0315
-21.5728
-24.2999
-27.2134
-30.3062
-33.5807
-37.0241
-40.6305
-44.3879
-48.2789
-52.2998
-56.4331
-60.6809
-65.0264
-69.4375
-73.8961
-78.3669
-82.8604
-87.3809
-91.9248
-96.5426
-101.155
-105.716
-110.111
-114.139
-117.915
-121.608
-125.424
-129.454
-133.444
-137.19
-140.575
-143.615
-146.416
-149.017
-151.432
-153.645
-155.634
-157.382
-158.878
-160.122
-161.119
-161.861
-162.345
0.422102
0.166858
-0.142477
-0.517644
-0.964405
-1.49589
-2.12076
-2.84856
-3.69501
-4.66603
-5.77829
-7.03474
-8.44676
-10.0117
-11.7503
-13.6582
-15.7403
-18.004
-20.4389
-23.0503
-25.8437
-28.8051
-31.947
-35.2498
-38.7051
-42.3011
-46.0136
-49.8359
-53.7733
-57.8182
-61.9958
-66.2686
-70.5433
-74.8129
-79.0041
-83.1106
-87.3444
-91.6821
-96.2995
-101.078
-105.544
-109.54
-112.884
-115.983
-119.387
-123.066
-126.936
-130.64
-133.958
-136.904
-139.566
-142.02
-144.292
-146.381
-148.261
-149.908
-151.309
-152.468
-153.398
-154.094
-154.538
0.55329
0.320988
0.0392408
-0.310919
-0.726242
-1.22596
-1.81665
-2.49936
-3.30486
-4.22349
-5.28926
-6.48795
-7.84852
-9.33206
-10.9992
-12.8272
-14.8132
-16.9892
-19.3168
-21.7997
-24.484
-27.3005
-30.3182
-33.4769
-36.7675
-40.2156
-43.7289
-47.3701
-51.0879
-54.8882
-58.8685
-62.9474
-67.1085
-71.2963
-75.3439
-79.1731
-82.8588
-86.7223
-90.9821
-95.6646
-100.505
-104.666
-107.948
-110.82
-113.694
-116.934
-120.432
-123.884
-127.122
-129.956
-132.532
-134.839
-136.965
-138.945
-140.731
-142.262
-143.57
-144.618
-145.482
-146.144
-146.54
0.69673
0.473599
0.239567
-0.107722
-0.478047
-0.960591
-1.52593
-2.12877
-2.93208
-3.75833
-4.82069
-5.92548
-7.29751
-8.62392
-10.2632
-12.0331
-13.8751
-16.0132
-18.2108
-20.5273
-23.191
-25.7745
-28.7345
-31.7167
-34.8164
-38.1918
-41.4366
-44.942
-48.5149
-51.9712
-55.7524
-59.5653
-63.4906
-67.719
-71.9216
-75.4596
-78.9652
-82.1126
-85.4373
-89.8496
-94.6864
-99.2836
-102.917
-105.928
-108.824
-111.249
-114.038
-116.929
-120.197
-122.907
-125.437
-127.469
-129.482
-131.453
-133.129
-134.488
-135.795
-136.643
-137.518
-138.14
-138.424
-201.107
-201.136
-200.848
-200.236
-199.322
-198.092
-196.551
-194.695
-192.525
-190.069
-187.304
-184.258
-180.957
-177.398
-173.574
-169.501
-165.188
-160.663
-155.917
-150.965
-145.841
-140.53
-135.061
-129.446
-123.708
-117.828
-111.831
-105.744
-99.5694
-93.3395
-87.0543
-80.734
-74.3997
-68.0518
-61.7179
-55.4002
-49.1214
-42.8933
-36.724
-30.6299
-24.6223
-18.7237
-12.9315
-7.26556
-1.73914
3.64531
8.87269
13.935
18.818
23.5152
28.0221
32.3284
36.4239
40.3074
43.9692
47.4047
50.6095
53.5787
56.3123
58.8068
61.0628
-189.557
-189.552
-189.249
-188.647
-187.756
-186.569
-185.088
-183.299
-181.218
-178.852
-176.202
-173.304
-170.163
-166.771
-163.129
-159.247
-155.138
-150.815
-146.286
-141.563
-136.663
-131.593
-126.365
-120.991
-115.485
-109.879
-104.168
-98.369
-92.4902
-86.5498
-80.5597
-74.5354
-68.4915
-62.4398
-56.3962
-50.3699
-44.3768
-38.4302
-32.5414
-26.7227
-20.9872
-15.3502
-9.81857
-4.40547
0.877273
6.02295
11.0207
15.8603
20.5308
25.0251
29.3369
33.4578
37.379
41.0977
44.6055
47.898
50.969
53.8167
56.4385
58.8322
60.9974
-185.183
-185.187
-184.899
-184.324
-183.472
-182.295
-180.83
-179.031
-176.968
-174.638
-172.045
-169.168
-166.031
-162.654
-159.041
-155.202
-151.146
-146.884
-142.426
-137.785
-132.974
-128
-122.876
-117.612
-112.218
-106.713
-101.11
-95.4205
-89.6582
-83.8365
-77.9687
-72.0698
-66.1529
-60.2318
-54.3191
-48.4263
-42.5664
-36.7519
-30.9954
-25.3091
-19.7057
-14.1981
-8.79561
-3.50993
1.64901
6.67302
11.5518
16.2754
20.8341
25.2212
29.4286
33.4496
37.2769
40.9064
44.3307
47.5451
50.5449
53.3267
55.8884
58.2274
60.3445
-177.469
-177.45
-177.139
-176.531
-175.613
-174.427
-173.021
-171.37
-169.42
-167.206
-164.73
-161.996
-159.008
-155.78
-152.321
-148.638
-144.741
-140.642
-136.351
-131.881
-127.246
-122.455
-117.518
-112.446
-107.249
-101.942
-96.5377
-91.0503
-85.4919
-79.875
-74.2122
-68.5184
-62.8072
-57.0923
-51.3842
-45.695
-40.0363
-34.4198
-28.8588
-23.3649
-17.9506
-12.6278
-7.40688
-2.29825
2.68873
7.54661
12.2644
16.8333
21.2426
25.4876
29.5591
33.4505
37.1567
40.6717
43.9909
47.107
50.0177
52.7171
55.2046
57.4767
59.5353
-170.191
-170.168
-169.869
-169.292
-168.441
-167.333
-165.907
-164.246
-162.33
-160.165
-157.753
-155.097
-152.202
-149.08
-145.736
-142.177
-138.411
-134.449
-130.303
-125.986
-121.511
-116.888
-112.125
-107.23
-102.216
-97.0958
-91.8817
-86.5886
-81.2273
-75.8099
-70.3465
-64.8545
-59.3459
-53.8363
-48.333
-42.848
-37.3912
-31.9739
-26.6104
-21.3113
-16.0883
-10.9543
-5.91844
-0.991175
3.81847
8.50622
13.0571
17.4664
21.7204
25.8174
29.7473
33.5032
37.0816
40.4755
43.6835
46.6956
49.512
52.1226
54.5309
56.7306
58.7256
-162.566
-162.523
-162.212
-161.637
-160.803
-159.715
-158.354
-156.742
-154.886
-152.791
-150.46
-147.894
-145.098
-142.087
-138.865
-135.437
-131.808
-127.987
-123.989
-119.832
-115.523
-111.076
-106.494
-101.784
-96.96
-92.0317
-87.0126
-81.9211
-76.7639
-71.553
-66.2942
-61.0103
-55.7097
-50.4141
-45.123
-39.8496
-34.602
-29.3906
-24.2316
-19.1337
-14.1083
-9.16978
-4.3249
0.414255
5.03936
9.55282
13.932
18.1782
22.2703
26.2148
29.9977
33.6122
37.0588
40.3251
43.4193
46.3224
49.0418
51.5594
53.8866
56.0089
57.9382
-154.729
-154.664
-154.344
-153.768
-152.947
-151.883
-150.567
-149.001
-147.203
-145.181
-142.935
-140.462
-137.767
-134.872
-131.779
-128.485
-124.997
-121.317
-117.47
-113.474
-109.338
-105.074
-100.682
-96.162
-91.5327
-86.7991
-81.9805
-77.0966
-72.15
-67.1504
-62.0989
-57.0261
-51.938
-46.8646
-41.7922
-36.7394
-31.7095
-26.7094
-21.7607
-16.8718
-12.0497
-7.31144
-2.66297
1.88198
6.31657
10.6521
14.856
18.9371
22.8622
26.6488
30.2794
33.748
37.0573
40.191
43.1692
45.9604
48.583
51.004
53.2465
55.2865
57.1483
-146.702
-146.604
-146.278
-145.692
-144.888
-143.855
-142.581
-141.041
-139.291
-137.361
-135.206
-132.823
-130.229
-127.454
-124.503
-121.346
-118.001
-114.458
-110.769
-106.944
-102.978
-98.9048
-94.7206
-90.3874
-85.957
-81.423
-76.8118
-72.1409
-67.3999
-62.6169
-57.767
-52.9115
-48.033
-43.1961
-38.347
-33.5348
-28.7425
-23.9448
-19.2077
-14.5471
-9.9228
-5.38504
-0.946134
3.40729
7.63688
11.8001
15.8206
19.7424
23.4863
27.1124
30.5819
33.8923
37.0696
40.0615
42.9328
45.6063
48.1391
50.4492
52.6072
54.554
56.3522
-138.553
-138.401
-138.072
-137.476
-136.687
-135.665
-134.447
-132.862
-131.208
-129.478
-127.336
-125.055
-122.521
-119.85
-117.145
-114.051
-110.847
-107.511
-103.95
-100.313
-96.4369
-92.5363
-88.6578
-84.4148
-80.1986
-75.9436
-71.473
-67.0526
-62.4106
-57.9641
-53.1906
-48.6777
-43.8961
-39.3987
-34.7329
-30.1889
-25.6947
-20.9829
-16.4663
-12.0805
-7.5723
-3.28628
0.90625
5.14739
9.02671
13.1582
16.8593
20.7376
24.1631
27.7038
31.0291
34.086
37.2471
39.9828
42.8818
45.3119
47.8608
49.9137
52.1116
53.8682
55.7089
63.0819
64.8637
66.409
67.7187
68.7938
69.6388
70.2574
70.6541
70.8356
70.8243
70.663
70.3485
69.8401
69.1618
68.3203
67.2789
66.0428
64.6335
63.0662
61.3526
59.5043
57.5318
55.4471
53.2625
50.9909
48.6455
46.2399
43.7886
41.304
38.8023
36.2966
33.8021
31.3344
28.9068
26.5362
24.2354
22.0191
19.9071
17.9153
16.0645
14.3723
12.8467
11.5023
10.358
9.42713
8.71867
8.24134
7.99602
7.97603
8.16209
8.51933
8.99307
9.504
9.94849
10.2475
9.66683
8.19908
6.69374
5.45867
4.5588
3.7961
62.9352
64.6469
66.133
67.3945
68.4312
69.2458
69.8426
70.2252
70.3964
70.3699
70.2047
69.905
69.4198
68.76
67.9317
66.9144
65.7124
64.3425
62.8189
61.153
59.3556
57.4377
55.4122
53.291
51.086
48.8098
46.475
44.0949
41.6822
39.2512
36.8152
34.3883
31.9849
29.619
27.3055
25.0587
22.8926
20.8144
18.841
16.9921
15.2823
13.7396
12.3755
11.2023
10.2314
9.4725
8.9335
8.61586
8.51328
8.60878
8.87045
9.24798
9.66601
10.0283
10.1789
9.62723
8.34491
7.01025
5.95783
5.19358
4.42169
62.2392
63.9141
65.3693
66.6067
67.626
68.4305
69.0237
69.4086
69.5822
69.5654
69.4244
69.1491
68.6852
68.0499
67.2503
66.2736
65.1222
63.8093
62.3471
60.7464
59.018
57.1722
55.2214
53.1768
51.0497
48.8525
46.5973
44.2969
41.9636
39.6109
37.252
34.9005
32.5699
30.274
28.0265
25.8413
23.7313
21.7077
19.7872
17.9883
16.329
14.8212
13.4775
12.3077
11.3235
10.5338
9.94474
9.55671
9.36329
9.34863
9.48232
9.718
9.98164
10.1745
10.1275
9.55332
8.44049
7.23478
6.22682
5.42579
4.63809
61.3783
63.0095
64.4277
65.6365
66.6342
67.4254
68.0107
68.3935
68.565
68.5644
68.4517
68.2018
67.7653
67.1596
66.3909
65.4554
64.3549
63.1011
61.7026
60.1707
58.5151
56.7455
54.8745
52.9127
50.8704
48.7609
46.5949
44.385
42.1429
39.8818
37.6141
35.353
33.1113
30.9025
28.7392
26.6351
24.6025
22.6541
20.804
19.0676
17.4593
15.9917
14.6717
13.5107
12.5184
11.7018
11.064
10.6037
10.3128
10.1758
10.1633
10.2318
10.3139
10.3177
10.1078
9.52196
8.56223
7.48603
6.51381
5.68464
4.90745
60.5113
62.095
63.4726
64.6502
65.6225
66.3973
66.9706
67.3478
67.5164
67.5349
67.449
67.223
66.8143
66.2407
65.5045
64.6109
63.5597
62.3646
61.0299
59.5672
57.9857
56.2927
54.5034
52.6268
50.6714
48.6523
46.578
44.4617
42.313
40.1462
37.9718
35.8035
33.6524
31.5321
29.4541
27.4322
25.4775
23.6028
21.8196
20.1417
18.5812
17.1499
15.8563
14.7082
13.7107
12.8697
12.1864
11.6573
11.2728
11.0166
10.8614
10.7668
10.6756
10.5135
10.1872
9.60557
8.77024
7.82012
6.90154
6.06792
5.28979
59.662
61.1971
62.5309
63.6773
64.6217
65.38
65.9398
66.3126
66.4806
66.5196
66.4554
66.2528
65.871
65.3311
64.629
63.7785
62.7752
61.6392
60.3676
58.9746
57.4684
55.8515
54.1449
52.3549
50.4867
48.5599
46.578
44.557
42.5022
40.4309
38.3505
36.276
34.2154
32.1842
30.191
28.2511
26.3736
24.5712
22.8523
21.2308
19.7158
18.3193
17.0483
15.9085
14.9035
14.0355
13.3054
12.7079
12.2325
11.864
11.5767
11.3358
11.0946
10.7978
10.3837
9.80121
9.04998
8.20228
7.34674
6.53227
5.75813
58.8068
60.2922
61.5796
62.6946
63.6101
64.354
64.9014
65.2715
65.4416
65.5007
65.4541
65.275
64.9203
64.4151
63.7484
62.9421
61.9866
60.9105
59.7007
58.3786
56.9497
55.4095
53.787
52.0841
50.3029
48.4706
46.5826
44.6585
42.6981
40.7242
38.739
36.7593
34.7892
32.8471
30.938
29.0799
27.2794
25.5484
23.8916
22.3241
20.852
19.4883
18.2378
17.1043
16.0897
15.1939
14.418
13.7546
13.1931
12.7216
12.3163
11.9486
11.5816
11.1759
10.6911
10.0979
9.39446
8.61822
7.82076
7.03712
6.27836
57.9342
59.3749
60.6083
61.6973
62.5774
63.3126
63.8452
64.2184
64.3901
64.4731
64.435
64.2824
63.9524
63.4855
62.8526
62.0937
61.1815
60.1741
59.0176
57.7699
56.4236
54.9541
53.4256
51.8095
50.1075
48.3771
46.5811
44.7594
42.8893
41.0179
39.126
37.2455
35.363
33.5121
31.6821
29.9074
28.1824
26.5248
24.9256
23.412
21.9765
20.645
19.4123
18.2872
17.2614
16.337
15.5212
14.7978
14.1565
13.5951
13.0863
12.6125
12.1406
11.6471
11.102
10.4915
9.80982
9.07913
8.3231
7.56998
6.83195
57.0842
58.5884
59.6706
60.8383
61.5752
62.38
62.7922
63.2643
63.3599
63.559
63.4258
63.3793
62.997
62.6578
61.9832
61.3459
60.3737
59.5394
58.3861
57.2218
55.9921
54.4877
53.1253
51.6267
49.9168
48.3621
46.5883
44.9367
43.0853
41.3759
39.5155
37.7858
35.9436
34.2327
32.4272
30.7742
29.0821
27.5345
25.9545
24.5288
23.0894
21.8158
20.5792
19.4737
18.4385
17.4697
16.6303
15.8507
15.1302
14.5075
13.8986
13.3484
12.7794
12.2223
11.6161
10.9924
10.3096
9.61622
8.87878
8.14267
7.42627
3.06328
2.42554
1.85916
1.30715
0.767541
0.275272
-0.164016
-0.549338
-0.866728
-1.11205
-1.28326
-1.38331
-1.40798
-1.36059
-1.26643
-1.14634
-1.01449
-0.8892
-0.783234
-0.702722
-0.648581
-0.613844
-0.593432
-0.58102
-0.57214
-0.560989
-0.542456
-0.514086
-0.471157
-0.412282
-0.333605
-0.234056
-0.114393
0.0251472
0.181616
0.353807
0.535004
0.720213
0.904678
1.08186
1.24538
1.38787
1.50875
1.6021
1.66373
1.69327
1.68979
1.65493
1.59038
1.50035
1.39011
1.2643
1.12715
0.985004
0.838909
0.68959
0.533725
0.36493
0.163115
-0.102763
-0.381749
3.63765
3.0272
2.51255
2.00052
1.48289
1.0149
0.599394
0.230888
-0.0724794
-0.302836
-0.457012
-0.532638
-0.531063
-0.459675
-0.354344
-0.228736
-0.0957385
0.0292206
0.133877
0.212273
0.264767
0.296182
0.312202
0.318792
0.321272
0.325309
0.334871
0.350581
0.378011
0.420984
0.482657
0.564712
0.66753
0.790194
0.929635
1.08242
1.24539
1.41365
1.582
1.74525
1.89784
2.0341
2.14767
2.23508
2.29308
2.32017
2.31577
2.28019
2.21487
2.12275
2.0079
1.87518
1.72928
1.57744
1.42088
1.26299
1.1005
0.930316
0.73968
0.51774
0.269693
3.89076
3.28395
2.75817
2.19665
1.62533
1.14108
0.709286
0.310776
-0.0239116
-0.286358
-0.477431
-0.596094
-0.644235
-0.635269
-0.56587
-0.464712
-0.336981
-0.205489
-0.0969454
-0.0176015
0.0340794
0.0645063
0.0809737
0.0900983
0.0959061
0.102569
0.114843
0.139418
0.176772
0.228547
0.297205
0.384308
0.490103
0.613618
0.752755
0.904357
1.06438
1.22824
1.39096
1.54705
1.69098
1.81759
1.92222
2.00069
2.04976
2.06791
2.0548
2.0118
1.9414
1.84757
1.73472
1.60775
1.47113
1.32929
1.18675
1.04272
0.890456
0.721504
0.531246
0.327517
0.111715
4.18759
3.57156
3.01444
2.43193
1.86187
1.37707
0.928256
0.504441
0.162306
-0.0965498
-0.290132
-0.408616
-0.446609
-0.417383
-0.326009
-0.189606
-0.0468125
0.0744666
0.178627
0.264026
0.326693
0.367849
0.389571
0.396401
0.393457
0.387174
0.383012
0.386561
0.401573
0.431067
0.477661
0.543205
0.628134
0.731257
0.850661
0.983235
1.12529
1.27256
1.42039
1.56378
1.69746
1.81668
1.91698
1.99472
2.04693
2.07236
2.07057
2.04282
1.99107
1.9189
1.82968
1.72807
1.61743
1.50014
1.37138
1.2319
1.08806
0.936422
0.764813
0.560584
0.324019
4.56986
3.92631
3.33352
2.7388
2.16539
1.65282
1.17384
0.739643
0.393678
0.118646
-0.102598
-0.237505
-0.283861
-0.268173
-0.19567
-0.084038
0.0365778
0.154415
0.25802
0.335029
0.384473
0.413928
0.42948
0.437747
0.440734
0.441971
0.445847
0.454559
0.470545
0.496818
0.53712
0.593907
0.667994
0.758505
0.864047
0.981762
1.10845
1.24035
1.37327
1.50275
1.62382
1.7324
1.82397
1.8956
1.94402
1.96829
1.96724
1.9422
1.89393
1.82551
1.73939
1.63936
1.52802
1.40778
1.29352
1.18379
1.06713
0.938542
0.792474
0.621824
0.417595
5.02882
4.3534
3.72453
3.11469
2.53105
1.99281
1.4926
1.04136
0.665175
0.357278
0.120162
-0.0202502
-0.085099
-0.0911814
-0.0257853
0.0874779
0.211708
0.325719
0.421375
0.490253
0.530682
0.553664
0.562348
0.56422
0.559086
0.553574
0.546075
0.544942
0.551363
0.566537
0.59495
0.638986
0.699518
0.775247
0.865396
0.966946
1.07717
1.19272
1.30982
1.42462
1.53222
1.62946
1.71158
1.7768
1.82121
1.84491
1.84594
1.82672
1.78702
1.73067
1.65954
1.5782
1.49083
1.40254
1.30798
1.21005
1.10694
0.993366
0.862288
0.707751
0.521042
5.54956
4.85715
4.20075
3.57279
2.97458
2.41849
1.90374
1.4396
1.03653
0.700421
0.440074
0.270468
0.175291
0.159648
0.22434
0.326741
0.441245
0.545238
0.628415
0.681137
0.700851
0.708045
0.702985
0.695817
0.680289
0.665614
0.648437
0.639508
0.637169
0.63935
0.655021
0.685391
0.732364
0.793368
0.868511
0.954268
1.04853
1.14826
1.25026
1.35128
1.44618
1.5329
1.60617
1.66565
1.70614
1.72954
1.73253
1.71892
1.6871
1.6419
1.5839
1.51819
1.4471
1.37337
1.29773
1.21991
1.13669
1.04355
0.932171
0.796606
0.628404
6.11329
5.41961
4.75181
4.11701
3.50748
2.94516
2.42451
1.96138
1.54895
1.19967
0.922742
0.729228
0.59512
0.55576
0.590438
0.6621
0.766544
0.83729
0.886339
0.917753
0.902321
0.884818
0.856607
0.840736
0.809753
0.786596
0.753797
0.736861
0.728658
0.714415
0.716436
0.733766
0.770629
0.817859
0.880197
0.951512
1.03144
1.11707
1.20608
1.29577
1.37943
1.45788
1.52292
1.57858
1.61455
1.63824
1.64183
1.63347
1.60694
1.57046
1.52066
1.46561
1.40719
1.34639
1.28591
1.22594
1.16166
1.08965
0.998745
0.885061
0.736714
6.70889
6.03372
5.35632
4.72253
4.10645
3.55747
3.04308
2.6184
2.20982
1.87824
1.61807
1.44601
1.23909
1.17392
1.18108
1.18604
1.25738
1.17666
1.1642
1.21722
1.13352
1.09237
1.01532
1.02399
0.94744
0.935122
0.855444
0.841841
0.842133
0.795529
0.764911
0.783259
0.822047
0.848434
0.903503
0.960086
1.02521
1.10221
1.18142
1.26992
1.33654
1.41957
1.46531
1.53082
1.54918
1.58439
1.57225
1.58437
1.54808
1.52688
1.47151
1.41716
1.37097
1.32497
1.28017
1.23698
1.18714
1.14007
1.0637
0.982392
0.844852
4.86292
-5.82517
-7.09212
17.1108
5.69731
20.6421
17.5716
11.9642
12.1454
28.6547
1.904
25.5858
17.6859
3.06719
22.8829
-102.462
20.6319
13.5181
1.64349
16.9555
17.4063
3.61983
0.519013
20.0569
12.0642
16.7794
16.9716
10.2347
20.3849
8.07584
10.1182
15.5259
28.0324
1.9465
24.8537
0.979969
0.848427
57.1526
18.3052
18.3873
7.02504
-3.44019
18.2091
-89.8107
-0.292333
32.8795
13.6168
3.67805
14.2329
27.2117
-5.49102
-51.7213
15.7787
10.9383
15.0535
14.773
8.17861
7.8055
1.11839
-36.0511
3.87898
15.9458
19.6978
-7.8542
-29.433
15.6402
0.932547
9.73224
18.962
18.1322
13.4799
59.1368
6.24952
15.6341
13.8919
8.26708
-15.1475
46.2496
15.6733
29.8905
-0.0609005
17.88
17.9263
-33.3967
18.0496
49.3422
12.6028
1.94043
16.6592
2.38662
-13.961
15.547
6.07116
-36.7381
-40.701
6.59054
45.0524
9.94515
25.2699
-105.28
15.7292
15.2837
23.7655
15.1098
17.3927
15.3921
14.6516
40.2556
19.6277
-81.6903
-112.752
17.0073
-0.0870179
1.34289
6.06249
2.67186
1.16182
19.5716
-6.58923
12.871
15.3597
-0.612615
12.4631
-122.455
-31.9309
12.1193
15.7391
-46.3282
-33.342
18.0217
20.9373
-7.73437
4.71365
12.3017
3.39982
11.7968
17.2338
-59.8645
-35.9606
12.4139
9.73252
-56.9116
14.714
48.6779
1.45383
14.9273
15.2961
1.48834
32.0341
-1.49823
13.6254
14.9245
58.703
-30.3309
-63.6322
10.4806
9.49444
-27.3052
14.5581
0.853306
17.7737
26.2432
16.049
13.2206
15.3845
15.7108
7.2745
9.06925
17.0473
-0.280482
-3.34016
1.87384
6.42925
17.4429
1.27633
1.39883
1.29394
9.96306
22.7993
2.15051
2.25214
-1.78891
-33.6581
11.0517
7.54275
0.341553
-10.1893
52.2761
11.2187
14.0237
24.7263
20.2017
-20.6676
-39.8757
14.3048
-31.2175
4.31403
-0.302824
21.2657
0.995926
11.1233
15.4512
14.5882
-60.381
-2.90957
20.8164
9.29291
17.0627
-47.728
1.15978
39.9545
-7.08703
14.5122
-120.46
11.2668
-75.8392
-68.1627
1.43521
35.096
2.08812
12.8473
39.8885
12.7146
15.3778
1.16781
-7.23315
-8.8745
13.1345
17.0981
59.4098
1.46932
21.1361
-6.53218
-36.1697
13.6738
19.1098
3.24029
-55.5017
-46.0085
19.3677
12.9405
9.90752
11.3142
13.0336
-127.254
15.7461
8.62309
-98.8998
23.8603
15.7286
9.45949
23.5095
1.39975
9.94809
12.6281
18.2889
24.3189
14.849
8.53979
2.38843
13.2232
11.7447
-70.8013
18.68
0.820239
15.1738
17.7448
0.832423
17.698
1.48462
23.0441
1.06749
23.1497
12.296
53.7552
10.8091
14.8322
11.605
16.375
20.6679
50.0987
9.05751
-71.1505
16.4754
15.3555
18.2206
15.2956
-59.1014
7.98668
8.55408
-27.725
41.0122
15.7594
15.2468
34.1485
17.5451
10.0675
5.13217
-1.891
13.745
12.6176
6.40616
50.0953
-3.79091
4.45151
-85.0416
21.9657
18.6446
19.2423
-99.2393
10.5509
14.4517
12.3836
-13.6603
13.8761
14.536
0.330796
1.66532
7.68923
2.31241
18.1827
3.86048
16.0252
14.5277
-31.547
2.24031
14.9823
1.17486
-91.3665
6.17688
-26.9323
-50.0872
-105.865
2.58241
1.74643
17.2384
0.163179
0.480678
-124.097
35.4118
15.4807
15.2616
12.5808
11.7468
49.5014
10.8467
-8.33989
18.4635
-75.2821
15.4235
1.35442
-47.231
-115.303
10.4534
-61.2111
9.7753
3.58129
16.2472
2.06554
3.1428
10.0844
-0.104247
1.19007
-3.54065
0.639402
18.0347
7.90691
-118.504
-37.443
3.87517
16.9326
-29.8236
-53.7288
13.2349
1.76069
16.1343
-8.18247
8.80344
1.61619
-71.9233
0.511607
-83.3748
20.1802
-92.4604
11.8126
6.14817
23.6569
1.36113
-121.787
-26.0393
47.0467
49.5212
4.15372
1.2323
19.8591
30.1394
16.9279
-1.31526
12.6133
-7.00496
15.8326
18.9856
21.8541
19.8389
-7.63256
-48.3649
13.4658
-82.04
1.70393
-13.5606
2.2343
-63.7778
-3.39259
18.7772
-128.061
12.351
10.7879
25.9206
-54.5989
15.6115
17.5404
1.76154
17.9197
9.63072
16.042
1.23448
35.6371
-27.0385
-53.8671
10.2559
-62.535
9.39405
-56.9712
17.2359
17.0954
1.02355
3.82382
-101.603
-3.05132
1.11407
-10.6905
-65.5111
-63.2738
17.4911
5.04537
-43.8519
-51.8173
17.0921
5.60178
-37.3513
23.061
15.5296
38.277
-42.3098
0.529163
-9.58675
0.302239
10.2413
-97.8366
3.10163
10.9626
19.7518
46.0161
2.98211
44.6099
2.9002
17.713
2.13735
1.49853
14.4881
14.1046
-0.44871
1.71956
17.3015
4.667
1.48088
3.60045
1.43653
2.53531
1.51674
10.0961
7.62716
14.1053
14.2833
-116.54
9.12028
-74.9076
-109.101
14.0764
-0.0477877
3.0143
19.1095
3.96443
1.40217
13.3455
17.0453
16.1129
5.46943
-38.2493
9.54299
26.3833
14.2376
15.5515
14.9391
5.56867
0.916804
14.1175
19.0113
10.8449
1.47659
14.4538
14.1715
-12.8261
13.3205
-1.18827
-2.81951
-3.64222
15.5292
19.8927
10.5439
20.8819
3.5143
2.54612
48.1533
-25.9875
-7.8831
21.8563
8.37425
1.3266
1.5859
-78.8911
-32.9164
20.9037
3.91051
11.241
1.22702
-21.512
18.2701
14.2965
-27.1168
-86.9982
13.448
-21.5238
-54.0433
5.03161
-108.89
10.4512
11.6521
10.5056
-37.7569
16.6046
-84.085
-3.95807
12.7826
1.06122
15.8678
0.434119
16.7781
13.9308
32.2225
3.04597
1.12
15.3242
7.11711
0.974076
-50.9043
-36.165
8.75584
-39.8876
5.69629
29.3686
1.62344
11.5136
-94.2315
11.2875
9.37806
15.323
1.62913
52.4357
1.86224
7.44236
10.004
1.43067
1.66599
14.5715
17.9059
13.8494
10.3569
11.0692
29.1367
-73.7453
8.56612
17.8815
-36.6286
0.228414
-90.9065
15.3605
1.02793
17.9667
-53.6028
4.41478
-20.7383
1.30122
0.942708
3.14886
-108.334
20.4573
15.9665
7.37835
17.5121
-29.7499
-20.4832
-5.81132
11.9388
10.1877
5.84911
14.5309
0.444818
1.00832
15.3178
22.979
1.41952
-62.4703
20.9833
1.94445
20.471
-8.79968
17.4165
36.1088
6.60301
29.9906
18.4568
-28.6005
-25.6926
-6.28773
18.8372
12.7794
-32.8865
14.6241
13.2614
4.56418
6.4437
0.902179
-36.1381
42.3486
4.16005
2.26734
1.1974
-97.1656
10.6582
23.1849
16.9045
1.39642
5.66447
-26.3138
14.5436
13.921
7.43376
1.08373
-8.50122
14.7062
1.87759
11.973
-21.7062
1.40501
40.9875
1.39342
-0.239886
8.40155
56.5899
16.7718
17.5739
1.32725
11.1408
8.41729
10.3308
10.2817
-120.807
2.50083
-35.5392
30.7047
16.5998
9.51228
19.2802
-6.1983
-10.3523
1.34695
4.62283
1.47843
13.5976
-1.74603
18.1357
-89.5826
17.0157
8.24905
2.34199
-3.02426
3.05867
-9.42958
11.427
3.54011
0.328362
19.233
-125.272
17.2883
17.1777
12.7776
-5.91404
18.6152
4.77813
-21.012
15.4363
-17.8841
-101.66
17.6319
10.5534
14.1007
-62.1777
-5.91956
12.6353
44.4345
13.3053
9.71497
13.4769
-112.497
-129.421
15.8831
-2.29089
-11.4761
1.45257
17.7746
7.70939
-10.9472
14.1126
15.7883
-0.593958
18.536
20.375
10.102
15.3668
-2.61017
15.3538
-5.93441
21.9579
2.04512
-4.7037
41.4356
1.22421
7.31091
22.0421
5.52903
-50.7527
23.0807
-83.084
20.8307
1.57808
-21.8701
11.2903
-12.9798
0.973089
14.4381
15.6521
-91.6581
-36.5557
14.4718
-71.3619
-12.0984
53.9913
-20.2999
-23.7667
24.3416
0.988324
5.81655
13.6227
-60.4317
-26.9824
-4.29792
-5.91115
-7.59016
1.46697
22.6351
18.3083
13.3716
-121.777
-48.4903
28.0366
2.8001
-111.128
12.6248
15.6502
10.4497
1.26509
5.43532
1.30765
-19.2213
21.0156
-121.122
-18.4757
-87.3704
-102.036
19.0027
25.1822
-42.4202
24.9499
15.2764
13.0368
11.3016
10.7991
26.1749
17.97
2.48115
-51.6651
-32.6631
23.2347
2.90132
4.43268
14.4481
1.72665
13.4479
-54.9229
1.30641
49.673
4.23728
22.5159
11.9972
18.7016
15.3166
-75.1652
15.7553
44.4452
1.15184
0.576047
33.4207
61.6773
12.274
13.6312
25.1041
-52.7048
-19.0726
17.543
11.9962
-94.6053
28.106
17.5535
-65.7729
13.5863
3.40557
1.53739
6.15085
-16.5031
54.5918
1.14434
-10.4412
-1.25015
18.1054
-0.186235
11.0166
13.9173
17.4332
14.0146
1.18576
17.5303
1.07336
29.7797
1.11602
10.391
10.1007
16.1691
9.14238
-54.6165
10.4054
17.5636
-34.4991
-74.9442
36.2119
1.67234
8.40441
14.4393
36.2302
-88.1443
11.5216
-4.23326
10.2665
16.7065
-86.0744
16.0343
10.2692
49.1632
31.7216
-20.2228
4.6338
15.4018
15.9579
-73.791
-6.16473
11.2336
15.8659
1.39672
16.6601
-128.601
9.21179
1.3589
11.5276
18.3974
-0.814507
16.135
23.0217
23.2252
4.53479
-1.77016
16.8399
20.6375
18.284
20.1271
11.8085
18.3147
-67.9693
3.03531
18.3273
-27.0908
14.661
7.45438
19.6894
12.2105
-61.2824
12.9946
5.31783
18.5655
-22.7409
17.4349
-26.3799
-102.805
2.18513
1.23775
-47.7449
15.7868
18.2813
-19.6769
-109.626
1.6443
-13.2181
16.3266
-85.7265
14.0132
17.6424
17.7112
-23.0789
7.25003
9.93893
-32.6202
15.8206
8.90244
-83.8547
10.3595
-118.638
49.0425
12.3208
18.2154
7.25719
15.8629
-8.80503
-7.54875
20.1216
-21.7659
6.68984
13.4444
-38.5867
6.08633
17.8428
-51.5636
15.9511
1.5551
-66.6718
-18.0494
17.312
19.3965
15.1193
62.0062
9.21066
0.593315
-24.611
13.8855
-12.7918
15.3969
5.15972
14.2011
0.909229
11.8234
1.16642
-12.3617
59.4858
8.63182
59.748
7.16568
15.0719
4.34825
22.2853
-9.26845
17.2905
12.0125
1.64812
59.6376
15.5038
10.874
-8.05823
0.79684
-107.8
13.7361
-5.0923
12.8365
-24.8358
-65.8348
1.20061
-73.2802
10.8922
3.8387
-31.0952
18.3413
16.1412
13.19
14.4607
21.9958
13.9048
11.6146
17.9321
1.44196
-75.075
17.3654
20.2344
16.6592
9.12422
-71.4992
1.79583
-28.9792
16.6026
-45.4967
1.09555
24.3736
-68.934
17.0851
0.875037
39.3339
1.62655
21.6588
4.30948
2.10524
14.5846
11.6479
-108.396
16.1565
-2.46444
-37.9618
1.51302
15.4829
10.6028
31.1011
3.49174
1.14165
-82.6274
17.3526
14.1074
17.3312
-19.5625
-33.8077
14.6398
12.0498
14.5565
1.69923
1.90177
48.8612
0.0831538
-62.8103
2.60852
-58.1737
0.160559
0.988378
31.1027
52.283
14.9355
60.0038
47.1852
18.371
16.8436
6.46868
15.0131
18.5701
2.79024
2.20234
19.7623
2.06761
11.3679
19.1466
10.644
18.4585
28.7329
1.62267
-6.49684
-124.128
17.3771
14.1904
-50.5802
8.46871
22.032
14.6209
12.8358
2.71095
17.7665
-1.65146
1.87332
30.618
13.5258
0.51025
17.0891
17.7579
14.9387
6.76927
14.1002
17.4628
-3.23977
18.4575
20.5702
-82.9373
-34.373
-20.3166
15.0045
1.64484
-51.8519
17.4782
1.59179
1.60074
-126.334
1.20125
15.2712
8.44988
29.5666
0.218576
1.28773
11.1737
46.1286
1.789
15.0845
1.15712
15.1528
53.4674
14.7671
-24.3754
16.0073
1.05959
-69.2133
16.0922
43.2296
4.83256
14.1138
18.4939
31.1616
11.5564
19.6078
2.3916
14.2585
11.9033
-122.981
4.08935
18.7172
20.0085
-64.386
-90.157
15.0327
18.4047
13.3718
10.6766
-56.4865
24.4453
-58.0635
18.0783
11.9348
15.9551
-11.7056
5.95989
17.5725
0.437911
1.54323
-94.6345
-66.5881
8.98725
-4.02888
-73.3114
17.6965
18.2947
18.1032
8.65962
19.0456
3.14048
18.273
10.5586
-3.1271
-25.7824
3.12314
13.6671
1.46551
35.0315
16.9843
19.9204
-107.04
15.9834
13.2491
20.0181
13.0224
-77.4143
-8.68949
2.3654
17.4108
16.4934
17.8665
-6.01484
20.1685
-20.4397
9.0713
8.54586
15.1365
9.83501
15.011
10.2432
11.7699
10.4323
-0.97021
-11.8857
2.93439
-93.4526
12.6753
17.3073
1.72954
-95.7316
39.5368
2.75571
23.5487
16.4122
13.0215
12.7127
18.5357
60.5457
-7.74083
0.810152
-92.8244
18.521
28.0149
-36.9982
3.74656
-56.5401
1.36635
30.5651
1.53204
16.3361
-25.79
-13.3144
-37.3992
-9.68604
17.8904
1.49699
8.89929
23.093
15.0836
20.518
9.50413
56.5437
20.5077
17.4447
43.7101
12.5261
14.4917
18.1089
21.7886
-10.6883
1.50291
9.90942
14.6168
-17.0226
14.4957
11.4937
14.8044