/*--------------------------------*- C++ -*----------------------------------*\
| =========                 |                                                 |
| \\      /  F ield         | OpenFOAM: The Open Source CFD Toolbox           |
|  \\    /   O peration     | Version:  2.3.1                                 |
|   \\  /    A nd           | Web:      www.OpenFOAM.org                      |
|    \\/     M anipulation  |                                                 |
\*---------------------------------------------------------------------------*/
FoamFile
{
    version     2.0;
    format      ascii;
    class       surfaceScalarField;
    location    "0.17";
    object      phi;
}
// * * * * * * * * * * * * * * * * * * * * * * * * * * * * * * * * * * * * * //

dimensions      [0 3 -1 0 0 0 0];

internalField   nonuniform List<scalar> 
15416
(
-0.000688402
6.75544e-06
0.000695008
-0.00069222
3.81994e-06
-0.000693126
9.08775e-07
-0.000694693
1.57056e-06
-0.00069817
3.48014e-06
-0.000704058
5.89058e-06
-0.00071265
8.59481e-06
-0.000724321
1.16742e-05
-0.000739406
1.50866e-05
-0.000758054
1.86492e-05
-0.00078054
2.24871e-05
-0.000806931
2.63903e-05
-0.000837204
3.02727e-05
-0.00087129
3.40837e-05
-0.000909147
3.78544e-05
-0.000950578
4.14274e-05
-0.000995297
4.47123e-05
-0.00104303
4.77194e-05
-0.00109358
5.05449e-05
-0.0011466
5.30133e-05
-0.00120182
5.52128e-05
-0.001259
5.71676e-05
-0.00131778
5.87777e-05
-0.00137784
6.00412e-05
-0.00143896
6.10955e-05
-0.00150092
6.194e-05
-0.00156345
6.25163e-05
-0.00162625
6.28058e-05
-0.00168915
6.2917e-05
-0.00175203
6.29017e-05
-0.00181461
6.26373e-05
-0.00187672
6.21995e-05
-0.00193826
6.16811e-05
-0.00199899
6.08955e-05
-0.00205872
5.98705e-05
-0.00211743
5.87788e-05
-0.00217511
5.75337e-05
-0.0022316
5.61743e-05
-0.00228672
5.46535e-05
-0.00234051
5.32726e-05
-0.00239296
5.20499e-05
-0.00244391
5.06623e-05
-0.00249317
4.91355e-05
-0.00254075
4.7581e-05
-0.00258637
4.56841e-05
-0.00263006
4.37783e-05
-0.00267201
4.20395e-05
-0.00271239
4.0427e-05
-0.00275063
3.82103e-05
-0.00278683
3.61325e-05
-0.00282109
3.41911e-05
-0.00285352
3.23818e-05
-0.0028836
3.0056e-05
-0.0029118
2.82035e-05
-0.00293792
2.61291e-05
-0.00296234
2.44295e-05
-0.00298409
2.17529e-05
-0.00300361
1.95251e-05
-0.00302127
1.76575e-05
-0.00303723
1.59606e-05
1.42422e-05
-0.00305148
-0.000408535
9.58799e-06
0.000405707
-0.000413972
9.25952e-06
-0.000424168
1.11076e-05
-0.000438719
1.6125e-05
-0.000457569
2.23335e-05
-0.000480144
2.84684e-05
-0.000506996
3.54498e-05
-0.000537695
4.23761e-05
-0.000572668
5.00617e-05
-0.000611402
5.73845e-05
-0.000654044
6.51301e-05
-0.000700376
7.27224e-05
-0.000750231
8.01268e-05
-0.000803432
8.72828e-05
-0.000859626
9.40459e-05
-0.000918657
0.000100454
-0.000980237
0.000106287
-0.00104415
0.000111622
-0.00111002
0.000116409
-0.00117766
0.000120649
-0.00124688
0.000124418
-0.00131722
0.000127506
-0.00138855
0.000130085
-0.00146066
0.000132133
-0.00153326
0.000133686
-0.00160614
0.000134826
-0.00167896
0.000135393
-0.00175171
0.000135651
-0.0018241
0.000135426
-0.00189586
0.000134727
-0.00196705
0.000133804
-0.00203755
0.000132565
-0.00210694
0.000130912
-0.00217519
0.000129098
-0.00224228
0.000127169
-0.00230786
0.000124748
-0.00237197
0.000122143
-0.00243453
0.000119039
-0.00249559
0.000115657
-0.00255498
0.000112206
-0.00261248
0.000108654
-0.00266841
0.000105517
-0.00272248
0.000102257
-0.00277436
9.8865e-05
-0.0028242
9.53966e-05
-0.00287182
9.16094e-05
-0.00291737
8.78999e-05
-0.00296037
8.36594e-05
-0.00300148
7.94286e-05
-0.00304047
7.51442e-05
-0.00307726
7.0951e-05
-0.00311224
6.73137e-05
-0.00314374
6.15202e-05
-0.00317462
5.90565e-05
-0.00320166
5.31696e-05
-0.00322723
4.99954e-05
-0.00324843
4.29498e-05
-0.00326954
4.06411e-05
-0.0032884
3.65163e-05
-0.00330514
3.27011e-05
2.65928e-05
-0.0033175
-0.000281776
2.08373e-05
0.000270531
-0.000299234
2.67213e-05
-0.000321946
3.3823e-05
-0.000348815
4.2997e-05
-0.000379567
5.30888e-05
-0.000414795
6.36987e-05
-0.000453995
7.46527e-05
-0.000497399
8.57829e-05
-0.000544845
9.75087e-05
-0.000596351
0.000108892
-0.00065157
0.00012035
-0.000710032
0.000131185
-0.000771884
0.000141977
-0.000836694
0.000152091
-0.000904254
0.000161603
-0.00097427
0.000170467
-0.00104653
0.000178542
-0.00112076
0.000185844
-0.00119664
0.000192285
-0.00127404
0.00019804
-0.00135248
0.000202855
-0.00143193
0.000206948
-0.00151211
0.000210244
-0.00159277
0.000212773
-0.00167363
0.000214544
-0.00175447
0.0002157
-0.00183513
0.000216147
-0.00191536
0.000216023
-0.0019949
0.000215099
-0.00207393
0.000213814
-0.00215198
0.000211791
-0.00222891
0.000209271
-0.00230492
0.000206671
-0.00237952
0.000203524
-0.00245264
0.000200303
-0.00252428
0.000196631
-0.00259427
0.000192462
-0.00266241
0.000187607
-0.00272864
0.00018225
-0.00279293
0.000176608
-0.00285538
0.000171027
-0.00291553
0.000165182
-0.00297376
0.000159772
-0.00302975
0.000154147
-0.00308354
0.000148572
-0.00313515
0.000142939
-0.00318434
0.000137048
-0.00323119
0.000130606
-0.00327545
0.000123876
-0.00331791
0.000117752
-0.00335662
0.000109746
-0.00339274
0.000103464
-0.0034273
9.60687e-05
-0.00345958
9.1316e-05
-0.00348976
8.33355e-05
-0.00351565
7.58768e-05
-0.0035415
6.87889e-05
-0.00356302
6.21618e-05
-0.00358238
5.58746e-05
-0.0035975
4.78153e-05
4.17286e-05
-0.00361263
-0.000229423
4.28109e-05
0.000207455
-0.000256117
5.34187e-05
-0.000287734
6.5443e-05
-0.000323683
7.89497e-05
-0.000364028
9.34367e-05
-0.000408799
0.000108472
-0.000457751
0.000123608
-0.000511227
0.000139261
-0.000568636
0.000154919
-0.000630048
0.000170305
-0.000694915
0.000185217
-0.000763463
0.000199733
-0.000835202
0.000213714
-0.000909669
0.000226557
-0.000986834
0.000238766
-0.00106634
0.000249968
-0.0011479
0.000260102
-0.00123123
0.000269172
-0.00131613
0.000277185
-0.00140218
0.000284089
-0.0014894
0.000290076
-0.00157729
0.000294834
-0.0016658
0.000298736
-0.00175459
0.000301566
-0.00184352
0.000303485
-0.00193216
0.000304362
-0.00202042
0.000304453
-0.00210817
0.000303771
-0.00219528
0.000302215
-0.00228129
0.000299839
-0.00236633
0.000296884
-0.00245023
0.00029332
-0.00253249
0.000288973
-0.00261334
0.000284274
-0.00269273
0.000279228
-0.00277067
0.000273654
-0.00284672
0.000267764
-0.00292103
0.000261574
-0.00299312
0.000254978
-0.00306289
0.000248008
-0.00313016
0.000239837
-0.00319529
0.000231481
-0.00325776
0.000222475
-0.00331806
0.000213825
-0.0033759
0.000205616
-0.00343148
0.000197622
-0.00348463
0.000189622
-0.0035355
0.000181253
-0.00358291
0.000171287
-0.00362766
0.00016267
-0.00367098
0.000153236
-0.00371017
0.000142785
-0.0037472
0.00013316
-0.00378013
0.000124258
-0.00381278
0.000115985
-0.00384131
0.000104396
-0.00386764
9.51066e-05
-0.00389177
8.62887e-05
-0.00391175
7.58401e-05
-0.00392952
6.5584e-05
5.53907e-05
-0.00394318
-0.000211676
7.21173e-05
0.000182375
-0.000245918
8.76644e-05
-0.000285294
0.000104822
-0.000329442
0.000123101
-0.000378192
0.000142191
-0.000431669
0.000161952
-0.00048997
0.000181912
-0.000552342
0.000201635
-0.000619043
0.000221621
-0.00068959
0.000240853
-0.000764026
0.000259654
-0.000842012
0.000277719
-0.000922942
0.000294643
-0.00100693
0.00031054
-0.00109375
0.000325593
-0.00118231
0.000338526
-0.00127303
0.00035082
-0.00136545
0.000361595
-0.00145921
0.000370951
-0.00155419
0.000379071
-0.00165004
0.000385921
-0.00174668
0.000391472
-0.00184369
0.000395758
-0.00194085
0.000398734
-0.00203777
0.000400421
-0.00213458
0.000401163
-0.00223079
0.000400586
-0.00232625
0.000399129
-0.00242085
0.000396669
-0.00251447
0.000393423
-0.00260678
0.000389348
-0.00269758
0.000384359
-0.00278679
0.000378579
-0.00287435
0.000371903
-0.00296009
0.000364388
-0.00304401
0.000356526
-0.00312656
0.000348693
-0.00320689
0.000340962
-0.00328487
0.000333134
-0.0033604
0.000324545
-0.00343348
0.000315029
-0.00350365
0.00030359
-0.00357104
0.000291316
-0.0036354
0.000279109
-0.00369729
0.00026735
-0.00375758
0.000257256
-0.00381351
0.000244521
-0.00386756
0.000234411
-0.0039198
0.000223131
-0.00396783
0.000210656
-0.00401343
0.00019901
-0.00405684
0.000186379
-0.0040963
0.000172748
-0.00413357
0.000161593
-0.00416485
0.000147289
-0.00419577
0.000135316
-0.00422452
0.000123846
-0.00424911
0.000110877
-0.00426959
9.63093e-05
-0.00428988
8.58763e-05
7.15783e-05
-0.00430607
-0.000213562
0.000108483
0.000177201
-0.000255365
0.000129471
-0.000302319
0.000151779
-0.000354754
0.00017554
-0.000412327
0.000199768
-0.000474627
0.000224256
-0.000541589
0.000248877
-0.000613386
0.000273435
-0.000689299
0.000297536
-0.000769671
0.000321226
-0.000853845
0.000343829
-0.000941344
0.000365218
-0.00103223
0.000385534
-0.00112566
0.000403966
-0.00122143
0.000421359
-0.00131966
0.000436759
-0.00141984
0.000451005
-0.00152182
0.00046358
-0.00162491
0.000474037
-0.001729
0.000483162
-0.00183406
0.000490977
-0.00193948
0.000496906
-0.00204533
0.000501619
-0.00215123
0.000504635
-0.00225694
0.000506123
-0.00236208
0.000506243
-0.0024666
0.000505061
-0.00257017
0.00050257
-0.00267265
0.000499075
-0.00277398
0.000494578
-0.00287396
0.000489097
-0.00297225
0.000482626
-0.00306897
0.000475311
-0.00316373
0.00046706
-0.00325617
0.0004574
-0.00334665
0.000446929
-0.00343456
0.000436484
-0.00352054
0.000425686
-0.00360463
0.00041562
-0.00368655
0.000405769
-0.00376615
0.000393969
-0.00384252
0.000381102
-0.00391494
0.000366002
-0.00398333
0.000349791
-0.00404881
0.000335143
-0.00411253
0.000321376
-0.00417504
0.00030624
-0.00423388
0.000292091
-0.00428868
0.000276923
-0.00434086
0.000262484
-0.00438882
0.000246955
-0.00443264
0.000230313
-0.00447609
0.000216321
-0.00451377
0.000199343
-0.00455112
0.000184691
-0.0045844
0.000168614
-0.00461154
0.000151004
-0.00463648
0.00013581
-0.00466129
0.00012112
-0.00468008
0.000104663
8.82453e-05
-0.00469675
-0.000230141
0.000152071
0.00018656
-0.000279715
0.00017905
-0.00033504
0.000207108
-0.000396179
0.000236683
-0.00046242
0.000266013
-0.00053416
0.000296
-0.000610813
0.000325533
-0.000692044
0.000354669
-0.000778125
0.00038362
-0.000868006
0.000411109
-0.000962181
0.000438006
-0.00106003
0.000463067
-0.0011607
0.000486205
-0.00126406
0.000507335
-0.00137046
0.000527752
-0.00147892
0.000545225
-0.0015889
0.000560988
-0.00170064
0.000575322
-0.00181346
0.00058685
-0.00192742
0.000597115
-0.00204201
0.000605575
-0.00215699
0.0006119
-0.00227232
0.000616958
-0.00238749
0.000619789
-0.00250224
0.000620803
-0.0026164
0.000620358
-0.00272949
0.000618037
-0.00284166
0.000614838
-0.00295262
0.000610008
-0.00306187
0.00060371
-0.00316974
0.000596655
-0.00327616
0.00058818
-0.0033804
0.000579157
-0.00348284
0.000569693
-0.00358314
0.000558539
-0.00367985
0.000545998
-0.0037742
0.000531985
-0.00386547
0.000517378
-0.00395443
0.000503366
-0.00404274
0.000489787
-0.00412898
0.000477054
-0.00421169
0.000461746
-0.00429059
0.000445978
-0.00436391
0.00042803
-0.00443434
0.000409714
-0.00450122
0.0003911
-0.00456535
0.000370791
-0.00462807
0.000353482
-0.00468848
0.000336122
-0.00474278
0.000316
-0.0047945
0.000298446
-0.00484387
0.000279681
-0.00488749
0.000259974
-0.00492908
0.000241
-0.0049667
0.000222355
-0.00500015
0.000202101
-0.00503321
0.00018408
-0.0050602
0.00016282
-0.00508328
0.000144204
-0.00510244
0.000123827
0.000105274
-0.00511947
-0.000259164
0.000203141
0.0002081
-0.000316912
0.000236803
-0.000380802
0.000271002
-0.000451525
0.000307409
-0.000527675
0.000342167
-0.000609125
0.000377453
-0.000695979
0.000412392
-0.000787033
0.000445725
-0.000883565
0.000480154
-0.000984023
0.000511569
-0.00108943
0.000543415
-0.00119768
0.000571318
-0.00130996
0.000598488
-0.00142382
0.00062119
-0.00154035
0.000644285
-0.00165992
0.000664795
-0.00178075
0.000681819
-0.001903
0.000697579
-0.00202689
0.000710731
-0.00215043
0.000720648
-0.00227547
0.000730612
-0.00240024
0.000736676
-0.00252594
0.000742653
-0.00265123
0.00074506
-0.00277549
0.00074503
-0.00289946
0.000744163
-0.00302152
0.000740023
-0.00314277
0.00073602
-0.00326274
0.00073022
-0.00338012
0.000721425
-0.00349654
0.000713027
-0.00361084
0.00070228
-0.00372269
0.000690097
-0.00383331
0.000679214
-0.00394175
0.000667159
-0.00404665
0.000651669
-0.00414769
0.00063614
-0.00424466
0.000617524
-0.00433855
0.000597658
-0.00443094
0.000580942
-0.00452416
0.00056488
-0.00461501
0.00054782
-0.0046981
0.000528843
-0.00477886
0.000511437
-0.00485266
0.000489225
-0.00492243
0.000464516
-0.00499299
0.00044209
-0.00505824
0.000417915
-0.00512059
0.000397261
-0.00517977
0.000374669
-0.00523339
0.000351843
-0.00528421
0.000330369
-0.0053311
0.00030682
-0.00537639
0.000286278
-0.00541608
0.000262077
-0.00545312
0.000239155
-0.00548421
0.000215188
-0.00551072
0.000189341
-0.00553562
0.000169112
-0.00555703
0.000145252
0.000122366
-0.00557414
-0.000298215
0.000240539
0.000260824
-0.000365586
0.000304178
-0.000437272
0.000342689
-0.00051925
0.000389388
-0.000605123
0.000428041
-0.000697478
0.000469805
-0.000795466
0.000510379
-0.000895795
0.000546054
-0.00100545
0.000589804
-0.00111534
0.000621461
-0.00123444
0.000662509
-0.00135262
0.000689498
-0.0014799
0.000725767
-0.00160222
0.000743512
-0.0017314
0.000773459
-0.00186351
0.000796894
-0.00199369
0.000812002
-0.00212927
0.000833159
-0.00226412
0.000845585
-0.00239752
0.000854027
-0.00253705
0.000870107
-0.00267004
0.000869634
-0.00280787
0.000880469
-0.00294418
0.000881385
-0.0030781
0.000878987
-0.00321415
0.000880248
-0.00334414
0.000869735
-0.0034755
0.000866989
-0.00360633
0.000861021
-0.00373138
0.000847173
-0.00385749
0.000840454
-0.00397975
0.000825662
-0.00409835
0.000808888
-0.00421649
0.000795674
-0.00433551
0.000782614
-0.00444648
0.000759666
-0.0045581
0.000747783
-0.00466293
0.000726715
-0.00475991
0.000702704
-0.00485826
0.000683187
-0.00495268
0.000656623
-0.00504875
0.000637271
-0.00513949
0.000612638
-0.00522461
0.000596277
-0.00530835
0.00057602
-0.00538312
0.000542849
-0.0054555
0.000516735
-0.00552205
0.000485732
-0.00558844
0.000463132
-0.00564918
0.000434804
-0.00570893
0.000411372
-0.00576126
0.000382583
-0.00581059
0.000356137
-0.00585635
0.000331999
-0.00589967
0.000305384
-0.00593527
0.000274749
-0.00596925
0.000249164
-0.00599704
0.000217147
-0.00602225
0.000194351
-0.00604391
0.000166926
-0.00606021
0.000138668
-0.0030621
1.06143e-05
-0.00307116
9.05322e-06
-0.00307855
7.39594e-06
-0.00308412
5.56723e-06
-0.00308748
3.35848e-06
-0.00308821
7.31644e-07
-0.00308724
-9.6493e-07
-0.00308417
-3.07311e-06
-0.00307918
-4.9872e-06
-0.00307183
-7.34402e-06
-0.00306262
-9.20822e-06
-0.00305151
-1.1099e-05
-0.00303843
-1.30743e-05
-0.0030233
-1.5121e-05
-0.00300645
-1.68494e-05
-0.00298779
-1.86494e-05
-0.00296716
-2.06255e-05
-0.00294453
-2.26211e-05
-0.00292025
-2.42737e-05
-0.00289415
-2.6101e-05
-0.0028663
-2.78399e-05
-0.00283688
-2.94095e-05
-0.00280578
-3.11019e-05
-0.00277289
-3.28775e-05
-0.00273855
-3.43359e-05
-0.00270258
-3.59591e-05
-0.0026651
-3.74711e-05
-0.00262603
-3.90632e-05
-0.00258548
-4.05521e-05
-0.00254358
-4.18891e-05
-0.00250024
-4.33337e-05
-0.0024555
-4.47345e-05
-0.00240955
-4.59404e-05
-0.00236233
-4.72112e-05
-0.00231383
-4.84957e-05
-0.00226421
-4.96147e-05
-0.00221354
-5.06674e-05
-0.00216178
-5.17518e-05
-0.00210886
-5.29064e-05
-0.00205496
-5.38994e-05
-0.0020002
-5.47545e-05
-0.00194454
-5.5647e-05
-0.00188801
-5.6525e-05
-0.00183077
-5.72386e-05
-0.00177267
-5.80925e-05
-0.0017138
-5.88605e-05
-0.00165434
-5.94526e-05
-0.00159438
-5.99613e-05
-0.00153379
-6.05847e-05
-0.00147267
-6.11088e-05
-0.00141115
-6.15152e-05
-0.00134934
-6.18095e-05
-0.00128706
-6.22779e-05
-0.00122459
-6.24584e-05
-0.00116194
-6.26498e-05
-0.0010993
-6.26348e-05
-0.00103643
-6.28664e-05
-0.000973561
-6.28664e-05
-0.000910864
-6.26944e-05
-0.000848411
-6.24511e-05
-6.21754e-05
-0.000786234
-0.00332958
2.27e-05
-0.00333763
1.70974e-05
-0.00334354
1.33064e-05
-0.00334728
9.30967e-06
-0.00335103
7.10527e-06
-0.00335052
2.28399e-07
-0.00334858
-2.90761e-06
-0.00334273
-8.91669e-06
-0.00333632
-1.13928e-05
-0.00332643
-1.72312e-05
-0.00331467
-2.09621e-05
-0.00330088
-2.4883e-05
-0.00328512
-2.88314e-05
-0.00326746
-3.27829e-05
-0.00324736
-3.69393e-05
-0.00322528
-4.073e-05
-0.00320111
-4.47834e-05
-0.00317505
-4.86748e-05
-0.00314682
-5.25006e-05
-0.00311671
-5.62086e-05
-0.00308488
-5.96652e-05
-0.0030509
-6.33886e-05
-0.00301504
-6.69486e-05
-0.0029775
-7.04154e-05
-0.00293809
-7.37433e-05
-0.00289708
-7.69577e-05
-0.00285423
-8.0323e-05
-0.0028099
-8.33825e-05
-0.00276395
-8.64987e-05
-0.00271622
-8.96145e-05
-0.0026671
-9.24458e-05
-0.00261664
-9.51918e-05
-0.00256455
-9.80235e-05
-0.00251108
-0.00010068
-0.00245642
-0.00010315
-0.00240031
-0.000105714
-0.00234297
-0.00010801
-0.00228441
-0.000110305
-0.00222479
-0.00011252
-0.00216405
-0.000114641
-0.00210205
-0.000116741
-0.00203919
-0.000118502
-0.00197541
-0.0001203
-0.00191061
-0.000122038
-0.00184502
-0.000123679
-0.00177859
-0.000125282
-0.00171145
-0.000126592
-0.00164343
-0.000127975
-0.00157487
-0.000129136
-0.00150576
-0.000130215
-0.00143612
-0.000131151
-0.00136617
-0.000131765
-0.0012953
-0.000133143
-0.00122469
-0.000133062
-0.00115322
-0.000134113
-0.00108181
-0.000134047
-0.00100967
-0.000135002
-0.000938162
-0.000134373
-0.000866655
-0.000134199
-0.000795216
-0.000133889
-0.000133958
-0.000723432
-0.00362366
3.37286e-05
-0.00363437
2.78065e-05
-0.00364089
1.98275e-05
-0.00364525
1.36671e-05
-0.00364565
7.50695e-06
-0.00364576
3.38061e-07
-0.00364191
-6.75572e-06
-0.00363559
-1.52327e-05
-0.00362726
-1.97171e-05
-0.00361741
-2.70788e-05
-0.00360522
-3.31533e-05
-0.00358914
-4.09594e-05
-0.00357139
-4.65786e-05
-0.00355117
-5.2997e-05
-0.00352872
-5.93845e-05
-0.00350392
-6.55246e-05
-0.00347701
-7.16883e-05
-0.00344795
-7.77297e-05
-0.00341669
-8.37579e-05
-0.00338353
-8.93724e-05
-0.00334792
-9.52698e-05
-0.00331046
-0.000100845
-0.00327102
-0.000106382
-0.00322963
-0.000111799
-0.00318621
-0.000117163
-0.00314088
-0.000122278
-0.00309378
-0.000127422
-0.00304482
-0.000132338
-0.00299395
-0.00013736
-0.0029417
-0.000141863
-0.00288762
-0.000146523
-0.00283179
-0.000151014
-0.00277471
-0.000155097
-0.00271599
-0.0001594
-0.00265576
-0.000163375
-0.00259417
-0.000167302
-0.00253117
-0.000171006
-0.00246679
-0.000174673
-0.00240119
-0.000178123
-0.00233439
-0.000181434
-0.00226656
-0.000184563
-0.00219739
-0.000187668
-0.00212732
-0.000190368
-0.00205622
-0.000193137
-0.00198421
-0.000195686
-0.00191136
-0.000198126
-0.00183763
-0.000200318
-0.00176314
-0.000202458
-0.00168788
-0.000204395
-0.00161229
-0.000205796
-0.0015355
-0.000207944
-0.00145817
-0.000209094
-0.00138073
-0.000210574
-0.00130297
-0.000210817
-0.00122498
-0.000212107
-0.00114615
-0.000212873
-0.00106792
-0.000213228
-0.000989082
-0.000213207
-0.00091033
-0.00021295
-0.000831255
-0.000212962
-0.000212369
-0.000752843
-0.00395673
4.72754e-05
-0.00396607
3.71547e-05
-0.00397321
2.69652e-05
-0.00397616
1.66158e-05
-0.00397675
8.09736e-06
-0.00397504
-1.37668e-06
-0.00396946
-1.2333e-05
-0.00396409
-2.06036e-05
-0.00395448
-2.93254e-05
-0.00394281
-3.87485e-05
-0.00392703
-4.89369e-05
-0.00391006
-5.7927e-05
-0.00389063
-6.60092e-05
-0.00386787
-7.57525e-05
-0.003843
-8.42518e-05
-0.00381566
-9.28656e-05
-0.00378588
-0.000101463
-0.00375363
-0.000109971
-0.00371923
-0.000118162
-0.00368221
-0.000126389
-0.00364331
-0.000134168
-0.00360195
-0.000142197
-0.00355857
-0.000149759
-0.00351303
-0.000157341
-0.00346551
-0.000164678
-0.00341568
-0.0001721
-0.00336389
-0.000179209
-0.00331022
-0.00018601
-0.00325479
-0.000192781
-0.00319718
-0.000199471
-0.00313794
-0.000205765
-0.00307709
-0.000211853
-0.00301428
-0.000217908
-0.00294999
-0.000223682
-0.00288416
-0.000229204
-0.00281682
-0.000234642
-0.00274779
-0.000240036
-0.00267742
-0.000245032
-0.00260569
-0.000249855
-0.00253274
-0.000254374
-0.00245837
-0.000258933
-0.00238306
-0.000262969
-0.00230642
-0.000267005
-0.00222883
-0.000270728
-0.00215017
-0.000274342
-0.00207052
-0.000277771
-0.00198997
-0.000280869
-0.00190874
-0.000283681
-0.0018264
-0.000286729
-0.0017434
-0.0002888
-0.00166037
-0.000290974
-0.0015761
-0.000293354
-0.00149152
-0.00029515
-0.00140596
-0.000296377
-0.00132089
-0.00029718
-0.00123508
-0.000298678
-0.00114922
-0.000299083
-0.00106346
-0.000298972
-0.000977272
-0.000299133
-0.00089133
-0.000298903
-0.000298505
-0.000805193
-0.00431811
5.93081e-05
-0.00432599
4.50409e-05
-0.00433372
3.46923e-05
-0.00433731
2.02009e-05
-0.00433665
7.43719e-06
-0.00433425
-3.78742e-06
-0.00433125
-1.53354e-05
-0.0043224
-2.94556e-05
-0.00431144
-4.02786e-05
-0.00429658
-5.36162e-05
-0.0042797
-6.58136e-05
-0.00426069
-7.69332e-05
-0.00423773
-8.89734e-05
-0.00421337
-0.000100107
-0.00418723
-0.000110388
-0.00415616
-0.000123933
-0.00412324
-0.000134383
-0.00408771
-0.000145492
-0.00404957
-0.000156303
-0.00400914
-0.000166816
-0.00396613
-0.000177176
-0.00392108
-0.000187244
-0.0038735
-0.00019733
-0.00382356
-0.00020728
-0.00377112
-0.000217119
-0.00371676
-0.000226455
-0.00366017
-0.00023579
-0.00360133
-0.000244845
-0.00354047
-0.000253637
-0.00347774
-0.000262201
-0.00341293
-0.000270574
-0.00334616
-0.00027862
-0.0032777
-0.000286361
-0.00320754
-0.000293841
-0.00313555
-0.000301189
-0.00306181
-0.00030838
-0.00298672
-0.000315118
-0.00290986
-0.000321893
-0.0028315
-0.000328206
-0.00275162
-0.000334254
-0.00267062
-0.000339925
-0.00258826
-0.00034533
-0.00250481
-0.000350447
-0.00242016
-0.000355374
-0.00233444
-0.000360066
-0.00224802
-0.000364187
-0.00215949
-0.000369393
-0.00207053
-0.000372631
-0.0019814
-0.000375865
-0.00189093
-0.000379264
-0.00180003
-0.000381871
-0.00170882
-0.000384558
-0.0016166
-0.000387375
-0.00152411
-0.000388861
-0.0014301
-0.000391187
-0.00133671
-0.00039207
-0.00124331
-0.000392476
-0.00114952
-0.00039276
-0.00105541
-0.000393246
-0.000962099
-0.000392212
-0.00039201
-0.000868593
-0.0047093
7.1856e-05
-0.00471972
5.54641e-05
-0.00472403
3.89963e-05
-0.00472819
2.43669e-05
-0.00473024
9.48307e-06
-0.00472633
-7.70091e-06
-0.00471831
-2.33619e-05
-0.00471014
-3.76221e-05
-0.00469612
-5.42971e-05
-0.00468198
-6.7755e-05
-0.00466386
-8.3926e-05
-0.00464181
-9.89819e-05
-0.00461772
-0.000113065
-0.00458977
-0.00012805
-0.0045579
-0.000142257
-0.0045242
-0.00015763
-0.00448798
-0.000170592
-0.00444935
-0.000184118
-0.00440746
-0.000198191
-0.00436288
-0.000211391
-0.00431589
-0.000224159
-0.00426606
-0.000237066
-0.0042138
-0.000249589
-0.00415911
-0.00026197
-0.00410202
-0.000274204
-0.00404229
-0.000286176
-0.00398042
-0.000297654
-0.00391614
-0.000309123
-0.00384962
-0.000320152
-0.00378111
-0.000330712
-0.00371031
-0.000341373
-0.00363742
-0.000351497
-0.00356269
-0.000361092
-0.00348618
-0.000370348
-0.0034076
-0.000379768
-0.00332739
-0.000388578
-0.00324521
-0.000397298
-0.00316135
-0.000405748
-0.00307598
-0.000413569
-0.00298915
-0.00042108
-0.00290064
-0.000428436
-0.00281094
-0.000435023
-0.00271993
-0.000441454
-0.00262745
-0.000447852
-0.00253411
-0.000453407
-0.00243967
-0.00045862
-0.00234478
-0.00046428
-0.00224828
-0.000469129
-0.00215059
-0.000473553
-0.00205244
-0.000477409
-0.00195315
-0.000481158
-0.00185291
-0.000484801
-0.00175304
-0.000487241
-0.00165169
-0.000490207
-0.00155068
-0.000492193
-0.00144911
-0.000493643
-0.00134634
-0.000495243
-0.00124398
-0.000495117
-0.00114229
-0.000494927
-0.00104011
-0.000494391
-0.00049387
-0.000938253
-0.00513244
8.48092e-05
-0.00514327
6.62918e-05
-0.00515006
4.57876e-05
-0.00515278
2.70855e-05
-0.00514951
6.21782e-06
-0.00514625
-1.09602e-05
-0.00513892
-3.06821e-05
-0.00512757
-4.89635e-05
-0.00511425
-6.76191e-05
-0.0050952
-8.67941e-05
-0.00507419
-0.000104927
-0.00505106
-0.000122113
-0.00502212
-0.000142002
-0.00499125
-0.00015892
-0.00495848
-0.000175018
-0.00492183
-0.000194279
-0.00488123
-0.000211183
-0.00483788
-0.000227465
-0.00479142
-0.000244642
-0.00474315
-0.000259651
-0.00469127
-0.000276029
-0.00463696
-0.000291379
-0.00457983
-0.000306712
-0.00451986
-0.000321932
-0.00445718
-0.000336877
-0.00439193
-0.000351427
-0.00432404
-0.000365541
-0.00425395
-0.000379211
-0.00418156
-0.000392536
-0.00410667
-0.0004056
-0.00402939
-0.000418644
-0.00395005
-0.000430834
-0.0038684
-0.000442735
-0.00378501
-0.000453737
-0.00369967
-0.000465102
-0.00361226
-0.00047598
-0.00352291
-0.000486643
-0.00343156
-0.000497097
-0.00333846
-0.000506664
-0.00324365
-0.000515886
-0.00314737
-0.000524712
-0.00304919
-0.000533195
-0.00295027
-0.000540376
-0.0028501
-0.000548013
-0.00274899
-0.000554517
-0.00264596
-0.000561651
-0.00254164
-0.000568595
-0.00243672
-0.000574047
-0.0023316
-0.000578669
-0.00222437
-0.000584639
-0.00211674
-0.000588784
-0.00200898
-0.000592553
-0.00189948
-0.000596738
-0.00178994
-0.000599752
-0.00167934
-0.000602788
-0.00156835
-0.000604632
-0.00145782
-0.000605767
-0.00134675
-0.00060619
-0.00123535
-0.000606327
-0.00112418
-0.000605559
-0.000604747
-0.0010133
-0.00558737
9.8029e-05
-0.00559634
7.52532e-05
-0.00560156
5.10069e-05
-0.00560454
3.00599e-05
-0.00560376
5.44387e-06
-0.0055973
-1.74118e-05
-0.00558893
-3.90442e-05
-0.00557426
-6.36195e-05
-0.00555769
-8.41856e-05
-0.0055378
-0.000106673
-0.00551588
-0.000126852
-0.00548812
-0.000149866
-0.00545807
-0.000172046
-0.00542442
-0.000192571
-0.00538553
-0.000213904
-0.00534607
-0.000233733
-0.00530281
-0.000254437
-0.00525366
-0.000276611
-0.00520411
-0.000294188
-0.00514972
-0.000314035
-0.00509219
-0.000333557
-0.00503277
-0.000350797
-0.00497065
-0.000368826
-0.00490492
-0.000387662
-0.00483635
-0.000405434
-0.0047649
-0.000422875
-0.00469077
-0.000439672
-0.00461408
-0.000455895
-0.00453492
-0.000471693
-0.00445335
-0.000487171
-0.00436896
-0.000503026
-0.00428264
-0.00051715
-0.00419374
-0.000531627
-0.00410354
-0.000543931
-0.00401073
-0.000557905
-0.00391578
-0.000570925
-0.0038188
-0.000583625
-0.00371932
-0.000596571
-0.00361769
-0.000608294
-0.00351466
-0.00061891
-0.00341006
-0.000629309
-0.00330372
-0.000639536
-0.00319529
-0.000648797
-0.00308703
-0.000656272
-0.00297668
-0.000664867
-0.00286419
-0.000674137
-0.00275244
-0.000680342
-0.00263801
-0.000688475
-0.0025234
-0.000693273
-0.00240791
-0.000700129
-0.00229047
-0.000706215
-0.00217332
-0.000709706
-0.00205492
-0.000715129
-0.00193671
-0.000717963
-0.00181619
-0.000723311
-0.00169632
-0.0007245
-0.00157488
-0.000727197
-0.00145424
-0.000726835
-0.00133342
-0.000727145
-0.00121321
-0.000725763
-0.000725558
-0.0010924
-0.00607359
0.000111387
-0.00608205
8.36933e-05
-0.00608733
5.62763e-05
-0.00608615
2.88665e-05
-0.00608356
2.85807e-06
-0.00607761
-2.33491e-05
-0.0060671
-4.95477e-05
-0.00605192
-7.87843e-05
-0.00603167
-0.000104432
-0.00601092
-0.000127427
-0.00598406
-0.000153712
-0.00595391
-0.000180012
-0.00592131
-0.000204639
-0.00588199
-0.000231882
-0.00584358
-0.000252308
-0.00579796
-0.000279357
-0.00574812
-0.000304274
-0.00569709
-0.00032764
-0.00563942
-0.000351859
-0.00558098
-0.000372472
-0.00551994
-0.000394609
-0.00545325
-0.000417487
-0.00538669
-0.000435374
-0.00531445
-0.000459899
-0.00523875
-0.00048112
-0.00516161
-0.000500013
-0.00507963
-0.000521653
-0.00499683
-0.000538689
-0.00490856
-0.000559961
-0.00482183
-0.000573892
-0.00472772
-0.000597135
-0.00463537
-0.0006095
-0.00453689
-0.000630096
-0.00444084
-0.000639979
-0.00434043
-0.000658312
-0.00423704
-0.000674314
-0.00413309
-0.000687579
-0.00402417
-0.000705489
-0.00391328
-0.000719181
-0.00380301
-0.000729181
-0.00368742
-0.000744893
-0.00357051
-0.000756446
-0.00345492
-0.000764382
-0.00333455
-0.000776639
-0.00321832
-0.000781089
-0.00309429
-0.00079817
-0.00297414
-0.000800484
-0.00284806
-0.000814559
-0.00272627
-0.000815059
-0.00260113
-0.000825268
-0.00247321
-0.000834132
-0.00234856
-0.000834359
-0.00221862
-0.000845064
-0.00209221
-0.000844366
-0.00195886
-0.000856658
-0.0018307
-0.000852659
-0.0016961
-0.000861795
-0.00156923
-0.000853705
-0.00143543
-0.000860951
-0.00130749
-0.000853692
-0.00117304
-0.000860013
-0.000723931
-6.23015e-05
-0.000662014
-6.19169e-05
-0.000600504
-6.15096e-05
-0.00053947
-6.10344e-05
-0.000478983
-6.04873e-05
-0.000419123
-5.98611e-05
-0.000360191
-5.89341e-05
-0.000302282
-5.79106e-05
-0.000245664
-5.66212e-05
-0.000190079
-5.55874e-05
-0.000133918
-5.61655e-05
-7.5979e-05
-5.79429e-05
-1.6795e-05
-5.91888e-05
4.16462e-05
-5.84463e-05
9.77081e-05
-5.60676e-05
0.000151644
-5.39418e-05
0.000203866
-5.22288e-05
0.000254567
-5.07067e-05
0.000303774
-4.92138e-05
0.000351434
-4.76673e-05
0.000397543
-4.61156e-05
0.000442045
-4.45088e-05
0.000484808
-4.27709e-05
0.000525714
-4.09133e-05
0.000564709
-3.90029e-05
0.000601731
-3.70294e-05
0.000636659
-3.49364e-05
0.00066936
-3.27085e-05
0.000699719
-3.0367e-05
0.000727647
-2.79369e-05
0.000752945
-2.53063e-05
0.000775455
-2.2518e-05
0.000795056
-1.96099e-05
0.000811501
-1.64538e-05
0.000824572
-1.30795e-05
0.000834071
-9.50759e-06
0.000839676
-5.61421e-06
0.000841575
-1.90839e-06
0.000840013
1.55341e-06
0.00083499
5.01361e-06
0.000826396
8.58457e-06
0.000813624
1.27621e-05
0.000796191
1.74237e-05
0.000773677
2.25045e-05
0.000745451
2.8216e-05
0.000710897
3.45446e-05
0.000669405
4.14823e-05
0.000620247
4.91476e-05
0.000562578
5.76589e-05
0.000495647
6.69212e-05
0.000418746
7.68908e-05
0.000331333
8.74019e-05
0.000232947
9.83748e-05
0.000123102
0.000109835
-4.92638e-06
0.000128018
-0.000146901
0.000141964
-0.000278865
0.000131954
-0.000388803
0.000109927
-0.000472017
8.32035e-05
-0.000533313
6.12863e-05
5.01354e-05
-0.000583459
-0.000652273
-0.00013346
-0.000580878
-0.000133311
-0.000509726
-0.000132662
-0.00043884
-0.00013192
-0.000368564
-0.000130764
-0.000298496
-0.00012993
-0.000229021
-0.000128412
-0.000160081
-0.000126852
-9.19051e-05
-0.000124799
-2.34241e-05
-0.000124071
4.5394e-05
-0.000124987
0.000113249
-0.000125802
0.00017982
-0.000125764
0.000245749
-0.00012438
0.000311175
-0.000121498
0.000375724
-0.000118497
0.000439068
-0.000115578
0.000501128
-0.000112771
0.000561833
-0.000109925
0.000621186
-0.000107026
0.000679169
-0.000104104
0.000735603
-0.000100949
0.000790488
-9.76624e-05
0.000843798
-9.42299e-05
0.000895421
-9.06327e-05
0.000945293
-8.6908e-05
0.000993276
-8.29261e-05
0.00103939
-7.88329e-05
0.00108349
-7.44747e-05
0.0011254
-6.98485e-05
0.00116513
-6.505e-05