/*--------------------------------*- C++ -*----------------------------------*\
| =========                 |                                                 |
| \\      /  F ield         | OpenFOAM: The Open Source CFD Toolbox           |
|  \\    /   O peration     | Version:  2.3.1                                 |
|   \\  /    A nd           | Web:      www.OpenFOAM.org                      |
|    \\/     M anipulation  |                                                 |
\*---------------------------------------------------------------------------*/
FoamFile
{
    version     2.0;
    format      ascii;
    class       volVectorField;
    location    "0.17";
    object      U;
}
// * * * * * * * * * * * * * * * * * * * * * * * * * * * * * * * * * * * * * //

dimensions      [0 1 -1 0 0 0 0];

internalField   nonuniform List<vector> 
9648
(
(0.192376 -4.6664 5.14628e-22)
(0.297958 -4.69633 -2.9208e-22)
(0.406415 -4.68494 0)
(0.526761 -4.67994 0)
(0.652443 -4.68057 1.73244e-20)
(0.783754 -4.69234 2.77893e-20)
(0.92176 -4.71711 -4.315e-20)
(1.06661 -4.75672 -1.89891e-20)
(1.22002 -4.81316 1.89118e-20)
(1.38391 -4.88784 5.45334e-20)
(1.56047 -4.98128 -5.4211e-20)
(1.75135 -5.09349 -7.50118e-20)
(1.95823 -5.22405 3.95539e-19)
(2.18273 -5.37191 9.95566e-20)
(2.42611 -5.53532 -9.28804e-19)
(2.68917 -5.71224 0)
(2.97265 -5.9003 0)
(3.27696 -6.097 1.60458e-19)
(3.60242 -6.29941 5.13058e-19)
(3.94874 -6.50461 -1.46287e-18)
(4.31565 -6.70995 -2.41065e-20)
(4.70275 -6.91247 3.97716e-19)
(5.10908 -7.10945 4.63749e-19)
(5.53378 -7.29836 -2.08031e-18)
(5.97579 -7.4768 0)
(6.43395 -7.6424 1.22423e-18)
(6.90684 -7.79294 -1.27462e-18)
(7.39297 -7.92663 0)
(7.89089 -8.0416 0)
(8.39898 -8.13655 -7.60612e-19)
(8.9158 -8.21012 -1.66717e-18)
(9.43952 -8.26113 2.60675e-18)
(9.9685 -8.28865 0)
(10.5008 -8.29155 0)
(11.0345 -8.2693 1.96539e-18)
(11.568 -8.22122 -2.10434e-18)
(12.0995 -8.14728 0)
(12.6281 -8.04753 4.47997e-18)
(13.152 -7.92169 1.20095e-18)
(13.6698 -7.76993 -3.55317e-18)
(14.1798 -7.59241 6.63538e-20)
(14.6805 -7.38979 2.50946e-18)
(15.1701 -7.16203 -3.3207e-18)
(15.6464 -6.90942 6.67384e-19)
(16.1081 -6.63267 0)
(16.5543 -6.33203 0)
(16.9838 -6.00833 4.98194e-18)
(17.396 -5.66218 7.28312e-19)
(17.7896 -5.29394 -2.24304e-18)
(18.163 -4.90551 -7.54013e-19)
(18.5149 -4.4981 -7.80175e-19)
(18.8441 -4.07318 7.75821e-19)
(19.1502 -3.63224 3.98806e-19)
(19.4323 -3.17602 -3.96888e-19)
(19.6895 -2.70628 2.01856e-18)
(19.9213 -2.22406 -1.98485e-18)
(20.127 -1.73083 -2.19646e-20)
(20.3062 -1.22771 0)
(20.4586 -0.716195 -4.00867e-19)
(20.5836 -0.19783 -5.16925e-20)
(20.6811 0.326255 -4.89204e-20)
(-0.016816 -2.51356 -2.13007e-22)
(0.0364457 -2.53251 0)
(0.0974048 -2.57721 0)
(0.177782 -2.65176 1.40365e-20)
(0.270258 -2.74712 -1.25465e-20)
(0.374676 -2.86295 -6.34709e-20)
(0.492403 -2.99949 0)
(0.623891 -3.15644 0)
(0.770227 -3.33277 -6.57838e-20)
(0.932438 -3.52726 0)
(1.11189 -3.7388 -1.47016e-19)
(1.30923 -3.96552 1.13303e-19)
(1.52517 -4.20575 -6.05349e-20)
(1.76042 -4.45748 0)
(2.01555 -4.71849 3.57951e-19)
(2.29068 -4.98649 2.08063e-19)
(2.58598 -5.2591 -2.04602e-19)
(2.90141 -5.53398 2.5893e-19)
(3.23698 -5.8086 -7.86071e-19)
(3.5923 -6.0805 6.16042e-19)
(3.9669 -6.34744 -6.75116e-19)
(4.36037 -6.60701 -3.6167e-19)
(4.77176 -6.85705 -3.68326e-19)
(5.20023 -7.09544 1.25089e-18)
(5.64473 -7.32017 4.30818e-19)
(6.10424 -7.52928 5.03825e-19)
(6.5775 -7.72092 -4.4853e-19)
(7.06309 -7.89354 0)
(7.55974 -8.0456 0)
(8.06592 -8.17608 0)
(8.58039 -8.28382 0)
(9.10152 -8.36786 0)
(9.62786 -8.42739 0)
(10.1578 -8.46147 0)
(10.6893 -8.46957 -8.77418e-19)
(11.2208 -8.45114 7.98753e-19)
(11.7505 -8.40633 8.72634e-19)
(12.2768 -8.33498 -4.42869e-18)
(12.7988 -8.23695 -9.33864e-19)
(13.315 -8.11208 2.86993e-18)
(13.8241 -7.96058 2.00563e-18)
(14.325 -7.78324 -2.0632e-18)
(14.8157 -7.57998 9.84192e-19)
(15.2941 -7.35151 1.03536e-18)
(15.7586 -7.09846 -1.09285e-18)
(16.2075 -6.82119 1.08409e-18)
(16.6395 -6.52071 -2.3137e-18)
(17.0537 -6.19769 0)
(17.4499 -5.85273 -5.87539e-19)
(17.8272 -5.48701 1.17977e-18)
(18.184 -5.10136 -5.92392e-19)
(18.5191 -4.69718 0)
(18.8319 -4.27588 1.21078e-18)
(19.1214 -3.83833 0)
(19.3868 -3.386 0)
(19.6275 -2.9201 2.85201e-18)
(19.8425 -2.44191 -1.28305e-18)
(20.0316 -1.95319 -3.11309e-19)
(20.1943 -1.45468 3.28266e-19)
(20.3301 -0.948092 0)
(20.4381 -0.434893 8.22572e-20)
(0.105738 -1.545 3.56925e-23)
(0.160657 -1.61806 0)
(0.227055 -1.72453 -2.28719e-21)
(0.3081 -1.85529 -5.76457e-22)
(0.40143 -2.00473 0)
(0.507807 -2.17293 5.63195e-20)
(0.628443 -2.36008 3.50844e-20)
(0.765186 -2.56494 0)
(0.919163 -2.78646 3.05949e-21)
(1.09131 -3.02287 6.47763e-20)
(1.28223 -3.27274 1.24309e-19)
(1.49227 -3.53398 -4.26781e-20)
(1.72178 -3.80461 0)
(1.97093 -4.08244 0)
(2.23988 -4.36532 2.73052e-19)
(2.52847 -4.65109 -1.6932e-19)
(2.83656 -4.93755 -1.79898e-19)
(3.16392 -5.22253 0)
(3.5102 -5.50382 6.75829e-19)
(3.875 -5.77932 -6.97682e-19)
(4.25773 -6.04703 -5.15501e-19)
(4.65777 -6.30498 -5.62226e-19)
(5.07427 -6.55127 0)
(5.50626 -6.78411 -9.91134e-19)
(5.95273 -7.0017 -3.46617e-19)
(6.41262 -7.20235 4.05332e-19)
(6.88468 -7.38447 4.44281e-19)
(7.36757 -7.54674 0)
(7.8599 -7.68799 0)
(8.36031 -7.8073 0)
(8.86746 -7.90369 0)
(9.38008 -7.97633 0)
(9.89694 -8.02433 0)
(10.4165 -8.04694 0)
(10.937 -8.04382 -1.93343e-18)
(11.4567 -8.01497 6.42006e-19)
(11.9735 -7.96081 -7.01402e-19)
(12.4862 -7.8813 3.52628e-18)
(12.9928 -7.77589 0)
(13.4925 -7.64414 1.48663e-18)
(13.9844 -7.48598 1.53165e-18)
(14.4669 -7.30198 7.57256e-19)
(14.9393 -7.09254 -8.63204e-19)
(15.3992 -6.85834 -1.65896e-18)
(15.8455 -6.60025 2.57703e-18)
(16.2766 -6.31912 -8.71716e-19)
(16.691 -6.01637 -1.77123e-18)
(17.0875 -5.69305 0)
(17.4649 -5.35007 0)
(17.8225 -4.98771 -4.79328e-19)
(18.1595 -4.60669 -4.67595e-19)
(18.4751 -4.20814 -9.5565e-19)
(18.7687 -3.79331 -9.98043e-19)
(19.0392 -3.36378 0)
(19.2862 -2.92036 -9.83218e-19)
(19.5087 -2.46483 -1.02252e-18)
(19.7064 -1.99788 0)
(19.8787 -1.52181 1.64644e-20)
(20.0248 -1.0368 0)
(20.1449 -0.544584 0)
(20.239 -0.0463616 -6.27932e-20)
(0.1165 -1.10791 3.57293e-23)
(0.182751 -1.22572 5.40233e-22)
(0.261525 -1.36689 -3.2197e-21)
(0.355808 -1.52785 -3.99515e-21)
(0.463945 -1.7064 0)
(0.586224 -1.90208 -2.34506e-20)
(0.72355 -2.11428 -3.0089e-20)
(0.87689 -2.3419 0)
(1.04722 -2.5836 3.69598e-21)
(1.2351 -2.83792 -5.51061e-20)
(1.44106 -3.10313 1.21596e-19)
(1.66523 -3.37738 1.42946e-19)
(1.90772 -3.65856 0)
(2.16863 -3.94459 -1.06276e-19)
(2.44807 -4.23348 -2.23742e-19)
(2.74571 -4.52322 -1.18094e-19)
(3.06138 -4.8118 4.43181e-19)
(3.39479 -5.09719 -3.17109e-19)
(3.74552 -5.37745 3.51276e-19)
(4.11318 -5.65062 5.90948e-19)
(4.4973 -5.91498 8.47926e-19)
(4.8971 -6.16881 4.73089e-19)
(5.31188 -6.4104 2.27592e-19)
(5.74066 -6.63813 8.1421e-19)
(6.18251 -6.85035 2.66896e-19)
(6.63638 -7.04553 3.00491e-19)
(7.10111 -7.2223 3.49156e-19)
(7.57557 -7.37951 -1.044e-18)
(8.05847 -7.51621 7.43998e-19)
(8.54846 -7.63146 8.32321e-19)
(9.04437 -7.72435 -1.69756e-18)
(9.54474 -7.7939 8.6496e-19)
(10.0482 -7.83926 -9.19198e-19)
(10.5538 -7.85984 4.57385e-19)
(11.0599 -7.85541 4.98984e-19)
(11.5656 -7.82649 5.48702e-19)
(12.0696 -7.77318 -5.42282e-19)
(12.5696 -7.69536 -5.87788e-19)
(13.0642 -7.5927 -1.75199e-18)
(13.5507 -7.46435 -1.25668e-18)
(14.0275 -7.31098 -2.53781e-18)
(14.4944 -7.13308 -3.274e-18)
(14.9497 -6.93053 1.33819e-18)
(15.3935 -6.70372 3.11196e-20)
(15.825 -6.45281 -7.45027e-19)
(16.2427 -6.17915 -7.28767e-19)
(16.6453 -5.88465 4.40329e-18)
(17.0306 -5.57058 -7.37607e-19)
(17.3971 -5.23769 0)
(17.744 -4.88616 0)
(18.0705 -4.51651 -7.34581e-19)
(18.3761 -4.12992 3.26431e-20)
(18.6605 -3.72754 7.84372e-19)
(18.9227 -3.31065 0)
(19.162 -2.88065 8.31909e-19)
(19.3777 -2.43887 0)
(19.5692 -1.98651 0)
(19.7361 -1.52447 6.30152e-19)
(19.8779 -1.05436 1.99915e-19)
(19.9944 -0.577627 -2.03601e-19)
(20.0855 -0.0957093 1.04019e-19)
(0.215035 -0.905626 6.75947e-23)
(0.291048 -1.04486 -4.69404e-22)
(0.38114 -1.20425 2.80038e-21)
(0.486865 -1.38181 4.00871e-21)
(0.607416 -1.57614 -7.95978e-21)
(0.743325 -1.78625 9.73728e-21)
(0.895029 -2.0112 3.02207e-21)
(1.06305 -2.24957 -2.31037e-20)
(1.24819 -2.50011 5.93559e-20)
(1.45044 -2.7613 -8.43382e-20)
(1.67018 -3.03145 9.30538e-20)
(1.90709 -3.30872 -1.11774e-19)
(2.16129 -3.59105 -6.31717e-20)
(2.43259 -3.87646 0)
(2.72122 -4.16298 1.07946e-19)
(3.0266 -4.44896 1.03678e-19)
(3.34854 -4.73245 0)
(3.68678 -5.01158 2.5034e-19)
(4.04073 -5.28457 0)
(4.41017 -5.54957 -3.22629e-19)
(4.79466 -5.80509 3.47861e-19)
(5.19337 -6.04965 1.06212e-20)
(5.60569 -6.28164 -1.9135e-20)
(6.03053 -6.49968 3.11092e-20)
(6.46704 -6.70215 -9.47724e-19)
(6.91426 -6.8877 -5.36674e-19)
(7.37106 -7.05514 1.10135e-18)
(7.83659 -7.20333 1.18508e-18)
(8.30963 -7.33145 -6.38093e-19)
(8.78909 -7.43851 0)
(9.27365 -7.5236 0)
(9.76169 -7.58618 0)
(10.2519 -7.62552 7.89859e-19)
(10.7427 -7.64108 -3.24491e-18)
(11.2335 -7.63298 1.69202e-18)
(11.7236 -7.60063 -8.59147e-19)
(12.2124 -7.54369 -1.83814e-18)
(12.6991 -7.46215 1.86193e-18)
(13.1801 -7.35549 4.13921e-20)
(13.6537 -7.22522 -1.03763e-18)
(14.1175 -7.0726 1.07023e-18)
(14.5685 -6.89805 1.10167e-18)
(15.0073 -6.70088 0)
(15.4332 -6.47911 -1.10903e-18)
(15.8467 -6.23269 0)
(16.2484 -5.96314 -1.76465e-18)
(16.6363 -5.67319 5.45261e-19)
(17.0086 -5.36479 0)
(17.3627 -5.03851 -6.36603e-19)
(17.6969 -4.69469 -1.3063e-20)
(18.0109 -4.33347 1.3508e-18)
(18.3044 -3.95588 -6.40683e-19)
(18.577 -3.56314 -3.53979e-19)
(18.8283 -3.15644 6.50453e-19)
(19.0573 -2.73722 -4.07868e-21)
(19.2635 -2.3065 3.37826e-19)
(19.4459 -1.86562 1.62896e-19)
(19.6044 -1.4155 3.4275e-19)
(19.7386 -0.95739 -8.59727e-19)
(19.8483 -0.492804 3.4464e-19)
(19.9333 -0.0232988 -4.40264e-20)
(0.326505 -0.814413 -1.09927e-22)
(0.418214 -0.967598 0)
(0.524372 -1.13904 -2.43077e-21)
(0.646346 -1.32755 0)
(0.783059 -1.53171 3.35516e-21)
(0.935341 -1.75011 1.67959e-20)
(1.10325 -1.98171 1.57962e-20)
(1.28712 -2.22487 4.35375e-20)
(1.48777 -2.47831 4.63611e-21)
(1.70458 -2.74071 7.10942e-21)
(1.93809 -3.01028 1.49792e-21)
(2.18735 -3.28547 -4.32571e-20)
(2.45269 -3.56418 6.03811e-20)
(2.73327 -3.84444 -1.83316e-19)
(3.03012 -4.12438 1.51524e-19)
(3.34223 -4.40288 -9.77016e-21)
(3.66917 -4.67779 -1.82882e-19)
(4.01105 -4.94748 -2.16303e-19)
(4.36687 -5.21037 0)
(4.73667 -5.46451 2.52142e-19)
(5.12032 -5.70876 8.58855e-21)
(5.51651 -5.94193 -6.3808e-19)
(5.92517 -6.16236 -2.51792e-20)
(6.34479 -6.36914 -3.41042e-19)
(6.77461 -6.56048 1.18905e-18)
(7.21388 -6.73523 3.67005e-20)
(7.66136 -6.89228 -4.37855e-19)
(8.11658 -7.03035 -4.54949e-20)
(8.57837 -7.14889 0)
(9.04547 -7.24677 0)
(9.5174 -7.32338 0)
(9.99231 -7.37851 0)
(10.4686 -7.41154 0)
(10.9454 -7.42227 6.14712e-20)
(11.4204 -7.41021 -7.2312e-19)
(11.893 -7.37482 -3.80644e-20)
(12.3639 -7.31432 3.6562e-20)
(12.8311 -7.22859 7.36093e-19)
(13.2959 -7.11863 1.6837e-18)
(13.7551 -6.98551 -2.53696e-18)
(14.2054 -6.83295 1.75944e-18)
(14.6448 -6.66164 -8.85958e-19)
(15.0678 -6.46926 0)
(15.476 -6.2535 9.69758e-19)
(15.8709 -6.01272 0)
(16.2531 -5.74916 1.01669e-18)
(16.6248 -5.46564 -1.03991e-18)
(16.9821 -5.16409 4.88137e-19)
(17.3226 -4.8454 5.21047e-19)
(17.6439 -4.50985 -5.40764e-19)
(17.9448 -4.15776 4.00725e-20)
(18.2257 -3.7902 -9.24988e-21)
(18.4862 -3.40796 1.09441e-18)
(18.7262 -3.01255 -1.12308e-18)
(18.9448 -2.60519 -5.53038e-19)
(19.1411 -2.18721 -2.70611e-19)
(19.3144 -1.75941 -8.58495e-19)
(19.4644 -1.32265 0)
(19.591 -0.878087 5.77677e-19)
(19.6941 -0.427544 -1.4806e-19)
(19.7733 0.0277307 0)
(0.457444 -0.787623 0)
(0.567164 -0.950597 0)
(0.691176 -1.13055 7.71265e-22)
(0.831708 -1.32661 -3.71372e-21)
(0.985871 -1.53712 -4.95431e-21)
(1.15578 -1.76016 -2.5846e-20)
(1.34067 -1.99469 1.21203e-20)
(1.54033 -2.23876 -3.25886e-20)
(1.75702 -2.49141 -1.6072e-21)
(1.98793 -2.75142 7.41485e-20)
(2.23533 -3.01709 -1.28497e-19)
(2.49627 -3.2872 0)
(2.77242 -3.55938 0)
(3.06099 -3.83193 2.09055e-19)
(3.36561 -4.10242 1.29706e-19)
(3.68362 -4.37116 -2.82563e-19)
(4.01439 -4.63539 4.53601e-19)
(4.35927 -4.89362 1.85009e-19)
(4.7158 -5.14491 -3.69621e-19)
(5.08473 -5.38656 -2.19887e-19)
(5.46701 -5.6178 2.48935e-19)
(5.85943 -5.83835 -6.58368e-21)
(6.26388 -6.04577 0)
(6.67723 -6.24047 6.26779e-19)
(7.09929 -6.41987 -1.0225e-18)
(7.52999 -6.58281 3.40048e-19)
(7.96687 -6.72877 7.43334e-19)
(8.41119 -6.85565 -2.0499e-18)
(8.86064 -6.96389 4.16561e-19)
(9.31398 -7.05243 0)
(9.77184 -7.1198 0)
(10.232 -7.16716 0)
(10.6941 -7.19301 5.55314e-19)
(11.157 -7.19645 1.71422e-18)
(11.6181 -7.17942 -1.15416e-18)
(12.0738 -7.14045 6.29683e-19)
(12.524 -7.07696 6.89232e-19)
(12.9702 -6.99051 -1.36398e-18)
(13.4115 -6.87811 0)
(13.8516 -6.74312 -1.39714e-18)
(14.2893 -6.58948 7.26956e-19)
(14.7157 -6.4175 3.29987e-20)
(15.1274 -6.22804 -2.69321e-20)
(15.5202 -6.01525 7.86204e-19)
(15.8951 -5.77992 3.09484e-20)
(16.2581 -5.52448 -2.47996e-18)
(16.6097 -5.24881 8.40477e-19)
(16.9498 -4.9559 -1.74708e-18)
(17.2753 -4.64512 0)
(17.5821 -4.31822 0)
(17.8696 -3.97514 1.83477e-18)
(18.1368 -3.61789 -4.37965e-19)
(18.3844 -3.24649 -9.46673e-19)
(18.6126 -2.86224 -4.53092e-19)
(18.8201 -2.46726 1.44584e-18)
(19.006 -2.06248 7.26928e-19)
(19.1694 -1.64825 2.5052e-19)
(19.31 -1.22568 -5.01348e-21)
(19.4284 -0.795011 -2.50388e-19)
(19.5245 -0.358646 0)
(19.5975 0.0816364 0)
(0.606303 -0.801255 2.30395e-22)
(0.736589 -0.970852 0)
(0.879048 -1.15627 0)
(1.0407 -1.35742 1.17745e-21)
(1.21242 -1.5718 0)
(1.40076 -1.79664 1.32989e-20)
(1.60265 -2.03133 1.13895e-20)
(1.81681 -2.27335 -2.31638e-20)
(2.05074 -2.52251 0)
(2.29428 -2.77779 -4.41591e-20)
(2.55658 -3.03731 4.64944e-21)
(2.82756 -3.3007 0)
(3.11537 -3.56474 0)
(3.40893 -3.82828 -8.83496e-20)
(3.72169 -4.08646 9.51937e-20)
(4.04542 -4.34436 -1.16248e-19)
(4.37819 -4.59676 -1.31528e-19)
(4.72613 -4.84211 0)
(5.08206 -5.08164 1.64893e-19)
(5.44857 -5.30963 -3.44964e-19)
(5.83029 -5.52655 -3.81826e-19)
(6.21667 -5.73431 -4.41899e-19)
(6.61724 -5.92732 -3.60573e-20)
(7.02337 -6.11018 -5.46328e-19)
(7.43666 -6.27718 5.26899e-19)
(7.85888 -6.42752 5.80299e-19)
(8.28321 -6.5624 -6.54813e-19)
(8.71644 -6.67664 3.5181e-20)
(9.15391 -6.77455 4.42511e-20)
(9.59157 -6.85386 -7.41966e-19)
(10.0349 -6.91158 0)
(10.4784 -6.95155 -8.88513e-19)
(10.9228 -6.96866 1.76165e-18)
(11.3711 -6.9632 -4.73521e-20)
(11.8185 -6.93967 1.02123e-18)
(12.2577 -6.89797 -1.01282e-18)
(12.6929 -6.83207 1.09849e-18)
(13.1161 -6.74528 1.13686e-18)
(13.532 -6.63473 -2.25262e-18)
(13.9486 -6.49823 1.24102e-18)
(14.3641 -6.34212 1.22076e-18)
(14.7779 -6.16964 1.92951e-18)
(15.1756 -5.97878 -6.79865e-19)
(15.555 -5.76558 0)
(15.9158 -5.53571 3.216e-20)
(16.2567 -5.29035 7.2408e-19)
(16.5884 -5.02527 -7.02874e-19)
(16.9079 -4.74271 7.5829e-19)
(17.2165 -4.43906 0)
(17.5075 -4.1218 0)
(17.7801 -3.7881 -4.13749e-20)
(18.0327 -3.44255 8.08453e-19)
(18.2662 -3.08126 0)
(18.4818 -2.70787 4.00245e-19)
(18.6781 -2.32647 4.02868e-19)
(18.8529 -1.93596 -8.17906e-19)
(19.006 -1.53596 -4.00407e-19)
(19.1359 -1.12866 -2.12367e-19)
(19.2449 -0.7115 0)
(19.3338 -0.290518 0)
(19.4002 0.133283 2.52994e-20)
(0.773844 -0.838665 -7.01585e-22)
(0.930329 -1.01137 9.0041e-22)
(1.08949 -1.19764 -4.38057e-23)
(1.27852 -1.40213 1.42101e-21)
(1.46307 -1.6174 -4.85123e-21)
(1.66948 -1.84391 2.30079e-21)
(1.88886 -2.07504 0)
(2.11313 -2.31119 1.78506e-21)
(2.3697 -2.55558 -2.48231e-20)
(2.61979 -2.80316 0)
(2.90279 -3.05587 8.70585e-20)
(3.17639 -3.31248 -5.2333e-20)
(3.47947 -3.56888 5.30008e-20)
(3.77067 -3.82386 6.52446e-20)
(4.09426 -4.06434 -8.2285e-20)
(4.42352 -4.31281 -9.78773e-20)
(4.75404 -4.55335 3.1943e-19)
(5.10928 -4.78278 -3.30165e-19)
(5.45814 -5.01349 0)
(5.81739 -5.2292 -9.39503e-21)
(6.20526 -5.43084 9.41314e-19)
(6.57763 -5.62825 -3.24193e-20)
(6.98203 -5.80203 -4.32011e-19)
(7.37486 -5.9759 8.3071e-19)
(7.77757 -6.13244 0)
(8.19464 -6.27042 -5.01276e-19)
(8.59949 -6.39569 -5.10042e-19)
(9.02339 -6.49567 1.12153e-18)
(9.45069 -6.58368 -4.59728e-21)
(9.86998 -6.65509 6.54446e-19)
(10.3022 -6.70045 -1.33036e-18)
(10.7244 -6.73547 2.1049e-18)
(11.1466 -6.74655 -1.50733e-18)
(11.5766 -6.73247 -1.57529e-18)
(12.0104 -6.70216 0)
(12.4294 -6.65763 8.87578e-19)
(12.8593 -6.58206 0)
(13.2664 -6.49824 -8.45197e-21)
(13.658 -6.39033 1.02379e-18)
(14.0482 -6.25087 -1.90335e-18)
(14.4344 -6.09706 -8.26752e-21)
(14.8258 -5.92565 -2.13583e-18)
(15.2011 -5.73477 0)
(15.5708 -5.51848 -5.98289e-19)
(15.9221 -5.29041 2.30753e-18)
(16.2435 -5.06109 -5.84597e-19)
(16.5579 -4.80847 6.12751e-19)
(16.8512 -4.53487 0)
(17.1423 -4.23626 6.29687e-19)
(17.4152 -3.92717 -1.90066e-18)
(17.6743 -3.6006 -2.56121e-20)
(17.9105 -3.26741 0)
(18.1262 -2.91911 6.48603e-19)
(18.3297 -2.55712 -1.94948e-20)
(18.516 -2.1869 0)
(18.677 -1.80879 3.62883e-19)
(18.8213 -1.43115 -3.29349e-19)
(18.9381 -1.04101 3.45118e-19)
(19.0359 -0.638727 3.41153e-19)
(19.1205 -0.229611 -1.71347e-19)
(19.1772 0.17861 -6.46588e-20)
(20.7502 0.855327 1.52065e-19)
(20.7915 1.38758 -5.15472e-20)
(20.8055 1.92129 0)
(20.7916 2.45496 0)
(20.7503 2.98683 8.14632e-19)
(20.6817 3.51555 1.17085e-18)
(20.5857 4.0395 -1.20278e-18)
(20.4627 4.55739 -3.95425e-19)
(20.3128 5.06846 3.95538e-19)
(20.1369 5.57116 7.71438e-19)
(19.9353 6.06483 -7.72207e-19)
(19.7083 6.54775 -7.48291e-19)
(19.4577 7.01832 3.72035e-18)
(19.1844 7.47551 7.21655e-19)
(18.8885 7.91822 -6.36489e-18)
(18.5708 8.34501 0)
(18.2321 8.755 0)
(17.8737 9.14726 6.58049e-19)
(17.4965 9.52128 1.94159e-18)
(17.1013 9.87574 -4.9832e-18)
(16.6895 10.21 -7.33189e-20)
(16.2619 10.5238 1.13863e-18)
(15.8198 10.8159 1.16961e-18)
(15.3642 11.0861 -4.3486e-18)
(14.8963 11.3344 0)
(14.4166 11.5606 2.03255e-18)
(13.9266 11.7626 -1.8774e-18)
(13.4283 11.94 0)
(12.9228 12.0927 0)
(12.4117 12.2203 -8.53678e-19)
(11.8963 12.3229 -1.55138e-18)
(11.3777 12.4003 2.20282e-18)
(10.8575 12.4525 0)
(10.3367 12.4797 0)
(9.8168 12.4817 1.08872e-18)
(9.29893 12.459 -1.02784e-18)
(8.78443 12.4116 0)
(8.27456 12.34 1.58058e-18)
(7.77034 12.2445 3.21126e-19)
(7.27303 12.1255 -8.78462e-19)
(6.7838 11.9834 3.35839e-20)
(6.30405 11.8189 3.36541e-19)
(5.83455 11.6327 -3.0705e-19)
(5.37647 11.4253 5.07028e-20)
(4.93098 11.1975 0)
(4.49876 10.9501 0)
(4.08085 10.6838 -3.30821e-19)
(3.67814 10.3994 -5.99809e-20)
(3.29162 10.098 2.88097e-19)
(2.92196 9.78073 1.14135e-19)
(2.56975 9.44838 1.6482e-19)
(2.2358 9.10187 -1.66998e-19)
(1.92082 8.74249 -1.07591e-19)
(1.62511 8.37145 1.09076e-19)
(1.34934 7.98969 -6.38751e-19)
(1.09389 7.59866 6.90746e-19)
(0.859155 7.19951 -1.01305e-21)
(0.645408 6.79378 0)
(0.452801 6.38252 1.72242e-19)
(0.281651 5.96684 2.32374e-20)
(0.132015 5.54792 2.44545e-20)
(20.5181 0.0824122 -8.22014e-20)
(20.5708 0.601805 0)
(20.5965 1.12342 0)
(20.5949 1.64585 9.3943e-19)
(20.5662 2.16721 -6.27374e-19)
(20.5107 2.6858 -2.20738e-18)
(20.4282 3.20128 0)
(20.3188 3.71131 0)
(20.1827 4.21544 -1.19542e-18)
(20.0206 4.7116 0)
(19.8329 5.19847 -1.74588e-18)
(19.6207 5.67405 1.15707e-18)
(19.3853 6.13789 -5.7411e-19)
(19.1268 6.58956 0)
(18.8456 7.02803 2.26161e-18)
(18.5423 7.45189 1.05643e-18)
(18.2179 7.85999 -1.05896e-18)
(17.8734 8.25121 1.00347e-18)
(17.5096 8.62492 -2.9642e-18)
(17.1276 8.97999 1.9922e-18)
(16.7288 9.31532 -1.93111e-18)
(16.3138 9.63049 -9.83923e-19)
(15.884 9.92433 -8.87665e-19)
(15.4404 10.1962 2.568e-18)
(14.984 10.4456 8.21641e-19)
(14.5158 10.6729 7.47643e-19)
(14.0376 10.8772 -6.74897e-19)
(13.5507 11.0576 0)
(13.0561 11.2138 0)
(12.5554 11.3452 0)
(12.0497 11.4519 0)
(11.5403 11.5337 0)
(11.0288 11.5905 0)
(10.5162 11.6223 0)
(10.0041 11.6292 -4.52671e-19)
(9.49344 11.6112 3.99833e-19)
(8.98577 11.5684 3.12814e-19)
(8.48222 11.5013 -1.51109e-18)
(7.9839 11.4102 -2.27997e-19)
(7.49213 11.2953 6.77236e-19)
(7.00812 11.1572 3.59257e-19)
(6.53321 10.9964 -2.71418e-19)
(6.06827 10.8135 9.25402e-20)
(5.61461 10.6089 5.75832e-20)
(5.17332 10.3835 2.8246e-20)
(4.74517 10.138 -2.85696e-20)
(4.33123 9.87306 1.65771e-19)
(3.93244 9.58949 0)
(3.54983 9.2883 9.77826e-20)
(3.18416 8.97048 -2.17201e-19)
(2.83607 8.63693 1.19715e-19)
(2.50645 8.28855 0)
(2.19611 7.92649 -3.37785e-19)
(1.90529 7.55193 0)
(1.63486 7.16583 0)
(1.38506 6.76962 -1.01755e-18)
(1.15649 6.36451 4.87578e-19)
(0.949321 5.95197 1.33368e-19)
(0.764115 5.533 -1.39393e-19)
(0.601148 5.1089 0)
(0.460646 4.68089 -3.89481e-20)
(20.3072 0.454951 6.27409e-20)
(20.3484 0.957832 0)
(20.3625 1.46129 -2.49496e-19)
(20.3502 1.96454 -1.64129e-20)
(20.312 2.46651 0)
(20.2475 2.96733 1.99281e-18)
(20.1567 3.46534 9.70588e-19)
(20.0396 3.95872 0)
(19.8966 4.44483 3.17978e-20)
(19.7291 4.92264 9.35093e-19)
(19.5377 5.39073 1.41777e-18)
(19.3228 5.84721 -4.65997e-19)
(19.0846 6.29149 0)
(18.8238 6.72308 0)
(18.5414 7.14108 1.7068e-18)
(18.2381 7.54441 -8.39943e-19)
(17.9147 7.93203 -7.85719e-19)
(17.5722 8.303 0)
(17.2115 8.65657 2.36698e-18)
(16.8335 8.99181 -2.26852e-18)
(16.4396 9.30785 -1.44544e-18)
(16.0306 9.60402 -1.3958e-18)
(15.6078 9.87942 0)
(15.1721 10.1334 -1.98631e-18)
(14.7247 10.3652 -6.47152e-19)
(14.2669 10.5743 5.87816e-19)
(13.7999 10.7605 5.77002e-19)
(13.3249 10.9236 0)
(12.8429 11.0632 0)
(12.3554 11.1789 0)
(11.8635 11.2706 0)
(11.3685 11.3383 0)
(10.8716 11.3819 0)
(10.3743 11.4014 0)
(9.87777 11.3968 -9.67643e-19)
(9.38318 11.3682 3.08766e-19)
(8.89177 11.3159 -2.40199e-19)
(8.4047 11.2399 1.13687e-18)
(7.92308 11.1409 0)
(7.44812 11.0191 3.02827e-19)
(6.98101 10.875 2.3644e-19)
(6.52294 10.7091 9.74085e-20)
(6.07492 10.522 -4.57504e-20)
(5.63808 10.3142 -3.78234e-20)
(5.21344 10.0864 -5.49742e-20)
(4.80187 9.83919 2.73622e-20)
(4.40422 9.57343 1.58036e-19)
(4.02144 9.28989 0)
(3.65442 8.98955 0)
(3.30399 8.67324 9.38848e-20)
(2.97084 8.34191 1.10053e-19)
(2.65563 7.99651 2.35458e-19)
(2.35911 7.63799 2.66072e-19)
(2.08167 7.26751 0)
(1.824 6.88594 3.23019e-19)
(1.58629 6.49476 3.53817e-19)
(1.36904 6.09505 0)
(1.17259 5.68831 -2.08372e-21)
(0.997463 5.27547 0)
(0.843869 4.85785 0)
(0.712081 4.43654 2.9861e-20)
(20.1511 0.390624 -1.03913e-19)
(20.1909 0.880014 2.02927e-19)
(20.2046 1.37073 -3.99278e-19)
(20.1922 1.86145 -2.14347e-19)
(20.153 2.35118 0)
(20.0873 2.83932 -8.28316e-19)
(19.9966 3.32384 -8.20034e-19)
(19.8818 3.80489 0)
(19.7426 4.27926 3.38352e-20)
(19.579 4.74586 -7.8892e-19)
(19.3917 5.20346 1.48745e-18)
(19.1811 5.65122 1.46204e-18)
(18.9478 6.08751 0)
(18.6925 6.51122 -7.09593e-19)
(18.4161 6.92137 -1.40838e-18)
(18.1193 7.31681 -6.94173e-19)
(17.8029 7.69667 2.02705e-18)
(17.4678 8.0601 -1.30055e-18)
(17.115 8.40635 1.26314e-18)
(16.7454 8.73463 1.82946e-18)
(16.3603 9.04413 2.37153e-18)
(15.9605 9.33412 1.17003e-18)
(15.5473 9.60378 5.37906e-19)
(15.1216 9.85246 1.62118e-18)
(14.6844 10.0796 4.95266e-19)
(14.237 10.2847 4.94619e-19)
(13.7806 10.4675 4.45324e-19)
(13.3162 10.6276 -1.29538e-18)
(12.8452 10.7646 7.99634e-19)
(12.3688 10.8783 7.41664e-19)
(11.8882 10.9686 -1.43601e-18)
(11.4045 11.0353 6.94246e-19)
(10.919 11.0785 -5.98393e-19)
(10.4331 11.0983 2.79777e-19)
(9.94807 11.0945 2.68558e-19)
(9.46497 11.0672 2.13629e-19)
(8.98503 11.0166 -2.15076e-19)
(8.50929 10.943 -2.00355e-19)
(8.03888 10.8469 -4.43992e-19)
(7.57501 10.7285 -2.50164e-19)
(7.11883 10.5884 -3.71595e-19)
(6.67142 10.427 -3.15802e-19)
(6.23394 10.245 7.81593e-20)
(5.80742 10.0429 6.42678e-21)
(5.39285 9.82117 2.18782e-20)
(4.99113 9.58052 5.34763e-20)
(4.60294 9.32172 -4.00652e-19)
(4.22928 9.04558 8.00563e-20)
(3.87094 8.75308 0)
(3.52884 8.44498 0)
(3.20355 8.12216 1.69135e-19)
(2.89585 7.7857 1.46226e-22)
(2.60636 7.43644 -2.15312e-19)
(2.3355 7.07541 0)
(2.08386 6.70345 -2.6225e-19)
(1.85158 6.32203 0)
(1.6392 5.93228 0)
(1.44689 5.53553 -2.46546e-19)
(1.27548 5.13291 -8.71035e-20)
(1.1249 4.7256 9.03525e-20)
(0.995763 4.31478 -4.77504e-20)
(19.9932 0.450186 1.8811e-21)
(20.028 0.926572 -1.75571e-19)
(20.0375 1.40457 5.13937e-19)
(20.0217 1.88275 3.40363e-19)
(19.9807 2.35983 -5.00773e-19)
(19.9151 2.83381 3.34366e-19)
(19.8248 3.30267 -3.08951e-21)
(19.7099 3.76629 -6.45594e-19)
(19.5715 4.22439 9.8017e-19)
(19.4098 4.6752 -1.27602e-18)
(19.2253 5.11757 1.19895e-18)
(19.0183 5.55026 -1.27415e-18)
(18.7894 5.97206 -6.11213e-19)
(18.5394 6.38197 0)
(18.2689 6.77876 6.26191e-19)
(17.9788 7.16127 5.33306e-19)
(17.6697 7.5288 0)
(17.3424 7.88041 1.04796e-18)
(16.9979 8.21544 0)
(16.6373 8.53316 -1.03291e-18)
(16.2616 8.83273 9.08797e-19)
(15.8719 9.11341 -4.07377e-20)
(15.4693 9.37434 -4.43538e-20)
(15.0546 9.61481 6.23261e-22)
(14.6289 9.83442 -1.69843e-18)
(14.1933 10.0327 -7.68271e-19)
(13.7489 10.2093 1.49918e-18)
(13.2968 10.364 1.37981e-18)
(12.8385 10.4964 -6.86552e-19)
(12.3748 10.6062 0)
(11.9071 10.6931 0)
(11.4364 10.7573 0)
(10.964 10.7988 5.12714e-19)
(10.4912 10.8176 -1.77869e-18)
(10.0193 10.8135 8.19341e-19)
(9.54942 10.7866 -3.88675e-19)
(9.08255 10.7371 -6.06904e-19)
(8.61977 10.6652 5.64879e-19)
(8.16206 10.5715 2.00777e-20)
(7.71071 10.4562 -1.63675e-19)
(7.26681 10.3198 1.81776e-19)
(6.8314 10.163 1.05119e-19)
(6.40569 9.98621 0)
(5.99069 9.78995 -2.92671e-21)
(5.58734 9.57479 0)
(5.19659 9.34111 1.3206e-19)
(4.81888 9.08988 -5.75914e-20)
(4.45521 8.82183 0)
(4.10622 8.53797 1.12018e-19)
(3.77318 8.23899 1.90924e-20)
(3.45635 7.92564 -2.83262e-19)
(3.15652 7.59907 1.62215e-19)
(2.87448 7.26006 1.03968e-19)
(2.61038 6.9096 -1.91886e-19)
(2.36509 6.54845 7.78422e-21)
(2.13813 6.17792 -1.14396e-19)
(1.93052 5.79924 -6.11433e-20)
(1.7421 5.41375 -1.34895e-19)
(1.57404 5.02255 3.56017e-19)
(1.42592 4.62681 -1.50665e-19)
(1.29889 4.22762 1.9872e-20)
(19.8283 0.4866 3.70051e-20)
(19.8589 0.947955 0)
(19.8651 1.41059 -5.75112e-19)
(19.8469 1.87337 0)
(19.8044 2.33491 2.85569e-19)
(19.738 2.79382 8.33051e-19)
(19.6477 3.2492 5.44544e-19)
(19.5338 3.69926 1.10257e-18)
(19.3969 4.14334 9.11027e-21)
(19.2376 4.58038 -7.75423e-21)
(19.0564 5.00884 -6.03836e-20)
(18.8534 5.42777 -5.21658e-19)
(18.6293 5.83608 5.01904e-19)
(18.3848 6.23288 -1.471e-18)
(18.1208 6.617 9.96169e-19)
(17.8378 6.9872 -4.7835e-20)
(17.5363 7.34276 -9.00069e-19)
(17.2173 7.68281 -9.20569e-19)
(16.8815 8.00686 0)
(16.5301 8.31436 8.20807e-19)
(16.1642 8.60434 -3.78077e-20)
(15.785 8.87608 -1.60834e-18)
(15.3935 9.12867 -4.72581e-21)
(14.9905 9.36124 -6.6356e-19)
(14.5767 9.57362 2.0142e-18)
(14.1534 9.76535 -3.54779e-20)
(13.7215 9.93614 -6.40752e-19)
(13.2822 10.0859 -6.81198e-20)
(12.8371 10.214 0)
(12.3869 10.3203 0)
(11.9328 10.4043 0)
(11.4755 10.4665 0)
(11.0168 10.5067 0)
(10.5575 10.5252 5.13923e-20)
(10.0996 10.5215 -3.15191e-19)
(9.64339 10.4956 3.92426e-20)
(9.19022 10.4478 5.1275e-20)
(8.74097 10.3781 1.92423e-19)
(8.29642 10.2872 3.58318e-19)
(7.85799 10.1757 -4.31047e-19)
(7.42681 10.0437 2.44635e-19)
(7.0037 9.89196 -6.42804e-20)
(6.59011 9.72105 0)
(6.18699 9.53141 2.55345e-21)
(5.79521 9.32366 0)
(5.41596 9.09771 -7.20147e-20)
(5.04891 8.85484 1.08644e-19)
(4.69568 8.59569 -6.85195e-20)
(4.35627 8.32147 -8.29491e-20)
(4.03262 8.03253 1.16307e-19)
(3.72449 7.72956 1.76613e-20)
(3.43272 7.4139 1.48842e-20)
(3.15835 7.08604 -3.08162e-19)
(2.90117 6.74714 3.46782e-19)
(2.66242 6.39753 1.88047e-19)
(2.44085 6.03885 9.78942e-20)
(2.23822 5.67209 3.23393e-19)
(2.05334 5.29879 0)
(1.88855 4.91991 -2.44622e-19)
(1.74266 4.5367 6.47188e-20)
(1.61761 4.15002 0)
(19.6472 0.525337 0)
(19.6734 0.971232 0)
(19.676 1.41834 2.49625e-19)
(19.6551 1.86531 -4.77197e-19)
(19.611 2.31108 -2.45536e-19)
(19.5439 2.75452 -1.19064e-18)
(19.454 3.19402 4.58585e-19)
(19.3411 3.62837 -9.47287e-19)
(19.206 4.05733 1.57687e-20)
(19.0494 4.47966 1.33839e-18)
(18.8719 4.89343 -1.78332e-18)
(18.6735 5.29782 0)
(18.4546 5.69166 0)
(18.2159 6.07484 1.68073e-18)
(17.9587 6.44587 8.10127e-19)
(17.6835 6.80283 -1.64323e-18)
(17.3903 7.14567 2.34922e-18)
(17.08 7.47345 7.44762e-19)
(16.7533 7.78584 -1.45949e-18)
(16.4114 8.08267 -7.30742e-19)
(16.056 8.36246 6.71805e-19)
(15.6878 8.6249 -6.99419e-20)
(15.3081 8.86889 0)
(14.9176 9.09291 1.25105e-18)
(14.5163 9.2976 -1.75906e-18)
(14.1058 9.48242 5.66098e-19)
(13.6871 9.64692 1.01329e-18)
(13.2612 9.79151 -2.45127e-18)
(12.8301 9.91508 4.78982e-19)
(12.3941 10.0179 0)
(11.9546 10.0986 0)
(11.5115 10.1589 0)
(11.0673 10.1977 3.22734e-19)
(10.6223 10.2165 9.08071e-19)
(10.1794 10.2134 -5.30025e-19)
(9.73791 10.1888 2.27062e-19)
(9.29938 10.143 2.15069e-19)
(8.86484 10.0755 -3.77419e-19)
(8.43416 9.98775 0)
(8.00933 9.88017 -1.89869e-19)
(7.59174 9.75269 9.89294e-20)
(7.18136 9.60635 1.30225e-20)
(6.78029 9.44167 1.01205e-20)
(6.38968 9.25911 2.72954e-21)
(6.00984 9.05957 -1.08591e-20)
(5.64322 8.84168 2.30237e-19)
(5.28719 8.60793 -9.1275e-20)
(4.94525 8.35814 2.73172e-19)
(4.61546 8.09448 0)
(4.3022 7.81653 0)
(4.00327 7.52462 -4.48324e-19)
(3.71971 7.22077 1.20383e-19)
(3.45393 6.905 2.73151e-19)
(3.20375 6.57858 1.58128e-19)
(2.97268 6.24118 -4.97864e-19)
(2.75637 5.89503 -2.75727e-19)
(2.55931 5.54076 -1.00712e-19)
(2.37758 5.1806 -1.87805e-21)
(2.21678 4.81496 1.07394e-19)
(2.07268 4.44511 0)
(1.95006 4.0717 0)
(19.4443 0.560665 -2.5288e-20)
(19.4653 0.990063 0)
(19.4641 1.42073 0)
(19.4402 1.85129 2.1178e-19)
(19.3941 2.28038 0)
(19.3265 2.70744 8.12121e-19)
(19.2378 3.13037 3.99052e-19)
(19.1262 3.54783 -7.83726e-19)
(18.9924 3.96153 0)
(18.839 4.36939 -7.92959e-19)
(18.6667 4.76685 4.36495e-20)
(18.4733 5.15599 0)
(18.2604 5.53416 0)
(18.0278 5.90284 -7.34801e-19)
(17.7777 6.26095 6.77216e-19)
(17.5118 6.60347 -7.00436e-19)
(17.2275 6.93292 -6.81715e-19)
(16.9264 7.24812 0)
(16.6095 7.5477 6.41826e-19)
(16.2776 7.8334 -1.16761e-18)
(15.9335 8.10211 -1.12563e-18)
(15.577 8.35486 -1.15383e-18)
(15.2094 8.59054 -8.01016e-21)
(14.8331 8.80485 -9.44195e-19)
(14.4447 9.0014 1.00383e-18)
(14.0472 9.17926 9.0028e-19)
(13.643 9.33649 -9.11448e-19)
(13.2306 9.47599 5.77218e-20)
(12.8145 9.59424 -3.04019e-22)
(12.3926 9.69448 -7.54012e-19)
(11.9695 9.77062 0)
(11.5403 9.82987 -5.90695e-19)
(11.1124 9.86647 1.13529e-18)
(10.6814 9.88666 -4.40702e-20)
(10.2556 9.8846 4.77001e-19)
(9.83006 9.8614 -3.81485e-19)
(9.40731 9.81802 3.16292e-19)
(8.98953 9.75245 2.14638e-19)
(8.57345 9.66808 -4.79736e-19)
(8.16278 9.56479 1.92818e-19)
(7.76045 9.44204 1.08401e-19)
(7.36263 9.30119 9.40239e-20)
(6.97417 9.14279 -1.15357e-20)