/*--------------------------------*- C++ -*----------------------------------*\
| =========                 |                                                 |
| \\      /  F ield         | OpenFOAM: The Open Source CFD Toolbox           |
|  \\    /   O peration     | Version:  2.3.1                                 |
|   \\  /    A nd           | Web:      www.OpenFOAM.org                      |
|    \\/     M anipulation  |                                                 |
\*---------------------------------------------------------------------------*/
FoamFile
{
    version     2.0;
    format      ascii;
    class       surfaceScalarField;
    location    "0.38";
    object      phi;
}
// * * * * * * * * * * * * * * * * * * * * * * * * * * * * * * * * * * * * * //

dimensions      [0 3 -1 0 0 0 0];

internalField   nonuniform List<scalar> 
23326
(
-1.24136e-05
0.000111487
-9.90738e-05
-2.13186e-05
0.000126938
-0.000118033
-2.69485e-05
0.000141332
-0.000135702
-3.05873e-05
0.000156896
-0.000153258
-3.37026e-05
0.000169523
-0.000166408
-3.5904e-05
0.00018183
-0.000179629
-3.74128e-05
0.000192433
-0.000190924
-3.81819e-05
0.0002011
-0.00020033
-3.85724e-05
0.000207659
-0.000207268
-3.86299e-05
0.000212722
-0.000212665
-3.85391e-05
0.000216507
-0.000216598
0.000219251
-3.83742e-05
-0.000219416
-6.91309e-06
0.000118401
-1.36677e-05
0.000133693
-1.97007e-05
0.000147365
-2.41798e-05
0.000161375
-2.7854e-05
0.000173198
-3.0567e-05
0.000184543
-3.24652e-05
0.000194331
-3.37188e-05
0.000202353
-3.45065e-05
0.000208447
-3.49604e-05
0.000213176
-3.51802e-05
0.000216727
0.000219344
-3.52732e-05
-5.58163e-06
0.000123982
-1.08785e-05
0.00013899
-1.58829e-05
0.000152369
-1.99857e-05
0.000165478
-2.35222e-05
0.000176734
-2.62867e-05
0.000187308
-2.83393e-05
0.000196384
-2.97984e-05
0.000203812
-3.08622e-05
0.00020951
-3.15916e-05
0.000213906
-3.20606e-05
0.000217196
0.00021971
-3.24265e-05
-4.70066e-06
0.000128683
-9.26965e-06
0.000143559
-1.35502e-05
0.00015665
-1.71636e-05
0.000169092
-2.0357e-05
0.000179928
-2.29528e-05
0.000189903
-2.50127e-05
0.000198444
-2.65527e-05
0.000205352
-2.77205e-05
0.000210678
-2.86199e-05
0.000214805
-2.92899e-05
0.000217866
0.000220274
-2.98533e-05
-3.84845e-06
0.000132531
-7.88373e-06
0.000147594
-1.16833e-05
0.000160449
-1.49537e-05
0.000172362
-1.78432e-05
0.000182817
-2.02878e-05
0.000192348
-2.22423e-05
0.000200398
-2.37831e-05
0.000206893
-2.50357e-05
0.000211931
-2.59758e-05
0.000215745
-2.67865e-05
0.000218676
0.000220919
-2.74323e-05
-3.20438e-06
0.000135736
-6.76467e-06
0.000151154
-1.01524e-05
0.000163837
-1.31263e-05
0.000175336
-1.5812e-05
0.000185503
-1.80435e-05
0.000194579
-1.99044e-05
0.000202259
-2.14402e-05
0.000208429
-2.26559e-05
0.000213146
-2.36733e-05
0.000216763
-2.45229e-05
0.000219526
0.00022165
-2.52536e-05
-2.75747e-06
0.000138493
-5.91745e-06
0.000154314
-8.94741e-06
0.000166867
-1.16674e-05
0.000178056
-1.40845e-05
0.00018792
-1.61823e-05
0.000196677
-1.794e-05
0.000204017
-1.93857e-05
0.000209875
-2.06151e-05
0.000214376
-2.16556e-05
0.000217803
-2.25632e-05
0.000220433
0.000222461
-2.33744e-05
-2.42381e-06
0.000140917
-5.26071e-06
0.000157151
-7.98469e-06
0.000169591
-1.04259e-05
0.000180497
-1.26582e-05
0.000190152
-1.46009e-05
0.00019862
-1.62577e-05
0.000205674
-1.76335e-05
0.000211251
-1.88422e-05
0.000215585
-1.98874e-05
0.000218848
-2.07901e-05
0.000221336
0.000223259
-2.15872e-05
-2.15845e-06
0.000143075
-4.73065e-06
0.000159723
-7.19949e-06
0.00017206
-9.45137e-06
0.000182749
-1.14827e-05
0.000192184
-1.32556e-05
0.000200393
-1.4807e-05
0.000207225
-1.61537e-05
0.000212597
-1.72976e-05
0.000216728
-1.83089e-05
0.00021986
-1.9211e-05
0.000222238
0.000224127
-2.0079e-05
-1.93469e-06
0.00014501
-4.27478e-06
0.000162063
-6.53191e-06
0.000174317
-8.59191e-06
0.000184809
-1.04825e-05
0.000194074
-1.21306e-05
0.000202041
-1.35618e-05
0.000208656
-1.48097e-05
0.000213845
-1.59377e-05
0.000217856
-1.69283e-05
0.00022085
-1.78266e-05
0.000223137
0.00022494
-1.86403e-05
-1.74884e-06
0.000146759
-3.89836e-06
0.000164213
-5.96635e-06
0.000176385
-7.86631e-06
0.000186709
-9.59639e-06
0.000195804
-1.11254e-05
0.00020357
-1.24714e-05
0.000210002
-1.36551e-05
0.000215029
-1.47168e-05
0.000218918
-1.56761e-05
0.00022181
-1.65886e-05
0.000224049
0.000225728
-1.73759e-05
-1.585e-06
0.000148344
-3.55881e-06
0.000166187
-5.46323e-06
0.00017829
-7.24684e-06
0.000188493
-8.82538e-06
0.000197383
-1.02543e-05
0.000204999
-1.15148e-05
0.000211263
-1.26364e-05
0.000216151
-1.36481e-05
0.00021993
-1.45753e-05
0.000222737
-1.53955e-05
0.000224869
0.000226521
-1.61883e-05
-1.44707e-06
0.000149791
-3.26576e-06
0.000168006
-5.037e-06
0.000180061
-6.67557e-06
0.000190131
-8.17041e-06
0.000198877
-9.50297e-06
0.000206331
-1.06634e-05
0.000212423
-1.17294e-05
0.000217216
-1.26713e-05
0.000220872
-1.35515e-05
0.000223617
-1.43567e-05
0.000225675
0.000227198
-1.50341e-05
-1.32811e-06
0.000151119
-3.03244e-06
0.00016971
-4.66444e-06
0.000181693
-6.17477e-06
0.000191642
-7.56733e-06
0.00020027
-8.79161e-06
0.000207556
-9.91313e-06
0.000213545
-1.08973e-05
0.000218201
-1.18243e-05
0.000221799
-1.26943e-05
0.000224487
-1.34986e-05
0.000226479
0.000228027
-1.43274e-05
-1.21783e-06
0.000152337
-2.78781e-06
0.00017128
-4.33374e-06
0.000183239
-5.74665e-06
0.000193054
-7.02743e-06
0.000201551
-8.20155e-06
0.00020873
-9.23266e-06
0.000214576
-1.0197e-05
0.000219165
-1.10306e-05
0.000222632
-1.18288e-05
0.000225285
-1.25934e-05
0.000227243
0.000228694
-1.32606e-05
-1.12185e-06
0.000153459
-2.59006e-06
0.000172748
-4.02089e-06
0.00018467
-5.33895e-06
0.000194373
-6.54321e-06
0.000202755
-7.62354e-06
0.00020981
-8.60005e-06
0.000215552
-9.48327e-06
0.000220048
-1.03335e-05
0.000223483
-1.11275e-05
0.000226079
-1.18491e-05
0.000227965
0.000229357
-1.25125e-05
-1.03618e-06
0.000154495
-2.39276e-06
0.000174105
-3.72986e-06
0.000186007
-4.97458e-06
0.000195617
-6.10319e-06
0.000203884
-7.12107e-06
0.000210828
-8.04166e-06
0.000216473
-8.91426e-06
0.000220921
-9.69497e-06
0.000224263
-1.04091e-05
0.000226793
-1.11057e-05
0.000228662
0.000230016
-1.17649e-05
-9.46862e-07
0.000155442
-2.22752e-06
0.000175385
-3.49236e-06
0.000187271
-4.66214e-06
0.000196787
-5.72576e-06
0.000204947
-6.69035e-06
0.000211793
-7.55943e-06
0.000217342
-8.30861e-06
0.00022167
-9.06063e-06
0.000225015
-9.76826e-06
0.000227501
-1.04413e-05
0.000229335
0.000230659
-1.10843e-05
-8.7939e-07
0.000156321
-2.08218e-06
0.000176588
-3.24947e-06
0.000188439
-4.35254e-06
0.00019789
-5.33105e-06
0.000205926
-6.23887e-06
0.000212701
-7.04246e-06
0.000218146
-7.83147e-06
0.000222459
-8.51897e-06
0.000225703
-9.1951e-06
0.000228177
-9.81445e-06
0.000229954
0.000231277
-1.04319e-05
-8.17845e-07
0.000157139
-1.92733e-06
0.000177697
-3.05068e-06
0.000189562
-4.06942e-06
0.000198909
-5.02046e-06
0.000206877
-5.85457e-06
0.000213535
-6.63883e-06
0.00021893
-7.33776e-06
0.000223158
-8.01866e-06
0.000226384
-8.60889e-06
0.000228767
-9.21984e-06
0.000230565
0.000231825
-9.76829e-06
-7.61681e-07
0.000157901
-1.80445e-06
0.00017874
-2.84406e-06
0.000190602
-3.80946e-06
0.000199874
-4.67853e-06
0.000207746
-5.49271e-06
0.000214349
-6.2113e-06
0.000219648
-6.87852e-06
0.000223825
-7.50174e-06
0.000227007
-8.11918e-06
0.000229385
-8.67814e-06
0.000231124
0.000232383
-9.23542e-06
-6.85482e-07
0.000158586
-1.66842e-06
0.000179723
-2.65435e-06
0.000191588
-3.58611e-06
0.000200806
-4.41168e-06
0.000208572
-5.13618e-06
0.000215073
-5.8185e-06
0.000220331
-6.45139e-06
0.000224458
-7.07538e-06
0.000227631
-7.64564e-06
0.000229955
-8.19904e-06
0.000231677
0.000232905
-8.72173e-06
-6.43875e-07
0.00015923
-1.56707e-06
0.000180646
-2.49735e-06
0.000192518
-3.33537e-06
0.000201644
-4.1194e-06
0.000209356
-4.82488e-06
0.000215779
-5.47636e-06
0.000220982
-6.07691e-06
0.000225059
-6.64719e-06
0.000228201
-7.19456e-06
0.000230502
-7.71406e-06
0.000232197
0.00023341
-8.21845e-06
-5.83259e-07
0.000159813
-1.45059e-06
0.000181514
-2.33039e-06
0.000193398
-3.12301e-06
0.000202437
-3.86331e-06
0.000210096
-4.53556e-06
0.000216451
-5.1522e-06
0.000221599
-5.72732e-06
0.000225634
-6.24762e-06
0.000228722
-6.73969e-06
0.000230994
-7.25016e-06
0.000232707
0.000233908
-7.74795e-06
-5.38585e-07
0.000160352
-1.33772e-06
0.000182313
-2.17175e-06
0.000194232
-2.94696e-06
0.000203212
-3.62436e-06
0.000210773
-4.2626e-06
0.000217089
-4.8224e-06
0.000222159
-5.34614e-06
0.000226157
-5.86415e-06
0.00022924
-6.36777e-06
0.000231498
-6.82304e-06
0.000233163
0.000234385
-7.30025e-06
-5.06356e-07
0.000160858
-1.25575e-06
0.000183062
-2.02326e-06
0.000194999
-2.75891e-06
0.000203947
-3.40054e-06
0.000211415
-3.98057e-06
0.000217669
-4.51157e-06
0.00022269
-5.03144e-06
0.000226677
-5.50446e-06
0.000229713
-5.95533e-06
0.000231949
-6.43052e-06
0.000233638
0.000234824
-6.86977e-06
-4.49486e-07
0.000161308
-1.15435e-06
0.000183767
-1.88006e-06
0.000195725
-2.55318e-06
0.000204621
-3.18584e-06
0.000212047
-3.73536e-06
0.000218219
-4.23922e-06
0.000223193
-4.70981e-06
0.000227148
-5.1569e-06
0.00023016
-5.61454e-06
0.000232406
-6.00205e-06
0.000234025
0.000235234
-6.41168e-06
-3.99713e-07
0.000161708
-1.08472e-06
0.000184452
-1.76934e-06
0.00019641
-2.38526e-06
0.000205236
-2.95796e-06
0.00021262
-3.48066e-06
0.000218741
-3.98266e-06
0.000223695
-4.40252e-06
0.000227568
-4.82815e-06
0.000230585
-5.23942e-06
0.000232818
-5.66739e-06
0.000234453
0.000235588
-6.02174e-06
-3.73362e-07
0.000162081
-9.90533e-07
0.000185069
-1.61845e-06
0.000197038
-2.24532e-06
0.000205863
-2.76723e-06
0.000213142
-3.25811e-06
0.000219232
-3.68447e-06
0.000224122
-4.13896e-06
0.000228022
-4.51504e-06
0.000230961
-4.91169e-06
0.000233214
-5.271e-06
0.000234813
0.000236007
-5.68984e-06
-3.16819e-07
0.000162398
-8.81774e-07
0.000185634
-1.51792e-06
0.000197674
-2.06613e-06
0.000206412
-2.58238e-06
0.000213658
-3.0233e-06
0.000219673
-3.45307e-06
0.000224552
-3.82718e-06
0.000228396
-4.21584e-06
0.00023135
-4.56098e-06
0.00023356
-4.95597e-06
0.000235208
0.00023634
-5.28888e-06
-2.92879e-07
0.000162691
-8.41271e-07
0.000186183
-1.37554e-06
0.000198208
-1.91805e-06
0.000206954
-2.37913e-06
0.000214119
-2.82142e-06
0.000220115
-3.20377e-06
0.000224934
-3.58682e-06
0.00022878
-3.92449e-06
0.000231688
-4.28258e-06
0.000233918
-4.58176e-06
0.000235507
0.00023669
-4.93194e-06
-2.59593e-07
0.00016295
-7.41673e-07
0.000186665
-1.28809e-06
0.000198754
-1.75086e-06
0.000207417
-2.21292e-06
0.000214582
-2.60467e-06
0.000220507
-2.98793e-06
0.000225317
-3.2962e-06
0.000229088
-3.64714e-06
0.000232039
-3.95913e-06
0.00023423
-4.2888e-06
0.000235837
0.000236954
-4.55273e-06
-2.30737e-07
0.000163181
-6.63218e-07
0.000187097
-1.15476e-06
0.000199246
-1.63921e-06
0.000207901
-2.05035e-06
0.000214993
-2.41911e-06
0.000220876
-2.72938e-06
0.000225628
-3.07351e-06
0.000229432
-3.37584e-06
0.000232341
-3.67366e-06
0.000234528
-3.96968e-06
0.000236133
0.000237251
-4.26658e-06
-1.7119e-07
0.000163352
-6.1222e-07
0.000187538
-1.07438e-06
0.000199708
-1.48226e-06
0.000208309
-1.86853e-06
0.000215379
-2.2146e-06
0.000221222
-2.53158e-06
0.000225945
-2.82794e-06
0.000229729
-3.11503e-06
0.000232629
-3.36833e-06
0.000234781
-3.6457e-06
0.00023641
0.000237551
-3.9453e-06
-1.79473e-07
0.000163532
-5.41096e-07
0.0001879
-9.48924e-07
0.000200116
-1.38007e-06
0.00020874
-1.7154e-06
0.000215715
-2.01331e-06
0.00022152
-2.31011e-06
0.000226242
-2.59107e-06
0.00023001
-2.83073e-06
0.000232868
-3.09576e-06
0.000235046
-3.36194e-06
0.000236676
0.000237793
-3.60458e-06
-1.16034e-07
0.000163648
-4.721e-07
0.000188256
-8.74698e-07
0.000200519
-1.20487e-06
0.000209071
-1.54408e-06
0.000216054
-1.8471e-06
0.000221823
-2.12275e-06
0.000226517
-2.35557e-06
0.000230242
-2.57834e-06
0.000233091
-2.82269e-06
0.00023529
-3.03142e-06
0.000236885
0.000238037
-3.27521e-06
-9.87226e-08
0.000163746
-4.01166e-07
0.000188559
-7.55077e-07
0.000200873
-1.10979e-06
0.000209425
-1.40119e-06
0.000216345
-1.65721e-06
0.000222079
-1.88787e-06
0.000226748
-2.1009e-06
0.000230455
-2.3357e-06
0.000233325
-2.56253e-06
0.000235517
-2.75878e-06
0.000237081
0.000238216
-2.93823e-06
-6.87537e-08
0.000163815
-3.38899e-07
0.000188829
-6.62445e-07
0.000201196
-9.68819e-07
0.000209732
-1.23831e-06
0.000216614
-1.49983e-06
0.000222341
-1.71409e-06
0.000226962
-1.91263e-06
0.000230653
-2.10217e-06
0.000233514
-2.29073e-06
0.000235705
-2.47916e-06
0.000237269
0.000238403
-2.66653e-06
-3.06527e-08
0.000163846
-2.74299e-07
0.000189072
-5.73698e-07
0.000201496
-8.56841e-07
0.000210015
-1.1054e-06
0.000216863
-1.29584e-06
0.000222531
-1.5172e-06
0.000227182
-1.70011e-06
0.000230836
-1.87785e-06
0.000233692
-2.02903e-06
0.000235856
-2.2241e-06
0.000237464
0.000238633
-2.45371e-06
-3.86511e-09
0.00016385
-2.16431e-07
0.000189285
-4.89095e-07
0.000201768
-7.47714e-07
0.000210273
-9.75902e-07
0.000217091
-1.17437e-06
0.000222729
-1.325e-06
0.000227333
-1.46288e-06
0.000230973
-1.62134e-06
0.00023385
-1.77477e-06
0.00023601
-1.91047e-06
0.0002376
0.00023874
-2.01764e-06
6.34286e-09
0.000163843
-1.59518e-07
0.000189451
-4.0482e-07
0.000202013
-6.16082e-07
0.000210484
-8.23275e-07
0.000217298
-9.75205e-07
0.000222881
-1.13503e-06
0.000227493
-1.28432e-06
0.000231123
-1.40118e-06
0.000233968
-1.5486e-06
0.000236157
-1.67852e-06
0.00023773
0.000238917
-1.85453e-06
3.82557e-08
0.000163805
-9.68909e-08
0.000189586
-2.94089e-07
0.00020221
-5.10623e-07
0.000210701
-6.72106e-07
0.000217459
-8.34331e-07
0.000223043
-9.49681e-07
0.000227609
-1.05456e-06
0.000231229
-1.18566e-06
0.0002341
-1.28701e-06
0.00023626
-1.41823e-06
0.000237862
0.000239021
-1.52222e-06
6.22316e-08
0.000163742
-6.48347e-08
0.000189712
-2.39831e-07
0.000202385
-4.07568e-07
0.000210869
-5.50566e-07
0.000217603
-6.67281e-07
0.00022316
-7.66756e-07
0.000227709
-8.84934e-07
0.000231348
-9.71595e-07
0.000234187
-1.06003e-06
0.000236349
-1.15463e-06
0.000237957
0.000239124
-1.25765e-06
9.57399e-08
0.000163646
1.58812e-08
0.000189792
-1.30296e-07
0.00020253
-2.78345e-07
0.000211017
-4.03995e-07
0.000217729
-5.03118e-07
0.00022326
-5.86313e-07
0.000227793
-6.61166e-07
0.000231424
-7.33509e-07
0.000234261
-8.07674e-07
0.000236424
-8.81635e-07
0.000238032
0.000239194
-9.51741e-07
1.19544e-07
0.000163526
6.77902e-08
0.000189843
-5.14258e-08
0.00020265
-1.78694e-07
0.000211144
-2.86413e-07
0.000217837
-3.42665e-07
0.000223317
-4.09327e-07
0.000227861
-4.68811e-07
0.000231484
-5.27794e-07
0.00023432
-5.89355e-07
0.000236486
-6.60753e-07
0.000238103
0.000239286
-7.53654e-07
1.25462e-07
0.0001634
1.17712e-07
0.000189851
2.16312e-08
0.000202745
-6.15668e-08
0.000211228
-1.47231e-07
0.000217923
-2.11091e-07
0.000223382
-2.6186e-07
0.000227912
-2.79104e-07
0.000231501
-3.22442e-07
0.000234363
-3.40375e-07
0.000236503
-3.84316e-07
0.000238145
0.00023929
-3.88925e-07
1.72918e-07
0.000163227
1.65036e-07
0.000189858
1.18915e-07
0.000202792
3.11948e-08
0.000211316
-4.11878e-09
0.000217959
-5.32333e-08
0.000223432
-6.22497e-08
0.000227921
-9.22503e-08
0.000231531
-9.49267e-08
0.000234365
-1.30201e-07
0.000236536
-1.48073e-07
0.000238162
0.000239356
-2.15643e-07
1.83049e-07
0.000163044
2.22441e-07
0.000189818
1.68705e-07
0.000202846
1.28458e-07
0.000211356
1.04422e-07
0.000217984
9.91953e-08
0.000223436
7.93521e-08
0.000227941
9.145e-08
0.000231518
1.02755e-07
0.000234352
1.11228e-07
0.000236526
8.88322e-08
0.000238182
0.00023934
1.03538e-07
2.07295e-07
0.000162836
2.46012e-07
0.00018978
2.63312e-07
0.000202829
2.44753e-07
0.000211376
2.13032e-07
0.000218015
2.24105e-07
0.000223425
2.73368e-07
0.00022789
2.71973e-07
0.000231517
2.97655e-07
0.000234324
3.18359e-07
0.000236504
3.29445e-07
0.00023817
0.00023935
3.19075e-07
2.32397e-07
0.000162604
3.20893e-07
0.000189692
3.34888e-07
0.000202815
3.34532e-07
0.000211376
3.72565e-07
0.000217977
3.72555e-07
0.000223424
4.09726e-07
0.000227851
4.78303e-07
0.000231447
5.18167e-07
0.000234283
5.26803e-07
0.000236494
5.9216e-07
0.000238105
0.000239301
6.4144e-07
2.39488e-07
0.000162365
3.70233e-07
0.000189561
4.04367e-07
0.000202781
4.22968e-07
0.000211358
4.50422e-07
0.000217949
5.19379e-07
0.000223355
5.70496e-07
0.000227798
6.25408e-07
0.000231391
7.05957e-07
0.000234201
7.81532e-07
0.00023642
8.18272e-07
0.000238069
0.000239274
8.4727e-07
2.84921e-07
0.00016208
4.17624e-07
0.000189428
4.9775e-07
0.000202701
5.35161e-07
0.000211319
6.06386e-07
0.000217877
6.63607e-07
0.000223296
7.58136e-07
0.000227705
8.26074e-07
0.000231323
8.91359e-07
0.000234138
9.47664e-07
0.000236366
1.01625e-06
0.000238002
0.000239266
1.02472e-06
2.88862e-07
0.00016179
4.64704e-07
0.000189252
5.40761e-07
0.000202624
6.22004e-07
0.000211238
7.08586e-07
0.000217789
8.09688e-07
0.000223196
8.90174e-07
0.000227624
1.00228e-06
0.000231214
1.0832e-06
0.000234061
1.18659e-06
0.000236266
1.28573e-06
0.000237906
0.000239169
1.38464e-06
3.15948e-07
0.000161475
5.12232e-07
0.000189053
6.33532e-07
0.000202503
7.3263e-07
0.000211137
8.11472e-07
0.000217711
9.26781e-07
0.00022308
1.05199e-06
0.000227502
1.17894e-06
0.00023109
1.30229e-06
0.000233941
1.41952e-06
0.000236153
1.496e-06
0.000237832
0.000239086
1.58021e-06
3.4041e-07
0.000161134
5.58924e-07
0.000188833
7.00978e-07
0.000202359
8.19578e-07
0.000211019
9.40355e-07
0.00021759
1.07378e-06
0.000222949
1.21375e-06
0.000227365
1.35453e-06
0.000230954
1.49295e-06
0.000233808
1.62077e-06
0.000236028
1.74241e-06
0.000237713
0.00023896
1.86808e-06
3.65582e-07
0.000160768
6.06417e-07
0.000188589
7.69233e-07
0.000202196
9.05834e-07
0.000210881
1.07158e-06
0.000217426
1.21988e-06
0.000222803
1.37475e-06
0.000227213
1.5306e-06
0.000230802
1.70637e-06
0.000233634
1.84581e-06
0.00023589
1.97013e-06
0.000237587
0.000238856
2.07279e-06
3.68661e-07
0.000160398
6.53144e-07
0.000188302
8.37009e-07
0.000202011
1.01938e-06
0.000210699
1.17579e-06
0.000217271
1.34011e-06
0.000222641
1.53812e-06
0.000227019
1.73339e-06
0.000230607
1.86736e-06
0.000233501
2.04631e-06
0.000235709
2.18998e-06
0.000237441
0.000238669
2.37362e-06
4.15608e-07
0.000159981
7.0031e-07
0.000188015
9.30541e-07
0.00020178
1.10786e-06
0.000210524
1.28182e-06
0.000217099
1.5174e-06
0.000222409
1.70079e-06
0.000226836
1.88183e-06
0.000230427
2.08201e-06
0.000233297
2.24086e-06
0.000235545
2.43105e-06
0.000237247
0.000238594
2.50433e-06
4.19958e-07
0.00015956
7.50162e-07
0.000187684
1.00177e-06
0.000201529
1.22186e-06
0.000210305
1.44111e-06
0.000216883
1.61082e-06
0.00022224
1.83608e-06
0.00022661
2.05996e-06
0.000230199
2.27476e-06
0.000233077
2.48457e-06
0.00023533
2.66698e-06
0.00023706
0.000238368
2.88996e-06
4.45878e-07
0.000159113
7.75833e-07
0.000187353
1.04711e-06
0.000201259
1.28684e-06
0.000210067
1.52147e-06
0.00021665
1.78647e-06
0.000221975
2.02694e-06
0.000226368
2.26297e-06
0.000229959
2.49519e-06
0.00023284
2.7152e-06
0.000235105
2.92265e-06
0.000236849
0.000238175
3.114e-06
4.58466e-07
0.000158654
8.50302e-07
0.000186962
1.14359e-06
0.000200968
1.40184e-06
0.00020981
1.65432e-06
0.000216398
1.90555e-06
0.000221723
2.15856e-06
0.000226111
2.40904e-06
0.000229705
2.67826e-06
0.000232566
2.91313e-06
0.00023487
3.13636e-06
0.000236625
0.00023795
3.36304e-06
5.01494e-07
0.000158153
9.00119e-07
0.000186565
1.21468e-06
0.000200654
1.51742e-06
0.000209509
1.78231e-06
0.000216132
2.0488e-06
0.000221453
2.34377e-06
0.000225814
2.60611e-06
0.000229438
2.83606e-06
0.000232337
3.10937e-06
0.000234598
3.33723e-06
0.000236401
0.000237725
3.56453e-06
5.08104e-07
0.000157646
9.49889e-07
0.000186125
1.28391e-06
0.00020032
1.57888e-06
0.000209213
1.88577e-06
0.000215821
2.19453e-06
0.000221142
2.47294e-06
0.000225531
2.78014e-06
0.000229132
3.07955e-06
0.000232039
3.31437e-06
0.000234368
3.59818e-06
0.000236123
0.000237469
3.85856e-06
5.35142e-07
0.000157113
9.75178e-07
0.000185687
1.38108e-06
0.000199914
1.69194e-06
0.000208899
2.01706e-06
0.000215494
2.31072e-06
0.000220844
2.6373e-06
0.000225205
2.9307e-06
0.00022884
3.24349e-06
0.000231732
3.5458e-06
0.000234073
3.82597e-06
0.000235848
0.000237256
4.04071e-06
5.44716e-07
0.000156569
1.04922e-06
0.000185184
1.42549e-06
0.000199537
1.78139e-06
0.000208541
2.12171e-06
0.000215149
2.46178e-06
0.000220503
2.80153e-06
0.000224866
3.13728e-06
0.000228508
3.44204e-06
0.000231434
3.78499e-06
0.000233734
4.06533e-06
0.000235572
0.000236926
4.39353e-06
5.73711e-07
0.000155997
1.07759e-06
0.000184681
1.4959e-06
0.000199117
1.89794e-06
0.000208136
2.22945e-06
0.000214815
2.61419e-06
0.000220118
2.94204e-06
0.00022454
3.2901e-06
0.000228166
3.67425e-06
0.000231053
3.97221e-06
0.00023344
4.30139e-06
0.000235242
0.000236688
4.53666e-06
6.08487e-07
0.000155388
1.12791e-06
0.00018416
1.58847e-06
0.000198655
1.9706e-06
0.000207752
2.36838e-06
0.000214417
2.73476e-06
0.000219752
3.12279e-06
0.000224156
3.51745e-06
0.000227774
3.85438e-06
0.000230719
4.21599e-06
0.000233077
4.54647e-06
0.000234907
0.000236322
4.90794e-06
6.15732e-07
0.00015477
1.16471e-06
0.000183609
1.64707e-06
0.000198171
2.06666e-06
0.000207333
2.48302e-06
0.000214002
2.87276e-06
0.000219365
3.28708e-06
0.000223745
3.66724e-06
0.000227396
4.06194e-06
0.000230324
4.44038e-06
0.000232694
4.76789e-06
0.000234575
0.000236009
5.07836e-06
6.38347e-07
0.00015413
1.22326e-06
0.000183021
1.71155e-06
0.000197683
2.19329e-06
0.000206853
2.61178e-06
0.000213586
3.04148e-06
0.000218939
3.44849e-06
0.00022334
3.8919e-06
0.000226953
4.24452e-06
0.000229969
4.63853e-06
0.000232296
5.02075e-06
0.00023419
0.000235617
5.41227e-06
6.59798e-07
0.000153467
1.26997e-06
0.000182409
1.79812e-06
0.000197156
2.25614e-06
0.000206397
2.71233e-06
0.000213134
3.18783e-06
0.000218465
3.60414e-06
0.000222924
4.03935e-06
0.000226517
4.46035e-06
0.000229544
4.86741e-06
0.000231886
5.24876e-06
0.000233807
0.000235294
5.57356e-06
6.99557e-07
0.000152766
1.31106e-06
0.000181796
1.88777e-06
0.00019658
2.38873e-06
0.0002059
2.84017e-06
0.000212683
3.3062e-06
0.000218
3.78826e-06
0.000222441
4.23711e-06
0.000226065
4.67424e-06
0.000229105
5.09837e-06
0.00023146
5.51369e-06
0.000233393
0.000234872
5.93793e-06
6.81149e-07
0.000152085
1.37821e-06
0.0001811
1.95424e-06
0.000196007
2.47414e-06
0.00020538
2.99284e-06
0.000212165
3.44748e-06
0.000217543
3.94634e-06
0.000221939
4.41083e-06
0.000225599
4.88745e-06
0.000228627
5.29931e-06
0.00023105
5.74486e-06
0.000232949
0.000234487
6.13167e-06
7.5384e-07
0.000151333
1.39538e-06
0.000180462
1.99427e-06
0.000195409
2.55973e-06
0.000204815
3.09482e-06
0.000211627
3.61662e-06
0.000217017
4.10458e-06
0.000221449
4.58278e-06
0.00022512
5.07643e-06
0.000228135
5.55223e-06
0.000230576
5.98051e-06
0.000232522
0.000234085
6.38309e-06
7.43743e-07
0.000150594
1.51392e-06
0.000179695
2.13655e-06
0.000194788
2.72165e-06
0.000204228
3.24996e-06
0.000211094
3.78888e-06
0.000216474
4.29262e-06
0.000220942
4.81451e-06
0.000224598
5.29744e-06
0.000227655
5.79218e-06
0.000230084
6.2443e-06
0.000232071
0.000233585
6.74306e-06
7.67569e-07
0.00014983
1.51181e-06
0.000178955
2.17501e-06
0.000194125
2.75383e-06
0.000203646
3.35322e-06
0.000210491
3.8826e-06
0.000215941
4.45583e-06
0.000220368
4.96691e-06
0.000224088
5.49126e-06
0.000227133
5.97053e-06
0.000229607
6.45051e-06
0.000231592
0.000233154
6.88112e-06
8.26682e-07
0.000149008
1.58051e-06
0.000178204
2.26814e-06
0.000193436
2.89344e-06
0.000203018
3.45527e-06
0.000209925
4.05948e-06
0.000215335
4.59759e-06
0.00021983
5.15093e-06
0.000223536
5.71837e-06
0.000226567
6.24185e-06
0.000229084
6.78155e-06
0.000231052
0.000232671
7.26388e-06
8.24903e-07
0.000148185
1.6173e-06
0.000177412
2.329e-06
0.000192724
3.00562e-06
0.000202338
3.61837e-06
0.000209312
4.20822e-06
0.000214745
4.82131e-06
0.000219218
5.39139e-06
0.000222968
5.91793e-06
0.000226041
6.45147e-06
0.00022855
6.95728e-06
0.000230546
0.000232189
7.43871e-06
8.1873e-07
0.000147366
1.66103e-06
0.000176569
2.41742e-06
0.000191965
3.08996e-06
0.000201666
3.74842e-06
0.000208654
4.36851e-06
0.000214127
4.96332e-06
0.000218625
5.54856e-06
0.000222383
6.14969e-06
0.000225439
6.72674e-06
0.000227972
7.26143e-06
0.00023001
0.000231651
7.79932e-06
8.8054e-07
0.000146483
1.72426e-06
0.000175722
2.4856e-06
0.000191203
3.20488e-06
0.000200948
3.86088e-06
0.000208001
4.52056e-06
0.000213471
5.13783e-06
0.00021801
5.79896e-06
0.000221722
6.35091e-06
0.000224886
6.94744e-06
0.000227374
7.50987e-06
0.000229447
0.000231173
7.98816e-06
8.9125e-07
0.000145588
1.76413e-06
0.000174846
2.57987e-06
0.000190387
3.29045e-06
0.00020024
4.001e-06
0.000207294
4.67966e-06
0.000212795
5.31442e-06
0.000217376
5.96036e-06
0.000221075
6.62249e-06
0.000224222
7.20083e-06
0.000226795
7.77359e-06
0.000228874
0.000230544
8.40203e-06
9.08587e-07
0.000144676
1.84474e-06
0.000173908
2.64471e-06
0.000189587
3.41997e-06
0.000199468
4.143e-06
0.000206574
4.84049e-06
0.000212099
5.51833e-06
0.000216699
6.15428e-06
0.000220439
6.82656e-06
0.00022355
7.45984e-06
0.000226161
8.06423e-06
0.000228269
0.000230014
8.59458e-06
9.40411e-07
0.000143733
1.86354e-06
0.000172983
2.75385e-06
0.000188698
3.54269e-06
0.000198679
4.31157e-06
0.000205806
4.96635e-06
0.000211445
5.69669e-06
0.000215968
6.37501e-06
0.00021976
7.03379e-06
0.00022289
7.67015e-06
0.000225525
8.27697e-06
0.000227663
0.00022938
8.91231e-06
9.61136e-07
0.000142772
1.91477e-06
0.00017203
2.81986e-06
0.000187793
3.63246e-06
0.000197868
4.39614e-06
0.000205041
5.16566e-06
0.000210674
5.87902e-06
0.000215253
6.59989e-06
0.000219038
7.24948e-06
0.000222242
7.92914e-06
0.000224847
8.55525e-06
0.000227039
0.000228799
9.13678e-06
9.8895e-07
0.000141785
1.98836e-06
0.000171032
2.89912e-06
0.000186884
3.75752e-06
0.000197007
4.55578e-06
0.000204241
5.3341e-06
0.000209893
6.09179e-06
0.000214494
6.80657e-06
0.000218324
7.52884e-06
0.000221521
8.17876e-06
0.000224199
8.90302e-06
0.000226316
0.000228147
9.55577e-06
1.01902e-06
0.000140769
2.04314e-06
0.000170011
2.97871e-06
0.000185948
3.89874e-06
0.000196085
4.69296e-06
0.000203443
5.46714e-06
0.000209115
6.2831e-06
0.000213676
7.01585e-06
0.000217591
7.7289e-06
0.000220809
8.47148e-06
0.000223458
9.12852e-06
0.000225661
0.000227554
9.72294e-06
1.05266e-06
0.00013972
2.10313e-06
0.000168963
3.11873e-06
0.000184932
3.96676e-06
0.000195235
4.82023e-06
0.000202586
5.67954e-06
0.000208254
6.41255e-06
0.000212942
7.25512e-06
0.000216748
8.01243e-06
0.000220053
8.76049e-06
0.000222711
9.43794e-06
0.000224984
0.000226827
1.01642e-05
1.07129e-06
0.000138651
2.15845e-06
0.000167877
3.18484e-06
0.000183906
4.09531e-06
0.000194322
5.0138e-06
0.000201666
5.81704e-06
0.000207449
6.67469e-06
0.000212084
7.4456e-06
0.000215978
8.21807e-06
0.00021928
8.96495e-06
0.000221965
9.67217e-06
0.000224277
0.000226151
1.03485e-05
1.09552e-06
0.000137557
2.2095e-06
0.000166764
3.24174e-06
0.000182872
4.26595e-06
0.000193298
5.13046e-06
0.0002008
6.03745e-06
0.000206542
6.87689e-06
0.000211245
7.65122e-06
0.000215204
8.48444e-06
0.000218447
9.25175e-06
0.000221197
1.00348e-05
0.000223493
0.000225478
1.07062e-05
1.11855e-06
0.000136437
2.26416e-06
0.000165617
3.34592e-06
0.00018179
4.33589e-06
0.000192307
5.30738e-06
0.000199831
6.22212e-06
0.000205629
7.08312e-06
0.000210385
7.91884e-06
0.000214368
8.73106e-06
0.000217634
9.54525e-06
0.000220381
1.03048e-05
0.000222732
0.000224727
1.10548e-05
1.14449e-06
0.000135291
2.357e-06
0.000164403
3.46335e-06
0.000180683
4.48985e-06
0.000191283
5.47064e-06
0.000198852
6.38482e-06
0.000204717
7.29222e-06
0.000209479
8.19002e-06
0.00021347
9.04574e-06
0.000216777
9.84899e-06
0.000219576
1.06531e-05
0.000221926
0.000223952
1.14282e-05
1.16996e-06
0.000134118
2.37699e-06
0.000163194
3.51753e-06
0.000179543
4.58706e-06
0.000190215
5.57015e-06
0.000197872
6.57465e-06
0.000203715
7.47743e-06
0.000208577
8.37581e-06
0.000212572
9.24549e-06
0.000215906
1.00547e-05
0.000218765
1.0838e-05
0.000221142
0.000223259
1.15311e-05
1.19339e-06
0.000132923
2.43534e-06
0.000161951
3.65187e-06
0.000178327
4.7483e-06
0.00018912
5.78158e-06
0.00019684
6.74371e-06
0.000202754
7.69316e-06
0.000207628
8.639e-06
0.000211625
9.55117e-06
0.000214993
1.04185e-05
0.000217897
1.12456e-05
0.000220314
0.000222374
1.21302e-05
1.25545e-06
0.000131667
2.53083e-06
0.000160676
3.74445e-06
0.000177114
4.87085e-06
0.000187995
5.9302e-06
0.000195781
6.94098e-06
0.000201743
7.93865e-06
0.00020663
8.90185e-06
0.000210661
9.77235e-06
0.000214122
1.07032e-05
0.000216967
1.15496e-05
0.000219469
0.000221548
1.2376e-05
1.23906e-06
0.000130428
2.58994e-06
0.000159325
3.83768e-06
0.000175867
5.00231e-06
0.000186829
6.15075e-06
0.000194632
7.1413e-06
0.000200751
8.15912e-06
0.000205611
9.14967e-06
0.000209671
1.00849e-05
0.000213188
1.09902e-05
0.000216063
1.18923e-05
0.000218568
0.000220671
1.27701e-05
1.30497e-06
0.000129125
2.64906e-06
0.000157983
3.93425e-06
0.000174582
5.17414e-06
0.000185589
6.23788e-06
0.000193566
7.36801e-06
0.000199619
8.41354e-06
0.000204564
9.37693e-06
0.000208707
1.03583e-05
0.000212208
1.13081e-05
0.000215114
1.22106e-05
0.000217666
0.000219842
1.30405e-05
1.32111e-06
0.000127806
2.70577e-06
0.0001566
4.02693e-06
0.000173261
5.25943e-06
0.000184355
6.46808e-06
0.000192356
7.55469e-06
0.000198531
8.62506e-06
0.000203493
9.66226e-06
0.00020767
1.06905e-05
0.00021118
1.16414e-05
0.000214164
1.25954e-05
0.000216713
0.000218879
1.35589e-05
1.37334e-06
0.000126435
2.8004e-06
0.000155174
4.1642e-06
0.000171897
5.43582e-06
0.000183082
6.62872e-06
0.000191161
7.76969e-06
0.000197388
8.89041e-06
0.000202371
9.95075e-06
0.00020661
1.09778e-05
0.000210153
1.19693e-05
0.000213173
1.29147e-05
0.000215768
0.000218044
1.37488e-05
1.36697e-06
0.000125069
2.86075e-06
0.00015368
4.25945e-06
0.000170497
5.56913e-06
0.000181772
6.84585e-06
0.000189883
8.01366e-06
0.00019622
9.08945e-06
0.000201295
1.02234e-05
0.000205476
1.12486e-05
0.000209128
1.2264e-05
0.000212158
1.32507e-05
0.000214781
0.000217007
1.42878e-05
1.45892e-06
0.00012361
2.91766e-06
0.000152221
4.35684e-06
0.000169058
5.75203e-06
0.000180376
6.97217e-06
0.000188664
8.22125e-06
0.000194971
9.36739e-06
0.00020015
1.04784e-05
0.000204366
1.15764e-05
0.00020803
1.26618e-05
0.000211072
1.36498e-05
0.000213793
0.000216136
1.45209e-05
1.44412e-06
0.000122164
3.01659e-06
0.000150648
4.49877e-06
0.000167575
5.88865e-06
0.000178987
7.24081e-06
0.000187313
8.43364e-06
0.00019378
9.6775e-06
0.000198907