/*--------------------------------*- C++ -*----------------------------------*\
| =========                 |                                                 |
| \\      /  F ield         | OpenFOAM: The Open Source CFD Toolbox           |
|  \\    /   O peration     | Version:  2.3.1                                 |
|   \\  /    A nd           | Web:      www.OpenFOAM.org                      |
|    \\/     M anipulation  |                                                 |
\*---------------------------------------------------------------------------*/
FoamFile
{
    version     2.0;
    format      ascii;
    class       volScalarField;
    location    "0.48";
    object      k;
}
// * * * * * * * * * * * * * * * * * * * * * * * * * * * * * * * * * * * * * //

dimensions      [0 2 -2 0 0 0 0];

internalField   nonuniform List<scalar> 
9648
(
2.69445
2.70338
2.70358
2.70143
2.69604
2.68652
2.67281
2.65522
2.6336
2.6079
2.57818
2.54465
2.50775
2.46804
2.42618
2.38291
2.33897
2.29504
2.25172
2.20954
2.16894
2.13026
2.09375
2.05957
2.02781
1.99851
1.97167
1.94723
1.92512
1.90527
1.88763
1.87208
1.85853
1.84688
1.83708
1.82902
1.82266
1.81789
1.81465
1.81287
1.81251
1.81353
1.81587
1.81951
1.82443
1.83061
1.83808
1.84685
1.85694
1.86838
1.88122
1.8955
1.91127
1.92853
1.94731
1.96751
1.98888
2.01097
2.03333
2.05554
2.07722
1.70387
1.70926
1.71339
1.71672
1.72122
1.72927
1.74301
1.76402
1.79225
1.82767
1.87011
1.91902
1.97357
2.03282
2.09582
2.16164
2.22941
2.29829
2.36752
2.4366
2.50511
2.57276
2.63938
2.70473
2.76873
2.83134
2.89263
2.9526
3.01139
3.06903
3.12572
3.18145
3.23622
3.29026
3.3436
3.39635
3.44866
3.50056
3.55209
3.60319
3.65394
3.70445
3.75468
3.80461
3.85434
3.90372
3.95277
4.0016
4.05026
4.09859
4.14656
4.19402
4.24106
4.28729
4.33301
4.37794
4.42229
4.46535
4.50738
4.54841
4.5885
1.38393
1.43279
1.48703
1.54706
1.61492
1.69151
1.77632
1.86891
1.96843
2.07419
2.18493
2.29977
2.41761
2.53736
2.65796
2.77844
2.8979
3.01547
3.13048
3.24246
3.35114
3.45633
3.55773
3.65524
3.74881
3.83863
3.92493
4.00798
4.08793
4.16508
4.23949
4.31131
4.38084
4.44814
4.5135
4.57714
4.63917
4.69976
4.75895
4.81686
4.87358
4.92916
4.98376
5.03739
5.09005
5.14175
5.19245
5.24224
5.29097
5.33864
5.38524
5.43082
5.47557
5.51881
5.56148
5.60256
5.64279
5.68109
5.71868
5.75513
5.79051
1.29905
1.38975
1.49072
1.60162
1.72236
1.85257
1.99139
2.13753
2.28943
2.44562
2.60444
2.76454
2.92454
3.08336
3.23981
3.39289
3.54179
3.6858
3.82445
3.95758
4.08499
4.20645
4.32189
4.43122
4.53479
4.63292
4.72608
4.81465
4.8991
4.97951
5.05622
5.12954
5.19961
5.26703
5.33191
5.39459
5.45528
5.51411
5.57127
5.62685
5.681
5.7339
5.78561
5.83631
5.88597
5.93464
5.98236
6.02915
6.07494
6.11972
6.16363
6.20633
6.24803
6.28855
6.32839
6.36701
6.40444
6.44068
6.47579
6.5098
6.54252
1.33151
1.45739
1.59775
1.75097
1.9157
2.09074
2.2744
2.46454
2.65912
2.85591
3.05296
3.24845
3.44103
3.62943
3.81254
3.98923
4.15875
4.32074
4.47498
4.62147
4.76012
4.89073
5.01317
5.12781
5.23514
5.3359
5.43058
5.5199
5.60387
5.68309
5.75787
5.82833
5.89539
5.95912
6.02003
6.07845
6.13456
6.18855
6.24066
6.291
6.33974
6.38705
6.43316
6.47816
6.5221
6.56503
6.60699
6.64799
6.68812
6.72715
6.76524
6.80228
6.83812
6.87281
6.90652
6.93932
6.97094
7.00146
7.03078
7.05879
7.08551
1.41742
1.57463
1.74981
1.94044
2.14398
2.35833
2.58097
2.8092
3.04023
3.27125
3.50002
3.72429
3.94277
4.15406
4.35738
4.55134
4.73532
4.90941
5.07337
5.2277
5.37212
5.50624
5.63067
5.74543
5.85199
5.951
6.04313
6.12875
6.20857
6.28253
6.35158
6.41621
6.47651
6.53368
6.58735
6.63824
6.6869
6.73324
6.77772
6.82032
6.86109
6.90047
6.93857
6.97566
7.01167
7.04674
7.08102
7.11424
7.14668
7.17817
7.20863
7.23803
7.26636
7.29343
7.3195
7.34453
7.36861
7.39167
7.41341
7.43361
7.45264
1.53424
1.72037
1.92764
2.1523
2.39055
2.63974
2.89653
3.15769
3.42009
3.67985
3.93498
4.18234
4.42109
4.64949
4.86801
5.0742
5.26763
5.44917
5.61826
5.77556
5.92141
6.05473
6.17692
6.28816
6.39008
6.48383
6.56943
6.64876
6.72035
6.78642
6.84733
6.90243
6.95398
7.00142
7.04528
7.08622
7.12488
7.16114
7.19585
7.22859
7.25929
7.28851
7.31663
7.34386
7.36987
7.395
7.41943
7.443
7.46594
7.48792
7.50897
7.5289
7.54781
7.56537
7.58166
7.59718
7.61191
7.62568
7.63793
7.64846
7.65781
1.66891
1.88174
2.11873
2.37444
2.64381
2.92328
3.20967
3.49936
3.7885
4.07231
4.34924
4.6146
4.86843
5.10841
5.33778
5.55195
5.75094
5.93659
6.10619
6.26237
6.40588
6.53427
6.65215
6.75617
6.8499
6.9347
7.01064
7.07982
7.14165
7.19677
7.24698
7.29069
7.32954
7.36519
7.39649
7.42441
7.45052
7.47442
7.49722
7.51802
7.53621
7.55287
7.56853
7.58367
7.59735
7.61047
7.62259
7.63406
7.64501
7.65528
7.66455
7.67273
7.68017
7.68586
7.69028
7.69415
7.69685
7.69964
7.70035
7.69874
7.69652
1.81238
2.047
2.31094
2.59195
2.89005
3.19449
3.50483
3.8205
4.13
4.43482
4.72847
5.00989
5.27371
5.52036
5.75498
5.97415
6.17567
6.36198
6.53342
6.68477
6.82124
6.94263
7.05229
7.15013
7.23248
7.30431
7.36729
7.42426
7.47311
7.51634
7.55414
7.58442
7.60802
7.62835
7.64421
7.65808
7.66789
7.67662
7.68511
7.69072
7.69374
7.69396
7.69585
7.69624
7.69503
7.69494
7.69097
7.6879
7.68265
7.67735
7.67021
7.66291
7.6562
7.64745
7.63756
7.62765
7.61439
7.60552
7.59201
7.57474
7.55889
2.09806
2.11791
2.13689
2.15497
2.1722
2.18871
2.20475
2.22067
2.23661
2.25166
2.26549
2.27875
2.29156
2.30411
2.31671
2.32998
2.34429
2.35995
2.37726
2.39664
2.41777
2.44023
2.46376
2.48796
2.51254
2.53752
2.56304
2.58883
2.61479
2.64099
2.66754
2.69433
2.72137
2.74881
2.7766
2.80469
2.83321
2.86222
2.89168
2.92151
2.95181
2.98268
3.01409
3.04601
3.07855
3.11153
3.14497
3.17902
3.21372
3.24892
3.2847
3.32112
3.3583
3.396
3.43456
3.47391
3.51434
3.55556
3.59792
3.64154
3.68651
4.62768
4.66479
4.70095
4.73633
4.77068
4.80355
4.83447
4.86411
4.89147
4.91805
4.94288
4.96668
4.98938
5.01104
5.03158
5.05085
5.06896
5.08586
5.1016
5.11615
5.12957
5.14188
5.15297
5.16289
5.17167
5.17927
5.18558
5.19034
5.19364
5.19546
5.1958
5.19469
5.1922
5.1883
5.18302
5.17645
5.16853
5.15938
5.14895
5.13727
5.12441
5.11038
5.09529
5.07908
5.06173
5.04318
5.02332
5.00221
4.97977
4.95605
4.93099
4.90454
4.87685
4.84746
4.81711
4.78517
4.75229
4.71798
4.68329
4.64809
4.61253
5.82423
5.85681
5.88779
5.91783
5.94681
5.97517
6.00165
6.02684
6.0498
6.07147
6.09145
6.11018
6.12748
6.14372
6.15868
6.17227
6.18452
6.19541
6.20493
6.21305
6.21985
6.22531
6.22943
6.23222
6.23366
6.23373
6.23247
6.22983
6.22576
6.22022
6.21323
6.20473
6.19474
6.18332
6.17044
6.15616
6.14045
6.12334
6.10483
6.08495
6.06379
6.04143
6.01792
5.9933
5.96753
5.94055
5.9122
5.88246
5.85126
5.81859
5.78444
5.74856
5.71106
5.67178
5.63095
5.58825
5.54391
5.49819
5.45154
5.40405
5.35585
6.5742
6.60459
6.63369
6.66122
6.68749
6.71254
6.73614
6.75818
6.77851
6.7972
6.81425
6.82971
6.84363
6.85605
6.86686
6.87622
6.8841
6.89044
6.89524
6.89848
6.90023
6.90056
6.89947
6.897
6.89308
6.88769
6.8808
6.87245
6.86267
6.85142
6.83864
6.82428
6.80833
6.79082
6.77181
6.75131
6.72927
6.70567
6.6805
6.65384
6.6258
6.59649
6.5661
6.53471
6.50235
6.46898
6.43437
6.39848
6.36124
6.32265
6.28258
6.24089
6.19757
6.1525
6.10565
6.05683
6.00622
5.95412
5.901
5.8469
5.79225
7.11093
7.13517
7.15796
7.17917
7.19869
7.21663
7.23296
7.24761
7.2609
7.27284
7.28324
7.29213
7.29952
7.30532
7.30957
7.31238
7.3136
7.31322
7.31118
7.30748
7.30224
7.29557
7.28758
7.2783
7.26765
7.25556
7.24206
7.22719
7.21105
7.19364
7.1749
7.15463
7.13284
7.10952
7.0848
7.05863
7.03092
7.00164
6.97066
6.93807
6.90402
6.86867
6.83229
6.79513
6.75732
6.71888
6.67944
6.63901
6.59749
6.55501
6.5112
6.46586
6.41909
6.37063
6.32038
6.2679
6.21363
6.15769
6.10076
6.04281
5.98439
7.47034
7.48672
7.50153
7.51487
7.52648
7.53635
7.54462
7.55114
7.55601
7.55933
7.56126
7.5618
7.56085
7.55832
7.55422
7.54873
7.54179
7.53318
7.52277
7.51049
7.49658
7.48127
7.46474
7.44713
7.42824
7.40796
7.38632
7.3634
7.33952
7.31477
7.28914
7.26221
7.23398
7.20434
7.1736
7.14156
7.108
7.07295
7.03614
6.9976
6.95748
6.91587
6.87323
6.83002
6.78652
6.74306
6.69883
6.65422
6.60884
6.56326
6.51667
6.46858
6.41946
6.36877
6.31658
6.26176
6.20522
6.14673
6.08773
6.02751
5.96693
7.66595
7.6728
7.67811
7.68184
7.68385
7.68411
7.68257
7.67944
7.67463
7.66796
7.6599
7.65069
7.64005
7.62783
7.61393
7.59891
7.58282
7.56505
7.54527
7.52322
7.49931
7.47407
7.44768
7.42056
7.39241
7.36277
7.33174
7.29926
7.26614
7.23275
7.19953
7.16533
7.13049
7.09443
7.05795
7.02049
6.9813
6.94074
6.89855
6.85464
6.80895
6.76131
6.71244
6.66304
6.6136
6.56526
6.51605
6.46749
6.41842
6.37071
6.3226
6.27262
6.22227
6.17044
6.1178
6.06158
6.00417
5.94423
5.88499
5.82403
5.76313
7.6929
7.68836
7.68215
7.6748
7.66573
7.65526
7.64268
7.62949
7.61478
7.59738
7.57858
7.55927
7.5384
7.51607
7.49134
7.46577
7.4405
7.41387
7.38519
7.35313
7.31836
7.28274
7.24582
7.20833
7.17074
7.13159
7.09091
7.04753
7.00321
6.95934
6.9179
6.87581
6.83464
6.7926
6.75177
6.71088
6.66699
6.62105
6.5743
6.52687
6.47716
6.42459
6.37034
6.31518
6.25977
6.20732
6.15281
6.10066
6.04776
5.9993
5.9517
5.90084
5.85048
5.79877
5.74757
5.69076
5.63405
5.57351
5.51622
5.45637
5.39757
7.5399
7.52154
7.49988
7.47921
7.45568
7.43439
7.40882
7.38587
7.36281
7.33679
7.30868
7.28099
7.25071
7.22026
7.18444
7.14617
7.11164
7.07828
7.04505
7.00695
6.96027
6.91589
6.86976
6.82111
6.77413
6.72685
6.6803
6.62771
6.56922
6.51197
6.4611
6.40978
6.36201
6.31444
6.27316
6.23389
6.18847
6.13669
6.08575
6.03788
5.98872
5.93372
5.87523
5.81644
5.75625
5.70143
5.64082
5.58539
5.52747
5.48103
5.4369
5.38568
5.33729
5.28805
5.24083
5.18408
5.12972
5.06891
5.0158
4.95935
4.90585
3.73284
3.78015
3.82874
3.87859
3.92975
3.98235
4.03631
4.09178
4.14849
4.20641
4.26564
4.32592
4.38705
4.45137
4.5301
4.6035
4.67512
4.74749
4.82063
4.89468
4.96966
5.04562
5.12242
5.20003
5.27823
5.3568
5.43562
5.5145
5.59325
5.67153
5.74925
5.8261
5.90168
5.97578
6.04804
6.11793
6.18497
6.24874
6.30551
6.3472
6.37581
6.39216
6.39621
6.3873
6.36445
6.32624
6.27082
6.19588
6.09873
5.97623
5.82463
5.63946
5.41574
5.14632
4.8331
4.26076
3.99278
3.85218
3.79491
3.76969
3.72278
4.5763
4.53972
4.50236
4.46432
4.42565
4.38702
4.3482
4.30995
4.27179
4.23413
4.19765
4.1566
4.11154
4.06895
4.02156
3.97549
3.92956
3.88352
3.83786
3.79285
3.7485
3.70454
3.66087
3.61744
3.57416
3.53104
3.48809
3.4454
3.40299
3.36092
3.3193
3.27826
3.2379
3.19846
3.16017
3.12333
3.08833
3.05577
3.02611
3.00141
2.97884
2.95854
2.94078
2.92615
2.91555
2.90988
2.91015
2.91766
2.93386
2.96003
2.99743
3.04718
3.11044
3.19032
3.27391
3.40341
3.56987
3.8304
4.20107
4.69031
5.06322
5.30715
5.25792
5.20789
5.15678
5.10457
5.05179
4.99875
4.94592
4.89294
4.83971
4.78387
4.71992
4.65607
4.59564
4.5354
4.47583
4.41561
4.35469
4.29342
4.23223
4.17118
4.11
4.04867
3.98715
3.92534
3.86324
3.80082
3.73809
3.67499
3.61151
3.54764
3.4834
3.41881
3.35393
3.28882
3.22358
3.15832
3.09316
3.02824
2.96381
2.89982
2.83591
2.77251
2.71053
2.65026
2.59225
2.5373
2.48662
2.44178
2.40487
2.3786
2.36641
2.37289
2.40367
2.46116
2.55712
2.6941
2.90194
3.22364
3.71016
4.33263
5.73719
5.68204
5.62622
5.56938
5.51114
5.45232
5.39325
5.33459
5.27577
5.21617
5.15058
5.07872
5.009
4.9429
4.87799
4.81391
4.74951
4.68489
4.62014
4.55559
4.49115
4.42637
4.36139
4.29624
4.23079
4.16508
4.09907
4.03274
3.96597
3.89873
3.83099
3.76277
3.69409
3.62502
3.55561
3.48593
3.41607
3.34607
3.27594
3.20571
3.13534
3.06477
2.99344
2.9211
2.84849
2.7757
2.70296
2.63067
2.5595
2.49046
2.42493
2.36499
2.31345
2.27404
2.25025
2.24801
2.27508
2.34853
2.49678
2.76174
3.1778
5.92553
5.86701
5.80806
5.74821
5.68648
5.62412
5.56144
5.49956
5.43741
5.37423
5.30353
5.22883
5.15709
5.08902
5.02216
4.95617
4.89007
4.82455
4.75938
4.6948
4.63042
4.56542
4.50028
4.43509
4.36958
4.30391
4.23793
4.17164
4.10481
4.03745
3.96953
3.90115
3.83237
3.76331
3.69405
3.62469
3.55532
3.48601
3.41675
3.34757
3.27845
3.20943
3.14039
3.07084
3.00045
2.9294
2.85774
2.78553
2.71294
2.64027
2.56791
2.49644
2.42677
2.36009
2.29782
2.24264
2.20023
2.18097
2.2012
2.2853
2.4642
5.90557
5.84533
5.78494
5.72391
5.66008
5.5956
5.53046
5.46685
5.4031
5.33871
5.26601
5.19138
5.12002
5.05277
4.98617
4.92045
4.8545
4.79017
4.72669
4.66432
4.60224
4.53902
4.47598
4.41324
4.3501
4.28695
4.22336
4.1595
4.09487
4.02966
3.96377
3.89757
3.83109
3.7646
3.69809
3.63177
3.56568
3.49995
3.43455
3.36957
3.30498
3.24088
3.17726
3.114
3.05066
2.98671
2.92217
2.85709
2.79152
2.72557
2.65932
2.59283
2.52609
2.4591
2.39164
2.32417
2.25887
2.20078
2.15856
2.14528
2.17958
5.70017
5.63963
5.57932
5.51922
5.45434
5.38905
5.32231
5.25865
5.19505
5.13206
5.05931
4.98677
4.91744
4.85348
4.789
4.72573
4.66142
4.60026
4.54019
4.48177
4.42369
4.36337
4.30416
4.24614
4.18733
4.1287
4.06917
4.00961
3.9487
3.88724
3.82487
3.76268
3.70037
3.63857
3.5769
3.51584
3.45518
3.39531
3.33606
3.2777
3.22009
3.16349
3.1078
3.053
2.99887
2.94507
2.89077
2.83599
2.78087
2.72558
2.67017
2.61466
2.55888
2.5024
2.4446
2.38481
2.32302
2.26078
2.20166
2.15187
2.12113
5.33378
5.27397
5.21536
5.15881
5.09423
5.02978
4.96223
4.90049
4.8391
4.7803
4.70885
4.63971
4.57335
4.51486
4.45372
4.39487
4.33325
4.27702
4.22173
4.16821
4.11514
4.05795
4.00376
3.95297
3.89999
3.84703
3.79219
3.73824
3.68159
3.62468
3.56636
3.50963
3.45282
3.39758
3.34228
3.28821
3.23434
3.18195
3.1305
3.08078
3.03208
2.98502
2.9394
2.89489
2.85138
2.8089
2.76636
2.72327
2.68011
2.63714
2.59469
2.55272
2.51111
2.46936
2.42674
2.38232
2.3353
2.28544
2.23352
2.18175
2.13432
4.84228
4.78296
4.72816
4.67803
4.61545
4.55331
4.48537
4.4283
4.37173
4.31969
4.25068
4.18537
4.12187
4.07088
4.01346
3.96097
3.90239
3.85291
3.80328
3.75401
3.70599
3.65099
3.60289
3.56339
3.51671
3.46818
3.41721
3.36995
3.31653
3.26378
3.20849
3.15908
3.10833
3.0614
3.01291
2.96687
2.91915
2.87501
2.83239
2.79296
2.75463
2.71841
2.68414
2.65103
2.61792
2.5854
2.55322
2.52029
2.48893
2.45798
2.42991
2.40293
2.37781
2.35291
2.32811
2.30204
2.27406
2.24316
2.20928
2.17199
2.1327
3.63068
3.52736
3.4152
3.29509
3.17288
3.05205
2.93533
2.82619
2.72772
2.64198
2.56985
2.51131
2.46544
2.43079
2.40557
2.38799
2.37631
2.36924
2.36569
2.36478
2.36592
2.36865
2.37268
2.37783
2.38405
2.3913
2.39939
2.40842
2.41833
2.42907
2.44058
2.45281
2.46568
2.47903
2.49272
2.50659
2.52041
2.53397
2.54705
2.55945
2.57093
2.58128
2.59039
2.59819
2.60467
2.60998
2.61428
2.61782
2.62092
2.62399
2.62737
2.6313
2.63599
2.64163
2.64812
2.65536
2.66305
2.67104
2.67886
2.68593
2.69163
5.0647
4.99592
4.87873
4.70655
4.51406
4.30424
4.07583
3.83496
3.59023
3.34955
3.11911
2.90528
2.71185
2.54008
2.39012
2.26315
2.1587
2.0744
2.0069
1.95352
1.91173
1.87923
1.85418
1.83523
1.82098
1.8115
1.80525
1.80249
1.80264
1.80553
1.81093
1.81859
1.82827
1.83962
1.85233
1.86603
1.88023
1.89448
1.90819
1.92079
1.93157
1.93979
1.94458
1.94511
1.9407
1.93083
1.91523
1.89412
1.86826
1.839
1.80809
1.7776
1.74967
1.7261
1.70792
1.69583
1.68944
1.68816
1.69064
1.6955
1.70056
4.84674
5.21845
5.43073
5.45732
5.32897
5.13567
4.88069
4.58599
4.27029
3.94527
3.62265
3.31403
3.02682
2.76619
2.53532
2.33571
2.16606
2.02259
1.90239
1.8046
1.72676
1.66589
1.61895
1.58304
1.5561
1.53577
1.5215
1.51179
1.50615
1.50393
1.50467
1.50795
1.51328
1.52013
1.52801
1.53639
1.54474
1.55256
1.55924
1.56417
1.56672
1.56629
1.56232
1.55426
1.54166
1.52416
1.50159
1.47404
1.44197
1.40633
1.36869
1.33132
1.29695
1.26839
1.248
1.23774
1.23843
1.2501
1.27193
1.30273
1.34073
3.70458
4.29188
4.86144
5.31312
5.54929
5.60366
5.49261
5.25006
4.93879
4.5812
4.20318
3.83005
3.47388
3.14579
2.85144
2.59127
2.36282
2.16418
1.99451
1.85318
1.7381
1.6469
1.57633
1.52267
1.48238
1.45257
1.43126
1.4168
1.40797
1.40373
1.40338
1.40628
1.41174
1.41901
1.42738
1.43614
1.44461
1.45208
1.45783
1.46109
1.46113
1.45726
1.44885
1.43539
1.41648
1.39195
1.36184
1.32647
1.28641
1.24262
1.19659
1.1506
1.10767
1.07146
1.04587
1.0345
1.03947
1.06132
1.09934
1.15239
1.2194
2.75834
3.17876
3.71309
4.30717
4.86013
5.29142
5.54672
5.59814
5.47793
5.2167
4.85994
4.47007
4.06768
3.67807
3.31815
2.99102
2.69848
2.43895
2.21394
2.02397
1.86677
1.74065
1.64228
1.56706
1.51028
1.46796
1.43728
1.41608
1.40255
1.39516
1.39292
1.39507
1.40075
1.409
1.41893
1.42969
1.44044
1.45034
1.45852
1.46409
1.46614
1.46389
1.45656
1.44353
1.42426
1.39853
1.36635
1.32802
1.28402
1.23526
1.18313
1.12982
1.07838
1.03278
0.998152
0.980198
0.983058
1.00889
1.05822
1.12983
1.22157
2.28325
2.48002
2.78971
3.21766
3.73736
4.29477
4.81439
5.21369
5.44127
5.48213
5.34811
5.08156
4.7172
4.3091
3.90558
3.51632
3.15843
2.83452
2.54331
2.29076
2.0798
1.90978
1.77687
1.67484
1.59724
1.53862
1.49531
1.46458
1.44403
1.43147
1.42559
1.42547
1.43012
1.43836
1.44915
1.46147
1.47433
1.48679
1.49785
1.5065
1.51169
1.51256
1.50821
1.49792
1.48096
1.45705
1.42607
1.38829
1.344
1.29403
1.23958
1.18274
1.12642
1.0745
1.03239
1.007
1.00419
1.02878
1.08363
1.16853
1.28084
2.12302
2.17516
2.29815
2.51221
2.82943
3.24684
3.73788
4.24986
4.71529
5.06799
5.26062
5.28036
5.14331
4.88049
4.53657
4.13814
3.73869
3.35681
2.99005
2.66122
2.3803
2.15187
1.97326
1.83548
1.72973
1.64861
1.58753
1.54318
1.51244
1.49202
1.48015
1.47568
1.4775
1.48417
1.49444
1.50712
1.52108
1.53524
1.54848
1.55966
1.56763
1.5715
1.57023
1.56309
1.54909
1.52796
1.49943
1.4638
1.42115
1.37231
1.31832
1.2612
1.20371
1.14951
1.10384
1.07371
1.06646
1.08926
1.14757
1.24309
1.37338
2.09806
2.083
2.10272
2.17395
2.3144
2.53888
2.85394
3.25022
3.70004
4.15539
4.55725
4.85301
5.01201
5.02107
4.89339
4.65147
4.33172
3.96245
3.5457
3.14356
2.77861
2.47529
2.23797
2.05371
1.91064
1.79894
1.71298
1.64905
1.60384
1.5721
1.55142
1.54008
1.53695
1.54022
1.54838
1.56002
1.57383
1.58856
1.60294
1.61572
1.62568
1.63191
1.63331
1.62915
1.61816
1.6001
1.57456
1.54183
1.50184
1.45543
1.40355
1.34812
1.29177
1.23799
1.19174
1.15989
1.15062
1.17286
1.2344
1.33934
1.4858
2.09408
2.06058
2.03983
2.04184
2.07954
2.16762
2.32027
2.54729
2.84895
3.21402
3.60929
3.9992
4.3406
4.59758
4.73887
4.75444
4.64547
4.41745
4.10465
3.70484
3.2671
2.88824
2.58762
2.34861
2.15519
2.00056
1.87879
1.78784
1.72255
1.67457
1.64141
1.61986
1.60897
1.60667
1.61083
1.61981
1.63209
1.64613
1.66054
1.67368
1.68479
1.69248
1.696
1.69437
1.68635
1.67132
1.64928
1.61967
1.5831
1.53972
1.49119
1.43877
1.38517
1.33399
1.28944
1.25832
1.24915
1.27247
1.33708
1.4503
1.60935
0.303194
6.61039
6.31727
0.210548
0.368455
0.127107
0.00315844
2.35813
0.00338513
0.023342
3.32333
1.06329
0.0031603
5.86912
0.111465
5.50062
0.00326244
2.45396
3.62554
0.00315397
0.210109
5.69847
6.33381
0.00329506
0.00333841
0.10538
0.00315614
0.5097
0.00324871
0.00346278
0.708556
0.00324158
0.0162715
2.51031
0.780181
3.40155
2.54269
1.54556
0.00316314
2.59196
1.91435
2.09692
0.00321009
4.77714
3.07019
0.281563
0.00360819
0.0153086
0.134592
1.08478
6.51694
7.84911
0.00310636
0.00405722
0.0367695
0.00811913
0.0034539
0.690393
2.41345
7.54169
2.48952
0.00370629
0.143989
0.0320669
6.61962
0.462166
1.9823
1.68977
0.00430359
0.0032131
1.22204
2.52728
1.74061
0.0152342
0.0391026
4.0634
6.93242
3.22941
0.0031072
0.92414
0.0071385
2.59474
0.0106318
4.81992
0.00321792
1.05449
0.00336783
2.22926
0.0146668
0.00492875
0.120277
0.00310343
0.00379072
7.70732
5.61755
0.00360089
0.43751
0.302472
0.00602691
6.70915
0.220355
2.58643
0.741767
0.00310018
0.00316387
0.00309686
0.306884
0.125061
0.00323822
6.2303
6.89939
0.00923153
4.4258
1.52735
2.53449
2.74699
1.78376
0.00389411
0.0858931
0.00418692
0.00436587
3.32019
0.00736052
7.48234
7.75542
0.958422
0.00321509
1.01179
1.01829
0.00321079
0.0339883
0.0336244
1.72567
0.00570599
3.064
0.00322058
0.00315895
7.75329
7.89459
0.00323164
0.165928
5.76181
0.104727
0.301065
1.56822
4.81111
0.0383989
1.65258
0.0121251
6.99315
1.24421
0.00842317
2.77968
4.75566
6.43767
0.00330511
0.00327119
0.216945
0.00311661
1.9551
0.0303295
0.00509976
0.00319654
0.00322009
0.00323674
2.79186
1.75166
1.59023
0.00331374
6.63623
4.69042
3.16614
4.8695
0.0138904
3.56934
1.69573
1.89535
0.00324401
0.00570545
2.90895
3.07375
2.1467
3.82014
0.00321684
0.00352678
4.73175
0.0362322
0.562874
0.00323813
0.00360425
0.104643
0.00338568
7.81439
0.678131
0.00310697
0.255312
1.81438
5.41011
0.00447441
1.93828
0.00321915
0.00323496
4.91258
2.42572
7.21294
0.00451799
0.00340091
0.00760836
2.7859
2.22039
1.07518
5.0832
1.5643
7.01694
0.189646
4.34745
4.18263
2.02205
1.33754
2.33404
0.00489883
0.0370749
0.00322664
0.003197
1.82103
0.0182764
0.0202982
0.0057423
0.0130358
2.73475
4.50178
0.0188324
5.99568
1.06379
0.421695
0.00318319
0.165497
2.76182
1.01984
0.00412421
1.20653
1.11798
0.179955
0.268058
7.37114
0.790874
0.489384
5.22432
0.00383299
0.00315926
0.00404772
0.0104463
1.74849
0.00336089
0.0065577
0.00316316
0.38373
4.08205
4.0055
2.75217
1.28729
1.41211
7.72261
0.00432463
2.08409
4.54422
0.00321043
1.9365
0.00321736
4.05729
0.382346
1.55272
0.00535609
0.00322066
1.85371
0.501737
0.00323897
0.003239
0.00325327
0.00324552
0.358188
1.63003
2.98867
0.0145832
0.00324062
0.00316314
0.00309824
4.76222
0.231607
0.00448598
1.69095
0.0881028
0.0401504
0.00309215
0.262991
0.00323974
0.0519542
1.48151
4.57135
0.300314
0.003915
0.00598649
3.21993
0.142277
1.96124
7.67315
0.00350587
0.00319777
0.00318726
5.88377
0.00331603
4.7973
0.00322195
1.95126
1.21195
0.0268685
2.82772
3.96833
0.00469552
2.73261
2.68325
1.6653
4.78029
1.12439
7.88969
2.46613
3.99663
3.62043
4.56293
1.73159
0.158554
7.82093
7.44678
3.01095
2.14643
0.00393411
6.87842
2.65056
6.94947
0.0276179
0.00359503
0.00321507
0.00343034
0.175642
0.419649
0.706082
0.0927402
0.00317236
6.16396
0.00321571
1.47833
1.95987
6.48464
2.56211
1.81427
0.00600526
0.00426566
0.0852641
2.76789
0.0103841
0.748243
5.03604
2.05339
4.13791
6.1941
3.31361
0.00346625
7.45077
5.59587
1.76506
0.00323656
6.49311
5.82027
0.00333778
1.98825
0.00324045
6.7496
5.4351
1.87629
4.20004
2.43498
5.78213
0.00328794
5.77036
0.00387551
3.66515
3.98954
1.90904
7.42628
0.711857
0.213298
0.543318
0.00424805
4.2959
0.142787
0.00814418
0.00504633
4.34992
0.00384257
4.36017
0.00319006
0.00323725
0.00598036
1.82801
0.105871
1.85837
0.00573771
4.27335
0.164103
6.78234
4.36542
2.67712
6.11444
0.00337668
7.43043
2.86594
0.00321374
3.91537
2.07597
0.00310172
0.00316721
3.37826
0.00645677
1.91831
0.0849716
2.33522
0.0268877
0.606417
2.69862
4.78601
2.43133
3.91729
3.76965
0.00393325
0.0213286
1.68704
1.72316
7.67645
6.35559
5.39143
0.0659703
5.22425
5.19965
0.499534
1.74194
2.91836
2.09224
0.00346871
4.12268
7.89404
0.00417043
4.45301
1.84349
2.94649
0.0243407
0.0683228
6.04093
0.00601248
7.67165
0.00463033
0.258111
0.00320367
0.973946
2.31753
0.231181
0.00481059
0.00368979
2.69518
1.61459
0.0879634
0.39955
5.72707
4.084
0.00446807
1.42591
1.65533
3.25745
1.5137
4.19649
1.95607
5.25724
3.21038
0.472302
0.985676
7.56563
1.94521
7.76858
6.17651
0.0321868
3.2687
2.88039
0.00337046
1.81197
1.62456
1.34583
0.017248
4.88256
1.47567
0.691314
1.94785
0.00544063
0.00321561
0.0456795
2.4057
4.54748
2.59766
0.00322166
0.00318717
0.00321789
1.71537
0.0274268
0.00321663
0.125097
4.47826
4.83404
0.0105822
0.0108127
0.00315339
0.00320525
0.00603367
1.76916
1.76607
1.69554
0.453243
7.64247
5.8239
0.0052453
3.31961
1.83627
1.94158
4.0443
7.47864
0.00345615
0.0105372
0.00324122
3.85756
0.244035
0.0031685
1.34433
0.162937
7.58764
0.00323861
7.78348
1.12632
0.0482521
6.64057
0.00323519
0.00319846
0.00405066
7.82064
3.22126
5.39019
4.92837
1.05958
1.76208
0.00312493
0.00605011
0.0851415
0.0137703
0.0252507
1.98977
2.14749
0.00322643
1.29688
1.84225
6.37633
7.81022
0.00828304
7.77822
0.00593828
0.0304951
3.4506
0.00320472
5.67969
0.00324128
0.00337301
0.0219474
2.14797
0.620737
2.56864
1.9135
0.00365928
1.76444
4.63533
0.0554729
0.206375
0.856657
0.00332023
0.0032713
0.00692425
5.44284
0.540359
0.00335032
7.42071
5.80224
6.82945
0.0341716
2.04466
0.00419376
2.37752
0.167259
0.0918048
2.67715
1.67056
1.92351
6.21597
0.00327635
0.00313103
0.0105845
4.17086
4.69856
0.960807
0.0139512
0.00333169
0.00324269
0.00887713
0.02419
0.00663934
2.19288
1.72337
0.0115213
1.57222
6.17348
0.00327259
2.39089
0.00321767
0.544949
0.00324486
0.0222444
2.43157
0.0201868
0.00320632
0.755802
7.91034
7.17286
0.00318714
0.00326168
0.387432
0.0252299
0.00321719
4.37017
0.00370948
1.67854
7.90696
2.33267
1.70764
2.46037
3.68328
7.69088
0.00323239
0.00742009
0.0146472
4.24755
1.45117
6.59478
0.703542
0.35356
4.32277
3.49044
5.19212
0.758208
2.79554
0.00322322
0.360044
1.69031
2.47852
3.97547
2.00027
0.227611
2.49947
0.102294
0.00923391
1.76083
0.0032428
5.58022
0.00366341
0.382846
7.51198
2.73814
0.561887
0.00743183
0.766738
0.00330391
0.00319225
0.107815
0.0226531
1.79882
0.0154528
1.74283
0.00322181
0.0281722
0.00316543
4.57682
0.00504522
4.13991
2.52427
0.0221115
1.94511
7.5277
0.00326194
1.73983
4.27728
0.00335163
7.47843
0.0592544
0.00347367
0.00339337
7.27793
0.00317847
0.00429723
0.0875768
0.100657
7.1504
7.36755
0.0032212
0.00326969
1.1202
2.28425
0.01468
0.260749
1.98223
0.00321871
0.00384549
0.00372428
6.13118
7.37125
0.495856
7.11101
0.0262696
1.61128
0.00331724
0.0148825
0.0250624
0.0360308
0.00323188
6.74848
0.00320129
0.0251848
0.00332158
0.257501
0.0226372
0.0156084
0.454712
0.679688
2.29673
0.411604
1.05263
1.82301
5.01092
0.00344197
4.71934
7.77486
1.13508
4.03892
0.00327738
4.3518
4.02378
0.00321774
7.43674
2.32643
0.00822956
0.0111979
5.94338
5.72497
0.0610286
7.68549
7.35626
0.785168
7.35135
7.35452
4.93999
1.93903
1.69531
0.971951
7.36046
7.5869
0.022076
7.3881
2.66989
4.38303
0.00343194
0.338769
0.411856
6.88927
6.04015
0.0203394
4.27344
6.50133
0.459016
0.0329949
0.38643
1.81449
0.00537438
1.85086
6.97503
0.0337323
6.84325
1.39463
4.5181
6.46307
0.0032239
0.00564486
1.04256
0.699661
0.018024
0.00321922
0.191335
0.259212
0.00451904
0.00323651
4.21538
0.981089
3.17416
1.01556
0.00867836
0.00418091
0.094903
3.37702
0.00346739
1.87134
1.69744
0.476162
2.32296
0.00398048
0.11707
0.00320303
0.344718
4.34912
0.00435463
0.118676
2.10809
5.78615
0.225282
3.97553
0.601002
0.178358
0.00392792
2.41981
7.79722
0.00321271
0.0032798
5.76232
0.0246639
0.00323567
3.88909
0.246293
1.95393
2.00789
1.4935
0.146296
1.69241
3.52231
5.90204
4.25959
0.00327856
5.43326
0.0038934
2.63052
0.00339231
0.00453772
2.11609
0.00653498
3.89993
0.0206986
0.0400028
1.87135
0.73428
0.0623849
0.00368481
6.39868
0.00365367
0.00315116
7.87616
5.99323
2.77945
1.93285
0.00344134
0.00307583
1.83454
5.75921
0.00319927
6.65846
1.70766
0.00324502
6.04887
0.00311503
0.355113
0.896386
1.335
0.359825
1.61072
1.94315
0.00311132
7.39001
7.39615
0.00321772
0.0166163
1.92597
0.00312876
7.05973
5.29418
4.41545
0.00321981
0.00317032
3.39319
0.0402079
0.00350042
1.85085
1.74037
4.06082
0.00315213
0.00337401
0.024471
0.0194045
0.00321852
0.00639012
5.2295
2.89205
0.00322406
1.36241
0.00321542
0.715451
0.00419838
0.0035953
2.24294
0.00326461
0.12431
0.00317608
3.04765
0.179121
1.75932
6.33589
4.39694
3.53959
0.809161
1.20579
0.00323551
0.922385
7.42573
4.07623
0.10735
0.00347364
5.36457
0.00321577
0.030285
0.00315418
7.21444
0.782868
0.369213
6.54722
2.24364
0.487273
4.18301
0.727422
6.86347
4.52184
0.00331511
0.00326841
0.00825228
0.00322797
0.0229067
4.50916
0.00376884
7.20799
0.00603194
0.0801285
0.579117
4.5818
0.00485573
2.78624
0.0167416
3.17219
2.40576
6.98334
0.00339058
0.00383212
0.265746
3.64728
1.65266
3.64943
0.422789
1.04555
1.69664
0.0504355
1.05539
0.24215
1.68699
0.00328077
4.35927
0.41419
3.09335
0.00336776
3.00198
0.995988
0.00461529
1.65752
1.75915
0.0658947
0.00314579
0.00321987
4.70376
2.77064
1.37347
0.00320955
0.01769
2.00411
6.38169
0.445924
0.0126866
0.00322213
5.67115
5.38754
2.08034
2.63514
0.00321564
3.4736
7.50145
0.00321125
0.00321808
1.25896
0.00411129
0.00992578
0.0313828
1.968
0.00409253
2.21256
7.75655
0.00319986
0.00345503
0.00316664
0.00331046
3.74977
4.65257
7.84239
0.0291686
2.42703
2.20311
0.086935
2.94001
0.00347217
1.69254
0.221103
2.08068
0.68768
1.67178
3.04261
0.0259291
0.0032392
5.97255
4.50342
4.54423
0.897103
1.78889
0.17501
1.60123
0.00930112
0.0048532
3.30162
5.64824
0.0212919
0.130451
0.00324747
0.0785769
1.876
0.0274407
1.05034
0.720606
3.80869
2.16371
0.432545
6.70693
5.48906
2.95773
1.62066
4.05349
3.55946
0.558067
2.61521
0.00617149
2.76068
2.89839
0.00320431
0.00313355
0.124528
0.00322859
0.00332342
3.02303
4.37316
0.00322124
3.23504
0.00321664
0.0031929
0.00321835
0.00325703
0.00594213
1.945
2.81296
7.18572
0.00315608
0.00390977
0.949103
0.00356307
0.03294
0.00324576
0.00360964
4.23146
0.00391991
0.0109994
2.81594
0.0105128
0.0032203
3.79408
0.00321534
0.00326941
0.248503
0.00361093
0.936687
0.00455601
0.030306
0.00320449
0.00325259
7.605
7.69736
2.82092
0.0265741
2.8684
1.56687
0.00471133
1.76869
4.1924
7.0041
4.59352
0.003125
1.94181
2.56401
0.147149
1.738
4.50589
0.1736
2.06452
0.206037
1.71634
0.0375324
1.00224
0.00323498
6.87399
0.00328553
1.79533
2.46685
0.00321561
0.313326
0.00734851
0.0199993
0.00317358
0.758331
0.00367346
0.00321906
2.53848
0.00870346
0.111002
6.94836
1.93797
0.00344996
0.00386738
2.38682
7.2967
0.00309414
0.00324886
0.0712051
1.38293
5.59139
0.00657049
1.62916
0.00321956
0.00345042
0.00314633
0.0350613
1.00199
0.0100987
6.36396
1.82124
7.28474
6.18031
0.00352741
7.30031
3.74147
0.00317896
0.00322632
0.00321816
0.00440495
0.00320356
3.70081
0.0032083
0.00324299
6.63886
0.324445
0.00779816
0.022579
1.96915
0.910078
0.00815171
0.00346472
6.40153
0.00324547
0.812267
0.00325886
0.00353185
6.03155
5.93676
0.00875175
0.00350238
0.324611
0.00320685
6.71383
0.00325249
5.73555
0.0254877
0.738636
0.0352972
0.371767
0.364089
1.53213
0.00324294
0.00357527
0.0116399
3.3771
0.122022
7.58546
0.003221
0.00456704
0.00557474
7.2606
2.81036
3.0776
0.00692015
0.00894189
0.212668
0.00322407
1.24653
2.44199
0.0170866
5.74816
6.22675
1.9695
0.00534995
0.385817
2.85241
6.9526
1.79993
0.0187905
3.00409
0.0606142
5.38986
0.0921167
0.516923
2.72729
0.00324367
1.7618
0.00456258
0.0119331
0.00818435
0.0504316
0.00371268
1.25887
0.00322739
3.08534
0.0958716
0.00361171
0.223471
0.00323206
0.284784
0.118394
2.30851
0.469742
4.68333
0.243727
0.0032175
0.00319267
0.749801
0.0925636
2.8776
7.30405
0.0032247
3.76615
2.68554
0.0233558
2.04482
0.55798
2.36297
2.18115
0.0327406
0.00590898
7.20832
1.55636
5.91436
0.0032112