/*--------------------------------*- C++ -*----------------------------------*\
| =========                 |                                                 |
| \\      /  F ield         | OpenFOAM: The Open Source CFD Toolbox           |
|  \\    /   O peration     | Version:  2.3.1                                 |
|   \\  /    A nd           | Web:      www.OpenFOAM.org                      |
|    \\/     M anipulation  |                                                 |
\*---------------------------------------------------------------------------*/
FoamFile
{
    version     2.0;
    format      ascii;
    class       volVectorField;
    location    "0.48";
    object      U;
}
// * * * * * * * * * * * * * * * * * * * * * * * * * * * * * * * * * * * * * //

dimensions      [0 1 -1 0 0 0 0];

internalField   nonuniform List<vector> 
9648
(
(0.163685 -4.77007 -3.54927e-23)
(0.28178 -4.74228 -9.78305e-23)
(0.400242 -4.70809 0)
(0.520286 -4.67838 0)
(0.641132 -4.65336 9.9852e-21)
(0.76303 -4.63492 1.54668e-20)
(0.888324 -4.62599 -2.76689e-20)
(1.0196 -4.62955 -1.27561e-20)
(1.15836 -4.64659 1.27251e-20)
(1.30476 -4.67896 3.85268e-20)
(1.46086 -4.72826 -3.83679e-20)
(1.6285 -4.79548 -5.51948e-20)
(1.80968 -4.8812 2.93414e-19)
(2.00646 -4.98538 7.58546e-20)
(2.22053 -5.10728 -7.11757e-19)
(2.45315 -5.24567 0)
(2.70552 -5.39883 0)
(2.97853 -5.56472 1.29363e-19)
(3.27286 -5.74076 4.16919e-19)
(3.5886 -5.92415 -1.19962e-18)
(3.92572 -6.11228 -2.09051e-20)
(4.28412 -6.30209 3.30525e-19)
(4.6631 -6.4906 3.90685e-19)
(5.06195 -6.67505 -1.77574e-18)
(5.47982 -6.85282 0)
(5.91569 -7.02142 1.06381e-18)
(6.36829 -7.17842 -1.11606e-18)
(6.83628 -7.32173 0)
(7.31824 -7.44904 0)
(7.81249 -7.55863 -6.78094e-19)
(8.31763 -7.64888 -1.50087e-18)
(8.83188 -7.71831 2.35722e-18)
(9.35352 -7.76575 0)
(9.88069 -7.78977 0)
(10.4115 -7.78981 1.80646e-18)
(10.9444 -7.765 -1.94405e-18)
(11.4775 -7.71499 0)
(12.0093 -7.63948 4.17489e-18)
(12.5381 -7.53805 1.12638e-18)
(13.062 -7.4106 -3.33482e-18)
(13.5793 -7.25717 6.28303e-20)
(14.0884 -7.07821 2.37376e-18)
(14.5878 -6.87358 -3.15393e-18)
(15.0754 -6.64383 6.34456e-19)
(15.5502 -6.38969 0)
(16.0109 -6.1113 0)
(16.4556 -5.80935 4.78887e-18)
(16.8832 -5.48465 7.00903e-19)
(17.293 -5.13817 -2.16636e-18)
(17.6844 -4.76993 -7.29307e-19)
(18.0553 -4.38032 -7.58802e-19)
(18.4039 -3.97181 7.54061e-19)
(18.73 -3.54613 3.89659e-19)
(19.0326 -3.10406 -3.87536e-19)
(19.3106 -2.64733 1.97858e-18)
(19.5636 -2.17699 -1.94844e-18)
(19.7907 -1.69451 -2.16402e-20)
(19.9915 -1.20111 0)
(20.1654 -0.69823 -3.95934e-19)
(20.312 -0.187554 -5.12128e-20)
(20.4313 0.32971 -4.85643e-20)
(-0.0610732 -2.48781 1.27756e-22)
(0.00418867 -2.48519 0)
(0.0720688 -2.49545 0)
(0.145543 -2.51819 5.57588e-21)
(0.223666 -2.56054 -5.90944e-21)
(0.3106 -2.62636 -3.6505e-20)
(0.408415 -2.71502 0)
(0.518742 -2.82381 0)
(0.643421 -2.95295 -4.34887e-20)
(0.782894 -3.10267 0)
(0.938432 -3.27165 -1.04256e-19)
(1.11087 -3.45829 8.2162e-20)
(1.30116 -3.66124 -4.44159e-20)
(1.51026 -3.87889 0)
(1.73894 -4.10934 2.76938e-19)
(1.98753 -4.35043 1.63968e-19)
(2.2564 -4.59987 -1.6132e-19)
(2.54576 -4.85539 2.0963e-19)
(2.85581 -5.11447 -6.38535e-19)
(3.18629 -5.37472 5.08453e-19)
(3.53684 -5.63387 -5.62987e-19)
(3.9072 -5.8893 -3.03343e-19)
(4.29661 -6.13858 -3.11103e-19)
(4.70434 -6.37932 1.06924e-18)
(5.12944 -6.60943 3.70312e-19)
(5.57098 -6.82687 4.40548e-19)
(6.02779 -7.02975 -3.90558e-19)
(6.49865 -7.21614 0)
(6.98242 -7.38432 0)
(7.47765 -7.53275 0)
(7.983 -7.66011 0)
(8.49692 -7.76518 0)
(9.01768 -7.84673 0)
(9.54376 -7.90379 0)
(10.0732 -7.93586 -8.09561e-19)
(10.6047 -7.9422 7.35294e-19)
(11.1363 -7.9226 8.11166e-19)
(11.6668 -7.87665 -4.12086e-18)
(12.1944 -7.80403 -8.74899e-19)
(12.7176 -7.70469 2.69075e-18)
(13.2346 -7.57873 1.88858e-18)
(13.7439 -7.42658 -1.94954e-18)
(14.2439 -7.24808 9.31156e-19)
(14.7328 -7.04393 9.82863e-19)
(15.2094 -6.81476 -1.04518e-18)
(15.6722 -6.56078 1.03588e-18)
(16.1196 -6.28285 -2.22105e-18)
(16.5504 -5.98181 0)
(16.9633 -5.65863 -5.67626e-19)
(17.3573 -5.31348 1.14071e-18)
(17.7319 -4.94688 -5.73242e-19)
(18.0858 -4.56077 0)
(18.4179 -4.15654 1.17868e-18)
(18.7273 -3.735 0)
(19.013 -3.29761 0)
(19.2742 -2.84553 2.79509e-18)
(19.5102 -2.38008 -1.25991e-18)
(19.7204 -1.90287 -3.0656e-19)
(19.9043 -1.41476 3.23601e-19)
(20.0615 -0.917488 0)
(20.1914 -0.412297 8.13945e-20)
(0.04632 -1.43109 -2.71632e-22)
(0.100271 -1.46981 0)
(0.16128 -1.52693 -4.13852e-22)
(0.230714 -1.60741 -2.95859e-22)
(0.308224 -1.70832 0)
(0.397004 -1.82803 3.12059e-20)
(0.498293 -1.96841 2.10141e-20)
(0.613331 -2.12844 0)
(0.743668 -2.30765 2.223e-21)
(0.89113 -2.50451 4.45131e-20)
(1.05674 -2.71782 8.87932e-20)
(1.24119 -2.94561 -3.07728e-20)
(1.44505 -3.18613 0)
(1.66867 -3.43738 0)
(1.91231 -3.69729 2.1013e-19)
(2.17594 -3.96363 -1.33639e-19)
(2.45964 -4.23402 -1.43149e-19)
(2.76328 -4.50624 0)
(3.08668 -4.77812 5.51876e-19)
(3.42943 -5.04766 -5.72967e-19)
(3.79098 -5.31287 -4.28381e-19)
(4.17082 -5.5715 -4.7166e-19)
(4.56821 -5.82125 0)
(4.98226 -6.06009 -8.45378e-19)
(5.41203 -6.28619 -2.97308e-19)
(5.85643 -6.49798 3.5365e-19)
(6.31433 -6.69376 3.90802e-19)
(6.78474 -6.87195 0)
(7.26652 -7.03092 0)
(7.75842 -7.16941 0)
(8.25902 -7.28628 0)
(8.76673 -7.38047 0)
(9.27995 -7.4511 0)
(9.79708 -7.49741 0)
(10.3165 -7.51901 -1.77293e-18)
(10.8366 -7.51534 5.88989e-19)
(11.356 -7.48605 -6.49892e-19)
(11.8731 -7.43079 3.27091e-18)
(12.3865 -7.34937 0)
(12.8946 -7.2419 1.39209e-18)
(13.3959 -7.10863 1.44006e-18)
(13.8887 -6.94981 7.13526e-19)
(14.3716 -6.76562 -8.17832e-19)
(14.8431 -6.55656 -1.57529e-18)
(15.3018 -6.32318 2.45506e-18)
(15.7463 -6.06597 -8.30513e-19)
(16.1754 -5.78572 -1.69466e-18)
(16.5879 -5.48322 0)
(16.9824 -5.15947 0)
(17.3579 -4.81545 -4.62878e-19)
(17.7135 -4.4523 -4.52659e-19)
(18.0482 -4.07091 -9.25912e-19)
(18.3613 -3.67235 -9.69365e-19)
(18.6518 -3.25804 0)
(18.919 -2.82877 -9.59041e-19)
(19.1621 -2.38628 -9.99624e-19)
(19.3806 -1.93131 0)
(19.5737 -1.46601 1.62331e-20)
(19.7409 -0.990736 0)
(19.8819 -0.507227 0)
(19.9967 -0.0165078 -6.19693e-20)
(0.0127777 -0.925466 5.76591e-22)
(0.0701158 -1.00157 -7.68118e-22)
(0.140386 -1.0973 7.07384e-23)
(0.222915 -1.21229 -1.91911e-21)
(0.317455 -1.34543 0)
(0.423751 -1.49639 -1.30287e-20)
(0.543037 -1.66536 -1.814e-20)
(0.676534 -1.85183 0)
(0.82567 -2.05495 3.04335e-21)
(0.991421 -2.27349 -3.80158e-20)
(1.17475 -2.50594 8.52096e-20)
(1.37608 -2.7506 1.02903e-19)
(1.59581 -3.00558 0)
(1.83412 -3.26898 -8.09581e-20)
(2.09124 -3.53871 -1.71639e-19)
(2.36701 -3.81251 -9.13869e-20)
(2.6614 -4.08808 3.51759e-19)
(2.97429 -4.36341 -2.54138e-19)
(3.30532 -4.63671 2.84996e-19)
(3.65407 -4.90633 4.85619e-19)
(4.02006 -5.17039 7.02717e-19)
(4.40258 -5.42662 3.96201e-19)
(4.80105 -5.67289 1.90431e-19)
(5.21454 -5.90743 6.92419e-19)
(5.64212 -6.12885 2.27406e-19)
(6.0827 -6.33587 2.58891e-19)
(6.53528 -6.52685 3.05762e-19)
(6.99906 -6.69998 -9.15148e-19)
(7.4732 -6.85392 6.57194e-19)
(7.95651 -6.9874 7.43083e-19)
(8.4477 -7.09952 -1.51927e-18)
(8.94502 -7.18976 7.7585e-19)
(9.44675 -7.2572 -8.31703e-19)
(9.95156 -7.30141 4.14726e-19)
(10.4579 -7.32185 4.54364e-19)
(10.9644 -7.3178 5.04305e-19)
(11.4697 -7.28873 -4.97931e-19)
(11.9725 -7.2343 -5.42552e-19)
(12.4714 -7.15441 -1.62665e-18)
(12.9651 -7.04934 -1.17378e-18)
(13.4518 -6.91938 -2.38014e-18)
(13.9301 -6.76481 -3.08413e-18)
(14.3986 -6.58588 1.26471e-18)
(14.8557 -6.38297 2.858e-20)
(15.3004 -6.15659 -7.08593e-19)
(15.7312 -5.90727 -6.95252e-19)
(16.1469 -5.63567 4.20383e-18)
(16.5463 -5.34257 -7.04689e-19)
(16.9285 -5.02876 0)
(17.2923 -4.69515 0)
(17.6368 -4.34278 -7.08247e-19)
(17.9611 -3.97284 3.16143e-20)
(18.2644 -3.58631 7.60192e-19)
(18.5459 -3.18433 0)
(18.8048 -2.76818 8.09858e-19)
(19.0403 -2.33916 0)
(19.2518 -1.89845 0)
(19.4388 -1.44699 6.17504e-19)
(19.6009 -0.986342 1.96441e-19)
(19.7378 -0.517945 -2.00199e-19)
(19.849 -0.0432772 1.02461e-19)
(0.0996015 -0.674931 4.00021e-23)
(0.159574 -0.774043 6.72291e-22)
(0.233849 -0.889926 -9.7056e-22)
(0.322959 -1.02321 9.46571e-22)
(0.426349 -1.17383 -2.87064e-21)
(0.544273 -1.34143 5.26039e-21)
(0.677085 -1.5257 2.29957e-21)
(0.825364 -1.72575 -1.33672e-20)
(0.99014 -1.94068 3.94946e-20)
(1.17166 -2.16914 -5.69632e-20)
(1.37061 -2.40958 6.39633e-20)
(1.58685 -2.66035 -7.948e-20)
(1.82066 -2.91958 -4.58373e-20)
(2.07188 -3.18538 0)
(2.34082 -3.45552 8.39208e-20)
(2.62702 -3.72794 8.03186e-20)
(2.93044 -4.00045 0)
(3.25092 -4.27131 1.9895e-19)
(3.5879 -4.53925 0)
(3.9411 -4.80259 -2.63849e-19)
(4.31 -5.05939 2.87855e-19)
(4.69384 -5.30744 9.88143e-21)
(5.09214 -5.54461 -1.69686e-20)
(5.50385 -5.76984 2.87982e-20)
(5.92816 -5.98205 -8.08871e-19)
(6.36404 -6.18008 -4.64768e-19)
(6.81042 -6.36198 9.56881e-19)
(7.26697 -6.52585 1.03824e-18)
(7.73286 -6.67022 -5.62402e-19)
(8.20702 -6.79427 0)
(8.68835 -6.89771 0)
(9.17471 -6.98023 0)
(9.66448 -7.04136 7.13032e-19)
(10.1563 -7.08025 -2.94695e-18)
(10.6488 -7.09625 1.54184e-18)
(11.1408 -7.08831 -7.84081e-19)
(11.6312 -7.05569 -1.69106e-18)
(12.1188 -6.99824 1.71529e-18)
(12.6024 -6.91598 3.9614e-20)
(13.0808 -6.8095 -9.68966e-19)
(13.5522 -6.67922 1.00105e-18)
(14.0151 -6.52535 1.03545e-18)
(14.4681 -6.34814 0)
(14.9098 -6.14781 -1.05199e-18)
(15.3391 -5.9249 0)
(15.7548 -5.67992 -1.68147e-18)
(16.1556 -5.41349 5.19823e-19)
(16.5405 -5.12635 0)
(16.9085 -4.81919 -6.10254e-19)
(17.2585 -4.49302 -1.47222e-20)
(17.5898 -4.14868 1.30047e-18)
(17.9015 -3.78734 -6.18112e-19)
(18.1927 -3.41007 -3.43908e-19)
(18.4628 -3.01797 6.29697e-19)
(18.7109 -2.6124 -4.86082e-21)
(18.9363 -2.19434 3.28508e-19)
(19.1382 -1.76508 1.58725e-19)
(19.3163 -1.32557 3.35097e-19)
(19.4702 -0.877001 -8.41989e-19)
(19.5997 -0.420888 3.38257e-19)
(19.7043 0.0412223 -4.32914e-20)
(0.176338 -0.542594 -2.9316e-22)
(0.249834 -0.657601 0)
(0.338825 -0.788102 1.72089e-21)
(0.443632 -0.934801 0)
(0.563031 -1.09761 7.24389e-22)
(0.69767 -1.27599 7.21374e-21)
(0.847562 -1.46953 8.29446e-21)
(1.01306 -1.67709 2.58782e-20)
(1.19511 -1.89769 3.66628e-21)
(1.39327 -2.13009 5.63317e-21)
(1.60832 -2.37265 1.11651e-21)
(1.83943 -2.62399 -3.02178e-20)
(2.08704 -2.88219 4.44256e-20)
(2.35026 -3.14529 -1.35303e-19)
(2.63023 -3.41094 1.1503e-19)
(2.92595 -3.67754 -8.37901e-21)
(3.23711 -3.94285 -1.42337e-19)
(3.56396 -4.20574 -1.71712e-19)
(3.90545 -4.46518 0)
(4.26154 -4.71927 2.04758e-19)
(4.63214 -4.96588 8.02875e-21)
(5.01575 -5.20283 -5.29956e-19)
(5.41254 -5.42843 -2.27875e-20)
(5.82111 -5.64243 -2.87082e-19)
(6.24072 -5.84396 1.01458e-18)
(6.67059 -6.03161 3.48288e-20)
(7.10957 -6.203 -3.77477e-19)
(7.55765 -6.35536 -4.09147e-20)
(8.014 -6.48855 0)
(8.47777 -6.6019 0)
(8.94764 -6.6961 0)
(9.4216 -6.77181 0)
(9.89773 -6.8271 0)
(10.3752 -6.86097 5.52201e-20)
(10.8528 -6.87217 -6.60565e-19)
(11.3289 -6.85958 -3.81254e-20)
(11.8031 -6.82254 2.94286e-20)
(12.2742 -6.76118 6.8054e-19)
(12.7415 -6.67602 1.55753e-18)
(13.2035 -6.56804 -2.34969e-18)
(13.6585 -6.43774 1.63608e-18)
(14.105 -6.28503 -8.26077e-19)
(14.5413 -6.11008 0)
(14.9666 -5.91282 9.18165e-19)
(15.3797 -5.69391 0)
(15.7792 -5.45387 9.67088e-19)
(16.1643 -5.19315 -9.89858e-19)
(16.5337 -4.91279 4.65022e-19)
(16.8866 -4.61308 4.96873e-19)
(17.2221 -4.29507 -5.18733e-19)
(17.5394 -3.9596 3.70329e-20)
(17.8377 -3.60791 -1.06702e-20)
(18.1163 -3.24075 1.05581e-18)
(18.3745 -2.85951 -1.08695e-18)
(18.6115 -2.46542 -5.36429e-19)
(18.8264 -2.05977 -2.62683e-19)
(19.0185 -1.64335 -8.35884e-19)
(19.1873 -1.21699 0)
(19.333 -0.781817 5.64943e-19)
(19.4551 -0.339639 -1.45071e-19)
(19.5533 0.108267 0)
(0.274919 -0.479472 0)
(0.362744 -0.60563 0)
(0.467368 -0.74702 -9.74017e-22)
(0.589779 -0.903983 3.96132e-22)
(0.726695 -1.07593 -2.1077e-21)
(0.879721 -1.26178 -1.14577e-20)
(1.04798 -1.4611 5.95521e-21)
(1.23116 -1.67243 -1.84135e-20)
(1.43141 -1.89503 -1.22657e-21)
(1.6461 -2.12769 4.73554e-20)
(1.87764 -2.36885 -8.69916e-20)
(2.12316 -2.6175 0)
(2.38438 -2.87147 0)
(2.6585 -3.12884 1.53885e-19)
(2.94913 -3.38661 9.82056e-20)
(3.25356 -3.64472 -2.16454e-19)
(3.57131 -3.90055 3.50968e-19)
(3.90371 -4.15338 1.47151e-19)
(4.2484 -4.40295 -2.94522e-19)
(4.60623 -4.64572 -1.78352e-19)
(4.97793 -4.87969 2.04673e-19)
(5.36008 -5.10391 -5.44499e-21)
(5.75474 -5.31609 0)
(6.15908 -5.51827 5.27983e-19)
(6.57302 -5.70847 -8.70704e-19)
(6.9964 -5.88443 2.90006e-19)
(7.42657 -6.0434 6.40672e-19)
(7.8656 -6.18266 -1.78332e-18)
(8.31171 -6.30289 3.63287e-19)
(8.76353 -6.40565 0)
(9.22134 -6.49197 0)
(9.68098 -6.56201 0)
(10.1417 -6.61253 5.01697e-19)
(10.6037 -6.64025 1.55145e-18)
(11.0655 -6.64501 -1.04788e-18)
(11.5247 -6.62672 5.77911e-19)
(11.982 -6.58331 6.33384e-19)
(12.436 -6.51665 -1.25618e-18)
(12.8859 -6.42819 0)
(13.331 -6.31851 -1.29123e-18)
(13.7686 -6.1885 6.70702e-19)
(14.1976 -6.03699 3.46976e-20)
(14.6161 -5.8646 -3.1302e-20)
(15.0238 -5.67017 7.39608e-19)
(15.4197 -5.45509 3.13031e-20)
(15.802 -5.22023 -2.36331e-18)
(16.1705 -4.96517 8.00898e-19)
(16.5233 -4.69179 -1.66422e-18)
(16.8602 -4.39944 0)
(17.18 -4.09001 0)
(17.4825 -3.76337 1.75879e-18)
(17.7664 -3.42179 -4.20221e-19)
(18.0313 -3.06516 -9.11744e-19)
(18.2769 -2.69475 -4.38401e-19)
(18.5022 -2.31265 1.40016e-18)
(18.7059 -1.9199 7.06461e-19)
(18.8874 -1.51677 2.44261e-19)
(19.0462 -1.10442 -4.57775e-21)
(19.1827 -0.682936 -2.44492e-19)
(19.2971 -0.254788 0)
(19.3884 0.178165 0)
(0.39014 -0.459738 3.36485e-22)
(0.495698 -0.593916 0)
(0.617174 -0.743156 0)
(0.759823 -0.908022 -5.08035e-22)
(0.914681 -1.08673 0)
(1.08711 -1.27744 4.33827e-21)
(1.27402 -1.47982 5.75523e-21)
(1.474 -1.69196 -1.18548e-20)
(1.69375 -1.91386 0)
(1.92368 -2.14424 -2.83406e-20)
(2.17282 -2.38157 3.77579e-21)
(2.43125 -2.62566 0)
(2.70696 -2.87342 0)
(2.98902 -3.12339 -6.47143e-20)
(3.29072 -3.37014 7.05023e-20)
(3.60362 -3.61848 -8.83507e-20)
(3.92607 -3.86372 -1.01744e-19)
(4.264 -4.10538 0)
(4.61043 -4.34445 1.31673e-19)
(4.96848 -4.57408 -2.7755e-19)
(5.34226 -4.79362 -3.10375e-19)
(5.72055 -5.00453 -3.63668e-19)
(6.11351 -5.20224 -3.27275e-20)
(6.51274 -5.39323 -4.63674e-19)
(6.9203 -5.57141 4.4441e-19)
(7.33754 -5.73387 4.95582e-19)
(7.75706 -5.88002 -5.63593e-19)
(8.18567 -6.00379 3.07819e-20)
(8.62115 -6.11195 4.19876e-20)
(9.05914 -6.20707 -6.53633e-19)
(9.50382 -6.28671 0)
(9.94849 -6.35333 -7.99241e-19)
(10.392 -6.39748 1.58349e-18)
(10.8382 -6.41511 -4.6233e-20)
(11.2847 -6.41103 9.25863e-19)
(11.7252 -6.38583 -9.18009e-19)
(12.1655 -6.33349 1.01246e-18)
(12.6015 -6.26229 1.05799e-18)
(13.033 -6.17217 -2.09169e-18)
(13.4605 -6.06135 1.1454e-18)
(13.8789 -5.9329 1.12745e-18)
(14.2898 -5.7825 1.781e-18)
(14.6885 -5.61299 -6.3402e-19)
(15.0776 -5.42016 0)
(15.4554 -5.209 3.39732e-20)
(15.8188 -4.98029 6.89129e-19)
(16.1703 -4.73047 -6.70063e-19)
(16.5049 -4.46543 7.21676e-19)
(16.8249 -4.18041 0)
(17.1275 -3.8806 0)
(17.4144 -3.56268 -3.95208e-20)
(17.6829 -3.23225 7.75903e-19)
(17.9328 -2.88548 0)
(18.165 -2.52569 3.85547e-19)
(18.3781 -2.15674 3.88973e-19)
(18.5701 -1.77799 -7.92626e-19)
(18.7405 -1.38873 -3.88893e-19)
(18.8877 -0.991491 -2.0666e-19)
(19.0139 -0.583253 0)
(19.1203 -0.170189 0)
(19.2041 0.24636 2.47657e-20)
(0.522068 -0.467181 -9.53643e-22)
(0.651744 -0.60602 1.87569e-21)
(0.789775 -0.758587 -1.61226e-23)
(0.958862 -0.92935 -1.42614e-21)
(1.12804 -1.11154 1.34903e-21)
(1.31957 -1.30685 -7.57572e-22)
(1.52589 -1.50831 0)
(1.73893 -1.71733 1.39872e-21)
(1.9833 -1.93711 -1.40316e-20)
(2.22273 -2.16179 0)
(2.49527 -2.39415 5.77159e-20)
(2.75951 -2.63316 -3.59961e-20)
(3.05325 -2.87485 3.66937e-20)
(3.33579 -3.11778 4.66125e-20)
(3.65125 -3.34765 -6.0942e-20)
(3.97233 -3.58737 -7.45735e-20)
(4.29543 -3.8223 2.46571e-19)
(4.64307 -4.0493 -2.57101e-19)
(4.98413 -4.28042 0)
(5.3375 -4.49774 -8.58559e-21)
(5.72014 -4.70093 7.62345e-19)
(6.08703 -4.90153 -2.89772e-20)
(6.48603 -5.07995 -3.62501e-19)
(6.87394 -5.26298 6.94656e-19)
(7.2732 -5.43079 0)
(7.6884 -5.57878 -4.2751e-19)
(8.09114 -5.71266 -4.38574e-19)
(8.51149 -5.82023 9.72964e-19)
(8.93573 -5.92079 -9.13403e-21)
(9.35412 -6.01428 5.81492e-19)
(9.78814 -6.08674 -1.19281e-18)
(10.2132 -6.15007 1.8898e-18)
(10.6384 -6.18327 -1.35334e-18)
(11.0697 -6.18568 -1.41031e-18)
(11.5051 -6.16788 0)
(11.9242 -6.13527 8.03305e-19)
(12.3542 -6.07291 0)
(12.7684 -6.00393 -1.84829e-21)
(13.1779 -5.91744 9.5616e-19)
(13.5893 -5.80393 -1.77965e-18)
(13.9855 -5.67697 -6.35791e-21)
(14.3788 -5.52756 -1.96739e-18)
(14.7515 -5.36327 0)
(15.121 -5.17316 -5.63701e-19)
(15.4816 -4.96718 2.16276e-18)
(15.8216 -4.74577 -5.50134e-19)
(16.1599 -4.50058 5.82849e-19)
(16.4723 -4.24511 0)
(16.7773 -3.96642 6.00228e-19)
(17.0601 -3.67541 -1.81187e-18)
(17.3324 -3.36245 -2.53199e-20)
(17.5839 -3.04331 0)
(17.8158 -2.70922 6.23234e-19)
(18.0351 -2.36055 -1.87346e-20)
(18.2372 -2.00232 0)
(18.4142 -1.63611 3.51566e-19)
(18.5755 -1.26837 -3.1923e-19)
(18.7083 -0.888376 3.34878e-19)
(18.8225 -0.494571 3.32276e-19)
(18.9236 -0.0929693 -1.66885e-19)
(18.9966 0.307776 -6.31799e-20)
(20.5226 0.852632 1.51088e-19)
(20.5852 1.3795 -5.12245e-20)
(20.6198 1.90981 0)
(20.6262 2.44118 0)
(20.6048 2.97178 8.14389e-19)
(20.5559 3.50051 1.17195e-18)
(20.4795 4.02559 -1.20691e-18)
(20.3759 4.54557 -3.97832e-19)
(20.245 5.05891 3.97764e-19)
(20.0877 5.56455 7.78688e-19)
(19.904 6.0619 -7.79128e-19)
(19.6941 6.54911 -7.57751e-19)
(19.4595 7.02509 3.76891e-18)
(19.2013 7.48875 7.33195e-19)
(18.9201 7.93856 -6.47037e-18)
(18.6164 8.37299 0)
(18.2912 8.79115 0)
(17.9456 9.19206 6.73382e-19)
(17.5805 9.57518 1.98919e-18)
(17.1965 9.93914 -5.11393e-18)
(16.7953 10.2833 -7.48913e-20)
(16.3777 10.6072 1.17241e-18)
(15.9445 10.9096 1.20644e-18)
(15.4972 11.1901 -4.50294e-18)
(15.037 11.4485 0)
(14.5651 11.6849 2.11588e-18)
(14.0815 11.8986 -1.96109e-18)
(13.5883 12.088 0)
(13.0871 12.2527 0)
(12.5796 12.3923 -8.99166e-19)
(12.0669 12.507 -1.6447e-18)
(11.5503 12.5964 2.34487e-18)
(11.0314 12.6606 0)
(10.5112 12.6996 0)
(9.99126 12.7134 1.18505e-18)
(9.47263 12.7023 -1.12722e-18)
(8.95669 12.6662 0)
(8.44474 12.6058 1.77963e-18)
(7.9378 12.5213 3.71458e-19)
(7.43715 12.4129 -1.02823e-18)
(6.944 12.2812 3.57225e-20)
(6.45976 12.1268 4.35468e-19)
(5.98522 11.9503 -4.32757e-19)
(5.52158 11.7522 7.59474e-20)
(5.07001 11.5333 0)
(4.63125 11.2945 0)
(4.20635 11.0362 -1.61629e-19)
(3.79623 10.7595 -3.55761e-20)
(3.40189 10.4653 2.16497e-19)
(3.02405 10.1547 9.04281e-20)
(2.66332 9.82846 1.42324e-19)
(2.32052 9.48759 -1.4418e-19)
(1.99643 9.1333 -9.6887e-20)
(1.69135 8.76678 9.82089e-20)
(1.40599 8.38896 -5.87423e-19)
(1.14075 8.00126 6.41371e-19)
(0.896065 7.60481 -1.35678e-21)
(0.672241 7.2011 0)
(0.469451 6.79121 1.63614e-19)
(0.288051 6.37621 2.22343e-20)
(0.128123 5.95735 2.35433e-20)
(20.2937 0.099219 -8.14863e-20)
(20.3675 0.615053 0)
(20.4133 1.13265 0)
(20.4319 1.65156 9.36093e-19)
(20.423 2.17051 -6.25992e-19)
(20.3868 2.6883 -2.20625e-18)
(20.3237 3.20328 0)
(20.2336 3.71425 0)
(20.1168 4.21976 -1.20201e-18)
(19.9734 4.71813 0)
(19.8037 5.20879 -1.76181e-18)
(19.6082 5.68947 1.16905e-18)
(19.3884 6.15834 -5.80383e-19)
(19.1455 6.61498 0)
(18.8795 7.05906 2.29635e-18)
(18.5909 7.48927 1.0758e-18)
(18.2804 7.90442 -1.07796e-18)
(17.9492 8.30331 1.02572e-18)
(17.598 8.68531 -3.03126e-18)
(17.2278 9.04921 2.04172e-18)
(16.8399 9.39387 -1.98325e-18)
(16.4352 9.71883 -1.01124e-18)
(16.0149 10.0229 -9.14797e-19)
(15.5801 10.3053 2.65492e-18)
(15.132 10.5654 8.51042e-19)
(14.6715 10.8029 7.79036e-19)
(14.1996 11.018 -7.0388e-19)
(13.7183 11.2098 0)
(13.2286 11.3776 0)
(12.732 11.5208 0)
(12.2296 11.6393 0)
(11.7228 11.733 0)
(11.2132 11.8017 0)
(10.7017 11.8454 0)
(10.1899 11.8641 -4.92671e-19)
(9.67904 11.8578 4.37347e-19)
(9.17039 11.8266 3.50776e-19)
(8.66517 11.7708 -1.70325e-18)
(8.16453 11.6909 -2.66353e-19)
(7.66979 11.5871 7.94925e-19)
(7.18219 11.4597 4.38438e-19)
(6.70309 11.3093 -3.50624e-19)
(6.23335 11.1365 1.30562e-19)
(5.77434 10.9418 9.63535e-20)
(5.32715 10.7258 -9.75007e-21)
(4.8926 10.4894 9.85959e-21)
(4.47175 10.233 8.85017e-20)
(4.06559 9.95772 0)
(3.67517 9.66432 7.95639e-20)
(3.30128 9.35385 -1.80793e-19)
(2.94458 9.02716 1.0152e-19)
(2.60598 8.68515 0)
(2.28634 8.32894 -3.03714e-19)
(1.98592 7.95971 0)
(1.70563 7.5784 0)
(1.44573 7.1864 -9.45805e-19)
(1.20685 6.78491 4.56447e-19)
(0.989197 6.37535 1.2629e-19)
(0.793352 5.95872 -1.32112e-19)
(0.619622 5.5363 0)
(0.468244 5.10931 -3.72929e-20)
(20.085 0.479414 6.20248e-20)
(20.147 0.979381 0)
(20.1823 1.47998 -2.47563e-19)
(20.1901 1.98094 -1.632e-20)
(20.171 2.48095 0)
(20.1257 2.97927 1.98743e-18)
(20.0544 3.475 9.70471e-19)
(19.9567 3.96805 0)
(19.8329 4.45612 3.20831e-20)
(19.6831 4.93713 9.40139e-19)
(19.5083 5.40925 1.42846e-18)
(19.3097 5.87112 -4.69619e-19)
(19.0877 6.32114 0)
(18.8428 6.75834 0)
(18.5752 7.18228 1.73082e-18)
(18.2861 7.59212 -8.54214e-19)
(17.9762 7.98686 -8.00619e-19)
(17.6465 8.36552 0)
(17.2978 8.72732 2.41905e-18)
(16.9313 9.07128 -2.32153e-18)
(16.548 9.39649 -1.48306e-18)
(16.1489 9.70222 -1.43538e-18)
(15.7351 9.98757 0)
(15.3078 10.2518 -2.05167e-18)
(14.8681 10.4944 -6.69553e-19)
(14.417 10.7146 6.11924e-19)
(13.956 10.9118 6.0242e-19)
(13.4862 11.0861 0)
(13.0089 11.237 0)
(12.5252 11.3642 0)
(12.0365 11.4674 0)
(11.5439 11.5466 0)
(11.0487 11.6018 0)
(10.5524 11.6328 0)
(10.0561 11.6396 -1.05499e-18)
(9.56113 11.6224 3.37845e-19)
(9.06866 11.5812 -2.69666e-19)
(8.57988 11.5163 1.28498e-18)
(8.09591 11.4281 0)
(7.61797 11.3169 3.61794e-19)
(7.14728 11.1831 2.95537e-19)
(6.68505 11.0273 1.26656e-19)
(6.23229 10.8499 -7.63455e-20)
(5.79018 10.6516 -9.66899e-20)
(5.35975 10.4328 3.30972e-20)
(4.94189 10.1944 -2.43291e-21)
(4.53749 9.93693 1.00351e-19)
(4.14751 9.66128 0)
(3.77286 9.36839 0)
(3.41441 9.0591 7.99973e-20)
(3.07288 8.73431 9.68085e-20)
(2.74895 8.39497 2.08657e-19)
(2.4434 8.04203 2.39128e-19)
(2.15665 7.6766 0)
(1.88942 7.29958 2.98086e-19)
(1.64196 6.91241 3.28975e-19)
(1.41478 6.51615 0)
(1.20825 6.11226 -1.79908e-21)
(1.02291 5.70166 0)
(0.858995 5.28566 0)
(0.716766 4.86533 2.86236e-20)
(19.9344 0.436598 -1.02536e-19)
(19.9941 0.920091 2.00612e-19)
(20.0278 1.40666 -3.95676e-19)
(20.0353 1.89438 -2.1283e-19)
(20.0166 2.38168 0)
(19.9714 2.86733 -8.24625e-19)
(19.8993 3.3506 -8.18915e-19)
(19.8017 3.83 0)
(19.6796 4.30511 3.39936e-20)
(19.5332 4.77417 -7.92052e-19)
(19.3629 5.23485 1.49581e-18)
(19.1688 5.68612 1.47279e-18)
(18.9515 6.12684 0)
(18.7115 6.5559 -7.1807e-19)
(18.4496 6.97199 -1.42639e-18)
(18.1667 7.3739 -7.03492e-19)
(17.8635 7.76078 2.06117e-18)
(17.5409 8.13174 -1.32453e-18)
(17.1998 8.48601 1.28904e-18)
(16.8414 8.82276 1.87176e-18)
(16.4666 9.14116 2.4307e-18)
(16.0765 9.44041 1.20188e-18)
(15.6722 9.71968 5.53341e-19)
(15.2547 9.97826 1.673e-18)
(14.825 10.2157 5.12208e-19)
(14.3843 10.4313 5.12859e-19)
(13.9337 10.6248 4.64902e-19)
(13.4746 10.7957 -1.354e-18)
(13.0081 10.9438 8.39813e-19)
(12.5354 11.0686 7.84043e-19)
(12.0578 11.17 -1.52173e-18)
(11.5764 11.248 7.37615e-19)
(11.0926 11.3024 -6.4221e-19)
(10.6077 11.3333 3.01542e-19)
(10.1229 11.3406 2.91398e-19)
(9.63937 11.3243 2.36908e-19)
(9.15837 11.2846 -2.38471e-19)
(8.68093 11.2217 -2.24851e-19)
(8.20821 11.1361 -5.14516e-19)
(7.74141 11.028 -2.98754e-19)
(7.28171 10.8979 -4.67312e-19)
(6.83021 10.7463 -4.35333e-19)
(6.38809 10.5738 1.25884e-19)
(5.95639 10.3808 7.29192e-21)
(5.53613 10.1679 -2.43555e-21)
(5.12823 9.93572 3.02228e-20)
(4.73341 9.68497 -2.6111e-19)
(4.35267 9.41647 5.68225e-20)
(3.98684 9.13119 0)
(3.63687 8.82988 0)
(3.30335 8.51337 1.48296e-19)
(2.9871 8.18277 8.40515e-22)
(2.68875 7.83886 -1.9468e-19)
(2.40877 7.4827 0)
(2.14776 7.11511 -2.42089e-19)
(1.90593 6.73754 0)
(1.68383 6.35112 0)
(1.4817 5.95712 -2.33146e-19)
(1.30034 5.55667 -8.30765e-20)
(1.13971 5.15092 8.63286e-20)
(1.0004 4.74105 -4.5813e-20)
(19.7838 0.508183 1.8547e-21)
(19.8381 0.978745 -1.73259e-19)
(19.867 1.45197 5.07877e-19)
(19.8706 1.92633 3.37035e-19)
(19.8487 2.40064 -4.96564e-19)
(19.8013 2.87364 3.32747e-19)
(19.7293 3.34347 -2.34896e-21)
(19.6326 3.80774 -6.44564e-19)
(19.5111 4.26643 9.82072e-19)
(19.3661 4.71864 -1.27946e-18)
(19.1979 5.1634 1.20439e-18)
(19.0069 5.59921 -1.2806e-18)
(18.7934 6.02496 -6.15399e-19)
(18.5582 6.43963 0)
(18.3019 6.84184 6.33945e-19)
(18.0253 7.23037 5.41242e-19)
(17.729 7.60449 0)
(17.4139 7.96321 1.06642e-18)
(17.0808 8.30585 0)
(16.7309 8.63164 -1.05536e-18)
(16.3653 8.9397 9.32302e-19)
(15.985 9.22925 -4.03562e-20)
(15.5911 9.49938 -4.53376e-20)
(15.1844 9.74937 1.80492e-21)
(14.7659 9.9788 -1.75632e-18)
(14.3367 10.1872 -7.99055e-19)
(13.8981 10.3741 1.56177e-18)
(13.451 10.5392 1.44455e-18)
(12.997 10.6822 -7.20553e-19)
(12.537 10.8026 0)
(12.0722 10.9003 0)
(11.6037 10.9753 0)
(11.1329 11.0275 5.49964e-19)
(10.6609 11.057 -1.92686e-18)
(10.1893 11.0636 8.94671e-19)
(9.71891 11.0474 -4.26678e-19)
(9.25096 11.0083 -6.83339e-19)
(8.7865 10.9467 6.41821e-19)
(8.32651 10.863 2.15351e-20)
(7.87229 10.7577 -2.02822e-19)
(7.42493 10.631 2.22644e-19)
(6.98553 10.4836 1.45184e-19)
(6.55528 10.3159 0)
(6.13523 10.1284 -4.13041e-20)
(5.72633 9.92173 0)
(5.32956 9.69616 7.51511e-20)
(4.94538 9.45266 -3.97368e-20)
(4.57482 9.19195 0)
(4.21853 8.91501 9.3712e-20)
(3.87783 8.62252 1.96081e-20)
(3.55298 8.31521 -2.46233e-19)
(3.24483 7.99422 1.45059e-19)
(2.95416 7.66032 9.56009e-20)
(2.68118 7.31448 -1.75237e-19)
(2.42676 6.95747 8.13881e-21)
(2.19052 6.5906 -1.06431e-19)
(1.97348 6.21507 -5.74192e-20)
(1.77555 5.8322 -1.27701e-19)
(1.59786 5.44307 3.38707e-19)
(1.44004 5.0488 -1.44116e-19)
(1.30318 4.65051 1.90853e-20)
(19.6272 0.560701 3.63912e-20)
(19.6767 1.0165 0)
(19.7017 1.47453 -5.67609e-19)
(19.7021 1.93363 0)
(19.678 2.39246 2.82545e-19)
(19.6295 2.84968 8.26849e-19)
(19.5569 3.30388 5.42589e-19)
(19.4603 3.75433 1.10062e-18)
(19.34 4.19932 9.64965e-21)
(19.1969 4.63787 -6.6427e-21)
(19.0314 5.0686 -5.93572e-20)
(18.8438 5.49049 -5.23789e-19)
(18.6346 5.90251 5.05946e-19)
(18.4043 6.30372 -1.48351e-18)
(18.1539 6.69289 1.00678e-18)
(17.8839 7.06874 -4.8271e-20)
(17.5949 7.4305 -9.13395e-19)
(17.2876 7.77727 -9.35932e-19)
(16.9629 8.10854 0)
(16.6219 8.42368 8.38375e-19)
(16.2658 8.72173 -3.74938e-20)
(15.8957 9.0019 -1.65016e-18)
(15.5125 9.26327 -5.84168e-21)
(15.1171 9.50491 -6.85122e-19)
(14.7103 9.72665 2.08588e-18)
(14.2932 9.928 -3.44318e-20)
(13.8668 10.1086 -6.66299e-19)
(13.4324 10.2683 -7.03126e-20)
(12.9913 10.4066 0)
(12.5445 10.5231 0)
(12.0932 10.6174 0)
(11.6381 10.6899 0)
(11.1808 10.7404 0)
(10.7223 10.7691 5.39306e-20)
(10.2645 10.7756 -3.46956e-19)
(9.80781 10.7599 3.90229e-20)
(9.35354 10.7221 5.314e-20)
(8.9026 10.6622 2.23094e-19)
(8.45578 10.581 4.24642e-19)
(8.01451 10.4789 -5.29256e-19)
(7.57993 10.3562 3.11457e-19)
(7.15292 10.2134 -9.66555e-20)
(6.73489 10.0512 0)
(6.32683 9.87002 3.60405e-20)
(5.92966 9.67036 0)
(5.54453 9.45217 -3.90381e-20)
(5.1712 9.2167 7.60341e-20)
(4.81127 8.96455 -5.31766e-20)
(4.46478 8.69693 -6.72357e-20)
(4.13367 8.41418 1.01288e-19)
(3.81777 8.11696 1.93034e-20)
(3.51793 7.80658 1.53866e-20)
(3.23517 7.48356 -2.79736e-19)
(2.96937 7.149 3.19152e-19)
(2.72174 6.80329 1.74926e-19)
(2.49116 6.44804 9.15234e-20)
(2.27937 6.08426 3.04615e-19)
(2.08531 5.71344 0)
(1.91125 5.33651 -2.33279e-19)
(1.75603 4.95469 6.19797e-20)
(1.62152 4.56883 0)
(19.4562 0.615491 0)
(19.5004 1.05588 0)
(19.5211 1.49844 2.46014e-19)
(19.5181 1.94174 -4.71422e-19)
(19.4915 2.38481 -2.43362e-19)
(19.4417 2.82635 -1.18179e-18)
(19.3688 3.2647 4.56503e-19)
(19.2725 3.69886 -9.44114e-19)
(19.1533 4.12841 1.52516e-20)
(19.0124 4.55207 1.33891e-18)
(18.85 4.96788 -1.78779e-18)
(18.6663 5.37495 0)
(18.4616 5.77223 0)
(18.2366 6.15945 1.69435e-18)
(17.9925 6.53516 8.19184e-19)
(17.7299 6.89739 -1.66287e-18)
(17.4486 7.24601 2.38152e-18)
(17.1495 7.58009 7.5781e-19)
(16.8335 7.89929 -1.48575e-18)
(16.5016 8.20334 -7.45906e-19)
(16.1555 8.49075 6.88443e-19)
(15.796 8.76116 -7.04041e-20)
(15.4243 9.01344 0)
(15.0411 9.24607 1.29047e-18)
(14.6464 9.45961 -1.8212e-18)
(14.2418 9.65354 5.8681e-19)
(13.8284 9.82738 1.05645e-18)
(13.4071 9.98145 -2.56605e-18)
(12.9799 10.1146 5.02251e-19)
(12.5471 10.2272 0)
(12.1102 10.3177 0)
(11.6691 10.3878 0)
(11.2263 10.4364 3.49013e-19)
(10.782 10.4648 9.88013e-19)
(10.339 10.4715 -5.82799e-19)
(9.89697 10.4565 2.54457e-19)
(9.4573 10.4201 2.44016e-19)
(9.02103 10.362 -4.34365e-19)
(8.58811 10.2834 0)
(8.16045 10.1848 -2.44156e-19)
(7.73949 10.0661 1.2715e-19)
(7.32528 9.92832 1.42716e-20)
(6.91988 9.77191 9.68518e-21)
(6.52446 9.59735 3.08341e-20)
(6.13939 9.40548 -1.04994e-20)
(5.76705 9.19498 1.48437e-19)
(5.40495 8.96825 -6.3848e-20)
(5.05651 8.72512 2.1959e-19)
(4.71988 8.46773 0)
(4.39939 8.19565 0)
(4.09296 7.90921 -3.9773e-19)
(3.80161 7.61033 1.08346e-19)
(3.52772 7.2991 2.48661e-19)
(3.26922 6.97673 1.47234e-19)
(3.02951 6.64295 -4.63879e-19)
(2.80449 6.29998 -2.59859e-19)
(2.59853 5.9485 -9.56798e-20)
(2.40798 5.59068 -2.1218e-21)
(2.23827 5.22687 1.02566e-19)
(2.08525 4.8583 0)
(1.95356 4.48565 0)
(19.2654 0.66758 -2.48015e-20)
(19.3037 1.09148 0)
(19.3195 1.51772 0)
(19.3125 1.94454 2.08823e-19)
(19.2832 2.37089 0)
(19.2321 2.79576 8.04948e-19)
(19.1595 3.21749 3.97303e-19)
(19.0636 3.63444 -7.80462e-19)
(18.9451 4.04844 0)
(18.8065 4.45739 -7.92849e-19)
(18.6486 4.85667 4.35687e-20)
(18.4693 5.24811 0)
(18.2699 5.62946 0)
(18.0503 6.00183 -7.40286e-19)
(17.8128 6.36418 6.83793e-19)
(17.5587 6.71156 -7.08517e-19)
(17.2858 7.04632 -6.91031e-19)
(16.9954 7.36737 0)
(16.6886 7.67338 6.53505e-19)
(16.3662 7.96577 -1.19213e-18)
(16.031 8.24164 -1.15222e-18)
(15.6828 8.50185 -1.18369e-18)
(15.3227 8.74529 -9.57687e-21)
(14.9533 8.96766 -9.78215e-19)
(14.5712 9.17249 1.03762e-18)
(14.1793 9.35889 9.35742e-19)
(13.78 9.52497 -9.50208e-19)
(13.3719 9.67339 5.95709e-20)
(12.9594 9.80072 1.15826e-21)
(12.5406 9.91007 -7.95349e-19)
(12.1199 9.9955 0)
(11.6926 10.0639 -6.3513e-19)
(11.2658 10.1098 1.22386e-18)
(10.8355 10.1391 -4.62996e-20)
(10.4096 10.1462 5.24666e-19)
(9.98337 10.1321 -4.27483e-19)
(9.55942 10.0977 3.63927e-19)
(9.13989 10.0409 2.61537e-19)
(8.7216 9.96516 -5.75062e-19)
(8.30811 9.87027 2.42416e-19)
(7.90241 9.75576 1.55712e-19)
(7.50086 9.62294 1.66053e-19)