/*--------------------------------*- C++ -*----------------------------------*\
| =========                 |                                                 |
| \\      /  F ield         | OpenFOAM: The Open Source CFD Toolbox           |
|  \\    /   O peration     | Version:  2.3.1                                 |
|   \\  /    A nd           | Web:      www.OpenFOAM.org                      |
|    \\/     M anipulation  |                                                 |
\*---------------------------------------------------------------------------*/
FoamFile
{
    version     2.0;
    format      ascii;
    class       volSymmTensorField;
    location    "3240";
    object      sigma;
}
// * * * * * * * * * * * * * * * * * * * * * * * * * * * * * * * * * * * * * //

dimensions      [1 -1 -2 0 0 0 0];

internalField   nonuniform List<symmTensor> 
11800
(
(137523 71790.9 6.63205e-14 -2657.65 3.51371e-14 33462.9)
(-68762.9 64274.1 1.0181e-13 -879.928 3.22946e-14 -17279.8)
(619589 89722.1 -1.67376e-15 1356.77 -7.37323e-14 154069)
(-538976 47172.4 0 -1141.71 0 -134014)
(-71149.2 61971.3 1.89951e-14 -5418.86 -5.36785e-14 -18998.1)
(-337432 93028.9 7.37071e-14 2336.75 3.8668e-14 -83144)
(-62546.7 89960.2 1.39345e-13 -601.886 -3.62412e-14 -15668.5)
(-88067.7 92754.6 -2.0753e-14 949.036 8.35134e-14 -21615.9)
(191146 49178.5 2.77844e-14 432.007 -1.89827e-14 47534.4)
(129939 97340.4 -7.15114e-14 586.508 -6.02462e-14 32386)
(158850 59743.8 -5.53255e-14 1468.85 4.73676e-14 39778.4)
(-781613 34567.9 -6.61961e-14 -5938.08 -3.00411e-14 -195407)
(22233.1 -32308.9 1.20589e-16 -59957.5 9.3717e-17 -9360.17)
(574062 47533.1 6.00337e-14 3576.25 -1.64342e-14 143324)
(-459583 87083.1 -5.00528e-14 6241.52 3.89181e-14 -112483)
(2.14205e+06 -6881.71 0 -7197.9 0 529699)
(-40907.2 71138.8 4.71551e-14 3781.84 4.15926e-15 -9211.56)
(-63030.4 65248.3 -2.66113e-14 7641.32 1.52869e-13 -13743.1)
(132052 110598 -2.72584e-14 -17094.1 1.93838e-14 28523.4)
(98877.3 59504.3 -9.51735e-14 -10964.3 -3.07888e-14 21813)
(-423684 53444.7 2.96413e-14 -1286.68 3.1068e-14 -105444)
(-683571 81876.3 4.74249e-14 3410.67 -2.75789e-14 -168762)
(-905323 105753 -2.40514e-14 11512.3 1.54821e-14 -221773)
(-830790 62011.1 2.42829e-16 525.276 4.18374e-15 -206006)
(1.74647e+06 78045.1 2.98683e-15 -8016.88 3.47955e-14 431347)
(-1.0789e+06 105198 -2.36084e-14 8042.9 -6.7583e-16 -265701)
(-1.13261e+06 55254.1 0 10059.4 0 -278528)
(558801 42160.1 -7.8584e-14 -5367.82 -4.74656e-14 137318)
(-1.23532e+06 56502.4 -1.36185e-14 11175.9 -6.53433e-14 -303736)
(-1.33882e+06 57245.8 1.81095e-14 13057.9 -2.81807e-14 -328949)
(367643 44797.9 -9.7376e-14 -1880.36 -1.7455e-13 90753.2)
(73370.6 58639.1 -1.57447e-14 2538.19 -1.30303e-14 18834.5)
(1.09871e+06 101257 -3.84763e-15 12552.6 -1.68687e-14 275728)
(-27431.5 76113 1.2736e-14 -1681.53 -9.53752e-14 -7223.53)
(18953.5 80221.2 -3.36791e-14 2568.27 -1.44599e-13 5339.99)
(-359340 34019.9 -8.8418e-14 -252.723 -6.42402e-14 -89222.2)
(20708.6 81153.9 1.19619e-13 1842.53 -1.42289e-13 5595.39)
(1.17784e+06 59364.9 -1.41317e-14 6294.28 -6.05898e-14 293808)
(-42622.7 78267.4 0 -1895.46 0 -11045.9)
(94510.3 73174.1 -4.1285e-14 5473.28 7.69141e-14 24808)
(-1.19013e+06 41623 -7.34093e-14 -5962.91 -3.41275e-14 -296774)
(-1.29797e+06 41281.6 5.26034e-14 -6317.11 -3.01904e-14 -323620)
(587222 56074 -3.03017e-14 -1147.88 -1.00906e-13 145417)
(-1.40659e+06 41760.3 -1.00467e-14 -4800.03 -5.34605e-14 -350194)
(386393 55738.4 2.58832e-13 1274.81 -8.07561e-14 96188.2)
(2.00279e+06 49739.7 0 -7120.73 0 495165)
(866185 115529 -1.52047e-14 -3346.37 7.96957e-15 214088)
(1.03212e+06 43141.6 -2.68266e-14 -11237.3 -1.86499e-14 253303)
(-99277.2 80922.5 -1.02614e-13 167.802 -6.32326e-14 -24591.1)
(228142 77247.9 0 2185.55 0 57148.8)
(-810638 46275.1 -4.96024e-15 2523.33 5.26628e-14 -200510)
(-568249 43702.4 1.72057e-13 3511.14 2.0165e-14 -140123)
(-11662.6 79455.2 9.64731e-14 729.781 6.00804e-14 -2712.65)
(41932.8 126815 -2.11481e-15 7908.24 1.84322e-14 12366.6)
(-2.30202e+06 4875.65 -3.25265e-15 -11987.8 -5.06408e-15 -574152)
(1.81181e+06 -79975.6 4.34561e-15 -82964.7 7.70197e-15 428961)
(-61713.7 21300.6 8.30593e-14 1857.91 3.08492e-14 -14851.4)
(-509978 91509 6.19951e-15 -5606.67 -5.1516e-14 -127927)
(408645 58585.2 -5.24458e-14 8534.74 7.68156e-14 103511)
(-361328 96024.3 4.30178e-14 -7009.32 -7.76628e-15 -91392.1)
(1.87173e+06 21508.8 -3.80879e-14 -14138.8 -1.31987e-14 460907)
(-49670.5 83401.9 4.08319e-14 794.139 -6.64633e-14 -12127.2)
(-401934 75237.5 -2.35994e-14 -2681.69 4.05826e-14 -100393)
(320953 75517.8 7.1584e-14 2944.26 -4.08392e-14 80365.5)
(1.7247e+06 12741.5 4.17021e-15 -850.731 -2.50957e-14 427722)
(-250620 33589.4 -1.16831e-13 2174.82 -1.41208e-13 -61644.2)
(-836257 20728 8.22063e-14 4308.05 2.74144e-14 -206423)
(-592537 23781.3 2.37977e-15 3972.26 -1.44314e-13 -146035)
(-63880.1 22870.8 0 -3327.65 0 -16675.6)
(-1.00591e+06 58850.8 -1.85978e-15 10604.4 6.18031e-14 -246956)
(-21878.3 80969.7 -2.34045e-14 147.923 4.8327e-14 -5391.75)
(-50078.9 63673.9 -9.01645e-14 -3219.66 1.00886e-13 -13224.5)
(-44023.3 62211 6.32369e-14 -1961.16 -3.8709e-14 -11409.7)
(-1.52692e+06 332711 -5.45955e-15 189469 4.9408e-15 -331850)
(1.85564e+06 68139.6 -1.46247e-15 -6404.72 -1.51596e-14 458834)
(-337734 50955.6 -8.68679e-14 3914.45 -6.31867e-14 -82827.4)
(1.80539e+06 13238 -3.1938e-14 3878.72 2.84195e-14 448916)
(-243559 21141.2 7.68062e-14 -6.38096 -2.52033e-13 -60433.6)
(-180611 43192.3 1.4444e-14 599.054 -1.37855e-14 -44664.6)
(-171014 56109 1.47466e-13 2529.37 1.47895e-13 -41804.4)
(-2.32035e+06 -44472.7 1.17959e-14 10012.1 5.51179e-14 -573241)
(100712 54179.1 0 8428.9 0 27080)
(54141.3 65625.7 -1.53309e-13 1612.36 -6.04139e-14 13833.6)
(37484.7 70015.2 5.31527e-14 1400.07 -4.19447e-16 9648.1)
(-79466.6 62050 3.63892e-14 -8269.63 1.02986e-13 -21769.2)
(-1.30409e+06 69617.7 -2.0287e-14 -6793.47 1.02534e-13 -325258)
(398171 51066.2 1.23716e-13 4114.07 -3.84845e-14 99815.1)
(-1.20045e+06 67650.1 0 -6771.22 0 -299536)
(-1.09912e+06 66238.9 -4.2691e-14 -6000.31 -4.3707e-14 -274202)
(589998 48093.1 5.66843e-14 5197.38 3.46301e-15 147680)
(-12581.1 78744.9 -1.99874e-13 -2824.37 -1.28206e-13 -3822.42)
(1.30013e+06 93528.2 0 -4335.8 0 321514)
(-106864 69242.3 -4.24053e-14 1855.14 -7.03155e-14 -26054.8)
(67866.3 17053.9 -2.44508e-14 4632.33 -3.54859e-14 17988.4)
(161602 69255.7 1.87666e-13 1331.88 3.35806e-15 40427.1)
(51444.1 -38801.1 -7.67541e-16 -109302 -5.69023e-16 -14355.7)
(-2726.2 10670.1 1.99791e-17 6408.27 -1.18861e-16 913.595)
(-51925.9 -38554 -4.85717e-16 109017 3.23657e-16 14165.6)
(-12601.2 80126.8 -6.2141e-14 -78.0628 -9.04358e-16 -3145.98)
(-680946 51755.4 -1.52442e-14 -2693.71 6.08344e-14 -169625)
(48233.4 38256.1 3.4153e-14 -141.627 -9.55459e-14 11932.5)
(741676 58476.8 -7.38576e-14 -6889.02 -1.02195e-13 182316)
(-1.23292e+06 105683 4.97046e-15 -509.763 1.0114e-14 -306038)
(-405135 72615.2 -3.06853e-15 6373.05 9.69198e-15 -98940.9)
(-1339.04 85325.8 -9.58951e-15 -759.398 -4.77155e-14 -520.665)
(319915 96613 -1.98541e-14 2248.87 -3.43418e-14 79935.3)
(-152042 70468.2 -5.87111e-14 -554.741 1.29459e-13 -37862.4)
(-106542 73966 -1.98909e-13 -694.358 -9.59344e-14 -26607.6)
(1.8422e+06 20546.7 1.12154e-14 5096.74 2.34016e-14 458352)
(1.20918e+06 57892 1.82492e-14 4293.68 3.70969e-15 301086)
(1.3142e+06 59379.5 3.49714e-14 5044.83 4.87102e-14 327332)
(1.10759e+06 56966.5 1.27932e-13 3985.33 7.58087e-14 275805)
(-403224 52525.5 5.79716e-14 -3963.12 9.05358e-14 -101031)
(-597211 51218.6 -1.5333e-13 -4399.41 5.51232e-14 -149272)
(215670 63468.3 6.5445e-14 -122.394 -3.43079e-14 53481.6)
(1.65887e+06 35015.5 1.69067e-14 176.956 9.97173e-15 411644)
(233056 30956.7 -4.77691e-14 -3087.19 -1.87812e-13 57059.9)
(-73480.1 74602.1 -1.65642e-13 994.589 1.54895e-13 -17985.1)
(1.55356e+06 73296.1 -1.93991e-14 1103.69 2.41664e-14 385743)
(-132303 100866 -5.36959e-14 -122.755 -1.44524e-14 -32857.4)
(-207209 43448.3 -3.69575e-14 3625 -1.55643e-14 -50513.2)
(64278.4 90020.4 1.18565e-13 -2705.64 -1.69745e-13 15277.4)
(91523.3 95139.4 -8.26334e-14 -1827.28 5.68367e-14 22255.4)
(-65220.1 74083.7 -2.40467e-14 3169.81 -3.54774e-14 -15395.9)
(-112528 65620.3 -1.50829e-13 -830.556 -1.17706e-13 -28126.7)
(-2855.84 78978.2 -1.44966e-13 -2508.1 -1.09093e-13 -1330.9)
(-34988.7 78400.9 -8.69097e-14 -1523.38 9.54916e-14 -9059.4)
(-7570.45 80026.9 -5.68168e-14 -2038.84 -5.41527e-14 -2384.26)
(8868.94 55480.1 2.70154e-15 38072.5 1.21001e-13 11647.1)
(-36157.8 7234.42 -4.03534e-16 -8340.3 5.75202e-14 -11040.9)
(-1.95956e+06 -315653 1.76069e-14 80431.1 -8.89558e-15 -466250)
(-1.40929e+06 71167.4 1.26839e-14 -10563.9 -1.93314e-15 -352295)
(435046 46588.8 6.54598e-14 3788.56 -6.38451e-14 108884)
(-1.30009e+06 72142.9 -5.05714e-14 734.558 3.17578e-14 -322398)
(629774 42560.3 -2.94923e-14 4294.01 8.9316e-14 157325)
(-1.19391e+06 69198.5 1.92955e-14 908.618 1.93835e-14 -296007)
(-1.09158e+06 67183.4 -1.11186e-13 1487.24 8.49644e-14 -270475)
(362075 64965.2 6.41067e-14 -4134.01 1.7867e-13 88812.5)
(-1.11208e+06 29575.1 6.90719e-14 7308.54 -9.49864e-14 -274116)
(527785 67545.1 7.956e-14 -5063.62 -6.33499e-14 129698)
(-1.02196e+06 30241.1 5.71826e-14 6490.23 -9.85005e-14 -251958)
(-934860 31804.6 -5.92959e-14 6518.43 -5.33815e-14 -230340)
(-525123 88371.6 4.44875e-15 16578.7 4.4649e-14 -126180)
(159561 74621.7 -3.20049e-14 -5729.83 -2.13193e-13 38168.6)
(227927 71893.5 -5.11576e-14 -7247.83 -1.47825e-13 54754.9)
(-333373 70168.5 -1.53977e-14 10495.9 8.87405e-14 -80112.3)
(1.34569e+06 44269.7 -9.75937e-14 1712.65 -3.2916e-14 334318)
(-1.38959e+06 -17274.1 9.38552e-14 -11120.3 2.90227e-14 -347544)
(780884 43310.4 6.60442e-14 -2524.62 -6.15129e-14 193127)
(-401683 44282.6 1.47738e-15 7315.01 8.77283e-15 -97850.8)
(-183372 71340.2 -8.29946e-14 2370.92 -6.85835e-14 -44909.9)
(-192117 59673.1 7.10269e-14 -2279.19 -6.4265e-14 -48233.7)
(20155.1 79588.8 5.39935e-14 1607.38 9.86317e-14 5399.71)
(-272646 52030.9 -1.21427e-13 -326.408 1.25931e-13 -67730.1)
(233173 62087 -6.36631e-14 -4516.75 -6.72735e-14 56734.2)
(157954 71199.8 -5.83421e-14 2368.69 4.4974e-14 39779.4)
(-505558 58074.4 9.87525e-14 7394.56 -6.64796e-14 -123604)
(-707210 63875.4 3.5905e-14 3015.39 7.85556e-14 -174725)
(1.43955e+06 20669.2 2.2216e-14 1693.44 -2.99263e-16 357601)
(-6519.49 83402.4 2.8344e-14 -426.407 -1.3788e-13 -1723.42)
(2.09607e+06 77465.3 -2.59252e-14 -13001.5 -1.41286e-14 516852)
(-224488 64089 -1.04885e-13 1178.67 7.22776e-14 -55407.5)
(1.8167e+06 49837.1 0 -18423.2 0 446189)
(-518346 64495.6 3.09043e-14 -4989.89 1.28976e-13 -129850)
(-566303 64742.6 -3.16836e-14 -5760.08 3.75931e-14 -141940)
(-614781 66154.5 -5.11264e-15 -6229.57 1.36022e-13 -154085)
(284591 71404.7 -7.77567e-14 880.631 1.9127e-14 70831.4)
(193410 73625 -8.29491e-14 377.333 2.04819e-14 48082.6)
(-2.28428e+06 -17784.4 2.05661e-14 -8971.55 -1.17311e-14 -569002)
(-1.41461e+06 69259.6 -2.11025e-14 -8159.68 3.9818e-14 -353018)
(494637 50236.6 -8.27996e-14 4824.86 -4.84617e-14 123927)
(686207 46813.3 2.32632e-13 5382.21 -1.25041e-13 171597)
(77429.1 79341.6 4.55252e-14 -7724.91 -1.17714e-13 17295)
(-404587 36742.6 0 1702.67 0 -99963.7)
(-410265 21050.8 1.2451e-13 -2067.65 -6.33008e-14 -102308)
(1.99593e+06 54721.9 3.36253e-14 -14480.5 2.2433e-14 491639)
(2.04348e+06 -11869.8 2.78671e-14 12768.6 2.4635e-14 510197)
(1.0695e+06 24430.7 1.6823e-15 -983.954 5.88338e-14 265120)
(980669 26345.9 1.19752e-14 -598.418 1.42775e-13 243175)
(1.16144e+06 22487.6 3.04283e-14 -1974.34 -4.39729e-14 287688)
(-504251 69226.4 -7.51073e-14 4303.77 6.75852e-14 -124047)
(-335315 65984.9 -7.28658e-14 3111.3 7.99272e-14 -82426.5)
(219445 91859.5 0 1839.51 0 54905.2)
(149384 89883.2 -3.03313e-15 836.615 1.15862e-13 37272.8)
(478615 69276.4 -8.93387e-14 -284.648 7.30516e-14 118683)
(-202409 65601.4 -7.14406e-14 2424.05 1.69411e-13 -49620.3)
(-317946 98482.8 -1.41883e-14 4106.96 6.27572e-14 -77869.7)
(97745.5 72629.7 -2.65448e-13 -829.395 -7.04466e-14 24046.9)
(139009 68629.2 -1.83625e-13 -944.529 7.6837e-14 34256.6)
(-86228.7 82665.5 -3.57907e-14 2113.16 -5.00407e-16 -20870.8)
(-241424 55233.7 -2.9679e-14 5076.87 -1.85352e-14 -58642.5)
(-221553 56036 1.95989e-14 4450.12 -3.34698e-14 -53867.6)
(-224062 42291 0 -530.008 0 -55725.9)
(-108013 102238 4.08858e-16 -4689.42 -3.89951e-14 -27963.7)
(-1.02463e+06 4089.92 8.70054e-14 -6628.42 -3.80977e-14 -255877)
(1.28699e+06 52599.1 -1.13149e-13 -5887.75 -1.13815e-14 317867)
(1.603e+06 167634 6.76389e-15 -277274 3.42307e-15 328941)
(-38232.5 70511.4 2.37039e-14 -3262.08 -5.37352e-14 -10295.6)
(243391 25335.8 8.64975e-14 2045.78 -1.975e-13 60898)
(-2.00985e+06 -249162 1.69102e-14 163345 -1.09558e-14 -458155)
(113171 56359.9 3.70193e-15 3745.61 1.00376e-13 29009.5)
(308999 39585.5 6.98338e-14 1332.12 -8.01739e-14 76999.5)
(341256 43215.3 9.75081e-14 -5069.28 -4.1144e-14 83414.7)
(-4379.6 82583 7.34435e-14 -80.7231 -1.08939e-14 -1106.7)
(-5020.29 85285.5 7.74712e-14 -623.858 6.55227e-15 -1400.43)
(931916 32486.9 2.47685e-14 -4805.66 8.24673e-14 230035)
(772444 87594.3 3.15129e-14 6742.97 -7.60179e-15 193332)
(-702013 72976.8 0 6710.52 0 -172519)
(-600277 40175.4 -8.01245e-14 -9394.9 -5.01232e-14 -151272)
(1.95346e+06 -318890 -7.09399e-15 -82353.6 -4.79954e-15 464259)
(-596060 113601 -6.43037e-15 16602.6 7.51216e-14 -143775)
(-954717 39855.9 4.43329e-14 -2065.92 -2.61488e-14 -237397)
(-2.03768e+06 -820508 -1.90981e-14 427477 7.46781e-15 -399523)
(2.42669e+06 1995.41 0 33244.4 0 610361)
(-1.78461e+06 -760023 -6.21533e-15 201284 1.92176e-15 -392856)
(310587 113403 -4.22506e-14 -170.875 1.4909e-14 77020.5)
(-69709.3 67447.4 -7.49165e-15 -1428.82 1.04763e-13 -17650.8)
(-912447 82821.9 3.73977e-14 -7624.29 -4.11466e-14 -228288)
(-833453 82497.9 5.57102e-14 -6711.22 -6.95232e-15 -208462)
(-763436 80358.3 -6.35173e-14 -6038.67 2.46293e-15 -190922)
(271600 59138.8 5.55753e-14 3747.56 -1.55068e-13 68319.2)
(406874 55927.5 -1.39512e-13 4608.44 1.35637e-13 102097)
(40312.5 71719.7 -2.19296e-14 -7415.13 1.02931e-13 8162.49)
(57271.1 66996.5 5.19233e-14 -9894.94 6.65218e-14 11755)
(-132269 107317 -5.93854e-14 21797.6 1.60749e-14 -27410.1)
(-83530.6 62730.6 4.41957e-14 14315.4 -5.65339e-14 -17173.7)
(-1.11762e+06 -449928 -4.81564e-15 -28138.5 1.00484e-15 -284286)
(205923 108224 -3.37139e-14 15641.6 -1.19554e-13 54974.7)
(-102131 64499.7 -1.15956e-13 -8261.84 -5.30134e-14 -27390.6)
(-479639 100523 0 0.969201 0 -119008)
(205574 60860.5 8.94262e-14 998.024 -3.65178e-14 51254.8)
(-101099 87009.6 0 -552.104 0 -25221.7)
(-76059.3 70714.2 -5.64038e-14 -666.135 -8.93508e-14 -19037.1)
(715085 72102.4 7.90424e-14 4040.39 -8.26579e-14 178430)
(734822 46085.8 1.20967e-13 -133.768 5.77776e-14 182291)
(2.03431e+06 -819336 -7.14193e-15 -426838 -2.3604e-15 398847)
(1.11554e+06 -449576 8.34582e-15 28126.9 2.2858e-15 283766)
(-224942 51814.8 1.71943e-14 1668.39 2.4471e-14 -55398.8)
(-240257 52935.2 -5.2235e-14 -2735.11 -1.06827e-13 -60291.4)
(-1.27558e+06 1741.05 -5.75471e-14 -5084.13 -1.31932e-14 -317758)
(1.03322e+06 49462.7 1.30246e-13 -3749.43 -3.40378e-14 255433)
(335340 66944.1 4.30599e-15 -2659.42 2.36655e-13 82544.9)
(503415 71090.1 8.03952e-14 -3499.93 8.74242e-14 124039)
(-1.16395e+06 22830.6 -2.10152e-15 -748.193 5.00702e-14 -288986)
(-1.07438e+06 26219 -5.08724e-14 -810.274 1.68211e-14 -266778)
(-984637 28337.4 -3.37604e-15 -850.491 7.89923e-14 -244519)
(-14893.2 84587.9 -1.22275e-13 -965.279 3.53707e-14 -3934.8)
(-1.26459e+06 24791.1 3.31113e-14 -2120.58 3.56085e-14 -314298)
(420449 66839.8 -8.23968e-14 -2750.44 4.04239e-14 103640)
(588868 69830.5 0 -3356.25 0 145277)
(555870 53255.6 3.141e-14 -4149.21 7.49799e-14 136893)
(107421 70376.2 -1.03331e-13 1159.27 -2.73194e-13 26941)
(9027.85 73510.7 -9.05529e-14 -8513.92 -3.33078e-14 127.517)
(459580 40325.8 -1.15541e-13 14201.2 2.07208e-14 117555)
(-387928 55075 -9.86073e-15 -1248.05 -7.97621e-14 -96562.5)
(61094.4 75512.9 1.34477e-15 -14956.1 1.68328e-14 11447.9)
(1.78103e+06 -759528 -6.46363e-15 -201406 -1.62373e-15 391937)
(275151 76640.3 8.18713e-15 -2682.4 -1.51421e-13 67605.1)
(331734 74714.7 7.04869e-14 -81.0318 2.39741e-14 82289.8)
(-218356 74195.6 0 -131.012 0 -54211)
(-259294 83146.8 2.62905e-14 -6488.94 -7.31791e-14 -65946)
(764499 80030.1 0 7130.11 0 191457)
(834620 82415.8 4.65551e-14 7581.28 4.41828e-14 208967)
(905280 86167.6 -1.04294e-13 7924.21 -1.00694e-14 226584)
(-407648 53063.1 1.47262e-13 -5437.94 1.49594e-13 -102495)
(-275216 57796.4 7.73661e-15 -3933.15 -8.95203e-14 -69262.7)
(-15174.6 81082.2 8.70965e-14 69.1855 4.63753e-14 -3747.96)
(1.82882e+06 13875.7 -1.35611e-14 -28559.2 -2.48486e-14 446681)
(-11690.5 92823.5 -9.41185e-14 -5705.07 2.93254e-14 -4316.18)
(22886.4 48151.5 -9.0165e-14 10828.7 -5.61316e-14 8365.4)
(40361.3 77128.2 6.76778e-14 1117.32 -1.57079e-13 10291.7)
(432812 76006.1 7.21091e-14 156.96 7.62021e-14 107428)
(-171215 5886.69 -1.198e-13 -3089.8 5.87312e-15 -43248.6)
(571586 84792.7 0 -3626.75 0 140922)
(1.92668e+06 -80383.7 3.12833e-16 -269303 1.25603e-16 411229)
(432563 21614.7 6.91552e-14 6271.45 1.57266e-13 108884)
(415407 33329.9 3.13429e-14 -6221.19 1.70796e-14 101527)
(-622665 72165.6 1.0305e-14 5918.26 2.17547e-14 -153027)
(-443008 68154.6 -8.02723e-14 4709.37 2.57128e-14 -108751)
(-530753 45565.4 -1.64153e-13 -2172.48 -2.87202e-14 -132230)
(-380476 50337.3 8.28477e-15 -2684.3 -8.71207e-15 -95069.9)
(1.32457e+06 20903.3 -5.7649e-15 -3331.47 1.89527e-14 327826)
(1.09623e+06 91620.6 2.39301e-15 -729.113 -3.91914e-14 271817)
(313902 83414.8 1.45317e-14 -3673.41 8.59537e-15 76973.9)
(422392 69520.9 2.72773e-14 -91.1801 4.64082e-14 104781)
(231311 82812.2 7.58748e-14 -4188.81 5.40642e-14 56353.7)
(310615 69925.1 6.80409e-14 -1947.3 -1.07702e-14 76586.7)
(-599724 50253.2 -1.25659e-14 6135.23 3.15437e-14 -147281)
(-788446 77804 -3.48634e-14 2375.31 6.26585e-15 -195040)
(-181416 122460 3.87547e-14 -552.64 2.76742e-14 -45150.1)
(1.30333e+06 55581.6 4.33002e-14 5249.44 3.1083e-14 324686)
(1.41348e+06 55503.6 -9.38643e-15 23195.8 4.66643e-15 356469)
(1.67775e+06 56501.9 7.62014e-15 -1598.13 4.80229e-15 415886)
(116092 78459.1 -1.47641e-13 402.388 1.79285e-13 28904.6)
(-426939 22717.8 -9.14842e-14 -5404.56 -4.70362e-14 -107273)
(-412595 36023.4 -1.16083e-13 4454.71 7.76445e-14 -101268)
(1.9549e+06 -7135.68 0 12574.2 0 488170)
(1.95978e+06 61389.8 0 1046.12 0 486522)
(1.1614e+06 48145.9 1.79052e-14 -1842.41 8.54084e-14 287709)
(1.15216e+06 8861.59 5.73187e-14 4821.84 -1.60916e-13 287072)
(-1.19828e+06 11171.5 0 -9048.54 0 -299564)
(-1.16823e+06 48243.5 0 8079.86 0 -287857)
(33762.7 76709.7 -2.03446e-14 2639.66 5.82768e-14 9032.16)
(-83229.6 34301.5 2.17739e-13 -5044.06 -9.21674e-14 -21902.5)
(-317905 33924.3 -5.74109e-14 -3483.79 -2.11831e-14 -79743.2)
(2.56624e+06 2916.36 0 51879.2 0 649607)
(-45378.4 67748 -1.43581e-13 -2175.5 -3.58583e-15 -11799.1)
(-53464.4 70533.5 -2.06804e-14 -5007.82 -1.1503e-13 -14508.1)
(279048 89694.7 -7.40839e-14 -6271.78 -5.07727e-14 67681.4)
(-220758 88186.1 -1.54386e-13 -6446.3 6.46523e-14 -56374)
(267182 54434.4 4.48654e-14 -7539.69 -4.64024e-14 64422.6)
(-1.02354e+06 45879.7 3.17721e-14 -9316.53 -6.47179e-14 -256272)
(1.03039e+06 50128.6 -1.31765e-14 -10629.8 -7.91422e-14 253024)
(-1.74576e+06 75615.1 1.37212e-14 -10668.7 -5.87894e-14 -435804)
(-2.08113e+06 -187896 7.29369e-15 387204 -5.25567e-15 -420296)
(724318 99287.2 -1.1601e-14 -15168.2 1.4419e-14 175955)
(81056.1 96895.4 -7.66966e-15 -4575.19 4.31651e-14 18976.5)
(-965717 79643.7 -3.84374e-14 -4434.62 -1.07619e-13 -240714)
(811508 27546.6 -4.99927e-14 10243.7 7.20889e-14 203893)
(-563174 49162.7 5.51728e-14 -9859.06 7.07532e-14 -142181)
(438713 78346.5 8.2808e-14 5372.92 1.44762e-15 110187)
(81561.4 86609.6 2.30882e-14 4561.3 1.08046e-15 21368.8)
(140937 67460.5 -9.76447e-14 -978.21 1.22638e-13 34726.6)
(-280299 57706.3 6.716e-14 -17763.2 -7.13442e-14 -73955.3)
(-453390 113590 1.10953e-15 7526.08 8.98471e-14 -110628)
(-256949 58379 1.0347e-14 -16469.9 -7.21284e-14 -67840.9)
(-415568 109601 6.54887e-14 6711.93 -2.39318e-14 -101445)
(102716 48464.8 -4.1167e-14 -2922.3 1.27947e-14 24760.9)
(-48422.6 94038.4 -1.08801e-15 2544.22 -8.06513e-14 -11383.4)
(-31654.6 92884.4 1.00011e-13 2391.16 8.02205e-14 -7260.85)
(-21361.5 83604 5.1474e-14 644.212 -1.12088e-13 -5140.37)
(1.39007e+06 39785.8 2.97522e-14 4078.85 4.60784e-15 345917)
(-14379.3 94423.6 -1.1318e-13 -6419.51 -5.03082e-14 -5160.61)
(-55014.1 69930 5.5888e-14 -5135.76 -1.87153e-13 -14924.4)
(1.94092e+06 -55694.6 -1.47693e-14 -100170 -1.07917e-14 456727)
(319688 56596 5.95796e-14 -5091.63 -7.64308e-14 78057.8)
(-743468 97864.1 3.99182e-14 13540.5 1.07813e-14 -181110)
(-849633 62282.5 -6.50778e-14 1999.49 -2.84782e-14 -210315)
(-843974 28946.7 0 -10129.1 0 -211920)
(1.06193e+06 17281 -5.86197e-14 5421.15 -2.78735e-14 264830)
(1.01678e+06 70558.1 3.55192e-15 8830.41 6.9832e-14 254474)
(-33146.3 58386.9 -6.61109e-14 1218.13 5.38931e-14 -7922.02)
(-25227.8 58797.2 4.79623e-14 1704.2 -2.68189e-13 -5836.67)
(-667769 105284 -2.63984e-14 7919.59 -6.48543e-16 -163722)
(-899269 75172.2 0 11473.1 0 -220280)
(635817 47721.3 1.4458e-14 7187.65 3.56175e-14 159543)
(-1.64572e+06 93607.2 6.3202e-15 -7743.4 -2.00188e-14 -410258)
(57099.9 65688.3 0 14457.7 0 17754.9)
(904194 40895.2 -3.13806e-15 -2889.86 2.17007e-14 223632)
(685330 101862 -1.69153e-15 5401.63 8.23873e-17 171385)
(-431017 83143.9 1.22967e-13 4609.24 -1.58117e-14 -105801)
(-334906 57039.3 -1.20091e-14 -2482.86 8.6648e-14 -83712.9)
(-307247 79516.3 1.90163e-14 3520.76 -7.22868e-14 -75360.7)
(-240510 60892.2 -1.07489e-15 -2434.11 4.2469e-15 -60279.3)
(-344513 38969.1 4.44649e-14 594.476 6.56699e-14 -85333.3)
(-290240 44285.5 -7.77791e-14 3604.52 1.56546e-14 -71120.1)
(-353758 100431 0 1031.73 0 -87518.7)
(-397983 102082 -3.92542e-14 -987.114 3.41071e-14 -98992.6)
(-433784 105592 -3.20683e-15 -1271.13 -3.65647e-15 -107946)
(117785 66202.8 -1.9144e-13 1392.67 -9.57112e-14 29570.5)
(-23637 79574.9 -4.24911e-14 -2376.93 8.45855e-14 -6454.58)
(850188 39632.8 -2.39821e-14 5175.1 6.82856e-14 212233)
(889983 53819.7 3.32043e-14 -6085.12 -6.45067e-14 219313)
(147539 70268.3 6.88981e-15 726.504 -4.77327e-14 36787.6)
(215598 63629.6 0 2500.65 0 54114.7)
(-470370 101806 4.92059e-14 -2356.9 -5.40967e-14 -117293)
(415220 61794.6 -9.40488e-14 4109.65 -1.18535e-15 104044)
(453333 91037.5 -4.11681e-14 4621.65 -2.54719e-15 113628)
(-165434 76046 -7.86825e-14 -1029.31 1.12774e-13 -41302.9)
(-140932 79373.1 4.59088e-14 -1921.02 2.69497e-15 -35444.7)
(-203229 83046.5 7.44096e-14 -725.547 2.64682e-14 -50605.3)
(-225710 71575.1 0 -2506.47 0 -56625.1)
(-985793 42077.3 2.19095e-14 -343.281 -3.34417e-14 -244681)
(453126 73253.8 -3.6024e-14 -756.012 -1.42486e-13 112242)
(322927 71682.1 -1.65028e-14 -1033.31 -2.35878e-15 79868.3)
(-107827 195411 -1.00576e-14 21585.5 -7.19787e-15 -21398.2)
(1.17566e+06 32888.3 -7.56183e-14 -8624.06 -4.52994e-14 289566)
(-1.37461e+06 10094.4 6.55082e-14 2086.75 3.92011e-14 -340551)
(-159949 181015 0 -5895.87 0 -41149.5)
(-163317 74320.4 2.75031e-14 2243.28 8.30266e-14 -39965.8)
(-138125 78367.7 -2.06871e-13 3823.06 -5.24787e-14 -33322.9)
(-237680 72450.9 8.92376e-14 1594.74 9.98804e-16 -58577.6)
(-204752 79376.8 0 3056.28 0 -50044.7)
(464535 59338.4 4.56136e-14 -4081.4 -7.34168e-14 114248)
(533478 82790.3 1.66499e-14 -3252.58 7.05729e-15 131560)
(432640 62951.1 -3.3906e-14 -8474.07 3.24596e-14 105244)
(504732 85250.5 3.61761e-14 -5919.03 9.99991e-14 123766)
(396271 62691.5 2.8376e-14 -7403.95 4.76204e-14 96485.9)
(462191 83250.1 -6.16652e-14 -5282.67 3.524e-14 113368)
(365406 37729.2 2.80627e-14 138.922 1.0598e-13 90699.1)
(352585 22684.5 8.25202e-14 2745.52 1.76691e-13 88164.6)
(-702771 82276.5 -1.58248e-14 1084.03 2.07962e-14 -174103)
(328443 78143.2 -8.54825e-14 -4249.25 -2.07713e-15 80439.1)
(-784304 59322.3 0 6701.44 0 -192939)
(1.35609e+06 86036.9 4.6257e-14 -11723.6 -2.9102e-14 333565)
(-683618 36920.2 8.61369e-14 2592.05 -1.41548e-13 -168976)
(-498523 42355.9 1.04012e-13 711.365 -6.9902e-14 -123517)
(-1.53789e+06 -727057 -5.9176e-15 244067 1.32223e-15 -321025)
(45692.8 74714.4 1.1618e-13 261.362 -3.05097e-14 11402.2)
(1.4394e+06 47926.7 -1.54555e-14 -3250.38 -7.81646e-16 356338)
(-698138 56435.2 -2.41193e-14 2616.95 -6.99127e-14 -172573)
(-502685 54910.6 1.50698e-13 2149.64 7.41617e-14 -124193)
(2.15149e+06 -15721.8 2.5162e-14 -4457.51 1.12e-14 532722)
(-96661.2 66656.4 -1.66628e-14 -1326.98 6.68455e-14 -24312.8)
(1.4834e+06 13145.3 3.84604e-14 4444.66 -2.39022e-14 369164)
(-347841 57802.4 5.21341e-14 1619.7 -9.19102e-14 -85904.6)
(-1.22762e+06 85626.9 3.11987e-14 12750 -4.06331e-15 -301433)
(-1.15391e+06 54611.9 -1.90582e-14 -6716.04 -1.45193e-15 -287974)
(1.11682e+06 56160 -3.60886e-14 1850.34 2.36035e-14 277564)
(-141998 77026.8 -2.27648e-13 5678.66 -1.03621e-13 -33823.5)
(-3375.45 -39037.6 2.40791e-16 -61208.8 8.56128e-17 -16024.7)
(-17757.3 71294.1 0 3046.4 0 -3650.06)
(-2.04072e+06 -652053 9.71777e-15 256750 -2.67882e-15 -442640)
(1.53421e+06 -726543 1.15027e-14 -245713 3.61723e-15 319703)
(-979122 88940.7 4.02809e-14 -7822.54 -3.90746e-14 -244881)
(338868 55932 1.74151e-14 3070.77 6.72253e-14 84841.9)
(469692 50994.6 -5.60367e-14 4123.46 1.2754e-13 117563)
(136496 73168.3 1.12175e-13 -1355.21 3.34077e-14 33531.2)
(-254519 15780.3 6.50124e-14 200.872 -9.99757e-14 -63101.4)
(227853 94090.7 -5.40757e-14 -1474.88 4.94839e-14 56169)
(-115826 58101.8 1.59748e-14 884.882 2.44937e-14 -28519.1)
(-106261 103998 1.14807e-14 4353.08 3.33132e-14 -25285.4)
(-1.6726e+06 3055.17 -5.32492e-15 44545.5 1.26563e-14 -403954)
(13675.4 -23230.1 6.31874e-17 -40569.9 3.9222e-17 -6673.09)
(-575201 93354.9 -2.39876e-16 7182.17 4.52782e-15 -140937)
(452071 52395.1 4.05427e-14 -2912.5 1.25638e-13 111445)
(1.73651e+06 -336472 1.01989e-15 -45505 1.32502e-15 419573)
(-51494.7 57609.8 -1.04214e-14 -8867.41 -8.10165e-14 -14977.1)
(-57914.9 96405 8.26836e-15 -4108.03 7.90963e-14 -15389.2)
(-33046.1 84158.2 -1.41495e-15 158.397 -1.21171e-13 -8160.1)
(-85773 72433.9 -2.2445e-14 3650.64 3.05921e-14 -20376.2)
(38410.1 83059.4 3.62043e-14 -1380.53 9.35626e-14 9187.79)
(25426.4 85520.5 -8.50659e-14 -346.055 -2.7773e-14 6222.95)
(-1.74109e+06 -334461 4.35424e-15 43977.7 -1.34483e-15 -421089)
(609432 88407.4 -3.31856e-14 2274.61 1.79606e-14 151777)
(-213509 71927.3 -2.27699e-13 -263.077 -6.46049e-14 -53041.2)
(715684 75032.9 1.18814e-13 4512.18 -2.01071e-13 178695)
(656601 73759.8 -1.45933e-15 4283.41 -7.70843e-14 163979)
(600713 71266.1 -2.20397e-13 2303.24 3.3267e-14 149621)
(104323 42543.7 -1.11271e-13 4051.29 -4.16309e-14 26889.9)
(-1.41194e+06 30692.9 5.97784e-14 -3668.3 -5.80232e-14 -351241)
(444288 57323.3 1.20669e-13 -2512.45 1.30178e-14 109613)
(629707 59002.8 -5.46388e-14 -2532.93 -7.81536e-14 155615)
(-121491 71776.6 -1.92841e-13 -378.112 -3.25158e-14 -30238.3)
(903933 96596.4 1.26493e-14 -12185.8 1.82826e-14 221261)
(172989 55866.6 -7.80305e-14 -66.2607 5.28581e-14 42905.7)
(-1.81147e+06 22862.4 -2.02672e-14 -2520.21 -7.50281e-15 -450088)
(52420.1 73585.6 -1.00627e-13 1864.23 -8.46636e-14 13469)
(-152846 78175.2 -2.00099e-13 1658.92 9.44968e-14 -37512.6)
(513834 59675.7 1.50941e-13 531.137 -2.17325e-14 127624)
(471361 59761 1.41014e-13 534.7 3.43115e-14 117087)
(430827 58227.1 -1.02223e-13 -1311.09 2.8167e-14 106572)
(942412 44501.1 1.52102e-14 139.148 3.19814e-14 233866)
(205342 77725.4 -6.7535e-14 2968.71 -1.44743e-13 51686)
(-518320 64508.4 4.60555e-14 -7941.18 1.03135e-15 -130576)
(-406359 116378 2.81021e-14 3760.47 3.13392e-14 -99892.8)
(-227268 48907.9 0 1664.52 0 -55976.7)
(-718185 85932.5 -6.19951e-14 -7959.08 1.88718e-14 -180171)
(-784916 88393.7 -9.32803e-14 -8856.91 -6.16844e-15 -196951)
(-854309 92018.3 -9.3124e-14 -10207.4 4.48637e-14 -214504)
(406022 58575.7 1.91423e-15 6539.93 2.37697e-14 102365)
(277812 63830.8 3.00827e-14 4621.77 -3.76639e-14 70077.6)
(73548.1 8261.07 -8.7461e-14 3655.55 3.15509e-14 19155.8)
(143619 61144 0 -1799.9 0 35188.2)
(184757 49643.7 -1.02407e-13 1415.91 6.11253e-14 46193.3)
(2.10144e+06 -101358 -5.46037e-15 -276627 -2.63259e-15 452773)
(795391 40752.6 1.00886e-13 1333.74 -1.03525e-13 197684)
(-610192 78200.1 0 1214.71 0 -151100)
(-428182 71043.9 -4.9989e-14 8243.93 -2.19758e-15 -104195)
(343292 75059.5 2.6683e-14 -3691.07 -3.2999e-14 84261.9)
(-109560 88158.4 4.45767e-14 -2365.24 3.65714e-14 -27771)
(-14207.9 86654.8 1.3138e-13 -2581.03 -1.03531e-13 -4165.67)
(35666.3 61785.2 1.04859e-13 8933.71 -1.65937e-14 11066.2)
(39037.8 61611.5 -5.48708e-14 9689.93 -5.1102e-14 12090.3)
(-4653.26 109301 -2.75033e-15 -2777.41 -2.25431e-14 -1843.7)
(-9460.27 57285.9 -2.45078e-14 -857.165 8.24234e-14 -2559.97)
(72.7057 66517 -9.17937e-14 -574.551 6.84049e-14 -124.518)
(12308.7 70783.6 8.76894e-14 -13584.8 -3.98379e-14 -316.638)
(152566 49783.2 -6.798e-15 2227.66 -3.20392e-14 38407.4)
(-284486 111429 -1.60024e-15 1752.11 -1.54798e-14 -70152)
(90412 70392 2.19972e-13 1103.73 -4.32861e-14 22706.9)
(12864.2 108071 9.18811e-15 -16798.3 1.31076e-14 -976.126)
(-599992 109218 -2.29271e-14 -2402.05 -1.37699e-14 -149466)
(760013 50718 7.5758e-14 3373.6 6.75942e-14 189412)
(-326233 79686.1 -8.4653e-14 -287.104 2.76902e-14 -81016.2)
(-1.39219e+06 252865 -3.97479e-15 247049 2.38301e-15 -284133)
(-203242 47111.5 6.0281e-14 -2065.58 6.54665e-14 -50941)
(-333440 110119 0 3694.79 0 -81816.6)
(98272.3 70442 1.17383e-13 -81.0345 -1.62152e-13 24363.2)
(152243 63717.8 6.20875e-15 -404.345 2.01621e-14 37674.3)
(1.53085e+06 -338731 -1.23235e-15 49647.7 2.15455e-16 392154)
(-2.10899e+06 9804.86 -1.6916e-14 12437.3 7.77502e-15 -520198)
(653492 57440.2 3.71152e-14 3976.66 3.11893e-14 163131)
(712722 57313.2 -3.76547e-14 3845.09 8.19733e-14 177795)
(-217014 77531.4 -2.78499e-13 1605.32 -9.94404e-14 -53447.4)
(151104 96850.8 4.90408e-14 9741.11 9.66641e-14 39908.8)
(-33647.3 67708.3 7.83528e-14 -3287.91 1.19242e-13 -9164.36)
(-867978 -563887 -1.05403e-15 64763.1 4.43475e-16 -199294)
(-2.05195e+06 70007.8 5.5445e-15 1829.86 7.1588e-15 -508676)
(1.82187e+06 35500.2 3.01276e-14 3553.9 -1.48532e-14 452926)
(-2.6408e+06 -45454.1 -7.82267e-15 -7344.12 -3.37153e-15 -657058)
(838925 51732.5 -3.39391e-14 -6152.13 -5.27675e-14 206628)