/*--------------------------------*- C++ -*----------------------------------*\
| =========                 |                                                 |
| \\      /  F ield         | OpenFOAM: The Open Source CFD Toolbox           |
|  \\    /   O peration     | Version:  2.3.1                                 |
|   \\  /    A nd           | Web:      www.OpenFOAM.org                      |
|    \\/     M anipulation  |                                                 |
\*---------------------------------------------------------------------------*/
FoamFile
{
    version     2.0;
    format      ascii;
    class       volVectorField;
    location    "920";
    object      D;
}
// * * * * * * * * * * * * * * * * * * * * * * * * * * * * * * * * * * * * * //

dimensions      [0 1 0 0 0 0 0];

internalField   nonuniform List<vector> 
11800
(
(3.99641e-06 0.000119077 0)
(-5.15609e-06 0.000132276 0)
(2.89422e-06 4.17625e-05 0)
(-3.33982e-06 5.61103e-05 0)
(-4.71458e-06 0.000132058 0)
(-2.17773e-06 5.62161e-05 0)
(-8.17678e-07 9.0215e-05 0)
(-7.84872e-07 7.0233e-05 0)
(3.52124e-07 1.15226e-05 0)
(6.00056e-07 4.32552e-05 0)
(4.44269e-06 0.000118804 0)
(-4.17885e-06 4.8136e-05 0)
(-4.61378e-09 -3.67392e-09 0)
(2.56909e-06 4.15208e-05 0)
(-2.96635e-06 5.63373e-05 0)
(3.05778e-06 7.15315e-06 0)
(-4.76366e-07 8.99615e-05 0)
(-4.65359e-07 6.99914e-05 0)
(1.90864e-07 1.16468e-05 0)
(3.56694e-07 4.30497e-05 0)
(-2.55607e-06 5.60174e-05 0)
(-3.8317e-06 4.83198e-05 0)
(-6.95072e-07 2.5896e-06 0)
(-7.4111e-07 2.69443e-06 0)
(2.71353e-06 8.14644e-06 0)
(-1.10015e-06 4.24786e-06 0)
(-4.18355e-06 2.93175e-05 0)
(5.74008e-06 8.11847e-05 0)
(-3.77245e-06 2.24629e-05 0)
(-3.30887e-06 1.63268e-05 0)
(6.05701e-06 0.000101782 0)
(2.22195e-08 2.02658e-06 0)
(1.40097e-06 5.42841e-06 0)
(-3.15338e-06 0.000135652 0)
(2.47244e-06 0.000135055 0)
(-6.99293e-06 0.000108466 0)
(2.29996e-06 0.00013551 0)
(1.37751e-06 5.57753e-06 0)
(-7.99774e-07 9.51002e-05 0)
(5.9844e-07 4.73207e-05 0)
(-4.11193e-06 2.96337e-05 0)
(-3.71142e-06 2.27486e-05 0)
(5.60723e-06 8.07383e-05 0)
(-3.25899e-06 1.65809e-05 0)
(5.92169e-06 0.000101314 0)
(2.91476e-06 7.20944e-06 0)
(7.80408e-07 3.05478e-06 0)
(8.71404e-07 3.00683e-06 0)
(-1.23199e-06 9.51786e-05 0)
(9.53111e-07 4.73844e-05 0)
(-6.70009e-06 7.11243e-05 0)
(-7.11232e-06 9.1108e-05 0)
(-6.97474e-07 0.000117842 0)
(3.39206e-08 1.92513e-06 0)
(-3.76376e-06 8.4827e-06 0)
(5.29938e-07 4.60723e-07 0)
(-8.72141e-06 0.000137466 0)
(-2.28638e-06 4.02682e-05 0)
(2.49008e-06 5.78046e-05 0)
(-1.67387e-06 3.87482e-05 0)
(1.04706e-06 1.4507e-06 0)
(-1.16516e-06 0.000117928 0)
(-1.9931e-06 4.01811e-05 0)
(2.16594e-06 5.79073e-05 0)
(2.54164e-06 8.02566e-06 0)
(-8.32368e-06 0.000121924 0)
(-6.95029e-06 7.0826e-05 0)
(-7.40276e-06 9.07824e-05 0)
(-8.28555e-06 0.000137249 0)
(-1.15342e-06 4.38258e-06 0)
(-2.81647e-06 0.000136023 0)
(-4.93564e-06 0.000135305 0)
(-5.07776e-06 0.000134837 0)
(-5.11825e-08 6.04822e-08 0)
(1.11814e-06 1.51164e-06 0)
(-6.58963e-06 0.00010876 0)
(3.29864e-06 1.11581e-05 0)
(-8.45807e-06 0.000122367 0)
(-6.74429e-06 0.000123371 0)
(-6.30423e-06 0.000123771 0)
(-3.58916e-06 8.37027e-06 0)
(4.68441e-07 4.906e-05 0)
(4.56104e-06 0.000134272 0)
(4.06608e-06 0.000134353 0)
(-6.4728e-07 5.0364e-05 0)
(-3.16685e-06 1.83167e-05 0)
(5.47344e-06 9.82113e-05 0)
(-3.57124e-06 2.47001e-05 0)
(-3.93257e-06 3.17854e-05 0)
(5.17116e-06 7.77891e-05 0)
(-1.99071e-07 0.00011537 0)
(1.49223e-06 5.16602e-06 0)
(-4.20799e-06 0.000124143 0)
(8.55863e-06 0.000138491 0)
(1.34172e-06 6.1575e-05 0)
(-1.22971e-09 -9.35765e-10 0)
(3.15938e-11 -1.97339e-10 0)
(1.22108e-09 -9.29612e-10 0)
(-1.38205e-07 0.000119248 0)
(-3.96588e-06 4.91561e-05 0)
(7.35856e-06 0.000138008 0)
(4.52387e-06 5.37965e-05 0)
(-1.82024e-06 7.48001e-06 0)
(-4.21882e-07 5.81282e-06 0)
(-2.88591e-07 0.000131483 0)
(4.7037e-07 1.20376e-05 0)
(-9.96047e-07 6.92474e-05 0)
(-1.02703e-06 8.91298e-05 0)
(1.61002e-06 2.85538e-06 0)
(3.54328e-06 2.46878e-05 0)
(3.146e-06 1.83053e-05 0)
(3.89934e-06 3.17713e-05 0)
(-5.63918e-06 9.82239e-05 0)
(-5.33164e-06 7.78056e-05 0)
(7.86972e-07 4.24106e-05 0)
(1.27361e-06 2.60977e-06 0)
(8.15903e-06 0.000122409 0)
(-3.40399e-06 0.000125554 0)
(1.29823e-06 2.51617e-06 0)
(-6.14885e-07 4.37709e-05 0)
(-3.84997e-07 1.12274e-05 0)
(7.08952e-07 9.08536e-05 0)
(6.75812e-07 7.08084e-05 0)
(-1.08181e-06 8.72633e-05 0)
(-4.23506e-06 0.000124597 0)
(-4.15306e-07 0.000118887 0)
(-2.73753e-06 0.000131533 0)
(-6.73457e-07 0.000131185 0)
(-9.35955e-06 0.000141908 0)
(-9.69328e-06 0.000141573 0)
(-3.15824e-07 1.44637e-07 0)
(-1.38991e-06 3.36717e-06 0)
(5.61855e-06 9.53957e-05 0)
(-3.38662e-06 1.99664e-05 0)
(5.29208e-06 7.51332e-05 0)
(-3.79154e-06 2.65459e-05 0)
(-4.15383e-06 3.38079e-05 0)
(5.18055e-06 9.54796e-05 0)
(-3.1229e-06 1.99094e-05 0)
(4.87986e-06 7.52114e-05 0)
(-3.4973e-06 2.64837e-05 0)
(-3.83233e-06 3.37408e-05 0)
(-8.54612e-07 1.04217e-05 0)
(1.79271e-06 9.25286e-05 0)
(1.68087e-06 7.24318e-05 0)
(-1.52927e-06 4.51376e-05 0)
(7.16918e-06 4.93452e-05 0)
(-7.2108e-06 4.83144e-05 0)
(4.4479e-06 5.41703e-05 0)
(-5.85856e-07 6.15931e-06 0)
(-4.67731e-06 0.000114855 0)
(-4.63738e-06 0.000115444 0)
(2.21217e-06 0.000134049 0)
(-5.22506e-06 0.000108611 0)
(2.04454e-06 7.77536e-05 0)
(2.20968e-06 9.81624e-05 0)
(-5.83166e-06 8.6898e-05 0)
(-5.4506e-06 6.71578e-05 0)
(2.92896e-06 1.32235e-05 0)
(-4.73503e-07 0.000115789 0)
(1.75129e-06 2.90435e-06 0)
(-4.7792e-06 0.000108715 0)
(3.45226e-06 1.13143e-05 0)
(-2.23856e-06 3.30321e-05 0)
(-2.03859e-06 2.58325e-05 0)
(-1.81515e-06 1.93221e-05 0)
(2.86056e-06 7.60705e-05 0)
(3.0347e-06 9.63943e-05 0)
(-1.57106e-06 2.01072e-06 0)
(-2.72685e-06 1.2738e-05 0)
(5.35364e-06 8.78255e-05 0)
(4.99851e-06 6.80319e-05 0)
(1.161e-06 8.90356e-05 0)
(-7.96078e-06 0.000107978 0)
(-8.04052e-06 0.000108604 0)
(3.1282e-06 8.15848e-06 0)
(3.12939e-06 8.37749e-06 0)
(3.28144e-06 2.40003e-05 0)
(3.61852e-06 3.10163e-05 0)
(2.90537e-06 1.76919e-05 0)
(-5.01521e-06 7.88119e-05 0)
(-5.29888e-06 9.9297e-05 0)
(2.081e-06 7.72864e-05 0)
(2.22252e-06 9.76835e-05 0)
(2.31463e-06 4.81352e-05 0)
(-1.1673e-06 4.50403e-05 0)
(-6.54289e-07 1.0474e-05 0)
(1.34637e-06 9.24096e-05 0)
(1.26128e-06 7.23198e-05 0)
(-1.85398e-06 0.000113335 0)
(-6.77691e-07 2.13364e-05 0)
(-7.55984e-07 2.80785e-05 0)
(-6.85693e-06 0.000121014 0)
(-2.20723e-07 5.07965e-06 0)
(-6.72258e-06 5.86958e-05 0)
(5.83379e-06 3.95994e-05 0)
(7.6427e-08 7.75563e-08 0)
(-4.12431e-06 0.000135862 0)
(8.10192e-06 0.000122887 0)
(-2.74837e-07 1.70083e-07 0)
(5.31902e-06 0.000128626 0)
(6.6584e-06 0.00011045 0)
(7.14514e-06 0.000110538 0)
(-2.59256e-07 0.000132131 0)
(-5.94879e-07 0.000132543 0)
(3.89227e-06 3.86857e-05 0)
(3.43281e-06 3.88504e-05 0)
(-4.59515e-06 5.96539e-05 0)
(-4.0541e-06 5.94542e-05 0)
(3.08947e-07 1.41256e-07 0)
(-8.39969e-07 7.35432e-06 0)
(-9.54021e-07 4.15955e-06 0)
(-2.30177e-08 8.71845e-09 0)
(2.86141e-06 4.89979e-06 0)
(-7.16449e-08 2.28773e-08 0)
(3.62606e-07 4.08737e-06 0)
(-4.67145e-06 0.000131454 0)
(-2.42805e-06 1.78935e-05 0)
(-2.73667e-06 2.42334e-05 0)
(-3.0182e-06 3.12751e-05 0)
(4.20846e-06 9.8914e-05 0)
(3.99054e-06 7.846e-05 0)
(2.31409e-07 9.22446e-05 0)
(2.13894e-07 7.21635e-05 0)
(-1.48389e-07 1.05468e-05 0)
(-2.7147e-07 4.49121e-05 0)
(-1.05373e-07 1.74039e-08 0)
(3.58766e-07 1.30977e-05 0)
(-7.48109e-07 6.72807e-05 0)
(-2.19488e-06 4.34448e-05 0)
(5.08953e-07 1.29113e-05 0)
(-1.03479e-06 6.76216e-05 0)
(-3.20862e-06 0.000124581 0)
(3.96975e-06 4.84708e-05 0)
(3.69696e-06 4.81152e-05 0)
(2.27355e-08 8.58984e-09 0)
(1.04419e-07 1.71945e-08 0)
(-6.1736e-06 0.000116204 0)
(-5.94105e-06 0.000116681 0)
(-6.0148e-06 4.13413e-05 0)
(6.58972e-06 5.66919e-05 0)
(5.17322e-06 9.92548e-05 0)
(4.89209e-06 7.87756e-05 0)
(-2.94886e-06 1.77185e-05 0)
(-3.33553e-06 2.40284e-05 0)
(-3.68053e-06 3.10475e-05 0)
(-2.38438e-07 0.000118425 0)
(-2.52444e-06 1.22035e-05 0)
(5.05712e-06 8.88815e-05 0)
(4.7276e-06 6.90178e-05 0)
(3.16075e-06 4.89557e-05 0)
(2.58678e-06 0.000111885 0)
(4.09138e-06 0.000138652 0)
(4.67191e-07 4.02938e-06 0)
(-1.62621e-06 3.91287e-05 0)
(-1.04462e-08 1.52308e-06 0)
(7.08914e-08 2.2579e-08 0)
(1.48879e-06 4.11916e-05 0)
(1.27648e-06 4.07801e-05 0)
(-1.67381e-06 5.67968e-05 0)
(-1.43981e-06 5.71981e-05 0)
(2.94944e-06 3.12643e-05 0)
(2.67654e-06 2.42238e-05 0)
(2.37253e-06 1.7888e-05 0)
(-4.08998e-06 7.84605e-05 0)
(-4.32231e-06 9.89276e-05 0)
(-2.31297e-06 0.000135902 0)
(8.84164e-07 1.12741e-06 0)
(-4.35328e-08 7.96312e-05 0)
(-3.1098e-08 1.71573e-05 0)
(2.96154e-06 0.000131256 0)
(2.47751e-06 4.7802e-05 0)
(-9.59056e-06 0.000129741 0)
(2.84881e-06 4.92939e-05 0)
(1.27862e-07 9.78564e-08 0)
(7.80465e-06 0.000106685 0)
(7.85034e-06 0.000106106 0)
(-4.88971e-06 6.9103e-05 0)
(-5.22889e-06 8.89674e-05 0)
(-4.37326e-06 6.89366e-05 0)
(-4.67746e-06 8.87906e-05 0)
(2.50834e-06 1.21585e-05 0)
(2.24607e-06 1.22372e-05 0)
(2.32338e-06 6.37069e-05 0)
(2.7717e-06 6.36357e-05 0)
(2.49938e-06 8.31884e-05 0)
(2.98283e-06 8.31113e-05 0)
(-1.41734e-06 1.51538e-05 0)
(-1.68402e-06 1.52011e-05 0)
(-3.14283e-07 6.98049e-06 0)
(1.52426e-06 4.50123e-06 0)
(1.4274e-06 4.34944e-06 0)
(1.46759e-06 3.31235e-06 0)
(2.20463e-06 0.00011235 0)
(-7.83385e-06 0.000106878 0)
(-7.87584e-06 0.000106276 0)
(3.21966e-06 9.08452e-06 0)
(3.15901e-06 8.83282e-06 0)
(6.28426e-06 4.93573e-05 0)
(6.3663e-06 4.98869e-05 0)
(-6.32599e-06 4.82794e-05 0)
(-6.36211e-06 4.77577e-05 0)
(2.74036e-06 0.000133962 0)
(-7.69147e-06 0.000135664 0)
(-7.39128e-06 0.00011476 0)
(1.96723e-06 2.30011e-06 0)
(-4.53588e-06 0.000134005 0)
(-4.05532e-06 0.000133557 0)
(1.88155e-06 6.44043e-05 0)
(-1.23877e-06 5.81466e-05 0)
(1.04561e-06 3.99741e-05 0)
(-5.4247e-06 4.9536e-05 0)
(5.24181e-06 4.80588e-05 0)
(-2.76726e-06 8.93537e-06 0)
(-8.58287e-08 5.61207e-08 0)
(4.41875e-07 1.90645e-06 0)
(4.47438e-07 4.25393e-05 0)
(-4.6014e-06 4.28244e-05 0)
(4.8159e-06 5.49518e-05 0)
(-2.67574e-06 3.9143e-05 0)
(3.03788e-06 5.91199e-05 0)
(1.49124e-06 0.000100747 0)
(2.07456e-06 0.000100538 0)
(-9.88509e-07 2.30546e-05 0)
(-1.35365e-06 2.31882e-05 0)
(-1.09519e-06 2.998e-05 0)
(-1.49862e-06 3.01269e-05 0)
(2.44312e-07 1.19579e-05 0)
(-5.63624e-07 6.93962e-05 0)
(-5.66903e-07 8.92975e-05 0)
(-8.93863e-07 0.000129131 0)
(1.3412e-06 3.29219e-06 0)
(-2.8324e-07 5.6717e-05 0)
(-3.67541e-06 0.000132283 0)
(5.71344e-07 4.77407e-07 0)
(3.2152e-06 7.99968e-05 0)
(-1.9152e-06 1.69738e-05 0)
(-5.61747e-06 5.72897e-05 0)
(-5.2793e-06 5.70165e-05 0)
(4.91414e-06 4.07845e-05 0)
(4.62857e-06 4.10224e-05 0)
(-5.48221e-06 0.000137802 0)
(-5.54197e-06 0.000137225 0)
(-1.0072e-06 7.02261e-06 0)
(-1.19195e-06 6.99647e-06 0)
(4.83935e-07 1.99616e-06 0)
(-1.171e-06 2.06903e-06 0)
(2.18313e-07 5.93953e-05 0)
(1.69388e-06 1.23752e-05 0)
(1.42079e-06 1.24521e-05 0)
(-3.30136e-06 6.86479e-05 0)
(-2.77503e-06 6.84924e-05 0)
(-3.53111e-06 8.8486e-05 0)
(-2.96817e-06 8.83205e-05 0)
(-7.09429e-06 0.000111176 0)
(-6.56808e-06 0.000111219 0)
(-1.64146e-06 3.51857e-05 0)
(-1.53334e-06 2.77955e-05 0)
(-1.37469e-06 2.10823e-05 0)
(2.18389e-06 0.000103972 0)
(-4.30849e-07 0.000117309 0)
(4.71209e-06 4.80154e-05 0)
(4.45752e-06 4.84154e-05 0)
(2.01714e-06 9.04015e-05 0)
(1.94099e-06 7.04128e-05 0)
(-1.02927e-06 1.14368e-05 0)
(9.27672e-07 1.27625e-05 0)
(7.58969e-07 1.30037e-05 0)
(-1.64581e-06 8.72465e-05 0)
(-1.94957e-06 8.76796e-05 0)
(-1.82093e-06 6.79022e-05 0)
(-1.4922e-06 6.7457e-05 0)
(-2.02772e-06 1.17289e-05 0)
(3.8609e-06 6.98922e-05 0)
(4.12582e-06 8.98179e-05 0)
(-6.03042e-08 5.78263e-07 0)
(6.98515e-06 5.44875e-05 0)
(-6.55991e-06 4.33703e-05 0)
(-3.50059e-08 5.38683e-07 0)
(-2.12381e-06 9.92364e-05 0)
(-2.48327e-06 9.97637e-05 0)
(-1.96089e-06 7.87955e-05 0)
(-2.28876e-06 7.92967e-05 0)
(1.28257e-06 1.73744e-05 0)
(1.10041e-06 1.76695e-05 0)
(1.49365e-06 2.36769e-05 0)
(1.27676e-06 2.40087e-05 0)
(1.6484e-06 3.06653e-05 0)
(1.40737e-06 3.10309e-05 0)
(7.72606e-06 0.000111381 0)
(7.87066e-06 0.00011193 0)
(-8.29396e-07 4.19298e-06 0)
(2.88646e-06 8.03797e-05 0)
(-1.71327e-06 1.67472e-05 0)
(2.75254e-06 1.33345e-05 0)
(-5.10547e-06 6.69445e-05 0)
(-5.47502e-06 8.66573e-05 0)
(-8.35568e-08 2.546e-08 0)
(9.60156e-07 0.000115937 0)
(2.72282e-06 1.27389e-05 0)
(-5.17327e-06 6.80303e-05 0)
(-5.54497e-06 8.78034e-05 0)
(2.14825e-06 3.83124e-06 0)
(-3.88414e-06 0.000125379 0)
(2.63476e-06 1.02319e-05 0)
(-6.10523e-06 0.00010354 0)
(-1.45404e-06 5.59151e-06 0)
(-1.5495e-06 5.7915e-06 0)
(1.49644e-06 5.73133e-06 0)
(-7.06551e-07 5.66327e-05 0)
(-5.89314e-09 -4.33755e-09 0)
(-4.12174e-06 0.000137065 0)
(-7.48613e-08 3.00456e-08 0)
(8.26474e-08 2.51134e-08 0)
(-2.07793e-06 1.23542e-05 0)
(4.11875e-06 8.855e-05 0)
(3.84856e-06 6.87063e-05 0)
(3.15004e-06 0.000116115 0)
(-9.23431e-06 0.000124336 0)
(1.16141e-06 5.31511e-05 0)
(-8.1304e-07 5.18175e-05 0)
(-2.43478e-07 5.84581e-06 0)
(-6.75721e-07 7.35662e-07 0)
(-4.25271e-09 -3.83001e-09 0)
(-2.40306e-06 3.9494e-05 0)
(2.71983e-06 5.87228e-05 0)
(2.30945e-07 8.11471e-08 0)
(-3.50974e-07 5.10852e-05 0)
(-3.33362e-07 5.06115e-05 0)
(-4.55099e-08 4.31901e-05 0)
(-7.78001e-08 1.15786e-05 0)
(6.10451e-08 7.01221e-05 0)
(4.95428e-08 9.01337e-05 0)
(-2.33714e-07 8.23342e-08 0)
(8.97371e-07 6.31011e-06 0)
(-3.21614e-06 0.000101907 0)
(1.90052e-06 2.23473e-05 0)
(2.10686e-06 2.91968e-05 0)
(2.28947e-06 3.67006e-05 0)
(6.61731e-06 0.000131695 0)
(-2.69744e-06 1.10856e-05 0)
(5.68173e-06 9.12148e-05 0)
(5.32631e-06 7.12039e-05 0)
(-3.82499e-06 0.000121738 0)
(6.21728e-07 1.67035e-06 0)
(5.04638e-06 0.00011954 0)
(-1.25056e-06 2.03807e-06 0)
(3.52175e-06 0.000132206 0)
(-2.77844e-06 0.000101918 0)
(1.63247e-06 2.23384e-05 0)
(1.80968e-06 2.91875e-05 0)
(1.96765e-06 3.66885e-05 0)
(5.42782e-07 1.58479e-06 0)
(2.31868e-06 8.23388e-05 0)
(-1.33933e-06 1.56245e-05 0)
(-4.72595e-07 6.28561e-06 0)
(-6.73255e-06 0.000119952 0)
(-2.62505e-06 3.31493e-05 0)
(-2.39148e-06 2.59402e-05 0)
(-2.13048e-06 1.94194e-05 0)
(3.34601e-06 7.59508e-05 0)
(3.54974e-06 9.62668e-05 0)
(9.14235e-06 0.000139379 0)
(5.29945e-06 0.000122721 0)
(5.88093e-06 0.000122516 0)
(8.64835e-08 6.28221e-08 0)
(3.40088e-06 3.92806e-05 0)
(-3.99189e-06 5.89522e-05 0)
(-1.78461e-06 3.98207e-05 0)
(1.96897e-06 5.83637e-05 0)
(-6.18327e-07 6.26772e-05 0)
(-4.7603e-07 9.98626e-05 0)
(2.56987e-07 3.059e-05 0)
(2.33731e-07 2.36074e-05 0)
(-6.70917e-09 1.68149e-05 0)
(-1.36259e-07 6.09787e-05 0)
(-8.48704e-08 8.02379e-05 0)
(4.15629e-06 0.000139194 0)
(2.51792e-07 6.46907e-06 0)
(-1.233e-07 1.54511e-06 0)
(7.65494e-07 8.49924e-05 0)
(4.04837e-08 1.59679e-06 0)
(-7.05252e-07 4.86657e-06 0)
(1.65242e-06 1.67738e-05 0)
(-2.99299e-06 8.03291e-05 0)
(-6.85138e-08 7.97382e-08 0)
(-6.23926e-06 0.000119898 0)
(-5.81014e-07 1.13637e-05 0)
(1.06064e-06 9.05975e-05 0)
(1.05919e-06 7.05443e-05 0)
(1.62532e-07 3.87635e-08 0)
(-2.07686e-06 3.89564e-06 0)
(2.09471e-06 2.98921e-05 0)
(1.89356e-06 2.29765e-05 0)
(-3.16348e-06 0.000100889 0)
(5.85783e-07 4.09979e-05 0)
(-4.23699e-06 0.000135343 0)
(-8.2181e-08 1.14314e-08 0)
(-2.69119e-06 6.03057e-06 0)
(1.74961e-06 3.36551e-06 0)
(-1.79922e-06 2.03389e-06 0)
(4.74017e-06 4.88584e-05 0)
(3.56445e-06 5.89633e-05 0)
(-3.18686e-06 3.92685e-05 0)
(2.13068e-07 1.66486e-05 0)
(-5.54622e-07 6.12004e-05 0)
(-4.68884e-07 8.05252e-05 0)
(4.40825e-06 0.00011822 0)
(4.19129e-06 5.33168e-05 0)
(2.11247e-06 0.000136362 0)
(2.03337e-06 0.000136858 0)
(5.72799e-07 5.87008e-05 0)
(8.13507e-07 4.07031e-05 0)
(8.14306e-08 1.12889e-08 0)
(-6.0312e-06 0.000107514 0)
(2.38313e-06 8.53374e-06 0)
(7.95592e-09 1.28648e-07 0)
(1.11078e-06 7.77169e-05 0)
(1.46428e-06 7.79758e-05 0)
(2.32914e-09 1.14481e-08 0)
(-1.29802e-06 3.26192e-06 0)
(2.94249e-06 3.03714e-05 0)
(2.66353e-06 2.3413e-05 0)
(2.35399e-06 1.71428e-05 0)
(-4.14033e-06 7.96359e-05 0)
(-4.3702e-06 0.00010021 0)
(3.81487e-06 5.08472e-05 0)
(5.032e-07 0.000116058 0)
(-2.48525e-06 0.000130441 0)
(-2.35549e-06 0.000131111 0)
(-2.78915e-07 0.000101426 0)
(-2.45708e-07 0.000101964 0)
(1.503e-07 2.22912e-05 0)
(1.34361e-07 2.26093e-05 0)
(1.65482e-07 2.9137e-05 0)
(1.47656e-07 2.94888e-05 0)
(9.29927e-08 3.66347e-05 0)
(1.17706e-07 3.70061e-05 0)
(2.61704e-07 5.88887e-05 0)
(5.13305e-07 5.97947e-05 0)
(9.0796e-07 8.95818e-05 0)
(-2.84085e-07 6.25299e-05 0)
(-1.64051e-07 3.92332e-08 0)
(-1.83559e-07 1.47492e-06 0)
(2.03768e-06 8.19186e-05 0)
(-1.19241e-06 1.58591e-05 0)
(6.16037e-07 2.03308e-06 0)
(8.04286e-06 0.000132326 0)
(-6.60534e-07 0.000102395 0)
(3.80299e-07 2.20491e-05 0)
(4.21009e-07 2.8869e-05 0)
(4.05605e-07 3.63274e-05 0)
(-6.22596e-06 0.000111733 0)
(2.16128e-06 4.16337e-05 0)
(3.10747e-06 0.000140251 0)
(3.52024e-06 0.000139946 0)
(-7.00732e-07 5.01434e-06 0)
(-4.36933e-07 7.92297e-05 0)
(1.99033e-07 1.73939e-05 0)
(1.05953e-07 1.14784e-07 0)
(7.89185e-06 0.000135964 0)
(-1.30369e-07 2.57572e-06 0)
(-1.60637e-06 2.49085e-05 0)
(-1.7688e-06 3.20197e-05 0)
(-2.10933e-06 3.23423e-05 0)
(-1.9175e-06 2.5203e-05 0)
(-1.4086e-06 1.84893e-05 0)
(-1.69829e-06 1.87593e-05 0)
(2.59883e-06 7.69826e-05 0)
(2.75572e-06 9.73648e-05 0)
(1.29627e-06 1.84476e-06 0)
(-8.58593e-08 5.36077e-08 0)
(-6.90433e-06 9.30661e-05 0)
(-7.1829e-06 0.000135694 0)
(2.32304e-06 5.97492e-05 0)
(-2.33667e-07 2.63441e-06 0)
(-3.76927e-06 7.6848e-05 0)
(-3.98975e-06 9.72182e-05 0)
(2.24163e-06 1.88675e-05 0)
(2.51779e-06 2.53224e-05 0)
(2.76561e-06 3.24712e-05 0)
(3.38871e-06 0.000116489 0)
(7.75932e-06 0.000136435 0)
(-4.33907e-06 4.92803e-05 0)
(1.84175e-06 1.69687e-05 0)
(-3.31447e-06 7.99937e-05 0)
(2.22037e-06 6.01945e-05 0)
(-9.07309e-07 4.35135e-05 0)
(2.32206e-06 3.01364e-05 0)
(2.10056e-06 2.31984e-05 0)
(-3.48263e-06 0.000100538 0)
(-6.43093e-06 4.98198e-05 0)
(6.20794e-06 4.78511e-05 0)
(6.20453e-06 4.83623e-05 0)
(-6.34991e-06 4.92776e-05 0)
(-3.19757e-06 8.83016e-06 0)
(-3.28809e-06 9.09701e-06 0)
(-3.00619e-06 4.83605e-05 0)
(-1.69382e-06 2.08255e-06 0)
(-4.83932e-06 4.87139e-05 0)
(-7.31706e-07 0.000112359 0)
(-6.98696e-07 8.71539e-07 0)
(4.91621e-06 2.90435e-05 0)
(4.4332e-06 2.22177e-05 0)
(-6.7383e-06 7.17186e-05 0)
(1.09284e-06 3.0156e-05 0)
(9.8915e-07 2.32142e-05 0)
(-1.69362e-06 0.000100494 0)
(2.42911e-06 7.64672e-06 0)
(3.68961e-06 5.85055e-05 0)
(-3.31625e-06 3.96725e-05 0)
(-1.99707e-06 2.31308e-06 0)
(1.84798e-06 8.99272e-05 0)
(1.77715e-06 6.99863e-05 0)
(-9.55863e-07 1.16559e-05 0)
(5.44316e-06 8.5099e-05 0)
(-2.92207e-06 1.41574e-05 0)
(5.06468e-06 6.54913e-05 0)
(-3.38388e-06 8.71524e-06 0)
(3.80627e-06 0.000130697 0)
(4.37226e-06 0.000130511 0)
(4.21602e-06 0.000100212 0)
(4.01238e-06 7.96438e-05 0)
(-2.39153e-06 1.71911e-05 0)
(-2.69707e-06 2.34119e-05 0)
(-2.98219e-06 3.03702e-05 0)
(-7.37238e-07 7.56348e-07 0)
(-3.42787e-06 0.000121617 0)
(3.67e-06 7.87954e-05 0)
(-2.22208e-06 1.76898e-05 0)
(-4.48664e-07 5.84691e-07 0)
(3.1092e-06 0.000132122 0)
(8.84931e-07 7.57472e-07 0)
(7.35439e-07 5.75485e-07 0)
(1.82742e-06 2.70494e-06 0)
(3.77133e-06 0.000106885 0)
(-6.50465e-06 0.000109732 0)
(8.55616e-06 0.00013249 0)
(1.84866e-06 2.84069e-06 0)
(3.81301e-06 5.33016e-05 0)
(5.13145e-06 0.000113117 0)
(-8.36508e-06 0.000107155 0)
(3.35705e-06 8.7316e-06 0)
(-1.95611e-06 0.000113807 0)
(7.83084e-07 3.02462e-05 0)
(7.09282e-07 2.32957e-05 0)
(-1.24163e-06 0.000100361 0)
(-3.33603e-07 1.64842e-06 0)
(2.19535e-06 6.28993e-05 0)
(7.35726e-08 2.94642e-08 0)
(-2.84605e-06 5.97309e-06 0)
(-4.96902e-07 5.2126e-05 0)
(-1.26049e-06 1.06774e-05 0)
(-1.46403e-06 1.07456e-05 0)
(2.48903e-06 7.19285e-05 0)
(2.89615e-06 7.18e-05 0)
(3.08859e-06 9.18545e-05 0)
(2.6545e-06 9.19918e-05 0)
(8.44744e-08 3.41932e-07 0)
(-3.13006e-08 4.06986e-06 0)
(-4.60411e-06 6.49084e-05 0)
(-4.95122e-06 8.44729e-05 0)
(2.58964e-06 1.44809e-05 0)
(-1.57691e-06 8.75546e-06 0)
(-8.89945e-07 8.6765e-05 0)
(-1.45541e-06 3.83095e-06 0)
(2.59324e-06 0.0001309 0)
(-2.22322e-06 4.46945e-05 0)
(-2.57038e-06 4.45864e-05 0)
(8.46046e-08 9.09324e-08 0)
(-1.48362e-06 4.61601e-05 0)
(-8.0028e-07 9.84707e-06 0)
(1.61749e-06 7.3619e-05 0)
(1.72261e-06 9.37921e-05 0)
(-2.02502e-06 8.67782e-05 0)
(-1.79883e-06 6.70247e-05 0)
(9.33789e-07 1.32438e-05 0)
(1.29361e-06 5.1054e-06 0)
(1.20186e-06 4.9246e-06 0)
(5.44995e-07 4.457e-05 0)
(-7.78872e-07 9.18217e-05 0)
(-7.36778e-07 7.1758e-05 0)
(3.16176e-07 1.07484e-05 0)
(-7.47163e-07 1.82066e-05 0)
(-1.37023e-06 3.93572e-06 0)
(4.87053e-06 0.000133895 0)
(-4.86139e-06 8.14392e-05 0)
(3.78624e-06 3.95212e-05 0)
(-4.41779e-06 5.86856e-05 0)
(5.19472e-06 0.000113612 0)
(-5.03269e-06 3.64504e-05 0)
(-4.63375e-06 2.89634e-05 0)
(5.92751e-06 6.23045e-05 0)
(-4.17417e-06 2.21449e-05 0)
(-3.6611e-06 1.60565e-05 0)
(6.41638e-06 8.16836e-05 0)
(6.75763e-06 0.000102333 0)
(-1.80802e-06 9.80716e-05 0)
(-1.71146e-06 7.76517e-05 0)
(1.09293e-06 2.47533e-05 0)
(9.7206e-07 1.83572e-05 0)
(1.20177e-06 3.18496e-05 0)
(1.04314e-06 2.5096e-05 0)
(-1.71931e-06 9.7541e-05 0)
(1.14574e-06 3.22259e-05 0)
(9.29084e-07 1.86626e-05 0)
(-1.62673e-06 7.71505e-05 0)
(-9.78335e-07 0.000123474 0)
(-2.14882e-06 2.8987e-06 0)
(-2.24289e-06 1.31211e-05 0)
(4.3195e-06 8.70414e-05 0)
(4.02896e-06 6.72983e-05 0)
(-1.4037e-06 1.75083e-05 0)
(2.31265e-06 7.9086e-05 0)
(6.41647e-06 9.72053e-05 0)
(6.05584e-06 7.6841e-05 0)
(-3.7601e-06 1.89139e-05 0)
(-4.22812e-06 2.53668e-05 0)
(-4.64649e-06 3.25148e-05 0)
(6.75695e-06 0.000105781 0)
(7.37927e-06 0.000105651 0)
(1.78235e-07 3.48531e-06 0)
(-7.38246e-07 5.13082e-05 0)
(-2.04842e-06 5.82917e-06 0)
(1.07021e-07 2.14158e-07 0)
(-2.00512e-06 7.36025e-06 0)
(-3.34476e-07 0.000112577 0)
(7.57029e-08 3.33883e-06 0)
(-1.55794e-06 5.48256e-05 0)
(6.17239e-06 7.17595e-05 0)
(-3.07887e-06 1.08299e-05 0)
(6.57953e-06 9.18052e-05 0)
(-7.22232e-09 -5.00586e-09 0)
(3.71304e-07 8.50705e-05 0)
(1.36219e-07 5.7882e-08 0)
(9.27791e-08 7.12351e-08 0)
(1.06933e-06 6.19321e-05 0)
(-1.56647e-07 1.32381e-07 0)
(4.97869e-06 0.000134871 0)
(3.36209e-07 7.79544e-05 0)
(-2.3737e-07 1.81531e-05 0)
(1.19847e-06 7.48949e-06 0)
(6.54431e-07 7.77215e-05 0)
(-4.39455e-07 1.82814e-05 0)
(-8.08804e-08 1.71543e-06 0)
(-4.97365e-06 2.90313e-05 0)
(-4.48157e-06 2.22077e-05 0)
(-3.93139e-06 1.61161e-05 0)
(-3.31626e-06 1.08547e-05 0)
(6.64784e-06 7.17329e-05 0)
(6.88486e-06 8.15973e-05 0)
(7.08644e-06 9.17756e-05 0)
(7.25357e-06 0.000102243 0)
(-3.27273e-06 0.000110045 0)
(-2.91442e-06 0.000130194 0)
(-9.31826e-06 0.000108099 0)
(3.67037e-06 8.36967e-06 0)
(2.07021e-06 0.000137826 0)
(2.41557e-06 0.000137246 0)
(6.21361e-07 7.60672e-05 0)
(6.73164e-07 9.64022e-05 0)
(-5.61349e-07 3.30696e-05 0)
(-5.10255e-07 2.58651e-05 0)
(-4.53131e-07 1.93492e-05 0)
(-2.93719e-06 8.73929e-06 0)
(1.05987e-06 6.32207e-06 0)
(-3.77021e-06 3.45795e-05 0)
(4.74197e-06 7.41134e-05 0)
(-3.44734e-06 2.72513e-05 0)
(-3.08687e-06 2.0598e-05 0)
(5.04091e-06 9.43138e-05 0)
(-2.22754e-06 9.66089e-06 0)
(5.09867e-06 0.000104861 0)
(8.47512e-07 4.9229e-05 0)
(-5.86426e-07 0.000116735 0)
(6.16303e-07 3.12794e-07 0)
(-4.38444e-07 0.000102918 0)
(2.43887e-07 2.17319e-05 0)
(2.69753e-07 2.85176e-05 0)
(2.41405e-07 3.59447e-05 0)
(1.562e-06 0.000120818 0)
(-2.55802e-07 1.67833e-07 0)
(8.11165e-06 0.000118938 0)
(-1.28849e-06 5.20543e-05 0)
(-4.37166e-08 9.93396e-08 0)
(2.89851e-06 7.30062e-05 0)
(-1.42261e-06 1.01531e-05 0)
(3.08652e-06 9.3139e-05 0)
(7.4048e-08 6.02432e-08 0)
(-1.89516e-06 1.21851e-05 0)
(3.52832e-06 6.90143e-05 0)
(3.77475e-06 8.88801e-05 0)
(6.81696e-07 9.37408e-07 0)
(-2.58582e-06 4.56407e-05 0)
(5.00014e-07 4.86694e-05 0)
(-5.69466e-06 0.000126883 0)
(4.82541e-07 7.64653e-05 0)
(5.13891e-07 9.68146e-05 0)
(-4.79168e-07 3.27635e-05 0)
(-3.84879e-07 1.91007e-05 0)
(-4.35026e-07 2.55856e-05 0)
(8.19363e-07 4.95783e-05 0)
(-1.3768e-07 5.42415e-07 0)
(-1.24306e-07 1.80358e-06 0)
(2.01438e-07 0.000112399 0)
(5.63184e-06 5.31485e-05 0)
(-5.3987e-06 4.45864e-05 0)
(-4.0117e-06 0.000141591 0)
(-9.06028e-06 9.36861e-05 0)
(-8.51969e-06 7.3532e-05 0)
(-8.81159e-06 8.34531e-05 0)
(-8.18311e-06 6.3971e-05 0)
(4.75141e-06 1.51229e-05 0)
(5.44387e-06 2.10652e-05 0)
(6.06137e-06 2.77581e-05 0)
(6.61533e-06 3.51201e-05 0)
(8.95567e-06 9.36856e-05 0)
(8.70906e-06 8.34527e-05 0)
(-4.8018e-06 1.51261e-05 0)
(-5.50489e-06 2.10691e-05 0)
(8.41993e-06 7.35319e-05 0)
(-6.13281e-06 2.77607e-05 0)
(8.08764e-06 6.39698e-05 0)
(-6.69486e-06 3.51235e-05 0)
(-2.82948e-06 8.50157e-06 0)
(-1.44193e-06 0.000116494 0)
(-1.04193e-06 0.000116386 0)
(-1.28402e-06 0.000131491 0)
(2.02073e-06 8.09468e-05 0)
(-1.20383e-06 1.64129e-05 0)
(-4.55508e-07 7.00261e-07 0)
(-1.64867e-06 0.000138783 0)
(-1.86666e-06 3.16131e-05 0)
(-2.27991e-06 3.14984e-05 0)
(-1.69352e-06 2.45385e-05 0)
(-2.06809e-06 2.44349e-05 0)
(2.56031e-06 9.85753e-05 0)
(3.08385e-06 9.86197e-05 0)
(6.83309e-06 9.69612e-05 0)
(6.44743e-06 7.66116e-05 0)
(-4.01584e-06 1.90639e-05 0)
(-4.51234e-06 2.55333e-05 0)
(-4.95626e-06 3.26962e-05 0)
(-4.24583e-06 6.51284e-05 0)
(-4.56448e-06 8.47101e-05 0)
(2.37234e-06 1.43473e-05 0)
(-1.36728e-06 5.85921e-05 0)
(1.10972e-06 3.95871e-05 0)
(1.31266e-06 0.000101272 0)
(-8.67994e-07 2.26939e-05 0)
(-9.6303e-07 2.95818e-05 0)
(-1.03367e-06 3.70445e-05 0)
(2.61768e-06 3.9133e-05 0)
(2.21234e-06 3.92294e-05 0)
(-3.10142e-06 5.91063e-05 0)
(-2.63255e-06 5.89902e-05 0)
(-3.08314e-06 0.000137769 0)
(2.30948e-07 6.7293e-07 0)
(5.00307e-06 0.000119064 0)
(1.83486e-06 4.32844e-05 0)
(4.92645e-06 8.33703e-05 0)
(-2.73582e-06 1.50842e-05 0)
(4.57333e-06 6.3883e-05 0)
(-4.36927e-06 5.15172e-05 0)
(1.10355e-06 1.15143e-05 0)
(-2.41414e-06 9.02157e-05 0)
(-2.26383e-06 7.02646e-05 0)
(2.65063e-07 4.49649e-05 0)
(-4.10861e-07 7.22176e-05 0)
(-4.32115e-07 9.23097e-05 0)
(1.54453e-07 1.05199e-05 0)
(2.91202e-06 4.08852e-05 0)
(-3.35419e-06 5.71149e-05 0)
(-1.60764e-06 0.000123472 0)
(-7.273e-06 0.000122324 0)
(1.27609e-06 5.45883e-05 0)
(3.26481e-06 5.47515e-05 0)
(-2.88669e-06 1.11965e-05 0)
(6.05709e-06 9.09971e-05 0)
(5.67686e-06 7.10005e-05 0)
(-3.3685e-07 1.46891e-06 0)
(-1.02276e-06 0.00010361 0)
(5.53091e-07 2.13102e-05 0)
(6.14401e-07 2.80497e-05 0)
(6.638e-07 3.54403e-05 0)
(-1.56384e-06 5.18101e-05 0)
(-6.74497e-06 0.000122364 0)
(-2.07722e-06 2.13345e-05 0)
(-2.31387e-06 2.80737e-05 0)
(-2.51757e-06 3.54801e-05 0)
(3.37181e-06 0.000103574 0)
(7.20759e-09 1.00447e-08 0)
(4.25065e-06 5.11209e-05 0)
(4.99574e-08 4.33224e-06 0)
(-2.31375e-07 4.21976e-07 0)
(-4.76028e-07 1.89134e-06 0)
(-2.20436e-06 7.83616e-06 0)
(-2.37699e-07 8.80553e-08 0)
(8.47447e-07 2.39849e-05 0)
(7.55367e-07 1.76621e-05 0)
(9.33776e-07 3.10053e-05 0)
(-1.44455e-06 9.9269e-05 0)
(-1.37616e-06 7.88025e-05 0)
(-4.23879e-06 4.27363e-05 0)
(4.46433e-06 5.50662e-05 0)
(-4.6932e-07 2.84831e-07 0)
(5.32279e-06 0.00013074 0)
(3.82537e-06 0.000117323 0)
(-8.29623e-06 0.000110633 0)
(3.07338e-06 5.43458e-05 0)
(1.07846e-06 5.883e-05 0)
(-2.12427e-06 0.000138721 0)
(-5.89834e-06 6.15141e-05 0)
(-5.61324e-06 6.1254e-05 0)
(8.10194e-06 0.000138682 0)
(-6.99357e-07 0.000124071 0)
(-1.92591e-06 3.94336e-05 0)
(2.19102e-06 5.88184e-05 0)
(6.41882e-08 4.48066e-06 0)
(1.14489e-06 1.61376e-06 0)
(2.34479e-07 8.66369e-08 0)
(1.92743e-06 6.25056e-05 0)
(7.1342e-06 0.000141462 0)
(-3.97977e-06 9.92859e-05 0)
(-3.76466e-06 7.88e-05 0)
(2.16566e-06 1.76807e-05 0)
(2.69948e-06 3.101e-05 0)
(2.44801e-06 2.39921e-05 0)
(-8.65452e-08 6.26071e-08 0)
(-3.42052e-07 0.000129002 0)
(3.70699e-06 5.4906e-05 0)
(-3.48344e-06 4.29459e-05 0)
(-5.94154e-06 0.000125955 0)
(-8.8623e-06 9.4149e-05 0)
(-8.62066e-06 8.39009e-05 0)
(-8.33826e-06 7.39658e-05 0)
(-8.011e-06 6.43883e-05 0)
(4.60884e-06 1.48718e-05 0)
(5.28886e-06 2.07793e-05 0)
(5.89525e-06 2.74409e-05 0)
(6.43914e-06 3.47749e-05 0)
(8.75686e-06 9.41463e-05 0)
(8.51803e-06 8.39006e-05 0)
(-4.65852e-06 1.48759e-05 0)
(-5.3489e-06 2.07838e-05 0)
(8.23728e-06 7.39647e-05 0)
(-5.96563e-06 2.74444e-05 0)
(7.91469e-06 6.43853e-05 0)
(-6.51773e-06 3.47792e-05 0)
(-1.46822e-06 2.03306e-06 0)
(5.78866e-07 5.69965e-07 0)
(-7.75896e-07 1.46968e-06 0)
(3.29859e-06 5.39157e-05 0)
(-3.69984e-06 5.54505e-05 0)
(7.35082e-07 9.26963e-07 0)
(-1.1692e-07 1.93945e-08 0)
(-7.9793e-06 0.000110891 0)
(4.49367e-06 0.000140067 0)
(5.04917e-06 0.000140325 0)
(1.15896e-07 1.91709e-08 0)
(1.6431e-06 2.2733e-06 0)
(7.0661e-06 0.000127807 0)
(-2.78196e-06 6.10486e-05 0)
(-2.06297e-07 1.891e-07 0)
(-4.63245e-07 7.48822e-07 0)
(-7.31548e-08 1.86907e-08 0)
(1.35488e-07 1.10127e-07 0)
(7.48663e-06 4.91066e-05 0)
(-7.55232e-06 4.8563e-05 0)
(2.29938e-06 3.74717e-05 0)
(-2.85205e-06 5.99783e-05 0)
(2.38582e-06 3.83938e-05 0)
(-1.44207e-07 2.42773e-06 0)
(-1.75141e-06 9.41326e-05 0)
(1.34673e-06 4.64524e-05 0)
(-9.96241e-07 9.31471e-05 0)
(-9.60207e-07 7.29614e-05 0)
(4.12942e-07 1.01586e-05 0)
(7.23488e-07 4.5645e-05 0)
(-3.09834e-06 6.07503e-05 0)
(1.75019e-06 2.40554e-06 0)
(2.57898e-06 3.77426e-05 0)
(9.15231e-07 5.46685e-05 0)
(7.10107e-06 0.000131877 0)
(-2.25592e-06 5.51003e-05 0)
(-2.58746e-06 5.54591e-05 0)
(-2.28216e-06 5.02035e-06 0)
(-2.50823e-06 5.71465e-05 0)
(-2.15123e-06 5.67668e-05 0)
(2.19261e-06 4.08215e-05 0)
(1.92045e-06 4.12076e-05 0)
(-2.49898e-06 1.19356e-05 0)
(4.73535e-06 6.95261e-05 0)
(5.06213e-06 8.9425e-05 0)
(-7.25848e-07 8.39482e-07 0)
(-3.10485e-06 6.02834e-05 0)
(2.59579e-06 3.81462e-05 0)
(-1.97892e-06 7.67698e-05 0)
(-2.09331e-06 9.71376e-05 0)
(1.15061e-06 1.88986e-05 0)
(1.41744e-06 3.25152e-05 0)
(1.29123e-06 2.53601e-05 0)
(-1.12836e-06 5.41587e-06 0)
(-6.38305e-06 8.07886e-05 0)
(-6.05133e-06 8.05436e-05 0)
(3.57455e-06 1.65587e-05 0)
(3.3976e-06 1.66984e-05 0)
(4.16517e-06 6.47267e-05 0)
(4.58434e-06 6.44206e-05 0)
(-2.45147e-06 1.4581e-05 0)
(-2.71127e-06 1.47674e-05 0)
(4.48155e-06 8.4279e-05 0)
(4.93455e-06 8.39489e-05 0)
(-1.86222e-06 0.000123032 0)
(3.57279e-06 0.000112647 0)
(3.62502e-06 0.000112137 0)
(-2.81075e-06 3.83976e-05 0)
(3.15271e-06 5.99638e-05 0)
(-9.55464e-06 0.000136693 0)
(-2.78126e-06 0.000109741 0)
(-2.6728e-06 0.000109243 0)
(9.93892e-07 7.79526e-06 0)
(1.02289e-06 7.60181e-06 0)
(8.15716e-06 0.00011092 0)
(-3.75332e-06 4.87571e-05 0)
(-3.22762e-06 4.87739e-05 0)
(8.06828e-06 0.000124794 0)
(-8.2548e-06 0.000131369 0)
(-8.24431e-06 0.000131979 0)