/*--------------------------------*- C++ -*----------------------------------*\
| =========                 |                                                 |
| \\      /  F ield         | OpenFOAM: The Open Source CFD Toolbox           |
|  \\    /   O peration     | Version:  2.3.1                                 |
|   \\  /    A nd           | Web:      www.OpenFOAM.org                      |
|    \\/     M anipulation  |                                                 |
\*---------------------------------------------------------------------------*/
FoamFile
{
    version     2.0;
    format      ascii;
    class       volVectorField;
    location    "400";
    object      D;
}
// * * * * * * * * * * * * * * * * * * * * * * * * * * * * * * * * * * * * * //

dimensions      [0 1 0 0 0 0 0];

internalField   nonuniform List<vector> 
11800
(
(1.89094e-06 6.08132e-05 0)
(-2.53649e-06 6.72492e-05 0)
(1.42872e-06 2.283e-05 0)
(-1.6841e-06 3.00319e-05 0)
(-2.32272e-06 6.71429e-05 0)
(-1.10988e-06 3.00848e-05 0)
(-4.32057e-07 4.67596e-05 0)
(-4.19225e-07 3.70007e-05 0)
(1.80886e-07 6.79802e-06 0)
(2.69455e-07 2.3588e-05 0)
(2.10683e-06 6.06799e-05 0)
(-2.11972e-06 2.60466e-05 0)
(-2.84856e-09 -2.26941e-09 0)
(1.26533e-06 2.27077e-05 0)
(-1.49925e-06 3.01449e-05 0)
(1.73563e-06 4.29908e-06 0)
(-2.67089e-07 4.66362e-05 0)
(-2.63523e-07 3.68822e-05 0)
(9.11568e-08 6.86801e-06 0)
(1.47189e-07 2.34841e-05 0)
(-1.29692e-06 2.99859e-05 0)
(-1.94586e-06 2.61393e-05 0)
(-4.15256e-07 1.61315e-06 0)
(-4.42104e-07 1.67643e-06 0)
(1.52669e-06 4.87358e-06 0)
(-6.46984e-07 2.60515e-06 0)
(-2.20036e-06 1.64221e-05 0)
(2.74557e-06 4.23559e-05 0)
(-2.02623e-06 1.27947e-05 0)
(-1.81828e-06 9.46575e-06 0)
(2.88734e-06 5.23911e-05 0)
(7.9909e-09 1.27157e-06 0)
(7.97769e-07 3.29988e-06 0)
(-1.56707e-06 6.88991e-05 0)
(1.15537e-06 6.86067e-05 0)
(-3.41804e-06 5.56461e-05 0)
(1.07188e-06 6.88286e-05 0)
(7.83224e-07 3.38737e-06 0)
(-4.23087e-07 4.91389e-05 0)
(2.65943e-07 2.56389e-05 0)
(-2.16124e-06 1.65877e-05 0)
(-1.99188e-06 1.29478e-05 0)
(2.68147e-06 4.21382e-05 0)
(-1.78926e-06 9.60539e-06 0)
(2.82184e-06 5.21633e-05 0)
(1.65261e-06 4.33232e-06 0)
(4.51096e-07 1.89276e-06 0)
(5.04854e-07 1.86369e-06 0)
(-6.31965e-07 4.9177e-05 0)
(4.43115e-07 2.56708e-05 0)
(-3.303e-06 3.74358e-05 0)
(-3.47955e-06 4.71935e-05 0)
(-3.79373e-07 6.02102e-05 0)
(1.50899e-08 1.20962e-06 0)
(-2.14623e-06 5.06428e-06 0)
(3.19761e-07 2.95299e-07 0)
(-4.26719e-06 6.97856e-05 0)
(-1.1884e-06 2.20704e-05 0)
(1.19214e-06 3.08736e-05 0)
(-8.80459e-07 2.12962e-05 0)
(6.22179e-07 9.14829e-07 0)
(-6.05325e-07 6.02519e-05 0)
(-1.04017e-06 2.20263e-05 0)
(1.03226e-06 3.09246e-05 0)
(1.43004e-06 4.80479e-06 0)
(-4.06708e-06 6.22005e-05 0)
(-3.42574e-06 3.72895e-05 0)
(-3.62069e-06 4.70349e-05 0)
(-4.05538e-06 6.96798e-05 0)
(-6.77399e-07 2.68492e-06 0)
(-1.4042e-06 6.90802e-05 0)
(-2.43008e-06 6.87296e-05 0)
(-2.49889e-06 6.85007e-05 0)
(-3.17853e-08 4.01959e-08 0)
(6.64427e-07 9.52102e-07 0)
(-3.22319e-06 5.57889e-05 0)
(1.82548e-06 6.58633e-06 0)
(-4.13233e-06 6.24165e-05 0)
(-3.30275e-06 6.29058e-05 0)
(-3.09007e-06 6.31009e-05 0)
(-2.04777e-06 5.00052e-06 0)
(2.00138e-07 2.65125e-05 0)
(2.16618e-06 6.82239e-05 0)
(1.9266e-06 6.82634e-05 0)
(-3.55775e-07 2.71663e-05 0)
(-1.72772e-06 1.05555e-05 0)
(2.6059e-06 5.06525e-05 0)
(-1.90613e-06 1.39892e-05 0)
(-2.05725e-06 1.77102e-05 0)
(2.47297e-06 4.06975e-05 0)
(-1.38606e-07 5.90053e-05 0)
(8.52431e-07 3.14552e-06 0)
(-2.07672e-06 6.32815e-05 0)
(4.10584e-06 7.02856e-05 0)
(6.23431e-07 3.27397e-05 0)
(-7.59469e-10 -5.78445e-10 0)
(1.93603e-11 -1.20943e-10 0)
(7.4753e-10 -5.69926e-10 0)
(-1.09013e-07 6.08956e-05 0)
(-2.0106e-06 2.65589e-05 0)
(3.52289e-06 7.00493e-05 0)
(2.20659e-06 2.88782e-05 0)
(-1.04579e-06 4.49365e-06 0)
(-2.51625e-07 3.52709e-06 0)
(-1.80693e-07 6.68627e-05 0)
(2.45542e-07 7.0875e-06 0)
(-5.22564e-07 3.65171e-05 0)
(-5.33384e-07 4.6231e-05 0)
(9.42843e-07 1.76958e-06 0)
(1.84402e-06 1.3981e-05 0)
(1.67804e-06 1.05478e-05 0)
(1.98517e-06 1.77007e-05 0)
(-2.76309e-06 5.06596e-05 0)
(-2.62641e-06 4.07058e-05 0)
(3.64378e-07 2.31603e-05 0)
(7.45534e-07 1.62266e-06 0)
(3.90727e-06 6.24381e-05 0)
(-1.68807e-06 6.39695e-05 0)
(7.61085e-07 1.56586e-06 0)
(-3.41548e-07 2.38491e-05 0)
(-2.28593e-07 6.6319e-06 0)
(3.06024e-07 4.70708e-05 0)
(2.92806e-07 3.72829e-05 0)
(-5.60667e-07 4.53211e-05 0)
(-2.0898e-06 6.35029e-05 0)
(-2.42876e-07 6.07195e-05 0)
(-1.36562e-06 6.68871e-05 0)
(-3.67005e-07 6.67175e-05 0)
(-4.58008e-06 7.19608e-05 0)
(-4.74292e-06 7.17959e-05 0)
(-1.94803e-07 9.12265e-08 0)
(-8.21107e-07 2.07961e-06 0)
(2.67679e-06 4.92821e-05 0)
(-1.83582e-06 1.14511e-05 0)
(2.53536e-06 3.93991e-05 0)
(-2.01161e-06 1.49661e-05 0)
(-2.16154e-06 1.87577e-05 0)
(2.465e-06 4.9323e-05 0)
(-1.69452e-06 1.14208e-05 0)
(2.33478e-06 3.94377e-05 0)
(-1.8575e-06 1.49338e-05 0)
(-1.99657e-06 1.87236e-05 0)
(-4.91078e-07 6.1765e-06 0)
(8.29514e-07 4.78866e-05 0)
(7.81689e-07 3.80783e-05 0)
(-7.99497e-07 2.45389e-05 0)
(3.54084e-06 2.66486e-05 0)
(-3.63503e-06 2.61322e-05 0)
(2.16785e-06 2.90645e-05 0)
(-3.45346e-07 3.72933e-06 0)
(-2.30082e-06 5.87548e-05 0)
(-2.28174e-06 5.90416e-05 0)
(1.02948e-06 6.81155e-05 0)
(-2.56359e-06 5.57159e-05 0)
(9.55355e-07 4.06813e-05 0)
(1.02916e-06 5.06292e-05 0)
(-2.86196e-06 4.51417e-05 0)
(-2.70025e-06 3.54891e-05 0)
(1.60006e-06 7.74684e-06 0)
(-2.71182e-07 5.92095e-05 0)
(1.02638e-06 1.79842e-06 0)
(-2.34827e-06 5.57662e-05 0)
(1.90988e-06 6.67386e-06 0)
(-1.17957e-06 1.83587e-05 0)
(-1.09451e-06 1.45915e-05 0)
(-9.94855e-07 1.11044e-05 0)
(1.35275e-06 3.98586e-05 0)
(1.4282e-06 4.97684e-05 0)
(-9.41208e-07 1.25833e-06 0)
(-1.5229e-06 7.47743e-06 0)
(2.55278e-06 4.55955e-05 0)
(2.40516e-06 3.59185e-05 0)
(5.24417e-07 4.61853e-05 0)
(-3.88635e-06 5.5409e-05 0)
(-3.9251e-06 5.57135e-05 0)
(1.76311e-06 4.87881e-06 0)
(1.76112e-06 5.00462e-06 0)
(1.71011e-06 1.36156e-05 0)
(1.84408e-06 1.73084e-05 0)
(1.5523e-06 1.02137e-05 0)
(-2.47159e-06 4.11976e-05 0)
(-2.59803e-06 5.11827e-05 0)
(9.73342e-07 4.04531e-05 0)
(1.03562e-06 5.03961e-05 0)
(1.1221e-06 2.60475e-05 0)
(-6.18208e-07 2.44901e-05 0)
(-3.79153e-07 6.20621e-06 0)
(6.14081e-07 4.78287e-05 0)
(5.77615e-07 3.80236e-05 0)
(-9.37395e-07 5.80148e-05 0)
(-3.82933e-07 1.21936e-05 0)
(-4.19905e-07 1.57764e-05 0)
(-3.35651e-06 6.17562e-05 0)
(-1.36084e-07 3.09723e-06 0)
(-3.34713e-06 3.1312e-05 0)
(2.92687e-06 2.17243e-05 0)
(4.64821e-08 5.06823e-08 0)
(-2.03707e-06 6.90019e-05 0)
(3.87988e-06 6.2671e-05 0)
(-1.68933e-07 1.09128e-07 0)
(2.53286e-06 6.54685e-05 0)
(3.1779e-06 5.66087e-05 0)
(3.4136e-06 5.66513e-05 0)
(-1.66435e-07 6.71792e-05 0)
(-3.28934e-07 6.73805e-05 0)
(1.94553e-06 2.12616e-05 0)
(1.71143e-06 2.13463e-05 0)
(-2.29589e-06 3.17887e-05 0)
(-2.03013e-06 3.16904e-05 0)
(1.88864e-07 8.81369e-08 0)
(-4.88425e-07 4.42252e-06 0)
(-5.62277e-07 2.553e-06 0)
(-1.41768e-08 5.41466e-09 0)
(1.65432e-06 2.9828e-06 0)
(-4.41652e-08 1.41894e-08 0)
(2.02836e-07 2.5104e-06 0)
(-2.3017e-06 6.68479e-05 0)
(-1.33062e-06 1.0326e-05 0)
(-1.46756e-06 1.37423e-05 0)
(-1.58663e-06 1.7446e-05 0)
(1.99415e-06 5.0995e-05 0)
(1.89911e-06 4.10259e-05 0)
(7.52317e-08 4.77482e-05 0)
(6.75754e-08 3.7947e-05 0)
(-9.66861e-08 6.24753e-06 0)
(-1.68932e-07 2.44255e-05 0)
(-6.5175e-08 1.06802e-08 0)
(1.81982e-07 7.6811e-06 0)
(-4.02107e-07 3.55509e-05 0)
(-1.13633e-06 2.36838e-05 0)
(2.65155e-07 7.57692e-06 0)
(-5.42015e-07 3.57183e-05 0)
(-1.59341e-06 6.34947e-05 0)
(1.94701e-06 2.62146e-05 0)
(1.81195e-06 2.60364e-05 0)
(1.38723e-08 5.26707e-09 0)
(6.40279e-08 1.04193e-08 0)
(-3.02433e-06 5.94119e-05 0)
(-2.91212e-06 5.96443e-05 0)
(-3.06986e-06 2.26119e-05 0)
(3.21861e-06 3.0317e-05 0)
(2.46039e-06 5.1161e-05 0)
(2.33629e-06 4.11798e-05 0)
(-1.61338e-06 1.02294e-05 0)
(-1.78513e-06 1.36321e-05 0)
(-1.93026e-06 1.73265e-05 0)
(-1.57425e-07 6.04946e-05 0)
(-1.41389e-06 7.17845e-06 0)
(2.40833e-06 4.61103e-05 0)
(2.27081e-06 3.64028e-05 0)
(1.542e-06 2.64586e-05 0)
(1.20801e-06 5.73078e-05 0)
(1.93898e-06 7.03639e-05 0)
(2.63813e-07 2.47581e-06 0)
(-8.55817e-07 2.14903e-05 0)
(-1.04994e-08 9.63039e-07 0)
(4.3307e-08 1.38305e-08 0)
(7.20348e-07 2.25412e-05 0)
(6.13608e-07 2.23319e-05 0)
(-8.60811e-07 3.03734e-05 0)
(-7.45213e-07 3.05727e-05 0)
(1.49669e-06 1.74387e-05 0)
(1.389e-06 1.37359e-05 0)
(1.26269e-06 1.0322e-05 0)
(-2.02272e-06 4.10263e-05 0)
(-2.12567e-06 5.10027e-05 0)
(-1.16063e-06 6.90211e-05 0)
(5.27373e-07 7.14878e-07 0)
(-5.82366e-08 4.15981e-05 0)
(-3.5476e-08 9.92534e-06 0)
(1.39195e-06 6.67528e-05 0)
(1.20396e-06 2.58801e-05 0)
(-4.68486e-06 6.60123e-05 0)
(1.38582e-06 2.66285e-05 0)
(7.77441e-08 6.28919e-08 0)
(3.73263e-06 5.47772e-05 0)
(3.75477e-06 5.44957e-05 0)
(-2.42291e-06 3.64457e-05 0)
(-2.56851e-06 4.61511e-05 0)
(-2.17109e-06 3.63642e-05 0)
(-2.30163e-06 4.6065e-05 0)
(1.37539e-06 7.15188e-06 0)
(1.22922e-06 7.19673e-06 0)
(1.10295e-06 3.3791e-05 0)
(1.32266e-06 3.37557e-05 0)
(1.17289e-06 4.33333e-05 0)
(1.40721e-06 4.32957e-05 0)
(-7.91521e-07 8.82274e-06 0)
(-9.37148e-07 8.8486e-06 0)
(-1.89743e-07 4.20658e-06 0)
(8.76337e-07 2.75322e-06 0)
(8.21085e-07 2.66361e-06 0)
(8.5357e-07 2.0452e-06 0)
(1.02335e-06 5.75345e-05 0)
(-3.82476e-06 5.48736e-05 0)
(-3.84508e-06 5.4581e-05 0)
(1.80405e-06 5.40914e-06 0)
(1.77257e-06 5.26546e-06 0)
(3.09866e-06 2.66562e-05 0)
(3.13702e-06 2.69218e-05 0)
(-3.19254e-06 2.61161e-05 0)
(-3.21296e-06 2.58538e-05 0)
(1.28504e-06 6.80727e-05 0)
(-3.76658e-06 6.89046e-05 0)
(-3.61303e-06 5.87091e-05 0)
(1.16636e-06 1.43065e-06 0)
(-2.23623e-06 6.80942e-05 0)
(-2.00345e-06 6.78756e-05 0)
(8.85812e-07 3.41349e-05 0)
(-6.45639e-07 3.10435e-05 0)
(4.97849e-07 2.19214e-05 0)
(-2.73727e-06 2.67479e-05 0)
(2.58406e-06 2.60062e-05 0)
(-1.57381e-06 5.32734e-06 0)
(-5.29097e-08 3.59361e-08 0)
(2.56841e-07 1.19757e-06 0)
(1.93191e-07 2.32256e-05 0)
(-2.34957e-06 2.33669e-05 0)
(2.34766e-06 2.94534e-05 0)
(-1.38812e-06 2.1497e-05 0)
(1.46026e-06 3.15253e-05 0)
(6.82046e-07 5.18881e-05 0)
(9.63548e-07 5.17862e-05 0)
(-5.46395e-07 1.31152e-05 0)
(-7.39482e-07 1.31863e-05 0)
(-5.94429e-07 1.67724e-05 0)
(-8.03242e-07 1.68488e-05 0)
(1.20386e-07 7.04288e-06 0)
(-3.11522e-07 3.65901e-05 0)
(-3.10904e-07 4.63127e-05 0)
(-4.73561e-07 6.57149e-05 0)
(7.7925e-07 2.03358e-06 0)
(-1.74708e-07 3.03338e-05 0)
(-1.81957e-06 6.72531e-05 0)
(3.44974e-07 3.05553e-07 0)
(1.52174e-06 4.17764e-05 0)
(-1.05672e-06 9.82361e-06 0)
(-2.80642e-06 3.06163e-05 0)
(-2.64025e-06 3.0481e-05 0)
(2.45357e-06 2.233e-05 0)
(2.30786e-06 2.24515e-05 0)
(-2.69554e-06 6.99498e-05 0)
(-2.72437e-06 6.9668e-05 0)
(-5.84407e-07 4.23053e-06 0)
(-6.89815e-07 4.21514e-06 0)
(2.81378e-07 1.25231e-06 0)
(-7.00076e-07 1.29573e-06 0)
(7.20233e-08 3.16625e-05 0)
(9.22259e-07 7.27531e-06 0)
(7.70669e-07 7.31893e-06 0)
(-1.64812e-06 3.62227e-05 0)
(-1.39131e-06 3.61463e-05 0)
(-1.7466e-06 4.59167e-05 0)
(-1.47396e-06 4.58361e-05 0)
(-3.46837e-06 5.69655e-05 0)
(-3.21379e-06 5.69861e-05 0)
(-8.69085e-07 1.94707e-05 0)
(-8.25645e-07 1.56273e-05 0)
(-7.5486e-07 1.20565e-05 0)
(1.01577e-06 5.34574e-05 0)
(-2.50488e-07 5.99502e-05 0)
(2.31948e-06 2.59851e-05 0)
(2.19078e-06 2.61862e-05 0)
(9.38491e-07 4.68508e-05 0)
(9.09931e-07 3.70886e-05 0)
(-5.86692e-07 6.74972e-06 0)
(4.9677e-07 7.49337e-06 0)
(4.02881e-07 7.62836e-06 0)
(-8.33877e-07 4.53127e-05 0)
(-9.80782e-07 4.55238e-05 0)
(-9.25823e-07 3.58562e-05 0)
(-7.65441e-07 3.56374e-05 0)
(-1.14053e-06 6.91286e-06 0)
(1.84637e-06 3.68324e-05 0)
(1.9573e-06 4.65666e-05 0)
(-3.84614e-08 3.74443e-07 0)
(3.4228e-06 2.92197e-05 0)
(-3.33353e-06 2.364e-05 0)
(-2.31349e-08 3.49369e-07 0)
(-1.06298e-06 5.11528e-05 0)
(-1.23679e-06 5.14096e-05 0)
(-9.88939e-07 4.11901e-05 0)
(-1.14812e-06 4.14348e-05 0)
(6.7548e-07 1.00432e-05 0)
(5.75885e-07 1.02048e-05 0)
(7.66296e-07 1.34465e-05 0)
(6.50674e-07 1.36235e-05 0)
(8.26035e-07 1.71289e-05 0)
(7.00351e-07 1.73195e-05 0)
(3.69497e-06 5.70617e-05 0)
(3.76497e-06 5.73288e-05 0)
(-4.89674e-07 2.57303e-06 0)
(1.36216e-06 4.19633e-05 0)
(-9.47973e-07 9.69966e-06 0)
(1.50163e-06 7.80922e-06 0)
(-2.53186e-06 3.53844e-05 0)
(-2.68933e-06 4.50245e-05 0)
(-5.15337e-08 1.57732e-08 0)
(4.21482e-07 5.92817e-05 0)
(1.48989e-06 7.47662e-06 0)
(-2.5631e-06 3.59185e-05 0)
(-2.72247e-06 4.55833e-05 0)
(1.24957e-06 2.35246e-06 0)
(-1.92025e-06 6.38838e-05 0)
(1.46185e-06 6.06449e-06 0)
(-2.98831e-06 5.32494e-05 0)
(-8.45924e-07 3.39641e-06 0)
(-8.99938e-07 3.51327e-06 0)
(8.50711e-07 3.47712e-06 0)
(-3.83594e-07 3.02919e-05 0)
(-3.63889e-09 -2.67968e-09 0)
(-2.03621e-06 6.95893e-05 0)
(-4.6115e-08 1.87416e-08 0)
(5.05193e-08 1.53625e-08 0)
(-1.16539e-06 7.26381e-06 0)
(1.95452e-06 4.5949e-05 0)
(1.84228e-06 3.62503e-05 0)
(1.48066e-06 5.93684e-05 0)
(-4.50953e-06 6.33771e-05 0)
(5.41172e-07 2.85586e-05 0)
(-4.37484e-07 2.78932e-05 0)
(-1.49277e-07 3.5464e-06 0)
(-4.10426e-07 4.71403e-07 0)
(-2.625e-09 -2.36501e-09 0)
(-1.24909e-06 2.16761e-05 0)
(1.30415e-06 3.13288e-05 0)
(1.41515e-07 4.99251e-08 0)
(-2.08353e-07 2.75272e-05 0)
(-1.99607e-07 2.72902e-05 0)
(-5.5247e-08 2.35552e-05 0)
(-5.79416e-08 6.82976e-06 0)
(-6.84587e-09 3.69464e-05 0)
(-1.28485e-08 4.672e-05 0)
(-1.44457e-07 5.12579e-08 0)
(5.03307e-07 3.81626e-06 0)
(-1.59174e-06 5.24537e-05 0)
(9.87206e-07 1.27348e-05 0)
(1.06899e-06 1.63613e-05 0)
(1.13706e-06 2.02474e-05 0)
(3.16224e-06 6.69667e-05 0)
(-1.51767e-06 6.54894e-06 0)
(2.7089e-06 4.72463e-05 0)
(2.55849e-06 3.74746e-05 0)
(-1.891e-06 6.2109e-05 0)
(3.65031e-07 1.05232e-06 0)
(2.39907e-06 6.1039e-05 0)
(-7.47905e-07 1.27652e-06 0)
(1.66301e-06 6.72162e-05 0)
(-1.38027e-06 5.24589e-05 0)
(8.44805e-07 1.27304e-05 0)
(9.14552e-07 1.63568e-05 0)
(9.73059e-07 2.02416e-05 0)
(3.18451e-07 9.99947e-07 0)
(1.08579e-06 4.2919e-05 0)
(-7.47718e-07 9.08268e-06 0)
(-2.80405e-07 3.80298e-06 0)
(-3.29595e-06 6.12385e-05 0)
(-1.37801e-06 1.84191e-05 0)
(-1.27943e-06 1.46482e-05 0)
(-1.16389e-06 1.11568e-05 0)
(1.5886e-06 3.98e-05 0)
(1.67688e-06 4.97063e-05 0)
(4.39012e-06 7.07201e-05 0)
(2.52216e-06 6.25894e-05 0)
(2.80372e-06 6.24895e-05 0)
(5.26554e-08 4.01544e-08 0)
(1.69362e-06 2.15659e-05 0)
(-2.00058e-06 3.14419e-05 0)
(-9.35195e-07 2.18429e-05 0)
(9.34646e-07 3.11511e-05 0)
(-3.38828e-07 3.32838e-05 0)
(-2.67087e-07 5.14575e-05 0)
(1.05927e-07 1.70906e-05 0)
(1.00275e-07 1.34103e-05 0)
(-2.20738e-08 9.7377e-06 0)
(-1.02417e-07 3.24453e-05 0)
(-7.83624e-08 4.18943e-05 0)
(1.97038e-06 7.06289e-05 0)
(1.33554e-07 3.90957e-06 0)
(-7.76261e-08 9.76631e-07 0)
(3.32865e-07 4.42135e-05 0)
(1.9624e-08 1.00834e-06 0)
(-4.1604e-07 2.97149e-06 0)
(8.78464e-07 9.71382e-06 0)
(-1.48961e-06 4.19384e-05 0)
(-4.24512e-08 5.28721e-08 0)
(-3.05741e-06 6.12119e-05 0)
(-3.3754e-07 6.70873e-06 0)
(4.76075e-07 4.69461e-05 0)
(4.79821e-07 3.71534e-05 0)
(9.97031e-08 2.36017e-08 0)
(-1.22137e-06 2.39297e-06 0)
(1.05999e-06 1.67249e-05 0)
(9.80766e-07 1.30718e-05 0)
(-1.56596e-06 5.19581e-05 0)
(2.64166e-07 2.24428e-05 0)
(-2.09162e-06 6.8748e-05 0)
(-5.08193e-08 7.0022e-09 0)
(-1.55786e-06 3.64961e-06 0)
(1.01967e-06 2.07583e-06 0)
(-1.07939e-06 1.27117e-06 0)
(2.33014e-06 2.64081e-05 0)
(1.71999e-06 3.14475e-05 0)
(-1.64706e-06 2.15604e-05 0)
(9.72893e-08 9.64645e-06 0)
(-3.07895e-07 3.25548e-05 0)
(-2.64677e-07 4.20344e-05 0)
(2.09009e-06 6.03954e-05 0)
(2.0431e-06 2.86394e-05 0)
(9.81134e-07 6.92449e-05 0)
(9.42875e-07 6.94875e-05 0)
(2.46865e-07 3.13185e-05 0)
(3.79556e-07 2.22928e-05 0)
(4.992e-08 6.8247e-09 0)
(-2.95271e-06 5.51829e-05 0)
(1.33499e-06 5.09707e-06 0)
(4.25143e-09 8.61491e-08 0)
(5.02186e-07 4.06633e-05 0)
(6.73687e-07 4.07898e-05 0)
(1.39042e-09 7.85066e-09 0)
(-7.67665e-07 2.01676e-06 0)
(1.49735e-06 1.69736e-05 0)
(1.38658e-06 1.33036e-05 0)
(1.25709e-06 9.91458e-06 0)
(-2.04636e-06 4.16001e-05 0)
(-2.14892e-06 5.16277e-05 0)
(1.86273e-06 2.74061e-05 0)
(2.00781e-07 5.93405e-05 0)
(-1.24355e-06 6.63543e-05 0)
(-1.18079e-06 6.66814e-05 0)
(-1.72698e-07 5.22188e-05 0)
(-1.56997e-07 5.2481e-05 0)
(5.74334e-08 1.27065e-05 0)
(4.86455e-08 1.2877e-05 0)
(5.97879e-08 1.63317e-05 0)
(5.02209e-08 1.65158e-05 0)
(1.74827e-08 2.02153e-05 0)
(2.98161e-08 2.04057e-05 0)
(9.35837e-08 3.14117e-05 0)
(2.17081e-07 3.18601e-05 0)
(4.02152e-07 4.64513e-05 0)
(-1.74857e-07 3.32112e-05 0)
(-1.01505e-07 2.41784e-08 0)
(-1.13396e-07 9.33396e-07 0)
(9.49944e-07 4.27142e-05 0)
(-6.67142e-07 9.212e-06 0)
(3.59532e-07 1.2745e-06 0)
(3.85327e-06 6.72745e-05 0)
(-3.57563e-07 5.26904e-05 0)
(1.80026e-07 1.25765e-05 0)
(1.93047e-07 1.61912e-05 0)
(1.77205e-07 2.00576e-05 0)
(-3.04836e-06 5.72363e-05 0)
(1.05916e-06 2.27653e-05 0)
(1.46273e-06 7.11449e-05 0)
(1.66249e-06 7.09959e-05 0)
(-4.13135e-07 3.05854e-06 0)
(-2.49076e-07 4.14021e-05 0)
(8.8883e-08 1.00548e-05 0)
(6.42579e-08 7.5126e-08 0)
(3.78122e-06 6.90506e-05 0)
(-8.26051e-08 1.60509e-06 0)
(-8.69561e-07 1.41022e-05 0)
(-9.39748e-07 1.78341e-05 0)
(-1.11458e-06 1.80013e-05 0)
(-1.03255e-06 1.42582e-05 0)
(-7.78285e-07 1.06521e-05 0)
(-9.33632e-07 1.07988e-05 0)
(1.22493e-06 4.03045e-05 0)
(1.29311e-06 5.02408e-05 0)
(7.6768e-07 1.15628e-06 0)
(-5.29126e-08 3.42104e-08 0)
(-3.37768e-06 4.81471e-05 0)
(-3.51987e-06 6.89194e-05 0)
(1.10731e-06 3.18372e-05 0)
(-1.43396e-07 1.64058e-06 0)
(-1.86807e-06 4.02383e-05 0)
(-1.96497e-06 5.017e-05 0)
(1.18653e-06 1.08557e-05 0)
(1.29983e-06 1.43198e-05 0)
(1.39662e-06 1.80659e-05 0)
(1.59625e-06 5.95509e-05 0)
(3.71701e-06 6.92808e-05 0)
(-2.19642e-06 2.66208e-05 0)
(9.80256e-07 9.8203e-06 0)
(-1.64564e-06 4.17748e-05 0)
(1.05629e-06 3.20575e-05 0)
(-4.88647e-07 2.37189e-05 0)
(1.1769e-06 1.68521e-05 0)
(1.08947e-06 1.319e-05 0)
(-1.72007e-06 5.17872e-05 0)
(-3.23808e-06 2.68888e-05 0)
(3.06827e-06 2.59002e-05 0)
(3.06391e-06 2.61569e-05 0)
(-3.20006e-06 2.66171e-05 0)
(-1.81913e-06 5.26575e-06 0)
(-1.86781e-06 5.41795e-06 0)
(-1.53362e-06 2.61604e-05 0)
(-1.01457e-06 1.30158e-06 0)
(-2.44782e-06 2.63362e-05 0)
(-3.94921e-07 5.75398e-05 0)
(-4.23417e-07 5.57075e-07 0)
(2.53163e-06 1.6275e-05 0)
(2.3362e-06 1.26591e-05 0)
(-3.32038e-06 3.77269e-05 0)
(5.39534e-07 1.68639e-05 0)
(5.00612e-07 1.32e-05 0)
(-8.5539e-07 5.17651e-05 0)
(1.36968e-06 4.58693e-06 0)
(1.78265e-06 3.12204e-05 0)
(-1.71149e-06 2.17663e-05 0)
(-1.19487e-06 1.44051e-06 0)
(8.56709e-07 4.66198e-05 0)
(8.30292e-07 3.68795e-05 0)
(-5.45492e-07 6.87307e-06 0)
(2.59781e-06 4.42653e-05 0)
(-1.62126e-06 8.26812e-06 0)
(2.44228e-06 3.46688e-05 0)
(-1.92642e-06 5.19926e-06 0)
(1.80074e-06 6.64794e-05 0)
(2.07461e-06 6.63887e-05 0)
(1.99773e-06 5.16272e-05 0)
(1.90862e-06 4.1604e-05 0)
(-1.31418e-06 9.94191e-06 0)
(-1.45014e-06 1.33043e-05 0)
(-1.57137e-06 1.69743e-05 0)
(-4.47882e-07 4.84039e-07 0)
(-1.69888e-06 6.20501e-05 0)
(1.74327e-06 4.11899e-05 0)
(-1.22012e-06 1.02151e-05 0)
(-2.73019e-07 3.77167e-07 0)
(1.4634e-06 6.71753e-05 0)
(5.33597e-07 4.81638e-07 0)
(4.44668e-07 3.66773e-07 0)
(1.07474e-06 1.67751e-06 0)
(1.78212e-06 5.48745e-05 0)
(-3.18258e-06 5.62619e-05 0)
(4.10244e-06 6.73549e-05 0)
(1.08543e-06 1.75947e-06 0)
(1.85556e-06 2.86322e-05 0)
(2.43874e-06 5.79078e-05 0)
(-4.0821e-06 5.50084e-05 0)
(1.88654e-06 5.20668e-06 0)
(-9.86829e-07 5.82443e-05 0)
(3.78861e-07 1.69112e-05 0)
(3.52301e-07 1.32437e-05 0)
(-6.37068e-07 5.17004e-05 0)
(-2.02624e-07 1.04007e-06 0)
(1.04111e-06 3.33929e-05 0)
(4.48953e-08 1.81494e-08 0)
(-1.64841e-06 3.6154e-06 0)
(-2.80596e-07 2.80473e-05 0)
(-7.17138e-07 6.32084e-06 0)
(-8.30504e-07 6.35918e-06 0)
(1.17554e-06 3.78315e-05 0)
(1.37378e-06 3.77684e-05 0)
(1.45543e-06 4.75585e-05 0)
(1.24586e-06 4.76253e-05 0)
(4.9725e-08 2.23664e-07 0)
(-2.59824e-08 2.50029e-06 0)
(-2.2901e-06 3.43824e-05 0)
(-2.43691e-06 4.39599e-05 0)
(1.40322e-06 8.44722e-06 0)
(-9.01598e-07 5.22724e-06 0)
(-4.67915e-07 4.50782e-05 0)
(-8.56613e-07 2.35653e-06 0)
(1.21381e-06 6.65789e-05 0)
(-1.14836e-06 2.43151e-05 0)
(-1.32279e-06 2.42603e-05 0)
(5.13913e-08 5.95754e-08 0)
(-7.75638e-07 2.50543e-05 0)
(-4.61688e-07 5.85063e-06 0)
(7.50419e-07 3.86596e-05 0)
(7.95657e-07 4.85017e-05 0)
(-1.01777e-06 4.50842e-05 0)
(-9.15373e-07 3.54249e-05 0)
(4.986e-07 7.76222e-06 0)
(7.37856e-07 3.11042e-06 0)
(6.85911e-07 3.00423e-06 0)
(2.40814e-07 2.42528e-05 0)
(-4.13173e-07 4.75421e-05 0)
(-3.95453e-07 3.77483e-05 0)
(1.62224e-07 6.36138e-06 0)
(-4.22153e-07 1.04985e-05 0)
(-8.0612e-07 2.41915e-06 0)
(2.31597e-06 6.80403e-05 0)
(-2.39506e-06 4.24798e-05 0)
(1.88819e-06 2.16882e-05 0)
(-2.21092e-06 3.13094e-05 0)
(2.46942e-06 5.81487e-05 0)
(-2.59779e-06 2.01162e-05 0)
(-2.4371e-06 1.62357e-05 0)
(2.8734e-06 3.3097e-05 0)
(-2.24252e-06 1.26232e-05 0)
(-2.01261e-06 9.31609e-06 0)
(3.07322e-06 4.25993e-05 0)
(3.22628e-06 5.26595e-05 0)
(-9.10248e-07 5.05856e-05 0)
(-8.678e-07 4.06315e-05 0)
(5.51867e-07 1.40194e-05 0)
(5.046e-07 1.05799e-05 0)
(5.92336e-07 1.77451e-05 0)
(5.24855e-07 1.42014e-05 0)
(-8.67302e-07 5.03274e-05 0)
(5.62651e-07 1.79405e-05 0)
(4.80594e-07 1.07462e-05 0)
(-8.26687e-07 4.03867e-05 0)
(-5.14775e-07 6.29553e-05 0)
(-1.27684e-06 1.79492e-06 0)
(-1.25288e-06 7.69254e-06 0)
(2.05246e-06 4.52133e-05 0)
(1.93267e-06 3.55584e-05 0)
(-7.77951e-07 1.01168e-05 0)
(1.0848e-06 4.1332e-05 0)
(3.06236e-06 5.01627e-05 0)
(2.90434e-06 4.02336e-05 0)
(-2.04423e-06 1.08793e-05 0)
(-2.24867e-06 1.43416e-05 0)
(-2.42215e-06 1.80877e-05 0)
(3.22575e-06 5.43377e-05 0)
(3.52683e-06 5.42744e-05 0)
(9.68983e-08 2.15179e-06 0)
(-4.00607e-07 2.76387e-05 0)
(-1.18764e-06 3.53406e-06 0)
(6.41553e-08 1.40903e-07 0)
(-1.152e-06 4.42407e-06 0)
(-2.03142e-07 5.76454e-05 0)
(3.72979e-08 2.06423e-06 0)
(-8.04549e-07 2.93932e-05 0)
(2.97027e-06 3.77468e-05 0)
(-1.73334e-06 6.40341e-06 0)
(3.14343e-06 4.75341e-05 0)
(-4.45992e-09 -3.09282e-09 0)
(1.42245e-07 4.42517e-05 0)
(8.31538e-08 3.58327e-08 0)
(5.64693e-08 4.57482e-08 0)
(4.8949e-07 3.2916e-05 0)
(-9.64099e-08 8.63055e-08 0)
(2.36852e-06 6.85166e-05 0)
(1.26316e-07 4.07793e-05 0)
(-1.47263e-07 1.04693e-05 0)
(6.69638e-07 4.49954e-06 0)
(2.80721e-07 4.06655e-05 0)
(-2.5619e-07 1.05393e-05 0)
(-5.2619e-08 1.08126e-06 0)
(-2.61389e-06 1.62704e-05 0)
(-2.40607e-06 1.26561e-05 0)
(-2.15988e-06 9.34807e-06 0)
(-1.86636e-06 6.41666e-06 0)
(3.2023e-06 3.77334e-05 0)
(3.30065e-06 4.25571e-05 0)
(3.389e-06 4.75195e-05 0)
(3.46618e-06 5.26159e-05 0)
(-1.62081e-06 5.64136e-05 0)
(-1.45118e-06 6.62338e-05 0)
(-4.544e-06 5.54682e-05 0)
(2.07044e-06 4.99768e-06 0)
(9.60751e-07 6.99602e-05 0)
(1.12787e-06 6.96768e-05 0)
(2.65111e-07 3.98576e-05 0)
(2.88072e-07 4.97728e-05 0)
(-3.16772e-07 1.83785e-05 0)
(-2.92034e-07 1.46093e-05 0)
(-2.63256e-07 1.11197e-05 0)
(-1.67201e-06 5.21463e-06 0)
(5.96327e-07 3.82295e-06 0)
(-1.96092e-06 1.91567e-05 0)
(2.2691e-06 3.89006e-05 0)
(-1.82722e-06 1.53388e-05 0)
(-1.67126e-06 1.17933e-05 0)
(2.39771e-06 4.87556e-05 0)
(-1.2636e-06 5.74257e-06 0)
(2.42396e-06 5.38901e-05 0)
(3.88867e-07 2.65972e-05 0)
(-3.25712e-07 5.96704e-05 0)
(3.7828e-07 1.96296e-07 0)
(-2.50589e-07 5.29451e-05 0)
(1.07885e-07 1.24062e-05 0)
(1.1469e-07 1.60069e-05 0)
(9.36673e-08 1.98611e-05 0)
(7.13387e-07 6.16611e-05 0)
(-1.57198e-07 1.08008e-07 0)
(3.88269e-06 6.07458e-05 0)
(-6.73227e-07 2.80114e-05 0)
(-2.72966e-08 6.66804e-08 0)
(1.37384e-06 3.83594e-05 0)
(-8.09395e-07 6.02373e-06 0)
(1.45417e-06 4.81839e-05 0)
(4.50899e-08 3.88166e-08 0)
(-1.06489e-06 7.16935e-06 0)
(1.68552e-06 3.64016e-05 0)
(1.78802e-06 4.61098e-05 0)
(4.06651e-07 5.97221e-07 0)
(-1.32846e-06 2.4792e-05 0)
(2.16011e-07 2.63164e-05 0)
(-2.79689e-06 6.46183e-05 0)
(1.97612e-07 4.00522e-05 0)
(2.11139e-07 4.99735e-05 0)
(-2.7458e-07 1.822e-05 0)
(-2.26644e-07 1.09849e-05 0)
(-2.52632e-07 1.44615e-05 0)
(3.74584e-07 2.67723e-05 0)
(-8.50065e-08 3.51765e-07 0)
(-7.84592e-08 1.13532e-06 0)
(5.57223e-08 5.75586e-05 0)
(2.75763e-06 2.85542e-05 0)
(-2.74324e-06 2.42572e-05 0)
(-1.98415e-06 7.18009e-05 0)
(-4.42262e-06 4.84488e-05 0)
(-4.18482e-06 3.86131e-05 0)
(-4.31018e-06 4.34615e-05 0)
(-4.04672e-06 3.39175e-05 0)
(2.5857e-06 8.79522e-06 0)
(2.88906e-06 1.2036e-05 0)
(3.14189e-06 1.5597e-05 0)
(3.35941e-06 1.94263e-05 0)
(4.29359e-06 4.84492e-05 0)
(4.18383e-06 4.34611e-05 0)
(-2.64766e-06 8.79912e-06 0)
(-2.96456e-06 1.20407e-05 0)
(4.06232e-06 3.86134e-05 0)
(-3.23036e-06 1.56002e-05 0)
(3.92887e-06 3.39162e-05 0)
(-3.45789e-06 1.94305e-05 0)
(-1.61296e-06 5.07876e-06 0)
(-7.39051e-07 5.95528e-05 0)
(-5.45843e-07 5.95003e-05 0)
(-6.62485e-07 6.68667e-05 0)
(9.42319e-07 4.22402e-05 0)
(-6.72208e-07 9.51657e-06 0)
(-2.76749e-07 4.50429e-07 0)
(-8.39752e-07 7.04278e-05 0)
(-9.90928e-07 1.76229e-05 0)
(-1.20448e-06 1.75629e-05 0)
(-9.16233e-07 1.39057e-05 0)
(-1.11396e-06 1.38503e-05 0)
(1.19822e-06 5.08302e-05 0)
(1.45098e-06 5.08517e-05 0)
(3.26413e-06 5.00438e-05 0)
(3.09525e-06 4.01213e-05 0)
(-2.18123e-06 1.09602e-05 0)
(-2.39738e-06 1.44292e-05 0)
(-2.58094e-06 1.81811e-05 0)
(-2.11426e-06 3.44909e-05 0)
(-2.24932e-06 4.40756e-05 0)
(1.28478e-06 8.3736e-06 0)
(-7.0875e-07 3.12644e-05 0)
(5.30897e-07 2.17241e-05 0)
(5.95634e-07 5.21435e-05 0)
(-4.8296e-07 1.29222e-05 0)
(-5.26328e-07 1.65643e-05 0)
(-5.56696e-07 2.04252e-05 0)
(1.29662e-06 2.14914e-05 0)
(1.09077e-06 2.15409e-05 0)
(-1.562e-06 3.15188e-05 0)
(-1.33146e-06 3.14614e-05 0)
(-1.53378e-06 6.99327e-05 0)
(1.36412e-07 4.334e-07 0)
(2.37803e-06 6.08069e-05 0)
(8.90761e-07 2.36021e-05 0)
(2.34893e-06 4.34221e-05 0)
(-1.5132e-06 8.78224e-06 0)
(2.20501e-06 3.38767e-05 0)
(-2.20503e-06 2.7741e-05 0)
(5.98488e-07 6.79268e-06 0)
(-1.20455e-06 4.67596e-05 0)
(-1.14043e-06 3.7016e-05 0)
(1.00149e-07 2.44521e-05 0)
(-2.36646e-07 3.79735e-05 0)
(-2.45478e-07 4.77798e-05 0)
(7.23693e-08 6.23224e-06 0)
(1.44049e-06 2.23843e-05 0)
(-1.6896e-06 3.05311e-05 0)
(-8.19086e-07 6.29543e-05 0)
(-3.55822e-06 6.23955e-05 0)
(5.9645e-07 2.92748e-05 0)
(1.58075e-06 2.93549e-05 0)
(-1.62269e-06 6.61102e-06 0)
(2.89078e-06 4.71403e-05 0)
(2.72993e-06 3.73747e-05 0)
(-2.04644e-07 9.29595e-07 0)
(-5.33262e-07 5.32819e-05 0)
(2.73349e-07 1.21792e-05 0)
(2.95043e-07 1.57611e-05 0)
(3.10178e-07 1.96016e-05 0)
(-8.10136e-07 2.78893e-05 0)
(-3.30283e-06 6.24148e-05 0)
(-1.12876e-06 1.21916e-05 0)
(-1.23194e-06 1.57728e-05 0)
(-1.31661e-06 1.96215e-05 0)
(1.5897e-06 5.32642e-05 0)
(4.41818e-09 6.70205e-09 0)
(2.07866e-06 2.75427e-05 0)
(2.08815e-08 2.65594e-06 0)
(-1.41581e-07 2.74726e-07 0)
(-2.87006e-07 1.18886e-06 0)
(-1.2625e-06 4.69813e-06 0)
(-1.46835e-07 5.49494e-08 0)
(4.24018e-07 1.36111e-05 0)
(3.89298e-07 1.0201e-05 0)
(4.55538e-07 1.73066e-05 0)
(-7.34814e-07 5.11686e-05 0)
(-7.04962e-07 4.11935e-05 0)
(-2.16725e-06 2.33227e-05 0)
(2.17347e-06 2.95107e-05 0)
(-2.88291e-07 1.82281e-07 0)
(2.53501e-06 6.65007e-05 0)
(1.80783e-06 5.99575e-05 0)
(-4.04997e-06 5.67013e-05 0)
(1.4868e-06 2.9153e-05 0)
(4.95776e-07 3.13824e-05 0)
(-1.06987e-06 7.03979e-05 0)
(-2.93199e-06 3.27068e-05 0)
(-2.79255e-06 3.25786e-05 0)
(3.88408e-06 7.03791e-05 0)
(-3.79785e-07 6.32461e-05 0)
(-1.00731e-06 2.16456e-05 0)
(1.04352e-06 3.13764e-05 0)
(2.89347e-08 2.74382e-06 0)
(6.79294e-07 1.01502e-06 0)
(1.43589e-07 5.34329e-08 0)
(9.10142e-07 3.31988e-05 0)
(3.41454e-06 7.1739e-05 0)
(-1.96008e-06 5.11773e-05 0)
(-1.86462e-06 4.11922e-05 0)
(1.152e-06 1.02092e-05 0)
(1.36859e-06 1.73068e-05 0)
(1.26947e-06 1.36129e-05 0)
(-5.33903e-08 4.04077e-08 0)
(-2.06554e-07 6.56518e-05 0)
(1.79921e-06 2.94315e-05 0)
(-1.78618e-06 2.343e-05 0)
(-2.91601e-06 6.41658e-05 0)
(-4.32643e-06 4.86742e-05 0)
(-4.21707e-06 4.368e-05 0)
(-4.09554e-06 3.88254e-05 0)
(-3.96093e-06 3.41234e-05 0)
(2.51029e-06 8.65682e-06 0)
(2.80909e-06 1.18823e-05 0)
(3.05806e-06 1.54306e-05 0)
(3.27193e-06 1.9249e-05 0)
(4.19699e-06 4.86735e-05 0)
(4.09056e-06 4.36796e-05 0)
(-2.57153e-06 8.66123e-06 0)
(-2.88374e-06 1.18873e-05 0)
(3.97227e-06 3.88253e-05 0)
(-3.14565e-06 1.54342e-05 0)
(3.84258e-06 3.41211e-05 0)
(-3.36975e-06 1.92537e-05 0)
(-8.78796e-07 1.27251e-06 0)
(3.48195e-07 3.65167e-07 0)
(-4.66848e-07 9.29185e-07 0)
(1.59915e-06 2.89386e-05 0)
(-1.86324e-06 2.97036e-05 0)
(4.39161e-07 5.9027e-07 0)
(-7.23412e-08 1.18993e-08 0)
(-3.89666e-06 5.6827e-05 0)
(2.13389e-06 7.10555e-05 0)
(2.40309e-06 7.11819e-05 0)
(7.10896e-08 1.16163e-08 0)
(9.70595e-07 1.41642e-06 0)
(3.37925e-06 6.50686e-05 0)
(-1.40253e-06 3.24791e-05 0)
(-1.26704e-07 1.23411e-07 0)
(-2.81287e-07 4.81053e-07 0)
(-4.51475e-08 1.15358e-08 0)
(8.23169e-08 7.10641e-08 0)
(3.7009e-06 2.65282e-05 0)
(-3.80445e-06 2.62564e-05 0)
(1.13971e-06 2.06425e-05 0)
(-1.43821e-06 3.19502e-05 0)
(1.18105e-06 2.11141e-05 0)
(-9.06653e-08 1.51551e-06 0)
(-8.83219e-07 4.86674e-05 0)
(6.4084e-07 2.52017e-05 0)
(-5.18166e-07 4.81874e-05 0)
(-5.03963e-07 3.83376e-05 0)
(2.17431e-07 6.02735e-06 0)
(3.29541e-07 2.4795e-05 0)
(-1.55824e-06 3.23316e-05 0)
(1.03302e-06 1.49627e-06 0)
(1.28117e-06 2.07808e-05 0)
(4.17927e-07 2.93149e-05 0)
(3.39653e-06 6.70553e-05 0)
(-1.14942e-06 2.95298e-05 0)
(-1.31304e-06 2.97082e-05 0)
(-1.33036e-06 3.0585e-06 0)
(-1.27223e-06 3.0547e-05 0)
(-1.09635e-06 3.03585e-05 0)
(1.07696e-06 2.23525e-05 0)
(9.38458e-07 2.2549e-05 0)
(-1.40139e-06 7.02807e-06 0)
(2.27361e-06 3.66522e-05 0)
(2.41038e-06 4.6375e-05 0)
(-4.4018e-07 5.36696e-07 0)
(-1.56206e-06 3.2101e-05 0)
(1.28849e-06 2.09873e-05 0)
(-9.9789e-07 4.02006e-05 0)
(-1.04789e-06 5.0131e-05 0)
(5.99108e-07 1.08743e-05 0)
(7.01917e-07 1.80903e-05 0)
(6.54624e-07 1.43412e-05 0)
(-6.58811e-07 3.29401e-06 0)
(-3.13388e-06 4.2162e-05 0)
(-2.97312e-06 4.20426e-05 0)
(1.92503e-06 9.591e-06 0)
(1.82742e-06 9.66822e-06 0)
(2.00347e-06 3.42927e-05 0)
(2.20933e-06 3.41417e-05 0)
(-1.36014e-06 8.50425e-06 0)
(-1.5016e-06 8.60703e-06 0)
(2.1327e-06 4.38654e-05 0)
(2.35241e-06 4.37043e-05 0)
(-9.42153e-07 6.27398e-05 0)
(1.6847e-06 5.76788e-05 0)
(1.70993e-06 5.74307e-05 0)
(-1.45849e-06 2.11163e-05 0)
(1.51538e-06 3.19429e-05 0)
(-4.67197e-06 6.94083e-05 0)
(-1.38344e-06 5.62656e-05 0)
(-1.33094e-06 5.60232e-05 0)
(5.51935e-07 4.67623e-06 0)
(5.69264e-07 4.56466e-06 0)
(3.90374e-06 5.68371e-05 0)
(-1.90558e-06 2.63589e-05 0)
(-1.64324e-06 2.63679e-05 0)
(3.86427e-06 6.36e-05 0)
(-4.0375e-06 6.68066e-05 0)
(-4.03262e-06 6.71043e-05 0)