/*--------------------------------*- C++ -*----------------------------------*\
| =========                 |                                                 |
| \\      /  F ield         | OpenFOAM: The Open Source CFD Toolbox           |
|  \\    /   O peration     | Version:  2.3.1                                 |
|   \\  /    A nd           | Web:      www.OpenFOAM.org                      |
|    \\/     M anipulation  |                                                 |
\*---------------------------------------------------------------------------*/
FoamFile
{
    version     2.0;
    format      ascii;
    class       volScalarField;
    location    "0.31";
    object      p;
}
// * * * * * * * * * * * * * * * * * * * * * * * * * * * * * * * * * * * * * //

dimensions      [0 2 -2 0 0 0 0];

internalField   nonuniform List<scalar> 
1000
(
-0.0020807
-0.00290383
-0.00316026
-0.00329373
-0.00337289
-0.00341963
-0.00344601
-0.00345801
-0.00346257
-0.00346433
-0.00326247
-0.00348549
-0.00362776
-0.00372661
-0.00379343
-0.00383372
-0.00385398
-0.00385958
-0.00385826
-0.00385786
-0.00436101
-0.00445349
-0.00455094
-0.00463391
-0.00469356
-0.00472636
-0.0047352
-0.00472498
-0.00470727
-0.004696
-0.00584142
-0.00591747
-0.00602313
-0.00611789
-0.00618236
-0.00620946
-0.00619933
-0.00615904
-0.00610423
-0.0060657
-0.0079403
-0.00807137
-0.00824387
-0.00838586
-0.00847138
-0.0084941
-0.00845547
-0.00835791
-0.00822573
-0.00811765
-0.00258268
-0.00275443
-0.0028565
-0.00293979
-0.00299928
-0.00303754
-0.00305999
-0.0030704
-0.00307388
-0.00307342
-0.00307986
-0.00315962
-0.00324406
-0.00331631
-0.00336995
-0.00340395
-0.00342148
-0.00342635
-0.00342461
-0.00342201
-0.00390999
-0.00396899
-0.00404312
-0.00411084
-0.00416133
-0.00418981
-0.00419763
-0.00418901
-0.00417273
-0.00415975
-0.00516077
-0.00522593
-0.00531514
-0.00539628
-0.00545223
-0.00547603
-0.00546812
-0.00543334
-0.00538604
-0.00534869
-0.00692921
-0.00704188
-0.00718805
-0.00730923
-0.00738265
-0.00740342
-0.00737074
-0.00728973
-0.00717811
-0.00708463
-0.00203183
-0.00211321
-0.00217635
-0.00222937
-0.00227046
-0.00229875
-0.00231617
-0.00232477
-0.00232783
-0.00232739
-0.00236754
-0.00241328
-0.00246627
-0.00251509
-0.00255369
-0.00257946
-0.00259343
-0.00259795
-0.00259731
-0.00259568
-0.0029805
-0.00301731
-0.00306805
-0.00311689
-0.00315462
-0.00317682
-0.00318371
-0.00317839
-0.00316731
-0.00315851
-0.00390509
-0.00394955
-0.00401324
-0.00407289
-0.00411507
-0.00413398
-0.00412949
-0.00410571
-0.00407312
-0.00404806
-0.00517839
-0.00525377
-0.00535458
-0.00544126
-0.0054955
-0.00551183
-0.00549052
-0.00543486
-0.00536118
-0.00530102
-0.00114159
-0.00117352
-0.00120798
-0.00123992
-0.00126648
-0.00128614
-0.00129916
-0.00130647
-0.00130976
-0.00131011
-0.00133385
-0.00135648
-0.00138712
-0.00141754
-0.00144297
-0.00146118
-0.00147207
-0.00147687
-0.00147801
-0.0014781
-0.00170826
-0.00172839
-0.00175891
-0.00178993
-0.00181499
-0.00183094
-0.00183741
-0.00183621
-0.00183126
-0.00182744
-0.00227083
-0.0022956
-0.00233346
-0.00237049
-0.00239782
-0.00241149
-0.00241097
-0.00239907
-0.0023821
-0.0023699
-0.00302424
-0.00306345
-0.00312021
-0.0031712
-0.00320465
-0.00321632
-0.00320604
-0.0031768
-0.00313834
-0.00310947
-2.38121e-05
-3.68127e-05
-5.39494e-05
-7.15903e-05
-8.74363e-05
-0.00010051
-0.000110346
-0.000117082
-0.000120972
-0.000122108
-9.32927e-05
-0.000103473
-0.000118883
-0.00013549
-0.000150465
-0.000162629
-0.00017139
-0.000177016
-0.000179996
-0.000180942
-0.000229157
-0.000238042
-0.000252436
-0.000268211
-0.000282122
-0.000292731
-0.000299356
-0.000302486
-0.000303092
-0.000302605
-0.000430279
-0.000439896
-0.000455405
-0.000471822
-0.000485292
-0.000494139
-0.000497683
-0.00049677
-0.00049328
-0.000490159
-0.000694192
-0.000707124
-0.000727214
-0.000746635
-0.000760887
-0.000768093
-0.000767714
-0.000760986
-0.000750738
-0.000743064
0.00118409
0.00118007
0.00117369
0.00116596
0.00115788
0.00114954
0.00114173
0.0011349
0.0011301
0.00112824
0.00123049
0.00122762
0.001223
0.0012169
0.00121008
0.00120246
0.00119485
0.0011879
0.00118293
0.00118137
0.0013296
0.00132916
0.00132809
0.00132537
0.00132103
0.00131471
0.00130728
0.00129956
0.00129353
0.00129129
0.00148422
0.00148765
0.0014922
0.00149471
0.00149397
0.00148925
0.00148141
0.00147151
0.00146248
0.00145771
0.00168955
0.00169918
0.00171194
0.00172162
0.00172525
0.0017221
0.00171281
0.00169861
0.00168349
0.00167371
0.00235754
0.00235909
0.00236016
0.00235967
0.00235733
0.00235236
0.00234564
0.00233823
0.00233215
0.0023292
0.00251554
0.00251803
0.00252183
0.00252416
0.00252381
0.00251954
0.00251228
0.00250343
0.00249601
0.00249343
0.0028455
0.00285288
0.00286399
0.0028731
0.00287721
0.00287428
0.0028653
0.00285233
0.00284005
0.00283397
0.00335762
0.00337482
0.00339973
0.00342105
0.00343253
0.00343132
0.00341833
0.00339639
0.00337309
0.00335868
0.00404816
0.00408379
0.00413238
0.00417277
0.00419465
0.00419505
0.00417481
0.00413702
0.00409271
0.00406096
0.00337839
0.00338401
0.00339049
0.00339546
0.00339734
0.00339479
0.00338854
0.00338012
0.00337241
0.00336831
0.00363942
0.00364688
0.00365776
0.00366705
0.00367186
0.00367007
0.00366254
0.00365142
0.00364079
0.00363584
0.00418834
0.00420422
0.00422696
0.00424706
0.00425859
0.00425834
0.00424716
0.00422808
0.00420825
0.00419638
0.00505523
0.00508906
0.00513594
0.00517646
0.00519979
0.00520143
0.00518229
0.00514666
0.005106
0.00507734
0.00626608
0.00633706
0.00642877
0.00650355
0.00654465
0.00654815
0.00651483
0.00644881
0.0063668
0.0063026
0.00413569
0.00414351
0.00415359
0.00416227
0.00416714
0.00416612
0.00416
0.00415076
0.00414161
0.00413652
0.00448045
0.00449116
0.00450706
0.00452159
0.00453015
0.00453011
0.00452205
0.00450861
0.00449514
0.00448833
0.00521256
0.00523495
0.0052673
0.00529637
0.00531379
0.0053154
0.00530183
0.00527725
0.00525014
0.00523267
0.00639474
0.00644414
0.00651112
0.00656878
0.00660221
0.00660596
0.00658081
0.00653171
0.00647375
0.00643091
0.00811825
0.0082281
0.00836475
0.00847313
0.00853206
0.00853793
0.00849131
0.00839658
0.00827343
0.00817187
0.00453581
0.00454279
0.00455392
0.00456465
0.00457097
0.00457097
0.0045649
0.00455511
0.00454568
0.00454213
0.00492851
0.00493809
0.00495592
0.00497324
0.00498389
0.0049848
0.0049763
0.00496175
0.0049472
0.00494162
0.00576849
0.00579072
0.0058272
0.00586127
0.00588202
0.00588466
0.00586968
0.00584157
0.00581114
0.00579411
0.0071499
0.00720339
0.00728088
0.00734855
0.00738783
0.0073928
0.00736346
0.00730646
0.00723883
0.00719203
0.00923828
0.00936775
0.00953221
0.0096613
0.00973137
0.00973834
0.00968313
0.00956996
0.00942034
0.00929996
0.0122934
0.0126262
0.0129729
0.0132077
0.0133221
0.0133308
0.0132358
0.0130236
0.0127007
0.0123824
0.0166686
0.0176059
0.0183302
0.0187207
0.0188844
0.0188942
0.0187531
0.018394
0.0177156
0.0168066
0.0237736
0.026876
0.0283336
0.0288762
0.0290482
0.029056
0.0289088
0.0284166
0.027062
0.0240321
0.0485677
0.0576286
0.0597135
0.0600077
0.0600151
0.0600202
0.0600218
0.0597911
0.0579399
0.0490343
-0.0233754
-0.0362148
-0.0403663
-0.0416705
-0.0420838
-0.0420938
-0.0417057
-0.0404995
-0.0366865
-0.0240622
0.010472
0.0107278
0.0110021
0.0111923
0.0112865
0.0112938
0.0112153
0.0110439
0.0107888
0.0105451
0.0134373
0.0140835
0.0146219
0.0149245
0.0150549
0.0150627
0.0149507
0.014673
0.0141665
0.0135425
0.0166477
0.0185725
0.0195657
0.0199583
0.020089
0.0200957
0.019985
0.0196263
0.018703
0.0168212
0.0217719
0.0276856
0.0290561
0.0292633
0.029272
0.0292762
0.0292775
0.0291142
0.0279057
0.0220515
-0.00819424
-0.0168711
-0.0198568
-0.020819
-0.0211347
-0.0211414
-0.0208455
-0.0199504
-0.0171955
-0.00860676
0.00779785
0.007947
0.00811802
0.00824281
0.00830637
0.00831101
0.0082575
0.00814505
0.00798682
0.00784668
0.00947652
0.0097953
0.0100935
0.0102759
0.0103587
0.0103636
0.0102924
0.0101253
0.00984467
0.00954102
0.0107813
0.0114818
0.0119315
0.0121356
0.0122099
0.0122142
0.012152
0.0119651
0.0115472
0.0108718
0.0109487
0.0123571
0.0127656
0.0128224
0.0128152
0.0128179
0.0128311
0.0127934
0.0124372
0.0110531
0.000264118
-0.00218309
-0.00340591
-0.00390844
-0.00409312
-0.00409633
-0.0039209
-0.00344465
-0.00229487
0.000126
0.00486744
0.00493692
0.00502246
0.00508774
0.00512138
0.00512287
0.00509269
0.00503256
0.00495302
0.00488899
0.00565974
0.00578798
0.00592152
0.00600962
0.0060511
0.00605292
0.0060159
0.00593443
0.00580873
0.00568967
0.00609058
0.00631253
0.00647935
0.00656377
0.00659667
0.00659835
0.00657009
0.00649259
0.0063375
0.00613044
0.00555058
0.00585601
0.00594446
0.00594551
0.00593526
0.00593643
0.00594975
0.0059556
0.00588462
0.00559326
0.0019242
0.00123446
0.000790288
0.000572204
0.000483848
0.00048268
0.000567569
0.000777922
0.001203
0.00188903
0.00192335
0.00194277
0.00196652
0.00198424
0.00199214
0.00199015
0.00197866
0.00195849
0.00193387
0.00191542
0.0021278
0.00216061
0.0021959
0.00221931
0.00222955
0.00222835
0.00221575
0.00219154
0.00215661
0.00212727
0.00220809
0.00225733
0.00229675
0.00231706
0.00232462
0.00232389
0.0023154
0.00229539
0.00225828
0.00221587
0.00200251
0.00205909
0.00207152
0.00206789
0.00206333
0.00206302
0.00206754
0.00207221
0.00206522
0.00201555
0.00116548
0.00101433
0.000906053
0.000848192
0.000823253
0.00082273
0.000846152
0.000903223
0.00100884
0.00116121
-0.00100171
-0.00102236
-0.00105159
-0.00107667
-0.00109285
-0.00109861
-0.00109406
-0.00107957
-0.00105896
-0.00104248
-0.00129551
-0.0013318
-0.00137315
-0.00140393
-0.00142109
-0.00142566
-0.00141796
-0.0013957
-0.00136206
-0.00132855
-0.00143432
-0.00148868
-0.00153568
-0.0015622
-0.00157474
-0.00157823
-0.00157217
-0.00155249
-0.00151129
-0.00145815
-0.00115977
-0.00121459
-0.00122947
-0.00122586
-0.00122258
-0.00122425
-0.00123147
-0.00123806
-0.00122673
-0.00117402
-0.000186157
-1.15465e-05
0.000107089
0.000170988
0.000197916
0.00019695
0.000169041
0.000107471
-8.25379e-06
-0.000182416
-0.00393171
-0.00400391
-0.00409528
-0.00416875
-0.00421143
-0.00422134
-0.00419951
-0.00414522
-0.00407171
-0.00400905
-0.00485883
-0.0049916
-0.00513345
-0.00523
-0.00527886
-0.00528773
-0.00525564
-0.00517775
-0.00505287
-0.00492983
-0.00544494
-0.00568023
-0.00586208
-0.00595505
-0.00599482
-0.0060013
-0.00597706
-0.00589984
-0.00573611
-0.00551331
-0.00490992
-0.00523948
-0.00534133
-0.00534493
-0.00533605
-0.00533989
-0.00535631
-0.00536191
-0.00528007
-0.0049641
-0.00105063
-0.00034442
0.000100014
0.000322659
0.000412877
0.000411782
0.000321844
0.000105189
-0.000326574
-0.00102797
-0.00681025
-0.00696031
-0.00713722
-0.00727051
-0.00734336
-0.0073584
-0.00731393
-0.0072108
-0.00705979
-0.00692388
-0.00868965
-0.0090159
-0.00932335
-0.00951389
-0.00960492
-0.00961688
-0.0095534
-0.00939124
-0.00911299
-0.00880527
-0.0104237
-0.0111648
-0.0116414
-0.011856
-0.0119371
-0.011948
-0.0118895
-0.0117044
-0.0112677
-0.0105535
-0.0111075
-0.0126568
-0.0131097
-0.0131728
-0.0131686
-0.0131746
-0.0131938
-0.0131539
-0.0127659
-0.0112465
0.000259711
0.00274219
0.00395076
0.00445991
0.00464876
0.00464832
0.00446468
0.00397264
0.00282986
0.000372486
-0.00933741
-0.00958888
-0.00986476
-0.0100609
-0.010165
-0.0101828
-0.0101168
-0.00995793
-0.00971662
-0.00948401
-0.0124686
-0.0131117
-0.0136501
-0.0139562
-0.0140927
-0.0141095
-0.0140071
-0.0137418
-0.013246
-0.0126296
-0.0163659
-0.0183556
-0.0193681
-0.0197644
-0.0199016
-0.0199151
-0.0198114
-0.0194624
-0.0185294
-0.0165856
-0.0242874
-0.0305241
-0.0319721
-0.0321902
-0.0322032
-0.0322115
-0.0322202
-0.0320573
-0.0307821
-0.0246171
0.00797196
0.0167694
0.0197426
0.0207093
0.0210242
0.0210241
0.0207219
0.0198158
0.0170641
0.00835322
-0.0109226
-0.0112326
-0.0115705
-0.0118069
-0.0119294
-0.01195
-0.0118685
-0.0116749
-0.011376
-0.0110875
-0.0151065
-0.0159567
-0.0166479
-0.01703
-0.0171971
-0.0172153
-0.017088
-0.0167533
-0.0161132
-0.0152954
-0.0210416
-0.0237005
-0.025046
-0.0255682
-0.0257426
-0.025758
-0.0256242
-0.025161
-0.0239159
-0.0213278
-0.0489129
-0.0577809
-0.0598058
-0.0601403
-0.0601768
-0.0601894
-0.0601764
-0.0599153
-0.0581368
-0.0494251
0.0199621
0.0324764
0.0365639
0.0377905
0.038163
0.0381643
0.0378062
0.036666
0.03291
0.0206031
)
;

boundaryField
{
    walls
    {
        type            zeroGradient;
    }
    lid
    {
        type            zeroGradient;
    }
}


// ************************************************************************* //
