/*--------------------------------*- C++ -*----------------------------------*\
| =========                 |                                                 |
| \\      /  F ield         | OpenFOAM: The Open Source CFD Toolbox           |
|  \\    /   O peration     | Version:  2.3.1                                 |
|   \\  /    A nd           | Web:      www.OpenFOAM.org                      |
|    \\/     M anipulation  |                                                 |
\*---------------------------------------------------------------------------*/
FoamFile
{
    version     2.0;
    format      ascii;
    class       volScalarField;
    location    "0.48";
    object      epsilon;
}
// * * * * * * * * * * * * * * * * * * * * * * * * * * * * * * * * * * * * * //

dimensions      [0 2 -3 0 0 0 0];

internalField   nonuniform List<scalar> 
15166
(
1077.7
1003.57
1000.26
1064
1106.6
1135.61
1106.49
1023.39
922.606
805.896
688.745
589.603
1078.28
882.483
931.166
1001.45
1045.91
1069.27
1037.38
960.094
864.432
756.778
649.27
551.059
1090.34
787.868
864.76
940.362
987.175
1006.85
974.582
902.608
812.617
712.866
612.971
518.046
1106.21
716.767
805.513
883.6
931.676
948.696
917.297
850.325
766.054
673.231
579.461
486.927
1123.5
663.278
753.872
832.193
880.324
895.178
865.132
802.786
723.97
637.289
548.842
460.052
1142.25
622.159
708.599
785.725
833.075
846.123
817.592
759.482
685.767
604.522
520.747
435.229
1162.58
589.997
668.625
743.567
789.575
801.113
774.145
719.937
650.908
574.5
494.751
411.513
1184.12
564.62
633.207
705.22
749.497
759.763
734.335
683.701
618.966
546.9
470.836
390.693
1206.67
544.527
601.763
670.288
712.557
721.726
697.765
650.392
589.592
521.459
448.799
371.665
1229.89
528.608
573.768
638.395
678.483
686.679
664.095
619.704
562.489
497.943
428.521
354.782
1253.57
516.032
548.775
609.202
647.007
654.331
633.019
591.348
537.419
476.168
409.809
339.251
1277.58
506.157
526.394
582.417
617.889
624.417
604.272
565.082
514.161
455.971
392.656
325.956
1301.75
498.492
506.302
557.777
590.904
596.694
577.617
540.689
492.537
437.207
376.874
314.023
1325.96
492.647
488.22
535.063
565.857
570.957
552.847
517.993
472.383
419.715
362.08
301.398
1350.05
488.307
471.912
514.083
542.57
547.013
529.786
496.822
453.571
403.408
348.4
290.868
1374.01
485.221
457.171
494.666
520.886
524.703
508.277
477.051
435.968
388.153
335.663
280.976
1397.66
483.182
443.82
476.664
500.662
503.877
488.174
458.538
419.472
373.87
323.749
271.521
1421.05
482.02
431.709
459.949
481.773
484.4
469.352
441.188
403.996
360.469
312.579
262.648
1444.06
481.589
420.702
444.401
464.103
466.16
451.707
424.887
389.446
347.874
302.109
254.484
1466.57
481.775
410.684
429.922
447.553
449.051
435.131
409.558
375.743
336.022
292.267
246.778
1488.54
482.472
401.553
416.417
432.03
432.977
419.541
395.119
362.827
324.839
282.965
239.272
1510.01
483.603
393.219
403.807
417.452
417.859
404.858
381.5
350.628
314.274
274.148
232.094
1531.01
485.082
385.6
392.016
403.746
403.619
391.009
368.637
339.096
304.273
265.749
224.964
1551.25
486.869
378.631
380.982
390.846
390.189
377.931
356.471
328.179
294.796
257.759
218.29
1570.95
488.913
372.248
370.646
378.692
377.51
365.567
344.957
317.831
285.793
250.141
211.862
1589.92
491.143
366.396
360.953
367.229
365.529
353.867
334.043
308.011
277.239
242.888
205.865
1608.22
493.538
361.025
351.854
356.406
354.192
342.78
323.689
298.682
269.096
235.982
200.142
1625.88
496.06
356.09
343.306
346.18
343.456
332.263
313.855
289.809
261.342
229.401
194.805
1642.81
498.695
351.557
335.269
336.509
333.278
322.281
304.503
281.363
253.953
223.144
189.814
1659.09
501.439
347.385
327.705
327.355
323.622
312.794
295.608
273.315
246.906
217.162
184.878
1674.69
504.214
343.544
320.581
318.683
314.451
303.772
287.134
265.64
240.175
211.462
180.287
1689.42
507.055
340.003
313.867
310.462
305.737
295.182
279.059
258.314
233.745
206.001
175.779
1703.3
509.934
336.744
307.535
302.664
297.447
287.003
271.354
251.316
227.597
200.787
171.606
1716.73
512.812
333.736
301.559
295.261
289.559
279.203
263.998
244.628
221.717
195.794
167.509
1729.21
515.691
330.969
295.915
288.229
282.045
271.762
256.972
238.234
216.087
191.018
163.687
1740.89
518.579
328.415
290.584
281.546
274.884
264.657
250.255
232.112
210.693
186.436
159.891
1752.06
521.452
326.064
285.541
275.189
268.053
257.871
243.83
226.247
205.52
182.035
156.294
1762.31
524.307
323.898
280.771
269.139
261.534
251.381
237.677
220.626
200.558
177.82
152.969
1771.91
527.143
321.904
276.255
263.379
255.311
245.174
231.783
215.235
195.799
173.776
149.692
1780.84
529.948
320.066
271.978
257.892
249.364
239.234
226.136
210.065
191.23
169.909
146.691
1788.8
532.748
318.373
267.928
252.664
243.681
233.546
220.72
205.101
186.837
166.168
143.492
1796.14
535.653
316.825
264.092
247.681
238.246
228.097
215.525
200.332
182.613
162.541
140.27
1802.56
538.563
315.404
260.456
242.929
233.047
222.874
210.536
195.748
178.547
159.053
137.426
1808.38
541.537
314.135
257.013
238.395
228.07
217.865
205.747
191.342
174.632
155.686
134.569
1813.49
544.426
313.036
253.757
234.067
223.304
213.059
201.145
187.103
170.861
152.446
131.97
1817.79
547.138
312.076
250.688
229.934
218.737
208.445
196.721
183.022
167.227
149.313
129.27
1821.34
549.901
311.236
247.804
225.992
214.363
204.015
192.466
179.093
163.723
146.302
126.894
1824.33
552.488
310.509
245.076
222.231
210.173
199.759
188.37
175.306
160.344
143.392
124.446
1826.56
554.991
309.848
242.508
218.644
206.157
195.667
184.428
171.654
157.08
140.587
122.221
1828.07
557.419
309.306
240.085
215.224
202.306
191.734
180.63
168.133
153.93
137.869
119.913
1828.87
559.687
308.842
237.798
211.961
198.612
187.95
176.97
164.733
150.885
135.25
117.843
1829.04
562.001
308.456
235.648
208.85
195.07
184.313
173.444
161.454
147.945
132.722
115.83
1828.57
564.128
308.138
233.614
205.882
191.674
180.813
170.046
158.288
145.103
130.267
113.688
1827.36
566.207
307.885
231.704
203.053
188.415
177.447
166.769
155.231
142.356
127.894
111.764
1825.64
568.209
307.692
229.906
200.354
185.29
174.206
163.609
152.278
139.698
125.602
109.926
1823.36
570.134
307.557
228.214
197.78
182.293
171.088
160.561
149.425
137.13
123.393
108.229
1820.31
571.867
307.471
226.624
195.328
179.418
168.087
157.621
146.669
134.644
121.255
106.486
1816.73
573.656
307.441
225.138
192.991
176.661
165.199
154.786
144.006
132.243
119.192
104.88
1812.63
575.246
307.46
223.746
190.767
174.019
162.419
152.049
141.433
129.919
117.177
103.036
1807.74
576.776
307.499
222.433
188.645
171.484
159.743
149.409
138.946
127.67
115.225
101.419
1802.4
578.161
307.61
221.215
186.627
169.053
157.167
146.861
136.541
125.493
113.341
99.9476
1796.55
579.568
307.761
220.081
184.708
166.725
154.688
144.402
134.217
123.385
111.524
98.5651
1790.09
580.795
307.95
219.025
182.881
164.492
152.302
142.03
131.971
121.348
109.765
97.1306
1783
581.965
308.154
218.054
181.149
162.355
150.007
139.741
129.8
119.376
108.063
95.7851
1775.4
582.986
308.422
217.149
179.504
160.309
147.799
137.534
127.701
117.467
106.411
94.3865
1767.16
583.971
308.701
216.316
177.948
158.35
145.677
135.404
125.672
115.621
104.809
93.0885
1758.8
584.915
309.02
215.562
176.472
156.477
143.636
133.351
123.712
113.831
103.252
91.7479
1749.21
585.692
309.361
214.869
175.076
154.687
141.674
131.37
121.816
112.099
101.744
90.5353
1739.63
586.41
309.745
214.243
173.763
152.979
139.79
129.46
119.986
110.423
100.282
89.3256
1729.71
587.017
310.16
213.684
172.521
151.346
137.98
127.619
118.216
108.801
98.8698
88.2067
1718.89
587.616
310.591
213.196
171.356
149.788
136.242
125.845
116.508
107.233
97.4988
87.0464
1707.66
587.916
311.062
212.763
170.263
148.307
134.573
124.136
114.856
105.714
96.1701
85.9858
1695.9
588.37
311.525
212.376
169.236
146.895
132.975
122.489
113.262
104.246
94.8882
84.9541
1683.7
588.585
312.096
212.08
168.291
145.559
131.446
120.907
111.724
102.826
93.645
83.916
1670.98
588.712
312.616
211.824
167.401
144.287
129.979
119.384
110.239
101.452
92.4393
82.9341
1658.26
588.91
313.192
211.635
166.585
143.082
128.578
117.918
108.807
100.124
91.2691
81.9053
1644.63
588.877
313.777
211.496
165.838
141.945
127.241
116.513
107.427
98.8403
90.1331
80.9534
1630.24
588.641
314.374
211.421
165.152
140.876
125.965
115.162
106.098
97.6009
89.0326
79.9915
1615.86
588.52
315.025
211.399
164.534
139.868
124.75
113.868
104.818
96.4038
87.9675
79.1034
1601.27
588.235
315.686
211.441
163.976
138.925
123.594
112.628
103.587
95.2497
86.9337
78.1735
1585.76
587.839
316.394
211.536
163.485
138.046
122.497
111.442
102.402
94.1348
85.9344
77.3327
1570
587.37
317.086
211.694
163.061
137.23
121.457
110.308
101.265
93.0588
84.9693
76.5536
1553.8
586.777
317.791
211.899
162.694
136.471
120.476
109.227
100.175
92.024
84.0407
75.7686
1537.14
586.099
318.546
212.157
162.394
135.776
119.553
108.199
99.1305
91.0303
83.142
74.9524
1520.08
585.354
319.317
212.474
162.159
135.142
118.684
107.222
98.131
90.0734
82.2753
74.2177
1503
584.529
320.118
212.869
161.98
134.567
117.873
106.292
97.1762
89.1566
81.4392
73.4574
1485.14
583.557
320.932
213.31
161.869
134.058
117.118
105.416
96.2645
88.275
80.6332
72.7955
1466.93
582.485
321.76
213.796
161.83
133.61
116.421
104.589
95.397
87.4334
79.861
72.0947
1448.34
581.31
322.609
214.348
161.848
133.225
115.782
103.814
94.5745
86.6293
79.1181
71.4232
1429.37
580.051
323.516
214.976
161.938
132.904
115.197
103.088
93.7971
85.8625
78.3991
70.7012
1410.03
578.67
324.391
215.64
162.087
132.639
114.669
102.411
93.0606
85.1306
77.7169
70.197
1390.32
577.171
325.282
216.382
162.312
132.444
114.197
101.785
92.3713
84.4424
77.077
69.6401
1370.64
575.679
326.232
217.184
162.603
132.312
113.784
101.212
91.7262
83.7892
76.4674
69.144
1349.87
573.906
327.183
218.043
162.964
132.251
113.431
100.69
91.1257
83.1756
75.8912
68.6377
1329.49
572.157
328.143
218.964
163.403
132.249
113.139
100.222
90.5695
82.6004
75.3484
68.1782
1308.43
570.215
329.103
219.941
163.901
132.321
112.906
99.8053
90.0605
82.0669
74.8383
67.6881
1287.05
568.25
330.118
221.002
164.485
132.462
112.737
99.4441
89.598
81.5708
74.3585
67.2759
1265.33
566.049
331.13
222.124
165.144
132.681
112.633
99.136
89.1826
81.115
73.9128
66.8499
1243.68
563.913
332.152
223.308
165.888
132.967
112.594
98.8859
88.8148
80.7007
73.5023
66.4868
1221.38
561.488
333.206
224.579
166.713
133.34
112.622
98.697
88.4993
80.33
73.1263
66.0913
1198.78
559
334.258
225.91
167.617
133.783
112.722
98.566
88.2327
80.0008
72.7828
65.7824
1175.86
556.372
335.307
227.329
168.618
134.314
112.892
98.4944
88.0181
79.7149
72.4812
65.5236
1152.68
553.582
336.394
228.813
169.703
134.929
113.141
98.4909
87.8606
79.4793
72.2215
65.2507
1129.24
550.707
337.469
230.362
170.888
135.636
113.466
98.5526
87.76
79.2909
72.0001
65.0094
1105.85
547.755
338.579
232.005
172.165
136.44
113.87
98.6846
87.7167
79.1501
71.8196
64.8545
1081.9
544.602
339.676
233.738
173.551
137.337
114.362
98.8876
87.734
79.064
71.6876
64.7016
1058.02
541.367
340.802
235.542
175.035
138.333
114.946
99.1688
87.8156
79.0278
71.5956
64.6256
1033.62
537.902
341.9
237.419
176.634
139.44
115.623
99.5319
87.9668
79.0516
71.5575
64.5826
1008.64
534.251
343.019
239.418
178.344
140.663
116.402
99.9783
88.1884
79.1361
71.5681
64.5531
984.019
530.609
344.167
241.473
180.179
142.002
117.289
100.513
88.4855
79.2811
71.6286
64.5809
958.962
526.752
345.292
243.656
182.15
143.472
118.285
101.149
88.8647
79.495
71.7461
64.6238
933.666
522.698
346.426
245.92
184.243
145.07
119.403
101.885
89.3289
79.7827
71.9289
64.768
908.489
518.567
347.537
248.288
186.482
146.822
120.647
102.731
89.8878
80.1514
72.1872
64.9639
882.892
514.212
348.651
250.744
188.87
148.718
122.033
103.691
90.5425
80.5968
72.4974
65.1165
857.096
509.656
349.799
253.34
191.418
150.775
123.558
104.778
91.299
81.1242
72.8739
65.3933
831.173
504.984
350.873
256.019
194.114
152.994
125.238
105.995
92.1652
81.7462
73.3357
65.7264
805.093
500.115
351.981
258.823
196.988
155.407
127.084
107.357
93.1545
82.4705
73.8763
66.1544
779.153
495.135
353.059
261.726
200.045
158.009
129.119
108.881
94.2822
83.3089
74.5189
66.6614
753.146
489.917
354.151
264.784
203.303
160.823
131.347
110.574
95.5541
84.2743
75.2734
67.3012
726.603
484.435
355.178
267.947
206.766
163.867
133.796
112.462
96.9847
85.3737
76.1448
68.0106
700.13
478.837
356.198
271.266
210.439
167.155
136.471
114.552
98.5894
86.6092
77.1115
68.7168
673.86
473.063
357.205
274.708
214.362
170.709
139.401
116.861
100.383
88.0039
78.2149
69.6259
647.612
467.061
358.187
278.305
218.538
174.554
142.612
119.426
102.394
89.5857
79.4881
70.6699
620.942
460.824
359.134
282.08
222.98
178.713
146.14
122.265
104.639
91.3621
80.9077
71.8504
594.57
454.423
360.073
286.015
227.735
183.225
150.003
125.417
107.151
93.3584
82.5189
73.1622
568.31
447.799
360.996
290.15
232.812
188.124
154.252
128.911
109.959
95.6004
84.3258
74.6684
541.734
440.963
361.916
294.524
238.284
193.466
158.944
132.81
113.111
98.1329
86.3827
76.3845
515.465
433.948
362.878
299.157
244.185
199.312
164.128
137.159
116.653
100.997
88.7113
78.2926
489.185
426.772
363.92
304.142
250.601
205.738
169.889
142.023
120.636
104.225
91.3389
80.4343
463.06
419.47
365.147
309.572
257.633
212.857
176.308
147.477
125.123
107.862
94.2942
82.8783
436.889
412.175
366.72
315.643
265.463
220.79
183.511
153.62
130.191
111.981
97.6554
85.6474
410.806
405.182
369.044
322.686
274.341
229.744
191.639
160.565
135.918
116.635
101.442
88.7857
384.571
399.296
372.847
331.241
284.596
239.922
200.82
168.406
142.4
121.889
105.695
92.2139
358.176
397.473
380.241
342.613
296.921
251.755
211.375
177.404
149.81
127.879
110.496
96.0388
328.052
400.064
389.136
355.337
309.502
263.678
222.045
186.8
157.582
134.281
115.657
100.32
204.089
0.00127438
6.61746
4.94871
4.91186
12.0024
11.4397
81.0997
45.1601
26.4331
7.60917
0.00269739
0.0225721
574.727
12.1837
0.000851392
481.451
0.218379
0.207459
0.000828383
2.4332
5.6661
0.255368
0.0183572
209.857
6.57474
4.01581
16.2395
16.9307
48.3724
14.6179
364.47
0.00108588
7.42538
0.0211516
2.32587
87.312
12.6935
29.737
0.00290816
0.23913
0.000794187
0.119462
23.9614
23.6686
5.45029
0.0575855
0.014836
23.9214
2.39957
2.27273
77.6345
18.4157
0.000749082
215.547
0.00118113
0.00428363
0.000793149
12.7283
11.31
3.50654
378.965
0.000746608
0.00894734
0.71399
0.00121405
75.9457
17.9972
321.655
18.7696
185.483
0.0485424
28.3988
43.4667
0.0188438
0.000739223
41.2152
0.000696187
0.0790839
11.2059
0.211308
0.000699391
75.3498
20.5115
0.0084514
70.1891
75.084
0.000739954
5.19604
25.7362
19.5223
26.1255
0.000741583
0.000984338
53.6127
0.00075186
15.1993
0.00909493
0.000728965
76.8276
144.545
1.15129
0.000785216
0.00114025
0.000707795
68.0707
66.1507
101.277
19.2733
0.0283548
0.527097
0.000709766
8.28726
0.000913656
0.000734492
8.35002
0.0108551
1.92828
69.2553
0.649441
120.103
0.0204747
176.398
0.99537
0.320168
53.3367
0.00104701
1333.1
0.0233483
0.000742466
123.043
0.000758846
87.3227
0.00114262
4.19349
0.00146181
28.4059
13.2095
8.70757
0.00176228
0.00877369
2.76324
14.1751
0.12866
31.2679
198.495
17.2479
0.00121802
61.6777
21.7512
0.58531
8.01231
0.000693015
0.266003
0.616587
0.000716844
12.5463
0.000727032
89.0503
0.00234148
0.0178408
0.00085752
0.326194
0.00608343
2.60493
0.191012
314.809
30.1564
18.452
0.000686871
205.685
47.3615
217.149
0.00947207
0.0006801
18.5024
0.00070594
20.4645
0.723497
34.7366
330.642
3.28971
0.0834671
26.3601
0.000796757
13.4497
0.000724071
0.000721553
30.1126
0.000736009
9.21577
0.000697706
199.401
0.00130532
16.1361
14.1845
10.8613
4.5565
0.000709812
409.904
63.8313
19.751
54.8026
9.17193
20.1025
0.142258
0.181137
1.4867
39.2767
1.55943
139.74
52.6006
48.1483
34.2888
0.000722342
15.4566
0.00601981
11.2038
426.921
20.9696
20.2818
64.0561
24.5867
0.000718585
0.000731013
55.585
70.265
0.000758437
1485.4
0.0228412
167.472
0.297628
0.00070464
89.0403
10.2823
12.1995
11.7482
70.5074
34.7463
20.4972
0.507657
0.393847
32.645
95.4676
196.151
132.799
82.9043
0.000837437
44.8999
16.2078
17.2016
43.1331
5.54327
4010.21
21.7496
1.83416
4.02858
19.1563
14.5002
24.6069
1.55308
12.6806
0.00757982
0.174992
577.553
13.1495
58.4012
48.4786
8.02136
164.449
10.7462
0.0432513
174.614
87.6189
85.5333
186.191
30.079
105.964
29.1215
27.2093
178.811
29.6742
26.8118
21.0096
25.2628
11.0088
12.5187
82.2572
86.0487
1.95068
26.8111
170.93
99.5034
98.8973
16.1904
191.453
0.677871
85.1602
0.0705443
54.5243
6.57834
1.01891
336.839
214.355
0.569136
54.0401
32.9334
0.00073701
0.690724
0.522528
0.708824
40.7765
0.000720435
97.9476
20.0141
0.094132
93.3649
43.0639
0.000721189
442.738
0.0292785
14.5199
10.7406
9248.17
50.2899
42.6486
18.4739
0.000714316
0.000717285
39.9755
13.4938
0.000683304
11.0568
0.00070365
0.000717373
0.000740053
0.000705937
0.231958
0.000725323
0.00175276
123.099
49.8668
0.000755471
19.1171
0.00381972
75.8047
147.327
90.5753
1101.62
15.0722
0.000659426
0.000744362
0.0952296
0.710585
96.1962
0.000682233
0.178218
24.5164
51.5236
5.43964
27.6969
25.1728
71.2752
1008.98
2.59272
4.97137
0.000883407
0.000735548
1.61013
4.12637
0.243001
28.1264
50.77
5051.77
175.041
2.94454
22.8832
65.9965
0.000734758
8.9348
49.8409
0.00151418
0.000714539
51.8792
3771.26
81.0694
0.000685448
0.0499555
3.97393
0.0156111
0.000730474
53.1692
6.867
17.5988
16.0693
0.000919404
921.004
0.000714643
1.66841
18.863
0.00204587
0.0046939
92.7669
0.00319551
45.4697
313.835
85.4381
26.1225
41.2516
98.9824
0.000714963
0.000689675
0.000729242
74.854
0.0843536
315.267
5355.17
4.53356
59.7345
0.000724189
0.0434801
14.4786
0.000689966
0.000725726
97.5161
0.000679878
1.7234
55.1196
27.6808
0.000667663
0.00255822
0.259371
0.239526
10.9758
0.407623
0.000700725
809.903
54.1677
0.813633
0.00544782
33.3625
88.955
0.00234463
15.3589
0.00225212
65.2063
0.000844035
12.722
1.0322
0.000705393
77.0742
11.1058
172.088
0.00351773
10.036
2.70039
0.00146969
89.4755
51.1016
2.51831
210.767
0.0152324
0.0467352
0.00488264
117.012
31.6522
0.202579
2.45284
4.17126
171.024
0.830763
83.3533
1148.54
0.000673697
211.048
56.3853
10.4203
0.000697366
19.7029
94.4748
0.151371
84.5109
23.366
2.42121
0.326833
30.045
120.682
0.000863272
0.0103593
55.2966
0.0328109
0.00190329
240.855
1087.33
0.0331508
22.7769
52.173
0.631833
46.2219
26.9824
52.1205
19.3114
24.4693
0.000738985
0.189245
44.9568
18.5926
116.654
21.7099
98.1384
175.883
991.222
75.0585
2.57855
0.000727144
216.71
91.0624
46.2577
10.3921
1.11731
0.149644
11.161
0.000731112
17.0702
0.000732151
35.6881
10.6877
92.1674
29.3693
78.0559
111.048
119.955
29.6998
221.006
0.000734516
0.340651
58.1061
1424.36
7.72912
23.9192
0.000875358
0.0194393
6.20043
118.192
18.2096
0.000699181
0.0653808
0.00070843
0.0541437
19.8446
0.0280698
66.1407
2.82836
72.0824
0.446129
0.442306
298.247
658.81
0.000740135
0.000740699
5.49773
186.018
17.5799
13.23
3.2717
30.8987
19.4987
0.000664886
0.752066
12.2349
0.00134327
77.4906
12.8391
26.9353
17.4184
0.00564446
0.000664726
0.0148128
0.00071366
26.9403
20.3162
122.755
22.9303
0.000731611
139.395
0.123249
118.659
1.79532
194.092
0.0305985
0.508119
0.000685117
38.9044
566.811
19.5397
4.60095
0.000657727
104.449
44.9283
50.5642
0.000700556
0.620559
56.7699
26.8962
0.00187207
1071.12
0.000918084
59.1315
28.9774
0.000879823
2.05191
0.1412
1.09082
0.00070051
0.000741847
75.5081
36.4469
19.7846
54.07
0.00135232
1.92135
0.220827
44.7513
8.30482
0.00100859
1.57315
403.336
0.000688998
0.00289087
26.2942
130.869
88.4918
0.000720253
696.118
23.8526
115.773
0.0201939
2.51914
144.832
0.000735713
101.368
2.47762
18.1082
7.84848
45.3243
7.97776
94.3628
96.8891
15.9417
4967.3
0.00074667
0.000719184
142.83
47.2997
0.00130355
0.000723312
9.37571
0.000745337
51.9774
52.5757
1.13889
0.000701387
39.9149
0.404454
21.4498
66.6113
25.5951
0.267029
2.35768
118.994
0.000738987
2.36779
61.5376
21.5154
18.1859
0.00232532
10.7092
2.74458
2789.49
0.000711223
2.56618
35.7491
18.3447
0.000771072
0.166367
28.7979
55.7296
77.3483
0.0607288
205.024
31.8891
0.303971
31.5696
0.000712602
0.00246717
9.09636
0.000684433
26.5397
0.000726289
115.093
0.00454595
57.1742
0.000732331
0.924473
51.9266
127.022
7.58801
31.0885
0.38807
241.811
0.00778811
0.155575
18.4019
0.000697685
0.000745103
27.953
0.383197
94.8464
25.9056
0.000758631
90.8106
105.902
81.2721
7.20546
170.468
95.8211
0.000740884
2399.22
4212.42
49.7599
0.000759723
0.00435885
273.536
54.2205
0.000704667
90.8883
0.000698265
0.111496
303.604
0.000851921
16.9049
0.00072004
0.064231
121.431
0.000762143
0.00101786
0.000734967
0.000938557
0.0137164
1018.34
51.4715
0.309744
11.3894
0.000726474
49.2952
0.000729749
8.99147
1.82521
0.0157952
4.43998
0.00628672
73.9546
0.000725035
10698.9
4.25204
30.2323
208.3
4.79184
0.000697114
26.0421
180.199
1.99008
49.7071
58.3642
184.818
23.1179
0.0364553
28.6082
0.174937
0.00103707
0.292439
4116.71
155.078
1.033
0.0291937
20.6415
0.000924326
9.40847
52.2739
174.549
64.4387
60.5223
0.0301318
0.00176366
32.5426
24.4
0.0490952
42.7604
0.000720325
120.914
218.99
0.00076695
176.409
48.8608
1.15432
0.15275
140.095
0.0155341
0.316798
13.4104
3.00448
2.84589
0.000752868
27.1356
0.111472
150.169
28.1054
79.8938
6.1829
0.0022354
39.2242
0.000730491
0.00072403
10.5807
0.149546
1.72218
211.993
0.000669096
72.7596
0.148705
0.0586048
0.00079126
166.399
8.12275
0.348374
40.6879
0.0585562
309.41
3.96189
0.000716372
236.616
270.716
0.00159327
0.00318272
77.655
26.5955
0.418673
233.403
0.0277717
2.02087
0.246071
0.391646
32.0608
94.3404
0.000736748
96.1999
22.061
0.00735496
1.29286
1498.07
15.9814
0.000731446
0.000683577
35.4567
23.5297
66.9767
0.000683098
34.328
2.89309
32.2539
0.000926296
167.473
46.6519
0.00156366
16.4326
0.000740961
86.8719
32.1847
28.3428
40.2224
0.000716165
0.000718333
9.82893
110.402
5.68066
37.9977
0.000665373
0.0436189
0.000734263
0.00194276
39.7953
0.0887092
0.348099
0.917309
21.7522
152.294
24.7976
65.6879
0.000728964
29.424
37.8977
20.6602
0.000738997
44.1357
0.000735327
0.000726962
0.158964
20.7584
0.0161938
336.765
35.1096
328.382
0.000762576
0.00132084
0.0372659
110.275
4.60549
145.809
0.000725841
0.00071597
0.00196179
0.00296925
139.768
44.8592
83.1158
0.308843
0.0360323
3.86432
3.79032
57.295
15.2978
61.2794
18.9404
0.000690187
182.592
0.00155584
1.83337
62.1382
26.2519
1.31022
0.619581
0.000943317
106.325
7.4791
20.0278
28.5108
0.000722606
67.2857
43.0418
171.595
0.00440643
59.1349
47.6224
56.668
191.117
22.078
55.8479
0.277516
814.125
4.28444
0.188831
121.149
0.00072954
94.0528
173.506
0.00070388
35.8338
0.00130993
102.238
102.351
1.77332
18.8107
106.395
97.4786
13.3801
0.943444
50.2275
9.34896
0.00560342
0.000696505
24.6839
0.0862098
19.5038
58.1458
4.48875
53.93
105.073
0.000717039
15.9815
461.702
243.561
10.398
99.7526
18.2202
208.578
97.3438
1.65225
0.015949
0.221743
68.124
84.0318
0.2222
53.8686
59.9015
53.0024
11.0925
2.07399
10.643
32.993
0.000738547
238.746
88.809
1.5187
0.000738418
26.8057
15.5606
17.1628
0.000720228
149.681
0.000728796
12.0521
0.180627
0.000733693
39.4119
81.5261
0.000701061
50.5269
27.9133
24.8515
12.7044
40.4064
15.4361
40.7504
52.8685
1.71743
0.00070869
0.00128165
33.6913
5.625
0.126078
0.000738543
84.1891
0.00185355
0.97705
0.250789
10.876
8.66915
0.0645084
0.523443
394.634
173.191
24.336
1421.45
56.9477
0.000706103
51.5608
18.042
182.306
0.000709435
5.48303
0.000737103
0.00086661
17.4581
4.00052
0.032736
0.000802656
56.9954
3020.63
0.00246929
0.00072892
1.63792
9.51088
0.0158725
0.0871875
3169.3
0.553638
0.000795789
0.000727664
66.8459
20.7731
0.306545
0.0668024
64.2423
193.17
29.5411
103.473
35.2953
0.000730546
16.6216
0.000723076
130.356
15.4918
2936
6.15444
0.146541
0.000951906
97.3604
0.000739878
0.000712133
0.0017618
13.7144
18.506
61.6877
0.000719014
16.6909
0.000727254
529.71
61.7502
0.000744625
126.182
6.27548
0.000729066
0.00076687
0.0263534
139.714
5.64886
0.0173904
0.000727497
0.00070972
134.683
91.531
20.8813
34.5875
0.474677
34.4933
0.000718456
0.00406384
6.88902
209.963
48.1336
0.00325736
0.000731397
33.2605
0.000727516
87.9404
140.605
7.23319
0.0382071
91.8395
16.6093
3.15453
0.000727966
7.4419
95.0697
85.2045
0.00217328
0.0221229
31.8236
3012.27
0.0536046
4.56434
0.000703037
0.000689904
0.000740628
0.010267
31.9861
69.963
0.0416219
99.676
22.5752
419.995
8.16131
0.010977
0.00276801
0.00617626
2.59034
48.0764
20.1535
0.000753059
96.3239
0.000716165
0.00631938
65.6601
49.7193
0.0266893
5.32458
9.82906
0.00104963
0.74041
2.52782
0.000722278
0.000931232
146.962
0.000888896
0.000753606
110.967
25.243
3163.53
8.83008
1375.53
0.000851884
0.000700283
3520.48
17.3003
1.1794
3.72178
0.0572896
18.5506
1.02493
986.63
47.0423
66.6517
143.513
104.545
1.05626
27.194
99.3802
0.00693338
80.7337
0.000980892
37.0331
6.32221
0.736006
7.88653
6.98896
3.50016
2.0392
39.2245
61.0175
45.0637
28.7072
50.2174
36.161
6.28087
0.00109217
0.000724308
0.236991
252.395
0.000725512
80.09
0.000705561
0.00379301
189.952
112.721
45.0484
74.9519
979.748
77.5647
19.0892
40.2791
0.000724388
16.7219
74.4961
0.000760093
198.599
0.00253936
719.432
250.265
294.798
14.1517
84.149
4.5337
0.501103
16.0453
94.3995
20.5336
12.2256
5.38852
77.2855
0.13577
124.336
335.526
0.00368002
34.5761
0.000739834
0.000988041
17.5248
133.351
168.944
14.6291
0.612703
0.218599
0.320288
0.000848452
22.8511
0.000847936
154.809
0.000803011
0.120893
258.61
5.55388
2.89855
192.114
157.85
0.00194694
0.000740094
0.194292
13.6204
0.166089
112.996
0.0371949
25.7625
5.13062
27.1024
56.1327
0.000867458
0.000719445
130.492
0.722747
5.57535
56.3062
29.269
38.8183
0.00388998
164.647
56.1525
90.4927
0.000828361
1.28797
24.7618
79.1432
1.0039
14.0353
0.000737696
11.8606
0.000710643
221.849
0.00436209
34.7291
0.172578
10.1452
0.000761946
1961.41
0.000739093
142.754
0.01607
0.000727374
0.00678362
14.5696
0.000729276
0.000733365
10.3288
0.0268855
20.4681
0.0634379
0.000772369
22.4131
6.44888
39.6926
0.000782261
111.688
4.55493
351.89
37.5097
29.9434
57.4797
93.0146
4.63537
299.271
249.184
98.3266
0.000753326
2.42121
25.6175
18.2158
0.00128565
0.0163296
20.6328
482.279
0.000735472
1.66506
105.138
0.00067563
57.8761
66.8392
182.226
73.3767
52.5645
12.3108
0.341809
202.372
9.27822
73.7997
51.7805
52.4073
0.489085
0.000727258
34.1887
0.00182385
0.000750513
0.00071167
177.894
0.00072755
0.000913169
18.3858
9466.38
2.85523
2.58853
52.7459
11.1669
0.00072851
42.318
223.835
0.016188
4.73951
55.8001
49.0297
0.282527
0.0208531
0.000717028
0.00072621
0.0173087
0.0416927
25.2442
21.2209
88.1936
14.1341
13.9377
0.000995497
197.962
28.2684
0.00074783
23.1038
827.006
0.000734642
6.95847
119.793
43.7463
91.7402
0.717493
143.968
0.000856745
0.925227
0.000773857
0.00198769
0.000746828
63.3815
18.1489
0.0967125
0.000739345
0.000686728
188.248
28.6445
2.73461
19.9819
6.24278
36.3335
18.427
24.4763
26.5615
0.000732269
0.482347
0.879157
0.353962
19.0567
77.2029
49.5781
84.0743
27.8184
88.0988
161.594
95.3759
46.5643
32.1651
0.131527
56.7883
29.6186
0.0202643
79.5651
53.9143
10.93
0.000699443
0.000742731
0.000873464
0.00118268
49.9007
0.000674428
109.753
50.5035
229.906
28.9523
0.000726439
12.4739
15.8882
58.0823
15.369
29.4779
13.735
0.000754699
0.000742226
0.0034531
0.176016
0.000710772
84.5293
13.961
1.74268
47.6609
15.0691
39.0286
118.305
0.000728216
19.0922
30.978
0.000944606
0.090771
52.8281
168.853
20.2808
4.75161
0.00075393
33.6854
39.636
0.000959499
0.0116211
0.000722848
39.7523
0.00116594
0.517939
112.711
0.763657
0.0999112
21.8086
2877.59
0.000758171
30.2126
0.000675468
10.2401
23.0475
22.2871
17.0778
60.8658
31.7198
58.262
189.001
45.3532
0.000732409
0.000718148
0.0475276
0.206893
53.1968
4.54797
0.000730218
164.414
2.89823
0.00301841
52.3421
0.0545824
0.00287145
0.0322897
74.2083
0.00203751
0.000734266
21.3527
83.4569
25.1435
1.62596
53.9653
8.24937
0.000737458
16.8036
0.146141
0.0685538
0.000791101
34.6984
20.0466
5.51026
139.125
94.6218
16.4152
2.90037
0.000725724
25.858
0.0007262
223.161
0.00407548
33.4119
0.157987
53.6954
0.00810722
0.00356633
4.54852
3.7415
386.584
0.000853145
1.8942
46.3898
91.2237
6.40683
114.717
1.32765
0.0008123
0.000744797
58.1938
24.6035
313.174
2.24709
0.164456
54.9286
21.0959
59.5219
0.0668332
0.00072599
0.000734803
1.27412
767.887
18.6072
105.981
0.000842777
0.00453229
1.10952
48.9152
22.8252
45.0734
57.9195
60.8539
0.000741921
0.000735542
179.034
135.889
61.5929
427.117
48.0776
0.0161022
132.994
0.000724666
226.236
0.0177352
0.0210122
0.000727211
0.0347077
0.173063
53.6957
48.4291
0.000754517
116.31
0.000719036
82.8551
148.525
0.000718105
0.470223
0.0007544
16.4693
0.324109
5.61864
0.000691771
13.1869
90.9349
13.1428
45.1306
1.24015
60.6276
1.58084
62.6705
33.3869
84.0331
30.8123
0.0009551
0.000736189
27.2196
0.480837
61.6512
0.000731901
123.354
0.000724325
0.00131043
0.250325
0.00072046
273.634
97.6709
0.000762186
21.8773
2.57107
0.175177
33.199
0.00188091
0.000708276
42.9997
9.15669
0.020571
46.5972
2371.89
108.395
1.62929
183.009
0.225348
0.000735777
0.000900527
0.0276567
1.5517
57.7066
140.77
312.549
52.4257
55.0416
10.6064
1.9799
37.3432
154.178
56.1179
0.0352195
0.0854629
13.0672
83.8788
0.000793205
1.00353
17.5316
192.49
0.000726907
49.0895
0.000680745
0.00644359
129.557
0.000790476
65.1866
1155.58
0.000738013
175.25
0.000870182
8.89677
0.00652844
0.00103375
47.5309
16.2045
64.6359
8.46927
79.5661
350.449
105.553
5.96049
36.6799
20.3427
0.000705297
162.903
0.0565414
88.61
4.03133
10.5358
0.0346414
0.00108869
167.196
116.642
12.6436
48.3869
18.0944
0.0103099
0.000694832
0.000744476
1.65765
75.331
17.2537
0.000703923
1167.97
20.4522
0.00960888
0.141793
20.1884
0.000664379
0.392122
0.000762217
0.000723747
21.4317
30.0435
0.0546554
0.00624149
0.000708808
29.0787
1.77417
20.7292
0.00231502
0.0321783
0.00738221
61.1685
103.267
1.2331
0.000729312
160.243
0.000780825
0.0337235
0.00416218
0.00141259
34.8225
64.8521
0.000725233
49.9828
0.000748745
0.000696269
0.000880821
53.4427
15.4254
53.2221
42.4433
20.0776
61.8967
0.0442245
0.00072878
0.00706959
0.00161845
2.86896
0.000713543
61.6071
11.7276
0.0330889
101.132
0.353793
22.3085
1.8789
0.00184174
125.487
56.7808
20.1907
0.00724467
0.146499
214.862
0.000732765
8.92455
57.7615
0.000724659
0.708846
0.00279792
19.5268
0.000691661
81.5041
37.2713
1.71719
0.430801
94.1651
365.899
4.71901
125.55
0.00104645
18.2691