/*--------------------------------*- C++ -*----------------------------------*\
| =========                 |                                                 |
| \\      /  F ield         | OpenFOAM: The Open Source CFD Toolbox           |
|  \\    /   O peration     | Version:  2.3.1                                 |
|   \\  /    A nd           | Web:      www.OpenFOAM.org                      |
|    \\/     M anipulation  |                                                 |
\*---------------------------------------------------------------------------*/
FoamFile
{
    version     2.0;
    format      ascii;
    class       volScalarField;
    location    "0.48";
    object      p;
}
// * * * * * * * * * * * * * * * * * * * * * * * * * * * * * * * * * * * * * //

dimensions      [0 2 -2 0 0 0 0];

internalField   nonuniform List<scalar> 
15166
(
-17.3006
-22.3281
-25.0977
-27.3081
-29.1868
-30.785
-32.2174
-33.4748
-34.5618
-35.3684
-36.1105
-36.6835
-22.0175
-24.5295
-25.8904
-27.5574
-29.1312
-30.5566
-31.861
-33.0399
-34.0716
-34.901
-35.6422
-36.2354
-27.2036
-28.0917
-28.3669
-29.3023
-30.3001
-31.3153
-32.3143
-33.2462
-34.0955
-34.8211
-35.4662
-36.0036
-30.1793
-30.5914
-30.5862
-31.1467
-31.738
-32.4066
-33.1109
-33.7985
-34.449
-35.0278
-35.5471
-35.9756
-32.0475
-32.3021
-32.2764
-32.6762
-33.053
-33.5073
-34.0014
-34.4987
-34.9815
-35.4232
-35.8262
-36.1751
-33.6952
-33.8148
-33.7572
-34.0315
-34.2673
-34.5763
-34.9176
-35.2677
-35.6136
-35.936
-36.2324
-36.4947
-35.2854
-35.2855
-35.1785
-35.3314
-35.4486
-35.6361
-35.8507
-36.0775
-36.3057
-36.5207
-36.716
-36.8784
-36.7583
-36.6708
-36.526
-36.5783
-36.5981
-36.6818
-36.7882
-36.909
-37.0351
-37.1555
-37.2636
-37.3502
-38.0958
-37.9423
-37.7742
-37.7494
-37.6946
-37.6942
-37.7114
-37.7433
-37.7824
-37.8211
-37.8537
-37.8711
-39.3183
-39.1116
-38.9278
-38.8426
-38.7306
-38.6627
-38.6075
-38.5658
-38.5319
-38.5003
-38.465
-38.4178
-40.4478
-40.1978
-40.0018
-39.8672
-39.7093
-39.5861
-39.4714
-39.3682
-39.2726
-39.1813
-39.0894
-38.9786
-41.5016
-41.2144
-41.008
-40.8316
-40.6356
-40.466
-40.3014
-40.1466
-39.9985
-39.8561
-39.7187
-39.5753
-42.4866
-42.1684
-41.9535
-41.7412
-41.5133
-41.3041
-41.0973
-40.8983
-40.705
-40.517
-40.3354
-40.1608
-43.4107
-43.0655
-42.8433
-42.6005
-42.3456
-42.1025
-41.8595
-41.6217
-41.3878
-41.1563
-40.9186
-40.6618
-44.2801
-43.9116
-43.683
-43.4135
-43.1353
-42.8633
-42.5892
-42.3186
-42.0513
-41.7897
-41.5367
-41.2736
-45.0999
-44.711
-44.4766
-44.1841
-43.886
-43.5888
-43.2884
-42.9898
-42.6936
-42.4016
-42.1189
-41.8425
-45.8745
-45.4679
-45.2284
-44.9154
-44.5998
-44.2808
-43.9572
-43.634
-43.3121
-42.9927
-42.6789
-42.377
-46.6086
-46.1857
-45.941
-45.6099
-45.2789
-44.9405
-44.5967
-44.252
-43.908
-43.5661
-43.2276
-42.8988
-47.3042
-46.867
-46.6176
-46.2704
-45.9258
-45.5704
-45.2087
-44.8449
-44.4814
-44.1205
-43.7636
-43.4144
-47.9646
-47.5145
-47.2607
-46.8988
-46.5419
-46.1712
-45.7935
-45.4127
-45.0317
-44.6529
-44.2797
-43.92
-48.592
-48.1301
-47.872
-47.4972
-47.1291
-46.7446
-46.3524
-45.9561
-45.5586
-45.1623
-44.7699
-44.3926
-49.1878
-48.7156
-48.4538
-48.0669
-47.6887
-47.2917
-46.8865
-46.476
-46.0633
-45.6504
-45.2371
-44.8317
-49.7574
-49.2738
-49.0076
-48.6097
-48.2225
-47.8142
-47.3972
-46.9741
-46.5487
-46.1236
-45.7
-45.2842
-50.298
-49.8043
-49.5348
-49.127
-48.7313
-48.3129
-47.8854
-47.4513
-47.0145
-46.5777
-46.1413
-45.7066
-50.8064
-50.3078
-50.036
-49.6194
-49.2162
-48.7887
-48.3519
-47.9078
-47.4605
-47.0131
-46.5667
-46.1206
-51.2963
-50.7888
-50.5132
-50.0882
-49.6783
-49.2425
-48.7973
-48.3441
-47.8874
-47.4302
-46.9736
-46.5152
-51.7616
-51.246
-50.9677
-50.5349
-50.1186
-49.6752
-49.2221
-48.7608
-48.2957
-47.8305
-47.3682
-46.9037
-52.2042
-51.6805
-51.3996
-50.9597
-50.5376
-50.0873
-49.627
-49.1581
-48.685
-48.2107
-47.7382
-47.2691
-52.6201
-52.0924
-51.8101
-51.3634
-50.936
-50.4792
-50.0124
-49.5365
-49.0559
-48.5735
-48.0902
-47.6025
-53.0165
-52.4831
-52.1996
-51.7467
-51.3145
-50.852
-50.3792
-49.8969
-49.4099
-48.9213
-48.4336
-47.9399
-53.3927
-52.8562
-52.5696
-52.1106
-51.6741
-51.2061
-50.7278
-50.2397
-49.7468
-49.2521
-48.7583
-48.258
-53.7526
-53.211
-52.921
-52.4558
-52.015
-51.5419
-51.0585
-50.5652
-50.0668
-49.5664
-49.0682
-48.5665
-54.083
-53.5433
-53.2519
-52.7817
-52.3371
-51.8595
-51.3716
-50.8734
-50.3698
-49.8635
-49.3577
-48.8479
-54.4026
-53.8584
-53.5637
-53.089
-52.6411
-52.1594
-51.6673
-51.1648
-50.6568
-50.1464
-49.6372
-49.1275
-54.703
-54.1543
-53.8579
-53.3785
-52.9273
-52.4418
-51.946
-51.4396
-50.928
-50.414
-49.9009
-49.3858
-54.9805
-54.4312
-54.1339
-53.6502
-53.1962
-52.707
-52.2075
-51.6976
-51.1826
-50.6658
-50.1521
-49.6384
-55.2422
-54.6905
-54.3927
-53.9044
-53.4476
-52.955
-52.4523
-51.9388
-51.4198
-50.8982
-50.3778
-49.8633
-55.4917
-54.9339
-54.6349
-54.1417
-53.6823
-53.1864
-52.6804
-52.1633
-51.6404
-51.1138
-50.5838
-50.0476
-55.7146
-55.1576
-54.86
-54.362
-53.9006
-53.4019
-52.893
-52.3729
-51.8469
-51.3173
-50.7832
-50.224
-55.9291
-55.366
-55.0687
-54.5655
-54.1026
-53.6016
-53.0907
-52.5687
-52.041
-51.5122
-50.9911
-50.4656
-56.1208
-55.5564
-55.2603
-54.7523
-54.2887
-53.7857
-53.273
-52.7488
-52.2186
-51.6839
-51.1484
-50.6125
-56.2973
-55.733
-55.4342
-54.922
-54.4585
-53.9537
-53.4391
-52.913
-52.3804
-51.8439
-51.3073
-50.7645
-56.4623
-55.8944
-55.5921
-55.0759
-54.6126
-54.1057
-53.5896
-53.0614
-52.5269
-51.9887
-51.4502
-50.9023
-56.6019
-56.0378
-55.7355
-55.2131
-54.751
-54.2424
-53.7244
-53.1943
-52.6578
-52.1176
-51.5792
-51.0375
-56.7336
-56.1663
-55.8618
-55.3358
-54.8751
-54.3634
-53.8436
-53.3116
-52.7729
-52.2305
-51.6882
-51.1416
-56.8429
-56.2769
-55.9705
-55.4439
-54.9852
-54.4689
-53.9473
-53.4135
-52.8735
-52.3301
-51.7897
-51.2558
-56.9387
-56.3732
-56.0632
-55.5394
-55.0789
-54.5576
-54.0357
-53.5008
-52.9592
-52.4138
-51.8678
-51.3234
-57.0175
-56.4562
-56.1382
-55.6213
-55.1517
-54.6334
-54.1105
-53.5739
-53.0315
-52.4861
-51.9416
-51.4062
-57.0839
-56.5233
-56.2
-55.6869
-55.2126
-54.695
-54.1708
-53.6336
-53.0908
-52.5445
-51.9972
-51.4522
-57.1341
-56.5755
-56.2472
-55.7356
-55.2599
-54.7422
-54.2174
-53.68
-53.1369
-52.5906
-52.0442
-51.5067
-57.1645
-56.6095
-56.2798
-55.769
-55.2922
-54.775
-54.2501
-53.7128
-53.1693
-52.6213
-52.0691
-51.5157
-57.1837
-56.6292
-56.2981
-55.788
-55.3105
-54.7939
-54.2694
-53.7322
-53.1888
-52.6401
-52.0871
-51.5247
-57.1863
-56.6332
-56.3013
-55.7918
-55.3141
-54.7987
-54.2745
-53.7384
-53.1953
-52.6486
-52.1027
-51.5546
-57.1698
-56.6221
-56.2896
-55.7811
-55.3037
-54.7887
-54.2653
-53.7291
-53.1861
-52.6385
-52.0901
-51.5369
-57.1422
-56.597
-56.2633
-55.756
-55.2784
-54.7643
-54.2404
-53.704
-53.1602
-52.6111
-52.0626
-51.5165
-57.0987
-56.557
-56.2225
-55.716
-55.2389
-54.7247
-54.2007
-53.6637
-53.1189
-52.5696
-52.0183
-51.4658
-57.0456
-56.502
-56.1669
-55.6618
-55.1843
-54.6705
-54.1461
-53.6088
-53.0648
-52.5163
-51.9685
-51.4267
-56.9683
-56.4325
-56.0974
-55.593
-55.1155
-54.6017
-54.0772
-53.5407
-52.9972
-52.4504
-51.9017
-51.3448
-56.886
-56.3485
-56.0129
-55.5096
-55.032
-54.5182
-53.9944
-53.4588
-52.9179
-52.3754
-51.8391
-51.3188
-56.7828
-56.2493
-55.9137
-55.4109
-54.9333
-54.4202
-53.8973
-53.3635
-52.8244
-52.2819
-51.7385
-51.2025
-56.6659
-56.1359
-55.8001
-55.2979
-54.8204
-54.308
-53.7866
-53.2545
-52.7168
-52.1754
-51.6304
-51.087
-56.5388
-56.0105
-55.6728
-55.1713
-54.6937
-54.1831
-53.6635
-53.1335
-52.598
-52.0576
-51.5136
-50.9613
-56.3963
-55.8686
-55.5309
-55.03
-54.5539
-54.0453
-53.5281
-53.0012
-52.4674
-51.9297
-51.3909
-50.8556
-56.2341
-55.7107
-55.374
-54.8752
-54.4009
-53.8945
-53.3803
-52.855
-52.3231
-51.7854
-51.2436
-50.6969
-56.0594
-55.5384
-55.2024
-54.7062
-54.234
-53.7306
-53.218
-52.6948
-52.1638
-51.6278
-51.0913
-50.5573
-55.8679
-55.3514
-55.017
-54.5235
-54.0536
-53.5521
-53.0414
-52.519
-51.9888
-51.454
-50.9168
-50.377
-55.6629
-55.1512
-54.8179
-54.327
-53.8593
-53.3595
-52.8498
-52.3283
-51.7995
-51.2664
-50.7351
-50.2128
-55.4505
-54.9373
-54.6046
-54.1168
-53.6506
-53.1523
-52.6437
-52.1236
-51.596
-51.0644
-50.5316
-50.001
-55.2108
-54.7059
-54.3766
-53.8916
-53.4273
-52.9306
-52.4234
-51.9053
-51.3805
-50.8526
-50.3263
-49.8161
-54.9634
-54.4626
-54.1346
-53.6519
-53.189
-52.6938
-52.1891
-51.6733
-51.1521
-50.6275
-50.1011
-49.5825
-54.7049
-54.2075
-53.8793
-53.3983
-52.9361
-52.443
-51.9407
-51.4283
-50.9108
-50.3897
-49.8681
-49.366
-54.4325
-53.9369
-53.6096
-53.1299
-52.6695
-52.1781
-51.6788
-51.1703
-50.6557
-50.137
-49.6129
-49.0932
-54.1469
-53.6539
-53.3252
-52.8474
-52.3882
-51.9002
-51.4043
-50.899
-50.3878
-49.8718
-49.3509
-48.8356
-53.8382
-53.352
-53.0263
-52.5508
-52.0946
-51.6098
-51.1174
-50.6159
-50.1079
-49.5958
-49.0815
-48.5786
-53.5172
-53.0361
-52.7121
-52.2404
-51.7873
-51.3063
-50.8176
-50.3192
-49.8141
-49.3044
-48.7903
-48.2797
-53.1891
-52.71
-52.3861
-51.9175
-51.4674
-50.9902
-50.5045
-50.0088
-49.5066
-49.0004
-48.4937
-48.0025
-52.8402
-52.3662
-52.0453
-51.5811
-51.1352
-50.6608
-50.178
-49.6849
-49.1849
-48.6809
-48.173
-47.6684
-52.4772
-52.0067
-51.6895
-51.2308
-50.7885
-50.3177
-49.8374
-49.3469
-48.8504
-48.3508
-47.851
-47.3677
-52.0986
-51.6344
-51.3206
-50.8659
-50.4276
-49.9598
-49.4827
-48.9956
-48.5026
-48.0072
-47.5091
-47.0135
-51.7031
-51.2469
-50.9365
-50.487
-50.0516
-49.5873
-49.1137
-48.6303
-48.1421
-47.6516
-47.1629
-46.6921
-51.2995
-50.8477
-50.5397
-50.0937
-49.6611
-49.2004
-48.7305
-48.2513
-47.7673
-47.2798
-46.7886
-46.3099
-50.8841
-50.4362
-50.1296
-49.6865
-49.2568
-48.7994
-48.3336
-47.8591
-47.3791
-46.8951
-46.4046
-45.915
-50.4541
-50.0103
-49.7047
-49.2651
-48.8381
-48.3851
-47.9239
-47.4547
-46.9805
-46.5028
-46.0226
-45.5457
-50.0082
-49.5695
-49.2659
-48.8294
-48.4063
-47.9576
-47.5018
-47.0385
-46.57
-46.0991
-45.6289
-45.1748
-49.5471
-49.1139
-48.8123
-48.3804
-47.961
-47.5172
-47.0665
-46.6081
-46.1442
-45.6761
-45.2039
-44.737
-49.0692
-48.6438
-48.3455
-47.918
-47.5032
-47.064
-46.6178
-46.1641
-45.7046
-45.2413
-44.7768
-44.3324
-48.5849
-48.1615
-47.8649
-47.443
-47.0326
-46.5981
-46.1565
-45.7069
-45.2516
-44.7924
-44.328
-43.8619
-48.08
-47.6628
-47.3701
-46.9543
-46.5487
-46.1195
-45.6823
-45.2372
-44.787
-44.3343
-43.883
-43.4492
-47.5586
-47.1487
-46.8606
-46.451
-46.0513
-45.6269
-45.1948
-44.7547
-44.3091
-43.8621
-43.4158
-42.9942
-47.0239
-46.6214
-46.3378
-45.9347
-45.5398
-45.1207
-44.6934
-44.258
-43.8175
-43.3742
-42.9296
-42.5106
-46.4768
-46.0805
-45.8011
-45.4036
-45.0139
-44.6001
-44.178
-43.7479
-43.3126
-42.8738
-42.4275
-41.983
-45.9173
-45.5272
-45.2513
-44.8596
-44.4745
-44.066
-43.6501
-43.2267
-42.7996
-42.3722
-41.9477
-41.5599
-45.3458
-44.9622
-44.6887
-44.302
-43.9214
-43.5186
-43.109
-42.6926
-42.2729
-41.8513
-41.4248
-41.0094
-44.7619
-44.3819
-44.1118
-43.7303
-43.3549
-42.9579
-42.5545
-42.1449
-41.7316
-41.3157
-40.8965
-40.4998
-44.1575
-43.787
-43.5207
-43.1451
-42.7747
-42.384
-41.987
-41.5842
-41.1776
-40.7683
-40.3541
-39.9444
-43.547
-43.1799
-42.9161
-42.5459
-42.1817
-41.7971
-41.4068
-41.011
-40.6115
-40.2105
-39.8102
-39.4346
-42.9207
-42.5588
-42.2981
-41.9343
-41.5758
-41.1979
-40.8142
-40.425
-40.0316
-39.6359
-39.2353
-38.8366
-42.2693
-41.9184
-41.6647
-41.3086
-40.957
-40.5862
-40.209
-39.8266
-39.4402
-39.0522
-38.6646
-38.3006
-41.615
-41.2692
-41.0186
-40.6697
-40.3252
-39.9617
-39.5917
-39.216
-38.837
-38.4565
-38.0733
-37.694
-40.9431
-40.6052
-40.3597
-40.0185
-39.6812
-39.3247
-38.9618
-38.5935
-38.2221
-37.8501
-37.4812
-37.1378
-40.2608
-39.9284
-39.6875
-39.3534
-39.0231
-38.6741
-38.3183
-37.9576
-37.5936
-37.2274
-36.8574
-36.4996
-39.5599
-39.2366
-39.0012
-38.6752
-38.3516
-38.0097
-37.6615
-37.3085
-36.9527
-36.5957
-36.2354
-35.8837
-38.8479
-38.5324
-38.3021
-37.9834
-37.6665
-37.3324
-36.9924
-36.6481
-36.3019
-35.9566
-35.6136
-35.2858
-38.1286
-37.8177
-37.5909
-37.2792
-36.9691
-36.6424
-36.3109
-35.9754
-35.6385
-35.3016
-34.9659
-34.6514
-37.3925
-37.0898
-36.8675
-36.5626
-36.2596
-35.9407
-35.6173
-35.2906
-34.9622
-34.6328
-34.3004
-33.9764
-36.6449
-36.3483
-36.1309
-35.8338
-35.5383
-35.2277
-34.9127
-34.5953
-34.2768
-33.9588
-33.643
-33.3548
-35.8818
-35.5942
-35.3816
-35.0926
-34.805
-34.5034
-34.1977
-33.8897
-33.5805
-33.2712
-32.9584
-32.6502
-35.1095
-34.8278
-34.6194
-34.3391
-34.0601
-33.7677
-33.472
-33.1739
-32.8747
-32.5756
-32.2759
-31.9899
-34.3235
-34.0478
-33.8456
-33.5739
-33.3037
-33.0211
-32.7352
-32.4479
-32.1595
-31.8726
-31.5879
-31.3233
-33.5213
-33.2553
-33.0588
-32.7962
-32.5351
-32.2628
-31.9873
-31.7101
-31.4324
-31.1553
-30.8762
-30.6028
-32.7099
-32.4511
-32.2606
-32.0073
-31.7556
-31.4934
-31.2284
-30.9619
-30.6953
-30.43
-30.1675
-29.9264
-31.8852
-31.6349
-31.4509
-31.2069
-30.9644
-30.7125
-30.4584
-30.2032
-29.9487
-29.6951
-29.4402
-29.1999
-31.0545
-30.8104
-30.6313
-30.3964
-30.1632
-29.9215
-29.6783
-29.4349
-29.1932
-28.9553
-28.7208
-28.5211
-30.2112
-29.9743
-29.8001
-29.5749
-29.3513
-29.1204
-28.8879
-28.6559
-28.4264
-28.201
-27.9785
-27.7654
-29.3544
-29.1268
-28.9599
-28.7439
-28.5298
-28.3093
-28.0879
-27.867
-27.6478
-27.4301
-27.2104
-26.9906
-28.4943
-28.2707
-28.1086
-27.9021
-27.6981
-27.4888
-27.2796
-27.0713
-26.8652
-26.6625
-26.4645
-26.2937
-27.6169
-27.4029
-27.248
-27.0519
-26.8583
-26.6609
-26.4647
-26.2703
-26.0789
-25.8903
-25.7016
-25.5172
-26.734
-26.5274
-26.3782
-26.1923
-26.0102
-25.826
-25.6436
-25.4643
-25.2879
-25.1158
-24.948
-24.8015
-25.8418
-25.6447
-25.5019
-25.3262
-25.1554
-24.984
-24.8158
-24.6518
-24.4922
-24.3364
-24.183
-24.0467
-24.9471
-24.7544
-24.6173
-24.4523
-24.2938
-24.1362
-23.9827
-23.8338
-23.6905
-23.5526
-23.4198
-23.3217
-24.0421
-23.8564
-23.7264
-23.5721
-23.4256
-23.2819
-23.1436
-23.0103
-22.8821
-22.7593
-22.6388
-22.5208
-23.1272
-22.951
-22.8285
-22.6862
-22.5524
-22.4231
-22.3001
-22.1826
-22.07
-21.9617
-21.8542
-21.7481
-22.2116
-22.0426
-21.9264
-21.7955
-21.6755
-21.5614
-21.455
-21.3557
-21.2627
-21.177
-21.1019
-21.0643
-21.2936
-21.1299
-21.0207
-20.9017
-20.7955
-20.6978
-20.6091
-20.529
-20.4561
-20.3892
-20.3246
-20.2683
-20.3679
-20.2127
-20.1114
-20.0054
-19.914
-19.8335
-19.7642
-19.7042
-19.6524
-19.6073
-19.5673
-19.5569
-19.4423
-19.2944
-19.2003
-19.107
-19.0318
-18.9704
-18.9216
-18.8841
-18.8554
-18.8329
-18.8112
-18.7962
-18.5171
-18.3748
-18.289
-18.2101
-18.1522
-18.1116
-18.0858
-18.0728
-18.0699
-18.0743
-18.0828
-18.1052
-17.5886
-17.4541
-17.3773
-17.3142
-17.2759
-17.2583
-17.2583
-17.2728
-17.2983
-17.3319
-17.3718
-17.426
-16.6635
-16.5349
-16.468
-16.4228
-16.4066
-16.4151
-16.4437
-16.4876
-16.5426
-16.6053
-16.6741
-16.7617
-15.7374
-15.617
-15.562
-15.5376
-15.5481
-15.5866
-15.6471
-15.7233
-15.809
-15.8989
-15.9867
-16.0778
-14.8155
-14.7016
-14.6616
-14.6634
-14.7064
-14.7811
-14.8786
-14.991
-15.1113
-15.2338
-15.3554
-15.492
-13.8932
-13.7885
-13.77
-13.8081
-13.8937
-14.0124
-14.1524
-14.3041
-14.4603
-14.6156
-14.7637
-14.9113
-12.9668
-12.876
-12.8944
-12.9867
-13.1287
-13.3001
-13.4875
-13.6807
-13.873
-14.0594
-14.2342
-14.4036
-12.0291
-11.971
-12.0584
-12.2337
-12.4492
-12.6803
-12.9144
-13.1439
-13.3689
-13.5831
-13.7754
-13.9335
-11.0579
-11.144
-11.3812
-11.6846
-11.9813
-12.2597
-12.5293
-12.7858
-13.0291
-13.272
-13.4726
-13.6557
-1.51134
9.70883
-10.3086
-19.2167
-19.857
-7.19975
-4.75725
32.7502
-44.7909
-39.9602
-35.0474
-14.855
16.5883
-41.246
1.38598
-6.75738
-41.2712
-30.5994
-30.0395
-6.48885
27.9831
26.3249
17.785
-16.1201
-0.857435
-10.8526
24.365
0.646096
-42.5142
-37.8102
-42.477
30.9147
9.58134
-34.6559
16.7939
18.0436
33.6643
-30.8181
33.2345
-14.7596
2.32287
-1.99091
24.6824
-0.419896
33.4337
26.1243
19.0533
19.9918
33.365
27.9717
18.7596
32.5678
30.9379
1.49101
-36.9589
9.41835
12.9041
-2.36878
-31.5739
0.921475
24.1694
30.3292
1.53647
-3.96679
17.5256
9.71191
-13.689
30.4922
16.3352
-39.415
-37.0557
13.9389
33.1336
-13.2578
-15.4929
2.61671
-44.3284
-1.67801
10.0153
28.802
2.6644
-1.93256
33.9142
32.558
1.96518
-44.3984
-13.7147
0.919681
-39.5741
33.5432
27.9872
-41.322
-0.226422
7.82814
34.3249
-4.18772
0.516269
-1.9076
-0.642074
-13.3449
-15.8565
14.5776
5.57212
8.91231
-1.7094
33.9715
1.8313
33.2505
-13.6622
0.350826
17.979
-2.06979
30.5199
-7.73161
1.687
15.6666
-19.9036
-6.201
-45.7004
-33.3361
-10.6052
-21.5297
-42.0202
15.4072
-18.1223
-40.3271
-1.92279
11.6047
19.3706
1.03087
31.5959
1.40024
21.4163
8.84747
23.5183
10.7802
34.0286
-39.3997
31.5453
10.3897
-19.15
28.7194
27.123
0.538352
30.8964
-37.1302
31.6716
-10.684
-47.923
3.35607
0.321765
16.6471
-1.66781
4.76347
22.179
3.22736
31.8297
-1.35034
-41.7127
-14.5818
-22.0911
-6.32607
-30.1841
-15.0633
24.1413
26.3775
31.5948
34.3124
10.9012
1.48701
-38.1099
-18.0678
-36.9182
-19.251
-1.10244
-41.2491
1.95444
32.3911
25.214
-36.9814
31.0682
-32.2835
-7.566
33.4019
6.30586
31.4888
3.49417
-1.70588
31.7776
1.62169
-40.3787
-1.7452
31.9152
-5.90094
32.0479
8.06053
26.9527
30.4003
2.38195
-61.4227
-47.5676
32.4143
34.3552
31.1709
32.8673
14.1224
-7.97468
-36.2495
-13.8284
-15.9305
4.30745
-46.982
33.4129
34.2283
1.9392
31.1854
-11.1909
-13.1309
-63.532
30.5449
32.4365
-47.8289
33.5688
-3.23905
-3.26707
-39.9205
-44.807
-2.07334
-56.4295
20.0278
33.7386
-17.1119
-2.30157
-13.0112
-13.3752
27.4042
31.2412
-47.3673
-1.80723
32.8944
-33.3321
19.4551
-40.7466
-45.9349
33.0711
2.45073
19.8827
6.01832
-42.4815
31.3424
-40.1267
-13.3939
-40.3665
-71.5382
28.2598
-31.6904
0.0948726
32.6678
-42.1992
33.4001
-15.2349
27.0937
17.3274
-8.60965
-14.3252
27.5835
-46.5801
32.7188
-3.68254
6.48096
0.177263
18.6139
-45.2876
33.0932
32.8855
-44.4151
21.8577
34.4529
34.2541
32.6634
32.6387
23.3651
33.6996
33.1972
-25.4646
27.4655
-33.0659
33.2281
-50.0997
29.5072
32.6456
-42.3227
34.9563
34.9492
30.4559
32.0089
28.0432
30.7006
23.9777
34.2472
29.0811
-0.741233
-10.8256
-37.5659
22.3456
-46.5054
34.4994
1.55046
14.3869
16.6656
-27.9374
34.7072
3.44705
-50.9256
32.5038
24.3756
34.9043
-31.4263
2.01246
27.8129
22.0461
-41.8218
-15.3306
69.7061
34.2391
-30.7883
-26.2039
-2.31634
2.57513
34.7399
-4.08392
0.640902
-41.827
-2.27035
2.63725
4.24899
-1.7076
14.9907
2.15807
6.52441
-0.323074
33.0156
0.121677
29.3958
12.9123
31.6243
33.6238
-42.1354
-60.7299
-12.6695
-0.170328
-4.06269
13.8575
26.0113
34.7972
-1.17888
-25.346
33.539
-46.1393
-40.0124
30.1012
33.7029
-49.0009
-61.3693
21.2619
-21.6338
-3.18218
0.324765
-1.55283
0.707471
-29.7904
30.2467
33.9943
-33.1982
-41.7283
28.7307
33.1789
-48.2767
3.57214
-35.8023
-11.0463
-11.0819
-1.39288
33.1493
-67.0636
28.0379
-0.865134
21.7733
28.6233
19.7466
3.50491
-37.2371
-35.6887
30.7651
30.291
-3.02425
-55.7611
-2.80583
-33.8538
-26.8311
13.1529
-14.3693
-12.9856
14.1073
-43.4327
30.9289
-48.7962
-41.2344
31.315
33.312
-2.21853
-0.821619
1.55676
-49.267
12.7163
28.7867
-62.5216
30.4043
30.639
3.41176
0.202791
30.6395
1.69726
-3.00132
32.532
0.584255
-21.6434
-47.3119
33.9104
0.580702
-14.0846
-11.2363
-31.4656
29.4254
-32.5514
1.96343
-41.4943
-37.3314
28.6095
-6.84188
34.5699
33.2528
12.9852
32.071
8.54989
-14.4564
-6.8279
31.8918
27.0097
2.1268
-37.5276
29.7145
33.4662
10.746
-41.8303
28.3664
9.66316
34.7981
34.2331
-32.433
28.6087
-10.4219
22.8584
-4.52617
-50.1412
-28.1419
2.28276
29.3304
22.8506
33.3541
-25.8524
33.6563
19.1354
0.823938
-38.0164
-46.7775
30.8415
1.99138
31.8789
-13.1585
0.115926
33.5104
33.283
-23.2125
-20.629
30.2081
34.1743
-6.22574
-19.4049
-42.8961
-22.3529
0.945111
32.4126
-57.7275
-17.2724
30.5446
-23.7879
-1.02665
33.1339
33.9282
-40.5088
31.0785
33.6243
2.45394
26.2931
34.3917
22.9637
-48.323
31.0995
-37.674
31.7016
-49.5385
-13.7748
-36.835
2.00616
-15.7091
31.4398
-37.6476
-13.9791
21.4095
15.8633
-12.5257
1.31263
31.5562
-0.694108
3.77205
-14.8049
33.6811
30.2586
-38.9827
34.954
-15.2385
-17.4604
-37.282
-2.15898
25.9696
-47.401
-36.3907
30.3886
-42.5658
-7.71209
-17.814
-21.4707
-48.2459
-43.3065
-1.82936
-26.3765
1.95692
19.6124
9.06677
13.8135
-17.3894
28.4738
33.6716
-30.3883
26.2232
29.0597
-13.8711
0.00809648
-0.106115
16.657
-13.4312
30.6454
-39.1192
-31.53
-25.9519
31.7889
0.500298
16.9994
27.6796
10.8621
-49.6782
24.357
30.0031
30.3206
12.4573
0.450473
-9.38812
-2.67428
-36.0463
-36.1246
33.0711
-43.7467
4.2656
-45.83
25.0434
33.0046
27.5531
-43.9615
0.130546
-32.4615
1.3081
28.5278
-13.395
32.2828
-36.7079
-0.0882192
-46.0913
-40.8499
33.4609
1.83886
-0.660922
-26.6578
-17.3409
11.7118
11.9938
8.30449
-12.797
-6.26465
7.6211
29.7407
-29.2461
-33.8717
-1.86134
0.821029
-44.4464
34.1618
32.6957
33.5989
10.718
29.363
-6.83684
-30.6973
25.6761
-1.78599
11.3482
30.2424
1.56039
14.4134
33.8741
-50.3702
-50.7084
3.39498
-13.061
29.1766
-49.7383
19.3729
25.1679
32.2126
-2.12201
31.9851
29.4068
23.5547
-22.1532
-9.39005
-0.321448
-48.2333
-50.963
32.2005
-60.8102
4.45222
2.76277
-45.9053
-31.0175
10.4448
1.96423
-41.9242
-1.12055
-36.3047
31.7159
-31.2637
2.02367
-45.9062
-0.0556172
32.8857
-37.7954
33.5813
17.0765
25.4818
-48.4521
-1.14367
19.0926
-48.1171
31.7542
-36.8397
-3.98174
-40.3367
-17.9674
1.3449
2.35883
24.174
-15.0306
32.2645
4.06485
-25.4103
34.2337
34.3043
-38.7187
23.5398
-38.4755
33.8134
27.4068
33.0821
-2.17947
13.5334
-1.13196
1.5037
30.1589
2.13806
34.8895
-10.6979
-35.406
1.45879
28.6795
34.1125
-37.1413
-5.3134
-26.7273
18.8936
-52.8008
-17.3549
-28.6039
-40.6109
-1.86538
0.845117
33.2055
20.6279
34.34
29.6528
3.82786
34.8363
34.9156
32.8926
-37.0522
-16.6339
32.8879
-0.532984
4.46281
-56.5858
33.4983
1.26167
15.1422
-38.4376
6.4466
-2.37122
-41.5412
2.05434
-26.6077
-57.9187
6.35017
32.1526
-1.61948
23.0342
32.7935
1.41708
-8.69818
-1.28427
7.34566
-9.4724
-52.4274
-32.0874
27.6012
29.3696
1.9215
-13.8791
-0.634709
-0.648405
-21.2374
14.8983
30.6168
16.5076
-43.6549
-2.86913
-109.938
-0.506618
-10.2911
33.0057
30.1057
-1.66023
31.6939
-17.4867
29.2848
-10.485
-42.7108
-43.9299
31.3884
-24.7436
-15.0097
17.3424
8.05732
27.3585
-58.0202
-13.3483
29.036
0.120105
32.5602
-8.1189
-39.5386
-44.9468
-16.1662
-13.9747
-43.1431
-23.8662
6.08257
34.3738
29.1905
-12.4079
7.35061
-3.3321
33.8418
-37.4052
-5.30665
-42.2568
-28.3811
25.9431
24.243
-48.3396
-11.1444
27.6853
-12.2069
-38.923
-38.7163
0.209678
-43.2185
-15.7618
34.1373
32.4847
30.5674
0.113593
-10.7378
-2.82263
1.74877
2.38284
31.0469
23.1995
20.4825
-37.8737
0.665966
-43.7975
15.57
23.5983
1.95719
-38.5738
-4.19191
26.44
-42.6961
23.7775
30.6366
28.5199
-2.12413
26.3506
-38.1645
10.2428
14.1347
31.9725
-39.9684
28.0089
16.0805
-15.3866
-13.9889
26.9794
-26.9053
-28.8909
30.8751
0.417587
-50.6043
15.3056
12.6142
-9.05582
-58.3954
26.8691
-0.424903
1.19851
-45.347
29.9379
-48.6162
1.38849
-36.3584
-38.1921
33.7617
6.52068
33.5866
-29.9323
6.56185
29.328
-2.04939
-50.3332
34.0858
34.0223
34.6387
3.19297
1.99495
15.4299
-41.3325
-40.5931
-32.0391
0.323648
-14.3856
3.88952
12.7774
-39.7162
25.0441
27.7166
28.0081
16.8943
33.3538
32.6239
-37.5234
0.0068316
34.2919
-32.3075
31.6938
1.15146
-41.6911
-4.33767
1.98103
4.47984
29.832
-20.8227
-10.819
26.373
-54.7534
-4.70327
3.80057
16.3249
23.1413
-11.7449
27.9148
2.61436
-3.12749
-13.7405
13.9227
-12.9844
-40.9049
33.2476
-16.574
22.2406
-35.6764
28.3167
30.4537
32.3706
-40.4905
31.8768
1.66894
32.8129
-10.5735
-2.26252
-41.3785
30.0153
21.1454
25.7235
-8.22025
-44.0122
-35.8614
-0.414557
34.1247
2.7393
33.1902
-31.5351
33.2045
-2.03552
-45.3649
34.2539
-35.5531
33.119
32.9916
-15.1149
-29.5382
23.7314
0.626551
15.0992
34.9206
-1.37918
-48.2958
32.2827
-2.3282
-15.4481
10.6854
33.2678
33.6729
-31.4993
31.4344
32.6518
-10.2922
31.5618
27.0205
30.5855
31.2983
1.56166
-1.61605
-40.262
-6.00696
-38.8832
32.9996
-0.808368
-36.8776
33.225
-2.27766
30.0641
25.2498
31.1486
31.0626
18.4322
-41.1714
-38.1738
30.8021
-33.1004
-21.2882
26.1205
33.8683
-45.5452
-30.7042
-38.5949
-21.5079
-15.893
28.5317
-9.88265
-18.269
-31.1194
-0.441688
-40.5814
33.04
12.6591
1.70936
-3.20557
-3.20669
31.5027
-2.112
32.6856
-0.1642
31.7907
-7.40107
3.3495
-46.3818
33.7316
1.88281
31.49
33.7562
-25.0792
27.0594
-17.8704
32.2718
-1.61895
30.3539
21.4525
2.92929
10.3908
34.4825
30.9578
-0.140443
2.31284
33.733
2.32834
28.6957
-31.3626
-31.5378
31.3351
-19.2652
18.8107
-100.842
-44.9355
33.5163
-53.7456
-41.4554
2.31069
31.1345
-43.0735
-44.4745
2.46825
26.4052
-1.20395
-7.25331
30.6222
-10.4832
-17.3585
6.32757
-13.8767
-62.0421
13.9524
-1.15857
25.0342
0.472819
10.4802
24.7295
-64.6493
24.6572
5.48193
-3.15687
-47.6629
26.8694
4.72182
7.88328
27.8753
24.5469
33.6666
34.7278
-15.0227
-1.39812
-13.6568
2.63333
39.3292
26.7191
-87.8059
29.5238
-29.8724
1.1047
-50.7348
-0.330184
2.74636
11.6268
30.7688
31.6867
-48.1358
2.64214
-16.9664
-1.91352
27.2526
-48.2249
0.949504
32.9992
1.38642
1.10945
5.79062
16.4227
-13.2168
-40.6068
-22.1803
2.97845
-2.6335
31.393
32.4266
32.138
-44.8417
27.6007
31.3207
2.88166
11.4047
-35.2478
32.4822
-14.2193
14.1041
1.29042
34.125
-2.04986
31.9499
32.1905
-7.64902
-12.1771
33.2152
-16.4528
21.8004
1.67029
-35.9985
-40.7804
33.1619
-2.86255
-17.8751
-35.3418
-20.3008
23.3234
-38.7322
1.95678
1.53428
0.316553
-19.6484
33.9729
-47.0198
0.24481
34.8611
-43.5484
29.7672
25.6964
-19.0921
14.1025
1.71603
20.5041
30.4624
31.2486
-1.03898
-40.5275
-2.35406
-16.8487
-17.0904
-44.226
21.6104
-39.8733
-41.5206
8.90331
14.5459
2.25756
-1.6652
6.32628
-12.6567
-7.35187
0.963944
-44.0437
33.3935
-0.583205
31.493
-34.9022
3.53407
1.89559
-62.3626
31.439
-35.7658
-20.8098
23.5533
30.2918
-27.0115
20.2105
-40.0724
33.0509
32.6475
34.796
25.8433
33.7725
31.8042
-18.4933
33.7087
3.71757
33.3287
15.4464
28.4474
-22.903
29.3646
-32.9962
11.3404
34.4983
23.0345
34.2956
33.3733
34.6001
-28.12
-3.8282
8.5787
2.09873
-20.3499
-39.3712
1.93403
-45.0928
2.59596
15.4199
32.8996
30.9634
-43.4652
-22.7238
22.8402
-46.3382
-7.2114
34.5396
-2.81395
32.3635
-49.2556
0.77591
-15.9538
-4.19046
21.4196
32.2063
30.865
25.3504
31.5584
-1.80274
21.188
30.5594
-46.7154
5.8995
14.3472
29.3264
31.4848
-19.0309
32.0482
-16.8393
-7.39602
-12.5817
1.21855
-8.95112
32.4808
-41.576
33.3066
29.7229
-26.7537
-30.0123
25.8107
1.44983
32.8998
1.24024
1.62791
-0.748885
16.0371
32.1448
28.6415
-38.4426
33.0748
32.6659
6.31793
3.49982
26.5307
26.6302
19.8717
33.1019
-22.4576
33.5617
-0.838768
33.7141
7.69001
7.34199
1.93187
-37.5706
-19.151
28.7869
-26.2797
-42.0509
-46.002
2.01516
-40.1617
34.5442
33.8331
-0.33551
-9.59833
28.0764
32.731
-35.1129
31.8978
-1.74663
-37.1832
3.08965
32.3483
-16.321
31.1439
13.6596
-12.3286
-0.662297
43.5757
-0.893709
-45.0974
18.2033
3.31361
16.3239
30.7052
-1.39552
-0.602025
-1.9
16.0585
32.9165
-25.9225
-3.4984
31.6104
25.0825
34.099
1.85167
34.4753
25.9103
27.8126
-21.8932
33.6731
-16.016
34.827
-11.036
30.8284
32.2958
33.9252
-0.742638
26.0028
32.5851
31.9032
7.62467
0.811085
31.3789
23.9709
1.73475
-4.78634
-50.7235
0.913953
-37.1476
-45.3322
32.9799
33.5742
-27.227
24.697
-31.7016
-52.181
-25.8373
-13.3689
-35.9597
34.7807
28.4328
-1.48647
33.8318
-5.61123
-0.81633
2.92501
-0.217437
1.89911
4.17692
-25.6969
-100.28
-31.4018
8.13079
-37.8249
29.1181
-3.71378
30.9832
28.409
-21.3938
27.1205
-43.4177
34.6851
24.7252
20.2515
-2.00247
2.23414
16.4977
21.3969
33.6456
32.8215
-44.0833
27.9064
30.9255
-9.00739
32.8818
33.3689
-1.13715
32.8033
-42.4151
4.05554
-18.5835
14.8398
-18.3194
33.0216
-32.1609
-15.9461
7.04745
-33.0325
5.31216
-10.4807
1.19728
-18.6873
-40.356
-25.6268
-0.642003
-1.44477
25.6431
32.4814
-38.2124
31.2371
-24.473
33.3052
32.1833
2.02438
33.6206
-1.26768
-33.1774
27.9865
-31.7773
24.2366
-49.54
-16.0642
33.5937
33.8506
-50.5638
32.4907
-14.2883
34.623
-38.795
22.8511
-31.6132
33.9221
12.0564
5.43084
-41.0625
-32.2185
1.70985
-0.122457
-6.96309
-5.50422
34.4048
-0.9204
33.0508
30.2894
31.8844
-43.202
2.92402
-33.8316
30.4093
34.1807
32.1974
32.908
-42.3677
-5.05127
1.62504
3.43625
-28.858
2.90987
33.5275
31.3421
5.20232
-17.6196
-35.9836
34.0545
33.0436
1.87965
31.2077
-27.0652
8.7179
11.5491
34.2541
33.5295
-9.85339
26.5606
-1.45934
2.72862
34.6401
7.32484
-19.6831
2.4619
32.5993
-9.88168
23.749
-50.1435
16.2261
-28.0632
-40.5659
6.43397
3.4395
-9.85562
0.809109
30.7839
33.4186
32.4243
-1.11687
22.8856
-27.9176
8.40297
-13.1684
-16.8212
-0.314821
2.12648
14.6184
-11.7768
0.71065
28.8859
4.03759
-46.0713
-5.95237
-7.49419
-22.5223
23.2175
13.9086
21.3907
-48.2611
12.3566
-1.91944
32.4548
30.9389
-40.3042
0.0217734
34.7911
31.3385
-4.36344
32.1846
-28.2124
-26.5699
5.69211
26.4902
-9.29211
30.9014
-48.046
-40.1181
11.0574
-30.3663
-1.51732
33.5409
-1.83135
-23.4762
14.6269
31.2217
-27.8325
-38.2397
16.6819
-13.893
-0.80158
-32.9514
-10.6318
3.23267
-3.68602
34.1156
33.6555
25.1475
14.0081
29.3981
-6.39462
1.55677
2.42138
-40.4554
-15.2269
-36.2062
26.4184
33.6578
32.8131
-21.2148
17.2455
2.79984
-1.2418
29.4114
-26.6831
-38.898
-14.522
4.11067
-16.1146
20.4286
34.3541
33.1891
-25.6315
34.4218
-40.5944
-0.705252
4.199
-17.5068
33.8111
-41.0066
32.8587
34.6817
8.0528
-48.8494
-2.71048
31.6806
19.7981
20.0051
-1.62019
21.5043
17.7121
-37.6605
-32.9102
-1.00718
32.3837
-3.2219
33.5527
-42.977
-1.68168
21.1551
-0.385469
29.3472
-26.3673
26.8763
-1.64439
29.502
33.7636
31.6138
-38.4752
19.8948
-36.9303
3.58811
-14.4776
34.324
-49.87
-12.4297
-8.487
-4.31647
33.6315
6.55476
-13.5652
1.34127
-24.465
1.91275
7.58931
-0.0299162
-3.16346
-16.5775
-13.2692
1.19642
-43.6831
-17.3045
-26.1683
-38.0228
-8.68093
-2.54006
34.3584
-6.49561
0.909085
-29.5453
-11.0298
-43.948
21.8635
-12.2785
10.5231
-0.948492
-7.58363
-22.7076
20.4099
-36.0649
-12.5907
-11.2221
-26.8761
33.6663
-41.0272
3.47634
-0.306906
-43.1531
-11.8297
12.1333
18.4379
1.48561
-40.5269
5.66869
-30.6959
-40.4946
33.0125
-2.41885
34.4473
1.24201
-14.1451
31.3035
1.81794
34.4984
-30.0489
1.68807
32.8314
1.57857
13.663
15.069
3.99198
-23.8254
29.1111
-43.8119
-27.6026
-48.2654
11.8318
32.9907
29.804
-42.3063
-17.0628
2.04848
-58.2851
23.7719
-43.6511
13.0174
-18.5111
0.253436
-2.6625
31.2891
-14.6354
31.1363
-28.537
31.3181
-2.60096
1.9571
4.33101
22.5608
12.0506
-23.1012
-1.87967
-30.4943
32.093
18.3102
-16.1677
-38.4872
0.221223
27.8974
0.856405
1.87372
30.9268
-41.2347
-25.5344
16.3906
-2.14363
-34.9911