/*--------------------------------*- C++ -*----------------------------------*\
| =========                 |                                                 |
| \\      /  F ield         | OpenFOAM: The Open Source CFD Toolbox           |
|  \\    /   O peration     | Version:  2.3.1                                 |
|   \\  /    A nd           | Web:      www.OpenFOAM.org                      |
|    \\/     M anipulation  |                                                 |
\*---------------------------------------------------------------------------*/
FoamFile
{
    version     2.0;
    format      ascii;
    class       volVectorField;
    location    "0.8";
    object      U;
}
// * * * * * * * * * * * * * * * * * * * * * * * * * * * * * * * * * * * * * //

dimensions      [0 1 -1 0 0 0 0];

internalField   nonuniform List<vector> 
768
(
(-0.00253418 0.0529429 -1.13147e-22)
(0.00500885 0.0565687 1.23939e-21)
(0.014375 0.0570704 5.54337e-21)
(0.0254643 0.054793 0)
(0.0376036 0.0481034 -1.2328e-20)
(0.0492149 0.0368068 -2.24236e-23)
(0.0581324 0.0227126 -1.43518e-20)
(0.0618642 0.00836848 0)
(0.0580233 -0.00469554 -5.38179e-20)
(0.0454743 -0.0157831 4.34431e-20)
(0.0254403 -0.0244328 -4.41407e-20)
(-0.00178152 -0.0314917 -2.51816e-19)
(-0.00190469 0.0396426 -1.37312e-23)
(0.00479923 0.041106 -5.08496e-22)
(0.0124402 0.0411927 -1.9808e-21)
(0.0207089 0.0392175 0)
(0.0290877 0.0343595 1.72065e-21)
(0.0366486 0.025802 7.59915e-23)
(0.0419343 0.0137089 1.65586e-21)
(0.0431685 -0.000149944 -8.47333e-21)
(0.0384611 -0.0134139 1.87155e-20)
(0.0261308 -0.0243256 0)
(0.00626324 -0.0313141 0)
(-0.0248876 -0.0372124 -1.84036e-19)
(-0.000880496 0.029994 0)
(0.00461259 0.0307461 -1.95905e-22)
(0.0107787 0.0302456 1.45896e-21)
(0.0173824 0.0280115 9.14897e-23)
(0.0240306 0.0235444 -9.37839e-22)
(0.0299373 0.0164717 -6.03834e-21)
(0.033857 0.00711265 2.11762e-20)
(0.0341431 -0.00287616 -1.72631e-20)
(0.0291441 -0.0114412 -7.40612e-21)
(0.0171893 -0.0176061 -7.0321e-21)
(-0.00261677 -0.0197068 1.6704e-19)
(-0.0385511 -0.0243365 1.76486e-19)
(-0.000417888 0.0247311 0)
(0.00429772 0.0249235 -2.73885e-21)
(0.00943038 0.0240178 0)
(0.0148228 0.0216085 -4.00646e-21)
(0.0200449 0.0173241 0)
(0.0245326 0.0108753 -4.03307e-21)
(0.0275332 0.00231005 -3.29456e-20)
(0.0277471 -0.00684098 1.0888e-20)
(0.023442 -0.0134641 0)
(0.012455 -0.0154784 0)
(-0.0100581 -0.0126776 1.9976e-20)
(-0.0508086 -0.00552726 -3.23893e-20)
(-0.0221121 -0.0339256 -2.9039e-19)
(-0.0370312 -0.0202054 6.39641e-20)
(-0.0455073 0.00299499 -2.8719e-19)
(-0.0465901 0.0250335 1.37533e-19)
(-0.0372045 0.0412291 5.05261e-21)
(-0.0187829 0.0486796 6.466e-20)
(0.00284594 0.0471466 5.99822e-20)
(0.0207385 0.0391209 2.0923e-20)
(0.0323371 0.0296318 -8.54349e-21)
(0.0393884 0.0216138 0)
(0.0444595 0.0151293 0)
(0.049076 0.0091216 2.65398e-21)
(-0.0395571 -0.0461751 0)
(-0.0476021 -0.0342567 0)
(-0.049033 -0.0114013 2.15889e-19)
(-0.0433108 0.0105995 -5.21245e-20)
(-0.0311674 0.0266333 -3.87447e-20)
(-0.0149097 0.0352092 -1.23538e-21)
(0.00164588 0.0364299 -4.43184e-20)
(0.0148641 0.0319421 -2.01142e-20)
(0.0237997 0.0252439 0)
(0.0294832 0.0187517 0)
(0.0334986 0.0130746 6.33735e-22)
(0.0368442 0.00773241 -2.42891e-21)
(-0.0430059 -0.0464126 0)
(-0.0428445 -0.0368762 4.64649e-20)
(-0.0400781 -0.0147531 1.21669e-19)
(-0.0338703 0.0052728 -1.4781e-19)
(-0.0241512 0.0199102 -1.24432e-19)
(-0.0116797 0.0277414 -2.85584e-20)
(0.00102305 0.0292729 2.49234e-20)
(0.0113336 0.0262553 1.9029e-20)
(0.0185974 0.0210909 -2.34878e-20)
(0.0232521 0.0156231 0)
(0.0263206 0.0105573 -7.1728e-22)
(0.0285589 0.0057506 -1.83774e-21)
(-0.0419855 -0.0442998 1.88755e-19)
(-0.0283286 -0.0340402 1.688e-19)
(-0.0248549 -0.0147226 -1.65102e-19)
(-0.023302 0.00222855 1.7728e-19)
(-0.0175509 0.0148124 -2.81366e-20)
(-0.00844263 0.0217087 0)
(0.00137327 0.0235563 9.56358e-21)
(0.0096314 0.0217698 -1.80554e-21)
(0.0157303 0.0179655 1.60583e-20)
(0.0197596 0.0135134 0)
(0.0223267 0.00908924 7.02737e-21)
(0.023973 0.00475705 6.21832e-21)
(0.0535895 0.00250799 2.31605e-22)
(0.0567366 -0.00537288 2.06719e-21)
(0.0573065 -0.0148329 0)
(0.0548282 -0.0257449 0)
(0.0481332 -0.037704 5.30585e-21)
(0.0368466 -0.0492358 5.24614e-21)
(0.0227821 -0.0581528 -2.15459e-20)
(0.00845874 -0.0619272 9.24613e-21)
(-0.0045992 -0.0581415 -8.25954e-20)
(-0.0156977 -0.0456392 -4.32736e-20)
(-0.0243763 -0.0256297 2.29593e-19)
(-0.0314812 0.00159203 0)
(0.0397061 0.00189093 -1.10927e-22)
(0.0413596 -0.00517075 2.38956e-22)
(0.0413135 -0.0128026 -1.57331e-21)
(0.0392651 -0.0208708 -1.3164e-21)
(0.0343636 -0.0291416 -5.20388e-21)
(0.0257984 -0.0366546 0)
(0.0137197 -0.0419398 2.14128e-20)
(-0.000130244 -0.0431977 1.76489e-20)
(-0.013399 -0.0385215 4.87823e-20)
(-0.0243271 -0.0262187 0)
(-0.0313464 -0.00636454 -1.79541e-19)
(-0.037293 0.0248074 0)
(0.030176 0.000703966 -7.49654e-22)
(0.0308838 -0.00498252 3.53485e-22)
(0.0302883 -0.0110429 1.5294e-21)
(0.0279981 -0.017505 1.41294e-22)
(0.0235296 -0.0240604 6.34573e-22)
(0.0164658 -0.0299389 -7.70804e-22)
(0.00711459 -0.0338665 0)
(-0.00287032 -0.0341697 -9.82581e-21)
(-0.011445 -0.0291863 -1.72363e-20)
(-0.0176355 -0.0172382 -3.1862e-20)
(-0.0197709 0.00257201 1.66259e-19)
(-0.0244466 0.0385316 0)
(0.0249046 0.000283598 1.74505e-21)
(0.0250093 -0.00452439 -3.22683e-21)
(0.0239978 -0.00964711 0)
(0.0215461 -0.014934 3.82466e-21)
(0.0172925 -0.0200705 0)
(0.0108702 -0.0245392 3.92834e-21)
(0.00231436 -0.0275503 6.35526e-21)
(-0.00683402 -0.0277796 -6.939e-20)
(-0.0134576 -0.023487 -5.93584e-21)
(-0.0154821 -0.012503 2.2424e-20)
(-0.0127054 0.0100198 -1.30905e-19)
(-0.00559552 0.0508389 1.29794e-19)
(0.0340084 -0.0222318 2.90737e-19)
(0.0202386 -0.0371513 -6.39994e-20)
(-0.00300438 -0.0455465 6.27946e-20)
(-0.0250423 -0.0465165 0)
(-0.0411917 -0.0370479 0)
(-0.0485787 -0.0186 -1.3321e-19)
(-0.046994 0.00299634 1.89225e-20)
(-0.0389503 0.0208514 -1.35206e-20)
(-0.0294664 0.0324555 0)
(-0.0214885 0.0395729 7.79919e-21)
(-0.015051 0.0448598 3.034e-21)
(-0.0090141 0.0487123 -7.94046e-22)
(0.0462516 -0.0396674 0)
(0.0342837 -0.0476865 0)
(0.0113996 -0.0490507 0)
(-0.0105985 -0.0432593 3.86197e-20)
(-0.0266048 -0.0310823 -8.46912e-21)
(-0.0351412 -0.0148275 2.26962e-20)
(-0.0363132 0.00170602 -3.63829e-20)
(-0.0317806 0.0149021 2.82423e-20)
(-0.0250264 0.0238167 0)
(-0.0185377 0.029452 -6.97367e-21)
(-0.0130849 0.0334774 -2.47212e-21)
(-0.00778252 0.0368683 6.36935e-22)
(0.0465478 -0.0431252 0)
(0.0369494 -0.0429329 -1.41023e-19)
(0.014805 -0.0401021 -5.25449e-21)
(-0.00522735 -0.0338535 -6.06835e-21)
(-0.0198511 -0.0241172 -3.5036e-20)
(-0.0276577 -0.0116453 -2.79214e-20)
(-0.0291543 0.00104416 -3.0445e-20)
(-0.0261008 0.0113311 -1.2686e-20)
(-0.0208895 0.0185532 -6.43819e-21)
(-0.0154095 0.0231349 8.54771e-21)
(-0.0104575 0.0261443 3.65292e-21)
(-0.00578096 0.0283768 0)
(0.0444865 -0.0421227 -4.4956e-20)
(0.0341518 -0.0284123 5.75774e-20)
(0.0147932 -0.0249002 0)
(-0.00216175 -0.0233043 0)
(-0.0147414 -0.0175408 2.70051e-20)
(-0.0216255 -0.00843389 -2.34605e-23)
(-0.0234482 0.00137146 6.03621e-20)
(-0.0216341 0.00960441 0)
(-0.0177943 0.015657 2.47318e-20)
(-0.0133483 0.0196072 0)
(-0.00900823 0.0221022 4.3441e-21)
(-0.00480043 0.0237445 0)
(-0.000129392 0.022009 1.25838e-21)
(0.00403832 0.0219165 2.65098e-21)
(0.00843893 0.0208182 0)
(0.0129286 0.018387 3.88527e-21)
(0.0170716 0.0143662 2.37428e-21)
(0.0203564 0.00858753 1.52077e-20)
(0.0222018 0.000869798 -7.3388e-21)
(0.0216553 -0.00828865 0)
(0.0170901 -0.0162495 0)
(0.00665627 -0.0182298 -2.46361e-20)
(-0.014395 -0.0118338 -8.88505e-20)
(-0.0327688 0.0143736 0)
(3.57296e-05 0.020182 -1.21861e-21)
(0.00373376 0.0199777 0)
(0.00756212 0.0188243 8.50739e-21)
(0.0113367 0.0164945 -2.18045e-21)
(0.0146792 0.0128133 2.17476e-21)
(0.0171231 0.00773003 -2.0091e-20)
(0.0181311 0.00117908 -1.89168e-20)
(0.0168983 -0.00672621 1.09796e-20)
(0.0119637 -0.0146971 0)
(0.00201897 -0.0180169 0)
(-0.0136446 -0.0124323 0)
(-0.0228938 0.00782447 0)
(0.000151142 0.0185525 1.57444e-21)
(0.00342289 0.0183074 6.62544e-21)
(0.00672996 0.0171729 -9.45515e-21)
(0.00990146 0.0149947 0)
(0.012608 0.0116687 0)
(0.0144422 0.00722531 6.56369e-20)
(0.0149376 0.00174708 -4.70022e-20)
(0.0134599 -0.00452339 0)
(0.00891772 -0.0108965 1.70508e-20)
(0.000547016 -0.0140913 -3.68765e-20)
(-0.0107295 -0.00999794 1.99562e-20)
(-0.0157662 0.00487061 0)
(0.000234554 0.0170717 -1.52711e-21)
(0.00310074 0.0168138 -5.25473e-21)
(0.00594474 0.0157248 1.11825e-20)
(0.00860765 0.0137034 -8.62517e-21)
(0.0107984 0.0107084 1.01262e-20)
(0.0121737 0.00681638 1.07787e-20)
(0.0123471 0.00218913 6.78707e-20)
(0.0108691 -0.00280472 1.33348e-20)
(0.00703125 -0.00762234 -1.3347e-20)
(0.000567641 -0.01004 -6.74697e-20)
(-0.00738182 -0.0072895 0)
(-0.0106108 0.00325233 0)
(0.000294105 0.0157924 0)
(0.0027867 0.0155316 0)
(0.00523054 0.0144985 -1.08606e-20)
(0.0074596 0.0126375 1.12161e-20)
(0.00923018 0.0099421 1.84275e-20)
(0.0102566 0.00651637 -7.512e-20)
(0.0102252 0.0025568 -1.84527e-20)
(0.00882819 -0.0015189 -5.73803e-20)
(0.00563026 -0.00526645 0)
(0.00069698 -0.00703359 6.5675e-20)
(-0.00492434 -0.00521251 6.97804e-20)
(-0.00691232 0.00184729 0)
(0.000339439 0.0147111 0)
(0.00249803 0.0144553 -1.55806e-21)
(0.00458331 0.0134889 1.55592e-21)
(0.00644534 0.0117838 -3.29559e-21)
(0.00787362 0.0093564 -5.17977e-20)
(0.00863446 0.00632629 4.0132e-20)
(0.00847557 0.00289954 -8.78488e-21)
(0.00719529 -0.000500411 4.54641e-20)
(0.00454088 -0.00351743 1.42305e-20)
(0.000746572 -0.00485886 -1.42613e-20)
(-0.00318773 -0.00363644 -6.78318e-20)
(-0.00464669 0.0011912 0)
(0.000377141 0.0138022 0)
(0.00223274 0.0135576 -1.6113e-21)
(0.00400065 0.0126596 1.60965e-21)
(0.00555115 0.0110993 0)
(0.00669629 0.00890972 3.13952e-20)
(0.00725057 0.00621657 4.96888e-21)
(0.00701508 0.0032199 1.89998e-20)
(0.00586933 0.000320654 5.44902e-20)
(0.00368359 -0.00219537 -5.07799e-20)
(0.000748977 -0.00328621 0)
(-0.00203741 -0.002533 -1.23604e-19)
(-0.00307547 0.000676713 0)
(0.000407591 0.0130321 0)
(0.00198957 0.0127984 -1.64132e-21)
(0.00347905 0.0119638 -1.14825e-20)
(0.00475798 0.0105349 -3.44084e-21)
(0.00566358 0.00855445 -2.5573e-20)
(0.00605152 0.0061468 8.68996e-21)
(0.00577149 0.00349836 -4.57153e-20)
(0.00475978 0.000974282 -8.61012e-20)
(0.00297196 -0.00119706 -4.83343e-20)
(0.000683196 -0.00216033 -1.42821e-20)
(-0.00131282 -0.00177447 1.6963e-20)
(-0.00207468 0.00036421 0)
(0.000427707 0.0123431 0)
(0.00176128 0.0121132 0)
(0.00299978 0.0113338 1.27788e-20)
(0.00403821 0.0100227 0)
(0.00473701 0.00822585 -6.44405e-22)
(0.00498776 0.00606148 8.58032e-21)
(0.00467951 0.00370021 -8.58838e-21)
(0.00378976 0.00146499 4.19266e-20)
(0.00233218 -0.000456567 1.32638e-20)
(0.000548323 -0.00136944 -1.1768e-19)
(-0.000891922 -0.00127014 1.14378e-19)
(-0.00140086 0.000130573 -1.16216e-19)
(0.000434313 0.011672 0)
(0.00154243 0.0114426 -6.73204e-21)
(0.00254962 0.0107156 1.30573e-20)
(0.00337272 0.00951574 -3.43321e-21)
(0.00389273 0.00788746 3.53727e-20)
(0.0040289 0.00593913 -2.70825e-20)
(0.00370376 0.00382372 3.70906e-20)
(0.00292262 0.00182245 -9.59568e-21)
(0.0017355 9.32923e-05 9.20884e-20)
(0.000373709 -0.000815042 8.92613e-20)
(-0.000653962 -0.000927892 1.31707e-20)
(-0.000936597 -4.06915e-05 1.13219e-19)
(0.000418087 0.0111223 0)
(0.0013305 0.0108996 1.98152e-20)
(0.00214727 0.0102215 -1.27309e-20)
(0.00278655 0.00911939 0)
(0.0031621 0.00763644 3.69456e-21)
(0.00320638 0.00587113 1.90139e-20)
(0.00287617 0.00395988 3.41418e-20)
(0.00219669 0.00214345 1.99074e-20)
(0.00123816 0.000558543 -1.11348e-19)
(0.000232659 -0.000374248 -8.66421e-20)
(-0.000476358 -0.000646611 0)
(-0.000582684 -0.000151616 0)
(0.000393715 0.00958611 3.47567e-21)
(0.00103843 0.00921006 3.8244e-23)
(0.00158249 0.00847627 0)
(0.00195754 0.0074238 -3.30629e-21)
(0.00211483 0.00610247 3.30824e-21)
(0.00201914 0.0046036 3.8334e-20)
(0.00166899 0.00304325 -1.44585e-19)
(0.00111556 0.00160002 0)
(0.000441163 0.000387333 8.64225e-20)
(-0.000158038 -0.000341414 9.54005e-20)
(-0.000474604 -0.000533465 1.01388e-19)
(-0.000342126 -0.00021275 -1.0466e-19)
(-0.00458141 -0.0187972 -1.88568e-19)
(-0.00550667 -0.0180079 -1.65808e-19)
(-0.0125502 -0.0105796 1.45884e-19)
(-0.0155505 0.00145747 0)
(-0.0126963 0.0114683 1.40081e-19)
(-0.00599653 0.0173249 6.76298e-20)
(0.00175126 0.0192622 -4.60749e-20)
(0.00858265 0.0182679 -2.25893e-20)
(0.0139196 0.0154598 0)
(0.0176374 0.0118416 -2.24347e-21)
(0.0200523 0.0079881 -5.33365e-21)
(0.0215079 0.00407231 -2.84184e-21)
(-0.00108769 -0.000123938 -1.56976e-19)
(0.000158195 -0.00840862 3.59162e-20)
(-0.00740932 -0.00633518 -1.77905e-19)
(-0.0107726 0.00162594 0)
(-0.00915306 0.00911939 0)
(-0.00409732 0.0139436 -1.11497e-19)
(0.00209675 0.0157852 -5.48763e-20)
(0.00781842 0.0153134 3.72633e-20)
(0.0125332 0.0132427 -7.01977e-21)
(0.0159968 0.0103253 -2.36668e-20)
(0.0183374 0.00700732 2.35078e-21)
(0.01975 0.00351855 -1.76394e-21)
(0.00109054 -0.000339327 1.52161e-19)
(0.000856295 -0.0046645 0)
(-0.0050293 -0.00357726 0)
(-0.00768451 0.00186015 0)
(-0.00650671 0.00743488 0)
(-0.00257454 0.0113337 -1.07774e-19)
(0.00242846 0.0130044 1.76303e-19)
(0.00725604 0.0128345 -3.96626e-20)
(0.0113998 0.0112872 0)
(0.0145782 0.00891453 2.06892e-20)
(0.0167969 0.00607976 8.03877e-21)
(0.0181577 0.00300882 2.70812e-21)
(0.000700057 -0.000504664 -1.34372e-19)
(0.000417633 -0.0030391 -1.59636e-19)
(-0.00371899 -0.00199976 1.51821e-19)
(-0.00551634 0.00197301 -1.09276e-19)
(-0.00448793 0.00617362 0)
(-0.00133859 0.00929665 -1.94665e-20)
(0.00275998 0.0107739 -6.08831e-20)
(0.00686547 0.0107666 4.57283e-20)
(0.0105004 0.0095935 -7.05569e-21)
(0.01338 0.00764457 2.47789e-21)
(0.015437 0.00523139 -1.12506e-20)
(0.0167164 0.00254768 0)
(0.000408735 -0.000390085 4.87156e-21)
(7.06922e-05 -0.00205141 1.2445e-19)
(-0.00283554 -0.0010395 -1.44193e-19)
(-0.00390988 0.00197653 2.37777e-19)
(-0.00294621 0.00518127 -9.3543e-20)
(-0.000346943 0.00767712 1.82211e-22)
(0.00307282 0.00895513 8.23887e-21)
(0.00660205 0.00903254 -7.63737e-20)
(0.00980052 0.00813072 7.0132e-21)
(0.0123998 0.0065225 0)
(0.0142876 0.00447148 -1.06283e-21)
(0.0154718 0.00214169 5.07024e-21)
(0.000225774 -0.000215154 1.21772e-19)
(-0.000100497 -0.00135426 0)
(-0.00213306 -0.000433645 0)
(-0.00268731 0.00189215 -1.2512e-19)
(-0.00177065 0.00436345 2.04825e-19)
(0.000441631 0.00635901 9.86565e-20)
(0.00335263 0.00744728 -1.05638e-20)
(0.00641963 0.00756392 5.8317e-20)
(0.00925385 0.00686384 -6.94276e-21)
(0.0116024 0.00553188 2.52723e-21)
(0.0133318 0.00378918 -3.60923e-21)
(0.0144223 0.00177897 1.26225e-21)
(0.000128256 -7.94926e-05 2.2399e-19)
(-0.000149922 -0.000851552 2.44403e-19)
(-0.00155354 -5.75398e-05 -5.17824e-20)
(-0.00175249 0.0017445 -7.06736e-20)
(-0.000861955 0.00366029 -1.745e-19)
(0.00107121 0.00526341 -1.81999e-20)
(0.00360044 0.00617321 1.81699e-20)
(0.00629767 0.00631079 0)
(0.00882682 0.00576194 0)
(0.0109542 0.00465818 -1.94346e-20)
(0.0125394 0.00317873 -2.52795e-21)
(0.0135424 0.00145346 -3.96053e-21)
(8.45413e-05 1.73498e-05 -2.17758e-19)
(-0.000132411 -0.000490239 -3.41903e-21)
(-0.0010761 0.000164237 1.98157e-19)
(-0.00102557 0.00155979 2.77374e-19)
(-0.000144269 0.00304956 8.45598e-20)
(0.00159242 0.00433454 -1.7726e-20)
(0.00383076 0.00509143 2.54693e-20)
(0.0062318 0.00523232 -7.76142e-21)
(0.00850338 0.00479966 -5.03162e-20)
(0.0104332 0.00388637 4.56215e-20)
(0.0118839 0.00263478 -3.60193e-21)
(0.0128029 0.00116226 5.19088e-21)
(8.29417e-05 7.197e-05 1.79645e-19)
(-7.61311e-05 -0.000235706 -1.77168e-19)
(-0.000674222 0.000284941 -1.92826e-19)
(-0.000438 0.0013603 -1.30981e-21)
(0.000447116 0.00251767 0)
(0.00204473 0.0035421 -7.32256e-20)
(0.00405851 0.00416552 -7.60084e-21)
(0.00621611 0.00429689 9.67509e-22)
(0.00826164 0.00395554 1.05088e-19)
(0.0100069 0.00320227 -2.11663e-20)
(0.0113229 0.00215108 0)
(0.0121529 0.000904177 -3.99331e-21)
(9.44752e-05 7.70902e-05 -3.9747e-19)
(-3.7278e-05 -9.15757e-05 0)
(-0.000379061 0.000303182 -2.23869e-20)
(-2.93697e-06 0.00112454 -3.2366e-19)
(0.000894759 0.00202017 -1.77069e-19)
(0.00239087 0.0028332 2.01659e-21)
(0.00422687 0.00334544 2.42527e-20)
(0.00618024 0.0034692 -6.30749e-20)
(0.00802723 0.00320545 -4.81995e-20)
(0.00960052 0.00259353 -1.86019e-20)
(0.0107847 0.00172338 -2.45131e-21)
(0.0115239 0.000683252 0)
(5.24826e-05 2.00848e-05 1.92691e-19)
(-0.000139534 -0.000118954 0)
(-0.000308737 0.000144894 0)
(0.000170754 0.000772656 1.68214e-19)
(0.00111026 0.00148664 1.54283e-19)
(0.00256371 0.0021568 6.95437e-20)
(0.00429533 0.00260358 6.18604e-20)
(0.00611138 0.00274214 1.02319e-19)
(0.00781519 0.00255726 6.3586e-21)
(0.0092576 0.00207632 2.29379e-20)
(0.010337 0.00137003 -2.40747e-21)
(0.0109998 0.000509959 0)
(1.82371e-05 4.92586e-05 1.85298e-19)
(-2.79324e-05 5.83544e-05 0)
(0.000163351 0.00027875 0)
(0.000842875 0.00074098 -1.94927e-20)
(0.00187714 0.00126175 1.9479e-20)
(0.00324424 0.00173388 -1.59395e-20)
(0.004744 0.0020296 1.59524e-20)
(0.00622235 0.00208937 -5.2785e-20)
(0.00753566 0.00190613 0)
(0.0085836 0.0015073 2.23916e-20)
(0.00929957 0.000948966 1.51175e-20)
(0.00965502 0.000290799 -3.83934e-21)
(0.0221703 2.88158e-05 2.54597e-22)
(0.0220006 -0.00421117 2.55298e-21)
(0.0208 -0.00862534 0)
(0.0183291 -0.0130298 -2.14234e-21)
(0.0143339 -0.017105 -1.00374e-20)
(0.00858216 -0.0203742 -2.77542e-21)
(0.000875871 -0.0222262 -7.22824e-21)
(-0.00828395 -0.0216912 5.1728e-20)
(-0.0162476 -0.017136 0)
(-0.0182294 -0.00670292 6.27775e-20)
(-0.0118422 0.0143634 -7.72279e-20)
(0.0143797 0.0327704 -1.27594e-19)
(0.0203365 -0.000112424 -2.61929e-21)
(0.0200773 -0.0038797 0)
(0.0188415 -0.00771259 -8.33873e-21)
(0.016469 -0.0114281 0)
(0.0127947 -0.0147234 -2.18998e-21)
(0.0077287 -0.0171508 -2.76244e-20)
(0.0011867 -0.0181602 -1.08621e-20)
(-0.00672214 -0.0169335 6.10996e-20)
(-0.0147031 -0.0120036 0)
(-0.0180301 -0.00205557 -6.287e-20)
(-0.0124462 0.013625 7.66224e-20)
(0.00781913 0.0228929 0)
(0.0187003 -0.000210457 1.37429e-21)
(0.0184196 -0.00353216 -5.33823e-21)
(0.0172209 -0.00684734 8.08662e-21)
(0.0149971 -0.00998359 -1.27714e-20)
(0.0116665 -0.0126572 3.99323e-21)
(0.00723046 -0.0144752 1.54449e-20)
(0.00175669 -0.014968 5.72592e-20)
(-0.00451751 -0.013493 -5.96905e-20)
(-0.0109013 -0.00895079 0)
(-0.0141077 -0.000573524 5.24127e-20)
(-0.0100131 0.010718 1.98295e-20)
(0.00486334 0.015764 0)
(0.0172148 -0.000282252 7.45376e-22)
(0.0169249 -0.00318139 5.77735e-21)
(0.0157823 -0.00604213 -1.34016e-21)
(0.0137245 -0.0086799 -1.45801e-21)
(0.0107203 -0.0108469 1.15028e-20)
(0.00682839 -0.0122088 0)
(0.00220089 -0.0123773 -4.78453e-20)
(-0.00279733 -0.0108995 1.06924e-20)
(-0.00762353 -0.00706022 0)
(-0.0100519 -0.000589594 -1.37184e-19)
(-0.0073022 0.00737185 0)
(0.00324629 0.0106074 0)
(0.0159263 -0.000333557 3.4746e-21)
(0.0156369 -0.0028548 0)
(0.0145638 -0.00530725 -8.97657e-21)
(0.0126727 -0.00752025 1.12736e-20)
(0.00996388 -0.00927445 4.84643e-22)
(0.00653337 -0.0102911 -3.5432e-20)
(0.00257068 -0.0102551 1.0521e-20)
(-0.00150991 -0.0088559 3.5765e-20)
(-0.00526504 -0.00565621 -1.48898e-20)
(-0.00704071 -0.000716132 6.33613e-20)
(-0.00522083 0.00491557 3.50233e-20)
(0.00184255 0.00690769 -1.80238e-20)
(0.0148366 -0.000370749 -3.37502e-21)
(0.0145575 -0.00255296 0)
(0.0135588 -0.00464443 1.15245e-20)
(0.0118263 -0.00649778 -3.2537e-21)
(0.00938485 -0.00791479 3.25179e-21)
(0.00634744 -0.00866758 3.967e-20)
(0.00291591 -0.00850397 -3.64432e-20)
(-0.000489472 -0.00722038 -5.54132e-20)
(-0.00351338 -0.00456391 0)
(-0.00486147 -0.000764057 -1.57487e-20)
(-0.00364151 0.00317851 1.5815e-20)
(0.00118574 0.00464015 0)
(0.0139203 -0.000400761 -8.5171e-22)
(0.0136562 -0.00227717 7.49329e-21)
(0.012732 -0.00405188 0)
(0.011148 -0.00559476 0)
(0.00894333 -0.0067331 0)
(0.00624168 -0.0072805 8.66745e-21)
(0.00323911 -0.00704149 2.84077e-20)
(0.000333701 -0.00589196 4.38283e-20)
(-0.00218893 -0.00370369 -1.34671e-20)
(-0.00328603 -0.000764815 -1.3957e-21)
(-0.00253727 0.00202775 1.37663e-19)
(0.000670968 0.00306885 1.27217e-19)
(0.0131439 -0.000424488 -3.65087e-21)
(0.0128938 -0.00202335 -8.08591e-21)
(0.0120385 -0.00351933 1.62239e-21)
(0.0105874 -0.00479484 -3.40084e-21)
(0.00859198 -0.00569551 -2.1518e-20)
(0.00617541 -0.00607761 -2.7424e-20)
(0.00351974 -0.00579519 3.83652e-20)
(0.000989209 -0.00478033 -9.52719e-20)
(-0.00118886 -0.0029899 0)
(-0.00215742 -0.000696758 0)
(-0.00177636 0.00130415 -1.0433e-19)
(0.00036108 0.00207012 -1.8092e-20)
(0.0124507 -0.000439306 3.55336e-21)
(0.0122057 -0.0017864 1.63458e-21)
(0.0114087 -0.00303111 -1.63386e-21)
(0.010078 -0.00406832 0)
(0.00826684 -0.0047643 5.65348e-20)
(0.00609259 -0.00501076 3.99244e-20)
(0.00372359 -0.00470009 -3.48766e-20)
(0.0014813 -0.0038081 4.28741e-20)
(-0.000446324 -0.00234779 -1.10753e-20)
(-0.00136434 -0.000560039 -1.35771e-20)
(-0.00127026 0.000884542 1.35942e-20)
(0.000128441 0.00139685 -1.17576e-19)
(0.0117743 -0.000441785 3.60187e-21)
(0.0115311 -0.00155982 0)
(0.0107901 -0.00257453 1.29173e-20)
(0.00957243 -0.00339407 -3.39506e-21)
(0.00792989 -0.0039149 -2.07597e-20)
(0.00597207 -0.00404821 4.63787e-21)
(0.00384825 -0.00372144 1.77483e-20)
(0.00184011 -0.00293846 -7.13722e-20)
(0.000105212 -0.00174856 7.88836e-20)
(-0.000808602 -0.000383779 -1.04656e-21)
(-0.000926653 0.000647788 1.30717e-20)
(-4.19052e-05 0.000933489 0)
(0.0112118 -0.000424442 -2.65955e-21)
(0.0109762 -0.00134112 1.06632e-20)
(0.0102882 -0.00216367 -2.37067e-20)
(0.00917156 -0.00280268 0)
(0.00767618 -0.00317774 3.65516e-21)
(0.00590275 -0.00322146 -3.65778e-21)
(0.00398404 -0.00289007 -2.54594e-20)
(0.00216127 -0.00220963 1.48418e-19)
(0.000571087 -0.00124887 -8.86125e-20)
(-0.000366653 -0.000240433 0)
(-0.000644549 0.000471252 0)
(-0.000151656 0.000580657 0)
(0.00963799 -0.000397397 -6.89274e-21)
(0.00925481 -0.00104386 -1.27377e-20)
(0.00851572 -0.00158915 2.47398e-20)
(0.00745545 -0.00196611 -3.27015e-21)
(0.00612788 -0.00212281 6.83466e-21)
(0.00462436 -0.00202745 1.84357e-20)
(0.00305959 -0.00167663 1.69781e-20)
(0.00161233 -0.00112292 -9.0381e-21)
(0.000396553 -0.000447357 7.43558e-20)
(-0.000335912 0.000153992 1.12582e-20)
(-0.00053186 0.000472221 0)
(-0.000212284 0.00034126 1.03904e-19)
(0.0189231 -0.00463226 0)
(0.0181021 -0.00551521 2.0471e-19)
(0.0106597 -0.0125694 -3.91228e-20)
(-0.00137817 -0.0155526 0)
(-0.0113914 -0.0126936 0)
(-0.0172421 -0.00600223 -2.12485e-20)
(-0.0191631 0.00173363 -2.49832e-20)
(-0.0181478 0.00854086 8.58632e-21)
(-0.0153204 0.0138356 -2.39849e-20)
(-0.0117136 0.017483 0)
(-0.00791607 0.019833 -7.63566e-21)
(-0.00409625 0.0212924 -1.64566e-21)
(0.000137766 -0.00109822 0)
(0.00846961 0.00016857 0)
(0.00640852 -0.00739526 1.36286e-19)
(-0.00155146 -0.0107701 0)
(-0.00904312 -0.00915731 2.47909e-20)
(-0.0138633 -0.00411347 -4.55047e-20)
(-0.0156959 0.00206441 9.64472e-20)
(-0.0152055 0.0077644 7.03877e-21)
(-0.0131328 0.0124433 -7.04529e-21)
(-0.010222 0.0158556 -2.14351e-20)
(-0.00695344 0.0181444 0)
(-0.00353265 0.0195601 1.59415e-21)
(0.000346116 0.00109904 0)
(0.00470245 0.000876892 3.36015e-20)
(0.00363584 -0.00501081 -1.969e-19)
(-0.001792 -0.00768253 3.0687e-20)
(-0.00736165 -0.00651734 0)
(-0.0112608 -0.00260065 6.74241e-20)
(-0.0129235 0.00238385 -1.27803e-19)
(-0.012741 0.00719295 0)
(-0.0112001 0.0113052 0)
(-0.00882853 0.0144467 1.83615e-20)
(-0.006038 0.0166281 -6.65313e-21)
(-0.00302009 0.0179862 -1.88522e-21)
(0.000510446 0.000711272 0)
(0.00306795 0.000440235 0)
(0.00204929 -0.00370385 1.20447e-19)
(-0.00191064 -0.00551908 -2.61442e-20)
(-0.00610772 -0.00450295 2.60628e-20)
(-0.00923036 -0.00136894 -1.89885e-19)
(-0.010698 0.00270841 1.90378e-20)
(-0.0106894 0.00679593 -3.81168e-20)
(-0.00952011 0.0104034 3.33274e-20)
(-0.0075741 0.0132548 -2.21299e-20)
(-0.00519712 0.0152851 8.82774e-21)
(-0.00255895 0.0165572 1.82919e-21)
(0.000395819 0.000417144 0)
(0.00207657 8.83794e-05 -1.20905e-19)
(0.00108164 -0.0028263 -1.16801e-19)
(-0.00192288 -0.00391706 0)
(-0.0051264 -0.00296785 7.16231e-20)
(-0.00761491 -0.00038247 1.23858e-19)
(-0.00888459 0.00301864 1.14947e-19)
(-0.00896751 0.00653001 -2.28995e-20)
(-0.00806758 0.00970145 -2.55093e-20)
(-0.00646412 0.0122786 2.15019e-20)
(-0.00444028 0.0141489 0)
(-0.00215009 0.0153243 0)
(0.000223144 0.000233256 0)
(0.00137615 -8.85446e-05 1.17455e-19)
(0.000470018 -0.00212915 -2.62665e-20)
(-0.00184581 -0.00269803 2.61963e-20)
(-0.00431327 -0.00179459 -9.11331e-20)
(-0.00630164 0.000401752 -1.87337e-20)
(-0.00738675 0.00329518 -5.07898e-20)
(-0.0075065 0.00634759 1.27018e-19)
(-0.00680891 0.00915475 -6.96754e-21)
(-0.00548499 0.0114837 2.54131e-21)
(-0.00376123 0.0132028 -2.54312e-21)
(-0.00178303 0.0142858 0)
(8.784e-05 0.000135265 0)
(0.000870787 -0.000142638 2.1802e-19)
(8.97657e-05 -0.00155372 0)
(-0.00170499 -0.0017669 9.58552e-20)
(-0.00361354 -0.000888018 -6.64344e-20)
(-0.00521214 0.0010295 -1.16492e-19)
(-0.00612274 0.0035404 1.02575e-20)
(-0.00626025 0.00622463 -5.08318e-20)
(-0.0057135 0.00872942 0)
(-0.00462071 0.0108383 2.54055e-21)
(-0.00315627 0.0124171 -2.54175e-21)
(-0.00145504 0.0134149 0)
(-1.04217e-05 8.93024e-05 0)
(0.00050707 -0.000128993 2.21965e-20)
(-0.000137312 -0.00108025 -2.55981e-20)
(-0.00152631 -0.00104372 9.14022e-20)
(-0.00300779 -0.000173118 1.6896e-19)
(-0.00429066 0.00154893 5.77998e-20)
(-0.00504742 0.00376962 1.77444e-20)
(-0.00518876 0.00615747 6.50057e-20)
(-0.00475689 0.00840786 -6.76734e-21)
(-0.00385553 0.010321 2.43628e-20)
(-0.00261731 0.0117669 -2.5268e-21)
(-0.00116335 0.012682 0)
(-6.61957e-05 8.58419e-05 2.05455e-19)
(0.000249537 -7.65149e-05 -2.02986e-19)
(-0.000263085 -0.000681934 1.6805e-19)
(-0.00133031 -0.00045825 2.18656e-20)
(-0.00248365 0.000414503 -8.19969e-20)
(-0.00350453 0.00200017 -1.73145e-20)
(-0.00412666 0.00399696 1.72934e-20)
(-0.00426012 0.00614081 3.18702e-22)
(-0.00391844 0.0081681 0)
(-0.00317616 0.00989861 -2.12685e-20)
(-0.00213644 0.0112109 0)
(-0.000905363 0.0120372 0)
(-7.29964e-05 9.57295e-05 -2.00009e-19)
(0.000102333 -4.02803e-05 2.17376e-19)
(-0.000285576 -0.000390091 -2.09935e-19)
(-0.00109873 -2.39202e-05 -1.73766e-19)
(-0.00199326 0.000860305 -1.88695e-20)
(-0.00280114 0.00234506 -6.95137e-20)
(-0.00331203 0.00416656 7.29361e-20)
(-0.00343812 0.00610635 -4.16401e-20)
(-0.00317454 0.00793666 -6.51739e-21)
(-0.0025713 0.00949769 -2.11544e-20)
(-0.00171152 0.010679 9.20999e-21)
(-0.000684526 0.0114141 0)
(-1.76568e-05 5.24563e-05 0)
(0.000126523 -0.000143523 -1.88628e-19)
(-0.000131939 -0.000320271 2.0126e-19)
(-0.000753715 0.000150211 -4.19131e-20)
(-0.00146527 0.00107871 3.85271e-20)
(-0.00213201 0.00252118 6.78215e-20)
(-0.00257754 0.00424045 -8.56985e-20)
(-0.00271781 0.00604483 7.28061e-21)
(-0.00253408 0.0077343 0)
(-0.00205951 0.0091675 2.06281e-20)
(-0.00135985 0.0102455 -2.70466e-20)
(-0.000509687 0.0109042 0)
(-4.84628e-05 1.79621e-05 1.85623e-19)
(-5.53716e-05 -3.05644e-05 -1.81486e-19)
(-0.000272705 0.000155897 -1.74011e-19)
(-0.000731476 0.000829464 0)
(-0.00125023 0.00185692 1.49612e-19)
(-0.00172036 0.00321694 1.19203e-19)
(-0.00201539 0.00470945 -4.42301e-20)
(-0.00207641 0.00618057 6.20738e-21)
(-0.001894 0.00748569 -6.20382e-21)
(-0.00149835 0.00852903 0)
(-0.000942747 0.00924589 -3.35342e-23)
(-0.000289515 0.0095999 -3.86669e-21)
)
;

boundaryField
{
    rotor
    {
        type            movingWallVelocity;
        value           nonuniform 0();
    }
    stator
    {
        type            movingWallVelocity;
        value           nonuniform List<vector> 
96
(
(4.00901e-18 1.22463e-16 3.24503e-36)
(0 0 0)
(-1.04097e-16 -6.30504e-16 0)
(4.33775e-16 1.86036e-15 -2.45188e-16)
(-2.72438e-16 -8.98107e-16 0)
(-4.86766e-16 -1.29331e-15 2.37624e-32)
(2.89082e-33 -1.30981e-33 2.45188e-16)
(-8.15464e-16 -1.52563e-15 0)
(1.75922e-15 2.82905e-15 0)
(0 0 0)
(-1.23385e-15 -1.50345e-15 -2.45188e-16)
(1.9573e-15 2.08979e-15 -3.47124e-32)
(-1.32488e-16 -1.24089e-16 -2.45188e-16)
(-2.34417e-15 -1.92381e-15 0)
(1.8574e-15 1.331e-15 -2.45188e-16)
(0 0 0)
(0 0 0)
(1.47473e-15 6.68193e-16 0)
(0 0 0)
(-8.98107e-16 -2.72438e-16 -2.45188e-16)
(8.67549e-16 2.02284e-16 0)
(0 0 0)
(-3.8267e-16 -3.76897e-17 2.45188e-16)
(5.82574e-18 1.90715e-19 -3.17526e-33)
(-1.34114e-16 4.39044e-18 -2.45188e-16)
(0 0 0)
(-6.30504e-16 1.04097e-16 -2.45188e-16)
(9.30179e-16 -2.16887e-16 -2.45188e-16)
(8.98107e-16 -2.72438e-16 0)
(1.71812e-15 -6.46654e-16 -4.90375e-16)
(1.47473e-15 -6.68193e-16 0)
(1.52563e-15 -8.15464e-16 -2.45188e-16)
(-1.75922e-15 1.09395e-15 -2.45188e-16)
(0 0 0)
(-3.84762e-15 3.15766e-15 -4.90375e-16)
(-1.9573e-15 1.83321e-15 -2.45188e-16)
(1.9573e-15 -2.08979e-15 3.47124e-32)
(-1.23385e-15 1.50345e-15 -2.45188e-16)
(0 0 0)
(-2.14343e-16 3.44691e-16 0)
(-8.15464e-16 1.52563e-15 -1.19686e-32)
(6.91737e-17 -1.5267e-16 5.67316e-32)
(1.59887e-16 -4.2481e-16 -2.45188e-16)
(5.81346e-17 -1.91644e-16 0)
(4.33775e-16 -1.86036e-15 -2.45188e-16)
(5.35293e-17 -3.24222e-16 0)
(0 0 0)
(4.00901e-18 -1.22463e-16 -3.24503e-36)
(0 0 0)
(-9.8075e-16 9.8075e-16 0)
(-1.9615e-15 1.9615e-15 0)
(0 0 0)
(-9.8075e-16 9.8075e-16 0)
(9.8075e-16 -9.8075e-16 -2.45188e-16)
(-1.9615e-15 1.9615e-15 0)
(-1.9615e-15 1.9615e-15 0)
(0 0 0)
(0 0 -2.45188e-16)
(0 0 0)
(0 0 0)
(-1.9615e-15 1.9615e-15 0)
(-9.8075e-16 9.8075e-16 -2.45188e-16)
(-1.9615e-15 1.9615e-15 0)
(0 0 -2.45188e-16)
(-9.8075e-16 9.8075e-16 -2.45188e-16)
(0 0 -2.45188e-16)
(-1.9615e-15 1.9615e-15 -2.45188e-16)
(-1.9615e-15 1.9615e-15 0)
(-1.9615e-15 1.9615e-15 -2.45188e-16)
(0 0 -2.45188e-16)
(0 0 -2.45188e-16)
(0 0 -2.45188e-16)
(0 0 0)
(9.8075e-16 9.8075e-16 -2.45188e-16)
(-9.8075e-16 -9.8075e-16 0)
(9.8075e-16 9.8075e-16 -2.45188e-16)
(0 0 -2.45188e-16)
(0 0 -2.45188e-16)
(9.8075e-16 9.8075e-16 -2.45188e-16)
(0 0 -2.45188e-16)
(0 0 0)
(0 0 -2.45188e-16)
(0 0 -2.45188e-16)
(1.9615e-15 1.9615e-15 -2.45188e-16)
(0 0 0)
(-9.8075e-16 -9.8075e-16 0)
(-1.9615e-15 -1.9615e-15 0)
(0 0 0)
(-9.8075e-16 -9.8075e-16 0)
(9.8075e-16 9.8075e-16 -2.45188e-16)
(-1.9615e-15 -1.9615e-15 0)
(-1.9615e-15 -1.9615e-15 0)
(0 0 0)
(0 0 -2.45188e-16)
(0 0 0)
(0 0 0)
)
;
    }
    AMI1
    {
        type            cyclicAMI;
        value           nonuniform 0();
    }