/*--------------------------------*- C++ -*----------------------------------*\
| =========                 |                                                 |
| \\      /  F ield         | OpenFOAM: The Open Source CFD Toolbox           |
|  \\    /   O peration     | Version:  2.3.1                                 |
|   \\  /    A nd           | Web:      www.OpenFOAM.org                      |
|    \\/     M anipulation  |                                                 |
\*---------------------------------------------------------------------------*/
FoamFile
{
    version     2.0;
    format      ascii;
    class       volScalarField;
    location    "4840";
    object      sigmaEq;
}
// * * * * * * * * * * * * * * * * * * * * * * * * * * * * * * * * * * * * * //

dimensions      [1 -1 -2 0 0 0 0];

internalField   nonuniform List<scalar> 
11800
(
198080
137043
673911
571107
133139
397899
183313
201580
217921
232469
197440
818210
103150
607553
515418
2.22633e+06
141015
143018
260343
159979
453709
738302
962312
862585
1.82572e+06
1.13756e+06
1.20036e+06
595775
1.30526e+06
1.41095e+06
394191
128407
1.14285e+06
142682
150021
377984
152591
1.21879e+06
153417
168223
1.24403e+06
1.353e+06
625824
1.4637e+06
416008
2.08473e+06
923540
1.07756e+06
185218
279958
859316
604751
148208
242099
2.3762e+06
1.93764e+06
73840.5
558525
436229
416044
1.93786e+06
164213
443052
364289
1.79033e+06
269229
884036
626480
73451.4
1.05254e+06
151393
126476
122464
1.84129e+06
1.91928e+06
366302
1.87392e+06
255675
202318
205729
2.41486e+06
140815
132775
134836
138595
1.36051e+06
423953
1.25612e+06
1.15347e+06
622113
147486
1.36092e+06
170689
70072.8
214103
175924
22821.5
176020
150034
719887
83300.8
794256
1.29173e+06
443486
159507
378609
207972
178284
1.89564e+06
1.26838e+06
1.37356e+06
1.16473e+06
429989
630687
257358
1.71132e+06
250141
158613
1.60668e+06
238987
229643
184822
208304
157958
167936
146818
149770
149638
104495
30308.8
2.16413e+06
1.44914e+06
460688
1.3645e+06
663621
1.25771e+06
1.15337e+06
402142
1.16792e+06
574473
1.07657e+06
987433
582346
222099
281887
383701
1.41758e+06
1.45065e+06
827916
427386
233775
225703
149494
298823
274944
210645
547608
755952
1.49818e+06
156208
2.17825e+06
263152
1.90825e+06
551433
598832
646698
328137
245334
2.34136e+06
1.4687e+06
523871
723199
173305
429046
426594
2.08642e+06
2.10899e+06
1.12231e+06
1.03124e+06
1.21553e+06
549494
374916
289551
231445
520368
247700
380739
170323
196131
180520
274232
256502
243846
219269
1.07316e+06
1.36203e+06
1.91184e+06
134598
254157
2.253e+06
153913
330167
369736
153879
159343
985276
823426
758181
627596
2.16351e+06
666678
985049
2.9424e+06
2.48006e+06
2.49559e+06
386614
143544
957449
879544
809135
301411
436169
143293
144649
256133
155035
1.42423e+06
288198
157303
540090
241204
197334
153118
762141
778250
2.94061e+06
1.42333e+06
253760
265269
1.33535e+06
1.09436e+06
375082
549101
1.2132e+06
1.1231e+06
1.03181e+06
159001
1.31218e+06
461928
637644
597183
173286
136300
468468
418131
158077
2.49444e+06
326408
376686
267811
309356
811888
882654
953629
434179
303354
151269
1.90456e+06
178652
87354.6
148575
477158
174796
626259
2.21516e+06
447901
444099
674060
487199
561624
407882
1.38193e+06
1.15532e+06
370214
463778
293145
353112
635230
835201
297778
1.34696e+06
1.44462e+06
1.73622e+06
191617
442445
439725
2.01854e+06
2.03725e+06
1.22775e+06
1.20819e+06
1.25094e+06
1.23806e+06
146538
99889.7
333256
2.59899e+06
132517
139241
345940
281956
304971
1.07055e+06
1.09829e+06
1.80654e+06
2.49665e+06
782225
207513
1.02247e+06
846114
588870
481294
181677
193019
296159
527253
276244
488941
140112
188691
180370
157719
1.43289e+06
181451
139256
2.08146e+06
356364
808306
903751
880032
1.11274e+06
1.071e+06
111709
110466
725198
950481
654874
1.69492e+06
133450
946844
735389
483505
364551
359522
275593
365672
315341
419110
458737
493677
174788
150129
893537
947811
201458
254682
521748
444418
499421
225937
211162
264938
270500
1.0255e+06
498495
365855
394761
1.24634e+06
1.44493e+06
378987
221112
207677
285625
264780
501984
582398
476287
558660
439982
516106
388360
369101
741174
379191
829921
1.43262e+06
724003
529325
2.28678e+06
146396
1.50407e+06
743972
539262
2.22552e+06
158102
1.53792e+06
380127
1.28942e+06
1.19037e+06
1.15951e+06
211883
97099
132941
2.64219e+06
2.28642e+06
1.02427e+06
367082
499799
197546
266282
302197
162819
225239
1.75361e+06
70503.2
635803
488152
1.93196e+06
116360
193893
164839
161693
164300
164213
1.93222e+06
651494
259022
759830
700699
644842
130069
1.46365e+06
480801
674878
183559
958887
207206
1.86057e+06
146853
216993
549780
507813
467829
973394
259967
544913
476305
253876
763288
830360
899077
435210
310520
71539.7
189427
211338
2.40182e+06
837892
660703
475633
391285
204218
163367
119782
118916
208321
107958
125555
132118
180391
359352
160661
204283
650266
796819
374318
1.71058e+06
225379
405998
166810
200694
1.66152e+06
2.18608e+06
692357
751766
269283
239557
128857
1.45385e+06
2.12771e+06
1.87837e+06
2.71088e+06
894092
624257
816669
133445
203874
186223
208427
812535
154935
152994
135907
199687
1.45325e+06
325906
1.48674e+06
865642
188274
241915
1.18991e+06
1.52681e+06
807355
877728
945741
428724
299481
735165
152600
154326
150496
173313
136869
205189
104666
199169
104367
197096
91475
191644
175734
182484
124150
1.66255e+06
252800
277925
618971
980099
133999
163731
142481
139927
124029
323526
472247
136579
135949
640517
130824
195302
1.80686e+06
87229.9
176866
574274
528943
553280
599332
614704
647419
303965
225783
2.09954e+06
2.58363e+06
545270
91638.9
386826
366787
415368
293658
885133
818813
753205
186592
91002.4
858978
799789
355778
396118
196376
686290
744518
254185
1.21106e+06
1.22831e+06
1.24252e+06
1.22997e+06
2.07061e+06
2.02609e+06
640851
2.46574e+06
902581
148350
1.71803e+06
1.53101e+06
1.66455e+06
851516
344027
371746
201027
1.76612e+06
586763
739626
2.61061e+06
231287
288693
573233
561882
1.4685e+06
766618
2.18707e+06
146293
144166
298551
430292
953751
877295
807011
1.98879e+06
163782
438926
941721
1.41446e+06
143236
2.33409e+06
2.18279e+06
2.26768e+06
263598
357187
135605
2.31868e+06
672708
268485
460251
2.18424e+06
158716
271033
287251
152785
529923
329082
2.64301e+06
2.32909e+06
222441
659016
842951
324132
384372
284284
249088
699043
205565
661230
487331
1.24795e+06
1.08696e+06
185966
1.4191e+06
150691
449767
554480
1.88585e+06
360457
488163
271950
221252
206376
242065
462259
1.08133e+06
1.19094e+06
154277
147543
149986
198447
384114
1.43864e+06
123779
499379
904790
705469
249952
1.20033e+06
1.32806e+06
862989
1.4439e+06
1.56308e+06
648703
423668
175216
211810
401602
427620
373813
413873
210038
382626
445451
259416
152238
2.69682e+06
1.16193e+06
437371
593416
541167
262356
471506
691234
1.48343e+06
1.36863e+06
1.25563e+06
384676
454976
216292
236346
1.68479e+06
1.23178e+06
1.43649e+06
164433
220398
317534
756604
1.66524e+06
534194
104766
165529
2.44073e+06
2.2933e+06
276366
2.09969e+06
120603
176623
128282
805099
139761
244269
270614
1.5055e+06
1.63704e+06
1.77078e+06
1.90788e+06
867747
736893
611935
481251
211279
145406
473163
2.33547e+06
153865
149721
168484
158809
168032
174739
180146
1.8074e+06
911594
937846
552392
1.0221e+06
1.10905e+06
388712
1.29365e+06
309476
254358
161674
2.41409e+06
152679
185813
179242
187587
152828
2.1959e+06
311557
307362
1.17681e+06
391072
822610
292068
2.23496e+06
988893
495877
367997
1.51505e+06
548883
207417
172903
154792
147326
261081
286720
275167
200552
539952
166981
148903
972468
1.08556e+06
127303
687570
991051
839422
1.14079e+06
2.12483e+06
1.96804e+06
1.81186e+06
1.65457e+06
687712
839191
2.12635e+06
1.96959e+06
990998
1.81335e+06
1.14103e+06
1.65671e+06
1.89444e+06
169894
145688
158992
276172
599272
1.30774e+06
151100
500015
686018
540739
745692
216398
281041
498236
730290
1.55643e+06
1.43577e+06
1.31679e+06
625038
462418
1.16599e+06
234780
298917
184677
384772
358004
325958
671202
523585
538268
399323
142360
798341
218475
411137
504516
1.24804e+06
680119
795508
639409
233182
304043
208356
183043
172141
199930
707719
596617
156225
241615
266419
549955
1.63166e+06
535365
753191
561227
174346
253347
238272
220104
300006
213760
724215
668137
610328
236202
1.73945e+06
827392
238740
1.07088e+06
723210
1.56186e+06
2.11035e+06
261073
291382
245954
163001
176182
878209
747709
2.20039e+06
145196
205714
408240
606636
261373
152124
886861
877828
64079.3
150872
423859
345095
96216.2
1.93125e+06
2.11086e+06
351436
131205
314689
446959
955535
810489
881632
2.408e+06
147156
694468
782497
183929
714076
872509
1.03162e+06
1.18744e+06
2.22493e+06
2.06191e+06
1.89866e+06
1.73479e+06
713665
872082
2.22536e+06
2.06163e+06
1.03036e+06
1.8985e+06
1.18702e+06
1.73506e+06
2.05908e+06
1.77107e+06
1.33512e+06
570405
650655
1.77189e+06
1.31515e+06
391753
129959
124518
1.31448e+06
2.34262e+06
176537
488715
1.92361e+06
1.31507e+06
2.1107e+06
2.15518e+06
1.40566e+06
1.40823e+06
644534
510682
667663
275226
206441
353498
176047
215480
264419
221305
487631
2.2692e+06
666538
223057
133781
426530
457423
2.06491e+06
431933
390658
496805
527308
1.34344e+06
639339
460661
1.71742e+06
492156
640951
229637
187343
441890
382748
412461
1.02088e+06
666378
647303
1.56633e+06
1.49797e+06
639686
676099
1.17871e+06
1.26595e+06
475080
499005
150630
209883
219756
650049
506236
86716.9
184138
211847
753789
716547
389726
760044
587492
231378
141234
141095
591505
1.42929e+06
138940
2.10992e+06
305833
861903
792612
243228
304754
512350
164809
139425
1.8084e+06
459043
1.18016e+06
1.09065e+06
1.00246e+06
365882
534204
186061
1.63165e+06
2.16505e+06
196098
160674
1.19092e+06
436836
597397
1.03201e+06
1.12251e+06
1.2273e+06
368982
537869
68344.4
865424
453437
2.15881e+06
357968
1.24191e+06
1.03533e+06
1.16204e+06
153172
158388
162676
171083
174135
151760
1.78976e+06
558302
207561
241065
267648
300948
377101
417998
856241
828220
791658
763512
703048
727707
1.23556e+06
186696
153142
147790
205005
231168
164134
187668
1.47234e+06
304834
553335
474123
1.21945e+06
643507
225234
234818
529190
409567
731229
597729
1.46513e+06
1.28698e+06
1.18835e+06
1.09087e+06
606031
1.68717e+06
837986
1.67249e+06
296634
246528
319684
309677
215480
194297
213796
1.70341e+06
2.20284e+06
397283
127443
295024
666048
517706
144135
169907
284992
270436
283806
262441
348907
327866
245487
564038
625819
609256
675829
518114
575579
629921
143162
1.39322e+06
1.10678e+06
584053
1.39027e+06
1.30571e+06
763553
2.2035e+06
418751
398047
450806
482207
222642
181324
194705
418452
160641
1.85263e+06
238017
154513
929960
65725.3
127829
1.83265e+06
210092
478591
1.52395e+06
703610
1.40663e+06
1.29079e+06
1.65237e+06
1.09755e+06
180150
706710
565096
232407
1.57288e+06
722376
231992
1.32144e+06
1.2054e+06
1.43631e+06
148618
151482
181958
2.66332e+06
319274
503010
615062
277215
155132
154550
481784
520482
201571
1.83329e+06
490039
1.86883e+06
284960
916569
152870
744214
889771
1.17498e+06
472983
637818
763743
306543
2.62445e+06
186106
130758
159194
2.23722e+06
1.46474e+06
370742
547034
1.23721e+06
1.147e+06
1.05433e+06
2.30291e+06
709295
574130
2.29408e+06
2.59271e+06
1.79105e+06
87209.8
615421
1.52899e+06
1.15136e+06
628481
467068
1.16144e+06
1.0361e+06
476353
1.56725e+06
378466
307552
590417
520914
394946
1.80653e+06
2.74863e+06
138167
150967
178422
2.62132e+06
179761
210946
817904
629813
2.31902e+06
2.42924e+06
148334
691007
237887
226803
572044
245905
148059
617498
141639
159787
2.76475e+06
1.21072e+06
673657
502124
452139
322666
919882
849721
780400
233282
2.45839e+06
482595
437527
502306
2.05814e+06
841810
1.23955e+06
169732
264991
200353
922538
571576
761498
137898
325355
444186
937498
331200
208212
177506
352118
2.29282e+06
334728
452918
929586
1.48069e+06
2.09263e+06
1.41998e+06
970893
771571
913095
92794.6
265659
371759
795290
734721
676869
2.09285e+06
164356
214824
230331
229847
230739
223129
333493
150546
152872
753546
1.90039e+06
542439
1.19915e+06
1.10761e+06
1.0181e+06
371722
2.14619e+06
692245
789632
945738
815519
1.31823e+06
2.10104e+06
630037
163486
806972
128396
996406
598699
1.08635e+06
1.17922e+06
423599
1.36706e+06
337117
2.83441e+06
973051
154575
1.96067e+06
2.84282e+06
2.44747e+06
579558
147466
1.10038e+06
185917
175517
125810
305838
165550
171128
146425
155176
1.77956e+06
1.8681e+06
154031
1.21985e+06
196202
186815
151093
256194
1.29081e+06
1.2962e+06
293249
1.31383e+06
1.31619e+06
1.67841e+06
551697
206193
260241
355519
712303
772526
260578
69017.1
177274
834779
401574
983463
1.10702e+06
1.20868e+06
1.31259e+06
675558
475740
347672
194095
167012
2.12321e+06
1.17386e+06
139693
243621
1.05156e+06
816683
445356
482199
217703
195757
361059
319924
125237
246811
167273
1.78301e+06
701913
1.70346e+06
159323
145278
2.84328e+06
145635
2.20746e+06
2.18081e+06
155585
1.01951e+06
515588
1.74578e+06
169487
968003
1.09547e+06
2.3843e+06
267931
167341
140096
540551
256107
351091
711968
652766
600784
174631
136729
200535
190895
1.26066e+06
1.38871e+06
947589
1.61878e+06
1.48861e+06
1.71747e+06
2.43805e+06
306451
777770
2.322e+06
678965
2.1754e+06
1.04698e+06
1.13892e+06
1.2334e+06
546528
370069
457218
534390
2.00995e+06
180442
213656
317285
300643
280744
202125
418812
387081
362127
884743
923553
2.69018e+06
298482
136510
188215
2.12153e+06
607600
330821
319573
2.06978e+06
1.09062e+06
752749
117225
221666
140580
1.07562e+06
1.37105e+06
344351
1.53905e+06
209400
203016
2.7669e+06
1.81185e+06
2.21718e+06
434975
578882
1.01018e+06
313090
798950
2.31451e+06
2.43769e+06
205923
236899
399600
325348
1.16256e+06
1.29889e+06
889926
1.00247e+06
2.57416e+06
2.36566e+06
304059
200486
116401
1.69284e+06
136335
2.2339e+06
440596
338477
1.20091e+06
384650
155992
2.06871e+06
234669
308347
114899
137781
1.53786e+06
536058
158333
839886
400311
219894
162177
140547
782085
142564
2.11766e+06
1.89791e+06
349944
953086
539801
157382
175550
1.63169e+06
197183
1.1013e+06
282910
608948
1.28583e+06
1.46694e+06
2.0237e+06
217629
343837
2.20101e+06
276309
172184
162507
189182
142487
2.25072e+06
1.76326e+06
408180
563343
971588
976972
1.27168e+06
449105
618029
444349
646305
1.37815e+06
1.27228e+06
1.16761e+06
1.81997e+06
860867
613941
1.74395e+06
617579
1.89729e+06
712310
796160
2.09927e+06
2.83727e+06
2.43463e+06
482169
459294
1.31614e+06
630389
456312
149300
392970
2.01381e+06
168301
197704
2.57788e+06
1.92716e+06
2.21256e+06
1.03593e+06
1.28489e+06
1.29507e+06
1.1185e+06
137682
130003
194689
132601
798456
868096
942108
440981
308633
675984
2.24403e+06
168843
224830
189229
175988
1.17096e+06
1.0582e+06
209327
1.99847e+06
2.2572e+06
1.35123e+06
1.10437e+06
1.81815e+06
2.09454e+06
130394
1.00324e+06
636640
1.39907e+06
185603
299295
320206
1.79738e+06
1.79033e+06
822446
417067
124605
150676
261973
550643
1.87645e+06
249816
1.44455e+06
171547
420727
283527
379005
648533
333196
508792
49475.1
14289.8
508429
2.65727e+06
232568
190229
190203
147731
135305
203050
209238
150876
151049
599909
149633
163529
203180
1.1271e+06
1.38927e+06
1.00078e+06
1.85743e+06
2.36747e+06
162086
226663
436812
188455
1.70187e+06
235435
2.48494e+06
267802
349479
674825
501835
264061
274195
636330
142503
168281
215271
135765
207663
133622
2.21443e+06
118929
175977
323147
133444
100820
2.10798e+06
236568
1.82557e+06
1.94636e+06
704774
452183
370308
539903
1.21266e+06
1.1317e+06
1.04036e+06
145301
1.33435e+06
688415
141122
2.25424e+06
150173
157899
422780
1.24002e+06
1.00359e+06
1.1126e+06
1.51917e+06
218225
164004
473972
703003
1.53399e+06
817495
1.65552e+06
587687
1.4159e+06
1.2995e+06
467931
1.64094e+06
582054
1.51457e+06
691520
1.39837e+06
1.28337e+06
807319
1.6384e+06
206614
689276
538810
169011
214877
1.84218e+06
1.16298e+06
1.57476e+06
1.46522e+06
1.27839e+06
1.58189e+06
1.1684e+06
443844
486347
719212
1.73497e+06
163564
2.54079e+06
202341
163845
1.9154e+06
228585
363129
709966
701635
2.09454e+06
122592
1.33638e+06
1.23503e+06
1.13408e+06
411803
606676
2.57241e+06
435545
332430
770271
197696
806669
372868
387699
137281
225190
233925
203986
616988
133892
756679
405278
307504
1.03657e+06
1.38126e+06
1.38656e+06
1.03618e+06
504649
2.4327e+06
148613
149851
2.17173e+06
1.95911e+06
1.1917e+06
2.83097e+06
1.28719e+06
1.11074e+06
1.13646e+06
2.51485e+06
1.27223e+06
1.01923e+06
2.23484e+06
479120
507167
759937
1.97104e+06
119830
1.67312e+06
200386
292654
461927
775548
844455
915236
449857
319898
507203
83019.5
89165.1
164316
176257
241847
200848
159113
214608
1.26091e+06
2.2897e+06
275931
201912
2.10834e+06
1.54552e+06
610828
829982
164900
172657
1.8376e+06
1.2134e+06
256651
971368
911238
1.21253e+06
145556
164689
168118
145151
1.44261e+06
2.32567e+06
2.2678e+06
1.54187e+06
2.45397e+06
313044
134555
407416
1.24195e+06
1.1405e+06
1.34518e+06
612594
415006
2.60406e+06
574776
726703
950397
307319
259754
1.08365e+06
382094
197611
824234
315180
410096
2.40662e+06
418139
369536
1.29748e+06
1.19901e+06
1.10276e+06
554495
1.64537e+06
1.55075e+06
2.03648e+06
634803
655540
845636
1.7392e+06
832405
596144
1.54636e+06
298733
2.84233e+06
186856
2.16854e+06
581296
664098
157480
707695
1.35982e+06
161520
189818
186547
2.50796e+06
746749
685683
807232
399870
287857
361729
727929
1.63833e+06
735123
1.43111e+06
1.68472e+06
1.55791e+06
489232
1.58528e+06
1.20663e+06
1.27689e+06
1.51185e+06
1.58894e+06
1.20797e+06
1.28768e+06
1.52043e+06
877105
728471
55817.4
348454
213066
501594
741629
615849
860195
1.72475e+06
1.60019e+06
1.4767e+06
1.35498e+06
497078
1.3758e+06
684782
184557
127466
132746
229438
121881
589971
1.40428e+06
1.43346e+06
507808
2.3563e+06
189896
171584
1.83233e+06
2.27084e+06
106925
1.4554e+06
575166
780409
1.09071e+06
596153
388820
168688
577066
812146
72856
153243
2.38365e+06
315969
235477
578770
533272
626547
400062
150142
156843
406611
1.42733e+06
2.20462e+06
2.55235e+06
396511
440977
1.85328e+06
1.67064e+06
2.17156e+06
127430
1.20279e+06
2.11635e+06
2.56839e+06
2.64835e+06
2.59479e+06
684399
1.18695e+06
511896
2.45268e+06
1.86265e+06
763793
1.59866e+06
175517
154160
1.90337e+06
1.90507e+06
155746
511540
2.35559e+06
1.9833e+06
1.88769e+06
1.95377e+06
2.65941e+06
1.80717e+06
2.36047e+06
2.03456e+06
175900
322108
1.50355e+06
703930
1.22864e+06
258226
169824
214736
198053
178195
239410
213496
513204
2.36816e+06
1.43955e+06
508051
703470
1.53862e+06
198346
712956
495333
2.71868e+06
383992
373196
680860
392237
632496
281030
217246
2.21326e+06
18180.8
177437
177269
36515.1
557576
588252
210796
231234
245725
169668
621590
618868
148037
2.37174e+06
2.02154e+06
736513
1.53665e+06
528609
141050
1.79271e+06
396361
2.35454e+06
657419
804026
952434
1.09842e+06
2.07556e+06
1.92484e+06
1.77283e+06
1.62258e+06
656435
802940
2.07361e+06
1.92222e+06
950252
1.77052e+06
1.09645e+06
1.62015e+06
363547
277153
672454
734548
649717
306369
248977
211193
168390
156858
181053
150593
159685
271067
1.10299e+06
1.18394e+06
1.07244e+06
600242
1.16787e+06
1.28696e+06
1.97857e+06
842302
679465
2.09195e+06
698148
239585
149303
205180
166123
330634
305015
309187
159276
442813
350143
459615
945599
158512
243829
1.106e+06
174093
124412
156481
134951
1.66888e+06
192790
223864
791006
630993
301526
788166
246130
148712
135324
2.47967e+06
2.56334e+06
1.57193e+06
1.28833e+06
1.25705e+06
1.59944e+06
2.5187e+06
1.30592e+06
145048
842990
471757
359523
519399
247139
2.37474e+06
261039
1.41548e+06
1.30972e+06
1.20311e+06
633572
428345
740323
434661
330151
2.39896e+06
276795
145276
786706
786155
361049
223753
274808
465968
950831
1.80558e+06
763449
610592
1.10778e+06
1.47335e+06
403689
590757
1.27769e+06
1.17895e+06
1.08232e+06
610777
657205
1.05617e+06
878897
1.23434e+06
654445
1.35516e+06
1.47283e+06
425867
1.5939e+06
2.83554e+06
1.9958e+06
127830
973409
1.06145e+06
1.15275e+06
350885
235702
1.72366e+06
300154
394571
485936
535704
228762
291560
232785
183586
1.66162e+06
1.2788e+06
1.34093e+06
1.60625e+06
366778
1.99593e+06
2.47433e+06
914582
159648
955409
1.04106e+06
1.13094e+06
1.05559e+06
1.22048e+06
343135
1.95609e+06
856145
801482
735531
867897
312301
436268
250139
231249
544972
640590
591216
679803
740807
802577
491898
488332
704283
707250
1.42973e+06
1.42291e+06
1.20803e+06
1.31762e+06
1.2017e+06
1.31109e+06
712121
773588
273438
168550
193415
232805
1.40699e+06
915138
154141
1.45562e+06
1.20827e+06
1.15915e+06
1.4996e+06
234269
519627
1.86832e+06
791271
1.72676e+06
1.58722e+06
124559
309204
1.28414e+06
766133
540221
1.70636e+06
592939
78465.2
1.31344e+06
1.20665e+06
1.42293e+06
638226
430458
1.73864e+06
679745
549636
2.32052e+06
682192
966726
229775
163090
390227
365080
334719
1.97977e+06
493757
325917
562999
518818
606981
305572
230853
1.30521e+06
1.46225e+06
233403
841494
176068
1.12055e+06
2.2493e+06
1.40777e+06
701137
523469
1.24658e+06
639730
568942
469943
306876
189029
469875
231273
576798
230485
387793
161007
183359
2.34989e+06
479692
2.02376e+06
1.16981e+06
1.25632e+06
679366
505944
1.20254e+06
2.14149e+06
136069
165210
167722
159775
424049
41077.7
13582.1
423742
895573
163508
953018
425290
288018
196800
637416
891557
1.85545e+06
145280
112674
194459
228688
493110
318946
1.26139e+06
1.12608e+06
267879
173419
135619
2.38686e+06
895287
147789
345770
169336
2.71875e+06
2.23064e+06
344460
261063
986982
473997
675026
1.32732e+06
1.12017e+06
1.22247e+06
2.58106e+06
2.05651e+06
164319
1.91934e+06
2.57627e+06
2.0234e+06
2.25426e+06
966644
195271
1.29287e+06
321998
197544
245207
481120
528135
385261
385436
870805
283526
190310
141476
1.26337e+06
1.56419e+06
1.70041e+06
1.83886e+06
1.96376e+06
885395
753852
621443
487654
307626
136289
601382
27819.9
293745
293518
15094.2
654050
327681
257782
97143.1
413062
467197
151391
413315
1.23752e+06
993633
684931
483296
551889
2.37181e+06
1.80913e+06
243018
777414
151470
164145
673618
793367
810069
1.60184e+06
474366
516352
158039
2.14322e+06
170104
377508
438783
409335
1.57255e+06
1.70923e+06
889154
934263
933623
673764
863020
1.60327e+06
1.5267e+06
1.52798e+06
530371
736632
130409
141347
134453
327600
152510
702504
1.49772e+06
1.32909e+06
1.62839e+06
1.18995e+06
1.6384e+06
1.18869e+06
807287
528300
1.43607e+06
1.05177e+06
1.43644e+06
1.05538e+06
341895
1.5713e+06
1.33009e+06
1.16604e+06
1.51863e+06
1.34399e+06
1.65725e+06
1.20557e+06
1.65558e+06
1.20499e+06
1.48654e+06
2.72518e+06
604839
849511
1.7884e+06
652185
160572
168235
272982
27039.6
272761
23891.8
154044
510167
1.58637e+06
1.45692e+06
1.71771e+06
763910
528526
2.42436e+06
78576.4
146486
299286
1.03503e+06
349223
962247
474813
2.45882e+06
2.48049e+06
1.47707e+06
176910
318400
1.68888e+06
905726
725712
483215
896949
823597
971037
337736
475463
2.51711e+06
591736
2.24398e+06
157404
152744
144649
155351
102597
2.21804e+06
179379
1.63934e+06
99663.4
1.20011e+06
1.51062e+06
181822
154308
230526
686146
240920
582894
536840
393103
425402
459347
192623
426415
575327
713109
477876
1.61117e+06
1.49006e+06
1.36855e+06
1.66153e+06
2.2187e+06
2.44698e+06
142786
139089
139388
153818
327829
192021
356343
2.46186e+06
2.5092e+06
2.5338e+06
1.91804e+06
75870
1.31513e+06
2.30465e+06
1.5932e+06
1.25871e+06
1.28331e+06
1.57177e+06
762739
669151
1.37049e+06
910539
1.6049e+06
114488
289444
374312
718631
296618
292951
332810
222773
255817
187534
217779
505806
507290
549806
549227
594048
592416
695217
683759
159749
156457
660256
422659
120608
246343
946990
1.60649e+06
160217
974494
2.10461e+06
654557
2.00541e+06
925007
251969
1.84951e+06
997485
838616
1.3295e+06
2.24483e+06
2.65402e+06
1.03992e+06
451177
2.23148e+06
322443
234276
199679
491117
105866
937341
1.64641e+06
431661
648985
261469
150743
280783
2.40244e+06
436875
511612
494138
362502
1.03447e+06
325364
256466
1.01968e+06
225758
2.19852e+06
169611
1.30175e+06
486194
528568
2.04298e+06
1.74936e+06
1.06082e+06
1.90529e+06
2.06289e+06
908641
2.22132e+06
756999
604279
1.7513e+06
1.90712e+06
2.22604e+06
2.06526e+06
606307
911329
1.0643e+06
759267
2.2184e+06
219451
1.74161e+06
189103
125275
164719
10005.3
76166.7
957686
102270
1.67439e+06
350146
258755
659488
711920
607441
497720
330759
1.47316e+06
329351
354742
1.32412e+06
107014
522280
484754
481015
1.52416e+06
1.4002e+06
1.64981e+06
725504
604824
257506
442924
876992
1.67344e+06
78202.5
432014
254165
162021
552355
1.76192e+06
1.00431e+06
859142
1.86195e+06
205898
1.02605e+06
2.18092e+06
1.10664e+06
2.0474e+06
180439
2.31162e+06
273272
1.54168e+06
556806
687160
156338
17593.5
176266
176059
30060.2
294890
1.56294e+06
224333
1.93798e+06
873020
319178
1.51149e+06
1.45137e+06
1.64851e+06
1.58324e+06
1.7871e+06
1.71677e+06
835504
807897
568278
550421
632143
425319
1.42341e+06
1.31735e+06
1.21001e+06
380020
442725
409863
200493
1.34263e+06
1.17434e+06
100641
226436
167503
189715
201385
2.22585e+06
1.87376e+06
493763
1.62454e+06
1.49353e+06
1.75591e+06
135804
816056
1.50994e+06
1.58034e+06
154365
144356
1.79927e+06
567491
191776
335361
389919
362214
206984
625253
578568
535557
2.10087e+06
2.7202e+06
2.0121e+06
1.44051e+06
708018
510099
213482
232719
352343
252407
154544
136098
265666
771512
617053
155311
1.64135e+06
1.90674e+06
804903
693239
200222
191265
168895
181547
532925
1.79834e+06
1.4251e+06
1.10098e+06
1.13318e+06
1.35137e+06
148127
169768
252197
150564
155165
350829
2.80993e+06
2.23203e+06
172174
213285
967608
834531
578652
1.7955e+06
1.93264e+06
1.51913e+06
1.65634e+06
964449
507016
435642
471424
215659
273441
2.06327e+06
558613
1.31921e+06
94001.9
1.90719e+06
173746
763814
887887
2.80884e+06
151731
788240
182752
737787
195995
464386
1.40875e+06
650320
1.63101e+06
1.06093e+06
1.78015e+06
1.93071e+06
916364
2.08238e+06
770330
625464
770719
625996
297231
915667
1.03409e+06
1.35398e+06
160140
260671
1.64714e+06
710933
2.58295e+06
2.09389e+06
2.34712e+06
421375
1.84584e+06
860338
674154
330592
251768
2.53248e+06
1.30548e+06
152364
2.74071e+06
2.32428e+06
79327.5
813014
663983
101037
1.05067e+06
856093
120858
217041
1.76012e+06
2.63387e+06
156103
941851
966317
1.92321e+06
1.86295e+06
682567
699478
682658
698419
163379
164049
163278
153506
125058
2.7012e+06
2.11559e+06
1.90058e+06
2.39868e+06
910459
489638
1.97492e+06
1.11377e+06
1.21555e+06
1.32002e+06
82729.4
2.00954e+06
352801
1.51024e+06
2.1467e+06
639304
451339
2.73927e+06
743617
780666
545379
574985
1.46321e+06
1.41362e+06
240158
235216
130449
154140
475979
1.73189e+06
1.60056e+06
1.47157e+06
726935
2.69932e+06
160525
330002
145416
1.4542e+06
1.58561e+06
930187
1.71836e+06
794495
1.86809e+06
671405
1.77556e+06
1.50233e+06
1.63804e+06
1.91209e+06
537930
955535
823717
671894
150784
214437
229832
300727
565835
480224
520896
2.24335e+06
1.05273e+06
1.28431e+06
2.06244e+06
240191
372910
154472
584061
818409
280813
393247
2.07937e+06
222709
147774
149474
152541
148545
93511.2
238070
185742
200572
1.80128e+06
2.1249e+06
183667
159784
205315
355070
777432
2.28961e+06
2.13461e+06
943495
156684
233153
1.83128e+06
160395
160785
2.77917e+06
1.08244e+06
2.10578e+06
599135
1.42975e+06
912644
887317
243029
990700
1.51852e+06
736127
528786
206042
472053
156612
123889
141196
2.2533e+06
1.35088e+06
1.37824e+06
2.24355e+06
349758
375060
192730
710455
171347
153320
163135
451353
350774
35736.9
350537
24465.4
151812
1.39802e+06
424917
617599
1.30631e+06
1.20555e+06
1.10615e+06
219409
2.56901e+06
840292
492961
2.21975e+06
1.33425e+06
1.38573e+06
225292
22144.2
225080
23287.8
1.95697e+06
475453
824539
974431
899325
179249
2.08314e+06
496805
354917
1.14384e+06
879181
147021
47648.2
1.53536e+06
320288
1.53013e+06
394682
526172
965076
1.08258e+06
909526
194017
789217
324018
419573
197999
212602
748669
780788
258994
475653
162379
163594
1.25551e+06
631353
462271
171390
660157
17098.8
64006.7
659698
839459
678194
1.00532e+06
1.19323e+06
134227
2.55278e+06
2.65544e+06
337014
155728
174181
277881
305073
31562.2
304874
27195.1
1.35301e+06
464247
645336
2.47435e+06
2.51182e+06
2.14532e+06
1.93356e+06
1.17216e+06
1.039e+06
994619
882110
2.09441e+06
304448
603561
214762
137744
153352
436983
614134
880097
2.44601e+06
2.46743e+06
310291
161431
814397
884542
295373
1.34266e+06
553024
451746
1.94116e+06
190640
173025
234957
1.32051e+06
1.32973e+06
1.40342e+06
890259
444592
622649
100213
103056
1.51007e+06
155411
1.34444e+06
173557
664979
1.0815e+06
947802
1.56854e+06
1.83485e+06
157919
212064
499515
2.18053e+06
10415.5
128832
38217.1
129510
351104
321880
100564
2.34153e+06
41729.3
2.21688e+06
577144
55946.7
18037.7
576743
382666
187555
21603.6
187509
486939
2.11588e+06
490659
2.30697e+06
2.66454e+06
76928.8
774642
914489
844341
1.0898e+06
524994
381437
1.16705e+06
728241
127157
286716
459379
327418
820620
1.08291e+06
300914
302206
2.55993e+06
935137
1.08574e+06
1.01046e+06
1.16659e+06
1.62089e+06
142590
161774
1.35644e+06
1.64649e+06
547998
316715
365019
185144
371947
554584
162830
290517
422943
160798
112701
1.48315e+06
1.73141e+06
338138
753290
587039
599066
1.84985e+06
847577
365943
280191
711132
581689
143380
429039
1.64693e+06
2.11534e+06
571987
397073
1.00937e+06
1.19186e+06
1.09992e+06
94584.5
155401
414013
292179
1.56878e+06
569150
122215
60081
95056
557210
389068
976880
1.15337e+06
1.06456e+06
158664
2.27904e+06
2.60497e+06
174904
179356
170675
166530
2.28584e+06
459740
337643
977359
2.82284e+06
2.26521e+06
652103
223220
599379
553627
336414
314579
357807
197552
170639
171923
490218
2.21644e+06
124819
1.2491e+06
1.35294e+06
2.11974e+06
1.53034e+06
1.49358e+06
573306
565347
773709
785891
352870
402173
344810
154715
150256
910954
293169
2.06514e+06
1.43556e+06
365359
149602
877060
2.63491e+06
147765
1.43049e+06
1.19022e+06
1.13234e+06
1.47744e+06
1.00379e+06
433492
606703
1.33559e+06
230698
974561
423097
474147
240515
482939
300031
391058
1.0725e+06
533253
222716
192726
259003
1.38437e+06
1.1366e+06
242707
231721
216501
249839
155551
728759
561099
136571
530919
158531
302608
491632
2.41133e+06
2.12294e+06
1.44019e+06
425654
299066
951922
883253
812974
381669
379939
183687
1.30457e+06
175873
749855
974124
280445
237030
2.14819e+06
120492
432802
403730
190874
2.27093e+06
117894
150748
649111
764826
226814
215403
238160
170954
160365
1.44023e+06
124465
177315
22053.9
177214
1.4393e+06
1.37566e+06
2.60539e+06
1.5443e+06
1.95206e+06
157188
2.01414e+06
1.38373e+06
19949.4
144800
344883
258636
589033
639668
689439
899826
508240
2.11523e+06
1.25113e+06
1.35583e+06
213048
139436
136145
157789
170164
180598
285282
1.20602e+06
144839
2.62026e+06
640026
260859
1.36227e+06
898495
455102
635631
290052