/*--------------------------------*- C++ -*----------------------------------*\
| =========                 |                                                 |
| \\      /  F ield         | OpenFOAM: The Open Source CFD Toolbox           |
|  \\    /   O peration     | Version:  2.3.1                                 |
|   \\  /    A nd           | Web:      www.OpenFOAM.org                      |
|    \\/     M anipulation  |                                                 |
\*---------------------------------------------------------------------------*/
FoamFile
{
    version     2.0;
    format      ascii;
    class       volScalarField;
    location    "0.53";
    object      epsilon;
}
// * * * * * * * * * * * * * * * * * * * * * * * * * * * * * * * * * * * * * //

dimensions      [0 2 -3 0 0 0 0];

internalField   nonuniform List<scalar> 
9648
(
2387.92
2387.94
2385.64
2379.26
2368.44
2352.51
2331.58
2305.51
2274.21
2237.79
2196.5
2150.5
2100.68
2048.03
1993.37
1937.67
1882.01
1827.4
1774.52
1723.88
1675.97
1631.08
1589.35
1550.92
1515.82
1483.92
1455.13
1429.32
1406.39
1386.15
1368.46
1353.19
1340.22
1329.36
1320.55
1313.64
1308.52
1305.1
1303.35
1303.2
1304.52
1307.32
1311.55
1317.13
1324.13
1332.57
1342.42
1353.64
1366.32
1380.6
1396.47
1413.91
1433.14
1454.15
1476.93
1501.31
1527.15
1554.09
1581.4
1608.46
1634.83
587.207
578.741
569.302
559.137
550.268
544.938
542.923
543.206
545.354
549.501
555.381
562.322
569.903
577.75
585.53
592.876
599.62
605.741
611.238
616.058
620.299
624.021
627.277
630.18
632.857
635.364
637.75
640.087
642.461
644.916
647.474
650.196
653.11
656.219
659.552
663.137
666.966
671.038
675.368
679.986
684.882
690.042
695.477
701.198
707.185
713.471
720.052
726.896
733.986
741.323
748.858
756.566
764.398
772.389
780.4
788.414
796.275
804.095
811.727
819.091
826.138
232.818
234.599
237.934
243.57
251.518
261.374
273.251
286.743
301.726
317.81
334.771
352.157
369.629
386.854
403.547
419.477
434.478
448.467
461.394
473.248
484.054
493.845
502.691
510.671
517.877
524.39
530.292
535.677
540.609
545.164
549.4
553.366
557.112
560.677
564.103
567.419
570.654
573.825
576.949
580.043
583.124
586.207
589.292
592.39
595.504
598.625
601.754
604.871
607.971
611.034
614.055
617.03
619.92
622.781
625.495
628.163
630.687
633.206
635.554
637.774
639.857
132.041
140.607
150.627
162.36
175.832
190.953
207.653
225.702
244.835
264.687
284.925
305.166
325.092
344.404
362.861
380.263
396.483
411.449
425.128
437.532
448.685
458.63
467.442
475.201
482.008
487.964
493.167
497.708
501.673
505.136
508.161
510.816
513.152
515.225
517.08
518.758
520.294
521.707
523.024
524.263
525.443
526.583
527.697
528.793
529.877
530.95
532.013
533.062
534.098
535.113
536.09
537.054
537.979
538.879
539.701
540.509
541.297
542.058
542.769
543.44
544.108
98.2771
109.93
123.139
137.983
154.46
172.496
191.925
212.486
233.856
255.637
277.457
298.936
319.765
339.671
358.448
375.915
391.979
406.594
419.753
431.495
441.857
450.891
458.683
465.323
470.937
475.638
479.533
482.733
485.302
487.331
488.895
490.052
490.884
491.439
491.764
491.909
491.908
491.78
491.555
491.251
490.888
490.49
490.074
489.653
489.231
488.814
488.407
488.008
487.611
487.224
486.828
486.426
486.028
485.625
485.212
484.793
484.393
483.99
483.568
483.139
482.71
85.5548
99.2828
114.713
131.833
150.55
170.743
192.17
214.513
237.395
260.377
283.072
305.083
326.135
345.969
364.444
381.365
396.671
410.367
422.454
433.025
442.131
449.807
456.188
461.346
465.449
468.633
471.008
472.681
473.724
474.217
474.249
473.895
473.233
472.334
471.217
469.94
468.557
467.063
465.499
463.884
462.228
460.567
458.918
457.298
455.703
454.139
452.613
451.137
449.699
448.287
446.9
445.527
444.173
442.837
441.509
440.223
438.97
437.727
436.481
435.241
433.994
81.4835
96.9836
114.315
133.374
153.947
175.876
198.841
222.479
246.396
270.062
293.142
315.172
335.964
355.253
373.036
389.018
403.188
415.631
426.318
435.431
443.039
449.126
453.917
457.421
459.888
461.466
462.23
462.377
461.861
460.818
459.384
457.556
455.507
453.256
450.793
448.22
445.604
442.886
440.154
437.409
434.643
431.914
429.237
426.634
424.071
421.574
419.148
416.791
414.509
412.281
410.097
407.945
405.844
403.745
401.677
399.662
397.7
395.792
393.882
391.952
390.048
81.4664
98.5883
117.651
138.434
160.574
183.875
208.007
232.575
257.158
281.112
304.207
325.818
345.959
364.288
381.131
395.904
408.68
419.692
428.719
436.167
442.148
446.46
449.621
451.342
452.086
452
451.127
449.739
447.672
445.125
442.284
439.069
435.703
432.19
428.475
424.69
420.91
417.019
413.21
409.436
405.641
401.917
398.326
394.841
391.408
388.1
384.86
381.742
378.708
375.765
372.886
370.061
367.288
364.506
361.775
359.143
356.54
354.057
351.54
348.986
346.529
83.3208
101.745
122.349
144.461
168.001
192.294
217.168
242.52
267.326
291.415
314.173
335.255
354.37
371.452
387.139
400.603
411.907
421.337
428.91
434.7
438.819
441.312
442.596
442.708
441.782
439.893
437.464
434.591
430.872
426.89
422.619
418.163
413.748
408.972
403.883
399.065
394.049
388.974
384.202
379.291
374.379
369.426
365.093
360.759
356.412
352.496
348.334
344.572
340.638
336.978
333.213
329.771
326.42
322.917
319.523
316.438
313.102
310.332
307.184
303.913
301.017
1660.58
1685.53
1709.38
1732.07
1753.8
1775
1795.77
1816.41
1836.94
1856.48
1874.7
1892.16
1909.12
1925.97
1942.93
1960.7
1979.86
2000.91
2024.19
2050.1
2078.3
2108.25
2139.59
2171.94
2204.97
2238.63
2273.1
2308.03
2343.38
2379.17
2415.6
2452.52
2489.95
2528.05
2566.82
2606.16
2646.19
2687.02
2728.73
2771.16
2814.34
2858.51
2903.65
2949.59
2996.67
3044.72
3093.63
3143.44
3194.36
3246.43
3299.56
3353.63
3409.21
3465.86
3523.97
3583.31
3644.64
3707.92
3773.17
3840.27
3909.37
832.837
839.607
846.2
852.531
858.625
864.608
870.631
876.534
882.55
888.309
894.028
899.639
905.259
910.913
916.592
922.342
928.178
934.142
940.222
946.387
952.595
958.787
964.944
971.047
977.082
983.031
988.822
994.424
999.832
1005.07
1010.15
1015.06
1019.8
1024.41
1028.87
1033.18
1037.37
1041.44
1045.37
1049.18
1052.87
1056.48
1059.96
1063.32
1066.59
1069.74
1072.76
1075.65
1078.43
1081.09
1083.63
1086.04
1088.32
1090.64
1092.74
1094.91
1097.02
1099.32
1101.48
1103.68
1105.98
641.904
643.863
645.87
647.842
649.783
651.622
653.541
655.365
657.18
658.847
660.465
662.029
663.613
665.169
666.698
668.19
669.638
671.04
672.383
673.655
674.841
675.944
676.949
677.854
678.653
679.343
679.916
680.371
680.698
680.902
680.973
680.916
680.733
680.419
679.991
679.442
678.777
677.991
677.086
676.059
674.916
673.66
672.299
670.816
669.223
667.508
665.658
663.665
661.535
659.271
656.845
654.306
651.614
648.8
645.781
642.668
639.455
636.154
632.753
629.287
625.819
544.748
545.388
545.996
546.591
547.153
547.686
548.189
548.671
549.099
549.427
549.697
549.928
550.1
550.192
550.234
550.211
550.127
549.972
549.739
549.419
549.015
548.525
547.952
547.292
546.538
545.683
544.728
543.672
542.513
541.251
539.887
538.41
536.823
535.133
533.345
531.461
529.478
527.396
525.208
522.919
520.533
518.063
515.511
512.885
510.185
507.408
504.533
501.558
498.477
495.308
492.022
488.628
485.139
481.539
477.802
473.935
469.986
465.939
461.824
457.677
453.525
482.286
481.839
481.37
480.874
480.355
479.778
479.148
478.521
477.892
477.218
476.514
475.773
474.976
474.128
473.223
472.257
471.262
470.198
469.066
467.86
466.586
465.249
463.855
462.407
460.894
459.312
457.655
455.924
454.123
452.252
450.306
448.273
446.153
443.95
441.676
439.331
436.911
434.408
431.816
429.139
426.386
423.566
420.695
417.787
414.848
411.88
408.846
405.773
402.621
399.414
396.13
392.758
389.32
385.8
382.175
378.439
374.611
370.685
366.727
362.743
358.751
432.763
431.527
430.29
429.013
427.719
426.396
425.038
423.666
422.261
420.839
419.385
417.914
416.411
414.864
413.278
411.663
410.025
408.329
406.568
404.745
402.867
400.947
398.997
397.025
395.015
392.956
390.847
388.687
386.494
384.268
382.004
379.676
377.286
374.829
372.328
369.782
367.172
364.502
361.751
358.921
356.023
353.066
350.075
347.076
344.089
341.126
338.128
335.132
332.098
329.069
325.992
322.844
319.665
316.409
313.096
309.647
306.125
302.518
298.913
295.259
291.619
388.168
386.307
384.446
382.581
380.687
378.758
376.806
374.858
372.881
370.863
368.839
366.816
364.767
362.699
360.59
358.472
356.361
354.203
351.982
349.688
347.338
344.969
342.588
340.224
337.85
335.436
332.988
330.5
328.015
325.542
323.102
320.619
318.116
315.558
312.997
310.409
307.753
305.055
302.286
299.441
296.526
293.532
290.507
287.487
284.498
281.606
278.687
275.842
272.982
270.219
267.456
264.603
261.753
258.838
255.907
252.789
249.649
246.391
243.219
239.97
236.766
344.078
341.696
339.314
336.985
334.64
332.321
329.938
327.633
325.306
322.875
320.455
318.087
315.679
313.253
310.749
308.277
305.887
303.463
300.975
298.344
295.63
292.936
290.223
287.551
284.938
282.286
279.599
276.815
274.048
271.356
268.829
266.279
263.801
261.288
258.849
256.422
253.854
251.209
248.544
245.862
243.066
240.132
237.161
234.177
231.203
228.443
225.593
222.92
220.231
217.814
215.461
212.951
210.487
207.953
205.469
202.686
199.962
197.059
194.39
191.597
188.9
297.899
295.021
291.995
289.31
286.477
284.076
281.355
279.053
276.735
274.203
271.662
269.384
266.873
264.399
261.634
258.83
256.369
254.014
251.672
249.081
246.063
243.258
240.377
237.446
234.688
231.978
229.364
226.423
223.252
220.27
217.67
215.052
212.653
210.307
208.306
206.376
204.119
201.557
199.071
196.778
194.411
191.664
188.82
186.012
183.099
180.566
177.69
175.184
172.557
170.613
168.778
166.612
164.625
162.55
160.629
158.138
155.865
153.252
151.142
148.844
146.766
3981.56
4056.3
4132.97
4211.62
4292.69
4377.09
4464.26
4554.16
4646.51
4741.5
4839.5
4939.63
5041.98
5150.68
5284.6
5409.42
5532.45
5658.11
5786.3
5916.93
6050.33
6186.55
6325.18
6466.43
6610.08
6755.44
6902.23
7050.18
7199.12
7348.18
7497.28
7645.82
7792.93
7938.04
8080.62
8219.29
8352.89
8480.32
8593.74
8677.24
8734.08
8765.86
8772.36
8751.77
8702.44
8621.87
8505.95
8349.95
8149.48
7899.8
7594.53
7226.7
6790.91
6279.58
5656.54
4713.38
4297.39
4089.88
4008.09
3967.96
3883.82
1108.52
1111.14
1113.96
1116.83
1119.77
1122.94
1126.64
1130.72
1135.26
1140.09
1145.42
1148.8
1149.96
1152.62
1155.9
1160.51
1165.35
1170.13
1175.04
1180.2
1185.63
1191.37
1197.37
1203.63
1210.15
1216.88
1223.88
1231.15
1238.74
1246.7
1255.08
1263.93
1273.38
1283.53
1294.5
1306.52
1319.76
1334.59
1351.98
1380.69
1415.51
1453.49
1494.62
1539.05
1587.48
1640.26
1697.47
1759.4
1826.31
1897.77
1972.88
2050.03
2127.67
2204.65
2273.49
2338.08
2396.78
2483.08
2588
2696.33
2648.68
622.32
618.817
615.273
611.703
608.071
604.457
600.945
597.581
594.28
590.93
587.207
581.58
575.489
570.225
565.458
561.287
557.232
553.086
548.882
544.671
540.493
536.346
532.223
528.121
524.036
519.964
515.913
511.887
507.905
503.963
500.082
496.284
492.581
489.017
485.62
482.439
479.521
476.939
474.814
473.674
473.703
477.857
485.853
497.148
512.2
531.667
556.274
587.054
625.02
671.266
726.816
792.464
869.401
957.924
1057.77
1165.48
1272.27
1389.19
1533.14
1720.4
1907.23
449.37
445.217
441.059
436.879
432.647
428.41
424.215
420.114
415.989
411.756
406.811
400.784
394.851
389.463
384.453
379.789
375.244
370.721
366.199
361.701
357.228
352.763
348.313
343.881
339.463
335.068
330.697
326.352
322.032
317.742
313.482
309.26
305.088
300.977
296.937
292.99
289.155
285.451
281.903
278.577
275.554
273.135
271.988
272.579
274.763
278.88
285.392
294.953
308.409
326.788
351.511
383.916
425.676
477.913
541.25
613.638
690.889
774.533
873.055
1000.4
1159.4
354.771
350.847
346.937
343
338.991
334.978
330.975
327.049
323.094
319.018
314.224
308.875
303.746
299.018
294.532
290.279
286.132
282.082
278.089
274.16
270.271
266.371
262.49
258.636
254.797
250.987
247.203
243.447
239.711
235.997
232.305
228.643
225.017
221.438
217.913
214.457
211.079
207.791
204.603
201.533
198.608
195.892
193.515
191.827
190.961
190.926
191.944
194.319
198.484
204.979
214.603
228.364
247.468
273.18
306.513
347.572
394.936
448.131
509.462
584.573
679.71
287.971
284.438
280.928
277.413
273.755
270.099
266.428
262.87
259.283
255.623
251.305
246.748
242.422
238.437
234.585
230.897
227.272
223.801
220.42
217.138
213.905
210.63
207.391
204.197
201.01
197.863
194.732
191.632
188.536
185.454
182.382
179.339
176.324
173.355
170.434
167.575
164.784
162.071
159.438
156.897
154.461
152.153
150.014
148.132
146.751
145.774
145.322
145.518
146.567
148.749
152.432
158.145
166.559
178.447
194.683
215.827
241.998
273.262
310.252
354.645
409.555
233.47
230.365
227.295
224.271
220.988
217.734
214.413
211.289
208.144
205.02
201.246
197.445
193.838
190.593
187.36
184.27
181.169
178.294
175.511
172.847
170.233
167.518
164.886
162.341
159.782
157.273
154.753
152.275
149.767
147.271
144.762
142.296
139.855
137.471
135.126
132.847
130.623
128.476
126.397
124.405
122.501
120.708
119.035
117.516
116.21
115.277
114.623
114.313
114.451
115.172
116.665
119.183
123.047
128.688
136.578
147.207
160.987
178.242
199.439
225.373
257.333
185.942
183.262
180.658
178.203
175.312
172.492
169.512
166.884
164.233
161.727
158.479
155.358
152.366
149.83
147.157
144.671
142.048
139.762
137.538
135.418
133.361
131.104
129.014
127.122
125.145
123.211
121.214
119.302
117.29
115.298
113.258
111.314
109.384
107.548
105.725
103.979
102.26
100.623
99.0471
97.5706
96.1689
94.8797
93.7039
92.6363
91.7081
91.0182
90.5403
90.2589
90.2411
90.56
91.3161
92.632
94.6782
97.6512
101.8
107.408
114.769
124.22
136.127
150.995
169.49
144.111
141.792
139.678
137.879
135.376
133.017
130.326
128.289
126.172
124.327
121.554
119.02
116.496
114.65
112.425
110.556
108.317
106.632
104.903
103.18
101.592
99.6471
98.0488
96.9071
95.417
93.9022
92.2787
90.896
89.2236
87.6232
85.8916
84.4509
82.9526
81.6362
80.2342
78.9506
77.5844
76.361
75.2083
74.1892
73.2409
72.3981
71.675
71.036
70.436
69.9485
69.6418
69.4543
69.4951
69.6913
70.2817
71.1826
72.5976
74.4927
77.0805
80.3922
84.7211
90.1596
97.1015
105.808
116.636
3738.32
3578.63
3407.19
3227.15
3047.58
2873.93
2709.71
2559.49
2427
2314.25
2221.55
2147.74
2091.06
2049.2
2019.37
1998.94
1985.76
1978.26
1975.02
1974.87
1977.13
1981.31
1986.98
1994.09
2002.51
2012.04
2022.77
2034.51
2047.43
2061.38
2076.34
2092.24
2108.97
2126.29
2144.08
2162.08
2179.94
2197.4
2214.27
2230.24
2244.86
2257.96
2269.41
2279.02
2286.92
2293.39
2298.56
2302.66
2306.22
2309.96
2314.14
2318.91
2324.73
2331.72
2339.54
2347.92
2356.59
2365.57
2373.89
2380.63
2385.21
2457.18
2253.85
2054.49
1863.94
1696.17
1540.99
1397.42
1266.53
1148.59
1044.54
954.518
877.989
813.964
760.892
718.438
685.713
660.767
641.699
626.981
615.523
606.569
599.54
594.08
589.969
587.146
585.143
584.307
584.314
585.266
587.126
589.911
593.601
598.188
603.634
609.882
616.86
624.455
632.534
640.918
649.398
657.682
665.433
672.251
677.707
681.412
683.013
682.234
679.001
673.499
666.15
657.537
648.378
639.453
631.396
624.406
618.71
613.986
609.941
605.719
600.725
594.494
1992.5
1978.6
1875.96
1701.82
1522.45
1348.27
1178.55
1024.99
887.683
766.25
661.703
573.472
500.389
441.127
394.665
359.171
331.971
310.56
293.69
280.508
270.188
262.051
255.586
250.418
246.26
242.96
240.291
238.268
236.79
235.837
235.382
235.425
235.949
236.921
238.316
240.094
242.212
244.625
247.275
250.079
252.94
255.746
258.364
260.622
262.358
263.377
263.495
262.56
260.501
257.319
253.152
248.331
243.283
238.512
234.384
231.324
229.459
228.77
229.007
229.924
231.317
1324.76
1471.38
1567.85
1583.47
1513.65
1387.84
1218.47
1048.32
890.992
745.957
620.064
514.744
428.054
358.778
304.58
262.594
230.091
204.529
184.535
169.049
157.127
147.991
140.99
135.58
131.33
127.966
125.261
123.102
121.391
120.065
119.087
118.433
118.078
117.988
118.126
118.456
118.944
119.551
120.236
120.95
121.639
122.251
122.727
123.006
123.033
122.754
122.128
121.129
119.761
118.039
116.022
113.846
111.717
109.896
108.653
108.334
109.196
111.302
114.611
119.049
124.775
796.061
931.203
1074.1
1200.85
1281.7
1299.27
1248.64
1142.59
1005.75
850.635
703.861
577.688
469.257
380.975
311.047
255.826
212.687
179.05
152.875
132.721
117.382
105.87
97.3004
90.8939
86.0369
82.294
79.3743
77.0827
75.2846
73.8758
72.7969
72.0143
71.4916
71.1865
71.059
71.0723
71.1906
71.3779
71.5983
71.8115
71.9752
72.0487
71.993
71.7712
71.3521
70.713
69.8486
68.7673
67.4843
66.0416
64.5084
62.9983
61.6925
60.8185
60.6623
61.4535
63.5667
67.2079
72.473
79.492
88.0948
478.032
563.193
665.985
782.352
900.061
1001.33
1066
1078.77
1037.58
950.26
833.824
707.306
579.5
468.412
377.498
302.465
243.235
196.478
159.377
130.812
109.322
93.5227
82.0607
73.7173
67.5547
62.9211
59.4002
56.7089
54.6482
53.0588
51.8498
50.9698
50.3691
49.9942
49.7985
49.7418
49.7857
49.8958
50.0374
50.1737
50.2667
50.2831
50.1887
49.9553
49.5543
48.9713
48.2036
47.2643
46.1666
44.9464
43.6625
42.4143
41.3562
40.7032
40.7493
41.8551
44.4187
48.7522
55.0511
63.3527
73.545
297.054
346.778
408.827
484.659
573.302
670.023
764.832
843.601
892.018
899.621
864.27
793.244
698.466
594.004
491.545
394.571
314.973
249.94
195.856
153.659
121.753
98.6091
82.1911
70.4885
62.0195
55.7665
51.11
47.6315
45.0331
43.0624
41.5791
40.5011
39.7604
39.2843
39.0147
38.9029
38.9065
38.9892
39.1158
39.2507
39.357
39.4075
39.3685
39.2163
38.92
38.4718
37.8661
37.1184
36.2333
35.2461
34.2028
33.1914
32.3459
31.8572
32.0121
33.2102
35.8802
40.4709
47.3161
56.5072
67.9482
192.581
221.49
257.78
303.062
358.639
424.712
499.521
578.063
652.414
711.867
745.967
748.386
719.235
662.916
588.146
503.108
417.86
337.423
261.965
201.212
153.24
118.588
94.4537
77.4463
65.2214
56.2583
49.6588
44.8357
41.3257
38.7003
36.7436
35.3183
34.3309
33.676
33.2771
33.071
33.0066
33.0428
33.1421
33.2679
33.3823
33.4649
33.4808
33.4097
33.2146
32.8949
32.4392
31.8676
31.1757
30.3988
29.5745
28.7834
28.1438
27.8261
28.1026
29.3696
32.0954
36.8342
44.0697
54.001
66.5468
130.261
147.203
168.415
195.162
228.495
269.435
318.346
374.707
436.035
498.298
553.652
596.07
619.179
620.226
597.573
553.404
493.661
422.445
348.904
274.046
204.475
154.533
119.803
95.101
76.9397
63.6008
53.8028
46.7832
41.786
38.0834
35.3614
33.3657
31.9756
31.0296
30.4203
30.0573
29.8764
29.8257
29.8655
29.9508
30.0476
30.1391
30.1896
30.1784
30.0654
29.8512
29.5254
29.1038
28.5807
27.9851
27.3567
26.7684
26.3348
26.2066
26.6376
28.0177
30.8357
35.7132
43.2441
53.7743
67.1858
1.54464
209.22
187.075
2.25801
2.22809
0.205234
0.000718536
89.1619
0.00079801
0.0146952
93.7177
7.11014
0.000719479
243.383
0.168088
137.608
0.000757808
90.695
118.035
0.00071501
2.2583
232.69
198.317
0.000765438
0.000782523
0.212917
0.000716015
7.63625
0.000753566
0.00081848
6.53314
0.000743766
0.0087659
65.1267
4.01676
111.799
71.485
16.3262
0.000722473
44.5194
64.9425
28.1329
0.000743622
104.889
172.626
0.721459
0.000869816
0.00871525
1.24177
7.31941
361.187
352.737
0.000698989
0.00102643
0.0617391
0.0335575
0.000815866
8.85245
58.553
280.436
137.675
0.000908661
1.48878
0.0251373
198.799
2.41528
38.5368
61.9502
0.00112598
0.000747739
9.83041
42.7686
55.5547
0.0352528
0.0506344
79.824
225.958
58.2021
0.000700548
5.53067
0.00235356
47.4225
0.0121558
114.453
0.000749984
8.89582
0.000792611
36.9606
0.0108472
0.00136985
0.235148
0.000699299
0.000934577
304.001
142.737
0.000867734
1.59343
1.89092
0.00184259
207.028
1.0326
31.8717
6.12274
0.000698332
0.000725627
0.000695491
1.44843
0.210599
0.000746894
174.065
222.427
0.00467573
233.918
26.9108
111.957
54.3843
28.2565
0.000973014
0.111696
0.00110824
0.00151314
188.674
0.00316759
287.176
408.341
27.6173
0.000746288
7.43985
7.22949
0.000744213
0.0299394
0.0270189
90.2392
0.00189136
63.7914
0.000749146
0.000723394
391.933
346.241
0.000749494
0.782513
149.218
0.232318
0.911529
26.6766
121.451
0.282827
27.6094
0.00527828
272.063
11.0572
0.0356703
51.2828
112.025
188.086
0.000763366
0.00075765
0.520371
0.000702043
41.1638
0.10896
0.00144596
0.000739776
0.00074783
0.000758588
42.3741
68.6
34.0916
0.000766665
281.556
298.055
406.244
166.355
0.00688388
160.118
45.3935
28.2052
0.000750924
0.00170501
191.77
67.9456
28.8905
72.3606
0.00074594
0.000841794
238.136
0.0297565
2.50476
0.000758011
0.000868058
0.174586
0.000795613
327.133
4.21497
0.00069945
0.692125
89.0033
139.924
0.00119226
52.2988
0.000747162
0.000750816
108.948
34.3461
296.849
0.00120895
0.000802137
0.0028297
43.1218
76.0893
10.2506
121.004
14.4387
231.951
0.798471
89.7082
83.7903
26.5918
10.938
39.3963
0.00145101
0.0295086
0.000748254
0.000728059
28.3482
0.0100779
0.0118274
0.00200558
0.00624549
49.2623
196.531
0.0111158
168.082
7.7711
3.09424
0.000732487
0.539359
40.4861
7.57324
0.0010577
13.4779
34.6276
0.83403
2.37724
270.987
7.67195
4.86998
125.058
0.000953216
0.000723658
0.00103052
0.00426611
28.7506
0.000781852
0.00254724
0.00072305
1.80156
76.8839
76.529
49.0604
11.9911
11.7198
322.805
0.00113366
47.8339
99.7831
0.000744193
85.3363
0.00074966
328.415
1.80063
54.546
0.00155499
0.000748792
20.9383
7.45686
0.00075964
0.000751358
0.000756117
0.000751435
1.1925
35.5231
46.9125
0.0106523
0.000760447
0.000724045
0.000697168
108.275
1.18541
0.00119572
19.7123
0.117077
0.0932579
0.000693926
0.794924
0.000760163
0.114137
47.0104
268.519
3.01491
0.000977406
0.00184841
58.9338
0.359796
128.964
320.804
0.000839215
0.000740072
0.000734047
159.371
0.000774832
138.255
0.000750054
24.4863
12.1542
0.0240391
141.309
239.447
0.0012775
49.914
50.7141
88.9098
90.976
10.0571
343.645
38.5435
72.4174
141.231
97.3814
55.7541
0.344778
334.066
279.308
62.5732
33.5346
0.000994188
265.606
127.222
231.357
0.0188803
0.000869767
0.00074606
0.000813411
0.682732
1.57499
6.49121
0.126066
0.000725441
170.375
0.000746636
27.0307
24.7093
192.94
42.6165
19.8014
0.00194144
0.00110713
0.451427
86.6934
0.00438643
7.96201
256.942
35.8603
87.6749
190.841
61.707
0.000820886
282.39
141.682
96.7281
0.000751089
191.44
151.839
0.000782822
30.4678
0.000752262
387.141
171.62
28.0153
84.7812
115.656
149.698
0.000763279
149.131
0.000968243
68.6277
84.8328
28.2274
278.759
3.7201
0.495809
2.60319
0.00109998
440.319
1.43742
0.00290572
0.00178169
252.241
0.000956559
96.5555
0.000736902
0.000750564
0.00183007
32.2782
0.195928
22.8669
0.00200004
86.6145
0.311429
215.558
279.144
40.0511
332.599
0.000790999
278.947
44.2619
0.000742913
82.1411
26.9808
0.000697446
0.000727186
115.452
0.00205076
26.9201
0.448679
77.6782
0.017792
3.62939
41.1027
120.496
34.473
83.3336
70.661
0.000993959
0.0327548
28.7725
21.2493
329.618
334.354
139.155
0.0855372
124.149
123.013
3.46839
90.3296
47.0053
27.2808
0.000819684
88.012
378.202
0.00107853
91.2722
19.7466
47.5929
0.0154549
0.09027
264.988
0.00194453
325.598
0.00124886
1.76775
0.000737931
8.02952
166.793
0.559502
0.0013224
0.000898101
76.5705
26.8202
0.384471
5.3901
290.029
544.567
0.00136585
12.0015
27.2485
72.6001
26.2435
449.432
28.7449
154.519
54.3177
3.41076
7.20703
301.465
54.0645
351.329
172.6
0.225388
173.949
60.5917
0.000789251
90.808
29.4285
12.9831
0.00972074
97.1644
44.4537
4.35808
53.0337
0.0015886
0.000747356
0.152831
28.624
106.078
72.6255
0.000750343
0.000730469
0.000744536
28.2655
0.0274813
0.000746088
0.251004
95.8694
269.083
0.00442241
0.00455714
0.000721191
0.000738748
0.00195441
30.2499
100.923
20.8561
1.90321
293.08
375.265
0.00150461
62.1124
27.8649
28.4011
78.8659
430.424
0.000819863
0.00448195
0.000751739
396.745
0.805039
0.000726691
10.7579
0.358869
300.582
0.000759355
319.111
9.15254
0.0674554
201.643
0.00074892
0.000737002
0.00102426
398.307
55.5383
131.042
312.377
11.2398
28.5888
0.000708731
0.00185066
0.452761
0.0159773
0.016432
178.677
40.7857
0.000748365
25.1579
44.8344
183.303
400.55
0.00296884
404.168
0.00182757
0.0219727
149.401
0.000739932
149.191
0.000759709
0.000792928
0.0207867
34.4131
2.95319
325.212
61.5509
0.000882549
28.4854
500.693
0.218307
2.18267
7.31018
0.000776002
0.000760659
0.00230594
139.27
5.37077
0.000780704
267.027
275.004
215.462
0.109627
59.3075
0.00108394
31.5944
0.549995
0.13271
121.442
29.699
150.295
174.69
0.00076015
0.00071135
0.00500692
72.4956
102.51
6.04909
0.00662995
0.0007701
0.000750788
0.00345525
0.12268
0.00212462
71.8948
21.0534
0.00496514
26.3688
171.793
0.000760922
38.0934
0.000742621
3.36014
0.000762495
0.013289
37.738
0.0117026
0.000744665
4.14207
357.542
258.033
0.000730087
0.000746713
1.60609
0.130734
0.000747948
97.913
0.00090701
31.8716
371.397
30.9819
86.2664
297.404
131.644
334.449
0.000748411
0.00249674
0.0108529
291.701
59.4096
197.783
5.69902
4.26687
100.45
167.723
124.877
5.04381
45.902
0.00075076
1.59164
41.2591
34.534
309.007
26.2272
1.16419
42.7672
0.206295
0.00938252
41.3265
0.000751874
174.334
0.000883622
2.68406
292.206
184.072
3.17238
0.00251788
7.27984
0.000769756
0.000736411
0.201784
0.0136028
52.9168
0.00883425
28.705
0.000750644
0.0192114
0.000725167
97.8011
0.00177427
86.4807
303.059
0.0143998
168.326
365.996
0.000757982
98.5706
221.689
0.000783111
286.776
0.263339
0.000821838
0.00079049
276.286
0.00073162
0.001118
0.123677
0.217374
422.608
269.235
0.000751533
0.000752324
9.38001
29.2602
0.00714288
2.2531
22.9302
0.000747936
0.000957017
0.000913213
169.935
270.831
3.48217
290.506
0.017302
26.6637
0.0007695
0.00723944
0.0161513
0.0429802
0.000750192
292.37
0.000742045
0.0161901
0.000769344
1.37228
0.0148989
0.0381443
2.54196
5.2834
34.9039
2.19126
9.62646
27.8813
189.404
0.000817174
165.042
322.748
13.157
78.4259
0.000761372
266.988
78.8349
0.000746166
402.015
65.5783
0.00618199
0.02174
164.946
165.765
0.23534
313.491
400.274
4.45939
422.451
260.039
133.03
50.1659
20.8877
27.5119
262.617
286.66
0.0143657
303.455
40.8293
403.959
0.000813115
1.62938
2.93237
226.374
164.137
0.0119183
444.343
197.875
6.77213
0.0533712
2.72495
28.0804
0.00155471
28.2165
431.403
0.0293912
222.884
14.4746
95.4765
189.564
0.000746514
0.00167538
7.61659
5.50187
0.0131068
0.000748535
0.813713
1.76947
0.00121111
0.000758703
267.586
7.38213
53.0712
11.0277
0.00316995
0.00107561
0.439287
87.2736
0.000825829
22.8779
30.1372
1.86237
164.019
0.00100768
0.387202
0.000740857
1.75937
90.1813
0.00148907
0.186493
40.6817
164.547
0.506418
99.1744
5.14863
0.969451
0.000988034
34.4514
326.502
0.000744407
0.000753225
148.754
0.0159185
0.000758257
74.3354
2.04739
165.024
29.5577
37.7808
0.320252
17.6747
202.38
160.593
240.534
0.00076407
271.315
0.000966527
38.6728
0.00079407
0.00147353
44.7635
0.00208528
254.353
0.0122047
0.0326023
45.2945
7.68364
0.531732
0.000899827
184.458
0.000889344
0.00071849
339.688
161.27
42.6027
28.6032
0.000815157
0.000687574
19.7117
149.209
0.000730951
215.256
37.0815
0.000753571
172.683
0.000702544
3.28839
6.56104
10.9102
1.58713
75.7941
21.0085
0.000701008
267.935
321.759
0.000745124
0.013102
28.8591
0.0007082
239.641
161.236
403.064
0.00074612
0.000727714
198.381
0.0942325
0.000836344
32.1355
80.2819
249.382
0.000720386
0.000792148
0.0158877
0.0116198
0.000747224
0.00202037
129.506
50.6783
0.000747121
13.8502
0.000747223
9.83777
0.00108525
0.000869354
28.5978
0.000747472
0.350525
0.000730495
49.4237
1.99866
20.7985
188.26
360.267
148.622
5.40358
14.5071
0.000758256
5.79343
276.817
530.225
0.158083
0.000828416
130.008
0.000746368
0.10921
0.000719939
433.078
14.6862
3.06691
194.737
52.8174
4.85792
83.3607
7.68322
225.729
118.108
0.000775036
0.00075384
0.00310239
0.000737051
0.0141521
97.5081
0.000928292
246.958
0.00186766
0.323953
3.16949
153.171
0.00135125
43.0506
0.0133328
55.2074
31.995
427.799
0.000793235
0.000950526
1.48784
88.4683
62.7127
68.6281
2.03474
7.99449
19.8731
0.0628665
10.2647
1.71482
30.1338
0.000753856
391.671
1.45219
58.3018
0.000787272
55.2415
15.9597
0.00174361
88.0852
17.8001
0.0854901
0.000713977
0.000746528
202.647
49.9841
14.7088
0.000737725
0.0096093
50.1125
190.317
3.36833
0.00588969
0.000734119
145.838
130.568
35.7177
37.5567
0.000744261
102.335
428.308
0.00074697
0.000749383
18.5533
0.00124606
0.00389441
0.214997
47.3681
0.00104608
36.2499
342.105
0.000730128
0.000818933
0.000727031
0.000770446
69.332
515.582
330.478
0.0207434
34.962
46.8821
0.134218
46.4101
0.000821129
31.2821
0.537784
30.4271
5.42671
81.6736
102.496
0.13791
0.000759204
161.205
84.7557
274.058
5.8962
30.0213
0.536244
20.8419
0.00354303
0.0013394
153.451
143.752
0.0326799
1.16038
0.000754613
0.100612
20.491
0.0275901
13.7566
4.4439
386.347
37.0832
1.754
270.13
143.746
56.408
16.3172
199.839
187.53
3.26915
39.6991
0.00344134
49.2553
47.3261
0.000743554
0.000710174
0.353816
0.000748987
0.000772811
57.3931
297.48
0.000744948
83.5701
0.000745476
0.000736977
0.000740928
0.000750682
0.00181425
29.5353
44.1805
249.312
0.000717433
0.00106288
6.98615
0.000857027
0.0283797
0.000762791
0.000865294
166.708
0.000985961
0.004681
181.134
0.00427246
0.000749612
186.81
0.000745686
0.000761301
1.43283
0.00087079
6.58762
0.00123088
0.0242091
0.000743916
0.000753106
302.08
414.473
44.0051
0.0236128
110.772
16.9667
0.00129332
27.6143
308.435
235.964
476.106
0.000702901
27.3995
57.8015
0.264475
28.5659
102.081
0.35363
31.5876
1.02537
28.4678
0.271079
7.55779
0.000757645
218.597
0.000756455
28.6601
33.785
0.000747988
0.923922
0.00247208
0.0308897
0.000725481
3.91869
0.000896332
0.000741026
40.2046
0.0354614
0.166888
231.855
153.063
0.000815699
0.000963845
31.8578
259.758
0.000693153
0.000754622
0.191125
23.9191
150.811
0.00209075
16.5808
0.000745879
0.000820049
0.000718164
0.028119
23.2698
0.0040729
269.572
29.7988
258.219
172.158
0.000844994
294.562
69.1626
0.000732622
0.000754081
0.000750346
0.00115609
0.000740497
124.467
0.000745472
0.000751255
343.867
1.25397
0.00269444
0.0374085
60.3136
7.78487
0.00744775
0.000825429
185.879
0.000762699
6.68138
0.000753849
0.000847679
163.317
162.279
0.00335436
0.000831662
3.70934
0.000744371
360.921
0.000752098
149.318
0.0281625
8.35817
0.119542
3.08652
1.93964
29.6016
0.000760999
0.000862259
0.00493074
59.2724
0.292157
302.04
0.000747487
0.00123461
0.00164222
256.166
63.9186
271.945
0.00225549
0.00348542
0.830247
0.000751462
19.1367
39.3219
0.00882237
265.868
183.131
42.3748
0.00155022
1.48007
168.126
224.148
27.9112
0.0105781
122.322
0.502223
132.57
0.146228
2.33221
42.1397
0.000761957
28.4864
0.00122156
0.00512982
0.00600554
0.0482904
0.000909716
11.1413
0.000746197
45.8513
0.133146
0.000866141
1.53958
0.00075658
0.77175
0.23161
40.2167
3.74905
92.592
0.834747
0.000748527
0.000731887
4.81174
0.161172
44.8343