/*--------------------------------*- C++ -*----------------------------------*\
| =========                 |                                                 |
| \\      /  F ield         | OpenFOAM: The Open Source CFD Toolbox           |
|  \\    /   O peration     | Version:  2.3.1                                 |
|   \\  /    A nd           | Web:      www.OpenFOAM.org                      |
|    \\/     M anipulation  |                                                 |
\*---------------------------------------------------------------------------*/
FoamFile
{
    version     2.0;
    format      ascii;
    class       volScalarField;
    location    "0.7";
    object      epsilon;
}
// * * * * * * * * * * * * * * * * * * * * * * * * * * * * * * * * * * * * * //

dimensions      [0 2 -3 0 0 0 0];

internalField   nonuniform List<scalar> 
1000
(
0.000936819
0.000970216
0.000971002
0.000970965
0.000970947
0.00097094
0.000970931
0.000970929
0.000970843
0.00096811
0.000971249
0.000977829
0.000978285
0.00097829
0.000978285
0.00097828
0.000978267
0.000978244
0.00097776
0.000969318
0.000973543
0.000980016
0.00098056
0.000980584
0.000980585
0.000980575
0.000980554
0.000980517
0.000979956
0.000970734
0.000975283
0.000982355
0.000982986
0.000983045
0.00098306
0.000983052
0.00098302
0.000982964
0.000982343
0.000972609
0.000977429
0.000985514
0.000986259
0.000986369
0.000986404
0.000986393
0.000986369
0.000986267
0.000985584
0.000974869
0.000970411
0.000976336
0.000976893
0.000976977
0.000977005
0.000977018
0.000977021
0.000977012
0.000976601
0.000969307
0.00097712
0.000636921
0.000619763
0.000619052
0.000618997
0.000618972
0.000618954
0.000619398
0.000635681
0.000975655
0.000978877
0.000617185
0.000598604
0.000597903
0.000597884
0.000597881
0.000597884
0.000598408
0.000616223
0.000977387
0.000980564
0.000616511
0.000597832
0.000597136
0.000597122
0.00059712
0.000597126
0.00059766
0.000615672
0.000979092
0.000982675
0.000617794
0.000599001
0.000598355
0.000598365
0.000598366
0.000598353
0.000598846
0.000617027
0.000981244
0.000972571
0.000977782
0.000978324
0.000978403
0.000978437
0.000978455
0.000978462
0.000978453
0.000978002
0.000970316
0.000978299
0.000619502
0.000601085
0.000600357
0.000600319
0.000600302
0.000600292
0.000600793
0.000618407
0.000976959
0.000979844
0.000598996
0.000578863
0.000578085
0.000578065
0.000578064
0.000578071
0.000578656
0.000597952
0.000978534
0.00098134
0.000598378
0.000578116
0.000577338
0.000577322
0.000577321
0.000577328
0.00057792
0.00059739
0.000980013
0.000983251
0.000599147
0.000578775
0.000578017
0.000578013
0.000578012
0.00057801
0.000578585
0.000598199
0.000981933
0.000973427
0.000978574
0.000979084
0.000979147
0.000979178
0.000979194
0.000979202
0.000979191
0.000978738
0.000971026
0.000978971
0.000617776
0.000599374
0.000598671
0.000598643
0.000598633
0.00059863
0.000599143
0.000616879
0.000977612
0.000980333
0.000598098
0.000577955
0.000577178
0.000577159
0.000577158
0.000577166
0.000577756
0.000597117
0.000979035
0.000981655
0.000597548
0.000577286
0.000576508
0.000576491
0.000576491
0.000576498
0.00057709
0.000596585
0.000980334
0.000983352
0.00059799
0.000577654
0.000576882
0.00057687
0.000576869
0.000576872
0.000577459
0.000597044
0.00098202
0.000973888
0.000979005
0.000979493
0.000979543
0.000979567
0.000979581
0.000979587
0.000979573
0.000979119
0.000971389
0.00097936
0.000616654
0.000598257
0.000597564
0.00059754
0.000597534
0.000597538
0.000598059
0.000615858
0.000977955
0.000980614
0.000597884
0.000577787
0.000577015
0.000576996
0.000576995
0.000577005
0.000577593
0.000596948
0.000979292
0.000981834
0.000597401
0.000577208
0.000576435
0.000576419
0.000576418
0.000576426
0.000577014
0.000596464
0.000980496
0.000983401
0.000597699
0.000577477
0.000576709
0.000576694
0.000576693
0.000576698
0.000577282
0.000596769
0.000982046
0.000973963
0.000979211
0.000979699
0.000979745
0.000979767
0.000979778
0.000979782
0.000979764
0.0009793
0.000971417
0.000979456
0.000615987
0.000597597
0.000596915
0.000596899
0.0005969
0.00059691
0.000597438
0.000615275
0.00097802
0.000980719
0.000597809
0.000577748
0.00057698
0.000576963
0.000576964
0.000576973
0.000577561
0.000596911
0.000979378
0.000981963
0.000597386
0.000577246
0.00057648
0.000576465
0.000576465
0.000576472
0.000577056
0.000596481
0.000980611
0.000983547
0.000597657
0.000577519
0.000576758
0.000576745
0.000576745
0.000576748
0.000577326
0.000596751
0.000982176
0.000973689
0.000979258
0.000979763
0.000979807
0.000979826
0.000979833
0.000979834
0.000979811
0.000979326
0.000971111
0.00097928
0.000615965
0.000597591
0.000596911
0.000596895
0.000596896
0.000596906
0.000597433
0.000615269
0.000977815
0.000980679
0.000597914
0.00057788
0.000577116
0.0005771
0.0005771
0.000577109
0.000577694
0.00059703
0.00097931
0.000982097
0.000597563
0.000577451
0.000576691
0.000576677
0.000576677
0.000576683
0.000577261
0.000596663
0.000980715
0.000983871
0.000597949
0.000577852
0.000577102
0.000577092
0.000577092
0.000577091
0.000577656
0.000597042
0.000982468
0.000973051
0.000978917
0.000979439
0.000979485
0.0009795
0.000979507
0.000979504
0.000979475
0.000978972
0.000970455
0.000978787
0.000616764
0.00059848
0.000597806
0.000597792
0.000597793
0.000597802
0.000598325
0.000616088
0.000977297
0.00098041
0.00059901
0.000579095
0.000578345
0.000578331
0.000578333
0.000578339
0.000578913
0.000598144
0.000979013
0.000982101
0.00059894
0.000578978
0.000578238
0.00057823
0.000578232
0.000578231
0.000578792
0.00059806
0.000980686
0.000984234
0.000599965
0.000580098
0.000579394
0.000579399
0.000579401
0.000579383
0.000579905
0.000599082
0.000982795
0.000972006
0.00097769
0.000978179
0.000978221
0.000978236
0.00097824
0.000978234
0.000978205
0.000977727
0.000969383
0.000977606
0.000636705
0.000619967
0.000619384
0.000619383
0.000619389
0.000619392
0.000619851
0.00063622
0.000976022
0.000979458
0.000621565
0.000603496
0.00060287
0.000602879
0.000602885
0.000602877
0.000603359
0.000620928
0.000977954
0.00098146
0.000623649
0.000605728
0.000605157
0.000605188
0.000605196
0.000605163
0.000605588
0.000623007
0.000979923
0.000984093
0.000629133
0.000611743
0.00061132
0.000611402
0.000611407
0.000611322
0.000611604
0.000628516
0.000982522
0.000968223
0.000968414
0.000968438
0.000968449
0.000968452
0.000968456
0.000968453
0.000968444
0.000968354
0.00096545
0.00096966
0.00097537
0.000975893
0.000975939
0.000975953
0.000975956
0.000975945
0.000975911
0.000975416
0.00096696
0.000971416
0.000977615
0.000978231
0.000978305
0.000978329
0.000978336
0.000978312
0.000978249
0.000977667
0.000968715
0.000973744
0.000980022
0.000980705
0.000980815
0.000980856
0.00098086
0.000980817
0.000980711
0.000980046
0.000971031
0.00097733
0.000983801
0.000984597
0.000984758
0.000984814
0.000984814
0.000984751
0.000984573
0.000983796
0.000974645
0.000985542
0.000992719
0.000993735
0.000993944
0.000993995
0.000993994
0.000993927
0.000993701
0.000992681
0.000982961
0.00100205
0.00104295
0.0010467
0.00104564
0.00104505
0.00104502
0.00104555
0.00104654
0.00104399
0.00100029
0.00118668
0.00176335
0.00180539
0.00177666
0.00176618
0.00176568
0.00177474
0.00180291
0.00177872
0.00119508
0.00288895
0.00862658
0.00920829
0.00902642
0.00895103
0.00894564
0.00900809
0.00918561
0.00875818
0.00297984
0.0125402
0.0472662
0.052259
0.0523477
0.052254
0.0522268
0.0522617
0.0521626
0.047905
0.0129392
0.000987515
0.00064093
0.000624748
0.000624574
0.000624713
0.000624717
0.000624576
0.000624621
0.000640421
0.000985959
0.000992067
0.00067381
0.000660893
0.000661349
0.000661524
0.000661524
0.000661351
0.000660819
0.000673788
0.000990653
0.00101617
0.000862404
0.000862942
0.000862362
0.000862075
0.000862037
0.000862208
0.00086288
0.000865378
0.00101582
0.00144237
0.00413264
0.00421335
0.0039104
0.00381804
0.00381527
0.00390071
0.00420367
0.00421517
0.00146427
0.0203921
0.131757
0.143534
0.143349
0.142957
0.142902
0.143184
0.143436
0.133533
0.021198
0.000986011
0.000601814
0.000582177
0.000581557
0.000581592
0.000581592
0.000581545
0.000581983
0.000600952
0.000984616
0.000988748
0.000605096
0.000585889
0.000585336
0.000585362
0.000585363
0.000585325
0.000585705
0.00060433
0.000987439
0.000994421
0.000654781
0.000641328
0.000642229
0.000642616
0.000642619
0.000642243
0.000641306
0.000655029
0.000993411
0.00125483
0.0032126
0.00338369
0.00337671
0.0033723
0.00337173
0.00337535
0.00338578
0.00326031
0.00126747
0.0217011
0.135045
0.143877
0.14371
0.143465
0.14344
0.143641
0.143958
0.136892
0.0225561
0.000984775
0.000598129
0.000578045
0.000577325
0.000577329
0.000577328
0.000577311
0.000577844
0.000597217
0.000983398
0.000986965
0.000597948
0.000577847
0.000577089
0.000577069
0.000577068
0.000577073
0.000577644
0.000597057
0.00098564
0.000990183
0.000629319
0.000611941
0.00061152
0.00061165
0.000611659
0.000611538
0.000611861
0.00062916
0.000989094
0.00123173
0.0032195
0.00339119
0.00339926
0.00339897
0.00339878
0.00339909
0.00339577
0.00326826
0.0012435
0.0231679
0.146407
0.155466
0.155697
0.155604
0.155594
0.155681
0.155668
0.148514
0.0241213
0.000984079
0.000597556
0.000577395
0.000576652
0.000576649
0.000576648
0.000576639
0.000577197
0.000596643
0.000982714
0.000986066
0.000597142
0.000576918
0.000576134
0.000576109
0.000576108
0.000576119
0.000576718
0.000596236
0.000984734
0.000988638
0.000623189
0.00060542
0.000604971
0.000605083
0.000605092
0.00060499
0.000605338
0.000622942
0.000987495
0.00122936
0.00330247
0.00347724
0.00349068
0.00349314
0.00349317
0.00349137
0.00348376
0.00335475
0.00124127
0.0239037
0.151534
0.160811
0.161264
0.16126
0.161259
0.161279
0.161079
0.153772
0.0249096
0.000983937
0.00059777
0.000577482
0.000576736
0.000576735
0.000576734
0.000576724
0.000577286
0.000596842
0.000982586
0.000986081
0.000597483
0.000576927
0.000576127
0.000576103
0.000576101
0.000576114
0.000576729
0.000596563
0.000984755
0.000988993
0.000625996
0.000608848
0.000608693
0.000608872
0.000608877
0.00060871
0.000608779
0.000625801
0.000987831
0.00136038
0.00440916
0.00473308
0.0048238
0.00485628
0.00485693
0.00482767
0.00474736
0.00448554
0.00137937
0.0241301
0.151309
0.160464
0.160934
0.160946
0.160947
0.160963
0.160761
0.153573
0.025165
0.000984241
0.000598636
0.000578174
0.000577442
0.000577453
0.000577453
0.000577435
0.000577984
0.000597706
0.000982927
0.000986794
0.000598658
0.000577526
0.000576719
0.000576698
0.0005767
0.00057671
0.000577338
0.000597733
0.000985457
0.000991746
0.000641417
0.000625996
0.00062691
0.00062749
0.000627506
0.000626977
0.000626033
0.000641504
0.000990666
0.00159124
0.00538861
0.00585562
0.00607345
0.00615642
0.0061583
0.0060831
0.00588026
0.00547612
0.00162142
0.0242467
0.147293
0.155918
0.156348
0.156365
0.156367
0.156392
0.15624
0.149504
0.0253122
0.000984961
0.00060047
0.000579855
0.000579148
0.000579171
0.000579175
0.000579144
0.000579678
0.000599554
0.000983657
0.000987645
0.000602764
0.000581127
0.000580425
0.000580444
0.000580446
0.000580427
0.000580949
0.000601868
0.000986285
0.000998407
0.000664017
0.000649657
0.000652169
0.000653417
0.000653453
0.000652297
0.0006498
0.000664127
0.000997433
0.00178764
0.00379343
0.00411701
0.00429707
0.00437421
0.00437624
0.00430579
0.0041338
0.00384085
0.00181896
0.0236971
0.132553
0.139807
0.140393
0.140516
0.140523
0.14046
0.140137
0.134433
0.0247245
0.000985789
0.000618902
0.000599608
0.000598961
0.000598982
0.000598985
0.000598964
0.000599458
0.000618162
0.000984408
0.000987654
0.000631772
0.000611956
0.000611776
0.00061196
0.00061197
0.000611794
0.000611847
0.000631158
0.00098618
0.00100773
0.000717652
0.000703218
0.000705134
0.000706143
0.000706166
0.000705221
0.000703308
0.000717843
0.00100676
0.00135976
0.00258292
0.00273424
0.00277193
0.00278599
0.00278613
0.00277356
0.00274
0.00261405
0.00137248
0.0192917
0.0883308
0.0925754
0.0932347
0.0934625
0.0934724
0.0932981
0.0927968
0.0893472
0.0199688
0.000980202
0.000991188
0.000992455
0.000992715
0.000992814
0.000992828
0.000992716
0.000992517
0.000991368
0.000977573
0.000978819
0.000994791
0.000996467
0.000996686
0.000996753
0.00099675
0.000996701
0.000996536
0.00099495
0.000976146
0.00101299
0.00103927
0.0010427
0.00104361
0.00104389
0.00104387
0.00104367
0.00104273
0.00103969
0.00101072
0.00112726
0.00133241
0.00136445
0.00137023
0.00137198
0.00137204
0.00137044
0.00136545
0.00133732
0.00112904
0.00731508
0.0148418
0.0153488
0.0154804
0.0155248
0.0155262
0.0154893
0.0153747
0.0149449
0.00743404
)
;

boundaryField
{
    walls
    {
        type            epsilonWallFunction;
        value           nonuniform List<scalar> 
500
(
0.000936819
0.000936819
0.000936819
0.000970216
0.000970216
0.000971002
0.000971002
0.000970965
0.000970965
0.000970947
0.000970947
0.00097094
0.00097094
0.000970931
0.000970931
0.000970929
0.000970929
0.000970843
0.000970843
0.00096811
0.00096811
0.00096811
0.000971249
0.000971249
0.000977829
0.000978285
0.00097829
0.000978285
0.00097828
0.000978267
0.000978244
0.00097776
0.000969318
0.000969318
0.000973543
0.000973543
0.000980016
0.00098056
0.000980584
0.000980585
0.000980575
0.000980554
0.000980517
0.000979956
0.000970734
0.000970734
0.000975283
0.000975283
0.000982355
0.000982986
0.000983045
0.00098306
0.000983052
0.00098302
0.000982964
0.000982343
0.000972609
0.000972609
0.000977429
0.000977429
0.000985514
0.000986259
0.000986369
0.000986404
0.000986393
0.000986369
0.000986267
0.000985584
0.000974869
0.000974869
0.000970411
0.000970411
0.000976336
0.000976893
0.000976977
0.000977005
0.000977018
0.000977021
0.000977012
0.000976601
0.000969307
0.000969307
0.00097712
0.000975655
0.000978877
0.000977387
0.000980564
0.000979092
0.000982675
0.000981244
0.000972571
0.000972571
0.000977782
0.000978324
0.000978403
0.000978437
0.000978455
0.000978462
0.000978453
0.000978002
0.000970316
0.000970316
0.000978299
0.000976959
0.000979844
0.000978534
0.00098134
0.000980013
0.000983251
0.000981933
0.000973427
0.000973427
0.000978574
0.000979084
0.000979147
0.000979178
0.000979194
0.000979202
0.000979191
0.000978738
0.000971026
0.000971026
0.000978971
0.000977612
0.000980333
0.000979035
0.000981655
0.000980334
0.000983352
0.00098202
0.000973888
0.000973888
0.000979005
0.000979493
0.000979543
0.000979567
0.000979581
0.000979587
0.000979573
0.000979119
0.000971389
0.000971389
0.00097936
0.000977955
0.000980614
0.000979292
0.000981834
0.000980496
0.000983401
0.000982046
0.000973963
0.000973963
0.000979211
0.000979699
0.000979745
0.000979767
0.000979778
0.000979782
0.000979764
0.0009793
0.000971417
0.000971417
0.000979456
0.00097802
0.000980719
0.000979378
0.000981963
0.000980611
0.000983547
0.000982176
0.000973689
0.000973689
0.000979258
0.000979763
0.000979807
0.000979826
0.000979833
0.000979834
0.000979811
0.000979326
0.000971111
0.000971111
0.00097928
0.000977815
0.000980679
0.00097931
0.000982097
0.000980715
0.000983871
0.000982468
0.000973051
0.000973051
0.000978917
0.000979439
0.000979485
0.0009795
0.000979507
0.000979504
0.000979475
0.000978972
0.000970455
0.000970455
0.000978787
0.000977297
0.00098041
0.000979013
0.000982101
0.000980686
0.000984234
0.000982795
0.000972006
0.000972006
0.00097769
0.000978179
0.000978221
0.000978236
0.00097824
0.000978234
0.000978205
0.000977727
0.000969383
0.000969383
0.000977606
0.000976022
0.000979458
0.000977954
0.00098146
0.000979923
0.000984093
0.000982522
0.000968223
0.000968223
0.000968223
0.000968414
0.000968414
0.000968438
0.000968438
0.000968449
0.000968449
0.000968452
0.000968452
0.000968456
0.000968456
0.000968453
0.000968453
0.000968444
0.000968444
0.000968354
0.000968354
0.00096545
0.00096545
0.00096545
0.00096966
0.00096966
0.00097537
0.000975893
0.000975939
0.000975953
0.000975956
0.000975945
0.000975911
0.000975416
0.00096696
0.00096696
0.000971416
0.000971416
0.000977615
0.000978231
0.000978305
0.000978329
0.000978336
0.000978312
0.000978249
0.000977667
0.000968715
0.000968715
0.000973744
0.000973744
0.000980022
0.000980705
0.000980815
0.000980856
0.00098086
0.000980817
0.000980711
0.000980046
0.000971031
0.000971031
0.00097733
0.00097733
0.000983801
0.000984597
0.000984758
0.000984814
0.000984814
0.000984751
0.000984573
0.000983796
0.000974645
0.000974645
0.000985542
0.000985542
0.000992719
0.000993735
0.000993944
0.000993995
0.000993994
0.000993927
0.000993701
0.000992681
0.000982961
0.000982961
0.00100205
0.00100205
0.00104295
0.0010467
0.00104564
0.00104505
0.00104502
0.00104555
0.00104654
0.00104399
0.00100029
0.00100029
0.00118668
0.00118668
0.00176335
0.00180539
0.00177666
0.00176618
0.00176568
0.00177474
0.00180291
0.00177872
0.00119508
0.00119508
0.00288895
0.00288895
0.00862658
0.00920829
0.00902642
0.00895103
0.00894564
0.00900809
0.00918561
0.00875818
0.00297984
0.00297984
0.0125402
0.0125402
0.0472662
0.052259
0.0523477
0.052254
0.0522268
0.0522617
0.0521626
0.047905
0.0129392
0.0129392
0.000987515
0.000985959
0.000992067
0.000990653
0.00101617
0.00101582
0.00144237
0.00146427
0.0203921
0.021198
0.000986011
0.000984616
0.000988748
0.000987439
0.000994421
0.000993411
0.00125483
0.00126747
0.0217011
0.0225561
0.000984775
0.000983398
0.000986965
0.00098564
0.000990183
0.000989094
0.00123173
0.0012435
0.0231679
0.0241213
0.000984079
0.000982714
0.000986066
0.000984734
0.000988638
0.000987495
0.00122936
0.00124127
0.0239037
0.0249096
0.000983937
0.000982586
0.000986081
0.000984755
0.000988993
0.000987831
0.00136038
0.00137937
0.0241301
0.025165
0.000984241
0.000982927
0.000986794
0.000985457
0.000991746
0.000990666
0.00159124
0.00162142
0.0242467
0.0253122
0.000984961
0.000983657
0.000987645
0.000986285
0.000998407
0.000997433
0.00178764
0.00181896
0.0236971
0.0247245
0.000985789
0.000984408
0.000987654
0.00098618
0.00100773
0.00100676
0.00135976
0.00137248
0.0192917
0.0199688
0.000980202
0.000980202
0.000991188
0.000992455
0.000992715
0.000992814
0.000992828
0.000992716
0.000992517
0.000991368
0.000977573
0.000977573
0.000978819
0.000978819
0.000994791
0.000996467
0.000996686
0.000996753
0.00099675
0.000996701
0.000996536
0.00099495
0.000976146
0.000976146
0.00101299
0.00101299
0.00103927
0.0010427
0.00104361
0.00104389
0.00104387
0.00104367
0.00104273
0.00103969
0.00101072
0.00101072
0.00112726
0.00112726
0.00133241
0.00136445
0.00137023
0.00137198
0.00137204
0.00137044
0.00136545
0.00133732
0.00112904
0.00112904
0.00731508
0.00731508
0.0148418
0.0153488
0.0154804
0.0155248
0.0155262
0.0154893
0.0153747
0.0149449
0.00743404
0.00743404
)
;
        Cmu             0.09;
        kappa           0.41;
        E               9.8;
    }
    lid
    {
        type            epsilonWallFunction;
        value           nonuniform List<scalar> 
100
(
0.0125402
0.0472662
0.052259
0.0523477
0.052254
0.0522268
0.0522617
0.0521626
0.047905
0.0129392
0.0203921
0.131757
0.143534
0.143349
0.142957
0.142902
0.143184
0.143436
0.133533
0.021198
0.0217011
0.135045
0.143877
0.14371
0.143465
0.14344
0.143641
0.143958
0.136892
0.0225561
0.0231679
0.146407
0.155466
0.155697
0.155604
0.155594
0.155681
0.155668
0.148514
0.0241213
0.0239037
0.151534
0.160811
0.161264
0.16126
0.161259
0.161279
0.161079
0.153772
0.0249096
0.0241301
0.151309
0.160464
0.160934
0.160946
0.160947
0.160963
0.160761
0.153573
0.025165
0.0242467
0.147293
0.155918
0.156348
0.156365
0.156367
0.156392
0.15624
0.149504
0.0253122
0.0236971
0.132553
0.139807
0.140393
0.140516
0.140523
0.14046
0.140137
0.134433
0.0247245
0.0192917
0.0883308
0.0925754
0.0932347
0.0934625
0.0934724
0.0932981
0.0927968
0.0893472
0.0199688
0.00731508
0.0148418
0.0153488
0.0154804
0.0155248
0.0155262
0.0154893
0.0153747
0.0149449
0.00743404
)
;
        Cmu             0.09;
        kappa           0.41;
        E               9.8;
    }
}


// ************************************************************************* //
