/*--------------------------------*- C++ -*----------------------------------*\
| =========                 |                                                 |
| \\      /  F ield         | OpenFOAM: The Open Source CFD Toolbox           |
|  \\    /   O peration     | Version:  2.3.1                                 |
|   \\  /    A nd           | Web:      www.OpenFOAM.org                      |
|    \\/     M anipulation  |                                                 |
\*---------------------------------------------------------------------------*/
FoamFile
{
    version     2.0;
    format      ascii;
    class       volVectorField;
    location    "0.7";
    object      U;
}
// * * * * * * * * * * * * * * * * * * * * * * * * * * * * * * * * * * * * * //

dimensions      [0 1 -1 0 0 0 0];

internalField   nonuniform List<vector> 
1000
(
(-0.00119573 0.00208626 0.000465836)
(-0.0016004 0.00174437 0.000393126)
(-0.00164169 0.0017314 0.000126405)
(-0.00168728 0.0017026 0.000131916)
(-0.0016978 0.0017021 5.13958e-05)
(-0.00170243 0.00169866 6.96428e-06)
(-0.00170308 0.00169059 -3.0264e-05)
(-0.00170241 0.00167918 -4.87155e-05)
(-0.00170225 0.00166675 -4.20047e-05)
(-0.00170215 0.00165817 -1.72908e-05)
(-0.00178072 0.00536858 0.000112513)
(-0.00189435 0.00511474 0.000115468)
(-0.00190991 0.00516995 0.000111544)
(-0.00192969 0.00516138 0.000107053)
(-0.00193699 0.00517648 5.02545e-05)
(-0.00194005 0.00517236 -2.98392e-06)
(-0.00193964 0.00514835 -4.8482e-05)
(-0.00193804 0.00510897 -7.13635e-05)
(-0.00193392 0.00506439 -5.35178e-05)
(-0.00189003 0.00502472 -2.04986e-05)
(-0.00224484 0.0090255 0.000100862)
(-0.00233273 0.00909805 0.000172728)
(-0.00234744 0.00920533 0.000171581)
(-0.00235973 0.00927302 0.000138436)
(-0.00236639 0.00931567 6.30168e-05)
(-0.00236851 0.00931439 -2.05694e-05)
(-0.00236653 0.00926887 -9.3213e-05)
(-0.00236288 0.0091871 -0.000132664)
(-0.00235591 0.00909143 -0.000110854)
(-0.00230011 0.00898179 -4.74423e-05)
(-0.00301193 0.0142179 0.000134017)
(-0.00309049 0.0144831 0.000274828)
(-0.00310475 0.014727 0.000287136)
(-0.00311602 0.0149102 0.000217172)
(-0.00312345 0.0150068 9.1497e-05)
(-0.00312507 0.0150086 -4.97541e-05)
(-0.00312089 0.0149158 -0.000175679)
(-0.00311438 0.0147334 -0.000249548)
(-0.0031046 0.0144982 -0.000236058)
(-0.00303683 0.0142041 -0.000108288)
(-0.00441459 0.0161938 0.00036736)
(-0.00453933 0.0164125 0.000649506)
(-0.00457613 0.0164907 0.000599595)
(-0.00460129 0.0165852 0.000417755)
(-0.00461614 0.0166356 0.000161221)
(-0.00461778 0.0166351 -0.00011149)
(-0.00460626 0.0165844 -0.000368072)
(-0.00458492 0.0164863 -0.000551424)
(-0.00455213 0.0164093 -0.000608905)
(-0.00443167 0.0161796 -0.000348306)
(-0.00445555 0.00153133 8.05434e-05)
(-0.00477247 0.00154817 7.32846e-05)
(-0.00477168 0.00156932 7.1114e-05)
(-0.0048281 0.00156682 8.24435e-05)
(-0.0048424 0.00156976 3.98044e-05)
(-0.00484899 0.0015679 3.0638e-06)
(-0.0048479 0.00156064 -2.98304e-05)
(-0.00484287 0.00154948 -4.81229e-05)
(-0.00483714 0.00153406 -5.10231e-05)
(-0.00481148 0.00148202 -2.33908e-05)
(-0.00526147 0.00449294 5.18771e-05)
(-0.00536986 0.00456684 7.7726e-05)
(-0.00537585 0.00463343 9.46942e-05)
(-0.00540393 0.00465685 8.6785e-05)
(-0.00541656 0.00467489 4.34471e-05)
(-0.00542123 0.00467292 -4.08618e-06)
(-0.00541775 0.00465094 -4.61909e-05)
(-0.00540984 0.00461346 -6.93914e-05)
(-0.00539731 0.00456694 -6.41628e-05)
(-0.00532445 0.00447879 -2.78749e-05)
(-0.00634395 0.00791961 7.99489e-05)
(-0.00646705 0.00804427 0.000152088)
(-0.00649299 0.00814914 0.000157068)
(-0.00651962 0.00822364 0.00012447)
(-0.00653512 0.00826538 5.71002e-05)
(-0.00653883 0.00826497 -1.95213e-05)
(-0.00653094 0.00822238 -8.76969e-05)
(-0.00651599 0.00814435 -0.000127361)
(-0.00649484 0.0080506 -0.000123901)
(-0.00640455 0.00792801 -5.71816e-05)
(-0.0082236 0.0121873 0.000141507)
(-0.00835611 0.0124629 0.000285054)
(-0.00839575 0.0126853 0.000274517)
(-0.00843048 0.0128549 0.000203303)
(-0.00845199 0.0129431 8.49885e-05)
(-0.00845531 0.0129449 -4.67282e-05)
(-0.00844028 0.0128609 -0.000166394)
(-0.00841356 0.0126954 -0.000241781)
(-0.00837949 0.0124831 -0.00025819)
(-0.00825951 0.0122053 -0.000126151)
(-0.0115306 0.0139628 0.000343131)
(-0.0117654 0.0143597 0.000623379)
(-0.0118686 0.0144982 0.000551401)
(-0.0119475 0.014616 0.000382006)
(-0.011992 0.0146739 0.000146892)
(-0.0119959 0.0146739 -0.00010155)
(-0.0119594 0.0146165 -0.000337038)
(-0.011889 0.0144983 -0.000508048)
(-0.0117941 0.0143651 -0.000589318)
(-0.0115667 0.0139647 -0.000328534)
(-0.00745849 0.00120685 8.29669e-05)
(-0.00752951 0.0012151 0.000112217)
(-0.00752695 0.00122412 7.22474e-05)
(-0.00755808 0.00122619 6.2515e-05)
(-0.00757232 0.00122897 3.16347e-05)
(-0.00757737 0.00122788 2.01731e-06)
(-0.00757262 0.00122221 -2.41189e-05)
(-0.00756078 0.00121319 -3.93377e-05)
(-0.00754579 0.00120056 -4.48679e-05)
(-0.00748612 0.00115721 -2.16774e-05)
(-0.00821644 0.00353838 5.33304e-05)
(-0.00828018 0.00357408 8.91954e-05)
(-0.0082964 0.00361203 8.38907e-05)
(-0.00832413 0.00363397 6.95179e-05)
(-0.00834048 0.00364823 3.51564e-05)
(-0.00834491 0.003647 -3.13214e-06)
(-0.00833698 0.00362944 -3.71067e-05)
(-0.00832021 0.00359901 -5.65705e-05)
(-0.00829913 0.00356045 -5.64065e-05)
(-0.00823414 0.0034823 -2.59502e-05)
(-0.00973288 0.006108 6.60458e-05)
(-0.00982019 0.00620674 0.000130654)
(-0.00985865 0.00628712 0.000129642)
(-0.00989671 0.00634851 0.000100211)
(-0.00991992 0.00638205 4.60057e-05)
(-0.00992411 0.00638177 -1.54885e-05)
(-0.00990903 0.00634732 -7.06733e-05)
(-0.00987972 0.00628357 -0.000103809)
(-0.00984436 0.0062051 -0.000105994)
(-0.00976515 0.00609432 -5.01658e-05)
(-0.0122526 0.00910503 0.000118927)
(-0.0123811 0.00934275 0.000239461)
(-0.0124507 0.00951599 0.000225187)
(-0.0125122 0.00964708 0.000164587)
(-0.0125485 0.00971475 6.85768e-05)
(-0.0125529 0.00971595 -3.75602e-05)
(-0.0125249 0.00965105 -0.000134907)
(-0.0124719 0.00952294 -0.000198393)
(-0.0124085 0.00935523 -0.000218279)
(-0.0122857 0.00911502 -0.000108351)
(-0.0162603 0.0105787 0.000273969)
(-0.0165039 0.0109382 0.000502818)
(-0.0166586 0.0110809 0.000434287)
(-0.0167842 0.0111889 0.000298794)
(-0.0168534 0.0112408 0.000114786)
(-0.0168588 0.0112407 -7.90773e-05)
(-0.0168008 0.011189 -0.000263523)
(-0.0166863 0.0110814 -0.000400409)
(-0.0165421 0.0109434 -0.000477361)
(-0.0163055 0.0105822 -0.000263816)
(-0.00931266 0.000761115 3.55701e-05)
(-0.00944007 0.0007775 5.52047e-05)
(-0.00946766 0.000783247 4.43737e-05)
(-0.00949971 0.00078635 3.72127e-05)
(-0.00951757 0.000788398 2.05831e-05)
(-0.00952234 0.000787748 2.78904e-06)
(-0.0095143 0.000784127 -1.32649e-05)
(-0.00949666 0.000778371 -2.29205e-05)
(-0.0094744 0.000770607 -2.74643e-05)
(-0.00939415 0.000745085 -1.36077e-05)
(-0.0102378 0.0022554 2.79843e-05)
(-0.0103352 0.00229118 5.23832e-05)
(-0.0103691 0.0023144 5.31859e-05)
(-0.0104032 0.00233077 4.36814e-05)
(-0.0104241 0.00234018 2.31938e-05)
(-0.0104286 0.00233939 -3.54907e-07)
(-0.0104167 0.00232801 -2.14757e-05)
(-0.0103927 0.00230833 -3.36311e-05)
(-0.0103632 0.00228359 -3.29141e-05)
(-0.0102809 0.00223625 -1.45325e-05)
(-0.0120169 0.00388493 3.7612e-05)
(-0.0121239 0.0039501 7.92668e-05)
(-0.0121781 0.00400179 8.23895e-05)
(-0.0122273 0.00404237 6.39419e-05)
(-0.0122571 0.00406413 3.01446e-05)
(-0.0122616 0.00406377 -8.45345e-06)
(-0.0122407 0.00404119 -4.33247e-05)
(-0.0122003 0.00399939 -6.43443e-05)
(-0.0121522 0.00394764 -6.40212e-05)
(-0.0120528 0.00387775 -2.88985e-05)
(-0.0148279 0.00566019 7.19082e-05)
(-0.014987 0.00580819 0.000149924)
(-0.0150809 0.00591704 0.000144984)
(-0.0151616 0.00599904 0.000106058)
(-0.0152085 0.00604117 4.46967e-05)
(-0.0152135 0.00604163 -2.30801e-05)
(-0.0151762 0.0060005 -8.55686e-05)
(-0.0151048 0.00591998 -0.000126733)
(-0.0150186 0.00581387 -0.000136334)
(-0.0148644 0.00566492 -6.56149e-05)
(-0.0189165 0.00665805 0.000163505)
(-0.0192052 0.00688662 0.00031033)
(-0.0193895 0.00699448 0.000273079)
(-0.019538 0.0070708 0.000187934)
(-0.0196196 0.00710702 7.26796e-05)
(-0.0196258 0.00710654 -4.90248e-05)
(-0.0195565 0.00706995 -0.000164828)
(-0.0194203 0.0069939 -0.000251078)
(-0.0192475 0.00688873 -0.000294596)
(-0.0189647 0.00665941 -0.000157594)
(-0.0103843 0.000294641 1.21537e-05)
(-0.0104891 0.000300653 1.87393e-05)
(-0.0105224 0.000302043 1.45829e-05)
(-0.0105535 0.000302745 1.26598e-05)
(-0.0105726 0.000303111 9.02112e-06)
(-0.0105768 0.000302676 5.29767e-06)
(-0.0105661 0.000301335 1.53362e-06)
(-0.0105443 0.000299333 -1.33582e-06)
(-0.0105173 0.000296626 -4.74667e-06)
(-0.0104273 0.00028773 -3.01793e-06)
(-0.0113484 0.000878729 9.46749e-06)
(-0.0114449 0.000890988 1.70728e-05)
(-0.0114856 0.000898198 1.69634e-05)
(-0.011523 0.000903357 1.45974e-05)
(-0.0115464 0.000906082 9.76158e-06)
(-0.0115506 0.000905397 4.23584e-06)
(-0.0115356 0.000901108 -1.15823e-06)
(-0.0115064 0.000893997 -4.88023e-06)
(-0.0114715 0.00088497 -6.12455e-06)
(-0.0113823 0.000868295 -2.92966e-06)
(-0.0132302 0.00151801 1.23924e-05)
(-0.013341 0.00154182 2.57477e-05)
(-0.0134036 0.00156098 2.66761e-05)
(-0.0134598 0.00157571 2.12111e-05)
(-0.0134939 0.00158325 1.17123e-05)
(-0.0134984 0.00158259 9.25712e-07)
(-0.0134731 0.00157364 -9.29113e-06)
(-0.0134251 0.00155748 -1.62385e-05)
(-0.0133688 0.0015371 -1.75393e-05)
(-0.0132625 0.00151095 -8.07883e-06)
(-0.0161322 0.0022044 2.54665e-05)
(-0.016299 0.00226174 5.29312e-05)
(-0.0164061 0.00230507 5.06231e-05)
(-0.0164983 0.00233676 3.68895e-05)
(-0.0165519 0.00235255 1.6723e-05)
(-0.016557 0.00235212 -5.23492e-06)
(-0.0165134 0.00233561 -2.60952e-05)
(-0.0164306 0.00230336 -4.1187e-05)
(-0.0163313 0.00226011 -4.62605e-05)
(-0.0161683 0.00220199 -2.24524e-05)
(-0.020112 0.00262279 6.13347e-05)
(-0.0203982 0.00271997 0.000117018)
(-0.0205912 0.00277342 0.000101449)
(-0.0207489 0.00280853 6.85599e-05)
(-0.0208362 0.0028244 2.70305e-05)
(-0.0208425 0.00282358 -1.5941e-05)
(-0.0207676 0.00280625 -5.78988e-05)
(-0.0206223 0.00277029 -9.16396e-05)
(-0.0204405 0.00271746 -0.000110328)
(-0.0201591 0.00261962 -5.88514e-05)
(-0.0104909 -0.000184647 -5.55913e-06)
(-0.0105904 -0.000193468 -1.56677e-05)
(-0.0106265 -0.000197356 -1.78327e-05)
(-0.0106582 -0.000200503 -1.29021e-05)
(-0.0106779 -0.000202464 -2.70638e-06)
(-0.0106815 -0.000202859 9.28275e-06)
(-0.010669 -0.00020172 1.91813e-05)
(-0.0106444 -0.000199448 2.38615e-05)
(-0.0106142 -0.0001965 2.13865e-05)
(-0.0105214 -0.0001886 9.04614e-06)
(-0.0114694 -0.000541904 -7.3377e-06)
(-0.0115669 -0.000558632 -2.00449e-05)
(-0.0116121 -0.000569033 -2.34838e-05)
(-0.0116525 -0.000577856 -1.72125e-05)
(-0.0116775 -0.000583182 -4.45835e-06)
(-0.0116813 -0.000584029 1.04165e-05)
(-0.0116639 -0.000580441 2.27672e-05)
(-0.0116306 -0.000573397 2.86013e-05)
(-0.011591 -0.000564799 2.45154e-05)
(-0.0114977 -0.000549826 9.95007e-06)
(-0.0133875 -0.000898715 -1.32559e-05)
(-0.0135045 -0.000919407 -3.24217e-05)
(-0.0135752 -0.000935751 -3.58567e-05)
(-0.0136376 -0.000950077 -2.64342e-05)
(-0.0136749 -0.000958478 -8.39667e-06)
(-0.0136791 -0.000959663 1.2363e-05)
(-0.0136501 -0.000953585 3.00005e-05)
(-0.0135954 -0.000941569 3.89802e-05)
(-0.0135308 -0.000927312 3.48218e-05)
(-0.013417 -0.000908093 1.46288e-05)
(-0.01633 -0.00122152 -2.30985e-05)
(-0.0165106 -0.00125094 -5.20246e-05)
(-0.0166319 -0.00127283 -5.42012e-05)
(-0.0167352 -0.00129225 -3.99113e-05)
(-0.0167944 -0.00130339 -1.39778e-05)
(-0.0167994 -0.00130477 1.53878e-05)
(-0.01675 -0.00129631 4.09644e-05)
(-0.0166559 -0.00127949 5.49312e-05)
(-0.0165423 -0.00125986 5.24275e-05)
(-0.016365 -0.00123157 2.34502e-05)
(-0.020295 -0.00141509 -3.67052e-05)
(-0.0205993 -0.00144297 -7.72659e-05)
(-0.02081 -0.00145349 -7.76332e-05)
(-0.0209815 -0.00146583 -5.72061e-05)
(-0.0210756 -0.00147328 -2.09611e-05)
(-0.0210818 -0.00147466 1.95204e-05)
(-0.021 -0.00146982 5.55035e-05)
(-0.0208406 -0.00145983 7.57933e-05)
(-0.020641 -0.00145152 7.56711e-05)
(-0.0203411 -0.00142445 3.62103e-05)
(-0.00963157 -0.000663909 -2.14142e-05)
(-0.00972339 -0.000690561 -4.90212e-05)
(-0.00975948 -0.000701166 -5.10625e-05)
(-0.00979066 -0.000709316 -3.87611e-05)
(-0.00980993 -0.000714164 -1.42811e-05)
(-0.00981295 -0.000714603 1.42361e-05)
(-0.00979959 -0.000710662 3.86296e-05)
(-0.00977395 -0.000703376 5.14342e-05)
(-0.00974245 -0.000693751 4.97475e-05)
(-0.00965388 -0.000667426 2.20712e-05)
(-0.0105844 -0.00196955 -2.51859e-05)
(-0.0106819 -0.00202143 -6.01605e-05)
(-0.0107301 -0.00205314 -6.69575e-05)
(-0.010772 -0.00207893 -5.07876e-05)
(-0.0107973 -0.00209374 -1.90259e-05)
(-0.0108006 -0.00209487 1.78564e-05)
(-0.0107817 -0.00208235 4.9545e-05)
(-0.0107458 -0.00205879 6.61514e-05)
(-0.0107024 -0.00202936 5.98657e-05)
(-0.0106074 -0.00197847 2.5333e-05)
(-0.0124844 -0.00334296 -4.36292e-05)
(-0.0126115 -0.00341757 -9.95877e-05)
(-0.012691 -0.00347624 -0.000105781)
(-0.0127588 -0.00352461 -7.86252e-05)
(-0.0127983 -0.00355135 -2.98061e-05)
(-0.0128021 -0.00355313 2.57523e-05)
(-0.01277 -0.00353001 7.45258e-05)
(-0.0127091 -0.00348522 0.000102168)
(-0.0126353 -0.00342998 9.70671e-05)
(-0.0125107 -0.00335685 4.2798e-05)
(-0.0154614 -0.00470294 -8.27346e-05)
(-0.0156722 -0.00483459 -0.000176711)
(-0.0158146 -0.00493154 -0.000174013)
(-0.0159313 -0.00500883 -0.000125862)
(-0.0159961 -0.00504988 -4.74705e-05)
(-0.0160007 -0.00505225 3.92362e-05)
(-0.0159451 -0.00501601 0.000117506)
(-0.0158374 -0.00494366 0.000166189)
(-0.0157029 -0.00485171 0.00017107)
(-0.0154952 -0.00472199 8.07251e-05)
(-0.0195786 -0.00561001 -0.000155343)
(-0.0199575 -0.00579938 -0.000306556)
(-0.0202107 -0.00589469 -0.000281073)
(-0.0204084 -0.0059685 -0.000197328)
(-0.0205129 -0.00600525 -7.32926e-05)
(-0.0205186 -0.00600734 5.97138e-05)
(-0.020426 -0.00597484 0.000183466)
(-0.0202406 -0.00590548 0.000267389)
(-0.0199997 -0.00581624 0.000296538)
(-0.0196256 -0.00562826 0.000151966)
(-0.00782384 -0.00112106 -3.58045e-05)
(-0.00789772 -0.00116974 -8.05194e-05)
(-0.00792972 -0.00118885 -8.30584e-05)
(-0.00795717 -0.00120308 -6.33094e-05)
(-0.00797411 -0.00121122 -2.5004e-05)
(-0.0079764 -0.00121176 1.96194e-05)
(-0.007964 -0.0012047 5.81468e-05)
(-0.00794063 -0.00119156 7.90327e-05)
(-0.00791215 -0.00117366 7.78627e-05)
(-0.00784001 -0.00112511 3.4904e-05)
(-0.00868241 -0.00335041 -4.62985e-05)
(-0.00877036 -0.00344602 -0.000104566)
(-0.00881692 -0.0035039 -0.000111795)
(-0.00885606 -0.00354982 -8.43438e-05)
(-0.00887933 -0.00357537 -3.30912e-05)
(-0.00888192 -0.00357686 2.60181e-05)
(-0.00886372 -0.00355433 7.75064e-05)
(-0.00882929 -0.00351147 0.00010606)
(-0.00878669 -0.00345668 0.000100668)
(-0.00870033 -0.00336204 4.48763e-05)
(-0.0104536 -0.00577675 -8.37516e-05)
(-0.0105825 -0.00592246 -0.000180651)
(-0.0106662 -0.00603433 -0.000182643)
(-0.0107343 -0.00612365 -0.000133825)
(-0.0107726 -0.00617154 -5.16143e-05)
(-0.0107757 -0.00617402 4.06147e-05)
(-0.0107435 -0.00613119 0.000122982)
(-0.0106814 -0.00604716 0.000172931)
(-0.0106029 -0.00594062 0.000173804)
(-0.010476 -0.00579699 8.1206e-05)
(-0.0133692 -0.00831726 -0.000166367)
(-0.0136122 -0.00859454 -0.000337225)
(-0.0137745 -0.00878931 -0.00031356)
(-0.0138999 -0.00893827 -0.00022155)
(-0.0139665 -0.00901443 -8.3377e-05)
(-0.0139704 -0.00901773 6.6376e-05)
(-0.0139118 -0.0089488 0.000204407)
(-0.0137948 -0.00880769 0.000297143)
(-0.0136408 -0.00862176 0.00032548)
(-0.0134011 -0.00834795 0.000162201)
(-0.0176963 -0.0102496 -0.000332953)
(-0.0182056 -0.0107286 -0.000621543)
(-0.0185177 -0.0109635 -0.000529225)
(-0.0187437 -0.0111319 -0.000359549)
(-0.018856 -0.0112106 -0.000131179)
(-0.018861 -0.0112135 0.000106372)
(-0.0187595 -0.0111414 0.000333587)
(-0.0185459 -0.0109808 0.000502571)
(-0.0182489 -0.0107594 0.000601742)
(-0.0177451 -0.0102831 0.00032638)
(-0.00512472 -0.00151245 -4.44289e-05)
(-0.00516415 -0.00157641 -0.000102209)
(-0.00518543 -0.00160364 -0.000108644)
(-0.00520422 -0.00162395 -8.30666e-05)
(-0.00521591 -0.00163529 -3.3495e-05)
(-0.00521733 -0.00163593 2.43446e-05)
(-0.00520843 -0.00162587 7.43259e-05)
(-0.00519221 -0.00160693 0.000101502)
(-0.00517308 -0.00158116 9.73169e-05)
(-0.00513471 -0.0015174 4.25846e-05)
(-0.00577134 -0.00456282 -6.07004e-05)
(-0.00587193 -0.00469052 -0.000138284)
(-0.0059109 -0.00477539 -0.00015026)
(-0.00594017 -0.00484198 -0.000112911)
(-0.00595734 -0.0048782 -4.47618e-05)
(-0.00595901 -0.00488004 3.34589e-05)
(-0.00594517 -0.00484756 0.000101995)
(-0.00591912 -0.00478494 0.0001409)
(-0.00588308 -0.00470414 0.000131731)
(-0.00578313 -0.0045778 5.81421e-05)
(-0.00718632 -0.00803056 -0.000120634)
(-0.00734751 -0.0082486 -0.000256043)
(-0.00742528 -0.00842165 -0.000255802)
(-0.00748126 -0.00855596 -0.00018475)
(-0.00751152 -0.00862593 -7.10699e-05)
(-0.00751359 -0.00862897 5.48365e-05)
(-0.00748754 -0.00856561 0.000168659)
(-0.00743597 -0.00843847 0.000241021)
(-0.00736281 -0.00827322 0.000245517)
(-0.0072027 -0.00805841 0.000116695)
(-0.00975678 -0.0119485 -0.00026184)
(-0.0100842 -0.0124161 -0.000513799)
(-0.0102514 -0.0127361 -0.000460279)
(-0.0103643 -0.0129703 -0.000317363)
(-0.0104202 -0.013085 -0.000117719)
(-0.0104228 -0.0130893 9.3796e-05)
(-0.0103728 -0.012984 0.000292682)
(-0.0102668 -0.0127611 0.000435747)
(-0.0101084 -0.0124557 0.000495772)
(-0.00978355 -0.011994 0.000255473)
(-0.0142474 -0.0156637 -0.000582055)
(-0.0150325 -0.0166699 -0.00103635)
(-0.0153943 -0.0171486 -0.000817773)
(-0.0156177 -0.0174728 -0.000534681)
(-0.0157171 -0.0176135 -0.000190211)
(-0.0157204 -0.0176173 0.000155988)
(-0.0156291 -0.017487 0.000497713)
(-0.0154173 -0.017176 0.000776555)
(-0.0150756 -0.016725 0.00100467)
(-0.0142963 -0.0157261 0.000571915)
(-0.00183553 -0.00175657 -4.36967e-05)
(-0.00184115 -0.00178298 -0.000104213)
(-0.00184801 -0.00181191 -0.000120695)
(-0.00185466 -0.00183567 -9.29356e-05)
(-0.00185892 -0.00184885 -3.78161e-05)
(-0.00185946 -0.00184952 2.68422e-05)
(-0.00185625 -0.0018377 8.24752e-05)
(-0.00185057 -0.00181539 0.00011207)
(-0.00184452 -0.00178791 9.81748e-05)
(-0.00183938 -0.00176215 4.12907e-05)
(-0.00209242 -0.005359 -6.51345e-05)
(-0.00214973 -0.0054694 -0.000149731)
(-0.00216636 -0.00557292 -0.000172221)
(-0.00217766 -0.00565425 -0.000129096)
(-0.00218429 -0.00569755 -5.12828e-05)
(-0.00218495 -0.00569954 3.79342e-05)
(-0.00217963 -0.00566039 0.000116142)
(-0.00216965 -0.00558358 0.000160966)
(-0.00215435 -0.00548493 0.000141595)
(-0.00209709 -0.0053767 6.18801e-05)
(-0.00269268 -0.0097142 -0.000147972)
(-0.00278751 -0.0100268 -0.000305033)
(-0.0028236 -0.0102611 -0.000306734)
(-0.00284704 -0.0104324 -0.000217929)
(-0.00285935 -0.0105182 -8.31468e-05)
(-0.00286015 -0.0105216 6.42297e-05)
(-0.00284953 -0.0104432 0.00019894)
(-0.00282795 -0.0102808 0.000288756)
(-0.00279412 -0.0100574 0.000291799)
(-0.00269954 -0.00974925 0.000143075)
(-0.00389013 -0.0153245 -0.000370095)
(-0.00408419 -0.0161256 -0.00068003)
(-0.0041686 -0.0165978 -0.000581105)
(-0.00421957 -0.0169117 -0.000387146)
(-0.00424335 -0.0170558 -0.000140762)
(-0.00424443 -0.0170604 0.000113143)
(-0.0042229 -0.0169272 0.000357844)
(-0.0041751 -0.0166282 0.000549782)
(-0.0040955 -0.01618 0.000656146)
(-0.0039024 -0.0153876 0.000362083)
(-0.00631307 -0.02302 -0.000961932)
(-0.0068225 -0.0252968 -0.00157098)
(-0.00702797 -0.0262025 -0.00110136)
(-0.00713843 -0.0267283 -0.000678127)
(-0.00718295 -0.0269282 -0.00023224)
(-0.00718407 -0.0269326 0.000193234)
(-0.00714292 -0.0267457 0.000633068)
(-0.00703836 -0.0262419 0.00104369)
(-0.0068455 -0.0253974 0.00152436)
(-0.00633903 -0.0231373 0.000948107)
(-0.0118596 -0.0376375 -0.00268065)
(-0.0135141 -0.0423453 -0.00390771)
(-0.0140699 -0.0439918 -0.00203519)
(-0.0143359 -0.044905 -0.0011188)
(-0.0144222 -0.0452236 -0.000346316)
(-0.0144239 -0.0452301 0.000296785)
(-0.0143424 -0.0449302 0.00105406)
(-0.0140893 -0.0440517 0.00191859)
(-0.0135751 -0.0425275 0.00380516)
(-0.0119309 -0.0378505 0.00265661)
(-0.0211633 -0.0404675 -0.00613505)
(-0.0246886 -0.0586213 -0.0082941)
(-0.0256289 -0.0609002 -0.00366215)
(-0.0259784 -0.061338 -0.00188029)
(-0.0260395 -0.0611647 -0.000542968)
(-0.0260379 -0.0611488 0.000474469)
(-0.0259781 -0.0613041 0.0017836)
(-0.0256439 -0.0608828 0.00344276)
(-0.0247905 -0.0589853 0.00809024)
(-0.0212808 -0.0408904 0.00609441)
(-0.0393903 -0.110848 -0.0183129)
(-0.0461678 -0.146279 -0.0203189)
(-0.0487485 -0.152311 -0.00444363)
(-0.0499396 -0.152492 -0.00142327)
(-0.0501451 -0.152397 -0.000199406)
(-0.050143 -0.152385 0.000191518)
(-0.0499472 -0.152452 0.0013595)
(-0.0488078 -0.152311 0.00402984)
(-0.0463527 -0.147004 0.0198635)
(-0.0396948 -0.111736 0.0182274)
(-0.0300633 -0.0424527 -0.0265676)
(0.00104148 -0.136817 -0.0212301)
(-0.00223374 -0.134588 -0.00660321)
(-0.00476932 -0.12551 -0.00183368)
(-0.00544474 -0.122575 -0.000426321)
(-0.00545428 -0.122501 0.000395246)
(-0.00483712 -0.125198 0.00175253)
(-0.00237221 -0.134113 0.00625647)
(0.00133204 -0.1378 0.0207273)
(-0.0296451 -0.0438212 0.0262955)
(0.187513 -0.327687 0.0275035)
(0.237257 -0.490851 0.0297702)
(0.244166 -0.501153 0.00810344)
(0.244527 -0.495441 0.00307581)
(0.24442 -0.493191 0.000650424)
(0.2444 -0.493113 -0.000603729)
(0.244464 -0.495165 -0.00294917)
(0.244157 -0.500888 -0.00747353)
(0.238136 -0.492577 -0.0291102)
(0.18879 -0.330879 -0.0272908)
(-0.0224239 -0.024492 -0.00124319)
(-0.0246468 -0.0264729 -0.00202217)
(-0.0254672 -0.0275549 -0.00127992)
(-0.0259302 -0.0282943 -0.000783221)
(-0.0261049 -0.02861 -0.000262082)
(-0.0261089 -0.0286191 0.000220149)
(-0.0259464 -0.028325 0.000734769)
(-0.0255042 -0.0276143 0.00121323)
(-0.0247393 -0.0265864 0.00196813)
(-0.0225321 -0.0246314 0.00122943)
(-0.0357643 -0.00881371 -0.00286066)
(-0.0400819 -0.0120102 -0.00435134)
(-0.0414444 -0.0121299 -0.00268692)
(-0.0421589 -0.0121754 -0.0015931)
(-0.0423855 -0.01208 -0.000514408)
(-0.0423891 -0.012074 0.000440523)
(-0.0421737 -0.0121646 0.00150553)
(-0.041486 -0.0121084 0.00255948)
(-0.0402282 -0.0120508 0.00423903)
(-0.0359312 -0.00884535 0.00282726)
(-0.0502155 -0.036411 -0.0032409)
(-0.0657016 -0.0467995 -0.00437414)
(-0.0680203 -0.0498226 -0.00112115)
(-0.0689232 -0.0517538 -0.000573434)
(-0.0690195 -0.0524257 -0.00011775)
(-0.0690146 -0.0524437 9.84171e-05)
(-0.0689201 -0.0518178 0.000548617)
(-0.0680601 -0.0499463 0.00101922)
(-0.0660451 -0.0470868 0.00427351)
(-0.0506432 -0.0368033 0.00323148)
(-0.121434 0.0388191 -0.0146896)
(-0.138888 0.0392594 -0.0163516)
(-0.147092 0.0429394 -0.00698492)
(-0.150035 0.0464812 -0.00382349)
(-0.150724 0.0475727 -0.00112209)
(-0.150719 0.047598 0.000973174)
(-0.15005 0.0465817 0.00364727)
(-0.14719 0.0431282 0.00669789)
(-0.13931 0.0394643 0.0160357)
(-0.12216 0.0391538 0.0145683)
(0.185283 0.00987633 0.0164796)
(0.269309 -0.0650928 0.0194111)
(0.27708 -0.0649423 0.00597394)
(0.277412 -0.0602098 0.0024345)
(0.277117 -0.0583195 0.00054045)
(0.277094 -0.05829 -0.000492345)
(0.277349 -0.0601312 -0.0023269)
(0.277114 -0.0649688 -0.00560148)
(0.270387 -0.0657793 -0.0190365)
(0.187069 0.00871102 -0.0163906)
(-0.0233958 -0.015794 -0.000582437)
(-0.0245445 -0.0167287 -0.0010117)
(-0.0250958 -0.017329 -0.000721943)
(-0.0254697 -0.0177652 -0.000469202)
(-0.0256389 -0.0179705 -0.000165033)
(-0.0256445 -0.0179773 0.000135606)
(-0.0254894 -0.0177893 0.000437703)
(-0.0251326 -0.017373 0.000683917)
(-0.0246121 -0.0168002 0.000982613)
(-0.0234717 -0.0158825 0.000574784)
(-0.0340075 -0.0040516 -0.00139956)
(-0.0362471 -0.00485951 -0.00224822)
(-0.0373877 -0.00469096 -0.00160418)
(-0.0381509 -0.00457262 -0.00101255)
(-0.0384771 -0.00447226 -0.000346503)
(-0.0384866 -0.00446759 0.000290227)
(-0.0381827 -0.00456203 0.000948705)
(-0.0374496 -0.00466924 0.00152819)
(-0.0363662 -0.00484916 0.00218358)
(-0.0341491 -0.00402692 0.00137757)
(-0.0288624 -0.0213469 -0.000850797)
(-0.0324954 -0.0240352 -0.00114375)
(-0.0330619 -0.0247875 -0.000332577)
(-0.0334439 -0.02546 -0.000208256)
(-0.0335315 -0.0257194 -4.78556e-05)
(-0.0335324 -0.0257327 3.59498e-05)
(-0.0334545 -0.0255025 0.000196982)
(-0.0330807 -0.0248615 0.000300334)
(-0.0325926 -0.0241669 0.00111627)
(-0.0289583 -0.0215298 0.000850902)
(-0.0569784 0.021373 -0.00522111)
(-0.0636284 0.0291441 -0.0066783)
(-0.0676093 0.0317411 -0.00329571)
(-0.0701374 0.033247 -0.00202172)
(-0.0710484 0.0336726 -0.000638287)
(-0.071068 0.0336826 0.000524424)
(-0.0702096 0.0332913 0.0018936)
(-0.0677486 0.0318424 0.00312172)
(-0.0638856 0.0294002 0.00650496)
(-0.0573356 0.0216987 0.00515415)
(0.17049 0.0260689 0.00677891)
(0.234871 0.0216491 0.00717863)
(0.240342 0.024896 0.00215678)
(0.24116 0.0263794 0.000854032)
(0.241266 0.0268806 0.000167577)
(0.241263 0.0268728 -0.000147166)
(0.241155 0.0263494 -0.000806395)
(0.240448 0.0248003 -0.00202216)
(0.235778 0.0215827 -0.00704971)
(0.172011 0.0259968 -0.00674906)
(-0.0242804 -0.00844296 -0.000231144)
(-0.0249532 -0.00884406 -0.000432666)
(-0.02532 -0.00913272 -0.000344646)
(-0.0255914 -0.00935267 -0.000236795)
(-0.0257267 -0.00946221 -8.63545e-05)
(-0.0257329 -0.00946706 6.97126e-05)
(-0.0256106 -0.00936814 0.000219707)
(-0.0253535 -0.00916014 0.000326166)
(-0.0250061 -0.00888549 0.000418824)
(-0.0243385 -0.00849334 0.000227147)
(-0.0335336 -0.00205097 -0.000604101)
(-0.0348309 -0.00220315 -0.00102488)
(-0.0356591 -0.00205358 -0.000805932)
(-0.036259 -0.00196753 -0.000532276)
(-0.0365483 -0.00191244 -0.00018931)
(-0.0365587 -0.00191012 0.000155155)
(-0.0362946 -0.00196211 0.000495413)
(-0.0357228 -0.00204184 0.000765479)
(-0.0349319 -0.00219117 0.000991662)
(-0.0336536 -0.00203243 0.000592547)
(-0.0272965 -0.0108108 -0.000156513)
(-0.028512 -0.0122648 -0.000230204)
(-0.0287274 -0.0127385 -7.91204e-05)
(-0.0288924 -0.0131055 -8.72955e-05)
(-0.028937 -0.0132569 -2.67087e-05)
(-0.0289383 -0.013266 1.83462e-05)
(-0.0289004 -0.0131353 8.04732e-05)
(-0.0287387 -0.0127909 6.91361e-05)
(-0.0285511 -0.0123521 0.000221298)
(-0.0273283 -0.0109238 0.00015544)
(-0.045667 0.00601318 -0.00229684)
(-0.0442352 0.00856488 -0.00318077)
(-0.0455042 0.00935086 -0.00169994)
(-0.0466873 0.00980814 -0.00106866)
(-0.0471864 0.00993322 -0.00035573)
(-0.0472049 0.0099379 0.000281362)
(-0.0467485 0.00982813 0.000986952)
(-0.0456067 0.00939446 0.0015993)
(-0.0443557 0.00866413 0.00308722)
(-0.0458187 0.0061262 0.00226014)
(0.156206 0.0091391 0.00189406)
(0.21767 0.00508777 0.00188994)
(0.222598 0.00589631 0.000539794)
(0.223363 0.00625846 0.000193749)
(0.223497 0.00639825 2.57007e-05)
(0.223498 0.00639291 -1.70106e-05)
(0.223376 0.00623829 -0.000174628)
(0.222724 0.00583939 -0.000498154)
(0.218525 0.00501338 -0.00185548)
(0.157671 0.00903205 -0.00188863)
(-0.0245594 -0.00196044 -3.95528e-05)
(-0.0250267 -0.00200614 -8.1741e-05)
(-0.025296 -0.00204889 -7.75666e-05)
(-0.0255076 -0.00209335 -5.99265e-05)
(-0.0256192 -0.00211879 -2.28664e-05)
(-0.0256254 -0.00212107 1.89083e-05)
(-0.0255264 -0.00210011 5.60215e-05)
(-0.0253276 -0.00205997 7.36462e-05)
(-0.0250726 -0.00202072 7.85174e-05)
(-0.0246096 -0.00197816 3.85477e-05)
(-0.0333851 -0.000648608 -9.3091e-05)
(-0.0344069 -0.000590092 -0.000171501)
(-0.035114 -0.00050687 -0.000169726)
(-0.0356385 -0.000467174 -0.000129098)
(-0.035902 -0.000448378 -4.93155e-05)
(-0.0359135 -0.000448307 3.87316e-05)
(-0.0356752 -0.000466689 0.000118453)
(-0.0351788 -0.000504824 0.000159772)
(-0.0345042 -0.000585777 0.000162819)
(-0.0334985 -0.000643005 8.94614e-05)
(-0.0272904 -0.00355945 7.73206e-05)
(-0.0279045 -0.00362896 0.000110248)
(-0.0280337 -0.00369232 5.16323e-05)
(-0.0281572 -0.00380965 -1.0587e-07)
(-0.0282028 -0.00387544 -3.66176e-06)
(-0.0282051 -0.00388147 3.69568e-07)
(-0.0281664 -0.00382871 -1.64836e-06)
(-0.0280468 -0.00372395 -5.13839e-05)
(-0.0279324 -0.00366749 -0.000110855)
(-0.0273154 -0.00361586 -7.84634e-05)
(-0.0415884 0.000372887 -0.00024903)
(-0.0402933 0.000808291 -0.000394134)
(-0.0415394 0.000906131 -0.0003766)
(-0.0425418 0.000945857 -0.00032262)
(-0.0429669 0.0009439 -0.000124111)
(-0.0429844 0.000945534 8.80924e-05)
(-0.042597 0.000952185 0.000285726)
(-0.0416337 0.00092062 0.000345834)
(-0.040417 0.000832345 0.000361182)
(-0.0417145 0.000397517 0.000228444)
(0.152331 -0.00138582 8.21771e-05)
(0.21234 -0.00289167 -6.75767e-05)
(0.216952 -0.00305451 -0.000145873)
(0.217656 -0.00324696 -0.000125328)
(0.217816 -0.00332462 -4.81504e-05)
(0.217819 -0.00332857 4.89418e-05)
(0.217674 -0.00326805 0.000129557)
(0.21708 -0.00310235 0.000149029)
(0.213175 -0.00296239 6.78344e-05)
(0.153769 -0.00151315 -7.87531e-05)
(-0.0242058 0.00460688 0.000103986)
(-0.024629 0.00492297 0.000191269)
(-0.0248543 0.00512632 0.000139144)
(-0.0250352 0.00525598 8.77827e-05)
(-0.0251324 0.00531418 3.17406e-05)
(-0.0251384 0.00531468 -2.3332e-05)
(-0.0250534 0.00525861 -7.92973e-05)
(-0.0248845 0.00513279 -0.000130066)
(-0.0246718 0.00493677 -0.000185263)
(-0.0242527 0.00462307 -0.000102217)
(-0.034417 0.000847641 0.000393954)
(-0.0355712 0.00109973 0.000642407)
(-0.0363131 0.00114359 0.000435399)
(-0.036851 0.00114901 0.000255089)
(-0.0371179 0.00114026 8.52032e-05)
(-0.0371304 0.00113881 -7.10654e-05)
(-0.0368902 0.00114516 -0.000238525)
(-0.0363822 0.00113795 -0.000414509)
(-0.0356782 0.00109805 -0.00062693)
(-0.0345426 0.000843271 -0.000389975)
(-0.0273412 0.00346217 0.000289227)
(-0.0280152 0.00526101 0.000422476)
(-0.0281365 0.00570792 0.000180612)
(-0.0282485 0.00586611 8.28984e-05)
(-0.0282947 0.00588822 2.11547e-05)
(-0.0282983 0.00588504 -1.80528e-05)
(-0.028257 0.00585625 -7.87067e-05)
(-0.0281522 0.00569633 -0.000170004)
(-0.0280455 0.00528223 -0.000415295)
(-0.0273715 0.00346231 -0.000290064)
(-0.044314 -0.0025567 0.00206994)
(-0.0453779 -0.00301227 0.00270401)
(-0.0468771 -0.00324486 0.000962195)
(-0.0479127 -0.00345715 0.000392407)
(-0.0483169 -0.00354742 9.19871e-05)
(-0.0483314 -0.00354869 -9.20161e-05)
(-0.0479656 -0.0034586 -0.000386212)
(-0.0469714 -0.00324675 -0.000914247)
(-0.0455501 -0.00302479 -0.0026782)
(-0.0444811 -0.002571 -0.00208401)
(0.155725 -0.013059 -0.00139899)
(0.217033 -0.0102481 -0.00176908)
(0.222112 -0.0109525 -0.00082071)
(0.223114 -0.0118231 -0.000461538)
(0.223396 -0.0121839 -0.000134493)
(0.223399 -0.0121926 0.000129065)
(0.223142 -0.0118658 0.000453594)
(0.222263 -0.0110337 0.000788547)
(0.217926 -0.0103116 0.00174576)