/*--------------------------------*- C++ -*----------------------------------*\
| =========                 |                                                 |
| \\      /  F ield         | OpenFOAM: The Open Source CFD Toolbox           |
|  \\    /   O peration     | Version:  2.3.1                                 |
|   \\  /    A nd           | Web:      www.OpenFOAM.org                      |
|    \\/     M anipulation  |                                                 |
\*---------------------------------------------------------------------------*/
FoamFile
{
    version     2.0;
    format      ascii;
    class       volScalarField;
    location    "340";
    object      sigmaEq;
}
// * * * * * * * * * * * * * * * * * * * * * * * * * * * * * * * * * * * * * //

dimensions      [1 -1 -2 0 0 0 0];

internalField   nonuniform List<scalar> 
11800
(
77715.9
81380.3
86013.8
87698.5
77348.3
82717.8
76038.3
66770.9
81317.1
64661.1
76479.3
102488
27032.4
78124.4
88085.9
393102
72000.9
61350.7
99384.3
56013
81774.2
99251.6
232016
206556
312287
248114
147169
93305.3
175577
209034
83419.1
94639.5
225645
88909.2
87612.6
86047.8
85756.5
235880
76117.3
61704.5
153444
182044
99341.3
216299
87074.9
366197
209511
231759
76703.3
65795
106322
91951.2
86356.9
123894
412122
464299
49028.6
88864.5
75040.5
75881.7
435288
88156.9
77594.3
73725.7
307259
73429.5
107514
91741.1
51686.3
226556
91404
78993.8
75359.2
514884
428458
89404.8
296633
66474.8
79146.1
83895.7
425881
59246.4
76381.4
80043.5
62292.5
199724
86210.5
167067
144602
92300.1
81439.6
264895
80072.4
50398.7
59432.5
46096.1
5875.38
45298.5
84105.2
92484.9
63295.8
99975.7
248637
127531
87613.5
102308
63616.5
72242
395458
154509
186859
132595
85911.7
94694.9
58053.4
362172
68013.9
83013.6
342572
67885.5
87242.5
77274.2
65648.9
66067.1
77773
85413.5
86236.5
82636.9
77445.1
35561.4
559008
313017
84127.4
195076
88938
160480
139606
83870.2
169833
85633.6
140075
122791
133896
77482.3
66350
67647.3
148975
162656
100979
118009
83856.1
82029.2
85033.2
80910.4
68076.4
82656
93005.3
103066
226912
84809.9
452405
80007.5
298879
90801.4
101334
119135
72024.4
80856.9
523917
242912
88175.6
92270.5
75282.5
82579
85964.9
355034
359834
138523
118327
168177
87836.6
83685.6
71728.1
84118.2
79910
62489.9
112246
76903.5
63719.6
79730.7
83518.6
72527.8
80630.9
107654
114125
145887
505586
84166.5
66839.2
574742
73876.6
68042
75133.3
87645.6
88293.3
113296
103694
94774.7
83867.6
548622
156101
216166
766934
473503
650642
124598
78335.8
153886
129222
112907
81461.1
79047.9
70033.9
57931.4
101227
57276.4
374640
96392.7
61457.1
84472.2
83041.2
67330.7
77332.2
90663.6
92504.6
751273
367874
75756.4
81513.2
148548
127212
86685.8
89776.7
180838
153172
131921
86120.9
220658
83534.9
85713.1
81502.2
70800.4
86862.6
118458
72031.9
102556
638089
66879.5
70713.5
73506
76452.3
99869
117274
140519
79219.6
79857.9
88743.6
436978
68172.2
72998.7
86797.5
78816
47398.2
91584.6
563320
79668.8
79306.7
95192.6
84094
87016.5
78246.6
216572
187677
72531.7
78212.8
75137.4
78143
122060
147609
115250
265928
286850
356812
75885.8
82378.8
82327.1
336238
340109
131438
130430
143089
142402
82236.6
68024.5
75235
553223
81662.1
86375.8
70183.5
72773.6
63561.6
127355
118044
317562
657457
193360
64213.7
122414
103196
83980.3
73552.2
88691.9
85154.9
81312
106393
71987.9
93498.8
78390
67433.2
78290.3
87211.1
296581
69690.7
83129.1
499684
73394.4
140566
106280
105916
117743
116081
75560.1
75160.9
163604
195315
159887
385749
56484.7
155890
134824
85119.6
74953
77453.6
67616.3
83383.2
80236.7
78321.8
93103.9
108087
66373.7
83728.8
98051.6
106234
79699.5
65619.4
127415
97287.8
107916
68921.1
67905.1
71780.5
71284.2
183630
78042.2
82534.8
165235
138888
167561
161422
80594
81681.7
68448.9
67681.1
90414.3
103070
82043.1
92415.3
69215.2
78079.7
74174.1
67013.6
177492
80038.6
141311
219577
97630.9
86539.4
598578
82290.7
233063
101759
91379.6
444682
78365
250247
84473.9
263494
241604
222791
69458.2
25459.2
83168.9
688549
587500
181619
82264.9
76812
80711.4
62283.3
68866.4
63829.9
108743
426297
18462.7
93325.2
74428.9
496998
60963.7
68614.5
61765.2
88377.3
64459.7
76265.4
505595
143085
84960.4
108444
92037.4
82003.1
66033.4
247442
83728.1
88225.3
80505.1
226985
74430.9
420691
79492.8
82440.9
89277
76556
68598
226163
69688.2
112888
137387
79805.8
109778
124046
147523
78243.9
82748.4
44799
68652.5
68591.4
616107
101919
89324.9
79991.8
75663.6
61010
84218.3
59347.2
67917.5
89707.5
53715.3
60902.4
86361.7
85044
138949
78198.6
116436
163328
121356
75698.9
475676
81013.8
115936
74251.8
60433.4
429935
449601
86711.6
103831
87839.3
69768.6
79256.1
382694
404711
382798
604854
100986
80507.3
109084
72877.3
62747.3
67486.4
79797.4
99984.6
88137.5
86280
61110.7
60912.7
375766
81696.4
251936
292403
64038.1
72610
395887
330249
96098.3
114268
137779
80301.3
86979.1
95766.9
84547.8
83804.3
83282.4
86101.3
77249.3
80168.7
66879.1
68627.2
58555.2
61735.4
51688.5
65111.6
60296.6
75936.8
54592.6
437756
113128
70535.3
125063
229465
59580
80051.3
71141.6
61667.6
54840.8
80335.2
72492.8
92787
90325.9
150848
60955.6
86258.5
470061
53220.2
96090.4
98536.4
87951.5
95379.2
106419
114957
124659
67928.8
77941
459947
677489
87904.4
67857.1
70109
137009
75465.5
74095.5
133031
115069
98760.7
80657.3
55806
108549
126622
72395.4
69364.6
60138
89788.8
106580
84203
137783
127973
130480
139150
359890
352079
91469.4
545576
111634
77444.5
415888
173238
205753
104291
62427.4
73930.5
84504.7
307833
80733
99439.1
569777
78530.2
65830.4
130326
94776.3
233512
100975
382726
83892
79176.5
85027.5
79524
151885
130007
112489
481600
79280.6
83096.8
150647
355144
80897.1
551854
520807
473532
72406.4
89354
54395.9
484321
88255.6
74793.2
83590.3
367607
76999.4
67962.2
79381.5
80106.3
153742
67808.7
675196
444088
73671.8
139526
168899
72034.8
73090.4
82217.4
82654.7
224716
110151
90008.7
85765.6
188915
207437
73966
299975
88700.3
72522.5
77177.8
499125
76470.7
114800
74766.2
86486.6
66064.5
68140.7
106257
213818
238180
60207
70557.9
60580.8
90656.1
98330.9
306391
69033.1
86719.7
109709
89476.7
72510.6
136750
160850
103228
192519
231169
96129.1
84825.1
75358.7
60280.6
83663.1
94462.9
72651.2
77725.8
82945.6
67503.2
88079.4
67737.7
78679.8
575189
196341
89643.3
87610.5
111493
71820.3
83876.4
91978
210118
174304
150448
75374.4
81774.4
107691
72410.9
329401
335889
269770
80350.8
97818.5
75634.4
96648.7
278273
88696.6
27489.4
82085.7
622994
592240
64722.1
547886
75135.7
68909.1
77334.3
153431
61954.2
92345.9
124301
179506
214095
258697
315344
107177
105322
95610.6
91200.2
84354.5
80097
81970.3
397113
87857.5
90339.8
66210.8
78092.9
61718
67328.1
79016.9
317657
181887
118393
78550
134751
163571
77416.7
230319
74803.1
71505.6
85301.6
609842
76509.9
74868.8
64994.3
58377.2
74900.7
560733
76567
74955.8
362234
81202.1
157008
89042.7
579798
175703
80869.4
87004.2
354708
84655.5
66807.6
77496.6
62351
75601.2
72213.5
93865.4
79610
62230.9
181601
106838
78265
115270
128813
85523.3
102780
123111
116800
132156
297453
242912
199822
173124
100508
112809
312970
256030
118277
213573
129851
180772
334634
86708
81023
88518.6
71617.5
121254
331434
91790.8
91331.5
102760
102154
116617
83913.9
87310.6
82006.7
92046.1
218479
182011
157473
88612.4
83334.8
176771
66018.7
65572.1
84417.7
90769
78698.6
67339.5
87641.9
80234.8
84410.8
74000
88299.7
209246
79695.6
61471.3
88232.9
198035
92213.8
98088.4
129897
61849.5
60942.8
64446.8
63233.5
74374.5
83824.5
88895.5
91122.3
77649.3
81743.6
62035.3
77527.6
271687
90240.5
97104.7
161040
82106.1
75055.9
65816.2
56875.8
65840.2
80536
120184
100701
87634.2
70726.1
503417
106477
113903
292202
185794
288186
550863
74190.5
82892.4
64285.4
79796.2
60790.3
106696
98025.7
553442
72195.4
82923
83812
86199.4
66322.5
91432.4
110566
107459
57754.6
75699.7
76087.3
67161.8
84697.2
429167
541405
65023.7
84825.3
88383.2
83846.7
138596
96330.8
114374
635187
85411.5
94756
98216.7
83371.1
107875
126973
132668
141448
312567
253680
208102
179932
107749
123074
326614
266788
126702
222459
137893
188797
460612
421108
321457
82248.4
93169.7
411373
347042
83310.7
84580.7
81159.1
340819
500494
61862.6
80621.2
498598
329037
553119
550945
147259
156064
81628.5
80560.7
87927
124896
73526.5
72246.3
72944.5
66616
81657.8
67176.2
76300.7
482556
88270
68600
67242.7
79152.7
83092.9
407786
83543.7
79578.1
74577.3
77465.5
228368
81502.4
80973.3
415016
80328.5
83398.9
62360.3
76337.5
93177.7
72665.5
83321.4
215844
100023
93404.7
215488
208489
92946.7
90690.6
189703
203692
91591.2
86424.9
80115.6
71099.4
72645.6
90177.1
75153.7
38843.2
79919.9
82883.3
146244
149011
72821
98131.4
84317.9
60551.4
60281.8
62598.3
177426
338287
70126
542920
89201
127373
111076
69682.6
75000
103610
78731.4
85331.9
359401
75564.3
180685
152204
132216
85630.7
88521
74314.7
423831
378239
65959.9
77944.2
202076
83394.9
83357.5
118046
139155
172338
90326.1
89868.4
46661.6
214797
80096.1
363910
141350
229856
123872
133921
88935.1
74945.9
62537.5
88157
61788.1
73320.1
336781
82920.2
60087.3
66203.9
77877.2
85715.7
74569.5
81359.8
140158
141120
119752
118797
105248
106377
376005
82788.2
77374.2
84998.7
67494.4
103134
83332.9
65412.4
422044
74568.1
143263
90159.6
197335
92895.4
56716.2
60688.2
88793.1
79610.8
98796.5
89596.3
223959
172553
143357
122638
94727.5
270076
103159
385744
67685.4
63987.8
75071.6
87190.6
67148.5
83847.3
71397.9
333163
575930
71346.8
68817.8
60892.5
93955.8
75118.2
58840.1
77544.8
90898.5
78333.3
68721.1
77424
67873
67046.4
73512.1
88321.1
96721.3
98490.6
109473
74870.5
82939.8
163372
85761.7
161079
121514
93097.6
281273
269601
160280
565817
83345.9
79855
93131.9
109473
61703.5
77426
79398.7
120620
80312
359701
98709.8
88355.9
112901
46633.8
79168.1
472858
70696.1
85631.6
216577
94549.1
180589
155796
428350
294845
58034.5
95337
86935
99448.8
279218
98118.9
112861
149197
129451
176773
89632.7
90775.4
58578.2
680536
97582.4
83600.4
86090.1
81587.2
77664.5
64837.7
90909.9
102219
83792.2
481326
86088.4
297738
69589.7
232270
76841.5
96459.9
111601
190713
82861.1
87552.4
98319
70088.2
509875
62957.2
56828.9
63321.8
481357
367027
83871.9
88648.2
186768
158833
136490
495231
91672.4
86544.4
608861
665219
407196
88525.4
161193
271914
172290
91114.4
85911.3
124113
110652
74342.5
258043
82944.9
102073
85453.7
73474.3
77615.3
444231
603937
66184.5
82360.2
94722.8
640853
69640.9
71029.6
108786
80173.5
597895
624177
91066
166156
83137.6
71343.4
141743
71680.5
64981.6
151221
76640.8
87410.5
593017
178339
98669.1
92658.9
82666.2
81668.9
131540
114028
96944.9
97168.7
626253
138502
120299
76849.8
537668
183718
220239
56195.2
94518.8
69612.4
236375
81951.3
94154.2
73447.9
67467.3
72600.9
163198
66444
84997.3
82261.7
135644
582612
72091.7
76532.3
158992
389289
544869
269900
208462
100336
110499
47566.8
81733.4
75655.1
125220
106532
90224.8
535738
68821.8
68359.9
73374.5
68768
66939.1
84231.1
65622.6
84760
75882.8
172622
411433
86133.7
170009
141485
121513
83384.5
477884
98302.5
102962
107430
92913.5
251022
451013
171049
77948.5
265210
80140.3
124470
87107.1
141733
171349
86783.5
241055
82613.3
741767
236869
77591.5
397792
735809
635922
144350
88401.5
234781
64377.3
59226.8
82690.1
106831
75501.8
63022.2
72880.2
59168.9
349422
365843
77914.9
333706
77307.4
67003.5
79104
89231.9
135436
146163
72881.8
138275
147104
351135
131480
74590.4
62595.3
62606.3
109443
125831
85121.6
18064
70830.7
244097
73272.6
112578
118604
139243
164968
90421.6
80666.2
98720.9
62569.9
66168.2
555646
275284
89522.8
80318.4
192862
170383
84348.9
95038.4
91685.1
60292
104900
100199
78005.7
63779.4
73636.1
446808
103352
236562
67181.4
79838.6
742801
90096.9
558625
522905
63641.8
198371
91897.7
459887
68826.1
145384
283218
619888
75454
60243.9
75680.5
148256
78765.1
76357.9
110739
95330.5
80613
63068.1
88470.5
58209.1
55586
137298
148075
115410
196918
166807
235398
482706
67520.3
160376
458555
213858
523059
119898
140752
173296
87899.4
84099.2
103492
136797
515836
81605.4
66327.8
80126.1
72538.7
61494.6
83359.6
88040
75989.8
68262.1
212093
108585
599249
58367.3
62561
94323.8
545263
172515
76747.6
71340.1
542104
120696
94955.9
70437.1
67647.5
75095.1
116648
144643
84938.5
261358
66452.6
66582.3
672203
464677
572863
82926.2
82343.3
160528
111299
102177
478952
634536
67033
72235.2
98485.8
92838.4
139851
150283
103238
113653
496448
571840
74815.7
79237.7
73968.3
346825
83077.7
446917
150931
76334.8
235371
74222.4
74361.3
492816
84114.3
69055.6
81047.1
86664.4
396532
77807.7
78059.5
173743
75774.2
73013.3
64055.1
84274.1
95538.7
91300.9
435392
498251
76937.2
116939
87539.9
74407.4
77509
410300
75299.8
244205
78752.3
120681
142116
166911
401724
62037.6
113506
531145
70985.9
78587.4
62131.9
77886.5
87855.8
601740
371466
78060.1
76656.1
160673
113928
217538
84685.5
84097.6
86557.6
97344.5
183268
151767
129150
297021
103477
92920.8
451659
87326.8
489215
155601
100554
473910
753880
581927
82770.9
173335
225195
84890.2
85982.7
72925.9
120718
521535
77471
78698.6
543677
392202
561507
114852
132478
142484
125519
71518.8
59139.3
95328.7
58863.1
113874
128600
152996
74645.3
75955.2
149363
561431
71981.1
96826.1
83912.4
63573.4
127050
117506
98399
476980
590393
152508
125494
448679
511730
90434
262162
183592
270377
65467.6
69831.8
72492.6
328558
329338
218125
77028.2
81838
86608.6
69920.3
113600
399123
65150.4
259086
60895.3
71546.6
83927.3
74140.9
125111
82828.9
133723
12711.1
3718.17
131208
693510
65853.5
61492.8
85636.1
74655
80822.1
69052.6
78943.9
73109.3
90319.1
89082.3
72532.3
75731.1
87169.3
131680
156649
115595
524187
598795
75241.4
92711.5
86805.2
70684.1
300073
107300
593050
68638.3
68987.3
124158
75061.3
79728.6
71011.8
128426
82437.6
89361.8
78425.5
72760.4
67811
64235.7
400107
73711
58587.4
70376.4
86052.5
71750
550674
57457.6
457215
424119
179399
157437
87556.4
92023.6
183098
157864
135502
83544.6
257354
197071
87484
579010
87735.9
87196.2
82585
296432
118891
135156
289485
62374.3
70001.9
84055.5
98867.1
203274
108706
251136
95182
166509
142794
83887.2
264390
89132.4
215875
93089
180344
155375
97502.8
456635
78907.9
98311.9
75067.3
68203.5
74051.3
421616
128232
167110
155338
144261
177117
129751
73115.4
78827.8
107487
240059
80808.7
661555
83049.8
75304.9
522041
64650.9
66143
152366
182078
426452
80517.3
195256
164808
142283
84822.3
90063.7
491141
74325.9
73747.3
136812
79764.6
138986
78342.4
130692
72098.3
72862.9
84285.7
61673.4
96799.1
85655.7
129135
83003
75072.7
118838
146866
156356
119641
89432.1
411114
88779.9
88019.1
396665
406132
227532
724358
148702
129195
241597
655325
148438
114629
569704
147860
133793
101209
471748
80169.5
479698
60965.2
95406.6
80134.4
107767
121921
144576
78930.1
80778.5
176480
60350.6
60666.6
74411.4
62862
90634.2
62661.1
86700.9
107714
226539
576763
64585.7
86837.3
540862
222238
98231.6
109753
74054.1
75504.7
437847
319446
110238
203331
186348
313629
62459
63285.6
89058
82470.1
274131
536790
580999
370223
654340
86106.2
73822
73475.8
149644
128171
181456
92024.9
82667.5
499579
89722.8
95221
110317
74868.9
93872
247472
110605
59953.7
155885
79169.2
71841.6
553960
73837.8
80653.3
195241
166815
141501
91606.5
346708
309607
382620
136839
150217
103005
284710
98608.8
90195.5
253261
68310.4
726343
70000.6
563919
134417
158224
57518.1
159776
252321
77260.6
70785.5
67942.8
651887
108306
89756.2
122780
67110.7
69659
115726
88120
444814
101900
173404
243381
203621
89078.2
177170
129179
140376
155240
168552
127839
145216
165429
110867
155968
14604.4
95669.7
71935.4
88207.7
103678
99985.8
112752
260904
211996
173638
148877
87128.5
225869
90258.3
82814.5
56493.4
66956.3
97388.7
55829.3
84428.8
144949
163892
90014.6
392741
70428.9
62006.7
342937
445317
74009.1
210101
97623.8
106016
129879
188322
68999.1
62080
84699.3
222314
57479.5
84755.4
410505
70433.7
77353
91200.9
78108
103666
108211
88739.1
88562.8
116184
316422
559686
650478
79012.8
84316.9
302097
273606
392717
87558
298277
371186
648291
678845
590186
96155.3
169163
78960.8
470355
258261
112249
309960
73375.8
81762.3
364893
368268
74512.2
138608
581213
426773
380982
393021
679995
438690
407217
422166
77310.2
83397.3
259121
242651
249562
74257
65212.1
76547.8
74187.1
86134.8
86978.8
66650.3
87400.5
394628
237804
83110.1
87575.3
273211
80160.4
143110
134559
712414
74956.8
67521.6
170454
70034.2
142209
69181.5
80738.3
577577
4670.84
46577.6
45694.1
9543.3
78056.2
174043
63043.4
71384.7
82748.4
74897.1
216134
144802
77936.3
529982
482037
89375.1
253871
83292.3
95699.1
300635
84320.2
540469
99632.7
118029
122104
131897
293980
240680
196848
170132
100948
113783
309392
253359
116634
210394
127819
178737
66754.1
70906.7
132911
99985.9
80878.4
65819.1
63489
63384.3
72358.2
72802.2
59583.2
71331.3
62230.5
97197.5
219351
236712
120408
80813.5
131621
142436
333750
107632
91261.1
515712
185963
63627
45811.1
68281.5
78605.9
88215.9
69179.7
77014.2
88108.7
149160
115201
80192
116354
87103.9
77150.9
293871
81646.1
83152.7
88513
75631.5
267490
87770.8
118346
97917.3
79076
111178
105785
107680
68957.5
64450.1
642443
569102
172840
143030
132449
168451
492224
227231
88692.5
147611
74668
75834.4
89248.3
71202.6
613266
73422.9
208147
175820
151319
94392.2
85881
131578
72122.8
72830
623257
78784.5
88350.9
207011
203147
73260
74965.8
69344
99131
230297
400217
104100
83359
347869
291204
78905.6
82925.2
187177
156441
136039
83930.1
91805.1
206216
106676
140957
98046.4
165228
198405
84964.3
239025
639432
489938
85472.5
107317
124350
146008
89183.3
75182.7
362137
63126.5
73696.8
125345
121666
61758
70359.6
83155.7
75344.6
187609
136125
145811
165395
117099
510762
631461
233662
68922.2
107135
121810
143351
196702
285747
83582.3
414068
191603
108373
91218.1
124703
76168.4
76232
70062.5
73395.7
83036.3
114264
96818.7
97365.2
112143
133562
83879.7
80949.5
91498.7
93539.7
185865
182520
131441
153545
129331
151431
103940
120247
86266.3
78637
78121.6
64067.2
365522
106789
85382.9
160041
137683
122206
159788
80842.4
95139.9
270188
110634
223044
187966
66153.9
66949.1
238361
99671
92695.1
287470
157201
59434.7
158996
136118
194634
95517.4
85384.5
409423
90257.9
83963
453108
98755.2
117139
56795.2
81064.7
90249
78662.1
68219.9
357884
77970.7
112391
93614.5
80441.6
104959
64633.2
72808.9
284662
346521
81591.1
153218
67446.3
288021
531903
372101
92941
89264
193069
84559.8
83341.7
73593.4
67103.3
69397.3
110792
64423.6
84474.1
61318.6
115284
76173.8
63387.2
599039
87695.7
326846
126167
148762
85918.9
85306.4
185736
539013
56063.6
68195.3
78641.6
75053.7
111469
10554.5
3536.46
109379
198267
67661.3
156460
79801.7
118133
64253.7
96382.8
114516
284815
76608.1
80602.6
71408.9
62984.9
115838
70312.2
147427
129784
81555.3
61669.4
77986.7
573876
203518
75829.6
103419
67496.5
710975
425929
111452
64888.8
111897
82369.9
89010.7
169040
120121
141218
490482
371095
80865.7
416624
659366
421519
430588
252134
85899.7
391172
68872
69849
65204.2
110424
80423.8
87955.4
76358.4
170700
84384.7
62269.3
74099.5
281251
184061
220892
268482
325915
111035
107152
98032.5
91201.2
64051.2
78035.9
155081
7138.61
77155.5
75700.3
3950.57
126237
74148.3
66343.6
75199.9
71718.1
83027.3
91207.5
134681
405170
113067
91965.6
82287.1
83848.5
483094
416066
53791.8
174308
88439.3
86067.8
90858
101949
184910
402638
73064
88874.9
87556
434894
83476.3
72314.9
93308.9
83475.2
175956
210078
110429
245990
241454
86943
111939
298826
282514
253814
85108.7
89931.9
55873
84489
56499.1
69491.8
64494.7
167694
156285
149481
171317
131823
182021
130919
100719
145520
150439
122082
159041
122698
88151.9
268881
144822
129953
160755
150934
173238
137362
182390
135967
271563
698469
88659.1
107721
275713
148880
58142.7
81891.5
71655.4
6941.82
70299.3
6237.74
77181.5
90587.6
187189
159543
230741
106118
83275.4
536427
57285.6
82048.4
131001
336167
74789.4
160525
82612.2
598780
603956
427171
63443.5
137386
304738
105279
94826.9
137172
119248
101005
138927
80230.4
81529.3
674021
164746
571599
65852.3
77043.8
88329.5
64835.8
71602.8
554171
68392.1
341397
73174.9
240051
434216
58931.9
92325.3
83368.6
151513
90138.9
100518
87128.7
72302.3
83725.5
97471.9
75633.5
66908.6
81672.3
99199.1
88105.5
233694
196381
168370
412869
568371
635642
59857.4
66686.5
76655.1
75585.9
72669.3
56720.2
66825
600429
638866
469287
521048
19897
418254
491085
170404
129975
144289
171426
163891
209865
256850
110798
417458
64169.8
91345.8
78778.3
143159
71728.9
67353.8
76467.6
78437.3
85945.5
69049.1
75159.4
81463.6
89011.6
101170
94143.3
110831
118592
143587
153219
78491.4
83669.5
86885.9
90684.7
81725.4
63522.3
311993
425174
82194
175450
376390
100574
326221
114933
83508.6
457385
116384
105419
150052
382038
659464
278216
65022.4
580225
86548.6
69531.8
71144.2
174516
65369
266355
386392
74917.3
133660
80776.1
91019.1
71457.6
611982
72584.6
72871.2
76383
84418.2
189317
66521.1
74710.9
246044
65328.3
427821
75638.2
249278
74802.7
77933.4
369777
203368
121546
239204
291766
110119
352687
104844
88451
190570
223024
339492
274649
88364.2
114579
124033
105250
577746
91190.6
454817
61259.2
83988
63774.3
2582.55
19570.6
209930
46573.2
439802
70929.9
81316.6
102287
115025
88339.3
168750
75404.6
248716
74479.5
70008.9
294050
78528.5
84947.7
76093.4
85311.6
180827
154187
223024
99066.3
177827
67999.2
98975.7
103977
431689
64119.5
83893.4
66487.1
69726.4
157455
511328
211668
211928
506672
104713
235140
549740
254524
437238
91775.9
448824
78580.8
330406
82234
97805.8
80339.5
4516.32
46251.4
45358.8
7856.16
76659.4
431000
62831.6
338465
218324
69532.1
175098
167235
204298
194915
247299
236158
104753
100960
90443.7
88404
93559
85197.1
208046
176361
150950
70812.3
96189.8
82425.8
73937.7
157263
132249
78640.4
74108.3
67457.5
76634.6
65859
553884
374674
85423
196946
167107
240574
89779.8
256881
350540
307381
94511.3
91217.2
477894
196004
86656.6
63186.3
80806.3
71358.2
74853.2
116144
99249.7
86082.6
329573
696414
434753
221906
98366.6
85817.6
74596.1
80709.2
71760.7
69331.2
87566.4
91515.3
64578.9
103552
83222.8
75676.4
462367
492197
100422
161748
66368.5
88036.6
79603.4
67391.8
153899
469739
161964
119392
126032
140245
85399.7
59293.8
99513
72675.3
61497.4
72221.2
734040
569673
62744.7
71989.2
120063
108994
91803.8
234250
287810
164471
190876
260380
96961.2
75798.2
86829.9
80652.5
68022.5
498388
87986.5
281792
61729.1
501076
60528.5
100715
100640
718959
75952.6
96033.1
77614.5
88883.5
72167.7
81031.4
240886
83265
183218
119393
214898
260631
113646
318451
106520
97648.1
111492
97027.4
66118.6
110917
122286
144240
63592.5
91206.3
319326
177452
612033
546098
609775
139269
403148
247396
130064
68411
64489
500988
327706
70809.9
619675
415937
20803
97910.2
92948.8
38404.6
331393
176777
82794.5
54919.1
508113
590538
84211
110073
114194
299776
288649
98472.6
101752
99715.7
108089
73073.6
75908.2
78341.7
77018.4
53243.4
705387
427507
473147
586856
183587
86363
315135
122211
141856
167497
67851.2
476590
76548
322355
557585
152765
91631.2
633526
93934.9
99108.1
86999.7
93886.6
228993
223687
100091
91973.8
60665.8
77300.1
92759.1
251559
208270
174476
106060
691301
83973.1
69627.4
67249.2
170272
198336
107572
238766
99152.6
292421
94529.4
230735
161851
188123
283928
84590.2
120199
108941
101849
77328.2
89752.3
80374.2
70266.8
97152.8
72536
85347.4
435141
117939
133692
485187
88381.5
78762.5
80380.1
117844
137120
72625.8
80602.8
558449
83529.4
76588.4
88891.3
89569.8
77024.8
72057.6
118926
78860.3
84731.5
362300
462512
62284.3
56370.3
60380.7
103122
179203
568384
517166
294318
91193.3
60942.3
369751
84176.2
86324.5
685450
202278
448174
77372.6
278054
111981
156972
81849.9
306126
236848
100154
86689.9
69877.7
114830
65508.8
41967.5
58637.6
569305
150463
144103
385253
79787.2
88405.3
75944.3
142966
68185.4
78650.1
92630.1
71353.2
92064.1
9179.66
90334.9
6373.74
86753.4
311955
80436.9
91717.8
172983
143351
122043
68167
538959
243012
87036.8
366947
140414
157917
59155.5
5685.59
58036
6080.71
381889
172439
98739.3
136625
119457
68260.4
563462
75814
75955.7
124787
101929
77887.4
12446.2
357552
74825
395250
77295.3
81979.6
154400
127679
111091
62942.7
144747
81761.3
75947.5
74346.6
79510.1
148968
152522
70444.1
77390.8
69963.6
71465.3
197456
94903
85565.6
82051.8
173467
4434.04
16444.6
170207
100385
90383.3
114760
128714
66706.2
604644
661483
69841.2
82666.8
69925.4
79868.9
80091.3
8111.2
78599.8
7087.81
216274
79821.7
91394.9
616411
621047
407141
491973
131669
115710
115019
107076
536634
75261.6
115675
63485.6
59475.1
78072.1
77086.6
85250.4
101192
447015
467426
68123.7
44821.1
116568
134017
85074.9
216623
81253.1
82638.5
512024
70450.7
83113.2
93869
144487
138024
161661
104092
76492.7
86330.3
69984.7
60745.2
300535
65564
219276
41658.1
86104.7
125175
111335
270709
313139
84025.1
94184.6
90968.6
356369
2664.08
33816
10003
33382.1
77436.4
79898.1
73419.1
598309
10897.5
579709
151663
14379.2
4683.18
148825
73535.3
49185.2
5555.22
48284.9
89683.2
344055
84596.9
599012
588430
20118.4
94273.4
130562
113824
178881
81186.1
73520.7
227491
224255
51231.9
68370
72441
72768.3
98431
131558
70184.3
70506.1
579693
113264
124590
124899
139926
388275
83620
58571.6
323100
427229
191937
67658
70955
65618.4
101985
94477.3
84953.1
75376.4
78055.7
83112.5
59775.6
346779
423145
67706.5
93269.2
86047.6
97847.5
303884
109166
69870.7
83513.7
141328
182189
70325.3
75034.7
434675
468595
87702.1
79435.8
113817
160855
134278
73359.2
75621.4
76499.8
67279
385491
150498
58794.7
38397.2
24892.7
91068.1
84108.2
110417
155220
130575
78939.2
574746
629111
84276.3
67680
58275.8
52924.4
519844
82856.9
89898
181348
657286
567123
88305.4
83358
108820
93611.9
79025.2
68222.9
89975.1
64618.3
79217.3
78410.5
80763.8
569035
83888.2
140290
148102
354874
241675
235237
96576.8
93167.5
100809
103735
110798
67304.4
72677.8
62429.8
77891.3
106243
65791
488716
277878
72453.2
77447.3
264170
671783
70548.2
155615
137285
118671
159034
194666
91212.8
89802.4
233192
80290.8
178198
81510.7
80065.6
74824.8
187385
69909.1
77024.1
173725
84638.2
67262.8
64783.6
78474
141454
125181
81897.6
77128
85725.8
84775.6
78771.3
97069.1
81906.2
88079.2
81197
85805.4
65587.3
75081.7
602303
532732
395030
79752.9
87554.5
143516
119460
101298
85882
99180
46398.7
340289
66743.2
89763
122643
71802.6
127239
566671
60074
75398.8
69688.6
67596
550958
57057
92900.4
87715.2
100330
71806.1
64168.2
80837.2
60997.6
76737
378639
83516
46466.6
5674.03
45603.5
371632
296335
538014
452929
505017
92060.4
538591
300594
5137.09
37237.5
75482.3
84536.6
95796.3
106761
124634
188225
90151.8
340032
132957
156978
69916
64683.3
57774.9
74144.6
81180.2
65886.8
67007.1
290717
37925.8
517599
160696
55088
221333
105894
79318.7
89523.9
72604.9
58730.3
69452.5
131982
76847.1
163819
169938
64858.3
85518.8
111177
314080
70408.1
68924.2
91851.9
61244.7
82576.7
513440
80037.3
86485.9
200139
439983
141349
70828.2
115417
110592
127342
94525
79880.4
79330.4
75867.4
3024.54
23882.3
123802
107714
128713
305047
209203
250308
107205
117604
320968
262237
125838
220944
98669.3
78410
71755.7
106515
79879.2
81590.8
68264.8
147220
72828
83079
59522.4
95702.5
254859
103132
65745.9
66579.1
66302.1
74803.5
66128.3
75266.8
87552.7
73182.3
55321.2
226008
82672
87893.9
81443.8
86135.9
162618
138682
118830
105094
270279
77712.1
65798.6
117205
109817
88609.8
75202.5
77260.6
88429.1
75663.4
110449
79589.3
69752.1
92133.3
89612.2
76824
140778
64736.1
58059
329445
278312
72989.4
89431.1
535673
80818.7
92545.5
60520.1
71671.7
83592.7
163929
138023
117816
86975
80858.3
203198
79347.3
67482.1
76826.9
357683
78057.9
68639
90161
77934.8
61727.2
70553.6
60552.4
66209.5
415575
378132
85086.7
79637.7
89133.3
223404
197864
83208.4
90627.2
105780
90324.3
60163.1
73073.6
551543
108291
116270
59673.2
97236.1
70748
29253.1
60871.1
65889.2
82806.8
98281.2
80085.3
76655.7
73705.6
83364.9
630874
80571.4
221250
74569.9
483723
110743
126803
81400.6
81196.6
225620
67441.7
78269.7
67203.9
74787
91705.9
115040
67376.6
41478.9
44451.9
190974
79926.3
86368.5
63406.3
72887.7
63794.6
69296.6
103244
76769.8
88742.4
48206
57314.5
454395
64068.6
692822
85972.7
114921
301775
81144.7
73408.8
231412
69255.9
64362
299718
85907.9
108194
218955
185182
264892
80995.2
112925
82624.8
312260
297241
69538.5
71490.5
83384.8
84652.4
98674.9
108582
202351
98744.5
104700
250845
200284
244201
142459
166230
141113
164395
391429
155706
75687.9
558232
84691.8
85146
172053
495910
115783
70525.2
66721.7
78225.7
71315.2
87518.1
90981.9
63398.6
354669
80666.4
83426.4
146679
84240.1
204552
82268.3
115883
115368
178715
67135.5
79435
83159.2
65891.1
80394.2
80969.1
69499.7
62827
593913
96354.1
75741.5
76717.1
93853.8
69403.6
70615.7
67149.4
344504
66538
83811
84380.6
86954.8
55964.9
566293
78041.7
74079.5
170935
73747.2
83855.9
521187
335636
333331
89733.7
87052.2
460235
129120
141888
71874.6
225827
188897
147103
126414
344067
205003
405785
288769
386344
242122
108067
93809.3
52536.1
60811.7
433984
63364.1
76976.1
75462.7
79702.5
74547.8
68085.2
140387
145517
72826.2
141070
13427.1
1870.51
138417
84400.1
54482.9
381711
87460.7
128713
71145.6
70345.8
72543.1
66363.7
68838.2
100171
108012
65933.8
83027.7
98018.9
83321
76587.6
96313.5
321991
270007
59702.6
131093
117761
600498
208223
128651
244946
299163
118027
362448
112551
97139.2
196640
229544
282884
349401
120477
95282.5
129630
113070
79050.9
212197
59368.1
314075
308222
585474
76754.2
128241
280568
78995
125948
49430.2
58301.2
338191
66618.8
73471.3
180882
221375
521519
75441.9
88601.3
103756
71364.6
83424.5
80552.9
195222
133693
91647.2
84125.1
87319
82760
454182
137332
133703
347310
338598
78608.9
74619.5
85388.2
78329.4
166561
158700
319739
369138
150347
175598
215581
267177
91014.8
112263
98780.8
105837
280647
229922
192425
165758
88921.3
92456
98914.8
101279
75985.2
87653.7
269531
519384
73371.7
85120.8
75568.2
163800
147720
127383
106769
97035.1
74775.9
78509.4
714353
64854.9
81995.7
215569
453205
377901
86761.3
107762
87246.6
38422.6
76296.8
380477
147031
540138
72434.5
78095.1
289761
439513
81171
154271
183404
133122
568289
136087
77168.8
79180.4
155241
85412.2
72221.6
161232
211511
139624
147927
130283
78034.3
115860
159722
134700
110011
122518
606540
479844
115171
75075.4
502433
71480
80184.1
85754
89523.6
94174.4
186229
191163
75474.2
75754.3
129275
110054
93896.6
110967
62720.8
334103
417836
229649
78620.8
82979
376189
129518
124360
146483
139736
502163
74125.5
85047.1
76481.5
69037.9
73485.9