/*--------------------------------*- C++ -*----------------------------------*\
| =========                 |                                                 |
| \\      /  F ield         | OpenFOAM: The Open Source CFD Toolbox           |
|  \\    /   O peration     | Version:  2.3.1                                 |
|   \\  /    A nd           | Web:      www.OpenFOAM.org                      |
|    \\/     M anipulation  |                                                 |
\*---------------------------------------------------------------------------*/
FoamFile
{
    version     2.0;
    format      ascii;
    class       volScalarField;
    location    "0.33";
    object      k;
}
// * * * * * * * * * * * * * * * * * * * * * * * * * * * * * * * * * * * * * //

dimensions      [0 2 -2 0 0 0 0];

internalField   nonuniform List<scalar> 
15166
(
1.07867
1.32284
1.70485
2.10622
2.41665
2.72636
2.94756
3.0799
3.12584
3.10317
3.01945
2.90794
1.07905
1.29415
1.70859
2.09837
2.4082
2.6968
2.89756
3.01318
3.04871
3.02114
2.93869
2.81838
1.08711
1.26253
1.69313
2.07629
2.38545
2.65745
2.84265
2.94569
2.97404
2.94311
2.86078
2.73722
1.09766
1.23715
1.67147
2.04784
2.35417
2.6121
2.78497
2.87849
2.90176
2.86846
2.78541
2.65701
1.10908
1.21802
1.64832
2.0172
2.31867
2.56401
2.7265
2.81254
2.83206
2.7971
2.71357
2.58447
1.12141
1.20346
1.6248
1.98572
2.28103
2.5149
2.66841
2.74837
2.765
2.72884
2.64486
2.51453
1.13468
1.19238
1.60154
1.95403
2.24224
2.46566
2.61129
2.68622
2.70054
2.66345
2.57874
2.44543
1.1487
1.18414
1.57904
1.92257
2.20309
2.4169
2.55553
2.62619
2.63864
2.60087
2.51589
2.38325
1.16324
1.17822
1.55767
1.8918
2.16418
2.36906
2.50135
2.56833
2.57923
2.541
2.45607
2.32422
1.17813
1.1742
1.53753
1.86189
2.1259
2.32243
2.44893
2.51265
2.52223
2.48376
2.39939
2.27012
1.19323
1.17171
1.51867
1.83294
2.08846
2.27715
2.39832
2.4591
2.46758
2.4291
2.34579
2.22004
1.20842
1.17045
1.50103
1.80504
2.05202
2.23332
2.34953
2.40764
2.41517
2.37695
2.29548
2.17558
1.22362
1.17018
1.48457
1.77815
2.01668
2.19097
2.30252
2.35818
2.36492
2.32719
2.24802
2.13403
1.23875
1.17074
1.46922
1.75229
1.98246
2.15008
2.25727
2.31065
2.31672
2.27959
2.20221
2.08866
1.25374
1.17191
1.4549
1.72747
1.94938
2.11065
2.21372
2.26498
2.27049
2.2341
2.15889
2.0501
1.26853
1.17357
1.4415
1.70362
1.91744
2.07264
2.1718
2.22108
2.22611
2.19055
2.11759
2.01268
1.28308
1.1756
1.42895
1.68072
1.88663
2.03601
2.13146
2.17886
2.18349
2.14882
2.07806
1.9763
1.29735
1.17791
1.41719
1.65876
1.85693
2.00073
2.09262
2.13825
2.14254
2.10879
2.04014
1.9412
1.31131
1.18044
1.40612
1.63766
1.82828
1.96671
2.05522
2.09917
2.10317
2.07037
2.00386
1.90834
1.32492
1.18309
1.39571
1.61741
1.80068
1.93392
2.01918
2.06153
2.06529
2.03346
1.96907
1.8768
1.33815
1.18583
1.38587
1.59795
1.77405
1.90231
1.98445
2.02527
2.02882
1.99792
1.93548
1.84532
1.35102
1.18859
1.37654
1.57926
1.74839
1.87182
1.95095
1.99031
1.99366
1.96368
1.903
1.81468
1.36347
1.19136
1.36769
1.56128
1.72364
1.8424
1.91865
1.95659
1.95977
1.93065
1.87151
1.78443
1.37552
1.1941
1.35926
1.54398
1.69976
1.81402
1.88747
1.92405
1.92706
1.89875
1.841
1.75525
1.38713
1.1968
1.35121
1.52734
1.67673
1.78662
1.85738
1.89264
1.89547
1.86789
1.81146
1.72715
1.3983
1.19942
1.3435
1.51132
1.6545
1.76016
1.82831
1.86229
1.86494
1.83806
1.78286
1.70018
1.40905
1.20196
1.33609
1.49586
1.63305
1.7346
1.80021
1.83296
1.83542
1.80918
1.75526
1.67456
1.41936
1.20442
1.32899
1.48095
1.61231
1.7099
1.77306
1.80458
1.80686
1.78125
1.72864
1.65042
1.4292
1.20679
1.32213
1.46658
1.59229
1.68602
1.74679
1.77713
1.77921
1.75421
1.70294
1.62696
1.43862
1.20905
1.31551
1.45268
1.57293
1.66292
1.72137
1.75056
1.75243
1.72803
1.67804
1.60388
1.44757
1.21122
1.30908
1.43925
1.5542
1.64057
1.69677
1.72482
1.72649
1.70266
1.65395
1.58168
1.45608
1.21328
1.30285
1.42624
1.53609
1.61893
1.67294
1.69989
1.70135
1.67808
1.63057
1.55998
1.46412
1.21525
1.2968
1.41367
1.51856
1.59799
1.64986
1.67572
1.67697
1.65423
1.60792
1.53915
1.47176
1.21712
1.29092
1.40149
1.50159
1.5777
1.62749
1.65229
1.65332
1.63111
1.58594
1.5188
1.4789
1.21888
1.28519
1.38969
1.48515
1.55803
1.60581
1.62957
1.63038
1.60866
1.56462
1.49919
1.48564
1.22056
1.27963
1.37822
1.46921
1.53898
1.58478
1.60751
1.60811
1.58686
1.54393
1.48004
1.49193
1.22214
1.27419
1.36711
1.45376
1.52049
1.56437
1.5861
1.58647
1.56569
1.52385
1.46182
1.49779
1.22364
1.26888
1.35631
1.43877
1.50256
1.54456
1.56531
1.56545
1.54512
1.50438
1.44426
1.50323
1.22506
1.2637
1.34581
1.42423
1.48515
1.52533
1.54511
1.54503
1.52515
1.48546
1.42686
1.50825
1.22641
1.25864
1.33561
1.41012
1.46826
1.50666
1.52549
1.52519
1.50574
1.46714
1.41055
1.51281
1.22769
1.25369
1.32569
1.39641
1.45186
1.48852
1.50641
1.50589
1.48684
1.44915
1.39289
1.51693
1.22887
1.24883
1.31604
1.3831
1.43593
1.47089
1.48788
1.48712
1.46844
1.4315
1.37559
1.5206
1.22995
1.24409
1.30665
1.37017
1.42045
1.45376
1.46985
1.46885
1.45051
1.41434
1.35969
1.52386
1.23093
1.23945
1.29751
1.3576
1.40541
1.4371
1.45231
1.45107
1.43304
1.3976
1.34397
1.5267
1.23177
1.23491
1.28863
1.34538
1.39078
1.42091
1.43524
1.43376
1.41602
1.38131
1.32903
1.52912
1.23248
1.23048
1.28
1.33348
1.37655
1.40515
1.41863
1.4169
1.39943
1.36541
1.31399
1.53114
1.23308
1.22616
1.27158
1.3219
1.36271
1.38981
1.40246
1.40046
1.38325
1.34996
1.30004
1.53277
1.23355
1.22192
1.26338
1.31062
1.34925
1.37488
1.3867
1.38444
1.36747
1.33488
1.28604
1.53401
1.23391
1.21776
1.25539
1.29965
1.33615
1.36034
1.37134
1.36882
1.35207
1.3202
1.27279
1.53487
1.23417
1.21368
1.2476
1.28897
1.32338
1.34617
1.35637
1.35357
1.33705
1.30585
1.25935
1.53534
1.23434
1.20966
1.24
1.27858
1.31095
1.33237
1.34177
1.3387
1.32238
1.29184
1.24657
1.53545
1.23445
1.20572
1.23258
1.26845
1.29884
1.31893
1.32754
1.32419
1.30806
1.27819
1.23414
1.53519
1.23447
1.20185
1.22534
1.25859
1.28705
1.30582
1.31367
1.31004
1.2941
1.26483
1.22149
1.53457
1.23443
1.19804
1.21826
1.24898
1.27556
1.29306
1.30015
1.29623
1.28046
1.25181
1.20973
1.53359
1.23432
1.1943
1.21136
1.2396
1.26437
1.28061
1.28696
1.28275
1.26714
1.23913
1.19838
1.53227
1.23411
1.19062
1.20461
1.23048
1.25345
1.26848
1.27409
1.26959
1.25414
1.22677
1.18742
1.5306
1.23383
1.18701
1.19803
1.22157
1.24282
1.25665
1.26153
1.25675
1.24144
1.2147
1.17637
1.52859
1.23351
1.18347
1.19159
1.21289
1.23245
1.24511
1.24928
1.24421
1.22905
1.20291
1.16563
1.52625
1.23309
1.18
1.18531
1.20442
1.22234
1.23387
1.23733
1.23198
1.21694
1.19133
1.15438
1.52357
1.23265
1.1766
1.17918
1.19616
1.21248
1.22289
1.22566
1.22002
1.20511
1.18
1.14392
1.52057
1.23213
1.17327
1.17319
1.1881
1.20286
1.21218
1.21427
1.20835
1.19355
1.16897
1.13408
1.51726
1.23156
1.17
1.16734
1.18022
1.19348
1.20173
1.20316
1.19696
1.18227
1.15822
1.12454
1.51363
1.23093
1.16681
1.16162
1.17254
1.18432
1.19153
1.19232
1.18584
1.17126
1.14772
1.11492
1.50967
1.23027
1.16368
1.15604
1.16505
1.17538
1.1816
1.18174
1.17499
1.1605
1.13746
1.10552
1.5054
1.22955
1.16062
1.1506
1.15774
1.16668
1.1719
1.17143
1.1644
1.15
1.12741
1.09607
1.50082
1.2288
1.15763
1.14529
1.15061
1.15819
1.16245
1.16137
1.15407
1.13974
1.11757
1.08696
1.49593
1.22797
1.15471
1.14012
1.14367
1.14991
1.15323
1.15155
1.14397
1.12971
1.10792
1.07785
1.49072
1.22711
1.15187
1.13508
1.1369
1.14184
1.14424
1.14197
1.13411
1.1199
1.09849
1.06917
1.4852
1.22623
1.14912
1.13019
1.1303
1.13398
1.13547
1.13262
1.12449
1.11032
1.08927
1.06063
1.47939
1.22528
1.14644
1.12542
1.12388
1.12631
1.12692
1.12349
1.11509
1.10096
1.08027
1.05239
1.47329
1.2243
1.14384
1.12079
1.11762
1.11883
1.11857
1.11458
1.10592
1.09182
1.07146
1.0441
1.46689
1.22327
1.14131
1.11629
1.11152
1.11153
1.11043
1.10589
1.09696
1.08288
1.06283
1.03613
1.46021
1.22223
1.13886
1.11192
1.10558
1.10443
1.1025
1.09742
1.08823
1.07417
1.05442
1.02834
1.45323
1.22118
1.13652
1.10768
1.09981
1.09751
1.09476
1.08916
1.07971
1.06565
1.0462
1.02066
1.44597
1.22008
1.13423
1.10358
1.0942
1.09077
1.08723
1.08111
1.07139
1.05734
1.03815
1.01319
1.43844
1.21893
1.13204
1.0996
1.08875
1.08422
1.0799
1.07327
1.06329
1.04922
1.03028
1.00564
1.4306
1.21772
1.12993
1.09577
1.08347
1.07784
1.07276
1.06563
1.05538
1.0413
1.02257
0.998299
1.42247
1.21649
1.1279
1.09208
1.07835
1.07166
1.06581
1.05818
1.04767
1.03356
1.01502
0.991038
1.41404
1.21525
1.12598
1.08853
1.0734
1.06565
1.05905
1.05093
1.04016
1.02602
1.00764
0.984014
1.40533
1.21394
1.12415
1.08513
1.06861
1.05981
1.05248
1.04387
1.03285
1.01866
1.00043
0.977011
1.39633
1.21261
1.12241
1.08187
1.06399
1.05416
1.0461
1.03701
1.02571
1.01147
0.993382
0.970338
1.38707
1.21124
1.12076
1.07875
1.05953
1.04868
1.0399
1.03033
1.01877
1.00446
0.986494
0.963862
1.37753
1.20983
1.11919
1.07578
1.05523
1.04337
1.03388
1.02384
1.01202
0.997636
0.979795
0.957457
1.36773
1.2084
1.11774
1.07294
1.0511
1.03825
1.02805
1.01755
1.00546
0.991005
0.973264
0.951102
1.35764
1.20695
1.11638
1.07027
1.04713
1.0333
1.0224
1.01144
0.99909
0.984543
0.966888
0.945021
1.34729
1.20544
1.11512
1.06775
1.04334
1.02853
1.01693
1.00551
0.992898
0.978262
0.960679
0.938942
1.33667
1.20386
1.11395
1.06538
1.03973
1.02394
1.01165
0.999772
0.986887
0.972147
0.954617
0.933206
1.32577
1.20225
1.11289
1.06318
1.0363
1.01954
1.00656
0.994219
0.981062
0.966223
0.948751
0.927499
1.31457
1.20061
1.11193
1.06114
1.03306
1.01533
1.00166
0.988856
0.975421
0.960477
0.94305
0.921989
1.30309
1.19893
1.11109
1.05929
1.03
1.01131
0.996947
0.983677
0.969963
0.954899
0.937481
0.916314
1.29134
1.1972
1.11034
1.05759
1.02713
1.00747
0.992422
0.978683
0.964686
0.949495
0.932099
0.911443
1.27931
1.19543
1.10969
1.05606
1.02445
1.00384
0.988094
0.973889
0.959612
0.94431
0.926966
0.906567
1.26704
1.19357
1.10916
1.05472
1.02197
1.0004
0.983964
0.96929
0.954728
0.939293
0.921973
0.901808
1.25449
1.19171
1.10872
1.05354
1.01968
0.997169
0.980034
0.964888
0.950035
0.934464
0.917159
0.897095
1.24167
1.18976
1.1084
1.05255
1.01761
0.994142
0.976309
0.960687
0.945537
0.929821
0.912507
0.89252
1.22859
1.18772
1.10818
1.05175
1.01574
0.991331
0.972792
0.956688
0.941239
0.925376
0.908041
0.888012
1.21523
1.18564
1.10809
1.05115
1.01409
0.98874
0.96949
0.952898
0.937136
0.921106
0.903717
0.883742
1.20158
1.18354
1.1081
1.05075
1.01268
0.986381
0.966409
0.949316
0.933238
0.917037
0.899595
0.879593
1.18766
1.18128
1.10823
1.05055
1.0115
0.984253
0.963555
0.945953
0.929547
0.913163
0.895645
0.875646
1.17346
1.17899
1.10847
1.05058
1.01057
0.982374
0.960936
0.942816
0.926076
0.909501
0.891911
0.871826
1.15899
1.17661
1.10882
1.05081
1.00988
0.98074
0.958554
0.939906
0.922811
0.906031
0.888343
0.868325
1.14422
1.17419
1.10929
1.05127
1.00945
0.979365
0.956422
0.937227
0.919774
0.902781
0.884996
0.865
1.12919
1.1717
1.10988
1.05196
1.00929
0.978261
0.954551
0.934804
0.916984
0.899776
0.881893
0.861806
1.11389
1.16909
1.11058
1.05287
1.00941
0.977437
0.952949
0.932633
0.914433
0.896996
0.879011
0.858906
1.09832
1.16635
1.1114
1.05403
1.0098
0.976906
0.951623
0.930723
0.912129
0.894446
0.876349
0.856313
1.08246
1.16355
1.11234
1.05544
1.0105
0.97668
0.950588
0.929089
0.910084
0.892162
0.873957
0.853844
1.06633
1.16061
1.1134
1.05711
1.01151
0.97677
0.949862
0.927744
0.908305
0.890108
0.871748
0.851643
1.04991
1.15758
1.11457
1.05903
1.01286
0.977198
0.949458
0.926704
0.906817
0.888338
0.86982
0.849609
1.0332
1.15452
1.11585
1.06125
1.01454
0.977985
0.949397
0.925982
0.905628
0.886851
0.868158
0.847828
1.0162
1.15125
1.11729
1.06375
1.01659
0.97914
0.949696
0.925593
0.904747
0.88564
0.866728
0.846223
0.998911
1.14791
1.11884
1.06656
1.01902
0.980693
0.950373
0.925563
0.904203
0.884749
0.865622
0.844953
0.981332
1.14448
1.12051
1.06966
1.02184
0.982655
0.951451
0.925912
0.904013
0.8842
0.864856
0.844096
0.963486
1.14079
1.12231
1.07309
1.02506
0.985066
0.952955
0.926665
0.904211
0.884039
0.864503
0.843531
0.945343
1.13704
1.12424
1.07683
1.02872
0.987926
0.954909
0.92783
0.904785
0.8842
0.864364
0.842853
0.92691
1.13319
1.12625
1.08093
1.03284
0.991274
0.957328
0.929429
0.905752
0.884705
0.864538
0.842682
0.908199
1.12909
1.12843
1.08536
1.03743
0.995131
0.960251
0.931504
0.907158
0.88564
0.865163
0.843029
0.889177
1.12492
1.13072
1.09018
1.04253
0.999556
0.963725
0.934095
0.909042
0.887005
0.866137
0.843678
0.869864
1.12046
1.13318
1.09538
1.04816
1.00457
0.967796
0.937253
0.911459
0.888878
0.867648
0.844974
0.850253
1.11585
1.13571
1.10099
1.05438
1.01023
0.972507
0.941015
0.914441
0.891293
0.869691
0.846845
0.830369
1.11116
1.13839
1.10701
1.06121
1.01657
0.977907
0.94544
0.918033
0.894284
0.872291
0.849054
0.810186
1.1062
1.14121
1.11349
1.06868
1.02364
0.984037
0.950551
0.922252
0.897797
0.875234
0.851199
0.78969
1.10101
1.14418
1.12043
1.07683
1.03151
0.990968
0.956417
0.927167
0.901953
0.878815
0.854354
0.768908
1.09556
1.14729
1.12788
1.08574
1.04025
0.998783
0.963136
0.932885
0.906883
0.88321
0.858453
0.747848
1.09006
1.15053
1.13586
1.09546
1.04991
1.00757
0.970781
0.939445
0.912553
0.888167
0.862836
0.726469
1.08418
1.15396
1.14442
1.10605
1.06062
1.01742
0.97945
0.946955
0.919085
0.893947
0.867938
0.70479
1.07804
1.15759
1.15364
1.11761
1.07247
1.02847
0.989259
0.955512
0.926543
0.900503
0.873799
0.682827
1.07185
1.16142
1.16355
1.13027
1.08561
1.04086
1.00037
0.96528
0.935106
0.908107
0.880686
0.660523
1.06524
1.16557
1.17431
1.14416
1.10022
1.05476
1.01295
0.976392
0.944893
0.916792
0.888315
0.6379
1.05846
1.17009
1.18603
1.15949
1.11649
1.07038
1.02716
0.98898
0.955978
0.926647
0.897222
0.614899
1.05144
1.17515
1.19903
1.17651
1.13471
1.08796
1.04321
1.00321
0.968476
0.93768
0.907089
0.591522
1.04442
1.18112
1.21363
1.19567
1.15522
1.1078
1.06134
1.0193
0.982613
0.950233
0.918468
0.567652
1.03756
1.18859
1.23052
1.21745
1.17841
1.13022
1.08183
1.03744
0.998484
0.964218
0.931002
0.543224
1.03213
1.19876
1.25066
1.24251
1.20472
1.15546
1.10481
1.05777
1.01618
0.97966
0.944526
0.518109
1.03164
1.21486
1.27643
1.27214
1.23498
1.18425
1.13106
1.08087
1.03616
0.996845
0.959468
0.488549
1.03296
1.2298
1.3028
1.30042
1.26395
1.21203
1.15748
1.10422
1.05709
1.01492
0.97584
1.03712
0.00467455
0.345663
0.320291
0.31924
0.287787
0.278279
0.646714
0.827845
0.774986
0.565735
0.00776351
0.0325008
3.01085
0.275254
0.00354834
2.82342
0.110189
0.107237
0.00348195
0.13993
0.175568
0.144204
0.0268319
1.05247
0.344766
0.159318
0.372725
0.602226
0.809911
0.535822
1.16639
0.00419666
0.556253
0.0310309
0.164861
0.387565
0.468731
0.392973
0.00816633
0.0700938
0.00337598
0.071356
0.528212
0.268994
0.172535
0.0606131
0.0247543
0.271934
0.139385
0.163041
0.634461
0.263529
0.00321463
1.98189
0.00444179
0.0106256
0.00337294
0.469431
0.264644
0.154999
1.1911
0.0032091
0.0168264
0.182612
0.00452739
0.884437
0.252892
1.53182
0.686549
1.87823
0.053379
0.383317
0.725544
0.0272948
0.00322988
0.794542
0.00309478
0.0699441
0.240953
0.103079
0.00310374
0.406118
0.295813
0.0163088
1.11516
0.880139
0.00319467
0.389364
0.238294
0.353628
0.651127
0.00319825
0.00391868
0.457397
0.00326117
0.360208
0.0127675
0.003172
0.894795
1.10418
0.202478
0.0033521
0.00433572
0.00312131
0.515339
0.510823
0.689638
0.530609
0.00873367
0.0942301
0.00312697
0.202223
0.00372459
0.00318214
0.219345
0.0194709
0.218952
1.08949
0.175416
1.01991
0.0292435
1.69463
0.198543
0.125244
1.28816
0.00404848
1.9645
0.032216
0.00320012
0.231729
0.00323636
0.2334
0.00434067
0.162075
0.00514166
0.233795
0.593629
0.207702
0.00584559
0.0169724
0.145063
0.269845
0.025195
0.174927
1.89159
0.299132
0.00453808
0.979607
0.374112
0.0629144
0.213483
0.00309237
0.114294
0.155726
0.00314712
0.248298
0.0032022
1.27566
0.00707292
0.026957
0.00356769
0.12762
0.0132573
0.148967
0.0840694
0.984246
0.292263
0.335197
0.00307374
1.88257
0.755179
1.98666
0.0178654
0.0030618
0.572148
0.00311684
0.306412
0.137288
0.716803
1.00874
0.436555
0.0627092
0.371386
0.00338924
0.262515
0.00317769
0.00315333
0.175683
0.00318554
0.485636
0.00310669
0.936568
0.00475278
0.283889
0.296151
0.271565
0.164794
0.00312696
3.16718
1.01634
0.318505
0.41451
0.216981
0.32499
0.104601
0.0912215
0.227984
0.700152
0.216068
0.288553
0.896787
0.500525
0.397088
0.00315442
0.283679
0.0129377
0.425316
3.24377
0.210785
0.295176
1.01749
0.339374
0.00315662
0.00318779
1.30448
1.11448
0.00326938
4.19706
0.0322426
0.31239
0.120979
0.00311763
0.943112
0.412154
0.253702
0.246074
1.07521
0.653228
0.322054
0.154182
0.160642
1.25153
1.68181
0.374903
0.282107
0.228194
0.00350417
1.39187
0.290056
0.648165
0.723308
0.377332
3.94562
0.237243
0.239414
0.208821
0.310336
0.575736
0.342167
0.215514
0.258283
0.0157062
0.0896494
0.683694
0.262024
0.918775
0.506833
0.359421
1.48994
0.28613
0.0500976
1.63454
0.209182
0.208438
1.69081
0.242871
0.260497
0.30239
0.204036
0.866077
0.239327
0.372927
0.331675
0.611538
0.272934
0.472379
0.208048
1.1171
0.128166
0.202109
1.66362
0.226358
0.224913
0.283365
0.919625
0.119123
0.206169
0.0674865
0.480868
0.183206
0.105246
1.36462
2.05135
0.1535
0.950655
0.324098
0.00318779
0.200423
0.165463
0.210372
0.289401
0.00315745
1.18251
0.320335
0.0670951
0.225831
0.759334
0.00315194
0.638317
0.0386658
0.577244
0.420606
4.92092
0.503611
0.755456
0.536684
0.00313869
0.00316284
0.285522
0.444783
0.00309003
0.515179
0.00311557
0.00316214
0.00322411
0.00311703
0.139815
0.00316362
0.00580147
1.03361
0.512207
0.003229
0.334799
0.00983911
0.19594
0.295549
1.28398
4.13674
0.478756
0.00303769
0.00323808
0.0816452
0.133515
0.208983
0.00306585
0.0985477
0.316389
0.875342
0.37617
0.178014
0.273857
1.02256
4.07687
0.156192
0.32402
0.00364724
0.00318513
0.158088
0.256146
0.115914
0.173815
0.506099
2.74324
1.69029
0.143233
0.343286
1.01065
0.00319792
0.417971
0.74966
0.00526438
0.00316315
0.520321
3.82135
0.734821
0.00308476
0.0486992
0.1542
0.0255717
0.00319847
0.830293
0.380994
0.277864
0.282381
0.00374585
3.80517
0.00314262
0.234851
0.542394
0.00647789
0.0111091
0.9583
0.00877768
1.40524
0.766633
1.14731
0.650905
0.172505
0.681758
0.00313944
0.0030995
0.0031722
1.03492
0.0751848
1.26209
2.75963
0.164361
0.591915
0.0031788
0.0106869
0.274419
0.00308121
0.00317152
0.703204
0.00308344
0.226975
0.913122
0.372284
0.00304292
0.00748038
0.110205
0.115612
0.236873
0.144394
0.00310504
3.33549
0.833732
0.109041
0.0123595
0.327966
0.199665
0.00710175
0.279554
0.00688788
0.842325
0.00352663
0.250064
0.132435
0.0031162
1.29836
0.23827
0.322047
0.00928431
0.469281
0.143808
0.00516256
0.217549
0.490516
0.35102
1.10866
0.0239839
0.0506667
0.011512
1.30805
0.673609
0.0627054
0.137023
0.162489
0.334783
0.181477
0.511468
1.10306
0.00305387
2.04327
0.91168
0.226372
0.0030981
0.26818
0.958973
0.0245338
0.437077
0.349087
0.255656
0.126292
0.177488
0.2594
0.00358484
0.0188694
0.872474
0.0390148
0.0043823
0.922806
4.07823
0.039418
0.200331
0.785703
0.0897603
0.491362
0.259747
0.840632
0.321017
0.291539
0.00322984
0.0848053
0.448116
0.382131
1.32868
0.214643
1.41898
0.937307
3.74331
0.884631
0.309255
0.00316685
1.26019
0.204262
0.798651
0.414428
0.162802
0.0840429
0.424427
0.0032159
0.297646
0.00317778
0.341502
0.419572
0.213305
0.17542
1.26795
0.241308
1.03877
0.639896
1.97186
0.00321737
0.123266
0.929911
2.44529
0.195724
0.714764
0.00361514
0.0281511
0.348631
1.85278
0.589786
0.00310236
0.0580171
0.00312256
0.0584628
0.351315
0.0374541
0.843107
0.142369
0.589886
0.155211
0.124585
1.22977
0.708863
0.00319514
0.00319638
0.257468
1.2135
0.276137
0.59617
0.439778
0.664672
0.267165
0.00304058
0.186541
0.253783
0.00485371
1.04584
0.265239
0.176744
0.27484
0.0127047
0.00304588
0.023639
0.00313915
0.644501
0.814865
0.709758
0.635563
0.00319262
1.47366
0.0894986
0.74297
0.134793
1.72723
0.00844878
0.15408
0.00307647
0.497009
0.716404
0.315965
0.407968
0.00303716
1.2975
0.802912
0.510981
0.00311696
0.0700399
0.810692
0.615158
0.00609232
2.17234
0.00373653
0.801049
0.611397
0.00362808
0.131234
0.0874147
0.201704
0.00310538
0.00319886
1.15374
0.432035
0.322195
0.526711
0.00487444
0.127624
0.0979152
0.76595
0.208083
0.00395291
0.207697
1.20845
0.00307843
0.00819196
0.286873
0.635647
1.11258
0.00315787
0.729322
0.221888
1.30454
0.0297219
0.151476
0.816391
0.00319945
0.19948
0.137371
0.37605
0.381556
0.722166
0.274588
1.21305
1.17323
0.282152
2.70491
0.00323595
0.00315026
1.49246
0.780606
0.0047528
0.00315674
0.471433
0.00320625
0.820687
0.540285
0.247089
0.00311713
0.805118
0.0513279
0.29194
1.21195
0.23591
0.147908
0.144473
1.34261
0.00319209
0.284748
0.978127
0.235056
0.554913
0.006721
0.531303
0.262139
2.03135
0.00313009
0.148124
0.680624
0.305585
0.00332033
0.094983
0.342745
0.439771
1.26542
0.0589978
1.87083
0.40661
0.0924264
0.404875
0.00313412
0.0073577
0.360835
0.00306867
0.175669
0.00316523
0.244751
0.0107549
0.836491
0.00321806
0.110207
0.494383
1.60556
0.355029
0.6671
0.162839
2.4416
0.0155646
0.0931699
0.569421
0.00309928
0.00320601
0.380247
0.155317
0.248888
0.390617
0.00328359
0.216287
0.218803
0.201085
0.490433
1.14416
0.200177
0.00319667
1.88262
2.42257
0.506942
0.00323832
0.0107988
2.08791
0.260967
0.00311958
1.29008
0.00310057
0.08016
2.73822
0.00354621
0.291331
0.00314939
0.0563625
0.751412
0.00324368
0.00401409
0.00318308
0.00379786
0.0216177
3.80235
0.802042
0.0934881
0.242024
0.00316396
0.761863
0.00317333
0.246954
0.231766
0.02467
0.159324
0.0138587
1.14707
0.0031839
4.32204
0.216662
0.62605
0.351129
0.162566
0.00309675
0.193808
1.09425
0.128941
0.748521
0.88291
1.68876
0.349636
0.0418225
0.625006
0.0837242
0.00406186
0.106201
2.46843
1.14441
0.119454
0.00822048
0.298004
0.00375338
0.44179
0.868844
1.083
0.838993
0.893146
0.037079
0.00582558
0.32657
0.225033
0.048211
0.270097
0.0031608
0.261368
1.95993
0.00330166
1.69184
0.780188
0.114214
0.101499
1.44629
0.0235878
0.100947
0.455413
0.309377
0.292878
0.00322322
0.671274
0.0760616
0.271306
0.382967
0.19913
0.22123
0.00684726
0.685063
0.00317336
0.00316048
0.228208
0.104523
0.15914
1.91294
0.00304441
1.13688
0.0643613
0.0576144
0.00338855
1.71706
0.361892
0.0895867
0.781587
0.059541
1.15966
0.154063
0.00314244
1.1936
2.08343
0.00545394
0.00873892
0.203651
1.03433
0.0989312
1.32438
0.0351321
0.232487
0.103668
0.156367
0.678164
0.203335
0.00318774
1.17204
0.329327
0.0151016
0.196268
4.2467
0.276867
0.00317658
0.00307368
0.761182
0.184489
1.01011
0.00306696
0.712277
0.294696
0.408748
0.00376511
0.313884
0.774307
0.00537501
0.259063
0.00321588
1.1197
0.211497
0.345942
0.262798
0.00314596
0.00314547
0.345229
1.40128
0.384327
0.729552
0.00305324
0.0452698
0.00320785
0.00624998
1.15609
0.0738921
0.0966826
0.124265
0.325825
0.305578
0.35633
1.20613
0.00317273
0.304908
0.72913
0.246095
0.00319247
0.939742
0.003205
0.0031662
0.0881842
0.212463
0.0250792
1.36187
0.203671
2.79458
0.00328433
0.00475685
0.0395651
0.903081
0.304558
0.962556
0.00316808
0.00314823
0.00628197
0.0083409
1.10128
0.802773
0.640835
0.123127
0.044704
0.314161
0.163915
0.577927
0.275659
0.876406
0.312417
0.0030813
0.332568
0.00536263
0.193564
0.885927
0.184807
0.230954
0.132603
0.00380701
1.33941
0.514356
0.485966
0.315105
0.00315922
0.588594
0.759564
0.334024
0.00821181
0.90986
0.479931
0.835447
0.328519
0.33659
0.588953
0.119633
0.861149
0.256602
0.0975432
0.236315
0.00317869
1.2105
0.862447
0.00311796
0.681567
0.0047686
0.538376
0.204699
0.236282
0.26722
0.730592
0.948513
0.262072
0.130682
0.174997
0.219269
0.0125064
0.00310415
1.02465
0.0613566
0.935074
0.549751
0.222996
0.831528
0.545303
0.00314498
0.278648
1.53377
1.06071
0.226542
0.23952
0.568299
1.89155
0.190906
0.233706
0.0248509
0.0833897
0.547322
1.19217
0.111216
0.839051
0.817834
0.782371
0.239716
0.230266
0.423452
0.689851
0.00319154
1.93607
0.669874
0.203686
0.00319069
0.589269
0.471882
0.295178
0.00317396
0.591334
0.00317247
0.242959
0.0909046
0.00319418
0.820184
0.347911
0.00310567
0.531725
0.37393
0.606236
0.258929
0.519262
0.279511
0.701857
0.169411
0.156393
0.00312916
0.00470222
0.344015
0.173004
0.0232413
0.00322944
0.355177
0.00603099
0.119218
0.11811
0.443735
0.206927
0.0573185
0.0940782
0.549951
1.63215
0.330048
4.10988
0.867029
0.00311839
0.540928
0.586635
1.67252
0.00312656
0.172831
0.00318786
0.00358961
0.277768
0.288375
0.0389898
0.00340706
0.80225
3.72005
0.00737628
0.00317631
0.129032
0.261184
0.0239182
0.0737302
3.84664
0.139864
0.00338958
0.00317727
0.965845
0.263169
0.135063
0.0590699
0.65173
1.13147
0.392221
0.247388
0.676417
0.00317321
0.49986
0.00315967
0.231138
0.274599
5.37201
0.17788
0.0894822
0.00382582
1.18185
0.0031945
0.00313393
0.00584615
0.27231
0.287777
0.973651
0.00314923
0.505297
0.0031723
0.692444
0.973782
0.00320493
0.725556
0.223692
0.00317302
0.00330124
0.0317928
1.10281
0.382044
0.0263494
0.00317425
0.00313242
0.848618
0.685722
0.327279
0.751029
0.11718
0.438556
0.00314886
0.0102888
0.381199
0.810629
0.755888
0.0088537
0.00317627
0.398325
0.00319725
0.203752
0.805734
0.352124
0.0429806
0.200944
0.504032
0.156384
0.00316968
0.51136
1.3284
0.648292
0.00642462
0.0305202
0.687555
3.69002
0.0545984
0.372158
0.00311026
0.00308781
0.00321417
0.018727
0.402136
1.0718
0.0104247
0.220997
0.631368
1.23413
0.205871
0.0196523
0.00794697
0.00756445
0.157579
0.171614
0.237306
0.00322348
1.34012
0.0031432
0.0136181
0.840661
0.849854
0.0362869
0.371133
0.46615
0.00409636
0.129982
0.253801
0.00315478
0.00377953
1.11951
0.00365445
0.0032248
0.707325
0.235881
2.09273
0.208945
2.40919
0.00355927
0.00311487
3.2411
0.296352
0.224305
0.496826
0.0601445
0.233153
0.195735
1.02097
0.811595
0.58837
0.582119
0.233396
0.110909
0.322167
0.728313
0.0146089
0.351646
0.00392081
0.439632
0.366035
0.106624
0.382526
0.188141
0.411822
0.206525
0.262631
1.1087
0.460147
0.216053
0.31777
0.707922
0.32443
0.00420896
0.00315951
0.110637
2.22193
0.00316167
1.78381
0.00312455
0.00986879
0.340126
0.221575
0.817481
0.679646
0.902558
1.13609
0.519965
0.38687
0.00316697
0.290616
1.05463
0.00323919
1.24365
0.00712688
1.70883
0.940534
1.13359
0.274396
0.206335
0.282373
0.0915821
0.284843
1.23209
0.360698
0.777727
0.169344
0.203214
0.0851059
0.231817
0.953072
0.0095286
0.663221
0.00319426
0.00393089
0.300151
1.51356
0.33834
0.274096
0.163834
0.110259
0.121182
0.00346953
0.340928
0.00346784
0.705376
0.00341619
0.0578459
0.943152
0.1713
0.305015
0.333959
0.31807
0.00622615
0.0032144
0.0987983
0.267053
0.114357
0.517299
0.0423452
0.366231
0.23871
0.37481
0.791369
0.00359234
0.00314781
1.68378
0.225805
0.171528
0.807826
0.68549
0.814606
0.00985052
1.68014
0.336221
0.213201
0.00347625
0.196109
0.403541
0.205569
0.206887
0.265882
0.00323013
0.470883
0.00313398
0.627967
0.0106501
0.439791
0.117595
0.407587
0.00324326
6.53521
0.0031925
1.50591
0.0254946
0.00317495
0.014534
0.275076
0.00317078
0.00318043
0.39466
0.0326325
0.327566
0.0567869
0.00332584
0.219469
0.185967
0.445393
0.00334007
0.224009
0.18969
1.3559
0.704297
0.394848
0.416296
0.215741
0.305133
0.778252
0.831859
0.211304
0.00322413
0.1443
0.362249
0.306565
0.00471365
0.00851934
0.234836
1.57352
0.00318406
0.205305
1.23156
0.00305633
0.846595
0.932666
0.357036
0.594983
0.793778
0.259141
0.129568
2.58399
0.409673
0.881144
0.818787
0.222681
0.107009
0.00316627
0.420753
0.00586534
0.00321786
0.00313412
0.300764
0.00316627
0.00373244
0.535357
4.05383
0.40554
0.211124
0.830812
0.239463
0.00318193
0.166151
1.14368
0.0251846
0.163783
1.01542
0.313453
0.125023
0.031093
0.00314365
0.00316802
0.0272071
0.0447032
0.303403
0.300507
1.23219
0.267691
0.268791
0.00395261
0.50299
0.21406
0.0032118
0.342654
3.37079
0.00320805
0.360996
1.0164
0.736238
0.656438
0.189104
1.09879
0.00356112
0.209368
0.00331796
0.00632815
0.00320971
0.831595
0.566164
0.0738577
0.00319327
0.00307357
1.11312
0.386674
0.287994
0.235822
0.352916
0.435285
0.305892
0.3482
0.350535
0.0031772
0.150603
0.123003
0.135784
0.38507
1.0557
0.764318
0.591251
0.363709
1.11251
0.826516
0.95852
0.416604
0.878225
0.0644327
0.822185
0.393394
0.0279918
1.01195
0.852753
0.445191
0.00311474
0.00320084
0.00360872
0.00443862
0.472748
0.00305017
0.494574
0.165294
0.996078
0.76389
0.00317119
0.472155
0.283659
0.187046
0.275794
0.390244
0.550479
0.00326466
0.00319927
0.00908633
0.10014
0.00313237
0.637718
0.26725
0.251374
0.757057
0.512369
0.441763
0.532287
0.00316787
0.319055
0.666314
0.00381179
0.0786425
0.409759
0.314938
0.534936
0.193027
0.00325533
0.376132
0.359038
0.00384967
0.0204289
0.00315783
0.179054
0.00440235
0.143229
1.2835
0.111346
0.0732485
0.998345
1.81203
0.00326866
0.625775
0.00306203
0.224707
0.347005
0.248341
0.481322
0.690778
0.674098
0.801763
1.21931
0.743466
0.00317859
0.00314516
0.0529824
0.101042
0.603676
0.172023
0.00319328
1.58342
0.252719
0.00823798
0.7852
0.0584564
0.00814777
0.0401997
0.994439
0.00645588
0.00319462
0.258928
0.206048
0.638225
0.116866
0.226474
0.202615
0.00321336
0.291121
0.0899643
0.0598187
0.00337478
0.203025
0.531719
0.173288
1.44487
1.33087
0.316481
0.412006
0.00316335
0.360095
0.00319473
2.72328
0.0103032
0.430578
0.0939165
0.837313
0.0163035
0.00931896
0.246486
0.306419
1.3017
0.00356367
0.211063
0.482539
0.609489
0.185034
0.999017
0.120193
0.00343376
0.00320506
0.477778
0.633003
1.06124
0.28826
0.0845044
0.53047
0.328841
0.815608
0.0458112
0.00316902
0.00318277
0.121745
0.707105
0.68728
0.988431
0.00353236
0.0109361
0.166978
0.452937
0.26903
0.756102
0.350355
0.876064
0.00319887
0.00320907
1.13285
0.27524
0.882205
2.87327
0.360521
0.0245617
1.40717
0.00318355
1.02297
0.0275884
0.0306764
0.00317095
0.0415987
0.0842142
0.834267
0.79123
0.00322673
0.758289
0.00315973
0.601478
1.56117
0.00314503
0.156594
0.00322657
0.259516
0.127099
0.174169
0.00308798
0.26211
0.211815
0.257175
1.01999
0.169187
1.2206
0.216159
0.829682
0.237806
1.11388
0.634924
0.00383982
0.00320808
0.375709
0.194206
0.819563
0.00317723
2.10598
0.00315892
0.00477791
0.0370373
0.00315993
1.14005
0.970316
0.00324379
0.662821
0.255539
0.102128
0.706496
0.00607537
0.00312892
0.423527
0.383953
0.00972632
0.773406
6.65639
1.35384
0.154377
1.19321
0.103925
0.00318523
0.00368582
0.0350556
0.136818
0.841185
1.08589
1.31341
0.792508
0.53169
0.507124
0.256055
0.647987
1.9379
0.589926
0.0428988
0.0780157
0.277018
1.50181
0.00338138
0.193528
0.65292
0.333192
0.00317261
0.424528
0.00306118
0.0138251
0.843527
0.00338747
0.298436
1.84717
0.00318984
0.352348
0.00351437
0.336936
0.014057
0.00406525
0.763934
0.255662
0.912369
0.397911
1.11685
1.64596
0.489908
0.17543
0.749252