/*--------------------------------*- C++ -*----------------------------------*\
| =========                 |                                                 |
| \\      /  F ield         | OpenFOAM: The Open Source CFD Toolbox           |
|  \\    /   O peration     | Version:  2.3.1                                 |
|   \\  /    A nd           | Web:      www.OpenFOAM.org                      |
|    \\/     M anipulation  |                                                 |
\*---------------------------------------------------------------------------*/
FoamFile
{
    version     2.0;
    format      ascii;
    class       volScalarField;
    location    "0.33";
    object      nut;
}
// * * * * * * * * * * * * * * * * * * * * * * * * * * * * * * * * * * * * * //

dimensions      [0 2 -1 0 0 0 0];

internalField   nonuniform List<scalar> 
15166
(
9.72329e-05
0.000157109
0.000261924
0.000375932
0.000475963
0.000590417
0.000708402
0.000836425
0.000955867
0.0010787
0.00119525
0.00129525
9.72476e-05
0.000171008
0.00028261
0.000396459
0.000500086
0.00061354
0.000730202
0.00085338
0.00097049
0.00108881
0.00120103
0.00130184
9.76114e-05
0.000182309
0.000298844
0.000413389
0.000519889
0.000632719
0.000748093
0.000867537
0.000982441
0.00109696
0.00120561
0.00130622
9.8085e-05
0.00019243
0.000312685
0.000427984
0.000536524
0.000648794
0.000762898
0.000879357
0.000992135
0.00110338
0.00120903
0.00130948
9.85913e-05
0.000201582
0.000324927
0.000440941
0.000550842
0.000662512
0.000775306
0.000889254
0.000999988
0.00110836
0.00121151
0.00131137
9.91387e-05
0.000209812
0.000335907
0.00045257
0.00056335
0.00067434
0.000785812
0.000897568
0.0010063
0.00111211
0.00121304
0.00131217
9.97223e-05
0.000217208
0.000345882
0.000463102
0.000574356
0.000684625
0.000794776
0.000904538
0.00101135
0.00111483
0.00121375
0.0013126
0.00010034
0.000223854
0.000355054
0.000472701
0.000584135
0.000693629
0.000802469
0.000910391
0.00101535
0.00111671
0.00121399
0.00131316
0.000100972
0.000229814
0.000363576
0.000481555
0.000592916
0.000701573
0.000809111
0.000915317
0.00101849
0.0011179
0.00121377
0.00131288
0.000101615
0.00023513
0.000371535
0.000489761
0.00060087
0.000708647
0.000814882
0.000919446
0.00102091
0.00111855
0.00121322
0.00131209
0.000102266
0.000239853
0.000378998
0.000497411
0.000608114
0.000714975
0.000819921
0.000922912
0.00102273
0.00111879
0.00121258
0.00131231
0.000102914
0.000244016
0.000386
0.000504578
0.000614755
0.000720671
0.000824341
0.000925816
0.00102407
0.00111872
0.00121186
0.00131169
0.000103559
0.000247661
0.000392579
0.000511301
0.000620885
0.000725829
0.000828229
0.000928243
0.00102501
0.0011184
0.00121094
0.00131002
0.000104196
0.000250848
0.000398756
0.000517629
0.000626561
0.000730507
0.000831664
0.000930259
0.00102562
0.00111784
0.00120958
0.00130749
0.000104826
0.000253587
0.000404548
0.000523606
0.000631839
0.000734785
0.000834706
0.00093194
0.00102596
0.00111708
0.00120811
0.00130527
0.000105442
0.000255931
0.000409952
0.00052925
0.000636764
0.000738694
0.0008374
0.000933309
0.00102607
0.00111616
0.00120644
0.00130235
0.000106047
0.000257903
0.000414975
0.000534586
0.000641375
0.000742287
0.000839797
0.000934434
0.00102598
0.00111507
0.00120457
0.00129943
0.000106633
0.000259546
0.000419637
0.000539642
0.000645714
0.00074561
0.000841942
0.000935322
0.0010257
0.00111385
0.0012025
0.00129604
0.000107202
0.000260896
0.000423932
0.00054442
0.000649785
0.00074867
0.000843842
0.000936028
0.00102529
0.0011125
0.00120032
0.0012927
0.000107757
0.000261968
0.000427878
0.000548935
0.000653631
0.000751508
0.000845546
0.000936558
0.00102474
0.00111104
0.00119803
0.00128938
0.000108298
0.000262803
0.000431469
0.000553196
0.000657251
0.000754142
0.00084706
0.000936933
0.00102407
0.00110947
0.00119557
0.00128559
0.000108819
0.000263411
0.000434714
0.000557219
0.000660678
0.000756585
0.000848406
0.000937171
0.0010233
0.00110781
0.00119295
0.0012817
0.000109313
0.000263832
0.000437631
0.000560991
0.00066391
0.000758863
0.00084961
0.000937297
0.00102243
0.00110604
0.00119027
0.00127861
0.0001098
0.000264075
0.000440219
0.00056453
0.000666965
0.00076099
0.000850686
0.000937321
0.00102147
0.00110418
0.00118748
0.00127496
0.000110261
0.000264158
0.000442488
0.000567848
0.000669853
0.000762979
0.000851638
0.00093724
0.00102044
0.00110225
0.00118468
0.00127193
0.000110705
0.000264112
0.000444449
0.00057094
0.000672583
0.000764831
0.000852479
0.000937076
0.00101933
0.00110026
0.00118184
0.00126842
0.000111133
0.000263938
0.000446111
0.000573796
0.000675159
0.000766564
0.000853224
0.00093683
0.00101815
0.00109822
0.00117906
0.00126567
0.000111539
0.000263672
0.000447502
0.000576432
0.000677577
0.000768179
0.000853881
0.00093651
0.00101692
0.00109615
0.00117637
0.00126312
0.000111925
0.000263307
0.00044861
0.000578859
0.000679852
0.000769688
0.000854443
0.000936131
0.00101564
0.00109406
0.00117366
0.00125974
0.00011229
0.000262844
0.000449469
0.000581062
0.000681987
0.000771091
0.000854933
0.000935684
0.00101432
0.00109195
0.00117098
0.00125694
0.000112633
0.000262332
0.000450066
0.000583051
0.000683976
0.000772401
0.000855347
0.000935189
0.00101296
0.00108984
0.00116827
0.00125352
0.000112965
0.000261747
0.000450444
0.000584821
0.000685829
0.000773613
0.000855698
0.000934637
0.00101157
0.00108771
0.00116558
0.00125064
0.000113285
0.000261109
0.000450589
0.000586398
0.000687551
0.00077474
0.000855977
0.000934047
0.00101016
0.00108558
0.00116285
0.00124705
0.000113573
0.000260437
0.000450541
0.000587763
0.000689132
0.000775777
0.000856203
0.000933416
0.00100872
0.00108343
0.00116013
0.001244
0.000113848
0.000259729
0.000450288
0.00058894
0.000690584
0.000776725
0.00085637
0.000932747
0.00100725
0.00108127
0.00115738
0.00124038
0.000114116
0.000258992
0.000449869
0.000589903
0.000691899
0.000777595
0.000856487
0.000932042
0.00100577
0.00107911
0.00115467
0.00123761
0.00011435
0.000258227
0.000449268
0.000590686
0.000693085
0.00077838
0.000856542
0.000931295
0.00100427
0.00107695
0.00115203
0.00123512
0.000114579
0.000257445
0.000448513
0.000591275
0.000694137
0.000779088
0.000856554
0.000930526
0.00100275
0.0010748
0.00114939
0.00123182
0.000114787
0.00025665
0.000447615
0.000591685
0.000695063
0.000779707
0.000856517
0.000929731
0.00100123
0.00107265
0.00114675
0.00122864
0.000114974
0.000255847
0.000446586
0.000591922
0.000695866
0.000780261
0.000856433
0.000928904
0.000999695
0.0010705
0.0011441
0.00122528
0.000115153
0.000255026
0.000445434
0.000591981
0.000696537
0.000780729
0.000856304
0.00092806
0.000998152
0.00106834
0.00114134
0.00122142
0.000115307
0.000254124
0.000444147
0.000591877
0.000697079
0.000781124
0.000856131
0.00092719
0.0009966
0.00106617
0.00113857
0.00121864
0.000115453
0.000253191
0.000442765
0.000591615
0.000697502
0.00078144
0.000855915
0.000926303
0.000995041
0.00106399
0.0011358
0.00121527
0.000115573
0.000252194
0.000441238
0.000591189
0.000697795
0.000781679
0.000855656
0.00092539
0.000993467
0.0010618
0.00113306
0.00121254
0.000115677
0.000251193
0.000439549
0.000590611
0.000697971
0.000781837
0.000855354
0.000924457
0.000991884
0.00105961
0.00113033
0.00120909
0.000115769
0.000250229
0.000437736
0.000589862
0.000698017
0.000781924
0.000855017
0.000923503
0.000990294
0.00105742
0.00112763
0.00120656
0.000115848
0.00024921
0.000435833
0.000588908
0.000697917
0.000781933
0.000854629
0.000922529
0.000988689
0.00105523
0.00112494
0.0012032
0.000115903
0.000248224
0.000433836
0.000587816
0.000697685
0.000781852
0.000854196
0.000921532
0.000987077
0.00105303
0.00112229
0.0012006
0.000115947
0.000247241
0.000431799
0.000586557
0.000697314
0.000781693
0.000853722
0.000920507
0.000985456
0.00105085
0.00111965
0.00119739
0.00011598
0.000246263
0.000429654
0.000585151
0.000696816
0.000781435
0.000853199
0.000919466
0.000983821
0.00104866
0.00111703
0.00119481
0.000116
0.000245328
0.000427451
0.000583604
0.00069619
0.000781105
0.000852629
0.000918403
0.000982187
0.00104648
0.00111437
0.00119124
0.000116005
0.000244355
0.000425195
0.000581904
0.000695423
0.000780674
0.00085201
0.000917311
0.000980547
0.00104431
0.00111173
0.00118791
0.000115994
0.000243434
0.000422897
0.000580097
0.00069453
0.00078016
0.000851339
0.000916209
0.000978903
0.00104214
0.00110913
0.00118562
0.000115975
0.000242518
0.000420559
0.000578145
0.0006935
0.000779558
0.000850629
0.000915083
0.000977256
0.00103999
0.00110657
0.0011829
0.000115936
0.000241612
0.00041819
0.000576079
0.000692344
0.000778864
0.000849862
0.000913934
0.000975605
0.00103784
0.00110405
0.00118024
0.000115881
0.000240711
0.000415793
0.000573904
0.000691069
0.000778071
0.000849043
0.000912761
0.000973947
0.0010357
0.00110152
0.0011769
0.000115821
0.000239865
0.000413379
0.000571628
0.000689657
0.000777193
0.000848175
0.00091156
0.000972282
0.00103358
0.001099
0.00117402
0.000115745
0.000238986
0.00041095
0.000569233
0.000688129
0.000776224
0.000847239
0.000910335
0.000970614
0.00103146
0.00109644
0.00117034
0.000115651
0.00023816
0.000408508
0.00056675
0.00068647
0.000775144
0.00084626
0.000909086
0.000968942
0.00102934
0.00109392
0.0011684
0.000115556
0.000237349
0.000406096
0.000564209
0.000684712
0.000773982
0.000845206
0.000907798
0.000967251
0.00102721
0.00109141
0.00116563
0.000115442
0.000236575
0.000403645
0.000561562
0.000682825
0.000772712
0.000844095
0.000906484
0.000965558
0.0010251
0.00108891
0.00116254
0.000115312
0.000235778
0.000401193
0.00055884
0.000680808
0.000771339
0.000842916
0.000905132
0.000963856
0.001023
0.0010864
0.0011591
0.000115173
0.000235033
0.00039875
0.000556048
0.0006787
0.00076987
0.00084167
0.000903759
0.000962146
0.0010209
0.00108391
0.00115617
0.000115026
0.000234301
0.000396346
0.00055317
0.000676469
0.000768296
0.000840369
0.000902351
0.000960439
0.00101881
0.00108137
0.00115273
0.000114864
0.000233613
0.000393917
0.000550258
0.000674135
0.000766632
0.000838995
0.000900913
0.000958716
0.00101671
0.00107885
0.00114991
0.000114697
0.00023293
0.000391528
0.000547288
0.000671688
0.000764871
0.000837555
0.000899445
0.000956984
0.00101461
0.00107631
0.00114665
0.000114492
0.000232236
0.000389147
0.000544247
0.000669157
0.000763006
0.000836051
0.000897931
0.000955229
0.0010125
0.00107378
0.001144
0.000114318
0.000231596
0.000386796
0.000541181
0.000666529
0.00076105
0.000834478
0.000896379
0.000953459
0.00101038
0.00107122
0.00114072
0.000114098
0.000230975
0.000384456
0.000538078
0.000663798
0.000758991
0.000832825
0.000894781
0.000951661
0.00100826
0.00106869
0.00113778
0.000113856
0.000230372
0.000382142
0.000534934
0.000660998
0.000756846
0.000831097
0.000893138
0.000949848
0.00100613
0.00106613
0.0011344
0.000113629
0.000229764
0.000379868
0.000531746
0.000658094
0.0007546
0.000829296
0.000891442
0.00094801
0.00100398
0.00106357
0.00113149
0.000113384
0.000229254
0.000377606
0.000528546
0.000655118
0.000752242
0.000827417
0.000889701
0.000946145
0.00100183
0.00106098
0.00112802
0.000113131
0.000228683
0.000375423
0.000525365
0.00065207
0.000749801
0.000825451
0.00088791
0.000944263
0.000999662
0.00105838
0.00112464
0.000112861
0.0002282
0.000373191
0.000522096
0.000648907
0.000747247
0.000823396
0.000886064
0.000942344
0.000997483
0.00105578
0.0011216
0.000112583
0.000227737
0.000371065
0.000518856
0.000645716
0.000744613
0.000821282
0.000884168
0.000940404
0.000995293
0.00105318
0.00111834
0.000112266
0.000227225
0.000368944
0.000515586
0.000642433
0.000741897
0.000819079
0.000882224
0.000938436
0.000993085
0.00105059
0.0011156
0.000111965
0.000226781
0.000366875
0.000512322
0.000639081
0.000739076
0.000816794
0.000880211
0.00093642
0.000990858
0.00104796
0.0011123
0.000111671
0.000226408
0.000364851
0.000509046
0.00063568
0.000736167
0.000814428
0.000878147
0.000934379
0.000988609
0.00104534
0.00110937
0.000111334
0.000225984
0.000362846
0.000505777
0.00063222
0.000733182
0.000811981
0.000876021
0.000932289
0.000986338
0.00104268
0.00110599
0.000110969
0.000225602
0.000360893
0.000502506
0.000628717
0.000730108
0.000809449
0.000873831
0.000930166
0.000984037
0.00104005
0.00110329
0.000110625
0.000225253
0.000358955
0.000499255
0.000625153
0.000726945
0.00080683
0.000871568
0.000927999
0.000981711
0.00103739
0.00110012
0.000110257
0.000224917
0.000357105
0.000495997
0.000621531
0.000723685
0.000804133
0.000869239
0.000925781
0.000979362
0.00103469
0.00109654
0.000109879
0.000224616
0.000355307
0.000492777
0.000617884
0.00072037
0.000801338
0.000866841
0.000923518
0.000976991
0.00103198
0.00109324
0.000109491
0.000224339
0.000353539
0.000489584
0.000614192
0.000716965
0.000798455
0.000864366
0.000921206
0.000974587
0.00102929
0.00109053
0.00010909
0.000224081
0.000351824
0.000486415
0.000610451
0.000713484
0.000795496
0.000861819
0.000918845
0.000972156
0.00102657
0.00108731
0.000108651
0.00022383
0.000350147
0.000483224
0.000606711
0.000709936
0.000792439
0.000859213
0.000916426
0.000969682
0.00102385
0.00108449
0.000108228
0.000223611
0.000348518
0.000480086
0.000602931
0.000706295
0.000789306
0.000856511
0.000913956
0.000967178
0.00102109
0.00108103
0.000107789
0.000223418
0.000346946
0.000477003
0.000599097
0.000702598
0.000786071
0.000853735
0.000911433
0.000964645
0.00101835
0.00107825
0.000107335
0.000223251
0.000345427
0.00047394
0.000595282
0.000698823
0.000782749
0.00085088
0.00090884
0.000962077
0.00101562
0.00107551
0.000106869
0.000223107
0.000343921
0.00047089
0.000591426
0.000694979
0.000779349
0.000847939
0.000906173
0.00095945
0.00101289
0.00107319
0.000106388
0.000222987
0.000342518
0.000467918
0.000587585
0.000691103
0.000775864
0.000844925
0.000903456
0.0009568
0.0010101
0.00106945
0.000105896
0.0002229
0.00034117
0.000464957
0.00058371
0.000687139
0.000772302
0.000841831
0.000900674
0.000954118
0.00100733
0.00106652
0.000105365
0.000222779
0.00033984
0.000462048
0.000579838
0.000683127
0.000768653
0.00083864
0.000897823
0.000951392
0.00100447
0.00106295
0.000104873
0.000222764
0.00033858
0.000459198
0.000575965
0.000679035
0.000764911
0.000835365
0.0008949
0.000948607
0.00100159
0.00105965
0.000104314
0.000222709
0.000337385
0.000456401
0.000572078
0.000674934
0.000761079
0.000831994
0.000891912
0.00094577
0.000998619
0.00105596
0.000103768
0.0002227
0.000336258
0.00045367
0.000568239
0.000670757
0.000757171
0.000828544
0.00088884
0.000942866
0.000995636
0.00105291
0.000103207
0.000222682
0.000335158
0.000450967
0.000564386
0.000666546
0.000753179
0.000824995
0.000885679
0.000939893
0.000992565
0.00104922
0.000102631
0.00022275
0.000334131
0.000448338
0.000560557
0.000662277
0.000749099
0.000821368
0.000882442
0.000936869
0.00098949
0.00104604
0.000102012
0.000222735
0.000333172
0.000445778
0.000556733
0.000658004
0.000744952
0.00081764
0.000879127
0.000933768
0.000986326
0.00104236
0.000101404
0.000222824
0.000332244
0.000443258
0.000552943
0.000653658
0.00074073
0.000813802
0.000875709
0.000930598
0.000983178
0.0010395
0.000100782
0.000222906
0.000331399
0.000440826
0.000549198
0.000649322
0.000736419
0.000809879
0.000872202
0.00092734
0.000979964
0.00103604
0.000100143
0.000223035
0.000330633
0.000438444
0.000545468
0.000644941
0.000732047
0.000805874
0.000868609
0.000924032
0.000976672
0.00103221
9.94883e-05
0.000223203
0.000329901
0.000436154
0.000541792
0.000640552
0.000727591
0.000801758
0.000864918
0.000920642
0.000973355
0.00102892
9.88181e-05
0.000223365
0.000329256
0.000433957
0.000538145
0.000636129
0.000723079
0.000797551
0.000861122
0.000917163
0.000970007
0.00102583
9.81042e-05
0.000223512
0.000328653
0.000431822
0.000534559
0.000631688
0.000718506
0.000793238
0.000857231
0.000913608
0.000966596
0.00102211
9.73988e-05
0.000223723
0.000328135
0.000429751
0.000531011
0.000627261
0.00071386
0.000788844
0.000853246
0.000909965
0.00096313
0.00101866
9.66486e-05
0.000223916
0.00032766
0.000427791
0.000527548
0.000622851
0.000709147
0.000784341
0.000849144
0.000906226
0.000959532
0.00101464
9.59045e-05
0.000224177
0.000327283
0.000425942
0.000524142
0.000618436
0.000704396
0.000779738
0.000844932
0.000902382
0.000955836
0.00101051
9.51734e-05
0.000224514
0.000326957
0.00042414
0.000520826
0.00061403
0.000699586
0.000775059
0.000840621
0.000898434
0.000952082
0.00100677
9.437e-05
0.000224769
0.000326691
0.000422496
0.000517581
0.000609662
0.000694733
0.000770297
0.00083619
0.000894374
0.000948179
0.00100257
9.35672e-05
0.000225099
0.000326524
0.000420902
0.000514412
0.000605318
0.000689858
0.000765415
0.000831641
0.000890202
0.000944247
0.000998934
9.27479e-05
0.000225485
0.000326413
0.000419442
0.000511365
0.000601031
0.000684946
0.000760466
0.00082699
0.00088592
0.000940216
0.000994728
9.18811e-05
0.000225811
0.000326403
0.000418084
0.000508401
0.00059676
0.000680022
0.000755432
0.000822226
0.000881551
0.000936121
0.000990436
9.10158e-05
0.000226223
0.000326464
0.000416866
0.000505542
0.000592562
0.000675051
0.000750322
0.000817332
0.000877022
0.000931849
0.000986564
9.01324e-05
0.000226693
0.000326548
0.000415718
0.000502791
0.000588425
0.000670088
0.000745101
0.000812303
0.00087234
0.000927439
0.000982028
8.9227e-05
0.000227132
0.000326796
0.000414729
0.000500199
0.000584391
0.000665126
0.000739836
0.00080718
0.000867557
0.000922966
0.000977895
8.8297e-05
0.000227647
0.000327076
0.000413868
0.000497733
0.00058042
0.000660202
0.000734512
0.000801937
0.00086261
0.000918309
0.000973104
8.73145e-05
0.00022811
0.000327481
0.00041317
0.000495413
0.000576583
0.000655277
0.00072913
0.000796572
0.000857563
0.000913602
0.000968714
8.63007e-05
0.00022864
0.000327919
0.000412569
0.000493249
0.000572862
0.000650429
0.000723732
0.000791127
0.000852372
0.000908741
0.000963798
8.53169e-05
0.000229281
0.000328501
0.000412148
0.000491255
0.000569271
0.000645608
0.00071828
0.000785595
0.00084707
0.00090375
0.000958765
8.42895e-05
0.000229888
0.00032917
0.000411858
0.000489469
0.000565835
0.000640887
0.000712808
0.000779929
0.000841574
0.000898479
0.000953744
8.31994e-05
0.00023051
0.00032994
0.000411763
0.000487845
0.000562571
0.00063626
0.000707355
0.000774174
0.000835934
0.000893089
0.000948316
8.20736e-05
0.000231157
0.00033081
0.000411834
0.000486437
0.000559499
0.00063175
0.000701898
0.000768355
0.000830183
0.000887619
0.000943328
8.09728e-05
0.000231934
0.000331787
0.000412066
0.000485282
0.000556639
0.000627364
0.000696501
0.000762465
0.000824255
0.00088188
0.000937357
7.97977e-05
0.000232663
0.000332885
0.000412523
0.000484344
0.000554021
0.000623176
0.000691147
0.00075653
0.000818217
0.000875965
0.000931494
7.85759e-05
0.000233429
0.000334104
0.000413192
0.000483701
0.000551675
0.000619194
0.000685912
0.000750572
0.000812041
0.000869825
0.000925096
7.73727e-05
0.000234327
0.00033545
0.00041405
0.00048332
0.000549624
0.000615429
0.000680784
0.000744622
0.000805764
0.000863518
0.000918644
7.60904e-05
0.000235181
0.000336939
0.000415179
0.000483261
0.00054791
0.000611967
0.00067583
0.000738693
0.00079937
0.000857011
0.000911863
7.47807e-05
0.000236096
0.000338569
0.00041654
0.000483552
0.00054656
0.000608796
0.000671072
0.000732799
0.000792869
0.00085034
0.000905478
7.34064e-05
0.000237021
0.000340332
0.000418217
0.000484217
0.000545605
0.000606002
0.000666538
0.000726943
0.000786257
0.000843401
0.000898211
7.20022e-05
0.000237999
0.000342308
0.000420186
0.000485308
0.000545115
0.000603574
0.000662257
0.000721183
0.000779568
0.000836297
0.000891104
7.05212e-05
0.00023893
0.000344445
0.0004225
0.000486814
0.000545051
0.000601524
0.000658231
0.000715527
0.000772777
0.000828916
0.00088321
6.89913e-05
0.000239914
0.000346765
0.000425126
0.000488728
0.000545412
0.00059986
0.000654448
0.000709903
0.000765839
0.000821196
0.000875228
6.73893e-05
0.000240777
0.000349188
0.000428075
0.000490978
0.000546131
0.000598563
0.000651021
0.00070449
0.00075887
0.000813248
0.000867127
6.54273e-05
0.000239823
0.00034962
0.000429924
0.000492122
0.000546089
0.000596741
0.000647386
0.000698893
0.000752087
0.000805317
0.00085864
0.000475329
0.00154579
0.0016377
0.00188017
0.00188183
0.000622272
0.000610334
0.000463843
0.00137252
0.00205745
0.00380989
0.00201699
0.00423325
0.00142472
0.000562511
0.00133181
0.00149589
0.00503801
0.00502267
0.00131797
0.000724979
0.000489917
0.00737166
0.00354518
0.00047605
0.00163976
0.000569505
0.000774747
0.00194026
0.00122607
0.00177914
0.000335861
0.00146166
0.00377445
0.00411793
0.0010548
0.000154786
0.00156806
0.000467003
0.00207001
0.001859
0.00129229
0.00385648
0.00105588
0.000274539
0.000491869
0.00577406
0.00373884
0.000277613
0.000729337
0.00105561
0.000466348
0.000338535
0.00124158
0.00164737
0.00150582
0.00238457
0.00129165
0.00156844
0.000560253
0.00061742
0.000336851
0.00124141
0.00286245
0.0042263
0.00152208
0.000932507
0.000319013
0.000656244
0.00227455
0.00171963
0.00531089
0.000465278
0.00109652
0.00357382
0.0012702
0.00138551
0.00123815
0.00559801
0.00046584
0.0045539
0.00123969
0.000196861
0.000383028
0.00284752
0.0016027
0.000934015
0.00124134
0.00264483
0.000198215
0.000575843
0.00146881
0.00124139
0.00140575
0.000350621
0.00127347
0.000773166
0.00163241
0.00124228
0.000943321
0.00076206
0.00322144
0.00128853
0.00148614
0.00123884
0.000350614
0.000355761
0.000422245
0.00132281
0.000245785
0.00151817
0.00123991
0.000444018
0.00136767
0.00124078
0.000518889
0.00315624
0.00225811
0.00155027
0.00429518
0.000782914
0.00377871
0.00147152
0.00358314
0.00443953
0.00281552
0.00141244
0.000260527
0.00403189
0.00124136
3.92648e-05
0.00124223
5.60696e-05
0.00148636
0.000564482
0.00163106
0.000172896
0.00241679
0.000445696
0.00175008
0.00296762
0.000684978
0.000461322
0.000447381
8.79803e-05
0.00162957
0.000466061
0.00152403
0.00140697
0.000578574
0.000617914
0.000512213
0.00124178
0.0044456
0.00355714
0.00124358
0.000442012
0.00126914
0.00165286
0.00192776
0.00368355
0.00133672
0.0045245
0.00260933
0.000767996
0.00334576
0.000276945
0.000254415
0.000547361
0.00123747
0.00155749
0.00108952
0.00164309
0.00304554
0.00123892
0.00160224
0.00123853
0.00041193
0.00235299
0.00133808
0.000276967
0.00524568
0.00426734
0.000470222
0.00129815
0.000460718
0.00125528
0.00124028
9.21381e-05
0.00124087
0.00231893
0.00124496
0.000395735
0.00155967
0.000449182
0.000556347
0.000610419
0.00053603
0.00123981
0.00221133
0.00146355
0.000461359
0.000281756
0.000461596
0.000472224
0.00696107
0.00416436
0.00317031
0.00112974
0.00271677
5.35431e-05
0.00138268
0.000467901
0.000413022
0.00123976
0.000467856
0.00251153
0.00146324
0.00222716
0.000190317
0.000385694
0.00146169
0.000420667
0.00124817
0.00125134
0.00277056
0.00159901
0.00126885
0.00107043
0.00412729
5.24687e-05
0.00445588
0.00124154
0.000904004
0.00149737
0.000474106
0.000463433
0.00148288
0.0011131
0.000455083
0.00424457
0.00593097
0.00433958
0.00268013
6.46285e-05
5.38559e-05
5.64559e-05
0.00132061
0.00390281
0.000466354
0.00221222
0.0010981
0.00232853
0.000350076
0.000232404
0.00283436
0.000983815
0.000452156
0.00207086
0.000427293
0.00271393
0.000472646
0.00294243
0.00416294
7.28531e-05
0.000469025
0.0013068
0.000476548
0.0014608
0.00121547
0.000690035
0.00525102
0.00138274
4.49192e-05
4.56859e-05
0.00138754
0.000176149
5.76264e-05
0.000282
0.0001375
0.000377347
0.000173385
0.000466047
0.000470644
0.00133975
0.000608361
0.00161489
4.73359e-05
0.00131083
0.000757866
0.000136917
0.0014635
4.6334e-05
4.60242e-05
0.000445339
0.00039738
0.00188932
4.48907e-05
0.00584595
0.000381059
0.000459276
0.000991575
0.000497761
0.00177493
0.00374446
0.0015128
0.000286471
0.00124093
0.00526434
0.00474494
0.00565556
0.000184613
0.00124555
0.00129028
0.000460544
0.0043292
4.91563e-05
0.00121073
0.00123979
8.29177e-05
0.00462654
0.0020789
0.00149273
0.000236303
0.000453274
0.00121007
0.00141168
0.00124129
0.00125521
0.000183297
0.00132883
0.00124924
0.00217496
0.00124165
0.00125453
0.00126443
0.0012387
0.00762895
0.00124192
0.00173088
0.00078452
0.000473139
0.00124211
0.000527097
0.00229204
4.55535e-05
5.33931e-05
0.0016463
0.0014027
0.00137761
0.00123978
0.00126811
0.00633442
0.00226575
4.08709e-05
0.00123888
0.00493449
0.000366614
0.00134479
0.0023582
0.000102849
0.000267547
0.0013262
0.00148759
0.000848725
0.00191536
0.00135616
0.00124133
0.00141282
0.00143829
0.00501073
9.65573e-05
0.000453448
0.000134124
0.00147535
0.000627485
0.000463107
0.00139945
0.0012529
0.00177201
0.00102136
0.00164999
0.00126003
0.000469296
0.000349173
0.000598868
0.00124629
0.00430046
0.000538779
0.00379163
0.00126062
0.00117216
0.00191613
0.000393837
0.000445583
0.00137475
0.00141972
0.00124389
0.00299807
0.0014121
0.00185122
0.00237415
0.000895825
0.00217698
0.00392834
0.000168635
0.00139286
0.00146798
6.48781e-05
0.000422213
0.00124074
0.0012501
0.00124195
0.00129339
0.00606376
0.000454494
0.000128185
0.000535921
0.000527391
0.00125595
0.000241534
0.000467392
0.00123815
0.00124757
0.000456095
0.00124838
0.00271214
0.00136791
0.00044976
0.00123891
0.00197432
0.00424444
0.00505633
0.000459713
0.00463654
0.00123831
0.00124035
0.0011601
0.00131692
0.00253394
0.000289578
4.03172e-05
0.00194244
0.000457568
0.00190265
0.00098493
0.00132701
0.000442125
0.00153311
0.001239
0.00197905
0.000459705
5.42752e-05
0.00221129
0.00198858
0.000688763
0.00163462
4.75815e-05
0.000423078
0.00443289
0.000524481
0.00341627
0.00497661
0.00245373
0.00132149
0.0012969
0.00175618
0.000689179
0.000570403
5.90171e-05
0.00359455
0.000282154
9.53882e-05
0.0012402
0.00178858
0.00133283
0.000442409
0.0012387
0.000327712
0.000880691
0.000371149
0.000203319
0.000468601
0.00244901
0.00442173
9.42649e-05
5.02073e-05
0.00134062
0.00310734
0.0012445
0.00419867
0.000910693
0.000318115
0.00138118
0.00424248
0.000158305
0.0010703
0.00116403
0.000469735
0.000224602
0.00122575
0.000479772
0.000311901
0.00127057
0.00343634
0.000401256
0.000706228
0.0013678
0.000190615
0.00185614
0.000449345
0.00127639
0.000943655
0.00336257
0.00124132
0.000661007
4.12233e-05
0.0012468
0.00149793
0.00214332
0.00427814
0.00146273
0.00127229
0.000466249
0.00124136
0.000293532
0.00149277
4.4409e-05
9.41972e-05
0.00186359
4.7183e-05
0.000813403
0.00124757
0.00159031
0.00126865
0.00403474
0.00134562
0.000378526
0.000445992
0.00193416
0.00134479
0.00368819
0.00177749
0.002627
0.00173003
0.00123894
0.00466094
0.00123871
0.00571344
0.000559113
0.0045205
0.000972542
0.000645362
0.000433958
0.00489428
0.00317195
0.000456125
6.86708e-05
0.0012414
0.00124142
0.00108533
0.000714732
0.000389356
0.00243375
0.00535228
0.00129359
0.000328642
0.00123913
0.00418724
0.000473035
0.00158103
0.00127582
0.000492391
0.000104249
0.000389258
0.00258829
0.00124097
0.00341302
0.00124283
0.00139537
0.00295979
0.000369012
0.00159499
0.00125411
0.00140809
0.00588385
0.000418378
0.000912039
0.00138899
0.000215353
0.00423488
0.00124185
0.000570801
8.14997e-05
0.000458909
0.00327873
0.00123993
0.00145719
0.00129759
0.000464288
0.00124783
0.000724083
0.00104707
0.00127336
0.0017895
0.000396436
0.00136999
0.000982817
0.0011685
0.00134758
0.000755584
0.00490144
0.00338203
0.00123901
0.00124142
0.00159459
0.000460167
0.000471597
0.000461292
0.00158424
0.000762905
0.00393791
0.00118543
0.000469146
0.0013977
0.00248023
0.00032579
0.00123758
0.00209681
0.000281068
0.000277599
0.00126422
0.0012462
6.87923e-05
0.000185405
0.00132849
0.00396723
0.000819426
0.000413929
0.00125246
3.53126e-05
0.000685762
0.000702201
0.00168157
0.00104241
0.000857215
0.00140976
0.00128396
0.000449119
0.000132768
0.00126251
0.00124198
0.00140952
0.00116482
0.00156241
0.00123993
0.00214812
0.00124132
0.00117149
0.000499283
0.00485763
0.00124665
0.00146932
0.000607366
0.00035675
0.00199543
0.000195336
0.00741624
0.000797969
0.00136916
0.00124096
0.00309355
0.00140592
0.000230622
0.00153334
0.00175471
0.00238835
0.00227168
0.000133172
0.00123983
0.000770683
0.00117263
0.000457794
0.00128714
0.00491035
0.000366313
0.000311839
0.00187316
0.0051917
0.00154305
0.000465874
0.00253876
0.000466955
0.00124064
0.0019816
0.00129916
0.00123747
0.000104517
0.00124152
4.68306e-05
0.00229768
0.00110646
0.0012721
0.00118379
0.000422953
0.00183569
0.00150671
0.0012951
0.00618486
0.00222883
0.00281003
0.00505279
0.00159566
0.00123913
0.00124153
0.00046516
0.00569785
5.87778e-05
0.000529487
0.00127941
4.63572e-05
4.06885e-05
4.4754e-05
0.0030249
0.000693202
3.76226e-05
0.00124133
0.000132986
0.000125566
0.000464367
0.0012423
0.00241946
0.00144012
0.000112871
0.00124308
0.00165628
0.0012391
0.00521988
0.00223219
0.00132957
0.000451532
0.00123977
0.00447906
0.00041819
0.00124246
0.00142619
0.00124071
0.00138417
0.00308034
0.00128192
0.00113
0.0025491
0.000462435
0.00124018
0.001066
0.00124197
0.000611806
0.00267023
0.00349572
0.000514429
0.00276463
0.00160936
0.00125863
0.00015741
0.00100311
0.00117388
5.33714e-05
0.000496345
0.00123808
0.000129614
0.000599431
0.000751771
0.00102103
0.00120736
0.00139447
0.000475455
0.00434112
0.00123574
0.00362757
0.00143376
0.00348718
0.000133404
0.000763063
0.00124539
0.000214104
0.00038628
0.00137302
0.00188003
0.00130576
0.000606194
0.000988859
0.00119142
0.0041278
0.00173447
0.000294336
0.000186416
0.00428412
0.000153281
0.00124847
5.0891e-05
0.00158557
0.00127967
0.00146657
0.00112654
0.00101743
0.00610525
0.00134934
0.00323804
0.00290677
0.00140127
0.00288842
0.00273308
0.00124195
0.00150304
0.00469849
4.41323e-05
0.000469289
4.46406e-05
0.000717961
0.00189168
0.00108441
0.0012407
0.00124167
0.000442794
0.0066132
0.00132745
0.0015603
0.00123878
0.00160682
0.00251876
0.00513107
0.00130608
0.00160191
0.00146242
0.00207983
0.001358
0.00548322
0.000391045
0.000539416
0.00124066
0.000541476
0.0014489
0.00168463
0.00216827
4.80365e-05
0.00364051
0.00211097
0.000675951
0.00402263
0.00242735
0.00395022
0.00565607
0.00129775
3.94285e-05
0.00124135
0.00129053
0.000441517
0.00280801
0.00270509
0.00108664
0.000430638
0.00124162
0.00124192
0.00147865
0.000129986
0.00137741
0.00123828
0.00133695
0.00272199
0.000465471
0.00137826
5.29762e-05
0.00116207
0.00166728
0.00036663
0.00125645
0.00130445
0.000124939
0.000379168
0.000154351
0.00124384
0.00123962
0.00109142
0.00160842
0.00235708
0.00126692
0.00124313
0.00425023
0.00126153
0.00181453
0.00303966
0.00557355
0.00242562
0.00151859
0.000438305
5.52245e-05
0.000460478
0.00200411
0.00124286
0.000283771
0.00126878
0.000263221
0.00124124
0.00181094
0.00125754
0.00124112