/*--------------------------------*- C++ -*----------------------------------*\
| =========                 |                                                 |
| \\      /  F ield         | OpenFOAM: The Open Source CFD Toolbox           |
|  \\    /   O peration     | Version:  2.3.1                                 |
|   \\  /    A nd           | Web:      www.OpenFOAM.org                      |
|    \\/     M anipulation  |                                                 |
\*---------------------------------------------------------------------------*/
FoamFile
{
    version     2.0;
    format      ascii;
    class       volVectorField;
    location    "0.33";
    object      U;
}
// * * * * * * * * * * * * * * * * * * * * * * * * * * * * * * * * * * * * * //

dimensions      [0 1 -1 0 0 0 0];

internalField   nonuniform List<vector> 
15166
(
(5.97669 0.560076 3.1784e-19)
(7.18911 1.0347 1.59364e-18)
(8.27092 0.902294 -8.91904e-19)
(9.30248 0.956225 7.99844e-19)
(10.097 1.01997 8.22282e-19)
(10.8731 1.07465 4.33482e-19)
(11.5265 1.17294 -8.58133e-19)
(12.0681 1.23858 8.31692e-19)
(12.4629 1.33276 -4.21942e-19)
(12.7695 1.39213 1.66924e-18)
(12.995 1.44748 -1.22609e-18)
(13.1485 1.50567 1.22033e-18)
(6.66901 1.02666 4.87719e-19)
(7.60464 1.42545 5.24631e-20)
(8.55694 1.20959 2.74823e-20)
(9.47822 1.22953 4.55209e-19)
(10.2382 1.24928 -3.9516e-19)
(10.9654 1.27563 0)
(11.5821 1.3371 4.24345e-19)
(12.0872 1.38289 1.43839e-21)
(12.4653 1.44317 4.17722e-19)
(12.7585 1.48486 -8.42249e-19)
(12.9744 1.5248 1.65456e-18)
(13.1321 1.56364 -1.23277e-18)
(7.21173 1.25785 -4.62081e-19)
(8.04012 1.5688 -2.47257e-18)
(8.90138 1.37667 4.87178e-19)
(9.72345 1.41063 -9.23556e-19)
(10.4322 1.41718 -1.6604e-20)
(11.1027 1.43271 8.82571e-19)
(11.675 1.47216 -1.26759e-18)
(12.1412 1.50292 -4.35099e-19)
(12.4961 1.54099 8.30476e-19)
(12.7709 1.56825 6.00236e-21)
(12.9747 1.59439 -1.23636e-18)
(13.1279 1.61908 1.62095e-18)
(7.51798 1.37461 0)
(8.35298 1.6272 -1.08276e-18)
(9.18316 1.47842 2.53951e-18)
(9.9483 1.52657 -1.44263e-18)
(10.6208 1.53136 9.23747e-19)
(11.2459 1.546 1.36372e-18)
(11.7792 1.57455 -4.23283e-19)
(12.2119 1.59644 4.35118e-19)
(12.5442 1.62064 -8.50434e-19)
(12.8007 1.6373 8.40191e-19)
(12.993 1.65213 4.16924e-19)
(13.1416 1.66519 8.26503e-19)
(7.72932 1.44818 -6.24528e-19)
(8.59463 1.66292 -5.79194e-19)
(9.40941 1.5536 -1.5726e-18)
(10.1404 1.60734 1.48359e-18)
(10.7889 1.61248 -4.69973e-19)
(11.3807 1.62854 -4.55343e-19)
(11.8831 1.65125 -4.44155e-19)
(12.2887 1.66779 4.50552e-19)
(12.6014 1.68329 -4.29248e-19)
(12.8419 1.69267 -4.22914e-19)
(13.0236 1.69997 -1.26164e-18)
(13.1652 1.70628 -4.66789e-21)
(7.91704 1.49964 1.23769e-18)
(8.81154 1.68546 1.17352e-18)
(9.60975 1.6099 -1.09756e-18)
(10.3141 1.665 2.07285e-18)
(10.9426 1.67173 -1.98155e-18)
(11.5074 1.68935 9.48889e-19)
(11.9844 1.70843 0)
(12.3677 1.72138 9.04023e-19)
(12.6634 1.73118 -1.76066e-18)
(12.8901 1.73543 8.60729e-19)
(13.062 1.7373 0)
(13.1966 1.73836 1.25481e-18)
(8.08985 1.53402 -6.73545e-19)
(9.01272 1.69575 6.19976e-19)
(9.7946 1.64887 0)
(10.4765 1.70381 0)
(11.0866 1.71337 5.18395e-19)
(11.6281 1.7326 4.97148e-19)
(12.0832 1.74945 -9.4996e-19)
(12.4473 1.75998 1.38264e-18)
(12.7281 1.7659 4.53692e-19)
(12.9429 1.7663 0)
(13.1065 1.76372 4.35188e-19)
(13.2358 1.76051 0)
(8.24445 1.55462 -1.36101e-18)
(9.19604 1.69633 1.25398e-18)
(9.96408 1.67344 5.73987e-19)
(10.6278 1.72734 5.61175e-19)
(11.2213 1.74024 -2.6158e-18)
(11.7427 1.761 5.09043e-19)
(12.1787 1.77665 0)
(12.5264 1.78568 -4.65227e-19)
(12.7943 1.78906 4.64383e-19)
(12.9987 1.78683 2.76452e-21)
(13.1548 1.7813 -8.70104e-19)
(13.2778 1.77547 8.58269e-19)
(8.38202 1.56439 1.40054e-18)
(9.36197 1.68965 -1.28941e-18)
(10.1186 1.68683 5.89377e-19)
(10.7677 1.73903 -1.68854e-18)
(11.3465 1.75519 2.15384e-18)
(11.8507 1.77721 -2.06245e-18)
(12.2703 1.79228 9.92964e-19)
(12.6038 1.80043 0)
(12.8605 1.80224 4.72359e-19)
(13.0561 1.7983 0)
(13.2057 1.79072 9.00498e-19)
(13.3232 1.78244 -4.36619e-19)
(8.50573 1.56566 1.44025e-18)
(9.51315 1.67745 0)
(10.2603 1.69143 6.22499e-19)
(10.897 1.74152 5.87406e-19)
(11.4629 1.76062 5.58038e-19)
(11.9521 1.78352 5.33788e-19)
(12.3575 1.79833 0)
(12.6789 1.80601 0)
(12.926 1.80685 -1.42595e-18)
(13.114 1.80183 2.32884e-18)
(13.2577 1.79296 -9.01564e-19)
(13.3702 1.78451 -1.33851e-18)
(8.61831 1.56022 1.46966e-18)
(9.65212 1.66088 -2.01224e-18)
(10.3912 1.68889 1.89209e-18)
(11.0172 1.73665 -1.77155e-18)
(11.5713 1.75824 -5.56063e-19)
(12.0473 1.78171 -5.32472e-19)
(12.4404 1.79642 1.03506e-18)
(12.7513 1.80384 -1.00316e-18)
(12.9901 1.80414 -1.46175e-18)
(13.1715 1.79847 -4.67071e-19)
(13.3102 1.78848 1.85491e-18)
(13.4178 1.77867 -8.93105e-19)
(8.72146 1.54923 -1.50569e-18)
(9.78054 1.64062 -2.04774e-18)
(10.5127 1.68032 -3.17785e-19)
(11.1294 1.72566 1.21103e-18)
(11.6726 1.74935 8.55992e-19)
(12.137 1.77311 -2.19805e-18)
(12.5191 1.78779 2.11348e-18)
(12.8208 1.7951 -3.85401e-21)
(13.0523 1.79519 -1.48965e-18)
(13.228 1.7894 9.65119e-19)
(13.362 1.77926 -4.65934e-19)
(13.4649 1.76861 9.04694e-19)
(8.81631 1.53365 -1.14711e-18)
(9.8996 1.61725 -3.53222e-19)
(10.626 1.66665 3.22248e-19)
(11.2342 1.70954 0)
(11.7675 1.73492 2.89378e-19)
(12.2214 1.75874 -2.82507e-19)
(12.5939 1.77343 0)
(12.8874 1.7807 0)
(13.1124 1.78073 2.53967e-19)
(13.2828 1.77502 0)
(13.4117 1.76528 0)
(13.5088 1.75475 -9.1513e-19)
(8.90387 1.51419 -3.86462e-19)
(10.0104 1.59119 3.51575e-19)
(10.732 1.64862 0)
(11.3324 1.68906 0)
(11.8565 1.71576 1.18649e-18)
(12.301 1.73945 -8.59864e-19)
(12.6648 1.75409 1.09137e-18)
(12.9512 1.76126 -1.05982e-18)
(13.1706 1.76111 7.67273e-19)
(13.3365 1.75494 -5.67608e-21)
(13.4619 1.74436 -1.93701e-18)
(13.5562 1.73663 1.17848e-18)
(8.98487 1.49144 -1.58828e-18)
(10.1137 1.56276 0)
(10.8313 1.62679 1.34184e-18)
(11.4246 1.66484 -1.59499e-18)
(11.9402 1.69253 0)
(12.3763 1.71593 2.91631e-19)
(12.7323 1.7305 1.10847e-18)
(13.0123 1.73764 -2.41778e-18)
(13.2267 1.73763 2.08041e-18)
(13.3888 1.73181 -1.01372e-18)
(13.511 1.72126 9.80564e-19)
(13.6023 1.70793 -1.19391e-18)
(9.05998 1.46587 3.48116e-21)
(10.2103 1.53223 7.34904e-19)
(10.9247 1.60167 0)
(11.5114 1.63739 3.19432e-19)
(12.0191 1.66578 0)
(12.4473 1.6888 8.7898e-19)
(12.7964 1.70329 -7.81779e-21)
(13.0707 1.71041 -8.23348e-19)
(13.2807 1.71052 0)
(13.4391 1.70504 -2.58127e-19)
(13.558 1.69493 2.51094e-19)
(13.6465 1.68025 0)
(9.12979 1.4379 4.01956e-19)
(10.3007 1.49986 -1.11844e-18)
(11.0125 1.57366 1.03793e-18)
(11.5931 1.60712 -4.57693e-21)
(12.0934 1.63596 3.08857e-19)
(12.5146 1.65851 -2.97587e-19)
(12.8573 1.67287 0)
(13.1265 1.67994 0)
(13.3325 1.68015 1.06675e-18)
(13.4877 1.67488 -7.85424e-19)
(13.6035 1.6653 -5.05647e-19)
(13.6887 1.65164 -2.45395e-19)
(9.19466 1.40776 4.11029e-19)
(10.3856 1.46574 3.72399e-19)
(11.0953 1.54307 -3.47411e-19)
(11.6702 1.57434 6.58921e-19)
(12.1637 1.60342 -1.57212e-18)
(12.5783 1.62544 3.06061e-19)
(12.9152 1.63964 0)
(13.1797 1.64668 5.57976e-19)
(13.3822 1.64702 -5.44728e-19)
(13.5346 1.64196 -7.89896e-19)
(13.6479 1.63282 2.58494e-19)
(13.7308 1.62036 7.43334e-19)
(9.25506 1.37577 0)
(10.4653 1.43008 0)
(11.1735 1.51019 0)
(11.7431 1.53935 3.36803e-19)
(12.23 1.56849 0)
(12.6385 1.58991 6.08188e-19)
(12.9702 1.60393 -8.85531e-19)
(13.2305 1.61094 0)
(13.4298 1.61147 -5.47291e-19)
(13.5796 1.60675 5.32416e-19)
(13.6907 1.59804 0)
(13.7717 1.58586 0)
(9.31134 1.34214 2.12054e-18)
(10.5402 1.39298 -1.53689e-18)
(11.2474 1.47525 7.18014e-19)
(11.8119 1.50237 -1.00976e-18)
(12.2928 1.53141 1.28932e-18)
(12.6957 1.5522 -9.2466e-19)
(13.0224 1.56599 8.92315e-19)
(13.2789 1.57297 2.82941e-19)
(13.4752 1.5737 -1.1124e-18)
(13.6226 1.5694 8.10729e-19)
(13.7315 1.56131 0)
(13.8106 1.5488 0)
(9.36375 1.30704 -1.71573e-18)
(10.6107 1.35456 0)
(11.3173 1.43847 0)
(11.877 1.46361 -6.80772e-19)
(12.3522 1.49239 6.54147e-19)
(12.7498 1.51251 -9.32248e-19)
(13.072 1.52603 5.11799e-21)
(13.325 1.53293 8.71872e-19)
(13.5185 1.53381 5.60151e-19)
(13.6637 1.5298 -5.48653e-19)
(13.7704 1.52223 -2.66944e-19)
(13.8473 1.50942 0)
(9.41247 1.27066 -1.29871e-18)
(10.677 1.31496 1.18069e-18)
(11.3834 1.40001 0)
(11.9386 1.42321 -6.87289e-19)
(12.4084 1.45162 9.91616e-19)
(12.801 1.47103 0)
(13.1191 1.48425 0)
(13.3688 1.49101 2.95088e-19)
(13.5599 1.49195 5.66142e-19)
(13.7031 1.48803 -5.54659e-19)
(13.8083 1.48061 5.36799e-19)
(13.8841 1.46962 0)
(9.45797 1.23303 -4.25733e-21)
(10.7395 1.2741 -1.18703e-18)
(11.4459 1.36 0)
(11.9969 1.38133 1.04356e-18)
(12.4616 1.40929 -9.97418e-19)
(12.8496 1.42795 3.20284e-19)
(13.1638 1.44083 3.08436e-19)
(13.4106 1.44746 -8.85271e-19)
(13.5995 1.44851 5.77169e-19)
(13.741 1.44488 -2.80341e-19)
(13.8448 1.43787 2.68962e-21)
(13.9195 1.42806 0)
(9.49976 1.1942 -8.79062e-19)
(10.7982 1.23212 8.0106e-19)
(11.5051 1.31861 0)
(12.0521 1.3381 -3.49346e-19)
(12.512 1.36552 0)
(12.8957 1.38343 -3.19891e-19)
(13.2063 1.39596 3.09462e-21)
(13.4504 1.40246 3.00821e-19)
(13.6372 1.40361 -2.91493e-19)
(13.7772 1.40022 -2.69658e-21)
(13.8798 1.3934 -2.53352e-21)
(13.9536 1.38481 -1.07076e-18)
(9.53851 1.15469 -4.47657e-19)
(10.8533 1.18946 -8.01447e-19)
(11.561 1.27604 7.5126e-19)
(12.1043 1.29367 3.55726e-19)
(12.5596 1.32047 0)
(12.9393 1.33762 3.25859e-19)
(13.2466 1.34979 -6.25042e-19)
(13.4882 1.35614 -5.98681e-19)
(13.6732 1.35738 8.79927e-19)
(13.8117 1.35424 -2.58465e-21)
(13.9133 1.34766 -2.4774e-21)
(13.9862 1.33951 2.68854e-19)
(9.57474 1.11426 4.42591e-19)
(10.9052 1.14578 -8.13941e-19)
(11.6139 1.23229 -3.79181e-19)
(12.1538 1.24813 -3.55085e-19)
(12.6047 1.27427 -3.42194e-19)
(12.9805 1.29065 3.25591e-19)
(13.2848 1.30243 -1.2638e-18)
(13.524 1.30861 2.92288e-21)
(13.7073 1.30993 0)
(13.8446 1.30703 8.56951e-19)
(13.9454 1.30069 -2.82997e-19)
(14.0179 1.29353 -2.71647e-19)
(9.60803 1.07296 -4.54627e-19)
(10.9539 1.1012 0)
(11.6639 1.18748 3.14689e-21)
(12.2005 1.20156 3.60917e-19)
(12.6473 1.227 6.86399e-19)
(13.0195 1.24259 3.25216e-19)
(13.3209 1.25398 -1.27384e-18)
(13.558 1.26001 3.11851e-19)
(13.7397 1.26144 8.97958e-19)
(13.8759 1.25887 0)
(13.9759 1.25291 0)
(14.0479 1.24562 0)
(9.63834 1.03081 1.8242e-18)
(10.9996 1.05577 -8.19276e-19)
(11.7111 1.14171 7.70904e-19)
(12.2446 1.15406 -3.60352e-19)
(12.6876 1.17874 6.97051e-19)
(13.0563 1.19355 9.91741e-19)
(13.355 1.20453 -9.61953e-19)
(13.5901 1.21039 5.94045e-21)
(13.7704 1.21187 1.2038e-18)
(13.9055 1.20956 -8.79381e-19)
(14.0047 1.2041 2.84855e-19)
(14.0759 1.19763 -5.44675e-19)
(9.66603 0.988183 -4.57433e-19)
(11.0423 1.00981 -4.14979e-19)
(11.7556 1.09511 -3.83827e-19)
(12.2863 1.10568 -7.25338e-19)
(12.7255 1.1296 -3.40592e-19)
(13.091 1.14361 3.36158e-19)
(13.3872 1.15416 3.18299e-19)
(13.6204 1.15983 -9.35072e-19)
(13.7995 1.16132 3.0678e-19)
(13.9337 1.15915 5.88066e-19)
(14.0322 1.15386 -2.84964e-19)
(14.1027 1.14898 -2.79596e-19)
(9.69119 0.944974 -9.19969e-19)
(11.0822 0.963242 1.66836e-18)
(11.7975 1.04774 0)
(12.3255 1.05652 0)
(12.7613 1.07964 0)
(13.1237 1.09285 6.7312e-19)
(13.4175 1.10296 6.49514e-19)
(13.649 1.10843 -3.13143e-19)
(13.8269 1.10996 3.05914e-19)
(13.9603 1.10802 2.06023e-21)
(14.0583 1.10296 -5.73345e-19)
(14.1285 1.09839 5.60631e-19)
(9.71426 0.90143 9.30495e-19)
(11.1196 0.916147 -2.07061e-19)
(11.8369 0.999562 -1.95656e-19)
(12.3625 1.00662 0)
(12.7949 1.02892 0)
(13.1544 1.04132 -3.37519e-19)
(13.4459 1.051 3.24878e-19)
(13.6759 1.05627 -6.35879e-19)
(13.8527 1.05783 3.0496e-19)
(13.9855 1.05611 -8.96911e-19)
(14.083 1.05134 0)
(14.1529 1.04731 -2.81425e-19)
(9.7347 0.857374 -1.86754e-18)
(11.1543 0.868352 6.36322e-19)
(11.874 0.950571 1.95446e-19)
(12.3972 0.955992 -5.52236e-19)
(12.8264 0.977491 7.11704e-19)
(13.1832 0.989103 0)
(13.4726 0.998341 6.5463e-19)
(13.7011 1.00341 -6.39951e-19)
(13.877 1.005 0)
(14.0091 1.00352 0)
(14.1061 0.999112 0)
(14.1756 0.994522 5.60277e-19)
(9.75278 0.813321 0)
(11.1863 0.820412 0)
(11.9085 0.900999 -3.92516e-19)
(12.4297 0.904749 1.6952e-21)
(12.856 0.925431 0)
(13.2101 0.936254 -6.81985e-19)
(13.4975 0.945049 1.48918e-18)
(13.7247 0.949892 -4.83217e-19)
(13.8997 0.951468 -6.18619e-19)
(14.0312 0.95013 1.5766e-19)
(14.1279 0.945988 6.05232e-21)
(14.1969 0.941694 5.77146e-19)
(9.76881 0.768873 4.7086e-19)
(11.2159 0.771829 -2.14213e-19)
(11.9408 0.850792 1.98648e-19)
(12.4601 0.852966 -1.8616e-19)
(12.8835 0.872807 8.95462e-19)
(13.2351 0.882834 -1.73337e-19)
(13.5207 0.891183 -4.96918e-19)
(13.7467 0.895813 -3.18952e-19)
(13.9209 0.897398 3.14266e-19)
(14.052 0.896262 -3.04002e-19)
(14.1484 0.892506 1.48307e-19)
(14.2172 0.888236 -1.41497e-19)
(9.7828 0.724014 7.11641e-19)
(11.243 0.722744 -6.42538e-19)
(11.9708 0.800053 -1.98506e-19)
(12.4885 0.800637 1.88542e-19)
(12.9091 0.819654 -5.37456e-19)
(13.2584 0.828898 5.19637e-19)
(13.5422 0.836803 -3.22757e-21)
(13.7671 0.841238 -1.63978e-19)
(13.9406 0.84286 -3.12874e-19)
(14.0713 0.841921 4.59814e-19)
(14.1675 0.838506 1.47626e-19)
(14.2363 0.834775 -4.38144e-19)
(9.79424 0.679017 2.3954e-19)
(11.2678 0.673423 0)
(11.9987 0.748876 -2.00418e-19)
(12.5147 0.747834 9.29154e-22)
(12.9329 0.766007 0)
(13.2798 0.774469 1.74293e-19)
(13.5621 0.781945 0)
(13.7858 0.786207 0)
(13.9586 0.787904 0)
(14.089 0.787279 0)
(14.1851 0.784376 -2.97656e-19)
(14.2541 0.780464 5.80619e-19)
(9.80411 0.63382 -4.80039e-19)
(11.2902 0.623801 0)
(12.0243 0.697281 4.0153e-19)
(12.539 0.694551 -1.89228e-19)
(12.9547 0.711904 -3.61191e-19)
(13.2995 0.71959 1.76675e-19)
(13.5802 0.726626 -3.35899e-19)
(13.8029 0.730684 3.28732e-19)
(13.9751 0.732397 -3.1607e-19)
(14.1051 0.731992 3.16473e-21)
(14.2008 0.729703 1.53753e-19)
(14.2696 0.726984 2.91477e-19)
(9.81177 0.588131 0)
(11.3104 0.573617 -2.16831e-19)
(12.0479 0.645216 -2.01136e-19)
(12.5613 0.6408 0)
(12.9748 0.657366 -3.62634e-19)
(13.3175 0.664265 7.0135e-19)
(13.5967 0.670852 -3.40617e-19)
(13.8184 0.674676 0)
(13.9902 0.676329 0)
(14.1198 0.675928 -1.55493e-19)
(14.2153 0.673674 -1.50746e-19)
(14.2832 0.673643 0)
(9.81733 0.542472 4.8161e-19)
(11.3283 0.52345 -4.2231e-21)
(12.0694 0.592845 -2.9371e-21)
(12.5817 0.586638 -3.3755e-21)
(12.993 0.602448 -5.50385e-19)
(13.3338 0.60856 0)
(13.6116 0.614683 0)
(13.8326 0.618261 0)
(14.0039 0.619848 0)
(14.1335 0.619417 1.55571e-19)
(14.2294 0.616614 -1.49754e-19)
(14.2983 0.618438 2.94471e-21)
(9.82109 0.49636 -6.05143e-19)
(11.344 0.472809 6.55667e-19)
(12.0888 0.540094 4.0423e-19)
(12.6002 0.532079 -3.85252e-19)
(13.0096 0.547203 9.12193e-20)
(13.3485 0.552539 0)
(13.625 0.558233 3.39923e-19)
(13.8452 0.561611 -3.31053e-21)
(14.0161 0.563296 -3.2346e-19)
(14.1456 0.563377 0)
(14.2415 0.561329 -2.28486e-19)
(14.3102 0.557897 0)
(9.82291 0.450149 2.05185e-21)
(11.3576 0.422058 4.39525e-19)
(12.1062 0.487032 1.02008e-19)
(12.6168 0.477199 2.86746e-19)
(13.0243 0.491696 -2.77776e-19)
(13.3615 0.496244 0)
(13.6368 0.501493 3.41122e-19)
(13.8563 0.504637 -3.32577e-21)
(14.0269 0.506247 -2.43802e-19)
(14.1562 0.506372 0)
(14.2519 0.504705 1.53023e-19)
(14.321 0.504792 0)
(9.8234 0.403962 1.21406e-21)
(11.369 0.37103 3.3026e-19)
(12.1214 0.433507 -1.01996e-19)
(12.6315 0.422076 1.92896e-19)
(13.0373 0.43598 0)
(13.3729 0.439689 0)
(13.647 0.444492 -8.6102e-20)
(13.8659 0.447387 -8.35188e-20)
(14.0362 0.448945 -8.09216e-20)
(14.1656 0.449194 -7.8977e-20)
(14.2614 0.447753 -1.52559e-19)
(14.3307 0.448198 1.4891e-19)
(9.82201 0.357522 -1.22474e-19)
(11.3782 0.319482 -1.09804e-19)
(12.1349 0.37953 2.03932e-19)
(12.6444 0.366724 -4.83506e-19)
(13.0487 0.380046 1.85863e-19)
(13.3827 0.382902 0)
(13.6558 0.387252 8.61161e-20)
(13.874 0.389896 8.35418e-20)
(14.0441 0.391421 -1.61782e-19)
(14.1735 0.391783 2.38108e-19)
(14.2696 0.390487 1.53521e-19)
(14.339 0.391017 -1.5118e-19)
(9.81891 0.31135 0)
(11.3851 0.268075 0)
(12.1462 0.325217 1.02834e-19)
(12.6556 0.311108 0)
(13.0584 0.323966 -9.28777e-20)
(13.3909 0.325892 8.94741e-20)
(13.6629 0.32979 1.72094e-19)
(13.8807 0.33219 -2.52624e-19)
(14.0506 0.333683 0)
(14.18 0.334227 -7.94727e-20)
(14.2762 0.33331 7.66057e-20)
(14.3459 0.333113 -2.25073e-19)
(9.81424 0.264977 6.17144e-20)
(11.39 0.216278 2.20375e-19)
(12.1554 0.270606 -3.09289e-19)
(12.665 0.25538 0)
(13.0666 0.26769 4.63362e-20)
(13.3975 0.268636 8.88318e-20)
(13.6686 0.272119 -3.46744e-19)
(13.8858 0.274264 4.20485e-19)
(14.0557 0.27571 -1.64395e-19)
(14.1852 0.276336 1.19363e-19)
(14.2816 0.275638 0)
(14.3516 0.275274 7.5767e-20)
(9.80775 0.218723 -6.17346e-20)
(11.393 0.164417 0)
(12.1626 0.215919 -5.10467e-20)
(12.6727 0.199712 9.78352e-20)
(13.0731 0.211205 1.39277e-19)
(13.4026 0.211093 -9.02017e-20)
(13.6728 0.214253 -4.34738e-20)
(13.8896 0.21618 4.21928e-20)
(14.0593 0.217616 8.15577e-20)
(14.189 0.218471 -1.20104e-19)
(14.2857 0.218427 -3.89065e-20)
(14.3563 0.217107 -3.75848e-20)
(9.79967 0.172528 -9.22449e-20)
(11.3941 0.112354 1.39218e-19)
(12.1678 0.161235 -7.74651e-20)
(12.6787 0.144046 1.2153e-19)
(13.0777 0.154356 -2.09991e-19)
(13.4061 0.153346 1.79881e-19)
(13.6755 0.15629 -6.57596e-20)
(13.8919 0.157939 4.18551e-20)
(14.0616 0.159318 -1.64325e-19)
(14.1914 0.160199 6.04049e-20)
(14.2883 0.160361 3.89359e-20)
(14.359 0.15921 3.81094e-20)
(9.7901 0.12667 -9.27318e-20)
(11.3934 0.060092 2.80711e-20)
(12.1712 0.106532 2.58498e-20)
(12.6829 0.0882224 -2.43985e-20)
(13.0807 0.0972337 -2.31589e-20)
(13.4081 0.095706 4.52396e-20)
(13.6767 0.0981783 2.17783e-20)
(13.8928 0.0995737 0)
(14.0625 0.100953 0)
(14.1926 0.102003 2.00215e-20)
(14.2899 0.102718 0)
(14.3611 0.101796 0)
(9.77907 0.080883 -1.55364e-20)
(11.3908 0.00760368 1.38671e-20)
(12.173 0.0517953 7.13304e-22)
(12.6853 0.0323171 -1.26609e-20)
(13.0822 0.0399674 0)
(13.4086 0.0380061 0)
(13.6765 0.0399725 1.15347e-20)
(13.8923 0.0411265 -2.1175e-20)
(14.062 0.0424833 1.03514e-20)
(14.1924 0.0436033 6.27075e-22)
(14.29 0.0444857 0)
(14.3614 0.0440969 0)
(9.76622 0.0352736 4.66821e-20)
(11.3862 -0.0449769 2.77641e-20)
(12.1729 -0.00309183 -1.38464e-20)
(12.6859 -0.023622 3.82149e-22)
(13.0821 -0.0173101 -1.1704e-20)
(13.4075 -0.0197641 1.12775e-20)
(13.6748 -0.0183003 -1.16007e-20)
(13.8904 -0.0173643 -3.16844e-20)
(14.0602 -0.0160276 -1.00983e-20)
(14.1908 -0.0147463 9.51173e-21)
(14.2888 -0.0133763 -9.78215e-21)
(14.3608 -0.0132092 0)
(9.75185 -0.0100501 4.6434e-20)
(11.3798 -0.0973331 -8.3728e-20)
(12.1711 -0.0579423 1.31272e-20)
(12.6849 -0.0796163 -2.42717e-20)
(13.0805 -0.0745834 3.55454e-20)
(13.405 -0.0775476 3.40566e-20)
(13.6717 -0.0766007 1.09173e-20)
(13.887 -0.0759126 1.05992e-20)
(14.057 -0.0746763 1.03106e-20)
(14.1878 -0.0734597 3.01301e-20)
(14.2861 -0.0721702 -9.79113e-21)
(14.3577 -0.0711282 5.72851e-20)
(9.73607 -0.0553114 -6.17668e-20)
(11.3714 -0.149673 -8.28091e-20)
(12.1675 -0.112769 1.30147e-19)
(12.6822 -0.135639 -2.44931e-20)
(13.0773 -0.131832 -1.16674e-19)
(13.401 -0.135324 1.80517e-19)
(13.6671 -0.13489 -4.41162e-20)
(13.8823 -0.134464 0)
(14.0525 -0.133365 4.12749e-20)
(14.1838 -0.132218 -2.00924e-20)
(14.2828 -0.131224 1.95777e-20)
(14.3555 -0.128821 -1.91343e-20)
(9.71851 -0.100404 -1.25451e-19)
(11.3613 -0.201872 -5.53429e-22)
(12.1621 -0.167558 0)
(12.6779 -0.191659 -9.76079e-20)
(13.0726 -0.189003 9.41233e-20)
(13.3955 -0.193045 0)
(13.6611 -0.193106 -1.14211e-24)
(13.8763 -0.192918 0)
(14.0466 -0.191871 -4.12772e-20)
(14.1784 -0.190484 0)
(14.2781 -0.189163 0)
(14.3521 -0.186415 -7.50628e-20)
(9.69944 -0.145068 6.24674e-20)
(11.3493 -0.253709 5.52097e-20)
(12.155 -0.222247 -4.15508e-19)
(12.6718 -0.247627 3.92224e-19)
(13.0663 -0.246115 -1.88233e-19)
(13.3884 -0.250711 0)
(13.6537 -0.25126 -4.36988e-20)
(13.8687 -0.251327 0)
(14.0393 -0.250365 0)
(14.1715 -0.248896 0)
(14.2717 -0.247442 0)
(14.3461 -0.244838 -1.50793e-19)
(9.67901 -0.18948 1.24923e-19)
(11.3356 -0.305395 2.23414e-19)
(12.146 -0.276875 0)
(12.6642 -0.303538 2.93249e-19)
(13.0584 -0.303135 -9.45303e-20)
(13.3799 -0.30833 0)
(13.6447 -0.309382 -8.65304e-20)
(13.8597 -0.309722 8.65047e-20)
(14.0305 -0.308885 1.65905e-19)
(14.1632 -0.307319 2.40289e-19)
(14.2638 -0.305473 -1.57476e-19)
(14.3388 -0.3033 7.54129e-20)
(9.65727 -0.233612 -4.99965e-19)
(11.32 -0.356854 -1.11752e-19)
(12.1353 -0.33141 1.03907e-19)
(12.6548 -0.359361 -8.22742e-23)
(13.049 -0.360065 -9.36852e-20)
(13.3699 -0.365894 9.01448e-20)
(13.6344 -0.367458 8.64138e-20)
(13.8493 -0.3681 -2.55219e-19)
(14.0204 -0.367393 0)
(14.1536 -0.365852 -2.40192e-19)
(14.2548 -0.363908 3.13106e-19)
(14.33 -0.361731 -3.06084e-19)
(9.63379 -0.277785 2.4999e-19)
(11.3027 -0.408358 2.22723e-19)
(12.1228 -0.385796 -2.08581e-19)
(12.6439 -0.415086 -9.8025e-20)
(13.038 -0.416904 1.86316e-19)
(13.3585 -0.423372 -9.18764e-20)
(13.6226 -0.425452 -8.81436e-20)
(13.8376 -0.426357 8.46586e-20)
(14.0091 -0.425749 0)
(14.1428 -0.424096 0)
(14.2447 -0.42172 0)
(14.3205 -0.419316 7.77285e-22)
(9.60882 -0.321331 -2.49927e-19)
(11.2834 -0.459285 0)
(12.1086 -0.44001 -1.42105e-22)
(12.6313 -0.470693 0)
(13.0255 -0.473615 9.34458e-20)
(13.3456 -0.480734 -3.58435e-19)
(13.6094 -0.483299 2.631e-19)
(13.8245 -0.484462 -8.46827e-20)
(13.9964 -0.483938 0)
(14.1308 -0.482316 -3.19133e-19)
(14.2336 -0.480242 3.14251e-19)
(14.3102 -0.477958 -7.67055e-20)
(9.5825 -0.364913 -3.74699e-19)
(11.2625 -0.510229 2.2295e-19)
(12.0926 -0.494032 -3.11302e-19)
(12.617 -0.526137 1.95492e-19)
(13.0114 -0.530186 -2.80141e-19)
(13.3311 -0.537947 0)
(13.5948 -0.540956 0)
(13.81 -0.542302 3.36383e-19)
(13.9824 -0.541711 -4.94961e-19)
(14.1175 -0.539661 -1.58716e-19)
(14.2212 -0.536638 1.57924e-19)
(14.3002 -0.534967 0)
(9.55441 -0.408091 0)
(11.2398 -0.560785 -1.30274e-21)
(12.0749 -0.547841 -2.08494e-19)
(12.6011 -0.581426 -1.65894e-21)
(12.9958 -0.586567 -1.88072e-19)
(13.3153 -0.594953 5.36936e-19)
(13.5787 -0.598393 -3.49371e-19)
(13.7941 -0.59993 1.6726e-19)
(13.9669 -0.59938 -1.65767e-19)
(14.1025 -0.597287 1.58175e-19)
(14.2067 -0.593996 -1.57382e-19)
(14.2861 -0.590483 2.99443e-19)
(9.52514 -0.450906 7.4819e-19)
(11.2155 -0.610992 2.22944e-19)
(12.0554 -0.601425 0)
(12.5836 -0.636524 3.90436e-19)
(12.9787 -0.64276 3.70949e-19)
(13.2979 -0.65176 -1.82944e-19)
(13.5613 -0.655619 -3.48803e-19)
(13.7768 -0.657376 3.64728e-22)
(13.95 -0.656919 0)
(14.0862 -0.654895 0)
(14.1912 -0.651547 0)
(14.2706 -0.647337 0)
(9.49455 -0.493492 -7.48027e-19)
(11.1893 -0.661032 -2.22179e-19)
(12.0341 -0.654854 0)
(12.5644 -0.691432 -1.95186e-19)
(12.96 -0.698728 -1.85793e-19)
(13.2791 -0.708321 -1.77519e-19)
(13.5424 -0.712605 3.39475e-21)
(13.7582 -0.714598 8.41142e-19)
(13.9318 -0.714291 -3.29007e-19)
(14.0688 -0.712379 0)
(14.1746 -0.709357 3.09037e-19)
(14.2546 -0.705411 -3.04402e-19)
(9.4622 -0.535877 -2.49332e-19)
(11.1613 -0.710835 1.30978e-21)
(12.0111 -0.708012 2.08148e-19)
(12.5436 -0.746085 0)
(12.9399 -0.754402 1.7106e-21)
(13.2589 -0.764587 3.58538e-19)
(13.5222 -0.769278 -3.44064e-19)
(13.7382 -0.771537 5.04999e-19)
(13.9124 -0.771355 0)
(14.0501 -0.769383 0)
(14.1568 -0.766039 0)
(14.2379 -0.762322 4.47417e-19)
(9.42824 -0.577777 -9.94392e-19)
(11.1315 -0.760125 -6.64327e-19)
(11.9864 -0.760771 6.20317e-19)
(12.5211 -0.80039 0)
(12.9181 -0.809754 -3.70648e-19)
(13.2372 -0.820522 -1.78525e-19)
(13.5006 -0.825656 0)
(13.7168 -0.82821 3.32795e-19)
(13.8916 -0.828222 -3.27597e-19)
(14.03 -0.826398 0)
(14.1375 -0.823238 0)
(14.2195 -0.818881 -1.5103e-19)
(9.39287 -0.619348 9.90445e-19)
(11.1001 -0.80905 -2.23828e-19)
(11.9598 -0.813161 -2.04353e-19)
(12.497 -0.854329 1.95972e-19)
(12.8948 -0.864736 1.8522e-19)
(13.2141 -0.876132 -5.31569e-19)
(13.4775 -0.88173 3.45827e-19)
(13.694 -0.884594 -3.3408e-19)
(13.8694 -0.884789 -3.23433e-19)
(14.0086 -0.882902 3.18336e-19)
(14.1171 -0.879464 0)
(14.2004 -0.875003 -1.48629e-19)
(9.35602 -0.66042 4.92274e-19)
(11.0668 -0.85744 -6.65243e-19)
(11.9315 -0.865133 -2.05759e-19)
(12.4713 -0.907889 1.15743e-18)
(12.87 -0.919382 -7.41138e-19)
(13.1894 -0.931424 1.77704e-19)
(13.4529 -0.93752 6.83091e-19)
(13.6698 -0.940725 -5.02813e-19)
(13.8458 -0.941079 1.61816e-19)
(13.9859 -0.939233 0)
(14.0953 -0.935831 0)
(14.1795 -0.931523 1.49825e-19)
(9.31817 -0.701063 -9.23893e-22)
(11.0319 -0.905324 0)
(11.9015 -0.916728 6.11498e-19)
(12.4438 -0.961088 -9.68881e-19)
(12.8436 -0.97367 -7.32643e-19)
(13.1632 -0.986428 7.10971e-19)
(13.4269 -0.993025 5.103e-19)
(13.6442 -0.996524 -8.33626e-19)
(13.8208 -0.997035 -1.61901e-19)
(13.9617 -0.995047 -7.83438e-19)
(14.0722 -0.991104 4.63801e-19)
(14.1579 -0.987339 0)
(9.27828 -0.741608 -2.47172e-19)
(10.9951 -0.953133 0)
(11.8697 -0.967951 1.01884e-18)
(12.4147 -1.01392 -1.53993e-18)
(12.8156 -1.02766 3.70895e-19)
(13.1355 -1.04111 -3.52055e-19)
(13.3995 -1.04823 1.70917e-19)
(13.6172 -1.05203 4.9437e-19)
(13.7945 -1.05269 -6.476e-19)
(13.9363 -1.05077 1.57196e-19)
(14.0478 -1.04682 4.56322e-19)
(14.134 -1.04383 -5.977e-19)
(9.2367 -0.781265 4.90994e-19)
(10.9565 -1.00002 4.37655e-19)
(11.8361 -1.01862 8.11906e-19)
(12.3839 -1.06632 -1.53589e-18)
(12.7859 -1.08125 1.10159e-18)
(13.1064 -1.09544 -3.47528e-19)
(13.3706 -1.10306 3.44055e-19)
(13.5888 -1.10714 3.30677e-19)
(13.7668 -1.10786 0)
(13.9096 -1.10583 0)
(14.0222 -1.10125 -3.01031e-19)
(14.1099 -1.09841 6.30626e-21)
(9.19421 -0.82051 -2.25528e-21)
(10.9163 -1.04643 -1.99746e-21)
(11.8007 -1.06886 0)
(12.3514 -1.11834 -3.80282e-19)
(12.7548 -1.13449 1.09617e-18)
(13.0757 -1.14937 -3.49605e-19)
(13.3403 -1.15746 -6.72585e-19)
(13.559 -1.16182 3.32858e-19)
(13.7378 -1.16261 3.17239e-19)
(13.8815 -1.16066 -9.37059e-19)
(13.9951 -1.15601 0)
(14.0833 -1.15402 -2.95361e-19)
(9.15025 -0.859354 -2.37093e-21)
(10.8742 -1.0924 4.32201e-19)
(11.7636 -1.11875 -4.08629e-19)
(12.3172 -1.16998 -1.14196e-18)
(12.722 -1.18732 -3.57681e-19)
(13.0436 -1.20291 1.39957e-18)
(13.3086 -1.21142 1.65365e-21)
(13.5278 -1.216 1.59991e-21)
(13.7073 -1.21687 3.19298e-19)
(13.852 -1.21486 3.11061e-19)
(13.9667 -1.20967 0)
(14.0567 -1.20646 8.74485e-19)
(9.10481 -0.897841 -4.88953e-19)
(10.8307 -1.13802 -4.33283e-19)
(11.7247 -1.16818 -4.04853e-19)
(12.2813 -1.22119 -3.77809e-19)
(12.6877 -1.23972 7.27156e-19)
(13.0099 -1.25599 -1.04074e-18)
(13.2754 -1.2649 3.43484e-19)
(13.4952 -1.26975 6.57127e-19)
(13.6755 -1.27076 0)
(13.821 -1.26895 3.06565e-19)
(13.9367 -1.26408 -1.20406e-18)
(14.0268 -1.26109 5.91586e-19)
(9.05751 -0.935779 4.83361e-19)
(10.7849 -1.18316 -4.35775e-19)
(11.684 -1.21723 -1.20207e-18)
(12.2438 -1.27199 3.47531e-21)
(12.6518 -1.29163 0)
(12.9748 -1.30852 -3.4535e-19)
(13.2408 -1.31789 -3.33732e-19)
(13.4612 -1.32301 3.25565e-19)
(13.6423 -1.32424 0)
(13.7889 -1.32256 3.08437e-19)
(13.9059 -1.31788 5.96513e-19)
(13.9976 -1.31452 -6.4123e-21)
(9.00844 -0.972905 4.85894e-19)
(10.7375 -1.22737 0)
(11.6412 -1.26554 8.00391e-19)
(12.2045 -1.32214 -3.796e-19)
(12.6142 -1.34297 -3.58099e-19)
(12.9381 -1.3605 1.03221e-18)
(13.2047 -1.37031 -9.98488e-19)
(13.4259 -1.37574 9.71925e-19)
(13.6078 -1.37715 0)
(13.7555 -1.37548 -3.03888e-19)
(13.8737 -1.3706 8.97218e-19)
(13.9669 -1.36695 2.88766e-19)
(8.95849 -1.00945 -9.64933e-19)
(10.6886 -1.27095 4.28133e-19)
(11.5969 -1.31324 -3.60163e-21)
(12.1635 -1.37174 -7.54223e-19)
(12.5752 -1.39376 7.14854e-19)
(12.9 -1.41194 0)
(13.1672 -1.42224 -3.30491e-19)
(13.3891 -1.428 -3.2251e-19)
(13.5719 -1.42964 0)
(13.7207 -1.42813 3.00493e-19)
(13.8401 -1.4235 -8.94267e-19)
(13.9346 -1.42 -2.90109e-19)
(8.90728 -1.0456 0)
(10.6377 -1.31405 2.71014e-21)
(11.5508 -1.36041 1.18977e-18)
(12.1208 -1.42072 -6.6237e-21)
(12.5345 -1.44397 -1.78006e-18)
(12.8603 -1.46285 1.36596e-18)
(13.1283 -1.47363 -1.31744e-18)
(13.3509 -1.47973 6.43072e-19)
(13.5347 -1.48155 0)
(13.6846 -1.48 0)
(13.8053 -1.47496 -2.93266e-19)
(13.902 -1.47123 5.723e-19)
(8.85412 -1.08111 0)
(10.585 -1.35641 2.85188e-21)
(11.5028 -1.40688 -1.18132e-18)
(12.0764 -1.46904 7.47604e-19)
(12.4921 -1.49353 0)
(12.8191 -1.5132 6.7638e-19)
(13.0878 -1.52451 -3.30211e-19)
(13.3112 -1.53095 0)
(13.496 -1.53301 -6.15706e-19)
(13.647 -1.53164 6.05758e-19)
(13.7691 -1.52695 -2.94591e-19)
(13.8666 -1.52358 0)
(8.79933 -1.11603 9.5283e-19)
(10.5307 -1.39814 4.25118e-19)
(11.453 -1.45255 7.86944e-19)
(12.0302 -1.51668 0)
(12.4481 -1.54249 7.01252e-19)
(12.7762 -1.56296 -3.43222e-19)
(13.0459 -1.57483 -6.55861e-19)
(13.2701 -1.58163 0)
(13.4559 -1.58384 3.06532e-19)
(13.6082 -1.5824 0)
(13.7318 -1.57734 0)
(13.8314 -1.57343 0)
(8.74289 -1.15008 4.71784e-19)
(10.4742 -1.43898 -8.47057e-19)
(11.4013 -1.49752 -3.92904e-19)
(11.9822 -1.56364 0)
(12.4024 -1.59081 6.97556e-19)
(12.7318 -1.61212 -3.38061e-19)
(13.0024 -1.62453 -6.45625e-19)
(13.2276 -1.63166 9.45624e-19)
(13.4145 -1.63405 -9.15263e-19)
(13.5681 -1.63274 8.95243e-19)
(13.693 -1.62799 -8.66392e-19)
(13.7936 -1.6246 6.33051e-21)
(8.68513 -1.1833 1.88277e-18)
(10.4161 -1.47883 -4.24691e-19)
(11.3477 -1.5417 0)
(11.9324 -1.60989 1.09421e-18)
(12.355 -1.6385 -6.26806e-21)
(12.6859 -1.66062 -6.7148e-19)
(12.9574 -1.67357 -3.21186e-19)
(13.1836 -1.68102 -2.38712e-21)
(13.3716 -1.6835 6.04602e-19)
(13.5264 -1.68209 -5.97031e-19)
(13.6529 -1.67683 1.14995e-18)
(13.756 -1.67327 -1.11457e-18)
(8.62609 -1.21599 -9.38298e-19)
(10.3564 -1.51801 -4.18679e-19)
(11.2922 -1.5852 -3.85534e-19)
(11.8809 -1.65547 -2.90383e-21)
(12.3059 -1.68551 -3.44999e-19)
(12.6383 -1.70844 -6.6111e-19)
(12.9109 -1.72192 6.46429e-19)
(13.1381 -1.72973 -2.47723e-21)
(13.3272 -1.73241 0)
(13.4832 -1.73115 -8.7976e-19)
(13.6109 -1.72585 5.73422e-19)
(13.7149 -1.72157 0)
(8.56547 -1.24802 4.72626e-19)
(10.2947 -1.55656 8.32885e-19)
(11.235 -1.62803 1.15265e-18)
(11.8275 -1.70037 -1.09085e-18)
(12.2552 -1.73183 -3.39665e-19)
(12.5891 -1.75557 9.91417e-19)
(12.863 -1.76961 3.19549e-19)
(13.0912 -1.77777 -3.09709e-19)
(13.2814 -1.78076 -1.19301e-18)
(13.4388 -1.77985 1.17324e-18)
(13.5679 -1.77515 -2.85422e-19)
(13.6727 -1.7709 -1.10821e-18)
(8.50312 -1.27931 -9.23791e-19)
(10.2311 -1.59436 1.64947e-18)
(11.1758 -1.67015 -3.86447e-19)
(11.7723 -1.74456 3.58033e-19)
(12.2027 -1.77744 3.40429e-19)
(12.5384 -1.80194 -2.84535e-21)
(12.8135 -1.81652 9.43562e-19)
(13.0429 -1.82501 -1.23118e-18)
(13.2344 -1.82827 0)
(13.3933 -1.82751 2.88465e-19)
(13.5243 -1.82308 0)
(13.6314 -1.81919 2.74659e-19)
(8.43905 -1.30977 -1.83635e-18)
(10.1657 -1.63124 1.64505e-18)
(11.1145 -1.71143 -3.8161e-19)