/*--------------------------------*- C++ -*----------------------------------*\
| =========                 |                                                 |
| \\      /  F ield         | OpenFOAM: The Open Source CFD Toolbox           |
|  \\    /   O peration     | Version:  2.3.1                                 |
|   \\  /    A nd           | Web:      www.OpenFOAM.org                      |
|    \\/     M anipulation  |                                                 |
\*---------------------------------------------------------------------------*/
FoamFile
{
    version     2.0;
    format      ascii;
    class       volScalarField;
    location    "0.75";
    object      k;
}
// * * * * * * * * * * * * * * * * * * * * * * * * * * * * * * * * * * * * * //

dimensions      [0 2 -2 0 0 0 0];

internalField   nonuniform List<scalar> 
15166
(
1.07911
1.32436
1.70736
2.10975
2.42103
2.73159
2.9535
3.08642
3.13275
3.11034
3.02677
2.91528
1.07948
1.29576
1.71119
2.10198
2.41265
2.70204
2.90346
3.01961
3.0555
3.02818
2.94586
2.82556
1.08754
1.2642
1.6958
2.07993
2.38992
2.66267
2.8485
2.95201
2.98071
2.95001
2.8678
2.74423
1.09809
1.23887
1.6742
2.0515
2.35865
2.61729
2.79074
2.88471
2.90831
2.87522
2.79227
2.66386
1.10949
1.21979
1.65109
2.02087
2.32314
2.56915
2.7322
2.81866
2.83848
2.80373
2.72029
2.59118
1.12181
1.20528
1.6276
1.98939
2.28547
2.51998
2.67402
2.75439
2.7713
2.73533
2.65144
2.5211
1.13507
1.19425
1.60435
1.9577
2.24665
2.47069
2.61682
2.69213
2.70672
2.66981
2.58519
2.45187
1.14908
1.18605
1.58188
1.92623
2.20747
2.42187
2.56097
2.63199
2.64471
2.6071
2.5222
2.38956
1.16361
1.18018
1.56052
1.89545
2.16852
2.37396
2.50671
2.57403
2.58518
2.54711
2.46226
2.33041
1.17849
1.17619
1.5404
1.86552
2.1302
2.32726
2.4542
2.51824
2.52807
2.48976
2.40546
2.2762
1.19357
1.17375
1.52156
1.83657
2.09272
2.28192
2.4035
2.4646
2.47331
2.43498
2.35175
2.22602
1.20876
1.17253
1.50393
1.80865
2.05624
2.23803
2.35463
2.41304
2.4208
2.38273
2.30134
2.18145
1.22395
1.1723
1.48748
1.78175
2.02085
2.19561
2.30755
2.36349
2.37044
2.33286
2.25377
2.1398
1.23907
1.17289
1.47214
1.75588
1.98659
2.15466
2.26222
2.31588
2.32215
2.28516
2.20787
2.09433
1.25405
1.17409
1.45783
1.73103
1.95348
2.11518
2.21859
2.27012
2.27583
2.23958
2.16445
2.05569
1.26884
1.17579
1.44445
1.70717
1.9215
2.07711
2.1766
2.22613
2.23135
2.19593
2.12306
2.01818
1.28338
1.17784
1.43191
1.68426
1.89066
2.04043
2.13619
2.18384
2.18865
2.15411
2.08344
1.98172
1.29764
1.18018
1.42016
1.66229
1.86092
2.00509
2.09729
2.14315
2.14762
2.114
2.04544
1.94653
1.31159
1.18273
1.40911
1.64118
1.83224
1.97103
2.05982
2.104
2.10817
2.0755
2.00907
1.91359
1.32519
1.1854
1.39871
1.62091
1.8046
1.93819
2.02372
2.06629
2.07022
2.03851
1.9742
1.88198
1.33841
1.18816
1.38887
1.60144
1.77795
1.90653
1.98893
2.02996
2.03367
2.0029
1.94054
1.85043
1.35127
1.19094
1.37955
1.58275
1.75226
1.87599
1.95538
1.99493
1.99844
1.96859
1.90799
1.81971
1.36372
1.19372
1.37071
1.56475
1.72747
1.84654
1.92302
1.96115
1.96448
1.93548
1.87643
1.78939
1.37575
1.19648
1.36228
1.54744
1.70357
1.81811
1.89179
1.92855
1.93171
1.90351
1.84585
1.76014
1.38736
1.19919
1.35424
1.53079
1.68051
1.79067
1.86164
1.89708
1.90005
1.87259
1.81624
1.73198
1.39852
1.20183
1.34653
1.51476
1.65826
1.76418
1.83252
1.86668
1.86947
1.84269
1.78758
1.70495
1.40926
1.20437
1.33913
1.49929
1.63677
1.73858
1.80439
1.83729
1.83988
1.81375
1.75991
1.67927
1.41956
1.20684
1.33203
1.48437
1.61602
1.71384
1.77718
1.80886
1.81126
1.78576
1.73323
1.65507
1.42939
1.20921
1.32516
1.46998
1.59597
1.68992
1.75087
1.78136
1.78356
1.75866
1.70747
1.63155
1.4388
1.21147
1.31855
1.45608
1.57659
1.66679
1.72541
1.75474
1.75673
1.73243
1.68252
1.60842
1.44774
1.21364
1.31211
1.44263
1.55784
1.64441
1.70077
1.72896
1.73074
1.70701
1.65837
1.58617
1.45623
1.2157
1.30589
1.42962
1.53971
1.62274
1.6769
1.70398
1.70555
1.68237
1.63494
1.56442
1.46427
1.21767
1.29983
1.41703
1.52216
1.60177
1.65379
1.67977
1.68112
1.65847
1.61224
1.54353
1.4719
1.21953
1.29395
1.40484
1.50517
1.58145
1.63138
1.6563
1.65743
1.6353
1.59022
1.52314
1.47903
1.22129
1.28821
1.39302
1.48871
1.56176
1.60966
1.63353
1.63444
1.61281
1.56885
1.50348
1.48576
1.22297
1.28264
1.38155
1.47275
1.54267
1.5886
1.61144
1.61213
1.59097
1.54811
1.48429
1.49204
1.22454
1.27719
1.37042
1.45728
1.52416
1.56816
1.58999
1.59045
1.56975
1.52799
1.46603
1.49789
1.22603
1.27188
1.35961
1.44228
1.50621
1.54832
1.56916
1.56939
1.54914
1.50847
1.44843
1.50332
1.22744
1.26669
1.3491
1.42772
1.48878
1.52906
1.54893
1.54894
1.52913
1.48951
1.43099
1.50833
1.22878
1.26162
1.33889
1.41359
1.47187
1.51036
1.52928
1.52905
1.50968
1.47115
1.41463
1.51288
1.23004
1.25666
1.32896
1.39987
1.45544
1.4922
1.51017
1.50972
1.49074
1.45312
1.39693
1.51698
1.23121
1.2518
1.31929
1.38654
1.43949
1.47454
1.4916
1.49091
1.4723
1.43544
1.37959
1.52065
1.23228
1.24705
1.30989
1.37359
1.42399
1.45739
1.47354
1.47261
1.45434
1.41823
1.36366
1.5239
1.23324
1.2424
1.30074
1.361
1.40893
1.4407
1.45597
1.4548
1.43683
1.40146
1.3479
1.52673
1.23407
1.23785
1.29185
1.34877
1.39428
1.42448
1.43888
1.43745
1.41977
1.38513
1.33293
1.52915
1.23476
1.2334
1.2832
1.33686
1.38003
1.4087
1.42224
1.42056
1.40315
1.3692
1.31785
1.53116
1.23535
1.22906
1.27477
1.32526
1.36617
1.39334
1.40604
1.4041
1.38694
1.35372
1.30387
1.53278
1.2358
1.22481
1.26656
1.31396
1.35269
1.37839
1.39026
1.38805
1.37114
1.33861
1.28985
1.53401
1.23614
1.22064
1.25856
1.30298
1.33957
1.36383
1.37488
1.3724
1.35571
1.32391
1.27657
1.53485
1.23638
1.21654
1.25075
1.29228
1.32679
1.34965
1.35989
1.35713
1.34066
1.30952
1.2631
1.53532
1.23653
1.21251
1.24314
1.28188
1.31435
1.33583
1.34527
1.34224
1.32596
1.29549
1.25029
1.53542
1.23662
1.20855
1.23571
1.27174
1.30222
1.32236
1.33102
1.3277
1.31162
1.2818
1.23783
1.53515
1.23662
1.20467
1.22845
1.26186
1.29041
1.30924
1.31713
1.31353
1.29762
1.26841
1.22515
1.53452
1.23656
1.20084
1.22137
1.25224
1.27891
1.29646
1.30358
1.29969
1.28395
1.25536
1.21336
1.53353
1.23642
1.19709
1.21445
1.24286
1.2677
1.28399
1.29036
1.28618
1.2706
1.24265
1.20199
1.53221
1.2362
1.1934
1.20769
1.23371
1.25677
1.27184
1.27747
1.273
1.25758
1.23028
1.191
1.53053
1.2359
1.18977
1.20109
1.22479
1.24612
1.25999
1.26489
1.26014
1.24486
1.21818
1.17993
1.52852
1.23555
1.18621
1.19464
1.21609
1.23574
1.24844
1.25263
1.24758
1.23246
1.20638
1.16917
1.52617
1.23512
1.18272
1.18835
1.20761
1.22561
1.23718
1.24066
1.23533
1.22034
1.19478
1.1579
1.52349
1.23465
1.1793
1.18219
1.19933
1.21574
1.22619
1.22899
1.22337
1.20849
1.18343
1.14742
1.52048
1.2341
1.17595
1.17619
1.19125
1.20611
1.21547
1.21759
1.21169
1.19692
1.17238
1.13756
1.51715
1.2335
1.17266
1.17032
1.18337
1.19671
1.20501
1.20647
1.20028
1.18562
1.16161
1.128
1.5135
1.23284
1.16944
1.16459
1.17568
1.18755
1.19481
1.19561
1.18915
1.17459
1.15109
1.11835
1.50953
1.23214
1.16629
1.15899
1.16818
1.17861
1.18486
1.18502
1.17828
1.16381
1.1408
1.10893
1.50525
1.23139
1.16321
1.15354
1.16086
1.16989
1.17515
1.17469
1.16767
1.15328
1.13073
1.09946
1.50065
1.23061
1.1602
1.14822
1.15372
1.16139
1.16568
1.16461
1.15731
1.143
1.12087
1.09034
1.49576
1.22976
1.15727
1.14304
1.14676
1.1531
1.15645
1.15478
1.1472
1.13296
1.11121
1.08121
1.49054
1.22888
1.15441
1.13798
1.13998
1.14501
1.14744
1.14518
1.13733
1.12314
1.10177
1.07251
1.48502
1.22798
1.15163
1.13307
1.13336
1.13713
1.13866
1.13582
1.1277
1.11355
1.09254
1.06396
1.47922
1.22701
1.14894
1.12828
1.12692
1.12944
1.13009
1.12668
1.11829
1.10418
1.08353
1.05571
1.47311
1.22601
1.14631
1.12363
1.12064
1.12194
1.12173
1.11777
1.10911
1.09503
1.0747
1.0474
1.4667
1.22495
1.14376
1.11911
1.11453
1.11464
1.11359
1.10907
1.10015
1.08608
1.06606
1.03941
1.46001
1.22388
1.14129
1.11472
1.10858
1.10753
1.10564
1.10059
1.0914
1.07735
1.05764
1.03161
1.45301
1.22279
1.13893
1.11048
1.10281
1.1006
1.09791
1.09233
1.08287
1.06883
1.0494
1.02391
1.44572
1.22166
1.13662
1.10636
1.09718
1.09386
1.09037
1.08426
1.07455
1.0605
1.04134
1.01642
1.43816
1.22047
1.13441
1.10238
1.09173
1.0873
1.08302
1.07641
1.06643
1.05238
1.03346
1.00887
1.43031
1.21923
1.13228
1.09854
1.08644
1.08092
1.07588
1.06876
1.05852
1.04444
1.02574
1.00151
1.42217
1.21798
1.13024
1.09483
1.08131
1.07472
1.06892
1.06131
1.05081
1.0367
1.01818
0.994243
1.41374
1.21671
1.1283
1.09127
1.07634
1.06869
1.06215
1.05405
1.04329
1.02915
1.0108
0.987208
1.40503
1.21539
1.12645
1.08785
1.07154
1.06285
1.05557
1.04699
1.03597
1.02179
1.00358
0.980196
1.39604
1.21404
1.12468
1.08457
1.0669
1.05718
1.04918
1.04011
1.02883
1.01459
0.996524
0.973514
1.38678
1.21265
1.12301
1.08144
1.06243
1.0517
1.04297
1.03343
1.02188
1.00758
0.989629
0.967028
1.37723
1.21122
1.12143
1.07844
1.05812
1.04638
1.03695
1.02694
1.01513
1.00075
0.982922
0.960614
1.36741
1.20975
1.11995
1.0756
1.05399
1.04125
1.03112
1.02064
1.00857
0.994112
0.976383
0.954251
1.3573
1.20827
1.11858
1.07292
1.05002
1.0363
1.02546
1.01453
1.00219
0.987644
0.970001
0.948163
1.34693
1.20673
1.1173
1.07039
1.04623
1.03153
1.02
1.0086
0.995991
0.981358
0.963786
0.942078
1.33629
1.20512
1.11611
1.06802
1.04261
1.02694
1.01472
1.00286
0.989978
0.97524
0.95772
0.936337
1.32537
1.20348
1.11502
1.0658
1.03917
1.02254
1.00962
0.997303
0.984151
0.969315
0.951852
0.930626
1.31417
1.20181
1.11404
1.06375
1.03592
1.01832
1.00472
0.99194
0.978512
0.963569
0.94615
0.925113
1.30269
1.20012
1.11318
1.06187
1.03285
1.01429
1
0.986762
0.973056
0.957992
0.94058
0.919437
1.29094
1.19837
1.1124
1.06015
1.02997
1.01045
0.995476
0.981769
0.96778
0.95259
0.935199
0.914562
1.27892
1.19657
1.11173
1.05861
1.02728
1.00681
0.991146
0.976974
0.962709
0.947406
0.930067
0.909686
1.26664
1.19469
1.11118
1.05725
1.02479
1.00337
0.987015
0.972376
0.957824
0.942389
0.925073
0.904924
1.25407
1.1928
1.11072
1.05607
1.0225
1.00014
0.983087
0.967974
0.953132
0.937561
0.920259
0.900209
1.24124
1.19082
1.11038
1.05507
1.02042
0.997115
0.979361
0.963775
0.948634
0.932918
0.915608
0.895633
1.22814
1.18876
1.11014
1.05425
1.01855
0.994303
0.975846
0.959778
0.944339
0.928476
0.911144
0.891125
1.21477
1.18665
1.11002
1.05364
1.0169
0.991712
0.972546
0.95599
0.940239
0.924211
0.906823
0.886857
1.2011
1.18452
1.11001
1.05323
1.01548
0.989351
0.969466
0.952412
0.936346
0.920147
0.902707
0.882711
1.18718
1.18223
1.11012
1.05302
1.01429
0.98722
0.966613
0.949052
0.932661
0.916279
0.898762
0.878767
1.17297
1.17992
1.11033
1.05302
1.01335
0.985337
0.963994
0.94592
0.929195
0.912624
0.895034
0.874951
1.1585
1.17752
1.11066
1.05324
1.01265
0.983698
0.961613
0.943012
0.925938
0.909161
0.891474
0.871457
1.14373
1.17508
1.11111
1.05369
1.01221
0.982322
0.959482
0.94034
0.922907
0.905919
0.888134
0.868137
1.12868
1.17256
1.11167
1.05435
1.01204
0.981216
0.957616
0.937923
0.920125
0.902923
0.88504
0.864952
1.11338
1.16992
1.11235
1.05525
1.01215
0.980394
0.956019
0.935759
0.917584
0.900152
0.882168
0.86206
1.09779
1.16716
1.11315
1.0564
1.01254
0.979865
0.954698
0.933857
0.915288
0.897613
0.879516
0.859476
1.08193
1.16433
1.11406
1.05779
1.01324
0.97964
0.953669
0.932231
0.913253
0.895339
0.877135
0.857016
1.06578
1.16136
1.11509
1.05944
1.01425
0.97973
0.952947
0.930894
0.911484
0.893296
0.874936
0.854825
1.04936
1.1583
1.11624
1.06136
1.01558
0.98016
0.952548
0.929862
0.910007
0.891538
0.873021
0.852803
1.03264
1.15523
1.1175
1.06356
1.01726
0.980945
0.952492
0.92915
0.908829
0.890065
0.871374
0.851036
1.01564
1.15193
1.11891
1.06604
1.0193
0.9821
0.952797
0.92877
0.907962
0.88887
0.869959
0.849445
0.998349
1.14857
1.12044
1.06883
1.02172
0.983654
0.953482
0.928753
0.907433
0.887996
0.868871
0.848191
0.980769
1.14512
1.12209
1.07191
1.02453
0.985618
0.954569
0.929115
0.90726
0.887466
0.868125
0.847353
0.962918
1.14141
1.12386
1.07532
1.02775
0.98803
0.956083
0.929884
0.907477
0.887325
0.867792
0.846807
0.944772
1.13763
1.12575
1.07904
1.0314
0.990894
0.958048
0.931064
0.90807
0.887505
0.867674
0.846148
0.926335
1.13375
1.12774
1.08312
1.03551
0.994245
0.960478
0.932681
0.909055
0.888032
0.867869
0.845998
0.907621
1.12963
1.12989
1.08753
1.04009
0.998106
0.963413
0.934771
0.910481
0.888988
0.868517
0.846369
0.888597
1.12544
1.13216
1.09233
1.04518
1.00253
0.966897
0.93738
0.912385
0.890376
0.869516
0.847042
0.869284
1.12096
1.13458
1.09751
1.05081
1.00755
0.97098
0.940554
0.914823
0.892274
0.871054
0.848367
0.849674
1.11633
1.13709
1.1031
1.05702
1.01321
0.975702
0.944334
0.91783
0.894717
0.873127
0.850269
0.829795
1.11161
1.13974
1.1091
1.06383
1.01955
0.981113
0.948778
0.921447
0.897738
0.875759
0.852511
0.809617
1.10664
1.14253
1.11555
1.07129
1.02663
0.987253
0.95391
0.925693
0.901282
0.878736
0.854686
0.789128
1.10143
1.14548
1.12247
1.07943
1.03449
0.994197
0.959797
0.930636
0.905471
0.88235
0.857877
0.768353
1.09595
1.14855
1.12989
1.08832
1.04323
1.00202
0.966539
0.936384
0.910435
0.886783
0.862016
0.747301
1.09044
1.15176
1.13784
1.09802
1.05289
1.01083
0.974207
0.942974
0.916141
0.891779
0.866437
0.725932
1.08453
1.15516
1.14638
1.10859
1.06359
1.02069
0.982898
0.950515
0.922708
0.897598
0.871579
0.704264
1.07837
1.15875
1.15556
1.12014
1.07544
1.03175
0.992731
0.959104
0.930204
0.904196
0.877484
0.682315
1.07217
1.16256
1.16544
1.13277
1.08858
1.04414
1.00387
0.968905
0.938808
0.911844
0.884418
0.66003
1.06554
1.16668
1.17616
1.14664
1.10318
1.05805
1.01647
0.980051
0.948636
0.920577
0.892096
0.637427
1.05875
1.17117
1.18786
1.16195
1.11945
1.07368
1.03071
0.992674
0.959766
0.930482
0.901055
0.61445
1.05172
1.17618
1.20081
1.17895
1.13766
1.09127
1.04677
1.00694
0.972309
0.941566
0.910977
0.5911
1.04468
1.18213
1.21537
1.19807
1.15814
1.11112
1.06493
1.02307
0.986492
0.954173
0.922414
0.567262
1.03781
1.18956
1.23222
1.21982
1.18132
1.13354
1.08544
1.04124
1.00241
0.968211
0.935007
0.542869
1.03237
1.19968
1.25231
1.24483
1.2076
1.15877
1.10844
1.0616
1.02015
0.983707
0.948588
0.517796
1.03186
1.21573
1.27802
1.27441
1.23783
1.18755
1.1347
1.08473
1.04017
1.00095
0.963591
0.488284
1.03317
1.23062
1.30432
1.30262
1.26674
1.2153
1.16111
1.10811
1.06114
1.01907
0.980025
1.04068
0.00468007
0.347415
0.3218
0.320737
0.288906
0.279329
0.646843
0.830961
0.777921
0.567786
0.00777922
0.0326159
3.01861
0.277065
0.00354997
2.83097
0.110618
0.107653
0.00348338
0.140584
0.176121
0.14482
0.0269065
1.05612
0.346503
0.160016
0.375049
0.604652
0.812981
0.538073
1.16682
0.00420061
0.558274
0.0311393
0.165939
0.387305
0.470848
0.39305
0.00818291
0.0704792
0.00337729
0.0716726
0.531588
0.268449
0.173094
0.0608479
0.0248529
0.271387
0.140031
0.164094
0.634586
0.262998
0.00321463
1.98786
0.0044469
0.0106634
0.00337424
0.471546
0.266432
0.155738
1.19157
0.0032091
0.0168825
0.183598
0.00453279
0.888878
0.252363
1.53223
0.689189
1.88399
0.0535753
0.383405
0.72912
0.0273705
0.00323014
0.797583
0.00309478
0.0702101
0.241062
0.103477
0.00310386
0.405746
0.295304
0.0163655
1.11907
0.884525
0.00319468
0.390991
0.237791
0.353799
0.653797
0.00319826
0.00392206
0.456864
0.00326193
0.362489
0.012842
0.00317208
0.899035
1.1087
0.203695
0.00335325
0.0043406
0.00312134
0.514839
0.512244
0.689487
0.533169
0.00886252
0.0944754
0.00312705
0.202571
0.0037268
0.00318215
0.219922
0.0195239
0.219991
1.09332
0.176125
1.02448
0.0293421
1.69983
0.199698
0.125667
1.29234
0.00405451
1.96534
0.0323844
0.00320012
0.231678
0.00323636
0.233189
0.00434538
0.162787
0.00514923
0.233315
0.595954
0.208028
0.00585717
0.0170207
0.145384
0.269573
0.0254536
0.174606
1.89731
0.298922
0.0045429
0.983097
0.374164
0.0640827
0.214045
0.00309227
0.114722
0.156547
0.00314728
0.248542
0.003202
1.27997
0.00708525
0.0270419
0.00356927
0.128083
0.0132882
0.149777
0.084445
0.984656
0.291705
0.335189
0.00307307
1.88823
0.758512
1.99265
0.0179157
0.00305944
0.574578
0.00311686
0.305936
0.138026
0.719695
1.00917
0.438049
0.0629259
0.37121
0.00339039
0.262746
0.00317802
0.00315336
0.17535
0.00318555
0.487616
0.00310671
0.936801
0.00475749
0.284102
0.296507
0.271769
0.165145
0.00312702
3.17553
1.01995
0.318217
0.413988
0.217261
0.324907
0.105014
0.0915467
0.228931
0.703493
0.216978
0.288252
0.900072
0.500566
0.396576
0.00315442
0.283577
0.012968
0.427434
3.25234
0.21031
0.294668
1.0211
0.338903
0.00315697
0.0031882
1.30872
1.11838
0.00327021
4.20618
0.0324071
0.312489
0.121386
0.00311783
0.947463
0.414198
0.253647
0.246315
1.07898
0.656989
0.322201
0.154773
0.161398
1.25517
1.68695
0.375291
0.281819
0.227986
0.00350596
1.39594
0.289876
0.65069
0.726835
0.378955
3.95176
0.236706
0.240415
0.210437
0.310505
0.57806
0.341718
0.21642
0.258169
0.0157558
0.0899664
0.683918
0.261859
0.92206
0.506963
0.361386
1.49128
0.2881
0.0502876
1.63945
0.209098
0.208349
1.69584
0.242287
0.260472
0.301823
0.203603
0.866182
0.238758
0.37266
0.331606
0.614211
0.273144
0.474495
0.207983
1.1208
0.12859
0.201679
1.66872
0.226326
0.224879
0.283014
0.919839
0.119713
0.206076
0.0677732
0.480368
0.183643
0.106139
1.36667
2.05755
0.154298
0.954101
0.323525
0.00318779
0.201465
0.166118
0.211163
0.288922
0.00315766
1.18632
0.320044
0.0673966
0.225815
0.762331
0.00315194
0.638769
0.0388429
0.57957
0.422668
4.92983
0.503348
0.758441
0.539094
0.00313881
0.00316297
0.285049
0.447191
0.00307749
0.517291
0.00311578
0.0031623
0.00322465
0.00311707
0.140397
0.0031637
0.00580783
1.03853
0.5123
0.003229
0.334972
0.00987157
0.19585
0.295646
1.28832
4.14642
0.481121
0.00301096
0.00323876
0.081958
0.134223
0.208969
0.0030643
0.0988727
0.315842
0.878562
0.377776
0.177648
0.2733
1.02608
4.08656
0.157119
0.325532
0.00364909
0.00318514
0.159083
0.258131
0.116372
0.173463
0.505849
2.744
1.69547
0.143826
0.343371
1.0142
0.00319835
0.419832
0.753633
0.00527047
0.00316292
0.520382
3.82728
0.734979
0.0030802
0.0489273
0.154766
0.0256728
0.00319885
0.833386
0.382687
0.277379
0.282032
0.00374824
3.8143
0.00314286
0.235826
0.54482
0.00649068
0.0111336
0.962707
0.00879738
1.40935
0.767075
1.15118
0.653577
0.172244
0.681603
0.00313953
0.00309426
0.00317226
1.03844
0.0754677
1.2625
2.7626
0.164713
0.592064
0.00317912
0.0109259
0.274334
0.00308087
0.00317183
0.703334
0.00306837
0.227929
0.91644
0.371908
0.00302994
0.00749522
0.110588
0.116052
0.237031
0.144971
0.00310504
3.34347
0.836832
0.109496
0.0123934
0.327389
0.199604
0.00711823
0.279664
0.00690463
0.846239
0.0035282
0.250307
0.133134
0.00311625
1.30276
0.238424
0.322182
0.00930163
0.471289
0.144121
0.00516826
0.217478
0.490098
0.352344
1.10892
0.0240647
0.0508998
0.0115463
1.31216
0.67643
0.0630448
0.137581
0.163217
0.33492
0.182164
0.511037
1.1034
0.00304567
2.04944
0.914971
0.226639
0.00309809
0.267647
0.96321
0.0255403
0.436743
0.348871
0.256772
0.126718
0.177137
0.25943
0.00358645
0.0189258
0.875657
0.0391543
0.00438481
0.923018
4.08772
0.0395618
0.19989
0.788975
0.0904682
0.491436
0.259218
0.843747
0.321201
0.290981
0.00323008
0.0851834
0.447599
0.382343
1.3329
0.214167
1.42371
0.937611
3.75206
0.888715
0.310536
0.00316689
1.26403
0.204165
0.801704
0.416478
0.163774
0.0844163
0.426544
0.00321466
0.297439
0.00317781
0.340877
0.421631
0.213241
0.17507
1.27229
0.241275
1.04346
0.642768
1.97776
0.00321794
0.123861
0.933252
2.4493
0.196092
0.717545
0.0036172
0.0282468
0.350277
1.85833
0.59222
0.00310244
0.0582259
0.00312257
0.0586918
0.351311
0.0375848
0.846816
0.142973
0.589653
0.155839
0.125201
1.23016
0.709046
0.00319514
0.00319639
0.257768
1.21774
0.27564
0.5985
0.44126
0.667496
0.266634
0.00302343
0.187561
0.253729
0.00485935
1.04936
0.265187
0.176374
0.274333
0.0127531
0.00302464
0.02372
0.00313934
0.647194
0.817783
0.709548
0.638182
0.00319306
1.47825
0.0898862
0.74295
0.135472
1.73234
0.00867553
0.154664
0.00307428
0.497144
0.71671
0.315652
0.409605
0.00300691
1.30176
0.805987
0.510932
0.00311652
0.0709165
0.81396
0.617959
0.00610454
2.17326
0.0037391
0.805232
0.614633
0.0036302
0.131743
0.0877317
0.202515
0.00310546
0.00319887
1.15775
0.431725
0.322118
0.526605
0.00488082
0.12805
0.0982809
0.768963
0.208424
0.00395862
0.209065
1.20891
0.00307799
0.00821253
0.286311
0.635114
1.11621
0.0031581
0.729483
0.221375
1.30865
0.0298748
0.151751
0.816499
0.00319986
0.199384
0.137924
0.376254
0.38336
0.726064
0.276565
1.21707
1.17701
0.282366
2.70765
0.00323658
0.00315036
1.4971
0.783644
0.0047588
0.00315674
0.473405
0.00320625
0.823768
0.540441
0.248053
0.00311694
0.808203
0.0530299
0.291411
1.21612
0.235412
0.148534
0.145233
1.34685
0.0031921
0.285559
0.981612
0.234542
0.557307
0.00673602
0.53344
0.263315
2.03174
0.00313014
0.148921
0.683747
0.305788
0.00332103
0.0952971
0.342186
0.439234
1.26975
0.0592636
1.87646
0.406351
0.0928386
0.404965
0.00313422
0.00737523
0.36305
0.00306756
0.1753
0.00316529
0.244709
0.0107784
0.839626
0.00321719
0.110644
0.493971
1.61076
0.356924
0.669927
0.163593
2.44857
0.0156033
0.0934933
0.571843
0.00309936
0.00320601
0.380335
0.156045
0.248862
0.390768
0.00328419
0.216262
0.218749
0.20101
0.49236
1.14824
0.200076
0.00319667
1.88295
2.42482
0.506895
0.00323832
0.0108346
2.0939
0.26042
0.00311983
1.29444
0.00310059
0.0804678
2.74575
0.00354816
0.291541
0.00314941
0.0566206
0.751429
0.00324368
0.00401704
0.00318308
0.00379997
0.0216798
3.81124
0.805135
0.0939073
0.242142
0.00316397
0.765548
0.00317339
0.248061
0.23275
0.0247985
0.159762
0.0139107
1.15106
0.00318443
4.32698
0.218274
0.629206
0.351568
0.163028
0.00309676
0.193401
1.09774
0.129336
0.752508
0.886089
1.69379
0.349812
0.0419614
0.627888
0.0840756
0.00406575
0.106699
2.4709
1.1489
0.120012
0.00846503
0.297501
0.0037559
0.443717
0.872045
1.08653
0.842943
0.896333
0.0372
0.00583189
0.325984
0.224511
0.0483644
0.269497
0.00316116
0.261376
1.96578
0.00330254
1.69702
0.783294
0.114533
0.101938
1.45073
0.0236547
0.101414
0.45768
0.310683
0.29413
0.00322322
0.673989
0.0763057
0.27138
0.383127
0.199044
0.223023
0.00685732
0.688981
0.00317337
0.00316055
0.228472
0.104963
0.160165
1.91868
0.00303327
1.14082
0.0646096
0.0578779
0.00338881
1.7224
0.363857
0.0899656
0.784604
0.0598011
1.16009
0.154623
0.00314252
1.19383
2.08942
0.00546385
0.00876334
0.203565
1.03762
0.0993735
1.32473
0.0352595
0.233509
0.104147
0.156976
0.680998
0.203264
0.00318776
1.17582
0.32888
0.0151641
0.197112
4.25596
0.276463
0.00317662
0.00307079
0.764149
0.184079
1.01365
0.00306549
0.71515
0.295956
0.408496
0.00376693
0.314002
0.777351
0.00538485
0.258584
0.00321639
1.1234
0.2111
0.345393
0.262363
0.00314612
0.00314548
0.345556
1.4059
0.385965
0.732497
0.003028
0.045408
0.0032083
0.00626188
1.15985
0.0742163
0.0971193
0.124891
0.32538
0.305708
0.356476
1.21028
0.00317283
0.30434
0.732064
0.245567
0.00319247
0.943172
0.00320555
0.00316624
0.0885906
0.211995
0.0251613
1.36394
0.203236
2.80227
0.00328522
0.00476028
0.0397763
0.903269
0.306056
0.962738
0.00316826
0.00314853
0.00629161
0.00835911
1.10575
0.80584
0.640757
0.123542
0.0448944
0.315542
0.164208
0.578071
0.275874
0.879551
0.312612
0.00308098
0.332978
0.00536885
0.194634
0.889081
0.184412
0.231717
0.133298
0.00380966
1.34383
0.516345
0.489078
0.314536
0.00315936
0.588638
0.762551
0.334202
0.00825238
0.913106
0.479542
0.83857
0.328768
0.336684
0.59012
0.120061
0.861578
0.258602
0.097966
0.236259
0.00317894
1.21452
0.862555
0.00311821
0.684676
0.004774
0.538051
0.204622
0.237265
0.266693
0.73072
0.953163
0.262308
0.131367
0.174756
0.219548
0.0125463
0.00310407
1.02787
0.0615853
0.938016
0.549806
0.22462
0.834622
0.544981
0.00314509
0.278253
1.53428
1.06108
0.226808
0.239302
0.570704
1.89723
0.190821
0.234673
0.0249311
0.0837567
0.546909
1.19625
0.111638
0.842159
0.821301
0.785939
0.23983
0.231319
0.425501
0.692694
0.00319155
1.94169
0.669912
0.205006
0.00319069
0.592497
0.474467
0.294877
0.00317438
0.591408
0.00317258
0.243212
0.091231
0.00319457
0.823314
0.347653
0.00310567
0.531878
0.373564
0.608886
0.258809
0.519383
0.279644
0.705956
0.169206
0.157381
0.00312932
0.00470826
0.343428
0.173404
0.0243274
0.00322964
0.3549
0.00604326
0.119781
0.118555
0.44574
0.207248
0.0574966
0.0943224
0.549422
1.63706
0.329533
4.11881
0.870177
0.00311845
0.54108
0.589055
1.6775
0.00312663
0.173384
0.00318786
0.00359159
0.277284
0.289788
0.0391306
0.00340826
0.806072
3.72619
0.00739235
0.00317653
0.129319
0.263037
0.0240202
0.0740492
3.85302
0.140584
0.00339061
0.00317761
0.969199
0.262622
0.135715
0.0592916
0.651857
1.13165
0.39204
0.247355
0.679526
0.00317322
0.5023
0.00315978
0.231096
0.274221
5.38264
0.178325
0.0898058
0.00382908
1.18566
0.0031945
0.00313404
0.00585734
0.272527
0.287289
0.977117
0.00314931
0.507694
0.00317251
0.692931
0.977249
0.00320493
0.725391
0.22506
0.00317312
0.00330209
0.0319689
1.10731
0.383679
0.0264349
0.0031745
0.0031327
0.848848
0.685866
0.327466
0.753951
0.117757
0.438707
0.00314897
0.0103098
0.382893
0.810795
0.7595
0.00887592
0.00317631
0.397867
0.00319772
0.203649
0.805842
0.353949
0.0431408
0.20087
0.506427
0.157237
0.00316975
0.51334
1.33286
0.648223
0.00644088
0.0306068
0.690377
3.69255
0.0548476
0.373705
0.00311028
0.00308662
0.00321468
0.0187778
0.401775
1.07555
0.0106793
0.220963
0.63396
1.23462
0.206221
0.0197127
0.00796645
0.00757997
0.158533
0.171373
0.23679
0.00322348
1.34462
0.00314333
0.0136505
0.844366
0.853022
0.0364521
0.372721
0.468138
0.00409995
0.130323
0.255671
0.0031548
0.00378136
1.12395
0.00365648
0.0032248
0.707202
0.235374
2.09315
0.209264
2.41316
0.00356025
0.00311458
3.2458
0.296053
0.225234
0.49843
0.0604024
0.232639
0.196498
1.0213
0.814677
0.588458
0.582171
0.233364
0.111224
0.321595
0.72851
0.014649
0.351356
0.00392247
0.439656
0.366682
0.107067
0.384329
0.188557
0.413341
0.207939
0.262183
1.11065
0.45968
0.215613
0.31732
0.710832
0.326196
0.00421338
0.00315953
0.110998
2.22846
0.00316167
1.78893
0.00312465
0.00989765
0.340468
0.221509
0.820583
0.680625
0.902949
1.14001
0.522638
0.386286
0.00316723
0.290831
1.05824
0.00323919
1.24781
0.00714259
1.70952
0.94077
1.13402
0.274176
0.206241
0.283961
0.0918494
0.284533
1.2362
0.360736
0.780228
0.169825
0.203107
0.085378
0.231787
0.954715
0.00955243
0.666483
0.00319427
0.00393388
0.300202
1.51841
0.338434
0.273872
0.164437
0.110682
0.12176
0.0034692
0.341079
0.00346723
0.706385
0.00341834
0.0580687
0.943396
0.171791
0.306298
0.334159
0.318438
0.00623955
0.00321491
0.0992445
0.266846
0.114828
0.517127
0.0424973
0.366002
0.240403
0.374548
0.791934
0.00359434
0.00314781
1.68915
0.226571
0.172014
0.811086
0.688259
0.8177
0.00987907
1.68538
0.3358
0.213181
0.00347802
0.196948
0.40371
0.205465
0.207738
0.266035
0.0032306
0.472957
0.00313414
0.628392
0.010674
0.439935
0.118066
0.409631
0.00324326
6.54569
0.00319251
1.51063
0.0256325
0.00317523
0.0145932
0.274994
0.0031708
0.00318046
0.39691
0.03281
0.327492
0.056986
0.00332665
0.218981
0.186482
0.445028
0.00334122
0.224019
0.189936
1.35632
0.707285
0.394665
0.415611
0.215744
0.306639
0.778718
0.832229
0.211252
0.00322413
0.145042
0.362393
0.306286
0.00471779
0.00856094
0.234324
1.57404
0.00318406
0.206293
1.23549
0.00305009
0.849721
0.935893
0.357312
0.594762
0.796958
0.259128
0.13005
2.59088
0.411579
0.88535
0.821864
0.222435
0.107509
0.0031663
0.420481
0.00587448
0.00321786
0.00313426
0.300479
0.00316628
0.00373378
0.537764
4.05839
0.406946
0.212643
0.833907
0.239593
0.00318233
0.165935
1.14395
0.0252622
0.164362
1.01907
0.313007
0.125606
0.0312128
0.00314371
0.00316818
0.0272988
0.0449177
0.30283
0.299997
1.23637
0.267413
0.268778
0.00395548
0.50337
0.213623
0.0032118
0.342804
3.37883
0.00320851
0.362728
1.01679
0.739469
0.656235
0.189875
1.10327
0.00356307
0.210224
0.00331898
0.00633658
0.00320971
0.835215
0.568563
0.0741373
0.00319328
0.00307303
1.11331
0.386833
0.289219
0.235308
0.354565
0.435312
0.306092
0.349965
0.350041
0.0031772
0.151179
0.123616
0.136322
0.385292
1.05927
0.767808
0.590837
0.363233
1.11614
0.826559
0.963123
0.416029
0.881462
0.0647108
0.825357
0.393181
0.0281188
1.01267
0.855885
0.447199
0.00311412
0.00320084
0.00361082
0.00444255
0.47224
0.00304521
0.494351
0.165092
0.996385
0.76683
0.00317142
0.474264
0.283352
0.186885
0.276007
0.390346
0.55273
0.00326542
0.00319927
0.00911216
0.100527
0.00313252
0.637536
0.267334
0.253035
0.76042
0.514614
0.441398
0.532106
0.00316787
0.319243
0.669125
0.00381456
0.0789437
0.409229
0.315015
0.537614
0.193284
0.00325607
0.375577
0.358451
0.00385279
0.0204917
0.0031579
0.178789
0.00440683
0.143964
1.28756
0.1116
0.0735145
1.00143
1.81235
0.00326947
0.628949
0.00305227
0.224976
0.346937
0.247801
0.484197
0.691015
0.676927
0.80233
1.22351
0.74682
0.00317862
0.00314518
0.0531814
0.101386
0.606601
0.172312
0.00319371
1.58821
0.253977
0.00825328
0.78851
0.0587037
0.00816868
0.0403908
0.997786
0.00646962
0.00319499
0.258382
0.205953
0.640862
0.118252
0.226226
0.202942
0.00321397
0.291333
0.0902765
0.0600324
0.00337582
0.202593
0.534384
0.173662
1.44931
1.33533
0.316587
0.41341
0.00316339
0.359721
0.00319511
2.7303
0.0103363
0.430729
0.0942372
0.840416
0.0163766
0.00933713
0.248374
0.307769
1.30282
0.00356465
0.21214
0.482243
0.609098
0.185544
0.999389
0.120685
0.00343511
0.00320506
0.479162
0.635614
1.06301
0.289453
0.0848836
0.530375
0.328533
0.819071
0.0460112
0.00316921
0.00318277
0.122286
0.707432
0.689916
0.993081
0.00353341
0.0109607
0.167982
0.452397
0.268484
0.759178
0.349926
0.879205
0.00319888
0.00320957
1.13662
0.275257
0.885349
2.87798
0.360001
0.0246359
1.41152
0.00318407
1.02331
0.0277211
0.0308293
0.00317113
0.0418005
0.0845678
0.837365
0.794278
0.00322673
0.758406
0.00316013
0.601096
1.56607
0.00314505
0.157374
0.00322657
0.259039
0.12754
0.174707
0.00308787
0.262057
0.211772
0.257335
1.02366
0.170224
1.22476
0.217515
0.833547
0.237364
1.11761
0.638016
0.00384251
0.00320865
0.375461
0.195129
0.823708
0.00317726
2.11178
0.00315893
0.00478215
0.0389343
0.00316026
1.14234
0.97458
0.00324379
0.665461
0.25668
0.102526
0.709351
0.00608346
0.0031292
0.422969
0.385977
0.00977412
0.776452
6.66905
1.35831
0.155339
1.19732
0.104346
0.00318524
0.00368815
0.0351781
0.137069
0.844317
1.09009
1.31562
0.795691
0.531631
0.509192
0.257831
0.652044
1.94379
0.591107
0.0430503
0.0783226
0.2788
1.50664
0.00338242
0.194292
0.655468
0.33347
0.00317286
0.423951
0.00305912
0.0138653
0.843745
0.0033876
0.298126
1.8499
0.00318984
0.352639
0.00351441
0.337264
0.0141158
0.00406729
0.767088
0.255194
0.915554
0.399756
1.12067
1.64651
0.489665
0.175871
0.75218
0.388507
0.0031157