/*--------------------------------*- C++ -*----------------------------------*\
| =========                 |                                                 |
| \\      /  F ield         | OpenFOAM: The Open Source CFD Toolbox           |
|  \\    /   O peration     | Version:  2.3.1                                 |
|   \\  /    A nd           | Web:      www.OpenFOAM.org                      |
|    \\/     M anipulation  |                                                 |
\*---------------------------------------------------------------------------*/
FoamFile
{
    version     2.0;
    format      ascii;
    class       volVectorField;
    location    "0.75";
    object      U;
}
// * * * * * * * * * * * * * * * * * * * * * * * * * * * * * * * * * * * * * //

dimensions      [0 1 -1 0 0 0 0];

internalField   nonuniform List<vector> 
15166
(
(5.974 0.560255 3.19339e-19)
(7.18702 1.0343 1.59867e-18)
(8.26903 0.902132 -8.94044e-19)
(9.30109 0.956248 8.01764e-19)
(10.0961 1.02016 8.23989e-19)
(10.8727 1.07496 4.34253e-19)
(11.5267 1.17339 -8.59501e-19)
(12.0689 1.23917 8.32985e-19)
(12.4641 1.33351 -4.22535e-19)
(12.7711 1.393 1.67144e-18)
(12.997 1.44847 -1.22764e-18)
(13.1507 1.50678 1.22174e-18)
(6.66591 1.02646 4.89038e-19)
(7.60249 1.42477 5.23886e-20)
(8.55497 1.20934 2.744e-20)
(9.4768 1.22944 4.56093e-19)
(10.2373 1.24936 -3.96014e-19)
(10.965 1.27587 0)
(11.5823 1.33749 4.2502e-19)
(12.0879 1.38343 1.45325e-21)
(12.4665 1.44387 4.18301e-19)
(12.7601 1.48569 -8.43353e-19)
(12.9764 1.52575 1.65663e-18)
(13.1344 1.56469 -1.23423e-18)
(7.2085 1.25748 -4.634e-19)
(8.03783 1.56811 -2.47799e-18)
(8.89935 1.37641 4.88121e-19)
(9.72196 1.41046 -9.25288e-19)
(10.4313 1.4172 -1.65953e-20)
(11.1023 1.43289 8.84006e-19)
(11.6751 1.4725 -1.26959e-18)
(12.1419 1.50341 -4.35697e-19)
(12.4973 1.54163 8.31611e-19)
(12.7724 1.56903 5.99641e-21)
(12.9766 1.59529 -1.23787e-18)
(13.1301 1.62008 1.6228e-18)
(7.51474 1.37418 0)
(8.35057 1.62654 -1.0848e-18)
(9.18108 1.47817 2.54408e-18)
(9.94676 1.52637 -1.4451e-18)
(10.6198 1.53134 9.2526e-19)
(11.2454 1.54614 1.36578e-18)
(11.7793 1.57484 -4.23939e-19)
(12.2125 1.59688 4.35704e-19)
(12.5453 1.62123 -8.51544e-19)
(12.8022 1.63802 8.41232e-19)
(12.9949 1.65297 4.17407e-19)
(13.1437 1.66614 8.27406e-19)
(7.72611 1.4477 -6.25637e-19)
(8.59214 1.66229 -5.80162e-19)
(9.40731 1.55334 -1.57525e-18)
(10.1388 1.60712 1.48599e-18)
(10.7878 1.61244 -4.7071e-19)
(11.3802 1.62865 -4.56022e-19)
(11.8831 1.6515 -4.44783e-19)
(12.2893 1.66819 4.51115e-19)
(12.6024 1.68383 -4.29784e-19)
(12.8434 1.69335 -4.23427e-19)
(13.0254 1.70076 -1.26307e-18)
(13.1673 1.70718 -4.66323e-21)
(7.91383 1.49913 1.23989e-18)
(8.80897 1.68484 1.17541e-18)
(9.60761 1.60962 -1.09926e-18)
(10.3124 1.66476 2.07592e-18)
(10.9415 1.67167 -1.98435e-18)
(11.5069 1.68944 9.50183e-19)
(11.9844 1.70866 0)
(12.3682 1.72175 9.05137e-19)
(12.6643 1.73168 -1.76275e-18)
(12.8915 1.73607 8.61717e-19)
(13.0638 1.73805 0)
(13.1986 1.73921 1.25611e-18)
(8.08664 1.53349 -6.74598e-19)
(9.0101 1.69515 6.20891e-19)
(9.79242 1.64856 0)
(10.4749 1.70355 0)
(11.0854 1.71328 5.19066e-19)
(11.6276 1.73265 4.97766e-19)
(12.0831 1.74965 -9.51118e-19)
(12.4477 1.76031 1.38426e-18)
(12.729 1.76637 4.54193e-19)
(12.9442 1.7669 0)
(13.1082 1.76443 4.35633e-19)
(13.2378 1.76132 0)
(8.24121 1.55408 -1.36309e-18)
(9.19338 1.69573 1.25577e-18)
(9.96186 1.67312 5.74791e-19)
(10.6261 1.72706 5.61883e-19)
(11.2201 1.74013 -2.61909e-18)
(11.7421 1.76103 5.09643e-19)
(12.1786 1.77682 0)
(12.5267 1.78598 -4.6576e-19)
(12.7951 1.7895 4.64867e-19)
(13 1.78739 2.75946e-21)
(13.1565 1.78197 -8.70996e-19)
(13.2798 1.77625 8.59082e-19)
(8.37877 1.56384 1.40257e-18)
(9.35928 1.68907 -1.29116e-18)
(10.1164 1.68649 5.9016e-19)
(10.7659 1.73874 -1.69064e-18)
(11.3453 1.75507 2.15639e-18)
(11.85 1.77722 -2.0648e-18)
(12.2701 1.79243 9.94057e-19)
(12.6042 1.80072 0)
(12.8613 1.80265 4.72832e-19)
(13.0573 1.79884 0)
(13.2072 1.79136 9.01334e-19)
(13.3251 1.78318 -4.37035e-19)
(8.50248 1.56511 1.44224e-18)
(9.51043 1.67688 0)
(10.258 1.69108 6.23243e-19)
(10.8952 1.74122 5.88077e-19)
(11.4616 1.76048 5.58651e-19)
(11.9513 1.78351 5.34353e-19)
(12.3573 1.79846 0)
(12.6792 1.80628 0)
(12.9268 1.80724 -1.42735e-18)
(13.1152 1.80233 2.33102e-18)
(13.2592 1.79357 -9.02404e-19)
(13.372 1.78522 -1.3397e-18)
(8.61505 1.55966 1.47161e-18)
(9.64937 1.66033 -2.01474e-18)
(10.3888 1.68852 1.89428e-18)
(11.0154 1.73634 -1.77354e-18)
(11.57 1.7581 -5.56673e-19)
(12.0465 1.78169 -5.33034e-19)
(12.4401 1.79653 1.03609e-18)
(12.7515 1.80409 -1.00413e-18)
(12.9908 1.80451 -1.4631e-18)
(13.1726 1.79896 -4.67501e-19)
(13.3117 1.78907 1.85651e-18)
(13.4196 1.77935 -8.93841e-19)
(8.71821 1.54867 -1.5076e-18)
(9.77777 1.64009 -2.05017e-18)
(10.5103 1.67995 -3.18139e-19)
(11.1275 1.72536 1.21231e-18)
(11.6712 1.7492 8.56874e-19)
(12.1361 1.77307 -2.20021e-18)
(12.5188 1.78789 2.11549e-18)
(12.821 1.79533 -3.85481e-21)
(13.053 1.79554 -1.49097e-18)
(13.2291 1.78986 9.65948e-19)
(13.3634 1.77982 -4.66329e-19)
(13.4667 1.76925 9.05402e-19)
(8.81306 1.53308 -1.14851e-18)
(9.8968 1.61674 -3.53613e-19)
(10.6236 1.66628 3.22597e-19)
(11.2322 1.70924 0)
(11.766 1.73476 2.89666e-19)
(12.2205 1.7587 -2.82767e-19)
(12.5935 1.77352 0)
(12.8875 1.78091 0)
(13.113 1.78106 2.54178e-19)
(13.2838 1.77546 0)
(13.4131 1.76583 0)
(13.5104 1.75538 -9.15812e-19)
(8.90063 1.51364 -3.86924e-19)
(10.0076 1.5907 3.51964e-19)
(10.7295 1.64825 0)
(11.3304 1.68877 0)
(11.855 1.7156 1.1876e-18)
(12.3001 1.73939 -8.60628e-19)
(12.6644 1.75416 1.09232e-18)
(12.9513 1.76146 -1.06071e-18)
(13.1711 1.76142 7.67894e-19)
(13.3375 1.75536 -5.67719e-21)
(13.4632 1.74488 -1.93847e-18)
(13.5579 1.73722 1.17933e-18)
(8.98163 1.49089 -1.59009e-18)
(10.1109 1.56229 0)
(10.8288 1.62642 1.34316e-18)
(11.4226 1.66455 -1.59647e-18)
(11.9387 1.69236 0)
(12.3753 1.71588 2.91878e-19)
(12.7318 1.73057 1.1094e-18)
(13.0123 1.73783 -2.41972e-18)
(13.2272 1.73792 2.08203e-18)
(13.3896 1.73222 -1.01448e-18)
(13.5123 1.72176 9.81277e-19)
(13.6039 1.70852 -1.19474e-18)
(9.05675 1.46533 3.47854e-21)
(10.2074 1.53178 7.35641e-19)
(10.9221 1.60131 0)
(11.5093 1.63711 3.19723e-19)
(12.0175 1.66561 0)
(12.4463 1.68874 8.79709e-19)
(12.7959 1.70335 -7.81651e-21)
(13.0707 1.71058 -8.23977e-19)
(13.2811 1.7108 0)
(13.44 1.70542 -2.5831e-19)
(13.5592 1.69542 2.51265e-19)
(13.648 1.68082 0)
(9.12656 1.43736 4.02397e-19)
(10.2978 1.49943 -1.11952e-18)
(11.0099 1.5733 1.03887e-18)
(11.591 1.60684 -4.57428e-21)
(12.0918 1.63579 3.09114e-19)
(12.5135 1.65844 -2.97826e-19)
(12.8567 1.67292 0)
(13.1264 1.6801 0)
(13.3329 1.68042 1.06752e-18)
(13.4885 1.67525 -7.85963e-19)
(13.6046 1.66577 -5.05985e-19)
(13.6902 1.65218 -2.45546e-19)
(9.19144 1.40724 4.11461e-19)
(10.3827 1.46533 3.72757e-19)
(11.0927 1.54271 -3.47721e-19)
(11.6681 1.57407 6.59472e-19)
(12.162 1.60325 -1.57338e-18)
(12.5771 1.62537 3.0629e-19)
(12.9146 1.63968 0)
(13.1796 1.64684 5.58378e-19)
(13.3825 1.64727 -5.45104e-19)
(13.5353 1.64232 -7.90421e-19)
(13.649 1.63327 2.58661e-19)
(13.7322 1.62089 7.43786e-19)
(9.25185 1.37526 0)
(10.4624 1.42968 0)
(11.1709 1.50983 0)
(11.7409 1.53909 3.37069e-19)
(12.2283 1.56832 0)
(12.6374 1.58985 6.08642e-19)
(12.9695 1.60396 -8.86159e-19)
(13.2303 1.61108 0)
(13.43 1.61171 -5.47658e-19)
(13.5803 1.60709 5.32763e-19)
(13.6918 1.59847 0)
(13.7731 1.58637 0)
(9.30814 1.34164 2.12263e-18)
(10.5372 1.3926 -1.53826e-18)
(11.2448 1.47489 7.18601e-19)
(11.8097 1.50212 -1.01055e-18)
(12.2911 1.53124 1.29027e-18)
(12.6944 1.55213 -9.25325e-19)
(13.0217 1.56603 8.92932e-19)
(13.2787 1.5731 2.83135e-19)
(13.4754 1.57394 -1.11312e-18)
(13.6232 1.56973 8.11232e-19)
(13.7325 1.56173 0)
(13.8119 1.5493 0)
(9.36056 1.30655 -1.71738e-18)
(10.6077 1.35419 0)
(11.3146 1.43811 0)
(11.8747 1.46336 -6.81287e-19)
(12.3504 1.49223 6.54614e-19)
(12.7485 1.51244 -9.32899e-19)
(13.0712 1.52607 5.11619e-21)
(13.3247 1.53306 8.72434e-19)
(13.5187 1.53404 5.60501e-19)
(13.6642 1.53012 -5.48978e-19)
(13.7714 1.52262 -2.67093e-19)
(13.8486 1.50989 0)
(9.40929 1.27018 -1.29993e-18)
(10.674 1.3146 1.18169e-18)
(11.3806 1.39966 0)
(11.9363 1.42296 -6.87793e-19)
(12.4066 1.45146 9.92298e-19)
(12.7997 1.47096 0)
(13.1183 1.48427 0)
(13.3685 1.49114 2.95268e-19)
(13.56 1.49216 5.66483e-19)
(13.7036 1.48834 -5.54975e-19)
(13.8092 1.481 5.37094e-19)
(13.8853 1.47008 0)
(9.4548 1.23256 -4.25463e-21)
(10.7364 1.27375 -1.18801e-18)
(11.4432 1.35965 0)
(11.9946 1.38108 1.0443e-18)
(12.4597 1.40912 -9.98089e-19)
(12.8482 1.42788 3.20487e-19)
(13.163 1.44085 3.08625e-19)
(13.4102 1.44758 -8.85807e-19)
(13.5996 1.44872 5.77499e-19)
(13.7415 1.44518 -2.80493e-19)
(13.8457 1.43824 2.68522e-21)
(13.9207 1.4285 0)
(9.4966 1.19375 -8.79858e-19)
(10.7951 1.23179 8.01703e-19)
(11.5023 1.31827 0)
(12.0497 1.33786 -3.49588e-19)
(12.51 1.36535 0)
(12.8942 1.38336 -3.20094e-19)
(13.2054 1.39598 3.09019e-21)
(13.45 1.40258 3.00992e-19)
(13.6372 1.40382 -2.91652e-19)
(13.7776 1.40051 -2.69225e-21)
(13.8806 1.39377 -2.53352e-21)
(13.9547 1.38524 -1.07128e-18)
(9.53536 1.15424 -4.48046e-19)
(10.8502 1.18914 -8.02083e-19)
(11.5582 1.2757 7.51793e-19)
(12.1019 1.29343 3.55959e-19)
(12.5577 1.32031 0)
(12.9378 1.33755 3.26053e-19)
(13.2456 1.34981 -6.25404e-19)
(13.4877 1.35625 -5.99024e-19)
(13.6731 1.35758 8.80399e-19)
(13.8121 1.35452 -2.58047e-21)
(13.914 1.34802 -2.47323e-21)
(13.9873 1.33994 2.68973e-19)
(9.5716 1.11383 4.42981e-19)
(10.9021 1.14547 -8.14563e-19)
(11.611 1.23195 -3.7944e-19)
(12.1513 1.2479 -3.55318e-19)
(12.6027 1.27411 -3.424e-19)
(12.979 1.29058 3.25781e-19)
(13.2837 1.30245 -1.2645e-18)
(13.5235 1.30872 2.92186e-21)
(13.7072 1.31013 0)
(13.845 1.3073 8.57377e-19)
(13.9461 1.30104 -2.83125e-19)
(14.0189 1.29393 -2.71771e-19)
(9.60491 1.07254 -4.55005e-19)
(10.9508 1.10091 0)
(11.661 1.18715 3.14502e-21)
(12.198 1.20134 3.61143e-19)
(12.6453 1.22684 6.86806e-19)
(13.0179 1.24252 3.25405e-19)
(13.3198 1.254 -1.27453e-18)
(13.5574 1.26012 3.12012e-19)
(13.7396 1.26163 8.98402e-19)
(13.8762 1.25914 0)
(13.9766 1.25325 0)
(14.0489 1.24602 0)
(9.63523 1.03041 1.8257e-18)
(10.9964 1.05549 -8.19881e-19)
(11.7082 1.14139 7.71401e-19)
(12.2421 1.15385 -3.60571e-19)
(12.6855 1.17859 6.97443e-19)
(13.0547 1.19349 9.92291e-19)
(13.3539 1.20455 -9.62456e-19)
(13.5894 1.2105 5.9388e-21)
(13.7702 1.21206 1.20437e-18)
(13.9058 1.20982 -8.79778e-19)
(14.0053 1.20443 2.84975e-19)
(14.0768 1.19802 -5.44889e-19)
(9.66293 0.9878 -4.57804e-19)
(11.0391 1.00955 -4.15274e-19)
(11.7526 1.0948 -3.84076e-19)
(12.2837 1.10548 -7.2577e-19)
(12.7234 1.12945 -3.40791e-19)
(13.0894 1.14355 3.36337e-19)
(13.386 1.15418 3.18467e-19)
(13.6197 1.15993 -9.3553e-19)
(13.7992 1.1615 3.06917e-19)
(13.9338 1.1594 5.88323e-19)
(14.0327 1.15419 -2.85084e-19)
(14.1036 1.14936 -2.79701e-19)
(9.6881 0.944609 -9.20698e-19)
(11.0789 0.962994 1.66953e-18)
(11.7945 1.04745 0)
(12.3229 1.05633 0)
(12.7591 1.0795 0)
(13.122 1.09279 6.73466e-19)
(13.4162 1.10298 6.49833e-19)
(13.6483 1.10853 -3.13292e-19)
(13.8266 1.11013 3.06047e-19)
(13.9604 1.10826 2.05528e-21)
(14.0588 1.10328 -5.73571e-19)
(14.1293 1.09876 5.60823e-19)
(9.71118 0.901077 9.31209e-19)
(11.1164 0.915913 -2.07209e-19)
(11.8339 0.999277 -1.95773e-19)
(12.3598 1.00644 0)
(12.7927 1.02879 0)
(13.1526 1.04127 -3.37689e-19)
(13.4446 1.05102 3.2503e-19)
(13.6751 1.05636 -6.36163e-19)
(13.8524 1.058 3.05088e-19)
(13.9855 1.05635 -8.9727e-19)
(14.0835 1.05164 0)
(14.1536 1.04767 -2.81524e-19)
(9.73163 0.857035 -1.86895e-18)
(11.151 0.868132 6.3674e-19)
(11.8709 0.950297 1.95563e-19)
(12.3945 0.955822 -5.52538e-19)
(12.8242 0.977364 7.1206e-19)
(13.1814 0.989051 0)
(13.4713 0.998359 6.54929e-19)
(13.7003 1.0035 -6.40224e-19)
(13.8766 1.00516 0)
(14.0091 1.00375 0)
(14.1065 0.999413 0)
(14.1763 0.994879 5.60452e-19)
(9.74972 0.812996 0)
(11.183 0.820205 0)
(11.9054 0.900734 -3.92742e-19)
(12.427 0.904589 1.69407e-21)
(12.8537 0.92531 0)
(13.2082 0.936207 -6.82299e-19)
(13.4961 0.94507 1.48982e-18)
(13.7238 0.949984 -4.83415e-19)
(13.8992 0.951632 -6.18861e-19)
(14.0312 0.950362 1.57712e-19)
(14.1282 0.946285 6.05093e-21)
(14.1976 0.942043 5.77325e-19)
(9.76575 0.768562 4.71199e-19)
(11.2126 0.771635 -2.14347e-19)
(11.9376 0.850538 1.98756e-19)
(12.4573 0.852816 -1.86253e-19)
(12.8811 0.872695 8.95877e-19)
(13.2332 0.882795 -1.73414e-19)
(13.5193 0.89121 -4.97127e-19)
(13.7457 0.89591 -3.1908e-19)
(13.9204 0.897565 3.14382e-19)
(14.0519 0.896495 -3.04108e-19)
(14.1487 0.892803 1.48354e-19)
(14.2178 0.888585 -1.41539e-19)
(9.77975 0.723717 7.12135e-19)
(11.2397 0.722564 -6.42932e-19)
(11.9676 0.799811 -1.98614e-19)
(12.4856 0.800501 1.88632e-19)
(12.9067 0.819553 -5.377e-19)
(13.2564 0.828869 5.19855e-19)
(13.5408 0.83684 -3.22596e-21)
(13.766 0.841344 -1.64038e-19)
(13.94 0.843033 -3.12988e-19)
(14.0712 0.842156 4.59969e-19)
(14.1678 0.8388 1.47671e-19)
(14.2369 0.835115 -4.38272e-19)
(9.7912 0.678736 2.39699e-19)
(11.2644 0.673259 0)
(11.9954 0.748649 -2.0052e-19)
(12.5118 0.747713 9.26729e-22)
(12.9304 0.76592 0)
(13.2778 0.774454 1.74363e-19)
(13.5605 0.781994 0)
(13.7847 0.786323 0)
(13.9581 0.788083 0)
(14.0889 0.787516 0)
(14.1853 0.784668 -2.97747e-19)
(14.2546 0.7808 5.80773e-19)
(9.80109 0.633554 -4.80356e-19)
(11.2868 0.623654 0)
(12.0211 0.697071 4.01733e-19)
(12.5361 0.694448 -1.89316e-19)
(12.9522 0.711834 -3.61345e-19)
(13.2975 0.719591 1.76742e-19)
(13.5786 0.726688 -3.36027e-19)
(13.8018 0.730808 3.28848e-19)
(13.9745 0.732579 -3.16178e-19)
(14.1049 0.732229 3.16357e-21)
(14.201 0.729991 1.53794e-19)
(14.2701 0.727315 2.91548e-19)
(9.80876 0.587881 0)
(11.307 0.573487 -2.16953e-19)
(12.0446 0.645022 -2.01237e-19)
(12.5583 0.640715 0)
(12.9722 0.657312 -3.62784e-19)
(13.3154 0.66428 7.01619e-19)
(13.595 0.670925 -3.40739e-19)
(13.8173 0.674805 0)
(13.9894 0.676511 0)
(14.1196 0.676159 -1.55538e-19)
(14.2154 0.673954 -1.50788e-19)
(14.2837 0.673962 0)
(9.81433 0.542238 4.81915e-19)
(11.3248 0.523335 -4.21825e-21)
(12.0661 0.592667 -2.93476e-21)
(12.5787 0.586569 -3.3726e-21)
(12.9904 0.602407 -5.50598e-19)
(13.3316 0.608585 0)
(13.6099 0.614759 0)
(13.8313 0.61839 0)
(14.0031 0.620025 0)
(14.1331 0.619639 1.55616e-19)
(14.2294 0.616885 -1.49794e-19)
(14.2987 0.618746 2.9452e-21)
(9.8181 0.496142 -6.05516e-19)
(11.3405 0.472708 6.56022e-19)
(12.0854 0.539928 4.0442e-19)
(12.5971 0.53202 -3.85408e-19)
(13.0069 0.547168 9.12561e-20)
(13.3463 0.552566 0)
(13.6232 0.558306 3.40035e-19)
(13.8439 0.561733 -3.30997e-21)
(14.0153 0.563464 -3.23548e-19)
(14.1452 0.563594 0)
(14.2415 0.561601 -2.28536e-19)
(14.3105 0.558223 0)
(9.81992 0.449944 2.05213e-21)
(11.3541 0.421969 4.39755e-19)
(12.1028 0.486874 1.02053e-19)
(12.6137 0.477144 2.86862e-19)
(13.0216 0.49166 -2.77873e-19)
(13.3592 0.496263 0)
(13.635 0.501556 3.41224e-19)
(13.8549 0.504748 -3.3261e-21)
(14.026 0.506408 -2.43862e-19)
(14.1557 0.506588 0)
(14.2518 0.504976 1.53052e-19)
(14.3212 0.50511 0)
(9.82043 0.403771 1.21349e-21)
(11.3655 0.370952 3.30428e-19)
(12.118 0.433353 -1.02041e-19)
(12.6283 0.422021 1.92969e-19)
(13.0346 0.435935 0)
(13.3705 0.439698 0)
(13.6451 0.444542 -8.61239e-20)
(13.8644 0.44749 -8.35375e-20)
(14.0352 0.449105 -8.09398e-20)
(14.165 0.449415 -7.89904e-20)
(14.2613 0.448036 -1.52585e-19)
(14.331 0.448524 1.48926e-19)
(9.81904 0.357345 -1.22545e-19)
(11.3747 0.319415 -1.0986e-19)
(12.1314 0.37938 2.04017e-19)
(12.6412 0.366664 -4.83681e-19)
(13.0459 0.379994 1.85921e-19)
(13.3803 0.382899 0)
(13.6538 0.387294 8.6138e-20)
(13.8725 0.389998 8.35606e-20)
(14.0431 0.391589 -1.61813e-19)
(14.1729 0.39202 2.38146e-19)
(14.2694 0.390788 1.53542e-19)
(14.3392 0.391355 -1.51197e-19)
(9.81595 0.311185 0)
(11.3816 0.268019 0)
(12.1427 0.325069 1.02875e-19)
(12.6523 0.311048 0)
(13.0556 0.32391 -9.29046e-20)
(13.3884 0.325886 8.94966e-20)
(13.6609 0.329836 1.72133e-19)
(13.8791 0.332301 -2.52673e-19)
(14.0495 0.33387 0)
(14.1794 0.334486 -7.94848e-20)
(14.276 0.333632 7.66164e-20)
(14.3461 0.333472 -2.25093e-19)
(9.81128 0.264829 6.17475e-20)
(11.3864 0.216233 2.2048e-19)
(12.1518 0.270471 -3.09411e-19)
(12.6617 0.25533 0)
(13.0637 0.267642 4.63502e-20)
(13.395 0.268641 8.88532e-20)
(13.6666 0.27218 -3.46819e-19)
(13.8843 0.274402 4.20566e-19)
(14.0546 0.275923 -1.64423e-19)
(14.1846 0.27662 1.19382e-19)
(14.2814 0.27598 0)
(14.3518 0.275644 7.57758e-20)
(9.8048 0.218587 -6.17677e-20)
(11.3894 0.164385 0)
(12.1589 0.215799 -5.10667e-20)
(12.6694 0.199684 9.78663e-20)
(13.0702 0.211179 1.39316e-19)
(13.4 0.211125 -9.02232e-20)
(13.6707 0.214351 -4.34833e-20)
(13.888 0.216352 4.22013e-20)
(14.0582 0.217861 8.15732e-20)
(14.1883 0.218778 -1.20123e-19)
(14.2854 0.218777 -3.89124e-20)
(14.3564 0.21748 -3.75889e-20)
(9.79672 0.172411 -9.22932e-20)
(11.3905 0.112334 1.3928e-19)
(12.1641 0.161141 -7.74936e-20)
(12.6753 0.14405 1.21568e-19)
(13.0747 0.154361 -2.10046e-19)
(13.4035 0.153426 1.79924e-19)
(13.6734 0.156433 -6.57736e-20)
(13.8903 0.158151 4.18647e-20)
(14.0604 0.15959 -1.64357e-19)
(14.1907 0.160513 6.04151e-20)
(14.2881 0.160703 3.89418e-20)
(14.3591 0.159562 3.81144e-20)
(9.78715 0.126573 -9.27786e-20)
(11.3897 0.0600912 2.80829e-20)
(12.1675 0.10647 2.58591e-20)
(12.6795 0.0882619 -2.44059e-20)
(13.0776 0.0972834 -2.3165e-20)
(13.4055 0.0958376 4.52493e-20)
(13.6746 0.0983679 2.17827e-20)
(13.8911 0.0998206 0)
(14.0613 0.101236 0)
(14.1918 0.102311 2.00246e-20)
(14.2895 0.103039 0)
(14.3611 0.102121 0)
(9.77612 0.0808013 -1.55439e-20)
(11.3871 0.00762653 1.38729e-20)
(12.1692 0.051763 7.13627e-22)
(12.6818 0.0323948 -1.26644e-20)
(13.079 0.0400616 0)
(13.4059 0.0381839 0)
(13.6743 0.0401988 1.15371e-20)
(13.8905 0.0413871 -2.11788e-20)
(14.0607 0.0427626 1.0353e-20)
(14.1915 0.0438893 6.27149e-22)
(14.2896 0.0447773 0)
(14.3614 0.0444043 0)
(9.76327 0.0352129 4.67037e-20)
(11.3825 -0.0449247 2.77754e-20)
(12.1691 -0.00309263 -1.3851e-20)
(12.6824 -0.0235134 3.82255e-22)
(13.0789 -0.0171804 -1.17066e-20)
(13.4048 -0.0195594 1.12796e-20)
(13.6725 -0.0180641 -1.16027e-20)
(13.8885 -0.0171097 -3.16893e-20)
(14.0588 -0.0157731 -1.00995e-20)
(14.1898 -0.0144888 9.51295e-21)
(14.2882 -0.0131006 -9.78245e-21)
(14.3607 -0.0129002 0)
(9.74889 -0.0100964 4.64552e-20)
(11.3761 -0.0972569 -8.37609e-20)
(12.1673 -0.057916 1.31313e-20)
(12.6813 -0.0794875 -2.42784e-20)
(13.0773 -0.0744401 3.55524e-20)
(13.4022 -0.0773439 3.40624e-20)
(13.6693 -0.0763826 1.09191e-20)
(13.8851 -0.0756878 1.06007e-20)
(14.0554 -0.074455 1.03117e-20)
(14.1867 -0.0732238 3.01311e-20)
(14.2854 -0.0718962 -9.79039e-21)
(14.3575 -0.0708037 5.72835e-20)
(9.73311 -0.0553375 -6.17949e-20)
(11.3676 -0.149569 -8.28417e-20)
(12.1636 -0.112724 1.30186e-19)
(12.6785 -0.135502 -2.44993e-20)
(13.074 -0.131696 -1.16698e-19)
(13.398 -0.135152 1.80545e-19)
(13.6646 -0.134711 -4.41223e-20)
(13.8803 -0.134285 0)
(14.0509 -0.133175 4.12752e-20)
(14.1826 -0.131987 -2.00928e-20)
(14.282 -0.130932 1.95773e-20)
(14.3552 -0.128464 -1.91334e-20)
(9.71556 -0.100418 -1.25504e-19)
(11.3575 -0.201754 -5.53093e-22)
(12.1582 -0.167502 0)
(12.6742 -0.191527 -9.76309e-20)
(13.0692 -0.188895 9.41403e-20)
(13.3925 -0.192915 0)
(13.6585 -0.192981 -2.77846e-24)
(13.8741 -0.192781 0)
(14.0449 -0.191693 -4.12775e-20)
(14.1772 -0.19024 0)
(14.2773 -0.188833 0)
(14.3518 -0.186018 -7.50531e-20)
(9.69648 -0.145067 6.24943e-20)
(11.3456 -0.253578 5.52303e-20)
(12.151 -0.222189 -4.15628e-19)
(12.6681 -0.247513 3.92311e-19)
(13.0628 -0.246035 -1.88264e-19)
(13.3854 -0.250628 0)
(13.651 -0.251177 -4.37016e-20)
(13.8666 -0.251206 0)
(14.0376 -0.250178 0)
(14.1703 -0.248612 0)
(14.2709 -0.247066 0)
(14.3457 -0.244411 -1.50773e-19)
(9.67607 -0.189466 1.24976e-19)
(11.3318 -0.305253 2.23496e-19)
(12.142 -0.276824 0)
(12.6604 -0.303437 2.9331e-19)
(13.0549 -0.303086 -9.4546e-20)
(13.3769 -0.308275 0)
(13.6421 -0.309306 -8.65318e-20)
(13.8576 -0.309585 8.65045e-20)
(14.0289 -0.308649 1.65895e-19)
(14.162 -0.30698 2.40273e-19)
(14.2631 -0.305051 -1.57459e-19)
(14.3384 -0.302835 7.54043e-20)
(9.65433 -0.233589 -5.00175e-19)
(11.3162 -0.356713 -1.11793e-19)
(12.1313 -0.331361 1.03936e-19)
(12.651 -0.359279 -8.30793e-23)
(13.0455 -0.360029 -9.36985e-20)
(13.3668 -0.365833 9.01514e-20)
(13.6317 -0.367354 8.64152e-20)
(13.8472 -0.367898 -2.55215e-19)
(14.0188 -0.367086 0)
(14.1524 -0.365451 -2.40181e-19)
(14.2541 -0.363444 3.13087e-19)
(14.3297 -0.361259 -3.06059e-19)
(9.63085 -0.277749 2.50095e-19)
(11.2989 -0.408207 2.22804e-19)
(12.1188 -0.385759 -2.08641e-19)
(12.6401 -0.41501 -9.80451e-20)
(13.0345 -0.416853 1.8634e-19)
(13.3554 -0.423272 -9.18844e-20)
(13.6199 -0.425267 -8.81454e-20)
(13.8354 -0.426067 8.46612e-20)
(14.0074 -0.42536 0)
(14.1416 -0.423643 0)
(14.2439 -0.421251 0)
(14.3202 -0.418858 7.76267e-22)
(9.60587 -0.321284 -2.50031e-19)
(11.2796 -0.459134 0)
(12.1045 -0.439969 -1.43324e-22)
(12.6274 -0.470599 0)
(13.022 -0.473521 9.34576e-20)
(13.3424 -0.480546 -3.58467e-19)
(13.6067 -0.483012 2.63113e-19)
(13.8223 -0.48407 -8.46852e-20)
(13.9947 -0.483479 0)
(14.1296 -0.481849 -3.19148e-19)
(14.2328 -0.479799 3.14254e-19)
(14.3098 -0.477549 -7.67038e-20)
(9.57953 -0.364851 -3.74851e-19)
(11.2586 -0.510064 2.23026e-19)
(12.0884 -0.493974 -3.11383e-19)
(12.613 -0.526001 1.95528e-19)
(13.0078 -0.530007 -2.80177e-19)
(13.328 -0.537652 0)
(13.5921 -0.540555 0)
(13.8078 -0.541823 3.36417e-19)
(13.9806 -0.541217 -4.94999e-19)
(14.1161 -0.539201 -1.58728e-19)
(14.2203 -0.53623 1.5793e-19)
(14.2997 -0.5346 0)
(9.55141 -0.408016 0)
(11.2359 -0.560599 -1.30479e-21)
(12.0707 -0.54774 -2.08546e-19)
(12.5971 -0.581214 -1.65781e-21)
(12.9922 -0.586283 -1.88095e-19)
(13.312 -0.594546 5.37004e-19)
(13.576 -0.597902 -3.49402e-19)
(13.7918 -0.59941 1.67282e-19)
(13.965 -0.598895 -1.65781e-19)
(14.1011 -0.59687 1.58184e-19)
(14.2057 -0.593639 -1.57386e-19)
(14.2855 -0.590154 2.99424e-19)
(9.52211 -0.450808 7.48464e-19)
(11.2115 -0.610764 2.23017e-19)
(12.0512 -0.60125 0)
(12.5796 -0.636213 3.90507e-19)
(12.975 -0.642368 3.71009e-19)
(13.2946 -0.651266 -1.82954e-19)
(13.5584 -0.655092 -3.4884e-19)
(13.7744 -0.656871 3.6676e-22)
(13.948 -0.656491 0)
(14.0846 -0.654542 0)
(14.19 -0.651233 0)
(14.2699 -0.647017 0)
(9.49151 -0.493374 -7.48291e-19)
(11.1853 -0.660747 -2.22244e-19)
(12.0299 -0.654592 0)
(12.5603 -0.691013 -1.95221e-19)
(12.9563 -0.698249 -1.85822e-19)
(13.2758 -0.707794 -1.77549e-19)
(13.5395 -0.712093 3.39043e-21)
(13.7556 -0.714166 8.41214e-19)
(13.9297 -0.71394 -3.29022e-19)
(14.0671 -0.712079 0)
(14.1733 -0.709056 3.09009e-19)
(14.2538 -0.70506 -3.04362e-19)
(9.45913 -0.535726 -2.49415e-19)
(11.1573 -0.710484 1.30739e-21)
(12.0068 -0.707651 2.08192e-19)
(12.5395 -0.745581 0)
(12.936 -0.753882 1.7058e-21)
(13.2554 -0.76407 3.58577e-19)
(13.5191 -0.768842 -3.44093e-19)
(13.7355 -0.771192 5.05017e-19)
(13.9101 -0.771072 0)
(14.0483 -0.769106 0)
(14.1554 -0.765703 0)
(14.2371 -0.761912 4.47329e-19)
(9.42517 -0.577601 -9.94704e-19)
(11.1274 -0.759714 -6.64514e-19)
(11.982 -0.760335 6.20447e-19)
(12.5169 -0.799839 0)
(12.9142 -0.809232 -3.70701e-19)
(13.2336 -0.820069 -1.78547e-19)
(13.4974 -0.825304 0)
(13.714 -0.827936 3.32777e-19)
(13.8893 -0.827968 -3.27575e-19)
(14.0282 -0.826086 0)
(14.1362 -0.822835 0)
(14.2185 -0.818412 -1.51002e-19)
(9.38981 -0.619153 9.90753e-19)
(11.096 -0.808594 -2.23885e-19)
(11.9554 -0.812683 -2.04403e-19)
(12.4927 -0.853772 1.96002e-19)
(12.8908 -0.864262 1.85245e-19)
(13.2104 -0.875746 -5.31601e-19)
(13.4742 -0.881444 3.45835e-19)
(13.6912 -0.88435 -3.34062e-19)
(13.867 -0.884496 -3.23396e-19)
(14.0068 -0.882517 3.18287e-19)
(14.1158 -0.878978 0)
(14.1995 -0.874464 -1.486e-19)
(9.35297 -0.660207 4.92431e-19)
(11.0628 -0.856962 -6.65421e-19)
(11.9271 -0.864654 -2.05803e-19)
(12.4669 -0.907367 1.15761e-18)
(12.8659 -0.918959 -7.41216e-19)
(13.1857 -0.931092 1.77715e-19)
(13.4496 -0.937251 6.83069e-19)
(13.667 -0.940433 -5.02778e-19)
(13.8434 -0.940702 1.61799e-19)
(13.984 -0.938742 0)
(14.094 -0.935256 0)
(14.1786 -0.930935 1.49798e-19)
(9.31512 -0.700847 -9.22416e-22)
(11.0277 -0.904864 0)
(11.897 -0.916285 6.1163e-19)
(12.4394 -0.960622 -9.69023e-19)
(12.8394 -0.973296 -7.32694e-19)
(13.1594 -0.9861 7.10985e-19)
(13.4235 -0.992704 5.10281e-19)
(13.6413 -0.996135 -8.33561e-19)
(13.8184 -0.996533 -1.61883e-19)
(13.9599 -0.994451 -7.83371e-19)
(14.0708 -0.990476 4.6374e-19)
(14.1569 -0.986734 0)
(9.27521 -0.741389 -2.47252e-19)
(10.9909 -0.952697 0)
(11.8652 -0.967573 1.01904e-18)
(12.4102 -1.01352 -1.54011e-18)
(12.8114 -1.0273 3.70923e-19)
(13.1317 -1.04074 -3.52048e-19)
(13.3961 -1.0478 1.70909e-19)
(13.6143 -1.05151 4.94344e-19)
(13.7921 -1.05207 -6.4754e-19)
(13.9344 -1.05011 1.57182e-19)
(14.0463 -1.04619 4.56282e-19)
(14.133 -1.04325 -5.97619e-19)
(9.2336 -0.781049 4.91152e-19)
(10.9523 -0.999636 4.37774e-19)
(11.8315 -1.0183 8.12049e-19)
(12.3794 -1.06595 -1.53604e-18)
(12.7817 -1.08087 1.10163e-18)
(13.1025 -1.09498 -3.47521e-19)
(13.3672 -1.10251 3.44028e-19)
(13.5858 -1.1065 3.30655e-19)
(13.7643 -1.10717 0)
(13.9076 -1.10515 0)
(14.0206 -1.10064 -3.00996e-19)
(14.1087 -1.09786 6.31118e-21)
(9.19106 -0.820293 -2.26778e-21)
(10.912 -1.04607 -2.00904e-21)
(11.7961 -1.06857 0)
(12.3468 -1.11797 -3.8031e-19)
(12.7505 -1.13405 1.09618e-18)
(13.0718 -1.14881 -3.49596e-19)
(13.3368 -1.15681 -6.72567e-19)
(13.556 -1.1611 3.32828e-19)
(13.7352 -1.1619 3.17224e-19)
(13.8793 -1.16 -9.36968e-19)
(13.9934 -1.15544 0)
(14.082 -1.1535 -2.95304e-19)
(9.14703 -0.859117 -2.3889e-21)
(10.8699 -1.09203 4.32288e-19)
(11.7589 -1.11844 -4.087e-19)
(12.3126 -1.16953 -1.14204e-18)
(12.7177 -1.18679 -3.57695e-19)
(13.0396 -1.20225 1.39953e-18)
(13.305 -1.21069 1.64938e-21)
(13.5247 -1.21526 1.59988e-21)
(13.7046 -1.21618 3.19276e-19)
(13.8498 -1.21424 3.1103e-19)
(13.9649 -1.20912 0)
(14.0554 -1.20593 8.74294e-19)
(9.10154 -0.89758 -4.89084e-19)
(10.8264 -1.13759 -4.33361e-19)
(11.7199 -1.16777 -4.04905e-19)
(12.2767 -1.22063 -3.77839e-19)
(12.6833 -1.23907 7.27162e-19)
(13.0059 -1.25525 -1.04075e-18)
(13.2717 -1.26416 3.43464e-19)
(13.492 -1.26903 6.57093e-19)
(13.6727 -1.27012 0)
(13.8188 -1.26837 3.06523e-19)
(13.9349 -1.26352 -1.20383e-18)
(14.0255 -1.26053 5.91453e-19)
(9.0542 -0.935468 4.83469e-19)
(10.7805 -1.18263 -4.35833e-19)
(11.6792 -1.21669 -1.2022e-18)
(12.2392 -1.27129 3.46323e-21)
(12.6474 -1.29088 0)
(12.9707 -1.30775 -3.45356e-19)
(13.2371 -1.31716 -3.33726e-19)
(13.4579 -1.32236 3.25548e-19)
(13.6395 -1.32364 0)
(13.7866 -1.32199 3.08388e-19)
(13.904 -1.3173 5.9639e-19)
(13.9962 -1.3139 -6.4034e-21)
(9.00512 -0.972549 4.85983e-19)
(10.7331 -1.22673 0)
(11.6364 -1.26483 8.00484e-19)
(12.1998 -1.32131 -3.79609e-19)
(12.6098 -1.34215 -3.58115e-19)
(12.9339 -1.35973 1.03223e-18)
(13.2009 -1.36963 -9.9846e-19)
(13.4225 -1.37514 9.7185e-19)
(13.6049 -1.37659 0)
(13.7531 -1.3749 -3.03834e-19)
(13.8718 -1.36997 8.97012e-19)
(13.9655 -1.36628 2.8869e-19)
(8.95518 -1.00905 -9.65069e-19)
(10.6842 -1.27019 4.28202e-19)
(11.5921 -1.31241 -3.56447e-21)
(12.1587 -1.37081 -7.54254e-19)
(12.5706 -1.39291 7.14882e-19)
(12.8957 -1.41118 0)
(13.1633 -1.42159 -3.30472e-19)
(13.3856 -1.42742 -3.22481e-19)
(13.569 -1.42907 0)
(13.7183 -1.42751 3.00434e-19)
(13.8382 -1.42282 -8.94057e-19)
(13.9331 -1.41929 -2.90036e-19)
(8.90397 -1.04516 0)
(10.6332 -1.31322 2.70839e-21)
(11.5459 -1.35951 1.18989e-18)
(12.116 -1.41976 -6.59794e-21)
(12.5298 -1.44312 -1.7801e-18)
(12.856 -1.4621 1.36593e-18)
(13.1243 -1.47298 -1.31734e-18)
(13.3473 -1.47912 6.42995e-19)
(13.5317 -1.48092 0)
(13.6821 -1.47932 0)
(13.8033 -1.47424 -2.93203e-19)
(13.9004 -1.4705 5.72136e-19)
(8.85082 -1.08067 0)
(10.5805 -1.35558 2.84743e-21)
(11.4979 -1.40598 -1.18143e-18)
(12.0715 -1.46811 7.47627e-19)
(12.4874 -1.4927 0)
(12.8146 -1.51245 6.76339e-19)
(13.0838 -1.52382 -3.30171e-19)
(13.3076 -1.53027 0)
(13.4929 -1.5323 -6.15601e-19)
(13.6444 -1.5309 6.0563e-19)
(13.767 -1.5262 -2.94523e-19)
(13.865 -1.52285 0)
(8.796 -1.11558 9.53002e-19)
(10.5262 -1.39733 4.2518e-19)
(11.4481 -1.45172 7.87012e-19)
(12.0252 -1.51581 0)
(12.4433 -1.54169 7.01219e-19)
(12.7717 -1.56219 -3.4318e-19)
(13.0417 -1.57406 -6.55766e-19)
(13.2664 -1.58084 0)
(13.4528 -1.58304 3.06474e-19)
(13.6056 -1.58161 0)
(13.7296 -1.57657 0)
(13.8297 -1.57271 0)
(8.73953 -1.14964 4.71883e-19)
(10.4697 -1.43825 -8.47199e-19)
(11.3962 -1.49678 -3.92938e-19)
(11.9772 -1.56285 0)
(12.3975 -1.59003 6.97497e-19)
(12.7273 -1.6113 -3.38009e-19)
(12.9982 -1.62367 -6.45527e-19)
(13.2238 -1.63077 9.45443e-19)
(13.4112 -1.63317 -9.15094e-19)
(13.5653 -1.6319 8.95043e-19)
(13.6907 -1.62722 -8.66169e-19)
(13.7918 -1.62388 6.33352e-21)
(8.6817 -1.18287 1.88317e-18)
(10.4115 -1.47816 -4.24767e-19)
(11.3426 -1.54105 0)
(11.9273 -1.60915 1.09417e-18)
(12.3501 -1.63771 -6.27058e-21)
(12.6813 -1.65974 -6.71374e-19)
(12.9532 -1.67261 -3.21128e-19)
(13.1798 -1.68005 -2.39005e-21)
(13.3682 -1.68257 6.04482e-19)
(13.5236 -1.68123 -5.96894e-19)
(13.6506 -1.67605 1.14964e-18)
(13.7542 -1.67254 -1.11419e-18)
(8.6226 -1.21556 -9.38487e-19)
(10.3517 -1.51738 -4.18748e-19)
(11.287 -1.58459 -3.85551e-19)
(11.8757 -1.65473 -2.90815e-21)
(12.301 -1.68468 -3.44959e-19)
(12.6337 -1.70749 -6.61013e-19)
(12.9067 -1.72091 6.46304e-19)
(13.1342 -1.72871 -2.48005e-21)
(13.3238 -1.73145 0)
(13.4803 -1.73027 -8.79537e-19)
(13.6085 -1.72506 5.73243e-19)
(13.7129 -1.72081 0)
(8.56191 -1.24756 4.72721e-19)
(10.29 -1.5559 8.32996e-19)
(11.2297 -1.62737 1.15269e-18)
(11.8222 -1.69957 -1.0908e-18)
(12.2502 -1.73094 -3.39634e-19)
(12.5844 -1.75457 9.91267e-19)
(12.8586 -1.76857 3.19492e-19)
(13.0872 -1.77674 -3.09646e-19)
(13.2779 -1.7798 -1.19272e-18)
(13.4358 -1.77897 1.17291e-18)
(13.5654 -1.77432 -2.85333e-19)
(13.6708 -1.77011 -1.10782e-18)
(8.4995 -1.27882 -9.23914e-19)
(10.2264 -1.59362 1.64962e-18)
(11.1705 -1.66939 -3.86459e-19)
(11.767 -1.74366 3.58016e-19)
(12.1977 -1.77646 3.40398e-19)
(12.5337 -1.80091 -2.84143e-21)
(12.8091 -1.81548 9.43402e-19)
(13.0388 -1.82401 -1.23092e-18)
(13.2308 -1.82732 0)
(13.3902 -1.82662 2.88372e-19)
(13.5217 -1.82223 0)
(13.6294 -1.81835 2.74551e-19)
(8.43539 -1.30922 -1.83653e-18)
(10.1609 -1.63041 1.64515e-18)
(11.1092 -1.71053 -3.81613e-19)