/*--------------------------------*- C++ -*----------------------------------*\
| =========                 |                                                 |
| \\      /  F ield         | OpenFOAM: The Open Source CFD Toolbox           |
|  \\    /   O peration     | Version:  2.3.1                                 |
|   \\  /    A nd           | Web:      www.OpenFOAM.org                      |
|    \\/     M anipulation  |                                                 |
\*---------------------------------------------------------------------------*/
FoamFile
{
    version     2.0;
    format      ascii;
    class       volSymmTensorField;
    location    "540";
    object      sigma;
}
// * * * * * * * * * * * * * * * * * * * * * * * * * * * * * * * * * * * * * //

dimensions      [1 -1 -2 0 0 0 0];

internalField   nonuniform List<symmTensor> 
11800
(
(37789.9 45668 1.85562e-14 -1785.62 9.91089e-15 8933.4)
(-23725.4 48393.9 2.849e-14 -4581.64 9.13206e-15 -7023.56)
(134459 42893.9 -3.34449e-16 247.086 -2.20058e-14 33423.4)
(-125091 35272.6 0 4842.66 0 -29836.1)
(-23735.1 46242.9 5.31877e-15 -8862.55 -1.51529e-14 -8088.13)
(-80768.5 48093.9 2.13101e-14 3627.17 1.12623e-14 -19140.3)
(-14629.4 49137.6 3.90828e-14 -931.382 -1.02365e-14 -3860.95)
(-19065.9 45501.2 -5.8774e-15 1810.08 2.38762e-14 -4281.51)
(47643.1 46955.2 9.20926e-15 347.257 -6.40994e-15 11907.4)
(26322.5 46670.8 -2.10858e-14 2557.07 -1.78986e-14 7165.6)
(44283.6 42920.8 -1.54814e-14 -1532.91 1.33596e-14 10607.3)
(-180805 30114.5 -1.94377e-14 -1761.51 -8.90733e-15 -45298.5)
(8387.31 -12210.7 4.54717e-17 -22564.6 3.52729e-17 -3517.68)
(125787 34611.5 1.78273e-14 1534.36 -4.95353e-15 31591.1)
(-106978 44601.5 -1.44254e-14 7061.84 1.13182e-14 -24791.3)
(644151 11208.1 0 201.199 0 159877)
(-9961.83 45176.8 1.32236e-14 -314.556 1.1791e-15 -2549.78)
(-14277.1 40038.2 -7.53341e-15 734.179 4.37305e-14 -3360.27)
(29645.3 65170.9 -9.03469e-15 -6511.46 6.53318e-15 5739.98)
(19315.2 37879.8 -2.80834e-14 303.499 -9.13409e-15 4867.8)
(-101201 38397.3 8.58345e-15 3536.27 9.0506e-15 -24232.5)
(-156993 42090.7 1.38335e-14 421.617 -8.09913e-15 -38848.5)
(-307553 67310.1 -8.52402e-15 3932.49 5.66925e-15 -75334.5)
(-282763 51699.1 9.44703e-17 -135.836 1.53867e-15 -70192.8)
(510531 42392.6 7.45385e-16 -2346.23 1.2e-14 126091)
(-350881 64011.6 -8.26814e-15 1450.12 -2.84315e-16 -86700.9)
(-273867 32997.1 0 1713.72 0 -67526.6)
(133933 29686.2 -2.2118e-14 -5484.04 -1.34502e-14 31870.8)
(-315032 35140.5 -4.57576e-15 2932.59 -2.07974e-14 -77438.2)
(-362152 37124.1 5.73137e-15 1240.72 -9.19004e-15 -89549.4)
(98636.9 34143.4 -2.72535e-14 -624.424 -4.9229e-14 24318.9)
(17766.2 56233.6 -5.59425e-15 968.697 -4.85428e-15 4648.51)
(335856 59475.2 -1.25011e-15 3604.25 -5.9655e-15 84227)
(-12035.6 53742.2 3.57645e-15 855.058 -2.69387e-14 -2774.13)
(6170.29 53768.8 -9.41648e-15 5540.62 -4.08266e-14 2905.72)
(-100715 29600.4 -2.47429e-14 7476.4 -1.80728e-14 -23134.5)
(5345.59 52915.5 3.34771e-14 3594.33 -4.01946e-14 2218.17)
(360541 47774.7 -4.57532e-15 1615.01 -2.14e-14 89858.4)
(-11836 48078.5 0 -5399.74 0 -4276.55)
(18223 42666.2 -1.21232e-14 1056.21 2.27184e-14 4783.57)
(-288124 30958.5 -2.26491e-14 -886.339 -1.06483e-14 -71709.3)
(-331004 32686 1.64133e-14 -649.734 -9.51028e-15 -82290)
(139427 35010.4 -8.45433e-15 -5108.89 -2.86238e-14 33327.1)
(-380855 35310.7 -3.51255e-15 -4819.35 -1.75065e-14 -95693.7)
(102942 38038.7 7.24915e-14 2854.53 -2.2813e-14 26250.3)
(597188 29835 0 -3019.79 0 147425)
(277270 69095 -5.41801e-15 -2019.51 2.93777e-15 68295.2)
(334722 45045.4 -9.41242e-15 -3384.12 -6.76329e-15 82211.7)
(-23418.1 48252.2 -2.87602e-14 -3340.29 -1.78788e-14 -6639.31)
(50277.4 42909.4 0 1152.23 0 12760.7)
(-183097 25473.1 -1.31901e-15 2352.39 1.50294e-14 -44846.4)
(-134354 27697.2 4.84028e-14 6200.42 5.7197e-15 -31797.4)
(-2988.09 53058.5 2.6964e-14 -2095.74 1.69596e-14 -1261.4)
(7111.91 79257.1 -7.82277e-16 2818.54 6.89112e-15 2463.95)
(-686459 7450.17 -1.32264e-15 -3713.94 -1.76429e-15 -171246)
(647796 -3902.78 1.53311e-15 -30276.9 3.08841e-15 153219)
(-21630.6 26195.8 2.33267e-14 1562.53 8.71244e-15 -4979.31)
(-120210 46711.8 1.77108e-15 -536.916 -1.54369e-14 -29959.8)
(91814.2 39325.4 -1.51865e-14 2132.45 2.23275e-14 23310.1)
(-90275.7 44911.7 1.28324e-14 -3690.2 -2.31809e-15 -23314.8)
(640647 31172.8 -1.38474e-14 -4636.75 -4.82541e-15 157807)
(-12246.1 54254.9 1.14054e-14 67.115 -1.87484e-14 -3021.86)
(-96352.7 42762 -6.97161e-15 -2121.6 1.21529e-14 -24433.5)
(71223.4 43391.8 2.06543e-14 -1040.27 -1.18725e-14 17413.9)
(508777 24924.2 1.6057e-15 1931.73 -8.68895e-15 126717)
(-70064.5 33230.3 -3.27346e-14 2901.35 -3.98509e-14 -16664.5)
(-191165 20081.8 2.3407e-14 -232.487 7.88052e-15 -47489.5)
(-141916 21871 5.51462e-16 4161.07 -4.08017e-14 -34179.9)
(-21592.2 28193.5 0 -1401.36 0 -5705.17)
(-327545 48145.3 -4.62532e-16 2212.93 2.21653e-14 -80721.4)
(-11629 55528.7 -6.55215e-15 853.255 1.36488e-14 -2673.68)
(-16318.6 47351.4 -2.52541e-14 -3022.17 2.85022e-14 -4798.84)
(-15160.6 45436.4 1.77142e-14 -5700.66 -1.09267e-14 -5176.09)
(-569034 157798 -2.05178e-15 90928.5 2.04065e-15 -118628)
(630445 45075.2 -3.71211e-16 -3441.19 -5.75463e-15 155572)
(-95521.4 35433 -2.4298e-14 9114.99 -1.77737e-14 -21439.2)
(510799 21879.3 -1.08806e-14 2081.53 9.6868e-15 127256)
(-69383.5 27469 2.15517e-14 1761.21 -7.11495e-14 -16778.5)
(-52098.4 40398.4 4.04154e-15 6250.29 -3.89249e-15 -11375.9)
(-53110 44393.1 4.12e-14 4564.26 4.16915e-14 -12045.2)
(-700109 -4392.22 4.52066e-15 559.695 1.90604e-14 -173572)
(21223.4 39023.8 0 3048.64 0 6022.38)
(17249.2 45902.3 -4.29039e-14 -814.847 -1.70572e-14 4077.69)
(11345.4 48718.5 1.48706e-14 3736.93 -1.2372e-16 3742.22)
(-19158.1 41269.6 1.06122e-14 -1979.43 3.02529e-14 -5244.66)
(-346738 45412.7 -6.04104e-15 -2976.19 3.32543e-14 -86771.2)
(99765 38352.4 3.46788e-14 694.869 -1.08815e-14 24926.1)
(-301472 39184.8 0 -512.646 0 -74928.5)
(-264731 37730.5 -1.31624e-14 -679.105 -1.34707e-14 -65853.7)
(135880 34993.3 1.60059e-14 1529.01 9.63507e-16 34094)
(-4354.09 50405.9 -5.58454e-14 -1331.53 -3.61417e-14 -1410.72)
(400094 56473.4 0 -1280.05 0 98953.8)
(-30886.8 47242.3 -1.1846e-14 1685.52 -1.98154e-14 -7245.43)
(29161.4 25607.7 -6.87925e-15 2419.45 -1.00328e-14 7835.86)
(36059.2 38462.4 5.37937e-14 -1513.21 9.57392e-16 8571.57)
(19423.3 -14668.9 -2.89675e-16 -41155.6 -2.14337e-16 -5392.24)
(-1025.41 3973.61 7.46971e-18 2378.36 -4.42674e-17 335.693)
(-19383.5 -14401.6 -1.81137e-16 40513.2 1.20343e-16 5242.72)
(-4230.5 51966.3 -1.73669e-14 -2435.31 -2.59528e-16 -1653.92)
(-155946 33681.6 -4.34538e-15 -1111.85 1.78964e-14 -38969.3)
(18882.2 35929.7 9.56376e-15 -599.676 -2.70067e-14 4536.28)
(163976 36576.9 -2.11924e-14 -2611.42 -2.97801e-14 40037.8)
(-376432 58692.7 1.73849e-15 2015.17 3.51719e-15 -92900.4)
(-133566 56451.6 -1.04861e-15 2408.29 3.41669e-15 -32543)
(3119.81 54317.7 -2.68755e-15 31.1446 -1.34715e-14 781.816)
(84322.4 60176 -6.49825e-15 1442.99 -1.15229e-14 21280.1)
(-32950.9 40712.5 -1.66431e-14 1931.2 3.70616e-14 -7696.62)
(-24226.4 45153.6 -5.58358e-14 -617.823 -2.71519e-14 -6164.35)
(604277 26557.4 3.82472e-15 1082.47 8.55785e-15 150202)
(288859 38361.4 5.68024e-15 -27.5954 1.13976e-15 71665)
(334698 41045.3 1.09461e-14 680.23 1.57332e-14 83214.1)
(254706 35198.6 3.8665e-14 1708.68 2.3093e-14 63621.6)
(-103670 38358.1 1.62929e-14 -4555.43 2.56001e-14 -26852.9)
(-141478 34602.2 -4.32624e-14 -2689.25 1.56191e-14 -35770.7)
(43964 38139.4 1.93863e-14 852.888 -1.02474e-14 11120)
(546182 36612.9 5.98243e-15 -216.168 3.61905e-15 135465)
(71540.7 27055.8 -1.34308e-14 -3618.64 -5.29395e-14 16852.8)
(-19213.1 50283.8 -4.63097e-14 2122.01 4.37085e-14 -4240.64)
(510848 48428.9 -7.16903e-15 -561.941 8.99581e-15 126612)
(-32006.4 47880.4 -1.58447e-14 1576.98 -4.29593e-15 -7550.17)
(-68227 44930.7 -1.2239e-14 -887.086 -5.26192e-15 -17148.6)
(15318 49400.5 3.32636e-14 -3933.84 -4.79741e-14 2824.64)
(19730.3 45105.6 -2.34786e-14 -138.62 1.62484e-14 4861.09)
(-12640.6 42711.4 -6.77004e-15 -3862.61 -1.00524e-14 -4094.77)
(-31410.2 45548.9 -4.21629e-14 2198.64 -3.31705e-14 -7247.98)
(-2088.61 52511.3 -4.05067e-14 -2559.14 -3.07795e-14 -1153.2)
(-12941.8 52842.1 -2.43098e-14 -7332.22 2.6944e-14 -5030.4)
(-418.673 51198.9 -1.58998e-14 -553.836 -1.52864e-14 -241.299)
(4245.45 45062.6 7.69963e-16 22125.5 3.44319e-14 6543.17)
(-20455.4 17691 -1.84833e-16 -4640.65 1.65404e-14 -6226.84)
(-734668 -109605 6.65735e-15 34717.5 -3.52382e-15 -173672)
(-466691 47715 4.49357e-15 -3230.11 -6.76271e-16 -116597)
(111010 33987.7 1.83797e-14 4687.61 -1.80383e-14 28706.9)
(-339047 42990.8 -1.59684e-14 3622.81 1.01494e-14 -83225.6)
(145238 30209.3 -8.46033e-15 6154.81 2.5456e-14 37563.7)
(-292253 36652.8 6.0677e-15 4358.56 6.08048e-15 -71432.5)
(-257286 34425.8 -3.33897e-14 4007.08 2.5781e-14 -62843.7)
(91986.4 40709.7 1.79013e-14 1988.76 5.04193e-14 23317.1)
(-292540 33726.5 2.16252e-14 4282.66 -3.05152e-14 -71522.5)
(122064 37626.1 2.2579e-14 3529.78 -1.80804e-14 31162.4)
(-253432 28869.8 1.73922e-14 3311.73 -3.07477e-14 -62059.8)
(-223331 28006.2 -1.81053e-14 3674.45 -1.63424e-14 -54501.2)
(-160280 57014.6 1.53763e-15 2374.79 1.51345e-14 -39179.4)
(36435 46186.3 -8.90939e-15 -4901.1 -6.0187e-14 7824.21)
(48992.5 40270.6 -1.44121e-14 -2609.64 -4.21645e-14 11508.5)
(-75546.4 38731.5 -4.44185e-15 3100.8 2.62778e-14 -17975.2)
(295066 25401.9 -2.84678e-14 116.837 -9.55763e-15 73240.7)
(-320309 9999.11 2.76211e-14 -4165.36 8.67769e-15 -80508.8)
(171264 33171.2 1.92653e-14 -3455.02 -1.79976e-14 41636.7)
(-132320 46805.1 5.11453e-16 2092.63 3.08505e-15 -32312.1)
(-53808.6 46160.8 -2.31767e-14 4010.49 -1.93048e-14 -12355.9)
(-55914.4 44020.7 1.98473e-14 1645.56 -1.81118e-14 -13465.2)
(4074.78 52379.5 1.5093e-14 2808.57 2.78341e-14 1707.9)
(-76975.7 37456.7 -3.39594e-14 3939.91 3.54803e-14 -18121.7)
(51672.7 38991.4 -1.79302e-14 -3856.09 -1.91136e-14 11864.3)
(33487.1 49475.1 -1.63231e-14 -355.644 1.26954e-14 8220.59)
(-122071 36470.2 2.77314e-14 4531.87 -1.88068e-14 -29163.9)
(-161972 37047.7 1.03584e-14 673.705 2.25724e-14 -40021.3)
(394144 29986 7.3114e-15 828.176 -1.46779e-16 98000.7)
(-847.388 52671.3 7.91729e-15 1431.33 -3.88775e-14 144.887)
(683512 43788.6 -9.19997e-15 -6076.93 -5.08031e-15 168085)
(-63837.7 41835.4 -2.93294e-14 2247.93 2.03678e-14 -15281.7)
(508421 30323.7 0 -7519.13 0 124284)
(-127624 41131.9 9.53799e-15 1366.17 3.94305e-14 -31327.1)
(-144753 43336.8 -9.76011e-15 354.848 1.17651e-14 -35828.2)
(-166442 48539.2 -1.38792e-15 261.977 4.38881e-14 -41232.5)
(61840.7 41907.3 -2.19765e-14 -162.339 5.4594e-15 15303.7)
(42077.6 48016.1 -2.32124e-14 -1485.55 5.78747e-15 10071.7)
(-785294 8639.45 7.43276e-15 -4507.89 -4.30711e-15 -195966)
(-402692 45201 -6.77511e-15 -1602.98 1.32838e-14 -100314)
(116297 37672.3 -2.32293e-14 2927.84 -1.36969e-14 29582.1)
(150057 32355.1 6.64505e-14 46.6702 -3.59627e-14 37243.8)
(22385.4 46774 1.27661e-14 -4255.28 -3.32851e-14 4498.45)
(-109173 27676.5 0 1891.97 0 -26618.7)
(-114642 23199.8 3.48901e-14 3949.56 -1.78506e-14 -27465.2)
(584660 30271.9 1.13078e-14 -5108.41 7.63618e-15 143799)
(603313 11128.5 9.29407e-15 5263.84 8.40849e-15 151000)
(259057 30782.4 2.75042e-16 870.168 1.86039e-14 64493.2)
(228106 28161.3 3.1356e-15 2447.95 4.39355e-14 57205.2)
(299984 31625.3 9.98091e-15 352.83 -1.43603e-14 74519.7)
(-118540 37490.1 -2.11528e-14 1650.98 1.91802e-14 -29002.6)
(-85653.6 41928.1 -2.04113e-14 -659.258 2.2572e-14 -21416)
(49420.4 45211.3 0 969.949 0 12502.9)
(30664.6 52537.5 -8.92958e-16 1026.12 3.2694e-14 7863.1)
(106814 40457.2 -2.62191e-14 -873.122 2.15621e-14 26286.1)
(-48442.8 39415.5 -2.09152e-14 -386.021 5.01738e-14 -12115.4)
(-99356.8 60743.9 -4.68771e-15 146.665 2.12665e-14 -24616)
(23886.8 47038.2 -7.43035e-14 -895.951 -1.98874e-14 5704.5)
(31665.6 40381.9 -5.20334e-14 762.33 2.19454e-14 8046.03)
(-28527.9 48503.4 -9.99884e-15 1250.24 -1.38476e-16 -6768.15)
(-70599.2 46730.6 -9.36049e-15 964.763 -5.93242e-15 -17277.7)
(-61501 42322.3 6.01287e-15 -238.929 -1.04029e-14 -15318.9)
(-68046 39579.7 0 -1278.17 0 -17200.7)
(-40817.7 65103.3 1.56063e-16 -2168.69 -1.38474e-14 -10665.8)
(-226275 15800 2.49727e-14 -4919.39 -1.09494e-14 -57364)
(289767 26807.1 -3.37609e-14 -853.358 -3.24619e-15 71685.4)
(581263 95909.9 2.49629e-15 -121207 1.29581e-15 114149)
(-14557.5 50662 6.6408e-15 -672.152 -1.51823e-14 -3778.77)
(75683.3 25146.1 2.41895e-14 -229.068 -5.56444e-14 18721.7)
(-746999 -72786.2 6.32186e-15 69780.6 -4.44447e-15 -168032)
(34371 42751.4 1.04279e-15 3326.98 2.83372e-14 9353.63)
(83357.8 29003.6 1.95813e-14 3992.01 -2.26045e-14 21673.3)
(90604.3 30055.5 2.73325e-14 -2136.03 -1.15987e-14 21950.8)
(-1495.38 54083.9 2.05472e-14 67.4644 -3.07713e-15 -354.294)
(-2040.92 54715.7 2.16798e-14 -491.349 1.85123e-15 -628.308)
(210252 28381.8 7.14189e-15 -4456.38 2.47921e-14 51062.1)
(172975 42983.4 9.43368e-15 -2877.16 -2.30796e-15 42204.6)
(-156106 37226.4 0 -911.35 0 -38959.1)
(-135171 32091.7 -2.30933e-14 -3910.27 -1.45514e-14 -34508.8)
(722637 -109834 -2.62586e-15 -35700.1 -1.91974e-15 170443)
(-186475 65541.4 -2.06683e-15 4342.96 2.60732e-14 -45190.6)
(-313801 44255.7 1.54276e-14 -2350.67 -9.34405e-15 -78443.8)
(-763407 -305592 -7.18449e-15 169827 2.87379e-15 -147279)
(760538 5634.07 0 10698.1 0 191359)
(-669471 -284334 -2.34358e-15 81971.2 7.37852e-16 -145771)
(92622.3 71056.3 -1.47923e-14 248.027 5.4046e-15 23043)
(-22542.6 47187.9 -2.10202e-15 -4319.3 2.95659e-14 -6664.98)
(-244643 51397.2 1.1874e-14 -1484.49 -1.33369e-14 -61069.3)
(-210999 45970.1 1.73872e-14 -23.4044 -2.14568e-15 -52359)
(-185338 43456 -1.93597e-14 -174.911 7.10136e-16 -46029.6)
(69512.7 43096.7 1.55948e-14 1944.34 -4.37888e-14 17729.9)
(94501.8 37894.1 -3.94593e-14 1502.52 3.85889e-14 23820.6)
(10378.5 43946.6 -6.14802e-15 -4249.3 2.90758e-14 1520.78)
(12977.3 38084.5 1.47143e-14 -3774.56 1.89842e-14 2283.38)
(-46122.5 63181.6 -1.97657e-14 4347.36 5.43242e-15 -10365.3)
(-20882.3 38468.3 1.2992e-14 4251.93 -1.67587e-14 -4126.34)
(-422298 -170319 -1.82625e-15 -9914.92 3.81711e-16 -107241)
(50304.3 62024 -1.09164e-14 4041.81 -3.98465e-14 13484.4)
(-24083.9 39804.4 -3.30166e-14 -3047.21 -1.52139e-14 -6731.77)
(-111004 46939.2 0 457.725 0 -27428.8)
(51017.1 48693.9 2.93888e-14 1095.43 -1.22334e-14 12930.2)
(-23502.5 45054.4 0 545.256 0 -5696.15)
(-22182.2 46661.8 -1.5766e-14 1056.91 -2.51858e-14 -5241.61)
(156018 36983.8 2.33199e-14 1907.96 -2.44019e-14 39184.6)
(160988 32177.7 3.52631e-14 -1054.62 1.69379e-14 39682.7)
(751245 -300880 -2.65328e-15 -168374 -8.91887e-16 144622)
(416172 -168013 3.12131e-15 9471.03 8.60555e-16 105611)
(-66968.9 37575.3 4.80734e-15 -69.3894 6.89499e-15 -16633.6)
(-72767.4 40049.7 -1.45861e-14 -1441.08 -3.01016e-14 -18412.6)
(-295133 16996 -1.71435e-14 -3183.7 -4.02278e-15 -74018.4)
(229604 30479.1 3.77389e-14 -2919.79 -1.00086e-14 56244.9)
(84914.6 43931.3 1.13152e-15 324.868 6.68248e-14 21149.6)
(116307 40658.5 2.26126e-14 -1159.21 2.48231e-14 28570.5)
(-313967 33588 -4.79376e-16 -2634.25 1.63052e-14 -78555.2)
(-273971 30701 -1.58518e-14 441.799 5.25721e-15 -67868.1)
(-240024 30145 -7.90109e-16 194.12 2.43275e-14 -59506.6)
(-2419.94 53495.7 -3.41801e-14 -1265.41 9.97328e-15 -914.41)
(-365789 32630.7 1.10888e-14 -1525.87 1.20001e-14 -91138.2)
(98300.2 40099 -2.31708e-14 76.3961 1.14551e-14 24409.2)
(126819 37128.6 0 -2141.61 0 30934.9)
(121875 36952 9.04089e-15 -449.804 2.20472e-14 30128)
(26584.3 43419.3 -2.88541e-14 3847 -7.69475e-14 7550.62)
(202.822 52646.3 -2.53356e-14 -5249.22 -9.41719e-15 -1252.11)
(141716 47677.1 -4.04033e-14 5736.65 7.60521e-15 36585.9)
(-95704.9 35639.5 -3.01054e-15 -550.738 -2.39529e-14 -23883)
(14072.8 62282.2 4.54026e-16 -3606.68 6.36231e-15 2596.85)
(658849 -280445 -2.41002e-15 -81948.2 -6.14535e-16 143141)
(59208.5 42698.4 2.5791e-15 -2435.4 -4.53094e-14 14086.6)
(72874.6 43070.3 2.09175e-14 -1018.79 7.1589e-15 17828.9)
(-53907 44722.3 0 3043.29 0 -12620.3)
(-63582.9 46542 7.54813e-15 -73.0105 -2.12674e-14 -15794.3)
(173412 42287.9 0 3636.08 0 43929.3)
(197976 46330.7 1.43894e-14 1914.52 1.38826e-14 49596.9)
(228653 50541.4 -3.34214e-14 1454.65 -3.13175e-15 57094.3)
(-99638.8 35735.8 4.16483e-14 -2542.85 4.25517e-14 -25353.3)
(-74671.8 40579.9 2.15948e-15 -2224.97 -2.5281e-14 -19079.7)
(-7271.81 54239.4 2.43445e-14 3283.97 1.30791e-14 -989.463)
(634023 29637.7 -4.75546e-15 -9425.03 -9.50168e-15 154975)
(-5689.51 45971.5 -2.65496e-14 -2609.92 8.32591e-15 -2059.26)
(80.8476 45067.3 -2.89133e-14 3443.41 -1.82908e-14 874.439)
(10099.5 52926.7 1.89305e-14 -334.563 -4.4348e-14 2422.87)
(97560 41968.2 2.10069e-14 -1907.79 2.2441e-14 23733.3)
(-54881.3 17175.6 -3.36333e-14 -2541.08 1.68097e-15 -14247.7)
(124758 47212.1 0 -863.571 0 30740.7)
(701337 -2820.76 1.15738e-16 -117988 4.72143e-17 144741)
(115228 21320.5 1.93503e-14 821.102 4.42811e-14 28794.2)
(107909 25606 8.77749e-15 -2630.9 4.80795e-15 26121.5)
(-142908 37088.3 2.95951e-15 2004.34 6.22945e-15 -34960.9)
(-104363 39063.9 -2.25429e-14 -147.792 7.25043e-15 -25931.2)
(-122742 33879.3 -4.67079e-14 2956.43 -8.26383e-15 -29721.3)
(-89565.7 36906.8 2.32273e-15 51.6144 -2.46469e-15 -22210.3)
(367861 31651.4 -2.00858e-15 -486.015 6.37516e-15 91153.3)
(300805 53728 9.75612e-16 634.28 -1.31497e-14 74793.2)
(68963.3 43666.7 4.1471e-15 626.721 2.46954e-15 17266.7)
(94376.1 41139 7.74815e-15 1512.84 1.33527e-14 23792)
(50740.1 45433.5 2.13287e-14 -2987.15 1.53199e-14 11848.5)
(72211.9 41600.1 1.91582e-14 -5040.45 -3.05561e-15 16666.6)
(-171283 44513.8 -4.02682e-15 238.714 1.03938e-14 -42439.6)
(-220865 51330.5 -1.13099e-14 -1348.28 2.02888e-15 -55135.6)
(-62064.8 69702 1.32094e-14 -483.941 9.63775e-15 -15519.6)
(408325 43088.8 1.49921e-14 1590.47 1.10318e-14 101708)
(444590 45128.4 -3.31868e-15 6817.18 1.69815e-15 112003)
(541394 42893.1 2.67292e-15 -2825.84 1.72678e-15 133630)
(30006.2 46755.2 -4.12928e-14 4966.77 5.05316e-14 8677.49)
(-114022 22880.2 -2.56508e-14 2348.54 -1.32477e-14 -27708.4)
(-106990 26707.4 -3.25266e-14 6628.17 2.18907e-14 -24901.9)
(571072 12410.3 0 7464.57 0 143547)
(568210 32925.9 0 105.032 0 141010)
(253177 29459.2 4.93336e-15 -1975.33 2.51304e-14 62328.3)
(256097 21218.8 1.72931e-14 2281.86 -4.74247e-14 64109.1)
(-277230 19065.8 0 -4261.07 0 -69843.8)
(-267761 27159 0 2022.76 0 -65935.1)
(10310.9 50568.8 -5.6899e-15 4048.76 1.64449e-14 3562.93)
(-32315.1 37194.4 6.1078e-14 -3910.65 -2.60644e-14 -8988.34)
(-94315.3 27553.5 -1.60729e-14 -3040.63 -5.96595e-15 -24156)
(855458 5432.05 0 18688.3 0 216893)
(-16561.9 49310.1 -4.02041e-14 -7801.43 -1.04111e-15 -6045.03)
(-16402.4 52075.9 -5.78912e-15 -6443.68 -3.25181e-14 -5668.58)
(60487.7 44090.3 -2.11325e-14 -323.871 -1.45813e-14 14927.9)
(-52585.6 46734.7 -4.44399e-14 263.312 1.87555e-14 -12982.2)
(57404.7 38358.1 1.33898e-14 -4129.01 -1.39376e-14 13218.8)
(-235106 28839 9.11796e-15 -786.42 -1.90075e-14 -58529.7)
(226160 29308.9 -3.60575e-15 -995.176 -2.33108e-14 55868.1)
(-519446 41785.4 4.27833e-15 -2942.21 -2.01259e-14 -129615)
(-774669 -51770.1 2.74273e-15 169032 -2.15419e-15 -150271)
(238813 68786.1 -4.21165e-15 -5215.34 5.42687e-15 57960.4)
(14633.7 46827 -2.28666e-15 -1263.58 1.2862e-14 3317.4)
(-222072 40933.7 -1.16782e-14 -4687.77 -3.21e-14 -56263.6)
(178543 30035.9 -1.46189e-14 -1697.11 2.1051e-14 43879.1)
(-136289 32790.3 1.65477e-14 -3525.25 2.1274e-14 -34690.8)
(96975.8 39002.8 2.38394e-14 831.83 3.89145e-16 24268.1)
(14545.7 55100.3 6.45369e-15 -1796.16 3.05228e-16 3163.41)
(35889 49861.2 -2.73074e-14 -1706.53 3.46205e-14 8481.35)
(-76040.5 46384.6 2.0969e-14 -5021.65 -2.26183e-14 -20113.2)
(-119259 60316.1 4.66266e-16 871.707 2.84774e-14 -29374.2)
(-66232.5 43010.6 3.11462e-15 -5161.01 -2.22716e-14 -17714.2)
(-104567 55606.5 1.99869e-14 -255.37 -7.3516e-15 -26008.5)
(22269.7 47127.6 -1.35887e-14 -1214.97 4.31359e-15 5224.1)
(-9966.93 46391.7 -3.19935e-16 1426.68 -2.30814e-14 -2119.01)
(-6812.93 50743.4 2.80595e-14 476.594 2.26871e-14 -1572.17)
(-5853.81 53963.8 1.43983e-14 -835.083 -3.16494e-14 -1659.65)
(449186 38221.4 1.05368e-14 -154.881 1.60457e-15 111414)
(-5183.9 48888.3 -3.26509e-14 -2010.94 -1.46284e-14 -1785.19)
(-18674.5 50271.1 1.5643e-14 -8876.91 -5.28489e-14 -6836.07)
(692368 3926.76 -5.40353e-15 -38606.6 -4.21281e-15 162211)
(72454 37835 1.68316e-14 -3829.55 -2.16996e-14 17027.1)
(-202472 55990.2 1.28848e-14 3073.28 3.55759e-15 -49474.9)
(-188461 31450.9 -1.88623e-14 1509.62 -8.31401e-15 -46386.4)
(-189321 25964.7 0 486.346 0 -46853.8)
(237725 23075.6 -1.73297e-14 4673.19 -8.26937e-15 60143.8)
(224616 36727.2 8.09725e-16 5075.84 2.08875e-14 56991.1)
(-13325.3 44694.3 -1.85281e-14 3249.41 1.52366e-14 -2500.04)
(-10109.9 44811.9 1.34678e-14 2109.57 -7.57892e-14 -1985.05)
(-209499 62218.3 -9.00697e-15 874.682 -2.50847e-16 -51764)
(-279882 52793.8 0 2377.51 0 -68854.4)
(208444 50157.9 5.05223e-15 1758.01 1.32848e-14 52155.4)
(-562385 56372.5 2.17289e-15 146.97 -7.44888e-15 -139503)
(8627.3 38485.7 0 -185.208 0 2094.66)
(248973 41755.1 -1.1166e-15 2666.79 7.28063e-15 62437)
(185531 59297.8 -5.57994e-16 5057.27 2.98977e-17 47288.7)
(-99320.8 42690.6 3.49748e-14 5987.36 -4.51348e-15 -23157.9)
(-78250 37596.4 -3.36862e-15 6478.58 2.48311e-14 -17808)
(-70852.4 43102.3 5.30876e-15 2398.82 -2.04588e-14 -16984.7)
(-52909.4 38608.5 -3.00219e-16 2170.94 1.20249e-15 -12589.2)
(-97523.1 31125.9 1.24441e-14 3868.17 1.84965e-14 -23237.7)
(-79100.7 34515 -2.17761e-14 8699.02 4.4306e-15 -17468.1)
(-86485.8 46979.9 0 2058.76 0 -20948.1)
(-102871 52988.8 -1.20613e-14 1486.49 1.06019e-14 -25155.5)
(-118221 58926.8 -1.01739e-15 2590.03 -1.1711e-15 -28690.5)
(27431.9 40555.6 -5.35364e-14 1729.58 -2.69416e-14 7235.54)
(-6682.09 51705.4 -1.18779e-14 -2514.9 2.38618e-14 -2281.96)
(186427 27211 -7.20746e-15 2420.04 2.01469e-14 46856.9)
(193778 32288.7 9.89781e-15 -2712.82 -1.90281e-14 47407.2)
(36317.4 47016.9 1.93612e-15 -4406.17 -1.34924e-14 7917.82)
(46931.5 39855.7 0 286.233 0 11715.7)
(-143172 61740.3 1.62415e-14 -2853.93 -1.82058e-14 -36232)
(109087 48728 -3.09022e-14 2784.25 -3.16687e-16 27757.5)
(119002 57182.2 -1.35153e-14 3555.99 -8.10972e-16 30409.1)
(-36623.5 43458.9 -2.20773e-14 -4631.14 3.19152e-14 -10236.1)
(-29273.6 43588.2 1.29097e-14 -3208.92 7.72963e-16 -8059.56)
(-48507.3 44477.7 2.11862e-14 2954.59 7.58823e-15 -11302.5)
(-54320.9 42391.2 0 2370.41 0 -12890)
(-288547 41347.2 7.15656e-15 411.572 -1.12394e-14 -71492.4)
(97573.4 41295.4 -1.0067e-14 1885.69 -4.07539e-14 24677.8)
(76312.6 44610.1 -4.62803e-15 322.747 -6.63774e-16 19014.8)
(-47553.8 105461 -3.65337e-15 5708.36 -2.82681e-15 -10382.7)
(259695 27073.2 -2.17849e-14 -3273.87 -1.31423e-14 63623.3)
(-320313 20134.7 1.95336e-14 2114.88 1.17597e-14 -78951.5)
(-66327.2 100522 0 -4508.68 0 -17575.8)
(-46189.1 46287.1 7.69586e-15 2756.11 2.34297e-14 -10776.6)
(-40766.7 47748.1 -5.79141e-14 4475.53 -1.47862e-14 -9004.58)
(-61939.2 38109.1 2.5197e-14 882.668 2.88218e-16 -15149.4)
(-53764.9 39425.5 0 2683.72 0 -12674.3)
(114862 44054.7 1.48176e-14 259.878 -2.39397e-14 28564.1)
(132288 50941.7 5.32455e-15 -1648.56 2.27965e-15 32414.3)
(100869 43790.8 -1.06632e-14 252.787 1.02928e-14 25090.5)
(118698 48964.1 1.10746e-14 -602.923 3.15263e-14 29301.8)
(87026.9 39528.8 8.57143e-15 1969.5 1.46354e-14 22081.8)
(102571 44095.5 -1.88638e-14 335.28 1.08761e-14 25533.2)
(96728.1 28549.4 7.84123e-15 2483.37 2.98608e-14 24616.4)
(93487.3 24508.4 2.30834e-14 6841.92 4.97763e-14 24893.7)
(-231859 58077 -5.49558e-15 -957.831 7.45984e-15 -57766.6)
(75488.2 43987.2 -2.40746e-14 -1915.03 -5.73636e-16 18255)
(-215006 46671.9 0 903.964 0 -53123.1)
(367441 49057.8 1.53865e-14 -4414.76 -9.78625e-15 90074.2)
(-156807 31252.9 2.43566e-14 575.734 -4.06097e-14 -38764.1)
(-121746 31474.7 2.92082e-14 -517.669 -1.9761e-14 -30336.1)
(-577805 -272991 -2.24112e-15 98198.3 5.05884e-16 -119000)
(17624.1 49985.6 3.24655e-14 1182.9 -8.60239e-15 4666.41)
(396209 39530.1 -5.09497e-15 -1675.11 -2.29402e-16 97891.9)
(-159658 36577.6 -6.97435e-15 -208.112 -2.0072e-14 -39666.1)
(-122053 37363.1 4.24253e-14 -1160.43 2.10478e-14 -30571.9)
(691777 9680.35 8.85786e-15 -731.2 3.95657e-15 171463)
(-27896.2 46337.8 -4.66227e-15 1286.46 1.88517e-14 -6602.41)
(423130 26321.3 1.30388e-14 1662.33 -8.21425e-15 105400)
(-93234.3 37629.4 1.45891e-14 1637.7 -2.59146e-14 -22727)
(-389385 54984.2 1.07765e-14 4187.04 -1.38336e-15 -95575.4)
(-366885 44201.6 -6.59037e-15 -3449.59 -5.42314e-16 -91887.6)
(340173 45407.2 -1.25894e-14 -627.793 8.40199e-15 84248)
(-35830.8 45158.5 -6.5684e-14 2551.73 -3.01487e-14 -8257.22)
(-1288.57 -14746.4 9.09918e-17 -23041.7 3.22254e-17 -6036.84)
(-8773.54 50281.2 0 2928.98 0 -1450.15)
(-764887 -240814 3.66472e-15 106238 -1.02126e-15 -163424)
(568671 -269327 4.29171e-15 -98324.2 1.37679e-15 116702)
(-281602 54013.4 1.31703e-14 -3762.54 -1.30388e-14 -70804.8)
(83283.2 40536.4 4.86267e-15 -1052.05 1.90238e-14 20403.2)
(102804 34873.6 -1.60816e-14 -2021.24 3.65526e-14 25006.3)
(41555.4 46729.6 3.14048e-14 -2170.34 9.43825e-15 9772.23)
(-72045.8 23219.1 1.82396e-14 1262.64 -2.82084e-14 -17562.7)
(46744.4 46876.3 -1.57293e-14 -10.1865 1.44781e-14 11595.7)
(-26969.8 40812.9 4.64358e-15 1184 7.17512e-15 -6397.98)
(-40592 66356.6 3.93168e-15 1426.35 1.17395e-14 -9717.8)
(-601685 26154.8 -1.90298e-15 17173.1 4.95808e-15 -145029)
(5157.11 -8772.07 2.38282e-17 -15271.6 1.47625e-17 -2509.61)
(-136991 45052.5 -6.43314e-17 1472.29 1.35834e-15 -33624.8)
(101523 35843.3 1.15256e-14 512.196 3.64167e-14 25316.9)
(646694 -123754 3.61566e-16 -19481.9 5.26976e-16 155624)
(-12559.8 40049.1 -3.03544e-15 -361.321 -2.37608e-14 -3206)
(-15144.6 48502.5 2.41164e-15 1226.6 2.32184e-14 -3453.34)
(-9685.5 43945.4 -4.15004e-16 1977.09 -3.60662e-14 -1912.61)
(-32300 54219.7 -7.42647e-15 -266.015 1.03019e-14 -8080.29)
(9144.2 43698 1.02782e-14 -7.61008 2.67627e-14 2266.97)
(6984.5 48847.6 -2.38589e-14 -1542.54 -7.85686e-15 1350.26)
(-656470 -124323 1.66665e-15 19128.1 -5.0917e-16 -158137)
(180035 58134 -1.14374e-14 -335.416 6.33372e-15 44587.2)
(-61580.2 45793.1 -6.37106e-14 3478.78 -1.81953e-14 -14416.1)
(171084 48467.7 3.80077e-14 5686.31 -6.41625e-14 43860.4)
(148600 43758.7 -2.32644e-16 4993.96 -2.38578e-14 38109.8)
(131182 39934.5 -6.61756e-14 2292.74 1.02447e-14 33117.8)
(28557.6 37859.4 -3.11528e-14 4641.12 -1.17355e-14 8237.28)
(-411409 32178.5 1.96468e-14 -2171.44 -1.94995e-14 -102618)
(106773 35901.7 3.38721e-14 -278.875 3.65095e-15 26423.3)
(138402 33822.2 -1.54067e-14 -88.0186 -2.23068e-14 34318.4)
(-36255.1 47471.7 -5.39369e-14 -691.566 -9.17145e-15 -9167.22)
(301994 65311.5 4.47768e-15 -3856.15 6.85438e-15 73974.1)
(47707.9 40563.1 -2.18365e-14 -3074.94 1.48997e-14 11074.3)
(-623179 31327 -7.38425e-15 -1052.34 -2.86911e-15 -154885)
(14614.5 48678 -2.81441e-14 2189.29 -2.38791e-14 4169.36)
(-46408.1 47363.6 -5.60183e-14 3759.92 2.66914e-14 -10581.9)
(121611 45068.1 4.751e-14 4306.88 -7.08069e-15 31242.9)
(104842 41031.5 4.31678e-14 2997.04 1.05077e-14 26757.1)
(93037.4 37350.6 -3.06986e-14 1427.15 8.58394e-15 23438.6)
(317284 48590.9 5.33506e-15 494.214 1.20415e-14 78847.1)
(44419.2 43024 -1.8939e-14 920.718 -4.10135e-14 11249.8)
(-147554 48123.1 1.49128e-14 -2038.26 3.61038e-16 -37117)
(-132473 69075.8 9.65126e-15 1567.58 1.09995e-14 -32480.3)
(-65040.5 40543.6 0 -14.227 0 -16141.4)
(-173976 45680.2 -1.87418e-14 -1144.01 5.72352e-15 -43450.8)
(-196837 48462.7 -2.89488e-14 -1134.95 -2.00664e-15 -49120.8)
(-226863 54735.5 -2.95253e-14 -1653.64 1.43867e-14 -56699.7)
(91926 38604.6 5.21412e-16 900.63 6.76388e-15 23032.2)
(67103.7 44590.8 8.42949e-15 -538.002 -1.06305e-14 16516.3)
(34317.8 19711.9 -2.45918e-14 1164.86 8.91102e-15 8803.98)
(39747.4 39230.8 0 -2067.27 0 9349.22)
(53928 35233.5 -2.86733e-14 -2078.85 1.72206e-14 12864.8)
(768967 -14466.7 -2.018e-15 -123651 -1.01574e-15 160116)
(179794 32515.2 3.0345e-14 -2850.72 -3.11972e-14 43903.3)
(-135620 40461.4 0 -1194.5 0 -33946.3)
(-104054 40976.2 -1.48692e-14 1692.84 -6.78991e-16 -25397.8)
(75938.7 44035.3 7.70949e-15 -1096.52 -9.58346e-15 18569.9)
(-25777.7 42234.8 1.27769e-14 -586.128 1.05426e-14 -6541.41)
(-9035.04 52687.7 3.67686e-14 831.621 -2.9237e-14 -2035.43)
(2626.3 40380.2 3.1992e-14 2555.73 -5.12352e-15 1285.77)
(3774.16 44568.4 -1.71207e-14 2583.93 -1.61547e-14 1577.57)
(-8008.25 60989.8 -8.77448e-16 -3491.27 -7.36233e-15 -2853.27)
(-1393.87 36082.4 -7.02427e-15 -149.454 2.38044e-14 -382.931)
(-3449.28 39458.6 -2.58845e-14 -5156.39 1.94072e-14 -2135.24)
(2529.07 51926.9 2.45411e-14 -8598.68 -1.12465e-14 -1505.99)
(39928.2 48565.4 -2.28197e-15 1680.21 -1.12191e-14 10323.9)
(-104717 74239.8 -5.65902e-16 1442.6 -5.84165e-15 -25624.4)
(21856.2 47994.6 6.17751e-14 -1539.46 -1.22642e-14 5041)
(-3084.93 72954.4 3.27762e-15 -5602.44 4.93339e-15 -2155.51)
(-195924 66493 -7.98002e-15 -2195.71 -4.92323e-15 -49157.6)
(194580 42661.2 2.41676e-14 4129.75 2.1975e-14 49304)
(-80455.7 39820 -2.38553e-14 436.269 7.84169e-15 -19854.5)
(-518824 128083 -1.48968e-15 107195 9.45652e-16 -102133)
(-62826.4 41593.2 1.68421e-14 -2777.42 1.84651e-14 -16277.6)
(-103770 64065.4 0 -760.315 0 -25936.1)
(24497.7 45248.6 3.29267e-14 -4690.36 -4.58363e-14 4914.61)
(33705 38217.5 1.75569e-15 316.99 5.76381e-15 8441.54)
(572190 -126008 -4.67804e-16 17304.1 8.68314e-17 146265)
(-689615 20373.5 -5.94884e-15 2924.25 2.75307e-15 -170382)
(147509 39380.2 1.12638e-14 7630.1 9.58495e-15 38493.1)
(170376 43863.6 -1.20641e-14 7368 2.60781e-14 44101.9)
(-61806.3 47643.3 -7.79554e-14 6024.18 -2.8014e-14 -13840.7)
(30394.3 49523.1 1.44991e-14 1098.63 2.8931e-14 7814.04)
(-12106.1 48093.5 2.19371e-14 -5925.12 3.36994e-14 -4473.91)
(-327795 -213494 -3.98311e-16 25712.7 1.68666e-16 -74952.8)
(-639413 36655 1.99097e-15 2155.85 2.53699e-15 -158116)
(588257 31061.9 1.08901e-14 -1117.82 -5.50556e-15 145681)
(-906314 -7811.36 -2.93884e-15 -3735.64 -1.30437e-15 -225802)
(183799 32201.6 -9.78987e-15 -360.942 -1.55036e-14 45514.6)
(127645 32868.6 -1.64775e-14 192.257 5.99915e-14 31719)
(-177883 42307.4 0 3838.3 0 -43184.1)
(20143.9 44206.3 -3.21995e-14 -3248.86 1.55334e-14 4192)
(-14510.6 44945.2 -2.38385e-14 1213.85 1.27003e-14 -3299.19)