/*--------------------------------*- C++ -*----------------------------------*\
| =========                 |                                                 |
| \\      /  F ield         | OpenFOAM: The Open Source CFD Toolbox           |
|  \\    /   O peration     | Version:  2.3.1                                 |
|   \\  /    A nd           | Web:      www.OpenFOAM.org                      |
|    \\/     M anipulation  |                                                 |
\*---------------------------------------------------------------------------*/
FoamFile
{
    version     2.0;
    format      ascii;
    class       volSymmTensorField;
    location    "2680";
    object      sigma;
}
// * * * * * * * * * * * * * * * * * * * * * * * * * * * * * * * * * * * * * //

dimensions      [1 -1 -2 0 0 0 0];

internalField   nonuniform List<symmTensor> 
11800
(
(125407 68614 6.05855e-14 -2544.19 3.21081e-14 30484.7)
(-63286 62337.3 9.30054e-14 -1327.36 2.95132e-14 -16031.9)
(561294 84122.2 -1.51269e-15 1257.97 -6.75348e-14 139580)
(-489258 45676.3 0 -580.812 0 -121539)
(-65374.3 60052.6 1.73527e-14 -5810.56 -4.90522e-14 -17662.4)
(-306547 87585 6.74268e-14 2466.18 3.53829e-14 -75448.7)
(-56732.9 85007.9 1.27314e-13 -601.741 -3.31208e-14 -14225.9)
(-79765.5 87049.8 -1.89691e-14 1039.51 7.63614e-14 -19533.5)
(173986 48800.6 2.55587e-14 432.752 -1.74759e-14 43276.9)
(117395 91302.8 -6.54691e-14 686.794 -5.51726e-14 29298.5)
(144936 57689.7 -5.05419e-14 1126.09 4.32845e-14 36241)
(-709399 34028.9 -6.05931e-14 -5498.54 -2.75088e-14 -177380)
(20570.7 -29895.5 1.11572e-16 -55471.5 8.67043e-17 -8659.59)
(520204 45988.3 5.49768e-14 3341.17 -1.50588e-14 129902)
(-417213 81920.2 -4.57821e-14 6199.07 3.56092e-14 -101981)
(1.96271e+06 -4809.18 0 -6461.39 0 485386)
(-37156.7 67990.7 4.30835e-14 3308.1 3.80163e-15 -8398.52)
(-57152.7 62204.9 -2.43234e-14 6861.66 1.39781e-13 -12478.2)
(119880 105034 -2.50748e-14 -15624.4 1.78439e-14 25868)
(89216.5 56972.2 -8.71345e-14 -9744.41 -2.81947e-14 19718.6)
(-384922 51594.5 2.71174e-14 -795.954 2.84289e-14 -95704.6)
(-620257 77086.5 4.33992e-14 3030.03 -2.52443e-14 -153147)
(-833585 100923 -2.21894e-14 10717.6 1.43043e-14 -204170)
(-764996 60584.7 2.25059e-16 581.256 3.86621e-15 -189667)
(1.59849e+06 73706.1 2.71877e-15 -7445.18 3.20627e-14 394770)
(-991594 100128 -2.17691e-14 7447.84 -6.28221e-16 -244187)
(-1.02965e+06 52554.1 0 9121.91 0 -253215)
(507462 40649.6 -7.18095e-14 -5307.23 -4.33844e-14 124595)
(-1.12509e+06 53885 -1.25352e-14 10274 -6.00067e-14 -276608)
(-1.2218e+06 54800.9 1.66266e-14 11854.8 -2.59057e-14 -300212)
(335023 43492.7 -8.89573e-14 -1716.85 -1.59507e-13 82700.1)
(66690.5 58111.9 -1.45274e-14 2369.03 -1.20483e-14 17135.1)
(1.00736e+06 96128.4 -3.53643e-15 11464.3 -1.55611e-14 252791)
(-25562.3 73392.7 1.1636e-14 -1379.68 -8.7157e-14 -6684.85)
(17382.4 77006.6 -3.07655e-14 2908.59 -1.32137e-13 5034.6)
(-327988 33467.2 -8.07747e-14 624.23 -5.86983e-14 -81225.7)
(18825 77723.4 1.09275e-13 2034.88 -1.30029e-13 5175.75)
(1.07996e+06 57857.9 -1.29867e-14 5734.2 -5.58897e-14 269382)
(-38860.6 74585 0 -2249.65 0 -10200.3)
(85341.2 69509.7 -3.77905e-14 4913.03 7.04195e-14 22393.9)
(-1.08201e+06 40359.6 -6.73288e-14 -5356.02 -3.13151e-14 -269798)
(-1.18217e+06 40253 4.82682e-14 -5631.48 -2.77131e-14 -294719)
(533113 53519.1 -2.76794e-14 -1535.58 -9.22341e-14 131895)
(-1.28366e+06 40919.9 -9.26374e-15 -4474.17 -4.91524e-14 -319612)
(352018 53593.8 2.36467e-13 1463.6 -7.38022e-14 87705.9)
(1.83459e+06 47270.2 0 -6581.58 0 453566)
(795630 109855 -1.40309e-14 -3154.6 7.36576e-15 196629)
(948562 43235.6 -2.47383e-14 -10286.1 -1.72235e-14 232805)
(-90059.6 76949.1 -9.37509e-14 -216.136 -5.77894e-14 -22399.2)
(206751 73144.5 0 2020.33 0 51800.3)
(-734861 43765.9 -4.52256e-15 2502.82 4.81496e-14 -181713)
(-515703 41749.1 1.57219e-13 3801 1.84327e-14 -127013)
(-10605.3 76244.7 8.81277e-14 394.411 5.4903e-14 -2533.52)
(37737.3 120887 -1.95506e-15 7289.4 1.70461e-14 11172)
(-2.1087e+06 5149.96 -3.02068e-15 -11013.6 -4.66836e-15 -525945)
(1.6721e+06 -70967.7 4.00808e-15 -76632.1 7.14703e-15 395869)
(-56827.1 21894.6 7.58863e-14 1826.34 2.81909e-14 -13646.8)
(-463191 86125.1 5.6687e-15 -5035.05 -4.71932e-14 -116176)
(370483 56234.5 -4.798e-14 7741.11 7.02837e-14 93845.1)
(-328783 89909.6 3.94013e-14 -6583.73 -7.11357e-15 -83211.4)
(1.72412e+06 22491.7 -3.51797e-14 -12953.4 -1.21931e-14 424575)
(-45133.6 79858.2 3.72988e-14 678.939 -6.07342e-14 -11030.1)
(-365225 71355.3 -2.16071e-14 -2614.54 3.71764e-14 -91268.3)
(290893 71631.2 6.54791e-14 2447.27 -3.73668e-14 72783.7)
(1.5791e+06 14109 3.86244e-15 -613.698 -2.31286e-14 391655)
(-228671 33521 -1.06735e-13 2267.33 -1.29038e-13 -56175.4)
(-758356 20640.9 7.51554e-14 3811.82 2.50722e-14 -187218)
(-537958 23518.4 2.15787e-15 3992.39 -1.31893e-13 -132488)
(-58725.5 23514.4 0 -3087.34 0 -15337)
(-924577 57423 -1.69253e-15 9701.51 5.70475e-14 -226999)
(-20632.7 77880.9 -2.13809e-14 230.565 4.41627e-14 -5062.19)
(-45966.4 61686.6 -8.23698e-14 -3183.88 9.21934e-14 -12195.2)
(-40501.9 60168 5.77704e-14 -2392.49 -3.53728e-14 -10643)
(-1.41211e+06 311518 -5.05076e-15 177339 4.59119e-15 -306372)
(1.70875e+06 65214.5 -1.33181e-15 -5964.98 -1.40298e-14 422496)
(-308377 49057.8 -7.93573e-14 4480.31 -5.77353e-14 -75402.9)
(1.65052e+06 14208.5 -2.94142e-14 3702.74 2.61743e-14 410447)
(-222380 21885.6 7.01696e-14 225.612 -2.30314e-13 -55121.1)
(-164996 42838.3 1.31948e-14 1274.24 -1.25976e-14 -40622.7)
(-156693 54677.3 1.34707e-13 2762.41 1.35143e-13 -38193.2)
(-2.12646e+06 -39724.9 1.09223e-14 8907 5.07951e-14 -525407)
(91128.3 52366.3 0 7775.85 0 24540.1)
(49656 63232.2 -1.40051e-13 1325.8 -5.52073e-14 12649.6)
(34293.9 67429.6 4.85558e-14 1667.42 -3.83941e-16 8922.74)
(-72228.8 59572.1 3.33e-14 -7536.8 9.42697e-14 -19791.5)
(-1.18942e+06 66479.6 -1.8581e-14 -6112.88 9.42311e-14 -296637)
(361994 49501.8 1.1303e-13 3699.18 -3.51719e-14 90735.8)
(-1.09277e+06 64149.1 0 -6062.71 0 -272644)
(-999076 62736.2 -3.91541e-14 -5373.82 -4.00847e-14 -249224)
(535084 46466.8 5.18049e-14 4754.02 3.16289e-15 133945)
(-11579.1 75303.8 -1.82583e-13 -2629.74 -1.17153e-13 -3525.5)
(1.19232e+06 88956.5 0 -4046.06 0 294835)
(-97632.5 66570.9 -3.87362e-14 1840.32 -6.42517e-14 -23768)
(63153 18098.3 -2.23406e-14 4361.14 -3.24293e-14 16751.6)
(146511 65557.1 1.71616e-13 1096.69 3.06938e-15 36624.5)
(47598.5 -35902.9 -7.10173e-16 -101128 -5.26469e-16 -13281.6)
(-2523.16 9866.37 1.84816e-17 5924.23 -1.0991e-16 843.874)
(-48018.4 -35653.8 -4.49152e-16 100800 2.99267e-16 13096.2)
(-11584.9 76699.5 -5.67653e-14 -373.246 -8.26965e-16 -2967.06)
(-617808 49534.1 -1.39375e-14 -2524.02 5.56884e-14 -153917)
(44656.4 37975.1 3.12003e-14 -201.884 -8.73154e-14 11030.1)
(672138 55848.5 -6.75441e-14 -6344.72 -9.35149e-14 165197)
(-1.13048e+06 99896.6 4.58292e-15 -276.525 9.32293e-15 -280564)
(-372696 70566.9 -2.82652e-15 5902.11 8.93946e-15 -91009)
(-798.341 81551.9 -8.76075e-15 -674.598 -4.36034e-14 -365.466)
(291697 92129.6 -1.82539e-14 2098.64 -3.16071e-14 72896.7)
(-137710 66870.6 -5.36661e-14 -292.796 1.18378e-13 -34241.2)
(-96566.5 70472 -1.81742e-13 -648.807 -8.76808e-14 -24121.1)
(1.69395e+06 21185.2 1.03296e-14 4748.94 2.16202e-14 421482)
(1.09896e+06 55435.9 1.67437e-14 3808.69 3.40178e-15 273619)
(1.19696e+06 57113.2 3.20936e-14 4539.18 4.47593e-14 298116)
(1.00533e+06 54293.6 1.17239e-13 3685.28 6.94934e-14 250358)
(-366884 50763.7 5.29705e-14 -3969.08 8.2742e-14 -92016.2)
(-542121 49202.9 -1.40126e-13 -4179.05 5.03839e-14 -135548)
(194965 60479 5.99264e-14 -106.639 -3.14249e-14 48348.3)
(1.52557e+06 35134.3 1.55964e-14 258.393 9.20921e-15 378590)
(213438 30474.1 -4.36447e-14 -3145.43 -1.71617e-13 52177.9)
(-66890.1 71640 -1.51313e-13 1120.36 1.41544e-13 -16318.8)
(1.42864e+06 70190.6 -1.79313e-14 992.567 2.23452e-14 354720)
(-120313 94547.8 -4.91605e-14 20.9269 -1.32356e-14 -29846.9)
(-190506 43549.1 -3.39956e-14 3317.76 -1.4329e-14 -46445.2)
(58367.7 85101.9 1.08329e-13 -2795.19 -1.55133e-13 13788.7)
(82823.8 89120.2 -7.55396e-14 -1632.19 5.19692e-14 20145.3)
(-58816.2 70272.1 -2.19739e-14 2415.57 -3.24266e-14 -13994.1)
(-102676 63180.2 -1.37781e-13 -466.55 -1.07555e-13 -25591.9)
(-2764.33 75759.7 -1.32424e-13 -2524.42 -9.96899e-14 -1312.24)
(-32298.3 75287 -7.93927e-14 -2210.98 8.72601e-14 -8562.45)
(-6704.04 76520.2 -5.19036e-14 -1866.37 -4.94856e-14 -2126.49)
(8306.58 54213.5 2.46959e-15 36130.9 1.10605e-13 11025.8)
(-34244.6 8507.65 -3.77087e-16 -7889.07 5.25992e-14 -10454.2)
(-1.8127e+06 -291019 1.62927e-14 74600.9 -8.24835e-15 -431257)
(-1.29637e+06 68271.4 1.17017e-14 -9625.21 -1.78255e-15 -324043)
(395759 45054.7 5.98105e-14 3858.57 -5.83479e-14 99153.2)
(-1.18515e+06 68536.2 -4.64268e-14 933.5 2.91686e-14 -293828)
(571166 41060.2 -2.69712e-14 4413.92 8.16565e-14 142813)
(-1.08594e+06 65280.6 1.7711e-14 1141.25 1.77902e-14 -269161)
(-991547 63236.6 -1.01866e-13 1672.84 7.78737e-14 -245608)
(329325 62018.2 5.85596e-14 -3428.72 1.63278e-13 80861.4)
(-1.01408e+06 29971.6 6.3389e-14 6767.67 -8.72617e-14 -249935)
(478693 63925.5 7.27266e-14 -4131.56 -5.79202e-14 117748)
(-929930 30045.2 5.24163e-14 5979.76 -9.0384e-14 -229251)
(-849551 31316.7 -5.43619e-14 6079.16 -4.89447e-14 -209283)
(-481354 84570.8 4.09981e-15 15125.8 4.11118e-14 -115681)
(144667 71203.5 -2.92324e-14 -5566.53 -1.94832e-13 34513.7)
(206307 68105 -4.67498e-14 -6678.31 -1.35153e-13 49531.9)
(-302420 66482.5 -1.40846e-14 9532.28 8.12565e-14 -72671.4)
(1.21933e+06 41908.6 -8.93097e-14 1500.52 -3.0116e-14 302912)
(-1.261e+06 -14049.2 8.59188e-14 -10248.9 2.65851e-14 -315423)
(707543 42062.1 6.04383e-14 -2496.05 -5.62977e-14 174936)
(-369453 44463.1 1.36152e-15 6751.89 8.09071e-15 -89993.5)
(-167657 68285.2 -7.58134e-14 2540.43 -6.26672e-14 -40968.9)
(-175593 57769.3 6.48819e-14 -1824.82 -5.87235e-14 -44020.9)
(18187.4 76282.7 4.93222e-14 1741.07 9.013e-14 4944.67)
(-248922 50263.8 -1.10926e-13 165.334 1.15072e-13 -61721.6)
(211222 59318.8 -5.8177e-14 -4440.82 -6.14965e-14 51306.5)
(142866 68565.2 -5.32992e-14 2056.21 4.11e-14 35958.3)
(-459173 55446.8 9.02303e-14 7000.3 -6.07589e-14 -112193)
(-641434 60596.2 3.2843e-14 2739.55 7.18426e-14 -158473)
(1.31442e+06 21664.8 2.04304e-14 1567.96 -2.8087e-16 326523)
(-5832.93 79666.2 2.58916e-14 -209.228 -1.25994e-13 -1499.18)
(1.92685e+06 73282.7 -2.39195e-14 -12196.2 -1.30429e-14 475066)
(-205001 61386.3 -9.58145e-14 1310.57 6.60456e-14 -50539.6)
(1.66024e+06 47452.3 0 -16925.6 0 407740)
(-471544 61673.9 2.83449e-14 -4275.14 1.18249e-13 -118060)
(-515833 62151.9 -2.90575e-14 -5054.52 3.44992e-14 -129243)
(-561196 63956.9 -4.66712e-15 -5580.39 1.24983e-13 -140629)
(257640 67844.5 -7.10664e-14 745.641 1.74878e-14 64110.8)
(175072 70520.2 -7.578e-14 185.651 1.87186e-14 43484.9)
(-2.10474e+06 -14738.4 1.89909e-14 -8501.9 -1.084e-14 -524338)
(-1.29359e+06 66249 -1.93865e-14 -7371.97 3.66379e-14 -322796)
(448813 48690.3 -7.56512e-14 4596.74 -4.42898e-14 112500)
(621499 45060.7 2.12707e-13 4804.59 -1.14361e-13 155399)
(70776.9 75395.9 4.15946e-14 -7268.14 -1.07583e-13 15757.8)
(-368739 35602.7 0 1715 0 -91066.2)
(-374408 21296.6 1.13751e-13 -1364.49 -5.7844e-14 -93236.8)
(1.82699e+06 51752.6 3.09508e-14 -13448.5 2.06596e-14 449977)
(1.87111e+06 -9213.64 2.56416e-14 11841 2.26899e-14 467200)
(972397 25032 1.51366e-15 -782.069 5.40138e-14 241077)
(890405 26495.2 1.09157e-14 -317.556 1.30934e-13 220849)
(1.05834e+06 23481.6 2.79787e-14 -1709.51 -4.04248e-14 262172)
(-457633 65393.6 -6.86344e-14 3966.29 6.17783e-14 -112564)
(-305029 63024.6 -6.65694e-14 2702.14 7.30428e-14 -75013.4)
(198867 86238.7 0 1701.95 0 49765.3)
(134988 85351.5 -2.77687e-15 867.64 1.0588e-13 33708.5)
(433895 65848.9 -8.17751e-14 -355.504 6.68817e-14 107570)
(-183939 62519.6 -6.53859e-14 2045.01 1.55124e-13 -45131.7)
(-291735 93889 -1.30499e-14 3707.11 5.77844e-14 -71465.6)
(88801.6 69537.3 -2.4251e-13 -828.687 -6.4379e-14 21827.9)
(126015 65239 -1.67844e-13 -792.6 7.02537e-14 31070.3)
(-79230.6 78522.4 -3.26943e-14 2018.09 -4.56972e-16 -19158)
(-221039 54104 -2.72451e-14 4471.82 -1.70254e-14 -53734.7)
(-202362 54358 1.79714e-14 3829.62 -3.07065e-14 -49260)
(-205102 41949 0 -604.357 0 -51039.8)
(-99896.2 97704.7 3.78461e-16 -4264.49 -3.59793e-14 -25844.4)
(-928393 5465.15 7.95687e-14 -6316.26 -3.4843e-14 -231920)
(1.16726e+06 49436.6 -1.03639e-13 -5343.26 -1.04067e-14 288296)
(1.48037e+06 158754 6.25169e-15 -258640 3.16873e-15 303136)
(-35351 68099.3 2.16549e-14 -2945.98 -4.91056e-14 -9502.26)
(223021 25308.3 7.90175e-14 1775.49 -1.80467e-13 55776.5)
(-1.85846e+06 -228124 1.56397e-14 151756 -1.01716e-14 -423467)
(103577 54699.9 3.38223e-15 3671.02 9.17252e-14 26610.4)
(281591 38283.6 6.38018e-14 1617.39 -7.32626e-14 70269.8)
(310824 41601.1 8.9084e-14 -4714.35 -3.75973e-14 75952.1)
(-4028.27 79111.7 6.70918e-14 -67.8581 -9.95523e-15 -1016.33)
(-4660.2 81560.7 7.07718e-14 -613.511 5.98776e-15 -1308.52)
(845385 31941.8 2.26563e-14 -4604.51 7.55569e-14 208615)
(700612 82161.2 2.88678e-14 5817.65 -6.96783e-15 175280)
(-636187 68680.7 0 5827.24 0 -156405)
(-544175 39207.4 -7.32882e-14 -8679.04 -4.58591e-14 -137174)
(1.80589e+06 -293924 -6.55783e-15 -76372.2 -4.45271e-15 429127)
(-547000 107785 -5.90772e-15 15187.1 6.92415e-14 -131954)
(-877863 40251.1 4.08672e-14 -1959.15 -2.41335e-14 -218302)
(-1.88488e+06 -758800 -1.76684e-14 396223 6.91438e-15 -369366)
(2.22726e+06 2401.43 0 30575.9 0 560216)
(-1.65092e+06 -702992 -5.75061e-15 186582 1.77894e-15 -363331)
(284468 108160 -3.89584e-14 -171.157 1.37682e-14 70539.9)
(-63972.4 64982.2 -6.84423e-15 -1772.41 9.57331e-14 -16312.6)
(-832512 78904.2 3.43403e-14 -6874.76 -3.78143e-14 -208269)
(-758889 78070 5.11197e-14 -5964.74 -6.37634e-15 -189776)
(-694119 75891.7 -5.82278e-14 -5376.1 2.25276e-15 -173559)
(247099 57181.5 5.07781e-14 3519.88 -1.41712e-13 62183.6)
(369092 53747.6 -1.27512e-13 4223.05 1.23996e-13 92627)
(36697.1 68347.4 -2.00359e-14 -7003.35 9.4068e-14 7367.62)
(51907.8 63514.7 4.74607e-14 -9152.59 6.08205e-14 10608.4)
(-121865 101918 -5.4638e-14 19921.4 1.48002e-14 -25294.4)
(-76051.8 59855.6 4.04566e-14 13029 -5.17678e-14 -15637.2)
(-1.03422e+06 -416402 -4.45678e-15 -26141.9 9.2952e-16 -263097)
(187306 102653 -3.09827e-14 14245.8 -1.10003e-13 50009.1)
(-92730.4 61544 -1.06011e-13 -7627.24 -4.84808e-14 -24900.8)
(-435374 94083.4 0 -21.1138 0 -108030)
(187003 59368.2 8.22327e-14 848.019 -3.36069e-14 46609.7)
(-91785.7 81975 0 -485.206 0 -22894.3)
(-69521.6 67791.6 -5.15246e-14 -472.82 -8.16461e-14 -17367)
(647800 67863.6 7.23659e-14 3733.81 -7.56767e-14 161659)
(665806 44418.6 1.10696e-13 -225.271 5.28831e-14 165144)
(1.88063e+06 -757317 -6.60321e-15 -395160 -2.18303e-15 368575)
(1.0317e+06 -415853 7.71879e-15 26156.4 2.11341e-15 262475)
(-205767 50083.9 1.57073e-14 1448.9 2.23608e-14 -50695.4)
(-219927 51371.9 -4.77156e-14 -2585.14 -9.7615e-14 -55209.7)
(-1.15779e+06 3525.31 -5.27066e-14 -4830.66 -1.20946e-14 -288469)
(936478 47120.6 1.19159e-13 -3603.01 -3.11583e-14 231465)
(304974 64135.9 3.92254e-15 -2308.77 2.16271e-13 75097.3)
(456599 67385.4 7.34629e-14 -3209.11 7.99143e-14 112495)
(-1.06213e+06 23936.7 -1.90744e-15 -749.631 4.6024e-14 -263723)
(-978510 26684.8 -4.66775e-14 -715.068 1.54356e-14 -242966)
(-895356 28493 -3.06589e-15 -756.303 7.24435e-14 -222344)
(-13377.7 80802.8 -1.11698e-13 -1007.11 3.23212e-14 -3569.17)
(-1.15703e+06 25644.4 3.04721e-14 -2066.42 3.2779e-14 -287596)
(381436 63593.3 -7.52908e-14 -2417.03 3.69481e-14 94042.2)
(533101 65881.3 0 -3175.92 0 131485)
(503633 51310.5 2.87286e-14 -3702.58 6.86364e-14 124043)
(97593.5 67111 -9.43893e-14 1466.79 -2.49633e-13 24578.9)
(7954.84 70975.9 -8.27214e-14 -8115.15 -3.04389e-14 -39.7752)
(421452 41008.7 -1.06533e-13 13067 1.9145e-14 107813)
(-352861 52764.6 -9.04027e-15 -1209.32 -7.30758e-14 -87852.1)
(55336.7 73653.7 1.23769e-15 -13726.6 1.55747e-14 10324.3)
(1.64663e+06 -702176 -5.9771e-15 -186398 -1.50126e-15 362314)
(249239 72556.6 7.51539e-15 -2691.33 -1.38707e-13 61173.5)
(300666 70900.1 6.45479e-14 -293.836 2.19596e-14 74528.5)
(-198584 70614.3 0 201.342 0 -49222.8)
(-235746 78716.6 2.40436e-14 -5738.36 -6.6956e-14 -59917.1)
(693595 75452.8 0 6641.51 0 173743)
(758346 77986.1 4.27023e-14 6875.08 4.05528e-14 189867)
(824299 81824 -9.58042e-14 7131.05 -9.23847e-15 206295)
(-370429 50976.4 1.34595e-13 -5085.28 1.36754e-13 -93172.7)
(-250895 55683.3 7.06653e-15 -3683.44 -8.18099e-14 -63166.1)
(-14219.3 77823.3 7.95612e-14 451.803 4.23769e-14 -3416)
(1.68558e+06 15629.5 -1.2505e-14 -26165.7 -2.30049e-14 411735)
(-10976.6 87170.9 -8.60132e-14 -5335.84 2.68063e-14 -4047.44)
(20157.7 47717.8 -8.28273e-14 9852.99 -5.15982e-14 7446.27)
(36680.4 74186.5 6.18245e-14 941.722 -1.43542e-13 9334.82)
(392511 71937.3 6.59848e-14 -62.5865 6.97595e-14 97374.4)
(-157065 7250.55 -1.09453e-13 -3016.45 5.36971e-15 -39719.4)
(517787 80267.1 0 -3311.97 0 127652)
(1.77989e+06 -71274.6 2.89177e-16 -250642 1.1613e-16 379437)
(394056 21563.5 6.31743e-14 5605.79 1.43702e-13 99164.1)
(378085 32372.4 2.86339e-14 -5793.16 1.56063e-14 92373.1)
(-564758 67930.9 9.42448e-15 5486.15 1.9893e-14 -138767)
(-401991 64620.9 -7.33451e-14 4148.42 2.34971e-14 -98712.8)
(-481561 44139.1 -1.50069e-13 -1611 -2.6268e-14 -119885)
(-345268 48691.5 7.56929e-15 -2378.25 -7.96238e-15 -86258.2)
(1.21011e+06 22108.3 -5.31461e-15 -2930.29 1.74454e-14 299526)
(1.00097e+06 86982.5 2.22291e-15 -712.157 -3.60703e-14 248184)
(284342 78653 1.32865e-14 -3187.09 7.86088e-15 69760.2)
(382817 66127.2 2.49353e-14 77.5117 4.24449e-14 95003.8)
(209463 78275.8 6.93306e-14 -4040.97 4.94156e-14 50969.4)
(281805 66479.9 6.21765e-14 -2256.44 -9.84499e-15 69361.7)
(-548449 49453 -1.15431e-14 5486.02 2.90093e-14 -134720)
(-720452 74516.9 -3.20417e-14 2103.75 5.75856e-15 -178237)
(-167088 116090 3.56927e-14 -492.981 2.55117e-14 -41580.2)
(1.19617e+06 53945.3 3.99067e-14 4878.19 2.86777e-14 298004)
(1.29753e+06 54091.2 -8.65889e-15 21398.1 4.31041e-15 327252)
(1.54174e+06 54758.1 7.02694e-15 -1497.08 4.43311e-15 382165)
(105627 74619.1 -1.34874e-13 933.359 1.63828e-13 26439.8)
(-388991 22708.4 -8.35821e-14 -4506.04 -4.29806e-14 -97634.6)
(-375529 34855.9 -1.06052e-13 4685.18 7.09509e-14 -92013.8)
(1.7892e+06 -4905.11 0 11811.1 0 446867)
(1.79317e+06 57893.9 0 798.85 0 445120)
(1.05216e+06 45795.4 1.63493e-14 -1842.3 7.8184e-14 260604)
(1.04439e+06 10230.4 5.25249e-14 4507.96 -1.47314e-13 260253)
(-1.08751e+06 12060 0 -8384.09 0 -271915)
(-1.05995e+06 45639.5 0 7386.46 0 -261161)
(30897.2 73535.9 -1.8585e-14 2791.44 5.32535e-14 8358.83)
(-77032.3 34641.9 1.98926e-13 -4904.25 -8.42293e-14 -20330.1)
(-290758 33150.3 -5.24481e-14 -3421.32 -1.93563e-14 -72991.9)
(2.36108e+06 3059.59 0 47820.9 0 597697)
(-41861.9 65497.7 -1.31167e-13 -2829.27 -3.28024e-15 -11088.8)
(-48946.4 68277 -1.88925e-14 -5161.82 -1.05122e-13 -13425.4)
(252672 84224.4 -6.77348e-14 -5582.71 -4.64333e-14 61307.8)
(-200511 83159.9 -1.41206e-13 -5685.52 5.91497e-14 -51161.4)
(242048 52484.6 4.10943e-14 -7143.76 -4.25126e-14 58284.6)
(-928751 43821.2 2.90564e-14 -8378.18 -5.92397e-14 -232521)
(933639 47603.8 -1.20284e-14 -9569.8 -7.24516e-14 229280)
(-1.59898e+06 71514.2 1.25905e-14 -9697.31 -5.41551e-14 -399145)
(-1.9244e+06 -171633 6.74747e-15 360758 -4.88264e-15 -387971)
(666077 95407.6 -1.07148e-14 -13978.9 1.33389e-14 161799)
(73018.8 90907.1 -7.02478e-15 -4245.86 3.95343e-14 17064)
(-876263 75001.2 -3.52327e-14 -4283.59 -9.8571e-14 -218481)
(735399 27844 -4.57537e-14 9002.6 6.59721e-14 184701)
(-511931 47219.3 5.05455e-14 -9084.94 6.48254e-14 -129275)
(397532 73594.4 7.57391e-14 4853.22 1.32042e-15 99839.9)
(73442.2 82765.9 2.10917e-14 3836.62 9.8736e-16 19174.4)
(128204 65306.3 -8.9203e-14 -1049.71 1.12073e-13 31549.6)
(-255817 56215.4 6.16271e-14 -16210.5 -6.55063e-14 -67495.7)
(-413388 107069 1.03248e-15 6664.17 8.24943e-14 -100917)
(-234047 56449.5 9.48054e-15 -15078.3 -6.61554e-14 -61813.1)
(-378293 103025 6.00382e-14 5812.82 -2.19452e-14 -92419.9)
(93139.3 48192.3 -3.78627e-14 -2620.78 1.17785e-14 22459.5)
(-43797 88288.1 -9.95929e-16 2430.19 -7.37474e-14 -10264)
(-28644.2 87778.6 9.1378e-14 2179.62 7.33167e-14 -6566.41)
(-19474 79988 4.7022e-14 476.657 -1.02429e-13 -4713.62)
(1.27743e+06 39497.6 2.74477e-14 3729.48 4.24716e-15 317883)
(-13233.3 88929.2 -1.03527e-13 -5800.93 -4.60308e-14 -4722.79)
(-50583.2 67530.6 5.1055e-14 -5564.8 -1.71026e-13 -13931.5)
(1.79117e+06 -48658.6 -1.36452e-14 -92639.7 -1.00005e-14 421439)
(289802 54347.6 5.44522e-14 -4910.24 -6.98655e-14 70687.5)
(-678666 92767.4 3.66797e-14 12332.7 9.91566e-15 -165331)
(-769981 58574.3 -5.95385e-14 1980.31 -2.60614e-14 -190557)
(-765195 28608.9 0 -8965.63 0 -192085)
(962887 17944.2 -5.36726e-14 5267.25 -2.55246e-14 240219)
(921523 66468.3 3.22243e-15 8251.59 6.39677e-14 230696)
(-30736.9 56725.3 -6.0397e-14 1465.03 4.9251e-14 -7262.95)
(-23387.9 57096.4 4.38199e-14 1756.7 -2.45085e-13 -5367.15)
(-612828 100056 -2.43137e-14 7230.78 -6.00445e-16 -150261)
(-825067 72401.3 0 10491.1 0 -202113)
(584585 47851 1.33299e-14 6608.89 3.29358e-14 146687)
(-1.51603e+06 88995 5.82348e-15 -6938.74 -1.85096e-14 -377880)
(51312.8 62418 0 12834.3 0 15916.2)
(825629 40921 -2.89578e-15 -2542.35 1.99725e-14 204225)
(625303 96678.6 -1.55571e-15 4936.73 7.60472e-17 156375)
(-391065 78263.5 1.12415e-13 4649.88 -1.4456e-14 -95877.5)
(-304050 54685.1 -1.09725e-14 -1597.78 7.92349e-14 -75837.5)
(-278653 75097.2 1.73709e-14 3321.14 -6.60677e-14 -68315.4)
(-217827 58168.1 -9.81912e-16 -1951.59 3.88158e-15 -54531.6)
(-314556 38002.3 4.06214e-14 951.675 6.00067e-14 -77811.7)
(-264650 43075 -7.10557e-14 4147.81 1.43067e-14 -64635.9)
(-321707 94031.4 0 1073.8 0 -79555.7)
(-362684 96166 -3.59968e-14 -855.961 3.1291e-14 -90201.6)
(-396165 99887.2 -2.94455e-15 -1097.09 -3.35873e-15 -98568.7)
(106830 63097.4 -1.74886e-13 1435.97 -8.7456e-14 26863)
(-21573.4 76184.2 -3.88156e-14 -2383.9 7.72947e-14 -5944.29)
(770328 38138.7 -2.19728e-14 4773.22 6.2517e-14 192318)
(806227 51229 3.04123e-14 -5688.5 -5.90569e-14 198630)
(134095 67455 6.29559e-15 174.473 -4.3624e-14 33314.9)
(195213 60758.8 0 2234.56 0 48990.8)
(-431146 96894 4.52564e-14 -2176.04 -4.9796e-14 -107516)
(378441 60157.3 -8.64828e-14 3750.36 -1.08246e-15 94829.6)
(413152 86905.4 -3.78549e-14 4176.66 -2.33999e-15 103548)
(-149809 72086.2 -7.18903e-14 -1375.1 1.03072e-13 -37511.7)
(-127393 75032.1 4.19495e-14 -2026.65 2.46434e-15 -32111.7)
(-184642 78391.5 6.80275e-14 -371.39 2.42045e-14 -45905.7)
(-205129 68049.1 0 -2071.2 0 -51410.6)
(-902469 41808.2 2.01423e-14 -398.208 -3.07802e-14 -224020)
(410154 69350.2 -3.29096e-14 -496.796 -1.30286e-13 101644)
(293046 68380.3 -1.50779e-14 -897.3 -2.15534e-15 72488)
(-100407 184358 -9.28953e-15 20103.6 -6.67067e-15 -19925)
(1.06543e+06 32111.7 -6.91653e-14 -7955.02 -4.14444e-14 262381)
(-1.24798e+06 11202 6.00004e-14 2012.64 3.59134e-14 -309150)
(-148509 171124 0 -5287.05 0 -38159.9)
(-149116 70932.2 2.51262e-14 2324.35 7.58736e-14 -36421.9)
(-126333 74651.5 -1.88993e-13 3884.29 -4.7955e-14 -30381.9)
(-216456 68323 8.15556e-14 1507.19 9.13724e-16 -53333.1)
(-186530 74567.6 0 2981.43 0 -45542.2)
(422626 57471.9 4.19242e-14 -3652.51 -6.74888e-14 103956)
(485475 78959.7 1.52932e-14 -3031.16 6.4849e-15 119704)
(392809 60622.1 -3.11218e-14 -7621.45 2.98037e-14 95573)
(458475 80924.3 3.31693e-14 -5358.05 9.17971e-14 112428)
(359130 59922.7 2.60034e-14 -6434.61 4.36693e-14 87510.8)
(419064 78603.8 -5.65379e-14 -4663.4 3.23215e-14 102821)
(332765 36598.6 2.56338e-14 381.643 9.68412e-14 82660.5)
(321097 22885.9 7.53825e-14 3184.17 1.61454e-13 80460.7)
(-646269 79263.7 -1.45864e-14 1060.66 1.91968e-14 -160089)
(297853 74031.6 -7.81159e-14 -3962.02 -1.8965e-15 72920.2)
(-716115 57735.4 0 6084.16 0 -176173)
(1.23775e+06 81496.8 4.25582e-14 -10861.1 -2.6787e-14 304416)
(-620081 36197.5 7.8727e-14 2352.65 -1.29443e-13 -153271)
(-452943 41036.3 9.5036e-14 549.778 -6.38854e-14 -112248)
(-1.4228e+06 -672615 -5.47627e-15 226167 1.22331e-15 -296910)
(42280.4 71709.7 1.06129e-13 357.577 -2.78794e-14 10579.4)
(1.31463e+06 46759.8 -1.42142e-14 -2946.63 -7.15421e-16 325454)
(-633135 53982.2 -2.20645e-14 2343.9 -6.39359e-14 -156512)
(-456604 52759 1.37708e-13 1770.82 6.77891e-14 -112853)
(1.97671e+06 -12759.9 2.32069e-14 -3945.98 1.03311e-14 489483)
(-88310.8 64187.9 -1.52217e-14 -1015.04 6.10825e-14 -22163.6)
(1.35653e+06 14669.9 3.54136e-14 4135.79 -2.20218e-14 337610)
(-316952 55343.1 4.76265e-14 1654.69 -8.39881e-14 -78231.7)
(-1.12724e+06 81854.3 2.87505e-14 11786.4 -3.74231e-15 -276768)
(-1.05965e+06 53229.4 -1.75636e-14 -6216.7 -1.34251e-15 -264464)
(1.02382e+06 54732.5 -3.32715e-14 1625.13 2.17804e-14 254435)
(-129252 73164.8 -2.08233e-13 5235.92 -9.48138e-14 -30770.9)
(-3125.05 -36121.1 2.22804e-16 -56630.6 7.92114e-17 -14826.6)
(-16668.5 68741.1 0 3032.94 0 -3383.25)
(-1.88774e+06 -602781 8.99114e-15 238362 -2.47893e-15 -409243)
(1.41859e+06 -671795 1.06374e-14 -227386 3.34593e-15 295563)
(-895538 84606.4 3.70328e-14 -7188.38 -3.59545e-14 -223985)
(307942 54041.8 1.59084e-14 2603.33 6.14414e-14 77052.5)
(425452 49017.5 -5.12468e-14 3474.86 1.16629e-13 106425)
(124982 69940.4 1.02477e-13 -1429.38 3.05296e-14 30655.8)
(-232330 16665.2 5.93953e-14 338.129 -9.1358e-14 -57561.8)
(206063 88395.4 -4.948e-14 -1297.66 4.52882e-14 50806.4)
(-105117 56057.1 1.46167e-14 958.345 2.24181e-14 -25843.9)
(-98409.5 99398 1.05757e-14 4057.19 3.07261e-14 -23410.7)
(-1.54428e+06 5604.07 -4.91465e-15 40982.5 1.17303e-14 -372997)
(12653 -21494.2 5.8463e-17 -37534.6 3.62872e-17 -6173.64)
(-522587 87527.8 -2.18822e-16 6519.21 4.14806e-15 -128047)
(409818 50346.3 3.70632e-14 -2532.48 1.14942e-13 101056)
(1.60576e+06 -311006 9.40943e-16 -42191.9 1.22898e-15 387953)
(-46837.2 55540.3 -9.53627e-15 -7916.46 -7.41548e-14 -13585.5)
(-52835.3 90651.2 7.56647e-15 -3606.29 7.23996e-14 -14004.3)
(-30311.3 79362.4 -1.29495e-15 290.278 -1.10974e-13 -7448.81)
(-79294.4 70113.6 -2.06455e-14 3365.6 2.81604e-14 -18839.5)
(34860.4 78304.7 3.30951e-14 -1195.94 8.55516e-14 8352.85)
(23198.5 81074.1 -7.77214e-14 -465.242 -2.5383e-14 5640.59)
(-1.61091e+06 -309262 4.03154e-15 40832 -1.24413e-15 -389568)
(558018 84697.1 -3.05787e-14 2004.78 1.65666e-14 138953)
(-195106 68750.4 -2.08016e-13 161.084 -5.90348e-14 -48369.7)
(650271 71751.1 1.09136e-13 4319.43 -1.84666e-13 162417)
(595608 70132.7 -1.31206e-15 4190.15 -7.07082e-14 148822)
(544308 67523 -2.01921e-13 2201.74 3.05084e-14 135600)
(95098.3 41978.9 -1.0165e-13 4115.36 -3.80409e-14 24616.9)
(-1.29216e+06 30790.7 5.49701e-14 -3443.47 -5.34064e-14 -321465)
(403407 54722.9 1.10253e-13 -2247.36 1.18932e-14 99535.8)
(570365 55959.1 -4.99328e-14 -2266.45 -7.14558e-14 140957)
(-111128 68820.3 -1.76164e-13 -410.939 -2.9713e-14 -27675.1)
(831670 92627.3 1.16691e-14 -11298.7 1.691e-14 203551)
(157772 54006.2 -7.12838e-14 -415.68 4.83006e-14 39043.2)
(-1.66916e+06 23752.1 -1.87213e-14 -2378.06 -6.94612e-15 -414743)
(47814.5 70563.7 -9.19234e-14 1890.82 -7.73644e-14 12332.9)
(-139955 74426.5 -1.82805e-13 1883.26 8.63574e-14 -34258.5)
(466700 57826.6 1.38552e-13 633.472 -1.99744e-14 115955)
(427372 57459.3 1.29294e-13 659.808 3.1461e-14 106203)
(390234 55736.2 -9.36541e-14 -1147.26 2.58203e-14 96540.4)
(867400 44781 1.40256e-14 167.979 2.95862e-14 215261)
(185866 73536.2 -6.17043e-14 2710.3 -1.32298e-13 46789.7)
(-473928 62461.9 4.23246e-14 -7215.22 9.50933e-16 -119381)
(-373594 110612 2.58902e-14 3509.28 2.89001e-14 -91825.5)
(-207552 47886.6 0 1469.12 0 -51133.4)
(-652895 81072.7 -5.68136e-14 -7093.34 1.72967e-14 -163757)
(-714434 83578.7 -8.55744e-14 -7887.78 -5.66973e-15 -179223)
(-779208 87465.9 -8.55056e-14 -9186.57 4.12123e-14 -195617)
(368049 56169.6 1.74691e-15 5863.48 2.173e-14 92775.4)
(252290 61498.6 2.74844e-14 4040.6 -3.44196e-14 63600.8)
(68769.5 9657.73 -7.99112e-14 3350.13 2.88322e-14 17894.3)
(131003 58479.1 0 -1819.8 0 32052.9)
(168874 47889.5 -9.35539e-14 1014.07 5.58538e-14 42152.8)
(1.94169e+06 -91088.6 -5.0473e-15 -257809 -2.43737e-15 417804)
(721603 39687.9 9.24358e-14 1012.91 -9.486e-14 179296)
(-552944 73649 0 982.098 0 -136953)
(-389283 67447.3 -4.57813e-14 7415 -2.01579e-15 -94749.2)
(311056 71289.1 2.44088e-14 -3457.42 -3.01919e-14 76321.5)
(-99445.3 82645.7 4.07643e-14 -2119.48 3.34507e-14 -25200.3)
(-13588.5 82527.9 1.20024e-13 -2159.33 -9.46133e-14 -3907.35)
(31675.7 59235.8 9.61301e-14 8136.66 -1.52196e-14 9878.25)
(34754 59557.9 -5.03485e-14 8773.12 -4.69156e-14 10800)
(-4959.86 103470 -2.52606e-15 -2775.57 -2.07243e-14 -1919.32)
(-8476.78 54745.1 -2.24117e-14 -756 7.53958e-14 -2290.84)
(-337.953 63253.7 -8.38872e-14 -1077.13 6.25271e-14 -351.111)
(11121.8 68493.7 8.01064e-14 -12973.1 -3.64045e-14 -459.337)
(139033 49510 -6.25663e-15 2130.94 -2.95426e-14 35025.6)
(-262977 106744 -1.47609e-15 1641.76 -1.4322e-14 -64842.7)
(82124.9 67679.9 2.00992e-13 804.589 -3.95644e-14 20576.5)
(10872.7 103620 8.47904e-15 -15427.9 1.21255e-14 -1130.23)
(-551502 103991 -2.1135e-14 -2193.98 -1.27083e-14 -137383)
(692227 49685.8 6.95776e-14 3301.32 6.21289e-14 172575)
(-296525 74897.3 -7.73595e-14 -197.981 2.53089e-14 -73623.1)
(-1.28738e+06 237756 -3.67638e-15 230283 2.21052e-15 -262288)
(-186176 46434.4 5.50659e-14 -2136.1 5.98232e-14 -46724.2)
(-305891 104506 0 3383.89 0 -75058.1)
(89369.1 67377.4 1.07249e-13 -547.086 -1.48194e-13 22038.5)
(137894 60652.3 5.67463e-15 -347.554 1.84354e-14 34128.1)
(1.41594e+06 -313312 -1.1405e-15 46047.9 2.00056e-16 362750)
(-1.93899e+06 10983.3 -1.56009e-14 11344.5 7.17281e-15 -478289)
(592676 55215 3.40183e-14 4131.41 2.86016e-14 148080)
(647530 55559.1 -3.45898e-14 3853.9 7.52754e-14 161622)
(-198227 73887.1 -2.54429e-13 2086.36 -9.08679e-14 -48666.5)
(136603 91171.6 4.49022e-14 8593.2 8.85488e-14 36026.1)
(-31016.6 65321.9 7.15785e-14 -3585 1.0897e-13 -8585.37)
(-803229 -521865 -9.75326e-16 59812.8 4.10375e-16 -184457)
(-1.88294e+06 65919.1 5.11821e-15 1845.92 6.60445e-15 -466737)
(1.6742e+06 34850.2 2.78197e-14 3196.28 -1.37318e-14 416196)
(-2.43305e+06 -40955.3 -7.23618e-15 -7005.89 -3.12331e-15 -605428)
(760082 49349.6 -3.10445e-14 -5512.3 -4.83017e-14 187224)
(527937 45255.8 -5.13594e-14 -4141.1 1.89271e-13 129964)