/*--------------------------------*- C++ -*----------------------------------*\
| =========                 |                                                 |
| \\      /  F ield         | OpenFOAM: The Open Source CFD Toolbox           |
|  \\    /   O peration     | Version:  2.3.1                                 |
|   \\  /    A nd           | Web:      www.OpenFOAM.org                      |
|    \\/     M anipulation  |                                                 |
\*---------------------------------------------------------------------------*/
FoamFile
{
    version     2.0;
    format      ascii;
    class       volScalarField;
    location    "0.16";
    object      k;
}
// * * * * * * * * * * * * * * * * * * * * * * * * * * * * * * * * * * * * * //

dimensions      [0 2 -2 0 0 0 0];

internalField   nonuniform List<scalar> 
9648
(
2.69339
2.70319
2.6935
2.68045
2.66392
2.64352
2.61906
2.59046
2.55779
2.52136
2.48161
2.43916
2.39472
2.34907
2.30295
2.25708
2.2121
2.16853
2.12677
2.08713
2.04981
2.01496
1.98264
1.95287
1.92561
1.90081
1.87839
1.85826
1.84033
1.82452
1.81075
1.79894
1.789
1.78085
1.77437
1.76948
1.7661
1.76413
1.76354
1.76427
1.7663
1.76964
1.77428
1.78023
1.78753
1.79618
1.80621
1.81768
1.83061
1.845
1.86094
1.87846
1.89756
1.91809
1.93983
1.96234
1.98507
2.00746
2.02923
2.05021
2.0703
1.70217
1.70248
1.70298
1.70743
1.71784
1.73556
1.76079
1.79364
1.83369
1.88028
1.93249
1.98934
2.04984
2.11303
2.17804
2.24415
2.3107
2.37716
2.44312
2.5083
2.57246
2.63547
2.69727
2.75783
2.81712
2.87523
2.93222
2.98815
3.04307
3.09713
3.15047
3.20317
3.25528
3.30692
3.35811
3.40887
3.45925
3.50932
3.55901
3.60823
3.65713
3.70577
3.75419
3.80238
3.85043
3.89827
3.94588
3.99336
4.04069
4.08744
4.13364
4.17932
4.22449
4.26874
4.31232
4.35497
4.3969
4.43743
4.47686
4.51527
4.55278
1.5068
1.56172
1.62532
1.69649
1.77513
1.86131
1.95438
2.05381
2.15849
2.26762
2.37979
2.49404
2.60928
2.72453
2.83888
2.95155
3.06195
3.16957
3.27404
3.37513
3.47271
3.56672
3.65718
3.74417
3.82786
3.90841
3.98604
4.06087
4.13316
4.2031
4.27087
4.33669
4.40075
4.46319
4.52412
4.58375
4.64212
4.69917
4.75504
4.80971
4.86319
4.9157
4.96721
5.01789
5.06776
5.11668
5.16466
5.2117
5.2577
5.30274
5.34671
5.38963
5.43168
5.47218
5.51206
5.55034
5.58776
5.62327
5.65808
5.69176
5.72441
1.54032
1.64553
1.76053
1.88358
2.01383
2.15058
2.29276
2.43916
2.58844
2.73942
2.89062
3.04093
3.18915
3.3345
3.47608
3.61324
3.7455
3.87253
3.99413
4.11022
4.22083
4.32596
4.42584
4.5207
4.61088
4.69669
4.77846
4.8565
4.93109
5.00251
5.07112
5.13715
5.20095
5.26264
5.32252
5.38072
5.43717
5.49227
5.54575
5.59797
5.64919
5.69913
5.74824
5.79639
5.84349
5.88974
5.93489
5.97912
6.02241
6.06474
6.10624
6.14651
6.18575
6.22376
6.26105
6.2971
6.33196
6.36562
6.39817
6.42965
6.45987
1.67255
1.821
1.97947
2.14592
2.31877
2.49687
2.67869
2.86254
3.04698
3.23037
3.41122
3.58821
3.76042
3.92706
4.08744
4.24087
4.38704
4.52587
4.65729
4.78149
4.89855
5.00864
5.11209
5.20925
5.30068
5.38687
5.46821
5.54513
5.61796
5.68704
5.75281
5.81564
5.87576
5.93365
5.98926
6.04288
6.09492
6.14483
6.19343
6.24069
6.28636
6.33124
6.37489
6.41768
6.45973
6.50056
6.54042
6.57907
6.61672
6.65336
6.68912
6.72387
6.7574
6.78973
6.82101
6.85133
6.88042
6.90835
6.93506
6.96042
6.9845
1.84753
2.03397
2.23085
2.43556
2.64557
2.85918
3.07453
3.28979
3.50312
3.71259
3.91673
4.11404
4.30391
4.48551
4.6587
4.82263
4.97699
5.12216
5.25803
5.38518
5.50387
5.61411
5.71662
5.81164
5.90007
5.98257
6.05962
6.13185
6.19933
6.26272
6.32246
6.37871
6.43233
6.48318
6.53169
6.57824
6.62261
6.66577
6.70701
6.74663
6.78523
6.82177
6.85775
6.89313
6.92743
6.9614
6.9941
7.02549
7.05581
7.08498
7.11325
7.14052
7.16668
7.19153
7.21528
7.23793
7.25953
7.27999
7.29905
7.31654
7.33282
2.04688
2.26743
2.49881
2.73745
2.97976
3.22397
3.46775
3.70912
3.94635
4.17652
4.39883
4.61107
4.81329
5.00461
5.18609
5.35581
5.51381
5.661
5.79692
5.92289
6.03941
6.14595
6.24401
6.33317
6.41508
6.49061
6.56019
6.62483
6.68424
6.73899
6.78999
6.83726
6.88147
6.92334
6.96227
6.9986
7.03422
7.06718
7.09926
7.13043
7.15863
7.18604
7.21192
7.23689
7.262
7.28606
7.30984
7.3324
7.35364
7.37367
7.3926
7.41055
7.4274
7.44281
7.45689
7.47011
7.48242
7.49359
7.50312
7.5109
7.51745
2.25928
2.51006
2.7722
3.04079
3.31103
3.58077
3.84824
4.11141
4.36813
4.6146
4.85081
5.07312
5.28302
5.47887
5.66474
5.83648
5.99438
6.14046
6.27253
6.39346
6.5046
6.6038
6.69489
6.77479
6.84672
6.91215
6.97102
7.02574
7.0741
7.11763
7.15772
7.19288
7.22575
7.25611
7.28286
7.30758
7.33032
7.35113
7.37151
7.39049
7.40834
7.42337
7.43716
7.45053
7.46231
7.47466
7.48635
7.49772
7.50771
7.5162
7.52351
7.5299
7.53547
7.53907
7.54135
7.54306
7.54351
7.54381
7.54184
7.53755
7.53264
2.47394
2.74833
3.03807
3.33011
3.62621
3.91591
4.20154
4.48471
4.75516
5.01554
5.26103
5.49198
5.70484
5.90069
6.0862
6.25712
6.41225
6.55468
6.68374
6.79666
6.8981
6.9876
7.06792
7.13885
7.19798
7.24921
7.29524
7.3375
7.37204
7.40208
7.42862
7.45078
7.4699
7.48593
7.498
7.50888
7.51581
7.52054
7.52531
7.52995
7.53287
7.53239
7.53391
7.53222
7.52869
7.52661
7.52188
7.51928
7.51405
7.50738
7.49819
7.48927
7.48087
7.47029
7.45849
7.44639
7.43113
7.4202
7.4042
7.38466
7.36651
2.08937
2.10742
2.12468
2.14119
2.15708
2.17259
2.18808
2.20296
2.21674
2.22984
2.24198
2.25379
2.26553
2.2774
2.28971
2.30315
2.31814
2.33495
2.35373
2.3746
2.39696
2.42036
2.44462
2.46944
2.49461
2.52024
2.54618
2.57246
2.59897
2.62576
2.65294
2.68039
2.70815
2.73635
2.76493
2.79387
2.82328
2.85322
2.88366
2.91453
2.94592
2.97794
3.01056
3.04374
3.0776
3.11197
3.14687
3.18244
3.21871
3.25556
3.29303
3.33121
3.3702
3.40978
3.45027
3.49161
3.53409
3.57748
3.62212
3.66816
3.71568
4.58947
4.62418
4.65795
4.69072
4.72232
4.75241
4.78038
4.80714
4.83216
4.85654
4.87937
4.90131
4.92227
4.94213
4.96085
4.97838
4.99487
5.01027
5.0246
5.03782
5.04999
5.06114
5.07116
5.08012
5.08796
5.09455
5.09973
5.10348
5.10585
5.10683
5.1064
5.10461
5.10151
5.09706
5.09131
5.08433
5.07608
5.06664
5.056
5.04416
5.0312
5.01715
5.00209
4.98597
4.96877
4.95044
4.93086
4.91009
4.88806
4.86479
4.84025
4.81435
4.78725
4.75849
4.72876
4.69748
4.66527
4.6317
4.59785
4.56366
4.52935
5.7555
5.78567
5.81449
5.8423
5.86905
5.89499
5.9187
5.94071
5.96093
5.98019
5.99808
6.01491
6.03043
6.04484
6.05795
6.06976
6.0803
6.08957
6.09753
6.10419
6.1096
6.11375
6.11664
6.11828
6.11868
6.11783
6.11571
6.11224
6.10743
6.10121
6.09364
6.08463
6.07422
6.06245
6.04931
6.03484
6.019
6.00183
5.98331
5.9635
5.94246
5.92027
5.89699
5.87267
5.84725
5.82068
5.7928
5.76359
5.73298
5.70097
5.66753
5.63241
5.59572
5.55729
5.51731
5.47547
5.43198
5.38714
5.34145
5.29508
5.24825
6.48899
6.51669
6.54317
6.56825
6.59214
6.61475
6.63563
6.65473
6.6723
6.68854
6.7033
6.71646
6.72813
6.73845
6.7473
6.75478
6.76085
6.76546
6.76859
6.77025
6.77049
6.7694
6.76698
6.76325
6.75817
6.75173
6.74392
6.73474
6.72421
6.7123
6.69897
6.68415
6.66785
6.65009
6.63093
6.61037
6.58835
6.56485
6.53986
6.51345
6.48575
6.45684
6.42691
6.39604
6.36428
6.33156
6.29767
6.26256
6.22617
6.18852
6.14945
6.10883
6.06665
6.02279
5.97718
5.9296
5.88022
5.82934
5.77751
5.72482
5.6718
7.00721
7.02861
7.04851
7.06679
7.08334
7.09843
7.11215
7.12471
7.13578
7.1454
7.15352
7.16018
7.1654
7.16913
7.17144
7.17239
7.17184
7.16978
7.16613
7.16091
7.15425
7.14626
7.13704
7.12664
7.11496
7.10197
7.0877
7.07216
7.05544
7.03757
7.01848
6.99797
6.97605
6.95272
6.92812
6.90217
6.87478
6.8459
6.81543
6.78343
6.75006
6.71546
6.67991
6.64363
6.60676
6.56933
6.53093
6.4916
6.45125
6.41002
6.36753
6.32358
6.27829
6.2314
6.18278
6.13193
6.07929
6.02493
5.96962
5.91335
5.85678
7.3477
7.36118
7.37305
7.38343
7.3921
7.39908
7.40451
7.40863
7.41134
7.4125
7.4123
7.41075
7.40777
7.4033
7.39737
7.39015
7.38158
7.37145
7.35961
7.34601
7.33088
7.31447
7.29694
7.27845
7.25881
7.2379
7.21577
7.19247
7.16832
7.14341
7.11776
7.0909
7.06288
7.03359
7.00334
6.97191
6.93907
6.90483
6.86894
6.83144
6.79248
6.7521
6.71077
6.66893
6.62687
6.58488
6.54211
6.49901
6.45517
6.41122
6.36631
6.31995
6.27267
6.22392
6.17376
6.12098
6.06649
6.00999
5.95298
5.89476
5.83627
7.52271
7.52659
7.52888
7.52955
7.5285
7.52566
7.52133
7.51593
7.50904
7.50038
7.49043
7.47938
7.46698
7.45308
7.43759
7.42111
7.40368
7.3847
7.36385
7.34084
7.31611
7.29017
7.2632
7.23563
7.20714
7.17732
7.14629
7.11389
7.08098
7.0479
7.01513
6.98145
6.94728
6.91203
6.87655
6.84022
6.80223
6.76298
6.7222
6.67985
6.63588
6.59007
6.54311
6.4957
6.44831
6.40206
6.35485
6.30829
6.26119
6.21555
6.16952
6.12161
6.07344
6.02389
5.97367
5.91982
5.86489
5.80731
5.75047
5.69188
5.63338
7.52625
7.51886
7.50975
7.49942
7.48735
7.47376
7.45864
7.44344
7.42692
7.40787
7.38759
7.36684
7.34471
7.32118
7.29526
7.26868
7.24251
7.21515
7.18599
7.15351
7.11851
7.08288
7.04604
7.00875
6.97143
6.93272
6.89278
6.85019
6.8068
6.7639
6.72359
6.68256
6.64264
6.60194
6.56276
6.52362
6.48149
6.43739
6.39255
6.34721
6.2998
6.2497
6.19802
6.14556
6.09295
6.04337
5.99152
5.94196
5.89147
5.84556
5.80043
5.75194
5.70407
5.65495
5.60646
5.55223
5.49828
5.44042
5.3859
5.32881
5.27286
7.34522
7.32452
7.30058
7.2776
7.25175
7.22819
7.20114
7.17665
7.1521
7.12507
7.09626
7.06764
7.03703
7.00633
6.96995
6.93137
6.89646
6.86288
6.83008
6.79221
6.74608
6.70275
6.65774
6.61038
6.56435
6.51811
6.47335
6.4225
6.36602
6.31076
6.26215
6.21243
6.16663
6.12075
6.08186
6.04499
6.00191
5.9525
5.90398
5.85858
5.81207
5.76012
5.70478
5.64931
5.5927
5.54175
5.48451
5.43248
5.37726
5.33381
5.29245
5.24386
5.19812
5.15177
5.10751
5.05323
5.00162
4.94357
4.89352
4.84007
4.79003
3.76469
3.81487
3.86639
3.91915
3.97314
4.02839
4.08475
4.14226
4.20076
4.26075
4.32135
4.38305
4.44819
4.53191
4.60512
4.67884
4.75339
4.82871
4.90492
4.98212
5.06019
5.13912
5.21886
5.29927
5.38012
5.46117
5.54231
5.62335
5.70408
5.78417
5.86352
5.9418
6.01858
6.09366
6.16668
6.23707
6.30445
6.3668
6.41885
6.45669
6.48178
6.49457
6.49486
6.48191
6.45468
6.41174
6.35122
6.27084
6.16796
6.03946
5.8817
5.69033
5.46055
5.18552
4.87185
4.29552
4.01762
3.87675
3.82196
3.80172
3.76286
4.49467
4.45997
4.42477
4.38906
4.35267
4.31608
4.2789
4.24178
4.20447
4.1692
4.12686
4.08262
4.04207
3.99663
3.95495
3.91322
3.87101
3.82869
3.78641
3.74429
3.70235
3.6604
3.6184
3.57641
3.53442
3.4925
3.45068
3.40912
3.36787
3.32701
3.2867
3.24706
3.20824
3.17046
3.13399
3.09913
3.06639
3.03622
3.00986
2.98739
2.96712
2.94921
2.93413
2.92245
2.91508
2.91292
2.91698
2.92854
2.94902
2.97963
3.02156
3.07583
3.14348
3.22762
3.3152
3.44802
3.61893
3.88381
4.25708
4.74301
5.14424
5.20124
5.15413
5.10659
5.05819
5.00867
4.95836
4.90725
4.85548
4.80306
4.74735
4.68317
4.62103
4.56278
4.5062
4.45147
4.39621
4.33955
4.28193
4.22371
4.16516
4.10633
4.04701
3.98721
3.92696
3.86623
3.8051
3.74359
3.68174
3.61954
3.55702
3.49417
3.43101
3.3676
3.30395
3.24014
3.17627
3.11242
3.04872
2.98536
2.92244
2.85984
2.79728
2.73578
2.67575
2.61754
2.56175
2.50928
2.46135
2.41963
2.38626
2.364
2.35635
2.36795
2.40446
2.46846
2.57142
2.7158
2.93025
3.25677
3.7428
4.3775
5.6187
5.566
5.5131
5.45949
5.4045
5.34872
5.29209
5.23477
5.17636
5.11131
5.04002
4.97235
4.90868
4.84809
4.78919
4.73005
4.66959
4.6083
4.54644
4.48435
4.42196
4.35893
4.29542
4.23153
4.16719
4.10254
4.03755
3.97227
3.90661
3.84056
3.77409
3.70723
3.63999
3.5724
3.50451
3.43639
3.36809
3.29963
3.23103
3.1623
3.09339
3.0242
2.9538
2.88281
2.81154
2.7401
2.66876
2.59795
2.52837
2.4611
2.39758
2.33998
2.29123
2.2552
2.23563
2.23847
2.27124
2.35032
2.50337
2.77072
3.1903
5.80004
5.74417
5.68841
5.63216
5.57407
5.51517
5.45531
5.39504
5.33337
5.2646
5.19089
5.12137
5.05573
4.99357
4.93287
4.87214
4.81022
4.74799
4.68549
4.62303
4.56035
4.49682
4.43291
4.36879
4.30428
4.2396
4.17467
4.10953
4.04398
3.97802
3.91162
3.84486
3.77777
3.71044
3.64292
3.57532
3.5077
3.44011
3.37253
3.305
3.23749
3.17003
3.10242
3.03394
2.96476
2.89488
2.82437
2.75328
2.68177
2.61017
2.53889
2.46855
2.40014
2.33497
2.27466
2.22205
2.18278
2.167
2.19061
2.27718
2.45762
5.77713
5.71964
5.66259
5.6054
5.54543
5.48469
5.42266
5.36107
5.29838
5.2298
5.15644
5.08746
5.02207
4.96057
4.89987
4.83931
4.77746
4.71617
4.65496
4.59423
4.53339
4.47125
4.40907
4.34708
4.28474
4.22248
4.15996
4.09735
4.03416
3.97055
3.90641
3.84204
3.77744
3.71283
3.64822
3.58379
3.51956
3.45565
3.39203
3.32876
3.26585
3.20338
3.1413
3.07945
3.01723
2.95435
2.89084
2.82676
2.76213
2.69704
2.63158
2.56579
2.49968
2.43332
2.36662
2.30018
2.23626
2.17989
2.13956
2.12798
2.16341
5.57272
5.51493
5.45801
5.40186
5.34089
5.27948
5.21609
5.15497
5.09342
5.02828
4.95691
4.89026
4.82659
4.76787
4.70871
4.65009
4.58945
4.53079
4.47239
4.41499
4.3576
4.29792
4.23916
4.18151
4.12328
4.06547
4.00707
3.94889
3.88962
3.82996
3.76952
3.70928
3.64894
3.58908
3.52935
3.47019
3.41142
3.35335
3.29584
3.23915
3.18317
3.12812
3.07394
3.02059
2.96786
2.91499
2.86161
2.80774
2.7535
2.699
2.64429
2.58933
2.53396
2.4778
2.42026
2.3608
2.29947
2.23789
2.17962
2.13075
2.10077
5.21146
5.15433
5.09904
5.04644
4.98564
4.92504
4.86104
4.80229
4.74401
4.68529
4.61702
4.55381
4.49247
4.43846
4.38176
4.32675
4.26801
4.21348
4.15904
4.10586
4.05292
3.99597
3.94182
3.891
3.83844
3.78636
3.73288
3.68051
3.62572
3.57076
3.51446
3.45964
3.40475
3.35135
3.2979
3.24563
3.19354
3.14278
3.0929
3.04462
2.99733
2.95163
2.90735
2.86417
2.82198
2.78078
2.73908
2.69688
2.6546
2.61243
2.57064
2.52919
2.48793
2.44637
2.40385
2.35947
2.31251
2.26277
2.21109
2.15966
2.11259
4.72912
4.67238
4.62065
4.57442
4.51535
4.45681
4.39279
4.33862
4.28582
4.23626
4.17203
4.11233
4.05255
4.00531
3.95104
3.90141
3.84468
3.79596
3.74612
3.69662
3.64842
3.59336
3.54491
3.50503
3.45869
3.4115
3.36229
3.31692
3.26543
3.21472
3.16124
3.11344
3.06442
3.01905
2.97222
2.92775
2.88151
2.83859
2.79716
2.7587
2.72138
2.68617
2.65304
2.62108
2.58911
2.55804
2.52707
2.49527
2.46484
2.43471
2.4073
2.38083
2.35601
2.3313
2.30655
2.28043
2.25234
2.22135
2.18741
2.15011
2.11089
3.67554
3.5783
3.47481
3.36588
3.25769
3.15353
3.05528
2.96503
2.88469
2.81522
2.75663
2.70839
2.66944
2.63842
2.61397
2.59488
2.57997
2.56833
2.55939
2.55271
2.54798
2.54498
2.54353
2.54353
2.54492
2.54762
2.55159
2.55676
2.56308
2.57043
2.57868
2.58768
2.59726
2.60719
2.61724
2.62717
2.63671
2.64558
2.65354
2.66039
2.66592
2.67003
2.67271
2.67406
2.67427
2.67368
2.67266
2.67161
2.67093
2.67104
2.67216
2.67439
2.67767
2.68192
2.68676
2.69179
2.69644
2.7003
2.70271
2.7031
2.70082
5.13777
5.05475
4.92557
4.74116
4.54254
4.33617
4.123
3.90754
3.6977
3.49954
3.31671
3.15243
3.00724
2.87941
2.76724
2.67001
2.58635
2.51452
2.45267
2.39974
2.35498
2.31751
2.28642
2.26092
2.2403
2.22404
2.21169
2.20295
2.19761
2.19533
2.19558
2.19783
2.20159
2.20626
2.21128
2.21602
2.21975
2.22188
2.22163
2.21823
2.21088
2.1988
2.1812
2.15735
2.12692
2.09001
2.04721
1.99989
1.95013
1.90064
1.85428
1.81367
1.78079
1.75643
1.74011
1.73052
1.72519
1.72165
1.71809
1.71419
1.709
4.89734
5.26545
5.46713
5.4881
5.34859
5.15268
4.90976
4.63846
4.35901
4.0813
3.81434
3.56714
3.34407
3.14715
2.97615
2.82952
2.70377
2.59492
2.50051
2.41985
2.35213
2.2959
2.24962
2.21189
2.18141
2.15694
2.13739
2.12211
2.11078
2.10281
2.09755
2.09436
2.09252
2.09123
2.0897
2.08715
2.08278
2.07578
2.06528
2.05041
2.03032
2.00426
1.9716
1.93184
1.88469
1.8301
1.76838
1.70035
1.62762
1.55285
1.48003
1.41426
1.36089
1.32405
1.30564
1.30518
1.31991
1.34638
1.38065
1.41937
1.46089
3.71962
4.3069
4.87287
5.32733
5.56311
5.6178
5.51794
5.29635
5.01653
4.70386
4.38007
4.06957
3.78204
3.52527
3.30189
3.10945
2.94304
2.79742
2.67073
2.56231
2.47121
2.39606
2.33491
2.2854
2.24526
2.21283
2.18709
2.16721
2.15223
2.14115
2.13333
2.12819
2.12498
2.12275
2.12055
2.11743
2.11242
2.10454
2.09276
2.07603
2.0533
2.02363
1.98619
1.94034
1.88564
1.82204
1.74984
1.66983
1.58338
1.49274
1.40132
1.31413
1.23767
1.17944
1.14621
1.14189
1.16567
1.21353
1.27956
1.35795
1.44489
2.75169
3.1697
3.69943
4.29197
4.84764
5.28687
5.55608
5.62961
5.53633
5.31438
5.00467
4.67057
4.33435
4.01732
3.73452
3.48628
3.27072
3.08245
2.91754
2.7761
2.65695
2.55884
2.47967
2.41608
2.36457
2.32251
2.28848
2.26163
2.24094
2.22519
2.21365
2.20578
2.20082
2.19771
2.19539
2.19279
2.18882
2.18238
2.17232
2.15739
2.13638
2.1082
2.07183
2.02647
1.97149
1.90675
1.8324
1.74913
1.65801
1.56094
1.46079
1.36194
1.27061
1.19513
1.14565
1.13112
1.15456
1.2138
1.30193
1.41113
1.53544
2.26697
2.4616
2.76651
3.18864
3.70426
4.26336
4.79375
5.21439
5.47024
5.545
5.45062
5.22962
4.92449
4.58413
4.25699
3.95247
3.68105
3.44174
3.22909
3.04503
2.88991
2.76272
2.6608
2.57949
2.51405
2.46057
2.41672
2.38104
2.35252
2.33013
2.31305
2.30081
2.29271
2.28755
2.28417
2.2814
2.27805
2.27292
2.26475
2.25215
2.23374
2.20832
2.17471
2.13199
2.0793
2.01642
1.94339
1.86079
1.76944
1.671
1.56797
1.46433
1.36585
1.2807
1.21992
1.19531
1.2145
1.27905
1.38327
1.51775
1.67414
2.10287
2.15407
2.27426
2.48341
2.79446
3.20692
3.69817
4.21974
4.70557
5.08805
5.31708
5.37737
5.28668
5.07818
4.7993
4.48349
4.1732
3.88606
3.61691
3.37808
3.17523
3.0094
2.87811
2.77405
2.69043
2.62154
2.56441
2.51753
2.47966
2.4485
2.42382
2.40523
2.39219
2.38332
2.37738
2.37308
2.36916
2.3643
2.3572
2.3463
2.33009
2.30726
2.27655
2.23688
2.18718
2.12718
2.05678
1.97654
1.88707
1.78991
1.68734
1.58311
1.48273
1.394
1.32779
1.29729
1.31356
1.38222
1.49985
1.65639
1.84118
2.07658
2.06132
2.07993
2.1486
2.28486
2.50407
2.81464
3.21033
3.66697
4.13884
4.56724
4.89754
5.09752
5.15322
5.07933
4.90166
4.65761
4.37818
4.07211
3.77881
3.5188
3.30428
3.13695
3.00467
2.89786
2.80881
2.73395
2.67239
2.62288
2.58137
2.54675
2.51941
2.49936
2.4848
2.47452
2.467
2.46105
2.45504
2.44787
2.4376
2.42281
2.40193
2.37382
2.33715
2.29066
2.23391
2.16691
2.08999
2.00376
1.90953
1.8096
1.70737
1.60823
1.51981
1.45256
1.42018
1.43603
1.50929
1.63893
1.81511
2.02499
2.07234
2.03884
2.01782
2.01888
2.05469
2.13965
2.28845
2.51204
2.81297
3.18259
3.59032
4.00162
4.37408
4.67093
4.86049
4.93309
4.88821
4.7348
4.51069
4.21928
3.91158
3.64851
3.4448
3.28237
3.1463
3.03139
2.93224
2.85157
2.78728
2.73256
2.68666
2.64738
2.61784
2.59512
2.57843
2.56555
2.55607
2.54699
2.53865
2.52746
2.51342
2.49334
2.46771
2.43354
2.39053
2.33695
2.27432
2.20098
2.11925
2.02885
1.93338
1.8349
1.73938
1.65455
1.58957
1.55821
1.57531
1.65357
1.79265
1.98547
2.21457
0.201633
6.14095
5.81242
0.300865
0.231386
0.113636
0.00322113
2.30257
0.0032937
0.022814
4.20975
1.01262
0.00321889
6.43742
0.099056
5.24832
0.00324172
2.41507
4.49103
0.00326508
0.341514
6.31712
5.91989
0.00334958
0.00326201
0.102408
0.00325722
0.520227
0.00322997
0.00334129
0.410344
0.00355351
0.016284
3.27845
0.735851
4.35473
3.65016
1.52409
0.00319637
3.16721
1.89312
1.64835
0.00319938
4.52197
3.85759
0.262635
0.00328108
0.0137182
0.456859
1.04067
6.90969
7.61901
0.00317422
0.0037568
0.0411097
0.0130125
0.00333386
0.691423
3.51689
7.19842
2.69726
0.00354929
0.834055
0.0298484
6.20549
1.33666
3.08081
1.71788
0.00448639
0.00321181
2.18735
2.49462
1.72141
0.0361439
0.0402778
4.90516
6.48788
3.14838
0.0031536
0.881163
0.00648743
3.30385
0.0246828
4.64095
0.00321696
1.04125
0.00328542
2.87882
0.0172301
0.00458102
0.108743
0.00315139
0.00359395
7.39657
5.22772
0.00344221
0.414442
0.173698
0.00608099
6.45148
0.852032
1.24472
0.735495
0.00315144
0.00317872
0.00316622
0.29859
0.121044
0.00328085
5.93569
6.65212
0.0114822
5.28664
1.92052
2.57909
3.50038
2.73363
0.00404252
0.0779382
0.00360297
0.0036269
4.11281
0.00545986
7.27288
7.63416
1.01051
0.00320657
0.943382
0.947985
0.00320111
0.0338696
0.0314724
1.76139
0.00456365
3.86728
0.00321447
0.00317671
7.58434
7.64199
0.00320507
0.0941916
5.42339
0.102831
0.292989
2.04133
4.63043
0.266663
2.21697
0.0113963
6.91626
1.85064
0.0132229
2.74214
4.5797
6.11379
0.00323015
0.00320587
0.200792
0.00323447
3.07831
0.152079
0.00511824
0.00321051
0.00320977
0.00323632
2.69836
1.76145
1.57262
0.00376046
6.89519
5.29789
3.15809
4.94274
0.0140082
4.56579
2.2768
2.7741
0.0031971
0.00527693
3.15419
3.87906
1.68123
3.43414
0.00320298
0.0033901
5.60624
0.0337503
0.542258
0.00323463
0.00326299
0.100223
0.003462
7.54438
0.624169
0.00321586
0.235176
1.9052
4.83961
0.00460613
3.02654
0.00320674
0.00320968
3.98833
2.25112
7.17043
0.00465421
0.0033001
0.00864725
2.54888
3.24863
1.06406
4.52503
2.21076
6.7781
0.190419
4.13473
3.90053
1.54357
1.28899
3.01126
0.00397995
0.0350505
0.00320455
0.00343284
2.76483
0.016688
0.0186082
0.00428574
0.0131632
2.69667
5.46096
0.0187658
5.46865
0.993014
0.153835
0.00318518
0.123608
2.60471
0.954056
0.0042988
0.552914
1.14225
0.182942
0.489197
7.15356
0.780652
0.491786
4.97314
0.00387272
0.00317866
0.00380853
0.0107011
2.54402
0.00326714
0.00490428
0.00318971
0.375637
2.82989
4.78883
3.53883
1.90021
1.34693
7.48837
0.00451334
3.2163
4.66264
0.00320068
2.65081
0.00321631
4.48686
0.373941
2.13259
0.00498141
0.00321353
1.81278
0.513131
0.00323861
0.0032058
0.00321915
0.00324422
0.342963
1.61158
2.81042
0.0168138
0.00324031
0.00318092
0.00315097
4.5573
0.144597
0.00416227
1.47884
0.0837922
0.0487052
0.00316098
0.256729
0.00323957
0.0332731
1.46654
5.29862
1.06039
0.00352436
0.00548802
3.13681
0.120094
1.97714
7.45673
0.00343811
0.00319367
0.00318756
5.6416
0.00324616
4.46821
0.00321756
1.64466
2.0227
0.0271692
3.6836
4.66757
0.00434401
3.53605
3.38155
1.65056
3.56524
1.14831
7.63632
3.24133
2.67741
4.56629
4.31559
1.71246
0.144303
7.56393
7.22389
3.7936
2.80852
0.00537294
6.8477
3.51037
6.71744
0.0261478
0.00346099
0.00320549
0.00333065
0.17591
0.398377
0.404491
0.0842704
0.00320641
5.85211
0.00320765
1.85196
1.77989
6.23666
1.75581
1.69936
0.00528125
0.00399854
0.114485
3.65602
0.00957684
0.738114
5.85375
3.07921
3.99711
5.78357
3.5029
0.00334471
7.2382
5.20108
1.74455
0.00321034
6.08933
5.48098
0.00326585
2.61447
0.00321217
7.03573
5.64869
2.55057
3.99199
3.24928
5.48435
0.00333673
5.49357
0.00367057
4.42479
3.86729
2.76782
7.21114
0.658132
0.204347
0.532335
0.00399428
4.46649
0.937359
0.00786907
0.00925079
5.11738
0.00364952
4.21386
0.00320404
0.0032125
0.00607231
1.80595
0.0944186
1.69482
0.0041893
4.05396
0.149501
6.32024
4.93777
2.47777
6.643
0.00350555
7.21789
2.77171
0.00319096
3.79604
1.90738
0.00316675
0.00317986
4.355
0.00655361
1.31432
0.110815
3.18349
0.0250757
0.546977
2.46893
4.28759
2.25605
3.15496
3.49281
0.00550995
0.0291804
2.64152
1.27201
7.48196
6.84434
4.82711
0.0599108
4.91785
4.89309
0.493636
1.78254
2.65151
1.92225
0.00414981
3.98633
7.69651
0.00400555
4.64406
1.78708
2.67552
0.0214686
0.0618809
6.59118
0.00524589
7.47355
0.00432655
0.263405
0.00320833
0.966102
2.37823
0.21959
0.00448184
0.00400747
3.53602
2.11903
0.483728
0.434977
6.41755
4.1198
0.0073377
1.34817
2.20501
4.09915
1.93719
4.33077
2.80293
5.4159
3.10084
0.812234
2.04004
7.36344
1.92443
7.56436
5.9163
0.0766621
4.1267
3.65836
0.00348694
1.89737
2.0544
1.98544
0.0175024
3.91572
1.46071
0.637548
1.92748
0.00547949
0.00321098
0.196588
1.15403
3.9132
3.69816
0.00321865
0.00322151
0.00319461
2.3682
0.0286221
0.00320444
0.113466
3.53198
5.60436
0.00968125
0.00982439
0.00317372
0.00320591
0.00523052
1.74965
1.7457
1.25713
0.445453
7.30644
6.20949
0.00531995
2.58349
2.71225
2.74348
3.83364
7.41684
0.00351285
0.00975966
0.00320496
3.97539
0.22071
0.00318037
1.28159
0.149042
7.36189
0.00323806
7.49362
1.05752
0.0388937
6.38426
0.00319672
0.00318332
0.00377078
7.66204
3.11608
5.1087
5.51091
0.454427
2.73531
0.0031558
0.0055589
0.118526
0.0110343
0.0234828
1.96457
3.20284
0.00320606
1.28227
2.93857
6.02067
7.66062
0.00732801
7.6308
0.00547435
0.0273642
4.45362
0.0031895
5.43979
0.00323849
0.00328021
0.023801
2.79197
0.5968
2.539
1.89285
0.00348643
2.55004
4.83858
0.297432
0.362973
1.23615
0.00324694
0.00321924
0.00686632
5.22114
0.539998
0.0035504
7.07286
6.47758
6.55937
0.145748
3.1282
0.00443739
2.23449
0.124337
0.0832961
3.56208
2.67121
1.90692
5.95731
0.00330543
0.00315908
0.00922159
3.9189
4.24826
0.891313
0.0126015
0.00323846
0.00319795
0.00816187
0.0301183
0.00602149
3.24321
2.25501
0.0117512
2.03007
5.84898
0.00325132
3.20955
0.00321623
0.445797
0.00324471
0.0209993
1.77924
0.0188054
0.00320487
0.701872
7.68718
6.83596
0.0032266
0.00319392
0.360115
0.0382361
0.00321201
3.72559
0.00353245
2.72343
7.69632
2.26574
1.7488
2.43285
4.57453
7.49773
0.00319717
0.0074327
0.0175568
4.82181
1.45719
6.17169
0.812808
0.379421
4.71829
4.45099
4.63189
2.40904
2.18224
0.00321898
0.321773
2.23378
2.41115
4.43393
1.53291
0.14133
2.45974
0.100274
0.0224234
2.31108
0.00320378
5.61724
0.00348334
0.379377
7.30566
2.93334
0.513782
0.00702275
0.758139
0.00323143
0.00318745
0.096294
0.0204786
2.44878
0.0138836
2.47186
0.00321917
0.0249059
0.00318037
4.33081
0.00905553
4.67409
2.49744
0.0201
1.92125
7.55812
0.00321506
1.72016
5.16614
0.00345399
7.27032
0.0891202
0.00406353
0.00324428
7.01425
0.00318132
0.00404754
0.0790954
0.0991535
7.2458
7.13441
0.00322054
0.00320553
2.08035
2.14857
0.0133414
0.412188
1.92134
0.0032113
0.00365003
0.00333932
5.87461
7.15403
0.490707
7.09952
0.0239164
2.06128
0.00352032
0.0131198
0.0226862
0.0367065
0.00321032
6.99234
0.00319846
0.0229005
0.00324093
1.24367
0.020689
0.0466159
0.362709
0.672046
3.04415
0.322828
1.04234
2.71448
4.92953
0.0033899
5.52098
7.50807
1.12323
3.82254
0.0032866
5.0392
3.57963
0.00320333
7.49897
3.45098
0.00947137
0.0186797
5.7068
5.53436
0.138131
7.44414
7.45228
0.760353
7.3892
6.96817
4.80053
3.04228
1.2371
1.06767
7.0663
7.24419
0.020159
7.26516
2.2097
4.70842
0.00342728
0.33081
0.157117
6.65678
5.67391
0.0183849
4.43466
6.26168
0.491972
0.0387524
0.382848
2.73738
0.00492731
2.76341
7.06869
0.0333085
6.60836
1.1883
4.26493
6.20124
0.00320423
0.0056788
0.971127
0.6956
0.0190608
0.0032133
0.191979
0.264052
0.00434986
0.00323633
4.74313
0.919268
2.82704
1.00791
0.00768788
0.00392969
0.337347
4.16831
0.00335988
1.72517
2.15246
0.450249
2.39016
0.00382417
0.119106
0.00319416
0.499579
4.13762
0.00352002
0.112342
3.18081
5.2727
0.211113
3.89463
0.593874
0.0953757
0.00387734
2.21814
7.5355
0.00319978
0.00321107
5.48505
0.0221472
0.00323541
3.6299
0.319672
1.92973
2.85701
1.47639
0.133025
1.6535
4.25531
5.37379
5.061
0.00323776
6.19607
0.00361858
1.35962
0.00379969
0.00375563
3.22767
0.00662301
4.52021
0.0203736
0.0361318
1.85196
0.724908
0.558991
0.00350764
6.04387
0.00349026
0.00318209
7.61446
5.68504
2.69875
2.61927
0.00332371
0.00316412
1.7711
5.47427
0.00316332
6.22645
1.68992
0.00321429
5.81687
0.00317635
0.362226
0.885302
1.28138
0.322113
1.59449
1.98193
0.0031757
7.11553
7.36799
0.00319737
0.0183203
2.82556
0.00318152
6.82961
5.53036
4.69811
0.00320046
0.00317896
4.15707
0.049898
0.00350147
1.82977
1.72046
4.76313
0.00317385
0.00343255
0.0222384
0.0192551
0.003208
0.0065009
5.01254
3.65804
0.0032046
1.19134
0.00321033
0.717094
0.00436143
0.00345388
2.10732
0.00319276
0.0931324
0.0031803
2.65547
1.47803
1.5367
6.09684
4.79144
4.54666
0.756092
2.35087
0.00323537
0.853983
7.20158
4.11818
0.0978573
0.00337305
5.08315
0.00320686
0.128495
0.00318205
7.24529
0.786834
0.373065
6.14787
2.22006
0.48991
3.96718
0.71869
6.63129
4.40698
0.00324798
0.00341548
0.00749184
0.00358129
0.0214275
3.93863
0.00388928
6.79578
0.00552992
0.0417006
0.535564
5.38417
0.00508455
2.55064
0.0186703
2.56567
2.26273
7.08761
0.00383635
0.00398805
1.26652
3.58768
1.65916
3.52594
0.379074
1.91112
1.39517
0.0498307
0.72287
0.448662
2.70709
0.00321129
4.69704
0.379764
3.02852
0.00327095
2.94367
0.990688
0.00393336
1.64314
1.69708
0.0593876
0.0032082
0.00320275
5.62938
2.73617
2.15706
0.00317348
0.0160645
3.12815
6.14143
0.660757
0.0114747
0.00317433
5.20422
5.07037
3.0842
2.47604
0.00319572
4.35303
7.4407
0.00321014
0.0032159
1.24512
0.00357059
0.00899341
0.0603328
1.94812
0.00436322
3.1276
7.54015
0.00335739
0.00354537
0.00318216
0.0032305
3.55116
4.84313
7.56711
0.0265558
2.19353
3.30309
0.0840935
2.74334
0.00409525
2.73463
0.212348
2.8621
0.679673
1.65325
3.98695
0.0438485
0.00323768
5.71642
4.66939
5.2434
0.834649
2.28659
0.170142
1.02368
0.00883608
0.00447617
4.27216
5.35517
0.0300181
0.356986
0.00321914
0.0711324
1.75953
0.0286698
1.03726
2.28275
3.92665
2.78642
0.423474
6.84799
5.27541
3.71929
1.52235
4.99588
4.37529
0.551054
2.54958
0.00619708
2.72105
2.82382
0.00320202
0.00318403
0.0927521
0.00320655
0.00345344
3.7707
4.9188
0.00320618
4.08566
0.00320079
0.00318783
0.00317864
0.00337045
0.00576763
2.57144
2.30622
6.95509
0.00322164
0.00340282
0.88781
0.00341699
0.0325664
0.00324546
0.00333738
5.20386
0.00374741
0.0102141
3.04978
0.00989405
0.00321656
4.74184
0.00320377
0.00323239
0.538986
0.00344766
2.08575
0.00490445
0.0275107
0.00320303
0.0032642
7.36783
7.58632
2.43509
0.0269142
3.83831
1.45111
0.00502516
2.41876
4.69491
6.77509
4.80403
0.00327293
1.34586
2.52892
0.133771
2.59202
4.76408
0.165871
2.71871
0.208732
2.62204
0.226698
0.978393
0.00323441
6.44735
0.00378291
2.76548
2.31589
0.00321245
0.296794
0.00658258
0.0159052
0.00321381
0.718268
0.00351211
0.00325332
3.31131
0.00878342
0.100497
6.71748
1.91481
0.00360338
0.00400719
2.24696
7.04891
0.00319615
0.0032187
0.0759
1.36739
5.38163
0.00662751
1.52734
0.00320132
0.00334393
0.00316812
0.0323141
1.00208
0.0101243
6.75347
2.33881
7.03831
5.85624
0.00339047
7.18001
3.54436
0.00318541
0.00322604
0.00321836
0.00412576
0.00319313
4.64786
0.00320648
0.00320017
7.03432
0.297573
0.00697662
0.0135139
2.69246
0.898074
0.0201776
0.00338166
6.14305
0.00324522
1.08139
0.00329887
0.00340877
5.7298
5.40899
0.00799641
0.00396304
1.74328
0.00320382
7.06861
0.00328518
5.25918
0.0184919
0.732123
0.172025
0.37523
0.665563
1.51523
0.00324164
0.0034317
0.0103219
2.87355
0.0988545
7.36426
0.00320697
0.00494163
0.0051791
7.01606
2.76764
3.18481
0.00694023
0.00904071
0.208022
0.00322117
2.8571
2.41246
0.0154197
6.43195
5.99417
3.35501
0.00511932
0.359865
3.12372
6.62929
2.65469
0.0185506
3.98777
0.491715
4.93707
0.0840266
0.481518
2.26239
0.00324354
2.51425
0.00423586
0.0106639
0.00986114
0.0444283
0.00353289
1.23331
0.00321497
2.67183
0.0908296
0.00336071
0.449707
0.00323217
0.254341
0.106186
3.23481
0.465399
5.08029
0.216537
0.00321411
0.0031684
2.36077
0.0818657
2.68291
7.05745
0.00322155
3.64038
2.52569
0.0206964
2.02417
1.80435
3.12869
2.79901
0.0444343
0.00541579
7.23134
1.54275
5.68984