/*--------------------------------*- C++ -*----------------------------------*\
| =========                 |                                                 |
| \\      /  F ield         | OpenFOAM: The Open Source CFD Toolbox           |
|  \\    /   O peration     | Version:  2.3.1                                 |
|   \\  /    A nd           | Web:      www.OpenFOAM.org                      |
|    \\/     M anipulation  |                                                 |
\*---------------------------------------------------------------------------*/
FoamFile
{
    version     2.0;
    format      ascii;
    class       volScalarField;
    location    "0.16";
    object      nut;
}
// * * * * * * * * * * * * * * * * * * * * * * * * * * * * * * * * * * * * * //

dimensions      [0 2 -1 0 0 0 0];

internalField   nonuniform List<scalar> 
9648
(
0.000272004
0.000272496
0.000272
0.000271364
0.000270557
0.000269515
0.000268257
0.000266793
0.000265118
0.000263229
0.00026114
0.000258908
0.000256548
0.000254084
0.000251574
0.000249066
0.000246582
0.000244139
0.000241769
0.000239505
0.000237353
0.000235324
0.000233434
0.000231676
0.000230046
0.000228555
0.000227202
0.000225983
0.000224888
0.000223924
0.000223081
0.000222353
0.000221734
0.000221225
0.000220812
0.000220503
0.000220299
0.000220186
0.00022016
0.00022021
0.000220337
0.000220544
0.00022082
0.000221186
0.000221636
0.000222157
0.000222766
0.000223478
0.000224281
0.000225157
0.00022612
0.00022719
0.000228339
0.000229561
0.000230855
0.0002322
0.000233547
0.000234837
0.000236087
0.000237313
0.00023851
0.000453651
0.000460955
0.00046797
0.000474047
0.000481427
0.000491166
0.000503329
0.00051826
0.000536123
0.000557074
0.000580924
0.000607801
0.000637519
0.00066983
0.000704475
0.000741296
0.00078001
0.00082024
0.000861669
0.000904154
0.000947375
0.00099113
0.00103529
0.00107962
0.0011239
0.00116807
0.00121206
0.00125576
0.001299
0.00134173
0.00138399
0.00142565
0.00146666
0.00150708
0.00154685
0.00158588
0.00162425
0.00166193
0.0016988
0.00173464
0.00176953
0.00180357
0.0018367
0.00186888
0.00190024
0.00193057
0.00195987
0.00198841
0.00201631
0.00204304
0.00206876
0.00209368
0.00211799
0.00214124
0.00216412
0.00218643
0.00220881
0.00223015
0.00225107
0.00227177
0.0022924
0.000849294
0.000889222
0.000930905
0.000973063
0.00101754
0.00106553
0.00111627
0.00117067
0.00122837
0.00129025
0.00135551
0.00142452
0.00149699
0.00157262
0.00165103
0.00173177
0.00181446
0.00189851
0.00198349
0.00206905
0.00215478
0.00224047
0.00232577
0.00241045
0.00249432
0.00257725
0.00265921
0.00273996
0.00281951
0.00289776
0.00297463
0.00305015
0.00312433
0.00319711
0.0032685
0.00333869
0.00340761
0.00347528
0.0035417
0.00360672
0.00367027
0.00373235
0.00379303
0.00385239
0.00391045
0.0039672
0.00402273
0.00407724
0.00413056
0.00418275
0.00423376
0.00428371
0.00433319
0.00438069
0.00442854
0.00447435
0.00452001
0.00456266
0.00460548
0.00464741
0.00468861
0.00140611
0.00148184
0.00155949
0.00163798
0.00171864
0.00180227
0.00188894
0.00197912
0.00207291
0.00217092
0.00227262
0.00237814
0.00248693
0.00259884
0.00271325
0.00282965
0.00294754
0.00306633
0.00318557
0.0033048
0.00342371
0.00354187
0.00365908
0.00377512
0.00388987
0.00400318
0.00411501
0.00422525
0.00433385
0.00444072
0.00454594
0.00464947
0.00475136
0.00485163
0.00495034
0.00504755
0.00514312
0.00523742
0.00533011
0.00542148
0.00551167
0.00560034
0.00568772
0.00577367
0.00585802
0.005941
0.00602251
0.00610285
0.00618185
0.00625953
0.00633633
0.00641111
0.00648462
0.00655624
0.00662766
0.00669694
0.00676418
0.00682942
0.00689308
0.00695511
0.00701457
0.00202791
0.00213228
0.00223974
0.00234951
0.00246204
0.00257816
0.00269823
0.00282223
0.00295049
0.00308309
0.00321961
0.00335971
0.00350308
0.00364933
0.00379777
0.00394769
0.00409847
0.00424968
0.00440077
0.00455139
0.0047011
0.0048496
0.00499659
0.00514192
0.00528552
0.00542738
0.00556735
0.0057054
0.00584149
0.00597554
0.00610762
0.00623781
0.00636609
0.00649269
0.00661738
0.00674032
0.00686167
0.00698071
0.00709826
0.00721424
0.00732854
0.00744185
0.00755355
0.00766376
0.00777248
0.0078791
0.00798389
0.00808671
0.00818797
0.0082872
0.00838501
0.00848098
0.00857446
0.00866565
0.008755
0.00884265
0.00892737
0.00900975
0.00908985
0.00916712
0.00924149
0.00264765
0.00277723
0.00291317
0.00305404
0.00319923
0.0033489
0.00350331
0.0036625
0.0038262
0.00399419
0.00416594
0.00434079
0.00451853
0.00469852
0.0048803
0.00506309
0.00524586
0.0054285
0.00561028
0.00579095
0.00597022
0.00614756
0.00632289
0.00649591
0.00666676
0.00683541
0.00700185
0.00716608
0.00732782
0.00748723
0.00764433
0.00779897
0.00795166
0.00810202
0.0082504
0.00839688
0.00854088
0.00868345
0.00882332
0.00896087
0.0090969
0.00923005
0.00936211
0.00949268
0.00962104
0.00974808
0.0098726
0.00999386
0.0101128
0.0102293
0.0103434
0.0104553
0.0105646
0.0106707
0.0107745
0.010875
0.0109727
0.0110678
0.0111598
0.0112478
0.0113333
0.00324706
0.0034026
0.00356911
0.00374309
0.00392295
0.00410822
0.00429887
0.00449468
0.00469522
0.00489947
0.00510715
0.00531706
0.00552897
0.00574232
0.00595735
0.00617254
0.00638684
0.00660031
0.0068119
0.0070216
0.00722941
0.00743443
0.00763686
0.00783595
0.00803219
0.00822583
0.00841682
0.00860532
0.00879085
0.00897329
0.00915303
0.00932984
0.0095037
0.00967546
0.00984437
0.0100102
0.0101751
0.0103365
0.010496
0.0106535
0.0108061
0.0109566
0.0111038
0.0112484
0.0113922
0.0115333
0.0116725
0.0118081
0.0119402
0.0120689
0.0121947
0.0123175
0.0124369
0.012553
0.0126653
0.0127747
0.0128809
0.0129833
0.0130817
0.0131762
0.0132669
0.00382579
0.00400802
0.00420678
0.00441546
0.00463194
0.00485353
0.00508132
0.00531493
0.00555277
0.00579422
0.0060384
0.00628381
0.00652963
0.00677518
0.00702245
0.00726985
0.00751564
0.00776008
0.00800112
0.00823849
0.00847386
0.00870547
0.00893444
0.00915833
0.00937755
0.00959394
0.00980702
0.010018
0.010225
0.0104282
0.0106284
0.0108237
0.0110158
0.0112057
0.0113917
0.0115745
0.0117539
0.0119312
0.0121067
0.0122792
0.0124489
0.0126121
0.0127698
0.0129254
0.0130771
0.0132275
0.0133753
0.0135191
0.0136589
0.0137941
0.0139255
0.0140533
0.0141784
0.0142992
0.0144152
0.0145272
0.0146355
0.0147409
0.0148414
0.0149363
0.0150266
0.00438829
0.00459336
0.0048246
0.00506467
0.00531998
0.00557568
0.00583881
0.00611171
0.0063838
0.00666305
0.00694247
0.00722679
0.00750612
0.00778241
0.00805708
0.00833594
0.00861263
0.00888904
0.00916388
0.00942582
0.0096869
0.00994544
0.0102013
0.0104537
0.0106918
0.0109281
0.01116
0.0113908
0.0116195
0.0118417
0.0120629
0.0122758
0.0124773
0.0126816
0.0128857
0.0130801
0.0132706
0.0134595
0.0136433
0.0138317
0.014017
0.0141969
0.0143629
0.014525
0.0146848
0.0148364
0.0149885
0.0151319
0.0152772
0.0154112
0.015545
0.0156666
0.0157898
0.015915
0.0160327
0.016137
0.016243
0.0163413
0.016442
0.0165358
0.0166177
0.000239606
0.000240603
0.000241579
0.000242536
0.00024346
0.000244328
0.000245187
0.000246022
0.000246799
0.00024753
0.000248194
0.000248856
0.000249509
0.000250154
0.000250823
0.000251566
0.000252392
0.000253301
0.000254309
0.000255434
0.000256632
0.00025788
0.000259176
0.000260491
0.00026181
0.00026315
0.000264504
0.000265871
0.000267237
0.000268614
0.000270002
0.000271394
0.000272792
0.000274209
0.000275631
0.000277066
0.000278522
0.000280001
0.000281487
0.000282982
0.000284503
0.000286046
0.000287608
0.000289198
0.000290807
0.000292415
0.000294041
0.000295704
0.000297394
0.000299084
0.00030079
0.00030254
0.000304301
0.000306072
0.000307881
0.000309733
0.00031162
0.000313493
0.000315417
0.000317425
0.000319523
0.00231298
0.00233113
0.00234896
0.00236651
0.00238348
0.00239906
0.00241211
0.0024244
0.0024351
0.00244574
0.00245474
0.00246289
0.00246996
0.00247583
0.00248037
0.00248339
0.00248505
0.00248523
0.00248406
0.00248165
0.00247819
0.00247387
0.00246862
0.00246254
0.00245566
0.002448
0.00243956
0.00243022
0.00242011
0.00240913
0.00239727
0.00238461
0.00237118
0.0023569
0.00234182
0.00232603
0.00230942
0.00229213
0.00227411
0.0022554
0.00223604
0.00221599
0.00219543
0.0021743
0.00215256
0.0021302
0.00210714
0.00208348
0.0020591
0.00203407
0.00200837
0.00198198
0.00195501
0.00192683
0.00189848
0.00186897
0.00183908
0.00180804
0.00177728
0.00174643
0.00171555
0.00472724
0.00476461
0.0047996
0.00483323
0.00486535
0.00489715
0.00492498
0.00495074
0.00497392
0.00499632
0.00501656
0.00503518
0.00505145
0.0050662
0.00507901
0.00508991
0.00509898
0.00510626
0.00511182
0.00511575
0.00511827
0.00511932
0.005119
0.00511734
0.00511437
0.00511009
0.00510455
0.00509766
0.00508945
0.00507976
0.00506874
0.00505625
0.0050423
0.005027
0.00501022
0.00499205
0.00497242
0.00495143
0.00492902
0.00490531
0.00488037
0.0048543
0.00482715
0.00479908
0.00476996
0.00473976
0.00470833
0.00467569
0.00464167
0.00460627
0.00456964
0.00453105
0.00449093
0.00444883
0.00440562
0.00436006
0.00431254
0.00426341
0.00421354
0.00416289
0.00411137
0.00707225
0.00712722
0.00718018
0.0072302
0.00727828
0.00732449
0.00736715
0.00740677
0.00744431
0.00747992
0.00751305
0.00754336
0.00757126
0.00759721
0.00762055
0.00764176
0.00766072
0.00767745
0.007692
0.00770449
0.007715
0.00772373
0.00773062
0.00773582
0.00773924
0.00774093
0.00774082
0.00773898
0.00773547
0.0077302
0.00772306
0.00771402
0.00770305
0.0076901
0.00767521
0.00765838
0.00763949
0.00761851
0.00759548
0.00757053
0.00754382
0.00751541
0.00748567
0.00745469
0.00742255
0.00738915
0.00735431
0.00731791
0.00727991
0.00724006
0.00719846
0.00715462
0.00710834
0.00705956
0.00700855
0.00695467
0.00689765
0.00683841
0.00677767
0.00671505
0.00665127
0.00931279
0.00938182
0.00944791
0.00951076
0.00957005
0.00962674
0.00967991
0.00973058
0.00977806
0.00982312
0.00986502
0.00990404
0.00994056
0.00997424
0.0100053
0.0100342
0.0100597
0.0100826
0.0101028
0.0101203
0.0101353
0.0101481
0.0101587
0.0101673
0.0101738
0.010178
0.0101802
0.0101805
0.0101789
0.0101755
0.0101703
0.0101629
0.0101532
0.0101414
0.0101273
0.0101109
0.0100918
0.0100702
0.0100459
0.010019
0.0099897
0.00995816
0.00992484
0.00989012
0.00985418
0.0098171
0.00977858
0.00973807
0.00969613
0.00965267
0.00960709
0.00955905
0.0095083
0.00945444
0.00939771
0.00933678
0.00927252
0.00920533
0.00913581
0.00906363
0.0089902
0.011415
0.0114936
0.0115681
0.01164
0.0117078
0.0117717
0.0118318
0.0118886
0.0119424
0.0119926
0.0120401
0.0120843
0.0121254
0.0121634
0.0121982
0.0122301
0.0122586
0.0122841
0.0123062
0.0123246
0.0123399
0.0123524
0.0123623
0.0123698
0.0123748
0.0123771
0.0123769
0.0123743
0.0123699
0.012364
0.0123567
0.0123473
0.0123359
0.0123221
0.0123064
0.0122879
0.0122665
0.0122421
0.0122145
0.0121838
0.01215
0.0121131
0.0120737
0.0120326
0.0119902
0.011947
0.0119023
0.011856
0.0118082
0.0117596
0.0117089
0.0116554
0.0115992
0.01154
0.0114774
0.0114099
0.0113385
0.0112628
0.0111849
0.0111042
0.0110214
0.0133538
0.0134367
0.0135154
0.0135899
0.0136605
0.0137272
0.0137896
0.0138486
0.0139042
0.0139559
0.014004
0.0140489
0.0140906
0.0141284
0.0141624
0.0141938
0.014222
0.0142467
0.0142674
0.0142832
0.014295
0.0143033
0.0143085
0.014311
0.0143106
0.0143068
0.0142997
0.0142891
0.0142762
0.0142622
0.0142479
0.0142319
0.0142147
0.0141956
0.0141755
0.0141531
0.0141268
0.0140973
0.0140645
0.0140287
0.0139893
0.0139457
0.0138984
0.0138489
0.0137979
0.0137468
0.0136932
0.0136385
0.0135823
0.013527
0.0134701
0.0134094
0.013347
0.0132816
0.0132135
0.013139
0.0130604
0.0129764
0.0128909
0.0128016
0.01271
0.0151127
0.015194
0.0152704
0.0153416
0.0154084
0.0154702
0.0155281
0.0155836
0.015636
0.0156841
0.0157278
0.0157684
0.0158061
0.0158401
0.0158691
0.0158942
0.015918
0.0159394
0.0159568
0.0159683
0.0159736
0.0159754
0.0159735
0.0159678
0.0159593
0.015947
0.0159309
0.0159089
0.0158821
0.0158534
0.0158264
0.0157977
0.0157696
0.0157401
0.0157126
0.0156847
0.0156516
0.0156134
0.0155727
0.0155305
0.0154853
0.0154358
0.0153806
0.015322
0.015262
0.0152026
0.0151386
0.0150743
0.015007
0.0149431
0.0148791
0.0148094
0.0147388
0.0146667
0.0145935
0.0145123
0.0144272
0.014335
0.0142421
0.0141452
0.0140464
0.016701
0.0167754
0.0168464
0.0169036
0.0169591
0.0170013
0.0170478
0.0170849
0.0171247
0.0171667
0.0172017
0.0172238
0.0172513
0.0172786
0.0172999
0.0173127
0.0173218
0.0173317
0.0173442
0.0173521
0.0173484
0.0173434
0.0173372
0.0173222
0.0173033
0.0172803
0.0172561
0.0172276
0.0171865
0.0171388
0.0170942
0.0170465
0.0170007
0.0169519
0.0169103
0.0168746
0.0168335
0.0167818
0.0167277
0.0166743
0.0166207
0.0165704
0.016508
0.0164405
0.0163758
0.0163091
0.0162394
0.0161651
0.0160883
0.0160133
0.0159413
0.0158598
0.0157759
0.0156975
0.015616
0.015532
0.0154401
0.0153435
0.0152419
0.0151396
0.0150328
0.000321623
0.00032371
0.000325877
0.00032812
0.000330407
0.000332688
0.000334992
0.000337345
0.00033973
0.00034215
0.000344562
0.000347025
0.000349604
0.000352862
0.000355695
0.000358542
0.0003614
0.000364246
0.000367097
0.000369975
0.000372861
0.000375755
0.000378669
0.000381579
0.000384471
0.000387353
0.000390225
0.000393076
0.000395888
0.000398662
0.000401389
0.000404058
0.000406655
0.000409184
0.00041162
0.000413957
0.00041619
0.000418252
0.000419953
0.000421179
0.000421999
0.000422418
0.000422426
0.00042202
0.000421139
0.000419721
0.000417722
0.00041508
0.000411675
0.000407353
0.000401983
0.000395404
0.000387333
0.000377439
0.00036584
0.000343522
0.000332243
0.000326334
0.000323996
0.000323147
0.000321537
0.00168429
0.00165313
0.00162159
0.00158995
0.00155808
0.00152618
0.00149364
0.00146117
0.00142866
0.00139763
0.00136534
0.00133424
0.0013038
0.00126983
0.00123681
0.00120431
0.00117221
0.00114056
0.00110937
0.0010787
0.00104856
0.00101884
0.000989535
0.00096067
0.000932257
0.000904351
0.00087694
0.000850088
0.000823779
0.000798029
0.000772878
0.000748348
0.000724432
0.000701175
0.00067863
0.000656815
0.000635834
0.000615779
0.000595142
0.000572946
0.000550604
0.000529329
0.000509124
0.000490169
0.000472556
0.000456477
0.00044219
0.000429942
0.000419983
0.000412627
0.000408221
0.000407176
0.000409923
0.000417178
0.000426718
0.000448638
0.00048242
0.00053644
0.000619181
0.000737923
0.000872509
0.00405955
0.00400737
0.00395457
0.0039005
0.00384515
0.00378861
0.0037306
0.00367146
0.00361164
0.00355112
0.00349042
0.00343275
0.00337545
0.00331682
0.00325632
0.00319475
0.00313225
0.00306934
0.00300616
0.002943
0.00287977
0.00281624
0.00275246
0.00268849
0.00262428
0.00255996
0.0024955
0.00243095
0.0023662
0.00230133
0.00223623
0.0021709
0.00210536
0.00203953
0.00197343
0.00190707
0.00184046
0.00177358
0.00170574
0.00163605
0.00156199
0.00147622
0.0013855
0.00129226
0.00119764
0.00110286
0.00100947
0.000918947
0.00083315
0.00075395
0.000683192
0.000622613
0.000573379
0.000536846
0.000512399
0.000504002
0.000514403
0.000548431
0.000615125
0.000727334
0.000891446
0.00658677
0.00652244
0.00645703
0.00638978
0.00631994
0.00624841
0.0061749
0.00610009
0.00602462
0.00594714
0.00587058
0.00579685
0.00572368
0.00564963
0.00557276
0.00549349
0.00541205
0.00532949
0.00524616
0.00516237
0.005078
0.00499245
0.00490598
0.00481874
0.00473062
0.0046417
0.00455193
0.00446133
0.00436969
0.00427694
0.00418299
0.00408783
0.00399135
0.00389357
0.00379448
0.00369405
0.00359221
0.00348892
0.00338384
0.00327641
0.00316529
0.00304723
0.00291114
0.00276133
0.00260039
0.00242858
0.00224674
0.00205617
0.00185932
0.00166022
0.00146328
0.00127549
0.00110292
0.000952015
0.000826094
0.000729811
0.000666445
0.000636257
0.000641195
0.000687998
0.000787303
0.00891522
0.0088403
0.00876424
0.0086865
0.00860479
0.00852091
0.00843498
0.0083485
0.00826119
0.00817192
0.00808257
0.00799579
0.00790974
0.00782323
0.00773385
0.00764107
0.00754503
0.00744767
0.00734923
0.00725018
0.00715007
0.00704799
0.00694463
0.00684026
0.00673453
0.00662769
0.00651943
0.00640977
0.00629829
0.00618494
0.00606957
0.00595228
0.00583307
0.00571204
0.00558913
0.00546444
0.00533794
0.00520956
0.00507907
0.00494617
0.0048102
0.00466975
0.00452079
0.00435183
0.00416817
0.00396863
0.00375184
0.0035165
0.00326158
0.00298808
0.00269757
0.00239485
0.00208858
0.00179075
0.00151473
0.00127419
0.00108124
0.0009387
0.000844302
0.000797013
0.000800342
0.0109358
0.0108505
0.0107644
0.0106767
0.0105841
0.0104888
0.0103908
0.0102933
0.0101956
0.0100962
0.00999536
0.00989673
0.00979885
0.00970138
0.00960049
0.00949587
0.00938721
0.00927771
0.00916699
0.00905567
0.00894289
0.00882705
0.00871015
0.00859259
0.00847332
0.00835271
0.00823017
0.00810576
0.00797865
0.00784902
0.00771667
0.00758215
0.00744551
0.00730707
0.00716668
0.0070246
0.00688076
0.0067352
0.00658776
0.00643831
0.00628638
0.00613139
0.00597166
0.00580287
0.00561407
0.00541041
0.00518899
0.00494825
0.0046851
0.00439677
0.00408134
0.00373756
0.00336739
0.00297855
0.00258302
0.00220114
0.0018552
0.00156099
0.00132507
0.00114847
0.00103038
0.0126138
0.0125182
0.0124225
0.0123259
0.0122226
0.012116
0.012006
0.011898
0.0117907
0.0116825
0.0115706
0.0114609
0.0113521
0.0112448
0.0111334
0.0110184
0.0108985
0.0107788
0.0106578
0.0105367
0.0104134
0.0102857
0.0101581
0.0100309
0.00990122
0.00976996
0.00963585
0.00949968
0.00935945
0.00921618
0.00906961
0.00892146
0.00877135
0.00862022
0.00846736
0.00831342
0.00815802
0.0080017
0.0078442
0.00768573
0.00752569
0.00736386
0.00719942
0.00702996
0.00684828
0.00665057
0.00643699
0.00620564
0.00595389
0.00567885
0.00537675
0.0050438
0.0046775
0.00427654
0.00384556
0.00339588
0.00294689
0.00252182
0.00213925
0.00181137
0.00154522
0.0139404
0.0138343
0.0137294
0.0136247
0.0135118
0.0133946
0.0132732
0.0131546
0.0130387
0.0129225
0.0128007
0.0126807
0.0125622
0.0124466
0.012326
0.0122017
0.0120722
0.0119438
0.0118146
0.0116858
0.0115537
0.0114155
0.0112801
0.0111467
0.011009
0.0108686
0.0107245
0.0105782
0.0104258
0.0102701
0.0101109
0.00995245
0.00979231
0.0096328
0.00947166
0.00931061
0.00914833
0.00898719
0.00882619
0.00866632
0.00850587
0.00834524
0.00818329
0.00801865
0.00784764
0.00766131
0.00746018
0.00724322
0.00700908
0.00675564
0.00648036
0.00617922
0.0058474
0.00548081
0.00507703
0.00463761
0.00417115
0.00369207
0.0032196
0.00277237
0.0023675
0.0149226
0.0148036
0.014692
0.0145762
0.0144582
0.0143296
0.0142002
0.0140689
0.0139466
0.0138213
0.0136933
0.0135624
0.013439
0.013314
0.0131882
0.013053
0.0129195
0.0127808
0.0126461
0.0125136
0.012372
0.0122274
0.0120866
0.0119475
0.0118036
0.0116524
0.0115005
0.0113426
0.0111786
0.0110102
0.0108418
0.0106766
0.0105096
0.0103451
0.0101797
0.0100155
0.00985102
0.00969338
0.00953715
0.00938588
0.00923221
0.00908089
0.00892823
0.00877322
0.00861429
0.00844534
0.0082584
0.00805561
0.00784014
0.00761508
0.00737164
0.00711133
0.00682267
0.00650734
0.00615522
0.00576947
0.00534277
0.00488623
0.00440319
0.00390874
0.00342308
0.000317783
0.000313502
0.000308924
0.000304066
0.000299168
0.000294336
0.000289698
0.000285385
0.000281497
0.000278085
0.000275162
0.000272748
0.000270782
0.000269192
0.000267932
0.000266958
0.000266197
0.00026559
0.000265117
0.000264771
0.000264523
0.000264365
0.000264297
0.0002643
0.000264367
0.000264505
0.000264715
0.00026499
0.000265318
0.000265702
0.00026613
0.000266595
0.000267087
0.000267599
0.000268112
0.000268619
0.000269112
0.000269574
0.000269981
0.000270326
0.000270614
0.000270828
0.000270968
0.00027105
0.000271069
0.000271033
0.000270975
0.00027093
0.000270905
0.000270903
0.00027095
0.000271071
0.000271233
0.000271437
0.000271677
0.000271941
0.00027218
0.000272345
0.000272442
0.000272468
0.000272391
0.000939482
0.000995603
0.00104074
0.00106876
0.00108025
0.00108239
0.00107388
0.00105546
0.00102995
0.000999745
0.000966381
0.00093223
0.000898849
0.000866549
0.000834995
0.000804969
0.000777411
0.000752865
0.000731393
0.00071313
0.000698037
0.000685858
0.000676196
0.000668681
0.000662968
0.000658786
0.000655911
0.000654139
0.000653269
0.000653174
0.000653604
0.000654315
0.000655044
0.000655513
0.000655474
0.000654677
0.000652858
0.000649791
0.000645226
0.000638949
0.000630782
0.000620599
0.000608352
0.00059406
0.000577877
0.000560119
0.00054127
0.000522008
0.000503126
0.000485534
0.000470099
0.000457521
0.000448198
0.000442156
0.000439161
0.000438635
0.000439886
0.000442171
0.000445031
0.000448058
0.000450864
0.00106353
0.00123626
0.00140404
0.00156636
0.00167118
0.0017557
0.00181965
0.00185837
0.00187432
0.00187255
0.00185409
0.00182298
0.00178298
0.00173645
0.00168396
0.00162807
0.0015721
0.00151953
0.00147106
0.00142859
0.00139341
0.00136563
0.00134462
0.00132951
0.00131938
0.00131352
0.00131124
0.00131184
0.00131478
0.00131945
0.00132531
0.00133165
0.00133772
0.00134274
0.00134591
0.00134653
0.00134386
0.00133722
0.0013259
0.00130929
0.00128687
0.00125832
0.00122347
0.00118245
0.00113551
0.00108326
0.00102659
0.000966769
0.000905497
0.000845219
0.000789091
0.000740648
0.000703381
0.000679629
0.000670321
0.00067448
0.000690047
0.000714475
0.000745544
0.000780994
0.00081672
0.000935979
0.00112833
0.001353
0.00159481
0.00181643
0.00201907
0.00220866
0.00236039
0.00247117
0.00255691
0.00261619
0.00264962
0.00266309
0.00265855
0.00263704
0.00260124
0.00255406
0.00250014
0.00244575
0.00239441
0.00235004
0.00231499
0.00228957
0.00227312
0.00226453
0.00226322
0.00226876
0.00228036
0.002297
0.00231733
0.00234035
0.00236496
0.00238976
0.00241323
0.00243391
0.00245033
0.00246105
0.00246458
0.00245948
0.00244427
0.00241763
0.00237844
0.00232589
0.00225951
0.00217915
0.00208532
0.00197899
0.00186173
0.00173558
0.0016039
0.0014714
0.00134471
0.0012325
0.00114482
0.0010907
0.00107396
0.00109192
0.00113687
0.00119865
0.00126581
0.00133519
0.000858685
0.000975803
0.00115302
0.00138466
0.00164818
0.00192387
0.0021974
0.00244964
0.0026725
0.00287399
0.00304292
0.00316745
0.00326785
0.00334511
0.00339892
0.00343401
0.00345179
0.00345385
0.00344353
0.0034277
0.00341119
0.00339863
0.00339393
0.00339849
0.00341151
0.00343121
0.00345681
0.00348992
0.00353091
0.00357774
0.00362895
0.00368297
0.00373784
0.00379132
0.00384129
0.00388558
0.00392202
0.00394842
0.00396241
0.0039616
0.00394369
0.00390672
0.00384888
0.00376888
0.00366562
0.00353906
0.00338943
0.00321781
0.00302596
0.00281682
0.00259507
0.00236835
0.002148
0.00195074
0.00179817
0.00170707
0.00167448
0.00169586
0.00175539
0.00183639
0.00192872
0.000972356
0.000976518
0.00104626
0.00118455
0.0013878
0.00164572
0.0019415
0.002251
0.00255272
0.00283586
0.00309047
0.0033117
0.00351188
0.00368275
0.00381993
0.00394295
0.00405171
0.00414514
0.00422596
0.00429579
0.00435783
0.00441587
0.00447417
0.00453565
0.00460128
0.00467076
0.00474375
0.00481982
0.00489887
0.00498451
0.00507474
0.00516753
0.00526061
0.0053512
0.00543678
0.0055146
0.00558211
0.00563641
0.0056745
0.00569314
0.00568916
0.0056598
0.00560245
0.00551486
0.00539497
0.00524222
0.00505593
0.00483647
0.00458476
0.00430311
0.00399535
0.00366846
0.0033338
0.00300961
0.00272299
0.00250308
0.00236815
0.0023223
0.00234922
0.0024244
0.00252782
0.00134517
0.00121351
0.00115198
0.00116266
0.00124691
0.00140435
0.00163028
0.00191199
0.00222933
0.00255918
0.0028796
0.00317585
0.00344529
0.00368654
0.00390463
0.00411766
0.00431632
0.00450064
0.00468398
0.00486239
0.00503733
0.00520577
0.00536761
0.00552454
0.00567817
0.005829
0.00597747
0.00612424
0.00626853
0.00640817
0.00654981
0.0066909
0.00682914
0.00696154
0.0070856
0.00719849
0.00729754
0.00737937
0.00744072
0.00747758
0.00748627
0.00746321
0.0074054
0.00730982
0.00717351
0.00699507
0.00677326
0.00650772
0.00619899
0.00584851
0.00545949
0.00503799
0.00459444
0.00414614
0.003721
0.00335915
0.00309984
0.00296407
0.00294087
0.00299945
0.00310844
0.00201819
0.00173471
0.00152343
0.00138843
0.0013315
0.00135338
0.00145373
0.00162964
0.00187348
0.00217041
0.00249902
0.0028362
0.0031648
0.00347268
0.00375824
0.00402948
0.0042925
0.00455572
0.00483683
0.00511274
0.0054016
0.00569104
0.00597417
0.00624923
0.00651728
0.006777
0.00702778
0.00727026
0.00750354
0.00772511
0.00793366
0.00813465
0.00832615
0.00850547
0.00867069
0.00881939
0.00894956
0.00905717
0.00913952
0.00919139
0.00921002
0.00918988
0.00912887
0.00902287
0.00886868
0.00866303
0.00840571
0.00809399
0.00772971
0.00731286
0.00684728
0.00633738
0.00579362
0.00523376
0.00468505
0.00419416
0.00381684
0.00359158
0.00351553
0.00355507
0.00366813
0.00296043
0.00254269
0.00218427
0.00189428
0.00168251
0.00155264
0.00150644
0.00154251
0.00165859
0.00184948
0.00210435
0.00240855
0.00274507
0.00309489
0.00344282
0.00378688
0.00411697
0.00444081
0.00476603
0.00510396
0.00549341
0.00588674
0.00627639
0.00666365
0.00705076
0.00743145
0.0078008
0.00815765
0.00849786
0.0088194
0.00912246
0.00939791
0.00965242
0.00988611
0.0100966
0.0102833
0.0104465
0.0105792
0.0106826
0.0107468
0.0107756
0.0107547
0.0106901
0.0105718
0.0104009
0.0101671
0.00987794
0.00951945
0.00910386
0.00862352
0.00808954
0.00749938
0.00686713
0.00621567
0.00556745
0.00497261
0.00449896
0.00419919
0.00407546
0.00409731
0.00421113
0.00481334
0.0183037
0.0184448
0.00218337
0.00476995
0.00666798
0.0012582
0.00596555
0.00127099
0.00329605
0.013069
0.0144114
0.00125759
0.0143069
0.00624133
0.0192183
0.00125884
0.0064558
0.012371
0.00126818
0.00229114
0.0142114
0.0181589
0.00128536
0.00126383
0.0045734
0.00126643
0.00302316
0.00125584
0.00128425
0.00551172
0.00132015
0.00271554
0.00904445
0.0135001
0.0118992
0.0110735
0.013775
0.00125149
0.0193701
0.00490326
0.011991
0.00124467
0.0189852
0.00586772
0.0095017
0.00127036
0.00234399
0.00361221
0.0146344
0.0113077
0.015469
0.00124831
0.00136899
0.00184424
0.000381771
0.00128254
0.00455477
0.0120281
0.0177643
0.00443504
0.00132565
0.00487365
0.00355496
0.0188984
0.0273073
0.0121915
0.00449757
0.00150804
0.00124232
0.0273556
0.014048
0.00472089
0.000977255
0.00262562
0.0192049
0.0185111
0.0168493
0.00124358
0.0139453
0.00184186
0.0194115
0.000561895
0.0184342
0.00124239
0.0117397
0.00126873
0.0124534
0.00169862
0.00152522
0.00544269
0.00124304
0.00133694
0.0171906
0.0187313
0.00130547
0.0105182
0.00389493
0.00177586
0.0188315
0.0184162
0.0114084
0.00818251
0.00124288
0.00124429
0.00124655
0.00567269
0.00644861
0.00127026
0.0192044
0.0185668
0.00154691
0.00879994
0.00760156
0.00553032
0.0126787
0.0128934
0.00142567
0.00568003
0.00132953
0.000595533
0.00621867
0.00150961
0.0170713
0.0132579
0.00335362
0.00124461
0.0128063
0.0131573
0.00124447
0.00348305
0.00365085
0.00293054
0.00145785
0.0135143
0.00124463
0.00124464
0.0136682
0.015962
0.00124788
0.00314759
0.0189961
0.00412726
0.0087802
0.00899955
0.0187332
0.00198951
0.0101007
0.00241814
0.0167342
0.0190634
0.000369341
0.014132
0.0183618
0.0189613
0.00126048
0.00125348
0.00798408
0.00126039
0.0112199
0.00121902
0.00161625
0.00124568
0.00124548
0.00124284
0.0172935
0.00424127
0.00637618
0.00136903
0.0151492
0.00731655
0.00221119
0.0136308
0.00251422
0.00868224
0.00586284
0.0141148
0.00124958
0.00164323
0.0043411
0.014806
0.0122006
0.0167453
0.00124523
0.00129446
0.00987429
0.00383413
0.0112781
0.00124418
0.00126612
0.00551613
0.00130949
0.0166342
0.0102417
0.00125668
0.00842144
0.00344073
0.0178554
0.00153098
0.00864318
0.00124533
0.00124855
0.0171916
0.0154106
0.0163018
0.00153956
0.00127347
0.00186034
0.015658
0.00770577
0.0105694
0.0178113
0.0249219
0.0184448
0.00375695
0.0189458
0.0180003
0.0116532
0.0150853
0.0128362
0.00138535
0.00406823
0.00124711
0.00129931
0.0133245
0.00284842
0.00301464
0.00137118
0.00243785
0.0142767
0.0109885
0.00285604
0.0183364
0.0133992
0.00301161
0.00124511
0.00439251
0.0173421
0.0128036
0.00147424
0.00635551
0.00350975
0.00323024
0.00418656
0.0175102
0.00715731
0.00413209
0.0191112
0.00139251
0.00124425
0.00137939
0.00232344
0.0117989
0.00126855
0.00145739
0.00124954
0.00733045
0.015222
0.019636
0.0161138
0.01867
0.0156586
0.0162755
0.00151295
0.0110714
0.0199492
0.0012442
0.00486217
0.00124248
0.00500682
0.0072703
0.00455442
0.00159293
0.00124504
0.0154298
0.00301346
0.00124285
0.00124887
0.00125181
0.00126041
0.00955512
0.00643901
0.0174008
0.00171918
0.00124281
0.00124655
0.00124304
0.0188528
0.00382894
0.00144866
0.0124192
0.00575359
0.00150658
0.00124539
0.00771594
0.00124263
0.00228574
0.00401583
0.00792356
0.00827436
0.00132162
0.00166197
0.0165236
0.00493249
0.00264008
0.0161621
0.00130225
0.00124259
0.00124533
0.0191063
0.00126052
0.0165955
0.00124458
0.0125026
0.0183451
0.00265704
0.00622432
0.00736134
0.00148305
0.0157934
0.0191483
0.00271595
0.0170608
0.0143751
0.0160766
0.0160334
0.0149203
0.0108484
0.0187857
0.00465628
0.00639934
0.0161747
0.0173651
0.0152833
0.0131348
0.00155525
0.0167032
0.00611526
0.0182074
0.00351701
0.00130704
0.00124473
0.00127892
0.00379184
0.00997765
0.00551763
0.00586205
0.00125377
0.0191709
0.00124461
0.0070207
0.0138912
0.0188962
0.0118318
0.0155612
0.0015928
0.00141887
0.00157467
0.00887091
0.0021394
0.00594192
0.0102257
0.0136848
0.0180437
0.0180581
0.0196159
0.00128469
0.0171976
0.0187006
0.0028194
0.00124911
0.0188507
0.0190543
0.00126408
0.0124549
0.00124968
0.0111287
0.0167801
0.0127962
0.0187517
0.00568123
0.0192123
0.00128245
0.0192618
0.00135119
0.018871
0.0173977
0.0141943
0.0172984
0.0123072
0.00804042
0.0102746
0.00141789
0.00392569
0.00558566
0.00201318
0.00100191
0.00773157
0.00134683
0.0181434
0.00124536
0.00125076
0.0017676
0.00918701
0.00502138
0.0135737
0.00133445
0.0188529
0.00744586
0.0185161
0.00734599
0.0159893
0.0110463
0.00131914
0.0173104
0.0174286
0.0012455
0.0173299
0.014396
0.00124665
0.00124389
0.0115167
0.00183497
0.0103607
0.00155986
0.00720691
0.00353246
0.00934105
0.0155286
0.0171321
0.0154658
0.0155309
0.0173054
0.00156798
0.00113311
0.0115009
0.0104509
0.0157697
0.0118417
0.0179148
0.00442876
0.0188063
0.0187847
0.006349
0.00299269
0.015522
0.0144324
0.00144072
0.0178693
0.0146895
0.00141679
0.0204721
0.0161406
0.0155874
0.00321091
0.00449539
0.0138182
0.00158946
0.0159318
0.00148062
0.00319278
0.00125206
0.0110649
0.00292134
0.00829105
0.00150595
0.00141798
0.00916085
0.00955962
0.00939891
0.00282692
0.0114625
0.00276735
0.00103752
0.0154923
0.0101175
0.0134409
0.00827353
0.0036327
0.0145191
0.0169425
0.0177599
0.012301
0.0289583
0.0166689
0.00607055
0.0151967
0.0191524
0.000674991
0.00664902
0.0124871
0.00131513
0.00334561
0.00769015
0.0191971
0.00273722
0.0176849
0.00421333
0.0103029
0.00620498
0.0016774
0.00124412
0.00473338
0.0112047
0.0167222
0.0113035