/*--------------------------------*- C++ -*----------------------------------*\
| =========                 |                                                 |
| \\      /  F ield         | OpenFOAM: The Open Source CFD Toolbox           |
|  \\    /   O peration     | Version:  2.3.1                                 |
|   \\  /    A nd           | Web:      www.OpenFOAM.org                      |
|    \\/     M anipulation  |                                                 |
\*---------------------------------------------------------------------------*/
FoamFile
{
    version     2.0;
    format      ascii;
    class       surfaceScalarField;
    location    "0.16";
    object      phi;
}
// * * * * * * * * * * * * * * * * * * * * * * * * * * * * * * * * * * * * * //

dimensions      [0 3 -1 0 0 0 0];

internalField   nonuniform List<scalar> 
15416
(
-0.00068924
2.07154e-06
0.000693974
-0.000690131
8.95302e-07
-0.00069056
4.34353e-07
-0.000692375
1.82086e-06
-0.000696361
3.99156e-06
-0.000702776
6.41944e-06
-0.00071202
9.24889e-06
-0.000724447
1.24309e-05
-0.000740378
1.59333e-05
-0.000759947
1.95708e-05
-0.000783412
2.3466e-05
-0.000810818
2.74046e-05
-0.00084212
3.12993e-05
-0.000877224
3.50999e-05
-0.000916071
3.8841e-05
-0.000958445
4.23684e-05
-0.00100405
4.55949e-05
-0.00105259
4.85346e-05
-0.00110389
5.1288e-05
-0.00115758
5.36798e-05
-0.0012134
5.58021e-05
-0.00127109
5.76809e-05
-0.00133032
5.92156e-05
-0.00139074
6.04067e-05
-0.00145213
6.13897e-05
-0.0015143
6.21638e-05
-0.00157695
6.26689e-05
-0.00163979
6.28832e-05
-0.00170266
6.29194e-05
-0.00176544
6.28291e-05
-0.00182791
6.25e-05
-0.00188989
6.2026e-05
-0.00195132
6.15028e-05
-0.00201194
6.07436e-05
-0.00207154
5.97697e-05
-0.0021301
5.87043e-05
-0.00218756
5.74636e-05
-0.00224375
5.60191e-05
-0.00229851
5.43435e-05
-0.00235186
5.27914e-05
-0.00240386
5.1417e-05
-0.00245436
4.99678e-05
-0.0025032
4.84889e-05
-0.0025504
4.70279e-05
-0.00259567
4.5227e-05
-0.00263898
4.33994e-05
-0.00268055
4.17149e-05
-0.00272049
4.00375e-05
-0.00275827
3.78218e-05
-0.00279402
3.57288e-05
-0.00282784
3.37665e-05
-0.00285983
3.19433e-05
-0.00288948
2.96151e-05
-0.00291726
2.77687e-05
-0.00294297
2.57021e-05
-0.00296699
2.40117e-05
-0.00298833
2.13392e-05
-0.00300745
1.91187e-05
-0.00302471
1.72582e-05
-0.00304028
1.55645e-05
1.38343e-05
-0.00305412
-0.000403584
5.68718e-06
0.000399975
-0.000411048
8.36439e-06
-0.000422805
1.21968e-05
-0.000438543
1.75647e-05
-0.000458393
2.38479e-05
-0.000482031
3.00623e-05
-0.000509933
3.71555e-05
-0.000541691
4.41929e-05
-0.000577732
5.19773e-05
-0.000617529
5.937e-05
-0.00066122
6.71574e-05
-0.000708572
7.47566e-05
-0.000759408
8.2133e-05
-0.00081354
8.92285e-05
-0.000870605
9.59025e-05
-0.000930441
0.0001022
-0.000992756
0.000107906
-0.00105733
0.000113101
-0.00112379
0.000117742
-0.00119195
0.00012183
-0.00126161
0.000125448
-0.00133232
0.000128383
-0.00140394
0.000130813
-0.00147626
0.000132714
-0.00154901
0.00013412
-0.00162197
0.000135117
-0.00169479
0.000135546
-0.00176748
0.000135683
-0.00183975
0.000135345
-0.00191133
0.000134536
-0.00198228
0.000133494
-0.00205248
0.000132124
-0.00212158
0.000130339
-0.00218959
0.000128445
-0.00225653
0.000126531
-0.00232202
0.000124256
-0.00238608
0.000121844
-0.00244851
0.000118872
-0.00250929
0.000115478
-0.00256819
0.00011181
-0.00262503
0.000107939
-0.00268019
0.000104487
-0.00273354
0.000100993
-0.00278482
9.75269e-05
-0.00283415
9.41048e-05
-0.00288134
9.04763e-05
-0.00292648
8.69592e-05
-0.00296909
8.28192e-05
-0.00300976
7.86391e-05
-0.00304829
7.43319e-05
-0.0030846
7.0093e-05
-0.00311909
6.64213e-05
-0.00315011
6.06061e-05
-0.00318051
5.81508e-05
-0.0032071
5.22695e-05
-0.00323221
4.91152e-05
-0.00325295
4.20732e-05
-0.00327361
3.97855e-05
-0.00329203
3.56725e-05
-0.00330834
3.1871e-05
2.57085e-05
-0.00332022
-0.000280523
1.98164e-05
0.000266402
-0.000299596
2.7444e-05
-0.000323181
3.57872e-05
-0.000350996
4.5385e-05
-0.000382796
5.5654e-05
-0.000419133
6.64033e-05
-0.000459463
7.74903e-05
-0.000503997
8.87307e-05
-0.000552559
0.000100542
-0.000605156
0.000111968
-0.000661427
0.000123429
-0.00072089
0.000134219
-0.000783689
0.000144929
-0.000849383
0.00015492
-0.000917758
0.000164275
-0.000988519
0.00017296
-0.00106145
0.000180834
-0.00113628
0.000187924
-0.00121268
0.000194142
-0.00129053
0.000199672
-0.00136935
0.000204259
-0.00144911
0.000208128
-0.00152951
0.000211199
-0.00161032
0.000213501
-0.00169126
0.000215042
-0.0017721
0.000215976
-0.00185272
0.000216229
-0.00193285
0.000215946
-0.00201225
0.000214894
-0.00209108
0.000213476
-0.00216889
0.000211273
-0.0022455
0.000208516
-0.00232116
0.000205631
-0.0023954
0.000202243
-0.00246816
0.000198966
-0.00253949
0.000195426
-0.00260922
0.000191602
-0.00267713
0.000187085
-0.00274313
0.000181891
-0.00280709
0.000176253
-0.00286909
0.000170399
-0.00292866
0.000164198
-0.00298621
0.000158437
-0.00304151
0.00015245
-0.0030946
0.000146692
-0.00314556
0.00014103
-0.00319418
0.000135283
-0.00324052
0.000129062
-0.00328432
0.000122486
-0.00332631
0.000116428
-0.00336453
0.000108406
-0.00340014
0.000102087
-0.00343418
9.46631e-05
-0.00346594
8.99071e-05
-0.00349561
8.19328e-05
-0.003521
7.44903e-05
-0.00354635
6.7421e-05
-0.00356739
6.08173e-05
-0.00358628
5.4553e-05
-0.00360092
4.65096e-05
4.04257e-05
-0.00361564
-0.000230177
4.33629e-05
0.000206639
-0.000258135
5.5408e-05
-0.000290751
6.84093e-05
-0.000327745
8.23834e-05
-0.000369216
9.71299e-05
-0.000415159
0.000112351
-0.000465295
0.00012763
-0.00051995
0.000143389
-0.000578511
0.000159104
-0.000641037
0.000174495
-0.000706965
0.000189357
-0.000776522
0.000203774
-0.000849203
0.000217609
-0.000924541
0.000230257
-0.0010025
0.00024224
-0.00108273
0.000253186
-0.00116494
0.000263043
-0.00124884
0.000271821
-0.00133424
0.000279534
-0.00142071
0.000286137
-0.00150828
0.000291825
-0.00159643
0.000296282
-0.00168512
0.000299884
-0.00177403
0.000302408
-0.001863
0.000304025
-0.0019516
0.000304618
-0.00203977
0.000304449
-0.00212735
0.000303536
-0.00221426
0.000301747
-0.00230006
0.000299141
-0.0023849
0.000295982
-0.00246863
0.000292221
-0.00255068
0.000287722
-0.00263121
0.000282891
-0.0027101
0.000277667
-0.0027873
0.000271971
-0.00286256
0.000265898
-0.00293623
0.000259637
-0.00300785
0.000253259
-0.00307745
0.00024662
-0.00314459
0.000238961
-0.00320949
0.000230916
-0.00327159
0.000221756
-0.00333125
0.000212598
-0.00338829
0.000203635
-0.00344299
0.000195132
-0.00349532
0.00018702
-0.00354555
0.00017882
-0.00359242
0.000169119
-0.00363668
0.000160674
-0.00367949
0.000151304
-0.00371815
0.000140852
-0.00375463
0.000131212
-0.003787
0.000122306
-0.0038191
0.000114042
-0.00384708
0.000102468
-0.00387287
9.32029e-05
-0.00389648
8.44152e-05
-0.00391592
7.39947e-05
-0.00393318
6.37642e-05
5.35984e-05
-0.00394636
-0.000214241
7.38911e-05
0.000183721
-0.000249576
9.07485e-05
-0.000290003
0.000108842
-0.000335276
0.000127662
-0.000385226
0.000147084
-0.000439942
0.000167071
-0.000499493
0.000187184
-0.000563091
0.000206989
-0.000630985
0.000226999
-0.000702674
0.000246184
-0.000778197
0.000264879
-0.000857205
0.000282781
-0.00093908
0.000299484
-0.00102394
0.000315117
-0.00111157
0.000329868
-0.00120084
0.000342456
-0.00129219
0.000354393
-0.00138517
0.000364794
-0.00147941
0.00037377
-0.00157478
0.000381513
-0.00167094
0.000387987
-0.00176782
0.000393162
-0.001865
0.000397068
-0.00196224
0.000399669
-0.00205917
0.000400996
-0.00215592
0.000401399
-0.00225198
0.0004005
-0.00234724
0.000398689
-0.00244159
0.000395853
-0.00253497
0.000392248
-0.0026271
0.000387918
-0.00271776
0.000382899
-0.00280684
0.000377242
-0.00289417
0.000370684
-0.00297936
0.000363108
-0.00306247
0.000354661
-0.00314399
0.000346032
-0.0032232
0.000337541
-0.00330036
0.000329387
-0.0033753
0.000321475
-0.00344813
0.000313056
-0.00351833
0.000302782
-0.00358571
0.000291137
-0.0036499
0.000278463
-0.00371114
0.000265756
-0.00377042
0.000254634
-0.00382529
0.000241306
-0.00387844
0.000231189
-0.00393001
0.000220096
-0.00397749
0.000207853
-0.00402257
0.000196351
-0.00406542
0.000183782
-0.00410429
0.00017018
-0.00414096
0.000159043
-0.00417164
0.000144753
-0.00420196
0.000132801
-0.00423013
0.000121362
-0.00425414
0.000108427
-0.00427405
9.3894e-05
-0.00429379
8.34998e-05
6.92399e-05
-0.00430944
-0.000217812
0.00011138
0.000180331
-0.000260716
0.000133658
-0.000308793
0.000156924
-0.000362436
0.00018131
-0.000421286
0.000205939
-0.00048489
0.000230679
-0.000553152
0.000255449
-0.000626229
0.000280068
-0.000703372
0.000304144
-0.000784927
0.00032774
-0.000870217
0.00035017
-0.000958755
0.000371321
-0.00105061
0.000391341
-0.00114491
0.000409423
-0.00124147
0.000426425
-0.00134042
0.000441397
-0.00144123
0.000455201
-0.00154376
0.000467316
-0.00164731
0.00047731
-0.00175177
0.000485976
-0.00185711
0.000493335
-0.00196274
0.000498805
-0.00206872
0.000503059
-0.00217467
0.000505624
-0.00228035
0.000506682
-0.00238539
0.000506402
-0.00248978
0.000504836
-0.00259317
0.000501959
-0.00269545
0.000498029
-0.00279652
0.000493094
-0.00289614
0.000487303
-0.00299406
0.000480711
-0.00309045
0.000473563
-0.00318491
0.000465618
-0.00327716
0.000456009
-0.00336719
0.000445313
-0.0034544
0.000433936
-0.00353928
0.00042193
-0.00362172
0.000411146
-0.00370225
0.000401032
-0.00378085
0.000390216
-0.00385692
0.000378873
-0.00392991
0.000364793
-0.00399869
0.000348919
-0.00406404
0.000333539
-0.00412686
0.000318744
-0.00418803
0.000302866
-0.00424574
0.000288294
-0.00429969
0.000273169
-0.00435123
0.000258879
-0.00439862
0.0002435
-0.00444183
0.000226973
-0.00448465
0.000213049
-0.00452167
0.000196118
-0.00455838
0.000181498
-0.00459102
0.000165455
-0.00461753
0.000147881
-0.00464184
0.000132735
-0.00466604
0.000118091
-0.00468423
0.00010168
8.53122e-05
-0.00470031
-0.000236102
0.000156104
0.000191387
-0.000286851
0.000184414
-0.000343402
0.00021348
-0.000405839
0.000243753
-0.000473427
0.000273531
-0.000546543
0.0003038
-0.00062456
0.000333469
-0.000707118
0.000362631
-0.000794482
0.00039151
-0.000885576
0.000418836
-0.000980896
0.000445492
-0.00107981
0.00047024
-0.00118146
0.000492988
-0.00128571
0.000513681
-0.00139291
0.00053362
-0.0015021
0.000550573
-0.0016127
0.000565795
-0.00172498
0.000579583
-0.00183822
0.000590558
-0.00195253
0.000600279
-0.00206738
0.000608188
-0.00218255
0.00061397
-0.00229797
0.000618488
-0.00241316
0.000620785
-0.00252781
0.00062128
-0.00264184
0.000620357
-0.00275478
0.000617609
-0.00286687
0.000614033
-0.0029777
0.000608874
-0.00308664
0.000602235
-0.00319399
0.000594752
-0.00329963
0.000585923
-0.00340307
0.00057664
-0.00350509
0.000567119
-0.00360521
0.000556308
-0.00370221
0.000544009
-0.00379664
0.000530142
-0.00388693
0.000515059
-0.00397425
0.000499512
-0.00405992
0.000484789
-0.00414383
0.000471426
-0.00422578
0.000456497
-0.00430516
0.000441945
-0.00437974
0.000424772
-0.00445075
0.000407002
-0.00451688
0.000388267
-0.00457969
0.00036729
-0.00464096
0.00034954
-0.00470032
0.000331836
-0.00475387
0.00031167
-0.00480495
0.00029421
-0.00485369
0.00027555
-0.00489661
0.000255939
-0.00493751
0.000237029
-0.00497444
0.00021844
-0.00500719
0.000198231
-0.00503957
0.000180271
-0.00506589
0.000159069
-0.00508831
0.000140511
-0.00510683
0.00012019
0.000101699
-0.00512322
-0.000266871
0.000208402
0.000214582
-0.000325908
0.000243456
-0.000391145
0.000278722
-0.000463281
0.000315895
-0.000540882
0.000351137
-0.000623786
0.000386708
-0.000712079
0.000421767
-0.000804518
0.000455073
-0.000902385
0.000489382
-0.00100411
0.000520561
-0.00111071
0.000552096
-0.00122005
0.000579589
-0.00133335
0.000606285
-0.00144812
0.000628444
-0.00156546
0.000650959
-0.00168576
0.000670862
-0.00180721
0.000687244
-0.00192998
0.000702355
-0.00205429
0.000714868
-0.00217813
0.000724125
-0.0023034
0.000733432
-0.00242832
0.00073886
-0.00255409
0.000744214
-0.00267936
0.000746011
-0.00280349
0.000745413
-0.00292726
0.000744006
-0.00304912
0.000739327
-0.0031702
0.000734888
-0.00329001
0.000728827
-0.00340717
0.000719839
-0.003523
0.000711157
-0.00363641
0.000699893
-0.00374718
0.000686983
-0.00385668
0.000675415
-0.00396465
0.000663009
-0.00406959
0.000648145
-0.00417115
0.00063376
-0.0042686
0.000615804
-0.00436103
0.000595454
-0.00445069
0.000576542
-0.00454073
0.000558233
-0.00462948
0.000539932
-0.00471301
0.000520749
-0.00479501
0.000504784
-0.00486985
0.00048468
-0.00493948
0.000461431
-0.00500854
0.000438733
-0.00507223
0.000413462
-0.00513327
0.000392167
-0.00519156
0.000369535
-0.00524449
0.000346869
-0.00529462
0.000325518
-0.00534078
0.000302005
-0.00538532
0.000281517
-0.00542427
0.000257373
-0.00546056
0.000234529
-0.00549091
0.00021064
-0.0055167
0.000184872
-0.00554089
0.000164706
-0.00556162
0.000140911
0.000118112
-0.00557804
-0.000307602
0.000248563
0.000267447
-0.000376447
0.000312305
-0.000449615
0.00035189
-0.000533181
0.000399458
-0.000620623
0.000438577
-0.000714553
0.000480631
-0.000814087
0.000521297
-0.000915875
0.000556857
-0.00102696
0.000600468
-0.00113818
0.000631771
-0.00125855
0.000672463
-0.00137787
0.000698911
-0.00150623
0.000734641
-0.00162948
0.000751688
-0.00175951
0.000780967
-0.00189236
0.000803702
-0.00202315
0.000818036
-0.00215925
0.000838464
-0.00229449
0.000850139
-0.00242817
0.000857796
-0.0025679
0.000873102
-0.00270098
0.000871853
-0.00283885
0.000881988
-0.00297508
0.000882218
-0.00310883
0.000879241
-0.00324471
0.00088004
-0.00337437
0.000868946
-0.00350526
0.000865354
-0.00363569
0.000858743
-0.00376043
0.000844797
-0.00388615
0.000838012
-0.00400787
0.00082304
-0.00412562
0.000805871
-0.00424248
0.000791777
-0.00435975
0.000777321
-0.00446936
0.000753382
-0.00458105
0.000741414
-0.00468701
0.000722381
-0.00478497
0.000700399
-0.00488205
0.000680838
-0.00497333
0.000652356
-0.00506666
0.000630469
-0.00515595
0.000602827
-0.00524062
0.000585674
-0.00532499
0.000568288
-0.00540067
0.000538752
-0.00547239
0.000513225
-0.00553729
0.000480212
-0.00560194
0.000456769
-0.00566156
0.000428866
-0.00572058
0.00040574
-0.00577224
0.000377054
-0.00582078
0.000350507
-0.00586575
0.000326411
-0.00590824
0.000299818
-0.00594304
0.000269328
-0.00597621
0.000243827
-0.00600325
0.00021193
-0.00602772
0.000189195
-0.00604862
0.000161812
-0.00606421
0.000133704
-0.00306437
1.0244e-05
-0.00307307
8.68695e-06
-0.00308011
7.03645e-06
-0.00308533
5.21349e-06
-0.00308834
3.00264e-06
-0.00308873
3.88133e-07
-0.00308743
-1.30242e-06
-0.00308403
-3.40899e-06
-0.00307872
-5.31216e-06
-0.00307106
-7.6608e-06
-0.00306153
-9.52236e-06
-0.00305015
-1.13847e-05
-0.00303679
-1.33568e-05
-0.00302139
-1.53996e-05
-0.00300427
-1.71221e-05
-0.00298535
-1.89148e-05
-0.00296446
-2.08833e-05
-0.00294159
-2.28711e-05
-0.00291707
-2.45164e-05
-0.00289073
-2.6336e-05
-0.00286266
-2.80673e-05
-0.00283303
-2.96299e-05
-0.00280171
-3.13146e-05
-0.00276864
-3.30654e-05
-0.00273408
-3.45564e-05
-0.00269792
-3.61557e-05
-0.00266025
-3.76588e-05
-0.00262101
-3.92436e-05
-0.00258028
-4.07259e-05
-0.00253821
-4.2057e-05
-0.00249471
-4.34953e-05
-0.00244982
-4.48898e-05
-0.00240372
-4.609e-05
-0.00235636
-4.73547e-05
-0.00230772
-4.8633e-05
-0.00225797
-4.97462e-05
-0.00220717
-5.07932e-05
-0.0021553
-5.18717e-05
-0.00210227
-5.30199e-05
-0.00204826
-5.40071e-05
-0.00199339
-5.48567e-05
-0.00193764
-5.57433e-05
-0.00188102
-5.66153e-05
-0.00182369
-5.73235e-05
-0.00176551
-5.81711e-05
-0.00170657
-5.89329e-05
-0.00164704
-5.95194e-05
-0.00158701
-6.00226e-05
-0.00152637
-6.06395e-05
-0.0014652
-6.11575e-05
-0.00140364
-6.15579e-05
-0.00134179
-6.18464e-05
-0.00127947
-6.23076e-05
-0.00121698
-6.24821e-05
-0.00115431
-6.26669e-05
-0.00109166
-6.2646e-05
-0.00102878
-6.28691e-05
-0.000965917
-6.28615e-05
-0.000903229
-6.26827e-05
-0.000840791
-6.24334e-05
-6.21525e-05
-0.000778634
-0.00333193
2.19476e-05
-0.00333957
1.63252e-05
-0.00334508
1.25475e-05
-0.00334845
8.57283e-06
-0.0033518
6.35609e-06
-0.00335093
-4.90286e-07
-0.00334863
-3.60851e-06
-0.00334241
-9.6253e-06
-0.00333565
-1.20776e-05
-0.00332542
-1.78951e-05
-0.00331331
-2.16329e-05
-0.00329923
-2.54651e-05
-0.00328316
-2.94256e-05
-0.00326519
-3.33691e-05
-0.0032448
-3.75119e-05
-0.00322242
-4.12867e-05
-0.00319798
-4.53241e-05
-0.00317165
-4.91995e-05
-0.00314315
-5.30098e-05
-0.00311278
-5.67027e-05
-0.0030807
-6.01446e-05
-0.00304647
-6.38534e-05
-0.00301039
-6.73966e-05
-0.00297261
-7.08427e-05
-0.00293299
-7.41669e-05
-0.00289178
-7.73658e-05
-0.00284872
-8.07161e-05
-0.00280419
-8.37619e-05
-0.00275805
-8.68646e-05
-0.00271014
-8.99672e-05
-0.00266084
-9.27859e-05
-0.00261021
-9.55196e-05
-0.00255795
-9.83386e-05
-0.00250432
-0.000100982
-0.00244951
-0.000103441
-0.00239326
-0.000105992
-0.00233577
-0.000108276
-0.00227708
-0.000110559
-0.00221733
-0.000112761
-0.00215646
-0.00011487
-0.00209435
-0.000116958
-0.00203138
-0.000118708
-0.0019675
-0.000120494
-0.0019026
-0.00012222
-0.00183691
-0.000123849
-0.0017704
-0.00012544
-0.00170318
-0.000126738
-0.00163508
-0.000128109
-0.00156646
-0.000129258
-0.00149729
-0.000130324
-0.00142759
-0.000131248
-0.00135758
-0.000131851
-0.00128667
-0.000133213
-0.00121602
-0.000133124
-0.00114453
-0.000134158
-0.00107309
-0.000134082
-0.00100094
-0.000135016
-0.000929415
-0.000134378
-0.000857903
-0.000134191
-0.000786465
-0.000133867
-0.000133919
-0.000714694
-0.00362617
3.24817e-05
-0.00363643
2.65798e-05
-0.00364251
1.863e-05
-0.00364648
1.25396e-05
-0.00364643
6.2989e-06
-0.00364614
-7.80576e-07
-0.00364191
-7.83971e-06
-0.00363518
-1.6362e-05
-0.00362647
-2.07843e-05
-0.00361626
-2.81112e-05
-0.00360372
-3.41673e-05
-0.00358726
-4.19234e-05
-0.00356917
-4.75208e-05
-0.00354862
-5.39169e-05
-0.00352585
-6.02803e-05
-0.00350074
-6.63955e-05
-0.00347352
-7.2534e-05
-0.00344417
-7.85508e-05
-0.00341262
-8.45547e-05
-0.00337917
-9.01459e-05
-0.0033433
-9.60197e-05
-0.00330557
-0.000101571
-0.00326588
-0.000107085
-0.00322424
-0.000112477
-0.00318058
-0.000117821
-0.00313503
-0.000122915
-0.0030877
-0.000128038
-0.00303853
-0.000132933
-0.00298745
-0.000137933
-0.002935
-0.000142417
-0.00288072
-0.000147056
-0.00282471
-0.000151528
-0.00276745
-0.000155592
-0.00270856
-0.000159875
-0.00264816
-0.000163831
-0.00258641
-0.000167739
-0.00252325
-0.000171425
-0.00245874
-0.000175072
-0.00239299
-0.000178504
-0.00232606
-0.000181796
-0.0022581
-0.000184907
-0.00218881
-0.000187993
-0.00211863
-0.000190675
-0.00204742
-0.000193425
-0.0019753
-0.000195955
-0.00190236
-0.000198377
-0.00182854
-0.00020055
-0.00175398
-0.000202671
-0.00167864
-0.00020459
-0.00160299
-0.000205973
-0.00152613
-0.000208099
-0.00144875
-0.000209231
-0.00137126
-0.00021069
-0.00129346
-0.000210919
-0.00121543
-0.000212188
-0.00113657
-0.000212932
-0.00105832
-0.000213265
-0.000979471
-0.000213223
-0.000900712
-0.000212946
-0.000821643
-0.000212933
-0.000212322
-0.000743237
-0.0039594
4.5524e-05
-0.00396826
3.5437e-05
-0.00397492
2.52879e-05
-0.00397737
1.49883e-05
-0.00397748
6.41182e-06
-0.00397539
-2.87622e-06
-0.00396936
-1.38728e-05
-0.00396359
-2.21276e-05
-0.00395357
-3.08039e-05
-0.0039415
-4.01853e-05
-0.00392533
-5.03353e-05
-0.00390797
-5.92821e-05
-0.00388816
-6.73275e-05
-0.00386504
-7.7035e-05
-0.00383982
-8.5499e-05
-0.00381214
-9.40774e-05
-0.00378203
-0.00010264
-0.00374946
-0.000111113
-0.00371474
-0.000119271
-0.00367742
-0.000127465
-0.00363823
-0.000135211
-0.00359659
-0.000143207
-0.00355293
-0.000150736
-0.00350712
-0.000158287
-0.00345934
-0.000165595
-0.00340927
-0.000172986
-0.00335724
-0.000180066
-0.00330333
-0.000186838
-0.00324768
-0.00019358
-0.00318985
-0.000200243
-0.00313039
-0.000206509
-0.00306935
-0.00021257
-0.00300634
-0.000218597
-0.00294186
-0.000224344
-0.00287585
-0.000229839
-0.00280833
-0.000235252
-0.00273913
-0.000240619
-0.00266861
-0.000245589
-0.00259673
-0.000250387
-0.00252364
-0.000254881
-0.00244912
-0.000259413
-0.00237369
-0.000263424
-0.00229693
-0.000267433
-0.00221922
-0.000271131
-0.00214045
-0.000274718
-0.0020607
-0.000278122
-0.00198005
-0.000281195
-0.00189873
-0.000283982
-0.00181632
-0.000287001
-0.00173324
-0.000289048
-0.00165014
-0.000291195
-0.00156582
-0.000293547
-0.00148119
-0.000295316
-0.00139558
-0.000296518
-0.00131047
-0.000297299
-0.00122463
-0.000298765
-0.00113875
-0.000299143
-0.00105296
-0.000299005
-0.000966772
-0.000299134
-0.00088083
-0.000298871
-0.000298443
-0.000794705
-0.00432094
5.70157e-05
-0.0043283
4.27946e-05
-0.00433551
3.2498e-05
-0.00433857
1.80499e-05
-0.00433748
5.31684e-06
-0.00433453
-5.82904e-06
-0.00433107
-1.73354e-05
-0.00432177
-3.14193e-05
-0.00431038
-4.21955e-05
-0.00429508
-5.54849e-05
-0.00427778
-6.76331e-05
-0.00425836
-7.87028e-05
-0.00423499
-9.0695e-05
-0.00421024
-0.000101782
-0.00418372
-0.000112017
-0.00415228
-0.000125514
-0.004119
-0.000135919
-0.00408313
-0.000146983
-0.00404465
-0.000157751
-0.00400389
-0.000168221
-0.00396056
-0.000178538
-0.0039152
-0.000188562
-0.00386733
-0.000198607
-0.0038171
-0.000208515
-0.00376437
-0.000218314
-0.00370974
-0.000227611
-0.0036529
-0.000236909
-0.0035938
-0.000245927
-0.0035327
-0.000254682
-0.00346973
-0.00026321
-0.00340469
-0.000271547
-0.0033377
-0.000279556
-0.00326903
-0.000287262
-0.00319867
-0.000294706
-0.00312648
-0.00030202
-0.00305255
-0.000309176
-0.00297729
-0.000315881
-0.00290025
-0.000322623
-0.00282173
-0.000328902
-0.00274169
-0.000334917
-0.00266054
-0.000340555
-0.00257804
-0.000345926
-0.00249446
-0.000351009
-0.00240968
-0.000355902
-0.00232384
-0.00036056
-0.0022373
-0.00036465
-0.00214868
-0.000369817
-0.00205963
-0.000373025
-0.0019704
-0.000376225
-0.00187986
-0.000379588
-0.00178889
-0.000382163
-0.00169761
-0.000384814
-0.00160533
-0.000387594
-0.0015128
-0.000389049
-0.00141876
-0.000391337
-0.00132533
-0.000392189
-0.0012319
-0.000392563
-0.0011381
-0.000392809
-0.00104398
-0.000393251
-0.00095066
-0.000392184
-0.00039194
-0.000857161
-0.00471228
6.89756e-05
-0.00472213
5.26431e-05
-0.00472588
3.62354e-05
-0.00472949
2.16643e-05
-0.00473102
6.8419e-06
-0.00472658
-1.02741e-05
-0.00471804
-2.5873e-05
-0.00470939
-4.00769e-05
-0.00469489
-5.66948e-05
-0.00468028
-7.00947e-05
-0.00466171
-8.62057e-05
-0.00463921
-0.0001012
-0.00461469
-0.000115224
-0.00458632
-0.00013015
-0.00455403
-0.000144298
-0.00451993
-0.000159612
-0.00448333
-0.000172519
-0.00444432
-0.00018599
-0.00440207
-0.000200009
-0.00435713
-0.000213155
-0.0043098
-0.000225869
-0.00425964
-0.000238721
-0.00420705
-0.000251189
-0.00415205
-0.000263519
-0.00409466
-0.000275702
-0.00403464
-0.000287626
-0.00397249
-0.000299058
-0.00390793
-0.00031048
-0.00384115
-0.000321463
-0.00377238
-0.000331977
-0.00370133
-0.000342593
-0.00362821
-0.000352671
-0.00355325
-0.000362222
-0.00347652
-0.000371433
-0.00339772
-0.00038081
-0.00331732
-0.000389577
-0.00323494
-0.000398256
-0.0031509
-0.000406665
-0.00306535
-0.000414444
-0.00297835
-0.000421913
-0.00288967
-0.000429227
-0.00279982
-0.000435773
-0.00270867
-0.000442161
-0.00261605
-0.000448516
-0.00252258
-0.000454029
-0.00242802
-0.000459204
-0.00233301
-0.000464818
-0.00223641
-0.000469625
-0.00213863
-0.000474005
-0.00204039
-0.00047782
-0.00194103
-0.000481524
-0.00184072
-0.000485119
-0.00174079
-0.000487521
-0.00163939
-0.00049044
-0.00153834
-0.000492389
-0.00143672
-0.000493797
-0.00133393
-0.000495352
-0.00123156
-0.000495182
-0.00112986
-0.000494948
-0.00102767
-0.000494361
-0.000493792
-0.000925821
-0.00513556
8.12991e-05
-0.00514577
6.28493e-05
-0.00515196
4.24152e-05
-0.00515409
2.37871e-05
-0.00515024
2.98946e-06
-0.00514642
-1.40999e-05
-0.00513855
-3.37469e-05
-0.00512667
-5.1957e-05
-0.00511283
-7.05419e-05
-0.00509328
-8.96465e-05
-0.00507178
-0.000107707
-0.00504817
-0.000124818
-0.00501876
-0.000144635
-0.00498743
-0.000161478
-0.00495423
-0.000177506
-0.00491714
-0.000196697
-0.00487613
-0.000213532
-0.00483237
-0.000229749
-0.00478552
-0.000246861
-0.00473687
-0.000261805
-0.00468462
-0.000278117
-0.00462994
-0.000293397
-0.00457246
-0.000308664
-0.00451216
-0.000323819
-0.00444916
-0.000338702
-0.00438359
-0.000353194
-0.0043154
-0.000367252
-0.00424501
-0.000380865
-0.00417234
-0.000394133
-0.00409717
-0.00040714
-0.00401963
-0.000420129
-0.00394003
-0.000432264
-0.00385813
-0.000444111
-0.0037745
-0.000455059
-0.00368894
-0.000466372
-0.00360131
-0.0004772
-0.00351175
-0.000487813
-0.0034202
-0.000498216
-0.00332691
-0.000507731
-0.00323192
-0.000516902
-0.00313546
-0.000525679
-0.00303712
-0.000534109
-0.00293804
-0.000541242
-0.00283772
-0.000548827
-0.00273647
-0.00055528
-0.0026333
-0.000562365
-0.00252887
-0.000569251
-0.00242383
-0.000574655
-0.00231861
-0.000579225
-0.00221128
-0.000585139
-0.00210357
-0.000589233
-0.00199574
-0.000592947
-0.00188618
-0.000597077
-0.00177658
-0.000600037
-0.00166594
-0.000603026
-0.00155491
-0.000604818
-0.00144435
-0.000605911
-0.00133326
-0.000606276
-0.00122184
-0.000606358
-0.00111067
-0.000605528
-0.00060466
-0.000999802
-0.0055906
9.38514e-05
-0.00559891
7.11556e-05
-0.00560348
4.69837e-05
-0.00560583
2.61292e-05
-0.00560441
1.56872e-06
-0.00559736
-2.11545e-05
-0.00558841
-4.2703e-05
-0.00557318
-6.71929e-05
-0.00555605
-8.76718e-05
-0.00553563
-0.000110073
-0.00551317
-0.000130169
-0.0054849
-0.00015309
-0.00545435
-0.000175186
-0.00542021
-0.000195623
-0.00538084
-0.000216869
-0.00534092
-0.000236617
-0.00529722
-0.000257238
-0.00524763
-0.000279332
-0.00519766
-0.000296835
-0.00514286
-0.000316601
-0.00508493
-0.000336044
-0.00502512
-0.000353202
-0.00496263
-0.00037115
-0.00489653
-0.000389912
-0.00482762
-0.00040761
-0.00475583
-0.000424981
-0.00468137
-0.000441714
-0.00460437
-0.000457868
-0.0045249
-0.000473599
-0.00444303
-0.000489006
-0.00435835
-0.000504798
-0.00427176
-0.000518856
-0.00418259
-0.00053327
-0.00409214
-0.000545509
-0.00399909
-0.000559422
-0.0039039
-0.000572381
-0.0038067
-0.00058502
-0.003707
-0.000597906
-0.00360517
-0.000609564
-0.00350195
-0.000620118
-0.00339715
-0.000630465
-0.00329063
-0.00064063
-0.00318204
-0.000649828
-0.00307361
-0.000657252
-0.00296311
-0.000665779
-0.00285048
-0.000674992
-0.00273859
-0.000681134
-0.00262404
-0.000689203
-0.00250932
-0.00069394
-0.00239372
-0.000700734
-0.0022762
-0.000706752
-0.00215896
-0.00071018
-0.0020405
-0.000715537
-0.00192223
-0.000718306
-0.00180166
-0.000723593
-0.00168175
-0.000724723
-0.00156029
-0.000727371
-0.00143962
-0.00072694
-0.00131878
-0.00072719
-0.00119857
-0.000725736
-0.000725465
-0.00107777
-0.00607686
0.000106501
-0.00608463
7.89358e-05
-0.00608921
5.15704e-05
-0.00608736
2.42873e-05
-0.00608409
-1.70411e-06
-0.00607753
-2.77054e-05
-0.0060664
-5.3841e-05
-0.00605062
-8.29732e-05
-0.00602978
-0.000108512
-0.00600845
-0.0001314
-0.00598101
-0.000157607
-0.00595032
-0.00018377
-0.00591718
-0.000208325
-0.00587734
-0.000235458
-0.00583843
-0.000255776
-0.0057923
-0.00028274
-0.00574199
-0.000307554
-0.0056905
-0.000330817
-0.00563237
-0.000354963
-0.0055735
-0.000375464
-0.00551201
-0.000397522
-0.00544491
-0.000420297
-0.00537796
-0.000438091
-0.00530533
-0.000462537
-0.00522926
-0.000483671
-0.00515176
-0.000502477
-0.00506942
-0.000524054
-0.00498629
-0.000540998
-0.00489769
-0.0005622
-0.00481065
-0.000576035
-0.00471623
-0.000599217
-0.00462358
-0.000611495
-0.00452482
-0.000632031
-0.0044285
-0.000641827
-0.00432782
-0.000660094
-0.00422418
-0.000676025
-0.00411998
-0.000689211
-0.00401083
-0.000707056
-0.00389972
-0.000720663
-0.00378925
-0.000730592
-0.00367346
-0.000746244
-0.00355636
-0.000757725
-0.00344059
-0.000765594
-0.00332005
-0.00077779
-0.00320366
-0.000782159
-0.00307946
-0.000799185
-0.00295918
-0.000801416
-0.00283295
-0.000815423
-0.00271105
-0.000815844
-0.00258578
-0.000825994
-0.00245776
-0.000834774
-0.00233302
-0.000834919
-0.002203
-0.000845552
-0.00207654
-0.000844763
-0.00194314
-0.000856988
-0.00181495
-0.000852908
-0.00168032
-0.000862001
-0.00155341
-0.000853843
-0.0014196
-0.000861003
-0.00129166
-0.000853672
-0.0011572
-0.000859924
-0.000716362
-6.22689e-05
-0.000654477
-6.18806e-05
-0.000593005
-6.14688e-05
-0.000532017
-6.09848e-05
-0.000471584
-6.0431e-05
-0.000411794
-5.97879e-05
-0.000352954
-5.88373e-05
-0.000295174
-5.77785e-05
-0.000238732
-5.64409e-05
-0.000183192
-5.55389e-05
-0.000126834
-5.63576e-05
-6.87272e-05
-5.81068e-05
-9.39654e-06
-5.93309e-05
4.89511e-05
-5.83482e-05
0.000104699
-5.57493e-05
0.000158434
-5.37356e-05
0.000210534
-5.21023e-05
0.000261142
-5.06092e-05
0.000310268
-4.91278e-05
0.000357853
-4.75867e-05
0.00040389
-4.60395e-05
0.00044832
-4.44326e-05
0.000491008
-4.26909e-05
0.000531837
-4.08312e-05
0.000570753
-3.89192e-05
0.000607694
-3.69443e-05
0.000642541
-3.485e-05
0.000675158
-3.26207e-05
0.000705434
-3.02785e-05
0.000733278
-2.78483e-05
0.000758493
-2.52181e-05
0.00078092
-2.24308e-05
0.000800442
-1.95249e-05
0.00081681
-1.63716e-05
0.000829807
-1.30009e-05
0.000839236
-9.43324e-06
0.000844771
-5.5384e-06
0.000846635
-1.86729e-06
0.000845041
1.59021e-06
0.000839991
5.04576e-06
0.000831382
8.60463e-06
0.000818608
1.27702e-05
0.000801189
1.74155e-05
0.000778709
2.24755e-05
0.000750543
2.81627e-05
0.000716076
3.44623e-05
0.000674707
4.13655e-05
0.000625711
4.89913e-05
0.000568248
5.7459e-05
0.00050157
6.66739e-05
0.000424972
7.65937e-05
0.000337915
8.70531e-05
0.000239953
9.79577e-05
0.00013069
0.000109258
3.58644e-06
0.000127099
-0.000138183
0.000141765
-0.000271018
0.00013283
-0.000382347
0.000111324
-0.000466972
8.46205e-05
-0.000529056
6.20788e-05
5.02869e-05
-0.000579347
-0.000643549
-0.000133411
-0.000572177
-0.000133249
-0.00050105
-0.000132593
-0.00043019
-0.000131843
-0.000359938
-0.000130681
-0.000289901
-0.000129822
-0.000220463
-0.000128274
-0.000151586
-0.000126655
-8.34883e-05
-0.000124537
-1.48827e-05
-0.000124144
5.39873e-05
-0.000125227
0.000121653
-0.000125772
0.000188079
-0.000125758
0.000253942
-0.000124212
0.000319349
-0.000121157
0.000383822
-0.000118209
0.000447073
-0.000115355
0.000509047
-0.000112585
0.000569675
-0.000109757
0.000628956
-0.00010687
0.000686869
-0.000103954
0.000743235
-0.0001008
0.000798053
-9.75115e-05
0.000851296
-9.4077e-05
0.000902852
-9.04777e-05
0.000952656
-8.67507e-05
0.00100057
-8.27661e-05
0.00104662
-7.86711e-05
0.00109065
-7.43114e-05
0.00113248
-6.96843e-05
0.00117215
-6.48866e-05