/*--------------------------------*- C++ -*----------------------------------*\
| =========                 |                                                 |
| \\      /  F ield         | OpenFOAM: The Open Source CFD Toolbox           |
|  \\    /   O peration     | Version:  2.3.1                                 |
|   \\  /    A nd           | Web:      www.OpenFOAM.org                      |
|    \\/     M anipulation  |                                                 |
\*---------------------------------------------------------------------------*/
FoamFile
{
    version     2.0;
    format      ascii;
    class       volScalarField;
    location    "0.58";
    object      epsilon;
}
// * * * * * * * * * * * * * * * * * * * * * * * * * * * * * * * * * * * * * //

dimensions      [0 2 -3 0 0 0 0];

internalField   nonuniform List<scalar> 
9648
(
2406.04
2394.26
2392.37
2385.62
2374.31
2358.04
2336.9
2310.7
2279.33
2242.85
2201.45
2155.24
2105.07
2051.89
1996.53
1939.93
1883.21
1827.4
1773.2
1721.14
1671.77
1625.42
1582.22
1542.34
1505.83
1472.55
1442.41
1415.31
1391.13
1369.7
1350.89
1334.55
1320.53
1308.69
1298.94
1291.14
1285.16
1280.92
1278.39
1277.49
1278.09
1280.2
1283.78
1288.74
1295.15
1303.02
1312.34
1323.07
1335.29
1349.15
1364.64
1381.74
1400.67
1421.4
1443.92
1468.03
1493.54
1520.06
1546.84
1573.29
1598.98
600.041
590.138
579.919
568.679
558.817
552.371
549.226
548.498
549.703
553.048
558.267
564.672
571.816
579.295
586.753
593.801
600.253
606.066
611.23
615.681
619.522
622.819
625.624
628.06
630.255
632.271
634.164
636.012
637.897
639.869
641.952
644.203
646.663
649.329
652.235
655.41
658.844
662.536
666.502
670.771
675.333
680.175
685.305
690.735
696.445
702.466
708.793
715.394
722.25
729.359
736.673
744.163
751.777
759.547
767.332
775.111
782.729
790.294
797.665
804.765
811.55
239.432
241.679
244.958
250.34
257.842
267.116
278.35
291.208
305.608
321.198
337.763
354.843
372.083
389.132
405.683
421.487
436.365
450.22
462.989
474.654
485.24
494.782
503.355
511.044
517.945
524.143
529.722
534.772
539.365
543.574
547.464
551.092
554.508
557.755
560.873
563.889
566.833
569.722
572.576
575.412
578.244
581.089
583.945
586.822
589.723
592.639
595.568
598.49
601.401
604.277
607.114
609.909
612.62
615.301
617.837
620.327
622.674
625.015
627.187
629.234
631.148
134.596
144.199
154.886
166.991
180.599
195.668
212.184
229.977
248.838
268.439
288.472
308.56
328.377
347.613
366.013
383.363
399.525
414.414
427.989
440.255
451.236
460.982
469.571
477.092
483.649
489.342
494.269
498.524
502.187
505.343
508.066
510.423
512.477
514.278
515.868
517.289
518.574
519.746
520.832
521.851
522.823
523.763
524.688
525.602
526.512
527.419
528.322
529.217
530.104
530.976
531.813
532.642
533.434
534.204
534.9
535.582
536.247
536.885
537.476
538.027
538.577
98.5923
111.398
125.586
141.202
158.237
176.628
196.239
216.857
238.209
259.94
281.708
303.147
323.953
343.848
362.619
380.071
396.104
410.665
423.736
435.355
445.561
454.412
462.003
468.427
473.81
478.268
481.905
484.827
487.113
488.856
490.138
491.029
491.604
491.914
492.001
491.911
491.684
491.342
490.914
490.419
489.875
489.307
488.729
488.157
487.59
487.036
486.499
485.976
485.461
484.959
484.454
483.946
483.445
482.94
482.428
481.91
481.411
480.908
480.385
479.853
479.32
84.4512
99.3276
115.892
134.043
153.629
174.499
196.414
219.085
242.174
265.283
288.058
310.126
331.222
351.088
369.584
386.507
401.79
415.433
427.43
437.872
446.818
454.314
460.496
465.442
469.316
472.251
474.356
475.755
476.513
476.731
476.506
475.896
474.996
473.86
472.514
471.017
469.422
467.731
465.985
464.2
462.386
460.575
458.786
457.036
455.318
453.641
452.008
450.43
448.894
447.388
445.911
444.451
443.011
441.59
440.177
438.803
437.461
436.126
434.783
433.443
432.091
79.436
96.0253
114.564
134.828
156.505
179.374
203.09
227.295
251.624
275.578
298.86
321.031
341.92
361.272
379.092
395.077
409.218
421.597
432.175
441.145
448.582
454.477
459.066
462.346
464.564
465.872
466.36
466.209
465.418
464.115
462.424
460.357
458.061
455.577
452.893
450.101
447.281
444.384
441.484
438.585
435.676
432.813
430.011
427.292
424.623
422.027
419.507
417.062
414.695
412.384
410.118
407.886
405.704
403.524
401.373
399.271
397.219
395.214
393.202
391.164
389.147
78.787
96.9132
117.203
139.305
162.726
187.183
212.292
237.641
262.824
287.219
310.632
332.461
352.748
371.164
388.05
402.821
415.554
426.481
435.379
442.663
448.451
452.555
455.495
456.969
457.439
457.062
455.884
454.206
451.858
449.049
445.96
442.482
438.868
435.116
431.166
427.165
423.201
419.136
415.163
411.237
407.304
403.452
399.743
396.149
392.612
389.211
385.881
382.678
379.561
376.535
373.572
370.662
367.803
364.93
362.105
359.375
356.67
354.077
351.442
348.765
346.181
80.2279
99.5546
121.365
144.856
169.806
195.428
221.47
247.801
273.375
298.064
321.248
342.641
361.953
379.157
394.89
408.335
419.577
428.901
436.336
441.951
445.841
448.096
449.129
448.982
447.765
445.551
442.809
439.648
435.639
431.37
426.816
422.085
417.421
412.4
407.072
402.044
396.833
391.567
386.607
381.522
376.458
371.37
366.921
362.475
358.012
353.994
349.723
345.865
341.828
338.075
334.207
330.674
327.219
323.597
320.082
316.883
313.424
310.525
307.223
303.801
300.761
1624.01
1648.22
1671.33
1693.3
1714.32
1734.82
1754.9
1774.86
1794.61
1813.38
1830.84
1847.54
1863.73
1879.81
1895.98
1912.92
1931.22
1951.38
1973.75
1998.79
2026.19
2055.42
2086.08
2117.79
2150.2
2183.26
2217.14
2251.48
2286.27
2321.53
2357.43
2393.84
2430.79
2468.42
2506.74
2545.66
2585.28
2625.74
2667.09
2709.19
2752.06
2795.96
2840.85
2886.57
2933.45
2981.35
3030.15
3079.89
3130.77
3182.84
3236.02
3290.19
3345.9
3402.74
3461.08
3520.71
3582.37
3646.04
3711.73
3779.33
3848.96
817.993
824.51
830.847
836.927
842.773
848.508
854.28
859.937
865.687
871.187
876.644
881.995
887.357
892.75
898.166
903.654
909.231
914.94
920.77
926.694
932.671
938.64
944.582
950.474
956.305
962.054
967.651
973.065
978.293
983.358
988.277
993.024
997.618
1002.08
1006.41
1010.6
1014.68
1018.63
1022.47
1026.19
1029.81
1033.35
1036.77
1040.09
1043.32
1046.44
1049.46
1052.34
1055.14
1057.83
1060.4
1062.86
1065.2
1067.59
1069.78
1072.05
1074.26
1076.68
1078.97
1081.31
1083.76
633.028
634.825
636.667
638.477
640.256
641.935
643.688
645.345
646.985
648.481
649.926
651.319
652.731
654.114
655.47
656.789
658.065
659.297
660.472
661.578
662.601
663.542
664.389
665.137
665.783
666.322
666.75
667.063
667.251
667.323
667.266
667.086
666.786
666.361
665.828
665.18
664.422
663.551
662.567
661.469
660.261
658.948
657.536
656.011
654.384
652.643
650.775
648.772
646.642
644.386
641.977
639.463
636.804
634.033
631.064
628.009
624.86
621.632
618.31
614.93
611.553
539.097
539.616
540.101
540.57
541.007
541.411
541.778
542.13
542.417
542.604
542.728
542.812
542.835
542.775
542.664
542.488
542.248
541.938
541.549
541.074
540.516
539.871
539.145
538.332
537.427
536.424
535.323
534.126
532.828
531.433
529.938
528.336
526.628
524.822
522.925
520.936
518.855
516.681
514.409
512.041
509.583
507.048
504.439
501.763
499.019
496.206
493.302
490.306
487.212
484.037
480.754
477.37
473.9
470.326
466.622
462.796
458.894
454.901
450.846
446.766
442.686
478.787
478.227
477.643
477.027
476.383
475.678
474.918
474.154
473.387
472.57
471.721
470.83
469.881
468.877
467.816
466.692
465.536
464.312
463.018
461.652
460.217
458.72
457.166
455.559
453.891
452.154
450.346
448.468
446.524
444.514
442.432
440.269
438.024
435.701
433.314
430.861
428.339
425.741
423.061
420.302
417.476
414.59
411.66
408.699
405.715
402.708
399.642
396.544
393.375
390.158
386.873
383.506
380.081
376.581
372.984
369.281
365.494
361.615
357.71
353.785
349.857
430.75
429.398
428.039
426.635
425.207
423.746
422.245
420.73
419.175
417.597
415.984
414.351
412.683
410.969
409.213
407.427
405.617
403.748
401.816
399.822
397.775
395.687
393.571
391.435
389.263
387.045
384.782
382.473
380.135
377.769
375.369
372.911
370.397
367.821
365.208
362.556
359.848
357.086
354.251
351.343
348.377
345.359
342.314
339.27
336.243
333.246
330.222
327.206
324.159
321.123
318.047
314.907
311.742
308.508
305.223
301.809
298.328
294.767
291.214
287.617
284.039
387.147
385.157
383.161
381.153
379.109
377.023
374.908
372.795
370.649
368.457
366.257
364.055
361.825
359.575
357.284
354.983
352.688
350.348
347.945
345.474
342.95
340.41
337.863
335.335
332.801
330.232
327.635
325.003
322.382
319.779
317.212
314.61
311.993
309.327
306.665
303.983
301.241
298.464
295.623
292.715
289.744
286.702
283.639
280.588
277.574
274.663
271.73
268.878
266.015
263.256
260.501
257.665
254.837
251.95
249.053
245.976
242.881
239.674
236.556
233.367
230.225
343.597
341.073
338.542
336.055
333.544
331.051
328.488
326.001
323.487
320.866
318.255
315.693
313.091
310.472
307.78
305.122
302.547
299.937
297.267
294.457
291.573
288.713
285.841
283.016
280.256
277.464
274.643
271.733
268.849
266.047
263.417
260.771
258.201
255.603
253.085
250.585
247.951
245.25
242.536
239.811
236.98
234.021
231.032
228.038
225.061
222.302
219.458
216.794
214.119
211.719
209.386
206.905
204.473
201.978
199.537
196.802
194.128
191.282
188.671
185.94
183.308
297.484
294.454
291.26
288.418
285.418
282.848
279.944
277.468
274.966
272.239
269.508
267.043
264.337
261.664
258.709
255.731
253.108
250.589
248.079
245.319
242.144
239.19
236.163
233.102
230.224
227.402
224.681
221.639
218.382
215.321
212.651
209.972
207.516
205.118
203.066
201.089
198.794
196.207
193.702
191.392
189.013
186.263
183.428
180.634
177.742
175.233
172.386
169.91
167.314
165.396
163.592
161.466
159.521
157.495
155.626
153.189
150.971
148.417
146.367
144.131
142.119
3921.72
3997.09
4074.45
4153.85
4235.71
4320.96
4409.04
4499.9
4593.25
4689.28
4788.35
4889.36
4992.58
5102.3
5239.14
5364.91
5489.71
5617.11
5747.03
5879.43
6014.63
6152.69
6293.2
6436.39
6582.01
6729.38
6878.2
7028.21
7179.22
7330.37
7481.56
7632.18
7781.37
7928.52
8073.13
8213.77
8349.31
8478.46
8593.14
8677.68
8735.34
8767.75
8774.74
8754.52
8705.51
8625.24
8509.65
8354.08
8154.21
7905.4
7601.36
7235.23
6801.77
6293.21
5687.48
4733.12
4310.68
4098.31
4014.25
3974.95
3895.56
1086.45
1089.23
1092.22
1095.26
1098.39
1101.76
1105.66
1109.96
1114.71
1119.77
1125.31
1128.71
1130.06
1132.95
1136.48
1141.42
1146.52
1151.57
1156.74
1162.17
1167.87
1173.87
1180.15
1186.69
1193.49
1200.51
1207.81
1215.39
1223.31
1231.6
1240.32
1249.52
1259.34
1269.87
1281.24
1293.68
1307.35
1322.64
1340.65
1369.89
1405.25
1443.73
1485.37
1530.31
1579.26
1632.55
1690.27
1752.7
1820.13
1892.11
1967.78
2045.54
2123.76
2201.49
2271.49
2337.61
2396.72
2483.48
2587.69
2696.53
2659.13
608.151
604.75
601.314
597.856
594.342
590.851
587.468
584.237
581.071
577.864
574.215
568.652
562.747
557.652
553.062
549.082
545.201
541.222
537.184
533.14
529.129
525.148
521.191
517.256
513.34
509.438
505.56
501.708
497.902
494.139
490.44
486.826
483.308
479.931
476.723
473.732
471.004
468.612
466.683
465.73
465.937
470.282
478.461
489.94
505.172
524.81
549.572
580.48
618.534
664.816
720.342
785.902
862.683
951.054
1050.95
1159.22
1266.58
1383.76
1527.04
1712.34
1903
438.607
434.537
430.466
426.377
422.241
418.104
414.015
410.023
406.009
401.892
397.004
391.077
385.309
380.075
375.224
370.721
366.331
361.958
357.584
353.235
348.911
344.594
340.293
336.011
331.744
327.501
323.283
319.091
314.926
310.792
306.689
302.624
298.608
294.653
290.769
286.976
283.294
279.739
276.339
273.155
270.268
267.975
266.939
267.626
269.892
274.076
280.637
290.22
303.664
321.987
346.594
378.808
420.29
472.181
535.195
607.43
684.666
768.229
866.28
992.437
1151.1
345.945
342.094
338.261
334.404
330.481
326.556
322.646
318.816
314.957
310.982
306.254
301.01
296.023
291.434
287.091
282.982
278.974
275.06
271.201
267.407
263.652
259.887
256.142
252.425
248.724
245.052
241.408
237.793
234.198
230.626
227.077
223.558
220.074
216.636
213.252
209.934
206.692
203.538
200.48
197.537
194.734
192.134
189.864
188.265
187.477
187.505
188.569
190.968
195.13
201.588
211.13
224.753
243.653
269.091
302.106
342.86
389.964
442.894
503.834
578.257
672.595
280.457
276.993
273.556
270.117
266.539
262.964
259.379
255.907
252.408
248.84
244.593
240.138
235.936
232.074
228.347
224.784
221.283
217.932
214.67
211.507
208.393
205.238
202.122
199.049
195.987
192.965
189.961
186.989
184.021
181.07
178.128
175.216
172.331
169.492
166.699
163.966
161.299
158.708
156.195
153.77
151.447
149.248
147.211
145.423
144.124
143.218
142.824
143.062
144.134
146.313
149.964
155.606
163.904
175.623
191.642
212.537
238.444
269.426
306.08
350.018
404.332
226.997
223.96
220.963
218.013
214.807
211.63
208.389
205.345
202.281
199.241
195.541
191.835
188.334
185.194
182.068
179.084
176.088
173.315
170.633
168.07
165.559
162.949
160.422
157.982
155.531
153.132
150.724
148.359
145.966
143.585
141.194
138.844
136.52
134.251
132.021
129.855
127.745
125.708
123.738
121.853
120.053
118.361
116.785
115.358
114.136
113.28
112.693
112.44
112.621
113.368
114.866
117.364
121.177
126.732
134.499
144.97
158.561
175.597
196.536
222.15
253.703
180.419
177.808
175.277
172.895
170.078
167.334
164.43
161.874
159.294
156.863
153.688
150.652
147.752
145.302
142.715
140.313
137.776
135.571
133.429
131.391
129.417
127.248
125.244
123.437
121.55
119.707
117.805
115.988
114.073
112.18
110.24
108.395
106.565
104.827
103.102
101.454
99.8333
98.2935
96.8135
95.4309
94.1219
92.9237
91.8368
90.8559
90.0109
89.3965
88.9925
88.7774
88.8167
89.1811
89.9683
91.2981
93.3379
96.2811
100.374
105.898
113.149
122.459
134.192
148.844
167.068
139.532
137.28
135.237
133.509
131.078
128.791
126.174
124.196
122.138
120.355
117.65
115.193
112.748
110.968
108.804
106.998
104.824
103.198
101.53
99.8731
98.3507
96.4767
94.9447
93.8638
92.4427
91.0007
89.453
88.1438
86.5495
85.0281
83.3775
82.0145
80.5949
79.3558
78.0334
76.8301
75.5454
74.4016
73.3271
72.3852
71.5158
70.7507
70.1053
69.5457
69.0249
68.6129
68.3792
68.26
68.3641
68.6151
69.2496
70.1839
71.6216
73.524
76.1016
79.3862
83.6662
89.0318
95.8705
104.445
115.1
3751.87
3594.12
3425.04
3247.03
3069.14
2896.7
2733.04
2582.48
2448.81
2334.22
2239.25
2162.96
2103.84
2059.74
2027.97
2005.99
1991.6
1983.21
1979.37
1978.83
1980.91
1985.02
1990.72
1997.88
2006.46
2016.27
2027.19
2039.24
2052.47
2066.77
2082.09
2098.38
2115.52
2133.28
2151.53
2170
2188.34
2206.27
2223.6
2239.98
2254.96
2268.34
2279.96
2289.62
2297.42
2303.66
2308.47
2312.11
2315.18
2318.43
2322.23
2326.78
2332.6
2339.83
2348.15
2357.24
2366.79
2376.77
2386.19
2394.11
2400.07
2468.5
2265.01
2066.37
1875.25
1708.07
1553.58
1410.73
1280.17
1162.22
1057.7
966.811
889.123
823.778
769.221
725.173
690.854
664.554
644.347
628.699
616.507
607
599.572
593.828
589.576
586.442
584.578
583.618
583.683
584.695
586.654
589.572
593.43
598.222
603.914
610.453
617.773
625.762
634.289
643.186
652.249
661.186
669.646
677.211
683.422
687.851
690.091
689.806
686.872
681.444
673.957
665.052
655.559
646.405
638.369
631.76
626.846
623.239
620.457
617.309
612.868
606.785
1992.22
1981.87
1883.55
1711.1
1532.44
1359.1
1190.43
1036.9
899.606
777.8
672.454
583.202
508.895
448.3
400.441
363.612
335.297
312.885
295.148
281.247
270.353
261.775
254.985
249.566
245.292
241.808
239.121
237.053
235.574
234.642
234.231
234.335
234.938
236.006
237.516
239.427
241.699
244.289
247.142
250.174
253.291
256.381
259.312
261.905
263.99
265.353
265.79
265.116
263.226
260.086
255.813
250.747
245.372
240.293
236.001
233.041
231.614
231.674
232.815
234.628
236.942
1316.9
1465.02
1564.36
1584.71
1518.63
1395.66
1229.45
1059.39
902.279
757.264
630.457
524.153
436.315
365.758
310.333
267.213
233.681
207.199
186.381
170.194
157.696
148.104
140.755
135.086
130.664
127.159
124.379
122.172
120.441
119.114
118.151
117.526
117.212
117.171
117.367
117.763
118.324
119.012
119.784
120.594
121.387
122.109
122.702
123.102
123.25
123.087
122.562
121.639
120.307
118.561
116.44
114.058
111.614
109.388
107.718
107.081
107.877
110.242
114.119
119.436
126.242
788.129
922.686
1065.74
1194.28
1278.18
1299.55
1252.85
1149.82
1014.82
861.489
713.855
587.008
477.815
388.289
317.257
261.008
216.864
182.315
155.313
134.436
118.481
106.47
97.5121
90.8132
85.7476
81.8533
78.8333
76.4782
74.6446
73.2209
72.1428
71.3732
70.8729
70.5973
70.5049
70.5575
70.7189
70.9523
71.2216
71.4862
71.7033
71.8321
71.8327
71.6672
71.302
70.7114
69.8855
68.8264
67.5404
66.0559
64.4236
62.7332
61.1401
59.8568
59.1976
59.4455
61.1315
64.613
70.1277
77.7696
87.3265
472.055
556.343
658.311
774.339
892.546
995.453
1062.88
1079.02
1041.03
956.397
841.485
715.618
588.378
476.033
384.241
308.412
248.167
200.525
162.576
133.213
111.021
94.6355
82.7122
74.0188
67.5991
62.7802
59.1301
56.3531
54.2391
52.6203
51.3992
50.5202
49.9301
49.5727
49.3994
49.3686
49.4408
49.5812
49.7543
49.9231
50.0492
50.0994
50.0391
49.8394
49.4708
48.9166
48.1715
47.245
46.1437
44.8941
43.54
42.1603
40.8819
39.8916
39.472
40.0057
41.9745
45.8552
52.0197
60.6047
71.5016
292.902
341.971
403.253
478.319
566.379
662.983
758.436
838.755
889.493
899.81
867.016
797.988
704.57
600.577
498.129
401.238
320.582
254.856
199.953
156.894
124.187
100.324
83.3314
71.1879
62.3903
55.8973
51.0698
47.4743
44.7998
42.7821
41.2731
40.185
39.4453
38.9779
38.7225
38.6283
38.6519
38.756
38.9049
39.0625
39.1917
39.2656
39.2501
39.1217
38.8482
38.421
37.8324
37.0955
36.2098
35.2038
34.1116
33.0041
31.991
31.2309
30.98
31.6315
33.6549
37.6285
44.0727
53.2507
65.1355
189.815
218.288
254.039
298.695
353.607
419.084
493.534
572.164
647.208
708.018
743.994
748.505
721.296
666.48
592.715
508.294
423.206
342.94
266.925
205.352
156.594
121.038
96.1768
78.6105
65.9614
56.6812
49.8501
44.8636
41.2449
38.549
36.5494
35.1014
34.1052
33.4512
33.0597
32.8654
32.8152
32.8674
32.9833
33.1262
33.2577
33.3578
33.3913
33.3385
33.1613
32.8587
32.4171
31.8556
31.165
30.3757
29.5148
28.6493
27.875
27.3313
27.2555
28.0172
30.1009
34.1501
40.8177
50.5093
63.2726
128.505
145.169
166.029
192.345
225.17
265.561
313.942
369.891
431.058
493.531
549.586
593.14
617.701
620.278
599.066
556.138
497.343
426.837
353.603
278.722
208.947
157.777
122.186
96.8263
78.1318
64.375
54.2618
47.0145
41.8625
38.0552
35.2662
33.2321
31.8203
30.8667
30.2579
29.9015
29.7299
29.6914
29.7438
29.8424
29.9522
30.0578
30.122
30.126
30.0277
29.8285
29.5148
29.1025
28.5813
27.9766
27.3182
26.6682
26.1205
25.7976
25.918
26.8353
29.0383
33.2119
40.0847
50.209
63.6612
1.57894
215.521
192.546
2.32545
2.28369
0.203758
0.000718811
90.7927
0.000797577
0.0146656
94.6438
7.03463
0.000719818
248.081
0.166854
135.019
0.000757784
92.3961
119.392
0.00071455
2.3236
236.677
204.686
0.000766366
0.000782135
0.209847
0.000715706
7.93837
0.00075352
0.000819882
6.6037
0.000741839
0.00875687
63.3654
3.98538
113.096
72.3274
15.9917
0.000722838
44.6388
64.5281
28.9367
0.000743503
102.668
174.086
0.716054
0.000868381
0.00871584
1.24329
7.2448
371.005
357.368
0.000697915
0.00102594
0.0639737
0.0334581
0.00081716
9.06248
59.1168
285.103
137.949
0.000907938
1.50452
0.0251241
201.903
2.46028
38.6713
63.5573
0.00112941
0.000747711
9.74091
41.3529
55.4168
0.0389621
0.0514261
79.1397
231.451
56.3084
0.00069969
5.48295
0.00235195
47.4455
0.0122366
110.699
0.000749962
8.71254
0.000792169
36.6277
0.0110737
0.00137118
0.232532
0.00069832
0.000935439
308.963
143.72
0.000868525
1.58192
1.89277
0.00184615
207.02
1.06722
31.6555
5.89585
0.000697206
0.000725762
0.000694219
1.40427
0.209577
0.000747575
174.04
222.516
0.00474659
237.402
26.5275
113.338
53.4478
28.1771
0.000975539
0.110926
0.00110755
0.0016025
190.946
0.00315737
287.9
415.325
28.5817
0.000746175
7.23989
7.07518
0.0007441
0.0298749
0.0270093
90.3562
0.00188935
62.7199
0.000749016
0.000723545
396.064
352.03
0.000749244
0.775775
149.544
0.229184
0.904794
26.6435
119.653
0.288883
27.6129
0.00527105
280.213
10.8992
0.0359301
49.5464
108.328
189.182
0.00076458
0.000757987
0.515131
0.000698335
41.3464
0.110234
0.00144857
0.000739989
0.000747681
0.000758579
41.0468
69.8654
34.035
0.000765981
289.226
305.132
402.389
166.224
0.00690214
159.141
42.922
28.1665
0.000750812
0.00170292
191.382
68.2221
29.7785
72.1836
0.000745731
0.000842819
241.479
0.0297131
2.48713
0.00075791
0.000866831
0.17304
0.00079691
334.337
4.05086
0.00069499
0.683694
89.5289
144.525
0.00119568
52.7342
0.000746957
0.000750583
107.447
32.954
305.608
0.00121256
0.00080193
0.00284902
41.7892
77.2181
9.93016
124.489
14.2593
231.769
0.804155
86.7049
82.2513
27.5492
10.7952
38.9872
0.001452
0.0293953
0.000748029
0.00072598
28.283
0.0100684
0.0118098
0.00201406
0.00626545
47.6272
197.528
0.0111058
173.017
7.59955
2.96497
0.000732536
0.54544
38.96
7.36442
0.00106076
13.0578
35.7464
0.857578
2.34702
271.231
7.43704
5.00513
122.434
0.000954795
0.000723535
0.00102975
0.00427434
28.6947
0.000783194
0.00254631
0.000723362
1.75167
75.4582
75.9622
49.1066
11.8349
11.5318
325.935
0.00113713
48.1836
98.5099
0.000744076
82.0116
0.000749635
332.661
1.74986
50.9959
0.00155313
0.000748661
20.495
7.75907
0.000759632
0.000751086
0.000755848
0.000751652
1.18322
35.3931
45.0774
0.0108778
0.00076044
0.000724253
0.000696069
104.82
1.20345
0.00119463
19.085
0.11641
0.0970808
0.000692588
0.785481
0.000760159
0.112149
47.1031
274.586
3.03231
0.000975564
0.00185037
57.0005
0.357271
128.168
323.218
0.000839115
0.000740012
0.000734077
156.086
0.000774541
136.57
0.000749958
24.3963
12.0576
0.0241664
140.243
241.562
0.00127647
49.9613
50.6048
88.3771
90.0633
9.91518
349.878
38.4952
71.0386
142.637
94.9096
55.6234
0.34067
338.618
280.595
62.7855
33.3796
0.000995374
273.416
125.25
229.297
0.0188313
0.000869108
0.000745936
0.000812917
0.684572
1.56285
6.53326
0.125205
0.00072587
170.545
0.000746525
26.5028
23.6736
191.72
42.8304
19.0492
0.00193575
0.00110854
0.468357
84.6293
0.00439229
7.92875
261.568
35.9205
84.6263
196.914
61.422
0.000821965
283.216
142.767
95.9256
0.000750865
194.277
152.285
0.000782402
30.3851
0.00075202
397.089
173.244
28.0212
81.8882
113.453
149.003
0.000764155
148.081
0.000967479
68.2738
81.8546
28.1966
279.448
3.66882
0.492103
2.58018
0.00110184
439.903
1.45338
0.00290647
0.00178281
257.407
0.000955757
93.2279
0.000737084
0.000750403
0.00183456
31.3847
0.194556
21.8899
0.00201347
83.7915
0.308848
220.946
279.121
38.4946
341.536
0.00079229
279.185
42.8629
0.000742788
79.2692
25.8304
0.000696299
0.000727299
116.935
0.00205746
27.4997
0.466888
74.7415
0.0177279
3.47877
39.7159
121.793
33.0597
84.8185
69.2362
0.000994853
0.0337236
28.6529
22.064
331.487
343.412
143.768
0.0851573
123.513
122.433
3.35292
90.4821
45.8611
26.128
0.000819132
84.9413
384.426
0.00107818
90.3204
19.3524
46.4856
0.0153971
0.0899694
270.89
0.00193871
327.59
0.00124996
1.83583
0.000738103
7.84813
165.877
0.555716
0.00132426
0.000899531
74.6025
26.8036
0.393105
5.62561
296.589
542.644
0.00137012
11.7936
27.249
71.366
26.1473
448.752
28.7255
154.827
52.504
3.40941
7.18526
302.528
53.6929
354.579
171.224
0.222705
174.697
59.4673
0.000790561
91.1873
28.8309
12.838
0.00974418
96.2244
44.5764
4.18425
52.6529
0.00159154
0.000747273
0.164021
28.3886
109.331
73.5267
0.000750281
0.000730934
0.000744368
28.2602
0.027884
0.000745937
0.248128
94.6105
274.761
0.00442783
0.00455671
0.000720937
0.000738865
0.00194856
29.3745
99.9841
21.6274
1.88946
298.906
383.765
0.00150842
63.7168
27.8127
28.3912
76.138
437.019
0.000821169
0.00448745
0.000751468
395.286
0.78386
0.000726833
10.598
0.354533
302.689
0.000759343
325.898
8.83505
0.067428
201.394
0.000748736
0.000737155
0.00102417
404.64
53.6803
129.858
319.893
10.8555
28.5008
0.000708282
0.00185243
0.468285
0.0164611
0.0163859
176.362
40.9577
0.00074816
25.3103
45.0477
184.741
406.998
0.00296248
410.236
0.00182993
0.0218841
148.074
0.000739952
145.905
0.000759636
0.000792737
0.0212682
34.1817
2.9321
321.168
61.2158
0.000883593
28.4384
502.792
0.22445
2.23471
7.21085
0.000775737
0.00076038
0.00230839
135.472
5.49338
0.000781424
271.216
280.822
216.113
0.116897
59.9585
0.00108691
30.4215
0.557058
0.131753
123.692
29.5718
148.545
173.389
0.000760811
0.000711049
0.00498638
72.6372
103.265
5.95961
0.00662247
0.000769532
0.000750642
0.00345642
0.120098
0.0021234
72.9112
21.1785
0.00497263
26.3068
172.517
0.000760927
38.0938
0.000742753
3.29872
0.000762492
0.0132551
38.938
0.0116748
0.000744634
4.08145
364.776
265.496
0.000730598
0.000745492
1.56212
0.129763
0.000747851
101.124
0.000907205
31.7663
377.664
30.1727
86.4891
293.627
132.979
336.395
0.000748196
0.00250015
0.0110697
293.252
59.8299
201.104
5.61891
4.44452
99.8176
167.164
128.269
5.04624
47.6108
0.000750657
1.53669
39.2235
33.5914
313.109
27.1137
1.17647
41.3065
0.203492
0.00941227
39.5429
0.000751622
176.915
0.00088439
2.69674
292.981
183.627
3.05275
0.00251649
7.05068
0.000769715
0.000736373
0.200552
0.0135664
50.113
0.00883183
28.6749
0.000750586
0.0191351
0.000725349
95.3673
0.00177739
85.8452
299.189
0.014413
166.256
375.978
0.000757683
97.7463
224.39
0.000784355
287.309
0.271573
0.00082168
0.000788746
284.424
0.000731652
0.00112016
0.122786
0.214428
431.358
270.531
0.000751516
0.000753549
9.27993
28.141
0.00713651
2.21843
22.4252
0.000747815
0.000956357
0.000911804
168.197
270.834
3.37551
299.052
0.0172582
26.5221
0.000770056
0.00721863
0.0161082
0.0433091
0.00074998
300.502
0.000741995
0.0161326
0.000770719
1.3895
0.0149172
0.0413216
2.5168
5.08805
34.8521
2.17926
9.34928
27.8229
189.726
0.000817143
165.506
327.06
12.6692
75.7705
0.000761801
268.239
79.5345
0.000745969
411.605
66.3845
0.00651708
0.0245711
161.398
161.064
0.239131
316.444
409.962
4.42357
431.105
265.236
128.639
50.5544
21.7076
28.4963
265.226
292.149
0.0143747
312.312
41.7273
407.678
0.000813655
1.5769
2.81757
224.445
165.271
0.0118809
443.966
194.987
7.08602
0.0553203
2.72793
28.0146
0.00155336
28.1626
439.385
0.0293109
220.764
14.1166
93.2924
189.239
0.000746369
0.00167849
7.43294
5.30324
0.0133152
0.000748427
0.822035
1.83205
0.00121102
0.000758699
267.205
7.12378
52.4758
10.6197
0.00316397
0.00107718
0.445349
87.8444
0.000825313
21.8613
29.6091
1.84867
163.172
0.0010072
0.3967
0.000740765
1.75853
87.2242
0.00158474
0.185263
40.8557
169.954
0.50306
95.879
5.05466
0.94428
0.000988639
33.1465
333.894
0.000744271
0.000752927
147.574
0.0158618
0.000758251
72.7453
2.01178
162.823
29.5438
37.8313
0.31564
17.3423
205.226
164.774
244.98
0.000763796
276.725
0.000965881
37.7141
0.000794098
0.00149837
45.0475
0.00209213
256.984
0.0121872
0.0324526
45.0087
7.63585
0.54902
0.000899302
185.688
0.000888745
0.000718756
345.558
161.269
41.3098
28.6044
0.000815116
0.000685522
19.3148
148.326
0.000731848
221.874
36.9015
0.000753326
169.017
0.000701749
3.41612
6.45273
10.7663
1.53331
75.509
20.8485
0.000700086
270.186
331.033
0.000744914
0.0133877
28.8241
0.000707941
238.027
162.029
404.237
0.000745903
0.000727819
201.403
0.0978922
0.00083702
31.147
79.8165
254.809
0.000720509
0.000793289
0.01583
0.0116128
0.000747055
0.00202685
125.821
50.6691
0.000746955
13.3154
0.00074714
10.0746
0.00108844
0.000868772
27.4913
0.000745958
0.354214
0.000730543
49.2688
2.06326
20.1652
185.165
361.83
147.472
5.22526
14.6909
0.000758252
5.70687
278.004
528.376
0.156915
0.000827901
128.707
0.000746241
0.110938
0.000720203
440.815
15.0903
3.17196
197.416
51.8807
5.00153
80.5538
7.67496
223.188
114.15
0.000774669
0.000754509
0.00309995
0.000735616
0.0141381
100.245
0.000930493
252.111
0.00186925
0.315861
3.06278
153.123
0.00135583
41.6364
0.0136263
57.2224
30.7372
435.996
0.000793064
0.000952922
1.499
85.497
64.0422
66.2567
1.95973
7.9445
19.8478
0.0625795
10.6473
1.72104
30.019
0.000753955
395.236
1.43886
56.3847
0.000788358
53.4507
16.1845
0.00184716
87.585
17.4478
0.0851733
0.000714023
0.000746325
204.114
48.3355
14.6823
0.000738234
0.00959566
50.4939
187.363
3.35006
0.00588762
0.000733079
148.099
130.002
35.772
36.0274
0.000744088
100.91
435.115
0.000746945
0.000749341
18.2566
0.00127674
0.00388603
0.211384
46.9484
0.00104878
36.2747
345.174
0.000729986
0.000820458
0.000727136
0.000770808
66.8387
517.622
336.625
0.0206649
33.8019
47.2147
0.133126
44.6724
0.000820825
31.1803
0.533025
30.4291
5.22539
81.2022
100.529
0.138194
0.000759167
159.149
84.6574
280.397
5.77442
29.6958
0.524178
21.0839
0.00354083
0.00133891
152.156
142.955
0.033557
1.15331
0.000754385
0.0999564
19.8819
0.0280452
13.5696
4.46578
384.897
36.6237
1.74188
277.691
139.729
56.4968
15.7492
201.041
189.688
3.18049
38.5413
0.00367957
47.6463
45.8744
0.00074351
0.000710076
0.357563
0.000748772
0.000773849
57.5095
297.567
0.000744885
84.2148
0.000745277
0.000736929
0.000741329
0.000751459
0.00181601
29.483
45.2702
249.327
0.000717621
0.00107299
6.75321
0.000856808
0.0282962
0.000762785
0.00086331
166.67
0.000985241
0.00468902
180.898
0.00426766
0.000749535
187.351
0.000745554
0.000761036
1.44601
0.000871741
6.58727
0.00123482
0.024229
0.000743883
0.000753517
304.386
421.137
43.9322
0.0237076
108.259
16.1762
0.00129766
27.6179
310.858
234.021
477.704
0.000701135
28.1169
56.0854
0.262422
28.4873
101.083
0.351208
31.4958
1.01472
28.3687
0.275114
7.44494
0.000757633
222.649
0.000755142
28.5867
32.416
0.000747933
0.917216
0.00246794
0.0316424
0.000725952
3.88885
0.000895715
0.000741579
40.126
0.0337697
0.165588
229.604
151.082
0.000817233
0.000966322
30.6007
261.465
0.000691333
0.000754399
0.198368
23.7832
146.632
0.00209426
15.9901
0.000745711
0.000819547
0.000718006
0.0280401
23.7433
0.00408428
276.242
29.5572
259.599
172.719
0.000844703
303.213
66.6836
0.000732675
0.000754072
0.000750343
0.00115732
0.000740402
123.249
0.000745435
0.00075106
353.383
1.21662
0.00269003
0.0375853
57.4176
7.535
0.00743793
0.000825084
185.209
0.000762694
6.59821
0.000754572
0.000847114
163.195
166.61
0.00335878
0.000831991
3.8221
0.000744319
370.813
0.000752735
152.004
0.0277721
8.43365
0.125395
3.18318
1.94855
29.4596
0.00076097
0.000861713
0.00491981
60.351
0.293279
303.962
0.000747305
0.00123838
0.00164493
257.438
61.8496
270.231
0.00225895
0.00350222
0.814402
0.000751392
19.5463
38.104
0.00880927
271.202
179.549
42.1931
0.00154998
1.45202
168.145
226.278
27.8542
0.0105667
119.937
0.516057
134.411
0.14525
2.29366
42.9172
0.000761954
28.4514
0.00122205
0.00511504
0.0064244
0.0479996
0.000909144
10.9608
0.000746216
46.1023
0.132354
0.000864336
1.55332
0.000756579
0.76536
0.229335
40.2922
3.75339
92.305