/*--------------------------------*- C++ -*----------------------------------*\
| =========                 |                                                 |
| \\      /  F ield         | OpenFOAM: The Open Source CFD Toolbox           |
|  \\    /   O peration     | Version:  2.3.1                                 |
|   \\  /    A nd           | Web:      www.OpenFOAM.org                      |
|    \\/     M anipulation  |                                                 |
\*---------------------------------------------------------------------------*/
FoamFile
{
    version     2.0;
    format      ascii;
    class       volScalarField;
    location    "0.58";
    object      p;
}
// * * * * * * * * * * * * * * * * * * * * * * * * * * * * * * * * * * * * * //

dimensions      [0 2 -2 0 0 0 0];

internalField   nonuniform List<scalar> 
9648
(
0.158808
-0.0704191
-0.349522
-0.704902
-1.13948
-1.66239
-2.28541
-3.01937
-3.86887
-4.85284
-5.98277
-7.27167
-8.73217
-10.3749
-12.2092
-14.245
-16.4904
-18.9538
-21.6387
-24.5492
-27.6903
-31.0585
-34.6536
-38.4706
-42.5053
-46.748
-51.188
-55.8162
-60.6149
-65.5748
-70.6755
-75.9015
-81.2374
-86.6585
-92.1532
-97.6934
-103.266
-108.85
-114.421
-119.958
-125.439
-130.856
-136.169
-141.369
-146.446
-151.366
-156.118
-160.685
-165.071
-169.243
-173.167
-176.846
-180.283
-183.446
-186.34
-188.949
-191.259
-193.277
-194.98
-196.381
-197.468
0.754623
0.520999
0.232193
-0.119824
-0.549479
-1.05709
-1.65489
-2.3571
-3.17812
-4.12592
-5.21159
-6.44694
-7.84304
-9.41027
-11.1584
-13.0963
-15.2318
-17.5715
-20.1204
-22.8823
-25.8601
-29.0533
-32.4604
-36.0772
-39.8985
-43.9162
-48.1208
-52.5019
-57.0458
-61.7403
-66.5687
-71.5154
-76.5644
-81.6964
-86.8945
-92.1383
-97.4109
-102.693
-107.962
-113.2
-118.387
-123.505
-128.531
-133.448
-138.239
-142.882
-147.364
-151.664
-155.772
-159.681
-163.38
-166.852
-170.087
-173.071
-175.791
-178.244
-180.41
-182.3
-183.892
-185.189
-186.175
0.58458
0.358704
0.0914289
-0.234312
-0.622318
-1.09292
-1.65336
-2.31542
-3.08972
-3.98962
-5.02568
-6.20986
-7.55281
-9.06441
-10.7543
-12.6309
-14.7017
-16.9729
-19.4491
-22.1343
-25.0306
-28.1383
-31.4557
-34.9786
-38.7015
-42.6166
-46.7148
-50.9856
-55.4165
-59.9946
-64.7046
-69.5308
-74.4573
-79.4664
-84.5401
-89.6597
-94.8076
-99.9648
-105.112
-110.23
-115.299
-120.301
-125.215
-130.025
-134.712
-139.259
-143.648
-147.866
-151.894
-155.722
-159.339
-162.732
-165.898
-168.812
-171.478
-173.876
-176.015
-177.861
-179.425
-180.702
-181.701
0.830134
0.600064
0.329051
0.00603796
-0.378121
-0.834756
-1.3749
-2.01022
-2.75233
-3.61359
-4.60589
-5.74072
-7.0286
-8.47935
-10.103
-11.9073
-13.8995
-16.0857
-18.4698
-21.0556
-23.8457
-26.8396
-30.0362
-33.4307
-37.0175
-40.7885
-44.735
-48.8474
-53.1135
-57.5204
-62.054
-66.6983
-71.438
-76.257
-81.1369
-86.0598
-91.0092
-95.9662
-100.913
-105.832
-110.703
-115.508
-120.227
-124.844
-129.342
-133.703
-137.912
-141.953
-145.815
-149.482
-152.946
-156.194
-159.22
-162.007
-164.549
-166.836
-168.862
-170.616
-172.095
-173.295
-174.214
0.89225
0.697389
0.45821
0.165604
-0.188417
-0.613537
-1.11981
-1.71807
-2.42055
-3.23827
-4.18383
-5.26729
-6.49938
-7.8889
-9.44666
-11.1793
-13.0939
-15.1963
-17.489
-19.9767
-22.6618
-25.5433
-28.6212
-31.889
-35.341
-38.9698
-42.7659
-46.7219
-50.8252
-55.0636
-59.4239
-63.8888
-68.4448
-73.0768
-77.7661
-82.4954
-87.2505
-92.0118
-96.7636
-101.489
-106.169
-110.784
-115.316
-119.75
-124.067
-128.252
-132.29
-136.166
-139.868
-143.383
-146.702
-149.814
-152.713
-155.387
-157.823
-160.014
-161.948
-163.623
-165.039
-166.186
-167.063
0.989482
0.811983
0.593485
0.324224
-0.00286173
-0.398442
-0.872044
-1.43434
-2.0982
-2.87339
-3.77364
-4.80721
-5.98549
-7.31453
-8.80812
-10.4705
-12.3082
-14.3276
-16.5284
-18.917
-21.4969
-24.2644
-27.2232
-30.3623
-33.6772
-37.1602
-40.8012
-44.597
-48.5331
-52.5976
-56.7798
-61.0588
-65.4225
-69.8601
-74.3503
-78.8762
-83.4283
-87.984
-92.5309
-97.0547
-101.534
-105.95
-110.283
-114.522
-118.648
-122.645
-126.502
-130.2
-133.731
-137.083
-140.247
-143.212
-145.974
-148.523
-150.846
-152.929
-154.764
-156.349
-157.688
-158.772
-159.596
1.09034
0.930739
0.73243
0.485206
0.183751
-0.183876
-0.626528
-1.1538
-1.78059
-2.51419
-3.37119
-4.3568
-5.48363
-6.75232
-8.18347
-9.77605
-11.5368
-13.4741
-15.5824
-17.8695
-20.3438
-22.9946
-25.8343
-28.8439
-32.0184
-35.3538
-38.8336
-42.4668
-46.2322
-50.1167
-54.1188
-58.2063
-62.3681
-66.6048
-70.8923
-75.2065
-79.5492
-83.893
-88.2262
-92.5429
-96.8164
-101.029
-105.154
-109.19
-113.119
-116.921
-120.59
-124.102
-127.454
-130.634
-133.638
-136.448
-139.064
-141.485
-143.692
-145.665
-147.393
-148.879
-150.136
-151.158
-151.928
1.18794
1.04733
0.871665
0.645677
0.37077
0.0300779
-0.383769
-0.873776
-1.46626
-2.15628
-2.97429
-3.91198
-4.99604
-6.19697
-7.56851
-9.09385
-10.7735
-12.6358
-14.6511
-16.8265
-19.2045
-21.7261
-24.4546
-27.3364
-30.3615
-33.5571
-36.8603
-40.3297
-43.9281
-47.6172
-51.4491
-55.3432
-59.277
-63.3126
-67.413
-71.4877
-75.622
-79.752
-83.8531
-87.9686
-92.0258
-96.0442
-99.9376
-103.76
-107.502
-111.093
-114.583
-117.889
-121.065
-124.053
-126.905
-129.536
-131.991
-134.29
-136.393
-138.239
-139.862
-141.223
-142.4
-143.374
-144.078
1.28844
1.15709
1.02027
0.799704
0.562772
0.238377
-0.152825
-0.578227
-1.16718
-1.77982
-2.59427
-3.45393
-4.54902
-5.61716
-6.96853
-8.44496
-10.0024
-11.8339
-13.7366
-15.7681
-18.1285
-20.4388
-23.1193
-25.8498
-28.7038
-31.8364
-34.8824
-38.2213
-41.6894
-45.1063
-48.8362
-52.5084
-56.1757
-60.0613
-64.0228
-67.6885
-71.7188
-75.6332
-79.4464
-83.4177
-87.1843
-91.0789
-94.6603
-98.3401
-101.949
-105.217
-108.629
-111.623
-114.688
-117.373
-120.136
-122.49
-124.806
-127.062
-129.042
-130.698
-132.312
-133.452
-134.622
-135.55
-136.12
-198.217
-198.645
-198.754
-198.536
-198.011
-197.168
-196.012
-194.541
-192.747
-190.656
-188.245
-185.529
-182.544
-179.293
-175.768
-171.983
-167.944
-163.678
-159.178
-154.458
-149.551
-144.442
-139.157
-133.707
-128.121
-122.404
-116.54
-110.568
-104.492
-98.3472
-92.1323
-85.8682
-79.5764
-73.2572
-66.9387
-60.6229
-54.3331
-48.0814
-41.8757
-35.7331
-29.665
-23.6949
-17.8199
-12.0604
-6.43058
-0.932653
4.41755
9.61178
14.6349
19.4802
24.1428
28.6118
32.8763
36.935
40.7774
44.3984
47.7929
50.9556
53.8859
56.5795
59.0359
-186.851
-187.197
-187.271
-187.042
-186.514
-185.695
-184.577
-183.163
-181.442
-179.426
-177.112
-174.511
-171.663
-168.569
-165.216
-161.611
-157.765
-153.693
-149.4
-144.899
-140.208
-135.333
-130.286
-125.08
-119.728
-114.242
-108.654
-102.965
-97.1827
-91.3245
-85.403
-79.4336
-73.4314
-67.4083
-61.3804
-55.3571
-49.3544
-43.3861
-37.4637
-31.5996
-25.8074
-20.1028
-14.4929
-8.99143
-3.6106
1.64263
6.75698
11.7219
16.5255
21.1607
25.6206
29.8964
33.9786
37.8642
41.544
45.0133
48.2652
51.2975
54.1069
56.6906
59.0474
-182.403
-182.831
-182.921
-182.703
-182.198
-181.417
-180.315
-178.918
-177.198
-175.186
-172.909
-170.365
-167.542
-164.451
-161.113
-157.537
-153.733
-149.711
-145.48
-141.054
-136.443
-131.658
-126.708
-121.607
-116.364
-110.99
-105.506
-99.9227
-94.253
-88.5104
-82.7086
-76.8625
-70.9856
-65.0918
-59.1939
-53.3036
-47.434
-41.598
-35.8083
-30.0775
-24.4186
-18.8448
-13.3659
-7.99397
-2.73925
2.38972
7.3822
12.2279
16.9165
21.4409
25.7925
29.9643
33.9484
37.7404
41.3321
44.7187
47.8944
50.8557
53.5999
56.1236
58.4271
-174.848
-175.207
-175.267
-175.036
-174.507
-173.662
-172.537
-171.187
-169.579
-167.702
-165.542
-163.119
-160.431
-157.489
-154.302
-150.879
-147.229
-143.364
-139.295
-135.035
-130.597
-125.988
-121.221
-116.306
-111.254
-106.076
-100.789
-95.4046
-89.9366
-84.3971
-78.7988
-73.157
-67.4852
-61.7975
-56.1046
-50.4187
-44.7516
-39.1151
-33.5228
-27.9867
-22.5195
-17.1336
-11.8396
-6.64839
-1.5696
3.38897
8.21595
12.9021
17.4361
21.8131
26.0232
30.0596
33.9166
37.588
41.0686
44.3503
47.4305
50.3028
52.966
55.4162
57.6546
-167.665
-167.995
-168.047
-167.823
-167.317
-166.532
-165.498
-164.133
-162.524
-160.668
-158.556
-156.193
-153.583
-150.734
-147.651
-144.343
-140.815
-137.08
-133.148
-129.033
-124.748
-120.301
-115.702
-110.959
-106.084
-101.089
-95.9878
-90.7948
-85.521
-80.1787
-74.778
-69.3366
-63.8665
-58.3837
-52.8956
-47.4144
-41.9501
-36.5142
-31.1212
-25.7819
-20.5085
-15.3142
-10.2086
-5.20231
-0.304782
4.47949
9.13494
13.6567
18.0303
22.2538
26.3167
30.2116
33.9347
37.4787
40.8415
44.0126
46.9919
49.7685
52.3457
54.7165
56.8845
-160.157
-160.453
-160.481
-160.243
-159.737
-158.968
-157.935
-156.64
-155.087
-153.288
-151.245
-148.96
-146.437
-143.688
-140.718
-137.529
-134.129
-130.526
-126.734
-122.77
-118.644
-114.367
-109.944
-105.379
-100.688
-95.8802
-90.9696
-85.9745
-80.9017
-75.7634
-70.5652
-65.3302
-60.067
-54.7976
-49.5217
-44.2525
-38.9983
-33.7695
-28.5827
-23.4467
-18.3734
-13.3775
-8.4661
-3.65164
1.05735
5.66309
10.1423
14.496
18.7023
22.7677
26.6777
30.425
34.01
37.4199
40.6623
43.7176
46.5927
49.2693
51.7584
54.0446
56.1398
-152.444
-152.703
-152.707
-152.453
-151.947
-151.195
-150.185
-148.919
-147.412
-145.675
-143.705
-141.501
-139.066
-136.422
-133.569
-130.504
-127.235
-123.762
-120.112
-116.303
-112.341
-108.241
-104.001
-99.6195
-95.1172
-90.4989
-85.7841
-80.9927
-76.1272
-71.1973
-66.204
-61.1784
-56.1261
-51.0782
-46.0207
-40.9725
-35.9367
-30.9205
-25.9457
-21.0208
-16.1531
-11.3605
-6.64877
-2.03225
2.48209
6.90573
11.2049
15.3888
19.4226
23.3243
27.0759
30.6709
34.1121
37.3825
40.5023
43.4386
46.2099
48.7824
51.1796
53.3761
55.3967
-144.549
-144.76
-144.743
-144.463
-143.963
-143.225
-142.243
-140.988
-139.514
-137.854
-135.964
-133.836
-131.49
-128.953
-126.231
-123.292
-120.155
-116.809
-113.307
-109.659
-105.861
-101.944
-97.9047
-93.704
-89.394
-84.9693
-80.4572
-75.8748
-71.2112
-66.495
-61.7002
-56.8899
-52.0452
-47.2329
-42.3977
-37.5906
-32.7937
-27.981
-23.2194
-18.5246
-13.8571
-9.26794
-4.76915
-0.348067
3.9569
8.20423
12.3151
16.3357
20.1823
23.9183
27.5023
30.9321
34.2346
37.3562
40.3629
43.1741
45.8486
48.302
50.6079
52.703
54.653
-136.549
-136.683
-136.654
-136.344
-135.855
-135.1
-134.163
-132.845
-131.45
-129.977
-128.093
-126.044
-123.751
-121.306
-118.817
-115.932
-112.921
-109.768
-106.392
-102.919
-99.2028
-95.4514
-91.7124
-87.5943
-83.489
-79.336
-74.9638
-70.6265
-66.0569
-61.6726
-56.9511
-52.4811
-47.7298
-43.2548
-38.6026
-34.0664
-29.5702
-24.841
-20.3003
-15.8843
-11.3331
-6.9982
-2.7506
1.55652
5.50429
9.71918
13.5028
17.4803
21.0002
24.6466
28.0799
31.246
34.5292
37.3849
40.4178
42.9746
45.6618
47.8445
50.1881
52.0801
54.0699
61.2566
63.24
64.9867
66.4976
67.7719
68.8139
69.6275
70.2176
70.5888
70.747
70.7142
70.5332
70.1976
69.6665
68.9665
68.1035
67.0404
65.7874
64.3664
62.7932
61.0797
59.2362
57.2751
55.2073
53.0452
50.8015
48.4896
46.1237
43.7161
41.2825
38.8361
36.3919
33.9654
31.57
29.2226
26.9362
24.7258
22.6054
20.5983
18.7187
16.9932
15.4253
14.0289
12.8237
11.8244
11.0403
10.481
10.1484
10.0369
10.1286
10.3903
10.769
11.187
11.5432
11.724
11.0483
9.54808
8.02894
6.7837
5.85413
5.03811
61.1776
63.082
64.7604
66.2134
67.4411
68.4455
69.2301
69.7988
70.1559
70.3037
70.256
70.0713
69.7507
69.2434
68.5626
67.7137
66.6768
65.4591
64.0785
62.5493
60.8831
59.0905
57.1832
55.1737
53.0737
50.8952
48.6507
46.353
44.0147
41.6498
39.2714
36.8937
34.5309
32.1969
29.9065
27.674
25.5139
23.4378
21.4517
19.5834
17.8409
16.2577
14.8449
13.6151
12.5802
11.7504
11.1343
10.7343
10.5451
10.5511
10.7219
11.0085
11.3369
11.6093
11.6557
11.0165
9.69714
8.34919
7.28616
6.48502
5.66199
60.5092
62.3718
64.0142
65.4381
66.6428
67.6312
68.4064
68.9725
69.332
69.4818
69.4444
69.284
68.9871
68.5022
67.8468
67.0288
66.0347
64.87
63.5477
62.0808
60.4803
58.7565
56.9213
54.986
52.9616
50.8603
48.6936
46.4741
44.214
41.9265
39.6246
37.322
35.0319
32.7683
30.5448
28.3753
26.2729
24.2498
22.3178
20.4987
18.8093
17.2647
15.8756
14.6534
13.6093
12.7531
12.0917
11.6263
11.3514
11.2524
11.3002
11.4496
11.6272
11.7335
11.5962
10.9456
9.79126
8.56557
7.53957
6.70069
5.86668
59.6785
61.4909
63.0903
64.4796
65.6568
66.6259
67.3876
67.9477
68.3044
68.4534
68.4317
68.3009
68.0288
67.5729
66.9476
66.1627
65.2116
64.1008
62.8386
61.4369
59.9058
58.2547
56.4962
54.6406
52.698
50.6814
48.6011
46.4697
44.2984
42.1005
39.8881
37.6747
35.4726
33.2953
31.1557
29.0673
27.0424
25.0936
23.2338
21.4789
19.8438
18.3412
16.9814
15.7725
14.725
13.8469
13.1423
12.6104
12.2442
12.0291
11.9367
11.9247
11.9264
11.8503
11.5619
10.909
9.90463
8.80009
7.80168
6.93444
6.11008
58.8442
60.6025
62.1546
63.5063
64.6517
65.5985
66.3428
66.8933
67.2433
67.3923
67.388
67.287
67.0376
66.6119
66.0176
65.2677
64.3586
63.3009
62.0977
60.7611
59.3003
57.722
56.0417
54.2679
52.4088
50.4796
48.4881
46.4478
44.3677
42.2623
40.1417
38.0199
35.9076
33.8187
31.7643
29.7584
27.812
25.9376
24.1465
22.4526
20.8682
19.4057
18.0745
16.8819
15.834
14.9363
14.1913
13.5962
13.1422
12.8139
12.5848
12.4157
12.2503
12.0153
11.6193
10.9763
10.0936
9.10716
8.1544
7.27951
6.45106
58.0306
59.7334
61.2347
62.5483
63.6591
64.583
65.3079
65.8487
66.1913
66.3451
66.3576
66.284
66.0554
65.6599
65.0962
64.3834
63.5154
62.5109
61.3655
60.094
58.7041
57.198
55.5967
53.906
52.1305
50.2905
48.3886
46.4411
44.4527
42.4411
40.4129
38.3837
36.3612
34.361
32.3915
30.468
28.5995
26.7985
25.0733
23.438
21.9019
20.4774
19.172
17.9917
16.9407
16.0206
15.2337
14.5755
14.0361
13.6011
13.2458
12.9361
12.6264
12.2628
11.7849
11.1445
10.3436
9.45292
8.5557
7.69459
6.86564
57.2149
58.8608
60.3084
61.5837
62.6583
63.5607
64.2664
64.7974
65.1334
65.2963
65.3248
65.2765
65.0684
64.7025
64.1691
63.4945
62.6678
61.7173
60.628
59.4224
58.1054
56.6716
55.1507
53.5433
51.8513
50.1028
48.2918
46.4387
44.5425
42.6265
40.6918
38.7564
36.8235
34.9121
33.0267
31.1856
29.3945
27.6661
26.0046
24.4257
22.935
21.5465
20.2648
19.0945
18.0376
17.095
16.2675
15.5486
14.9283
14.3957
13.9275
13.4963
13.0659
12.5981
12.0535
11.4043
10.6494
9.82513
8.97967
8.14372
7.32554
56.3866
57.9811
59.3669
60.6094
61.64
62.5263
63.209
63.734
64.0616
64.2421
64.2803
64.2589
64.0679
63.7339
63.2279
62.5941
61.8042
60.9165
59.8746
58.7378
57.4989
56.1311
54.7005
53.1766
51.5598
49.9104
48.1881
46.4354
44.6267
42.8117
40.9682
39.1308
37.2846
35.4645
33.6578
31.9007
30.1855
28.5319
26.9296
25.4068
23.9549
22.6018
21.341
20.1826
19.119
18.1523
17.29
16.5163
15.8212
15.2041
14.637
14.1045
13.5732
13.0215
12.4192
11.754
11.0192
10.237
9.42825
8.61806
7.81683
55.5846
57.2406
58.4621
59.7814
60.655
61.606
62.1566
62.7725
63.0089
63.3077
63.2529
63.3392
63.0839
62.8726
62.3151
61.7967
60.9396
60.2198
59.1739
58.1139
56.9889
55.5789
54.3107
52.9026
51.2716
49.7974
48.0923
46.5093
44.7146
43.0615
41.2452
39.5592
37.7511
36.0722
34.2882
32.6547
30.9712
29.4305
27.8477
26.4166
24.9611
23.6709
22.4091
21.2731
20.2054
19.1978
18.3175
17.493
16.722
16.0501
15.3862
14.7831
14.1566
13.5459
12.8833
12.2075
11.4689
10.7224
9.92942
9.13153
8.35102
4.23796
3.51278
2.83401
2.14838
1.46203
0.815463
0.22132
-0.311337
-0.761472
-1.12135
-1.38737
-1.56519
-1.65771
-1.65906
-1.59816
-1.49891
-1.37546
-1.24762
-1.13016
-1.03128
-0.953945
-0.891754
-0.840422
-0.793605
-0.746435
-0.710741
-0.665121
-0.615507
-0.555838
-0.484793
-0.398017
-0.294336
-0.174482
-0.0381647
0.110995
0.271548
0.438996
0.610681
0.782085
0.947375
1.10247
1.24231
1.36478
1.4653
1.54073
1.59115
1.61554
1.61513
1.59068
1.54524
1.48274
1.4064
1.31897
1.22596
1.12848
1.02916
0.926569
0.818939
0.704841
0.581369
0.420213
4.82338
4.13554
3.51694
2.87811
2.22151
1.60625
1.04165
0.530308
0.0982832
-0.243285
-0.489945
-0.638891
-0.690573
-0.660409
-0.579534
-0.470994
-0.346339
-0.221975
-0.110695
-0.0196224
0.0503316
0.103519
0.145875
0.178677
0.216419
0.238412
0.271215
0.306575
0.3507
0.406284
0.476647
0.563361
0.666576
0.785521
0.918243
1.06238
1.21458
1.37038
1.52639
1.6787
1.82239
1.95251
2.06551
2.15802
2.2272
2.27179
2.29135
2.28603
2.25695
2.20643
2.13744
2.05332
1.95685
1.85377
1.74483
1.63403
1.51965
1.40309
1.27987
1.1426
0.974196
5.06435
4.38167
3.75103
3.06364
2.3554
1.72198
1.13652
0.589058
0.119687
-0.260472
-0.550859
-0.750405
-0.861711
-0.900744
-0.869067
-0.788472
-0.664434
-0.525077
-0.401133
-0.300578
-0.223677
-0.165361
-0.120152
-0.0770412
-0.0476879
-0.0066846
0.0290542
0.0725007
0.123844
0.186316
0.26284
0.35491
0.462512
0.584609
0.719284
0.864103
1.01587
1.17088
1.32505
1.47406
1.61343
1.73902
1.847
1.93407
1.99763
2.03651
2.05032
2.04002
2.00722
1.95468
1.88562
1.80413
1.71384
1.61813
1.51959
1.42043
1.31898
1.21209
1.09471
0.956581
0.784436
5.33192
4.63823
3.977
3.27131
2.56441
1.93187
1.32959
0.757844
0.284225
-0.0892534
-0.378478
-0.573225
-0.669335
-0.681831
-0.616381
-0.488334
-0.3425
-0.225388
-0.111868
-0.0107645
0.0702072
0.132322
0.179235
0.215881
0.24166
0.270719
0.295613
0.324911
0.361001
0.407266
0.466828
0.541539
0.631945
0.737083
0.855522
0.984688
1.12171
1.26306
1.40514
1.54387
1.67494
1.79445
1.89877
1.98491
2.05036
2.09402
2.11531
2.11505
2.09443
2.05599
2.00184
1.93537
1.859
1.77544
1.68498
1.58925
1.49054
1.38857
1.27856
1.15135
1.00618
5.66922
4.94631
4.25162
3.53632
2.82768
2.16941
1.53993
0.961888
0.487325
0.0997756
-0.215958
-0.42662
-0.532734
-0.562722
-0.522801
-0.431585
-0.320928
-0.191627
-0.0764437
0.0224262
0.0984516
0.156508
0.201176
0.237968
0.26715
0.296749
0.324458
0.355684
0.392718
0.438257
0.495317
0.565953
0.650552
0.748457
0.858293
0.978017
1.10479
1.23576
1.36751
1.49648
1.61846
1.73011
1.8277
1.90885
1.97074
2.01249
2.03301
2.03325
2.0136
1.97655
1.92402
1.85947
1.78606
1.70605
1.62114
1.54152
1.46053
1.37421
1.27943
1.17466
1.04743
6.07066
5.31452
4.58632
3.85965
3.14476
2.46512
1.81957
1.22864
0.726003
0.306858
-0.0236144
-0.239715
-0.364912
-0.418583
-0.387429
-0.294645
-0.177766
-0.0557815
0.0559573
0.143083
0.206038
0.254821
0.291331
0.322205
0.346369
0.369333
0.390345
0.415034
0.445282
0.482486
0.53072
0.591645
0.665994
0.752593
0.850732
0.957948
1.07218
1.19057
1.3103
1.42807
1.5397
1.64263
1.73291
1.80915
1.86799
1.90951
1.93182
1.93696
1.92438
1.89722
1.85678
1.80691
1.7507
1.69222
1.63549
1.56775
1.49927
1.42704
1.34515
1.24942
1.13257
6.52743
5.75299
4.99952
4.25914
3.53573
2.84512
2.19197
1.5933
1.06607
0.619985
0.265331
0.0177731
-0.141191
-0.20721
-0.179
-0.0987729
0.0072647
0.118589
0.219813
0.293603
0.339298
0.372404
0.395519
0.417628
0.432729
0.447436
0.459033
0.476649
0.498947
0.526357
0.564648
0.615173
0.678833
0.753866
0.83984
0.934761
1.03603
1.14192
1.2496
1.35648
1.45785
1.55227
1.63524
1.70673
1.76234
1.80355
1.82749
1.83723
1.83124
1.81349
1.78409
1.74729
1.70481
1.6585
1.61008
1.56358
1.5136
1.45929
1.39522
1.31665
1.21636
7.02605
6.24983
5.48735
4.74461
4.0167
3.32796
2.67724
2.08581
1.55293
1.09445
0.721801
0.44658
0.244435
0.148842
0.141527
0.186679
0.281655
0.362542
0.430184
0.486837
0.502098
0.513356
0.514147
0.527198
0.527138
0.533482
0.532043
0.54245
0.558328
0.571353
0.598606
0.638266
0.693309
0.757388
0.833029
0.916114
1.00595
1.10019
1.19707
1.29466
1.38664
1.47413
1.54988
1.61807
1.66956
1.71095
1.73497
1.74904
1.74723
1.73711
1.71474
1.68771
1.65693
1.62206
1.58729
1.55355
1.5186
1.48148
1.43517
1.37624
1.29402
7.55874
6.80123
6.03493
5.2957
4.56984
3.90104
3.26597
2.71844
2.19479
1.75485
1.39842
1.1393
0.860974
0.734005
0.692629
0.669591
0.725594
0.654718
0.658554
0.737121
0.692574
0.679926
0.634721
0.668584
0.627755
0.641643
0.60213
0.612471
0.632381
0.621298
0.623704
0.661599
0.715174
0.765036
0.832605
0.906154
0.982884
1.0697
1.15712
1.25453
1.33124
1.42344
1.48165
1.5587
1.59471
1.646
1.65526
1.68774
1.6763
1.68091
1.65317
1.62849
1.60997
1.5854
1.56408
1.54112
1.51811
1.50008
1.46725
1.43529
1.36437
4.86661
-4.16525
-5.49474
14.8255
5.73877
19.369
17.9584
10.899
11.5044
29.0521
1.52923
23.6942
18.0681
2.94861
21.6654
-102.42
20.518
12.2239
1.31682
17.3994
15.058
3.30026
1.10619
20.0906
11.41
17.0724
17.4626
9.50901
20.2677
6.8219
10.4162
16.6199
28.3868
1.77348
22.9812
0.67915
0.599465
57.2834
18.6111
17.4894
7.64226
-2.83376
17.9929
-88.363
0.692136
31.5961
11.5781
3.00639
16.126
25.3301
-3.21789
-45.6933
17.0289
9.50087
13.9361
16.1668
6.92851
7.5986
0.826341
-31.1834
3.66642
15.4708
17.0605
-8.19464
-25.6469
14.8416
0.745525
8.81743
18.8217
18.052
15.3419
59.4641
6.49064
13.4014
13.3306
6.27328
-12.356
44.306
17.0807
28.0774
-0.793175
16.4623
16.6672
-36.8323
17.9431
50.2103
11.9746
1.82669
15.3141
1.56355
-13.891
17.0648
5.10354
-31.6387
-37.0678
5.60441
44.176
9.94804
25.4288
-101.705
14.4679
16.1317
24.9793
16.9458
18.0675
16.9174
15.078
39.6455
19.7188
-78.1163
-109.327
15.9071
0.852531
1.56775
5.9606
2.18355
1.07763
19.4788
-7.72952
11.2907
12.8833
0.463329
11.2776
-118.069
-26.4279
10.6742
15.275
-47.2572
-35.0391
17.7983
21.2086
-8.02656
3.18833
10.9614
2.61383
10.7422
17.9722
-53.0952
-30.6833
11.6344
9.55974
-52.9908
14.8312
49.0009
1.61471
12.4745
16.5703
1.6023
31.7403
-0.421777
16.2122
16.1897
59.0061
-33.7556
-59.3049
8.84635
8.24849
-27.96
16.5237
0.663638
16.6099
26.3504
17.3615
12.4831
14.8838
12.9972
7.0122
9.61054
17.0739
0.555699
-1.45722
1.46566
5.83204
17.3565
1.65122
1.62549
1.22262
8.82814
22.3818
1.53009
1.85808
-1.27962
-31.056
9.69231
6.42959
1.1223
-10.5268
52.0916
9.79652
11.8781
25.3882
20.1903
-16.6983
-39.2834
16.5273
-31.7712
4.10654
0.481332
21.2677
0.724958
9.82051
14.9535
13.2721
-58.8919
-1.44423
20.7989
8.45436
16.0552
-45.5935
0.81674
41.1767
-5.64708
16.333
-117.585
11.0934
-77.8433
-65.4506
1.72242
33.2766
1.88637
11.3619
40.0932
11.9646
16.6501
1.07965
-7.7475
-9.30181
11.7145
16.9454
59.6322
1.6258
21.3713
-5.07509
-37.7885
13.6155
19.2389
3.12881
-57.3933
-46.7846
19.253
13.3199
8.80296
10.9499
15.8829
-123.805
16.596
8.3621
-98.7829
23.8805
17.2138
8.80609
23.6957
1.40663
8.41795
11.3307
18.6117
25.2789
15.1485
6.59353
1.97414
15.6041
9.41933
-64.6798
18.5089
0.618022
12.7903
17.4916
1.37977
17.5155
0.960288
23.9692
1.48228
22.7677
11.3675
52.7967
9.9894
14.2591
10.7361
15.9436
20.6703
50.2654
9.64901
-72.1228
15.2816
14.8507
18.5821
16.9746
-61.948
7.94236
7.88766
-26.1093
40.4741
14.42
16.9077
35.0581
17.3617
9.51173
4.9899
-0.40884
16.2997
10.9391
5.45301
48.4356
-3.79271
2.84145
-78.9397
21.7798
18.5966
19.3488
-100.794
9.7388
11.9322
11.4542
-12.4681
16.4272
14.1964
1.09021
1.07628
7.00763
1.92776
16.4146
3.48478
15.221
14.9887
-26.5814
1.95455
15.4287
0.807189
-90.6848
6.36522
-27.2671
-44.3786
-101.472
2.13072
1.6551
16.8057
0.916472
1.16139
-124.322
35.0435
14.999
14.7514
11.9675
11.6033
49.7157
11.2365
-9.40698
18.7316
-70.8684
14.9284
1.57569
-45.4799
-114.018
10.6116
-62.0049
8.65209
2.7034
14.4637
1.9195
2.39216
10.2577
0.79627
0.990369
-6.84934
1.09885
16.0376
6.75239
-114.127
-33.9302
3.8318
16.5553
-26.0557
-49.7029
12.6269
1.75091
15.6916
-5.39227
7.20002
1.64148
-74.0414
1.17437
-79.9515
20.2167
-89.4164
11.2188
4.83235
20.7769
1.28984
-117.613
-27.7547
47.3812
50.1455
3.23323
0.603919
17.167
30.2205
16.6939
0.0272857
12.0218
-10.395
17.2595
18.7696
21.9189
21.357
-7.67847
-46.7906
12.0376
-83.1698
0.249685
-11.0326
1.74876
-62.0394
-1.55654
18.7303
-124.408
9.54961
9.36981
23.1165
-52.9768
17.0035
18.1624
1.32984
17.6944
9.92133
14.3486
1.44891
35.8758
-26.1399
-51.6954
9.45913
-61.1781
9.06483
-54.4388
16.787
15.6545
0.962312
3.97571
-93.5385
-1.33656
1.70684
-10.8577
-62.1782
-59.7728
18.252
3.71458
-41.5165
-50.1312
17.021
2.4023
-31.8333
22.8041
12.9897
36.3794
-39.9359
-0.335104
-9.66786
0.829355
9.07601
-90.1783
2.28912
10.4872
19.8254
46.9863
1.39339
44.0374
2.04282
17.3829
1.91353
1.6371
13.7153
12.413
0.572279
1.26487
16.7539
2.32947
1.60763
2.71634
1.61922
1.89236
1.44616
8.08822
4.69677
15.7676
15.6411
-111.149
9.95978
-67.9
-107.167
16.1523
0.858519
2.41323
19.0696
3.72907
1.57219
16.2812
16.9751
15.0402
5.37181
-37.593
10.4241
26.5152
13.6046
13.9396
15.5491
5.47558
0.641654
13.4645
19.1849
9.55557
1.55093
13.8734
13.5455
-12.7304
12.5469
0.0604374
-3.40889
-4.28709
17.1332
19.9571
9.40986
22.4013
3.41646
2.78922
48.6898
-21.7859
-5.02479
21.8942
8.19989
1.27399
1.53633
-80.4348
-27.1008
20.9149
3.15795
10.3395
0.590498
-21.1165
18.6384
12.0101
-27.3907
-82.6244
12.6795
-17.5209
-54.248
4.60375
-105.624
9.30095
9.44476
9.09901
-32.0261
13.8024
-81.0428
-1.95823
13.023
0.984171
17.2244
-0.334609
14.9323
12.7939
31.7271
2.86338
0.896305
14.821
7.15448
0.724977
-46.6389
-30.3964
8.05099
-33.9556
4.7499
28.6441
1.85435
9.40349
-95.8427
9.90858
8.51687
14.4038
1.56531
52.13
1.64206
8.07509
8.5304
1.44236
1.1097
13.5942
15.6258
15.9238
9.51979
10.22
29.2224
-76.4698
8.40353
17.7911
-31.8838
0.984499
-87.2619
13.6445
0.735078
17.6576
-55.4016
4.27234
-21.0918
0.893952
0.840528
2.75691
-106.275
20.5123
17.2855
6.55877
16.0298
-26.8722
-22.4936
-6.43865
10.0244
9.06896
4.9918
16.2523
-0.277081
0.699134
16.1752
23.1996
1.59706
-58.4196
20.8911
1.66578
20.4835
-8.30104
17.2091
36.3257
6.68888
29.5013
18.4647
-30.222
-21.2301
-4.34769
19.0285
10.6017
-32.4926
16.0648
12.5007
4.58373
5.5798
0.75586
-30.6885
40.4261
3.56659
2.02886
0.865068
-89.7171
9.54668
23.3227
15.6763
0.804045
5.10997
-22.8409
14.4554
12.4187
6.12755
1.60101
-6.88406
15.2121
2.1365
10.944
-21.0612
1.61067
38.966
0.891582
0.153126
8.31894
57.1944
17.015
16.6714
1.51846
10.211
7.03779
8.84895
10.2728
-116.121
1.71053
-34.9487
30.5234
17.4785
8.47544
19.2995
-6.2394
-10.9366
1.58722
3.93545
1.51648
12.87
-2.63342
18.5342
-88.78
16.7187
6.72104
2.0533
-3.49549
2.87084
-6.70726
10.6137
3.32547
1.13195
19.2025
-121.107
15.3758
17.0529
10.807
-3.98437
18.8656
3.83219
-21.4077
15.5778
-13.6596
-97.7121
17.4505
8.89868
14.5613
-63.3919
-6.52483
15.7401
42.746
12.5678
9.06246
11.5881
-111.262
-126.373
16.4747
-1.05153
-11.9746
1.62707
17.7567
6.89573
-11.4782
13.7753
15.3213
0.380575
18.4974
19.5689
8.53163
14.847
-3.05063
13.3514
-5.5476
23.095
1.8029
-4.42232
42.6148
1.18052
6.77143
21.8797
4.30836
-45.1809
24.4318
-83.9626
20.8517
1.12755
-19.5895
10.1286
-9.45011
0.690778
12.9
13.1403
-93.8049
-40.2506
13.4951
-65.1343
-8.69997
53.6276
-15.8752
-20.0163
21.2877
0.723787
5.93196
11.9644
-55.5579
-22.7424
-4.7338
-3.93187
-6.54589
0.914184
22.5875
19.0349
13.3579
-121.888
-44.4418
27.4806
2.15176
-112.372
11.2492
14.4294
10.4756
1.17161
4.76265
1.23704
-14.701
21.3573
-121.485
-17.223
-85.9924
-98.6405
18.8033
25.3209
-43.776
26.1295
14.5352
12.2426
11.0759
10.3835
26.0339
17.8914
2.07122
-51.7082
-30.2566
24.5207
2.2056
3.50348
13.7952
1.40135
12.8865
-53.606
1.49579
49.1952
2.29392
22.2499
11.5995
18.5591
15.6897
-77.0216
13.1586
44.7198
0.910256
1.0079
32.2381
61.0257
12.6091
13.2445
25.0344
-50.6876
-15.3631
17.2448
10.0511
-91.7216
27.4349
17.3698
-63.2268
15.7049
3.58778
1.44479
6.2162
-16.3313
53.7216
0.682476
-8.45311
0.0201014
17.7774
0.701785
9.54847
14.836
17.2529
12.2413
0.907835
17.2686
0.580135
30.1913
0.0838883
11.2791
10.3013
16.6147
8.42191
-49.9339
9.75612
18.0983
-29.3938
-70.9361
33.9661
1.66167
7.49569
16.6866
34.2942
-84.8311
9.49927
-2.74506
11.0533
16.2944
-88.5062
17.1681
9.78711
49.9514
29.831
-19.5518
4.30219
15.8117
17.1078
-66.8027
-4.11793
10.1341
14.8736
1.29571
17.4787
-128.042
7.33605
0.725106
10.5416
18.7243
0.342959
14.7157
22.9685
24.811
4.54373
-0.308413
17.7332
20.647
17.4392
20.2974
10.7828
18.1335
-70.6927
2.51914
18.0713
-25.6551
14.0796
7.16265
19.605
11.6239
-62.3382
10.8067
5.07176
18.8455
-20.729
16.681
-24.7202
-104.397
1.49132
1.50848
-47.7888
16.1378
18.3821
-21.5244
-104.847
1.16374
-14.3063
15.8696
-82.8329
13.368
16.5647
18.2152
-18.1683
6.9915
9.57513
-28.6844
17.3396
8.61451
-85.1668
10.5173
-119.563
47.0123
11.6487
18.2022
6.37422
16.7658
-9.20585
-6.18808
20.0784
-18.2463
5.74722
12.8581
-38.2165
4.74585
17.5273
-49.3575
14.8695
1.8929
-67.6285
-13.7134
17.1739
19.2896
14.7436
62.0706
8.74333
-2.49427
-23.8828
15.6019
-11.7214
15.4112
5.33848
15.4911
0.801544
9.88652
0.630629
-14.0498
58.8162
7.33795
59.1835
7.26592
12.8199
3.9578
20.0264
-9.45702
17.787
11.1124
1.77203
59.7005
16.7972
9.13631
-8.55594
0.595784
-109.145
15.8312
-5.69229
10.567
-21.7532
-61.9701
1.00953
-73.6734
9.53687
2.97954
-25.4973
18.319
15.7302
14.0511
12.3483
21.3913
16.1698
12.682
17.6107
1.2441
-68.3676
17.5889
20.2248
17.6584
7.95026
-73.2611
1.23861
-24.3186
15.6895
-43.474
0.830926
24.9827
-67.4982
16.9981
0.74726
40.1209
1.50933
22.7417
4.08626
1.95266
15.9664
10.4651
-107.616
13.6938
-0.843178
-39.3193
1.60245
15.8201
10.9547
30.9008
2.75187
1.60758
-79.3541
15.8743
16.4225
16.9794
-20.1313
-36.0857
13.9836
12.6686
15.0891
1.02881
1.77476
49.2857
0.766489
-65.9239
2.16181
-59.2102
0.914569
0.537383
32.2747
50.8863
13.024
59.9837
45.3654
18.3246
17.5713
6.26759
14.4884
18.5322
2.29153
1.78742
19.6608
1.67849
10.2627
19.154
9.02179
18.4891
28.7631
1.65779
-5.47334
-121.071
17.8282
12.1154
-50.7594
7.67489
22.4014
14.0192
10.9719
2.47542
17.3396
-2.26247
1.46402
30.364
12.795
1.16149
16.7472
17.4202
15.6094
5.74591
15.4886
16.9805
-3.60647
18.4938
20.5979
-76.6302
-28.6243
-18.537
14.7114
1.78126
-50.772
17.0493
1.64115
1.01257
-126.308
0.61871
16.696
8.64206
31.3586
-1.15968
1.26823
9.21523
46.3699
1.73572
16.1005
1.11535
16.5744
53.8783
14.1862
-20.8775
16.778
0.977545
-69.7262
15.6718
42.3363
4.10638
13.0541
18.7272
29.4709
10.9564
19.7031
2.04665
16.1421
10.6265
-123.461
4.33168
18.6198
19.9461
-65.2312
-82.5662
16.7309
18.1296
12.5486
11.3061
-59.7457
24.6004
-58.9796
17.8129
11.2986
17.3012
-12.1192
5.68376
17.433
0.989243
1.61446
-89.6192
-62.415
8.21047
-2.41065
-74.9156
18.2541
18.3889
18.4395
7.47277
18.9153
2.44727
18.1995
9.542
-1.35594
-25.219
2.37811
12.7352
1.68538
36.2986
16.6793
19.6076
-104.365
15.5597
15.5071
20.0773
12.4527
-73.8212
-6.83635
1.61857
17.1897
16.9989
17.6792
-3.7089
20.2297
-17.7077
8.37207
8.61566
13.5399
9.50081
15.5838
10.9136
10.6292
9.75104
-1.74232
-10.399
2.75048
-86.9659
11.8677
16.7589
0.91368
-91.5292
41.1743
1.72243
23.6916
15.9632
13.1444
11.8367
16.6321
60.7383
-8.32411
1.34555
-95.0523
16.8236
27.8821
-37.2502
3.46657
-51.7657
1.33011
30.9402
1.7601
16.6472
-22.8303
-13.3193
-38.2678
-8.48635
17.7895
1.51836
7.73496
22.4683
13.2673
19.4996
8.8256
56.7024
20.4657
16.6431
43.9049
10.7733
15.6377
18.437
20.3617
-10.6601
1.28019
9.94375
11.6298