/*--------------------------------*- C++ -*----------------------------------*\
| =========                 |                                                 |
| \\      /  F ield         | OpenFOAM: The Open Source CFD Toolbox           |
|  \\    /   O peration     | Version:  2.3.1                                 |
|   \\  /    A nd           | Web:      www.OpenFOAM.org                      |
|    \\/     M anipulation  |                                                 |
\*---------------------------------------------------------------------------*/
FoamFile
{
    version     2.0;
    format      ascii;
    class       volScalarField;
    location    "0.85";
    object      k;
}
// * * * * * * * * * * * * * * * * * * * * * * * * * * * * * * * * * * * * * //

dimensions      [0 2 -2 0 0 0 0];

internalField   nonuniform List<scalar> 
15166
(
1.07916
1.32438
1.70739
2.10976
2.42105
2.73161
2.95352
3.08644
3.13277
3.11036
3.02679
2.91529
1.07952
1.29575
1.71124
2.10199
2.41266
2.70206
2.90348
3.01962
3.05551
3.0282
2.94588
2.82557
1.08757
1.26418
1.69584
2.07995
2.38993
2.66268
2.84851
2.95203
2.98072
2.95002
2.86781
2.74424
1.09811
1.23886
1.67423
2.05152
2.35866
2.6173
2.79075
2.88473
2.90832
2.87523
2.79229
2.66388
1.1095
1.21979
1.65112
2.02089
2.32315
2.56916
2.73221
2.81867
2.83849
2.80374
2.72031
2.5912
1.12182
1.20528
1.62763
1.98941
2.28549
2.52
2.67403
2.7544
2.77131
2.73535
2.65146
2.52112
1.13508
1.19426
1.60438
1.95772
2.24667
2.4707
2.61683
2.69214
2.70674
2.66982
2.58521
2.45188
1.14908
1.18606
1.58191
1.92626
2.20748
2.42188
2.56098
2.632
2.64472
2.60711
2.52222
2.38958
1.16361
1.18019
1.56055
1.89548
2.16853
2.37397
2.50672
2.57404
2.58519
2.54713
2.46228
2.33043
1.17849
1.17621
1.54044
1.86555
2.13021
2.32728
2.45421
2.51825
2.52808
2.48977
2.40548
2.27621
1.19357
1.17377
1.52159
1.83659
2.09273
2.28193
2.40351
2.46461
2.47332
2.43499
2.35177
2.22603
1.20876
1.17255
1.50396
1.80867
2.05625
2.23804
2.35464
2.41305
2.42081
2.38274
2.30135
2.18147
1.22395
1.17232
1.48751
1.78177
2.02087
2.19562
2.30755
2.3635
2.37046
2.33288
2.25378
2.13981
1.23907
1.17292
1.47218
1.7559
1.98661
2.15467
2.26222
2.31589
2.32216
2.28518
2.20788
2.09435
1.25405
1.17411
1.45787
1.73105
1.95349
2.11519
2.2186
2.27013
2.27584
2.23959
2.16446
2.0557
1.26883
1.17581
1.44449
1.70719
1.92152
2.07712
2.17661
2.22614
2.23136
2.19594
2.12307
2.01819
1.28337
1.17786
1.43194
1.68428
1.89067
2.04044
2.1362
2.18385
2.18866
2.15413
2.08345
1.98173
1.29764
1.1802
1.42019
1.66231
1.86093
2.0051
2.0973
2.14316
2.14763
2.11401
2.04545
1.94655
1.31158
1.18275
1.40914
1.6412
1.83225
1.97103
2.05983
2.104
2.10818
2.07551
2.00908
1.9136
1.32518
1.18542
1.39873
1.62093
1.80462
1.9382
2.02373
2.0663
2.07022
2.03852
1.97421
1.88199
1.33841
1.18818
1.3889
1.60146
1.77796
1.90654
1.98894
2.02996
2.03368
2.00291
1.94055
1.85044
1.35127
1.19096
1.37957
1.58276
1.75227
1.876
1.95539
1.99494
1.99845
1.9686
1.908
1.81972
1.36372
1.19374
1.37073
1.56476
1.72748
1.84654
1.92303
1.96116
1.96449
1.93549
1.87644
1.7894
1.37575
1.1965
1.3623
1.54745
1.70358
1.81812
1.8918
1.92856
1.93172
1.90352
1.84586
1.76015
1.38736
1.1992
1.35425
1.5308
1.68052
1.79068
1.86165
1.89709
1.90006
1.8726
1.81625
1.73199
1.39852
1.20183
1.34654
1.51477
1.65827
1.76418
1.83253
1.86668
1.86947
1.8427
1.78759
1.70496
1.40926
1.20437
1.33914
1.49929
1.63678
1.73859
1.80439
1.83729
1.83989
1.81376
1.75992
1.67928
1.41955
1.20684
1.33203
1.48438
1.61603
1.71385
1.77719
1.80887
1.81127
1.78577
1.73324
1.65508
1.42939
1.20921
1.32517
1.46999
1.59597
1.68993
1.75088
1.78137
1.78357
1.75867
1.70748
1.63156
1.4388
1.21147
1.31855
1.45608
1.57659
1.6668
1.72542
1.75475
1.75674
1.73244
1.68253
1.60843
1.44774
1.21364
1.31211
1.44263
1.55785
1.64441
1.70078
1.72897
1.73075
1.70702
1.65838
1.58618
1.45624
1.2157
1.30588
1.42962
1.53971
1.62275
1.67691
1.70399
1.70555
1.68238
1.63495
1.56443
1.46427
1.21766
1.29982
1.41703
1.52216
1.60177
1.65379
1.67978
1.68113
1.65848
1.61225
1.54354
1.4719
1.21952
1.29394
1.40484
1.50517
1.58146
1.63139
1.65631
1.65744
1.63531
1.59022
1.52314
1.47903
1.22127
1.28821
1.39302
1.48871
1.56177
1.60967
1.63354
1.63445
1.61281
1.56886
1.50349
1.48576
1.22295
1.28263
1.38155
1.47275
1.54268
1.58861
1.61145
1.61214
1.59098
1.54812
1.4843
1.49204
1.22452
1.27718
1.37042
1.45729
1.52417
1.56817
1.59
1.59046
1.56976
1.528
1.46604
1.49789
1.22601
1.27187
1.35961
1.44228
1.50621
1.54833
1.56917
1.5694
1.54915
1.50848
1.44843
1.50332
1.22742
1.26668
1.3491
1.42772
1.48879
1.52907
1.54894
1.54894
1.52914
1.48952
1.43099
1.50833
1.22875
1.26161
1.33888
1.41359
1.47188
1.51037
1.52929
1.52906
1.50969
1.47116
1.41464
1.51288
1.23001
1.25664
1.32895
1.39987
1.45545
1.4922
1.51018
1.50973
1.49075
1.45313
1.39694
1.51698
1.23118
1.25178
1.31929
1.38654
1.4395
1.47455
1.49161
1.49092
1.47231
1.43544
1.3796
1.52065
1.23225
1.24702
1.30988
1.37359
1.424
1.45739
1.47355
1.47262
1.45434
1.41824
1.36366
1.5239
1.23321
1.24237
1.30073
1.361
1.40893
1.44071
1.45598
1.45481
1.43684
1.40146
1.34791
1.52673
1.23403
1.23782
1.29184
1.34877
1.39428
1.42449
1.43889
1.43746
1.41978
1.38514
1.33294
1.52915
1.23472
1.23338
1.28319
1.33686
1.38003
1.40871
1.42225
1.42056
1.40316
1.36921
1.31786
1.53116
1.23531
1.22904
1.27476
1.32525
1.36618
1.39335
1.40605
1.40411
1.38695
1.35372
1.30388
1.53277
1.23576
1.22479
1.26655
1.31396
1.3527
1.3784
1.39027
1.38806
1.37114
1.33862
1.28986
1.53401
1.23609
1.22061
1.25854
1.30297
1.33958
1.36384
1.37489
1.37241
1.35572
1.32391
1.27657
1.53485
1.23634
1.21651
1.25074
1.29228
1.32679
1.34966
1.3599
1.35714
1.34067
1.30953
1.26311
1.53532
1.23649
1.21248
1.24312
1.28187
1.31435
1.33584
1.34528
1.34225
1.32597
1.29549
1.25029
1.53542
1.23657
1.20852
1.23569
1.27173
1.30223
1.32237
1.33103
1.32771
1.31163
1.28181
1.23784
1.53515
1.23657
1.20463
1.22844
1.26186
1.29042
1.30925
1.31714
1.31353
1.29763
1.26842
1.22516
1.53451
1.23651
1.20081
1.22135
1.25223
1.27892
1.29647
1.30359
1.2997
1.28396
1.25537
1.21336
1.53353
1.23637
1.19705
1.21443
1.24285
1.26771
1.284
1.29037
1.28619
1.27061
1.24266
1.20199
1.5322
1.23615
1.19336
1.20767
1.23371
1.25678
1.27185
1.27748
1.27301
1.25759
1.23028
1.19101
1.53053
1.23585
1.18973
1.20107
1.22479
1.24613
1.26
1.2649
1.26015
1.24487
1.21819
1.17994
1.52851
1.2355
1.18618
1.19463
1.21609
1.23574
1.24845
1.25264
1.24759
1.23246
1.20638
1.16918
1.52616
1.23507
1.18269
1.18833
1.2076
1.22562
1.23718
1.24067
1.23534
1.22035
1.19478
1.1579
1.52348
1.2346
1.17927
1.18218
1.19933
1.21574
1.2262
1.229
1.22338
1.2085
1.18344
1.14743
1.52047
1.23405
1.17592
1.17617
1.19125
1.20611
1.21548
1.2176
1.2117
1.19693
1.17238
1.13757
1.51714
1.23346
1.17263
1.1703
1.18337
1.19672
1.20502
1.20648
1.20029
1.18563
1.16162
1.128
1.5135
1.2328
1.16941
1.16457
1.17568
1.18755
1.19482
1.19562
1.18916
1.17459
1.15109
1.11835
1.50953
1.2321
1.16626
1.15898
1.16818
1.17861
1.18487
1.18503
1.17829
1.16382
1.14081
1.10893
1.50524
1.23135
1.16318
1.15353
1.16086
1.1699
1.17516
1.1747
1.16768
1.15329
1.13073
1.09946
1.50064
1.23057
1.16018
1.14821
1.15372
1.1614
1.16569
1.16462
1.15732
1.14301
1.12088
1.09034
1.49575
1.22973
1.15724
1.14303
1.14676
1.1531
1.15646
1.15479
1.14721
1.13296
1.11122
1.08122
1.49054
1.22885
1.15439
1.13797
1.13998
1.14502
1.14745
1.14519
1.13734
1.12314
1.10177
1.07252
1.48502
1.22795
1.15161
1.13306
1.13336
1.13713
1.13867
1.13582
1.12771
1.11356
1.09255
1.06396
1.47921
1.22698
1.14892
1.12827
1.12692
1.12945
1.1301
1.12669
1.1183
1.10419
1.08353
1.05571
1.47311
1.22599
1.1463
1.12362
1.12064
1.12195
1.12174
1.11777
1.10912
1.09504
1.07471
1.0474
1.4667
1.22493
1.14374
1.1191
1.11453
1.11465
1.11359
1.10908
1.10016
1.08609
1.06607
1.03941
1.46001
1.22386
1.14128
1.11471
1.10858
1.10753
1.10565
1.1006
1.09141
1.07736
1.05764
1.03161
1.453
1.22278
1.13892
1.11047
1.10281
1.10061
1.09791
1.09233
1.08288
1.06884
1.0494
1.02391
1.44571
1.22164
1.13661
1.10636
1.09719
1.09386
1.09037
1.08427
1.07456
1.06051
1.04135
1.01643
1.43816
1.22046
1.1344
1.10238
1.09173
1.0873
1.08303
1.07642
1.06644
1.05238
1.03347
1.00887
1.43031
1.21922
1.13227
1.09853
1.08644
1.08092
1.07588
1.06877
1.05852
1.04445
1.02574
1.00152
1.42216
1.21796
1.13023
1.09483
1.08131
1.07472
1.06892
1.06131
1.05081
1.03671
1.01819
0.994247
1.41374
1.2167
1.12829
1.09126
1.07634
1.0687
1.06216
1.05406
1.0433
1.02916
1.0108
0.987212
1.40503
1.21538
1.12644
1.08784
1.07154
1.06285
1.05558
1.04699
1.03598
1.02179
1.00358
0.9802
1.39604
1.21403
1.12468
1.08457
1.0669
1.05719
1.04918
1.04012
1.02884
1.0146
0.996528
0.973518
1.38677
1.21264
1.123
1.08143
1.06243
1.0517
1.04297
1.03343
1.02189
1.00758
0.989633
0.967032
1.37723
1.21121
1.12142
1.07844
1.05812
1.04639
1.03695
1.02694
1.01513
1.00075
0.982926
0.960619
1.36741
1.20975
1.11994
1.0756
1.05398
1.04126
1.03112
1.02065
1.00857
0.994116
0.976387
0.954255
1.3573
1.20826
1.11857
1.07291
1.05002
1.0363
1.02547
1.01453
1.00219
0.987647
0.970005
0.948167
1.34693
1.20672
1.11729
1.07038
1.04622
1.03153
1.02
1.0086
0.995995
0.981362
0.96379
0.942082
1.33629
1.20511
1.1161
1.06801
1.04261
1.02694
1.01472
1.00286
0.989981
0.975243
0.957724
0.936341
1.32537
1.20347
1.11501
1.06579
1.03917
1.02254
1.00962
0.997305
0.984154
0.969318
0.951856
0.93063
1.31417
1.2018
1.11403
1.06374
1.03591
1.01832
1.00472
0.991941
0.978515
0.963572
0.946154
0.925118
1.30269
1.20011
1.11317
1.06186
1.03285
1.01429
1
0.986763
0.973058
0.957996
0.940584
0.919441
1.29094
1.19836
1.11239
1.06014
1.02996
1.01045
0.995475
0.98177
0.967782
0.952593
0.935203
0.914566
1.27891
1.19656
1.11172
1.0586
1.02727
1.00681
0.991146
0.976975
0.962711
0.947409
0.930071
0.90969
1.26663
1.19468
1.11117
1.05724
1.02478
1.00337
0.987015
0.972377
0.957826
0.942392
0.925077
0.904928
1.25406
1.19279
1.11071
1.05606
1.02249
1.00014
0.983086
0.967975
0.953134
0.937564
0.920263
0.900214
1.24123
1.19081
1.11037
1.05506
1.02041
0.997111
0.97936
0.963775
0.948636
0.932921
0.915611
0.895637
1.22813
1.18875
1.11013
1.05424
1.01854
0.994299
0.975845
0.959778
0.94434
0.928479
0.911148
0.89113
1.21476
1.18664
1.11001
1.05363
1.01689
0.991709
0.972544
0.955991
0.940241
0.924214
0.906827
0.886861
1.20109
1.18451
1.11
1.05322
1.01547
0.989347
0.969465
0.952412
0.936348
0.92015
0.902711
0.882715
1.18717
1.18222
1.11011
1.05301
1.01428
0.987216
0.966611
0.949052
0.932663
0.916282
0.898766
0.878771
1.17297
1.17991
1.11032
1.05302
1.01334
0.985333
0.963992
0.94592
0.929197
0.912627
0.895038
0.874956
1.15849
1.17751
1.11065
1.05323
1.01264
0.983694
0.961612
0.943013
0.92594
0.909164
0.891478
0.871461
1.14372
1.17507
1.1111
1.05368
1.01221
0.982319
0.959481
0.940341
0.92291
0.905923
0.888139
0.868142
1.12868
1.17255
1.11167
1.05435
1.01204
0.981213
0.957615
0.937924
0.920128
0.902927
0.885045
0.864957
1.11337
1.16992
1.11234
1.05524
1.01215
0.98039
0.956018
0.93576
0.917586
0.900156
0.882172
0.862065
1.09779
1.16715
1.11314
1.05639
1.01254
0.979861
0.954697
0.933858
0.91529
0.897617
0.87952
0.859481
1.08192
1.16433
1.11406
1.05779
1.01324
0.979637
0.953668
0.932232
0.913256
0.895343
0.877139
0.857022
1.06578
1.16135
1.11509
1.05944
1.01424
0.979727
0.952947
0.930895
0.911487
0.8933
0.874941
0.85483
1.04935
1.1583
1.11623
1.06135
1.01558
0.980157
0.952547
0.929863
0.910009
0.891542
0.873026
0.852809
1.03264
1.15522
1.1175
1.06355
1.01725
0.980942
0.952491
0.929151
0.908832
0.890069
0.871379
0.851042
1.01563
1.15193
1.11891
1.06604
1.01929
0.982098
0.952797
0.928771
0.907964
0.888874
0.869964
0.84945
0.998344
1.14857
1.12044
1.06882
1.02171
0.983651
0.953481
0.928754
0.907435
0.888
0.868876
0.848197
0.980763
1.14512
1.12208
1.07191
1.02452
0.985616
0.954568
0.929117
0.907263
0.88747
0.86813
0.847359
0.962913
1.1414
1.12385
1.07531
1.02775
0.988028
0.956083
0.929885
0.90748
0.88733
0.867797
0.846813
0.944767
1.13763
1.12575
1.07904
1.0314
0.990892
0.958047
0.931066
0.908073
0.88751
0.867679
0.846154
0.92633
1.13375
1.12774
1.08311
1.03551
0.994243
0.960478
0.932682
0.909058
0.888036
0.867874
0.846004
0.907616
1.12962
1.12989
1.08753
1.04009
0.998104
0.963413
0.934772
0.910484
0.888993
0.868523
0.846375
0.888592
1.12544
1.13215
1.09233
1.04518
1.00253
0.966897
0.937381
0.912388
0.89038
0.869521
0.847048
0.869278
1.12095
1.13458
1.09751
1.05081
1.00755
0.97098
0.940555
0.914826
0.892279
0.871059
0.848373
0.849669
1.11632
1.13709
1.1031
1.05702
1.01321
0.975702
0.944336
0.917833
0.894721
0.873133
0.850275
0.82979
1.11161
1.13974
1.1091
1.06383
1.01955
0.981114
0.94878
0.92145
0.897742
0.875765
0.852517
0.809612
1.10663
1.14253
1.11555
1.07129
1.02663
0.987254
0.953912
0.925696
0.901286
0.878741
0.854692
0.789123
1.10143
1.14548
1.12247
1.07943
1.0345
0.994198
0.959799
0.930639
0.905476
0.882356
0.857883
0.768348
1.09595
1.14855
1.12989
1.08832
1.04323
1.00203
0.966541
0.936388
0.91044
0.886789
0.862023
0.747296
1.09044
1.15176
1.13784
1.09802
1.05289
1.01083
0.97421
0.942978
0.916146
0.891785
0.866444
0.725927
1.08454
1.15517
1.14638
1.10859
1.0636
1.02069
0.982902
0.950519
0.922714
0.897605
0.871586
0.70426
1.07837
1.15876
1.15556
1.12014
1.07545
1.03175
0.992735
0.959109
0.93021
0.904203
0.877491
0.682311
1.07217
1.16256
1.16544
1.13278
1.08858
1.04415
1.00387
0.96891
0.938814
0.911851
0.884426
0.660026
1.06554
1.16668
1.17617
1.14665
1.10319
1.05806
1.01648
0.980057
0.948643
0.920584
0.892103
0.637423
1.05875
1.17117
1.18786
1.16196
1.11945
1.07369
1.03071
0.99268
0.959773
0.930489
0.901064
0.614446
1.05172
1.17619
1.20082
1.17895
1.13766
1.09128
1.04678
1.00694
0.972316
0.941574
0.910985
0.591097
1.04468
1.18213
1.21538
1.19807
1.15815
1.11113
1.06493
1.02308
0.9865
0.954181
0.922423
0.567259
1.03781
1.18956
1.23223
1.21982
1.18133
1.13354
1.08544
1.04125
1.00242
0.96822
0.935016
0.542866
1.03237
1.19969
1.25232
1.24484
1.20761
1.15878
1.10844
1.06161
1.02016
0.983717
0.948598
0.517794
1.03186
1.21574
1.27802
1.27442
1.23783
1.18756
1.13471
1.08474
1.04018
1.00096
0.963601
0.488282
1.03317
1.23063
1.30433
1.30263
1.26675
1.21531
1.16112
1.10812
1.06115
1.01908
0.980036
1.0407
0.00468008
0.347419
0.321803
0.32074
0.28891
0.279332
0.646843
0.830963
0.777928
0.567789
0.00777925
0.0326161
3.01862
0.277065
0.00354998
2.83098
0.110619
0.107654
0.00348339
0.140585
0.176122
0.144821
0.0269067
1.05617
0.346507
0.160017
0.375053
0.604656
0.812987
0.538076
1.16682
0.00420061
0.558277
0.0311395
0.165941
0.387304
0.47085
0.39305
0.00818294
0.0704798
0.0033773
0.0716733
0.531585
0.268449
0.173096
0.0608482
0.0248531
0.271386
0.140032
0.164096
0.634586
0.262998
0.00321463
1.98787
0.00444691
0.0106635
0.00337424
0.471548
0.266432
0.15574
1.19157
0.0032091
0.0168826
0.1836
0.0045328
0.888892
0.252362
1.53223
0.689195
1.884
0.0535756
0.383406
0.729129
0.0273707
0.00323014
0.797585
0.00309478
0.0702103
0.241063
0.103478
0.00310386
0.405745
0.295304
0.0163656
1.11908
0.884539
0.00319468
0.390995
0.23779
0.353799
0.6538
0.00319826
0.00392207
0.456864
0.00326193
0.362492
0.012842
0.00317208
0.899047
1.10872
0.203697
0.00335325
0.00434061
0.00312134
0.514839
0.512248
0.689486
0.533174
0.0088625
0.0944762
0.00312705
0.202572
0.00372681
0.00318215
0.219924
0.019524
0.219993
1.09333
0.176127
1.0245
0.0293422
1.69984
0.1997
0.125668
1.29234
0.00405452
1.96535
0.0323847
0.00320012
0.231678
0.00323636
0.233189
0.00434539
0.162788
0.00514924
0.233314
0.595959
0.208029
0.00585719
0.0170208
0.145385
0.269573
0.0254538
0.174606
1.89733
0.298921
0.00454291
0.983102
0.374162
0.0640829
0.214047
0.00309227
0.114722
0.156549
0.00314728
0.248543
0.003202
1.27998
0.00708528
0.027042
0.00356927
0.128083
0.0132883
0.149779
0.0844458
0.984658
0.291704
0.335187
0.00307307
1.88824
0.75852
1.99266
0.0179158
0.00305944
0.574581
0.00311686
0.305935
0.138027
0.719699
1.00917
0.438051
0.0629264
0.37121
0.0033904
0.262746
0.00317802
0.00315336
0.17535
0.00318555
0.48762
0.00310671
0.936801
0.0047575
0.284103
0.296508
0.27177
0.165145
0.00312702
3.17554
1.01995
0.318216
0.413988
0.217262
0.324907
0.105015
0.0915474
0.228933
0.703501
0.216979
0.288261
0.900075
0.500565
0.396576
0.00315442
0.283577
0.0129681
0.427439
3.25235
0.210309
0.294667
1.0211
0.338902
0.00315697
0.0031882
1.30873
1.11839
0.00327021
4.20619
0.0324074
0.312489
0.121387
0.00311783
0.947476
0.414202
0.253647
0.246315
1.07899
0.657
0.322202
0.154774
0.161399
1.25518
1.68695
0.375292
0.281825
0.227989
0.00350597
1.39594
0.289875
0.650696
0.726844
0.378958
3.95178
0.236706
0.240416
0.210438
0.310506
0.578065
0.341717
0.216422
0.258168
0.0157559
0.089967
0.68392
0.261859
0.922064
0.506963
0.361389
1.49128
0.2881
0.0502878
1.63946
0.209098
0.208349
1.69585
0.242287
0.260472
0.301822
0.203603
0.866181
0.238757
0.37266
0.331607
0.614216
0.273145
0.474497
0.207983
1.1208
0.128591
0.201679
1.66873
0.226326
0.224879
0.283013
0.919839
0.119714
0.206075
0.0677737
0.480368
0.183644
0.106139
1.36668
2.05756
0.154299
0.954107
0.323524
0.00318779
0.201466
0.166119
0.211164
0.288921
0.00315766
1.18633
0.320044
0.0673973
0.225815
0.762337
0.00315194
0.638771
0.0388433
0.579575
0.422672
4.92984
0.503348
0.758447
0.539098
0.00313881
0.00316297
0.285048
0.447195
0.0030775
0.517295
0.00311578
0.0031623
0.00322465
0.00311707
0.140398
0.0031637
0.00580786
1.03856
0.5123
0.003229
0.334972
0.00987162
0.19585
0.295646
1.28833
4.14643
0.481126
0.00301096
0.00323876
0.0819583
0.134224
0.208969
0.0030643
0.0988732
0.315841
0.878565
0.377779
0.177648
0.273299
1.02608
4.08658
0.157121
0.325535
0.0036491
0.00318514
0.159084
0.258135
0.116373
0.173463
0.505849
2.744
1.69548
0.143828
0.343372
1.01421
0.00319835
0.419834
0.753644
0.00527049
0.00316292
0.520382
3.82729
0.73498
0.0030802
0.0489278
0.154767
0.025673
0.00319885
0.833392
0.382689
0.277379
0.282031
0.00374825
3.81432
0.00314286
0.235827
0.544825
0.0064907
0.0111336
0.96272
0.00879742
1.40936
0.767077
1.15118
0.653579
0.172244
0.681602
0.00313953
0.00309426
0.00317226
1.03844
0.075468
1.2625
2.7626
0.164713
0.592063
0.00317912
0.0109258
0.274334
0.00308087
0.00317183
0.703334
0.00306837
0.22793
0.916443
0.371907
0.00302994
0.00749525
0.110588
0.116053
0.237032
0.144972
0.00310504
3.34348
0.836837
0.109496
0.0123934
0.327388
0.199604
0.00711825
0.279665
0.00690465
0.846249
0.0035282
0.250308
0.133135
0.00311625
1.30277
0.238425
0.322182
0.00930168
0.471292
0.144121
0.00516827
0.217478
0.490098
0.352346
1.10893
0.0240648
0.0509002
0.0115464
1.31216
0.676436
0.0630455
0.137582
0.163219
0.33492
0.182165
0.511035
1.1034
0.00304567
2.04945
0.914974
0.22664
0.00309809
0.267646
0.963221
0.0255401
0.436742
0.348871
0.256773
0.126718
0.177136
0.25943
0.00358645
0.0189259
0.875661
0.0391545
0.00438483
0.923019
4.08773
0.039562
0.19989
0.788982
0.0904684
0.491435
0.259217
0.843751
0.321201
0.29098
0.00323008
0.0851842
0.447599
0.382344
1.33291
0.214166
1.42372
0.937611
3.75207
0.888726
0.310539
0.00316689
1.26405
0.204165
0.801709
0.416482
0.163776
0.0844167
0.426549
0.00321466
0.297439
0.00317781
0.340866
0.421635
0.213241
0.17507
1.2723
0.241275
1.04348
0.642774
1.97777
0.00321794
0.123862
0.933255
2.44931
0.196093
0.71755
0.0036172
0.0282469
0.350279
1.85834
0.592224
0.00310244
0.0582263
0.00312257
0.0586921
0.351309
0.0375849
0.846824
0.142975
0.589652
0.15584
0.125202
1.23016
0.709048
0.00319514
0.00319639
0.257769
1.21776
0.275639
0.598506
0.441261
0.667502
0.266633
0.00302343
0.187563
0.253729
0.00485937
1.04936
0.265187
0.176374
0.274333
0.0127532
0.00302464
0.0237201
0.00313934
0.647197
0.817788
0.709547
0.638185
0.00319306
1.47826
0.0898868
0.742949
0.135473
1.73235
0.00867549
0.154665
0.00307428
0.497145
0.716712
0.315652
0.409609
0.00300691
1.30177
0.805991
0.510931
0.00311652
0.0709165
0.813967
0.617965
0.00610456
2.17326
0.00373911
0.805245
0.61464
0.0036302
0.131744
0.0877324
0.202517
0.00310546
0.00319887
1.15776
0.431725
0.322118
0.526604
0.00488084
0.12805
0.0982817
0.768969
0.208425
0.00395863
0.209068
1.20891
0.00307799
0.00821257
0.286309
0.635134
1.11622
0.0031581
0.729485
0.221375
1.30865
0.0298751
0.151752
0.816498
0.00319986
0.199384
0.137925
0.376256
0.383363
0.726075
0.276566
1.21708
1.17701
0.282367
2.70765
0.00323658
0.00315036
1.49711
0.783651
0.00475881
0.00315674
0.473409
0.00320625
0.823774
0.54044
0.248055
0.00311694
0.808207
0.0530296
0.29141
1.21613
0.235411
0.148535
0.145234
1.34686
0.0031921
0.28556
0.981617
0.234542
0.557309
0.00673605
0.533444
0.263317
2.03174
0.00313014
0.148922
0.683753
0.305788
0.00332103
0.0952976
0.342185
0.439234
1.26976
0.0592642
1.87647
0.406351
0.0928394
0.404966
0.00313422
0.00737526
0.363051
0.00306756
0.1753
0.00316529
0.244709
0.0107785
0.839632
0.00321719
0.110645
0.493971
1.61078
0.356927
0.669933
0.163594
2.44858
0.0156034
0.0934939
0.571846
0.00309936
0.00320601
0.380336
0.156046
0.248862
0.390768
0.00328419
0.216263
0.218749
0.20101
0.492364
1.14826
0.200076
0.00319667
1.88295
2.42482
0.506895
0.00323832
0.0108347
2.09391
0.260427
0.00311983
1.29445
0.00310059
0.0804683
2.74576
0.00354817
0.291541
0.00314941
0.0566211
0.751428
0.00324368
0.00401705
0.00318308
0.00379997
0.0216799
3.81125
0.805141
0.0939081
0.242143
0.00316397
0.765558
0.00317339
0.248064
0.232751
0.0247986
0.159763
0.0139108
1.15107
0.00318443
4.32698
0.218275
0.629212
0.35157
0.163029
0.00309676
0.193401
1.09776
0.129337
0.752519
0.886093
1.6938
0.349812
0.0419616
0.627894
0.084076
0.00406575
0.1067
2.4709
1.14891
0.120013
0.00846499
0.2975
0.00375591
0.44372
0.872048
1.08654
0.842954
0.896337
0.0372002
0.00583192
0.325983
0.224511
0.0483648
0.269498
0.00316116
0.261376
1.9658
0.00330254
1.69703
0.7833
0.114533
0.101938
1.45074
0.0236548
0.101414
0.457685
0.310686
0.294132
0.00322322
0.673992
0.0763061
0.27138
0.383127
0.199044
0.223025
0.00685735
0.688994
0.00317337
0.00316055
0.228473
0.104963
0.160167
1.9187
0.00303327
1.14083
0.0646101
0.0578784
0.00338881
1.72242
0.36386
0.0899664
0.784607
0.0598016
1.16009
0.154625
0.00314252
1.19384
2.08943
0.00546387
0.00876338
0.203566
1.03762
0.0993743
1.32474
0.0352597
0.233511
0.104148
0.156977
0.681003
0.203264
0.00318776
1.17582
0.328875
0.0151642
0.197113
4.25597
0.276462
0.00317662
0.00307079
0.764152
0.184078
1.01366
0.00306549
0.715154
0.295959
0.408497
0.00376694
0.314002
0.777358
0.00538487
0.258583
0.00321639
1.1234
0.211099
0.345391
0.262362
0.00314612
0.00314548
0.345557
1.40591
0.385968
0.732503
0.003028
0.0454082
0.0032083
0.0062619
1.15986
0.0742169
0.0971201
0.124892
0.325376
0.305708
0.356476
1.21029
0.00317283
0.304339
0.73207
0.245567
0.00319247
0.94318
0.00320555
0.00316624
0.0885917
0.211994
0.0251615
1.36394
0.203236
2.80228
0.00328522
0.0047603
0.0397766
0.903272
0.306059
0.96274
0.00316826
0.00314853
0.00629163
0.00835915
1.10577
0.805844
0.640757
0.123542
0.0448947
0.315544
0.164208
0.57807
0.275875
0.879556
0.312612
0.00308098
0.33298
0.00536886
0.194636
0.889086
0.184412
0.231718
0.133299
0.00380966
1.34384
0.51635
0.489077
0.314534
0.00315936
0.588637
0.762557
0.334202
0.00825241
0.913109
0.479542
0.838576
0.328768
0.336684
0.590121
0.120062
0.861579
0.258606
0.0979665
0.236259
0.00317894
1.21452
0.862554
0.00311821
0.684683
0.00477401
0.538049
0.204622
0.237266
0.266693
0.730719
0.953181
0.262308
0.131368
0.174756
0.219548
0.0125464
0.00310407
1.02787
0.0615858
0.93802
0.549805
0.224621
0.834627
0.54498
0.00314509
0.278253
1.53429
1.06108
0.226809
0.239313
0.570706
1.89725
0.190821
0.234674
0.0249312
0.0837575
0.546909
1.19626
0.111638
0.842164
0.821308
0.785947
0.23983
0.231321
0.425505
0.692699
0.00319155
1.9417
0.669911
0.205008
0.00319069
0.592504
0.474471
0.294877
0.00317438
0.591407
0.00317258
0.243213
0.0912317
0.00319457
0.823319
0.347653
0.00310567
0.531877
0.373563
0.608891
0.258809
0.519383
0.279645
0.70597
0.169206
0.157383
0.00312932
0.00470827
0.343427
0.173405
0.0243272
0.00322964
0.3549
0.00604328
0.119782
0.118556
0.445743
0.207249
0.0574969
0.0943232
0.549427
1.63707
0.329532
4.11883
0.870181
0.00311845
0.541079
0.589059
1.67752
0.00312663
0.173385
0.00318786
0.00359159
0.277284
0.289791
0.0391308
0.00340826
0.806082
3.7262
0.00739238
0.00317653
0.12932
0.263037
0.0240203
0.0740498
3.85302
0.140585
0.00339061
0.00317761
0.969202
0.262622
0.135716
0.0592919
0.651858
1.13166
0.39204
0.247356
0.679533
0.00317322
0.502306
0.00315978
0.231097
0.27422
5.38265
0.178326
0.0898065
0.00382908
1.18566
0.0031945
0.00313404
0.00585736
0.272527
0.287289
0.977122
0.00314931
0.507699
0.00317251
0.692933
0.977253
0.00320493
0.725389
0.225063
0.00317312
0.00330209
0.0319691
1.10733
0.383682
0.0264351
0.0031745
0.0031327
0.848848
0.685866
0.327466
0.753954
0.117758
0.438706
0.00314897
0.0103098
0.382894
0.810795
0.759509
0.00887596
0.00317631
0.397866
0.00319772
0.203649
0.805841
0.353952
0.043141
0.20087
0.506432
0.157239
0.00316975
0.513344
1.33287
0.648222
0.00644091
0.030607
0.690381
3.69256
0.0548482
0.373708
0.00311028
0.00308662
0.00321468
0.0187779
0.401774
1.07556
0.0106793
0.220963
0.633963
1.23462
0.206222
0.0197128
0.00796649
0.00758006
0.158535
0.171373
0.23679
0.00322348
1.34464
0.00314333
0.0136506
0.844375
0.853025
0.0364524
0.372724
0.468141
0.00409995
0.130324
0.255675
0.0031548
0.00378137
1.12396
0.00365649
0.0032248
0.70721
0.235373
2.09315
0.209265
2.41317
0.00356026
0.00311458
3.2458
0.296052
0.225236
0.498431
0.0604028
0.232638
0.196499
1.0213
0.814682
0.588457
0.58217
0.233365
0.111225
0.321594
0.72851
0.0146491
0.351355
0.00392248
0.439657
0.366683
0.107068
0.384332
0.188558
0.413343
0.207941
0.262182
1.11065
0.45968
0.215612
0.317319
0.710838
0.326199
0.00421339
0.00315953
0.110999
2.22847
0.00316167
1.78894
0.00312465
0.00989771
0.340468
0.221509
0.820586
0.680628
0.90295
1.14002
0.522643
0.386286
0.00316723
0.290831
1.05825
0.00323919
1.24783
0.00714263
1.70952
0.940771
1.13402
0.274175
0.206241
0.283963
0.0918502
0.284533
1.23621
0.360735
0.780231
0.169826
0.203107
0.0853784
0.231787
0.954723
0.00955246
0.66649
0.00319427
0.00393388
0.300203
1.51842
0.338434
0.273872
0.164437
0.110683
0.121761
0.00346921
0.34108
0.00346723
0.706366
0.00341834
0.0580691
0.943397
0.171792
0.3063
0.334159
0.318439
0.00623957
0.00321491
0.0992452
0.266846
0.114828
0.517125
0.0424976
0.366002
0.240404
0.374548
0.791936
0.00359434
0.00314781
1.68917
0.226571
0.172015
0.811092
0.688261
0.817705
0.00987911
1.6854
0.3358
0.213181
0.00347802
0.196949
0.403711
0.205465
0.20774
0.266035
0.0032306
0.472959
0.00313414
0.628394
0.010674
0.439934
0.118067
0.409635
0.00324326
6.5457
0.00319251
1.51064
0.0256328
0.00317523
0.0145933
0.274994
0.0031708
0.00318046
0.396911
0.0328103
0.327492
0.0569864
0.00332665
0.21898
0.186483
0.445028
0.00334123
0.224019
0.189937
1.35632
0.707292
0.394665
0.415605
0.215744
0.306642
0.77872
0.832231
0.211253
0.00322413
0.145044
0.362393
0.306285
0.0047178
0.00856101
0.234324
1.57404
0.00318406
0.206295
1.23549
0.00305009
0.849726
0.935897
0.357312
0.594762
0.796965
0.259128
0.13005
2.59089
0.411581
0.885363
0.821869
0.222435
0.107509
0.0031663
0.420481
0.0058745
0.00321786
0.00313426
0.300484
0.00316628
0.00373379
0.537768
4.05839
0.406947
0.212646
0.833912
0.239593
0.00318233
0.165935
1.14395
0.0252624
0.164364
1.01908
0.313007
0.125607
0.031213
0.00314371
0.00316818
0.027299
0.0449181
0.302829
0.299997
1.23638
0.267413
0.268778
0.00395548
0.503371
0.213622
0.0032118
0.342805
3.37884
0.00320851
0.362732
1.0168
0.739476
0.656234
0.189876
1.10329
0.00356307
0.210226
0.00331898
0.0063366
0.00320971
0.835223
0.568565
0.0741377
0.00319328
0.00307303
1.11331
0.386833
0.289222
0.235308
0.354567
0.435312
0.306092
0.349971
0.35004
0.0031772
0.151181
0.123617
0.136323
0.385294
1.05927
0.767817
0.590836
0.363232
1.11615
0.826557
0.963139
0.416028
0.88147
0.0647115
0.825364
0.393181
0.028119
1.01268
0.85589
0.447201
0.00311412
0.00320084
0.00361082
0.00444257
0.47224
0.00304521
0.49435
0.165092
0.996386
0.766836
0.00317142
0.474267
0.283351
0.186884
0.276008
0.390347
0.552735
0.00326543
0.00319927
0.0091122
0.100528
0.00313252
0.637535
0.267334
0.253038
0.760427
0.514616
0.441398
0.532105
0.00316787
0.319243
0.66913
0.00381457
0.0789439
0.409229
0.315015
0.537619
0.193285
0.00325607
0.37557
0.35845
0.00385279
0.0204918
0.0031579
0.178789
0.00440684
0.143966
1.28757
0.111601
0.0735151
1.00144
1.81235
0.00326947
0.628955
0.00305227
0.224977
0.346937
0.2478
0.484197
0.691017
0.676933
0.802332
1.22353
0.746828
0.00317862
0.00314518
0.0531816
0.101386
0.6066
0.172312
0.00319371
1.58822
0.253979
0.00825333
0.788517
0.0587041
0.00816872
0.0403911
0.99779
0.00646964
0.003195
0.258381
0.205953
0.640865
0.118252
0.226225
0.202943
0.00321397
0.291333
0.0902771
0.0600329
0.00337582
0.202593
0.53439
0.173663
1.44932
1.33534
0.316586
0.413412
0.00316339
0.35972
0.00319511
2.73031
0.0103364
0.430728
0.0942377
0.840421
0.0163767
0.00933717
0.248378
0.30777
1.30282
0.00356466
0.212142
0.482243
0.609097
0.185545
0.999393
0.120685
0.00343511
0.00320506
0.479168
0.635616
1.06302
0.289456
0.0848843
0.530375
0.328533
0.819079
0.0460116
0.00316921
0.00318277
0.122287
0.707433
0.689922
0.993098
0.00353341
0.0109607
0.167984
0.452397
0.268483
0.759184
0.349926
0.87921
0.00319888
0.00320958
1.13664
0.275257
0.885354
2.87798
0.36
0.0246361
1.41152
0.00318408
1.02331
0.0277214
0.0308296
0.00317113
0.0418009
0.0845682
0.837371
0.794284
0.00322673
0.758405
0.00316013
0.601095
1.56608
0.00314505
0.157375
0.00322657
0.259039
0.127541
0.174708
0.00308787
0.262057
0.211772
0.257336
1.02367
0.170226
1.22477
0.217517
0.833557
0.237363
1.11762
0.638022
0.00384251
0.00320865
0.37546
0.195129
0.82372
0.00317726
2.11179
0.00315893
0.00478216
0.0389339
0.00316026
1.14235
0.974591
0.00324379
0.665466
0.256682
0.102527
0.709355
0.00608349
0.0031292
0.422969
0.385981
0.00977422
0.776458
6.66906
1.35832
0.15534
1.19734
0.104347
0.00318524
0.00368816
0.0351783
0.13707
0.844322
1.09011
1.31563
0.795697
0.53163
0.509196
0.257832
0.65204
1.9438
0.591114
0.0430505
0.078323
0.278801
1.50664
0.00338242
0.194293
0.655474
0.33347
0.00317286
0.423951
0.00305912
0.0138654
0.843745
0.00338761
0.298126
1.8499
0.00318984
0.352639
0.00351442
0.337265
0.0141159
0.00406731
0.767094
0.255193
0.915558
0.399758
1.12067
1.64652
0.489663
0.175872
0.752183
0.38851
0.0031157
0.577487
0.0585332
1.24006