/*--------------------------------*- C++ -*----------------------------------*\
| =========                 |                                                 |
| \\      /  F ield         | OpenFOAM: The Open Source CFD Toolbox           |
|  \\    /   O peration     | Version:  2.3.1                                 |
|   \\  /    A nd           | Web:      www.OpenFOAM.org                      |
|    \\/     M anipulation  |                                                 |
\*---------------------------------------------------------------------------*/
FoamFile
{
    version     2.0;
    format      ascii;
    class       volScalarField;
    location    "0.85";
    object      nut;
}
// * * * * * * * * * * * * * * * * * * * * * * * * * * * * * * * * * * * * * //

dimensions      [0 2 -1 0 0 0 0];

internalField   nonuniform List<scalar> 
15166
(
9.72536e-05
0.000157297
0.000262299
0.000376504
0.000476717
0.000591363
0.000709542
0.000837761
0.000957388
0.00108041
0.00119717
0.00129734
9.72685e-05
0.000171231
0.000283032
0.000397079
0.000500893
0.000614535
0.000731385
0.000854751
0.000972044
0.00109056
0.00120296
0.00130396
9.76316e-05
0.000182562
0.000299308
0.000414051
0.000520742
0.000633756
0.000749314
0.00086894
0.000984024
0.00109873
0.00120756
0.00130836
9.81045e-05
0.000192712
0.000313185
0.000428685
0.000537417
0.00064987
0.000764153
0.000880788
0.000993744
0.00110517
0.001211
0.00131164
9.861e-05
0.000201891
0.000325462
0.000441677
0.00055177
0.000663622
0.000776592
0.000890712
0.00100162
0.00111017
0.00121349
0.00131354
9.91566e-05
0.000210146
0.000336473
0.000453339
0.000564311
0.00067548
0.000787126
0.00089905
0.00100796
0.00111394
0.00121504
0.00131437
9.97394e-05
0.000217565
0.000346478
0.000463903
0.000575347
0.000685793
0.000796114
0.000906042
0.00101303
0.00111667
0.00121577
0.00131481
0.000100357
0.000224233
0.00035568
0.00047353
0.000585153
0.000694822
0.000803829
0.000911914
0.00101704
0.00111856
0.00121603
0.00131539
0.000100988
0.000230214
0.000364228
0.000482412
0.00059396
0.000702789
0.000810492
0.000916859
0.00102019
0.00111977
0.00121582
0.00131513
0.000101631
0.000235548
0.000372213
0.000490644
0.000601938
0.000709885
0.000816282
0.000921005
0.00102262
0.00112043
0.00121528
0.00131436
0.00010228
0.000240289
0.000379701
0.000498319
0.000609205
0.000716234
0.000821339
0.000924486
0.00102446
0.00112068
0.00121466
0.00131459
0.000102928
0.000244468
0.000386726
0.00050551
0.000615867
0.000721949
0.000825776
0.000927405
0.00102581
0.00112063
0.00121395
0.00131397
0.000103572
0.000248128
0.000393328
0.000512256
0.000622019
0.000727126
0.00082968
0.000929846
0.00102677
0.00112032
0.00121305
0.00131232
0.000104209
0.000251328
0.000399526
0.000518606
0.000627715
0.000731822
0.00083313
0.000931875
0.00102739
0.00111978
0.0012117
0.0013098
0.000104839
0.00025408
0.000405338
0.000524604
0.000633012
0.000736117
0.000836187
0.000933569
0.00102774
0.00111903
0.00121024
0.00130759
0.000105454
0.000256436
0.000410761
0.000530269
0.000637956
0.000740043
0.000838896
0.000934951
0.00102786
0.00111812
0.00120858
0.00130467
0.000106059
0.000258418
0.000415801
0.000535625
0.000642586
0.000743652
0.000841307
0.000936087
0.00102778
0.00111704
0.00120672
0.00130177
0.000106645
0.000260071
0.00042048
0.0005407
0.000646942
0.00074699
0.000843466
0.000936987
0.00102752
0.00111582
0.00120466
0.00129839
0.000107214
0.00026143
0.00042479
0.000545496
0.00065103
0.000750066
0.000845378
0.000937704
0.00102711
0.00111449
0.00120248
0.00129506
0.000107768
0.000262509
0.000428751
0.000550028
0.000654894
0.000752918
0.000847096
0.000938246
0.00102658
0.00111303
0.0012002
0.00129175
0.000108308
0.000263351
0.000432355
0.000554305
0.000658529
0.000755567
0.000848622
0.000938632
0.00102591
0.00111148
0.00119775
0.00128797
0.000108829
0.000263965
0.000435612
0.000558344
0.000661972
0.000758023
0.00084998
0.000938881
0.00102515
0.00110982
0.00119514
0.00128408
0.000109323
0.000264391
0.00043854
0.000562131
0.000665219
0.000760315
0.000851196
0.000939017
0.00102429
0.00110806
0.00119246
0.001281
0.000109809
0.000264639
0.000441138
0.000565683
0.000668288
0.000762456
0.000852284
0.000939052
0.00102335
0.00110621
0.00118968
0.00127736
0.00011027
0.000264726
0.000443417
0.000569015
0.000671191
0.000764457
0.000853248
0.000938981
0.00102232
0.00110429
0.00118689
0.00127434
0.000110714
0.000264683
0.000445385
0.000572119
0.000673934
0.000766322
0.0008541
0.000938827
0.00102122
0.0011023
0.00118406
0.00127084
0.000111141
0.000264512
0.000447055
0.000574986
0.000676523
0.000768068
0.000854856
0.000938591
0.00102005
0.00110027
0.00118129
0.0012681
0.000111547
0.000264247
0.000448452
0.000577633
0.000678954
0.000769695
0.000855525
0.000938282
0.00101883
0.00109821
0.00117861
0.00126556
0.000111932
0.000263884
0.000449566
0.000580071
0.000681241
0.000771216
0.000856098
0.000937912
0.00101756
0.00109613
0.00117591
0.00126219
0.000112297
0.000263422
0.00045043
0.000582282
0.000683388
0.000772632
0.000856598
0.000937474
0.00101624
0.00109403
0.00117324
0.0012594
0.000112639
0.000262911
0.000451031
0.00058428
0.000685387
0.000773952
0.000857023
0.000936989
0.00101489
0.00109193
0.00117053
0.00125599
0.000112971
0.000262326
0.000451413
0.000586058
0.000687252
0.000775176
0.000857385
0.000936447
0.00101351
0.00108981
0.00116785
0.00125312
0.00011329
0.000261687
0.000451561
0.000587642
0.000688983
0.000776314
0.000857675
0.000935866
0.00101211
0.00108768
0.00116513
0.00124954
0.000113578
0.000261015
0.000451515
0.000589013
0.000690574
0.000777362
0.00085791
0.000935245
0.00101068
0.00108554
0.00116242
0.00124649
0.000113853
0.000260306
0.000451265
0.000590196
0.000692035
0.00077832
0.000858087
0.000934585
0.00100922
0.00108339
0.00115968
0.00124288
0.000114121
0.000259568
0.000450847
0.000591164
0.000693359
0.0007792
0.000858214
0.000933889
0.00100775
0.00108124
0.00115697
0.00124012
0.000114355
0.000258801
0.000450247
0.000591952
0.000694553
0.000779994
0.00085828
0.000933152
0.00100625
0.00107909
0.00115434
0.00123764
0.000114583
0.000258017
0.000449493
0.000592545
0.000695612
0.000780712
0.000858301
0.000932392
0.00100475
0.00107694
0.00115171
0.00123435
0.00011479
0.00025722
0.000448595
0.000592958
0.000696545
0.000781341
0.000858274
0.000931607
0.00100324
0.0010748
0.00114908
0.00123118
0.000114977
0.000256415
0.000447566
0.000593198
0.000697355
0.000781904
0.0008582
0.00093079
0.00100171
0.00107266
0.00114644
0.00122782
0.000115156
0.000255591
0.000446414
0.00059326
0.000698033
0.00078238
0.000858081
0.000929956
0.00100017
0.00107051
0.00114368
0.00122398
0.000115309
0.000254687
0.000445127
0.000593158
0.000698581
0.000782784
0.000857916
0.000929092
0.00099863
0.00106835
0.00114092
0.0012212
0.000115455
0.000253752
0.000443745
0.000592898
0.000699009
0.000783108
0.000857708
0.000928214
0.000997077
0.00106618
0.00113816
0.00121785
0.000115575
0.000252752
0.000442218
0.000592473
0.000699308
0.000783353
0.000857457
0.000927308
0.00099551
0.00106399
0.00113543
0.00121512
0.000115678
0.000251747
0.000440528
0.000591898
0.000699487
0.000783518
0.000857162
0.000926382
0.000993934
0.00106181
0.00113271
0.00121168
0.00011577
0.00025078
0.000438714
0.000591149
0.000699537
0.000783611
0.000856832
0.000925436
0.000992351
0.00105962
0.00113002
0.00120917
0.000115849
0.000249758
0.000436808
0.000590194
0.000699439
0.000783626
0.000856453
0.00092447
0.000990756
0.00105744
0.00112734
0.00120581
0.000115903
0.000248768
0.000434808
0.000589102
0.000699209
0.000783552
0.000856028
0.000923484
0.000989155
0.00105526
0.00112469
0.00120323
0.000115947
0.00024778
0.000432769
0.00058784
0.00069884
0.000783398
0.000855563
0.000922469
0.000987545
0.00105308
0.00112206
0.00120003
0.000115979
0.000246797
0.00043062
0.000586433
0.000698343
0.000783146
0.00085505
0.000921439
0.000985921
0.0010509
0.00111946
0.00119746
0.000116
0.000245858
0.000428414
0.000584885
0.00069772
0.000782822
0.000854488
0.000920385
0.000984297
0.00104873
0.0011168
0.00119389
0.000116003
0.000244879
0.000426154
0.000583183
0.000696955
0.000782396
0.000853876
0.000919303
0.000982663
0.00104657
0.00111417
0.00119056
0.000115992
0.000243955
0.000423853
0.000581376
0.000696065
0.000781886
0.000853214
0.000918207
0.000981026
0.00104441
0.00111157
0.00118828
0.000115973
0.000243035
0.000421514
0.000579424
0.000695036
0.000781291
0.000852508
0.000917086
0.000979383
0.00104226
0.00110902
0.00118557
0.000115934
0.000242124
0.000419143
0.000577358
0.000693884
0.000780599
0.000851747
0.000915942
0.000977736
0.00104012
0.00110651
0.00118291
0.000115878
0.00024122
0.000416744
0.000575184
0.000692607
0.00077981
0.000850931
0.000914773
0.000976085
0.00103798
0.00110399
0.00117958
0.000115819
0.000240371
0.00041433
0.000572906
0.000691196
0.000778933
0.000850065
0.000913579
0.000974425
0.00103587
0.00110148
0.00117671
0.000115742
0.000239488
0.000411898
0.00057051
0.000689666
0.000777963
0.000849134
0.000912359
0.00097277
0.00103376
0.00109892
0.00117303
0.000115649
0.000238659
0.000409453
0.000568023
0.000688004
0.000776884
0.000848158
0.000911119
0.000971109
0.00103166
0.00109642
0.00117111
0.000115553
0.000237843
0.000407036
0.000565476
0.000686242
0.000775722
0.000847111
0.000909842
0.000969432
0.00102954
0.00109392
0.00116835
0.000115438
0.000237064
0.000404578
0.000562824
0.000684351
0.000774454
0.000846007
0.00090854
0.000967753
0.00102744
0.00109143
0.00116527
0.000115308
0.00023626
0.00040212
0.000560095
0.000682333
0.000773083
0.000844836
0.0009072
0.00096606
0.00102535
0.00108893
0.00116183
0.000115168
0.000235508
0.000399669
0.000557299
0.000680224
0.000771618
0.000843599
0.000905833
0.000964359
0.00102325
0.00108644
0.00115891
0.00011502
0.000234769
0.000397257
0.000554418
0.000677993
0.000770049
0.000842301
0.000904433
0.000962655
0.00102117
0.00108391
0.00115547
0.000114857
0.000234074
0.000394823
0.000551503
0.00067566
0.000768386
0.000840933
0.000902996
0.000960933
0.00101908
0.00108138
0.00115265
0.000114689
0.000233385
0.00039243
0.000548533
0.000673213
0.000766627
0.000839493
0.000901528
0.000959205
0.00101698
0.00107885
0.0011494
0.000114484
0.000232688
0.000390047
0.000545492
0.000670681
0.000764761
0.000837988
0.000900017
0.000957452
0.00101488
0.00107633
0.00114676
0.000114311
0.000232047
0.000387696
0.000542425
0.000668051
0.000762801
0.000836413
0.000898466
0.000955689
0.00101277
0.00107379
0.00114349
0.000114091
0.000231424
0.000385356
0.000539321
0.000665315
0.000760737
0.000834759
0.000896871
0.000953899
0.00101066
0.00107126
0.00114055
0.00011385
0.00023082
0.00038304
0.000536174
0.000662509
0.000758588
0.00083303
0.000895234
0.000952096
0.00100854
0.00106871
0.00113718
0.000113623
0.00023021
0.000380762
0.00053298
0.0006596
0.000756337
0.000831231
0.000893545
0.000950267
0.0010064
0.00106616
0.00113428
0.000113378
0.000229695
0.000378493
0.000529774
0.000656617
0.000753978
0.000829354
0.00089181
0.000948412
0.00100425
0.00106358
0.00113082
0.000113124
0.000229117
0.000376301
0.000526585
0.000653567
0.000751536
0.000827391
0.000890026
0.000946535
0.00100209
0.00106098
0.00112744
0.000112853
0.000228625
0.000374059
0.00052331
0.000650401
0.000748983
0.00082534
0.000888183
0.00094462
0.000999917
0.00105839
0.00112441
0.000112572
0.000228152
0.000371923
0.000520063
0.000647208
0.00074635
0.000823227
0.00088629
0.000942685
0.000997732
0.00105579
0.00112115
0.000112254
0.000227632
0.000369794
0.00051679
0.000643924
0.000743634
0.000821025
0.000884349
0.00094072
0.000995529
0.00105321
0.00111842
0.000111952
0.000227182
0.00036772
0.000513524
0.000640569
0.000740812
0.00081874
0.000882337
0.000938709
0.000993309
0.00105059
0.00111513
0.000111658
0.000226806
0.000365694
0.000510245
0.000637167
0.000737898
0.000816371
0.000880274
0.000936672
0.000991068
0.00104798
0.00111221
0.000111322
0.000226382
0.000363688
0.000506977
0.000633701
0.000734908
0.000813921
0.000878149
0.000934588
0.000988805
0.00104533
0.00110884
0.000110958
0.000226
0.000361736
0.000503703
0.000630195
0.000731829
0.000811387
0.00087596
0.00093247
0.000986512
0.0010427
0.00110615
0.000110615
0.000225652
0.000359796
0.000500449
0.000626626
0.000728661
0.000808765
0.000873698
0.000930307
0.000984193
0.00104005
0.00110298
0.000110247
0.000225314
0.000357942
0.000497187
0.000622999
0.000725397
0.000806066
0.00087137
0.000928094
0.000981848
0.00103736
0.00109941
0.000109868
0.000225009
0.000356139
0.000493962
0.000619349
0.000722079
0.00080327
0.000868974
0.000925832
0.000979483
0.00103465
0.00109611
0.000109479
0.000224725
0.000354362
0.000490765
0.000615653
0.000718673
0.000800387
0.000866499
0.000923524
0.000977081
0.00103197
0.00109342
0.000109077
0.00022446
0.000352639
0.00048759
0.000611911
0.000715192
0.000797428
0.000863953
0.000921164
0.000974653
0.00102925
0.00109019
0.000108636
0.000224201
0.000350955
0.000484394
0.000608169
0.000711643
0.000794371
0.000861348
0.000918746
0.000972181
0.00102654
0.00108738
0.000108212
0.000223977
0.000349319
0.000481252
0.000604386
0.000708001
0.000791238
0.000858647
0.000916279
0.000969682
0.00102378
0.00108394
0.000107772
0.00022378
0.000347743
0.000478166
0.000600551
0.000704301
0.000788001
0.000855872
0.000913759
0.000967154
0.00102105
0.00108116
0.000107318
0.000223612
0.000346221
0.000475101
0.000596732
0.000700523
0.000784676
0.000853016
0.00091117
0.000964591
0.00101833
0.00107843
0.000106852
0.000223466
0.000344713
0.000472047
0.000592873
0.000696674
0.000781273
0.000850075
0.000908505
0.000961971
0.0010156
0.00107612
0.000106372
0.000223346
0.000343307
0.000469072
0.000589027
0.000692794
0.000777785
0.00084706
0.000905791
0.000959327
0.00101283
0.00107239
0.00010588
0.000223257
0.000341956
0.000466107
0.000585149
0.000688826
0.00077422
0.000843965
0.000903011
0.000956648
0.00101006
0.00106946
0.000105348
0.000223132
0.00034062
0.000463193
0.000581274
0.000684811
0.000770569
0.000840774
0.00090016
0.000953924
0.0010072
0.00106589
0.000104856
0.000223112
0.000339353
0.000460338
0.000577398
0.000680718
0.000766826
0.000837497
0.000897237
0.000951141
0.00100432
0.00106259
0.000104295
0.000223052
0.000338151
0.000457536
0.000573509
0.000676616
0.000762992
0.000834125
0.000894248
0.000948304
0.00100135
0.00105891
0.000103748
0.000223037
0.000337017
0.000454801
0.000569667
0.000672438
0.000759083
0.000830675
0.000891176
0.000945402
0.000998374
0.00105586
0.000103187
0.000223014
0.000335912
0.000452094
0.000565813
0.000668227
0.00075509
0.000827124
0.000888015
0.00094243
0.000995306
0.00105218
0.000102609
0.000223078
0.00033488
0.000449461
0.000561982
0.000663956
0.000751008
0.000823495
0.000884777
0.000939409
0.000992236
0.00104901
0.000101991
0.000223062
0.000333917
0.000446898
0.000558155
0.000659679
0.000746857
0.000819765
0.000881462
0.00093631
0.000989075
0.00104533
0.000101382
0.000223149
0.000332987
0.000444375
0.000554362
0.00065533
0.000742631
0.000815924
0.000878044
0.000933141
0.000985931
0.00104247
0.00010076
0.000223231
0.000332138
0.000441939
0.000550613
0.000650989
0.000738317
0.000811998
0.000874536
0.000929885
0.00098272
0.00103902
0.000100122
0.000223358
0.000331368
0.000439552
0.000546879
0.000646606
0.000733941
0.000807991
0.000870942
0.000926578
0.000979431
0.00103519
9.94667e-05
0.000223524
0.000330631
0.000437257
0.0005432
0.000642213
0.000729484
0.000803873
0.000867251
0.000923189
0.000976116
0.00103191
9.87958e-05
0.000223681
0.00032998
0.000435055
0.000539549
0.00063779
0.000724971
0.000799666
0.000863455
0.00091971
0.000972771
0.00102882
9.8081e-05
0.000223825
0.000329371
0.000432914
0.000535961
0.000633348
0.000720397
0.000795352
0.000859562
0.000916156
0.00096936
0.0010251
9.73747e-05
0.000224032
0.000328847
0.000430839
0.000532411
0.00062892
0.00071575
0.000790956
0.000855576
0.000912511
0.000965894
0.00102165
9.66236e-05
0.000224221
0.000328367
0.000428875
0.000528946
0.000624509
0.000711037
0.000786451
0.000851472
0.00090877
0.000962295
0.00101763
9.58791e-05
0.00022448
0.000327986
0.000427023
0.000525537
0.000620093
0.000706284
0.000781846
0.000847257
0.000904924
0.000958598
0.0010135
9.51475e-05
0.000224816
0.000327657
0.000425216
0.000522219
0.000615684
0.000701472
0.000777164
0.000842942
0.000900975
0.000954845
0.00100976
9.43438e-05
0.000225071
0.000327388
0.000423569
0.000518971
0.000611315
0.000696616
0.000772399
0.00083851
0.000896914
0.000950941
0.00100556
9.35409e-05
0.000225399
0.000327217
0.00042197
0.000515799
0.000606968
0.000691739
0.000767515
0.000833959
0.000892741
0.000947009
0.00100193
9.27214e-05
0.000225784
0.000327103
0.000420505
0.000512748
0.000602679
0.000686825
0.000762565
0.000829308
0.000888459
0.00094298
0.000997723
9.18542e-05
0.000226109
0.000327088
0.000419142
0.00050978
0.000598405
0.000681901
0.000757531
0.000824544
0.000884091
0.000938885
0.00099343
9.09886e-05
0.000226518
0.000327144
0.000417919
0.000506917
0.000594206
0.00067693
0.000752422
0.000819651
0.00087956
0.000934611
0.00098956
9.01045e-05
0.000226987
0.000327223
0.000416765
0.000504163
0.000590069
0.000671968
0.000747203
0.000814621
0.000874877
0.0009302
0.000985022
8.91985e-05
0.000227423
0.000327467
0.000415771
0.000501568
0.000586035
0.000667008
0.000741937
0.000809498
0.000870091
0.000925724
0.000980889
8.82679e-05
0.000227937
0.000327744
0.000414906
0.000499099
0.000582065
0.000662084
0.000736614
0.000804253
0.000865142
0.000921065
0.000976095
8.7285e-05
0.000228399
0.000328146
0.000414205
0.000496778
0.000578227
0.000657161
0.000731231
0.000798886
0.000860094
0.000916356
0.000971705
8.6271e-05
0.000228929
0.000328581
0.0004136
0.000494611
0.000574506
0.000652313
0.000725834
0.00079344
0.000854901
0.000911494
0.000966787
8.52871e-05
0.00022957
0.000329161
0.000413177
0.000492615
0.000570913
0.000647492
0.000720382
0.00078791
0.000849599
0.000906502
0.000961753
8.42598e-05
0.000230178
0.000329829
0.000412883
0.000490825
0.000567477
0.000642771
0.000714913
0.000782244
0.000844104
0.000901232
0.000956732
8.31698e-05
0.0002308
0.000330596
0.000412783
0.000489198
0.000564211
0.000638146
0.000709461
0.000776492
0.000838467
0.000895842
0.000951302
8.20441e-05
0.000231448
0.000331464
0.00041285
0.000487786
0.000561138
0.000633637
0.000704008
0.000770677
0.000832717
0.000890372
0.000946315
8.09433e-05
0.000232225
0.000332439
0.000413078
0.000486628
0.000558276
0.000629254
0.000698615
0.000764791
0.000826792
0.000884634
0.000940339
7.97683e-05
0.000232954
0.000333534
0.000413531
0.000485687
0.000555658
0.000625069
0.000693265
0.00075886
0.000820756
0.000878718
0.000934473
7.85465e-05
0.000233721
0.000334752
0.000414197
0.000485041
0.000553313
0.00062109
0.000688036
0.000752907
0.000814583
0.000872579
0.000928072
7.73436e-05
0.00023462
0.000336096
0.000415052
0.000484658
0.000551262
0.000617328
0.000682912
0.000746962
0.00080831
0.000866272
0.000921617
7.60619e-05
0.000235477
0.000337586
0.00041618
0.000484596
0.000549548
0.000613869
0.000677963
0.000741039
0.00080192
0.000859768
0.000914835
7.47529e-05
0.000236395
0.000339216
0.000417538
0.000484885
0.000548198
0.000610701
0.000673211
0.000735152
0.000795427
0.000853101
0.000908453
7.33796e-05
0.000237323
0.000340979
0.000419213
0.000485548
0.000547241
0.000607909
0.000668684
0.000729304
0.000788822
0.000846169
0.000901187
7.19765e-05
0.000238304
0.000342956
0.00042118
0.000486636
0.000546751
0.000605484
0.000664409
0.000723553
0.000782143
0.000839071
0.000894085
7.04969e-05
0.000239239
0.000345095
0.000423492
0.000488139
0.000546685
0.000603436
0.00066039
0.000717907
0.000775362
0.000831698
0.000886193
6.89688e-05
0.000240226
0.000347415
0.000426114
0.000490048
0.000547043
0.000601773
0.000656612
0.000712292
0.000768434
0.000823987
0.000878217
6.73689e-05
0.000241091
0.000349836
0.000429059
0.000492291
0.000547757
0.000600476
0.000653191
0.000706889
0.000761477
0.000816049
0.000870127
6.54096e-05
0.000240136
0.000350262
0.000430898
0.000493424
0.000547707
0.000598651
0.000649559
0.000701301
0.000754707
0.000808132
0.00086165
0.000477607
0.00154683
0.00164149
0.0018833
0.00188491
0.00062587
0.000613839
0.00046432
0.0013761
0.00206054
0.00381322
0.00201918
0.00424155
0.00142694
0.000567015
0.00133217
0.00149821
0.00504312
0.00502783
0.00131829
0.00073102
0.000492689
0.00739137
0.00354942
0.000478383
0.00164349
0.000573838
0.000779503
0.00194353
0.00122971
0.00178258
0.000336194
0.00146245
0.00377777
0.00412584
0.00106548
0.000154621
0.00157188
0.00046756
0.00207225
0.00186929
0.00129258
0.00387008
0.00106133
0.000274027
0.000494748
0.00578651
0.00374698
0.000277098
0.000735447
0.00106628
0.000466837
0.000338035
0.00124158
0.00165001
0.0015068
0.00238908
0.00129193
0.00157224
0.000564829
0.000622512
0.000337193
0.00124141
0.00286702
0.00424889
0.00152312
0.00093633
0.000318486
0.000656896
0.00227762
0.0017223
0.00532163
0.00046586
0.00110073
0.00357806
0.00127029
0.00138911
0.00123815
0.00560975
0.000466713
0.0045607
0.00123973
0.000196636
0.000382636
0.00285222
0.00160582
0.000937824
0.00124135
0.00264801
0.000197737
0.000577053
0.00147254
0.00124139
0.00140645
0.000350385
0.00127365
0.000777995
0.00163165
0.00124229
0.000946855
0.00076538
0.00324345
0.00128879
0.00148709
0.00123884
0.000350445
0.00035699
0.000422455
0.00132741
0.000249025
0.001524
0.00123993
0.000445639
0.00136814
0.00124078
0.0005213
0.00316045
0.00225873
0.00155343
0.00429896
0.000786518
0.00378458
0.00147424
0.00360574
0.00443924
0.00281828
0.00141303
0.00026077
0.00404267
0.00124136
3.92605e-05
0.00124223
5.60444e-05
0.00148728
0.00056872
0.00163241
0.000172471
0.00241991
0.000447285
0.00175203
0.00297183
0.000688415
0.000461394
0.000452976
8.77531e-05
0.00163224
0.000466251
0.00152495
0.0014103
0.000579266
0.000631013
0.000514624
0.0012418
0.00445308
0.00357708
0.00124362
0.000443123
0.00126919
0.00165584
0.00192959
0.00368901
0.00133707
0.00452644
0.00261237
0.000775057
0.00335992
0.000277182
0.00025395
0.000547988
0.0012374
0.00156014
0.0010933
0.00164573
0.00304979
0.00123866
0.00160589
0.00123854
0.000411624
0.00236982
0.00134199
0.000277211
0.00524985
0.00426958
0.000470471
0.00129841
0.00046195
0.00125536
0.00124028
9.1898e-05
0.00124087
0.0023221
0.001245
0.000396102
0.00156055
0.000450181
0.000557823
0.000612
0.00053868
0.00123982
0.00221414
0.00146681
0.000461421
0.000281458
0.000463169
0.000472616
0.00697681
0.00416406
0.0031728
0.00113402
0.00271708
5.35185e-05
0.00138615
0.000468359
0.000412801
0.00123977
0.00046824
0.00251428
0.0014676
0.00222998
0.000189832
0.000385302
0.00146495
0.000420426
0.00124826
0.00125143
0.0027733
0.00160212
0.00126904
0.00107198
0.00413822
5.24769e-05
0.00445564
0.00124159
0.000907376
0.00150162
0.000474632
0.00046478
0.00148609
0.001118
0.000455825
0.00424691
0.00595253
0.00434359
0.0026829
6.46244e-05
5.38286e-05
5.64282e-05
0.001321
0.00390612
0.000466594
0.00221533
0.0011023
0.00233165
0.000350481
0.000231853
0.00283618
0.000989154
0.000452965
0.00207409
0.000427089
0.00271419
0.000473049
0.00294755
0.00416276
7.2888e-05
0.000469316
0.00131021
0.000477134
0.00146527
0.00121711
0.000695073
0.00526212
0.00138539
4.49103e-05
4.56761e-05
0.00139016
0.000175647
5.76237e-05
0.000281534
0.000137118
0.000377626
0.000172894
0.000466165
0.000471052
0.00134398
0.000609927
0.00161862
4.73285e-05
0.00131389
0.000762892
0.000136537
0.00146623
4.63308e-05
4.60208e-05
0.000445247
0.000397741
0.00190268
4.48806e-05
0.00586
0.000380887
0.000461394
0.000994821
0.00049906
0.00177755
0.00376473
0.00151609
0.000286035
0.00124093
0.00528842
0.00475319
0.00566183
0.000184242
0.0012456
0.00129318
0.000460601
0.00434295
4.91546e-05
0.00121454
0.0012398
8.29446e-05
0.00463791
0.00208211
0.00149694
0.000236515
0.000453413
0.00121389
0.00141582
0.00124132
0.00125526
0.000182929
0.00133376
0.00124749
0.00217819
0.0012417
0.00125458
0.00126456
0.00123871
0.00764789
0.00124194
0.00173196
0.000788568
0.000473669
0.00124211
0.00052824
0.00229607
4.55399e-05
5.33956e-05
0.00164927
0.00140465
0.00138218
0.00123749
0.00126828
0.00634813
0.00228175
4.08553e-05
0.00123871
0.00493687
0.000366205
0.00134829
0.00236132
0.00010255
0.000267047
0.00132944
0.00148966
0.000856918
0.00191845
0.00135659
0.00124134
0.00141441
0.00145325
0.00501591
9.62817e-05
0.000453601
0.000134142
0.00147807
0.00063226
0.000463715
0.00140274
0.00125299
0.00177546
0.00102559
0.00165107
0.00126005
0.000469774
0.000349578
0.000599694
0.00124573
0.00431288
0.000542462
0.00379978
0.00126072
0.00117564
0.0019194
0.000393468
0.000445493
0.00137527
0.00142175
0.00124395
0.00300007
0.00141623
0.00185328
0.00237674
0.000899175
0.00217973
0.00393165
0.00016874
0.00139599
0.00147171
6.47274e-05
0.000422418
0.00124076
0.00124943
0.00124196
0.00129656
0.00607651
0.000455012
0.000128265
0.00053858
0.000528138
0.00125603
0.000246728
0.000467812
0.00123811
0.00124764
0.000456547
0.00124636
0.00271302
0.00137135
0.000449709
0.00123756
0.00197641
0.00424357
0.00506071
0.000460694
0.00464049
0.00123831
0.00124226
0.00116353
0.00132617
0.0025375
0.000289141
4.03098e-05
0.00194495
0.000458304
0.00190516
0.000988416
0.00132735
0.000443229
0.00154541
0.00123901
0.00198189
0.000460668
5.42864e-05
0.00221356
0.00199189
0.000692246
0.00163567
4.75738e-05
0.000423029
0.00443695
0.000525098
0.00342172
0.00498925
0.00245744
0.00132432
0.00130101
0.00176559
0.000694519
0.000574781
5.90291e-05
0.00359496
0.00028198
9.54025e-05
0.00123922
0.0017912
0.00133627
0.000443636
0.00123871
0.000327218
0.000883836
0.000387068
0.000203131
0.000468798
0.00245077
0.00442173
9.3991e-05
5.01923e-05
0.00134098
0.00311193
0.00124799
0.00420528
0.000908888
0.00031835
0.0013831
0.00424926
0.000157882
0.00107379
0.00116554
0.000470244
0.000224124
0.0012293
0.000480811
0.000311421
0.00127065
0.00345087
0.000401071
0.000707623
0.0013707
0.000190147
0.00185894
0.000449843
0.00127826
0.000947046
0.00336595
0.00124133
0.00066357
4.11972e-05
0.0012505
0.00150216
0.00216047
0.00428601
0.0014671
0.0012721
0.000466443
0.00124136
0.000293016
0.00149698
4.44024e-05
9.39231e-05
0.00186647
4.71798e-05
0.000816937
0.00125196
0.00159294
0.0012688
0.00405313
0.00134903
0.000379065
0.000447743
0.00193734
0.00134524
0.00369412
0.0017809
0.00262975
0.00173348
0.00123896
0.004667
0.00123871
0.00572593
0.00055973
0.00452919
0.000975776
0.000650451
0.000434112
0.0048995
0.00318952
0.000456653
6.86797e-05
0.0012414
0.00124143
0.0010877
0.000717475
0.000388966
0.00243684
0.00535642
0.00129776
0.000328146
0.00123742
0.0042098
0.000473565
0.00158208
0.00127892
0.000492957
0.000103942
0.00038886
0.00259334
0.00123876
0.00341859
0.00124288
0.00139929
0.00296273
0.000369114
0.00159855
0.00125422
0.00141092
0.00589989
0.000418657
0.000920009
0.00139159
0.000220896
0.00423708
0.00124154
0.000571745
8.15622e-05
0.000458924
0.00328204
0.00123742
0.00146019
0.0013013
0.000464644
0.00124777
0.000729018
0.00105034
0.0012778
0.00179152
0.00039685
0.00137054
0.000986886
0.00117329
0.00134804
0.000761263
0.00490606
0.0033839
0.00123903
0.00124142
0.00159769
0.00046025
0.000471999
0.000461585
0.00158542
0.000768042
0.0039366
0.00118917
0.000470763
0.00139829
0.00250049
0.000326107
0.00123754
0.00209974
0.000280578
0.000277413
0.00126717
0.00124626
6.87999e-05
0.000184912
0.00133134
0.00397779
0.000822705
0.000414271
0.00125256
3.52958e-05
0.000691006
0.000703595
0.00168526
0.00104678
0.00086279
0.00141281
0.00128687
0.000450121
0.000132833
0.00126266
0.001242
0.00141232
0.00116848
0.00156353
0.00123993
0.00215138
0.00124132
0.001175
0.000499975
0.0048626
0.00124663
0.00147284
0.00062479
0.000356311
0.00199831
0.000194868
0.00743586
0.000805159
0.00137203
0.00124096
0.00309955
0.00140925
0.000230111
0.00153708
0.00175615
0.0023915
0.0022736
0.000133185
0.00123984
0.000777786
0.00117696
0.00045874
0.00128732
0.00491294
0.000365934
0.000311562
0.00187603
0.00520509
0.0015457
0.000466015
0.0025519
0.000467526
0.00124066
0.00198423
0.001304
0.00123736
0.000104211
0.00124154
4.68267e-05
0.00230002
0.00110972
0.00127198
0.00119178
0.000422914
0.00183842
0.00151095
0.00129925
0.00620662
0.00223154
0.00281351
0.00505676
0.00159933
0.00123916
0.00124153
0.000465741
0.0057189
5.87675e-05
0.000530491
0.00127956
4.63518e-05
4.06659e-05
4.4744e-05
0.00302806
0.00069611
3.75987e-05
0.00124133
0.000133
0.000125624
0.000464724
0.0012423
0.00242382
0.00144262
0.000112577
0.00124314
0.00165924
0.00123911
0.00522689
0.00223496
0.00132999
0.000452504
0.00123978
0.00449212
0.00041849
0.00124246
0.00142681
0.00124071
0.00138463
0.00308403
0.00128379
0.00113347
0.00256233
0.000463319
0.00124019
0.00106999
0.00124199
0.000615916
0.0026712
0.00350415
0.000517374
0.00277026
0.00161245
0.00125876
0.000157499
0.00100829
0.00117854
5.34047e-05
0.000499181
0.00123809
0.000129265
0.000601864
0.000756493
0.00102528
0.00121074
0.00139711
0.000476385
0.00434701
0.00124025
0.00363676
0.00143454
0.00350366
0.000133476
0.000766059
0.00125483
0.000220361
0.000385901
0.00137355
0.0018834
0.00130929
0.000608719
0.000992417
0.00119472
0.00413345
0.00173555
0.000293886
0.000185921
0.00428805
0.000152867
0.00124855
5.08509e-05
0.00158819
0.00127988
0.00146928
0.00113013
0.00102274
0.00612246
0.00135207
0.00324186
0.00292178
0.00140577
0.0028915
0.00273599
0.00124195
0.00150665
0.00470104
4.41384e-05
0.000470037
4.463e-05
0.000723913
0.00189321
0.00108918
0.00124071
0.00124168
0.000444007
0.00663031
0.00134056
0.00156294
0.00123761
0.00160991
0.00252649
0.00514445
0.00130619
0.00160463
0.00146684
0.00209097
0.00136169
0.00549655
0.000391465
0.000543108
0.00124068
0.000542104
0.00145141
0.00168635
0.00217161
4.80266e-05
0.00364357
0.00212278
0.00067669
0.00402908
0.00242832
0.00396705
0.00566284
0.00130183
3.94154e-05
0.00124135
0.00129346
0.000441249
0.00281386
0.00270461
0.00108822
0.000430431
0.00124163
0.00124152
0.0014822
0.000129608
0.00138071
0.0012381
0.00134087
0.00272489
0.000465623
0.00137867
5.29861e-05
0.00116575
0.00166897
0.000366218
0.00125657
0.00130748
0.000124614
0.000378812
0.00015402
0.00124388
0.00123962
0.00109337
0.00161134
0.00236022
0.00127085
0.00124034
0.00425439
0.00126164
0.00181647
0.00304251
0.00558822
0.00243864
0.0015303
0.00043804
5.52299e-05
0.000461199
0.00200698
0.00124288
0.000283306
0.0012727
0.000262693
0.00124124
0.00181404
0.00125767
0.00124113
0.00444322