/*--------------------------------*- C++ -*----------------------------------*\
| =========                 |                                                 |
| \\      /  F ield         | OpenFOAM: The Open Source CFD Toolbox           |
|  \\    /   O peration     | Version:  2.3.1                                 |
|   \\  /    A nd           | Web:      www.OpenFOAM.org                      |
|    \\/     M anipulation  |                                                 |
\*---------------------------------------------------------------------------*/
FoamFile
{
    version     2.0;
    format      ascii;
    class       volVectorField;
    location    "1060";
    object      D;
}
// * * * * * * * * * * * * * * * * * * * * * * * * * * * * * * * * * * * * * //

dimensions      [0 1 0 0 0 0 0];

internalField   nonuniform List<vector> 
11800
(
(4.48593e-06 0.000132535 0)
(-5.7645e-06 0.000147306 0)
(3.23041e-06 4.61286e-05 0)
(-3.71989e-06 6.21191e-05 0)
(-5.27006e-06 0.000147062 0)
(-2.42273e-06 6.22371e-05 0)
(-9.065e-07 0.000100236 0)
(-8.68759e-07 7.78906e-05 0)
(3.91537e-07 1.26233e-05 0)
(6.76219e-07 4.77901e-05 0)
(4.98572e-06 0.000132229 0)
(-4.65083e-06 5.32274e-05 0)
(-5.02385e-09 -3.997e-09 0)
(2.8682e-06 4.58596e-05 0)
(-3.30311e-06 6.23724e-05 0)
(3.36172e-06 7.8211e-06 0)
(-5.2437e-07 9.99528e-05 0)
(-5.1148e-07 7.76206e-05 0)
(2.13867e-07 1.276e-05 0)
(4.05091e-07 4.75613e-05 0)
(-2.84502e-06 6.20154e-05 0)
(-4.26394e-06 5.34321e-05 0)
(-7.59374e-07 2.82103e-06 0)
(-8.09839e-07 2.93555e-06 0)
(2.98625e-06 8.9114e-06 0)
(-1.2043e-06 4.63441e-06 0)
(-4.63706e-06 3.22982e-05 0)
(6.43245e-06 9.01353e-05 0)
(-4.17182e-06 2.47026e-05 0)
(-3.65009e-06 1.79199e-05 0)
(6.79241e-06 0.000113179 0)
(2.5569e-08 2.20607e-06 0)
(1.53982e-06 5.92799e-06 0)
(-3.52165e-06 0.000151083 0)
(2.77906e-06 0.000150416 0)
(-7.82207e-06 0.000120659 0)
(2.58589e-06 0.000150924 0)
(1.51431e-06 6.09141e-06 0)
(-8.86599e-07 0.000105702 0)
(6.7508e-07 5.23184e-05 0)
(-4.55802e-06 3.2649e-05 0)
(-4.10468e-06 2.50187e-05 0)
(6.28366e-06 8.96362e-05 0)
(-3.59543e-06 1.82002e-05 0)
(6.64086e-06 0.000112655 0)
(3.2049e-06 7.88275e-06 0)
(8.56305e-07 3.32936e-06 0)
(9.55885e-07 3.27703e-06 0)
(-1.37055e-06 0.00010579 0)
(1.07047e-06 5.23894e-05 0)
(-7.48293e-06 7.88874e-05 0)
(-7.95284e-06 0.000101236 0)
(-7.70878e-07 0.000131153 0)
(3.83256e-08 2.09535e-06 0)
(-4.13504e-06 9.28068e-06 0)
(5.78293e-07 5.01119e-07 0)
(-9.75642e-06 0.000153113 0)
(-2.53756e-06 4.44655e-05 0)
(2.78884e-06 6.40099e-05 0)
(-1.85523e-06 4.27744e-05 0)
(1.1449e-06 1.57855e-06 0)
(-1.29472e-06 0.000131249 0)
(-2.21105e-06 4.43687e-05 0)
(2.42695e-06 6.41245e-05 0)
(2.79708e-06 8.77863e-06 0)
(-9.31216e-06 0.000135721 0)
(-7.76246e-06 7.85542e-05 0)
(-8.27779e-06 0.000100872 0)
(-9.26847e-06 0.000152871 0)
(-1.26284e-06 4.7819e-06 0)
(-3.14427e-06 0.000151498 0)
(-5.51758e-06 0.000150695 0)
(-5.67674e-06 0.000150171 0)
(-5.55828e-08 6.55915e-08 0)
(1.22263e-06 1.64505e-06 0)
(-7.37042e-06 0.000120988 0)
(3.63669e-06 1.2223e-05 0)
(-9.46264e-06 0.000136217 0)
(-7.54346e-06 0.00013734 0)
(-7.05058e-06 0.000137788 0)
(-3.94298e-06 9.15702e-06 0)
(5.30371e-07 5.42566e-05 0)
(5.11819e-06 0.000149539 0)
(4.56386e-06 0.00014963 0)
(-7.13794e-07 5.57102e-05 0)
(-3.4962e-06 2.01175e-05 0)
(6.13844e-06 0.000109184 0)
(-3.95198e-06 2.71794e-05 0)
(-4.36144e-06 3.5037e-05 0)
(5.79462e-06 8.63381e-05 0)
(-2.12636e-07 0.000128387 0)
(1.6395e-06 5.64047e-06 0)
(-4.70272e-06 0.000138204 0)
(9.59427e-06 0.00015426 0)
(1.50735e-06 6.82188e-05 0)
(-1.33902e-09 -1.01759e-09 0)
(3.44791e-11 -2.14998e-10 0)
(1.33136e-09 -1.01157e-09 0)
(-1.44511e-07 0.000132726 0)
(-4.41414e-06 5.43643e-05 0)
(8.25071e-06 0.000153719 0)
(5.05647e-06 5.95384e-05 0)
(-1.99804e-06 8.17811e-06 0)
(-4.60928e-07 6.34883e-06 0)
(-3.13196e-07 0.000146418 0)
(5.22058e-07 1.31903e-05 0)
(-1.10477e-06 7.67892e-05 0)
(-1.14083e-06 9.90223e-05 0)
(1.76379e-06 3.11235e-06 0)
(3.93243e-06 2.71657e-05 0)
(3.48233e-06 2.01048e-05 0)
(4.33777e-06 3.50213e-05 0)
(-6.30529e-06 0.000109198 0)
(-5.95588e-06 8.63564e-05 0)
(8.84197e-07 4.68498e-05 0)
(1.39533e-06 2.84368e-06 0)
(9.14734e-06 0.000136264 0)
(-3.80224e-06 0.000139784 0)
(1.42205e-06 2.74149e-06 0)
(-6.77167e-07 4.83643e-05 0)
(-4.2074e-07 1.22981e-05 0)
(8.02653e-07 0.000100951 0)
(7.64528e-07 7.85337e-05 0)
(-1.20192e-06 9.69342e-05 0)
(-4.73306e-06 0.000138713 0)
(-4.54883e-07 0.000132322 0)
(-3.05593e-06 0.000146474 0)
(-7.4421e-07 0.000146085 0)
(-1.04702e-05 0.000158083 0)
(-1.08437e-05 0.000157707 0)
(-3.43685e-07 1.57567e-07 0)
(-1.52074e-06 3.67094e-06 0)
(6.30046e-06 0.000106033 0)
(-3.74142e-06 2.19408e-05 0)
(5.92869e-06 8.33685e-05 0)
(-4.19852e-06 2.92246e-05 0)
(-4.60952e-06 3.72832e-05 0)
(5.81006e-06 0.000106127 0)
(-3.44968e-06 2.18777e-05 0)
(5.46763e-06 8.34559e-05 0)
(-3.87222e-06 2.91555e-05 0)
(-4.25219e-06 3.72086e-05 0)
(-9.37903e-07 1.14114e-05 0)
(2.01616e-06 0.000102825 0)
(1.88868e-06 8.03482e-05 0)
(-1.69622e-06 4.98864e-05 0)
(8.00192e-06 5.45762e-05 0)
(-8.03055e-06 5.34272e-05 0)
(4.972e-06 5.99553e-05 0)
(-6.41027e-07 6.72882e-06 0)
(-5.22867e-06 0.00012781 0)
(-5.18392e-06 0.000128469 0)
(2.48755e-06 0.00014929 0)
(-5.84223e-06 0.000120822 0)
(2.29647e-06 8.62981e-05 0)
(2.48371e-06 0.000109129 0)
(-6.51816e-06 9.6526e-05 0)
(-6.08377e-06 7.44548e-05 0)
(3.23372e-06 1.44974e-05 0)
(-5.20009e-07 0.000128856 0)
(1.91837e-06 3.16601e-06 0)
(-5.34288e-06 0.000120938 0)
(3.80617e-06 1.2395e-05 0)
(-2.48063e-06 3.64209e-05 0)
(-2.25433e-06 2.84334e-05 0)
(-2.00275e-06 2.1228e-05 0)
(3.20901e-06 8.44162e-05 0)
(3.40735e-06 0.00010715 0)
(-1.716e-06 2.18958e-06 0)
(-3.00269e-06 1.39619e-05 0)
(6.00207e-06 9.75633e-05 0)
(5.59642e-06 7.54314e-05 0)
(1.30875e-06 9.89168e-05 0)
(-8.90581e-06 0.000120113 0)
(-8.99512e-06 0.000120813 0)
(3.44187e-06 8.92491e-06 0)
(3.44376e-06 9.16546e-06 0)
(3.64135e-06 2.64041e-05 0)
(4.02497e-06 3.41831e-05 0)
(3.21542e-06 1.94272e-05 0)
(-5.60225e-06 8.74816e-05 0)
(-5.92447e-06 0.000110398 0)
(2.33717e-06 8.57757e-05 0)
(2.49801e-06 0.000108593 0)
(2.58858e-06 5.32262e-05 0)
(-1.29282e-06 4.9778e-05 0)
(-7.17285e-07 1.14689e-05 0)
(1.51635e-06 0.000102692 0)
(1.41937e-06 8.0223e-05 0)
(-2.06631e-06 0.000126109 0)
(-7.44868e-07 2.34549e-05 0)
(-8.32548e-07 3.09229e-05 0)
(-7.66966e-06 0.000134703 0)
(-2.40093e-07 5.54542e-06 0)
(-7.49821e-06 6.50053e-05 0)
(6.49993e-06 4.37228e-05 0)
(8.32896e-08 8.42135e-08 0)
(-4.60902e-06 0.000151319 0)
(9.08335e-06 0.000136799 0)
(-2.99205e-07 1.84803e-07 0)
(5.96701e-06 0.000143221 0)
(7.46671e-06 0.000122881 0)
(8.01173e-06 0.000122979 0)
(-2.80358e-07 0.000147143 0)
(-6.5622e-07 0.000147604 0)
(4.33851e-06 4.27056e-05 0)
(3.82747e-06 4.28886e-05 0)
(-5.12353e-06 6.60742e-05 0)
(-4.51915e-06 6.58512e-05 0)
(3.36557e-07 1.54429e-07 0)
(-9.20604e-07 8.03987e-06 0)
(-1.04404e-06 4.53772e-06 0)
(-2.50532e-08 9.52153e-09 0)
(3.13922e-06 5.35021e-06 0)
(-7.79808e-08 2.49873e-08 0)
(3.99492e-07 4.45887e-06 0)
(-5.22177e-06 0.000146386 0)
(-2.6792e-06 1.96497e-05 0)
(-3.02682e-06 2.66622e-05 0)
(-3.34553e-06 3.44702e-05 0)
(4.72213e-06 0.00010997 0)
(4.47397e-06 8.7088e-05 0)
(2.67999e-07 0.000102507 0)
(2.48055e-07 8.00483e-05 0)
(-1.60126e-07 1.15492e-05 0)
(-2.94584e-07 4.96351e-05 0)
(-1.14649e-07 1.91081e-08 0)
(3.99435e-07 1.4358e-05 0)
(-8.27429e-07 7.45917e-05 0)
(-2.43715e-06 4.80015e-05 0)
(5.6499e-07 1.41527e-05 0)
(-1.14793e-06 7.49725e-05 0)
(-3.58345e-06 0.000138694 0)
(4.43418e-06 5.36005e-05 0)
(4.12976e-06 5.32041e-05 0)
(2.47724e-08 9.42797e-09 0)
(1.13736e-07 1.89759e-08 0)
(-6.90449e-06 0.00012932 0)
(-6.64401e-06 0.000129854 0)
(-6.68909e-06 4.56609e-05 0)
(7.36475e-06 6.27693e-05 0)
(5.80247e-06 0.000110351 0)
(5.48281e-06 8.74411e-05 0)
(-3.25451e-06 1.94564e-05 0)
(-3.69005e-06 2.64354e-05 0)
(-4.08077e-06 3.42177e-05 0)
(-2.56781e-07 0.000131806 0)
(-2.77893e-06 1.33731e-05 0)
(5.67049e-06 9.87446e-05 0)
(5.29418e-06 7.6533e-05 0)
(3.53255e-06 5.41407e-05 0)
(2.90731e-06 0.000124486 0)
(4.5922e-06 0.000154441 0)
(5.14114e-07 4.3954e-06 0)
(-1.80231e-06 4.31977e-05 0)
(-1.04006e-08 1.65672e-06 0)
(7.72438e-08 2.47793e-08 0)
(1.66523e-06 4.5493e-05 0)
(1.42873e-06 4.50351e-05 0)
(-1.86027e-06 6.2885e-05 0)
(-1.59907e-06 6.33328e-05 0)
(3.28228e-06 3.44581e-05 0)
(2.97153e-06 2.66514e-05 0)
(2.62688e-06 1.96435e-05 0)
(-4.56697e-06 8.70886e-05 0)
(-4.831e-06 0.000109985 0)
(-2.58035e-06 0.000151363 0)
(9.66306e-07 1.22621e-06 0)
(-3.97077e-08 8.83977e-05 0)
(-2.99246e-08 1.8836e-05 0)
(3.32682e-06 0.000146165 0)
(2.77004e-06 5.28549e-05 0)
(-1.07303e-05 0.00014447 0)
(3.1849e-06 5.45176e-05 0)
(1.39376e-07 1.06451e-07 0)
(8.74987e-06 0.000118667 0)
(8.80097e-06 0.000118019 0)
(-5.45782e-06 7.66282e-05 0)
(-5.84406e-06 9.88407e-05 0)
(-4.88037e-06 7.64421e-05 0)
(-5.22677e-06 9.86429e-05 0)
(2.76828e-06 1.33237e-05 0)
(2.47937e-06 1.34103e-05 0)
(2.60469e-06 7.05997e-05 0)
(3.10563e-06 7.05203e-05 0)
(2.80645e-06 9.23762e-05 0)
(3.34748e-06 9.229e-05 0)
(-1.56056e-06 1.66251e-05 0)
(-1.85496e-06 1.66774e-05 0)
(-3.42744e-07 7.62962e-06 0)
(1.67341e-06 4.91243e-06 0)
(1.56699e-06 4.74617e-06 0)
(1.60908e-06 3.61148e-06 0)
(2.47933e-06 0.000125007 0)
(-8.7636e-06 0.000118882 0)
(-8.81055e-06 0.000118209 0)
(3.5448e-06 9.94242e-06 0)
(3.47748e-06 9.66577e-06 0)
(7.01551e-06 5.45893e-05 0)
(7.10765e-06 5.51796e-05 0)
(-7.04435e-06 5.33879e-05 0)
(-7.08399e-06 5.28066e-05 0)
(3.07911e-06 0.000149192 0)
(-8.60338e-06 0.000151097 0)
(-8.26815e-06 0.000127704 0)
(2.15176e-06 2.50609e-06 0)
(-5.06994e-06 0.00014924 0)
(-4.53178e-06 0.000148739 0)
(2.11118e-06 7.13785e-05 0)
(-1.37473e-06 6.43913e-05 0)
(1.1715e-06 4.41382e-05 0)
(-6.04095e-06 5.47882e-05 0)
(5.85183e-06 5.31418e-05 0)
(-3.04111e-06 9.77739e-06 0)
(-9.33805e-08 6.10224e-08 0)
(4.84544e-07 2.0751e-06 0)
(5.06077e-07 4.69931e-05 0)
(-5.11711e-06 4.73113e-05 0)
(5.38331e-06 6.08272e-05 0)
(-2.97032e-06 4.32138e-05 0)
(3.40103e-06 6.5478e-05 0)
(1.67928e-06 0.000112022 0)
(2.33257e-06 0.000111787 0)
(-1.08942e-06 2.53565e-05 0)
(-1.49395e-06 2.55045e-05 0)
(-1.2095e-06 3.30323e-05 0)
(-1.65747e-06 3.31954e-05 0)
(2.72866e-07 1.31025e-05 0)
(-6.21327e-07 7.69555e-05 0)
(-6.25713e-07 9.92099e-05 0)
(-9.91071e-07 0.000143786 0)
(1.47069e-06 3.58932e-06 0)
(-3.07784e-07 6.27959e-05 0)
(-4.10629e-06 0.000147314 0)
(6.23437e-07 5.19315e-07 0)
(3.60684e-06 8.88067e-05 0)
(-2.11167e-06 1.86337e-05 0)
(-6.26317e-06 6.34357e-05 0)
(-5.88543e-06 6.31307e-05 0)
(5.47821e-06 4.50409e-05 0)
(5.16063e-06 4.53056e-05 0)
(-6.12952e-06 0.000153489 0)
(-6.19647e-06 0.000152843 0)
(-1.10423e-06 7.67583e-06 0)
(-1.30722e-06 7.64716e-06 0)
(5.30646e-07 2.17301e-06 0)
(-1.27934e-06 2.2528e-06 0)
(2.5234e-07 6.57852e-05 0)
(1.87094e-06 1.35621e-05 0)
(1.56999e-06 1.36469e-05 0)
(-3.68193e-06 7.61194e-05 0)
(-3.09349e-06 7.59456e-05 0)
(-3.94357e-06 9.83021e-05 0)
(-3.31345e-06 9.8117e-05 0)
(-7.9355e-06 0.000123693 0)
(-7.34624e-06 0.000123741 0)
(-1.81793e-06 3.88134e-05 0)
(-1.69495e-06 3.06091e-05 0)
(-1.51629e-06 2.31741e-05 0)
(2.45526e-06 0.00011563 0)
(-4.72262e-07 0.000130556 0)
(5.2613e-06 5.30932e-05 0)
(4.97792e-06 5.35389e-05 0)
(2.26724e-06 0.000100445 0)
(2.17909e-06 7.80915e-05 0)
(-1.13064e-06 1.25285e-05 0)
(1.0266e-06 1.39888e-05 0)
(8.40751e-07 1.42545e-05 0)
(-1.83319e-06 9.69155e-05 0)
(-2.17326e-06 9.73999e-05 0)
(-2.02677e-06 7.52861e-05 0)
(-1.65924e-06 7.47886e-05 0)
(-2.23103e-06 1.28502e-05 0)
(4.32566e-06 7.751e-05 0)
(4.62814e-06 9.97921e-05 0)
(-6.53547e-08 6.27648e-07 0)
(7.80376e-06 6.031e-05 0)
(-7.29895e-06 4.79198e-05 0)
(-3.77589e-08 5.84675e-07 0)
(-2.36926e-06 0.000110331 0)
(-2.77177e-06 0.000110921 0)
(-2.18495e-06 8.74631e-05 0)
(-2.5518e-06 8.80236e-05 0)
(1.42179e-06 1.90759e-05 0)
(1.22073e-06 1.94018e-05 0)
(1.66046e-06 2.60455e-05 0)
(1.42039e-06 2.64129e-05 0)
(1.83696e-06 3.3793e-05 0)
(1.56953e-06 3.41988e-05 0)
(8.66227e-06 0.000123923 0)
(8.82424e-06 0.000124537 0)
(-9.07443e-07 4.5743e-06 0)
(3.23906e-06 8.92348e-05 0)
(-1.8884e-06 1.83836e-05 0)
(3.03941e-06 1.46195e-05 0)
(-5.69791e-06 7.42165e-05 0)
(-6.11892e-06 9.62567e-05 0)
(-9.09392e-08 2.78284e-08 0)
(1.08572e-06 0.000129021 0)
(3.00562e-06 1.39633e-05 0)
(-5.77427e-06 7.54296e-05 0)
(-6.19752e-06 9.75387e-05 0)
(2.35524e-06 4.17988e-06 0)
(-4.34001e-06 0.000139587 0)
(2.90405e-06 1.12035e-05 0)
(-6.82767e-06 0.000115146 0)
(-1.59377e-06 6.1063e-06 0)
(-1.69874e-06 6.32558e-06 0)
(1.64506e-06 6.26008e-06 0)
(-7.80379e-07 6.27019e-05 0)
(-6.41673e-09 -4.71849e-09 0)
(-4.60605e-06 0.000152664 0)
(-8.14809e-08 3.27806e-08 0)
(9.00447e-08 2.7587e-08 0)
(-2.287e-06 1.35388e-05 0)
(4.61996e-06 9.83736e-05 0)
(4.31129e-06 7.61847e-05 0)
(3.53818e-06 0.00012922 0)
(-1.03317e-05 0.00013842 0)
(1.30424e-06 5.88179e-05 0)
(-8.98877e-07 5.73307e-05 0)
(-2.6503e-07 6.38499e-06 0)
(-7.36809e-07 7.99155e-07 0)
(-4.63098e-09 -4.16786e-09 0)
(-2.66703e-06 4.36042e-05 0)
(3.04572e-06 6.50348e-05 0)
(2.51516e-07 8.89794e-08 0)
(-3.83315e-07 5.65142e-05 0)
(-3.63668e-07 5.59861e-05 0)
(-4.29047e-08 4.77176e-05 0)
(-8.22166e-08 1.26849e-05 0)
(7.71019e-08 7.77667e-05 0)
(6.44164e-08 0.000100145 0)
(-2.54275e-07 8.99057e-08 0)
(9.88096e-07 6.89438e-06 0)
(-3.59235e-06 0.000113319 0)
(2.10982e-06 2.45737e-05 0)
(2.34469e-06 3.21636e-05 0)
(2.55375e-06 4.04974e-05 0)
(7.42087e-06 0.000146656 0)
(-2.96794e-06 1.21425e-05 0)
(6.37038e-06 0.000101355 0)
(5.9649e-06 7.89762e-05 0)
(-4.27383e-06 0.000135513 0)
(6.80868e-07 1.81755e-06 0)
(5.66178e-06 0.000133053 0)
(-1.36621e-06 2.21909e-06 0)
(3.95425e-06 0.000147227 0)
(-3.10219e-06 0.000113331 0)
(1.81301e-06 2.45638e-05 0)
(2.01483e-06 3.21532e-05 0)
(2.19579e-06 4.04839e-05 0)
(5.94464e-07 1.72421e-06 0)
(2.60406e-06 9.14259e-05 0)
(-1.4747e-06 1.71444e-05 0)
(-5.16647e-07 6.86731e-06 0)
(-7.5304e-06 0.000133514 0)
(-2.91016e-06 3.65512e-05 0)
(-2.64566e-06 2.85529e-05 0)
(-2.35158e-06 2.13355e-05 0)
(3.75207e-06 8.42824e-05 0)
(3.98409e-06 0.000107008 0)
(1.02476e-05 0.000155254 0)
(5.94518e-06 0.000136613 0)
(6.59634e-06 0.000136384 0)
(9.4255e-08 6.83857e-08 0)
(3.79231e-06 4.33671e-05 0)
(-4.44937e-06 6.52907e-05 0)
(-1.97882e-06 4.39676e-05 0)
(2.20716e-06 6.46338e-05 0)
(-6.82281e-07 6.94495e-05 0)
(-5.24027e-07 0.000111031 0)
(2.91874e-07 3.37093e-05 0)
(2.64575e-07 2.59685e-05 0)
(-3.01207e-09 1.84579e-05 0)
(-1.43666e-07 6.75528e-05 0)
(-8.59438e-08 8.90762e-05 0)
(4.6649e-06 0.000155047 0)
(2.79113e-07 7.06856e-06 0)
(-1.33768e-07 1.6808e-06 0)
(8.65977e-07 9.4394e-05 0)
(4.53253e-08 1.73712e-06 0)
(-7.7169e-07 5.31198e-06 0)
(1.82987e-06 1.8413e-05 0)
(-3.33988e-06 8.91783e-05 0)
(-7.44465e-08 8.64309e-08 0)
(-6.97792e-06 0.000133453 0)
(-6.36726e-07 1.24481e-05 0)
(1.19639e-06 0.000100664 0)
(1.19317e-06 7.82385e-05 0)
(1.76997e-07 4.26435e-08 0)
(-2.27367e-06 4.2493e-06 0)
(2.33184e-06 3.29351e-05 0)
(2.10277e-06 2.52702e-05 0)
(-3.53341e-06 0.00011218 0)
(6.59849e-07 4.52774e-05 0)
(-4.73521e-06 0.000150737 0)
(-8.94209e-08 1.25707e-08 0)
(-2.95162e-06 6.58836e-06 0)
(1.91779e-06 3.67007e-06 0)
(-1.96487e-06 2.21516e-06 0)
(5.29348e-06 5.40327e-05 0)
(3.98894e-06 6.53034e-05 0)
(-3.53921e-06 4.33534e-05 0)
(2.39775e-07 1.82745e-05 0)
(-6.11008e-07 6.78004e-05 0)
(-5.15633e-07 8.93975e-05 0)
(4.94714e-06 0.000131576 0)
(4.68502e-06 5.90032e-05 0)
(2.37592e-06 0.000151878 0)
(2.28733e-06 0.000152434 0)
(6.48129e-07 6.501e-05 0)
(9.13308e-07 4.49493e-05 0)
(8.87036e-08 1.24856e-08 0)
(-6.74507e-06 0.000119594 0)
(2.62396e-06 9.33663e-06 0)
(8.83581e-09 1.39274e-07 0)
(1.25173e-06 8.6257e-05 0)
(1.64727e-06 8.65465e-05 0)
(2.5468e-09 1.24123e-08 0)
(-1.41999e-06 3.55586e-06 0)
(3.27356e-06 3.34671e-05 0)
(2.95607e-06 2.57536e-05 0)
(2.60541e-06 1.88205e-05 0)
(-4.62361e-06 8.8403e-05 0)
(-4.8847e-06 0.00011142 0)
(4.26335e-06 5.62493e-05 0)
(5.73903e-07 0.000129156 0)
(-2.77337e-06 0.000145252 0)
(-2.62804e-06 0.000146003 0)
(-3.03101e-07 0.000112781 0)
(-2.65834e-07 0.000113383 0)
(1.71846e-07 2.45116e-05 0)
(1.54272e-07 2.48636e-05 0)
(1.89993e-07 3.2097e-05 0)
(1.70273e-07 3.24873e-05 0)
(1.10665e-07 4.0424e-05 0)
(1.38217e-07 4.0837e-05 0)
(3.0075e-07 6.52197e-05 0)
(5.81815e-07 6.62311e-05 0)
(1.02545e-06 9.95279e-05 0)
(-3.08851e-07 6.92851e-05 0)
(-1.78466e-07 4.29663e-08 0)
(-1.99673e-07 1.60426e-06 0)
(2.28949e-06 9.09559e-05 0)
(-1.31257e-06 1.74032e-05 0)
(6.7518e-07 2.21341e-06 0)
(9.01718e-06 0.000147361 0)
(-7.30345e-07 0.000113865 0)
(4.26419e-07 2.42437e-05 0)
(4.73498e-07 3.17997e-05 0)
(4.58285e-07 4.00824e-05 0)
(-6.96313e-06 0.000124316 0)
(2.41419e-06 4.59852e-05 0)
(3.49028e-06 0.000156229 0)
(3.95256e-06 0.000155888 0)
(-7.66795e-07 5.4738e-06 0)
(-4.79896e-07 8.79487e-05 0)
(2.24435e-07 1.90973e-05 0)
(1.15525e-07 1.24657e-07 0)
(8.84789e-06 0.000151432 0)
(-1.41288e-07 2.80588e-06 0)
(-1.77468e-06 2.74096e-05 0)
(-1.95823e-06 3.52966e-05 0)
(-2.3367e-06 3.56548e-05 0)
(-2.11972e-06 2.77359e-05 0)
(-1.55276e-06 2.03075e-05 0)
(-1.87319e-06 2.06059e-05 0)
(2.91644e-06 8.54359e-05 0)
(3.09508e-06 0.000108236 0)
(1.41804e-06 2.00855e-06 0)
(-9.34214e-08 5.83242e-08 0)
(-7.72054e-06 0.000103427 0)
(-8.03393e-06 0.00015113 0)
(2.60303e-06 6.61804e-05 0)
(-2.54373e-07 2.86998e-06 0)
(-4.20777e-06 8.52856e-05 0)
(-4.45849e-06 0.000108072 0)
(2.48341e-06 2.07255e-05 0)
(2.79683e-06 2.78682e-05 0)
(3.07931e-06 3.57981e-05 0)
(3.80544e-06 0.000129639 0)
(8.6995e-06 0.000151959 0)
(-4.83031e-06 5.45027e-05 0)
(2.03925e-06 1.86282e-05 0)
(-3.69956e-06 8.88032e-05 0)
(2.4885e-06 6.66775e-05 0)
(-1.00291e-06 4.80777e-05 0)
(2.58448e-06 3.32062e-05 0)
(2.33227e-06 2.55158e-05 0)
(-3.89081e-06 0.000111787 0)
(-7.16315e-06 5.51048e-05 0)
(6.92843e-06 5.29106e-05 0)
(6.92531e-06 5.34803e-05 0)
(-7.07218e-06 5.45004e-05 0)
(-3.5139e-06 9.66204e-06 0)
(-3.61399e-06 9.95533e-06 0)
(-3.34363e-06 5.34774e-05 0)
(-1.85013e-06 2.26808e-06 0)
(-5.3876e-06 5.38717e-05 0)
(-8.09422e-07 0.000125017 0)
(-7.62086e-07 9.46959e-07 0)
(5.46215e-06 3.19946e-05 0)
(4.91331e-06 2.44315e-05 0)
(-7.52605e-06 7.95518e-05 0)
(1.21982e-06 3.32278e-05 0)
(1.10129e-06 2.55333e-05 0)
(-1.88751e-06 0.000111737 0)
(2.6726e-06 8.36244e-06 0)
(4.12842e-06 6.47923e-05 0)
(-3.68349e-06 4.3803e-05 0)
(-2.18169e-06 2.51996e-06 0)
(2.07783e-06 9.99143e-05 0)
(1.99582e-06 7.76149e-05 0)
(-1.04984e-06 1.27697e-05 0)
(6.10157e-06 9.45134e-05 0)
(-3.22001e-06 1.55264e-05 0)
(5.66896e-06 7.25931e-05 0)
(-3.71836e-06 9.53585e-06 0)
(4.27287e-06 0.000145538 0)
(4.90676e-06 0.00014533 0)
(4.73071e-06 0.000111422 0)
(4.49878e-06 8.8412e-05 0)
(-2.63811e-06 1.88738e-05 0)
(-2.98215e-06 2.57525e-05 0)
(-3.30474e-06 3.34658e-05 0)
(-8.03858e-07 8.21763e-07 0)
(-3.82906e-06 0.000135378 0)
(4.11543e-06 8.74632e-05 0)
(-2.45138e-06 1.94246e-05 0)
(-4.89104e-07 6.34629e-07 0)
(3.4922e-06 0.000147134 0)
(9.65808e-07 8.24078e-07 0)
(8.02361e-07 6.26227e-07 0)
(2.00091e-06 2.94816e-06 0)
(4.2333e-06 0.00011889 0)
(-7.27522e-06 0.000122076 0)
(9.59188e-06 0.000147546 0)
(2.02456e-06 3.09653e-06 0)
(4.26293e-06 5.89862e-05 0)
(5.75708e-06 0.000125865 0)
(-9.35841e-06 0.000119192 0)
(3.69484e-06 9.55469e-06 0)
(-2.18069e-06 0.000126637 0)
(8.75926e-07 3.33278e-05 0)
(7.91301e-07 2.56235e-05 0)
(-1.38134e-06 0.000111589 0)
(-3.63715e-07 1.79346e-06 0)
(2.46137e-06 6.96977e-05 0)
(8.0164e-08 3.2299e-08 0)
(-3.1213e-06 6.52545e-06 0)
(-5.46176e-07 5.76747e-05 0)
(-1.38503e-06 1.16926e-05 0)
(-1.60926e-06 1.17676e-05 0)
(2.79235e-06 7.97856e-05 0)
(3.24764e-06 7.96421e-05 0)
(3.46713e-06 0.000102071 0)
(2.98107e-06 0.000102224 0)
(9.24418e-08 3.71157e-07 0)
(-3.24091e-08 4.43962e-06 0)
(-5.13651e-06 7.19419e-05 0)
(-5.53212e-06 9.38131e-05 0)
(2.86167e-06 1.58832e-05 0)
(-1.7318e-06 9.5791e-06 0)
(-9.87124e-07 9.63768e-05 0)
(-1.5931e-06 4.17819e-06 0)
(2.91432e-06 0.000145766 0)
(-2.46929e-06 4.9393e-05 0)
(-2.85604e-06 4.92727e-05 0)
(9.22224e-08 9.87379e-08 0)
(-1.64559e-06 5.10254e-05 0)
(-8.77828e-07 1.07792e-05 0)
(1.81794e-06 8.16753e-05 0)
(1.93771e-06 0.000104239 0)
(-2.25756e-06 9.63916e-05 0)
(-2.00196e-06 7.43057e-05 0)
(1.03371e-06 1.45191e-05 0)
(1.42156e-06 5.57401e-06 0)
(1.32066e-06 5.3759e-06 0)
(6.15138e-07 4.92542e-05 0)
(-8.63107e-07 0.000102034 0)
(-8.15079e-07 7.9595e-05 0)
(3.5163e-07 1.17711e-05 0)
(-8.21418e-07 1.9995e-05 0)
(-1.49993e-06 4.29277e-06 0)
(5.46479e-06 0.000149118 0)
(-5.43087e-06 9.04199e-05 0)
(4.22137e-06 4.36349e-05 0)
(-4.9248e-06 6.49933e-05 0)
(5.82794e-06 0.000126419 0)
(-5.58983e-06 4.02202e-05 0)
(-5.13607e-06 3.19056e-05 0)
(6.63065e-06 6.90342e-05 0)
(-4.61597e-06 2.43508e-05 0)
(-4.0385e-06 1.76216e-05 0)
(7.18938e-06 9.06935e-05 0)
(7.57696e-06 0.000113796 0)
(-2.01564e-06 0.000109027 0)
(-1.90585e-06 8.6184e-05 0)
(1.21709e-06 2.72374e-05 0)
(1.07929e-06 2.01613e-05 0)
(1.3416e-06 3.51075e-05 0)
(1.16208e-06 2.7617e-05 0)
(-1.91632e-06 0.000108433 0)
(1.27956e-06 3.55253e-05 0)
(1.03197e-06 2.04987e-05 0)
(-1.81103e-06 8.56237e-05 0)
(-1.08556e-06 0.000137456 0)
(-2.34947e-06 3.15951e-06 0)
(-2.46967e-06 1.43839e-05 0)
(4.84435e-06 9.6686e-05 0)
(4.51227e-06 7.46116e-05 0)
(-1.54685e-06 1.92239e-05 0)
(2.59667e-06 8.77881e-05 0)
(7.19413e-06 0.000108058 0)
(6.78381e-06 8.52781e-05 0)
(-4.15272e-06 2.07776e-05 0)
(-4.68075e-06 2.79183e-05 0)
(-5.15521e-06 3.58472e-05 0)
(7.5766e-06 0.000117655 0)
(8.27343e-06 0.000117509 0)
(1.97065e-07 3.8e-06 0)
(-8.15364e-07 5.67628e-05 0)
(-2.24622e-06 6.36703e-06 0)
(1.16872e-07 2.32439e-07 0)
(-2.201e-06 8.04673e-06 0)
(-3.64498e-07 0.00012526 0)
(8.46448e-08 3.63982e-06 0)
(-1.73064e-06 6.06857e-05 0)
(6.9112e-06 7.95974e-05 0)
(-3.38738e-06 1.1861e-05 0)
(7.3755e-06 0.000102016 0)
(-7.86387e-09 -5.44487e-09 0)
(4.24714e-07 9.44814e-05 0)
(1.48416e-07 6.3384e-08 0)
(1.01121e-07 7.74714e-08 0)
(1.20312e-06 6.86175e-05 0)
(-1.70483e-07 1.43542e-07 0)
(5.58589e-06 0.00015021 0)
(3.85099e-07 8.65225e-05 0)
(-2.57824e-07 1.99359e-05 0)
(1.32009e-06 8.18898e-06 0)
(7.41145e-07 8.62621e-05 0)
(-4.81243e-07 2.00776e-05 0)
(-8.73277e-08 1.86657e-06 0)
(-5.51328e-06 3.1981e-05 0)
(-4.95627e-06 2.44205e-05 0)
(-4.33696e-06 1.76876e-05 0)
(-3.64872e-06 1.18884e-05 0)
(7.44277e-06 7.95677e-05 0)
(7.71355e-06 9.0597e-05 0)
(7.9429e-06 0.000101983 0)
(8.13226e-06 0.000113695 0)
(-3.65567e-06 0.000122427 0)
(-3.25402e-06 0.000144976 0)
(-1.04257e-05 0.000120249 0)
(4.03794e-06 9.15737e-06 0)
(2.32858e-06 0.000153516 0)
(2.71538e-06 0.000152867 0)
(7.04011e-07 8.44123e-05 0)
(7.62818e-07 0.000107159 0)
(-6.16994e-07 3.64623e-05 0)
(-5.59877e-07 2.84692e-05 0)
(-4.96405e-07 2.12575e-05 0)
(-3.22753e-06 9.56204e-06 0)
(1.16657e-06 6.90755e-06 0)
(-4.18407e-06 3.81403e-05 0)
(5.31294e-06 8.22284e-05 0)
(-3.81777e-06 3.00064e-05 0)
(-3.41069e-06 2.2639e-05 0)
(5.65355e-06 0.000104823 0)
(-2.44861e-06 1.05746e-05 0)
(5.71955e-06 0.000116626 0)
(9.53129e-07 5.44451e-05 0)
(-6.46496e-07 0.000129914 0)
(6.71041e-07 3.41266e-07 0)
(-4.81563e-07 0.000114451 0)
(2.75293e-07 2.38927e-05 0)
(3.05563e-07 3.14099e-05 0)
(2.75615e-07 3.96569e-05 0)
(1.75961e-06 0.000134484 0)
(-2.78485e-07 1.82281e-07 0)
(9.09444e-06 0.00013238 0)
(-1.42937e-06 5.75947e-05 0)
(-4.74409e-08 1.07426e-07 0)
(3.25063e-06 8.09903e-05 0)
(-1.56319e-06 1.11157e-05 0)
(3.46496e-06 0.000103508 0)
(8.06938e-08 6.5505e-08 0)
(-2.08538e-06 1.33526e-05 0)
(3.95341e-06 7.65289e-05 0)
(4.23491e-06 9.87428e-05 0)
(7.45005e-07 1.0192e-06 0)
(-2.87377e-06 5.04469e-05 0)
(5.65542e-07 5.38213e-05 0)
(-6.36759e-06 0.000141271 0)
(5.48733e-07 8.48575e-05 0)
(5.84473e-07 0.000107621 0)
(-5.25658e-07 3.61223e-05 0)
(-4.20914e-07 2.09829e-05 0)
(-4.76447e-07 2.81595e-05 0)
(9.21806e-07 5.48343e-05 0)
(-1.49816e-07 5.88508e-07 0)
(-1.34802e-07 1.96268e-06 0)
(2.35733e-07 0.000125061 0)
(6.29226e-06 5.8816e-05 0)
(-6.00709e-06 4.92735e-05 0)
(-4.48254e-06 0.000157728 0)
(-1.01339e-05 0.000104121 0)
(-9.51926e-06 8.15792e-05 0)
(-9.85173e-06 9.26728e-05 0)
(-9.13481e-06 7.08957e-05 0)
(5.24769e-06 1.6593e-05 0)
(6.02875e-06 2.31574e-05 0)
(6.72962e-06 3.05699e-05 0)
(7.36088e-06 3.87427e-05 0)
(1.00358e-05 0.00010412 0)
(9.75557e-06 9.26725e-05 0)
(-5.2951e-06 1.6596e-05 0)
(-6.08595e-06 2.31615e-05 0)
(9.42556e-06 8.1579e-05 0)
(-6.79652e-06 3.05728e-05 0)
(9.04526e-06 7.08946e-05 0)
(-7.43539e-06 3.87462e-05 0)
(-3.10867e-06 9.30076e-06 0)
(-1.60468e-06 0.000129644 0)
(-1.15666e-06 0.000129524 0)
(-1.428e-06 0.000146427 0)
(2.27034e-06 8.9869e-05 0)
(-1.32542e-06 1.80144e-05 0)
(-4.96676e-07 7.6029e-07 0)
(-1.83622e-06 0.000154587 0)
(-2.06678e-06 3.48452e-05 0)
(-2.52574e-06 3.47179e-05 0)
(-1.87111e-06 2.69999e-05 0)
(-2.28615e-06 2.68851e-05 0)
(2.87644e-06 0.000109591 0)
(3.46274e-06 0.000109641 0)
(7.66051e-06 0.000107785 0)
(7.22168e-06 8.50216e-05 0)
(-4.4356e-06 2.09435e-05 0)
(-4.99595e-06 2.8103e-05 0)
(-5.49953e-06 3.60488e-05 0)
(-4.73625e-06 7.21875e-05 0)
(-5.09936e-06 9.40784e-05 0)
(2.62172e-06 1.57358e-05 0)
(-1.51829e-06 6.48885e-05 0)
(1.24272e-06 4.37076e-05 0)
(1.47934e-06 0.000112608 0)
(-9.55842e-07 2.49572e-05 0)
(-1.06267e-06 3.25904e-05 0)
(-1.14253e-06 4.08796e-05 0)
(2.92067e-06 4.32027e-05 0)
(2.46964e-06 4.33099e-05 0)
(-3.455e-06 6.54626e-05 0)
(-2.93132e-06 6.5333e-05 0)
(-3.44282e-06 0.000153452 0)
(2.52719e-07 7.30915e-07 0)
(5.61327e-06 0.000132521 0)
(2.05165e-06 4.78226e-05 0)
(5.52272e-06 9.25799e-05 0)
(-3.01577e-06 1.65485e-05 0)
(5.11889e-06 7.07967e-05 0)
(-4.86571e-06 5.69964e-05 0)
(1.21951e-06 1.26142e-05 0)
(-2.69367e-06 0.000100237 0)
(-2.5224e-06 7.7926e-05 0)
(3.0328e-07 4.9694e-05 0)
(-4.50627e-07 8.01088e-05 0)
(-4.74899e-07 0.00010258 0)
(1.73416e-07 1.15196e-05 0)
(3.24953e-06 4.51523e-05 0)
(-3.73637e-06 6.32401e-05 0)
(-1.79038e-06 0.000137454 0)
(-8.13561e-06 0.000136169 0)
(1.43262e-06 6.0421e-05 0)
(3.65208e-06 6.06033e-05 0)
(-3.1765e-06 1.22646e-05 0)
(6.7905e-06 0.000101112 0)
(6.35671e-06 7.8749e-05 0)
(-3.67257e-07 1.5977e-06 0)
(-1.13583e-06 0.000115225 0)
(6.17374e-07 2.34261e-05 0)
(6.878e-07 3.08911e-05 0)
(7.45133e-07 3.90963e-05 0)
(-1.7365e-06 5.73225e-05 0)
(-7.54424e-06 0.000136214 0)
(-2.29405e-06 2.34532e-05 0)
(-2.56114e-06 3.09179e-05 0)
(-2.79217e-06 3.91408e-05 0)
(3.78557e-06 0.000115185 0)
(7.84001e-09 1.09012e-08 0)
(4.74961e-06 5.65546e-05 0)
(5.6763e-08 4.72692e-06 0)
(-2.52025e-07 4.57584e-07 0)
(-5.19478e-07 2.05848e-06 0)
(-2.42055e-06 8.56945e-06 0)
(-2.58633e-07 9.60907e-08 0)
(9.44675e-07 2.63864e-05 0)
(8.39388e-07 1.93936e-05 0)
(1.04357e-06 3.41703e-05 0)
(-1.60862e-06 0.000110367 0)
(-1.53075e-06 8.7471e-05 0)
(-4.71317e-06 4.72131e-05 0)
(4.99101e-06 6.09547e-05 0)
(-5.10964e-07 3.09684e-07 0)
(5.9712e-06 0.000145587 0)
(4.2944e-06 0.000130572 0)
(-9.2814e-06 0.000123084 0)
(3.43822e-06 6.01507e-05 0)
(1.21282e-06 6.51542e-05 0)
(-2.36889e-06 0.000154518 0)
(-6.58041e-06 6.81514e-05 0)
(-6.26176e-06 6.78609e-05 0)
(9.08296e-06 0.000154474 0)
(-7.73135e-07 0.000138124 0)
(-2.13597e-06 4.35369e-05 0)
(2.45526e-06 6.51413e-05 0)
(7.24141e-08 4.8894e-06 0)
(1.25212e-06 1.75641e-06 0)
(2.55388e-07 9.49314e-08 0)
(2.16191e-06 6.9258e-05 0)
(7.99939e-06 0.000157584 0)
(-4.44748e-06 0.000110386 0)
(-4.20306e-06 8.74683e-05 0)
(2.39799e-06 1.94144e-05 0)
(3.00443e-06 3.41758e-05 0)
(2.71806e-06 2.63947e-05 0)
(-9.41411e-08 6.80155e-08 0)
(-3.73071e-07 0.000143642 0)
(4.14566e-06 6.07757e-05 0)
(-3.87207e-06 4.74463e-05 0)
(-6.64414e-06 0.000140233 0)
(-9.91241e-06 0.000104638 0)
(-9.63826e-06 9.31737e-05 0)
(-9.31667e-06 8.20641e-05 0)
(-8.94293e-06 7.13618e-05 0)
(5.08977e-06 1.63159e-05 0)
(5.85659e-06 2.2841e-05 0)
(6.54466e-06 3.02181e-05 0)
(7.16438e-06 3.8359e-05 0)
(9.81343e-06 0.000104635 0)
(9.54204e-06 9.31734e-05 0)
(-5.13647e-06 1.632e-05 0)
(-5.91278e-06 2.28459e-05 0)
(9.22164e-06 8.20627e-05 0)
(-6.61048e-06 3.02219e-05 0)
(8.85246e-06 7.13586e-05 0)
(-7.23787e-06 3.83636e-05 0)
(-1.60386e-06 2.21384e-06 0)
(6.31958e-07 6.19729e-07 0)
(-8.47058e-07 1.59856e-06 0)
(3.68932e-06 5.9671e-05 0)
(-4.12143e-06 6.13831e-05 0)
(8.03203e-07 1.00792e-06 0)
(-1.27206e-07 2.12925e-08 0)
(-8.92652e-06 0.000123374 0)
(5.04271e-06 0.000156023 0)
(5.66477e-06 0.000156312 0)
(1.26229e-07 2.11545e-08 0)
(1.79808e-06 2.47654e-06 0)
(7.92339e-06 0.000142304 0)
(-3.0989e-06 6.76311e-05 0)
(-2.24594e-07 2.05009e-07 0)
(-5.05149e-07 8.13133e-07 0)
(-7.96152e-08 2.04585e-08 0)
(1.47702e-07 1.19699e-07 0)
(8.35542e-06 5.43104e-05 0)
(-8.41158e-06 5.37045e-05 0)
(2.56536e-06 4.13548e-05 0)
(-3.17683e-06 6.6436e-05 0)
(2.66216e-06 4.23804e-05 0)
(-1.56456e-07 2.64415e-06 0)
(-1.95205e-06 0.00010462 0)
(1.50902e-06 5.1351e-05 0)
(-1.10652e-06 0.000103517 0)
(-1.06503e-06 8.09402e-05 0)
(4.57935e-07 1.11222e-05 0)
(8.14232e-07 5.04515e-05 0)
(-3.45223e-06 6.7298e-05 0)
(1.91547e-06 2.62105e-06 0)
(2.8766e-06 4.16561e-05 0)
(1.02988e-06 6.05104e-05 0)
(7.96262e-06 0.000146859 0)
(-2.50976e-06 6.09922e-05 0)
(-2.87989e-06 6.13924e-05 0)
(-2.501e-06 5.48081e-06 0)
(-2.79192e-06 6.32753e-05 0)
(-2.39328e-06 6.28516e-05 0)
(2.44858e-06 4.50813e-05 0)
(2.14582e-06 4.55108e-05 0)
(-2.75053e-06 1.3078e-05 0)
(5.30314e-06 7.7101e-05 0)
(5.67625e-06 9.93526e-05 0)
(-7.91631e-07 9.12151e-07 0)
(-3.45932e-06 6.67767e-05 0)
(2.89559e-06 4.21051e-05 0)
(-2.20499e-06 8.5198e-05 0)
(-2.33512e-06 0.000107982 0)
(1.27709e-06 2.07596e-05 0)
(1.58159e-06 3.58467e-05 0)
(1.43725e-06 2.79097e-05 0)
(-1.23624e-06 5.91375e-06 0)
(-7.13333e-06 8.96925e-05 0)
(-6.76209e-06 8.94184e-05 0)
(3.95254e-06 1.81763e-05 0)
(3.7574e-06 1.83304e-05 0)
(4.66327e-06 7.17389e-05 0)
(5.13151e-06 7.13971e-05 0)
(-2.70138e-06 1.59934e-05 0)
(-2.98827e-06 1.61991e-05 0)
(5.02505e-06 9.35961e-05 0)
(5.53196e-06 9.3227e-05 0)
(-2.07552e-06 0.000136961 0)
(4.01158e-06 0.000125339 0)
(4.07006e-06 0.000124769 0)
(-3.1201e-06 4.23847e-05 0)
(3.52966e-06 6.64201e-05 0)
(-1.06893e-05 0.000152248 0)
(-3.10522e-06 0.000122087 0)
(-2.98375e-06 0.000121529 0)
(1.09555e-06 8.52458e-06 0)
(1.12724e-06 8.3122e-06 0)
(9.14494e-06 0.000123406 0)
(-4.17686e-06 5.39195e-05 0)
(-3.59075e-06 5.39382e-05 0)
(9.04562e-06 0.000138933 0)
(-9.23459e-06 0.000146292 0)
(-9.22282e-06 0.000146974 0)