/*--------------------------------*- C++ -*----------------------------------*\
| =========                 |                                                 |
| \\      /  F ield         | OpenFOAM: The Open Source CFD Toolbox           |
|  \\    /   O peration     | Version:  2.3.1                                 |
|   \\  /    A nd           | Web:      www.OpenFOAM.org                      |
|    \\/     M anipulation  |                                                 |
\*---------------------------------------------------------------------------*/
FoamFile
{
    version     2.0;
    format      ascii;
    class       volScalarField;
    location    "0.31";
    object      p;
}
// * * * * * * * * * * * * * * * * * * * * * * * * * * * * * * * * * * * * * //

dimensions      [0 2 -2 0 0 0 0];

internalField   nonuniform List<scalar> 
15166
(
-17.1939
-22.2273
-24.9997
-27.2121
-29.0921
-30.6911
-32.1244
-33.3826
-34.4706
-35.2784
-36.0212
-36.5951
-21.9177
-24.4331
-25.7955
-27.4641
-29.0391
-30.4655
-31.7707
-32.9502
-33.9825
-34.8128
-35.5547
-36.1487
-27.111
-28.0004
-28.2758
-29.2123
-30.211
-31.2271
-32.2267
-33.1592
-34.0088
-34.735
-35.3807
-35.9187
-30.0911
-30.5037
-30.4984
-31.0598
-31.6517
-32.3209
-33.0258
-33.7138
-34.3647
-34.9438
-35.4635
-35.8927
-31.9622
-32.2171
-32.1913
-32.5917
-32.969
-33.4239
-33.9184
-34.4162
-34.8992
-35.3412
-35.7445
-36.0938
-33.6125
-33.7321
-33.6744
-33.9491
-34.1852
-34.4946
-34.8364
-35.1869
-35.5331
-35.8558
-36.1525
-36.4151
-35.2051
-35.2051
-35.0977
-35.251
-35.3682
-35.5561
-35.7711
-35.9983
-36.2269
-36.4421
-36.6377
-36.8006
-36.6802
-36.5925
-36.4473
-36.4996
-36.5194
-36.6033
-36.7101
-36.8313
-36.9577
-37.0784
-37.1869
-37.2739
-38.0198
-37.8659
-37.6973
-37.6724
-37.6175
-37.6172
-37.6348
-37.6669
-37.7065
-37.7455
-37.7785
-37.7963
-39.2442
-39.037
-38.8527
-38.7674
-38.6551
-38.5872
-38.5323
-38.4909
-38.4574
-38.4262
-38.3912
-38.3445
-40.3754
-40.1249
-39.9283
-39.7936
-39.6353
-39.5122
-39.3977
-39.2948
-39.1995
-39.1086
-39.017
-38.9066
-41.4307
-41.143
-40.9362
-40.7595
-40.5633
-40.3937
-40.2293
-40.0746
-39.9269
-39.7847
-39.6477
-39.5046
-42.4172
-42.0984
-41.8831
-41.6707
-41.4426
-41.2334
-41.0267
-40.8278
-40.6347
-40.447
-40.2657
-40.0914
-43.3425
-42.9969
-42.7744
-42.5314
-42.2764
-42.0333
-41.7903
-41.5526
-41.319
-41.0876
-40.8502
-40.5938
-44.2133
-43.8442
-43.6155
-43.3459
-43.0676
-42.7956
-42.5215
-42.251
-41.9838
-41.7224
-41.4696
-41.2068
-45.0343
-44.6449
-44.4105
-44.1178
-43.8197
-43.5225
-43.2221
-42.9236
-42.6274
-42.3355
-42.053
-41.7769
-45.8101
-45.403
-45.1635
-44.8505
-44.5349
-44.2159
-43.8923
-43.569
-43.2472
-42.9279
-42.6143
-42.3127
-46.5455
-46.1221
-45.8774
-45.5462
-45.2152
-44.8769
-44.533
-44.1883
-43.8444
-43.5025
-43.1642
-42.8357
-47.2423
-46.8046
-46.5553
-46.208
-45.8634
-45.508
-45.1463
-44.7825
-44.419
-44.0582
-43.7015
-43.3525
-47.9039
-47.4533
-47.1995
-46.8376
-46.4808
-46.11
-45.7324
-45.3516
-44.9705
-44.5919
-44.2188
-43.8592
-48.5326
-48.0701
-47.8121
-47.4371
-47.0691
-46.6846
-46.2924
-45.8961
-45.4986
-45.1024
-44.7102
-44.3331
-49.1296
-48.6569
-48.395
-48.008
-47.6299
-47.2328
-46.8276
-46.4171
-46.0045
-45.5917
-45.1785
-44.7732
-49.7004
-49.2164
-48.9501
-48.552
-48.1647
-47.7564
-47.3394
-46.9164
-46.491
-46.066
-45.6425
-45.2268
-50.2423
-49.7481
-49.4785
-49.0704
-48.6747
-48.2562
-47.8287
-47.3946
-46.9578
-46.5212
-46.085
-45.6505
-50.7519
-50.2528
-49.9809
-49.5639
-49.1607
-48.733
-48.2962
-47.8522
-47.405
-46.9576
-46.5114
-46.0654
-51.2431
-50.735
-50.4593
-50.0339
-49.6239
-49.188
-48.7427
-48.2896
-47.8329
-47.3758
-46.9194
-46.4611
-51.7095
-51.1934
-50.915
-50.4818
-50.0654
-49.6218
-49.1687
-48.7074
-48.2423
-47.7771
-47.315
-46.8505
-52.1533
-51.629
-51.3481
-50.9078
-50.4856
-50.035
-49.5747
-49.1057
-48.6326
-48.1583
-47.6859
-47.2169
-52.5703
-52.042
-51.7597
-51.3126
-50.8851
-50.4281
-49.9612
-49.4851
-49.0045
-48.522
-48.0388
-47.5511
-52.9678
-52.4339
-52.1504
-51.6971
-51.2648
-50.802
-50.329
-49.8465
-49.3594
-48.8707
-48.383
-47.8893
-53.3451
-52.8082
-52.5215
-52.0621
-51.6254
-51.1571
-50.6786
-50.1903
-49.6972
-49.2024
-48.7086
-48.2084
-53.7061
-53.164
-52.8739
-52.4083
-51.9673
-51.4939
-51.0103
-50.5167
-50.0182
-49.5177
-49.0195
-48.5179
-54.0376
-53.4973
-53.2058
-52.7352
-52.2904
-51.8125
-51.3244
-50.826
-50.3223
-49.816
-49.3102
-48.8006
-54.3582
-53.8134
-53.5186
-53.0435
-52.5954
-52.1134
-51.6213
-51.1187
-50.6107
-50.1003
-49.5912
-49.0815
-54.6597
-54.1104
-53.8138
-53.334
-52.8827
-52.3971
-51.9013
-51.395
-50.8834
-50.3696
-49.8565
-49.3413
-54.9383
-54.3884
-54.091
-53.6069
-53.1529
-52.6637
-52.1644
-51.6546
-51.1397
-50.623
-50.1092
-49.5953
-55.201
-54.6488
-54.3509
-53.8622
-53.4056
-52.9131
-52.4106
-51.8972
-51.3783
-50.8565
-50.336
-49.8212
-55.4517
-54.8933
-54.5942
-54.1006
-53.6415
-53.1456
-52.6398
-52.1227
-51.5996
-51.0727
-50.5423
-50.0058
-55.6756
-55.1181
-54.8203
-54.3219
-53.8606
-53.3618
-52.8528
-52.3324
-51.8059
-51.2759
-50.7413
-50.1819
-55.8914
-55.3275
-55.03
-54.5262
-54.0631
-53.5615
-53.0501
-52.5274
-51.9991
-51.4698
-50.9483
-50.4226
-56.0841
-55.5189
-55.2226
-54.7135
-54.2493
-53.7453
-53.2316
-52.7066
-52.1755
-51.6405
-51.1049
-50.5694
-56.2616
-55.6966
-55.3972
-54.8838
-54.4192
-53.9131
-53.3973
-52.87
-52.3369
-51.8003
-51.2641
-50.7218
-56.4278
-55.8592
-55.5562
-55.0386
-54.5738
-54.0655
-53.548
-53.019
-52.4842
-51.9463
-51.4087
-50.8616
-56.5688
-56.0039
-55.7009
-55.1768
-54.7135
-54.2032
-53.6843
-53.1538
-52.6176
-52.0783
-51.5409
-51.0003
-56.7019
-56.1337
-55.8285
-55.3011
-54.8391
-54.3264
-53.8061
-53.2744
-52.7367
-52.1954
-51.6542
-51.1084
-56.8123
-56.2454
-55.9384
-55.4106
-54.9511
-54.4344
-53.9131
-53.3804
-52.8416
-52.2996
-51.7598
-51.2259
-56.9089
-56.3427
-56.0322
-55.5073
-55.0467
-54.5257
-54.0049
-53.4713
-52.9312
-52.3866
-51.8405
-51.2953
-56.9882
-56.4262
-56.108
-55.5904
-55.1212
-54.6038
-54.0821
-53.547
-53.0055
-52.4601
-51.9148
-51.378
-57.055
-56.4938
-56.1705
-55.657
-55.1835
-54.6666
-54.1438
-53.6073
-53.0645
-52.5174
-51.9686
-51.4221
-57.1056
-56.5466
-56.2185
-55.7068
-55.2317
-54.7147
-54.1902
-53.6526
-53.1083
-52.5603
-52.0124
-51.474
-57.1369
-56.5815
-56.2522
-55.7414
-55.2649
-54.7474
-54.2218
-53.6828
-53.1372
-52.5873
-52.0341
-51.4808
-57.1575
-56.6027
-56.2719
-55.7616
-55.2837
-54.7658
-54.2392
-53.6994
-53.1532
-52.6031
-52.05
-51.4888
-57.162
-56.6084
-56.2765
-55.7663
-55.2876
-54.7698
-54.2428
-53.7033
-53.1581
-52.6107
-52.0658
-51.5194
-57.1475
-56.5992
-56.2663
-55.7565
-55.2771
-54.7594
-54.2326
-53.694
-53.1498
-52.6028
-52.0566
-51.5054
-57.1219
-56.5761
-56.2415
-55.7322
-55.2524
-54.7351
-54.209
-53.6713
-53.128
-52.5811
-52.0349
-51.4907
-57.0807
-56.5382
-56.2021
-55.6934
-55.2135
-54.6973
-54.172
-53.6357
-53.0934
-52.5468
-51.9979
-51.4464
-57.0292
-56.4847
-56.148
-55.64
-55.1606
-54.6455
-54.1219
-53.5872
-53.0463
-52.5009
-51.9542
-51.4119
-56.9528
-56.416
-56.0788
-55.5721
-55.0933
-54.5801
-54.0582
-53.525
-52.9852
-52.44
-51.8909
-51.3321
-56.8705
-56.3319
-55.9946
-55.4895
-55.0121
-54.5004
-53.98
-53.4482
-52.9093
-52.3668
-51.8285
-51.3051
-56.7667
-56.2322
-55.8954
-55.3922
-54.9161
-54.406
-53.8865
-53.3548
-52.8155
-52.2707
-51.7238
-51.1846
-56.6489
-56.1183
-55.7822
-55.281
-54.8058
-54.2963
-53.7767
-53.2441
-52.7038
-52.158
-51.6092
-51.0631
-56.5213
-55.9925
-55.6558
-55.1558
-54.6811
-54.1716
-53.6515
-53.1183
-52.5776
-52.0327
-51.4855
-50.9325
-56.3786
-55.8509
-55.5148
-55.0161
-54.5414
-54.0322
-53.5119
-52.9794
-52.4403
-51.8984
-51.3586
-50.8245
-56.2176
-55.6943
-55.3594
-54.862
-54.3877
-53.8786
-53.3592
-52.8284
-52.2917
-51.7525
-51.2118
-50.6677
-56.0453
-55.5244
-55.1897
-54.6936
-54.2196
-53.7119
-53.1943
-52.6663
-52.1334
-51.5983
-51.0646
-50.5338
-55.8569
-55.3404
-55.0061
-54.511
-54.038
-53.5321
-53.0171
-52.4929
-51.9637
-51.4319
-50.8984
-50.3611
-55.6556
-55.1431
-54.8082
-54.3143
-53.8425
-53.339
-52.8275
-52.307
-51.7813
-51.2524
-50.7237
-50.2021
-55.4454
-54.9309
-54.5955
-54.1031
-53.6332
-53.1325
-52.6243
-52.1071
-51.5839
-51.0555
-50.5234
-49.9914
-55.207
-54.7002
-54.367
-53.8778
-53.4104
-52.9131
-52.4078
-51.8931
-51.3717
-50.8451
-50.3173
-49.8041
-54.9585
-54.4558
-54.1247
-53.6385
-53.1745
-52.6802
-52.1777
-51.6646
-51.1445
-50.6188
-50.0896
-49.5683
-54.6974
-54.1986
-53.8686
-53.3867
-52.9255
-52.434
-51.9336
-51.4218
-50.903
-50.3792
-49.8547
-49.3511
-54.4219
-53.9255
-53.5989
-53.121
-52.663
-52.1738
-51.6747
-51.1644
-50.6469
-50.1248
-49.5989
-49.0792
-54.133
-53.6407
-53.3153
-52.841
-52.3858
-51.8988
-51.4015
-50.8929
-50.3777
-49.859
-49.3374
-48.823
-53.8238
-53.339
-53.0176
-52.5473
-52.094
-51.6094
-51.1143
-50.6087
-50.0974
-49.5837
-49.0697
-48.568
-53.5041
-53.0248
-52.7057
-52.2379
-51.7869
-51.3046
-50.8126
-50.3109
-49.804
-49.2942
-48.7812
-48.2719
-53.1802
-52.7025
-52.3819
-51.9153
-51.4651
-50.9856
-50.4971
-49.9999
-49.4977
-48.9928
-48.4873
-47.9966
-52.837
-52.3634
-52.0433
-51.5783
-51.13
-50.653
-50.1686
-49.6759
-49.1778
-48.6757
-48.1686
-47.6635
-52.4795
-52.0083
-51.6893
-51.2267
-50.7809
-50.3074
-49.8271
-49.3388
-48.8449
-48.3473
-47.8475
-47.3628
-52.1056
-51.6393
-51.3212
-50.8615
-50.4186
-49.9492
-49.4731
-48.9886
-48.4984
-48.0042
-47.5056
-47.0086
-51.7117
-51.2529
-50.9379
-50.4827
-50.0438
-49.5785
-49.1062
-48.625
-48.1384
-47.6484
-47.1587
-46.6869
-51.3075
-50.8532
-50.5409
-50.091
-49.6563
-49.1952
-48.7262
-48.2477
-47.7637
-47.2756
-46.7836
-46.3043
-50.8895
-50.4398
-50.1311
-49.6862
-49.2561
-48.7988
-48.3327
-47.857
-47.3755
-46.8899
-46.3986
-45.909
-50.4561
-50.0118
-49.7065
-49.2674
-48.8416
-48.3885
-47.9259
-47.4542
-46.977
-46.4973
-46.0161
-45.5394
-50.0081
-49.5698
-49.2681
-48.8342
-48.4126
-47.9637
-47.5057
-47.0388
-46.5673
-46.094
-45.6231
-45.1691
-49.5463
-49.1142
-48.8158
-48.3864
-47.9687
-47.5241
-47.0708
-46.6093
-46.1425
-45.6728
-45.2001
-44.7333
-49.0702
-48.6459
-48.35
-47.9246
-47.5102
-47.0698
-46.6215
-46.1655
-45.7045
-45.2404
-44.7756
-44.3311
-48.5894
-48.1663
-47.8709
-47.4491
-47.0378
-46.6019
-46.159
-45.7086
-45.2533
-44.7941
-44.3297
-43.8631
-48.0883
-47.6708
-47.3773
-46.9595
-46.552
-46.1211
-45.6837
-45.2394
-44.7902
-44.3384
-43.8869
-43.4522
-47.5707
-47.1593
-46.8687
-46.4558
-46.0531
-45.6276
-45.196
-44.7574
-44.3137
-43.8674
-43.4207
-42.998
-47.0378
-46.6334
-46.3466
-45.9393
-45.5418
-45.1218
-44.6954
-44.2617
-43.8226
-43.3797
-42.9343
-42.5138
-46.4911
-46.0927
-45.8101
-45.4092
-45.0173
-44.6031
-44.1818
-43.7526
-43.3179
-42.8786
-42.4311
-41.9854
-45.93
-45.5383
-45.2605
-44.8667
-44.4808
-44.0722
-43.6563
-43.2326
-42.8046
-42.3756
-41.9498
-41.5613
-45.3562
-44.9718
-44.6978
-44.3109
-43.9308
-43.528
-43.1176
-42.6995
-42.2773
-41.8536
-41.4259
-41.0104
-44.7704
-44.3904
-44.1212
-43.7411
-43.3668
-42.9698
-42.5648
-42.1524
-41.7362
-41.318
-40.8977
-40.501
-44.1647
-43.795
-43.5307
-43.157
-42.7881
-42.3971
-41.9982
-41.5927
-41.1832
-40.772
-40.3571
-39.9473
-43.5548
-43.1884
-42.9266
-42.5585
-42.1953
-41.8103
-41.4184
-41.0204
-40.6189
-40.2166
-39.8157
-39.4398
-42.9302
-42.5688
-42.3097
-41.9468
-41.5887
-41.21
-40.825
-40.4345
-40.0403
-39.6441
-39.2431
-38.8441
-42.2812
-41.9305
-41.6771
-41.3208
-40.9684
-40.5964
-40.2183
-39.8354
-39.4491
-39.0613
-38.6735
-38.3088
-41.6296
-41.2832
-41.0318
-40.6814
-40.335
-39.9701
-39.5994
-39.224
-38.8457
-38.4656
-38.0822
-37.7022
-40.9595
-40.6205
-40.3734
-40.0296
-39.6902
-39.3323
-38.9691
-38.6013
-38.2307
-37.859
-37.4899
-37.1457
-40.278
-39.9444
-39.7015
-39.365
-39.0327
-38.6827
-38.327
-37.9667
-37.6031
-37.2369
-36.8665
-36.5083
-39.5772
-39.2527
-39.0159
-38.688
-38.3634
-38.021
-37.6729
-37.32
-36.964
-36.6066
-36.2456
-35.8937
-38.8646
-38.5485
-38.3174
-37.998
-37.6809
-37.3468
-37.0069
-36.6621
-36.3151
-35.9687
-35.625
-35.297
-38.1449
-37.8334
-37.6067
-37.2951
-36.9855
-36.6591
-36.3272
-35.9908
-35.6525
-35.3143
-34.9776
-34.6625
-37.4081
-37.1053
-36.8834
-36.579
-36.2768
-35.958
-35.6339
-35.3056
-34.9756
-34.6448
-34.3111
-33.9862
-36.6603
-36.3636
-36.1467
-35.8503
-35.555
-35.2441
-34.9278
-34.6087
-34.2887
-33.9692
-33.6524
-33.3632
-35.8974
-35.6097
-35.3974
-35.1086
-34.8206
-34.518
-34.2108
-33.9011
-33.5906
-33.2804
-32.9671
-32.6588
-35.1257
-34.8437
-34.6355
-34.3546
-34.0748
-33.7809
-33.4834
-33.1841
-32.8839
-32.5845
-32.2848
-31.9991
-34.3404
-34.0645
-33.8619
-33.5894
-33.3178
-33.0334
-32.7462
-32.4578
-32.1692
-31.8824
-31.5981
-31.3339
-33.539
-33.2726
-33.0756
-32.8119
-32.5492
-32.2755
-31.9989
-31.7213
-31.4437
-31.167
-30.8884
-30.6149
-32.7282
-32.4687
-32.2777
-32.0231
-31.7702
-31.5069
-31.2415
-30.975
-30.7088
-30.4439
-30.1813
-29.9398
-31.9035
-31.6527
-31.4679
-31.223
-30.9796
-30.7273
-30.4731
-30.2181
-29.9638
-29.7102
-29.4549
-29.2137
-31.0725
-30.8278
-30.6481
-30.4125
-30.1789
-29.9371
-29.6941
-29.4509
-29.2091
-28.9705
-28.7352
-28.5342
-30.2287
-29.9912
-29.8167
-29.5909
-29.3673
-29.1365
-28.9041
-28.6719
-28.4417
-28.2154
-27.9916
-27.7775
-29.3712
-29.1432
-28.9761
-28.7598
-28.5459
-28.3253
-28.1038
-27.8822
-27.6619
-27.443
-27.2221
-27.0015
-28.5106
-28.2867
-28.1245
-27.918
-27.714
-27.5045
-27.2947
-27.0854
-26.878
-26.674
-26.4753
-26.3041
-27.633
-27.4186
-27.2638
-27.0675
-26.8738
-26.6759
-26.4788
-26.2833
-26.0906
-25.9013
-25.7121
-25.5278
-26.7498
-26.5429
-26.3937
-26.2077
-26.0252
-25.8403
-25.6569
-25.4765
-25.2994
-25.1269
-24.9592
-24.813
-25.8573
-25.6599
-25.517
-25.3409
-25.1696
-24.9974
-24.8284
-24.6639
-24.5039
-24.3483
-24.1951
-24.059
-24.9622
-24.7691
-24.6318
-24.4664
-24.3073
-24.149
-23.995
-23.8459
-23.7027
-23.5651
-23.4325
-23.3341
-24.0566
-23.8705
-23.7402
-23.5854
-23.4384
-23.2942
-23.1558
-23.0225
-22.8945
-22.772
-22.6513
-22.5328
-23.1408
-22.9642
-22.8415
-22.6987
-22.5645
-22.4351
-22.312
-22.1947
-22.0822
-21.9738
-21.8658
-21.7593
-22.2242
-22.0548
-21.9383
-21.8072
-21.6869
-21.5728
-21.4665
-21.3673
-21.2741
-21.1879
-21.1122
-21.074
-21.3049
-21.1409
-21.0316
-20.9124
-20.8062
-20.7085
-20.6199
-20.5396
-20.4664
-20.3989
-20.3337
-20.2772
-20.3778
-20.2224
-20.121
-20.015
-19.9236
-19.8433
-19.7738
-19.7136
-19.6613
-19.6157
-19.5754
-19.5651
-19.4508
-19.3027
-19.2087
-19.1154
-19.0403
-18.9789
-18.9299
-18.8921
-18.8631
-18.8404
-18.8187
-18.8041
-18.5242
-18.3816
-18.296
-18.2172
-18.1593
-18.1187
-18.0929
-18.0797
-18.0766
-18.0811
-18.09
-18.1129
-17.5941
-17.4594
-17.3828
-17.3198
-17.2816
-17.264
-17.2641
-17.2787
-17.3044
-17.3385
-17.3788
-17.4335
-16.6673
-16.5386
-16.4718
-16.4267
-16.4107
-16.4194
-16.4484
-16.4926
-16.5481
-16.6115
-16.6808
-16.7689
-15.7393
-15.6189
-15.5639
-15.5398
-15.5506
-15.5895
-15.6507
-15.7276
-15.814
-15.9045
-15.9929
-16.0844
-14.8154
-14.7013
-14.6616
-14.6638
-14.7073
-14.7827
-14.881
-14.9944
-15.1154
-15.2387
-15.3608
-15.4978
-13.8908
-13.786
-13.7679
-13.8066
-13.893
-14.0127
-14.1537
-14.3064
-14.4636
-14.6195
-14.7683
-14.9163
-12.9619
-12.8712
-12.8902
-12.9833
-13.1264
-13.299
-13.4876
-13.682
-13.8752
-14.0625
-14.238
-14.4081
-12.0216
-11.9637
-12.0521
-12.2286
-12.4455
-12.678
-12.9135
-13.1443
-13.3703
-13.5855
-13.7787
-13.9378
-11.0475
-11.1344
-11.3732
-11.6783
-11.9767
-12.2566
-12.5277
-12.7855
-13.03
-13.2741
-13.4758
-13.66
-1.49513
9.70396
-10.314
-19.2201
-19.86
-7.18227
-4.74159
32.7353
-44.7773
-39.9058
-34.9771
-14.8359
16.5842
-41.1514
1.38608
-6.74958
-41.177
-30.5611
-30.0007
-6.4815
27.9792
26.3222
17.7843
-16.1117
-0.838882
-10.8577
24.3627
0.643657
-42.4759
-37.8124
-42.453
30.882
9.57672
-34.5876
16.7893
18.0446
33.6471
-30.8183
33.2263
-14.7412
2.32459
-1.98417
24.6631
-0.419789
33.4281
26.1217
19.0485
19.9795
33.3594
27.9677
18.7603
32.5527
30.9333
1.495
-36.8798
9.41341
12.892
-2.36189
-31.5736
0.920812
24.1672
30.2972
1.54049
-3.94589
17.527
9.70677
-13.7087
30.4879
16.2933
-39.361
-36.9767
13.9375
33.1255
-13.2705
-15.4851
2.62118
-44.3151
-1.677
10.0166
28.7989
2.68863
-1.93105
33.8986
32.5529
1.97856
-44.3491
-13.7327
0.923255
-39.5345
33.5374
27.9639
-41.3111
-0.222678
7.82478
34.3141
-4.18355
0.516301
-1.90711
-0.637945
-13.354
-15.8898
14.5808
5.57173
8.90767
-1.70705
33.9586
1.83869
33.2344
-13.6705
0.361054
17.9428
-2.06672
30.5153
-7.72224
1.69084
15.6689
-19.8855
-6.20346
-45.6551
-33.2965
-10.6237
-21.4976
-41.9578
15.4097
-18.1199
-40.2395
-1.92205
11.5578
19.3468
1.03453
31.5899
1.4042
21.4165
8.84322
23.5168
10.7738
34.0219
-39.3491
31.539
10.3825
-19.1255
28.7021
27.12
0.543209
30.891
-37.0535
31.6671
-10.6695
-47.8939
3.36679
0.326841
16.6487
-1.66776
4.78497
22.1776
3.23062
31.8238
-1.3513
-41.6545
-14.566
-22.0647
-6.31934
-30.1665
-15.0529
24.1392
26.3614
31.5603
34.3056
10.9074
1.49603
-38.0374
-18.0764
-36.84
-19.2276
-1.10512
-41.237
1.96081
32.3858
25.2105
-36.9821
31.034
-32.2098
-7.56538
33.3954
6.30558
31.4777
3.49812
-1.70238
31.7719
1.6255
-40.3386
-1.74339
31.8897
-5.8965
32.0395
8.06706
26.9285
30.3892
2.38688
-61.2875
-47.5324
32.4095
34.3438
31.1614
32.8622
14.1222
-7.97436
-36.2245
-13.8387
-15.9323
4.32107
-46.9611
33.4024
34.2211
1.94408
31.1812
-11.1848
-13.1376
-63.39
30.5399
32.4315
-47.7948
33.5631
-3.23479
-3.26137
-39.8338
-44.7583
-2.06721
-56.313
20.0059
33.7202
-17.1096
-2.29878
-13.0204
-13.3816
27.4013
31.2299
-47.3264
-1.80821
32.8877
-33.3068
19.4546
-40.6357
-45.8345
33.0294
2.4656
19.8841
6.01699
-42.3768
31.3383
-40.0758
-13.406
-40.3403
-71.3985
28.2533
-31.6813
0.0937831
32.6609
-42.1587
33.3943
-15.2367
27.0909
17.3189
-8.60921
-14.3467
27.5804
-46.567
32.7066
-3.68474
6.38849
0.176821
18.609
-45.2318
33.0868
32.8791
-44.3569
21.8567
34.4393
34.2475
32.6576
32.6156
23.3628
33.6942
33.1924
-25.4717
27.442
-33.0642
33.2216
-50.0697
29.4958
32.6398
-42.2613
34.9466
34.9398
30.4517
31.9843
28.0368
30.6937
23.9668
34.2363
29.0775
-0.741515
-10.8217
-37.4825
22.344
-46.4685
34.4921
1.55424
14.3897
16.6636
-27.8773
34.6984
3.44953
-50.892
32.4989
24.3568
34.8945
-31.434
2.01706
27.7803
22.0295
-41.7804
-15.3367
69.6905
34.2301
-30.7956
-26.208
-2.31274
2.5809
34.7311
-4.08625
0.654851
-41.7891
-2.26782
2.64308
4.25167
-1.70554
14.9913
2.16109
6.5251
-0.311171
33.0039
0.125409
29.3766
12.9006
31.6145
33.6057
-42.0776
-60.606
-12.6773
-0.177789
-4.0585
13.8569
26.0074
34.7887
-1.17973
-25.3348
33.5332
-46.1258
-39.9837
30.0942
33.6967
-48.9817
-61.2435
21.2608
-21.6362
-3.18018
0.328433
-1.55282
0.721433
-29.7488
30.2411
33.9846
-33.3062
-41.6655
28.7265
33.1724
-48.2466
3.5735
-35.7945
-11.0624
-11.0715
-1.3955
33.1376
-66.9308
28.0109
-0.87129
21.7496
28.6193
19.735
3.50886
-37.2418
-35.6795
30.7607
30.287
-3.02212
-55.6445
-2.80205
-33.8392
-26.8349
13.1447
-14.3593
-12.9948
14.101
-43.3232
30.8938
-48.7597
-41.2245
31.3095
33.2965
-2.21494
-0.826744
1.55981
-49.2424
12.7163
28.756
-62.3995
30.3936
30.6187
3.4159
0.214151
30.6359
1.7057
-2.99609
32.5149
0.59932
-21.643
-47.2916
33.9046
0.594167
-14.0657
-11.2361
-31.4322
29.4222
-32.5132
1.97027
-41.3975
-37.3369
28.5976
-6.81982
34.5627
33.2398
12.9755
32.0664
8.5455
-14.4625
-6.81972
31.8858
27.0053
2.1328
-37.4575
29.7112
33.4456
10.7442
-41.8064
28.3486
9.66108
34.7904
34.2233
-32.3705
28.5797
-10.3918
22.8402
-4.50603
-50.0987
-28.1482
2.28463
29.3247
22.8491
33.3324
-25.8468
33.6404
19.0997
0.841595
-37.932
-46.7622
30.8369
1.9984
31.874
-13.165
0.120838
33.4933
33.2778
-23.212
-20.6248
30.2017
34.1591
-6.21935
-19.3774
-42.8916
-22.3172
0.953249
32.3829
-57.6083
-17.2336
30.5395
-23.7983
-1.02816
33.123
33.9216
-40.5094
31.0646
33.6184
2.45851
26.2776
34.3827
22.9324
-48.2804
31.0945
-37.6032
31.6778
-49.4317
-13.7816
-36.7925
2.00944
-15.7388
31.4341
-37.6495
-13.9856
21.4086
15.8529
-12.5326
1.32045
31.5517
-0.690137
3.78375
-14.8115
33.6745
30.252
-38.9182
34.9436
-15.2677
-17.4685
-37.206
-2.15752
25.9644
-47.3818
-36.2907
30.384
-42.5213
-7.70189
-17.7793
-21.4737
-48.1409
-43.2807
-1.82779
-26.3469
1.96309
19.6073
9.07432
13.8119
-17.3973
28.4696
33.6587
-30.3396
26.2181
29.0294
-13.8902
0.0118217
-0.102375
16.6164
-13.4423
30.6411
-39.0672
-31.4547
-25.9593
31.784
0.524128
17.0012
27.6769
10.8575
-49.652
24.3551
29.9959
30.3163
12.4461
0.471965
-9.35819
-2.67066
-36.0454
-36.0544
33.0521
-43.7282
4.2671
-45.778
25.0348
32.9866
27.5491
-43.9023
0.141648
-32.4377
1.31927
28.5039
-13.4111
32.278
-36.6559
-0.0977048
-46.0428
-40.8478
33.4499
1.84635
-0.66063
-26.6686
-17.3488
11.7038
11.9478
8.30146
-12.8146
-6.27042
7.61882
29.7333
-29.2196
-33.8531
-1.85955
0.824611
-44.3958
34.1544
32.6906
33.5878
10.7123
29.3517
-6.83721
-30.7051
25.6737
-1.78566
11.3535
30.2098
1.56877
14.4035
33.8677
-50.3122
-50.6941
3.39784
-13.0752
29.169
-49.6957
19.3503
25.1426
32.1912
-2.11657
31.9791
29.4011
23.5243
-22.1566
-9.40135
-0.320341
-48.1922
-50.9287
32.1924
-60.6895
4.45292
2.76599
-45.8528
-31.0255
10.4392
1.96873
-41.8903
-1.11703
-36.3099
31.6999
-31.2062
2.03007
-45.8847
-0.0525681
32.8804
-37.7274
33.5754
17.0756
25.4792
-48.409
-1.14011
19.0481
-48.0878
31.7491
-36.835
-3.9797
-40.2908
-17.9698
1.28652
2.36356
24.1719
-15.04
32.2555
4.06791
-25.3981
34.2276
34.2929
-38.6533
23.5233
-38.4045
33.8063
27.3923
33.0734
-2.17629
13.5233
-1.13514
1.51441
30.1535
2.14128
34.8788
-10.692
-35.4161
1.46644
28.6664
34.1024
-37.0655
-5.31659
-26.7351
18.893
-52.6869
-17.3415
-28.5847
-40.5997
-1.86418
0.848772
33.1977
20.6266
34.3267
29.6333
3.83117
34.8268
34.9063
32.8863
-36.9991
-16.6728
32.8815
-0.5292
4.40858
-56.4648
33.4874
1.26554
15.1287
-38.365
6.45756
-2.36864
-41.4823
2.06125
-26.5634
-57.7928
6.34868
32.1442
-1.61643
23.0131
32.7751
1.42105
-8.68861
-1.28075
7.34506
-9.46894
-52.3162
-32.0955
27.5872
29.3662
1.92572
-13.8882
-0.630707
-0.636096
-21.2377
14.8799
30.6101
16.4927
-43.6032
-2.86602
-109.756
-0.507224
-10.3032
32.9659
30.1004
-1.65927
31.6885
-17.5334
29.2714
-10.5002
-42.708
-43.8712
31.375
-24.7186
-15.0183
17.3108
8.05369
27.3501
-57.8997
-13.3597
29.0289
0.142952
32.555
-8.10729
-39.5228
-44.9378
-16.2087
-13.9818
-43.141
-23.8426
6.08364
34.3665
29.183
-12.4048
7.36009
-3.32751
33.8261
-37.3305
-5.30028
-42.1948
-28.392
25.9211
24.2365
-48.2926
-11.1401
27.6747
-12.2143
-38.8881
-38.6901
0.213409
-43.2024
-15.7581
34.1218
32.4747
30.5604
0.114151
-10.73
-2.82238
1.75255
2.38594
31.0424
23.194
20.4822
-37.8001
0.676788
-43.7467
15.5286
23.5812
1.96257
-38.5039
-4.19415
26.422
-42.6878
23.7635
30.6056
28.5159
-2.12046
26.3191
-38.0915
10.2359
14.1233
31.962
-39.8799
27.9957
16.0382
-15.3495
-13.9914
26.9707
-26.8484
-28.8972
30.8693
0.421277
-50.571
15.3089
12.6028
-9.05797
-58.2752
26.865
-0.420915
1.20981
-45.3257
29.9321
-48.5872
1.39896
-36.3591
-38.1673
33.7544
6.52105
33.5673
-29.9413
6.56063
29.3238
-2.04401
-50.3054
34.079
34.0161
34.6303
3.19624
1.99986
15.3864
-41.2715
-40.5634
-32.0463
0.344128
-14.381
3.89276
12.7693
-39.6302
25.0316
27.7038
28.0025
16.8965
33.3337
32.6154
-37.4546
0.0107679
34.2855
-32.314
31.6888
1.1551
-41.6389
-4.33186
1.98436
4.48255
29.8253
-20.7925
-10.8145
26.368
-54.6367
-4.69566
3.80318
16.2995
23.1079
-11.7493
27.8858
2.61664
-3.12355
-13.7256
13.916
-12.9928
-40.9019
33.2332
-16.5724
22.2282
-35.6638
28.2981
30.4337
32.3638
-40.4924
31.8662
1.67783
32.7771
-10.5638
-2.26477
-41.3803
30.0089
21.1146
25.7197
-8.20881
-43.9585
-35.8024
-0.414183
34.1183
2.74214
33.1772
-31.5423
33.1812
-2.03507
-45.3563
34.2447
-35.5623
33.094
32.985
-15.0825
-29.5202
23.6985
0.641886
15.0954
34.9102
-1.3744
-48.2545
32.2595
-2.32574
-15.4569
10.6808
33.2487
33.6664
-31.4893
31.4298
32.6346
-10.309
31.551
27.0162
30.58
31.2886
1.57379
-1.6153
-40.1704
-6.00669
-38.7928
32.9872
-0.809029
-36.8832
33.2055
-2.2737
30.0606
25.2174
31.1198
31.0582
18.4348
-41.1583
-38.1017
30.7962
-33.0866
-21.2586
26.1027
33.8554
-45.4968
-30.6703
-38.5968
-21.5189
-15.9
28.5287
-9.88538
-18.2747
-31.1249
-0.437894
-40.5143
33.0244
12.6637
1.71366
-3.209
-3.2098
31.4986
-2.11105
32.6568
-0.160301
31.7845
-7.40088
3.35106
-46.3516
33.7152
1.88946
31.4737
33.7501
-25.0854
27.0569
-17.8445
32.2667
-1.61762
30.3476
21.4517
2.93387
10.385
34.4754
30.9512
-0.143117
2.31792
33.7176
2.33417
28.6887
-31.3308
-31.5368
31.3286
-19.2572
18.7764
-100.732
-44.8793
33.5108
-53.6331
-41.4564
2.31607
31.1167
-43.049
-44.4169
2.4731
26.4027
-1.20041
-7.24345
30.618
-10.4874
-17.3213
6.3273
-13.8854
-61.9209
13.944
-1.15398
25.0097
0.472934
10.4766
24.7172
-64.5236
24.6538
5.48335
-3.15143
-47.6511
26.8644
4.72576
7.88516
27.8488
24.5145
33.6598
34.7163
-15.031
-1.3946
-13.6647
2.63611
39.305
26.7153
-87.6389
29.5196
-29.8466
1.10941
-50.7023
-0.326388
2.7506
11.6186
30.7546
31.6824
-48.1077
2.64553
-16.9737
-1.90868
27.2202
-48.1991
0.953174
32.9799
1.39686
1.11267
5.79096
16.3917
-13.2275
-40.5787
-22.1506
2.98057
-2.63032
31.3706
32.4098
32.1281
-44.8211
27.5943
31.3052
2.88482
11.4023
-35.2397
32.4521
-14.2276
14.0947
1.29378
34.1179
-2.0488
31.944
32.1696
-7.65346
-12.139
33.2088
-16.4603
21.799
1.67348
-35.9411
-40.7195
33.1469
-2.86172
-17.865
-35.3431
-20.4465
23.3053
-38.6925
1.96349
1.54322
0.320478
-19.6297
33.9662
-46.9789
0.249668
34.8513
-43.529
29.7349
25.6941
-19.0628
14.0925
1.71933
20.5037
30.4569
31.2436
-1.03543
-40.4655
-2.35014
-16.8351
-17.0979
-44.2195
21.5938
-39.8464
-41.4957
8.89957
14.4987
2.26889
-1.66181
6.32687
-12.664
-7.34279
0.967701
-43.9905
33.3875
-0.6447
31.4864
-34.8044
3.5369
1.90271
-62.2413
31.4346
-35.7244
-20.738
23.5422
30.287
-27.0056
20.1758
-40.0728
33.0379
32.6195
34.7855
25.8217
33.7661
31.7855
-18.4673
33.6935
3.72055
33.3195
15.388
28.4345
-22.906
29.361
-32.9319
11.3445
34.4899
22.958
34.2865
33.3672
34.5901
-28.1276
-3.8306
8.5744
2.10258
-20.345
-39.2831
1.9386
-44.9723
2.60147
15.4082
32.8674
30.9575
-43.457
-22.6843
22.8071
-46.2933
-7.21847
34.5311
-2.80901
32.3552
-49.2274
0.779659
-15.9826
-4.18824
21.3844
32.1762
30.8349
25.3479
31.549
-1.8051
21.1578
30.5553
-46.67
5.90863
14.3835
29.3222
31.4789
-19.0254
32.042
-16.8765
-7.37565
-12.5941
1.22222
-8.93932
32.4757
-41.5145
33.2846
29.7191
-26.7459
-29.9759
25.8053
1.45728
32.8923
1.24796
1.6471
-0.749446
15.9985
32.1134
28.638
-38.407
33.0494
32.6315
6.31737
3.50114
26.5214
26.6275
19.8687
33.0796
-22.4202
33.5561
-0.838836
33.7083
7.62755
7.33987
1.93687
-37.4898
-19.0887
28.7831
-26.2898
-42.0399
-45.9714
2.0248
-40.0961
34.5325
33.8263
-0.329894
-9.60059
28.0526
32.7247
-35.0778
31.8932
-1.74662
-37.175
3.09384
32.31
-16.3059
31.128
13.6599
-12.3349
-0.658627
43.6505
-0.890025
-45.0434
18.1795
3.3154
16.3073
30.7013
-1.39176
-0.598045
-1.90205
16.0337
32.9111
-25.8952
-3.49532
31.6052
25.0806
34.0908
1.85451
34.4678
25.8854
27.7816
-21.9018
33.6662
-15.989
34.8185
-11.0405
30.7932
32.2615
33.9107
-0.738974
26.0002
32.5761
31.8985
7.62467
0.817702
31.3738
23.9373
1.73912
-4.78754
-50.6942
0.929939
-37.1547
-45.3267
32.9507
33.561
-27.2382
24.6951
-31.6783
-52.0371
-25.8395
-13.3784
-35.9654
34.7719
28.4233
-1.48275
33.8244
-5.60777
-0.812678
2.9287
-0.200285
1.90356
4.1795
-25.7016
-100.11
-31.3312
8.13748
-37.8279
29.1149
-3.70809
30.9777
28.3788
-21.3687
27.1175
-43.3685
34.6751
24.7206
20.2421
-1.99899
2.23688
16.493
21.3735
33.6396
32.8163
-44.0309
27.9024
30.9221
-8.99719
32.8411
33.3629
-1.13366
32.7955
-42.3171
4.05849
-18.5879
14.7951
-18.328
33.0056
-32.113
-15.9819
7.04548
-32.9845
5.31205
-10.4728
1.20105
-18.6958
-40.3441
-25.5838
-0.638173
-1.44519
25.6115
32.471
-38.1856
31.2321
-24.4744
33.296
32.1741
2.0312
33.6144
-1.26409
-33.151
27.9807
-31.7391
24.2065
-49.5215
-16.071
33.5789
33.8446
-50.5482
32.4678
-14.3103
34.6138
-38.7357
22.8259
-31.6226
33.9157
12.0506
5.35847
-41.0636
-32.2169
1.7176
-0.118716
-6.95271
-5.50012
34.3953
-0.924456
33.0293
30.283
31.8573
-43.1574
2.92616
-33.8291
30.4053
34.1737
32.1904
32.8992
-42.3333
-5.04516
1.62916
3.44265
-28.8173
2.91369
33.5134
31.3378
5.21082
-17.6283
-35.9789
34.0464
33.0207
1.88389
31.1942
-27.0725
8.71448
11.5499
34.2429
33.5099
-9.86119
26.5363
-1.4538
2.74049
34.6318
7.32196
-19.6541
2.46499
32.5934
-9.86781
23.7463
-50.1028
16.1859
-28.034
-40.4712
6.38277
3.44081
-9.86867
0.823812
30.7795
33.413
32.4189
-1.11867
22.8523
-27.9248
8.34349
-13.1779
-16.8289
-0.310875
2.13108
14.6167
-11.776
0.715025
28.8686
4.0405
-46.0176
-5.95508
-7.48991
-22.5334
23.2069
13.898
21.3705
-48.2499
12.3479
-1.91421
32.4494
30.931
-40.2954
0.0204988
34.7822
31.3317
-4.35785
32.1759
-28.1925
-26.5414
5.69276
26.4849
-9.29952
30.8935
-47.9985
-40.0556
11.0627
-30.2951
-1.51338
33.535
-1.83149
-23.3454
14.6139
31.2066
-27.8145
-38.2427
16.6629
-13.8828
-0.787662
-32.9428
-10.6236
3.23575
-3.6883
34.1066
33.6399
25.1455
13.9617
29.3888
-6.38648
1.56079
2.41946
-40.4456
-15.2543
-36.1644
26.4041
33.6467
32.8083
-21.2246
17.2115
2.80192
-1.23823
29.4038
-26.7746
-38.8429
-14.5494
4.11367
-16.1003
20.4284
34.3442
33.1835
-25.6416
34.41
-40.597
-0.701477
4.20151
-17.5502
33.7953
-41.0083
32.7756
34.6717
8.05377
-48.8052
-2.70752
31.6535
19.7793
19.9846
-1.61533
21.4838
17.686
-37.6643
-32.9177
-1.00361
32.3649
-3.21809
33.5382
-42.9178
-1.67868
21.1536
-0.381752
29.3428
-26.3564
26.8737
-1.64474
29.4988
33.7568
31.6097
-38.4117
19.8948
-36.8567
3.59202
-14.484
34.317
-49.8381
-12.4415
-8.47624
-4.3107
33.6253
6.56024
-13.5794
1.3447
-24.3433
1.91748
7.58946
-0.0336002
-3.15898
-16.6127
-13.2753
1.20026
-43.6456
-17.3066
-26.1185
-38.0209
-8.6752
-2.53728
34.3496
-6.49931
0.914049
-29.5548
-10.8543
-43.8935
21.8625
-12.2834
10.5312
-0.944677
-7.57242
-22.674
20.3772
-36.0736
-12.5947
-11.2158
-26.8867
33.6554
-40.9888
3.48502
-0.303201
-43.0589
-11.7976
12.1328
18.4344
1.4873
-40.4387
5.66946
-30.684
-40.445
32.9855
-2.41362
34.4371
1.25139
-14.1165
31.2814
1.82422
34.4863
-29.9524
1.69221
32.7986
1.5849
13.6158
15.0525
3.99462
-23.8351
29.1067
-43.8092
-27.6042
-48.2284
11.7826
32.9696
29.7995
-42.2969
-17.0348
2.05471
-58.2198
23.7573
-43.598
12.9606
-18.5163
0.260125
-2.65277
31.2643
-14.6599
31.132
-28.5475
31.3057
-2.60022
1.96443
4.33166
22.5596
12.0004
-23.1067
-1.87927
-30.3983
32.0833
18.296
-16.1217
-38.4021
0.239023
27.8835
0.860167
1.87854
30.9218
-41.2262
-25.5044
16.3764
-2.14063
-34.9919