/*--------------------------------*- C++ -*----------------------------------*\
| =========                 |                                                 |
| \\      /  F ield         | OpenFOAM: The Open Source CFD Toolbox           |
|  \\    /   O peration     | Version:  2.3.1                                 |
|   \\  /    A nd           | Web:      www.OpenFOAM.org                      |
|    \\/     M anipulation  |                                                 |
\*---------------------------------------------------------------------------*/
FoamFile
{
    version     2.0;
    format      ascii;
    class       surfaceScalarField;
    location    "0.31";
    object      phi;
}
// * * * * * * * * * * * * * * * * * * * * * * * * * * * * * * * * * * * * * //

dimensions      [0 3 -1 0 0 0 0];

internalField   nonuniform List<scalar> 
23326
(
-1.24211e-05
0.000111547
-9.91257e-05
-2.13295e-05
0.000126989
-0.000118081
-2.69603e-05
0.000141371
-0.00013574
-3.06001e-05
0.000156925
-0.000153284
-3.37158e-05
0.00016954
-0.000166424
-3.59169e-05
0.000181835
-0.000179634
-3.74257e-05
0.000192426
-0.000190916
-3.81954e-05
0.00020108
-0.00020031
-3.85871e-05
0.000207629
-0.000207237
-3.8646e-05
0.000212683
-0.000212624
-3.85568e-05
0.000216459
-0.000216549
0.000219197
-3.83934e-05
-0.000219361
-6.91651e-06
0.000118463
-1.36733e-05
0.000133746
-1.97082e-05
0.000147406
-2.41889e-05
0.000161405
-2.78642e-05
0.000173216
-3.05777e-05
0.000184549
-3.24766e-05
0.000194325
-3.37311e-05
0.000202335
-3.45199e-05
0.000208418
-3.49753e-05
0.000213138
-3.51966e-05
0.000216681
0.000219292
-3.52909e-05
-5.58388e-06
0.000124047
-1.08821e-05
0.000139045
-1.58881e-05
0.000152412
-1.99925e-05
0.00016551
-2.35302e-05
0.000176753
-2.62957e-05
0.000187314
-2.83494e-05
0.000196378
-2.98097e-05
0.000203795
-3.08748e-05
0.000209483
-3.16055e-05
0.000213869
-3.2076e-05
0.000217151
0.000219659
-3.24434e-05
-4.70234e-06
0.00012875
-9.27234e-06
0.000143615
-1.35542e-05
0.000156694
-1.71689e-05
0.000169124
-2.03635e-05
0.000179948
-2.29604e-05
0.000189911
-2.50218e-05
0.00019844
-2.65632e-05
0.000205337
-2.77323e-05
0.000210652
-2.8633e-05
0.00021477
-2.93043e-05
0.000217823
0.000220224
-2.98691e-05
-3.84958e-06
0.0001326
-7.8857e-06
0.000147651
-1.16865e-05
0.000160495
-1.49579e-05
0.000172396
-1.78487e-05
0.000182838
-2.02945e-05
0.000192357
-2.22504e-05
0.000200395
-2.37927e-05
0.000206879
-2.50467e-05
0.000211906
-2.59882e-05
0.000215712
-2.68002e-05
0.000218635
0.000220871
-2.74474e-05
-3.20513e-06
0.000135805
-6.76619e-06
0.000151212
-1.01549e-05
0.000163884
-1.31299e-05
0.000175371
-1.58166e-05
0.000185525
-1.80494e-05
0.00019459
-1.99117e-05
0.000202257
-2.14491e-05
0.000208416
-2.26663e-05
0.000213123
-2.3685e-05
0.00021673
-2.45359e-05
0.000219486
0.000221603
-2.5268e-05
-2.75805e-06
0.000138563
-5.91867e-06
0.000154373
-8.94962e-06
0.000166915
-1.16705e-05
0.000178092
-1.40886e-05
0.000187943
-1.61876e-05
0.000196689
-1.79466e-05
0.000204016
-1.93939e-05
0.000209863
-2.06248e-05
0.000214354
-2.16667e-05
0.000217772
-2.25756e-05
0.000220395
0.000222416
-2.3388e-05
-2.42427e-06
0.000140988
-5.26183e-06
0.000157211
-7.98665e-06
0.00016964
-1.04287e-05
0.000180534
-1.2662e-05
0.000190177
-1.46057e-05
0.000198632
-1.62639e-05
0.000205675
-1.76411e-05
0.00021124
-1.88513e-05
0.000215564
-1.98979e-05
0.000218819
-2.0802e-05
0.000221299
0.000223214
-2.16005e-05
-2.15887e-06
0.000143147
-4.73169e-06
0.000159783
-7.20134e-06
0.000172109
-9.45398e-06
0.000182787
-1.14862e-05
0.000192209
-1.32601e-05
0.000200407
-1.48128e-05
0.000207227
-1.61609e-05
0.000212588
-1.73062e-05
0.000216709
-1.83188e-05
0.000219831
-1.92223e-05
0.000222202
0.000224084
-2.00916e-05
-1.93503e-06
0.000145081
-4.27575e-06
0.000162124
-6.53365e-06
0.000174367
-8.59439e-06
0.000184848
-1.04858e-05
0.000194101
-1.21349e-05
0.000202056
-1.35672e-05
0.00020866
-1.48165e-05
0.000213838
-1.59459e-05
0.000217839
-1.69379e-05
0.000220823
-1.78375e-05
0.000223102
0.000224899
-1.86525e-05
-1.74912e-06
0.00014683
-3.89924e-06
0.000164274
-5.96796e-06
0.000176436
-7.86866e-06
0.000186748
-9.59957e-06
0.000195832
-1.11296e-05
0.000203586
-1.24767e-05
0.000210007
-1.36617e-05
0.000215023
-1.47247e-05
0.000218902
-1.56853e-05
0.000221784
-1.65992e-05
0.000224016
0.000225687
-1.73878e-05
-1.58516e-06
0.000148415
-3.55954e-06
0.000166248
-5.46469e-06
0.000178341
-7.24902e-06
0.000188533
-8.82843e-06
0.000197411
-1.02583e-05
0.000205016
-1.15199e-05
0.000211268
-1.26427e-05
0.000216145
-1.36558e-05
0.000219915
-1.45844e-05
0.000222713
-1.54058e-05
0.000224837
0.000226482
-1.62e-05
-1.44711e-06
0.000149862
-3.26633e-06
0.000168067
-5.03825e-06
0.000180113
-6.6776e-06
0.000190172
-8.17333e-06
0.000198907
-9.50689e-06
0.00020635
-1.06685e-05
0.00021243
-1.17356e-05
0.000217213
-1.26789e-05
0.000220858
-1.35603e-05
0.000223594
-1.43669e-05
0.000225644
0.00022716
-1.50456e-05
-1.32802e-06
0.00015119
-3.03282e-06
0.000169772
-4.66551e-06
0.000181746
-6.17663e-06
0.000191683
-7.57014e-06
0.000200301
-8.79545e-06
0.000207575
-9.91809e-06
0.000213553
-1.09035e-05
0.000218198
-1.18317e-05
0.000221786
-1.2703e-05
0.000224465
-1.35086e-05
0.000226449
0.00022799
-1.43385e-05
-1.21763e-06
0.000152408
-2.78801e-06
0.000171342
-4.33461e-06
0.000183292
-5.74837e-06
0.000193097
-7.03013e-06
0.000201582
-8.20533e-06
0.00020875
-9.23759e-06
0.000214585
-1.02031e-05
0.000219164
-1.1038e-05
0.000222621
-1.18373e-05
0.000225265
-1.26031e-05
0.000227215
0.000228659
-1.32716e-05
-1.12153e-06
0.000153529
-2.59011e-06
0.000172811
-4.02161e-06
0.000184724
-5.34054e-06
0.000194416
-6.54583e-06
0.000202788
-7.62727e-06
0.000209832
-8.60493e-06
0.000215563
-9.48933e-06
0.000220048
-1.03407e-05
0.000223472
-1.11359e-05
0.00022606
-1.18588e-05
0.000227938
0.000229323
-1.25233e-05
-1.03581e-06
0.000154565
-2.39271e-06
0.000174168
-3.73046e-06
0.000186061
-4.97607e-06
0.000195662
-6.10572e-06
0.000203917
-7.12476e-06
0.000210851
-8.0465e-06
0.000216484
-8.92027e-06
0.000220922
-9.70214e-06
0.000224254
-1.04174e-05
0.000226775
-1.11152e-05
0.000228636
0.000229984
-1.17756e-05
-9.46424e-07
0.000155512
-2.2274e-06
0.000175449
-3.49289e-06
0.000187327
-4.66356e-06
0.000196832
-5.72825e-06
0.000204982
-6.69398e-06
0.000211816
-7.56424e-06
0.000217355
-8.31456e-06
0.000221672
-9.0677e-06
0.000225008
-9.77645e-06
0.000227484
-1.04506e-05
0.00022931
0.000230628
-1.10947e-05
-8.78947e-07
0.000156391
-2.08203e-06
0.000176652
-3.24996e-06
0.000188495
-4.35392e-06
0.000197936
-5.33348e-06
0.000205961
-6.24245e-06
0.000212725
-7.0472e-06
0.000218159
-7.83735e-06
0.000222462
-8.52596e-06
0.000225696
-9.20322e-06
0.000228161
-9.82371e-06
0.000229931
0.000231247
-1.04424e-05
-8.17392e-07
0.000157208
-1.92718e-06
0.000177762
-3.05117e-06
0.000189619
-4.07078e-06
0.000198956
-5.02286e-06
0.000206913
-5.8581e-06
0.00021356
-6.64352e-06
0.000218945
-7.34359e-06
0.000223162
-8.02561e-06
0.000226378
-8.61697e-06
0.000228753
-9.22907e-06
0.000230543
0.000231796
-9.77875e-06
-7.61248e-07
0.00015797
-1.80431e-06
0.000178805
-2.84456e-06
0.000190659
-3.8108e-06
0.000199922
-4.6809e-06
0.000207783
-5.49619e-06
0.000214375
-6.21594e-06
0.000219664
-6.8843e-06
0.000223831
-7.50864e-06
0.000227003
-8.1272e-06
0.000229371
-8.68729e-06
0.000231103
0.000232355
-9.24561e-06
-6.85039e-07
0.000158655
-1.66831e-06
0.000179789
-2.65486e-06
0.000191646
-3.58749e-06
0.000200855
-4.41405e-06
0.00020861
-5.13965e-06
0.000215101
-5.8231e-06
0.000220348
-6.45713e-06
0.000224465
-7.08224e-06
0.000227628
-7.65364e-06
0.000229943
-8.20818e-06
0.000231657
0.000232878
-8.73198e-06
-6.43458e-07
0.000159299
-1.56697e-06
0.000180712
-2.49791e-06
0.000192577
-3.33676e-06
0.000201694
-4.12179e-06
0.000209395
-4.82834e-06
0.000215807
-5.48094e-06
0.000221
-6.0826e-06
0.000225066
-6.65401e-06
0.000228199
-7.20252e-06
0.000230491
-7.72317e-06
0.000232178
0.000233384
-8.22866e-06
-5.82832e-07
0.000159881
-1.45053e-06
0.00018158
-2.33098e-06
0.000193457
-3.12445e-06
0.000202487
-3.86571e-06
0.000210136
-4.53902e-06
0.000216481
-5.15675e-06
0.000221618
-5.73298e-06
0.000225642
-6.25441e-06
0.00022872
-6.7476e-06
0.000230984
-7.25917e-06
0.000232689
0.000233883
-7.75796e-06
-5.3818e-07
0.00016042
-1.33766e-06
0.00018238
-2.17237e-06
0.000194292
-2.94842e-06
0.000203263
-3.62679e-06
0.000210815
-4.26606e-06
0.00021712
-4.82693e-06
0.000222179
-5.35178e-06
0.000226167
-5.87091e-06
0.00022924
-6.37564e-06
0.000231489
-6.83202e-06
0.000233146
0.000234361
-7.31036e-06
-5.0594e-07
0.000160926
-1.25572e-06
0.000183129
-2.0239e-06
0.00019506
-2.7604e-06
0.000204
-3.40299e-06
0.000211457
-3.98404e-06
0.000217701
-4.51609e-06
0.000222711
-5.03707e-06
0.000226688
-5.5112e-06
0.000229714
-5.96319e-06
0.000231941
-6.43947e-06
0.000233622
0.000234801
-6.87972e-06
-4.49073e-07
0.000161375
-1.1543e-06
0.000183835
-1.88071e-06
0.000195787
-2.55468e-06
0.000204674
-3.18829e-06
0.000212091
-3.73884e-06
0.000218252
-4.24375e-06
0.000223216
-4.71544e-06
0.00022716
-5.16365e-06
0.000230162
-5.6224e-06
0.0002324
-6.011e-06
0.000234011
0.000235212
-6.42164e-06
-3.99254e-07
0.000161774
-1.08466e-06
0.00018452
-1.76999e-06
0.000196472
-2.38675e-06
0.00020529
-2.96041e-06
0.000212664
-3.48414e-06
0.000218775
-3.98721e-06
0.000223719
-4.40819e-06
0.000227581
-4.83493e-06
0.000230589
-5.24734e-06
0.000232812
-5.67641e-06
0.00023444
0.000235568
-6.03192e-06
-3.72899e-07
0.000162147
-9.90443e-07
0.000185138
-1.61906e-06
0.000197101
-2.2468e-06
0.000205918
-2.76968e-06
0.000213187
-3.26158e-06
0.000219267
-3.68907e-06
0.000224146
-4.14466e-06
0.000228036
-4.52189e-06
0.000230966
-4.91962e-06
0.00023321
-5.28001e-06
0.0002348
0.000235987
-5.69984e-06
-3.16233e-07
0.000162464
-8.81647e-07
0.000185703
-1.5185e-06
0.000197738
-2.06759e-06
0.000206467
-2.5848e-06
0.000213705
-3.02683e-06
0.000219709
-3.45769e-06
0.000224577
-3.83297e-06
0.000228412
-4.22273e-06
0.000231356
-4.56899e-06
0.000233556
-4.96506e-06
0.000235196
0.000236321
-5.29907e-06
-2.92397e-07
0.000162756
-8.41146e-07
0.000186252
-1.37611e-06
0.000198273
-1.91948e-06
0.000207011
-2.38161e-06
0.000214167
-2.82497e-06
0.000220153
-3.20851e-06
0.000224961
-3.59268e-06
0.000228796
-3.93149e-06
0.000231694
-4.29069e-06
0.000233915
-4.59092e-06
0.000235497
0.000236673
-4.94204e-06
-2.591e-07
0.000163015
-7.41552e-07
0.000186734
-1.28867e-06
0.00019882
-1.75234e-06
0.000207474
-2.21542e-06
0.00021463
-2.60833e-06
0.000220545
-2.99275e-06
0.000225345
-3.30218e-06
0.000229105
-3.65426e-06
0.000232047
-3.96732e-06
0.000234229
-4.29805e-06
0.000235827
0.000236938
-4.56303e-06
-2.30314e-07
0.000163246
-6.63155e-07
0.000187167
-1.1554e-06
0.000199312
-1.64076e-06
0.00020796
-2.05295e-06
0.000215042
-2.42287e-06
0.000220915
-2.73432e-06
0.000225657
-3.0796e-06
0.000229451
-3.38304e-06
0.00023235
-3.6819e-06
0.000234528
-3.97892e-06
0.000236124
0.000237235
-4.27669e-06
-1.70818e-07
0.000163417
-6.12248e-07
0.000187609
-1.07513e-06
0.000199775
-1.48391e-06
0.000208368
-1.87125e-06
0.000215429
-2.21847e-06
0.000221263
-2.53661e-06
0.000225975
-2.83411e-06
0.000229748
-3.12227e-06
0.000232638
-3.37659e-06
0.000234782
-3.65495e-06
0.000236403
0.000237536
-3.95557e-06
-1.79194e-07
0.000163596
-5.41228e-07
0.000187971
-9.4981e-07
0.000200183
-1.38187e-06
0.0002088
-1.71828e-06
0.000215766
-2.01727e-06
0.000221562
-2.31522e-06
0.000226273
-2.59725e-06
0.00023003
-2.83797e-06
0.000232879
-3.10402e-06
0.000235048
-3.37118e-06
0.00023667
0.00023778
-3.61472e-06
-1.15797e-07
0.000163712
-4.72354e-07
0.000188327
-8.75696e-07
0.000200587
-1.20685e-06
0.000209132
-1.547e-06
0.000216106
-1.85116e-06
0.000221866
-2.12785e-06
0.000226549
-2.36174e-06
0.000230264
-2.58556e-06
0.000233103
-2.83096e-06
0.000235293
-3.04073e-06
0.00023688
0.000238024
-3.28548e-06
-9.85692e-08
0.00016381
-4.01484e-07
0.00018863
-7.56217e-07
0.000200942
-1.11182e-06
0.000209487
-1.4042e-06
0.000216398
-1.66123e-06
0.000222123
-1.89293e-06
0.000226781
-2.10704e-06
0.000230478
-2.34291e-06
0.000233339
-2.57089e-06
0.000235521
-2.76826e-06
0.000237077
0.000238205
-2.94882e-06
-6.86465e-08
0.000163879
-3.39283e-07
0.000188901
-6.6361e-07
0.000201266
-9.70868e-07
0.000209795
-1.24127e-06
0.000216669
-1.50378e-06
0.000222385
-1.7191e-06
0.000226996
-1.91871e-06
0.000230678
-2.10944e-06
0.000233529
-2.29915e-06
0.000235711
-2.48873e-06
0.000237266
0.000238393
-2.67703e-06
-3.05667e-08
0.000163909
-2.74705e-07
0.000189145
-5.74841e-07
0.000201566
-8.58774e-07
0.000210079
-1.10825e-06
0.000216918
-1.2997e-06
0.000222577
-1.52209e-06
0.000227218
-1.70624e-06
0.000230861
-1.88513e-06
0.000233708
-2.03758e-06
0.000235863
-2.23377e-06
0.000237462
0.000238624
-2.46422e-06
-3.70234e-09
0.000163913
-2.16744e-07
0.000189358
-4.90046e-07
0.00020184
-7.4952e-07
0.000210338
-9.78583e-07
0.000217147
-1.17816e-06
0.000222776
-1.32987e-06
0.00022737
-1.46908e-06
0.000231
-1.62877e-06
0.000233867
-1.78343e-06
0.000236017
-1.92016e-06
0.000237599
0.000238732
-2.02878e-06
6.54414e-09
0.000163906
-1.59563e-07
0.000189524
-4.05639e-07
0.000202085
-6.17563e-07
0.00021055
-8.25966e-07
0.000217355
-9.78773e-07
0.000222929
-1.1401e-06
0.000227531
-1.2906e-06
0.000231151
-1.40888e-06
0.000233986
-1.55741e-06
0.000236166
-1.68836e-06
0.00023773
0.000238909
-1.86497e-06
3.86527e-08
0.000163868
-9.68755e-08
0.00018966
-2.94427e-07
0.000202283
-5.12203e-07
0.000210768
-6.74422e-07
0.000217518
-8.3818e-07
0.000223092
-9.5476e-07
0.000227648
-1.06112e-06
0.000231258
-1.19362e-06
0.000234118
-1.29597e-06
0.000236269
-1.42831e-06
0.000237863
0.000239014
-1.53316e-06
6.25581e-08
0.000163805
-6.44799e-08
0.000189787
-2.40246e-07
0.000202459
-4.08748e-07
0.000210936
-5.53215e-07
0.000217662
-6.7111e-07
0.00022321
-7.72126e-07
0.000227749
-8.91835e-07
0.000231378
-9.79639e-07
0.000234207
-1.06949e-06
0.000236359
-1.16494e-06
0.000237959
0.000239118
-1.2687e-06
9.63184e-08
0.000163709
1.61192e-08
0.000189867
-1.30357e-07
0.000202605
-2.79899e-07
0.000211086
-4.06661e-07
0.000217789
-5.07291e-07
0.000223311
-5.92089e-07
0.000227834
-6.68122e-07
0.000231454
-7.42046e-07
0.000234281
-8.1706e-07
0.000236435
-8.92122e-07
0.000238034
0.000239189
-9.6291e-07
1.19983e-07
0.000163589
6.8155e-08
0.000189918
-5.19013e-08
0.000202725
-1.80362e-07
0.000211214
-2.89423e-07
0.000217898
-3.47359e-07
0.000223369
-4.15175e-07
0.000227903
-4.76303e-07
0.000231516
-5.36134e-07
0.000234341
-5.98921e-07
0.000236498
-6.71118e-07
0.000238106
0.000239282
-7.64658e-07
1.25863e-07
0.000163463
1.17879e-07
0.000189926
2.07856e-08
0.000202822
-6.3375e-08
0.000211298
-1.50932e-07
0.000217985
-2.15838e-07
0.000223435
-2.68354e-07
0.000227955
-2.86426e-07
0.000231534
-3.31027e-07
0.000234386
-3.49947e-07
0.000236516
-3.94671e-07
0.000238151
0.000239287
-4.00105e-07
1.73264e-07
0.000163289
1.64873e-07
0.000189934
1.17954e-07
0.000202869
2.85416e-08
0.000211387
-7.78716e-09
0.000218022
-5.86953e-08
0.000223486
-6.85083e-08
0.000227965
-9.97885e-08
0.000231566
-1.03443e-07
0.000234389
-1.39585e-07
0.000236552
-1.58488e-07
0.000238169
0.000239355
-2.26983e-07
1.83088e-07
0.000163106
2.22195e-07
0.000189895
1.67126e-07
0.000202923
1.25726e-07
0.000211429
1.00051e-07
0.000218048
9.39996e-08
0.000223492
7.28617e-08
0.000227987
8.40181e-08
0.000231554
9.46042e-08
0.000234378
1.01612e-07
0.000236544
7.83381e-08
0.000238191
0.000239341
9.20519e-08
2.07417e-07
0.000162899
2.45389e-07
0.000189857
2.61647e-07
0.000202907
2.41507e-07
0.000211449
2.08911e-07
0.000218081
2.18733e-07
0.000223482
2.67075e-07
0.000227938
2.6501e-07
0.000231556
2.8928e-07
0.000234353
3.09144e-07
0.000236523
3.19062e-07
0.000238181
0.000239352
3.07591e-07
2.3238e-07
0.000162666
3.20372e-07
0.000189769
3.33042e-07
0.000202895
3.31627e-07
0.000211451
3.6855e-07
0.000218044
3.67582e-07
0.000223483
4.04022e-07
0.000227901
4.71398e-07
0.000231487
5.10244e-07
0.000234314
5.17486e-07
0.000236516
5.81553e-07
0.000238117
0.000239305
6.29645e-07
2.39569e-07
0.000162427
3.6982e-07
0.000189639
4.02984e-07
0.000202862
4.205e-07
0.000211433
4.47224e-07
0.000218017
5.15047e-07
0.000223415
5.6543e-07
0.00022785
6.18744e-07
0.000231434
6.98148e-07
0.000234234
7.71875e-07
0.000236442
8.07471e-07
0.000238082
0.000239278
8.3509e-07
2.85106e-07
0.000162142
4.17793e-07
0.000189507
4.96893e-07
0.000202782
5.34068e-07
0.000211396
6.03738e-07
0.000217947
6.60745e-07
0.000223358
7.53051e-07
0.000227757
8.20004e-07
0.000231366
8.83187e-07
0.000234171
9.37678e-07
0.000236389
1.00498e-06
0.000238015
0.000239271
1.01218e-06
2.89241e-07
0.000161853
4.65253e-07
0.000189331
5.41309e-07
0.000202706
6.21261e-07
0.000211315
7.07918e-07
0.00021786
8.06635e-07
0.000223258
8.86143e-07
0.000227678
9.95843e-07
0.000231257
1.07456e-06
0.000234093
1.17641e-06
0.000236288
1.27372e-06
0.000237919
0.000239174
1.3713e-06
3.15919e-07
0.000161537
5.13931e-07
0.000189133
6.34351e-07
0.000202586
7.3381e-07
0.000211216
8.10469e-07
0.000217783
9.24893e-07
0.000223143
1.04752e-06
0.000227556
1.17208e-06
0.000231134
1.2935e-06
0.000233974
1.40824e-06
0.000236175
1.48356e-06
0.000237845
0.000239091
1.56697e-06
3.40432e-07
0.000161197
5.6065e-07
0.000188913
7.03236e-07
0.000202443
8.20246e-07
0.000211098
9.40217e-07
0.000217662
1.0712e-06
0.000223013
1.20863e-06
0.000227418
1.34745e-06
0.000230996
1.48281e-06
0.00023384
1.60946e-06
0.000236049
1.72938e-06
0.000237725
0.000238965
1.85442e-06
3.66095e-07
0.000160831
6.08871e-07
0.00018867
7.70887e-07
0.000202281
9.06797e-07
0.000210962
1.07055e-06
0.000217499
1.21611e-06
0.000222867
1.3692e-06
0.000227267
1.52176e-06
0.000230845
1.69643e-06
0.000233666
1.83358e-06
0.000235912
1.95711e-06
0.000237601
0.000238862
2.05947e-06
3.69244e-07
0.000160462
6.55126e-07
0.000188384
8.38473e-07
0.000202097
1.0195e-06
0.000210781
1.17301e-06
0.000217345
1.33583e-06
0.000222706
1.5303e-06
0.000227073
1.72463e-06
0.000230651
1.85652e-06
0.000233534
2.03443e-06
0.000235734
2.17737e-06
0.000237458
0.000238678
2.3604e-06
4.16365e-07
0.000160045
7.01716e-07
0.000188098
9.31413e-07
0.000201867
1.10601e-06
0.000210606
1.27877e-06
0.000217174
1.51055e-06
0.000222475
1.693e-06
0.000226892
1.872e-06
0.000230473
2.07141e-06
0.000233334
2.23004e-06
0.000235574
2.41923e-06
0.000237267
0.000238605
2.49165e-06
4.20213e-07
0.000159624
7.51136e-07
0.000187766
1.0009e-06
0.000201617
1.21988e-06
0.000210388
1.43583e-06
0.000216958
1.60408e-06
0.000222307
1.82726e-06
0.000226669
2.05016e-06
0.000230249
2.26492e-06
0.000233118
2.47366e-06
0.000235363
2.6555e-06
0.000237083
0.000238382
2.87774e-06
4.4608e-07
0.000159177
7.75706e-07
0.000187436
1.04576e-06
0.000201347
1.28345e-06
0.000210151
1.51614e-06
0.000216727
1.77931e-06
0.000222044
2.0184e-06
0.000226429
2.25393e-06
0.000230011
2.48552e-06
0.000232884
2.70511e-06
0.000235141
2.91153e-06
0.000236876
0.000238191
3.10275e-06
4.58287e-07
0.000158719
8.49387e-07
0.000187045
1.14122e-06
0.000201056
1.39818e-06
0.000209895
1.64896e-06
0.000216476
1.899e-06
0.000221793
2.15129e-06
0.000226175
2.40066e-06
0.00022976
2.67e-06
0.000232612
2.90316e-06
0.000234907
3.12608e-06
0.000236652
0.000237966
3.35204e-06
5.01052e-07
0.000158217
8.98125e-07
0.000186649
1.21206e-06
0.000200743
1.51339e-06
0.000209595
1.7773e-06
0.000216211
2.04405e-06
0.000221526
2.33691e-06
0.000225879
2.60005e-06
0.000229495
2.82762e-06
0.000232384
3.10007e-06
0.000234635
3.32653e-06
0.000236427
0.000237741
3.55298e-06
5.0748e-07
0.000157711
9.47375e-07
0.000186209
1.28077e-06
0.000200411
1.5744e-06
0.0002093
1.88257e-06
0.000215903
2.18942e-06
0.000221217
2.46897e-06
0.000225598
2.77386e-06
0.000229189
3.07182e-06
0.000232086
3.30489e-06
0.000234404
3.58617e-06
0.000236148
0.000237484
3.84471e-06
5.34025e-07
0.000157177
9.72613e-07
0.000185772
1.37707e-06
0.000200006
1.68884e-06
0.000208989
2.01289e-06
0.000215577
2.30813e-06
0.000220921
2.63287e-06
0.000225273
2.92499e-06
0.000228898
3.23573e-06
0.000231778
3.53442e-06
0.000234107
3.8126e-06
0.000235872
0.000237271
4.02575e-06
5.43868e-07
0.000156634
1.04644e-06
0.00018527
1.42223e-06
0.00019963
1.77757e-06
0.000208632
2.11916e-06
0.000215235
2.45848e-06
0.000220581
2.7974e-06
0.000224934
3.13147e-06
0.000228566
3.43198e-06
0.00023148
3.77325e-06
0.000233768
4.05027e-06
0.000235596
0.000236944
4.37765e-06
5.72795e-07
0.000156062
1.0752e-06
0.000184767
1.49295e-06
0.000199212
1.89476e-06
0.000208229
2.22646e-06
0.000214902
2.61078e-06
0.000220196
2.93774e-06
0.000224609
3.28202e-06
0.000228223
3.66441e-06
0.000231099
3.95867e-06
0.000233475
4.28613e-06
0.000235268
0.000236708
4.52049e-06
6.07845e-07
0.000155454
1.12654e-06
0.000184248
1.58577e-06
0.000198751
1.96764e-06
0.000207846
2.36506e-06
0.000214505
2.73094e-06
0.000219831
3.11655e-06
0.000224225
3.50929e-06
0.000227832
3.84268e-06
0.000230767
4.20233e-06
0.000233114
4.5321e-06
0.000234937
0.000236346
4.89344e-06
6.15422e-07
0.000154839
1.16358e-06
0.000183699
1.64499e-06
0.000198269
2.06364e-06
0.000207428
2.47888e-06
0.00021409
2.86782e-06
0.000219444
3.28017e-06
0.000223814
3.65755e-06
0.000227455
4.04988e-06
0.000230373
4.4276e-06
0.000232735
4.75426e-06
0.000234609
0.000236034
5.06473e-06
6.37911e-07
0.000154199
1.22275e-06
0.000183112
1.70965e-06
0.000197782
2.1894e-06
0.000206948
2.60741e-06
0.000213674
3.03516e-06
0.000219018
3.44059e-06
0.00022341
3.88174e-06
0.000227014
4.23298e-06
0.000230021
4.62594e-06
0.00023234
5.00815e-06
0.000234225
0.000235644
5.39866e-06
6.59742e-07
0.000153538
1.26963e-06
0.000182501
1.79557e-06
0.000197255
2.25263e-06
0.000206493
2.70639e-06
0.000213222
3.18106e-06
0.000218545
3.59582e-06
0.000222996
4.02896e-06
0.00022658
4.44902e-06
0.000229599
4.85534e-06
0.000231932
5.23649e-06
0.000233844
0.000235321
5.56011e-06
6.99079e-07
0.000152837
1.30981e-06
0.00018189
1.88568e-06
0.00019668
2.3836e-06
0.000205995
2.83442e-06
0.000212772
3.29908e-06
0.000218081
3.77945e-06
0.000222515
4.22761e-06
0.000226131
4.66275e-06
0.000229163
5.08644e-06
0.000231508
5.50068e-06
0.00023343
0.0002349
5.92354e-06
6.80482e-07
0.000152156
1.37698e-06
0.000181193
1.95034e-06
0.000196107
2.46946e-06
0.000205477
2.9864e-06
0.000212256
3.44015e-06
0.000217627
3.93862e-06
0.000222016
4.40108e-06
0.000225668
4.8766e-06
0.000228687
5.28698e-06
0.000231098
5.73143e-06
0.000232987
0.000234515
6.11729e-06
7.52788e-07
0.000151404
1.39239e-06
0.000180555
1.99044e-06
0.00019551
2.55396e-06
0.000204914
3.0883e-06
0.00021172
3.61001e-06
0.000217104
4.0967e-06
0.000221528
4.57374e-06
0.00022519
5.06563e-06
0.000228195
5.53944e-06
0.000230625
5.9666e-06
0.000232561
0.000234114
6.36766e-06
7.42036e-07
0.000150663
1.51066e-06
0.000179788
2.13167e-06
0.00019489
2.71562e-06
0.000204328
3.24386e-06
0.00021119
3.78198e-06
0.000216564
4.28533e-06
0.000221024
4.80584e-06
0.00022467
5.28653e-06
0.000227716
5.77941e-06
0.000230134
6.22976e-06
0.000232112
0.000233617
6.72693e-06
7.65925e-07
0.0001499
1.508e-06
0.000179048
2.16966e-06
0.000194228
2.74832e-06
0.000203749
3.34659e-06
0.000210589
3.87622e-06
0.000216033
4.44869e-06
0.000220451
4.95812e-06
0.000224161
5.48084e-06
0.000227194
5.95765e-06
0.000229658
6.4356e-06
0.000231634
0.000233187
6.86451e-06
8.24686e-07
0.000149078
1.57648e-06
0.000178298
2.2638e-06
0.000193541
2.8873e-06
0.000203123
3.44948e-06
0.000210026
4.05287e-06
0.000215428
4.59008e-06
0.000219914
5.14247e-06
0.00022361
5.70769e-06
0.00022663
6.22919e-06
0.000229136
6.76676e-06
0.000231096
0.000232706
7.24742e-06
8.23436e-07
0.000148256
1.61471e-06
0.000177507
2.32438e-06
0.00019283
3.00104e-06
0.000202445
3.61225e-06
0.000209414
4.20146e-06
0.00021484
4.81381e-06
0.000219303
5.3823e-06
0.000223042
5.90732e-06
0.000226105
6.43875e-06
0.000228605
6.9426e-06
0.000230591
0.000232225
7.42248e-06
8.17747e-07
0.000147439
1.65872e-06
0.000176666
2.41478e-06
0.000192073
3.08529e-06
0.000201774
3.74276e-06
0.000208756
4.36168e-06
0.000214222
4.95514e-06
0.000218711
5.53923e-06
0.000222459
6.13878e-06
0.000225505
6.71382e-06
0.000228028
7.24666e-06
0.000230057
0.000231688
7.78287e-06
8.80071e-07
0.000146557
1.72365e-06
0.000175821
2.4834e-06
0.000191313
3.20115e-06
0.000201056
3.85541e-06
0.000208104
4.51336e-06
0.000213566
5.1294e-06
0.000218096
5.78935e-06
0.000221799
6.33959e-06
0.000224954
6.93444e-06
0.000227432
7.49503e-06
0.000229495
0.000231211
7.97182e-06
8.91477e-07
0.000145664
1.76415e-06
0.000174947
2.57846e-06
0.000190497
3.28741e-06
0.000200349
3.99543e-06
0.000207398
4.67253e-06
0.000212891
5.30588e-06
0.000217464
5.95025e-06
0.000221155
6.61122e-06
0.000224292
7.18758e-06
0.000226855
7.75859e-06
0.000228924
0.000230584
8.38561e-06
9.08776e-07
0.000144753
1.84482e-06
0.000174009
2.64403e-06
0.000189698
3.41653e-06
0.000199577
4.13795e-06
0.000206678
4.8333e-06
0.000212197
5.50951e-06
0.000216788
6.14448e-06
0.00022052
6.81494e-06
0.000223621
7.44666e-06
0.000226222
8.04915e-06
0.000228321
0.000230056
8.57779e-06
9.4063e-07
0.000143811
1.86385e-06
0.000173085
2.75213e-06
0.00018881
3.53986e-06
0.000198791
4.3061e-06
0.000205912
4.95925e-06
0.000211544
5.68831e-06
0.000216059
6.36493e-06
0.000219843
7.02245e-06
0.000222964
7.65682e-06
0.000225588
8.2617e-06
0.000227716
0.000229422
8.89549e-06
9.60856e-07
0.00014285
1.91361e-06
0.000172132
2.81811e-06
0.000187906
3.62841e-06
0.000197981
4.39081e-06
0.000205149
5.15874e-06
0.000210775
5.8706e-06
0.000215347
6.59028e-06
0.000219123
7.23797e-06
0.000222316
7.91583e-06
0.000224911
8.53984e-06
0.000227093
0.000228843
9.1196e-06
9.87972e-07
0.000141862
1.98656e-06
0.000171135
2.89572e-06
0.000186998
3.75308e-06
0.000197122
4.55006e-06
0.000204352
5.32725e-06
0.000209997
6.08379e-06
0.000214589
6.79706e-06
0.00021841
7.5175e-06
0.000221596
8.16532e-06
0.000224264
8.88743e-06
0.000226371
0.000228192
9.53815e-06
1.01752e-06
0.000140847
2.04003e-06
0.000170114
2.97427e-06
0.000186063
3.89353e-06
0.000196203
4.68681e-06
0.000203556
5.46038e-06
0.000209222
6.27536e-06
0.000213774
7.00642e-06
0.000217679
7.71759e-06
0.000220886
8.45771e-06
0.000223525
9.11259e-06
0.000225717
0.0002276
9.70525e-06
1.05054e-06
0.000139798
2.09899e-06
0.000169066
3.11377e-06
0.000185049
3.96048e-06
0.000195355
4.81405e-06
0.000202702
5.67275e-06
0.000208362
6.40459e-06
0.000213042
7.24583e-06
0.000216838
8.00065e-06
0.000220131
8.74631e-06
0.000222779
9.42155e-06
0.000225042
0.000226876
1.01459e-05
1.06905e-06
0.00013873
2.15442e-06
0.000167981
3.17885e-06
0.000184024
4.08938e-06
0.000194444
5.00711e-06
0.000201784
5.81003e-06
0.00020756
6.66678e-06
0.000212185
7.43561e-06
0.000216069
8.20593e-06
0.000219361
8.95034e-06
0.000222035
9.65535e-06
0.000224337
0.000226201
1.03302e-05
1.09343e-06
0.000137637
2.20513e-06
0.000166869
3.23668e-06
0.000182992
4.25955e-06
0.000193421
5.124e-06
0.00020092
6.0302e-06
0.000206654
6.8682e-06
0.000211348
7.64082e-06
0.000215297
8.4716e-06
0.00021853
9.23674e-06
0.000221269
1.00178e-05
0.000223555
0.00022553
1.06878e-05
1.11673e-06
0.000136518
2.26097e-06
0.000165724
3.34098e-06
0.000181911
4.33034e-06
0.000192432
5.30075e-06
0.000199951
6.21434e-06
0.000205742
7.07383e-06
0.000210489
7.90742e-06
0.000214463
8.71761e-06
0.000217719
9.52974e-06
0.000220456
1.02876e-05
0.000222796
0.000224781
1.10365e-05
1.1434e-06
0.000135374
2.35449e-06
0.000164511
3.45961e-06
0.000180806
4.48479e-06
0.000191408
5.46401e-06
0.000198973
6.37651e-06
0.000204831
7.28197e-06
0.000209585
8.17767e-06
0.000213567
9.03167e-06
0.000216864
9.83312e-06
0.000219653
1.0636e-05
0.000221993
0.000224007
1.141e-05
1.16909e-06
0.000134203
2.37522e-06
0.000163304
3.51472e-06
0.000179666
4.58226e-06
0.000190341
5.56358e-06
0.000197993
6.56574e-06
0.00020383
7.46615e-06
0.000208684
8.3628e-06
0.00021267
9.23064e-06
0.000215996
1.00388e-05
0.000218845
1.0821e-05
0.00022121
0.000223316
1.15128e-05
1.19298e-06
0.000133008
2.43433e-06
0.000162062
3.64918e-06
0.000178451
4.7442e-06
0.000189247
5.77471e-06
0.000196964
6.73426e-06
0.000202871
7.68151e-06
0.000207737
8.62518e-06
0.000211726
9.53618e-06
0.000215084
1.04023e-05
0.000217979
1.12285e-05
0.000220385
0.000222433
1.21116e-05
1.25494e-06
0.000131753
2.52947e-06
0.000160787
3.7423e-06
0.000177239
4.86625e-06
0.000188123
5.92327e-06
0.000195906
6.93137e-06
0.000201862
7.92657e-06
0.000206741
8.88818e-06
0.000210764
9.75723e-06
0.000214216
1.0687e-05
0.00021705
1.15323e-05
0.000219541
0.000221609
1.23573e-05
1.23832e-06
0.000130515
2.58856e-06
0.000159437
3.83473e-06
0.000175994
4.99764e-06
0.00018696
6.14359e-06
0.000194759
7.13158e-06
0.000200872
8.14751e-06
0.000205724
9.1362e-06
0.000209775
1.007e-05
0.000213282
1.0974e-05
0.000216147
1.18745e-05
0.000218641
0.000220734
1.27502e-05
1.30394e-06
0.000129212
2.64691e-06
0.000158096
3.93085e-06
0.00017471
5.16899e-06
0.000185721
6.23044e-06
0.000193696
7.35883e-06
0.000199743
8.40231e-06
0.00020468
9.3641e-06
0.000208813
1.03437e-05
0.000212304
1.12916e-05
0.0002152
1.21922e-05
0.000217741
0.000219906
1.30204e-05
1.31967e-06
0.000127894
2.70304e-06
0.000156713
4.02303e-06
0.00017339
5.25363e-06
0.000184489
6.4609e-06
0.000192488
7.54566e-06
0.000198657
8.61455e-06
0.00020361
9.64988e-06
0.000207778
1.06761e-05
0.000211278
1.16248e-05
0.000214251
1.25767e-05
0.000216789
0.000218944
1.35381e-05
1.37183e-06
0.000126523
2.7976e-06
0.000155289
4.15962e-06
0.000172028
5.43006e-06
0.000183218
6.62128e-06
0.000191295
7.76098e-06
0.000197516
8.88016e-06
0.000202491
9.93862e-06
0.000206719
1.09634e-05
0.000210253
1.19526e-05
0.000213262
1.28959e-05
0.000215846
0.000218111
1.37282e-05
1.36545e-06
0.000125159
2.85758e-06
0.000153797
4.25516e-06
0.00017063
5.56297e-06
0.00018191
6.83853e-06
0.000190019
8.0049e-06
0.00019635
9.07908e-06
0.000201417
1.02111e-05
0.000205588
1.1234e-05
0.00020923
1.22471e-05
0.000212248
1.32316e-05
0.000214861
0.000217076
1.42667e-05
1.45759e-06
0.000123701
2.91511e-06
0.000152339
4.35246e-06
0.000169192
5.74631e-06
0.000180516
6.9648e-06
0.000188801
8.21225e-06
0.000195103
9.35675e-06
0.000200273
1.04656e-05
0.000204479
1.15614e-05
0.000208134
1.26447e-05
0.000211165
1.36305e-05
0.000213875
0.000216207
1.44998e-05
1.44312e-06
0.000122257
3.01432e-06
0.000150767
4.49517e-06
0.000167711
5.88336e-06
0.000179128
7.23355e-06
0.000187452
8.42465e-06
0.000193913
9.66622e-06
0.000199032
1.08018e-05
0.000203344