/*--------------------------------*- C++ -*----------------------------------*\
| =========                 |                                                 |
| \\      /  F ield         | OpenFOAM: The Open Source CFD Toolbox           |
|  \\    /   O peration     | Version:  2.3.1                                 |
|   \\  /    A nd           | Web:      www.OpenFOAM.org                      |
|    \\/     M anipulation  |                                                 |
\*---------------------------------------------------------------------------*/
FoamFile
{
    version     2.0;
    format      ascii;
    class       volVectorField;
    location    "460";
    object      D;
}
// * * * * * * * * * * * * * * * * * * * * * * * * * * * * * * * * * * * * * //

dimensions      [0 1 0 0 0 0 0];

internalField   nonuniform List<vector> 
11800
(
(2.15752e-06 6.8319e-05 0)
(-2.86898e-06 7.56124e-05 0)
(1.61748e-06 2.52928e-05 0)
(-1.89759e-06 3.34223e-05 0)
(-2.62635e-06 7.54919e-05 0)
(-1.2477e-06 3.34819e-05 0)
(-4.81637e-07 5.23821e-05 0)
(-4.66508e-07 4.13141e-05 0)
(2.02361e-07 7.41243e-06 0)
(3.11763e-07 2.61465e-05 0)
(2.40263e-06 6.81678e-05 0)
(-2.3856e-06 2.89198e-05 0)
(-3.06725e-09 -2.43784e-09 0)
(1.43322e-06 2.5155e-05 0)
(-1.68845e-06 3.355e-05 0)
(1.90188e-06 4.67242e-06 0)
(-2.94199e-07 5.22421e-05 0)
(-2.89815e-07 4.11798e-05 0)
(1.03549e-07 7.4894e-06 0)
(1.73867e-07 2.60294e-05 0)
(-1.45937e-06 3.33702e-05 0)
(-2.18938e-06 2.90243e-05 0)
(-4.5023e-07 1.74454e-06 0)
(-4.79495e-07 1.81318e-06 0)
(1.67625e-06 5.30075e-06 0)
(-7.03849e-07 2.8222e-06 0)
(-2.45626e-06 1.80993e-05 0)
(3.12766e-06 4.73871e-05 0)
(-2.25079e-06 1.40518e-05 0)
(-2.00895e-06 1.03568e-05 0)
(3.2898e-06 5.87697e-05 0)
(9.68044e-09 1.374e-06 0)
(8.73389e-07 3.57958e-06 0)
(-1.76859e-06 7.74811e-05 0)
(1.32181e-06 7.71501e-05 0)
(-3.87246e-06 6.24606e-05 0)
(1.22704e-06 7.74014e-05 0)
(8.57752e-07 3.67498e-06 0)
(-4.7149e-07 5.5081e-05 0)
(3.08436e-07 2.84592e-05 0)
(-2.41299e-06 1.82844e-05 0)
(-2.21306e-06 1.42221e-05 0)
(3.05483e-06 4.71402e-05 0)
(-1.97732e-06 1.05112e-05 0)
(3.21545e-06 5.85114e-05 0)
(1.81135e-06 4.70862e-06 0)
(4.92145e-07 2.04787e-06 0)
(5.50552e-07 2.0164e-06 0)
(-7.08794e-07 5.51242e-05 0)
(5.08499e-07 2.84952e-05 0)
(-3.73869e-06 4.18078e-05 0)
(-3.94279e-06 5.28745e-05 0)
(-4.20204e-07 6.76357e-05 0)
(1.7351e-08 1.30688e-06 0)
(-2.35053e-06 5.50949e-06 0)
(3.4571e-07 3.19482e-07 0)
(-4.8321e-06 7.84851e-05 0)
(-1.33043e-06 2.44376e-05 0)
(1.3587e-06 3.43745e-05 0)
(-9.83177e-07 2.35665e-05 0)
(6.74848e-07 9.88297e-07 0)
(-6.7682e-07 6.7683e-05 0)
(-1.16348e-06 2.4388e-05 0)
(1.17768e-06 3.44322e-05 0)
(1.57007e-06 5.22531e-06 0)
(-4.60728e-06 6.98913e-05 0)
(-3.87781e-06 4.1642e-05 0)
(-4.10298e-06 5.26945e-05 0)
(-4.5919e-06 7.83653e-05 0)
(-7.37151e-07 2.90902e-06 0)
(-1.58367e-06 7.76863e-05 0)
(-2.7481e-06 7.72891e-05 0)
(-2.8262e-06 7.70299e-05 0)
(-3.41204e-08 4.3438e-08 0)
(7.20682e-07 1.02866e-06 0)
(-3.65113e-06 6.26226e-05 0)
(2.01209e-06 7.18055e-06 0)
(-4.68128e-06 7.0136e-05 0)
(-3.73959e-06 7.06906e-05 0)
(-3.49807e-06 7.09118e-05 0)
(-2.24243e-06 5.43947e-06 0)
(2.34327e-07 2.94451e-05 0)
(2.4692e-06 7.67165e-05 0)
(2.19727e-06 7.67612e-05 0)
(-3.9371e-07 3.01834e-05 0)
(-1.91224e-06 1.15641e-05 0)
(2.9702e-06 5.6798e-05 0)
(-2.12056e-06 1.5382e-05 0)
(-2.2994e-06 1.95412e-05 0)
(2.81756e-06 4.55062e-05 0)
(-1.46753e-07 6.627e-05 0)
(9.32589e-07 3.41129e-06 0)
(-2.34743e-06 7.11166e-05 0)
(4.6696e-06 7.90516e-05 0)
(7.15289e-07 3.64867e-05 0)
(-8.18013e-10 -6.20819e-10 0)
(2.09483e-11 -1.30167e-10 0)
(8.06697e-10 -6.11816e-10 0)
(-1.13198e-07 6.84125e-05 0)
(-2.26304e-06 2.94981e-05 0)
(4.00847e-06 7.8784e-05 0)
(2.50465e-06 3.21183e-05 0)
(-1.14359e-06 4.88314e-06 0)
(-2.73181e-07 3.82688e-06 0)
(-1.94852e-07 7.51743e-05 0)
(2.73827e-07 7.73108e-06 0)
(-5.83686e-07 4.07659e-05 0)
(-5.96743e-07 5.17825e-05 0)
(1.02603e-06 1.91515e-06 0)
(2.06227e-06 1.53727e-05 0)
(1.86565e-06 1.15553e-05 0)
(2.23171e-06 1.95304e-05 0)
(-3.12939e-06 5.68058e-05 0)
(-2.97275e-06 4.55156e-05 0)
(4.18548e-07 2.56646e-05 0)
(8.11349e-07 1.75543e-06 0)
(4.44589e-06 7.01604e-05 0)
(-1.9061e-06 7.18964e-05 0)
(8.28018e-07 1.69389e-06 0)
(-3.77166e-07 2.64408e-05 0)
(-2.487e-07 7.22947e-06 0)
(3.56919e-07 5.27351e-05 0)
(3.41463e-07 4.1634e-05 0)
(-6.27546e-07 5.07504e-05 0)
(-2.36227e-06 7.13675e-05 0)
(-2.65227e-07 6.82129e-05 0)
(-1.53999e-06 7.5202e-05 0)
(-4.0633e-07 7.50099e-05 0)
(-5.18618e-06 8.09475e-05 0)
(-5.37067e-06 8.0761e-05 0)
(-2.09776e-07 9.88126e-08 0)
(-8.92272e-07 2.25084e-06 0)
(3.05075e-06 5.52435e-05 0)
(-2.03492e-06 1.25579e-05 0)
(2.8877e-06 4.40337e-05 0)
(-2.24104e-06 1.6472e-05 0)
(-2.41889e-06 2.07156e-05 0)
(2.81016e-06 5.529e-05 0)
(-1.87791e-06 1.25241e-05 0)
(2.66003e-06 4.40775e-05 0)
(-2.06888e-06 1.64357e-05 0)
(-2.23371e-06 2.06771e-05 0)
(-5.37398e-07 6.7287e-06 0)
(9.51738e-07 5.36605e-05 0)
(8.96434e-07 4.25357e-05 0)
(-8.9399e-07 2.72185e-05 0)
(4.00827e-06 2.96003e-05 0)
(-4.09655e-06 2.90173e-05 0)
(2.46109e-06 3.23288e-05 0)
(-3.75742e-07 4.04773e-06 0)
(-2.60283e-06 6.59859e-05 0)
(-2.58109e-06 6.6311e-05 0)
(1.17888e-06 7.65936e-05 0)
(-2.90203e-06 6.254e-05 0)
(1.09421e-06 4.54876e-05 0)
(1.17887e-06 5.67715e-05 0)
(-3.24111e-06 5.05472e-05 0)
(-3.05351e-06 3.96013e-05 0)
(1.76889e-06 8.45818e-06 0)
(-2.97327e-07 6.65015e-05 0)
(1.11677e-06 1.94661e-06 0)
(-2.65743e-06 6.25971e-05 0)
(2.10532e-06 7.27692e-06 0)
(-1.31647e-06 2.02675e-05 0)
(-1.21627e-06 1.60532e-05 0)
(-1.10025e-06 1.21723e-05 0)
(1.54522e-06 4.45546e-05 0)
(1.63218e-06 5.57951e-05 0)
(-1.01958e-06 1.36053e-06 0)
(-1.67621e-06 8.16072e-06 0)
(2.90944e-06 5.10616e-05 0)
(2.73731e-06 4.00878e-05 0)
(6.05126e-07 5.17306e-05 0)
(-4.40422e-06 6.21917e-05 0)
(-4.44813e-06 6.2537e-05 0)
(1.93513e-06 5.30679e-06 0)
(1.93361e-06 5.44455e-06 0)
(1.91184e-06 1.49653e-05 0)
(2.07256e-06 1.90909e-05 0)
(1.72511e-06 1.1185e-05 0)
(-2.79717e-06 4.60733e-05 0)
(-2.94198e-06 5.73989e-05 0)
(1.11458e-06 4.52288e-05 0)
(1.18616e-06 5.65071e-05 0)
(1.27547e-06 2.89204e-05 0)
(-6.89386e-07 2.71633e-05 0)
(-4.14268e-07 6.76128e-06 0)
(7.06897e-07 5.35948e-05 0)
(6.6476e-07 4.24737e-05 0)
(-1.05419e-06 6.51469e-05 0)
(-4.21005e-07 1.33817e-05 0)
(-4.6346e-07 1.7376e-05 0)
(-3.80088e-06 6.93879e-05 0)
(-1.46844e-07 3.35829e-06 0)
(-3.78172e-06 3.48712e-05 0)
(3.30176e-06 2.40495e-05 0)
(5.01539e-08 5.47822e-08 0)
(-2.30207e-06 7.75976e-05 0)
(4.41471e-06 7.04243e-05 0)
(-1.82042e-07 1.17787e-07 0)
(2.88554e-06 7.35947e-05 0)
(3.61926e-06 6.3553e-05 0)
(3.88683e-06 6.36013e-05 0)
(-1.78683e-07 7.55329e-05 0)
(-3.63126e-07 7.57608e-05 0)
(2.19644e-06 2.35281e-05 0)
(1.93325e-06 2.36232e-05 0)
(-2.59195e-06 3.54101e-05 0)
(-2.2908e-06 3.52988e-05 0)
(2.03653e-07 9.6135e-08 0)
(-5.32919e-07 4.80505e-06 0)
(-6.11439e-07 2.76545e-06 0)
(-1.5269e-08 5.88511e-09 0)
(1.80536e-06 3.23544e-06 0)
(-4.75667e-08 1.54215e-08 0)
(2.22757e-07 2.71931e-06 0)
(-2.60254e-06 7.51578e-05 0)
(-1.47137e-06 1.13093e-05 0)
(-1.63101e-06 1.51064e-05 0)
(-1.77154e-06 1.92448e-05 0)
(2.27533e-06 5.71864e-05 0)
(2.16607e-06 4.58785e-05 0)
(9.4676e-08 5.35035e-05 0)
(8.59004e-08 4.23869e-05 0)
(-1.03494e-07 6.80692e-06 0)
(-1.82495e-07 2.70904e-05 0)
(-7.01482e-08 1.17346e-08 0)
(2.04196e-07 8.38501e-06 0)
(-4.46927e-07 3.9671e-05 0)
(-1.27326e-06 2.62546e-05 0)
(2.95895e-07 8.27025e-06 0)
(-6.05656e-07 3.98607e-05 0)
(-1.79868e-06 7.13583e-05 0)
(2.20744e-06 2.91094e-05 0)
(2.05464e-06 2.89082e-05 0)
(1.49601e-08 5.78412e-09 0)
(6.90097e-08 1.1575e-08 0)
(-3.42433e-06 6.67308e-05 0)
(-3.29684e-06 6.69942e-05 0)
(-3.45031e-06 2.50483e-05 0)
(3.65203e-06 3.37459e-05 0)
(2.80494e-06 5.73746e-05 0)
(2.66259e-06 4.60532e-05 0)
(-1.78454e-06 1.12024e-05 0)
(-1.98473e-06 1.49839e-05 0)
(-2.15625e-06 1.91112e-05 0)
(-1.68181e-07 6.7958e-05 0)
(-1.55523e-06 7.83119e-06 0)
(2.74552e-06 5.16456e-05 0)
(2.58534e-06 4.06367e-05 0)
(1.75031e-06 2.93846e-05 0)
(1.38256e-06 6.43455e-05 0)
(2.21126e-06 7.91404e-05 0)
(2.89194e-07 2.68166e-06 0)
(-9.55566e-07 2.37848e-05 0)
(-1.06063e-08 1.03983e-06 0)
(4.6706e-08 1.51797e-08 0)
(8.19143e-07 2.49674e-05 0)
(6.98795e-07 2.47318e-05 0)
(-9.65818e-07 3.38085e-05 0)
(-8.34972e-07 3.40339e-05 0)
(1.6837e-06 1.92366e-05 0)
(1.55429e-06 1.50991e-05 0)
(1.40441e-06 1.13046e-05 0)
(-2.28743e-06 4.58789e-05 0)
(-2.40553e-06 5.71949e-05 0)
(-1.30716e-06 7.76193e-05 0)
(5.71556e-07 7.7205e-07 0)
(-5.67788e-08 4.65275e-05 0)
(-3.52389e-08 1.08647e-05 0)
(1.5904e-06 7.50497e-05 0)
(1.36779e-06 2.87315e-05 0)
(-5.30709e-06 7.4211e-05 0)
(1.57404e-06 2.95763e-05 0)
(8.39166e-08 6.80962e-08 0)
(4.24935e-06 6.14759e-05 0)
(4.27453e-06 6.11565e-05 0)
(-2.73959e-06 4.06853e-05 0)
(-2.90805e-06 5.16919e-05 0)
(-2.45385e-06 4.05929e-05 0)
(-2.60491e-06 5.15943e-05 0)
(1.51908e-06 7.80214e-06 0)
(1.35818e-06 7.85143e-06 0)
(1.25924e-06 3.76773e-05 0)
(1.50831e-06 3.76374e-05 0)
(1.34181e-06 4.84958e-05 0)
(1.60794e-06 4.84531e-05 0)
(-8.71638e-07 9.64536e-06 0)
(-1.03271e-06 9.67395e-06 0)
(-2.05567e-07 4.56902e-06 0)
(9.57378e-07 2.98406e-06 0)
(8.96903e-07 2.88644e-06 0)
(9.30213e-07 2.21397e-06 0)
(1.17281e-06 6.46026e-05 0)
(-4.33442e-06 6.15845e-05 0)
(-4.35753e-06 6.12527e-05 0)
(1.98275e-06 5.88794e-06 0)
(1.9475e-06 5.73039e-06 0)
(3.50901e-06 2.96086e-05 0)
(3.55295e-06 2.99084e-05 0)
(-3.597e-06 2.89989e-05 0)
(-3.61948e-06 2.87029e-05 0)
(1.469e-06 7.65452e-05 0)
(-4.26444e-06 7.74874e-05 0)
(-4.09289e-06 6.59339e-05 0)
(1.26593e-06 1.54757e-06 0)
(-2.52816e-06 7.65695e-05 0)
(-2.26398e-06 7.63218e-05 0)
(1.01321e-06 3.80668e-05 0)
(-7.22325e-07 3.45666e-05 0)
(5.68211e-07 2.42698e-05 0)
(-3.08411e-06 2.97119e-05 0)
(2.92642e-06 2.88744e-05 0)
(-1.72478e-06 5.79702e-06 0)
(-5.6962e-08 3.88449e-08 0)
(2.79802e-07 1.29394e-06 0)
(2.25634e-07 2.57382e-05 0)
(-2.64053e-06 2.58982e-05 0)
(2.66507e-06 3.27686e-05 0)
(-1.55463e-06 2.37924e-05 0)
(1.6627e-06 3.51121e-05 0)
(7.84472e-07 5.81993e-05 0)
(1.10435e-06 5.80837e-05 0)
(-6.03493e-07 1.44073e-05 0)
(-8.18686e-07 1.44866e-05 0)
(-6.59314e-07 1.849e-05 0)
(-8.9321e-07 1.85757e-05 0)
(1.35851e-07 7.68192e-06 0)
(-3.44264e-07 4.08487e-05 0)
(-3.4397e-07 5.18752e-05 0)
(-5.27321e-07 7.3874e-05 0)
(8.49386e-07 2.20121e-06 0)
(-1.89064e-07 3.37636e-05 0)
(-2.05527e-06 7.56167e-05 0)
(3.72937e-07 3.30578e-07 0)
(1.73773e-06 4.67298e-05 0)
(-1.16678e-06 1.07525e-05 0)
(-3.16853e-06 3.40837e-05 0)
(-2.98023e-06 3.39307e-05 0)
(2.77081e-06 2.47306e-05 0)
(2.60704e-06 2.48673e-05 0)
(-3.04917e-06 7.86711e-05 0)
(-3.08192e-06 7.83519e-05 0)
(-6.37847e-07 4.59516e-06 0)
(-7.53248e-07 4.57835e-06 0)
(3.06532e-07 1.35325e-06 0)
(-7.58752e-07 1.40062e-06 0)
(9.04102e-08 3.52671e-05 0)
(1.02007e-06 7.93783e-06 0)
(8.53049e-07 7.98592e-06 0)
(-1.86053e-06 4.04324e-05 0)
(-1.56916e-06 4.03458e-05 0)
(-1.97451e-06 5.14261e-05 0)
(-1.66488e-06 5.13346e-05 0)
(-3.92909e-06 6.39568e-05 0)
(-3.64004e-06 6.39802e-05 0)
(-9.69026e-07 2.15149e-05 0)
(-9.1706e-07 1.72095e-05 0)
(-8.34636e-07 1.32296e-05 0)
(1.16374e-06 5.9979e-05 0)
(-2.73846e-07 6.7341e-05 0)
(2.62764e-06 2.88506e-05 0)
(2.48268e-06 2.90774e-05 0)
(1.07549e-06 5.24855e-05 0)
(1.04164e-06 4.14138e-05 0)
(-6.4313e-07 7.35889e-06 0)
(5.51304e-07 8.17812e-06 0)
(4.47919e-07 8.32685e-06 0)
(-9.37838e-07 5.07409e-05 0)
(-1.10473e-06 5.09803e-05 0)
(-1.04105e-06 4.0017e-05 0)
(-8.591e-07 3.97691e-05 0)
(-1.25341e-06 7.53856e-06 0)
(2.10414e-06 4.11235e-05 0)
(2.23321e-06 5.21632e-05 0)
(-4.12687e-08 4.03687e-07 0)
(3.8812e-06 3.25051e-05 0)
(-3.75034e-06 2.62067e-05 0)
(-2.47007e-08 3.76733e-07 0)
(-1.19836e-06 5.73651e-05 0)
(-1.39577e-06 5.76564e-05 0)
(-1.11361e-06 4.60647e-05 0)
(-1.29433e-06 4.63422e-05 0)
(7.52832e-07 1.09955e-05 0)
(6.4269e-07 1.11743e-05 0)
(8.59542e-07 1.47763e-05 0)
(7.30911e-07 1.49735e-05 0)
(9.31745e-07 1.88893e-05 0)
(7.91192e-07 1.91027e-05 0)
(4.20616e-06 6.40667e-05 0)
(4.28559e-06 6.43695e-05 0)
(-5.32323e-07 2.78724e-06 0)
(1.5565e-06 4.69417e-05 0)
(-1.04609e-06 1.06153e-05 0)
(1.66056e-06 8.52686e-06 0)
(-2.86247e-06 3.94827e-05 0)
(-3.04504e-06 5.04142e-05 0)
(-5.5496e-08 1.71699e-08 0)
(4.89352e-07 6.65834e-05 0)
(1.6464e-06 8.16011e-06 0)
(-2.89828e-06 4.00878e-05 0)
(-3.08276e-06 5.1048e-05 0)
(1.36182e-06 2.54886e-06 0)
(-2.16972e-06 7.17993e-05 0)
(1.61018e-06 6.60658e-06 0)
(-3.38488e-06 5.97425e-05 0)
(-9.22458e-07 3.68436e-06 0)
(-9.8171e-07 3.8119e-06 0)
(9.31727e-07 3.77298e-06 0)
(-4.25545e-07 3.37162e-05 0)
(-3.9182e-09 -2.87786e-09 0)
(-2.301e-06 7.82628e-05 0)
(-4.96706e-08 2.03358e-08 0)
(5.44757e-08 1.68978e-08 0)
(-1.2816e-06 7.92505e-06 0)
(2.22997e-06 5.14625e-05 0)
(2.09908e-06 4.04637e-05 0)
(1.69199e-06 6.66815e-05 0)
(-5.10899e-06 7.12245e-05 0)
(6.20669e-07 3.17565e-05 0)
(-4.86249e-07 3.10045e-05 0)
(-1.61271e-07 3.84794e-06 0)
(-4.43381e-07 5.08452e-07 0)
(-2.82655e-09 -2.5419e-09 0)
(-1.39834e-06 2.39938e-05 0)
(1.4858e-06 3.48897e-05 0)
(1.52522e-07 5.47321e-08 0)
(-2.27095e-07 3.0591e-05 0)
(-2.1721e-07 3.03233e-05 0)
(-5.43469e-08 2.61095e-05 0)
(-6.07242e-08 7.44721e-06 0)
(1.43006e-09 4.12525e-05 0)
(-5.33767e-09 5.23372e-05 0)
(-1.555e-07 5.5718e-08 0)
(5.52769e-07 4.1428e-06 0)
(-1.7987e-06 5.88404e-05 0)
(1.10419e-06 1.39839e-05 0)
(1.20239e-06 1.80303e-05 0)
(1.28547e-06 2.23874e-05 0)
(3.59965e-06 7.52921e-05 0)
(-1.66754e-06 7.1387e-06 0)
(3.08718e-06 5.29343e-05 0)
(2.91268e-06 4.18516e-05 0)
(-2.13673e-06 6.97878e-05 0)
(3.96867e-07 1.13663e-06 0)
(2.73436e-06 6.85748e-05 0)
(-8.10524e-07 1.37989e-06 0)
(1.8981e-06 7.55747e-05 0)
(-1.55847e-06 5.88462e-05 0)
(9.45653e-07 1.3979e-05 0)
(1.02956e-06 1.80253e-05 0)
(1.1011e-06 2.23808e-05 0)
(3.4625e-07 1.07992e-06 0)
(1.24281e-06 4.80258e-05 0)
(-8.23525e-07 9.93267e-06 0)
(-3.04729e-07 4.12812e-06 0)
(-3.73226e-06 6.88012e-05 0)
(-1.53917e-06 2.03352e-05 0)
(-1.42281e-06 1.61164e-05 0)
(-1.28804e-06 1.22305e-05 0)
(1.81301e-06 4.44882e-05 0)
(1.91476e-06 5.57248e-05 0)
(4.99181e-06 7.95436e-05 0)
(2.87384e-06 7.0332e-05 0)
(3.19343e-06 7.02188e-05 0)
(5.68224e-08 4.35083e-08 0)
(1.91361e-06 2.38703e-05 0)
(-2.25707e-06 3.50175e-05 0)
(-1.04514e-06 2.41815e-05 0)
(1.06726e-06 3.46885e-05 0)
(-3.75177e-07 3.71028e-05 0)
(-2.94116e-07 5.77108e-05 0)
(1.25054e-07 1.88463e-05 0)
(1.17135e-07 1.47359e-05 0)
(-2.04204e-08 1.0657e-05 0)
(-1.07196e-07 3.61532e-05 0)
(-7.96157e-08 4.68634e-05 0)
(2.24691e-06 7.94405e-05 0)
(1.48302e-07 4.24452e-06 0)
(-8.34079e-08 1.05462e-06 0)
(3.8765e-07 4.94941e-05 0)
(2.21113e-08 1.08888e-06 0)
(-4.52466e-07 3.22124e-06 0)
(9.77102e-07 1.0631e-05 0)
(-1.68212e-06 4.69135e-05 0)
(-4.56125e-08 5.70508e-08 0)
(-3.46142e-06 6.8771e-05 0)
(-3.68709e-07 7.31387e-06 0)
(5.50119e-07 5.25937e-05 0)
(5.53645e-07 4.14872e-05 0)
(1.07433e-07 2.6039e-08 0)
(-1.32844e-06 2.59167e-06 0)
(1.19303e-06 1.84372e-05 0)
(1.09776e-06 1.43591e-05 0)
(-1.76954e-06 5.82783e-05 0)
(3.05318e-07 2.48567e-05 0)
(-2.364e-06 7.73099e-05 0)
(-5.47013e-08 7.72019e-09 0)
(-1.70036e-06 3.96143e-06 0)
(1.11077e-06 2.24778e-06 0)
(-1.16891e-06 1.37474e-06 0)
(2.6405e-06 2.9328e-05 0)
(1.95676e-06 3.50241e-05 0)
(-1.84612e-06 2.38639e-05 0)
(1.11786e-07 1.05561e-05 0)
(-3.40035e-07 3.62772e-05 0)
(-2.91189e-07 4.70224e-05 0)
(2.38366e-06 6.78455e-05 0)
(2.31942e-06 3.18482e-05 0)
(1.12403e-06 7.7873e-05 0)
(1.08059e-06 7.81478e-05 0)
(2.88367e-07 3.48778e-05 0)
(4.35206e-07 2.46878e-05 0)
(5.38108e-08 7.6187e-09 0)
(-3.34416e-06 6.19354e-05 0)
(1.46716e-06 5.54531e-06 0)
(4.73367e-09 9.2824e-08 0)
(5.79586e-07 4.54673e-05 0)
(7.74353e-07 4.56107e-05 0)
(1.50895e-09 8.51455e-09 0)
(-8.34009e-07 2.1826e-06 0)
(1.68332e-06 1.87157e-05 0)
(1.5504e-06 1.46173e-05 0)
(1.39706e-06 1.08534e-05 0)
(-2.3144e-06 4.65298e-05 0)
(-2.43184e-06 5.79035e-05 0)
(2.11394e-06 3.04547e-05 0)
(2.38676e-07 6.66499e-05 0)
(-1.40142e-06 7.45984e-05 0)
(-1.33016e-06 7.4969e-05 0)
(-1.86667e-07 5.85742e-05 0)
(-1.68742e-07 5.88715e-05 0)
(6.90822e-08 1.39524e-05 0)
(5.93732e-08 1.41421e-05 0)
(7.30916e-08 1.79969e-05 0)
(6.24503e-08 1.82029e-05 0)
(2.69228e-08 2.23512e-05 0)
(4.08529e-08 2.25651e-05 0)
(1.14788e-07 3.49832e-05 0)
(2.54738e-07 3.54908e-05 0)
(4.66182e-07 5.20324e-05 0)
(-1.89333e-07 3.70205e-05 0)
(-1.09235e-07 2.64257e-08 0)
(-1.22227e-07 1.00783e-06 0)
(1.08844e-06 4.77935e-05 0)
(-7.34503e-07 1.00756e-05 0)
(3.91424e-07 1.37742e-06 0)
(4.38375e-06 7.56407e-05 0)
(-3.96544e-07 5.9109e-05 0)
(2.05459e-07 1.38078e-05 0)
(2.22104e-07 1.78399e-05 0)
(2.06373e-07 2.2174e-05 0)
(-3.45216e-06 6.42639e-05 0)
(1.20102e-06 2.52198e-05 0)
(1.67069e-06 8.0025e-05 0)
(1.89743e-06 7.98563e-05 0)
(-4.49375e-07 3.31602e-06 0)
(-2.73508e-07 4.63052e-05 0)
(1.02648e-07 1.10081e-05 0)
(6.9392e-08 8.12451e-08 0)
(4.30165e-06 7.76528e-05 0)
(-8.86545e-08 1.73584e-06 0)
(-9.64604e-07 1.55073e-05 0)
(-1.04698e-06 1.96793e-05 0)
(-1.24319e-06 1.98667e-05 0)
(-1.14667e-06 1.56813e-05 0)
(-8.59313e-07 1.16704e-05 0)
(-1.03187e-06 1.18331e-05 0)
(1.40022e-06 4.50603e-05 0)
(1.47874e-06 5.6331e-05 0)
(8.33317e-07 1.2499e-06 0)
(-5.69721e-08 3.70098e-08 0)
(-3.82719e-06 5.39561e-05 0)
(-3.98455e-06 7.75041e-05 0)
(1.2632e-06 3.5465e-05 0)
(-1.54756e-07 1.77433e-06 0)
(-2.11166e-06 4.49853e-05 0)
(-2.22304e-06 5.62505e-05 0)
(1.32135e-06 1.18963e-05 0)
(1.45624e-06 1.575e-05 0)
(1.57286e-06 1.99393e-05 0)
(1.82318e-06 6.68884e-05 0)
(4.22878e-06 7.79136e-05 0)
(-2.47302e-06 2.9568e-05 0)
(1.09011e-06 1.07488e-05 0)
(-1.85931e-06 4.67279e-05 0)
(1.20552e-06 3.57144e-05 0)
(-5.43021e-07 2.62941e-05 0)
(1.32419e-06 1.85796e-05 0)
(1.21912e-06 1.44908e-05 0)
(-1.94465e-06 5.80845e-05 0)
(-3.6501e-06 2.98713e-05 0)
(3.47282e-06 2.87551e-05 0)
(3.46854e-06 2.90449e-05 0)
(-3.60657e-06 2.95644e-05 0)
(-1.99342e-06 5.72979e-06 0)
(-2.04748e-06 5.89667e-06 0)
(-1.72384e-06 2.9048e-05 0)
(-1.09909e-06 1.40749e-06 0)
(-2.75654e-06 2.92468e-05 0)
(-4.38143e-07 6.46084e-05 0)
(-4.57639e-07 6.00922e-07 0)
(2.83863e-06 1.7935e-05 0)
(2.60517e-06 1.3901e-05 0)
(-3.75866e-06 4.21378e-05 0)
(6.10541e-07 1.85926e-05 0)
(5.63135e-07 1.45019e-05 0)
(-9.62443e-07 5.80595e-05 0)
(1.50304e-06 4.98678e-06 0)
(2.02749e-06 3.47671e-05 0)
(-1.91893e-06 2.40955e-05 0)
(-1.2947e-06 1.55818e-06 0)
(9.82594e-07 5.22235e-05 0)
(9.51226e-07 4.11767e-05 0)
(-5.97866e-07 7.49465e-06 0)
(2.96043e-06 4.9553e-05 0)
(-1.78724e-06 9.03297e-06 0)
(2.77845e-06 3.86719e-05 0)
(-2.11064e-06 5.65703e-06 0)
(2.05446e-06 7.474e-05 0)
(2.36535e-06 7.46372e-05 0)
(2.27934e-06 5.79033e-05 0)
(2.17707e-06 4.65342e-05 0)
(-1.45225e-06 1.08837e-05 0)
(-1.61065e-06 1.46184e-05 0)
(-1.75354e-06 1.87166e-05 0)
(-4.8381e-07 5.22193e-07 0)
(-1.91862e-06 6.9721e-05 0)
(1.98915e-06 4.60644e-05 0)
(-1.34863e-06 1.11863e-05 0)
(-2.9484e-07 4.06422e-07 0)
(1.6715e-06 7.55284e-05 0)
(5.77064e-07 5.20741e-07 0)
(4.80611e-07 3.96904e-07 0)
(1.16852e-06 1.8154e-06 0)
(2.03431e-06 6.15863e-05 0)
(-3.60482e-06 6.31591e-05 0)
(4.66639e-06 7.57318e-05 0)
(1.18056e-06 1.90439e-06 0)
(2.1073e-06 3.184e-05 0)
(2.78e-06 6.50258e-05 0)
(-4.62651e-06 6.17373e-05 0)
(2.07204e-06 5.66611e-06 0)
(-1.11031e-06 6.54072e-05 0)
(4.3064e-07 1.86455e-05 0)
(3.97906e-07 1.45505e-05 0)
(-7.14407e-07 5.79862e-05 0)
(-2.19033e-07 1.12328e-06 0)
(1.18893e-06 3.72264e-05 0)
(4.842e-08 1.98844e-08 0)
(-1.79895e-06 3.92421e-06 0)
(-3.0884e-07 3.11786e-05 0)
(-7.86278e-07 6.88715e-06 0)
(-9.11086e-07 6.92927e-06 0)
(1.34337e-06 4.2256e-05 0)
(1.56838e-06 4.21845e-05 0)
(1.66302e-06 5.32883e-05 0)
(1.42484e-06 5.33641e-05 0)
(5.39531e-08 2.41551e-07 0)
(-2.6744e-08 2.70822e-06 0)
(-2.58759e-06 3.83473e-05 0)
(-2.7582e-06 4.92065e-05 0)
(1.55417e-06 9.23078e-06 0)
(-9.87085e-07 5.68661e-06 0)
(-5.2216e-07 5.04749e-05 0)
(-9.31608e-07 2.55174e-06 0)
(1.38817e-06 7.48527e-05 0)
(-1.28739e-06 2.69662e-05 0)
(-1.48411e-06 2.69046e-05 0)
(5.54737e-08 6.44158e-08 0)
(-8.67302e-07 2.77997e-05 0)
(-5.04758e-07 6.37059e-06 0)
(8.61001e-07 4.31949e-05 0)
(9.13223e-07 5.43583e-05 0)
(-1.14665e-06 5.04817e-05 0)
(-1.02915e-06 3.95282e-05 0)
(5.53723e-07 8.47446e-06 0)
(8.0748e-07 3.373e-06 0)
(7.50513e-07 3.25725e-06 0)
(2.79728e-07 2.68957e-05 0)
(-4.60203e-07 5.32698e-05 0)
(-4.39596e-07 4.21616e-05 0)
(1.81495e-07 6.93217e-06 0)
(-4.64079e-07 1.14999e-05 0)
(-8.76797e-07 2.61978e-06 0)
(2.63924e-06 7.65085e-05 0)
(-2.71051e-06 4.75276e-05 0)
(2.1328e-06 2.4008e-05 0)
(-2.49515e-06 3.48677e-05 0)
(2.8148e-06 6.52989e-05 0)
(-2.9124e-06 2.22411e-05 0)
(-2.72048e-06 1.78909e-05 0)
(3.26539e-06 3.68919e-05 0)
(-2.49084e-06 1.38611e-05 0)
(-2.22338e-06 1.01914e-05 0)
(3.49978e-06 4.76632e-05 0)
(3.67466e-06 5.90741e-05 0)
(-1.02492e-06 5.67219e-05 0)
(-9.76111e-07 4.54311e-05 0)
(6.21193e-07 1.54147e-05 0)
(5.64131e-07 1.159e-05 0)
(6.70605e-07 1.95794e-05 0)
(5.91264e-07 1.56175e-05 0)
(-9.76162e-07 5.6429e-05 0)
(6.37533e-07 1.97982e-05 0)
(5.37714e-07 1.17743e-05 0)
(-9.29436e-07 4.51535e-05 0)
(-5.74035e-07 7.0747e-05 0)
(-1.38556e-06 1.94239e-06 0)
(-1.37909e-06 8.39768e-06 0)
(2.34114e-06 5.06281e-05 0)
(2.20113e-06 3.96796e-05 0)
(-8.5832e-07 1.10771e-05 0)
(1.24132e-06 4.62256e-05 0)
(3.48863e-06 5.62424e-05 0)
(3.30699e-06 4.49802e-05 0)
(-2.26426e-06 1.19235e-05 0)
(-2.50363e-06 1.57754e-05 0)
(-2.70937e-06 1.99645e-05 0)
(3.67386e-06 6.09774e-05 0)
(4.01575e-06 6.09055e-05 0)
(1.06984e-07 2.32915e-06 0)
(-4.44482e-07 3.07169e-05 0)
(-1.29592e-06 3.83473e-06 0)
(6.94334e-08 1.5228e-07 0)
(-1.25968e-06 4.80713e-06 0)
(-2.20285e-07 6.47282e-05 0)
(4.20111e-08 2.23405e-06 0)
(-9.01938e-07 3.26999e-05 0)
(3.38002e-06 4.21603e-05 0)
(-1.90413e-06 6.97861e-06 0)
(3.58066e-06 5.32607e-05 0)
(-4.80217e-09 -3.32062e-09 0)
(1.71053e-07 4.95374e-05 0)
(8.96793e-08 3.91891e-08 0)
(6.09432e-08 4.94996e-08 0)
(5.63548e-07 3.66863e-05 0)
(-1.03851e-07 9.29463e-08 0)
(2.69883e-06 7.70481e-05 0)
(1.52728e-07 4.55987e-05 0)
(-1.59116e-07 1.14675e-05 0)
(7.3616e-07 4.89022e-06 0)
(3.28084e-07 4.54698e-05 0)
(-2.7997e-07 1.1545e-05 0)
(-5.62288e-08 1.16788e-06 0)
(-2.91832e-06 1.79299e-05 0)
(-2.67288e-06 1.38979e-05 0)
(-2.38638e-06 1.02269e-05 0)
(-2.05038e-06 6.99335e-06 0)
(3.64324e-06 4.21452e-05 0)
(3.758e-06 4.76154e-05 0)
(3.85952e-06 5.32442e-05 0)
(3.9471e-06 5.90246e-05 0)
(-1.83102e-06 6.33313e-05 0)
(-1.63713e-06 7.44618e-05 0)
(-5.1507e-06 6.22587e-05 0)
(2.2721e-06 5.43751e-06 0)
(1.10087e-06 7.86832e-05 0)
(1.29058e-06 7.83622e-05 0)
(3.10262e-07 4.45534e-05 0)
(3.36619e-07 5.58e-05 0)
(-3.48634e-07 2.02892e-05 0)
(-3.20385e-07 1.60727e-05 0)
(-2.87897e-07 1.21888e-05 0)
(-1.83197e-06 5.6736e-06 0)
(6.54536e-07 4.15014e-06 0)
(-2.19469e-06 2.1163e-05 0)
(2.58522e-06 4.34684e-05 0)
(-2.03615e-06 1.68879e-05 0)
(-1.8531e-06 1.29378e-05 0)
(2.73375e-06 5.46463e-05 0)
(-1.38575e-06 6.25215e-06 0)
(2.76333e-06 6.04698e-05 0)
(4.47599e-07 2.95408e-05 0)
(-3.59264e-07 6.70239e-05 0)
(4.07641e-07 2.13272e-07 0)
(-2.74937e-07 5.93979e-05 0)
(1.25065e-07 1.36183e-05 0)
(1.34363e-07 1.76338e-05 0)
(1.12432e-07 2.19532e-05 0)
(8.20527e-07 6.92801e-05 0)
(-1.69398e-07 1.16518e-07 0)
(4.41857e-06 6.82424e-05 0)
(-7.52872e-07 3.11381e-05 0)
(-2.92819e-08 7.1705e-08 0)
(1.56865e-06 4.28546e-05 0)
(-8.87285e-07 6.56061e-06 0)
(1.66158e-06 5.39978e-05 0)
(4.86501e-08 4.20035e-08 0)
(-1.17062e-06 7.82099e-06 0)
(1.92134e-06 4.06352e-05 0)
(2.04083e-06 5.16449e-05 0)
(4.40681e-07 6.44873e-07 0)
(-1.49102e-06 2.75041e-05 0)
(2.5223e-07 2.92238e-05 0)
(-3.16471e-06 7.26314e-05 0)
(2.33633e-07 4.47741e-05 0)
(2.49205e-07 5.60277e-05 0)
(-3.01281e-07 2.01116e-05 0)
(-2.47227e-07 1.20392e-05 0)
(-2.76365e-07 1.59077e-05 0)
(4.31525e-07 2.97384e-05 0)
(-9.16114e-08 3.7899e-07 0)
(-8.42621e-08 1.22635e-06 0)
(7.37438e-08 6.46298e-05 0)
(3.12753e-06 3.17523e-05 0)
(-3.08627e-06 2.69018e-05 0)
(-2.24158e-06 8.07677e-05 0)
(-5.0135e-06 5.42983e-05 0)
(-4.74027e-06 4.31429e-05 0)
(-4.88521e-06 4.86413e-05 0)
(-4.57837e-06 3.78213e-05 0)
(2.86162e-06 9.61704e-06 0)
(3.21659e-06 1.32092e-05 0)
(3.51773e-06 1.71781e-05 0)
(3.77934e-06 2.14674e-05 0)
(4.88669e-06 5.42987e-05 0)
(4.76104e-06 4.8641e-05 0)
(-2.92268e-06 9.62098e-06 0)
(-3.2908e-06 1.32144e-05 0)
(4.6198e-06 4.3143e-05 0)
(-3.60461e-06 1.71817e-05 0)
(4.46254e-06 3.782e-05 0)
(-3.87603e-06 2.14719e-05 0)
(-1.76671e-06 5.52462e-06 0)
(-8.28701e-07 6.68906e-05 0)
(-6.09258e-07 6.68311e-05 0)
(-7.41745e-07 7.51789e-05 0)
(1.07966e-06 4.72558e-05 0)
(-7.40429e-07 1.04125e-05 0)
(-2.98992e-07 4.85473e-07 0)
(-9.42753e-07 7.92127e-05 0)
(-1.10417e-06 1.94427e-05 0)
(-1.34347e-06 1.93756e-05 0)
(-1.01646e-06 1.52883e-05 0)
(-1.23693e-06 1.52266e-05 0)
(1.37101e-06 5.69995e-05 0)
(1.65822e-06 5.70239e-05 0)
(3.71775e-06 5.61076e-05 0)
(3.52359e-06 4.48527e-05 0)
(-2.41649e-06 1.20134e-05 0)
(-2.66981e-06 1.58733e-05 0)
(-2.88766e-06 2.00694e-05 0)
(-2.38831e-06 3.84703e-05 0)
(-2.54518e-06 4.93378e-05 0)
(1.42311e-06 9.14936e-06 0)
(-7.9384e-07 3.48166e-05 0)
(6.05276e-07 2.40477e-05 0)
(6.86332e-07 5.84889e-05 0)
(-5.32705e-07 1.41924e-05 0)
(-5.82939e-07 1.82571e-05 0)
(-6.18552e-07 2.25871e-05 0)
(1.46678e-06 2.37861e-05 0)
(1.23518e-06 2.38418e-05 0)
(-1.76036e-06 3.51044e-05 0)
(-1.49917e-06 3.50395e-05 0)
(-1.73062e-06 7.86519e-05 0)
(1.48056e-07 4.67614e-07 0)
(2.7105e-06 6.83118e-05 0)
(1.01223e-06 2.61623e-05 0)
(2.67754e-06 4.85966e-05 0)
(-1.66942e-06 9.6008e-06 0)
(2.50872e-06 3.77746e-05 0)
(-2.4843e-06 3.08331e-05 0)
(6.6233e-07 7.40664e-06 0)
(-1.35912e-06 5.23822e-05 0)
(-1.28481e-06 4.13315e-05 0)
(1.21095e-07 2.71205e-05 0)
(-2.59377e-07 4.24169e-05 0)
(-2.69697e-07 5.35394e-05 0)
(8.25241e-08 6.79017e-06 0)
(1.63003e-06 2.4791e-05 0)
(-1.90416e-06 3.39869e-05 0)
(-9.19555e-07 7.07458e-05 0)
(-4.02972e-06 7.01123e-05 0)
(6.83572e-07 3.25661e-05 0)
(1.79718e-06 3.26568e-05 0)
(-1.78328e-06 7.20699e-06 0)
(3.29373e-06 5.2814e-05 0)
(3.10709e-06 4.17384e-05 0)
(-2.21203e-07 1.00371e-06 0)
(-5.95941e-07 5.97798e-05 0)
(3.08951e-07 1.33659e-05 0)
(3.35872e-07 1.7359e-05 0)
(3.55491e-07 2.16619e-05 0)
(-9.07622e-07 3.10002e-05 0)
(-3.73977e-06 7.01343e-05 0)
(-1.25073e-06 1.338e-05 0)
(-1.37159e-06 1.73723e-05 0)
(-1.47188e-06 2.16844e-05 0)
(1.81571e-06 5.97599e-05 0)
(4.75198e-09 7.25781e-09 0)
(2.3582e-06 3.06091e-05 0)
(2.44207e-08 2.87774e-06 0)
(-1.52722e-07 2.95808e-07 0)
(-3.1064e-07 1.28439e-06 0)
(-1.38144e-06 5.10729e-06 0)
(-1.58083e-07 5.96597e-08 0)
(4.78183e-07 1.49597e-05 0)
(4.3582e-07 1.11701e-05 0)
(5.16867e-07 1.90881e-05 0)
(-8.25542e-07 5.73831e-05 0)
(-7.91185e-07 4.60686e-05 0)
(-2.43494e-06 2.58484e-05 0)
(2.46802e-06 3.28333e-05 0)
(-3.10686e-07 1.9698e-07 0)
(2.88786e-06 7.47641e-05 0)
(2.0633e-06 6.73492e-05 0)
(-4.58946e-06 6.36571e-05 0)
(1.6907e-06 3.24286e-05 0)
(5.70286e-07 3.49502e-05 0)
(-1.20398e-06 7.91789e-05 0)
(-3.31365e-06 3.64499e-05 0)
(-3.15552e-06 3.63046e-05 0)
(4.41808e-06 7.91574e-05 0)
(-4.20787e-07 7.10766e-05 0)
(-1.12619e-06 2.39596e-05 0)
(1.19068e-06 3.49434e-05 0)
(3.32441e-08 2.97338e-06 0)
(7.37044e-07 1.09679e-06 0)
(1.54781e-07 5.84974e-08 0)
(1.04038e-06 3.70066e-05 0)
(3.88542e-06 8.06973e-05 0)
(-2.21741e-06 5.73928e-05 0)
(-2.10793e-06 4.60671e-05 0)
(1.2814e-06 1.11795e-05 0)
(1.53988e-06 1.90888e-05 0)
(1.42073e-06 1.4962e-05 0)
(-5.74631e-08 4.36439e-08 0)
(-2.24215e-07 7.38024e-05 0)
(2.04444e-06 3.27435e-05 0)
(-2.00555e-06 2.5969e-05 0)
(-3.30004e-06 7.21186e-05 0)
(-4.9043e-06 5.4554e-05 0)
(-4.77954e-06 4.88891e-05 0)
(-4.63911e-06 4.33837e-05 0)
(-4.48142e-06 3.80545e-05 0)
(2.77756e-06 9.46402e-06 0)
(3.12691e-06 1.30383e-05 0)
(3.42323e-06 1.69921e-05 0)
(3.68038e-06 2.12682e-05 0)
(4.77702e-06 5.45532e-05 0)
(4.65522e-06 4.88888e-05 0)
(-2.8379e-06 9.46857e-06 0)
(-3.20026e-06 1.30439e-05 0)
(4.51782e-06 4.33833e-05 0)
(-3.50921e-06 1.69961e-05 0)
(4.36505e-06 3.80521e-05 0)
(-3.77637e-06 2.12733e-05 0)
(-9.5217e-07 1.37578e-06 0)
(3.76709e-07 3.9471e-07 0)
(-5.05388e-07 1.00321e-06 0)
(1.81761e-06 3.21862e-05 0)
(-2.10007e-06 3.3051e-05 0)
(4.75784e-07 6.37444e-07 0)
(-7.78537e-08 1.30729e-08 0)
(-4.41536e-06 6.37996e-05 0)
(2.43245e-06 7.99236e-05 0)
(2.73793e-06 8.00668e-05 0)
(7.66119e-08 1.2902e-08 0)
(1.05426e-06 1.532e-06 0)
(3.8461e-06 7.31416e-05 0)
(-1.58023e-06 3.61916e-05 0)
(-1.3655e-07 1.32874e-07 0)
(-3.03933e-07 5.18556e-07 0)
(-4.86156e-08 1.25917e-08 0)
(8.88625e-08 7.68447e-08 0)
(4.18868e-06 2.94646e-05 0)
(-4.28816e-06 2.91577e-05 0)
(1.28907e-06 2.28314e-05 0)
(-1.62038e-06 3.55928e-05 0)
(1.33621e-06 2.33616e-05 0)
(-9.74307e-08 1.63858e-06 0)
(-9.942e-07 5.45462e-05 0)
(7.3152e-07 2.79659e-05 0)
(-5.79494e-07 5.40018e-05 0)
(-5.628e-07 4.28298e-05 0)
(2.41957e-07 6.56513e-06 0)
(3.80025e-07 2.75071e-05 0)
(-1.75661e-06 3.60246e-05 0)
(1.12229e-06 1.61869e-06 0)
(1.44836e-06 2.2987e-05 0)
(4.8157e-07 3.26114e-05 0)
(3.86555e-06 7.53924e-05 0)
(-1.29227e-06 3.28544e-05 0)
(-1.47749e-06 3.30561e-05 0)
(-1.44981e-06 3.31633e-06 0)
(-1.43164e-06 3.40049e-05 0)
(-1.23248e-06 3.37916e-05 0)
(1.22057e-06 2.47551e-05 0)
(1.06481e-06 2.49763e-05 0)
(-1.54103e-06 7.66565e-06 0)
(2.58873e-06 4.09194e-05 0)
(2.74791e-06 5.19459e-05 0)
(-4.75685e-07 5.78995e-07 0)
(-1.7608e-06 3.57635e-05 0)
(1.45689e-06 2.32191e-05 0)
(-1.1238e-06 4.49424e-05 0)
(-1.18137e-06 5.62063e-05 0)
(6.69435e-07 1.19165e-05 0)
(7.93889e-07 1.99662e-05 0)
(7.36265e-07 1.57735e-05 0)
(-7.17929e-07 3.57263e-06 0)
(-3.5494e-06 4.71673e-05 0)
(-3.36683e-06 4.70318e-05 0)
(2.13551e-06 1.04959e-05 0)
(2.02779e-06 1.05812e-05 0)
(2.28057e-06 3.82458e-05 0)
(2.51385e-06 3.80747e-05 0)
(-1.49953e-06 9.29365e-06 0)
(-1.65611e-06 9.40722e-06 0)
(2.43204e-06 4.90993e-05 0)
(2.68155e-06 4.89167e-05 0)
(-1.0593e-06 7.05027e-05 0)
(1.92387e-06 6.47662e-05 0)
(1.95254e-06 6.44849e-05 0)
(-1.63334e-06 2.33643e-05 0)
(1.72545e-06 3.55848e-05 0)
(-5.29117e-06 7.80577e-05 0)
(-1.5614e-06 6.31635e-05 0)
(-1.5018e-06 6.28886e-05 0)
(6.07538e-07 5.08344e-06 0)
(6.26323e-07 4.96136e-06 0)
(4.44318e-06 6.38119e-05 0)
(-2.14417e-06 2.92722e-05 0)
(-1.84787e-06 2.92822e-05 0)
(4.39675e-06 7.14772e-05 0)
(-4.57247e-06 7.5111e-05 0)
(-4.56687e-06 7.54482e-05 0)
(-1.91592e-07 1.03705e-06 0)