/*--------------------------------*- C++ -*----------------------------------*\
| =========                 |                                                 |
| \\      /  F ield         | OpenFOAM: The Open Source CFD Toolbox           |
|  \\    /   O peration     | Version:  2.3.1                                 |
|   \\  /    A nd           | Web:      www.OpenFOAM.org                      |
|    \\/     M anipulation  |                                                 |
\*---------------------------------------------------------------------------*/
FoamFile
{
    version     2.0;
    format      ascii;
    class       volScalarField;
    location    "0.12";
    object      k;
}
// * * * * * * * * * * * * * * * * * * * * * * * * * * * * * * * * * * * * * //

dimensions      [0 2 -2 0 0 0 0];

internalField   nonuniform List<scalar> 
9648
(
2.61656
2.60648
2.58256
2.55462
2.52275
2.48701
2.44767
2.40526
2.3604
2.31383
2.2663
2.21854
2.17126
2.12503
2.08036
2.03764
1.99716
1.9591
1.92358
1.89065
1.86031
1.83253
1.80725
1.78438
1.76381
1.74546
1.7292
1.71493
1.70255
1.69196
1.68306
1.67579
1.67005
1.66578
1.6629
1.66138
1.66115
1.66219
1.66445
1.66793
1.67262
1.67853
1.68567
1.69407
1.70374
1.71473
1.7271
1.7409
1.75618
1.77296
1.79124
1.81096
1.83193
1.85375
1.87601
1.89821
1.91997
1.94099
1.96118
1.98054
1.99905
1.50576
1.53291
1.55778
1.5846
1.61581
1.65282
1.69552
1.74322
1.79507
1.85025
1.90797
1.96755
2.02837
2.08988
2.15164
2.21329
2.27455
2.33518
2.39502
2.454
2.51206
2.56918
2.62539
2.68069
2.73511
2.78874
2.84163
2.89386
2.94544
2.99647
3.04702
3.0971
3.14673
3.19597
3.2448
3.29327
3.34148
3.38951
3.43737
3.48495
3.53232
3.57953
3.62651
3.67323
3.71982
3.76617
3.81218
3.85788
3.90329
3.94819
3.99252
4.03628
4.07946
4.12164
4.16309
4.20357
4.24333
4.28175
4.3192
4.35577
4.39158
1.4734
1.55531
1.64021
1.72747
1.81867
1.91446
2.01399
2.11664
2.22127
2.32727
2.43344
2.53926
2.64406
2.74729
2.84851
2.94734
3.04362
3.13711
3.22774
3.31551
3.40044
3.48261
3.5621
3.63903
3.71356
3.78582
3.85599
3.92417
3.99053
4.0552
4.11827
4.17989
4.24014
4.29903
4.35661
4.413
4.4683
4.52257
4.57589
4.62834
4.6799
4.7306
4.78039
4.82922
4.87706
4.92386
4.96971
5.01468
5.05866
5.10166
5.14361
5.18452
5.22458
5.26312
5.30106
5.33746
5.37306
5.40682
5.43998
5.47213
5.50343
1.64219
1.76501
1.89241
2.02215
2.15446
2.28924
2.42569
2.56285
2.69968
2.83546
2.96914
3.10016
3.22783
3.35189
3.47191
3.58766
3.69903
3.80597
3.90853
4.00681
4.10096
4.19107
4.27739
4.36014
4.4396
4.51599
4.58955
4.6605
4.72899
4.79517
4.85931
4.92155
4.98212
5.04111
5.0986
5.15474
5.20932
5.26256
5.31443
5.36507
5.41492
5.46382
5.5119
5.55905
5.60511
5.65022
5.6943
5.73738
5.77943
5.82043
5.86052
5.89937
5.93718
5.97377
6.00965
6.04434
6.0779
6.11032
6.14168
6.172
6.20101
1.88422
2.04114
2.2025
2.36568
2.52986
2.69463
2.85906
3.022
3.1826
3.33987
3.49297
3.6412
3.78424
3.92186
4.05382
4.17987
4.30001
4.4144
4.52316
4.62659
4.72484
4.81813
4.90674
4.99099
5.07128
5.14797
5.22131
5.29155
5.35886
5.42343
5.48552
5.54544
5.6034
5.65962
5.71421
5.76715
5.81864
5.86829
5.91634
5.96309
6.00842
6.05287
6.09626
6.13863
6.18018
6.22069
6.26021
6.29852
6.33566
6.37157
6.40649
6.4403
6.47286
6.50415
6.53437
6.56362
6.59163
6.61849
6.64412
6.66843
6.69141
2.14978
2.33612
2.52617
2.71727
2.90765
3.0966
3.2831
3.46622
3.64493
3.81816
3.98518
4.14525
4.29839
4.44436
4.58337
4.71503
4.83929
4.9567
5.06731
5.1717
5.27014
5.36268
5.44989
5.53195
5.60957
5.68315
5.753
5.81948
5.88255
5.94258
5.99995
6.05472
6.10749
6.15818
6.20688
6.25408
6.29955
6.34366
6.38623
6.4269
6.4664
6.50404
6.54048
6.57602
6.61048
6.6446
6.67779
6.70959
6.74009
6.76921
6.79717
6.82404
6.84966
6.87388
6.89693
6.91881
6.93958
6.95915
6.97728
6.99385
7.0092
2.42327
2.63503
2.84965
3.06407
3.27576
3.48418
3.68806
3.88656
4.07909
4.26364
4.4403
4.60773
4.76666
4.91676
5.05928
5.1928
5.31752
5.43444
5.54331
5.64533
5.74088
5.8295
5.91237
5.98915
6.06114
6.12886
6.19249
6.25273
6.30911
6.36215
6.41235
6.45984
6.50505
6.54812
6.58871
6.62718
6.66483
6.70072
6.73535
6.76916
6.80043
6.83019
6.85798
6.88403
6.90972
6.93478
6.95944
6.98296
7.00502
7.02554
7.04478
7.0628
7.0796
7.09479
7.10856
7.12143
7.13325
7.14382
7.15265
7.15973
7.16559
2.69393
2.92731
3.16266
3.39666
3.62535
3.84872
4.06582
4.27599
4.47875
4.67087
4.85357
5.02419
5.18504
5.33511
5.47821
5.61062
5.73281
5.84662
5.95034
6.04675
6.13674
6.21838
6.29469
6.36308
6.42647
6.48551
6.54013
6.59197
6.63914
6.68267
6.7236
6.76085
6.79645
6.82978
6.85982
6.88808
6.91465
6.93929
6.96376
6.98667
7.00862
7.02796
7.04499
7.0606
7.07436
7.08831
7.1015
7.11427
7.12556
7.13523
7.14337
7.15045
7.15646
7.16038
7.16289
7.16474
7.16531
7.16554
7.16338
7.1589
7.15378
2.94907
3.19804
3.45211
3.70031
3.94466
4.17824
4.40432
4.62509
4.83393
5.03152
5.21684
5.38898
5.54778
5.6936
5.83416
5.96343
6.08117
6.19018
6.28896
6.37703
6.45787
6.53045
6.59691
6.65631
6.70828
6.75481
6.79827
6.83936
6.87462
6.90686
6.93574
6.96098
6.98442
7.00518
7.02234
7.03872
7.05101
7.06132
7.07115
7.07981
7.08742
7.09195
7.09816
7.10033
7.10071
7.10135
7.09861
7.09758
7.09435
7.08973
7.0823
7.07441
7.06683
7.05757
7.0471
7.03557
7.0211
7.01097
6.99592
6.97749
6.96008
2.01668
2.03346
2.04967
2.06542
2.08092
2.09649
2.11086
2.12456
2.13747
2.14996
2.16178
2.17368
2.18586
2.19856
2.21213
2.22726
2.24431
2.26337
2.28428
2.30688
2.33056
2.35504
2.38024
2.40594
2.43206
2.45845
2.48524
2.51241
2.53985
2.5676
2.59577
2.62425
2.65307
2.68235
2.71204
2.74213
2.7727
2.80383
2.83548
2.86758
2.90023
2.93352
2.96743
3.00194
3.03714
3.07288
3.10919
3.1462
3.18394
3.22231
3.26136
3.30116
3.34181
3.38313
3.42543
3.46865
3.51311
3.5586
3.60548
3.65388
3.70392
4.4267
4.45981
4.49191
4.52299
4.55292
4.58142
4.60801
4.63375
4.65795
4.6817
4.70407
4.72567
4.74626
4.76583
4.78438
4.80186
4.81842
4.83398
4.84855
4.86207
4.87462
4.88624
4.89684
4.90642
4.91487
4.92203
4.9279
4.93241
4.93564
4.93754
4.9381
4.93735
4.93535
4.93205
4.92749
4.92173
4.91471
4.90653
4.89715
4.88659
4.87489
4.8621
4.8483
4.83342
4.81746
4.80036
4.782
4.76246
4.74166
4.71964
4.69634
4.67172
4.64591
4.61849
4.59013
4.56029
4.52959
4.49768
4.46565
4.43349
4.40147
5.53348
5.56271
5.59064
5.61757
5.64322
5.6675
5.69009
5.71113
5.73076
5.74963
5.76733
5.78407
5.79952
5.81392
5.82712
5.83913
5.84998
5.85966
5.86814
5.8754
5.88153
5.88648
5.89028
5.89293
5.89447
5.89484
5.894
5.89189
5.88852
5.88382
5.87784
5.8705
5.86182
5.85184
5.84053
5.82793
5.81398
5.79871
5.78211
5.76421
5.74507
5.72476
5.70334
5.68084
5.65721
5.63241
5.60627
5.57877
5.54985
5.51953
5.48777
5.45434
5.41935
5.38263
5.3444
5.30433
5.2627
5.21981
5.17624
5.13221
5.08803
6.22895
6.25563
6.28122
6.30543
6.32841
6.34997
6.37001
6.38835
6.40547
6.42136
6.43582
6.44883
6.46054
6.47105
6.4802
6.4881
6.4947
6.49995
6.50385
6.50639
6.50763
6.50764
6.50642
6.504
6.50035
6.49547
6.48931
6.48187
6.47318
6.4632
6.45189
6.43917
6.42505
6.40955
6.39273
6.37455
6.35495
6.33391
6.31139
6.28746
6.26223
6.23577
6.20827
6.17979
6.15037
6.11995
6.08831
6.05541
6.02121
5.98572
5.94879
5.9103
5.87026
5.82855
5.78511
5.73972
5.69259
5.64404
5.59468
5.54468
5.49465
6.71301
6.7333
6.75207
6.76927
6.78506
6.7997
6.81325
6.82557
6.83642
6.84596
6.85411
6.86094
6.86649
6.8707
6.87363
6.87532
6.87565
6.8746
6.8721
6.86816
6.86291
6.85645
6.84887
6.84023
6.83044
6.81946
6.80731
6.79399
6.77959
6.76413
6.74753
6.72962
6.71039
6.68985
6.66813
6.64513
6.62074
6.59491
6.5675
6.5386
6.50834
6.47683
6.44433
6.41106
6.37714
6.34258
6.30698
6.27039
6.23272
6.19413
6.15424
6.11285
6.07011
6.02576
5.97971
5.93143
5.88138
5.82965
5.77709
5.72376
5.67042
7.02316
7.03574
7.04674
7.05637
7.0643
7.07084
7.07625
7.08051
7.08344
7.08492
7.08517
7.08419
7.08194
7.07834
7.07342
7.06737
7.0601
7.05143
7.04119
7.02934
7.01612
7.00174
6.98636
6.97014
6.9529
6.93453
6.91507
6.89453
6.87324
6.85127
6.82863
6.80487
6.78007
6.7541
6.72728
6.69937
6.67011
6.63952
6.60731
6.57354
6.53833
6.50171
6.46411
6.42596
6.3875
6.34902
6.30964
6.26982
6.22918
6.18838
6.14653
6.10315
6.05882
6.01299
5.96575
5.91586
5.86427
5.81065
5.75662
5.70154
5.64645
7.17018
7.1734
7.17509
7.17517
7.1736
7.17068
7.16672
7.1619
7.15571
7.14791
7.13896
7.12904
7.11791
7.10542
7.09147
7.07667
7.06106
7.04408
7.02542
7.00476
6.98255
6.95928
6.93507
6.91038
6.88489
6.85823
6.83052
6.80155
6.77214
6.74262
6.71344
6.6834
6.65298
6.62159
6.5901
6.55785
6.524
6.48897
6.45246
6.41444
6.37487
6.33349
6.29096
6.24795
6.20487
6.16282
6.11961
6.07691
6.03354
5.99155
5.94903
5.90452
5.85968
5.81338
5.76639
5.71569
5.6639
5.60941
5.55571
5.50038
5.44539
7.14724
7.13969
7.13048
7.12003
7.10789
7.0949
7.08077
7.06668
7.0515
7.03402
7.01551
6.99659
6.97655
6.95519
6.93147
6.90723
6.88345
6.85869
6.83244
6.80301
6.77132
6.73917
6.70588
6.67221
6.63852
6.60364
6.56781
6.52945
6.49038
6.45182
6.41581
6.37896
6.34332
6.30695
6.27231
6.23776
6.2003
6.16093
6.12087
6.08035
6.03789
5.99284
5.94625
5.89889
5.85132
5.80668
5.75947
5.71438
5.66807
5.62632
5.58511
5.54038
5.49618
5.45064
5.40564
5.35468
5.30403
5.24936
5.19804
5.14424
5.09185
6.93989
6.91994
6.89729
6.87528
6.85097
6.82897
6.80415
6.78131
6.7585
6.73403
6.70811
6.682
6.65478
6.62752
6.59431
6.55905
6.52704
6.49649
6.46747
6.4333
6.39137
6.35263
6.31227
6.26962
6.22776
6.18576
6.14601
6.10023
6.04921
5.99935
5.95621
5.91109
5.87015
5.82879
5.79501
5.76307
5.72505
5.6808
5.63749
5.59719
5.55588
5.50942
5.45973
5.40993
5.35897
5.31384
5.26179
5.21492
5.16415
5.12528
5.08813
5.04362
5.0018
4.95933
4.91883
4.86775
4.8194
4.76449
4.71766
4.66733
4.62083
3.75559
3.8086
3.86304
3.91877
3.97564
4.03362
4.09248
4.15228
4.21316
4.27481
4.33703
4.4028
4.48209
4.55988
4.63489
4.71084
4.78764
4.86533
4.94394
5.02346
5.10377
5.18486
5.26664
5.34894
5.43152
5.51415
5.59669
5.67896
5.76074
5.84166
5.92163
6.0003
6.07722
6.15217
6.22477
6.2945
6.36042
6.41907
6.46262
6.49303
6.51103
6.51667
6.50945
6.48838
6.45223
6.39935
6.32771
6.23481
6.1178
5.97336
5.79762
5.58604
5.33347
5.03687
4.5916
4.14855
3.95278
3.8651
3.83671
3.81634
3.75469
4.36943
4.33771
4.30582
4.27363
4.24075
4.20742
4.17308
4.1385
4.10476
4.06676
4.0236
3.9838
3.94155
3.90152
3.86303
3.82449
3.78567
3.74665
3.70744
3.66813
3.62874
3.58913
3.54932
3.50938
3.46934
3.4293
3.38933
3.34959
3.31016
3.27118
3.23279
3.19518
3.1585
3.12302
3.08903
3.05694
3.02729
3.00048
2.97881
2.95944
2.94233
2.92775
2.91632
2.90874
2.906
2.90909
2.91909
2.93732
2.96519
3.00387
3.05444
3.11791
3.196
3.28576
3.39336
3.54803
3.76406
4.08294
4.51859
5.01156
5.18115
5.04403
5.00036
4.95665
4.91236
4.86699
4.82055
4.77262
4.72346
4.67228
4.61222
4.55117
4.49471
4.44041
4.38868
4.33755
4.28558
4.23229
4.178
4.12293
4.06729
4.0111
3.95422
3.89663
3.83842
3.77958
3.72022
3.66039
3.60016
3.53954
3.47858
3.41728
3.35569
3.29385
3.2318
3.16961
3.10738
3.04522
2.98325
2.92173
2.8606
2.79959
2.73903
2.67986
2.62233
2.56693
2.51444
2.46593
2.42286
2.38717
2.36132
2.34848
2.35264
2.37907
2.43207
2.51745
2.64395
2.82335
3.09041
3.49263
4.0656
4.65238
5.4449
5.39603
5.34741
5.29844
5.24815
5.1968
5.14374
5.08917
5.0298
4.96299
4.897
4.83562
4.77752
4.72235
4.66786
4.61256
4.55576
4.49794
4.43933
4.38021
4.32054
4.26005
4.19886
4.13711
4.07477
4.01199
3.94881
3.88528
3.82134
3.75701
3.69226
3.62712
3.56159
3.49571
3.42952
3.36307
3.2964
3.22953
3.16247
3.09522
3.02767
2.95935
2.88994
2.82018
2.75016
2.68008
2.61029
2.54139
2.47425
2.41019
2.35098
2.29917
2.25821
2.23197
2.22524
2.24478
2.30139
2.41585
2.62151
2.96173
3.43483
5.61724
5.56539
5.51416
5.46286
5.40981
5.35571
5.29973
5.24243
5.17948
5.11132
5.04411
4.98117
4.92167
4.86531
4.8096
4.75322
4.69524
4.63656
4.57728
4.51772
4.45769
4.39664
4.33499
4.27296
4.21043
4.14764
4.08457
4.02127
3.95758
3.89352
3.82903
3.76418
3.699
3.63356
3.56792
3.50216
3.43632
3.37045
3.30453
3.23859
3.17262
3.10653
3.03991
2.97236
2.90409
2.83513
2.76554
2.69544
2.62503
2.55473
2.48504
2.41673
2.35098
2.28929
2.23389
2.18893
2.16196
2.16539
2.21815
2.34753
2.57891
5.59097
5.53757
5.48515
5.43306
5.37829
5.32258
5.26477
5.20666
5.14358
5.0775
5.0113
4.94905
4.88994
4.83431
4.77888
4.72295
4.66518
4.60739
4.54926
4.49124
4.43286
4.37303
4.31295
4.2529
4.19245
4.13206
4.07143
4.01075
3.94956
3.88801
3.82597
3.7637
3.70118
3.63863
3.57603
3.51356
3.45125
3.38918
3.32733
3.26577
3.20452
3.14362
3.08299
3.02228
2.96092
2.89892
2.83629
2.77311
2.70941
2.64524
2.58069
2.51578
2.45051
2.38494
2.31924
2.25481
2.19519
2.1469
2.12014
2.12983
2.19515
5.38842
5.3347
5.28236
5.23132
5.17553
5.11926
5.06048
5.00361
4.94309
4.88196
4.81813
4.75816
4.70062
4.64752
4.59362
4.53966
4.48303
4.42764
4.37204
4.31706
4.26183
4.20427
4.14738
4.09146
4.03501
3.97904
3.92263
3.86649
3.8094
3.75198
3.69383
3.63583
3.57769
3.51996
3.46233
3.40521
3.34842
3.29225
3.23659
3.18166
3.12739
3.074
3.02142
2.96956
2.91807
2.86606
2.81362
2.76075
2.70753
2.65405
2.60028
2.54612
2.49131
2.43536
2.3777
2.31807
2.25721
2.19765
2.14404
2.10386
2.08798
5.03411
4.98097
4.93013
4.88256
4.82678
4.77122
4.71217
4.65844
4.60274
4.54929
4.48867
4.43187
4.37617
4.32731
4.27564
4.22499
4.1699
4.11824
4.06618
4.01503
3.96393
3.90887
3.85635
3.80702
3.75618
3.70603
3.65472
3.60458
3.55219
3.49965
3.44579
3.39324
3.34059
3.28929
3.23795
3.18771
3.13763
3.08876
3.04069
2.99412
2.94851
2.90444
2.86178
2.82024
2.7798
2.73963
2.69908
2.65816
2.61717
2.57628
2.53568
2.49524
2.45471
2.41349
2.37082
2.32586
2.27815
2.22795
2.17672
2.12748
2.08537
4.56342
4.51066
4.46317
4.42184
4.36771
4.3137
4.25478
4.20611
4.15745
4.11418
4.05725
4.00345
3.94828
3.90569
3.8561
3.81023
3.7565
3.71012
3.66206
3.6142
3.56756
3.51417
3.46719
3.42856
3.38397
3.33904
3.29231
3.24939
3.20049
3.15235
3.10127
3.05554
3.0087
2.96527
2.92051
2.87793
2.83371
2.79247
2.75274
2.71572
2.67997
2.64621
2.61469
2.58438
2.55413
2.52543
2.49623
2.46626
2.43751
2.40903
2.38311
2.35796
2.33413
2.31004
2.28541
2.25894
2.23001
2.19787
2.16277
2.12482
2.08601
3.66605
3.57036
3.46985
3.36803
3.27011
3.17843
3.09451
3.02031
2.95707
2.90508
2.86393
2.83279
2.81038
2.7953
2.78585
2.78068
2.77878
2.77946
2.78231
2.787
2.79327
2.80086
2.80952
2.81901
2.82908
2.83947
2.84991
2.86012
2.86979
2.87857
2.88609
2.89199
2.89587
2.89738
2.8962
2.89208
2.88485
2.8745
2.8611
2.84496
2.82647
2.80623
2.78492
2.7635
2.74297
2.72439
2.7086
2.69612
2.68705
2.68122
2.67808
2.67688
2.67681
2.67711
2.67681
2.6752
2.67167
2.66614
2.65848
2.64841
2.63476
5.12691
5.01273
4.84865
4.64786
4.44004
4.22948
4.01619
3.80831
3.6124
3.4335
3.27395
3.1354
3.01737
2.92015
2.84451
2.78601
2.74056
2.70575
2.68062
2.6645
2.65668
2.65614
2.66169
2.67205
2.68597
2.70233
2.72018
2.73869
2.75704
2.77443
2.79012
2.8034
2.81343
2.8193
2.82012
2.815
2.80289
2.78282
2.75367
2.7143
2.66365
2.60076
2.52495
2.43613
2.33595
2.22779
2.11649
2.00817
1.90878
1.82298
1.75303
1.69869
1.65742
1.62503
1.59702
1.57005
1.54229
1.51473
1.4926
1.48236
1.48832
5.09734
5.37512
5.48059
5.40639
5.22975
5.0098
4.75206
4.48252
4.21524
3.95936
3.72305
3.51298
3.33245
3.18251
3.062
2.96694
2.89065
2.82997
2.7836
2.75082
2.73065
2.72167
2.72202
2.72956
2.74218
2.75808
2.77575
2.79389
2.81125
2.82659
2.83891
2.84719
2.85041
2.84741
2.83719
2.81877
2.79128
2.754
2.70623
2.64742
2.57702
2.49471
2.40021
2.29361
2.17576
2.04822
1.91356
1.77582
1.64095
1.5165
1.41074
1.33021
1.2775
1.25058
1.24383
1.25015
1.26354
1.28193
1.30801
1.34699
1.40267
3.99255
4.56903
5.07877
5.42227
5.56074
5.53897
5.38044
5.13336
4.85043
4.54985
4.25613
3.98709
3.7504
3.55034
3.38523
3.24995
3.14083
3.05272
2.98303
2.93104
2.89565
2.87538
2.86803
2.87081
2.88087
2.89576
2.91347
2.93232
2.9507
2.96703
2.98002
2.98856
2.99136
2.98712
2.97451
2.95245
2.92
2.87641
2.82117
2.7538
2.674
2.58157
2.47672
2.35977
2.23157
2.09348
1.94752
1.7968
1.64574
1.50059
1.36938
1.26202
1.18738
1.15024
1.14873
1.17527
1.22084
1.27938
1.34915
1.43179
1.52957
2.927
3.39208
3.94642
4.5183
5.01598
5.37287
5.55413
5.55154
5.40952
5.16165
4.8605
4.55559
4.26485
4.00646
3.78719
3.60447
3.45398
3.33113
3.2316
3.15448
3.09858
3.06227
3.04313
3.03778
3.04257
3.05433
3.07058
3.08925
3.1084
3.126
3.14061
3.15094
3.15564
3.15306
3.14175
3.12047
3.08816
3.0441
2.98765
2.91848
2.83611
2.74054
2.63181
2.51065
2.37792
2.2349
2.08359
1.92648
1.76735
1.61138
1.46607
1.34187
1.24895
1.19749
1.19157
1.22665
1.29278
1.38044
1.48422
1.60272
1.73633
2.33723
2.57702
2.92798
3.38488
3.91369
4.45612
4.93898
5.28972
5.47149
5.4822
5.34589
5.11256
4.82334
4.52942
4.26241
4.02735
3.82886
3.66236
3.52302
3.41186
3.32828
3.27057
3.23559
3.21857
3.21506
3.22116
3.23386
3.25079
3.2696
3.28778
3.30357
3.31567
3.32245
3.32216
3.31306
3.29387
3.26348
3.22095
3.16577
3.09732
3.01526
2.91932
2.80994
2.68752
2.55302
2.40764
2.25322
2.09237
1.92837
1.76608
1.61262
1.47762
1.37195
1.30838
1.29594
1.33433
1.41447
1.52475
1.6568
1.80622
1.97124
2.11077
2.18997
2.3449
2.59231
2.93982
3.37938
3.87992
4.38648
4.83309
5.15895
5.32686
5.33712
5.21906
5.01226
4.76413
4.50333
4.26273
4.05023
3.86231
3.70715
3.58703
3.50093
3.44556
3.41373
3.39903
3.39622
3.40263
3.41566
3.43262
3.45003
3.466
3.47888
3.48723
3.48866
3.48165
3.46461
3.43643
3.39603
3.3427
3.27594
3.19512
3.10025
2.99158
2.86969
2.73494
2.58846
2.43262
2.26959
2.10293
1.93694
1.77849
1.63641
1.52225
1.45023
1.4327
1.47324
1.56445
1.69358
1.84985
2.02611
2.21833
2.05818
2.05672
2.09496
2.18915
2.35574
2.60735
2.94788
3.36481
3.82781
4.28651
4.68274
4.96922
5.12625
5.15154
5.06883
4.90602
4.6985
4.47489
4.24801
4.04639
3.88199
3.76016
3.67959
3.62906
3.59995
3.58542
3.5817
3.58802
3.60107
3.61596
3.63059
3.64279
3.6515
3.65385
3.64824
3.63274
3.60671
3.56802
3.51687
3.4517
3.37282
3.27926
3.17253
3.05188
2.9179
2.77149
2.61524
2.45113
2.28305
2.11475
1.95308
1.80618
1.68605
1.60817
1.58707
1.62956
1.72997
1.87516
2.05225
2.25154
2.46688
2.04967
2.02119
2.00891
2.02321
2.0773
2.18533
2.36074
2.61189
2.93754
3.3243
3.73669
4.13922
4.49277
4.76642
4.93543
4.99448
4.94754
4.81037
4.62915
4.41503
4.21079
4.05245
3.94597
3.87499
3.82686
3.79679
3.77895
3.77478
3.78126
3.7911
3.8029
3.81146
3.81951
3.82103
3.81622
3.80085
3.77686
3.73879
3.68988
3.62575
3.54963
3.4571
3.35358
3.23415
3.102
2.95565
2.80031
2.63519
2.46703
2.29707
2.13366
1.98318
1.85825
1.77602
1.75126
1.79469
1.90075
2.05929
2.25194
2.4708
2.70295
0.14602
5.12039
4.84678
1.0731
0.162742
0.103103
0.00321401
6.56116
0.00326188
0.0229978
5.52375
0.958311
0.00321267
5.68825
0.0894882
4.87923
0.00324014
6.69874
5.69794
0.00324381
1.34247
5.59394
4.78966
0.00334972
0.00323816
0.1039
0.00323987
0.787023
0.00322906
0.00327805
0.28642
0.00334693
0.0169431
3.50047
0.694009
5.515
4.76563
1.49024
0.00319728
4.41818
1.89196
1.25989
0.00319437
4.17924
4.16772
0.248597
0.00322306
0.0106228
0.175422
0.990142
6.41079
6.99304
0.00318454
0.00345151
0.06735
0.00609757
0.00327463
0.765124
4.74739
6.45674
3.60438
0.00347907
0.549308
0.0251603
5.50203
0.281598
4.37788
5.57444
0.00474526
0.00320997
3.32847
2.44015
1.73237
0.00586844
0.0504649
4.352
5.60016
3.02908
0.00317263
0.836432
0.00583963
4.63765
0.0178961
4.38586
0.00321532
1.02553
0.00325638
3.16875
0.0262275
0.00422803
0.0942735
0.00317182
0.00346495
6.66675
4.67835
0.00335552
0.398096
0.124989
0.00624784
5.98971
0.152669
4.07928
0.734329
0.00317137
0.00318343
0.00318059
0.301701
0.118803
0.00328372
5.45955
6.19253
0.0168864
5.31683
2.09622
5.71112
3.46472
4.05666
0.00417786
0.0702136
0.00336304
0.00322083
4.37727
0.00436773
6.82112
6.99499
4.26963
0.00319911
0.872443
0.877914
0.00319562
0.0354963
0.026529
2.02492
0.00381848
3.66455
0.00320873
0.00318117
7.04528
6.931
0.00319462
0.0692834
4.92586
0.107176
0.289471
2.28858
4.99254
0.0344745
2.62207
0.0108932
5.86462
2.93842
0.00826058
2.67642
4.32968
5.57624
0.00320839
0.00319562
0.182953
0.00319957
4.28224
0.0561028
0.00518365
0.00321023
0.00320067
0.00323614
2.56698
4.47481
1.59045
0.00357834
6.00806
5.27337
3.33978
6.38202
0.0158805
4.78128
2.75837
4.02096
0.00318894
0.00501899
3.659
5.3337
1.27482
3.01716
0.00319734
0.00331414
5.52959
0.0287683
0.527823
0.00323464
0.00321485
0.0993466
0.00346461
6.70791
0.568353
0.00319058
0.213381
2.51843
3.86363
0.00473444
3.94943
0.00320074
0.00319879
2.74482
2.06903
6.18079
0.0047992
0.00326316
0.0124082
2.31177
3.99377
1.05046
3.72811
3.89716
6.32742
0.214796
3.85361
3.56063
1.13516
1.23225
3.29139
0.00353475
0.0340301
0.00319468
0.00329196
4.09987
0.0141554
0.0158649
0.00374933
0.0151311
2.6318
5.34208
0.0199926
4.52668
0.921073
0.787458
0.0031904
0.0932822
2.41866
0.884576
0.00450211
0.867654
4.04599
0.222457
0.534775
6.70866
0.787882
0.563064
4.61822
0.00386791
0.00318484
0.00367343
0.0114545
3.50172
0.00322841
0.00406378
0.00319274
0.37329
2.29515
4.55974
4.89815
2.67337
1.27138
6.92537
0.00479637
4.38063
4.53167
0.0031944
3.14134
0.00321449
4.65332
0.371456
2.63938
0.00476121
0.00320642
1.74929
0.791477
0.00323859
0.00319489
0.00320782
0.00324559
0.334694
1.62737
2.60487
0.0255978
0.00324032
0.00318627
0.00317205
4.27484
0.102138
0.00395999
1.29838
0.0811578
0.0900412
0.00317744
0.255356
0.00323959
0.0235087
1.5026
5.30429
0.356457
0.00332578
0.00462789
3.01777
0.0984346
2.2076
6.94183
0.00341568
0.00319222
0.0031921
5.27666
0.00322392
5.40554
0.00321184
1.38449
1.97046
0.0316895
4.06061
5.21705
0.00410739
4.96323
4.74568
1.71862
3.05994
3.72539
6.89529
4.2468
2.45831
5.56088
3.99262
1.72385
0.128563
6.9131
6.74384
5.23953
3.28801
0.00503913
5.79465
3.93156
6.31053
0.0251531
0.0034066
0.00319763
0.00329336
0.195517
0.385888
0.286421
0.0758688
0.003205
5.36021
0.00320015
2.03655
1.61161
5.8156
1.13323
1.57382
0.00430285
0.00376083
0.271772
3.92548
0.00770414
0.766426
5.69361
4.49715
3.79683
4.6498
4.68744
0.00328435
6.78389
4.64659
1.76708
0.0032002
5.41661
4.97514
0.00324159
3.07121
0.00320198
6.51792
4.37677
3.20845
3.72071
3.68976
5.03888
0.00333586
5.07035
0.00356454
4.82815
3.69625
3.97023
6.7571
0.608273
0.200145
0.525617
0.00374369
4.70751
0.457428
0.00773992
0.00664569
5.18232
0.00355457
4.00333
0.0032044
0.00320724
0.00638266
1.79176
0.0798577
1.54001
0.00370796
3.76904
0.137148
5.42939
5.64509
2.27093
6.22304
0.0035287
6.77634
2.63749
0.00318684
3.62938
1.74132
0.00318057
0.00318498
5.46184
0.00738773
0.869787
0.248634
3.65974
0.0241988
0.489777
2.24038
2.96827
2.07365
2.13052
3.17859
0.00499896
0.0477107
3.92277
0.907566
7.0072
6.34069
3.82601
0.0511857
4.49477
4.47063
0.49965
2.07624
2.38398
1.7556
0.00393462
3.79277
7.02659
0.00392033
4.34103
1.71338
2.40398
0.0188589
0.0524094
5.90448
0.00425179
6.98914
0.00404043
0.32837
0.00321231
0.955353
2.66252
0.212522
0.00412648
0.00420112
3.76403
2.41324
0.349234
1.32392
6.04583
4.26992
0.00602293
1.26157
2.58003
3.78821
2.11989
4.548
4.00062
4.07535
2.94614
1.07966
2.50275
6.90774
1.92491
7.02977
5.49616
0.053882
4.42409
3.54036
0.00350354
2.38942
2.27154
2.5691
0.0198405
3.02434
1.4937
0.581527
1.9283
0.00557086
0.00320508
0.0274235
4.11839
2.85041
4.83315
0.00321337
0.0032224
0.00318866
2.96419
0.0370735
0.00319575
0.0984751
2.37461
5.54637
0.00814407
0.00845283
0.00318138
0.00320939
0.00421459
1.73688
1.77525
0.90567
0.441731
6.49683
5.93878
0.0054873
1.75126
3.91811
3.79481
3.56461
6.86487
0.00351146
0.00776676
0.00319415
4.25691
0.195414
0.00318642
1.21008
0.133146
6.84509
0.00323809
6.66859
0.981507
0.0290667
5.93073
0.00318878
0.0031876
0.0034682
7.02689
2.96787
4.70342
5.43588
0.855353
4.07066
0.00317023
0.00497586
0.272236
0.0235745
0.0221909
2.02866
4.5932
0.00319636
1.31549
3.94656
5.45406
7.02351
0.00661153
7.02063
0.00465511
0.0249329
4.68965
0.00319214
5.08646
0.0032389
0.00324782
0.034541
3.17302
0.578571
2.66536
1.8927
0.00333743
3.48543
4.94433
0.168505
1.24829
2.01281
0.00322406
0.00320479
0.00689264
4.90031
0.598698
0.00357466
6.35561
6.00085
6.06907
0.0283175
4.00571
0.00483788
2.07163
0.0931277
0.0730329
4.11299
3.95694
2.01202
5.53595
0.00330498
0.00317113
0.00694674
3.91219
3.71173
0.824909
0.0108116
0.00320761
0.00318949
0.00643529
0.00510603
0.00544617
4.02885
2.12637
0.0125979
2.25182
5.33423
0.00324924
4.52311
0.00321889
0.372144
0.0032448
0.02033
1.20232
0.0177827
0.00320376
0.65035
6.91415
5.82305
0.0032252
0.00318702
0.326928
0.0070938
0.00320575
2.74262
0.00343176
3.95933
7.0058
2.17516
2.06819
2.55572
5.69702
7.02016
0.00318921
0.00780561
0.0266108
5.27362
1.64214
5.45179
2.90927
0.766895
5.43201
4.71115
3.83983
2.06887
1.57069
0.00321438
0.284283
2.67315
2.31618
4.62691
1.138
0.0998885
2.40238
0.102947
0.0140467
2.71328
0.00319314
4.32655
0.0033312
0.408072
6.8562
3.37405
0.464304
0.00676803
0.76531
0.00321224
0.00318918
0.0812785
0.017743
2.95911
0.0106205
3.2538
0.00321474
0.0218378
0.00318587
4.0083
0.00689186
5.13588
2.6357
0.0164591
1.98582
6.75105
0.00320174
1.75973
5.23034
0.00346423
6.82506
0.186451
0.00395506
0.00320843
5.98396
0.00318636
0.00377489
0.0692539
0.103007
6.69849
6.64946
0.00321927
0.00319587
3.81737
1.99387
0.0114193
0.581091
1.8436
0.00320314
0.00354852
0.00324803
5.4652
6.71309
0.500562
6.10634
0.0205216
2.26466
0.0035239
0.0116425
0.019473
0.0433846
0.00320001
6.12135
0.00319674
0.0212645
0.00321483
0.580851
0.0168963
0.00852323
0.295514
0.670719
3.8902
0.259421
1.02913
3.95291
6.6136
0.00337299
4.91263
6.86202
1.11702
3.54875
0.00328624
5.65873
3.06926
0.00319655
6.82798
4.47919
0.00684515
0.00402875
5.35084
5.25233
0.369083
6.88222
6.79839
0.738494
6.79849
6.15069
4.60209
4.01005
0.869072
4.91516
6.46786
6.45379
0.0166293
6.27929
1.77326
4.82005
0.00341773
0.3318
0.962568
6.25055
5.12253
0.0169007
4.65853
5.87339
1.60416
0.0662379
0.41054
4.035
0.00458063
4.06206
6.58294
0.0345077
6.20389
1.02104
3.93802
5.75149
0.00319952
0.00580347
0.898604
0.695686
0.026344
0.00320685
0.217208
0.325508
0.00424596
0.00323626
5.43719
0.850574
2.48242
1.0062
0.0068418
0.00370259
0.606457
5.56917
0.00331942
1.57931
2.35819
0.431742
2.69965
0.00374838
0.146389
0.00319137
0.0483745
3.85794
0.00320306
0.10935
4.53232
4.1416
0.200324
3.76989
0.612633
0.70812
0.00384858
2.02071
6.68641
0.0031933
0.00319557
5.06401
0.0202091
0.00323524
3.32202
0.631159
1.95162
4.09209
1.50329
0.116703
1.59732
4.72344
4.52336
5.1437
0.00322672
5.90603
0.00338281
1.95339
0.00375933
0.00352077
4.48912
0.00752673
4.91652
0.0205173
0.0324381
1.8572
0.751741
0.0509425
0.00342591
5.48202
0.00341583
0.00318383
6.8904
5.20981
2.58575
3.31187
0.00327765
0.00317483
1.69232
5.04422
0.0031735
5.17575
1.70193
0.00320318
5.46498
0.00318504
0.457271
0.873708
1.22071
0.284732
1.64187
3.29578
0.00318496
6.55309
6.44052
0.00319062
0.0272875
4.13902
0.00318558
6.41391
4.25085
4.92232
0.00319251
0.0031851
4.40171
0.0909772
0.00349336
1.813
1.73524
4.87281
0.00317815
0.00343121
0.0205722
0.0205535
0.00320063
0.00726856
4.70427
4.86805
0.00319842
1.0503
0.00320387
0.800731
0.00453858
0.00339265
1.95493
0.00318633
0.0690955
0.00318591
2.29202
0.237027
1.34796
5.71987
5.08387
4.73605
0.697007
1.24
0.00323532
0.789822
6.72428
4.28132
0.0882568
0.00333541
4.68112
0.00319899
0.0648679
0.00318451
6.71502
0.932076
0.441739
5.48282
2.20263
0.563391
3.68885
0.748339
6.23484
4.24282
0.00322739
0.00341517
0.00583282
0.00337365
0.0182867
3.2001
0.00396901
5.96618
0.00462713
0.272026
0.488887
4.76846
0.00571693
2.31547
0.0280903
1.90841
2.09982
6.59192
0.00376597
0.00412759
0.834663
3.49455
4.65715
3.3494
0.336713
2.7069
1.14874
0.0524723
0.499602
0.514768
3.99718
0.00319622
4.82291
0.350513
2.92909
0.00323715
2.85119
1.04712
0.00326982
1.71659
1.61523
0.0503089
0.00320322
0.00319419
5.41375
2.67234
1.92559
0.00317601
0.0136757
4.16362
5.75889
1.12959
0.0097619
0.00317873
4.53427
4.62789
4.52169
2.29541
0.00319046
4.20802
6.87466
0.00320892
0.00321218
1.25907
0.00327732
0.00837644
0.0605884
1.94917
0.00475048
4.58109
7.00523
0.00332444
0.00355553
0.00318655
0.00321154
3.30225
4.94287
6.80714
0.0245012
1.97181
4.58876
0.0842432
2.52835
0.00394771
3.99786
0.208524
3.89755
0.678551
1.68734
4.20497
0.00992237
0.00323785
5.31751
3.85778
5.25938
0.772538
2.49983
0.172303
0.683836
0.0085542
0.00419065
4.57742
4.92403
0.0471637
0.211741
0.00320926
0.0625056
1.63086
0.0375865
1.0559
1.31834
4.21995
3.01765
0.418591
5.85497
4.96535
5.10219
1.41389
5.10624
4.99423
0.54673
2.45456
0.00377473
2.65308
2.71627
0.00320016
0.00318652
0.0677995
0.00319623
0.00346902
5.10025
5.51525
0.00320543
5.46887
0.00319374
0.00318881
0.0031782
0.00337293
0.00566416
3.05771
1.81979
6.50524
0.00321386
0.00326783
0.820725
0.00335073
0.033708
0.00324561
0.00324752
5.06461
0.00366258
0.00854701
3.57782
0.00946253
0.003211
4.92723
0.00319658
0.00322157
0.115137
0.00335573
2.18545
0.00567848
0.0224827
0.00320237
0.00326441
6.83663
6.9764
2.08283
0.0312283
4.20603
1.33378
0.00584339
3.01525
5.00387
6.36832
4.93348
0.00322545
0.889392
2.48891
0.122262
3.70252
4.97505
0.162422
3.23106
0.0148402
3.84429
0.0383939
0.956357
0.00323408
5.68302
0.00348025
4.11479
2.1472
0.00320783
0.285274
0.00597444
0.0476334
0.00321099
0.680143
0.00343846
0.00325724
4.23936
0.00353418
0.0921903
6.31523
1.92932
0.00364062
0.00411862
2.08744
6.53348
0.00319146
0.00321063
0.120411
1.3868
5.07499
0.00685009
1.41655
0.00319499
0.00330311
0.00317708
0.0277657
1.12467
0.0115058
5.92383
2.57825
6.5411
5.34525
0.00333186
6.17477
3.29736
0.0031903
0.00322584
0.00321885
0.00369671
0.00319108
4.56113
0.00320447
0.00319092
6.44637
0.267279
0.00629707
0.0475042
3.20235
0.886168
0.0106976
0.00335493
5.70406
0.00324534
1.93966
0.00329979
0.00335966
5.26036
4.53649
0.00659425
0.00398597
0.234045
0.00320076
6.50519
0.00328707
4.55762
0.0131397
0.774142
0.0494253
0.440855
0.0969411
1.53217
0.00324197
0.00336973
0.00910255
2.35207
0.0767542
6.85967
0.00319792
0.0057607
0.00464571
6.52252
2.71625
3.53311
0.0072071
0.0110192
0.214746
0.00321697
2.22368
2.35714
0.0131997
5.93134
5.63394
5.02349
0.00496468
0.330144
3.97903
6.03282
3.79225
0.018701
4.3344
0.0500531
4.31255
0.0727759
0.443595
1.82394
0.00324357
3.362
0.00375103
0.00981675
0.00496076
0.0400858
0.00344627
1.2029
0.00321574
4.3416
0.0884319
0.003258
0.400009
0.00323231
0.230663
0.0911438
4.7079
0.497028
4.02449
0.188958
0.00320903
0.00317565
1.70206
0.0676135
2.47159
6.54886
0.00321779
6.86659
2.34354
0.0184349
2.02112
3.74413
4.08861
2.97195
0.0771333
0.00487478
6.7138