/*--------------------------------*- C++ -*----------------------------------*\
| =========                 |                                                 |
| \\      /  F ield         | OpenFOAM: The Open Source CFD Toolbox           |
|  \\    /   O peration     | Version:  2.3.1                                 |
|   \\  /    A nd           | Web:      www.OpenFOAM.org                      |
|    \\/     M anipulation  |                                                 |
\*---------------------------------------------------------------------------*/
FoamFile
{
    version     2.0;
    format      ascii;
    class       surfaceScalarField;
    location    "0.12";
    object      phi;
}
// * * * * * * * * * * * * * * * * * * * * * * * * * * * * * * * * * * * * * //

dimensions      [0 3 -1 0 0 0 0];

internalField   nonuniform List<scalar> 
15416
(
-0.000692577
5.04491e-06
0.000689645
-0.000698635
6.06864e-06
-0.00070573
7.12177e-06
-0.000715182
9.4578e-06
-0.000727551
1.23623e-05
-0.000743098
1.55227e-05
-0.00076217
1.90451e-05
-0.000784835
2.26304e-05
-0.000811173
2.63059e-05
-0.000841081
2.98731e-05
-0.000874611
3.34995e-05
-0.000911611
3.69685e-05
-0.000951867
4.02285e-05
-0.000995158
4.32634e-05
-0.00104134
4.61604e-05
-0.00109016
4.87849e-05
-0.00114126
5.10728e-05
-0.00119436
5.30712e-05
-0.00124931
5.49166e-05
-0.00130576
5.64281e-05
-0.00136349
5.77192e-05
-0.00142231
5.88226e-05
-0.00148195
5.96288e-05
-0.0015421
6.01438e-05
-0.00160263
6.05196e-05
-0.00166339
6.07563e-05
-0.00172417
6.07824e-05
-0.00178472
6.0575e-05
-0.00184495
6.02442e-05
-0.00190479
5.98322e-05
-0.00196399
5.92124e-05
-0.00202245
5.84663e-05
-0.00208012
5.77008e-05
-0.0021368
5.67188e-05
-0.00219231
5.5565e-05
-0.0022467
5.43862e-05
-0.00229992
5.31279e-05
-0.00235186
5.17284e-05
-0.00240231
5.01712e-05
-0.00245134
4.87063e-05
-0.00249896
4.73708e-05
-0.00254506
4.59126e-05
-0.00258949
4.43667e-05
-0.00263233
4.28498e-05
-0.00267336
4.10911e-05
-0.00271253
3.92428e-05
-0.00274991
3.74583e-05
-0.00278561
3.57621e-05
-0.00281932
3.37497e-05
-0.00285108
3.17786e-05
-0.00288099
2.99031e-05
-0.00290916
2.81588e-05
-0.00293506
2.5885e-05
-0.0029592
2.41245e-05
-0.00298134
2.2135e-05
-0.00300189
2.05544e-05
-0.00301983
1.79555e-05
-0.00303565
1.58491e-05
-0.00304968
1.40629e-05
-0.00306202
1.23726e-05
1.08489e-05
-0.00307284
-0.000441154
2.14795e-05
0.000424689
-0.000460247
2.51634e-05
-0.000483475
3.03627e-05
-0.000510955
3.69403e-05
-0.000542802
4.42001e-05
-0.000578212
5.09124e-05
-0.000617422
5.82293e-05
-0.000659875
6.50551e-05
-0.00070601
7.24123e-05
-0.000755104
7.89398e-05
-0.00080729
8.56606e-05
-0.000862273
9.19274e-05
-0.000919841
9.77751e-05
-0.000979801
0.000103202
-0.00104176
0.000108103
-0.0011056
0.000112606
-0.00117105
0.000116493
-0.00123791
0.000119909
-0.00130584
0.000122831
-0.00137471
0.000125284
-0.00144436
0.000127373
-0.0015144
0.000128858
-0.00158472
0.000129951
-0.00165521
0.00013063
-0.00172561
0.000130931
-0.00179578
0.000130943
-0.00186541
0.000130477
-0.00193459
0.000129832
-0.00200307
0.000128795
-0.0020706
0.000127388
-0.0021373
0.000125875
-0.00220306
0.000124137
-0.00226751
0.00012204
-0.00233066
0.000119831
-0.00239257
0.000117566
-0.00245287
0.000114909
-0.00251168
0.000112208
-0.0025689
0.000109161
-0.00262459
0.000105902
-0.00267853
0.000102536
-0.00273046
9.8991e-05
-0.00278075
9.57659e-05
-0.00282916
9.23525e-05
-0.00287546
8.88157e-05
-0.00291978
8.52782e-05
-0.00296203
8.1527e-05
-0.0030024
7.79333e-05
-0.00304041
7.38489e-05
-0.00307651
6.98965e-05
-0.00311055
6.58487e-05
-0.00314248
6.18556e-05
-0.0031727
5.84135e-05
-0.00319952
5.27321e-05
-0.00322587
5.05066e-05
-0.00324846
4.47501e-05
-0.00326972
4.18441e-05
-0.00328662
3.48884e-05
-0.00330362
3.2873e-05
-0.00331844
2.89136e-05
-0.00333106
2.50098e-05
1.94356e-05
-0.00333962
-0.000348978
4.93243e-05
0.000321105
-0.000381667
5.78399e-05
-0.000418571
6.72643e-05
-0.000459407
7.77729e-05
-0.000503725
8.85054e-05
-0.000552034
9.9204e-05
-0.000603539
0.00010971
-0.000658404
0.000119897
-0.000716404
0.000130388
-0.000777514
0.000140028
-0.000841321
0.000149446
-0.000907266
0.000157853
-0.000975609
0.0001661
-0.00104589
0.000173464
-0.00111793
0.000180128
-0.00119147
0.000186129
-0.00126635
0.00019135
-0.00134232
0.000195865
-0.00141911
0.000199609
-0.00149663
0.000202809
-0.00157444
0.000205181
-0.00165258
0.000206996
-0.0017308
0.00020817
-0.00180892
0.000208744
-0.0018867
0.000208721
-0.00196398
0.000208255
-0.00204065
0.000207233
-0.00211653
0.000205807
-0.0021914
0.00020374
-0.00226551
0.00020151
-0.00233837
0.000198691
-0.00240987
0.000195505
-0.00248028
0.000192304
-0.0025491
0.000188555
-0.00261629
0.000184773
-0.0026819
0.000180644
-0.00274579
0.00017628
-0.00280784
0.000171447
-0.00286801
0.00016632
-0.00292625
0.000160967
-0.00298267
0.000155558
-0.00303676
0.000149815
-0.00308895
0.000144382
-0.00313897
0.000138588
-0.00318681
0.000132844
-0.00323251
0.000127061
-0.00327591
0.00012122
-0.0033171
0.000115019
-0.00335583
0.00010866
-0.00339289
0.000102958
-0.00342629
9.52924e-05
-0.0034572
8.93597e-05
-0.00348669
8.22577e-05
-0.003514
7.78465e-05
-0.00353935
7.01452e-05
-0.00356048
6.30014e-05
-0.00358179
5.62162e-05
-0.00359884
4.99297e-05
-0.00361387
4.39291e-05
-0.00362495
3.60773e-05
3.04001e-05
-0.00363593
-0.000325991
8.73984e-05
0.000287894
-0.000368432
0.000100267
-0.000415168
0.000113994
-0.000465678
0.000128275
-0.000519996
0.000142812
-0.000577988
0.000157179
-0.000639201
0.000170905
-0.00070405
0.000184727
-0.000771701
0.000198021
-0.000842275
0.000210585
-0.000915101
0.000222257
-0.000990574
0.000233311
-0.00106815
0.000243661
-0.00114735
0.000252653
-0.00122826
0.00026102
-0.00131053
0.00026839
-0.00139394
0.000274753
-0.00147824
0.000280158
-0.00156329
0.000284665
-0.00164869
0.000288214
-0.00173456
0.000291051
-0.0018204
0.000292833
-0.00190622
0.000293991
-0.00199176
0.000294286
-0.00207691
0.000293893
-0.00216129
0.000292659
-0.00224489
0.000290868
-0.0023276
0.000288531
-0.00240938
0.00028552
-0.00248975
0.000281894
-0.00256891
0.000277894
-0.00264677
0.000273444
-0.00272282
0.000268364
-0.00279736
0.000263011
-0.00287027
0.000257395
-0.0029415
0.000251345
-0.00301066
0.000244989
-0.003078
0.000238514
-0.00314317
0.000231782
-0.00320621
0.000224888
-0.00326685
0.000217176
-0.00332553
0.00020942
-0.00338166
0.000200946
-0.00343564
0.000192533
-0.00348713
0.000184108
-0.00353625
0.000175823
-0.00358298
0.000167675
-0.00362759
0.000159474
-0.00366891
0.000149904
-0.00370775
0.000141802
-0.00374533
0.00013289
-0.0037789
0.000122926
-0.00381044
0.000113796
-0.00383797
0.000105375
-0.00386538
9.75701e-05
-0.00388875
8.63996e-05
-0.00391008
7.75486e-05
-0.00392936
6.91713e-05
-0.0039446
5.9116e-05
-0.00395785
4.92642e-05
3.95398e-05
-0.00396706
-0.00033509
0.000133649
0.000288825
-0.000385932
0.000151094
-0.000441379
0.00016943
-0.000500851
0.000187735
-0.000564041
0.000205989
-0.000631022
0.000224144
-0.00070186
0.000241727
-0.000775466
0.00025832
-0.000852236
0.000274777
-0.000931582
0.000289919
-0.00101365
0.000304309
-0.00109812
0.000317764
-0.0011843
0.000329831
-0.00127251
0.000340854
-0.00136257
0.000351069
-0.00145323
0.000359037
-0.00154515
0.000366675
-0.00163789
0.000372899
-0.00173113
0.000377909
-0.0018248
0.000381899
-0.00191859
0.000384842
-0.00201251
0.000386756
-0.00210616
0.000387644
-0.00219936
0.000387504
-0.00229179
0.000386345
-0.00238366
0.000384535
-0.00247452
0.00038168
-0.00256425
0.000378199
-0.00265278
0.000373981
-0.00274006
0.000369171
-0.00282577
0.000363725
-0.0029098
0.000357602
-0.00299218
0.000350915
-0.00307281
0.000343605
-0.00315145
0.000335644
-0.00322808
0.000327319
-0.00330308
0.000319012
-0.0033757
0.000310548
-0.00344599
0.000302066
-0.00351385
0.000293259
-0.00357953
0.000284044
-0.00364263
0.00027364
-0.00370324
0.000262562
-0.00376106
0.000251066
-0.00381625
0.00023952
-0.00386964
0.000229153
-0.00391851
0.000216151
-0.00396563
0.000206165
-0.0040112
0.000195225
-0.00405278
0.000183274
-0.00409213
0.000172226
-0.00412946
0.000160247
-0.00416298
0.000147267
-0.00419445
0.000136794
-0.00422001
0.000123092
-0.00424536
0.000111727
-0.0042687
0.000100858
-0.00428802
8.84486e-05
-0.00430336
7.44059e-05
-0.0043187
6.45443e-05
5.08379e-05
-0.00433004
-0.000364695
0.000187962
0.000310374
-0.00042412
0.000210501
-0.000487874
0.000233174
-0.000556329
0.000256172
-0.000628939
0.00027859
-0.000704994
0.000300182
-0.000784401
0.000321127
-0.000867487
0.000341392
-0.000953222
0.000360505
-0.00104227
0.000378954
-0.00113378
0.000395804
-0.00122731
0.000411277
-0.00132306
0.000425573
-0.00142014
0.000437922
-0.00151838
0.000449311
-0.00161814
0.000458793
-0.00171891
0.000467449
-0.00182059
0.000474589
-0.00192249
0.000479823
-0.00202459
0.000484005
-0.0021269
0.000487159
-0.00222887
0.000488736
-0.0023306
0.000489404
-0.0024318
0.000488733
-0.0025323
0.00048686
-0.00263171
0.000483942
-0.00273012
0.000480071
-0.00282719
0.000475206
-0.00292289
0.000469636
-0.00301714
0.000463364
-0.00310976
0.000456237
-0.00320048
0.000448316
-0.00328949
0.000439865
-0.00337646
0.000430717
-0.00346109
0.000420462
-0.00354364
0.000409789
-0.00362365
0.000398915
-0.00370148
0.000387713
-0.00377718
0.000376939
-0.00385063
0.000366272
-0.00392164
0.000354495
-0.00398996
0.000342358
-0.0040551
0.000328565
-0.00411652
0.000313642
-0.00417512
0.00029954
-0.00423151
0.000286071
-0.00428642
0.000270974
-0.00433774
0.000256932
-0.00438522
0.000242138
-0.0044304
0.000228226
-0.00447153
0.000213363
-0.00450871
0.000197444
-0.00454575
0.000184295
-0.00457715
0.000168095
-0.0046084
0.000154241
-0.0046357
0.000138951
-0.004657
0.000122099
-0.00467626
0.000107684
-0.00469558
9.37295e-05
-0.00470898
7.79908e-05
6.232e-05
-0.0047204
-0.000411102
0.000250649
0.00034839
-0.000479264
0.000278659
-0.000552278
0.000306162
-0.000629981
0.000333875
-0.000711461
0.000360048
-0.000797251
0.000385976
-0.000886506
0.000410366
-0.000978856
0.000433744
-0.0010747
0.000456339
-0.00117282
0.000477064
-0.00127394
0.000496898
-0.00137747
0.000514804
-0.00148237
0.000530464
-0.00158883
0.000544374
-0.00169722
0.000557705
-0.00180659
0.000568169
-0.00191643
0.000577298
-0.00202712
0.00058529
-0.002138
0.000590713
-0.00224927
0.000595278
-0.00236031
0.00059822
-0.00247105
0.000599518
-0.00258145
0.000599846
-0.00269108
0.000598399
-0.00279974
0.000595523
-0.00290732
0.00059152
-0.00301338
0.000586102
-0.00311822
0.000580111
-0.00322153
0.000572995
-0.00332294
0.000564708
-0.00342269
0.000555832
-0.00352065
0.000545742
-0.00361624
0.000535172
-0.00370987
0.000524336
-0.00380121
0.000512274
-0.00388939
0.000499198
-0.00397519
0.000485415
-0.00405812
0.000471068
-0.00413858
0.00045688
-0.00421739
0.000442738
-0.00429396
0.000429109
-0.00436735
0.000413689
-0.0044379
0.000398662
-0.00450402
0.000381602
-0.00456717
0.000364685
-0.00462634
0.000347155
-0.00468241
0.00032755
-0.00473697
0.000310907
-0.00478953
0.000294
-0.00483618
0.000274505
-0.00488052
0.000257687
-0.00492272
0.000239804
-0.0049594
0.000220981
-0.00499428
0.00020291
-0.00502533
0.000185184
-0.00505236
0.000165874
-0.0050792
0.000148882
-0.00510016
0.000128631
-0.00511734
0.000110979
-0.00513073
9.15122e-05
7.38826e-05
-0.00514213
-0.00047238
0.000322185
0.00040085
-0.000549727
0.000355978
-0.000632022
0.000388456
-0.000719974
0.000421801
-0.000811912
0.000451983
-0.000907556
0.000481598
-0.00100711
0.000509919
-0.00110908
0.000535694
-0.00121511
0.000562366
-0.00132357
0.000585496
-0.00143561
0.000608936
-0.00154898
0.000628145
-0.00166507
0.000646558
-0.00178142
0.000660712
-0.00189906
0.000675341
-0.00201886
0.000687968
-0.00213884
0.000697286
-0.00225916
0.000705599
-0.00238038
0.000711931
-0.00250025
0.00071516
-0.00262077
0.000718762
-0.00274038
0.000719181
-0.0028602
0.000719722
-0.00297894
0.000717181
-0.00309616
0.000712738
-0.00321252
0.000707795
-0.00332658
0.000700114
-0.00343933
0.00069289
-0.00355062
0.000684465
-0.00365923
0.000673572
-0.00376663
0.000663193
-0.00387174
0.000650666
-0.00397412
0.000636864
-0.00407481
0.000624361
-0.00417324
0.000610746
-0.00426799
0.00059458
-0.00435956
0.000578928
-0.00444784
0.000561278
-0.0045329
0.000542443
-0.00461582
0.000525413
-0.00469831
0.000508493
-0.00477848
0.000490306
-0.00485229
0.000470581
-0.00492466
0.000453913
-0.0049907
0.000433389
-0.00505245
0.000411362
-0.0051145
0.000390612
-0.0051712
0.00036702
-0.00522498
0.000346806
-0.00527597
0.000325171
-0.00532158
0.000303463
-0.00536468
0.000283055
-0.00540417
0.000260469
-0.00544231
0.000240959
-0.00547498
0.000217797
-0.00550513
0.000196049
-0.00552954
0.000173281
-0.00554966
0.000148666
-0.00556835
0.000129638
-0.00558367
0.000106902
8.51691e-05
-0.00559479
-0.000545702
0.000466148
0.000401725
-0.000634158
0.000444418
-0.000725078
0.000479337
-0.000825186
0.000521873
-0.000927274
0.000554063
-0.00103432
0.000588603
-0.00114527
0.000620843
-0.0012564
0.000646821
-0.0013755
0.000681461
-0.00149309
0.000703088
-0.0016184
0.000734228
-0.00174122
0.000750967
-0.00187172
0.000777046
-0.00199585
0.000784848
-0.00212541
0.000804901
-0.00225682
0.000819393
-0.00238514
0.000825583
-0.00251805
0.000838465
-0.00264906
0.000842939
-0.00277772
0.000843813
-0.00291167
0.000852753
-0.00303833
0.00084588
-0.0031692
0.00085065
-0.00329764
0.000845699
-0.00342334
0.000838461
-0.00355066
0.0008351
-0.00367145
0.000820716
-0.00379299
0.000814255
-0.00391367
0.000805265
-0.00402879
0.000789172
-0.00414491
0.000780069
-0.00425702
0.000763312
-0.00436534
0.000745147
-0.00447301
0.000730999
-0.00458054
0.00071651
-0.00468009
0.000692826
-0.00478009
0.000679388
-0.00487453
0.00065825
-0.00496294
0.000635478
-0.00505185
0.000617315
-0.00513537
0.00059162
-0.00522014
0.000571669
-0.00529982
0.000545148
-0.00537499
0.000527354
-0.00544916
0.000508146
-0.00551589
0.000479796
-0.00557988
0.000456476
-0.0056376
0.000425698
-0.00569434
0.000402908
-0.00574624
0.000376608
-0.00579755
0.000354732
-0.00584182
0.000327315
-0.00588316
0.000301868
-0.00592135
0.000279117
-0.00595707
0.000253609
-0.00598542
0.000224587
-0.00601224
0.000200193
-0.00603333
0.000169696
-0.00605204
0.00014821
-0.00606726
0.000121977
-0.00607743
9.53711e-05
-0.00308023
7.41111e-06
-0.00308614
5.92747e-06
-0.00309049
4.3658e-06
-0.00309305
2.58226e-06
-0.00309346
4.23296e-07
-0.00309135
-2.10383e-06
-0.00308756
-3.78697e-06
-0.0030818
-5.76957e-06
-0.00307421
-7.59037e-06
-0.00306432
-9.88987e-06
-0.00305276
-1.15574e-05
-0.0030394
-1.33639e-05
-0.00302411
-1.52977e-05
-0.00300682
-1.72878e-05
-0.00298787
-1.89509e-05
-0.0029672
-2.06799e-05
-0.00294461
-2.2583e-05
-0.00292011
-2.45057e-05
-0.00289402
-2.6089e-05
-0.00286617
-2.7846e-05
-0.00283665
-2.95148e-05
-0.00280562
-3.10203e-05
-0.00277297
-3.2644e-05
-0.00273873
-3.42377e-05
-0.00270282
-3.59069e-05
-0.00266546
-3.73584e-05
-0.00262665
-3.87991e-05
-0.00258631
-4.03329e-05
-0.00254453
-4.17685e-05
-0.00250147
-4.30566e-05
-0.00245701
-4.44493e-05
-0.0024112
-4.57989e-05
-0.00236423
-4.69587e-05
-0.00231604
-4.81821e-05
-0.00226661
-4.94191e-05
-0.00221611
-5.04942e-05
-0.00216459
-5.1504e-05
-0.00211204
-5.25438e-05
-0.00205838
-5.36501e-05
-0.00200377
-5.45977e-05
-0.00194835
-5.541e-05
-0.00189208
-5.6257e-05
-0.00183499
-5.70883e-05
-0.00177722
-5.77586e-05
-0.00171864
-5.85626e-05
-0.00165935
-5.92801e-05
-0.00159951
-5.98251e-05
-0.00153921
-6.02881e-05
-0.00147834
-6.0859e-05
-0.001417
-6.13308e-05
-0.0013553
-6.16858e-05
-0.00129336
-6.19307e-05
-0.00123101
-6.23386e-05
-0.00116853
-6.24654e-05
-0.00110592
-6.25986e-05
-0.00104337
-6.2531e-05
-0.000980669
-6.26915e-05
-0.000918031
-6.26271e-05
-0.00085562
-6.24002e-05
-0.000793499
-6.21091e-05
-6.17938e-05
-0.000731694
-0.00334822
1.60221e-05
-0.00335273
1.04483e-05
-0.00335526
6.88686e-06
-0.0033557
3.00099e-06
-0.00335619
8.78943e-07
-0.00335258
-5.73947e-06
-0.00334747
-8.93273e-06
-0.00333862
-1.46439e-05
-0.00332933
-1.69118e-05
-0.00331655
-2.26873e-05
-0.00330227
-2.58564e-05
-0.003286
-2.96543e-05
-0.00326776
-3.3546e-05
-0.00324769
-3.737e-05
-0.00322526
-4.13795e-05
-0.00320093
-4.50159e-05
-0.0031746
-4.89159e-05
-0.00314645
-5.26572e-05
-0.00311621
-5.63367e-05
-0.00308415
-5.99033e-05
-0.00305045
-6.3224e-05
-0.00301465
-6.68132e-05
-0.00297707
-7.02286e-05
-0.00293778
-7.35272e-05
-0.00289689
-7.68058e-05
-0.00285435
-7.98932e-05
-0.00281002
-8.31358e-05
-0.00276427
-8.60831e-05
-0.00271695
-8.90894e-05
-0.00266791
-9.20961e-05
-0.00261753
-9.4823e-05
-0.00256586
-9.74669e-05
-0.00251262
-0.000100196
-0.00245805
-0.000102754
-0.00240233
-0.000105131
-0.00234523
-0.000107599
-0.00228692
-0.000109804
-0.00222746
-0.000112006
-0.00216697
-0.000114127
-0.00210541
-0.000116155
-0.00204266
-0.000118159
-0.00197908
-0.00011983
-0.00191463
-0.000121536
-0.0018492
-0.000123178
-0.00178303
-0.000124722
-0.00171608
-0.000126225
-0.00164845
-0.000127441
-0.00158001
-0.000128722
-0.00151108
-0.000129784
-0.00144164
-0.000130761
-0.00137172
-0.000131595
-0.00130153
-0.000132116
-0.0012305
-0.000133357
-0.00115975
-0.000133201
-0.00108823
-0.000134109
-0.0010168
-0.000133948
-0.00094475
-0.000134735
-0.000873346
-0.000134023
-0.000802001
-0.000133735
-0.00073078
-0.000133321
-0.000133262
-0.000659302
-0.00364277
2.28485e-05
-0.00364955
1.72111e-05
-0.0036525
9.80938e-06
-0.00365329
3.75768e-06
-0.00364996
-2.48002e-06
-0.00364685
-8.88041e-06
-0.00363935
-1.64614e-05
-0.00362987
-2.41437e-05
-0.00361847
-2.8324e-05
-0.00360575
-3.54117e-05
-0.00359051
-4.11006e-05
-0.00357156
-4.8613e-05
-0.0035511
-5.40143e-05
-0.00352827
-6.01989e-05
-0.00350331
-6.63454e-05
-0.00347608
-7.22424e-05
-0.00344683
-7.81663e-05
-0.00341551
-8.39739e-05
-0.00338208
-8.97744e-05
-0.00334681
-9.51709e-05
-0.00330919
-0.000100852
-0.00326979
-0.000106217
-0.00322848
-0.000111542
-0.00318526
-0.000116755
-0.00314012
-0.000121944
-0.00309314
-0.000126879
-0.00304444
-0.000131843
-0.00299394
-0.000136584
-0.0029416
-0.000141431
-0.00288792
-0.000145768
-0.00283248
-0.000150261
-0.00277536
-0.000154589
-0.00271703
-0.000158519
-0.00265712
-0.000162668
-0.00259575
-0.000166496
-0.00253307
-0.000170277
-0.00246903
-0.000173838
-0.00240368
-0.000177359
-0.00233714
-0.000180664
-0.00226946
-0.000183829
-0.0022008
-0.000186814
-0.00213085
-0.000189771
-0.00206005
-0.00019233
-0.00198827
-0.00019495
-0.00191564
-0.00019735
-0.00184222
-0.000199639
-0.00176797
-0.000201681
-0.00169302
-0.000203666
-0.00161735
-0.000205447
-0.0015414
-0.000206706
-0.00146431
-0.000208671
-0.00138675
-0.00020967
-0.00130913
-0.000210974
-0.00123122
-0.000211092
-0.00115313
-0.00021219
-0.00107431
-0.000212769
-0.000996091
-0.000212942
-0.000917365
-0.000212741
-0.00083878
-0.000212313
-0.000759967
-0.000212127
-0.000211396
-0.000681824
-0.00397619
3.19306e-05
-0.00398129
2.22844e-05
-0.00398419
1.27123e-05
-0.00398272
2.31106e-06
-0.00397956
-5.60263e-06
-0.00397433
-1.40771e-05
-0.00396545
-2.52969e-05
-0.00395654
-3.29997e-05
-0.00394356
-4.12569e-05
-0.00392867
-5.02546e-05
-0.00390971
-6.00225e-05
-0.00388965
-6.86308e-05
-0.00386727
-7.63706e-05
-0.00384168
-8.57677e-05
-0.00381408
-9.39239e-05
-0.00378411
-0.000102198
-0.0037518
-0.00011046
-0.00371712
-0.000118644
-0.00368036
-0.000126524
-0.00364108
-0.000134448
-0.0036
-0.000141934
-0.00355655
-0.00014967
-0.00351116
-0.000156946
-0.00346367
-0.000164251
-0.00341429
-0.000171328
-0.00336268
-0.000178491
-0.00330917
-0.00018535
-0.00325384
-0.000191907
-0.00319683
-0.000198436
-0.00313769
-0.000204888
-0.00307699
-0.000210952
-0.00301475
-0.000216818
-0.00295061
-0.000222656
-0.00288505
-0.000228221
-0.002818
-0.000233544
-0.00274949
-0.000238783
-0.00267935
-0.000243975
-0.00260793
-0.000248772
-0.0025352
-0.000253394
-0.00246131
-0.000257714
-0.00238605
-0.000262069
-0.00230991
-0.000265908
-0.00223249
-0.000269739
-0.00215417
-0.000273261
-0.00207485
-0.000276667
-0.00199459
-0.000279889
-0.00191349
-0.000282778
-0.00183176
-0.000285384
-0.001749
-0.0002882
-0.00166563
-0.000290074
-0.00158226
-0.000292032
-0.00149775
-0.000294171
-0.00141297
-0.000295741
-0.00132731
-0.000296753
-0.00124213
-0.000297357
-0.00115631
-0.000298579
-0.0010705
-0.000298752
-0.000984826
-0.000298406
-0.00089883
-0.000298302
-0.000813131
-0.000297818
-0.000297194
-0.000727324
-0.00433733
3.92019e-05
-0.00434063
2.55929e-05
-0.00434377
1.58886e-05
-0.00434326
1.89173e-06
-0.00433848
-1.02824e-05
-0.00433168
-2.07628e-05
-0.00432498
-3.18852e-05
-0.00431244
-4.54563e-05
-0.00429789
-5.57214e-05
-0.00427955
-6.85337e-05
-0.00425929
-8.02249e-05
-0.004237
-9.08783e-05
-0.00421087
-0.000102465
-0.00418346
-0.000113154
-0.00415437
-0.000122996
-0.00412048
-0.000136078
-0.00408484
-0.000146098
-0.00404669
-0.000156783
-0.00400603
-0.000167188
-0.00396317
-0.000177309
-0.00391782
-0.000187286
-0.00387052
-0.000196978
-0.00382078
-0.00020669
-0.00376876
-0.000216276
-0.00371433
-0.000225762
-0.00365806
-0.000234762
-0.00359963
-0.000243769
-0.00353902
-0.000252502
-0.00347646
-0.000260977
-0.0034121
-0.000269233
-0.00334573
-0.000277305
-0.00327748
-0.000285061
-0.00320761
-0.000292523
-0.00313608
-0.000299735
-0.0030628
-0.000306823
-0.00298782
-0.000313756
-0.00291155
-0.000320241
-0.00283356
-0.000326754
-0.00275415
-0.000332806
-0.00267326
-0.000338593
-0.00259132
-0.000344007
-0.00250807
-0.000349152
-0.00242379
-0.000354009
-0.00233837
-0.000358672
-0.00225193
-0.000363097
-0.00216485
-0.000366966
-0.00207576
-0.000371855
-0.0019863
-0.000374841
-0.00189669
-0.000377804
-0.00180584
-0.000380919
-0.0017146
-0.000383259
-0.00162311
-0.000385654
-0.00153069
-0.000388158
-0.00143806
-0.000389378
-0.00134403
-0.000391381
-0.00125062
-0.00039198
-0.00115725
-0.000392109
-0.00106359
-0.000392064
-0.000969693
-0.000392192
-0.000876614
-0.000390889
-0.000390375
-0.000783425
-0.00472784
4.6709e-05
-0.00473331
3.11218e-05
-0.00473278
1.54475e-05
-0.00473237
1.5694e-06
-0.00472998
-1.25454e-05
-0.00472163
-2.89939e-05
-0.00470946
-4.39745e-05
-0.00469731
-5.75664e-05
-0.00467946
-7.35967e-05
-0.0046616
-8.64266e-05
-0.00463987
-0.000101997
-0.00461431
-0.000116467
-0.00458682
-0.000129992
-0.0045556
-0.00014441
-0.00452058
-0.000158049
-0.00448386
-0.000172852
-0.00444474
-0.000185263
-0.0044033
-0.000198258
-0.00435872
-0.000211811
-0.00431154
-0.00022451
-0.00426205
-0.000236794
-0.00420982
-0.00024922
-0.00415525
-0.00026127
-0.00409834
-0.000273191
-0.00403913
-0.000284978
-0.00397737
-0.000296524
-0.00391354
-0.000307593
-0.00384737
-0.000318656
-0.00377905
-0.000329291
-0.0037088
-0.000339468
-0.00363635
-0.000349755
-0.0035619
-0.000359515
-0.00348566
-0.000368766
-0.00340771
-0.000377684
-0.00332776
-0.000386775
-0.00324625
-0.000395268
-0.00316282
-0.000403666
-0.00307777
-0.000411796
-0.00299128
-0.000419292
-0.00290338
-0.000426482
-0.00281387
-0.000433515
-0.00272323
-0.000439786
-0.00263134
-0.000445892
-0.00253805
-0.000451956
-0.00244395
-0.000457187
-0.00234881
-0.000462094
-0.00225327
-0.000467389
-0.00215621
-0.000471897
-0.00205805
-0.000475962
-0.00195948
-0.000479487
-0.00185985
-0.000482877
-0.00175937
-0.000486135
-0.00165927
-0.000488249
-0.00155782
-0.00049082
-0.00145672
-0.000492478
-0.00135513
-0.00049356
-0.00125247
-0.000494766
-0.00115027
-0.000494258
-0.00104876
-0.000493695
-0.000946883
-0.000492756
-0.000491878
-0.000845372
-0.0051496
5.43319e-05
-0.00515511
3.6753e-05
-0.00515678
1.71538e-05
-0.00515455
-5.95082e-07
-0.00514653
-2.05513e-05
-0.00513863
-3.68412e-05
-0.00512687
-5.57665e-05
-0.00511128
-7.32862e-05
-0.00509386
-9.11785e-05
-0.00507087
-0.000109613
-0.00504602
-0.000126999
-0.00501915
-0.000143466
-0.00498659
-0.000162641
-0.00495222
-0.00017885
-0.00491609
-0.00019426
-0.0048762
-0.000212808
-0.00483252
-0.000229024
-0.00478619
-0.000244649
-0.00473688
-0.000261182
-0.00468585
-0.000275579
-0.00463131
-0.000291352
-0.00457444
-0.000306108
-0.00451485
-0.000320857
-0.00445254
-0.000335512
-0.00438761
-0.000349908
-0.0043202
-0.00036394
-0.00425024
-0.00037756
-0.00417815
-0.000390741
-0.00410385
-0.000403591
-0.00402713
-0.000416192
-0.00394812
-0.000428789
-0.00386712
-0.000440542
-0.00378389
-0.000452011
-0.00369899
-0.000462599
-0.00361221
-0.000473563
-0.00352343
-0.000484049
-0.00343276
-0.000494324
-0.00334016
-0.00050439
-0.00324589
-0.000513565
-0.00314997
-0.000522395
-0.00305263
-0.000530846
-0.00295348
-0.000538934
-0.00285362
-0.000545746
-0.00275258
-0.000552985
-0.00265066
-0.000559105
-0.00254689
-0.000565856
-0.00244193
-0.00057235
-0.00233641
-0.00057741
-0.00223074
-0.000581624
-0.00212309
-0.000587139
-0.00201509
-0.000590872
-0.00190702
-0.000594194
-0.00179734
-0.000597924
-0.00168767
-0.000600482
-0.00157703
-0.000603113
-0.00146608
-0.000604505
-0.00135559
-0.00060526
-0.00124467
-0.00060517
-0.00113351
-0.000604837
-0.00102269
-0.000603569
-0.000602361
-0.000912206
-0.00560218
6.19041e-05
-0.00560553
4.01684e-05
-0.00560529
1.69272e-05
-0.00560305
-2.94558e-06
-0.00559725
-2.64347e-05
-0.00558594
-4.8252e-05
-0.0055729
-6.8956e-05
-0.00555373
-9.264e-05
-0.00553283
-0.000112319
-0.00550877
-0.00013389
-0.00548277
-0.000153179
-0.00545107
-0.000175265
-0.00541717
-0.00019656
-0.0053798
-0.000216211
-0.00533735
-0.000236671
-0.00529446
-0.000255675
-0.00524793
-0.000275536
-0.00519567
-0.000296906
-0.00514309
-0.00031376
-0.0050858
-0.000332863
-0.00502547
-0.000351678
-0.00496334
-0.000368222
-0.00489863
-0.000385552
-0.00483042
-0.000403713
-0.00475949
-0.000420825
-0.00468578
-0.000437653
-0.00460946
-0.000453877
-0.00453068
-0.000469525
-0.00444951
-0.000484766
-0.00436603
-0.000499698
-0.00427982
-0.000515029
-0.00419175
-0.000528633
-0.0041012
-0.000542588
-0.00400941
-0.000554392
-0.0039151
-0.00056788
-0.00381871
-0.000580431
-0.00372037
-0.00059266
-0.00361959
-0.000605162
-0.00351674
-0.000616412
-0.00341258
-0.000626554
-0.00330688
-0.000636549
-0.00319949
-0.000646318
-0.00309013
-0.000655102
-0.00298092
-0.000662186
-0.00286974
-0.000670278
-0.00275649
-0.000679108
-0.00264399
-0.000684848
-0.00252893
-0.000692465
-0.00241378
-0.000696779
-0.00229778
-0.000703136
-0.00217997
-0.000708679
-0.00206251
-0.000711653
-0.0019439
-0.000716528
-0.00182554
-0.00071883
-0.001705
-0.000723648
-0.00158517
-0.000724338
-0.00146384
-0.000726577
-0.00134338
-0.000725621
-0.00122282
-0.000725385
-0.00110298
-0.000723409
-0.000722727
-0.000982606
-0.00608463
6.91848e-05
-0.00608731
4.29399e-05
-0.00608679
1.64106e-05
-0.00608022
-9.67159e-06
-0.00607239
-3.44956e-05
-0.00606151
-5.93187e-05
-0.00604609
-8.45162e-05
-0.00602621
-0.000112666
-0.00600137
-0.000137227
-0.00597623
-0.000159062
-0.00594504
-0.000184407
-0.00591085
-0.000209387
-0.00587418
-0.000233123
-0.00583097
-0.000259254
-0.00578883
-0.000278608
-0.00573958
-0.000304725
-0.00568633
-0.000328648
-0.00563208
-0.000351053
-0.00557121
-0.000374527
-0.00550979
-0.000394205
-0.00544578
-0.000415636
-0.00537625
-0.000437696
-0.005307
-0.000454752
-0.00523214
-0.000478517
-0.00515399
-0.000498952
-0.00507452
-0.000517108
-0.00499022
-0.000538176
-0.00490527
-0.000554476
-0.00481489
-0.00057514
-0.00472621
-0.000588392
-0.00463017
-0.000611087
-0.00453602
-0.000622801
-0.00443579
-0.000642823
-0.00433811
-0.000652059
-0.0042361
-0.000669876
-0.00413119
-0.000685324
-0.00402585
-0.000697995
-0.0039156
-0.000715413
-0.00380347
-0.00072854
-0.00369203
-0.000737997
-0.00357535
-0.000753222
-0.00345741
-0.000764262
-0.00334081
-0.000771689
-0.00321951
-0.000783485
-0.00310241
-0.000787367
-0.00297751
-0.000804001
-0.00285662
-0.000805737
-0.00272984
-0.000819246
-0.00260748
-0.000819141
-0.00248174
-0.000828876
-0.00235335
-0.000837076
-0.00222835
-0.000836647
-0.00209814
-0.000846732
-0.00197166
-0.000845294
-0.00183829
-0.000857016
-0.00171027
-0.000852355
-0.00157579
-0.000861051
-0.00144904
-0.000852372
-0.00131556
-0.000858855
-0.00118804
-0.000850919
-0.00105411
-0.000856655
-0.000669834
-6.18496e-05
-0.000608385
-6.14381e-05
-0.000547381
-6.0993e-05
-0.000486897
-6.04725e-05
-0.000427022
-5.9864e-05
-0.00036789
-5.91218e-05
-0.000309831
-5.80476e-05
-0.000252998
-5.68222e-05
-0.000197401
-5.55845e-05
-0.000141343
-5.60466e-05
-8.3658e-05
-5.76736e-05
-2.48031e-05
-5.88434e-05
3.35019e-05
-5.8294e-05
8.97378e-05
-5.62252e-05
0.000143866
-5.4118e-05
0.000196411
-5.25348e-05
0.000247496
-5.10747e-05
0.00029714
-4.96339e-05
0.00034532
-4.81706e-05
0.000391958
-4.66288e-05
0.000437045
-4.50777e-05
0.000480467
-4.34122e-05
0.000522097
-4.1622e-05
0.000561816
-3.97096e-05
0.000599566
-3.77426e-05
0.000635282
-3.57072e-05
0.000668836
-3.35467e-05
0.000700086
-3.12431e-05
0.000728915
-2.88217e-05
0.000755229
-2.63064e-05
0.000778817
-2.35821e-05
0.000799515
-2.0691e-05
0.000817194
-1.76736e-05
0.000831595
-1.43936e-05
0.00084248
-1.08804e-05
0.000849598
-7.11199e-06
0.000852769
-3.16574e-06
0.000852636
1.38461e-07
0.000848952
3.68785e-06
0.000841916
7.04218e-06
0.00083094
1.09801e-05
0.000815552
1.53944e-05
0.00079526
2.0296e-05
0.000769623
2.5643e-05
0.000737986
3.16402e-05
0.000699717
3.82751e-05
0.000654188
4.55324e-05
0.000600672
5.35219e-05
0.000538341
6.23366e-05
0.000466491
7.18561e-05
0.000384498
8.19983e-05
0.000291945
9.25594e-05
0.000188112
0.000103837
7.07016e-05
0.000117414
-6.32326e-05
0.000133937
-0.000201258
0.000138029
-0.000323462
0.000122207
-0.00042047
9.70117e-05
-0.000492022
7.15564e-05
-0.000546015
5.39954e-05
4.59449e-05
-0.000591956
-0.000588452
-0.00013269
-0.000517433
-0.000132447
-0.000446667
-0.000131749
-0.000376172
-0.000130958
-0.000306266
-0.00012976
-0.000236629
-0.000128748
-0.000167638
-0.000127028
-9.92432e-05
-0.000125207
-3.08361e-05
-0.000123981
3.79665e-05
-0.000124839
0.000105875
-0.000125572
0.000172424
-0.000125384
0.000238227
-0.000124088
0.000303568
-0.000121557
0.00036817
-0.000118712
0.000431718
-0.000116074
0.000494056
-0.000113404
0.000555149
-0.000110719
0.000614912
-0.000107926
0.00067333
-0.000105039
0.000730358
-0.000102098
0.000785834
-9.88798e-05
0.000839737
-9.55176e-05
0.000892034
-9.19992e-05
0.000942605
-8.8306e-05
0.000991379
-8.44748e-05
0.00103821
-8.03724e-05
0.00108313
-7.61524e-05
0.00112597
-7.16558e-05
0.00116655
-6.68799e-05
0.00120489
-6.19237e-05
0.0012409