/*--------------------------------*- C++ -*----------------------------------*\
| =========                 |                                                 |
| \\      /  F ield         | OpenFOAM: The Open Source CFD Toolbox           |
|  \\    /   O peration     | Version:  2.3.1                                 |
|   \\  /    A nd           | Web:      www.OpenFOAM.org                      |
|    \\/     M anipulation  |                                                 |
\*---------------------------------------------------------------------------*/
FoamFile
{
    version     2.0;
    format      ascii;
    class       volVectorField;
    location    "2940";
    object      D;
}
// * * * * * * * * * * * * * * * * * * * * * * * * * * * * * * * * * * * * * //

dimensions      [0 1 0 0 0 0 0];

internalField   nonuniform List<vector> 
11800
(
(8.76376e-06 0.000249707 0)
(-1.10814e-05 0.000278213 0)
(6.16408e-06 8.39858e-05 0)
(-7.03821e-06 0.00011428 0)
(-1.01243e-05 0.000277742 0)
(-4.56182e-06 0.000114504 0)
(-1.68235e-06 0.000187394 0)
(-1.60132e-06 0.000144422 0)
(7.35887e-07 2.21117e-05 0)
(1.3404e-06 8.71155e-05 0)
(9.7311e-06 0.000249116 0)
(-8.77104e-06 9.73978e-05 0)
(-8.59306e-09 -6.8419e-09 0)
(5.47832e-06 8.34783e-05 0)
(-6.24323e-06 0.000114762 0)
(6.016e-06 1.3561e-05 0)
(-9.43658e-07 0.000186847 0)
(-9.14261e-07 0.000143904 0)
(4.15002e-07 2.23568e-05 0)
(8.26997e-07 8.66836e-05 0)
(-5.36777e-06 0.000114082 0)
(-8.03734e-06 9.77848e-05 0)
(-1.32182e-06 4.78839e-06 0)
(-1.41084e-06 4.98657e-06 0)
(5.36754e-06 1.54915e-05 0)
(-2.11428e-06 7.94238e-06 0)
(-8.59505e-06 5.81019e-05 0)
(1.24794e-05 0.000167948 0)
(-7.6574e-06 4.40666e-05 0)
(-6.62828e-06 3.16796e-05 0)
(1.32177e-05 0.000212351 0)
(5.47803e-08 3.7277e-06 0)
(2.75222e-06 1.02122e-05 0)
(-6.73984e-06 0.000285497 0)
(5.45881e-06 0.000284212 0)
(-1.50667e-05 0.000226782 0)
(5.08487e-06 0.000285192 0)
(2.7087e-06 1.04994e-05 0)
(-1.64499e-06 0.000197929 0)
(1.34375e-06 9.56728e-05 0)
(-8.45116e-06 5.87533e-05 0)
(-7.53687e-06 4.46474e-05 0)
(1.21913e-05 0.000166987 0)
(-6.53174e-06 3.21886e-05 0)
(1.29243e-05 0.000211341 0)
(5.73861e-06 1.3669e-05 0)
(1.51944e-06 5.67047e-06 0)
(1.69398e-06 5.58011e-06 0)
(-2.58092e-06 0.000198099 0)
(2.09453e-06 9.58074e-05 0)
(-1.43191e-05 0.000146339 0)
(-1.52953e-05 0.000189323 0)
(-1.41221e-06 0.000247041 0)
(7.67913e-08 3.53743e-06 0)
(-7.37728e-06 1.61523e-05 0)
(1.00253e-06 8.34156e-07 0)
(-1.88016e-05 0.000289411 0)
(-4.73023e-06 8.08544e-05 0)
(5.39694e-06 0.00011788 0)
(-3.4386e-06 7.76735e-05 0)
(2.00153e-06 2.65857e-06 0)
(-2.42667e-06 0.000247226 0)
(-4.1137e-06 8.06718e-05 0)
(4.70547e-06 0.000118098 0)
(5.02758e-06 1.52545e-05 0)
(-1.79503e-05 0.000255857 0)
(-1.48547e-05 0.0001457 0)
(-1.59217e-05 0.000188621 0)
(-1.78584e-05 0.000288944 0)
(-2.21867e-06 8.20035e-06 0)
(-6.0089e-06 0.000286298 0)
(-1.06032e-05 0.00028475 0)
(-1.09113e-05 0.000283739 0)
(-9.47454e-08 1.06346e-07 0)
(2.13737e-06 2.77276e-06 0)
(-1.41926e-05 0.000227418 0)
(6.58817e-06 2.14053e-05 0)
(-1.82414e-05 0.000256813 0)
(-1.45272e-05 0.000258981 0)
(-1.35727e-05 0.000259846 0)
(-7.03271e-06 1.59312e-05 0)
(1.07077e-06 9.93434e-05 0)
(9.98737e-06 0.000282521 0)
(8.91425e-06 0.000282696 0)
(-1.2948e-06 0.000102099 0)
(-6.37022e-06 3.56748e-05 0)
(1.19484e-05 0.000204646 0)
(-7.27504e-06 4.86244e-05 0)
(-8.10453e-06 6.3195e-05 0)
(1.12394e-05 0.000160646 0)
(-3.31069e-07 0.000241703 0)
(2.92561e-06 9.70762e-06 0)
(-9.026e-06 0.00026065 0)
(1.86453e-05 0.000291625 0)
(2.95359e-06 0.000125911 0)
(-2.28945e-09 -1.74165e-09 0)
(5.91511e-11 -3.69809e-10 0)
(2.28883e-09 -1.74153e-09 0)
(-1.99482e-07 0.000250076 0)
(-8.32728e-06 9.9551e-05 0)
(1.60476e-05 0.000290583 0)
(9.70557e-06 0.000109374 0)
(-3.55037e-06 1.41842e-05 0)
(-8.01753e-07 1.09489e-05 0)
(-5.2809e-07 0.000276498 0)
(9.73655e-07 2.31299e-05 0)
(-2.0542e-06 0.000142311 0)
(-2.13489e-06 0.000185054 0)
(3.1072e-06 5.29961e-06 0)
(7.32806e-06 4.86027e-05 0)
(6.41776e-06 3.56553e-05 0)
(8.16333e-06 6.31705e-05 0)
(-1.21246e-05 0.000204671 0)
(-1.14076e-05 0.00016068 0)
(1.73227e-06 8.5342e-05 0)
(2.45883e-06 4.83238e-06 0)
(1.77842e-05 0.000256902 0)
(-7.28241e-06 0.000263699 0)
(2.5039e-06 4.65609e-06 0)
(-1.22122e-06 8.81986e-05 0)
(-7.32431e-07 2.15281e-05 0)
(1.62124e-06 0.00018877 0)
(1.53916e-06 0.000145656 0)
(-2.25121e-06 0.000181033 0)
(-9.08486e-06 0.000261631 0)
(-8.00596e-07 0.000249296 0)
(-5.83829e-06 0.000276607 0)
(-1.36239e-06 0.000275856 0)
(-2.01768e-05 0.000298989 0)
(-2.08976e-05 0.000298266 0)
(-5.87998e-07 2.65034e-07 0)
(-2.66412e-06 6.26451e-06 0)
(1.22579e-05 0.000198569 0)
(-6.8377e-06 3.90037e-05 0)
(1.14881e-05 0.00015494 0)
(-7.75062e-06 5.24033e-05 0)
(-8.58682e-06 6.7387e-05 0)
(1.13097e-05 0.00019875 0)
(-6.30144e-06 3.88875e-05 0)
(1.06006e-05 0.000155107 0)
(-7.14454e-06 5.22746e-05 0)
(-7.91684e-06 6.72469e-05 0)
(-1.66464e-06 1.99403e-05 0)
(3.9683e-06 0.000192383 0)
(3.70327e-06 0.000149137 0)
(-3.15382e-06 9.10741e-05 0)
(1.52713e-05 9.99633e-05 0)
(-1.5187e-05 9.77845e-05 0)
(9.54688e-06 0.000110167 0)
(-1.12277e-06 1.16185e-05 0)
(-1.00465e-05 0.000240589 0)
(-9.95967e-06 0.000241862 0)
(4.89426e-06 0.000282039 0)
(-1.12347e-05 0.000227098 0)
(4.49654e-06 0.000160566 0)
(4.87783e-06 0.000204538 0)
(-1.25148e-05 0.00018025 0)
(-1.16126e-05 0.000137842 0)
(5.89437e-06 2.54902e-05 0)
(-9.26294e-07 0.000242608 0)
(3.37802e-06 5.39373e-06 0)
(-1.0268e-05 0.000227322 0)
(6.89608e-06 2.17147e-05 0)
(-4.59361e-06 6.57726e-05 0)
(-4.13748e-06 5.09361e-05 0)
(-3.63983e-06 3.76972e-05 0)
(6.25207e-06 0.00015695 0)
(6.66297e-06 0.000200723 0)
(-2.98429e-06 3.70531e-06 0)
(-5.41058e-06 2.45225e-05 0)
(1.16663e-05 0.000182244 0)
(1.08175e-05 0.000139713 0)
(2.59934e-06 0.000184851 0)
(-1.7163e-05 0.000225728 0)
(-1.73361e-05 0.00022708 0)
(6.18073e-06 1.55185e-05 0)
(6.1887e-06 1.5946e-05 0)
(6.78159e-06 4.71984e-05 0)
(7.57129e-06 6.16083e-05 0)
(5.92155e-06 3.44199e-05 0)
(-1.07292e-05 0.000162843 0)
(-1.13899e-05 0.000206985 0)
(4.57426e-06 0.000159562 0)
(4.90486e-06 0.000203505 0)
(4.97956e-06 9.73929e-05 0)
(-2.38882e-06 9.08688e-05 0)
(-1.26694e-06 2.0043e-05 0)
(3.00137e-06 0.000192126 0)
(2.79984e-06 0.000148897 0)
(-3.92155e-06 0.000237305 0)
(-1.33167e-06 4.17707e-05 0)
(-1.50144e-06 5.55429e-05 0)
(-1.47718e-05 0.000253891 0)
(-4.09177e-07 9.53615e-06 0)
(-1.42701e-05 0.000119786 0)
(1.23134e-05 7.94681e-05 0)
(1.43779e-07 1.38316e-07 0)
(-8.84487e-06 0.000285952 0)
(1.76602e-05 0.000257935 0)
(-5.12898e-07 3.07579e-07 0)
(1.163e-05 0.00027033 0)
(1.45298e-05 0.000231078 0)
(1.55841e-05 0.000231267 0)
(-4.64633e-07 0.000277897 0)
(-1.19215e-06 0.000278787 0)
(8.23244e-06 7.75496e-05 0)
(7.2711e-06 7.78923e-05 0)
(-9.73661e-06 0.00012182 0)
(-8.57937e-06 0.000121393 0)
(5.79147e-07 2.61111e-07 0)
(-1.62461e-06 1.39367e-05 0)
(-1.83061e-06 7.77299e-06 0)
(-4.29021e-08 1.61647e-08 0)
(5.56619e-06 9.20875e-06 0)
(-1.33467e-07 4.24619e-08 0)
(7.21435e-07 7.63463e-06 0)
(-1.0031e-05 0.000276438 0)
(-4.87058e-06 3.48204e-05 0)
(-5.5592e-06 4.76686e-05 0)
(-6.20234e-06 6.2137e-05 0)
(9.20992e-06 0.000206161 0)
(8.69583e-06 0.000162086 0)
(5.87731e-07 0.00019177 0)
(5.46273e-07 0.000148561 0)
(-2.62243e-07 2.01862e-05 0)
(-4.96942e-07 9.05987e-05 0)
(-1.95854e-07 3.25659e-08 0)
(7.54794e-07 2.52308e-05 0)
(-1.52e-06 0.000138101 0)
(-4.55204e-06 8.75145e-05 0)
(1.05446e-06 2.4861e-05 0)
(-2.13581e-06 0.00013883 0)
(-6.8589e-06 0.000261596 0)
(8.48775e-06 9.81047e-05 0)
(7.90724e-06 9.73531e-05 0)
(4.26818e-08 1.60873e-08 0)
(1.95389e-07 3.2485e-08 0)
(-1.32912e-05 0.000243503 0)
(-1.27868e-05 0.000244534 0)
(-1.25748e-05 8.31131e-05 0)
(1.41311e-05 0.000115526 0)
(1.13001e-05 0.000206897 0)
(1.06416e-05 0.000162765 0)
(-5.92173e-06 3.44706e-05 0)
(-6.78418e-06 4.72526e-05 0)
(-7.57398e-06 6.16688e-05 0)
(-4.16943e-07 0.0002483 0)
(-5.00033e-06 2.34626e-05 0)
(1.10285e-05 0.000184519 0)
(1.02418e-05 0.000141823 0)
(6.77754e-06 9.91271e-05 0)
(5.70819e-06 0.000234174 0)
(8.96913e-06 0.000291975 0)
(9.23719e-07 7.52413e-06 0)
(-3.33977e-06 7.84691e-05 0)
(-9.78394e-09 2.78561e-06 0)
(1.32983e-07 4.2323e-08 0)
(3.20472e-06 8.27865e-05 0)
(2.75699e-06 8.19243e-05 0)
(-3.48832e-06 0.000115737 0)
(-2.98969e-06 0.00011659 0)
(6.18626e-06 6.21181e-05 0)
(5.54505e-06 4.76517e-05 0)
(4.84684e-06 3.48115e-05 0)
(-8.73276e-06 0.000162087 0)
(-9.27508e-06 0.000206188 0)
(-4.91693e-06 0.000286037 0)
(1.68587e-06 2.05767e-06 0)
(-6.36648e-09 0.000164603 0)
(-1.92967e-08 3.33368e-05 0)
(6.51921e-06 0.000276009 0)
(5.32306e-06 9.66898e-05 0)
(-2.06908e-05 0.000272741 0)
(6.11818e-06 9.98407e-05 0)
(2.40595e-07 1.76836e-07 0)
(1.7009e-05 0.000222942 0)
(1.71072e-05 0.000221691 0)
(-1.04186e-05 0.000142003 0)
(-1.12179e-05 0.000184707 0)
(-9.3085e-06 0.000141646 0)
(-1.00252e-05 0.000184326 0)
(5.03762e-06 2.33764e-05 0)
(4.51625e-06 2.35307e-05 0)
(5.06093e-06 0.000130463 0)
(6.02129e-06 0.000130311 0)
(5.48837e-06 0.000172259 0)
(6.53236e-06 0.000172093 0)
(-2.81036e-06 2.93259e-05 0)
(-3.34682e-06 2.94211e-05 0)
(-5.91501e-07 1.32097e-05 0)
(2.97638e-06 8.43191e-06 0)
(2.78644e-06 8.14069e-06 0)
(2.84497e-06 6.16393e-06 0)
(4.87974e-06 0.000235179 0)
(-1.68872e-05 0.000223352 0)
(-1.69775e-05 0.000222053 0)
(6.38364e-06 1.73293e-05 0)
(6.25819e-06 1.68361e-05 0)
(1.33985e-05 9.99849e-05 0)
(1.35789e-05 0.000101104 0)
(-1.33154e-05 9.7707e-05 0)
(-1.33858e-05 9.66064e-05 0)
(6.03963e-06 0.00028185 0)
(-1.65727e-05 0.000285523 0)
(-1.59304e-05 0.000240383 0)
(3.76557e-06 4.25788e-06 0)
(-9.73713e-06 0.000281943 0)
(-8.69556e-06 0.000280977 0)
(4.11622e-06 0.000131952 0)
(-2.56197e-06 0.000118607 0)
(2.26939e-06 8.02372e-05 0)
(-1.14206e-05 0.000100358 0)
(1.11763e-05 9.72392e-05 0)
(-5.43217e-06 1.70296e-05 0)
(-1.59815e-07 1.01648e-07 0)
(8.57648e-07 3.50381e-06 0)
(1.01743e-06 8.5612e-05 0)
(-9.61842e-06 8.62181e-05 0)
(1.03364e-05 0.000111825 0)
(-5.54172e-06 7.85007e-05 0)
(6.57148e-06 0.00012068 0)
(3.32226e-06 0.000210117 0)
(4.58681e-06 0.000209665 0)
(-1.97034e-06 4.52622e-05 0)
(-2.71851e-06 4.55347e-05 0)
(-2.20722e-06 5.94591e-05 0)
(-3.04387e-06 5.97627e-05 0)
(5.22491e-07 2.29719e-05 0)
(-1.12523e-06 0.000142629 0)
(-1.13941e-06 0.000185416 0)
(-1.84044e-06 0.000271421 0)
(2.60181e-06 6.12464e-06 0)
(-5.22342e-07 0.000115567 0)
(-7.87173e-06 0.000278227 0)
(1.08036e-06 8.65318e-07 0)
(7.02723e-06 0.000165391 0)
(-3.82588e-06 3.2971e-05 0)
(-1.19005e-05 0.00011679 0)
(-1.11773e-05 0.000116209 0)
(1.04007e-05 8.19435e-05 0)
(9.80373e-06 8.24406e-05 0)
(-1.17865e-05 0.000290137 0)
(-1.19162e-05 0.000288892 0)
(-1.95135e-06 1.32923e-05 0)
(-2.31356e-06 1.32421e-05 0)
(9.39014e-07 3.67215e-06 0)
(-2.22713e-06 3.81091e-06 0)
(5.49342e-07 0.000121264 0)
(3.41689e-06 2.38015e-05 0)
(2.87272e-06 2.39529e-05 0)
(-7.00518e-06 0.000141027 0)
(-5.87431e-06 0.000140694 0)
(-7.54659e-06 0.000183669 0)
(-6.32961e-06 0.000183312 0)
(-1.52859e-05 0.000232639 0)
(-1.41457e-05 0.000232731 0)
(-3.35867e-06 7.02444e-05 0)
(-3.10598e-06 5.49618e-05 0)
(-2.7525e-06 4.12563e-05 0)
(4.82638e-06 0.000217078 0)
(-8.34028e-07 0.000245889 0)
(1.00549e-05 9.71456e-05 0)
(9.51999e-06 9.79892e-05 0)
(4.45202e-06 0.000187795 0)
(4.25825e-06 0.000144808 0)
(-2.01526e-06 2.1942e-05 0)
(1.89052e-06 2.45667e-05 0)
(1.5549e-06 2.50449e-05 0)
(-3.47006e-06 0.000180997 0)
(-4.12726e-06 0.00018193 0)
(-3.82417e-06 0.000139431 0)
(-3.11779e-06 0.000138478 0)
(-4.00569e-06 2.25215e-05 0)
(8.38412e-06 0.000143695 0)
(9.01613e-06 0.000186537 0)
(-1.09126e-07 1.03847e-06 0)
(1.49497e-05 0.000110847 0)
(-1.37495e-05 8.73725e-05 0)
(-6.14382e-08 9.66192e-07 0)
(-4.51351e-06 0.000206855 0)
(-5.29216e-06 0.000207992 0)
(-4.14176e-06 0.000162806 0)
(-4.84912e-06 0.000163884 0)
(2.63708e-06 3.37749e-05 0)
(2.27096e-06 3.43677e-05 0)
(3.11527e-06 4.65319e-05 0)
(2.67295e-06 4.72081e-05 0)
(3.48186e-06 6.08758e-05 0)
(2.98411e-06 6.16309e-05 0)
(1.6843e-05 0.000233089 0)
(1.71568e-05 0.000234274 0)
(-1.58942e-06 7.83653e-06 0)
(6.31844e-06 0.000166214 0)
(-3.41644e-06 3.25159e-05 0)
(5.54391e-06 2.57095e-05 0)
(-1.0871e-05 0.000137385 0)
(-1.17435e-05 0.000179731 0)
(-1.55603e-07 4.72977e-08 0)
(2.18305e-06 0.000242927 0)
(5.47461e-06 2.45274e-05 0)
(-1.10222e-05 0.000139708 0)
(-1.18978e-05 0.0001822 0)
(4.16345e-06 7.15761e-06 0)
(-8.3237e-06 0.000263319 0)
(5.25512e-06 1.95764e-05 0)
(-1.31396e-05 0.000216142 0)
(-2.81397e-06 1.05243e-05 0)
(-3.00199e-06 1.09105e-05 0)
(2.94264e-06 1.07967e-05 0)
(-1.42515e-06 0.000115388 0)
(-1.09746e-08 -8.07709e-09 0)
(-8.83847e-06 0.000288546 0)
(-1.39511e-07 5.55244e-08 0)
(1.54969e-07 4.71195e-08 0)
(-4.11193e-06 2.37591e-05 0)
(8.99817e-06 0.000183804 0)
(8.35197e-06 0.000141155 0)
(6.92999e-06 0.00024331 0)
(-1.99221e-05 0.000261063 0)
(2.55077e-06 0.000108 0)
(-1.64846e-06 0.000105174 0)
(-4.53145e-07 1.10125e-05 0)
(-1.27155e-06 1.33175e-06 0)
(-7.92249e-09 -7.13444e-09 0)
(-4.97137e-06 7.92343e-05 0)
(5.89078e-06 0.000119834 0)
(4.32239e-07 1.51583e-07 0)
(-6.66062e-07 0.000103624 0)
(-6.28632e-07 0.000102622 0)
(-2.0626e-08 8.69782e-05 0)
(-1.20467e-07 2.22219e-05 0)
(2.17276e-07 0.000144185 0)
(1.94384e-07 0.000187218 0)
(-4.34513e-07 1.52374e-07 0)
(1.78006e-06 1.19123e-05 0)
(-6.87911e-06 0.000212617 0)
(3.93618e-06 4.3827e-05 0)
(4.41985e-06 5.7848e-05 0)
(4.85931e-06 7.34021e-05 0)
(1.44434e-05 0.000276957 0)
(-5.32902e-06 2.12545e-05 0)
(1.23861e-05 0.000189551 0)
(1.15414e-05 0.00014651 0)
(-8.19592e-06 0.000255455 0)
(1.19838e-06 3.06327e-06 0)
(1.10397e-05 0.000250706 0)
(-2.37797e-06 3.75347e-06 0)
(7.7341e-06 0.000278059 0)
(-5.93064e-06 0.000212641 0)
(3.3884e-06 4.38081e-05 0)
(3.80491e-06 5.7828e-05 0)
(4.18598e-06 7.33762e-05 0)
(1.0468e-06 2.90306e-06 0)
(5.09654e-06 0.00017043 0)
(-2.65593e-06 3.02664e-05 0)
(-9.01353e-07 1.18627e-05 0)
(-1.45024e-05 0.000251599 0)
(-5.39877e-06 6.60164e-05 0)
(-4.86424e-06 5.11575e-05 0)
(-4.28093e-06 3.78942e-05 0)
(7.29818e-06 0.000156693 0)
(7.77879e-06 0.000200448 0)
(1.99072e-05 0.000293541 0)
(1.15882e-05 0.000257578 0)
(1.28483e-05 0.000257135 0)
(1.62577e-07 1.14019e-07 0)
(7.20797e-06 7.87913e-05 0)
(-8.44357e-06 0.000120324 0)
(-3.6744e-06 7.9917e-05 0)
(4.28653e-06 0.000119069 0)
(-1.24053e-06 0.000128263 0)
(-9.43239e-07 0.000208206 0)
(5.96026e-07 6.07183e-05 0)
(5.33281e-07 4.63884e-05 0)
(2.95549e-08 3.26496e-05 0)
(-2.08322e-07 0.000124639 0)
(-9.53874e-08 0.000165908 0)
(9.10991e-06 0.000293145 0)
(5.17471e-07 1.22183e-05 0)
(-2.25249e-07 2.82665e-06 0)
(1.74355e-06 0.000176142 0)
(8.78519e-08 2.92326e-06 0)
(-1.35179e-06 9.12718e-06 0)
(3.37884e-06 3.25702e-05 0)
(-6.36961e-06 0.000166106 0)
(-1.27051e-07 1.40459e-07 0)
(-1.34327e-05 0.000251481 0)
(-1.12272e-06 2.17973e-05 0)
(2.3822e-06 0.000188218 0)
(2.36305e-06 0.000145089 0)
(3.04003e-07 7.29668e-08 0)
(-3.99329e-06 7.27547e-06 0)
(4.40075e-06 5.92812e-05 0)
(3.92801e-06 4.51066e-05 0)
(-6.76525e-06 0.000210421 0)
(1.30574e-06 8.238e-05 0)
(-9.08911e-06 0.00028483 0)
(-1.52776e-07 2.14234e-08 0)
(-5.22632e-06 1.13791e-05 0)
(3.38697e-06 6.26759e-06 0)
(-3.41464e-06 3.7515e-06 0)
(1.01229e-05 9.89256e-05 0)
(7.6949e-06 0.000120347 0)
(-6.61476e-06 7.87642e-05 0)
(4.73067e-07 3.23163e-05 0)
(-1.10327e-06 0.000125112 0)
(-9.23998e-07 0.000166526 0)
(9.65638e-06 0.000247856 0)
(8.99465e-06 0.000108356 0)
(4.67841e-06 0.000287032 0)
(4.50688e-06 0.000288104 0)
(1.30567e-06 0.000119786 0)
(1.78379e-06 8.17628e-05 0)
(1.52404e-07 2.13685e-08 0)
(-1.29824e-05 0.000224728 0)
(4.72663e-06 1.62452e-05 0)
(1.63455e-08 2.24846e-07 0)
(2.48265e-06 0.000160487 0)
(3.24529e-06 0.000161043 0)
(4.44428e-09 1.9626e-08 0)
(-2.4861e-06 6.06409e-06 0)
(6.16217e-06 6.02737e-05 0)
(5.50853e-06 4.59986e-05 0)
(4.79979e-06 3.33139e-05 0)
(-8.84437e-06 0.000164614 0)
(-9.37957e-06 0.000208955 0)
(8.17767e-06 0.000103126 0)
(1.19183e-06 0.000243188 0)
(-5.29114e-06 0.000274249 0)
(-5.00978e-06 0.000275697 0)
(-5.14274e-07 0.00021158 0)
(-4.41541e-07 0.000212743 0)
(3.59431e-07 4.37094e-05 0)
(3.27588e-07 4.43559e-05 0)
(4.03455e-07 5.77211e-05 0)
(3.67262e-07 5.84458e-05 0)
(2.6415e-07 7.3261e-05 0)
(3.16461e-07 7.40356e-05 0)
(6.41523e-07 0.000120186 0)
(1.17991e-06 0.000122115 0)
(2.05181e-06 0.000186029 0)
(-5.24958e-07 0.000127948 0)
(-3.04803e-07 7.31655e-08 0)
(-3.40498e-07 2.69578e-06 0)
(4.48874e-06 0.000169525 0)
(-2.36104e-06 3.07354e-05 0)
(1.19215e-06 3.74215e-06 0)
(1.75322e-05 0.000278318 0)
(-1.34013e-06 0.000213672 0)
(8.28542e-07 4.32177e-05 0)
(9.31139e-07 5.71693e-05 0)
(9.17287e-07 7.26208e-05 0)
(-1.34045e-05 0.000233842 0)
(4.62112e-06 8.37142e-05 0)
(6.83586e-06 0.000295424 0)
(7.7309e-06 0.000294766 0)
(-1.34358e-06 9.41105e-06 0)
(-8.5518e-07 0.00016374 0)
(4.46493e-07 3.38123e-05 0)
(1.99726e-07 2.04469e-07 0)
(1.72032e-05 0.000286172 0)
(-2.3677e-07 4.76154e-06 0)
(-3.24399e-06 4.9045e-05 0)
(-3.61177e-06 6.36748e-05 0)
(-4.32125e-06 6.43433e-05 0)
(-3.88485e-06 4.96476e-05 0)
(-2.81044e-06 3.6017e-05 0)
(-3.39926e-06 3.65616e-05 0)
(5.69017e-06 0.000158909 0)
(6.05993e-06 0.000202817 0)
(2.48341e-06 3.39593e-06 0)
(-1.59911e-07 9.73571e-08 0)
(-1.48509e-05 0.000193546 0)
(-1.54712e-05 0.000285588 0)
(5.04735e-06 0.000122019 0)
(-4.35373e-07 4.87234e-06 0)
(-8.03727e-06 0.000158621 0)
(-8.55349e-06 0.0002025 0)
(4.59367e-06 3.67836e-05 0)
(5.23135e-06 4.98954e-05 0)
(5.81631e-06 6.46149e-05 0)
(7.44712e-06 0.000244118 0)
(1.69161e-05 0.000287189 0)
(-9.11877e-06 9.98141e-05 0)
(3.76316e-06 3.29622e-05 0)
(-7.06289e-06 0.000165384 0)
(4.82938e-06 0.000122968 0)
(-1.83769e-06 8.76575e-05 0)
(4.87399e-06 5.97861e-05 0)
(4.35379e-06 4.55591e-05 0)
(-7.45678e-06 0.000209663 0)
(-1.35553e-05 0.00010096 0)
(1.32173e-05 9.68049e-05 0)
(1.32168e-05 9.78838e-05 0)
(-1.33774e-05 9.98146e-05 0)
(-6.27601e-06 1.68266e-05 0)
(-6.45957e-06 1.73497e-05 0)
(-6.28955e-06 9.7869e-05 0)
(-3.21793e-06 3.8413e-06 0)
(-1.01738e-05 9.86194e-05 0)
(-1.48838e-06 0.000235197 0)
(-1.31679e-06 1.58079e-06 0)
(1.02262e-05 5.75454e-05 0)
(9.10359e-06 4.35773e-05 0)
(-1.44052e-05 0.000147614 0)
(2.32732e-06 5.98231e-05 0)
(2.07916e-06 4.55881e-05 0)
(-3.5813e-06 0.000209568 0)
(4.79886e-06 1.45153e-05 0)
(7.95942e-06 0.000119373 0)
(-6.88908e-06 7.96097e-05 0)
(-3.79705e-06 4.27761e-06 0)
(4.08575e-06 0.000186773 0)
(3.90527e-06 0.000143894 0)
(-1.86988e-06 2.23747e-05 0)
(1.18524e-05 0.000176373 0)
(-5.82046e-06 2.73441e-05 0)
(1.09451e-05 0.000134279 0)
(-6.63911e-06 1.66033e-05 0)
(8.35067e-06 0.000274801 0)
(9.57791e-06 0.000274399 0)
(9.22748e-06 0.000208961 0)
(8.74665e-06 0.000164632 0)
(-4.78972e-06 3.34089e-05 0)
(-5.47041e-06 4.59936e-05 0)
(-6.11998e-06 6.02682e-05 0)
(-1.38714e-06 1.37054e-06 0)
(-7.3349e-06 0.000255194 0)
(8.00539e-06 0.000162807 0)
(-4.45204e-06 3.44102e-05 0)
(-8.431e-07 1.053e-06 0)
(6.8395e-06 0.000277878 0)
(1.67477e-06 1.37968e-06 0)
(1.38925e-06 1.04644e-06 0)
(3.51682e-06 5.01787e-06 0)
(8.26993e-06 0.000223372 0)
(-1.40082e-05 0.000229519 0)
(1.86435e-05 0.000278673 0)
(3.56151e-06 5.2745e-06 0)
(8.1902e-06 0.000108323 0)
(1.12239e-05 0.000236837 0)
(-1.80376e-05 0.00022395 0)
(6.64429e-06 1.66399e-05 0)
(-4.14294e-06 0.000238324 0)
(1.68568e-06 6.00088e-05 0)
(1.50642e-06 4.57537e-05 0)
(-2.60182e-06 0.000209282 0)
(-6.26961e-07 3.01962e-06 0)
(4.78413e-06 0.000128738 0)
(1.38103e-07 5.49989e-08 0)
(-5.52534e-06 1.12694e-05 0)
(-9.76626e-07 0.000105827 0)
(-2.47182e-06 2.04444e-05 0)
(-2.87661e-06 2.05792e-05 0)
(5.44105e-06 0.000148058 0)
(6.3169e-06 0.000147783 0)
(6.77401e-06 0.000190928 0)
(5.83394e-06 0.000191225 0)
(1.62703e-07 6.09246e-07 0)
(-4.2289e-08 7.60052e-06 0)
(-9.78514e-06 0.000133031 0)
(-1.06061e-05 0.000175025 0)
(5.23638e-06 2.79898e-05 0)
(-3.08425e-06 1.66717e-05 0)
(-1.83606e-06 0.000179959 0)
(-2.79632e-06 7.14772e-06 0)
(5.7204e-06 0.00027524 0)
(-4.6173e-06 9.01424e-05 0)
(-5.3496e-06 8.99155e-05 0)
(1.59303e-07 1.6185e-07 0)
(-3.05984e-06 9.32274e-05 0)
(-1.55484e-06 1.88099e-05 0)
(3.56836e-06 0.000151685 0)
(3.81696e-06 0.000195108 0)
(-4.28892e-06 0.000179989 0)
(-3.77557e-06 0.000137553 0)
(1.90609e-06 2.5522e-05 0)
(2.53885e-06 9.58991e-06 0)
(2.35808e-06 9.24188e-06 0)
(1.22664e-06 8.98792e-05 0)
(-1.59887e-06 0.000190858 0)
(-1.4989e-06 0.000147692 0)
(6.61405e-07 2.05839e-05 0)
(-1.46903e-06 3.54468e-05 0)
(-2.63328e-06 7.34711e-06 0)
(1.06584e-05 0.000281708 0)
(-1.04048e-05 0.000168495 0)
(8.01852e-06 7.92955e-05 0)
(-9.35142e-06 0.000119757 0)
(1.13612e-05 0.000237906 0)
(-1.04524e-05 7.28875e-05 0)
(-9.52017e-06 5.7375e-05 0)
(1.27698e-05 0.000127475 0)
(-8.47194e-06 4.34226e-05 0)
(-7.33256e-06 3.11401e-05 0)
(1.39408e-05 0.000169022 0)
(1.47356e-05 0.000213541 0)
(-3.82937e-06 0.000204341 0)
(-3.60348e-06 0.000160347 0)
(2.29984e-06 4.87283e-05 0)
(2.0154e-06 3.57514e-05 0)
(2.56137e-06 6.3324e-05 0)
(2.19934e-06 4.94288e-05 0)
(-3.63726e-06 0.000203196 0)
(2.44676e-06 6.41029e-05 0)
(1.93014e-06 3.63665e-05 0)
(-3.42053e-06 0.000159269 0)
(-2.02249e-06 0.000259205 0)
(-4.1042e-06 5.38282e-06 0)
(-4.4491e-06 2.52806e-05 0)
(9.42895e-06 0.000180555 0)
(8.73259e-06 0.000138141 0)
(-2.79568e-06 3.40432e-05 0)
(5.07714e-06 0.000163431 0)
(1.39882e-05 0.000202475 0)
(1.31413e-05 0.00015861 0)
(-7.57936e-06 3.68809e-05 0)
(-8.63132e-06 4.99904e-05 0)
(-9.59546e-06 6.47077e-05 0)
(1.47384e-05 0.000220988 0)
(1.60863e-05 0.000220707 0)
(3.61365e-07 6.48621e-06 0)
(-1.48891e-06 0.000104096 0)
(-3.97367e-06 1.09857e-05 0)
(2.03446e-07 3.79839e-07 0)
(-3.91129e-06 1.39522e-05 0)
(-6.2671e-07 0.000235667 0)
(1.62605e-07 6.20746e-06 0)
(-3.23842e-06 0.000111551 0)
(1.33629e-05 0.000147702 0)
(-6.08074e-06 2.07524e-05 0)
(1.43289e-05 0.000190824 0)
(-1.34492e-08 -9.32114e-09 0)
(8.91125e-07 0.00017631 0)
(2.55624e-07 1.07638e-07 0)
(1.74455e-07 1.288e-07 0)
(2.37137e-06 0.000126673 0)
(-2.92006e-07 2.36386e-07 0)
(1.08926e-05 0.000283815 0)
(8.12034e-07 0.000160998 0)
(-4.35984e-07 3.53392e-05 0)
(2.38197e-06 1.42021e-05 0)
(1.4984e-06 0.000160497 0)
(-8.45568e-07 3.55975e-05 0)
(-1.43707e-07 3.14477e-06 0)
(-1.0223e-05 5.75165e-05 0)
(-9.09946e-06 4.35519e-05 0)
(-7.87689e-06 3.12613e-05 0)
(-6.55111e-06 2.08028e-05 0)
(1.43846e-05 0.000147646 0)
(1.49513e-05 0.000168837 0)
(1.54248e-05 0.000190761 0)
(1.58096e-05 0.000213347 0)
(-7.00159e-06 0.000230197 0)
(-6.22174e-06 0.000273716 0)
(-2.01023e-05 0.000225991 0)
(7.24761e-06 1.59358e-05 0)
(4.58667e-06 0.000290192 0)
(5.33555e-06 0.00028894 0)
(1.42576e-06 0.000156941 0)
(1.54618e-06 0.000200738 0)
(-1.10309e-06 6.58494e-05 0)
(-9.93464e-07 5.10015e-05 0)
(-8.73827e-07 3.77504e-05 0)
(-5.76267e-06 1.6647e-05 0)
(2.09799e-06 1.1936e-05 0)
(-7.79613e-06 6.89881e-05 0)
(1.0299e-05 0.000152749 0)
(-7.05076e-06 5.38489e-05 0)
(-6.23666e-06 4.02798e-05 0)
(1.10057e-05 0.000196234 0)
(-4.37879e-06 1.84487e-05 0)
(1.11444e-05 0.000219001 0)
(1.8748e-06 9.97006e-05 0)
(-1.17131e-06 0.00024465 0)
(1.15192e-06 5.75562e-07 0)
(-8.5814e-07 0.000214802 0)
(5.49025e-07 4.25736e-05 0)
(6.17589e-07 5.6446e-05 0)
(5.73398e-07 7.18236e-05 0)
(3.48658e-06 0.000253468 0)
(-4.77441e-07 3.02796e-07 0)
(1.76829e-05 0.000249406 0)
(-2.65942e-06 0.000105676 0)
(-8.05584e-08 1.73216e-07 0)
(6.32544e-06 0.00015037 0)
(-2.79023e-06 1.94127e-05 0)
(6.77101e-06 0.000193699 0)
(1.39185e-07 1.08645e-07 0)
(-3.74577e-06 2.34236e-05 0)
(7.6654e-06 0.000141814 0)
(8.25458e-06 0.000184516 0)
(1.2998e-06 1.70482e-06 0)
(-5.38738e-06 9.21347e-05 0)
(1.13732e-06 9.85185e-05 0)
(-1.22483e-05 0.000266567 0)
(1.12677e-06 0.000157796 0)
(1.20121e-06 0.000201628 0)
(-9.31865e-07 6.52148e-05 0)
(-7.3514e-07 3.72488e-05 0)
(-8.38498e-07 5.04292e-05 0)
(1.81578e-06 0.000100438 0)
(-2.55788e-07 9.72873e-07 0)
(-2.26574e-07 3.30959e-06 0)
(5.35513e-07 0.000235282 0)
(1.20568e-05 0.000108003 0)
(-1.13173e-05 8.99234e-05 0)
(-8.59727e-06 0.000298314 0)
(-1.9513e-05 0.000194885 0)
(-1.82484e-05 0.00015151 0)
(-1.89369e-05 0.000172834 0)
(-1.74446e-05 0.000131038 0)
(9.58027e-06 2.92866e-05 0)
(1.11336e-05 4.12464e-05 0)
(1.2561e-05 5.49088e-05 0)
(1.38673e-05 7.0132e-05 0)
(1.94722e-05 0.000194882 0)
(1.88964e-05 0.000172834 0)
(-9.6011e-06 2.92879e-05 0)
(-1.11578e-05 4.12485e-05 0)
(1.82077e-05 0.000151509 0)
(-1.25893e-05 5.49103e-05 0)
(1.74068e-05 0.000131037 0)
(-1.38989e-05 7.01338e-05 0)
(-5.54656e-06 1.61816e-05 0)
(-3.02675e-06 0.000244129 0)
(-2.1591e-06 0.000243897 0)
(-2.68617e-06 0.000276516 0)
(4.45029e-06 0.000167434 0)
(-2.38641e-06 3.18447e-05 0)
(-8.56835e-07 1.26398e-06 0)
(-3.47519e-06 0.000292256 0)
(-3.81352e-06 6.28336e-05 0)
(-4.6713e-06 6.2597e-05 0)
(-3.42128e-06 4.82891e-05 0)
(-4.18951e-06 4.80781e-05 0)
(5.63837e-06 0.00020543 0)
(6.77297e-06 0.000205525 0)
(1.48892e-05 0.000201949 0)
(1.39834e-05 0.000158118 0)
(-8.09934e-06 3.71848e-05 0)
(-9.21702e-06 5.03325e-05 0)
(-1.02413e-05 6.50849e-05 0)
(-9.01835e-06 0.000133501 0)
(-9.77141e-06 0.000175536 0)
(4.79879e-06 2.77224e-05 0)
(-2.83693e-06 0.000119554 0)
(2.40262e-06 7.94278e-05 0)
(2.93576e-06 0.000211248 0)
(-1.72279e-06 4.4528e-05 0)
(-1.93245e-06 5.86377e-05 0)
(-2.0932e-06 7.41157e-05 0)
(5.56426e-06 7.84809e-05 0)
(4.71449e-06 7.86816e-05 0)
(-6.54219e-06 0.00012065 0)
(-5.54001e-06 0.000120403 0)
(-6.58601e-06 0.000290066 0)
(4.43611e-07 1.21369e-06 0)
(1.09457e-05 0.000249678 0)
(3.94317e-06 8.71785e-05 0)
(1.07307e-05 0.000172652 0)
(-5.4591e-06 2.91911e-05 0)
(9.88229e-06 0.000130842 0)
(-9.19953e-06 0.000104544 0)
(2.23222e-06 2.20966e-05 0)
(-5.13547e-06 0.000187396 0)
(-4.78037e-06 0.000144491 0)
(6.36142e-07 9.071e-05 0)
(-7.97961e-07 0.000148678 0)
(-8.48553e-07 0.000191911 0)
(3.39258e-07 2.01334e-05 0)
(6.19481e-06 8.21472e-05 0)
(-7.07328e-06 0.000116414 0)
(-3.38717e-06 0.000259201 0)
(-1.56737e-05 0.000256721 0)
(2.7987e-06 0.000111048 0)
(7.03252e-06 0.000111397 0)
(-5.70614e-06 2.14743e-05 0)
(1.31972e-05 0.000189082 0)
(1.22935e-05 0.000146074 0)
(-6.33049e-07 2.68476e-06 0)
(-2.12364e-06 0.000216296 0)
(1.17825e-06 4.17184e-05 0)
(1.32792e-06 5.54842e-05 0)
(1.45429e-06 7.0774e-05 0)
(-3.24394e-06 0.000105159 0)
(-1.45287e-05 0.000256808 0)
(-4.18666e-06 4.17691e-05 0)
(-4.71948e-06 5.55354e-05 0)
(-5.18925e-06 7.08585e-05 0)
(7.40073e-06 0.00021622 0)
(1.34829e-08 1.76178e-08 0)
(9.10465e-06 0.000103706 0)
(1.16038e-07 8.10234e-06 0)
(-4.3297e-07 7.54465e-07 0)
(-8.99502e-07 3.47427e-06 0)
(-4.30838e-06 1.48796e-05 0)
(-4.42102e-07 1.62669e-07 0)
(1.79251e-06 4.71588e-05 0)
(1.57293e-06 3.43521e-05 0)
(2.00121e-06 6.15771e-05 0)
(-3.04191e-06 0.000206925 0)
(-2.88092e-06 0.000162821 0)
(-8.85386e-06 8.60319e-05 0)
(9.58856e-06 0.000112067 0)
(-8.76259e-07 5.16129e-07 0)
(1.1638e-05 0.000274895 0)
(8.39314e-06 0.000245918 0)
(-1.78897e-05 0.000231464 0)
(6.62288e-06 0.000110536 0)
(2.38581e-06 0.000120061 0)
(-4.50657e-06 0.000292124 0)
(-1.25354e-05 0.000125789 0)
(-1.19238e-05 0.000125233 0)
(1.76566e-05 0.000292037 0)
(-1.41774e-06 0.000260494 0)
(-3.96977e-06 7.91072e-05 0)
(4.76206e-06 0.000120037 0)
(1.44116e-07 8.38655e-06 0)
(2.19071e-06 2.96307e-06 0)
(4.39047e-07 1.61545e-07 0)
(4.20928e-06 0.000127897 0)
(1.55607e-05 0.000298034 0)
(-8.5335e-06 0.000206961 0)
(-8.03189e-06 0.000162816 0)
(4.4258e-06 3.43937e-05 0)
(5.66498e-06 6.15916e-05 0)
(5.07391e-06 4.7178e-05 0)
(-1.6105e-07 1.12696e-07 0)
(-6.44002e-07 0.000271142 0)
(7.97487e-06 0.000111726 0)
(-7.26434e-06 8.64695e-05 0)
(-1.2784e-05 0.000264564 0)
(-1.90863e-05 0.000195883 0)
(-1.85268e-05 0.000173798 0)
(-1.78611e-05 0.000152441 0)
(-1.70801e-05 0.000131928 0)
(9.28836e-06 2.87844e-05 0)
(1.08118e-05 4.0666e-05 0)
(1.22118e-05 5.42561e-05 0)
(1.34935e-05 6.94133e-05 0)
(1.90438e-05 0.000195876 0)
(1.84863e-05 0.000173798 0)
(-9.3085e-06 2.87875e-05 0)
(-1.08348e-05 4.06696e-05 0)
(1.78182e-05 0.000152437 0)
(-1.22387e-05 5.42594e-05 0)
(1.70407e-05 0.000131924 0)
(-1.35234e-05 6.9417e-05 0)
(-2.79058e-06 3.74606e-06 0)
(1.09747e-06 1.03222e-06 0)
(-1.46922e-06 2.68798e-06 0)
(7.09989e-06 0.000109624 0)
(-7.80202e-06 0.000112879 0)
(1.40012e-06 1.68647e-06 0)
(-2.17266e-07 3.62933e-08 0)
(-1.72032e-05 0.000232022 0)
(9.841e-06 0.000295027 0)
(1.10447e-05 0.000295584 0)
(2.16814e-07 3.62163e-08 0)
(3.15302e-06 4.203e-06 0)
(1.54156e-05 0.000268562 0)
(-5.86618e-06 0.00012479 0)
(-3.85142e-07 3.37401e-07 0)
(-8.71718e-07 1.35298e-06 0)
(-1.36174e-07 3.48245e-08 0)
(2.55087e-07 1.98365e-07 0)
(1.59394e-05 9.94611e-05 0)
(-1.59129e-05 9.8311e-05 0)
(4.8857e-06 7.50103e-05 0)
(-6.01252e-06 0.000122508 0)
(5.07299e-06 7.69358e-05 0)
(-2.63592e-07 4.48226e-06 0)
(-3.70478e-06 0.000195843 0)
(2.92498e-06 9.3843e-05 0)
(-2.06978e-06 0.000193717 0)
(-1.98053e-06 0.000150274 0)
(8.50991e-07 1.94227e-05 0)
(1.60556e-06 9.2142e-05 0)
(-6.542e-06 0.000124154 0)
(3.36024e-06 4.45296e-06 0)
(5.47311e-06 7.55764e-05 0)
(2.03034e-06 0.000111218 0)
(1.5492e-05 0.000277349 0)
(-4.72581e-06 0.000112134 0)
(-5.43294e-06 0.000112896 0)
(-4.41253e-06 9.42995e-06 0)
(-5.26889e-06 0.000116481 0)
(-4.50663e-06 0.000115674 0)
(4.68224e-06 8.20123e-05 0)
(4.11236e-06 8.28205e-05 0)
(-4.94624e-06 2.29322e-05 0)
(1.02613e-05 0.000142912 0)
(1.10408e-05 0.000185691 0)
(-1.36734e-06 1.5224e-06 0)
(-6.55415e-06 0.000123159 0)
(5.51124e-06 7.64192e-05 0)
(-4.17924e-06 0.000158451 0)
(-4.44749e-06 0.000202325 0)
(2.38108e-06 3.68429e-05 0)
(3.01336e-06 6.47027e-05 0)
(2.71081e-06 4.99694e-05 0)
(-2.17825e-06 1.01847e-05 0)
(-1.36863e-05 0.000167097 0)
(-1.29697e-05 0.000166569 0)
(7.25183e-06 3.21491e-05 0)
(6.898e-06 3.2428e-05 0)
(9.01233e-06 0.000132643 0)
(9.90898e-06 0.00013199 0)
(-4.88249e-06 2.81859e-05 0)
(-5.40591e-06 2.85588e-05 0)
(9.77223e-06 0.000174607 0)
(1.07499e-05 0.000173897 0)
(-3.93929e-06 0.00025825 0)
(7.84588e-06 0.000235821 0)
(7.95892e-06 0.00023472 0)
(-5.82041e-06 7.6943e-05 0)
(6.82068e-06 0.000122477 0)
(-2.0605e-05 0.000287744 0)
(-5.93573e-06 0.00022954 0)
(-5.70062e-06 0.000228464 0)
(1.98306e-06 1.47967e-05 0)
(2.03822e-06 1.44201e-05 0)
(1.77763e-05 0.000232092 0)
(-7.8743e-06 9.87077e-05 0)
(-6.76082e-06 9.87421e-05 0)
(1.75869e-05 0.000262055 0)
(-1.77971e-05 0.000276256 0)
(-1.77741e-05 0.000277572 0)