/*--------------------------------*- C++ -*----------------------------------*\
| =========                 |                                                 |
| \\      /  F ield         | OpenFOAM: The Open Source CFD Toolbox           |
|  \\    /   O peration     | Version:  2.3.1                                 |
|   \\  /    A nd           | Web:      www.OpenFOAM.org                      |
|    \\/     M anipulation  |                                                 |
\*---------------------------------------------------------------------------*/
FoamFile
{
    version     2.0;
    format      ascii;
    class       volScalarField;
    location    "3760";
    object      sigmaEq;
}
// * * * * * * * * * * * * * * * * * * * * * * * * * * * * * * * * * * * * * //

dimensions      [1 -1 -2 0 0 0 0];

internalField   nonuniform List<scalar> 
11800
(
185596
131129
617678
524262
127112
367097
172766
188509
202534
216293
184585
749929
95977.3
556598
474012
2.05524e+06
134161
134866
244039
149361
417268
677184
893009
800212
1.68434e+06
1.05371e+06
1.10158e+06
546904
1.19963e+06
1.29872e+06
363210
123485
1.05642e+06
137483
143952
349063
146096
1.12619e+06
145737
157730
1.14169e+06
1.24343e+06
574551
1.34723e+06
383214
1.92424e+06
855629
997493
174015
258708
787081
554937
142184
230185
2.19311e+06
1.79884e+06
70303
513459
400566
383541
1.79651e+06
156611
407645
335459
1.65171e+06
248916
809581
574645
70075.5
974578
145622
121606
117632
1.71587e+06
1.77905e+06
338842
1.72679e+06
236105
188840
192772
2.22942e+06
132202
127117
129369
131068
1.25195e+06
390072
1.15408e+06
1.05862e+06
570302
141089
1.2579e+06
161219
66912.5
198609
163690
21223.9
163701
143625
659878
80920.5
727595
1.19389e+06
412457
152561
351041
193301
167313
1.75484e+06
1.16383e+06
1.2624e+06
1.06762e+06
395584
578476
237318
1.58446e+06
231799
150854
1.48781e+06
222763
214514
174288
194456
148575
158436
140871
143469
143164
101870
29671.6
2.01299e+06
1.34245e+06
423399
1.25506e+06
607877
1.15484e+06
1.05802e+06
370276
1.07427e+06
526756
988600
905934
539439
207026
260077
352929
1.29746e+06
1.32894e+06
758129
396838
218412
210593
143214
276780
253792
196614
503052
692949
1.37933e+06
149295
2.01645e+06
244484
1.7581e+06
507334
551336
596255
302140
227808
2.17094e+06
1.35418e+06
480621
662097
163587
395041
393198
1.92487e+06
1.94578e+06
1.02985e+06
945271
1.11733e+06
504455
345617
267798
216006
477647
229290
354466
160609
182593
170553
254745
237926
226458
208180
981889
1.24758e+06
1.77904e+06
129658
235289
2.09489e+06
145156
303997
340556
147481
152482
902782
755022
694460
574947
2.01141e+06
617957
912301
2.73758e+06
2.29251e+06
2.32184e+06
360327
136775
881729
808783
743260
278551
400590
136088
136166
240985
145489
1.32538e+06
269026
147601
496360
224304
184656
145406
698009
712702
2.73447e+06
1.32394e+06
235510
246345
1.2235e+06
1.00212e+06
345857
503995
1.11653e+06
1.03204e+06
947042
151907
1.21003e+06
424324
584040
547211
162518
131520
433673
384708
151401
2.3196e+06
300863
346730
248391
286303
744415
810280
876899
399088
280528
145257
1.76641e+06
168143
85714.1
142445
438476
161516
574359
2.05931e+06
411923
408347
618180
447407
515336
374783
1.27281e+06
1.06447e+06
340670
425754
270991
325499
586220
770265
279987
1.24533e+06
1.33575e+06
1.60665e+06
179594
407194
404712
1.86163e+06
1.87893e+06
1.12372e+06
1.10595e+06
1.14616e+06
1.13441e+06
140225
95613.5
307671
2.40709e+06
127300
133745
318638
261260
280808
981049
1.00538e+06
1.66753e+06
2.3233e+06
725625
193919
937194
774744
540757
441672
172089
181213
274377
486754
255638
450841
132110
177109
170490
150848
1.32602e+06
170990
133442
1.93246e+06
327819
745118
827684
806030
1.01875e+06
980634
108164
107016
671817
879162
606907
1.57193e+06
126051
872206
678259
444584
335750
331233
254167
337645
291645
386502
423598
456513
163386
143640
817947
867743
188653
235201
483908
410098
461260
209606
196357
245740
250451
946310
456982
337075
372535
1.14095e+06
1.3244e+06
357885
206750
194935
264186
245413
461954
536217
437860
513793
403841
473948
357257
339025
687464
349222
764712
1.3191e+06
663465
485932
2.12778e+06
140075
1.38515e+06
681874
495154
2.05877e+06
149758
1.41755e+06
350701
1.19306e+06
1.10127e+06
1.07123e+06
197692
90349.1
128150
2.45824e+06
2.12639e+06
945056
338199
458214
185570
245549
279058
152592
213713
1.62857e+06
65599
584160
447689
1.79681e+06
111141
182169
155400
154128
154763
155730
1.79783e+06
602563
241306
697775
642604
591009
122338
1.34998e+06
441615
618046
172841
889249
193199
1.72542e+06
140096
203411
505165
465963
429104
902242
240492
503366
443454
235519
701352
763633
828086
399636
286859
67707.3
176927
196626
2.23336e+06
767937
605550
437524
359955
190415
155713
114085
113924
197152
102981
119420
127687
168828
337286
152066
195180
603636
732659
344976
1.59389e+06
209832
377921
157297
186280
1.54558e+06
2.02353e+06
634531
690029
250925
223045
123926
1.35296e+06
1.96681e+06
1.73809e+06
2.5134e+06
818539
571630
749642
125802
190379
174812
195032
744387
148501
146556
127954
185578
1.35176e+06
301530
1.37116e+06
810891
175599
225086
1.11404e+06
1.41444e+06
739839
805423
869537
394491
277845
673588
146007
147381
143837
164876
131108
193070
99354
186777
98909.7
184468
87551.6
179603
164900
171754
117743
1.54723e+06
237927
256541
571701
908684
125374
155641
134442
131709
117175
299085
433542
132354
131527
593477
124218
184936
1.6805e+06
82945.5
167136
528703
486611
509600
552431
566739
597582
279731
209613
1.9455e+06
2.40412e+06
500794
88378.3
355777
344083
381628
271076
813949
752151
691052
175760
86683.9
787519
735966
327683
363900
182554
629402
683824
236680
1.1094e+06
1.12416e+06
1.13727e+06
1.12666e+06
1.9111e+06
1.87005e+06
587989
2.28565e+06
827336
141470
1.59531e+06
1.40392e+06
1.52819e+06
779836
315790
341723
189526
1.62977e+06
537653
678814
2.41932e+06
215683
266270
530769
515839
1.35314e+06
702314
2.01887e+06
139905
137315
276384
395558
878321
806662
741150
1.84688e+06
154978
403553
867003
1.3144e+06
137056
2.16639e+06
2.02637e+06
2.09952e+06
243803
330519
126286
2.14679e+06
616582
248731
423512
2.01482e+06
150502
251133
266645
145575
493211
303010
2.45772e+06
2.15305e+06
208124
609508
779300
298680
352946
263005
231704
653252
196007
606018
447705
1.14864e+06
1.00422e+06
174524
1.31403e+06
144486
413388
508672
1.75477e+06
332883
451725
252238
207456
191703
224205
427467
999510
1.1011e+06
145226
140013
141388
187186
356042
1.33231e+06
118225
458895
829320
646047
231577
1.10032e+06
1.21874e+06
790213
1.32706e+06
1.43885e+06
595107
390049
164997
196715
370652
394970
344469
380634
197255
351357
409985
240525
145090
2.49805e+06
1.07137e+06
402397
544048
499763
242821
433367
633296
1.36457e+06
1.2569e+06
1.15192e+06
354012
418270
204819
220488
1.55799e+06
1.14642e+06
1.3272e+06
156308
206444
293427
692922
1.53585e+06
490523
97485.1
157501
2.26947e+06
2.13285e+06
255474
1.95335e+06
115972
166347
122974
743076
132197
229721
255649
1.38133e+06
1.50418e+06
1.62976e+06
1.75933e+06
794640
675832
561680
442821
198359
138777
435031
2.15468e+06
147509
143997
158603
150876
157738
164116
169769
1.66838e+06
842366
860678
506207
938762
1.02039e+06
357611
1.19407e+06
285847
236548
154258
2.24428e+06
145317
173806
167430
174920
145245
2.04181e+06
287642
284380
1.09938e+06
360242
759484
271192
2.07882e+06
912364
455052
339606
1.40557e+06
504378
193936
162890
145445
140029
243233
268134
256559
186043
505211
160480
141891
890612
995055
123183
631047
907844
769834
1.04457e+06
1.9546e+06
1.80721e+06
1.66122e+06
1.51564e+06
630915
769214
1.95748e+06
1.80989e+06
907283
1.66391e+06
1.04453e+06
1.51832e+06
1.74883e+06
161610
139324
152162
255099
553428
1.21548e+06
145409
460916
630462
498843
685966
202267
260844
457466
668759
1.4316e+06
1.31857e+06
1.20808e+06
573103
425117
1.07311e+06
217783
275976
174106
355868
330613
300789
615378
480895
494266
367177
137167
741633
203988
376818
463423
1.14979e+06
623211
728846
590670
215582
279647
194589
171466
162548
186862
648400
547791
148448
224455
245432
504041
1.50479e+06
491772
689895
522320
165425
234030
220062
203052
276470
199304
666832
614179
560672
219261
1.62228e+06
758298
226151
996888
671708
1.44268e+06
1.96345e+06
242247
270376
227830
154722
164899
804850
685191
2.04532e+06
137365
193116
376419
556418
241519
146301
812523
804025
62826.3
143526
390483
317501
93587.4
1.78999e+06
1.96303e+06
323067
126669
291811
411255
878409
742722
808976
2.24093e+06
141182
636719
717175
173399
655472
800676
945445
1.08759e+06
2.04665e+06
1.89329e+06
1.74067e+06
1.58896e+06
655038
799885
2.04843e+06
1.89424e+06
943693
1.74185e+06
1.08685e+06
1.59006e+06
1.90911e+06
1.64385e+06
1.23956e+06
523249
596863
1.64378e+06
1.22399e+06
361455
125558
120340
1.22281e+06
2.16978e+06
164168
449096
1.78923e+06
1.22192e+06
1.964e+06
2.00381e+06
1.28666e+06
1.28983e+06
590759
468889
612300
260102
192545
325621
165954
200973
244634
206522
447446
2.10162e+06
611414
207840
125865
392555
421136
1.9099e+06
397922
359869
455792
483955
1.23911e+06
585171
422850
1.59473e+06
452141
587630
212742
175943
407577
352232
380211
944959
611613
593655
1.44016e+06
1.37737e+06
586673
619379
1.08605e+06
1.16662e+06
437025
458185
143650
195443
204613
596825
464305
80770.4
173306
198745
695652
662155
358421
696745
538985
213960
131783
132012
551432
1.32653e+06
131446
1.96232e+06
283446
792415
727892
225491
281792
472448
156348
134025
1.67281e+06
421703
1.08644e+06
1.00252e+06
920451
337209
490142
174577
1.51751e+06
1.99845e+06
183950
152702
1.09826e+06
401212
547256
945779
1.0299e+06
1.12829e+06
340908
494140
65131.7
803165
416995
1.99139e+06
336184
1.14704e+06
948856
1.06462e+06
147007
150310
153131
162477
163655
144081
1.65392e+06
512084
192363
223770
247592
278575
346616
384460
788379
763195
728044
702590
646392
668675
1.15398e+06
175539
145805
141676
191830
218517
155365
175946
1.3729e+06
282223
513260
435937
1.12385e+06
590133
207896
216976
485904
376679
670149
548278
1.34908e+06
1.18261e+06
1.09032e+06
999801
555837
1.55486e+06
767238
1.55123e+06
273953
228458
295351
287316
200832
183075
198805
1.5749e+06
2.04959e+06
364996
121487
271431
611691
474662
134117
160615
266313
252128
261855
243256
320997
302014
227671
518190
575183
560106
621664
475243
528212
584758
137491
1.27714e+06
1.01276e+06
536309
1.28624e+06
1.20844e+06
705839
2.04925e+06
386638
367358
416539
446364
205982
169917
183147
389295
152458
1.713e+06
223095
148164
851851
62445.4
122900
1.70462e+06
195585
439840
1.40191e+06
644672
1.29193e+06
1.18428e+06
1.53674e+06
1.02134e+06
167242
648207
518516
217502
1.45196e+06
662820
219858
1.21167e+06
1.10404e+06
1.31848e+06
142761
145404
168862
2.47639e+06
296023
461988
564319
256786
147646
145902
444190
480306
188775
1.70599e+06
450097
1.72226e+06
262805
851145
145332
681699
815842
1.08284e+06
434355
584386
700125
283787
2.42669e+06
174777
123814
149778
2.07265e+06
1.36109e+06
341509
501999
1.13894e+06
1.05429e+06
967938
2.13346e+06
650177
526868
2.13519e+06
2.41105e+06
1.66117e+06
86306.3
571254
1.41147e+06
1.05942e+06
576389
429427
1.06307e+06
948330
437459
1.44478e+06
348901
286516
541839
477303
363774
1.67791e+06
2.54755e+06
131315
144318
169844
2.43502e+06
168588
196361
750775
576590
2.15687e+06
2.25941e+06
142840
640919
222841
211897
530366
228365
138261
572832
135030
152794
2.56101e+06
1.11379e+06
617964
461828
415770
298233
845363
780003
715444
220162
2.28584e+06
449154
406263
460924
1.91468e+06
779444
1.14376e+06
157980
247110
186576
857381
524153
698063
131682
299367
407801
864507
304974
195639
167614
330359
2.13156e+06
308534
416172
856852
1.37742e+06
1.94693e+06
1.31224e+06
898990
707005
836863
87272.2
246854
342456
731638
674998
620977
1.94626e+06
154116
199393
213829
213426
214089
208193
306863
144166
145469
698192
1.76074e+06
497711
1.10256e+06
1.01674e+06
933577
342499
1.98964e+06
635093
723723
866200
746698
1.21814e+06
1.94635e+06
585917
155079
755334
123451
914221
548830
997555
1.08464e+06
389950
1.26156e+06
311519
2.63743e+06
903354
147038
1.81401e+06
2.64422e+06
2.27666e+06
537182
141734
1.01874e+06
174729
163943
121211
286404
156878
160895
139013
145525
1.64576e+06
1.72757e+06
146205
1.13547e+06
183951
174746
144080
238280
1.18144e+06
1.18742e+06
270878
1.20251e+06
1.20559e+06
1.55398e+06
511554
192253
240007
326869
654903
711128
241963
64215.5
166854
778361
369032
900820
1.0139e+06
1.10838e+06
1.20504e+06
619098
437054
322759
180753
156537
1.97557e+06
1.08911e+06
134881
226865
970431
755156
410131
444488
204456
181891
335951
297510
120639
228325
157497
1.65703e+06
644048
1.56651e+06
149199
138894
2.64553e+06
140251
2.05217e+06
2.02473e+06
146509
941814
473962
1.6247e+06
160023
890439
1.01821e+06
2.21807e+06
247903
156837
133502
502521
238100
324003
654527
599500
550991
162540
132052
185810
176707
1.1545e+06
1.27197e+06
868496
1.48591e+06
1.36488e+06
1.57922e+06
2.25511e+06
282542
719188
2.14777e+06
633946
2.01977e+06
959664
1.04506e+06
1.13402e+06
501777
341282
422506
496069
1.86904e+06
170680
199313
293001
277600
258817
189989
386088
356291
333482
820802
845775
2.49412e+06
274648
129537
179101
1.97306e+06
565136
305619
294944
1.9255e+06
998768
689489
112328
207324
133677
984344
1.25566e+06
318294
1.41945e+06
194714
188990
2.56992e+06
1.68467e+06
2.06239e+06
400238
530695
930428
292554
732063
2.14259e+06
2.26783e+06
191660
220439
369893
302337
1.06611e+06
1.19071e+06
814347
917454
2.38006e+06
2.19701e+06
281580
188240
111697
1.56675e+06
129372
2.06656e+06
412122
312050
1.11e+06
354179
147126
1.92034e+06
219363
284448
111526
132763
1.42996e+06
491784
150420
776464
368657
204743
152889
134463
716289
136007
1.96013e+06
1.76608e+06
322765
873541
495843
148849
165548
1.51637e+06
184489
1.02011e+06
262092
562114
1.17727e+06
1.34432e+06
1.87203e+06
202092
321080
2.04375e+06
256374
162307
151432
177428
137021
2.09527e+06
1.63275e+06
375346
515981
895386
894787
1.17295e+06
412538
565983
408889
592976
1.26623e+06
1.16713e+06
1.0699e+06
1.67787e+06
787944
562925
1.62227e+06
566462
1.76467e+06
658916
729466
1.94679e+06
2.6411e+06
2.26036e+06
442795
431475
1.21395e+06
577280
419339
141892
365847
1.87313e+06
158733
184900
2.38733e+06
1.78341e+06
2.05711e+06
948325
1.17635e+06
1.18624e+06
1.02405e+06
131315
123367
185082
125926
733757
798437
867722
404511
284521
625608
2.08556e+06
158635
211366
177840
165250
1.07221e+06
969087
197258
1.85516e+06
2.10024e+06
1.23821e+06
1.01107e+06
1.68895e+06
1.94534e+06
125661
932490
592574
1.29333e+06
173052
275748
295100
1.6599e+06
1.65356e+06
764369
383777
120491
144476
242242
508660
1.73771e+06
231547
1.33365e+06
159707
386429
263048
348867
598381
308091
473454
46009.8
13293.1
472882
2.47233e+06
215213
177459
179168
140508
130031
190658
197095
143330
145215
550868
142092
154956
190867
1.03245e+06
1.27341e+06
916173
1.73132e+06
2.2009e+06
153602
212216
402183
176287
1.57078e+06
222325
2.30693e+06
247779
321789
622244
460510
245177
253238
587770
136693
160440
201918
129230
194247
126774
2.04518e+06
113984
164754
298092
128891
98008.5
1.96129e+06
218546
1.69656e+06
1.80352e+06
654042
423177
341532
495940
1.11617e+06
1.04021e+06
955077
139243
1.23314e+06
641171
135976
2.09648e+06
143972
150729
388980
1.15099e+06
919065
1.0201e+06
1.40378e+06
202477
154298
435441
644477
1.4097e+06
749138
1.52442e+06
539635
1.29896e+06
1.19093e+06
429917
1.5125e+06
533610
1.39341e+06
633516
1.28451e+06
1.17757e+06
738935
1.52664e+06
193197
633031
493693
158594
200467
1.7087e+06
1.06431e+06
1.44251e+06
1.34168e+06
1.17067e+06
1.44988e+06
1.06928e+06
407141
446380
660120
1.59544e+06
155286
2.3638e+06
190366
154795
1.78385e+06
211320
333520
656473
651467
1.93824e+06
118415
1.22979e+06
1.13481e+06
1.04088e+06
378885
556205
2.37802e+06
399843
306446
710385
185339
743316
343272
362254
130970
210403
219034
190475
566573
129254
696868
373571
283991
948953
1.26515e+06
1.27082e+06
948600
464221
2.24418e+06
142866
143910
2.00604e+06
1.81362e+06
1.1009e+06
2.63258e+06
1.17964e+06
1.01703e+06
1.05218e+06
2.33954e+06
1.16625e+06
932710
2.07805e+06
446318
470166
696781
1.82995e+06
115932
1.56019e+06
186535
272859
424771
712309
776267
842480
413130
295337
474718
79495.2
85225
155382
165144
225816
187220
149775
203779
1.16377e+06
2.12846e+06
254920
189550
1.9607e+06
1.42183e+06
560868
760797
155423
163033
1.70567e+06
1.12922e+06
241232
898920
842791
1.1279e+06
137708
155039
160404
138383
1.3329e+06
2.15772e+06
2.10897e+06
1.43119e+06
2.28437e+06
290071
128667
374731
1.13955e+06
1.04538e+06
1.23629e+06
561979
381828
2.40726e+06
528032
665921
870844
283565
241432
1.00439e+06
355664
183567
760951
290668
376348
2.23268e+06
384465
340301
1.19452e+06
1.10234e+06
1.01246e+06
509190
1.52329e+06
1.4345e+06
1.88201e+06
586745
606913
775039
1.60349e+06
761690
546420
1.42545e+06
275469
2.64301e+06
175804
2.01707e+06
538246
615616
146265
655066
1.25588e+06
152617
178574
174446
2.3331e+06
686065
628958
742331
366998
265451
336332
666851
1.5255e+06
673648
1.31318e+06
1.55019e+06
1.43133e+06
449449
1.45306e+06
1.104e+06
1.16903e+06
1.38402e+06
1.45546e+06
1.10518e+06
1.17921e+06
1.3928e+06
804335
673915
51933.6
323178
198749
460866
679844
565537
788180
1.58803e+06
1.47044e+06
1.35467e+06
1.24174e+06
456290
1.2683e+06
627159
174032
120626
126326
216261
115527
541688
1.28506e+06
1.31351e+06
467142
2.17322e+06
178743
160392
1.69303e+06
2.10024e+06
103547
1.33896e+06
528459
715560
999591
556800
357318
158935
529629
755424
70828.8
146607
2.19976e+06
291583
219286
531895
489389
576305
370661
144066
150053
377686
1.32285e+06
2.04971e+06
2.37316e+06
365131
405824
1.70844e+06
1.54014e+06
2.00546e+06
123578
1.11728e+06
1.95341e+06
2.38774e+06
2.46275e+06
2.4067e+06
627581
1.09145e+06
469960
2.26752e+06
1.71304e+06
700832
1.47776e+06
164616
146699
1.75928e+06
1.76109e+06
147947
474654
2.1886e+06
1.83709e+06
1.74641e+06
1.80743e+06
2.47296e+06
1.6782e+06
2.17837e+06
1.88355e+06
165549
298214
1.38704e+06
659628
1.13662e+06
239457
158350
200347
184889
169032
223219
199212
471784
2.18416e+06
1.32725e+06
465966
643879
1.42013e+06
185938
658442
459864
2.52975e+06
353564
342584
631451
360719
585643
259338
202650
2.05905e+06
16907.2
165110
164873
33972.9
510825
547785
196169
215215
229070
160112
582727
573453
141162
2.19874e+06
1.87671e+06
674024
1.41697e+06
484758
135172
1.6533e+06
365416
2.18426e+06
603417
737801
872722
1.0061e+06
1.90946e+06
1.76772e+06
1.62551e+06
1.48635e+06
602501
736256
1.90921e+06
1.76657e+06
870188
1.62469e+06
1.00381e+06
1.48498e+06
333832
255917
621156
674278
595309
282074
230876
196868
158787
148499
168617
142622
149913
253263
1.01983e+06
1.09497e+06
981816
549772
1.06956e+06
1.17868e+06
1.82527e+06
772584
622588
1.94353e+06
648627
222592
138256
190969
156938
306639
282267
286312
152441
413528
326223
422639
866740
151656
226610
1.02892e+06
164549
120386
149954
128856
1.53807e+06
181744
213142
724562
577995
281857
723496
231822
139792
127313
2.30677e+06
2.3761e+06
1.44021e+06
1.17948e+06
1.15012e+06
1.46495e+06
2.32916e+06
1.20466e+06
139639
777312
432758
331071
477397
228648
2.20888e+06
241710
1.30266e+06
1.20351e+06
1.10427e+06
580886
393899
682655
399067
304249
2.23172e+06
256642
139816
732090
731221
332972
208836
254582
429678
882230
1.67369e+06
700771
559284
1.03539e+06
1.36265e+06
371218
541252
1.1757e+06
1.08313e+06
993359
559847
602881
976203
804928
1.13155e+06
600419
1.24372e+06
1.3538e+06
392115
1.46753e+06
2.62934e+06
1.85403e+06
123763
891453
973162
1.05806e+06
324575
220218
1.59566e+06
276698
363566
451299
495821
211548
269395
217403
172051
1.52308e+06
1.16999e+06
1.2274e+06
1.47053e+06
340944
1.85579e+06
2.30089e+06
849430
150317
875195
954534
1.03807e+06
974481
1.1323e+06
316976
1.81124e+06
793194
735717
674217
797593
288266
400718
231685
215062
500759
590083
543742
624611
681176
739180
452044
448494
645140
648046
1.3133e+06
1.30679e+06
1.10677e+06
1.2085e+06
1.10084e+06
1.20242e+06
654183
711558
253935
159282
181224
215629
1.30894e+06
838384
147535
1.33355e+06
1.10644e+06
1.06053e+06
1.37367e+06
218397
477872
1.71937e+06
725469
1.58642e+06
1.45623e+06
118022
284991
1.1861e+06
701780
496341
1.57398e+06
550854
75887.3
1.20519e+06
1.10607e+06
1.30799e+06
585494
396072
1.61354e+06
623263
504417
2.14601e+06
625711
885333
212174
154950
360421
336875
308516
1.82835e+06
453443
304019
517930
476593
558783
281257
214273
1.20882e+06
1.35687e+06
217909
776121
164469
1.04135e+06
2.08768e+06
1.31026e+06
642490
480892
1.14796e+06
586406
522483
431374
282807
176768
434613
214415
529895
213365
361217
152111
170951
2.18496e+06
441274
1.86552e+06
1.07049e+06
1.15165e+06
622179
464642
1.1074e+06
1.99057e+06
128679
156036
159041
151510
394601
38200.6
12635
394122
829457
153115
877914
390795
269911
182789
584725
816897
1.70894e+06
138628
109593
181675
211722
456180
294230
1.15615e+06
1.03115e+06
248849
162486
129863
2.21623e+06
829352
140489
322132
158562
2.52967e+06
2.06182e+06
321329
241474
903970
435633
618476
1.21876e+06
1.02597e+06
1.12104e+06
2.38569e+06
1.89899e+06
155915
1.77837e+06
2.39593e+06
1.8734e+06
2.08367e+06
898807
183453
1.20703e+06
296819
184501
227139
444682
485009
355459
354422
804571
262703
178491
134856
1.17047e+06
1.43504e+06
1.56234e+06
1.69244e+06
1.81107e+06
810955
691454
570547
448755
283557
130503
557910
25870.4
273339
272993
14043.7
603472
302185
237966
94985.9
379586
430083
145617
385735
1.15829e+06
909985
627624
443872
506820
2.19496e+06
1.67799e+06
223982
720073
145100
156348
617325
727455
750402
1.4887e+06
435109
474793
151240
1.98309e+06
161353
347501
404637
377355
1.44187e+06
1.56918e+06
814474
869436
868429
617009
791832
1.48121e+06
1.41031e+06
1.40895e+06
486357
674139
122851
134566
127002
301824
142538
651530
1.37128e+06
1.21716e+06
1.49152e+06
1.0891e+06
1.50164e+06
1.08785e+06
739811
491352
1.31516e+06
963025
1.31635e+06
966303
316474
1.44938e+06
1.21824e+06
1.06756e+06
1.39059e+06
1.23072e+06
1.51782e+06
1.10371e+06
1.51722e+06
1.10301e+06
1.37286e+06
2.53423e+06
554600
778282
1.64729e+06
604000
150293
159715
254013
25145.1
253681
22227.7
146506
468823
1.45556e+06
1.33533e+06
1.57899e+06
700324
485195
2.24733e+06
75745.6
139896
281945
968445
321420
886612
436324
2.28379e+06
2.30408e+06
1.37728e+06
164929
300139
1.55951e+06
829703
664982
449629
823285
754961
892440
311717
436727
2.34347e+06
550437
2.08652e+06
148658
145409
138825
146990
99548.8
2.06139e+06
167765
1.51731e+06
97010.2
1.10963e+06
1.4086e+06
168907
148328
215202
635073
225289
536376
493338
362113
392019
423994
180589
391032
527516
653394
438952
1.48257e+06
1.36909e+06
1.25594e+06
1.54358e+06
2.06335e+06
2.2764e+06
134874
132091
132975
146195
302440
177882
327477
2.28686e+06
2.33293e+06
2.34089e+06
1.78613e+06
70596.3
1.22982e+06
2.13473e+06
1.45943e+06
1.1514e+06
1.17502e+06
1.43997e+06
705861
625065
1.26591e+06
834544
1.49308e+06
109843
269167
344829
663880
273640
269694
307169
207072
238233
174705
203015
465029
467341
507002
505492
547538
547090
642594
633277
151733
149331
605221
390108
116824
227887
886456
1.49524e+06
152208
898961
1.94324e+06
600780
1.8489e+06
847200
234577
1.71838e+06
913919
768144
1.21782e+06
2.07127e+06
2.46646e+06
967536
413557
2.0759e+06
298043
218048
186567
460083
101262
873453
1.5279e+06
397082
599740
242573
145012
259728
2.23378e+06
401376
468780
452809
334030
954994
299912
237503
946401
209037
2.0328e+06
160442
1.20286e+06
446076
484690
1.8866e+06
1.60476e+06
970913
1.74992e+06
1.89802e+06
831847
2.04728e+06
694028
554232
1.60526e+06
1.74998e+06
2.05035e+06
1.89849e+06
556088
834755
974340
696156
2.06396e+06
204924
1.62009e+06
176863
121057
155177
9305.42
70832.8
887095
95628.6
1.55809e+06
322400
240332
606180
654849
557607
465364
305172
1.35861e+06
303784
326689
1.22716e+06
104271
480476
445433
441969
1.39853e+06
1.2834e+06
1.51673e+06
665013
563654
238743
408601
803114
1.55645e+06
76737.5
397575
235854
151831
513498
1.64364e+06
929563
797567
1.73373e+06
195687
950853
2.0273e+06
1.02588e+06
1.89622e+06
169065
2.13741e+06
254259
1.42799e+06
511434
631202
149000
16360.7
164017
163743
27967.4
272948
1.45549e+06
207848
1.78858e+06
810750
294367
1.38628e+06
1.33102e+06
1.51362e+06
1.45353e+06
1.64358e+06
1.57872e+06
765178
739899
521684
505383
579575
391151
1.31003e+06
1.21064e+06
1.11063e+06
349915
408710
377836
187612
1.23065e+06
1.07511e+06
98418.5
210281
156860
178102
188270
2.06841e+06
1.73355e+06
453536
1.49111e+06
1.36934e+06
1.61445e+06
131360
762251
1.40085e+06
1.46121e+06
148462
139023
1.67484e+06
531721
181450
307976
358638
333061
192926
576611
532715
492764
1.93565e+06
2.52953e+06
1.86388e+06
1.32656e+06
649181
468329
198764
216562
324997
233727
148069
131781
245183
708012
565401
146885
1.52958e+06
1.77357e+06
737601
642123
187470
180182
160147
170476
495630
1.67325e+06
1.3063e+06
1.00742e+06
1.03745e+06
1.23723e+06
141864
159037
236985
142903
145994
323115
2.61445e+06
2.07539e+06
160486
199141
886248
764606
531287
1.64978e+06
1.77921e+06
1.39208e+06
1.51931e+06
897456
466912
400383
433909
201639
252717
1.91607e+06
512844
1.22132e+06
90222.8
1.77479e+06
162291
700225
813163
2.61199e+06
144054
721976
172122
675850
183244
426392
1.29946e+06
595302
1.49535e+06
970941
1.63395e+06
1.77501e+06
839305
1.91788e+06
706146
574257
707181
574789
273612
838645
947634
1.23959e+06
150544
243899
1.5229e+06
659486
2.39756e+06
1.94811e+06
2.18346e+06
393168
1.71011e+06
801522
622221
304411
232530
2.34254e+06
1.21307e+06
143312
2.54152e+06
2.14629e+06
73813.2
744816
608910
93762.3
982045
791758
117196
200647
1.64163e+06
2.44207e+06
148722
862228
884659
1.77179e+06
1.71608e+06
625861
641394
626291
641269
154259
155199
154437
145419
117022
2.51326e+06
1.9574e+06
1.76588e+06
2.22826e+06
841439
449919
1.82009e+06
1.02024e+06
1.11474e+06
1.21194e+06
81057.3
1.86522e+06
325484
1.39835e+06
1.99707e+06
592311
416235
2.54146e+06
680940
714890
500307
527675
1.34793e+06
1.30245e+06
225506
221509
123604
146485
438160
1.59386e+06
1.47055e+06
1.35008e+06
666821
2.5102e+06
152534
303731
136517
1.33388e+06
1.45602e+06
851414
1.58039e+06
727553
1.72111e+06
615398
1.6314e+06
1.37661e+06
1.50244e+06
1.76018e+06
493658
875369
754834
616802
143612
201202
214707
278100
520435
440694
478716
2.07435e+06
963799
1.17573e+06
1.914e+06
224502
343787
146438
539445
753723
259749
362004
1.93596e+06
206642
140892
143662
146497
141590
91226.6
225934
174626
188711
1.66658e+06
1.96879e+06
172284
149551
190696
330329
720152
2.12764e+06
1.98225e+06
881709
150398
215416
1.69447e+06
152572
153577
2.58229e+06
999404
1.95023e+06
549049
1.32188e+06
836528
818189
226573
925540
1.3986e+06
674779
485261
191662
437587
148124
114878
133685
2.0947e+06
1.23727e+06
1.26156e+06
2.07038e+06
323678
347301
180614
656130
161430
145341
155942
414152
326396
33233.6
326014
22760
145069
1.29584e+06
390800
566489
1.20012e+06
1.10586e+06
1.01351e+06
203565
2.37878e+06
783164
453420
2.04701e+06
1.22106e+06
1.26974e+06
209641
20592.6
209341
21665.8
1.80945e+06
446038
755747
895435
825533
167468
1.93974e+06
455576
326746
1.04786e+06
804793
140268
44330.3
1.42449e+06
295794
1.42283e+06
363072
482675
888501
992141
832920
180383
728098
299231
385603
185089
198825
691470
720791
239558
436353
152224
153418
1.15623e+06
579206
424920
162216
614296
15904.8
59523.7
613563
769132
621550
920543
1.09267e+06
126594
2.36957e+06
2.46785e+06
310526
148443
164409
257640
283876
29351.5
283552
25299.7
1.24656e+06
426342
591856
2.29951e+06
2.33397e+06
1.98297e+06
1.79747e+06
1.07374e+06
951554
910725
808035
1.9477e+06
281375
556652
200262
130343
145465
401404
562966
805982
2.25927e+06
2.2807e+06
286373
148823
748241
813622
273393
1.23733e+06
507489
415579
1.80627e+06
178730
163922
220102
1.20926e+06
1.21663e+06
1.28611e+06
815472
408310
570848
97162.6
99109.9
1.39681e+06
145322
1.23913e+06
159780
609303
990634
868125
1.44737e+06
1.69279e+06
150760
198106
459714
2.01049e+06
9684.63
119881
35558.1
120453
324015
297960
97645.1
2.17749e+06
38823.2
2.06269e+06
537054
52028.6
16778.8
536415
352246
174518
20090.7
174389
448205
1.95066e+06
451130
2.14603e+06
2.4699e+06
71574.7
710105
840505
775187
1.00429e+06
481861
350708
1.07847e+06
679623
118614
265101
421339
301613
751114
993090
277482
278644
2.37387e+06
856517
994041
926501
1.06949e+06
1.50457e+06
136861
150258
1.25903e+06
1.53173e+06
513299
291484
335629
172594
345579
509700
155213
268780
389243
152814
106925
1.37585e+06
1.60789e+06
311500
690465
538517
550225
1.70571e+06
776518
336374
259631
656879
543012
135116
394251
1.5328e+06
1.96054e+06
524791
365493
924870
1.09505e+06
1.00908e+06
92486.1
146757
380908
270462
1.4572e+06
528477
116162
56788
88444.2
511728
358681
895052
1.05958e+06
976594
150944
2.11861e+06
2.41924e+06
166136
166830
158574
154546
2.11984e+06
422297
312187
902304
2.6193e+06
2.10524e+06
598396
208470
552243
509341
311068
290399
331128
184383
161418
162051
451059
2.06129e+06
120738
1.14395e+06
1.23901e+06
1.95523e+06
1.40995e+06
1.37604e+06
526472
519050
708969
720174
328575
369450
318058
145742
143093
834804
270200
1.91677e+06
1.32708e+06
336528
142115
818583
2.44997e+06
140265
1.31038e+06
1.09004e+06
1.03591e+06
1.35352e+06
927609
398957
556036
1.23221e+06
215249
899350
389251
435635
223157
454492
276559
359714
988051
489644
207672
180184
239721
1.26734e+06
1.04047e+06
226033
215610
202752
232903
148076
668480
514443
131923
487182
151494
278737
450972
2.24109e+06
1.97312e+06
1.34087e+06
391434
277338
875617
810936
745424
352489
351947
169319
1.21325e+06
165588
686218
893652
260134
226131
1.99927e+06
113692
397832
370901
178027
2.10928e+06
110859
145123
594775
701479
211107
200111
221829
160283
152184
1.34023e+06
120522
164985
20509.7
164810
1.33872e+06
1.27387e+06
2.41188e+06
1.44085e+06
1.8158e+06
150839
1.87465e+06
1.28158e+06
18552.9
134663
317746
240236
541827
588833
635481
832177
467247
1.94978e+06
1.14488e+06
1.24263e+06
197824
131357
127948
148167
161564
169661
264006
1.11924e+06
134763
2.42375e+06
593878
240307
1.25547e+06
823112
417974
582822
268230
232503
331114
498707
321925
664166
603067
238772
152523
859207
1.19242e+06
104076
112904
204832
120906
123839
1.81671e+06
481523
353155
1.02333e+06
1.76133e+06
480676
347567
865958
735702
797258
675415
389469
280220
155828
10912.8
86366.2
827386
681145
972094
2.02572e+06
1.7191e+06
1.87114e+06
681496
826044
2.02957e+06
1.8742e+06
971077
1.72192e+06