/*--------------------------------*- C++ -*----------------------------------*\
| =========                 |                                                 |
| \\      /  F ield         | OpenFOAM: The Open Source CFD Toolbox           |
|  \\    /   O peration     | Version:  2.3.1                                 |
|   \\  /    A nd           | Web:      www.OpenFOAM.org                      |
|    \\/     M anipulation  |                                                 |
\*---------------------------------------------------------------------------*/
FoamFile
{
    version     2.0;
    format      ascii;
    class       volSymmTensorField;
    location    "3760";
    object      sigma;
}
// * * * * * * * * * * * * * * * * * * * * * * * * * * * * * * * * * * * * * //

dimensions      [1 -1 -2 0 0 0 0];

internalField   nonuniform List<symmTensor> 
11800
(
(146314 74107.8 7.04821e-14 -2736.34 3.73352e-14 35624.6)
(-72734.1 65692.8 1.08198e-13 -554.278 3.43129e-14 -18184.3)
(661871 93974.9 -1.79055e-15 1448.96 -7.8231e-14 164583)
(-575112 48409.3 0 -1559.12 0 -143084)
(-75332.6 63376 2.01869e-14 -5121.66 -5.70357e-14 -19962.3)
(-359857 97143.4 7.82644e-14 2240.59 4.10524e-14 -88732)
(-66763.6 93589.2 1.48076e-13 -596.479 -3.85058e-14 -16713.4)
(-94097.9 96983.1 -2.20476e-14 892.192 8.87041e-14 -23126.2)
(203624 49733.7 2.93994e-14 458.718 -2.00773e-14 50637.1)
(139027 101922 -7.58957e-14 546.255 -6.3929e-14 34630.8)
(168948 61242.4 -5.87968e-14 1729.39 5.03307e-14 42348.5)
(-834030 35153.7 -7.02619e-14 -6272.41 -3.18793e-14 -208496)
(23444 -34061.1 1.27135e-16 -63203.9 9.88021e-17 -9865.24)
(613138 48851.2 6.37031e-14 3770.01 -1.74327e-14 153067)
(-490368 90982.5 -5.31519e-14 6268.41 4.13199e-14 -120115)
(2.27221e+06 -8118.07 0 -7703.4 0 561869)
(-43629 73460.8 5.01097e-14 4130.37 4.41877e-15 -9800.42)
(-67302.6 67549.9 -2.82717e-14 8226.15 1.62368e-13 -14658.1)
(140893 114931 -2.88428e-14 -18151.4 2.05023e-14 30454.7)
(105861 61538.6 -1.01007e-13 -11820.4 -3.26717e-14 23333.3)
(-451850 54946.4 3.14728e-14 -1654.92 3.29836e-14 -112524)
(-729520 85555.6 5.03461e-14 3687.74 -2.92736e-14 -180094)
(-957329 109499 -2.54025e-14 12075.5 1.6338e-14 -234536)
(-878469 63280.3 2.55766e-16 485.261 4.41457e-15 -217846)
(1.85385e+06 81438.9 3.18131e-15 -8419.68 3.67805e-14 457889)
(-1.14221e+06 109164 -2.49429e-14 8445.34 -7.10678e-16 -281309)
(-1.20732e+06 57465.7 0 10735.4 0 -296896)
(596083 43316.2 -8.34999e-14 -5403.57 -5.04274e-14 146560)
(-1.31531e+06 58680.3 -1.44045e-14 11833.4 -6.92185e-14 -323420)
(-1.42367e+06 59292.4 1.91853e-14 13938.8 -2.98328e-14 -349783)
(391318 45766 -1.03485e-13 -1995.35 -1.85467e-13 96598.8)
(78212.5 59314 -1.66281e-14 2678.99 -1.37447e-14 20070.8)
(1.16501e+06 105232 -4.07343e-15 13365.6 -1.78188e-14 292378)
(-28788.4 78102.1 1.35341e-14 -1905.46 -1.01339e-13 -7615.77)
(20081.6 82570.1 -3.57933e-14 2311.97 -1.53642e-13 5556.31)
(-382108 34432.9 -9.39644e-14 -915.914 -6.82619e-14 -95036)
(22063.2 83659.9 1.27125e-13 1693.63 -1.51186e-13 5894.55)
(1.24885e+06 60728.9 -1.49625e-14 6682.76 -6.40049e-14 311524)
(-45336.2 80965.3 0 -1621.6 0 -11651.2)
(101163 76031 -4.38208e-14 5875.56 8.16285e-14 26558.4)
(-1.26858e+06 42806.2 -7.78212e-14 -6407.93 -3.61695e-14 -316352)
(-1.38201e+06 42324 5.5749e-14 -6808.5 -3.19891e-14 -344593)
(626515 57989 -3.22047e-14 -844.431 -1.07199e-13 155242)
(-1.49572e+06 42650.8 -1.06151e-14 -4996.71 -5.65892e-14 -372359)
(411338 57324.7 2.75062e-13 1133.77 -8.58024e-14 102343)
(2.12486e+06 51813.6 0 -7496.24 0 525362)
(917382 119892 -1.60563e-14 -3480.21 8.40848e-15 226758)
(1.09276e+06 43326.5 -2.83418e-14 -11923.2 -1.96865e-14 268178)
(-105948 83833.6 -1.09045e-13 453.852 -6.71826e-14 -26175.2)
(243678 80417.7 0 2321.75 0 61037.6)
(-865612 48174.9 -5.27782e-15 2548.59 5.59383e-14 -214144)
(-606370 45152.4 1.82824e-13 3290.22 2.14222e-14 -149636)
(-12424.5 81798.9 1.02529e-13 978.595 6.38375e-14 -2839.97)
(44973.8 131403 -2.23076e-15 8372.31 1.94405e-14 13236.2)
(-2.4423e+06 4931.33 -3.42093e-15 -12675.4 -5.35257e-15 -609129)
(1.91312e+06 -86245.1 4.59037e-15 -87574.4 8.10673e-15 452954)
(-65248.9 20878.7 8.82645e-14 1882.89 3.27782e-14 -15722.4)
(-543928 95649.6 6.58467e-15 -6023.78 -5.46541e-14 -136454)
(436354 60457.3 -5.56864e-14 9117.68 8.15568e-14 110531)
(-384953 100651 4.56419e-14 -7331.71 -8.24006e-15 -97333.8)
(1.97877e+06 21064.4 -4.01979e-14 -15049.2 -1.39299e-14 487238)
(-52964.3 85987.7 4.33958e-14 864.431 -7.06207e-14 -12927)
(-428555 78285 -2.50451e-14 -2742.68 4.30554e-14 -107014)
(342801 78506.6 7.60139e-14 3305.05 -4.33597e-14 85875.9)
(1.83034e+06 11994.6 4.39354e-15 -1023.16 -2.65246e-14 453889)
(-266536 33641.1 -1.24158e-13 2109.77 -1.5004e-13 -65609.6)
(-892774 20874.7 8.73228e-14 4686.31 2.91142e-14 -220353)
(-632133 23998.7 2.54074e-15 3953.01 -1.53328e-13 -155864)
(-67609.2 22413.2 0 -3497.43 0 -17643)
(-1.06489e+06 60171.5 -1.98074e-15 11222.7 6.52594e-14 -261435)
(-22782.4 83228.5 -2.4873e-14 84.8919 5.1349e-14 -5631.71)
(-53055.7 65129.8 -9.58208e-14 -3240.33 1.07193e-13 -13968.2)
(-46569.5 63706.7 6.72037e-14 -1637.4 -4.11301e-14 -11961.1)
(-1.61017e+06 348427 -5.75622e-15 198538 5.1966e-15 -350255)
(1.96216e+06 70539.3 -1.55712e-15 -6760.28 -1.59817e-14 485175)
(-359059 52345.4 -9.2318e-14 3472.16 -6.71427e-14 -88228.3)
(1.91783e+06 12790.4 -3.37692e-14 4018.02 3.00503e-14 476849)
(-258917 20603.5 8.16221e-14 -167.449 -2.67794e-13 -64284)
(-191939 43457.5 1.53504e-14 103.443 -1.46475e-14 -47598.2)
(-181407 57158.9 1.56725e-13 2352.82 1.57149e-13 -44426.9)
(-2.46106e+06 -47640.7 1.24296e-14 10807.6 5.82583e-14 -607958)
(107679 55688.2 0 8947.38 0 28937.3)
(57395 67380.2 -1.62929e-13 1825.72 -6.41922e-14 14693.9)
(39789.9 71908.9 5.64885e-14 1197.21 -4.45203e-16 10169.7)
(-84703.2 64037.6 3.86309e-14 -8791.82 1.09314e-13 -23198)
(-1.3873e+06 72201.2 -2.15249e-14 -7269.22 1.08564e-13 -346021)
(424424 52222.4 1.3147e-13 4412.85 -4.08883e-14 106403)
(-1.27858e+06 70443.7 0 -7306.26 0 -319054)
(-1.17171e+06 69023.1 -4.52576e-14 -6477.68 -4.6337e-14 -292332)
(629851 49336.8 6.02251e-14 5533.81 3.68079e-15 157652)
(-13303.1 81259.1 -2.12422e-13 -2956.05 -1.36228e-13 -4034.24)
(1.37835e+06 97075.4 0 -4541.23 0 340870)
(-113559 71196.3 -4.50678e-14 1873.81 -7.47158e-14 -27711.3)
(71281.6 16307.8 -2.59821e-14 4829.35 -3.77039e-14 18884.7)
(172572 72061.8 1.99312e-13 1521.3 3.56749e-15 43196.1)
(54240.8 -40906.2 -8.09189e-16 -115223 -5.99873e-16 -15131)
(-2875.78 11252.9 2.10734e-17 6758.45 -1.25356e-16 963.37)
(-54772.1 -40663.3 -5.12269e-16 114964 3.41317e-16 14934.8)
(-13334.5 82625.8 -6.6042e-14 130.656 -9.60533e-16 -3276.15)
(-726760 53539.6 -1.61924e-14 -2818.15 6.45698e-14 -181023)
(50822.7 38471.5 3.62956e-14 -98.2265 -1.01519e-13 12585.8)
(792153 60561.4 -7.84389e-14 -7270.06 -1.08495e-13 194745)
(-1.30728e+06 110132 5.25164e-15 -651.066 1.06886e-14 -324524)
(-428724 74387.3 -3.24419e-15 6741.9 1.02388e-14 -104702)
(-1730.49 88079.4 -1.01909e-14 -828.515 -5.06996e-14 -634.941)
(340406 100144 -2.10152e-14 2396.36 -3.63282e-14 85056.2)
(-162457 73171.8 -6.23721e-14 -744.282 1.37501e-13 -40493.5)
(-113778 76541.6 -2.11367e-13 -723.935 -1.01924e-13 -28410.3)
(1.94976e+06 20354.8 1.18582e-14 5284.85 2.46966e-14 485085)
(1.28917e+06 59933 1.93416e-14 4634.67 3.93327e-15 321019)
(1.39928e+06 61325 3.70596e-14 5387.25 5.15795e-14 348525)
(1.18182e+06 59132.1 1.35692e-13 4204.05 8.03936e-14 294277)
(-429584 53815.2 6.16008e-14 -3948.31 9.61916e-14 -107568)
(-637186 52756.5 -1.62911e-13 -4565.56 5.85627e-14 -159232)
(230677 65836.7 6.94495e-14 -99.4703 -3.64007e-14 57211)
(1.75556e+06 35199.3 1.78573e-14 98.3993 1.05259e-14 435616)
(247301 31314.9 -5.07622e-14 -3042.31 -1.99564e-13 60605.4)
(-78259.7 76762.5 -1.76039e-13 901.087 1.64583e-13 -19194.2)
(1.64419e+06 75814.9 -2.04638e-14 1194.6 2.54906e-14 408254)
(-141014 105651 -5.6987e-14 -196.599 -1.53356e-14 -35037.1)
(-219341 43650 -3.91066e-14 3830.17 -1.64617e-14 -53472.5)
(68569.7 93626.5 1.25992e-13 -2635.12 -1.8035e-13 16359.7)
(97826.2 99603.9 -8.77811e-14 -1955.68 6.03695e-14 23787.4)
(-69850 76890.6 -2.55509e-14 3730.84 -3.76914e-14 -16405.5)
(-119676 67404.1 -1.60297e-13 -1092.33 -1.25071e-13 -29965.1)
(-2919.37 81327.8 -1.54067e-13 -2500.72 -1.15916e-13 -1344.84)
(-36933.9 80673.1 -9.23645e-14 -1016.91 1.01465e-13 -9416.38)
(-8199.68 82586.8 -6.03821e-14 -2171.18 -5.75396e-14 -2573.22)
(9275.44 56399.3 2.86985e-15 39477 1.28545e-13 12096.5)
(-37544 6312.12 -4.22713e-16 -8667.35 6.10912e-14 -11466)
(-2.06613e+06 -333370 1.85605e-14 84725.6 -9.36747e-15 -491626)
(-1.49124e+06 73491.7 1.33965e-14 -11261.2 -2.04247e-15 -372801)
(463553 47729 6.95592e-14 3727.75 -6.78344e-14 115942)
(-1.38354e+06 75050.6 -5.35791e-14 625.276 3.36382e-14 -343130)
(672289 43725.5 -3.13218e-14 4214.46 9.48748e-14 167854)
(-1.27223e+06 72274.1 2.04452e-14 775.191 2.05403e-14 -315474)
(-1.16415e+06 70252.4 -1.17949e-13 1365.68 9.01119e-14 -288511)
(385838 67130.9 6.8132e-14 -4660.12 1.8984e-13 94577.9)
(-1.18321e+06 29592.3 7.31957e-14 7734.87 -1.00597e-13 -291660)
(563388 70247.4 8.45187e-14 -5751.25 -6.72905e-14 138361)
(-1.08874e+06 30619.3 6.06413e-14 6867.63 -1.04393e-13 -268434)
(-996757 32376.1 -6.28762e-14 6837.57 -5.66026e-14 -245619)
(-556911 91373.6 4.70197e-15 17533.4 4.7218e-14 -133830)
(170369 77143.6 -3.40168e-14 -5847.35 -2.26518e-13 40821.1)
(243605 74732.6 -5.43561e-14 -7667.82 -1.57021e-13 58540.7)
(-355823 73021.3 -1.63505e-14 11196.6 9.4173e-14 -85508.9)
(1.43741e+06 46157.5 -1.03605e-13 1860.76 -3.49484e-14 357111)
(-1.48292e+06 -19431.4 9.96141e-14 -11767.3 3.07923e-14 -370861)
(834109 44389.6 7.01122e-14 -2531.99 -6.52984e-14 206331)
(-425106 44436.5 1.56141e-15 7721.36 9.26845e-15 -103562)
(-194784 73574.8 -8.82057e-14 2232.85 -7.28768e-14 -47775.8)
(-204114 61068.6 7.5486e-14 -2620.85 -6.82862e-14 -51295.2)
(21572.8 82004.8 5.73832e-14 1505.54 1.04801e-13 5726.2)
(-289874 53331.6 -1.29047e-13 -696.568 1.33811e-13 -72096.5)
(249099 64168.4 -6.76442e-14 -4579.17 -7.14661e-14 60670.3)
(168902 73140.9 -6.20015e-14 2599.7 4.77853e-14 42553)
(-539230 60028.6 1.04937e-13 7670.76 -7.06311e-14 -131891)
(-754950 66366.6 3.8127e-14 3216.65 8.34279e-14 -186520)
(1.53034e+06 20243.6 2.35118e-14 1769 -3.12651e-16 380147)
(-7015.73 86128.4 3.01236e-14 -588.424 -1.46506e-13 -1886.75)
(2.21885e+06 80764.7 -2.73806e-14 -13626 -1.49177e-14 547162)
(-238636 66066.5 -1.11467e-13 1080.61 7.68e-14 -58942.2)
(1.93029e+06 51839.7 0 -19482.5 0 474110)
(-552336 66771.6 3.27613e-14 -5503.57 1.36763e-13 -138411)
(-602947 66857.6 -3.35892e-14 -6272.8 3.98395e-14 -151160)
(-653695 68048.6 -5.4362e-15 -6692.39 1.44038e-13 -163856)
(304128 74063.5 -8.26116e-14 974.937 2.03166e-14 75702.3)
(206716 75907.7 -8.81514e-14 526.689 2.17616e-14 51421.2)
(-2.4146e+06 -19725.8 2.17091e-14 -9315.61 -1.23791e-14 -601424)
(-1.50248e+06 71751.2 -2.23478e-14 -8725.78 4.21279e-14 -374961)
(527880 51402 -8.79868e-14 4997.2 -5.14892e-14 132218)
(733149 48193.3 2.47091e-13 5816.15 -1.32792e-13 183352)
(82263.9 82245.9 4.83773e-14 -8054.59 -1.25066e-13 18412.8)
(-430597 37569.9 0 1686.34 0 -106421)
(-436296 20884.8 1.32318e-13 -2590.03 -6.72606e-14 -108896)
(2.11853e+06 57129.3 3.55659e-14 -15212.5 2.37208e-14 521877)
(2.16858e+06 -13558.6 2.94819e-14 13453.6 2.60477e-14 541408)
(1.13996e+06 24244.3 1.80465e-15 -1122.94 6.23337e-14 282569)
(1.04618e+06 26453.4 1.27441e-14 -789.807 1.51371e-13 259382)
(1.23628e+06 22044 3.22058e-14 -2181.47 -4.65497e-14 306205)
(-538081 72076.3 -7.98044e-14 4541.58 7.17994e-14 -132382)
(-357284 68143.3 -7.74349e-14 3411.48 8.49231e-14 -87802.9)
(234375 96007.8 0 1938.25 0 58634.1)
(159826 93198.8 -3.21912e-15 814.08 1.23105e-13 39858)
(511079 71931.1 -9.4827e-14 -216.703 7.75302e-14 126755)
(-215815 68027.1 -7.58339e-14 2691.93 1.79781e-13 -52880.2)
(-336956 102086 -1.50142e-14 4340.32 6.6369e-14 -82528.7)
(104236 74913.6 -2.82094e-13 -839.608 -7.485e-14 25654.8)
(148433 71179.2 -1.95077e-13 -1067.9 8.16148e-14 36564.3)
(-91309.9 85689.3 -3.80376e-14 2187.02 -5.31921e-16 -22113.2)
(-256257 56369 -3.14451e-14 5460.38 -1.96318e-14 -62227.8)
(-235480 57518 2.07798e-14 4821.52 -3.54762e-14 -57231)
(-237816 42549.2 0 -470.549 0 -59123.8)
(-113869 105755 4.30773e-16 -4992.79 -4.1186e-14 -29492)
(-1.09443e+06 3217.45 9.24019e-14 -6849.88 -4.046e-14 -273251)
(1.37392e+06 55076.3 -1.20051e-13 -6274.24 -1.20892e-14 339340)
(1.69197e+06 174469 7.13548e-15 -291006 3.60814e-15 347607)
(-40319.4 72277.7 2.51908e-14 -3492.18 -5.70948e-14 -10870.5)
(258182 25366.1 9.19254e-14 2245.41 -2.0986e-13 64617.4)
(-2.11968e+06 -264203 1.78323e-14 171890 -1.15285e-14 -483287)
(120123 57578.6 3.93391e-15 3788.47 1.06653e-13 30745)
(328882 40535.9 7.4211e-14 1108.79 -8.51891e-14 81877.4)
(363338 44392.8 1.03621e-13 -5324.62 -4.37177e-14 88830.5)
(-4634.85 85115.3 7.80526e-14 -94.975 -1.15751e-14 -1173.57)
(-5285.91 88000.6 8.23326e-14 -639.592 6.96193e-15 -1470.24)
(994757 33076.6 2.63015e-14 -4961.02 8.74838e-14 245589)
(824632 91741.5 3.34323e-14 7411.81 -8.06198e-15 206447)
(-749760 76229.4 0 7314.43 0 -184216)
(-640948 41019.8 -8.50852e-14 -9928.44 -5.32184e-14 -161496)
(2.06054e+06 -336830 -7.48316e-15 -86782.4 -5.05313e-15 489730)
(-631658 118063 -6.80948e-15 17577.5 7.93927e-14 -152366)
(-1.01045e+06 39869.3 4.68473e-14 -2167.35 -2.76133e-14 -251250)
(-2.14853e+06 -865235 -2.01357e-14 450312 7.87044e-15 -421363)
(2.57146e+06 1959.41 0 35188.3 0 646764)
(-1.88162e+06 -801355 -6.55255e-15 212049 2.02565e-15 -414254)
(329536 117510 -4.46395e-14 -164.952 1.57383e-14 81723.6)
(-73868.9 69250.5 -7.96146e-15 -1175.21 1.11316e-13 -18620)
(-970444 85989.4 3.96161e-14 -8149.72 -4.35669e-14 -242809)
(-887532 85972.3 5.90412e-14 -7258.37 -7.37047e-15 -222016)
(-813713 83846.3 -6.73556e-14 -6528.61 2.61544e-15 -203519)
(289384 60584.3 5.90564e-14 3909.31 -1.6476e-13 72772)
(434291 57582.6 -1.4822e-13 4891.2 1.44085e-13 108970)
(42941 74200.2 -2.33037e-14 -7712.15 1.09363e-13 8740.99)
(61163.9 69603.2 5.51616e-14 -10426.8 7.06595e-14 12588.9)
(-139796 111499 -6.28302e-14 23155.6 1.70006e-14 -28940.9)
(-88953.7 65003 4.69089e-14 15265.8 -5.99935e-14 -18283.5)
(-1.17814e+06 -474232 -5.07601e-15 -29571.8 1.05952e-15 -299657)
(219450 112544 -3.56958e-14 16670.8 -1.2649e-13 58586.4)
(-108958 66763.1 -1.23173e-13 -8720.9 -5.6303e-14 -29198.5)
(-511761 105393 0 14.7337 0 -126975)
(219044 62222.3 9.46457e-14 1106.78 -3.8632e-14 54623.9)
(-107872 90779.7 0 -613.609 0 -26917.6)
(-80805.2 72849.2 -5.99445e-14 -812.242 -9.49418e-14 -20251)
(763910 75334.6 8.38872e-14 4304.47 -8.77254e-14 190609)
(784903 47451.3 1.2842e-13 -45.6728 6.13302e-14 194739)
(2.14587e+06 -864308 -7.53285e-15 -449961 -2.48943e-15 420789)
(1.17638e+06 -474025 8.80087e-15 29528.2 2.41117e-15 299210)
(-238862 53085.4 1.82734e-14 1820.48 2.60023e-14 -58814.7)
(-255017 54086.8 -5.55146e-14 -2850.6 -1.13512e-13 -63982.1)
(-1.36102e+06 654.774 -6.10595e-14 -5278.27 -1.39908e-14 -339005)
(1.10347e+06 51318.4 1.38292e-13 -3854.32 -3.61278e-14 272837)
(357378 69006.1 4.58428e-15 -2920.1 2.51447e-13 87948.1)
(537388 73845 8.54258e-14 -3698.9 9.28745e-14 132419)
(-1.23783e+06 22357.3 -2.24235e-15 -721.198 5.30091e-14 -307309)
(-1.14394e+06 26177 -5.39163e-14 -894.768 1.78271e-14 -284056)
(-1.0494e+06 28499.7 -3.60099e-15 -937.644 8.37473e-14 -260611)
(-15988.5 87345.4 -1.2995e-13 -937.232 3.75836e-14 -4199.63)
(-1.34264e+06 24474.6 3.50262e-14 -2172.81 3.76639e-14 -333676)
(448766 69238.7 -8.75533e-14 -2988.42 4.29463e-14 110606)
(629346 72799.7 0 -3481.37 0 155290)
(593766 54850.4 3.33557e-14 -4430.64 7.95844e-14 146226)
(114541 72764.6 -1.0982e-13 919.743 -2.90291e-13 28648.2)
(9804.81 75360.7 -9.62358e-14 -8802.92 -3.53897e-14 248.589)
(487245 40144.1 -1.22078e-13 15042.9 2.1867e-14 124628)
(-413373 56935.9 -1.04561e-14 -1276.87 -8.46156e-14 -102883)
(65227.8 77125.7 1.42226e-15 -15782.6 1.77483e-14 12268.4)
(1.87858e+06 -801101 -6.81667e-15 -212391 -1.71278e-15 413416)
(293986 79830.9 8.6743e-15 -2699.31 -1.60651e-13 72274.2)
(354322 77719.3 7.47966e-14 45.6586 2.54367e-14 87925.9)
(-232715 76955 0 -379.441 0 -57835.4)
(-276392 86524.1 2.7921e-14 -7037.37 -7.76961e-14 -70324.5)
(815952 83546.2 0 7501.17 0 204316)
(889968 85855.5 4.93509e-14 8096.96 4.68184e-14 222828)
(964049 89594.1 -1.10455e-13 8457.05 -1.0673e-14 241299)
(-434666 54650.3 1.56454e-13 -5701.6 1.58912e-13 -109264)
(-292866 59344.5 8.22287e-15 -4109.09 -9.51156e-14 -73685.5)
(-15871 83465.2 9.25646e-14 -212.349 4.92768e-14 -3990.61)
(1.93272e+06 12853.1 -1.43272e-14 -30303.5 -2.61903e-14 472029)
(-12211.5 96991.3 -1e-13 -5976.14 3.11536e-14 -4512.73)
(24895.9 48747 -9.54894e-14 11534.1 -5.94238e-14 9039.03)
(43029.6 79281.3 7.19252e-14 1243.98 -1.66902e-13 10985.2)
(462080 79127.3 7.65531e-14 325.442 8.08785e-14 114732)
(-181475 4904.69 -1.27309e-13 -3138.51 6.23846e-15 -45806.3)
(610607 88278.4 0 -3830.64 0 150554)
(2.03321e+06 -86694.5 3.29998e-16 -283069 1.32497e-16 434247)
(460510 21661.9 7.34953e-14 6753.09 1.67108e-13 115937)
(442486 34034.4 3.33087e-14 -6535.54 1.81487e-14 108168)
(-664695 75333.6 1.0944e-14 6238.69 2.31059e-14 -163376)
(-472761 70757 -8.52991e-14 5120.89 2.73207e-14 -116031)
(-566468 46708.8 -1.74372e-13 -2574.17 -3.05e-14 -141191)
(-406023 51572.9 8.80396e-15 -2912.6 -9.25611e-15 -101465)
(1.40765e+06 20310.7 -6.0916e-15 -3608.54 2.00476e-14 348372)
(1.16536e+06 95298.1 2.51645e-15 -710.778 -4.14586e-14 288974)
(335350 87007.9 1.54352e-14 -4022.49 9.12845e-15 82209.1)
(451118 72122.4 2.89766e-14 -193.362 4.92848e-14 111884)
(247169 86155.1 8.06236e-14 -4294.85 5.74377e-14 60262)
(331541 72472.8 7.22964e-14 -1707.23 -1.14417e-14 81838.4)
(-636964 51123.3 -1.33081e-14 6569.93 3.33843e-14 -156413)
(-837780 80475.7 -3.69109e-14 2553.58 6.6342e-15 -207237)
(-191787 127323 4.09765e-14 -611.726 2.92451e-14 -47737.9)
(1.38109e+06 57012.6 4.57627e-14 5539.31 3.28307e-14 344051)
(1.49765e+06 56782.5 -9.91439e-15 24541.7 4.92527e-15 377688)
(1.77646e+06 58023 8.05057e-15 -1705.91 5.0706e-15 440351)
(123676 81265 -1.56905e-13 1.62317 1.90503e-13 30686.9)
(-454483 22729.4 -9.72186e-14 -6078.44 -4.99794e-14 -114275)
(-439497 36870.6 -1.23362e-13 4268.63 8.25018e-14 -107989)
(2.07513e+06 -8530.18 0 13163.4 0 518148)
(2.08068e+06 64153.7 0 1247.84 0 516568)
(1.24068e+06 50024.1 1.90343e-14 -1830.62 9.06525e-14 307384)
(1.23041e+06 8044.44 6.07972e-14 5075.48 -1.70789e-13 306549)
(-1.27869e+06 10701 0 -9537.14 0 -319635)
(-1.24683e+06 50307.8 0 8565.48 0 -307238)
(35831.3 79030.8 -2.16216e-14 2520.52 6.19221e-14 9515.85)
(-87720.4 34062.3 2.31391e-13 -5144.45 -9.79279e-14 -23041.7)
(-337609 34500.7 -6.10123e-14 -3528.2 -2.25088e-14 -84643)
(2.71502e+06 3094.8 0 54860.5 0 687263)
(-47921.8 69392.6 -1.52588e-13 -1686.65 -3.80754e-15 -12308.9)
(-56735.3 72181.8 -2.19778e-14 -4887.99 -1.22221e-13 -15290)
(298189 93793.2 -7.86911e-14 -6771.12 -5.39222e-14 72306.8)
(-235453 91992.5 -1.6395e-13 -7012.06 6.86463e-14 -60160.5)
(285459 56076.3 4.76017e-14 -7868.31 -4.92262e-14 68875.9)
(-1.09235e+06 47549.1 3.37428e-14 -10024.1 -6.86944e-14 -273522)
(1.10061e+06 52110.7 -1.40095e-14 -11366.6 -8.39986e-14 270264)
(-1.85227e+06 78833.2 1.45416e-14 -11380.3 -6.21554e-14 -462411)
(-2.19475e+06 -199481 7.69001e-15 406663 -5.52837e-15 -443660)
(766539 102405 -1.22442e-14 -16053.1 1.5205e-14 186211)
(86873 101441 -8.13763e-15 -4824.64 4.58008e-14 20357.9)
(-1.03059e+06 83239.1 -4.07631e-14 -4546.91 -1.14188e-13 -256837)
(866769 27518.3 -5.30686e-14 11153.9 7.6529e-14 217831)
(-600364 50763.7 5.85305e-14 -10428.4 7.50562e-14 -151550)
(468605 81928.6 8.79375e-14 5772.79 1.53988e-15 117703)
(87450.5 89414.7 2.45371e-14 5099.67 1.14801e-15 22963.6)
(150180 69043.3 -1.03771e-13 -921.508 1.30305e-13 37034.2)
(-298062 59065.7 7.11749e-14 -18915.5 -7.55833e-14 -78648.6)
(-482424 118608 1.16552e-15 8087.87 9.51866e-14 -117692)
(-273548 60024.9 1.09757e-14 -17508.8 -7.64651e-14 -72217.2)
(-442615 114631 6.94438e-14 7295.44 -2.5374e-14 -108012)
(109688 48955.9 -4.35647e-14 -3109.02 1.35329e-14 26444.4)
(-51784.6 98306.6 -1.1548e-15 2644.45 -8.56619e-14 -12192.7)
(-33838.8 96629.1 1.06276e-13 2550.08 8.52306e-14 -7763.38)
(-22727.8 86236.4 5.47046e-14 773.836 -1.19097e-13 -5447.23)
(1.47183e+06 40254.5 3.14242e-14 4299.86 4.86997e-15 366257)
(-15192.3 98581.1 -1.20184e-13 -6847.33 -5.34129e-14 -5468.48)
(-58221.1 71682.8 5.9395e-14 -4812.89 -1.98857e-13 -15640)
(2.04956e+06 -60535.8 -1.55847e-14 -105641 -1.1368e-14 482325)
(341378 58298.9 6.33003e-14 -5224.68 -8.11954e-14 83406.4)
(-790474 101872 4.22681e-14 14390.4 1.14102e-14 -192562)
(-907428 65110.8 -6.90974e-14 2029.9 -3.02323e-14 -224648)
(-901153 29340.8 0 -10969.6 0 -226316)
(1.13377e+06 16995 -6.22096e-14 5569.11 -2.95785e-14 282693)
(1.08584e+06 73723.6 3.79082e-15 9274.59 7.4089e-14 271721)
(-34894.6 59605.2 -7.02573e-14 1038.07 5.72617e-14 -8400.49)
(-26561 60042.8 5.09683e-14 1667.24 -2.84955e-13 -6176.64)
(-707617 109306 -2.79109e-14 8367.4 -6.83667e-16 -173498)
(-953099 77406.9 0 12149.7 0 -233469)
(672952 47931.6 1.52765e-14 7555.7 3.75684e-14 168848)
(-1.73986e+06 97211.5 6.68078e-15 -8292.74 -2.11164e-14 -433751)
(61303.5 68188.7 0 15637 0 19090.5)
(961180 41183.6 -3.3139e-15 -3132.49 2.29561e-14 237711)
(728837 105924 -1.79008e-15 5750.68 8.6998e-17 182266)
(-460042 86792 1.30623e-13 4564.71 -1.67956e-14 -113013)
(-357340 58857.3 -1.27614e-14 -3144.83 9.20283e-14 -89443.7)
(-327999 82763.7 2.02103e-14 3645.79 -7.68e-14 -80478.7)
(-256967 62905.2 -1.14236e-15 -2806.74 4.51201e-15 -64455.2)
(-366263 39681.6 4.72539e-14 313.929 6.97796e-14 -90799.4)
(-308824 45171.3 -8.2658e-14 3176.97 1.66327e-14 -75837.3)
(-376999 105276 0 1004.86 0 -93291.8)
(-423618 106628 -4.16178e-14 -1113.67 3.61516e-14 -105384)
(-461126 110035 -3.39714e-15 -1403.91 -3.87269e-15 -114763)
(125738 68475.6 -2.03452e-13 1354.04 -1.01702e-13 31534)
(-25129.2 82048.4 -4.51583e-14 -2365.63 8.98763e-14 -6822.02)
(908135 40868.9 -2.54402e-14 5494.55 7.24728e-14 226690)
(950750 55857.4 3.52304e-14 -6352.21 -6.84626e-14 234324)
(157302 72353.1 7.321e-15 1128.3 -5.07145e-14 39309.8)
(230381 65810.9 0 2698.44 0 57831.8)
(-498884 105654 5.20718e-14 -2600.09 -5.72203e-14 -124428)
(441847 63268.4 -9.95386e-14 4370.76 -1.25988e-15 110716)
(482436 94319.3 -4.35721e-14 4940.07 -2.69761e-15 120928)
(-176758 78961.5 -8.36114e-14 -763.541 1.19815e-13 -44046.6)
(-150737 82564.3 4.8782e-14 -1837.31 2.86234e-15 -37856.9)
(-216758 86534.4 7.90407e-14 -995.195 2.81112e-14 -54029)
(-240688 74249.2 0 -2853.04 0 -60427.4)
(-1.04632e+06 42562.9 2.3192e-14 -334.951 -3.5375e-14 -259697)
(484304 76184.7 -3.82839e-14 -941.868 -1.51341e-13 119932)
(344609 74114.3 -1.75368e-14 -1139.12 -2.50642e-15 85221.9)
(-113201 203660 -1.06151e-14 22586.1 -7.58209e-15 -22483.4)
(1.25568e+06 33631.7 -8.03009e-14 -9128.84 -4.80977e-14 309294)
(-1.46652e+06 9510.92 6.95048e-14 2132.59 4.15879e-14 -363344)
(-168218 188423 0 -6404.36 0 -43327.3)
(-173626 76809.4 2.9228e-14 2182.99 8.82175e-14 -42538.6)
(-146692 81088.9 -2.19844e-13 3761.4 -5.57617e-14 -35464)
(-253095 75519.7 9.4812e-14 1655.67 1.06055e-15 -62387.3)
(-217993 82935 0 3104.17 0 -53318.3)
(494922 60943.9 4.82907e-14 -4402.35 -7.77213e-14 121708)
(568317 85845.1 1.76344e-14 -3436.68 7.47297e-15 140158)
(461528 64888.3 -3.59262e-14 -9077.23 3.43879e-14 112262)
(538308 88632.3 3.8358e-14 -6315.47 1.05954e-13 131998)
(423218 64906.2 3.00975e-14 -8082.07 5.04887e-14 103004)
(493496 86829.4 -6.53856e-14 -5721.68 3.73588e-14 121027)
(389080 38556.5 2.98253e-14 -57.8446 1.12611e-13 96524.3)
(375415 22544.7 8.76998e-14 2397.05 1.87748e-13 93742.9)
(-743750 84747.5 -1.67233e-14 1069.38 2.19586e-14 -184274)
(350644 81196.3 -9.0828e-14 -4459.8 -2.20823e-15 85895.4)
(-833779 60781.3 0 7130.99 0 -205108)
(1.44195e+06 89621 4.8941e-14 -12361.6 -3.07836e-14 354710)
(-729738 37556.6 9.1514e-14 2769.37 -1.50333e-13 -180376)
(-531608 43360.6 1.10526e-13 826.913 -7.42683e-14 -131698)
(-1.62139e+06 -766520 -6.23783e-15 257155 1.39408e-15 -338494)
(48172.2 76910.4 1.23473e-13 184.738 -3.24183e-14 11998.3)
(1.52999e+06 49085.9 -1.63562e-14 -3451.11 -8.29709e-16 378765)
(-745299 58323.6 -2.56104e-14 2830.11 -7.42506e-14 -184222)
(-536119 56512.9 1.60124e-13 2430 7.87863e-14 -132419)
(2.27835e+06 -17607.2 2.65806e-14 -4827.48 1.18314e-14 564108)
(-102720 68462.5 -1.77086e-14 -1551.91 7.10275e-14 -25872)
(1.57547e+06 12340.3 4.06711e-14 4659.89 -2.52682e-14 392062)
(-370255 59606.8 5.54051e-14 1604.56 -9.76591e-14 -91469.7)
(-1.30045e+06 88620.1 3.29751e-14 13448 -4.29642e-15 -319331)
(-1.22231e+06 55889.1 -2.01427e-14 -7113.27 -1.53156e-15 -305045)
(1.18428e+06 57459.5 -3.81329e-14 1993.71 2.49282e-14 294339)
(-151253 79995.5 -2.41736e-13 5996.54 -1.10013e-13 -36041.1)
(-3553.19 -41153.9 2.53843e-16 -64523.2 9.02402e-17 -16891.1)
(-18550.3 73159.8 0 3055.83 0 -3844.5)
(-2.15172e+06 -687728 1.02449e-14 270249 -2.82419e-15 -466832)
(1.61813e+06 -766234 1.21307e-14 -259111 3.81467e-15 337199)
(-1.03973e+06 92367.3 4.26376e-14 -8326.24 -4.13407e-14 -260045)
(361318 57344.2 1.85086e-14 3410.47 7.14228e-14 90496.6)
(501810 52522.6 -5.95124e-14 4599.22 1.35459e-13 125650)
(144863 75516 1.19211e-13 -1290.2 3.54962e-14 35623.3)
(-270607 15142.5 6.90886e-14 106.018 -1.06229e-13 -67116.7)
(243683 98388.7 -5.74106e-14 -1575.92 5.25294e-14 60071.6)
(-123574 59764.3 1.69602e-14 863.66 2.60003e-14 -30447)
(-111976 107628 1.21374e-14 4588.21 3.51931e-14 -26645.1)
(-1.76571e+06 1493.28 -5.62263e-15 47159 1.33312e-14 -426407)
(14420.6 -24490.6 6.66177e-17 -42767.7 4.13493e-17 -7033.5)
(-613382 97782.5 -2.55154e-16 7673.42 4.80348e-15 -150289)
(482743 54022.9 4.30676e-14 -3161.92 1.33402e-13 118994)
(1.83139e+06 -354861 1.07722e-15 -47954.8 1.39528e-15 442508)
(-54861.9 59299.4 -1.10638e-14 -9551.04 -8.59972e-14 -15982.2)
(-61600.4 100764 8.77769e-15 -4468.07 8.39573e-14 -16392.9)
(-35039.8 87836.3 -1.50192e-15 97.358 -1.28573e-13 -8669.94)
(-90459.6 74402.8 -2.37508e-14 3861.31 3.23584e-14 -21486.8)
(40985.9 86601.1 3.84605e-14 -1495.41 9.93766e-14 9798.4)
(27044.1 88783.4 -9.03954e-14 -251.877 -2.95074e-14 6647.7)
(-1.83551e+06 -352669 4.58839e-15 46320.7 -1.41796e-15 -443934)
(646716 91347.9 -3.50774e-14 2445.79 1.89733e-14 161070)
(-226878 74254.5 -2.41983e-13 -589.428 -6.86472e-14 -56439.2)
(763082 77702.1 1.25838e-13 4679.75 -2.12984e-13 190497)
(700821 76618.5 -1.56601e-15 4374.99 -8.17135e-14 174974)
(641614 74190.1 -2.33804e-13 2377.53 3.52697e-14 159787)
(111005 42973.8 -1.18253e-13 4001.83 -4.42361e-14 28535.4)
(-1.49884e+06 30917.5 6.32672e-14 -3816.96 -6.13766e-14 -372839)
(473961 59251.1 1.28227e-13 -2696.68 1.38338e-14 116930)
(672777 61317 -5.80538e-14 -2714.53 -8.30146e-14 166256)
(-129002 73934.5 -2.04944e-13 -349.262 -3.45496e-14 -32094.6)
(956305 99763.3 1.33604e-14 -12840.6 1.92812e-14 234093)
(184031 57230 -8.29264e-14 194.73 5.61653e-14 45710.1)
(-1.91478e+06 22488.8 -2.13886e-14 -2606.67 -7.90785e-15 -475743)
(55754.4 75798.3 -1.06943e-13 1836.41 -8.99605e-14 14289.5)
(-162209 80913.6 -2.12649e-13 1481.83 1.00403e-13 -39879.7)
(548010 61312.6 1.59931e-13 499.135 -2.30097e-14 136096)
(503281 61662.1 1.4952e-13 468.397 3.63809e-14 124991)
(460285 60244 -1.0844e-13 -1427.58 2.98706e-14 113852)
(996769 44563.7 1.60694e-14 82.0852 3.37239e-14 247339)
(219470 80823.1 -7.17661e-14 3152.03 -1.53774e-13 55236.9)
(-550539 66281.4 4.87627e-14 -8479.33 1.0898e-15 -138704)
(-430144 120824 2.9707e-14 3956.96 3.31111e-14 -105746)
(-241566 49663.4 0 1807.83 0 -59488.8)
(-765562 89683.2 -6.57549e-14 -8601.7 2.00152e-14 -192086)
(-836052 92120.9 -9.88719e-14 -9565.54 -6.53061e-15 -209815)
(-908811 95618.8 -9.8652e-14 -10941.2 4.75154e-14 -228209)
(433570 60395.8 2.03564e-15 7034.84 2.52501e-14 109323)
(296342 65552.1 3.19683e-14 5061 -4.00183e-14 74784.3)
(77009.4 7256.35 -9.29396e-14 3877.34 3.35238e-14 20069.7)
(152777 63089.5 0 -1779.38 0 37465.7)
(196291 50927 -1.08831e-13 1719.78 6.49508e-14 49130.6)
(2.2173e+06 -108549 -5.76021e-15 -290564 -2.77488e-15 478063)
(848996 41729.1 1.07018e-13 1564.52 -1.09816e-13 211041)
(-651693 81644.8 0 1362.38 0 -161360)
(-456406 73869 -5.30422e-14 8853.46 -2.32955e-15 -111047)
(366701 77956.8 2.83333e-14 -3853.54 -3.50365e-14 90029.8)
(-116891 92279.7 4.73432e-14 -2545.11 3.88364e-14 -29634.4)
(-14669.8 89671.6 1.3962e-13 -2896.56 -1.10002e-13 -4358.57)
(38536 63865.8 1.11193e-13 9494.95 -1.75913e-14 11917.4)
(42101.6 63370.1 -5.8152e-14 10331.7 -5.41416e-14 13009.8)
(-4383.35 113818 -2.91316e-15 -2830.88 -2.3864e-14 -1790)
(-10149.5 59255.1 -2.60287e-14 -927.379 8.75241e-14 -2748.41)
(380.343 68946.7 -9.75311e-14 -202.784 7.26705e-14 44.0561)
(13170.2 72455.1 9.3192e-14 -14026 -4.23294e-14 -212.338)
(162381 50239.7 -7.19076e-15 2341.52 -3.3853e-14 40871)
(-300095 115087 -1.69028e-15 1861.6 -1.63221e-14 -73997.8)
(96432.1 72418.9 2.33745e-13 1321.83 -4.59871e-14 24254.7)
(14250.1 111543 9.70252e-15 -17768.7 1.38219e-14 -873.028)
(-635146 113245 -2.42274e-14 -2584.99 -1.45413e-14 -158234)
(809166 51734.1 8.02424e-14 3466.97 7.15626e-14 201631)
(-347800 83228.1 -8.99455e-14 -356.607 2.94183e-14 -86384.8)
(-1.4682e+06 264175 -4.19119e-15 259398 2.50879e-15 -299927)
(-215620 47616.7 6.40655e-14 -2008.37 6.95617e-14 -53998)
(-353464 114473 0 3854.35 0 -86745.4)
(104734 72702.5 1.24737e-13 261.199 -1.72281e-13 26051.4)
(162648 66040.5 6.59633e-15 -434.044 2.14153e-14 40248.5)
(1.61431e+06 -357137 -1.29893e-15 52279.6 2.26926e-16 413514)
(-2.23235e+06 9216.04 -1.78701e-14 13240.2 8.21258e-15 -550606)
(697584 59263.1 3.93622e-14 3925.81 3.30679e-14 174059)
(759986 58853.1 -3.98791e-14 3919.9 8.68371e-14 189541)
(-230666 80193.2 -2.95965e-13 1227.36 -1.05662e-13 -56928.3)
(161651 101225 5.20441e-14 10528.4 1.02556e-13 42721.3)
(-35547 69454.2 8.32687e-14 -3061.74 1.26697e-13 -9579.62)
(-914945 -594365 -1.11114e-15 68402.3 4.67533e-16 -210044)
(-2.17464e+06 73249 5.85376e-15 1814.35 7.56163e-15 -539122)
(1.92904e+06 36227.9 3.1802e-14 3762.87 -1.56683e-14 479567)
(-2.79162e+06 -48437.9 -8.24801e-15 -7612.55 -3.55225e-15 -694546)
(896136 53630.9 -3.60396e-14 -6581.36 -5.60091e-14 220717)