/*--------------------------------*- C++ -*----------------------------------*\
| =========                 |                                                 |
| \\      /  F ield         | OpenFOAM: The Open Source CFD Toolbox           |
|  \\    /   O peration     | Version:  2.3.1                                 |
|   \\  /    A nd           | Web:      www.OpenFOAM.org                      |
|    \\/     M anipulation  |                                                 |
\*---------------------------------------------------------------------------*/
FoamFile
{
    version     2.0;
    format      ascii;
    class       volScalarField;
    location    "1500";
    object      sigmaEq;
}
// * * * * * * * * * * * * * * * * * * * * * * * * * * * * * * * * * * * * * //

dimensions      [1 -1 -2 0 0 0 0];

internalField   nonuniform List<scalar> 
11800
(
129283
104981
358121
308439
100614
225966
124737
129030
135156
142593
127033
434268
62716.2
321501
283573
1.26186e+06
103257
98481.8
171525
102087
249888
394897
572946
512156
1.02913e+06
665625
644138
321152
710294
778613
220800
104862
656546
113509
116019
216081
116178
697827
111066
110936
667798
736012
337824
807225
232430
1.18053e+06
542032
627228
123741
161911
452733
324743
114559
177141
1.34449e+06
1.15566e+06
56450.5
305968
236739
233935
1.14192e+06
122092
245025
203486
1.00934e+06
156616
464788
334934
57348.8
614000
118923
99755.6
95947.1
1.13567e+06
1.12985e+06
212678
1.04489e+06
147023
129003
134828
1.36969e+06
94899
101425
104491
97924.9
748982
234512
681748
619596
331222
111665
780908
118752
55162
128572
106961
13816.3
106568
114200
382665
71020
419457
741159
270383
120528
225720
127238
118138
1.10282e+06
679961
747804
617977
237476
337375
146248
997233
147832
115955
937532
148699
146774
126226
131284
106530
115956
113523
114754
113301
89776.8
30026.1
1.31237e+06
848216
251579
748588
350033
678994
616902
223912
641084
306368
581718
528948
341233
139109
160686
211697
740973
764889
435749
256943
148729
142588
114329
176028
157541
134487
297579
401748
828793
117501
1.26674e+06
159447
1.06262e+06
304095
332363
364023
183508
149166
1.38089e+06
823547
281544
379902
119502
238214
239134
1.17596e+06
1.1892e+06
601940
547147
662626
296630
211319
168350
146621
280762
145708
234393
117171
121527
124936
167406
154368
148234
157767
559046
717183
1.16357e+06
107013
148877
1.36241e+06
106550
183661
206206
117987
120848
521175
439225
399876
331877
1.3064e+06
393204
575811
1.78788e+06
1.42312e+06
1.51637e+06
241062
106466
531846
481881
438955
174741
237091
103437
97903.9
172378
102889
866953
182343
104291
295132
148826
127069
110554
401444
409659
1.77855e+06
862850
152460
160343
705428
575070
212114
296109
668567
610719
554812
119357
736969
251306
336579
316764
114181
109463
274363
231081
123894
1.50901e+06
184163
209316
160463
181327
432442
475822
522193
237610
176427
117436
1.12657e+06
119918
79811.3
114502
260402
101197
335262
1.3377e+06
245716
243304
359841
264092
301916
222965
767496
643781
205219
250852
170142
199172
360154
469972
198623
774948
831990
1.00699e+06
125361
244528
243191
1.13406e+06
1.14496e+06
642135
632332
660578
654234
111272
78559.2
189936
1.51801e+06
103909
109267
193530
167382
170711
566806
574918
1.02343e+06
1.52008e+06
465095
132186
542378
445019
318470
259182
129207
129192
176256
301257
162744
276359
99787.5
124302
125284
119314
831452
123603
107465
1.24224e+06
197122
453452
475593
463795
583421
562295
91924.6
91200
425149
549264
386474
1.00228e+06
93053.4
526444
414017
265532
204052
201746
156927
208805
183266
236807
262595
286617
112171
113923
467912
497231
131435
147051
309460
252860
285844
135920
129588
158403
159545
580094
266004
205514
270920
652860
766139
261229
141628
137139
165851
156612
277924
323789
261083
307007
237517
279625
213929
200500
439269
211840
463491
793494
383671
285707
1.39068e+06
111218
834560
394861
291833
1.28607e+06
112421
859852
215431
746857
688535
663101
134022
59044.3
106000
1.60538e+06
1.38449e+06
578544
206149
266837
131449
150682
173767
107444
161558
1.04983e+06
42860
345800
261319
1.17009e+06
88093.3
128948
112466
121183
111470
116929
1.17489e+06
377346
160776
411009
374235
342358
89428.7
823440
260997
355346
124654
567606
130190
1.09897e+06
109376
141734
299453
273193
250571
573665
152015
312313
292726
152637
415101
455206
500123
236231
179446
52579.5
120402
129864
1.45333e+06
444663
350921
262237
216409
127514
120635
89030.9
92442.4
146598
80682.8
91493.3
107255
119568
237512
113982
155150
388532
436106
209921
1.0533e+06
140253
249089
114789
121359
1.00759e+06
1.27017e+06
367187
404524
167401
148293
101481
885130
1.22098e+06
1.08859e+06
1.598e+06
468911
328661
439744
94594.1
129029
122585
134667
429206
118752
116813
93905.3
122521
881072
189724
835834
559437
118417
148340
766153
893705
427585
471155
516918
236862
179302
389217
115705
115612
113453
126131
104656
139291
79895.8
131176
77419.1
127192
71243
125222
115399
123235
88595
1.01232e+06
171969
159330
354387
578856
87898.4
118458
101017
96490
87347.6
187183
255471
112828
111144
376428
94032.9
138248
1.09544e+06
65249.1
126153
318753
291651
308259
336123
346109
368325
169324
137614
1.23197e+06
1.5717e+06
295199
75631.6
213370
240803
226553
168171
485148
444276
403923
126850
68668.6
457139
440813
198618
216107
120832
366444
403187
157414
638439
641711
649683
648117
1.17158e+06
1.14644e+06
344390
1.45131e+06
479452
109840
1.02746e+06
815009
896937
447938
186711
204634
136929
997910
311384
397711
1.53277e+06
145121
163907
335171
303732
818516
405208
1.23886e+06
111165
106814
175822
235887
529111
480559
437073
1.18989e+06
115519
241012
521957
851385
108846
1.38963e+06
1.30182e+06
1.32007e+06
153849
208124
85472.2
1.34989e+06
357172
158678
253817
1.22932e+06
113194
160626
173218
112785
324453
183844
1.59856e+06
1.33699e+06
143217
380650
484813
182565
209174
166934
153348
443560
153202
350979
265295
689044
621436
123159
827313
116343
245969
297225
1.14802e+06
206637
284305
162531
145202
125761
143771
268056
620806
685488
104765
105821
102427
137797
228430
839765
93104.9
272312
480569
371549
148132
637239
712331
453296
785566
863121
347312
235324
118895
127859
228750
245700
209971
228400
139196
208266
247899
154030
112190
1.57696e+06
652020
242164
316548
309722
154082
257448
365257
813786
739563
671573
212801
248906
154084
148484
970381
753399
821340
118845
145497
183468
398352
936102
288989
63717.5
120920
1.47582e+06
1.38961e+06
160182
1.27521e+06
95123.3
119169
100740
457012
97834.7
163975
188523
806344
888792
976531
1.07111e+06
456039
393208
329281
265601
139749
108844
258791
1.31673e+06
118115
117551
113606
114691
111767
116885
124300
1.02402e+06
522610
503567
292849
553202
610169
214669
733022
177583
155652
120166
1.45678e+06
111519
122352
115864
118313
110372
1.32799e+06
178353
179913
742251
218904
467790
176487
1.3553e+06
557835
267363
209853
898792
299021
132707
118030
103475
107237
161861
183893
171826
121511
345516
132091
109933
512073
575953
104335
369412
522474
447620
598832
1.16574e+06
1.06198e+06
963243
871847
368008
445166
1.17491e+06
1.06989e+06
519580
971460
597468
877169
1.07412e+06
123883
110245
120709
159331
342809
788530
119036
280978
373853
305975
410038
139199
169536
269198
383919
853250
775749
704446
333362
253325
643262
141170
171437
127064
224300
205826
185667
357610
284129
291372
219739
113118
480568
138658
219073
274354
694471
360512
420668
365751
135667
168249
132132
118738
118856
130269
374611
322611
112878
147488
150227
292336
916466
290661
397286
343379
124407
148680
139033
126892
169344
134887
402135
365165
331385
142172
1.081e+06
439041
169991
655125
434117
890863
1.28258e+06
157214
175341
145790
117138
113438
465480
396524
1.32676e+06
102643
136172
229541
324569
151825
119312
468698
462636
58729
109770
236978
191326
84927.6
1.13593e+06
1.27768e+06
193143
105833
187392
246889
521572
429196
472938
1.46647e+06
113679
370151
415381
126211
384203
468043
546321
625020
1.22102e+06
1.11205e+06
1.00867e+06
913293
383600
465480
1.22894e+06
1.11907e+06
542225
1.01637e+06
622771
918391
1.2144e+06
1.05458e+06
797233
305652
348954
1.05017e+06
801142
221766
105272
101021
797436
1.36873e+06
108788
266426
1.16651e+06
790697
1.28386e+06
1.30282e+06
735196
741322
342132
276207
356633
192283
130139
198330
119959
134918
155981
139554
262249
1.32496e+06
356926
139034
91985.3
236420
254295
1.1916e+06
242031
218881
266908
284141
756138
334836
248813
1.02687e+06
267681
341552
136007
124561
250935
212787
232681
593443
358438
345648
855644
819063
342010
357433
656561
706182
262215
270346
111777
130174
135927
350592
271318
55446.4
124552
139222
428092
412171
214083
404196
315341
134437
90721.2
92547.8
367364
850749
98435.7
1.27794e+06
181876
471447
429024
145004
177347
289060
117566
109514
1.04447e+06
250046
652426
594681
540997
206295
287343
122624
989422
1.22612e+06
128511
116281
669484
237848
316005
546759
601657
669967
212350
292361
52751.2
516006
248629
1.21537e+06
237704
707864
548596
613386
118440
113421
109605
124759
116129
108878
1.02476e+06
298868
123267
145332
157046
177174
206903
230516
475298
463291
434137
421104
384651
395997
777385
125912
111978
113586
132282
161237
117692
122763
912747
179109
329100
260504
680460
343737
129475
136421
286334
225416
387785
319884
811663
699322
636442
577984
324113
942233
439880
989868
170853
146669
184749
186260
133913
132349
131266
979665
1.33924e+06
217105
94562.2
163602
360635
276315
90513.4
118348
181848
168993
161568
156358
193021
183467
147034
306914
341455
333399
371575
277633
309823
376795
111586
739620
577300
315539
804338
757920
439576
1.33406e+06
239280
226830
259292
282231
130674
119638
130841
255851
115502
1.06605e+06
157459
118741
490748
50485.4
100652
1.11072e+06
130001
261168
836402
372056
760921
691061
1.00165e+06
668970
109017
378183
304033
152305
891850
387994
165575
702842
634875
772945
116096
117839
109859
1.61067e+06
191038
273328
330240
164193
113106
107220
271637
295888
132132
1.11562e+06
265937
1.04303e+06
162678
549432
111070
393204
473791
655890
256724
337769
406207
179527
1.51009e+06
122885
92752.2
107847
1.31009e+06
881323
207795
294491
683432
625339
568244
1.34847e+06
377365
308929
1.39887e+06
1.56937e+06
1.05923e+06
84677.1
368123
866847
633914
335979
256212
607482
541737
258451
877796
213073
192428
318201
276322
220833
1.08258e+06
1.6157e+06
100373
114084
132815
1.57143e+06
117872
130424
440133
330907
1.40542e+06
1.4717e+06
117377
409655
155061
144407
338506
149565
95869.3
366870
105189
120555
1.61704e+06
665058
360884
276248
248490
186625
500518
457531
414942
161173
1.48584e+06
295642
262911
270748
1.24968e+06
490918
700763
105689
166640
124543
556480
305216
405087
103417
180385
240330
526373
185583
138646
123183
231610
1.38454e+06
188397
247047
519970
899880
1.27113e+06
813545
566170
408902
484152
63879.1
161377
207860
437606
398894
362601
1.26624e+06
108543
129714
139309
138593
138126
141447
184819
114808
111660
442555
1.1138e+06
291436
655423
596172
542246
208740
1.26438e+06
371564
419372
498258
428693
754812
1.22984e+06
382660
116633
517585
101272
533925
318540
586743
647026
235345
773282
194213
1.7239e+06
580623
113004
1.13534e+06
1.72416e+06
1.48516e+06
342251
115334
640857
123672
112059
101484
198064
117160
114088
105721
102114
1.02575e+06
1.07627e+06
110992
746576
129739
120969
111878
159023
674757
683380
168619
686941
693090
977536
325972
129833
148153
195563
390383
428152
158245
41951.6
120425
518181
219994
518206
583066
643631
707386
357975
258505
209583
120799
109711
1.29099e+06
696866
112575
150753
595917
470987
248918
271800
145271
119622
221958
196219
99469.3
144774
113904
1.07348e+06
376403
932327
104401
109633
1.72861e+06
115437
1.33265e+06
1.3017e+06
106158
582909
282198
1.06307e+06
117399
531469
661027
1.4476e+06
156991
110159
103773
327583
156072
199567
389451
353502
320984
108572
110494
118923
112459
662610
731491
502702
870641
791525
938645
1.40697e+06
172735
448694
1.34024e+06
427531
1.29906e+06
555504
611046
673889
295288
209326
263675
320268
1.21636e+06
126105
133550
183102
172906
159018
135211
236557
215601
202177
525385
486021
1.58553e+06
164926
97986.7
138556
1.28451e+06
370838
189692
181626
1.25737e+06
573396
396741
90519.9
141804
102918
561621
720757
198898
865456
127990
125324
1.65659e+06
1.09616e+06
1.34462e+06
240582
308211
560907
199964
423035
1.34547e+06
1.48063e+06
127245
145462
234911
198187
619344
689630
464918
523963
1.48035e+06
1.41524e+06
179391
132915
91327.3
982401
100535
1.29117e+06
282167
190878
689051
213598
107962
1.23289e+06
150277
175419
96176.9
109811
930895
287892
114189
484092
223893
136024
110676
108975
412324
109307
1.23032e+06
1.1548e+06
197843
505838
292537
110393
120295
982720
127260
644732
167544
346481
674170
776392
1.16897e+06
131825
217009
1.31539e+06
165586
118607
102293
124799
112236
1.37461e+06
1.02815e+06
224618
297343
542638
514386
715764
244663
325943
245598
346577
748036
680367
617448
1.0198e+06
450446
327276
1.05774e+06
330582
1.14957e+06
412861
421399
1.23995e+06
1.73161e+06
1.45285e+06
261152
304227
740888
332072
249372
107809
242320
1.22105e+06
115973
127787
1.50449e+06
1.11747e+06
1.33622e+06
542541
673282
682106
586587
102276
93192.5
142014
95726.9
434774
476474
524231
236736
174776
393558
1.3511e+06
113308
152045
128156
116436
614360
556143
144072
1.19151e+06
1.37236e+06
715024
578806
1.09032e+06
1.2547e+06
106020
605979
390304
803452
116449
168198
180138
1.02328e+06
1.01999e+06
497041
230091
101461
115920
152659
315539
1.09505e+06
148326
820203
107923
229057
170206
210372
367549
193070
309607
29940.9
8672.43
308059
1.61504e+06
136484
120017
129805
108023
105946
134081
141775
109167
118196
325166
107472
115556
135855
594209
736983
524255
1.14767e+06
1.42867e+06
114615
147826
242967
121297
963461
163492
1.48237e+06
156410
194988
379039
270413
159297
158052
364619
110093
124908
142144
101619
133755
97137.6
1.26038e+06
92418
113652
182773
107798
85038.3
1.2814e+06
136720
1.099e+06
1.14192e+06
420739
291047
209963
293366
669294
616997
560621
111457
764587
423507
112126
1.36476e+06
115750
118358
233417
738946
528312
591774
869602
131493
110571
257877
373927
833820
433080
916957
317765
757357
687965
254818
917554
310012
831843
365387
756993
687370
422546
1.00927e+06
132870
373474
285535
111585
135041
1.09044e+06
607251
829466
769154
671697
838381
610188
238722
262738
386819
949025
117631
1.54333e+06
136220
114311
1.1743e+06
133198
198039
410140
420789
1.21406e+06
99372.4
735523
670678
609251
227892
323301
1.47705e+06
235779
187602
433436
129839
451184
207674
246562
102045
144464
153486
129593
333377
107791
420497
228156
176751
543456
727045
734788
543107
277372
1.37026e+06
116243
116398
1.23806e+06
1.13953e+06
681256
1.71279e+06
681544
583343
662018
1.52719e+06
675524
532197
1.35141e+06
296745
300982
404956
1.17675e+06
98115.7
1.03788e+06
123832
183214
252981
419921
461003
506316
244126
183420
326648
66315.9
69680.4
114938
114833
154833
125880
110869
155094
714259
1.38109e+06
159222
134527
1.27623e+06
848967
330167
440798
112887
119041
1.09463e+06
738700
172936
563671
526107
735104
102160
111339
126242
109801
825055
1.3795e+06
1.3726e+06
918984
1.4983e+06
185194
102124
223788
665301
604600
731899
328219
229338
1.49536e+06
312458
385003
503154
175022
159684
638180
235016
120231
469046
179417
221321
1.42671e+06
229945
206358
716915
654730
594432
300362
958211
895886
1.16601e+06
365504
382897
448602
974812
434526
316882
865177
168889
1.71926e+06
125741
1.3157e+06
340090
391998
96647.5
412214
774546
112930
127718
120947
1.52282e+06
405933
366704
442330
215812
163311
221578
384741
1.00321e+06
389361
767049
927267
845161
266281
840119
628757
669256
791924
836920
629005
676505
801594
467539
421978
33926
208417
133942
273020
394170
333171
455098
954794
869536
789667
717183
268652
770526
361009
126631
89838.3
97178.1
157639
87531.2
318826
732703
757533
279192
1.32449e+06
128325
111024
1.04804e+06
1.30945e+06
88387.9
799508
313086
415852
577940
375815
212910
114482
310829
494239
62813.4
116035
1.34723e+06
179883
145846
315784
287067
344701
236368
116399
119171
245251
839160
1.3319e+06
1.54275e+06
220555
243735
1.03749e+06
935525
1.2362e+06
105790
721411
1.1981e+06
1.54964e+06
1.60268e+06
1.53505e+06
365248
648977
276439
1.40931e+06
1.01971e+06
409672
918029
115936
113215
1.09195e+06
1.09418e+06
112230
305701
1.41441e+06
1.1598e+06
1.09228e+06
1.12984e+06
1.60875e+06
1.0815e+06
1.33438e+06
1.18369e+06
119194
188751
847443
457043
710608
153890
107385
135354
125846
127269
151091
134232
280289
1.33124e+06
807245
272050
368467
871101
130252
407340
297147
1.65379e+06
214142
202616
404075
216135
369815
160781
137497
1.34443e+06
11000.6
107936
107370
22187.4
295229
362254
130674
143319
154766
116840
404120
364351
109658
1.39725e+06
1.2059e+06
385159
862122
282506
111465
1.00732e+06
223074
1.39526e+06
353524
431279
503590
578373
1.14012e+06
1.0399e+06
942998
855098
353011
427651
1.14761e+06
1.04567e+06
499376
949288
574794
858777
197545
159470
384701
395688
343962
170712
148721
132333
115112
110496
113259
106733
106169
173780
634884
683130
562335
317011
614137
677067
1.11452e+06
450017
360252
1.256e+06
421156
145249
88474.3
126645
116074
198168
178334
182680
120781
280805
217896
251713
502009
119888
148518
672604
121590
101916
119724
101438
931839
132312
165754
417392
333293
193553
424345
167798
100707
92366.2
1.50474e+06
1.50863e+06
830196
675002
654841
841404
1.45063e+06
735845
114575
473711
253276
200729
283320
144936
1.43989e+06
153767
779800
711951
646812
337730
235752
416173
235351
185799
1.45649e+06
164740
114506
478862
476498
204392
140961
162149
263344
565292
1.06251e+06
410906
322971
702130
849522
221944
312536
703360
639776
581642
325045
352186
606174
462529
655608
350787
727478
802201
236687
881660
1.67373e+06
1.19742e+06
104915
512458
564374
619940
204094
149758
1.00329e+06
169880
221516
291752
311584
133729
168437
148018
120844
881199
665937
701576
841613
224280
1.20638e+06
1.49625e+06
548893
108187
504215
553824
608561
599970
724012
197179
1.14048e+06
502022
431604
390608
472241
178537
237222
147605
141511
296980
357631
325158
369617
405835
446548
267961
264478
371453
374089
774482
769410
638083
703323
633955
699057
386904
425297
165754
117552
126741
137646
853950
483428
116945
768258
634552
603573
789891
146528
285265
1.02916e+06
420961
936204
849449
89550.9
174180
732140
404316
293957
960117
357143
65762.5
704164
640210
775776
341931
237932
1.03439e+06
362796
295939
1.33701e+06
364387
508287
131700
117952
224949
208327
188950
1.12681e+06
267815
204704
310230
281995
336582
170298
139556
763123
869147
147522
474178
112543
675286
1.33926e+06
857890
371433
284710
691116
340556
308248
253830
173410
121514
273194
138132
313405
136198
239981
112633
115473
1.42049e+06
263983
1.13194e+06
610683
666824
357831
274394
666618
1.29116e+06
95591.6
115532
121473
113630
258045
24858.2
8244.39
256754
523788
106905
530923
232429
189196
119641
341302
471437
1.02994e+06
107987
95331.1
124219
135042
287159
181654
668661
591873
163311
112759
103662
1.42575e+06
524904
107453
214716
110649
1.65314e+06
1.27961e+06
216154
152536
519357
258554
356859
716577
590166
651292
1.47998e+06
1.16893e+06
117776
1.12518e+06
1.55948e+06
1.17819e+06
1.29325e+06
585343
132127
811381
182149
125572
145143
277859
286284
218721
212394
498578
168584
124703
104665
741471
836897
922723
1.01425e+06
1.10335e+06
466328
402551
335205
269259
172663
104102
358514
16830.7
178721
177816
9174.18
370255
185996
148099
85122.2
225947
259490
118848
259763
793710
522946
362705
262059
299075
1.37498e+06
1.07076e+06
136640
454988
116349
120884
357648
423055
474957
964789
254585
282620
119860
1.24145e+06
121794
210394
249042
231251
836409
920751
468642
568765
565985
354931
462700
916247
871362
857658
283460
385204
89578.4
105904
93570.2
183359
98827
416268
785099
698801
857441
621817
868217
620564
427970
321165
754992
551932
760184
553683
199959
884568
699882
611443
797114
706285
871846
631795
876334
630552
846388
1.64929e+06
322446
448609
993473
381958
104310
120734
166062
16360.3
165214
14512.9
111915
278191
849539
771844
935925
406307
284899
1.42689e+06
64483
110247
203994
662282
194340
536757
259222
1.47256e+06
1.48618e+06
917119
111020
217552
960323
478102
384562
295744
482882
437676
528966
192625
258373
1.53857e+06
360644
1.35672e+06
109057
112009
113974
109433
85595.3
1.33502e+06
115477
952765
84984.2
691069
937191
110594
120710
146051
399238
154883
322279
293205
219865
239246
262277
126249
228467
307041
377397
259900
886915
808926
734519
997289
1.34262e+06
1.48555e+06
100137
101733
106180
111311
185700
113819
195322
1.47563e+06
1.51639e+06
1.44681e+06
1.17503e+06
46136.7
836750
1.34751e+06
839386
654299
673219
829410
442736
422063
781937
483040
974348
89248.6
177314
210068
410489
168708
163926
190010
137123
158813
117486
136216
277311
283682
310156
304262
333779
339031
399636
400533
115079
116635
351112
239990
99403.3
143411
608273
979266
116169
549774
1.19494e+06
352059
1.12349e+06
486944
155774
1.11093e+06
527049
442723
700268
1.26647e+06
1.5969e+06
633296
240457
1.35505e+06
187543
144308
127467
318377
81491.7
578321
979069
237713
373139
157452
118452
163270
1.45202e+06
238040
271501
262735
204133
587234
183469
151525
607829
133194
1.26489e+06
118281
744849
261620
282710
1.16191e+06
934620
554518
1.02985e+06
1.13368e+06
476264
1.24073e+06
402503
322685
928480
1.02189e+06
1.23586e+06
1.12546e+06
323765
480199
557741
404013
1.34762e+06
140981
1.05753e+06
121129
103145
111727
6060.46
46100.6
560495
67043.7
1.01887e+06
195177
157029
360337
391829
327866
317619
187762
827962
186488
197356
778060
91573.6
287883
264178
261923
816866
742383
899900
385171
374434
153174
251804
461364
1.01398e+06
70249.5
239667
151801
106855
335867
1.09661e+06
583824
513063
1.14047e+06
150086
603582
1.31563e+06
652235
1.19594e+06
121562
1.32987e+06
167687
901101
302097
372734
115141
10644.1
107219
106631
18264.7
172425
959460
132661
1.0962e+06
522950
180236
805991
773405
888595
852711
978291
939081
439615
425036
306368
297218
336981
234311
783977
716171
650126
211978
253346
231322
129177
712118
615443
88405
137546
109220
125556
128752
1.33916e+06
1.08324e+06
267955
873140
793767
959341
110837
516158
895819
909132
121519
114887
1.09758e+06
367309
134200
183221
216183
199989
129921
352867
321772
295529
1.17037e+06
1.64596e+06
1.17762e+06
798784
377193
275824
132593
143961
199838
149614
118227
111868
151527
414711
326963
109324
1.01321e+06
1.15573e+06
426514
406443
129822
131416
120356
120270
325167
1.09273e+06
755971
574027
594042
708280
113383
110913
168629
108163
104613
195624
1.70822e+06
1.34959e+06
108076
135900
509605
440921
312257
974946
1.06852e+06
803642
884769
588355
283173
238704
261741
138566
158416
1.23418e+06
301821
768740
74253.5
1.16077e+06
111495
406556
467418
1.69956e+06
109267
415829
123845
389774
125518
251302
793811
340888
866911
553876
956756
1.05377e+06
482345
1.15642e+06
408927
337354
412946
337806
165608
482529
547529
709630
107201
168735
947204
422799
1.53875e+06
1.27235e+06
1.42502e+06
264954
1.0819e+06
530869
382181
184835
145224
1.4623e+06
785706
103573
1.61837e+06
1.32106e+06
48242.1
429684
354756
61900.5
665925
494497
100240
125608
1.094e+06
1.55302e+06
115548
493304
506512
1.07061e+06
1.03624e+06
363483
372757
365474
376992
112828
114937
114802
109408
81698
1.64191e+06
1.22465e+06
1.14192e+06
1.43791e+06
522752
266701
1.10266e+06
587495
647713
711732
73936.3
1.19677e+06
199717
880879
1.30288e+06
376349
254101
1.62445e+06
391258
410969
292513
309678
813562
787489
160255
159845
92738.3
111630
263867
954273
868271
787408
388738
1.63339e+06
116809
183259
97747.4
776497
855769
486437
941293
417599
1.04076e+06
356228
963731
794360
874668
1.05676e+06
289084
504167
435979
361805
110710
142034
145920
174219
311550
258609
284443
1.29124e+06
551703
673009
1.22648e+06
153547
209724
111041
334427
455451
163760
218708
1.27089e+06
136452
109155
116722
118492
109756
81216.9
171713
124580
135033
1.04258e+06
1.24565e+06
120379
103639
124746
217383
455887
1.37706e+06
1.27647e+06
596695
121270
134607
1.06033e+06
117394
120359
1.66955e+06
615553
1.22924e+06
318032
822025
484520
498518
151850
625050
843579
390985
284543
127225
279852
109912
74680.6
99565.8
1.35999e+06
710766
721060
1.26744e+06
204599
220523
125953
406351
116085
111416
124952
243028
213373
21625.8
212313
14853.4
114959
822731
233642
330336
708619
644490
584697
131958
1.49692e+06
519857
270716
1.2461e+06
696819
732125
137054
13397.2
136338
14146.6
1.12609e+06
311266
437374
529690
484296
114689
1.27528e+06
265533
197701
602932
460912
109311
28949
911379
183279
926500
217922
282307
534746
573643
478636
118642
445949
186433
229579
126900
136550
428094
444756
151123
256005
107348
108551
696684
338601
253131
120863
401681
10369.1
38736
399678
444109
359960
527787
627153
93351.7
1.52065e+06
1.5978e+06
189381
115278
120212
165545
185575
19099.7
184660
16512.8
753447
251700
344677
1.48874e+06
1.50904e+06
1.23051e+06
1.16719e+06
618152
546860
522350
465479
1.26745e+06
175998
341092
134195
97279.4
110239
237589
326570
463315
1.39382e+06
1.41512e+06
177257
92029.4
442896
486255
173846
748993
297582
249584
1.1815e+06
124977
122961
153932
693989
692800
742558
469892
241185
331541
85085.6
82329.4
871901
100981
751125
97108.3
352140
570018
499617
885788
1.03487e+06
117816
137623
275855
1.22191e+06
6295.04
78366.8
23230.4
78439.8
199313
189041
84903
1.41672e+06
25350.5
1.34789e+06
351164
33857.6
10941.8
349416
211979
114060
13075.1
113544
269290
1.18473e+06
268377
1.40007e+06
1.56778e+06
46750.8
411493
498025
455315
607843
282961
209654
668904
456536
80992.4
166660
246113
183533
429781
577256
170288
170856
1.51197e+06
492987
570014
537969
619733
965910
110564
99221.5
808129
999104
355290
175822
200449
116343
225583
302292
120331
169321
233570
116910
81526.1
879247
1.03619e+06
188678
400166
314737
324559
1.03752e+06
447631
200707
166865
406838
365222
99143.6
234577
1.00335e+06
1.24377e+06
306865
220165
533826
647081
588790
82914.2
108544
228092
171163
940610
341578
89577.9
44067.7
57782.9
301890
219027
516255
625348
569495
115362
1.37457e+06
1.55834e+06
125835
112555
105530
101637
1.35102e+06
250328
196366
555198
1.67617e+06
1.36388e+06
350119
142322
335491
305736
195316
179955
209808
124414
119716
117931
270720
1.34189e+06
102217
656851
711339
1.19285e+06
852484
831693
310457
305463
409513
416246
218429
219124
195732
104814
110525
482704
164924
1.22928e+06
824560
203582
108584
548863
1.59278e+06
105765
754072
625952
589115
779085
575350
240602
322266
754180
145220
551694
234501
258944
144663
324204
169246
215915
596564
288635
139146
122898
153819
724834
595266
150605
142783
141003
156082
113697
390426
299329
110364
285750
119092
169209
263929
1.45215e+06
1.2792e+06
882548
234037
178642
522606
476477
432974
218115
224663
104031
790913
119092
392080
521195
167817
176806
1.30856e+06
84048.3
237259
220206
120050
1.35974e+06
80411.2
119272
344220
408647
140577
131518
149134
111604
114821
876537
102291
107810
13349.5
107289
872265
803230
1.51521e+06
963240
1.18371e+06
121686
1.22921e+06
809025
12078.2
87650.4
193756
157500
324491
354614
387290
519822
278100
1.18256e+06
652737
718069
129334
96521.5
92301.7
107290
122069
119363
167059
718044
88046.8
1.51274e+06
381268
145847
760422
474606
247016
338858
168182
144189
202105
315682
198368
418950
391456
152624
118937
496016
767155
83827.2
87127.9
150862
92234.2
103206
1.18836e+06
279211
214964
628320
1.12678e+06
311457
208398
497901
432867
473088
393252
233860
176308
114661
7104.99
56216.7
480307
397289
558205
1.2065e+06
997450
1.09861e+06
396838
476652
1.21647e+06
1.10624e+06
555952
1.00483e+06
153884
268718
223832
236823
109330
162655
140967
410907
193405
160288
179628
313527
894493
423463
114244
161447
105043
117297
173702
262019
112688
107373
99752.3
662427
237374
308843
216250
276062
578605
491021
573389
459914
829213
242906
146996
219850
497702
374036
186516
246915
347552
115857
219872
133220
131923
402314
402171
155199
519719
164209
170581
958210
802022
106335
125393
1.30932e+06
93629.4
147384
94447.8
161986
197281
626396
568567
513792
336520
338059
634377
153698
117015
111568
876107
164292
152828
162520
153458
141175
145476
90021.7
132415
1.02908e+06
1.02044e+06
299483
237415
119801
684470
585667
240965
329098
466564
114046
80786.7
117391
1.3227e+06
468738
562020
61773.4
401564
162401
67965
155144
169244
155683
391876
114650
243334
191355
120271
1.61877e+06
256916
753926
211986
1.24094e+06
505816
593197
310960
230626
731016
94942.6
119671
135836
275068
337793
234889
159466
94165.6
71866.8
576236
242058
186906
97457
103348
106718
109503
253714
210184
233134
60278.5
121491
1.16809e+06
113196
1.61601e+06
343351
150637
598578
128930
99291.2
443011
159016
153946
722592
106788
465959
966155
877865
1.05818e+06
96340.4
162977
310313
955584
904721
247288
114338
265037
268516
381019
443324
835353
380537
433664
923314
824869
897642
689056
758949
680235
749218
1.14976e+06
247940
185032
1.34624e+06
103443
133695
475686
1.12778e+06
347749
191999
154278
104116
94787.5
120682
134185
99725.1
889056
218864
281772
519163
117295
621557
145363
229425
241772
367188
137068
118633
153949
119122
108537
156873
146694
137638
1.33523e+06
132977
110459
267722
338351
82042.6
183387
186618
1.01781e+06
198194
139386
123901
131094
135082
1.32124e+06
225417
205508
500894
222721
178309
1.27937e+06
987056
1.04936e+06
330166
123433
1.13131e+06
336621
382409
165755
659671
528135
746907
604586
830348
425047
1.10535e+06
720480
947447
730681
493540
393825
104198
118403
1.1659e+06
99100
112795
110817
113554
110192
98459.5
683544
713577
154206
326509
31625
4348.16
324876
142706
95227.4
1.15758e+06
391822
535289
205470
173457
194739
143279
158006
284518
326207
111310
154439
433396
303723
221715
418705
657506
557337
97628.4
647472
543998
1.59072e+06
964721
579791
1.06335e+06
1.17089e+06
499465
1.2818e+06
422393
340829
959054
1.0555e+06
1.16288e+06
1.27711e+06
502073
340455
582103
424412
112154
578315
87384.7
727016
723426
1.60573e+06
134504
290515
863805
124639
540779
89828.4
100379
829070
115808
187549
467681
611266
1.34589e+06
242459
268996
295009
128873
226946
298016
638612
245700
142039
116298
116097
124100
1.32139e+06
634749