/*--------------------------------*- C++ -*----------------------------------*\
| =========                 |                                                 |
| \\      /  F ield         | OpenFOAM: The Open Source CFD Toolbox           |
|  \\    /   O peration     | Version:  2.3.1                                 |
|   \\  /    A nd           | Web:      www.OpenFOAM.org                      |
|    \\/     M anipulation  |                                                 |
\*---------------------------------------------------------------------------*/
FoamFile
{
    version     2.0;
    format      ascii;
    class       volScalarField;
    location    "1680";
    object      sigmaEq;
}
// * * * * * * * * * * * * * * * * * * * * * * * * * * * * * * * * * * * * * //

dimensions      [1 -1 -2 0 0 0 0];

internalField   nonuniform List<scalar> 
11800
(
136146
108181
390166
335219
103821
243693
130971
136845
143739
151860
134026
473114
66780.1
350401
307427
1.35861e+06
107376
103371
181821
107833
270633
429726
612552
547646
1.1093e+06
713136
700235
348867
770194
842117
238185
108692
705669
116508
119483
232401
119871
750492
115750
117307
725941
798222
366941
872896
250792
1.2717e+06
580696
672675
130116
173856
493793
353069
118135
185431
1.4484e+06
1.23445e+06
57928.6
331772
256867
252462
1.22243e+06
126465
265201
219801
1.08794e+06
167794
506981
364358
58670.3
658288
122223
102445
98618.4
1.20754e+06
1.20993e+06
228174
1.1283e+06
157788
136157
141806
1.47476e+06
99937.9
104565
107538
102565
810438
253509
739875
673558
360601
115449
839395
123877
56314.4
137557
113893
14721.9
113543
117998
416886
72162.6
457280
796911
287811
124573
241534
135708
124336
1.18307e+06
739509
811014
673093
256754
366922
157350
1.06959e+06
158026
120286
1.0053e+06
158234
154707
132449
139414
112017
121089
117060
118362
117066
91250.1
29694.6
1.39819e+06
908687
272500
811039
381449
737898
671389
241731
694508
333244
631964
575445
364968
147386
172898
229087
809173
833869
475586
273909
157211
150801
117910
188290
169293
142002
322835
437537
896219
121604
1.35869e+06
169775
1.14811e+06
329133
359291
392826
198107
158745
1.4775e+06
888387
305961
414714
125223
257456
257994
1.26752e+06
1.28168e+06
654524
595797
718295
322159
227743
180602
155156
304829
156011
249338
122589
129071
130588
178816
165133
157581
164396
610791
782030
1.23873e+06
109825
159352
1.4524e+06
111160
198299
222626
121736
124866
568204
478534
436066
361696
1.3928e+06
420738
616937
1.90398e+06
1.52949e+06
1.61501e+06
256341
110163
575071
522335
476596
187328
257098
107820
103019
181633
108592
922951
193380
109894
320307
157911
134505
114848
437845
446873
1.89536e+06
919034
162515
170720
768976
627450
228422
321680
723098
662564
603039
123557
794894
272475
367068
345064
120028
112179
293842
250087
128959
1.60822e+06
198701
226172
171753
194620
470736
517059
565811
257344
189091
120875
1.20519e+06
126252
81680.1
117985
282248
108442
364747
1.42666e+06
266033
263496
391486
286554
328191
241617
829426
695163
221825
272225
182645
214810
387789
506624
208893
832816
894093
1.08103e+06
131915
264496
263043
1.2228e+06
1.23463e+06
701345
690319
719855
713072
114828
80482.4
204256
1.62723e+06
106828
112338
208935
179619
184312
617761
627497
1.10231e+06
1.61866e+06
497582
140362
590657
485724
345680
281793
134759
135597
188957
324942
174762
298651
104543
131363
131200
123351
892395
130401
110696
1.327e+06
213092
489498
518793
505950
636708
613578
93919.3
93176.2
455176
589562
413893
1.07221e+06
97794.8
568175
445891
287779
220580
217804
169078
224576
196591
255672
283025
308509
118395
117760
510688
542715
138564
158007
330573
272023
307131
145035
137932
169470
171111
625121
289570
221609
284668
712642
834689
274040
149564
144347
177949
167637
300462
350039
282533
332172
257686
303312
231382
217321
469435
228632
500443
858045
417985
310216
1.48098e+06
114901
902226
430059
316732
1.38077e+06
116952
928122
231914
801443
738875
713510
142579
62866.2
108746
1.7097e+06
1.47531e+06
623490
222347
290527
138167
162190
187115
113173
168666
1.1213e+06
45641.6
375267
284227
1.24664e+06
91433.2
136348
118427
126426
117419
122086
1.25124e+06
405196
170678
445964
407029
372774
93167.4
887972
283073
387542
130524
607300
137796
1.17549e+06
113118
149449
324325
296690
272186
614206
162884
335923
311434
162582
450254
493078
540505
256251
192524
54145.8
127265
137957
1.54951e+06
484605
382274
283976
234105
135656
125270
92849.3
95975.8
153890
84085.9
95361.8
109762
125954
250780
118909
161783
414820
472280
226447
1.11942e+06
148541
264954
120370
129481
1.07304e+06
1.36239e+06
399686
439163
177771
158058
104267
942315
1.31221e+06
1.16864e+06
1.71007e+06
511782
358548
477905
98761.5
137291
129417
142032
467891
122435
120490
98960.3
130700
938512
203427
901493
592316
125529
157897
812132
957219
465764
512190
559951
256204
191380
424170
119638
119604
117255
131155
108092
147520
83509.7
139258
81048.6
135112
74076.4
132983
121948
129404
92622
1.07757e+06
180713
171110
381538
619533
92250.9
123248
106280
101701
91758.8
200930
277482
115210
113639
402690
98114.4
145004
1.16733e+06
67254.5
132096
344543
315659
333101
362708
373505
397059
182789
146304
1.31967e+06
1.67335e+06
320370
77105.7
231202
254293
245546
180650
525675
482306
439295
132978
70715.5
497902
476663
214402
234482
128841
398437
437268
167161
696082
700865
709428
706769
1.26189e+06
1.23467e+06
374710
1.55382e+06
522460
113880
1.09765e+06
887121
974791
488578
202374
221242
143503
1.07516e+06
339592
432303
1.6414e+06
153994
176487
359161
329819
883703
441784
1.33393e+06
114688
110489
188066
255545
571634
521056
474772
1.27094e+06
120346
260918
564670
908393
112321
1.48523e+06
1.39093e+06
1.41552e+06
164766
223135
90250.2
1.44727e+06
388971
169680
274633
1.32523e+06
117824
171916
184905
116939
344901
198589
1.70361e+06
1.43678e+06
151796
408163
520596
196930
226885
178635
162946
470886
159638
382343
287750
745556
668417
129819
886861
119894
266641
323107
1.22282e+06
222421
304645
173837
153001
134006
154051
287791
667088
736562
110334
110430
107714
145009
244855
900023
96148.4
295235
523743
405277
158245
694125
774404
494521
851762
933528
377692
254251
124596
136339
246138
264285
226492
247026
146464
225852
268019
164760
116324
1.68992e+06
703234
261926
344699
333481
164867
278954
398061
881160
803217
730521
230024
269584
161280
157823
1.04224e+06
803421
883638
123580
153260
196967
434491
1.00939e+06
313715
67838.2
125917
1.57327e+06
1.48098e+06
172180
1.35823e+06
97680.9
125220
104771
492523
102233
173069
197610
877096
964399
1.05676e+06
1.15559e+06
497344
427708
357637
287222
146925
112570
280335
1.41937e+06
121747
120839
119521
119316
118130
123356
130785
1.10282e+06
561972
547486
318887
600732
660658
232090
789603
190768
166047
124524
1.55294e+06
115940
130206
123363
126190
114773
1.41568e+06
191669
193225
787340
236334
503452
188106
1.44395e+06
600740
290704
225841
961115
324210
140641
123465
108800
111402
172565
195187
182948
129659
365398
136557
113950
558760
627345
106599
401440
569693
487084
653432
1.26246e+06
1.15338e+06
1.04887e+06
950716
400190
484839
1.27089e+06
1.16065e+06
567115
1.05637e+06
652204
955857
1.15681e+06
128612
113950
124684
170930
369171
841031
122267
303296
405242
329842
443785
146944
180699
292215
418750
924132
842410
766152
362904
274444
695999
151148
184615
133014
241141
221744
200036
389320
308290
316289
237918
116070
513071
146592
238401
297742
749904
392947
458602
393124
145551
182154
140337
125647
124562
137960
408376
350418
117266
156713
161770
318345
988096
315410
433340
365150
129685
160038
149629
136728
182543
142601
434830
395832
359633
151529
1.14874e+06
478386
178360
697495
463189
958692
1.36609e+06
167795
187216
156006
121957
119973
507056
432202
1.41494e+06
106803
143215
247405
352995
163225
122615
511061
504616
59098.5
113973
256034
207091
86671.2
1.21652e+06
1.36161e+06
209307
108344
200223
267054
565108
467437
514040
1.56116e+06
117212
403071
452522
131950
417397
508711
595209
681606
1.32271e+06
1.20793e+06
1.09851e+06
996165
416734
506293
1.32977e+06
1.21455e+06
591337
1.10567e+06
679533
1.00089e+06
1.2998e+06
1.12687e+06
851580
332369
379870
1.12281e+06
852680
238859
107745
103374
849151
1.46683e+06
115385
288791
1.24269e+06
843579
1.36709e+06
1.38909e+06
802696
808611
372393
299828
388102
202052
137911
214199
126022
143544
166712
148529
284849
1.42011e+06
388355
147947
95858.1
255602
275085
1.27965e+06
261741
236364
290046
308686
815485
365440
269998
1.09696e+06
290277
371959
145609
130964
270700
230231
251044
636205
389588
376091
927219
887759
372140
389628
708654
762160
283834
293481
115759
138111
144294
380536
295393
58337.3
130442
146465
461591
443740
231658
440143
342976
144085
95482.2
97162.7
390325
909164
102409
1.3616e+06
194318
511082
465937
154969
190599
311379
122411
112602
1.12137e+06
271276
705469
644797
587610
222258
312296
128955
1.05461e+06
1.32057e+06
135702
121159
722253
257874
344502
595750
654510
726158
228034
317103
54019.3
551521
269216
1.31034e+06
250717
761753
597813
668648
121940
118369
115447
130476
122649
113329
1.10214e+06
324981
131639
155556
168023
189551
223914
249404
514128
500628
470241
455723
416836
429512
824755
131863
116226
117140
140379
168921
123187
130024
969470
192121
351619
282126
734070
374064
139149
146394
310825
243857
422410
347869
877664
758582
692138
629577
352378
1.01765e+06
479954
1.059e+06
183828
157123
198590
199121
142144
138684
139475
1.05267e+06
1.4263e+06
235543
97837.4
176705
391604
300843
95530.1
123524
193520
180216
173746
166988
208827
198087
156958
332735
369906
360936
401948
301722
336619
402218
114794
805708
630557
342583
863271
812952
472232
1.42158e+06
257821
244675
279017
303100
139927
125748
137576
272403
120078
1.14532e+06
166623
122346
535216
51638.8
103386
1.18307e+06
137964
282999
905587
405436
826284
751660
1.06762e+06
712314
115978
411513
330561
160849
960551
422099
173196
764913
692681
840085
119447
121301
116909
1.7174e+06
203748
296682
359082
175362
117452
112545
293346
319086
139098
1.18774e+06
288359
1.12621e+06
175289
586876
115525
428940
515656
707851
278674
368092
442522
192465
1.62235e+06
129660
97041.9
113563
1.40364e+06
940278
224022
320071
738779
678166
617457
1.44493e+06
411141
335767
1.48907e+06
1.6728e+06
1.1329e+06
86222.3
393041
933306
686125
365582
277506
663311
591435
280530
947585
229552
205287
346145
301048
238403
1.15599e+06
1.72997e+06
104879
118306
139481
1.67719e+06
124141
138391
478118
361148
1.49757e+06
1.5678e+06
120495
437859
164248
153386
361893
160096
100766
392031
108871
124646
1.733e+06
720003
392502
299024
269124
200274
542455
496861
451529
169799
1.58367e+06
314559
280247
294546
1.33086e+06
525887
755511
112504
176314
132041
593697
332006
441392
107338
195031
261037
567216
200794
145591
128612
244136
1.4763e+06
203209
268041
560683
958952
1.35355e+06
874920
606739
445787
527340
66539.4
171824
224385
473559
432445
394015
1.34909e+06
114119
138062
148283
147679
147355
149431
199765
118545
116221
473747
1.19322e+06
316700
710200
647746
590087
225051
1.35343e+06
404446
457075
543509
467983
811742
1.31793e+06
407670
121530
548060
104037
580678
346704
637323
700855
254202
833325
208495
1.83544e+06
619757
117707
1.21931e+06
1.83732e+06
1.58227e+06
366035
118614
687025
130605
118623
104778
209583
122432
120334
110114
107610
1.10167e+06
1.15595e+06
115345
795716
136923
127996
115970
169681
736831
745054
181103
750234
755774
1.0482e+06
348102
137463
159527
211813
423386
463475
168421
44674.3
127119
550610
238371
565070
636244
700397
768767
389981
280372
223774
128566
115713
1.37472e+06
744960
115298
159967
642571
505851
269254
293514
152691
127602
236876
209031
102023
155282
119473
1.14502e+06
409227
1.01031e+06
109693
113414
1.84072e+06
118499
1.42096e+06
1.39059e+06
111879
627290
305768
1.1316e+06
123732
575225
704936
1.54194e+06
167983
116673
107366
348957
166073
214863
421906
383434
348943
115047
113147
127015
120202
722748
798041
547797
946346
861669
1.01715e+06
1.51062e+06
186102
481937
1.43911e+06
453943
1.38784e+06
605094
664708
730287
320663
225413
283476
342462
1.29649e+06
131707
141747
196646
185604
171191
142112
255062
233029
218392
561652
530211
1.69694e+06
178317
102504
145055
1.3686e+06
395609
203808
195419
1.33957e+06
625474
432628
93158
150488
106608
613476
786018
213475
933310
136086
133064
1.76822e+06
1.16886e+06
1.43229e+06
260414
335404
605770
211883
461103
1.44283e+06
1.57725e+06
135151
154753
252295
211738
673966
751039
507944
572261
1.59046e+06
1.51093e+06
192594
140075
93801.3
1.05385e+06
103852
1.38629e+06
298768
205616
740462
230775
112693
1.3172e+06
159143
188770
98018.2
112711
992594
313114
118697
520480
242263
144336
116547
113611
449900
113519
1.31992e+06
1.22953e+06
213109
551335
317418
115114
125866
1.04854e+06
134199
690927
179295
373030
735644
846158
1.25492e+06
140850
229623
1.40503e+06
177238
124249
108083
131224
115358
1.46265e+06
1.10226e+06
243262
324019
585696
561082
771757
265213
355599
265485
376738
811651
740186
672907
1.10075e+06
491755
356058
1.12645e+06
359513
1.22464e+06
443213
459490
1.32633e+06
1.8429e+06
1.55198e+06
283283
320842
798935
362145
270113
112133
257781
1.30071e+06
121180
134618
1.61297e+06
1.19916e+06
1.42424e+06
592239
734691
743887
640096
106245
97413.3
148589
100031
471678
516206
566834
257158
188072
422269
1.44111e+06
119091
160415
134741
122992
670026
606479
150926
1.27323e+06
1.4613e+06
779485
631567
1.16356e+06
1.34001e+06
109381
646453
415563
863365
123335
181225
194132
1.10166e+06
1.09767e+06
530493
248906
103804
119555
163625
339369
1.17402e+06
158863
883350
114904
248535
181704
227207
396193
207184
329652
31904.7
9237.86
328217
1.72004e+06
146032
127269
135749
112479
109206
141633
149246
113954
121513
353470
111797
120473
142514
647989
803007
572135
1.21976e+06
1.52315e+06
119489
155465
262507
128014
1.03791e+06
171344
1.58386e+06
167826
210950
408243
294020
169763
169674
392708
113630
129574
150458
106316
141939
101850
1.35618e+06
95040.1
120339
196814
110367
86614.6
1.36475e+06
146617
1.17231e+06
1.22324e+06
449785
308172
225957
318311
723886
669128
609191
114871
822077
450332
115041
1.45401e+06
119330
122409
252390
789507
576583
644293
935284
140535
115977
279587
407122
904323
471892
991320
345007
823839
749537
276266
990609
337324
900428
398341
821644
747344
461302
1.07293e+06
140166
405691
311018
117327
143030
1.16637e+06
663194
904319
839177
732830
913439
666406
259397
285361
420386
1.02831e+06
122318
1.64378e+06
143211
119617
1.24887e+06
142638
214766
440679
449595
1.30294e+06
101662
795609
727623
662122
246353
351964
1.58741e+06
255894
202318
467159
136625
487476
224214
261471
105859
154181
163694
138198
361942
110436
454096
246302
190065
593376
792808
800577
592814
300255
1.47712e+06
119500
119776
1.33204e+06
1.22219e+06
733285
1.82533e+06
742558
636600
709728
1.62689e+06
735805
581258
1.44049e+06
315766
322059
440865
1.25732e+06
100350
1.10262e+06
131947
194535
273994
455786
499729
547731
264767
197034
346003
67729.5
71389.8
120234
121443
164231
133797
115792
161772
769568
1.47264e+06
171207
141143
1.35999e+06
919271
358468
480088
118083
124538
1.16962e+06
786266
182352
604594
564744
782822
107204
117514
131829
114743
887484
1.47505e+06
1.46259e+06
982020
1.59459e+06
198061
105969
242233
723429
658382
793593
356930
247973
1.60722e+06
339135
419485
548712
188158
169430
683450
250384
128147
505312
193057
240152
1.52561e+06
249153
222658
774730
709633
645716
326183
1.02787e+06
961745
1.25359e+06
392716
410357
488775
1.05192e+06
474621
344903
933641
181903
1.83259e+06
132628
1.40208e+06
364396
419325
102488
441822
833459
117793
134973
128448
1.62233e+06
440459
398664
478935
234376
175737
235980
419577
1.06742e+06
424123
834143
1.00397e+06
917222
288628
915011
687180
730452
864672
912701
687375
737956
874183
508706
452674
36129
222743
142013
295943
429170
361646
495937
1.03251e+06
943302
859140
781481
291655
831682
393769
132390
94147
101132
166411
91551.7
346174
800368
825468
302221
1.42828e+06
135614
117802
1.1275e+06
1.40625e+06
90167.9
865451
339647
452836
629873
398380
230823
120576
337756
526794
63717.7
119880
1.45145e+06
193707
154869
342186
311762
373030
252530
119960
123105
261078
898640
1.41998e+06
1.64464e+06
238169
263491
1.11981e+06
1.00961e+06
1.33091e+06
107958
769807
1.29043e+06
1.65163e+06
1.70824e+06
1.64198e+06
397552
702767
299963
1.51443e+06
1.10456e+06
445481
986892
121761
117381
1.17402e+06
1.17609e+06
116984
326489
1.50908e+06
1.24297e+06
1.17287e+06
1.21329e+06
1.71472e+06
1.15536e+06
1.43775e+06
1.26936e+06
124873
202198
913647
484246
762759
164255
113426
143213
132919
132491
160183
142762
303728
1.43556e+06
871115
295740
402300
938206
137022
438462
317086
1.76093e+06
231331
219891
432129
233977
396514
172931
145471
1.43195e+06
11722.1
114915
114383
23630.4
321680
385445
139631
152745
164679
122342
427219
390196
113631
1.49575e+06
1.28835e+06
420698
929725
307263
115527
1.08644e+06
240508
1.49209e+06
384108
468796
548791
630626
1.23474e+06
1.12934e+06
1.02677e+06
932428
383528
465388
1.24121e+06
1.13434e+06
544749
1.03238e+06
627340
935624
214057
171347
413974
429883
374769
184297
159249
141058
120603
115370
120312
111414
111997
184533
681942
733595
613785
345722
669903
738472
1.20131e+06
489489
392805
1.34049e+06
449730
155096
94414.7
134436
121296
212506
191521
196203
124672
298336
231392
272598
546980
123780
157998
716542
126836
104226
123443
104751
1.00598e+06
138301
173522
455120
363333
204968
460958
176279
105320
96463
1.60248e+06
1.61521e+06
905209
736614
715636
917495
1.55824e+06
793320
117644
510890
275290
216754
307047
155001
1.53392e+06
164418
843615
772492
703138
367616
255006
448733
255462
200407
1.55147e+06
175934
117598
509843
507643
220375
149497
173798
283671
604267
1.13732e+06
446379
352389
744830
912024
240124
340499
761259
694482
632333
354117
383239
651531
504474
714151
381494
790746
869622
255676
953053
1.79091e+06
1.27821e+06
107202
559220
614307
673775
218804
158829
1.0764e+06
183310
239500
311156
333395
143357
181144
156733
127281
959892
727735
766138
918595
238984
1.28579e+06
1.59424e+06
586123
113327
549996
602769
661579
646529
773897
211777
1.22304e+06
537485
468708
425127
511734
191946
257325
157766
150449
322150
386424
352154
401001
439715
482631
290456
286934
404874
407566
840949
835693
695847
765464
691459
760728
419985
460682
176526
122688
133425
147246
909221
527163
120713
837816
692181
659496
861155
155214
308810
1.11375e+06
458203
1.01592e+06
923899
92895.5
187708
787742
440987
318867
1.03485e+06
380896
66875.4
765881
697273
841070
371858
257219
1.10572e+06
395137
321567
1.43587e+06
396406
554365
141445
122725
242272
224624
203952
1.2129e+06
290787
216655
335702
305843
363745
184093
148747
818200
929159
156084
511218
118739
720313
1.43153e+06
913011
404680
308937
746852
371056
334749
275846
187099
128527
293291
147906
340050
145898
255579
117741
122623
1.5142e+06
285702
1.22153e+06
667077
726302
390270
297919
720407
1.37687e+06
100499
122166
128251
118472
274729
26488
8781.93
273528
561139
112411
573778
251851
199482
127245
371198
513848
1.11303e+06
111870
97071.9
131403
144672
308353
195746
728348
645928
174281
119248
106853
1.52295e+06
562373
111502
228671
116585
1.76048e+06
1.37562e+06
229478
163931
566195
280199
388852
778661
644019
708879
1.59074e+06
1.2583e+06
122510
1.20523e+06
1.66152e+06
1.26331e+06
1.39027e+06
623951
139331
861496
196540
133001
155607
298608
310853
235387
229887
536213
180083
132101
108574
794990
910435
1.00125e+06
1.09761e+06
1.18995e+06
508538
437839
363991
291220
186175
107326
383498
17936.1
190292
189450
9770.71
398768
200537
159188
86300.8
244899
280733
122114
275414
840769
570512
395220
284319
324686
1.47512e+06
1.14553e+06
147246
487146
120001
125323
389832
460698
508789
1.02908e+06
276829
306139
123815
1.33268e+06
126800
227549
268880
249619
910631
1.00063e+06
510982
605457
602830
387178
503267
985905
937633
925261
308243
420650
94174.7
109738
98289.8
197780
103952
445112
856622
762519
935275
678919
946083
677697
466488
341861
823613
602179
828546
604131
214183
953723
763208
667339
869634
770796
951056
689524
955042
688358
911027
1.75787e+06
350945
489038
1.07365e+06
409267
110333
125609
176822
17434.2
176033
15457.6
116206
301500
923813
840694
1.01437e+06
442446
309394
1.52747e+06
65709.6
113932
214161
702024
210018
579571
281066
1.57195e+06
1.58617e+06
975325
117495
228397
1.03393e+06
521317
419210
315080
524770
476596
573465
207118
280275
1.63708e+06
384242
1.44613e+06
114717
116608
118897
115112
87266.7
1.42375e+06
121816
1.02265e+06
86414.9
742599
995918
117588
124149
154453
427848
163649
348661
317909
237533
258281
282484
132957
248557
334225
411195
281729
960013
877787
798576
1.0642e+06
1.43036e+06
1.58231e+06
105772
106903
111496
115867
199909
121521
211648
1.57494e+06
1.61692e+06
1.55631e+06
1.24989e+06
49122.4
886939
1.44423e+06
915180
715278
734603
904371
474493
447473
841519
526367
1.03755e+06
92404.3
188790
226953
440804
181477
176838
204585
145562
168615
124363
144332
300488
306773
334794
329126
360342
365355
429246
429314
119683
120724
382458
258381
101510
153674
644589
1.04224e+06
120634
592584
1.28619e+06
382504
1.21225e+06
531038
165353
1.18548e+06
574346
483024
763494
1.3647e+06
1.70329e+06
674791
261728
1.44364e+06
200974
153819
135056
336746
83831.8
614773
1.04652e+06
257009
401391
168016
121700
175000
1.54781e+06
258282
295896
286193
219997
632246
198134
161883
649666
142329
1.35901e+06
123553
800844
284532
307658
1.2507e+06
1.01666e+06
605602
1.11804e+06
1.22714e+06
519897
1.3396e+06
438231
351049
1.01138e+06
1.11119e+06
1.33544e+06
1.22007e+06
352251
523700
608890
439840
1.43496e+06
148605
1.12671e+06
128420
106812
117731
6457.35
49124.9
600410
70311.6
1.08485e+06
210892
167263
390564
424357
356153
336518
202077
892959
200805
213136
832961
93113.3
311752
286359
283886
888496
808751
975268
419489
398113
163976
271263
503263
1.08029e+06
71019.2
258876
162286
112183
358368
1.16455e+06
626196
547910
1.21382e+06
156716
646508
1.40308e+06
697942
1.28201e+06
128077
1.42868e+06
178692
965337
327847
404637
119414
11342.8
114165
113612
19452.5
184632
1.0216e+06
141765
1.18096e+06
558137
194126
876959
841726
965200
926492
1.0596e+06
1.01751e+06
479524
463578
332750
322689
366884
253482
847647
776557
706319
229143
272882
249593
136392
775846
671561
89601
146302
114928
131950
136740
1.4289e+06
1.16231e+06
290578
949066
864103
1.03986e+06
113353
548785
957953
976617
124927
117937
1.16789e+06
388247
140197
198713
233847
216352
137569
380783
348060
319997
1.26449e+06
1.75448e+06
1.26221e+06
863514
410581
299468
140558
152686
215471
160454
122019
114298
162858
450991
356289
113876
1.07768e+06
1.23095e+06
464852
435305
137669
137915
125656
127070
346712
1.16325e+06
823506
627129
648398
772981
116913
117369
178079
112826
110191
211180
1.81918e+06
1.43876e+06
114339
144546
555699
480503
339007
1.05795e+06
1.15585e+06
875942
962833
626908
306090
258690
282956
146407
170219
1.31802e+06
327728
824767
76130.9
1.23574e+06
118257
442938
509857
1.8114e+06
113519
453689
129808
425077
132554
272583
856260
371901
944048
604715
1.04001e+06
1.14242e+06
526012
1.25054e+06
445141
366340
448912
366793
178712
526380
596634
774553
112834
179132
1.01767e+06
452274
1.64444e+06
1.35519e+06
1.51811e+06
281343
1.15948e+06
564980
411126
199848
156131
1.57022e+06
838496
108324
1.73158e+06
1.42185e+06
51367
468486
386151
65604.4
706090
530944
102296
134698
1.16237e+06
1.6619e+06
119673
538299
552780
1.15694e+06
1.12025e+06
395467
405574
397412
409450
117916
119906
119666
113792
85894.4
1.74854e+06
1.3147e+06
1.21845e+06
1.53435e+06
562053
289061
1.19061e+06
640832
704777
773299
74752.9
1.27898e+06
215071
944937
1.38742e+06
403339
273922
1.73668e+06
426901
448429
318049
336562
878671
850573
168891
168782
96813.2
116012
285164
1.0326e+06
942169
856502
422769
1.74068e+06
121190
197940
102303
844903
929540
530955
1.01984e+06
455533
1.12482e+06
387810
1.04587e+06
865977
952082
1.1434e+06
314115
549525
474988
392969
114900
149188
154380
187062
337152
280741
308042
1.38731e+06
601968
734787
1.31109e+06
162163
226103
115333
360133
492504
175550
236238
1.35183e+06
145334
113163
120020
121925
113957
82425.4
179630
130621
141564
1.11914e+06
1.33456e+06
127463
109699
133237
231435
488353
1.46915e+06
1.36323e+06
632562
124834
144370
1.1378e+06
121769
124547
1.78125e+06
662919
1.31742e+06
346582
883096
527995
537544
161018
662946
911994
425648
309089
135129
299879
115556
79440.8
104237
1.45033e+06
775130
787372
1.36547e+06
219820
236615
132572
437847
121984
116775
130859
264180
227204
23044.8
226222
15821.2
118757
880833
252781
359225
769097
701293
637373
140653
1.6048e+06
552737
293117
1.34391e+06
761159
797793
145918
14276.2
145244
15067.7
1.21002e+06
328552
476172
574119
526095
121100
1.35669e+06
288873
213461
657084
503460
113257
30832.7
974635
196970
987801
235734
306906
578418
625115
522118
126075
480697
200346
248760
133925
144080
461044
479504
161882
278309
112712
113911
753017
368216
274236
125937
427713
11046.3
41276.8
425863
484176
392154
575714
684448
97228.8
1.6249e+06
1.70392e+06
204182
119412
126527
176869
197584
20352.1
196730
17588.8
813655
273124
375023
1.58777e+06
1.6096e+06
1.32263e+06
1.24457e+06
674174
596630
569924
507683
1.35061e+06
188907
367976
142864
102295
114549
257708
355648
505588
1.4999e+06
1.52103e+06
190857
98818.1
480824
526937
185931
808317
323363
270281
1.25815e+06
132139
128275
162450
757195
757039
809063
512714
261750
361055
88135.8
85557.9
935963
106198
810592
104673
383778
621712
545068
954417
1.1158e+06
122033
145140
298429
1.31806e+06
6708.99
83435.1
24739.4
83563.2
214503
202894
86473.1
1.50957e+06
26999.8
1.4354e+06
373898
36076.4
11656.1
372277
229138
121447
13932.5
120971
291231
1.27836e+06
290733
1.49136e+06
1.67835e+06
49788.1
447896
539608
494363
655777
307536
227043
719435
485101
85400.7
178852
267601
197938
469260
628202
183351
183961
1.618e+06
537731
622414
585749
674846
1.03202e+06
113979
105238
863484
1.06376e+06
376584
189852
216884
123181
240993
327686
124814
181404
252577
121355
84532
940320
1.10667e+06
203648
435965
342336
352223
1.11912e+06
487910
217191
178327
437795
387309
103392
254281
1.06785e+06
1.33212e+06
333509
237823
581840
702104
640479
84048.7
113115
246746
183598
1.00409e+06
364624
93514.7
45359
61529.1
327628
236035
562573
678419
619377
119843
1.46538e+06
1.6638e+06
131003
119454
112252
108403
1.44572e+06
271481
210513
597713
1.79197e+06
1.45475e+06
380503
150459
362418
331057
209476
193543
224957
131907
124986
123268
293051
1.42985e+06
104537
716508
776098
1.28629e+06
920985
898545
336902
331665
446255
453515
232535
237580
211150
109926
114680
526217
177709
1.31355e+06
886018
219801
112732
582537
1.69782e+06
110124
822391
682769
643750
849270
618712
259871
350828
813352
153776
594538
254033
280941
154133
341647
182288
233685
643821
313518
148065
130151
164880
791052
649932
159823
151631
148482
165479
118015
425060
325726
112989
310538
123239
182496
287076
1.54892e+06
1.36457e+06
940006
253289
190751
565684
517361
471096
234542
240642
111893
842997
125608
428181
566861
179715
183958
1.39284e+06
87531.8
257066
238741
127108
1.45132e+06
83942.8
122547
375267
444538
149469
140255
158611
117865
119655
933216
104534
114799
14225
114315
929222
861526
1.62527e+06
1.02327e+06
1.26075e+06
125368
1.30906e+06
867278
12870.2
93395.1
209077
167625
351574
383664
418436
558323
301309
1.27614e+06
712982
782231
137564
100972
96918.1
112665
127177
125730
179378
767587
93760.3
1.62415e+06
407265
157345
820593
517598
268020
368875
180338
155173
217971
337850
213439
449165
417767
163750
123167
540570
819631
86111.2
90084.7
158403
96032.6
105779
1.26523e+06
304077
231812
676583
1.20485e+06
332440
225381
543043
470032
512822
427806
252984
188976
119714
7570.51
59899
522831
432032
608924
1.30705e+06
1.086e+06
1.19349e+06
431643
519423
1.31626e+06
1.20054e+06
606798
1.09289e+06
162045
291592
242615
253690
113125
173265
150818
441120
208935
170723
194338
340459
966354
461662
120364
173987
110177
122840
187345
284235
115692
111853
106028
711883
256922
335960
233337
299543
625988
531472
625385
501929
892272
263299
157467
232922
542409
408119
201011
267868
378422
120828
234244
141360
139673
438486
438624
165812
562658
176593
184341
1.02938e+06
861751
110655
130170
1.3978e+06
96947.5
154995
98752.3
173700
212202
679212
618003
559258
366620
368784
683674
163517
123054
116958
935496
176403
164078
172006
162627
151996
154488
93786.9
140718
1.09946e+06
1.09365e+06
325040
257104
123461
736842
630688
260815
357924
508803
116866
83756.3
122953
1.41139e+06
511242
613410
62252.5
437258
174037
72381.1
167282
182274
165171
426775
118950
263368
206584
124830
1.73044e+06
278327
813513
229170
1.32674e+06
551961
646879
339106
249742
787897
99129.6
125045
145140
299855
367108
250319
171201
101439
75845.9
620214
262632
200490
101940
107645
111980
115078
272189
226308
250520
62562.7
129889
1.249e+06
119819
1.7216e+06
373444
156497
634318
135003
102609
468767
169947
165930
770786
109248
508121
1.04997e+06
955683
1.14638e+06
98178.2
170314
337226
1.02819e+06
973104
268215
120058
287445
291092
415022
483308
906233
414388
472820
998470
895186
970965
750798
825607
741442
815305
1.235e+06
260210
198578
1.43552e+06
105654
140429
510655
1.20003e+06
374553
207176
165485
107621
98156
125254
140066
104665
950301
236447
306173
561754
121331
669356
153886
244448
258259
389767
146052
123684
164004
125861
112155
166920
156462
146920
1.41981e+06
139124
114866
291285
367541
83740.7
197824
201746
1.09336e+06
214620
147250
128970
136778
145143
1.4073e+06
243585
221423
538539
241879
191128
1.36567e+06
1.0606e+06
1.13013e+06
359124
128178
1.20838e+06
362109
411487
177709
709258
567222
814859
660167
886608
451892
1.18432e+06
769617
1.01198e+06
785888
538207
429551
110966
125123
1.24863e+06
104146
117515
115405
117723
114556
102992
745090
777930
165218
347645
33700
4631.06
346129
150407
101131
1.24445e+06
428340
581796
222159
186637
210236
153222
169517
306748
352171
117222
164210
472723
330560
240048
456712
698164
591568
103021
706833
593594
1.7027e+06
1.04967e+06
633127
1.15468e+06
1.26782e+06
544960
1.38388e+06
459766
370451
1.04484e+06
1.14798e+06
1.26082e+06