/*--------------------------------*- C++ -*----------------------------------*\
| =========                 |                                                 |
| \\      /  F ield         | OpenFOAM: The Open Source CFD Toolbox           |
|  \\    /   O peration     | Version:  2.3.1                                 |
|   \\  /    A nd           | Web:      www.OpenFOAM.org                      |
|    \\/     M anipulation  |                                                 |
\*---------------------------------------------------------------------------*/
FoamFile
{
    version     2.0;
    format      ascii;
    class       volVectorField;
    location    "3440";
    object      D;
}
// * * * * * * * * * * * * * * * * * * * * * * * * * * * * * * * * * * * * * //

dimensions      [0 1 0 0 0 0 0];

internalField   nonuniform List<vector> 
11800
(
(9.40669e-06 0.000267309 0)
(-1.18805e-05 0.000297879 0)
(6.60495e-06 8.967e-05 0)
(-7.53689e-06 0.000122113 0)
(-1.08539e-05 0.000297374 0)
(-4.88329e-06 0.000122353 0)
(-1.79895e-06 0.000200485 0)
(-1.71141e-06 0.000154414 0)
(7.87617e-07 2.35355e-05 0)
(1.44021e-06 9.30202e-05 0)
(1.04443e-05 0.000266675 0)
(-9.39024e-06 0.00010403 0)
(-9.13007e-09 -7.26854e-09 0)
(5.87057e-06 8.91267e-05 0)
(-6.68508e-06 0.000122629 0)
(6.41492e-06 1.44221e-05 0)
(-1.00667e-06 0.000199899 0)
(-9.74795e-07 0.000153859 0)
(4.45208e-07 2.37969e-05 0)
(8.904e-07 9.25578e-05 0)
(-5.74689e-06 0.0001219 0)
(-8.60441e-06 0.000104445 0)
(-1.40636e-06 5.08315e-06 0)
(-1.50117e-06 5.29387e-06 0)
(5.72543e-06 1.64786e-05 0)
(-2.25106e-06 8.43832e-06 0)
(-9.18987e-06 6.19755e-05 0)
(1.33882e-05 0.000179635 0)
(-8.18124e-06 4.69732e-05 0)
(-7.07588e-06 3.37447e-05 0)
(1.41833e-05 0.000227248 0)
(5.91668e-08 3.95558e-06 0)
(2.93445e-06 1.08546e-05 0)
(-7.22353e-06 0.000305691 0)
(5.86156e-06 0.000304312 0)
(-1.61555e-05 0.000242724 0)
(5.46046e-06 0.000305364 0)
(2.88822e-06 1.11605e-05 0)
(-1.75898e-06 0.000211782 0)
(1.44423e-06 0.000102183 0)
(-9.03623e-06 6.26721e-05 0)
(-8.05269e-06 4.75936e-05 0)
(1.30792e-05 0.000178605 0)
(-6.97304e-06 3.42879e-05 0)
(1.38686e-05 0.000226164 0)
(6.11941e-06 1.4537e-05 0)
(1.61912e-06 6.02133e-06 0)
(1.80492e-06 5.92525e-06 0)
(-2.76283e-06 0.000211964 0)
(2.24842e-06 0.000102327 0)
(-1.53465e-05 0.000156469 0)
(-1.63988e-05 0.000202554 0)
(-1.5086e-06 0.00026445 0)
(8.25679e-08 3.75339e-06 0)
(-7.86458e-06 1.71833e-05 0)
(1.06629e-06 8.83914e-07 0)
(-2.01611e-05 0.000309888 0)
(-5.05975e-06 8.6318e-05 0)
(5.78888e-06 0.00012597 0)
(-3.67655e-06 8.29133e-05 0)
(2.13028e-06 2.82029e-06 0)
(-2.5968e-06 0.000264648 0)
(-4.39963e-06 8.61225e-05 0)
(5.04789e-06 0.000126204 0)
(5.36281e-06 1.6226e-05 0)
(-1.92485e-05 0.000273905 0)
(-1.59206e-05 0.000155784 0)
(-1.70705e-05 0.000201802 0)
(-1.91494e-05 0.000309387 0)
(-2.36233e-06 8.71287e-06 0)
(-6.43945e-06 0.00030655 0)
(-1.13676e-05 0.000304889 0)
(-1.1698e-05 0.000303805 0)
(-1.00614e-07 1.12411e-07 0)
(2.27485e-06 2.94163e-06 0)
(-1.52179e-05 0.000243406 0)
(7.03174e-06 2.27832e-05 0)
(-1.95608e-05 0.000274929 0)
(-1.55768e-05 0.000277255 0)
(-1.4553e-05 0.000278183 0)
(-7.49709e-06 1.69475e-05 0)
(1.15197e-06 0.000106114 0)
(1.07192e-05 0.000302499 0)
(9.56809e-06 0.000302686 0)
(-1.38211e-06 0.000109064 0)
(-6.80217e-06 3.80097e-05 0)
(1.28216e-05 0.000218985 0)
(-7.77445e-06 5.18434e-05 0)
(-8.66705e-06 6.74222e-05 0)
(1.20577e-05 0.000171806 0)
(-3.4887e-07 0.000258725 0)
(3.11892e-06 1.03175e-05 0)
(-9.67577e-06 0.000279044 0)
(2.00056e-05 0.000312262 0)
(3.17092e-06 0.000134575 0)
(-2.43251e-09 -1.85013e-09 0)
(6.28834e-11 -3.93049e-10 0)
(2.43304e-09 -1.85072e-09 0)
(-2.07747e-07 0.000267705 0)
(-8.91535e-06 0.000106336 0)
(1.72195e-05 0.000311144 0)
(1.04043e-05 0.000116858 0)
(-3.78369e-06 1.50852e-05 0)
(-8.52988e-07 1.16388e-05 0)
(-5.6039e-07 0.00029604 0)
(1.0415e-06 2.46214e-05 0)
(-2.19689e-06 0.000152151 0)
(-2.28428e-06 0.000197977 0)
(3.30915e-06 5.6274e-06 0)
(7.83836e-06 5.18205e-05 0)
(6.85891e-06 3.79893e-05 0)
(8.73824e-06 6.73964e-05 0)
(-1.29992e-05 0.000219012 0)
(-1.22269e-05 0.000171843 0)
(1.85971e-06 9.11215e-05 0)
(2.6187e-06 5.13038e-06 0)
(1.90823e-05 0.000275025 0)
(-7.80547e-06 0.000282315 0)
(2.66653e-06 4.94297e-06 0)
(-1.30299e-06 9.41797e-05 0)
(-7.79296e-07 2.29131e-05 0)
(1.74426e-06 0.000201961 0)
(1.65557e-06 0.000155736 0)
(-2.4089e-06 0.000193665 0)
(-9.73892e-06 0.000280097 0)
(-8.52557e-07 0.000266868 0)
(-6.25647e-06 0.000296157 0)
(-1.45531e-06 0.000295352 0)
(-2.16357e-05 0.000320158 0)
(-2.24087e-05 0.000319383 0)
(-6.24726e-07 2.81126e-07 0)
(-2.83598e-06 6.65324e-06 0)
(1.31532e-05 0.000212469 0)
(-7.30304e-06 4.15647e-05 0)
(1.23236e-05 0.000165689 0)
(-8.28445e-06 5.58827e-05 0)
(-9.18453e-06 7.19065e-05 0)
(1.21363e-05 0.000212663 0)
(-6.73003e-06 4.14406e-05 0)
(1.1372e-05 0.000165868 0)
(-7.63631e-06 5.57451e-05 0)
(-8.46757e-06 7.17565e-05 0)
(-1.77389e-06 2.122e-05 0)
(4.26168e-06 0.000205835 0)
(3.97598e-06 0.000159469 0)
(-3.37287e-06 9.72585e-05 0)
(1.63637e-05 0.000106779 0)
(-1.62625e-05 0.000104445 0)
(1.02344e-05 0.000117707 0)
(-1.19518e-06 1.23518e-05 0)
(-1.07706e-05 0.000257531 0)
(-1.06774e-05 0.000258896 0)
(5.25598e-06 0.000301982 0)
(-1.20452e-05 0.000243062 0)
(4.82719e-06 0.00017172 0)
(5.23764e-06 0.00021887 0)
(-1.34161e-05 0.000192825 0)
(-1.24435e-05 0.000147361 0)
(6.29422e-06 2.71399e-05 0)
(-9.87357e-07 0.000259696 0)
(3.59743e-06 5.72759e-06 0)
(-1.10082e-05 0.000243303 0)
(7.36045e-06 2.31132e-05 0)
(-4.91115e-06 7.01792e-05 0)
(-4.42049e-06 5.4314e-05 0)
(-3.88588e-06 4.01691e-05 0)
(6.7094e-06 0.000167843 0)
(7.15226e-06 0.000214778 0)
(-3.17492e-06 3.93231e-06 0)
(-5.77247e-06 2.61072e-05 0)
(1.25175e-05 0.000194964 0)
(1.16021e-05 0.000149367 0)
(2.79331e-06 0.000197759 0)
(-1.8404e-05 0.000241594 0)
(-1.85896e-05 0.000243043 0)
(6.59236e-06 1.65077e-05 0)
(6.60124e-06 1.69632e-05 0)
(7.25352e-06 5.03197e-05 0)
(8.10423e-06 6.57255e-05 0)
(6.32824e-06 3.66701e-05 0)
(-1.14997e-05 0.000174162 0)
(-1.22113e-05 0.000221493 0)
(4.91047e-06 0.000170644 0)
(5.26658e-06 0.000217761 0)
(5.33887e-06 0.000104025 0)
(-2.55353e-06 9.70387e-05 0)
(-1.34957e-06 2.13295e-05 0)
(3.22455e-06 0.000205559 0)
(3.00731e-06 0.000159211 0)
(-4.20038e-06 0.000254008 0)
(-1.41985e-06 4.45199e-05 0)
(-1.60195e-06 5.92388e-05 0)
(-1.58392e-05 0.000271797 0)
(-4.34597e-07 1.01346e-05 0)
(-1.52878e-05 0.000128012 0)
(1.31871e-05 8.4835e-05 0)
(1.52868e-07 1.46367e-07 0)
(-9.48151e-06 0.000306178 0)
(1.89492e-05 0.000276133 0)
(-5.45023e-07 3.25921e-07 0)
(1.24811e-05 0.000289426 0)
(1.55913e-05 0.000247331 0)
(1.67221e-05 0.000247534 0)
(-4.92332e-07 0.000297541 0)
(-1.2727e-06 0.000298494 0)
(8.81761e-06 8.27811e-05 0)
(7.78861e-06 8.31478e-05 0)
(-1.04299e-05 0.000130191 0)
(-9.18956e-06 0.000129734 0)
(6.15605e-07 2.77102e-07 0)
(-1.73043e-06 1.48213e-05 0)
(-1.94883e-06 8.25801e-06 0)
(-4.55847e-08 1.716e-08 0)
(5.93098e-06 9.78736e-06 0)
(-1.41808e-07 4.5078e-08 0)
(7.69828e-07 8.11074e-06 0)
(-1.07538e-05 0.000295975 0)
(-5.19995e-06 3.70973e-05 0)
(-5.93978e-06 5.08218e-05 0)
(-6.63167e-06 6.62905e-05 0)
(9.88439e-06 0.00022061 0)
(9.33033e-06 0.00017335 0)
(6.35782e-07 0.000205178 0)
(5.91093e-07 0.000158851 0)
(-2.77612e-07 2.14822e-05 0)
(-5.27346e-07 9.67495e-05 0)
(-2.08061e-07 3.45928e-08 0)
(8.08178e-07 2.68624e-05 0)
(-1.62409e-06 0.000147639 0)
(-4.86987e-06 9.34474e-05 0)
(1.128e-06 2.64679e-05 0)
(-2.28428e-06 0.000148421 0)
(-7.35119e-06 0.000280059 0)
(9.09692e-06 0.000104787 0)
(8.47492e-06 0.000103982 0)
(4.53719e-08 1.70884e-08 0)
(2.07662e-07 3.45311e-08 0)
(-1.42511e-05 0.000260656 0)
(-1.371e-05 0.000261762 0)
(-1.34593e-05 8.87364e-05 0)
(1.51479e-05 0.000123448 0)
(1.21263e-05 0.000221399 0)
(1.14169e-05 0.000174079 0)
(-6.32261e-06 3.67239e-05 0)
(-7.24918e-06 5.03773e-05 0)
(-8.09895e-06 6.57899e-05 0)
(-4.41016e-07 0.0002658 0)
(-5.33419e-06 2.49766e-05 0)
(1.18337e-05 0.000197403 0)
(1.09853e-05 0.000151629 0)
(7.26519e-06 0.000105882 0)
(6.12914e-06 0.000250651 0)
(9.62696e-06 0.000312637 0)
(9.85289e-07 7.99318e-06 0)
(-3.57082e-06 8.37648e-05 0)
(-9.70684e-09 2.95459e-06 0)
(1.41359e-07 4.49571e-08 0)
(3.43607e-06 8.83859e-05 0)
(2.9566e-06 8.74631e-05 0)
(-3.73299e-06 0.000123674 0)
(-3.19868e-06 0.000124588 0)
(6.62267e-06 6.62705e-05 0)
(5.93181e-06 5.08039e-05 0)
(5.18046e-06 3.7088e-05 0)
(-9.35882e-06 0.000173351 0)
(-9.94299e-06 0.000220638 0)
(-5.26811e-06 0.00030627 0)
(1.79402e-06 2.18211e-06 0)
(-1.35172e-09 0.000176049 0)
(-1.77263e-08 3.55131e-05 0)
(6.99901e-06 0.000295516 0)
(5.70672e-06 0.000103272 0)
(-2.21879e-05 0.000292011 0)
(6.55899e-06 0.000106646 0)
(2.55808e-07 1.87332e-07 0)
(1.82502e-05 0.000238606 0)
(1.83556e-05 0.000237264 0)
(-1.11642e-05 0.000151822 0)
(-1.20255e-05 0.000197604 0)
(-9.97398e-06 0.000151439 0)
(-1.07464e-05 0.000197195 0)
(5.37866e-06 2.48849e-05 0)
(4.82235e-06 2.50494e-05 0)
(5.43005e-06 0.000139453 0)
(6.45945e-06 0.00013929 0)
(5.89144e-06 0.000184257 0)
(7.01101e-06 0.00018408 0)
(-2.99821e-06 3.1232e-05 0)
(-3.57104e-06 3.13336e-05 0)
(-6.28886e-07 1.40467e-05 0)
(3.17222e-06 8.95961e-06 0)
(2.96972e-06 8.64963e-06 0)
(3.03075e-06 6.54651e-06 0)
(5.2405e-06 0.00025173 0)
(-1.81081e-05 0.000239045 0)
(-1.82049e-05 0.000237652 0)
(6.8103e-06 1.84376e-05 0)
(6.67611e-06 1.79119e-05 0)
(1.43577e-05 0.000106802 0)
(1.45514e-05 0.000108 0)
(-1.42579e-05 0.000104362 0)
(-1.43329e-05 0.000103183 0)
(6.48458e-06 0.00030178 0)
(-1.77705e-05 0.000305719 0)
(-1.7082e-05 0.00025731 0)
(4.00815e-06 4.52037e-06 0)
(-1.04386e-05 0.000301879 0)
(-9.32137e-06 0.000300843 0)
(4.41753e-06 0.000141048 0)
(-2.7404e-06 0.000126748 0)
(2.43439e-06 8.56573e-05 0)
(-1.22291e-05 0.0001072 0)
(1.19765e-05 0.000103861 0)
(-5.79153e-06 1.81176e-05 0)
(-1.69797e-07 1.07713e-07 0)
(9.13723e-07 3.71777e-06 0)
(1.09428e-06 9.14105e-05 0)
(-1.02949e-05 9.206e-05 0)
(1.10808e-05 0.000119484 0)
(-5.92815e-06 8.37988e-05 0)
(7.04793e-06 0.00012897 0)
(3.56918e-06 0.000224852 0)
(4.92561e-06 0.000224368 0)
(-2.10274e-06 4.825e-05 0)
(-2.90255e-06 4.85413e-05 0)
(-2.35718e-06 6.34263e-05 0)
(-3.25223e-06 6.3751e-05 0)
(5.59981e-07 2.44529e-05 0)
(-1.20096e-06 0.000152493 0)
(-1.21661e-06 0.000198364 0)
(-1.9681e-06 0.000290595 0)
(2.77183e-06 6.50465e-06 0)
(-5.54589e-07 0.000123492 0)
(-8.43766e-06 0.000297894 0)
(1.14903e-06 9.17021e-07 0)
(7.54128e-06 0.000176893 0)
(-4.08353e-06 3.51228e-05 0)
(-1.27477e-05 0.000124803 0)
(-1.19726e-05 0.000124179 0)
(1.11405e-05 8.74843e-05 0)
(1.05015e-05 8.80163e-05 0)
(-1.26367e-05 0.000310666 0)
(-1.27759e-05 0.000309331 0)
(-2.07868e-06 1.41348e-05 0)
(-2.46482e-06 1.40813e-05 0)
(1.00039e-06 3.89667e-06 0)
(-2.36958e-06 4.04426e-06 0)
(5.93966e-07 0.000129595 0)
(3.64921e-06 2.5338e-05 0)
(3.06849e-06 2.54995e-05 0)
(-7.50462e-06 0.000150775 0)
(-6.29223e-06 0.000150418 0)
(-8.08808e-06 0.000196491 0)
(-6.7829e-06 0.000196108 0)
(-1.63906e-05 0.000249004 0)
(-1.51676e-05 0.000249104 0)
(-3.5902e-06 7.49632e-05 0)
(-3.31802e-06 5.86175e-05 0)
(-2.93828e-06 4.39704e-05 0)
(5.18274e-06 0.000232317 0)
(-8.88401e-07 0.000263215 0)
(1.07753e-05 0.00010376 0)
(1.02026e-05 0.000104664 0)
(4.78037e-06 0.000200916 0)
(4.57072e-06 0.000154828 0)
(-2.14823e-06 2.33546e-05 0)
(2.02034e-06 2.61541e-05 0)
(1.66221e-06 2.66641e-05 0)
(-3.71605e-06 0.000193626 0)
(-4.42092e-06 0.000194627 0)
(-4.0943e-06 0.000149064 0)
(-3.337e-06 0.000148043 0)
(-4.27241e-06 2.39728e-05 0)
(8.99403e-06 0.000153635 0)
(9.67559e-06 0.000199567 0)
(-1.15721e-07 1.09983e-06 0)
(1.60236e-05 0.000118436 0)
(-1.47189e-05 9.32963e-05 0)
(-6.50129e-08 1.02316e-06 0)
(-4.83578e-06 0.000221354 0)
(-5.67096e-06 0.000222574 0)
(-4.43585e-06 0.000174122 0)
(-5.19437e-06 0.000175278 0)
(2.81971e-06 3.59809e-05 0)
(2.42879e-06 3.66139e-05 0)
(3.33392e-06 4.9607e-05 0)
(2.8612e-06 5.03296e-05 0)
(3.72906e-06 6.49415e-05 0)
(3.19669e-06 6.57491e-05 0)
(1.80725e-05 0.000249488 0)
(1.84092e-05 0.000250759 0)
(-1.69192e-06 8.3256e-06 0)
(6.78124e-06 0.000177776 0)
(-3.64611e-06 3.46369e-05 0)
(5.9203e-06 2.73737e-05 0)
(-1.16484e-05 0.000146872 0)
(-1.25888e-05 0.000192269 0)
(-1.65324e-07 5.02143e-08 0)
(2.34797e-06 0.000260038 0)
(5.84566e-06 2.61127e-05 0)
(-1.18109e-05 0.000149361 0)
(-1.27545e-05 0.000194916 0)
(4.43525e-06 7.60403e-06 0)
(-8.92244e-06 0.000281907 0)
(5.60845e-06 2.08327e-05 0)
(-1.40883e-05 0.000231313 0)
(-2.99737e-06 1.11868e-05 0)
(-3.19788e-06 1.15981e-05 0)
(3.13767e-06 1.1477e-05 0)
(-1.52205e-06 0.0001233 0)
(-1.16604e-08 -8.58061e-09 0)
(-9.47459e-06 0.00030896 0)
(-1.48234e-07 5.89276e-08 0)
(1.64725e-07 5.00563e-08 0)
(-4.38621e-06 2.52927e-05 0)
(9.65616e-06 0.000196636 0)
(8.95922e-06 0.000150912 0)
(7.43976e-06 0.000260449 0)
(-2.13634e-05 0.000279487 0)
(2.7381e-06 0.000115385 0)
(-1.76111e-06 0.000112358 0)
(-4.81427e-07 1.17066e-05 0)
(-1.35193e-06 1.41138e-06 0)
(-8.41774e-09 -7.5796e-09 0)
(-5.31767e-06 8.45839e-05 0)
(6.31833e-06 0.000128063 0)
(4.59397e-07 1.60989e-07 0)
(-7.08553e-07 0.000110698 0)
(-6.6845e-07 0.000109625 0)
(-1.72801e-08 9.28732e-05 0)
(-1.26236e-07 2.3653e-05 0)
(2.38339e-07 0.000154159 0)
(2.13918e-07 0.000200297 0)
(-4.61609e-07 1.61735e-07 0)
(1.89909e-06 1.26649e-05 0)
(-7.37309e-06 0.000227533 0)
(4.21065e-06 4.67169e-05 0)
(4.7317e-06 6.17036e-05 0)
(5.2058e-06 7.83423e-05 0)
(1.54989e-05 0.000296532 0)
(-5.68389e-06 2.26217e-05 0)
(1.32902e-05 0.000202799 0)
(1.23794e-05 0.000156652 0)
(-8.78539e-06 0.000273474 0)
(1.27615e-06 3.24981e-06 0)
(1.18479e-05 0.000268381 0)
(-2.53004e-06 3.98326e-06 0)
(8.3022e-06 0.000297714 0)
(-6.35574e-06 0.000227558 0)
(3.62515e-06 4.66966e-05 0)
(4.07392e-06 6.16823e-05 0)
(4.48508e-06 7.83145e-05 0)
(1.11478e-06 3.07957e-06 0)
(5.47113e-06 0.000182296 0)
(-2.83347e-06 3.22357e-05 0)
(-9.59177e-07 1.26119e-05 0)
(-1.55503e-05 0.000269338 0)
(-5.77276e-06 7.044e-05 0)
(-5.19766e-06 5.45507e-05 0)
(-4.5709e-06 4.03795e-05 0)
(7.83112e-06 0.000167568 0)
(8.34909e-06 0.000214483 0)
(2.1359e-05 0.000314317 0)
(1.24364e-05 0.00027575 0)
(1.37879e-05 0.000275275 0)
(1.72847e-07 1.20825e-07 0)
(7.72127e-06 8.411e-05 0)
(-9.04383e-06 0.000128588 0)
(-3.92921e-06 8.53146e-05 0)
(4.59901e-06 0.000127244 0)
(-1.32444e-06 0.000137095 0)
(-1.00625e-06 0.000222803 0)
(6.41719e-07 6.47729e-05 0)
(5.73655e-07 4.94534e-05 0)
(3.44255e-08 3.47795e-05 0)
(-2.1805e-07 0.000133212 0)
(-9.68026e-08 0.000177448 0)
(9.77797e-06 0.000313892 0)
(5.53295e-07 1.29907e-05 0)
(-2.39009e-07 2.99818e-06 0)
(1.87544e-06 0.000188421 0)
(9.423e-08 3.10083e-06 0)
(-1.43899e-06 9.69925e-06 0)
(3.61162e-06 3.46949e-05 0)
(-6.82493e-06 0.00017766 0)
(-1.3494e-07 1.48503e-07 0)
(-1.44029e-05 0.000269212 0)
(-1.19578e-06 2.32002e-05 0)
(2.56042e-06 0.000201369 0)
(2.53886e-06 0.00015513 0)
(3.23087e-07 7.75407e-08 0)
(-4.25177e-06 7.72911e-06 0)
(4.71166e-06 6.32363e-05 0)
(4.20232e-06 4.80841e-05 0)
(-7.25097e-06 0.000225178 0)
(1.4028e-06 8.79508e-05 0)
(-9.74349e-06 0.000304975 0)
(-1.62301e-07 2.27575e-08 0)
(-5.56821e-06 1.20976e-05 0)
(3.60781e-06 6.65695e-06 0)
(-3.63255e-06 3.98162e-06 0)
(1.08487e-05 0.000105667 0)
(8.25183e-06 0.000128613 0)
(-7.07695e-06 8.40809e-05 0)
(5.08107e-07 3.44236e-05 0)
(-1.17726e-06 0.000133718 0)
(-9.85366e-07 0.000178111 0)
(1.03641e-05 0.000265324 0)
(9.64231e-06 0.000115767 0)
(5.02447e-06 0.000307337 0)
(4.84046e-06 0.000308486 0)
(1.40448e-06 0.000128011 0)
(1.9146e-06 8.72901e-05 0)
(1.61979e-07 2.27161e-08 0)
(-1.39198e-05 0.000240521 0)
(5.04264e-06 1.72817e-05 0)
(1.74862e-08 2.37551e-07 0)
(2.66765e-06 0.000171636 0)
(3.48546e-06 0.000172232 0)
(4.73106e-09 2.06866e-08 0)
(-2.64634e-06 6.44002e-06 0)
(6.59627e-06 6.4298e-05 0)
(5.89212e-06 4.90375e-05 0)
(5.12957e-06 3.54891e-05 0)
(-9.4787e-06 0.000176061 0)
(-1.00551e-05 0.000223606 0)
(8.76592e-06 0.000110165 0)
(1.2847e-06 0.000260318 0)
(-5.66955e-06 0.000293629 0)
(-5.36775e-06 0.000295181 0)
(-5.46015e-07 0.000226421 0)
(-4.67952e-07 0.000227668 0)
(3.87618e-07 4.6591e-05 0)
(3.53629e-07 4.72817e-05 0)
(4.35528e-07 6.15677e-05 0)
(3.96857e-07 6.23427e-05 0)
(2.87223e-07 7.81911e-05 0)
(3.43254e-07 7.902e-05 0)
(6.92726e-07 0.00012844 0)
(1.26978e-06 0.000130507 0)
(2.20607e-06 0.000199021 0)
(-5.57449e-07 0.000136758 0)
(-3.23794e-07 7.77028e-08 0)
(-3.61677e-07 2.85916e-06 0)
(4.81926e-06 0.000181326 0)
(-2.51864e-06 3.27363e-05 0)
(1.26986e-06 3.97112e-06 0)
(1.88119e-05 0.000297992 0)
(-1.43178e-06 0.000228664 0)
(8.8897e-07 4.60657e-05 0)
(9.99909e-07 6.09777e-05 0)
(9.86274e-07 7.7506e-05 0)
(-1.43726e-05 0.000250294 0)
(4.95278e-06 8.93791e-05 0)
(7.33869e-06 0.000316336 0)
(8.29877e-06 0.00031563 0)
(-1.43028e-06 1.00014e-05 0)
(-9.11577e-07 0.000175123 0)
(4.79839e-07 3.60208e-05 0)
(2.12383e-07 2.16342e-07 0)
(1.8459e-05 0.000306414 0)
(-2.51124e-07 5.05454e-06 0)
(-3.4648e-06 5.22926e-05 0)
(-3.86027e-06 6.79351e-05 0)
(-4.61949e-06 6.86502e-05 0)
(-4.15012e-06 5.29367e-05 0)
(-2.99948e-06 3.83748e-05 0)
(-3.62863e-06 3.89563e-05 0)
(6.10702e-06 0.000169944 0)
(6.50552e-06 0.000217024 0)
(2.64353e-06 3.60374e-06 0)
(-1.69903e-07 1.03186e-07 0)
(-1.59226e-05 0.000207082 0)
(-1.65891e-05 0.000305788 0)
(5.41468e-06 0.000130405 0)
(-4.62582e-07 5.17236e-06 0)
(-8.61279e-06 0.000169635 0)
(-9.16893e-06 0.000216684 0)
(4.9108e-06 3.91937e-05 0)
(5.59722e-06 5.32019e-05 0)
(6.22763e-06 6.89411e-05 0)
(7.99444e-06 0.000261315 0)
(1.81511e-05 0.000307505 0)
(-9.76325e-06 0.000106618 0)
(4.02223e-06 3.51134e-05 0)
(-7.56835e-06 0.000176886 0)
(5.18117e-06 0.000131421 0)
(-1.96314e-06 9.36005e-05 0)
(5.21806e-06 6.37763e-05 0)
(4.6576e-06 4.85676e-05 0)
(-7.99272e-06 0.000224365 0)
(-1.45159e-05 0.000107846 0)
(1.41624e-05 0.000103396 0)
(1.41623e-05 0.000104551 0)
(-1.4325e-05 0.000106619 0)
(-6.69114e-06 1.79015e-05 0)
(-6.88725e-06 1.84591e-05 0)
(-6.73226e-06 0.000104535 0)
(-3.42351e-06 4.07694e-06 0)
(-1.08931e-05 0.000105339 0)
(-1.59043e-06 0.000251748 0)
(-1.40018e-06 1.67558e-06 0)
(1.09421e-05 6.13811e-05 0)
(9.73331e-06 4.64511e-05 0)
(-1.5439e-05 0.000157836 0)
(2.49375e-06 6.38156e-05 0)
(2.22612e-06 4.85983e-05 0)
(-3.83586e-06 0.000224263 0)
(5.11842e-06 1.54383e-05 0)
(8.53513e-06 0.00012757 0)
(-7.37082e-06 8.49859e-05 0)
(-4.03985e-06 4.54094e-06 0)
(4.38752e-06 0.000199819 0)
(4.19223e-06 0.000153848 0)
(-1.99314e-06 2.3816e-05 0)
(1.27167e-05 0.000188669 0)
(-6.2113e-06 2.91175e-05 0)
(1.1738e-05 0.000143543 0)
(-7.07808e-06 1.76636e-05 0)
(8.96354e-06 0.00029422 0)
(1.028e-05 0.000293789 0)
(9.90331e-06 0.000223613 0)
(9.38506e-06 0.000176079 0)
(-5.11311e-06 3.55904e-05 0)
(-5.84435e-06 4.90318e-05 0)
(-6.54306e-06 6.42919e-05 0)
(-1.47482e-06 1.45259e-06 0)
(-7.86182e-06 0.000273194 0)
(8.59001e-06 0.000174123 0)
(-4.75275e-06 3.66593e-05 0)
(-8.96314e-07 1.11551e-06 0)
(7.34258e-06 0.00029752 0)
(1.78134e-06 1.46281e-06 0)
(1.47747e-06 1.10927e-06 0)
(3.74469e-06 5.32803e-06 0)
(8.8766e-06 0.000239067 0)
(-1.50201e-05 0.000245659 0)
(2.0004e-05 0.000298373 0)
(3.79254e-06 5.6009e-06 0)
(8.7804e-06 0.000115731 0)
(1.20456e-05 0.000253507 0)
(-1.93421e-05 0.000239686 0)
(7.08757e-06 1.77029e-05 0)
(-4.43786e-06 0.000255102 0)
(1.80736e-06 6.40142e-05 0)
(1.61389e-06 4.87753e-05 0)
(-2.78525e-06 0.000223956 0)
(-6.66541e-07 3.20319e-06 0)
(5.13319e-06 0.000137604 0)
(1.46808e-07 5.84034e-08 0)
(-5.88668e-06 1.19809e-05 0)
(-1.04132e-06 0.000113058 0)
(-2.63517e-06 2.17576e-05 0)
(-3.0671e-06 2.19013e-05 0)
(5.83912e-06 0.000158312 0)
(6.77817e-06 0.000158017 0)
(7.27099e-06 0.000204275 0)
(6.26269e-06 0.000204593 0)
(1.73252e-07 6.44738e-07 0)
(-4.37717e-08 8.07438e-06 0)
(-1.04838e-05 0.000142206 0)
(-1.13687e-05 0.000187223 0)
(5.59326e-06 2.98066e-05 0)
(-3.28751e-06 1.77358e-05 0)
(-1.96364e-06 0.000192514 0)
(-2.97716e-06 7.59287e-06 0)
(6.14214e-06 0.000294691 0)
(-4.9401e-06 9.6261e-05 0)
(-5.72434e-06 9.60181e-05 0)
(1.69386e-07 1.71236e-07 0)
(-3.27237e-06 9.95642e-05 0)
(-1.65659e-06 2.00148e-05 0)
(3.83143e-06 0.000162199 0)
(4.09939e-06 0.000208757 0)
(-4.59421e-06 0.000192545 0)
(-4.04212e-06 0.000147052 0)
(2.03719e-06 2.71731e-05 0)
(2.70678e-06 1.01921e-05 0)
(2.51401e-06 9.82158e-06 0)
(1.31854e-06 9.59792e-05 0)
(-1.70945e-06 0.0002042 0)
(-1.60167e-06 0.000157919 0)
(7.0794e-07 2.19063e-05 0)
(-1.56638e-06 3.77659e-05 0)
(-2.80362e-06 7.80499e-06 0)
(1.14389e-05 0.000301627 0)
(-1.11523e-05 0.000180222 0)
(8.58915e-06 8.46496e-05 0)
(-1.00167e-05 0.000127981 0)
(1.21928e-05 0.000254653 0)
(-1.11832e-05 7.77921e-05 0)
(-1.0179e-05 6.11984e-05 0)
(1.36924e-05 0.000136252 0)
(-9.05144e-06 4.62852e-05 0)
(-7.82763e-06 3.3169e-05 0)
(1.49554e-05 0.000180787 0)
(1.58115e-05 0.000228524 0)
(-4.10196e-06 0.000218658 0)
(-3.85861e-06 0.000171485 0)
(2.46257e-06 5.19542e-05 0)
(2.15607e-06 3.80913e-05 0)
(2.74468e-06 6.756e-05 0)
(2.35523e-06 5.27029e-05 0)
(-3.89591e-06 0.00021743 0)
(2.62216e-06 6.83932e-05 0)
(2.06511e-06 3.87481e-05 0)
(-3.66242e-06 0.00017033 0)
(-2.16331e-06 0.000277495 0)
(-4.36794e-06 5.71599e-06 0)
(-4.7466e-06 2.69158e-05 0)
(1.0118e-05 0.000193152 0)
(9.36682e-06 0.000147682 0)
(-2.9834e-06 3.62674e-05 0)
(5.44993e-06 0.000174792 0)
(1.50093e-05 0.000216658 0)
(1.40968e-05 0.000169624 0)
(-8.09434e-06 3.92978e-05 0)
(-9.22503e-06 5.33035e-05 0)
(-1.02627e-05 6.90405e-05 0)
(1.58147e-05 0.000236511 0)
(1.72605e-05 0.000236209 0)
(3.86062e-07 6.88887e-06 0)
(-1.59013e-06 0.000111203 0)
(-4.23331e-06 1.16784e-05 0)
(2.1646e-07 4.01777e-07 0)
(-4.16834e-06 1.4838e-05 0)
(-6.66121e-07 0.000252252 0)
(1.74324e-07 6.59231e-06 0)
(-3.46501e-06 0.000119189 0)
(1.43325e-05 0.00015793 0)
(-6.48554e-06 2.20866e-05 0)
(1.53739e-05 0.000204164 0)
(-1.42894e-08 -9.90203e-09 0)
(9.61228e-07 0.000188601 0)
(2.71733e-07 1.14275e-07 0)
(1.85478e-07 1.36453e-07 0)
(2.54692e-06 0.000135391 0)
(-3.10269e-07 2.50234e-07 0)
(1.16901e-05 0.000303887 0)
(8.762e-07 0.000172183 0)
(-4.62782e-07 3.7651e-05 0)
(2.54157e-06 1.51042e-05 0)
(1.6122e-06 0.000171646 0)
(-9.00345e-07 3.79268e-05 0)
(-1.52189e-07 3.33615e-06 0)
(-1.09308e-05 6.13498e-05 0)
(-9.72213e-06 4.64235e-05 0)
(-8.40892e-06 3.32984e-05 0)
(-6.98733e-06 2.21404e-05 0)
(1.54279e-05 0.00015787 0)
(1.60391e-05 0.000180588 0)
(1.65493e-05 0.000204096 0)
(1.69634e-05 0.000228316 0)
(-7.50446e-06 0.000246386 0)
(-6.66778e-06 0.000293057 0)
(-2.15566e-05 0.000241875 0)
(7.73001e-06 1.69528e-05 0)
(4.92605e-06 0.000310725 0)
(5.72935e-06 0.000309383 0)
(1.53423e-06 0.000167834 0)
(1.66391e-06 0.000214795 0)
(-1.17614e-06 7.02613e-05 0)
(-1.05862e-06 5.43838e-05 0)
(-9.30568e-07 4.02258e-05 0)
(-6.14369e-06 1.771e-05 0)
(2.23798e-06 1.26902e-05 0)
(-8.33896e-06 7.36194e-05 0)
(1.10484e-05 0.000163341 0)
(-7.53662e-06 5.7428e-05 0)
(-6.66138e-06 4.29275e-05 0)
(1.18101e-05 0.000209965 0)
(-4.66888e-06 1.96302e-05 0)
(1.19598e-05 0.00023438 0)
(2.0133e-06 0.000106496 0)
(-1.25018e-06 0.000261886 0)
(1.22421e-06 6.10643e-07 0)
(-9.14741e-07 0.000229877 0)
(5.90158e-07 4.53775e-05 0)
(6.64479e-07 6.02043e-05 0)
(6.18157e-07 7.66529e-05 0)
(3.74613e-06 0.000271342 0)
(-5.07348e-07 3.20796e-07 0)
(1.89737e-05 0.000266986 0)
(-2.84428e-06 0.000112896 0)
(-8.55221e-08 1.82993e-07 0)
(6.78754e-06 0.00016079 0)
(-2.97466e-06 2.06576e-05 0)
(7.26787e-06 0.000207246 0)
(1.47976e-07 1.15077e-07 0)
(-3.99532e-06 2.49349e-05 0)
(8.22324e-06 0.000151619 0)
(8.85869e-06 0.000197399 0)
(1.38318e-06 1.8074e-06 0)
(-5.76513e-06 9.83943e-05 0)
(1.22324e-06 0.00010523 0)
(-1.31321e-05 0.00028539 0)
(1.21364e-06 0.000168751 0)
(1.2939e-06 0.000215749 0)
(-9.92911e-07 6.95824e-05 0)
(-7.82383e-07 3.96901e-05 0)
(-8.92904e-07 5.3772e-05 0)
(1.95011e-06 0.000107286 0)
(-2.71726e-07 1.03027e-06 0)
(-2.40376e-07 3.51127e-06 0)
(5.80566e-07 0.00025184 0)
(1.29231e-05 0.000115389 0)
(-1.21153e-05 9.6027e-05 0)
(-9.2157e-06 0.000319435 0)
(-2.09226e-05 0.000208518 0)
(-1.95603e-05 0.000162012 0)
(-2.03023e-05 0.000184874 0)
(-1.86935e-05 0.00014007 0)
(1.02314e-05 3.11916e-05 0)
(1.19008e-05 4.39615e-05 0)
(1.34373e-05 5.85624e-05 0)
(1.48451e-05 7.48447e-05 0)
(2.08904e-05 0.000208515 0)
(2.02701e-05 0.000184874 0)
(-1.02483e-05 3.11926e-05 0)
(-1.19201e-05 4.39632e-05 0)
(1.95276e-05 0.000162012 0)
(-1.34599e-05 5.85638e-05 0)
(1.86634e-05 0.000140069 0)
(-1.48702e-05 7.48461e-05 0)
(-5.91296e-06 1.72139e-05 0)
(-3.24048e-06 0.000261328 0)
(-2.30976e-06 0.000261078 0)
(-2.87527e-06 0.000296059 0)
(4.77792e-06 0.000179084 0)
(-2.54589e-06 3.39203e-05 0)
(-9.10981e-07 1.33925e-06 0)
(-3.72152e-06 0.000312939 0)
(-4.07603e-06 6.70354e-05 0)
(-4.99374e-06 6.67823e-05 0)
(-3.65425e-06 5.14848e-05 0)
(-4.47555e-06 5.12593e-05 0)
(6.05346e-06 0.000219826 0)
(7.27047e-06 0.000219928 0)
(1.59756e-05 0.000216093 0)
(1.49996e-05 0.000169096 0)
(-8.64996e-06 3.96224e-05 0)
(-9.85138e-06 5.36693e-05 0)
(-1.09539e-05 6.9444e-05 0)
(-9.66189e-06 0.000142709 0)
(-1.04736e-05 0.000187771 0)
(5.12596e-06 2.95212e-05 0)
(-3.0351e-06 0.000127764 0)
(2.57694e-06 8.47909e-05 0)
(3.15464e-06 0.000226065 0)
(-1.83806e-06 4.74656e-05 0)
(-2.06318e-06 6.2548e-05 0)
(-2.23606e-06 7.91057e-05 0)
(5.96154e-06 8.37776e-05 0)
(5.05184e-06 8.39924e-05 0)
(-7.00615e-06 0.000128938 0)
(-5.93206e-06 0.000128673 0)
(-7.05842e-06 0.00031059 0)
(4.72291e-07 1.28583e-06 0)
(1.17472e-05 0.000267278 0)
(4.22743e-06 9.30877e-05 0)
(1.15134e-05 0.000184678 0)
(-5.82632e-06 3.10884e-05 0)
(1.05981e-05 0.000139859 0)
(-9.85083e-06 0.000111683 0)
(2.38439e-06 2.35195e-05 0)
(-5.50244e-06 0.000200488 0)
(-5.1197e-06 0.000154488 0)
(6.86173e-07 9.68686e-05 0)
(-8.5016e-07 0.000158976 0)
(-9.04711e-07 0.000205329 0)
(3.64161e-07 2.14259e-05 0)
(6.63742e-06 8.77018e-05 0)
(-7.57476e-06 0.0001244 0)
(-3.62716e-06 0.000277491 0)
(-1.68067e-05 0.000274831 0)
(3.004e-06 0.00011865 0)
(7.54054e-06 0.000119025 0)
(-6.08634e-06 2.28563e-05 0)
(1.41601e-05 0.000202295 0)
(1.31857e-05 0.000156185 0)
(-6.73015e-07 2.84747e-06 0)
(-2.27211e-06 0.000231478 0)
(1.26253e-06 4.4464e-05 0)
(1.42412e-06 5.9176e-05 0)
(1.56086e-06 7.55299e-05 0)
(-3.47048e-06 0.000112342 0)
(-1.55785e-05 0.000274924 0)
(-4.47109e-06 4.45182e-05 0)
(-5.04384e-06 5.92309e-05 0)
(-5.54948e-06 7.56205e-05 0)
(7.94405e-06 0.000231397 0)
(1.43287e-08 1.86132e-08 0)
(9.75913e-06 0.000110786 0)
(1.24948e-07 8.6084e-06 0)
(-4.60164e-07 7.98772e-07 0)
(-9.56629e-07 3.68627e-06 0)
(-4.59211e-06 1.58262e-05 0)
(-4.69686e-07 1.72643e-07 0)
(1.91993e-06 5.02768e-05 0)
(1.68316e-06 3.65972e-05 0)
(2.14512e-06 6.56915e-05 0)
(-3.25732e-06 0.000221429 0)
(-3.08384e-06 0.000174138 0)
(-9.47613e-06 9.18605e-05 0)
(1.02795e-05 0.000119743 0)
(-9.31169e-07 5.46989e-07 0)
(1.24897e-05 0.000294321 0)
(9.00916e-06 0.000263245 0)
(-1.91835e-05 0.000247744 0)
(7.10148e-06 0.000118102 0)
(2.56208e-06 0.000128306 0)
(-4.82785e-06 0.000312797 0)
(-1.34303e-05 0.000134444 0)
(-1.27748e-05 0.000133849 0)
(1.89452e-05 0.000312704 0)
(-1.51462e-06 0.000278877 0)
(-4.24535e-06 8.44478e-05 0)
(5.10872e-06 0.000128281 0)
(1.54892e-07 8.91087e-06 0)
(2.33177e-06 3.14379e-06 0)
(4.66648e-07 1.71547e-07 0)
(4.51695e-06 0.000136703 0)
(1.66972e-05 0.000319135 0)
(-9.1476e-06 0.000221467 0)
(-8.60731e-06 0.000174133 0)
(4.73054e-06 3.66419e-05 0)
(6.06481e-06 6.57073e-05 0)
(5.42797e-06 5.02976e-05 0)
(-1.71101e-07 1.19362e-07 0)
(-6.84725e-07 0.000290296 0)
(8.55033e-06 0.000119377 0)
(-7.77414e-06 9.23288e-05 0)
(-1.37068e-05 0.000283242 0)
(-2.04651e-05 0.000209589 0)
(-1.98626e-05 0.000185907 0)
(-1.91453e-05 0.00016301 0)
(-1.8303e-05 0.000141024 0)
(9.91934e-06 3.06556e-05 0)
(1.15565e-05 4.33414e-05 0)
(1.30634e-05 5.78646e-05 0)
(1.44446e-05 7.40756e-05 0)
(2.0431e-05 0.000209581 0)
(1.98305e-05 0.000185907 0)
(-9.93554e-06 3.06586e-05 0)
(-1.15745e-05 4.33448e-05 0)
(1.91101e-05 0.000163007 0)
(-1.30845e-05 5.78678e-05 0)
(1.82713e-05 0.000141019 0)
(-1.4468e-05 7.40791e-05 0)
(-2.96894e-06 3.97553e-06 0)
(1.16743e-06 1.09387e-06 0)
(-1.56275e-06 2.85104e-06 0)
(7.61244e-06 0.000117125 0)
(-8.35515e-06 0.000120612 0)
(1.48983e-06 1.78799e-06 0)
(-2.30804e-07 3.85544e-08 0)
(-1.84471e-05 0.000248343 0)
(1.05622e-05 0.00031591 0)
(1.18533e-05 0.000316508 0)
(2.30428e-07 3.85e-08 0)
(3.35669e-06 4.46168e-06 0)
(1.65416e-05 0.000287529 0)
(-6.28207e-06 0.000133374 0)
(-4.09272e-07 3.57146e-07 0)
(-9.26827e-07 1.43366e-06 0)
(-1.44677e-07 3.69789e-08 0)
(2.71227e-07 2.10093e-07 0)
(1.70791e-05 0.000106241 0)
(-1.70402e-05 0.000105009 0)
(5.23441e-06 8.00633e-05 0)
(-6.43868e-06 0.000130928 0)
(5.4353e-06 8.2124e-05 0)
(-2.79698e-07 4.75762e-06 0)
(-3.9682e-06 0.000209545 0)
(3.13777e-06 0.000100223 0)
(-2.21455e-06 0.000207266 0)
(-2.11811e-06 0.000160687 0)
(9.10044e-07 2.06682e-05 0)
(1.72449e-06 9.84019e-05 0)
(-7.00634e-06 0.000132692 0)
(3.57742e-06 4.72744e-06 0)
(5.86332e-06 8.06692e-05 0)
(2.18069e-06 0.000118832 0)
(1.66237e-05 0.000296953 0)
(-5.05885e-06 0.000119814 0)
(-5.81662e-06 0.00012063 0)
(-4.69985e-06 1.00221e-05 0)
(-5.64114e-06 0.00012447 0)
(-4.82423e-06 0.000123606 0)
(5.01791e-06 8.75573e-05 0)
(4.40788e-06 8.84224e-05 0)
(-5.27625e-06 2.44109e-05 0)
(1.10064e-05 0.000152796 0)
(1.1847e-05 0.00019866 0)
(-1.45389e-06 1.61365e-06 0)
(-7.01925e-06 0.000131626 0)
(5.90432e-06 8.15711e-05 0)
(-4.47595e-06 0.000169453 0)
(-4.76496e-06 0.000216496 0)
(2.54698e-06 3.92568e-05 0)
(3.22853e-06 6.90348e-05 0)
(2.90222e-06 5.32808e-05 0)
(-2.31985e-06 1.08251e-05 0)
(-1.46711e-05 0.000178723 0)
(-1.39027e-05 0.000178157 0)
(7.74766e-06 3.42461e-05 0)
(7.36998e-06 3.45437e-05 0)
(9.66592e-06 0.00014179 0)
(1.0627e-05 0.00014109 0)
(-5.2103e-06 3.00156e-05 0)
(-5.76927e-06 3.04136e-05 0)
(1.04857e-05 0.000186775 0)
(1.15341e-05 0.000186013 0)
(-4.21941e-06 0.000276471 0)
(8.42215e-06 0.000252418 0)
(8.54339e-06 0.000251237 0)
(-6.22622e-06 8.21317e-05 0)
(7.31525e-06 0.000130896 0)
(-2.20953e-05 0.0003081 0)
(-6.36114e-06 0.000245682 0)
(-6.10895e-06 0.000244528 0)
(2.11644e-06 1.57376e-05 0)
(2.17513e-06 1.53363e-05 0)
(1.90735e-05 0.000248419 0)
(-8.42996e-06 0.000105433 0)
(-7.23723e-06 0.00010547 0)
(1.88706e-05 0.000280551 0)
(-1.9084e-05 0.000295781 0)
(-1.90593e-05 0.000297192 0)