/*--------------------------------*- C++ -*----------------------------------*\
| =========                 |                                                 |
| \\      /  F ield         | OpenFOAM: The Open Source CFD Toolbox           |
|  \\    /   O peration     | Version:  2.3.1                                 |
|   \\  /    A nd           | Web:      www.OpenFOAM.org                      |
|    \\/     M anipulation  |                                                 |
\*---------------------------------------------------------------------------*/
FoamFile
{
    version     2.0;
    format      ascii;
    class       volSymmTensorField;
    location    "3440";
    object      sigma;
}
// * * * * * * * * * * * * * * * * * * * * * * * * * * * * * * * * * * * * * //

dimensions      [1 -1 -2 0 0 0 0];

internalField   nonuniform List<symmTensor> 
11800
(
(141151 72794.1 6.80388e-14 -2703.48 3.60448e-14 34351.7)
(-70405.6 64900.9 1.04447e-13 -748.639 3.3128e-14 -17654.8)
(637061 91786.2 -1.72208e-15 1347.45 -7.55922e-14 158402)
(-553732 48133.1 0 -985.564 0 -137637)
(-72894.3 62592.4 1.94872e-14 -5336.07 -5.50649e-14 -19410.5)
(-346662 95134.3 7.55886e-14 2341.15 3.96539e-14 -85432.9)
(-64324.7 91591.1 1.4295e-13 -677.224 -3.71763e-14 -16128.3)
(-90536.6 94724.9 -2.12875e-14 969.896 8.56583e-14 -22223.3)
(196293 49978 2.84509e-14 460.444 -1.94367e-14 48818.5)
(133855 99524.1 -7.33216e-14 924.996 -6.17678e-14 33441.7)
(163014 60419 -5.67588e-14 1544.56 4.85912e-14 40830.4)
(-803235 35173.5 -6.78746e-14 -5960.78 -3.08009e-14 -200778)
(22740.5 -33034.5 1.23296e-16 -61279.7 9.58061e-17 -9562.34)
(590225 48440.5 6.15485e-14 3673.61 -1.68472e-14 147358)
(-472150 89112.6 -5.13321e-14 6554.57 3.99118e-14 -115524)
(2.19589e+06 -6841.07 0 -7040.44 0 543098)
(-42054.4 72223.4 4.8375e-14 3884.14 4.26651e-15 -9470.81)
(-64822.5 66428.7 -2.72968e-14 7793.45 1.56794e-13 -14150.1)
(135519 113011 -2.79123e-14 -17972.2 1.98471e-14 29165.8)
(101925 60595.2 -9.75818e-14 -10972 -3.15659e-14 22567.4)
(-435222 54475.9 3.03974e-14 -1271.18 3.186e-14 -108303)
(-702543 83780.8 4.86309e-14 3583.05 -2.82798e-14 -173426)
(-927001 107929 -2.46087e-14 11471.4 1.5838e-14 -227162)
(-850699 63088.4 2.48063e-16 209.157 4.2799e-15 -211024)
(1.79093e+06 79887.4 3.06728e-15 -7918.26 3.56185e-14 442402)
(-1.10527e+06 107385 -2.41589e-14 7732.77 -6.91751e-16 -272321)
(-1.16355e+06 56646.5 0 10190.3 0 -286171)
(574123 42769.4 -8.06136e-14 -5526.61 -4.86894e-14 141080)
(-1.26844e+06 57957 -1.39428e-14 11250.5 -6.69485e-14 -311933)
(-1.37407e+06 58539.1 1.85536e-14 12958.8 -2.88644e-14 -337718)
(377409 45282.6 -9.98984e-14 -1946.3 -1.79059e-13 93160)
(75385 59615.7 -1.6109e-14 2584.35 -1.33292e-14 19345.8)
(1.12612e+06 103400 -3.94084e-15 12969.7 -1.72632e-14 282631)
(-27989.4 76961 1.30655e-14 -1766.04 -9.78379e-14 -7382.93)
(19437.6 81215.9 -3.45521e-14 2495.43 -1.48333e-13 5442.03)
(-368708 34261.2 -9.0708e-14 -435.891 -6.59009e-14 -91592)
(21283.8 82210.6 1.22718e-13 1813.94 -1.45963e-13 5731.01)
(1.20719e+06 60434 -1.44749e-14 6432.56 -6.20079e-14 301125)
(-43797.8 79525.9 0 -1905.89 0 -11340)
(97228.2 74743.9 -4.2332e-14 5704.05 7.88639e-14 25539.6)
(-1.22255e+06 42506.8 -7.52304e-14 -6156.57 -3.49723e-14 -304868)
(-1.3327e+06 42155.4 5.39019e-14 -6536.84 -3.09348e-14 -332291)
(603373 57014 -3.10874e-14 -1184.85 -1.03505e-13 149415)
(-1.44367e+06 42653.9 -1.0281e-14 -5554.69 -5.47574e-14 -359581)
(396687 56462.9 2.65533e-13 1214.9 -8.28402e-14 98727.6)
(2.05312e+06 51147.7 0 -7354.68 0 507596)
(887332 117731 -1.5556e-14 -3451.84 8.15189e-15 219309)
(1.05718e+06 43681.6 -2.7452e-14 -11533.7 -1.90809e-14 259445)
(-102075 82251.1 -1.05269e-13 208.73 -6.48644e-14 -25275)
(234558 78889.1 0 2362.06 0 58784.8)
(-833354 47208.9 -5.09141e-15 2550.8 5.40159e-14 -206139)
(-583986 44405.8 1.76502e-13 3482.94 2.06839e-14 -144035)
(-11984.6 80479 9.89736e-14 823.972 6.1632e-14 -2769.17)
(43220.1 129375 -2.16255e-15 8145.9 1.88538e-14 12744.9)
(-2.35987e+06 5341.8 -3.32205e-15 -12204.8 -5.18553e-15 -588560)
(1.85364e+06 -82111.6 4.44677e-15 -84912.5 7.87251e-15 438856)
(-63184.8 21146.6 8.52085e-14 1862.35 3.16457e-14 -15215.4)
(-523982 93663.1 6.35854e-15 -5700.04 -5.28142e-14 -131425)
(420077 59764.3 -5.37837e-14 8834.98 7.87764e-14 106422)
(-371103 98269.6 4.41011e-14 -7213.96 -7.96205e-15 -93868.2)
(1.91588e+06 21939.9 -3.89575e-14 -14700.5 -1.35045e-14 471720)
(-51023.3 84524 4.18905e-14 860.527 -6.81802e-14 -12446.4)
(-412959 76886 -2.41963e-14 -2723.32 4.16053e-14 -103139)
(329945 77128.4 7.34128e-14 3128.6 -4.18815e-14 82642.2)
(1.76843e+06 12904.2 4.26223e-15 -711.24 -2.56885e-14 438606)
(-257203 33679 -1.19856e-13 2143.61 -1.44856e-13 -63285.4)
(-859648 20959.7 8.43186e-14 4370.01 2.81168e-14 -212212)
(-608913 23998.4 2.44636e-15 3958.46 -1.48038e-13 -150101)
(-65431.5 22708.3 0 -3403.63 0 -17079.4)
(-1.03044e+06 59968.5 -1.91045e-15 10577.9 6.3241e-14 -253047)
(-22253.4 81921 -2.40109e-14 124.468 4.95749e-14 -5490.63)
(-51317.3 64306.2 -9.25e-14 -3246.2 1.0349e-13 -13538.3)
(-45091.3 62860.7 6.48748e-14 -1862.48 -3.97087e-14 -11650.2)
(-1.56085e+06 339817 -5.58141e-15 194101 5.05105e-15 -339119)
(1.89959e+06 69745.9 -1.50198e-15 -6787.67 -1.55033e-14 469644)
(-346499 51597.4 -8.91182e-14 3827.01 -6.48202e-14 -85024)
(1.85173e+06 13521.2 -3.26937e-14 3866.81 2.90953e-14 460411)
(-249923 20986.2 7.87948e-14 -99.2626 -2.58542e-13 -62035.6)
(-185289 43359.3 1.48183e-14 413.484 -1.41415e-14 -45871.3)
(-175299 56590.2 1.51289e-13 2479.36 1.51716e-13 -42880)
(-2.37841e+06 -45281.1 1.20574e-14 10279.7 5.64205e-14 -587581)
(103628 55168.3 0 8725.79 0 27877.3)
(55482.7 66371.5 -1.57281e-13 1688.81 -6.19741e-14 14185.4)
(38449.1 70820.1 5.45301e-14 1339.62 -4.30116e-16 9872.38)
(-81598.8 63199.2 3.73147e-14 -8412.11 1.05602e-13 -22333.5)
(-1.33862e+06 71642.3 -2.07979e-14 -7461.53 1.05038e-13 -333989)
(409016 51656.6 1.26918e-13 4234.78 -3.94773e-14 102536)
(-1.2327e+06 69406.5 0 -6939.49 0 -307579)
(-1.12909e+06 67981.9 -4.37503e-14 -6212.02 -4.4796e-14 -281691)
(606501 48840.8 5.81462e-14 5361.91 3.55298e-15 151816)
(-12886.8 79836.4 -2.05055e-13 -2894.61 -1.31519e-13 -3915.7)
(1.33252e+06 95479.1 0 -4240.22 0 329572)
(-109627 70083 -4.35046e-14 1864.29 -7.21326e-14 -26738.2)
(69283.1 16758.7 -2.50831e-14 4718.64 -3.64018e-14 18361.3)
(166033 70669.8 1.92474e-13 1198.06 3.44592e-15 41493.5)
(52611.3 -39675.2 -7.84766e-16 -111720 -5.8167e-16 -14666)
(-2788.72 10910.1 2.0433e-17 6552.04 -1.21538e-16 933.756)
(-53117.9 -39432.5 -4.96702e-16 111436 3.30856e-16 14469.8)
(-12903.4 81214.7 -6.37517e-14 17.3558 -9.27538e-16 -3197.3)
(-699881 52928 -1.56357e-14 -2700.36 6.23794e-14 -174325)
(49310.6 38362.4 3.50377e-14 -113.79 -9.80122e-14 12206.7)
(762510 59628.5 -7.5749e-14 -7089.2 -1.04799e-13 187435)
(-1.2635e+06 108134 5.08648e-15 -373.449 1.03525e-14 -313592)
(-414786 73839.1 -3.14094e-15 6564.77 9.91898e-15 -101288)
(-1499.06 86503.2 -9.83782e-15 -774.506 -4.89478e-14 -564.119)
(328423 98667.3 -2.03332e-14 2487.83 -3.51654e-14 82105.6)
(-156310 71828.8 -6.02225e-14 -548.972 1.32782e-13 -38919.9)
(-109566 75163.4 -2.04053e-13 -780.793 -9.84091e-14 -27379.2)
(1.88645e+06 20922.5 1.14806e-14 4773.49 2.39403e-14 469250)
(1.24219e+06 59387 1.87e-14 4346.86 3.80236e-15 309291)
(1.3493e+06 60753.7 3.58333e-14 5112.42 4.98992e-14 336058)
(1.13826e+06 58376.4 1.31135e-13 4135.92 7.77058e-14 283451)
(-414172 53203.1 5.94699e-14 -4081.18 9.28723e-14 -103777)
(-613752 52028.3 -1.57286e-13 -4507.43 5.65441e-14 -153403)
(222006 64731.7 6.70982e-14 170.92 -3.51737e-14 55126.5)
(1.6987e+06 35481.6 1.72991e-14 -174.266 1.02026e-14 421440)
(238930 31145 -4.90049e-14 -3080.63 -1.92665e-13 58519)
(-75445.4 75539.9 -1.69935e-13 980.083 1.58896e-13 -18476.4)
(1.59094e+06 74845.8 -1.98381e-14 966.53 2.47177e-14 394983)
(-135810 103136 -5.50547e-14 31.7994 -1.48172e-14 -33689.4)
(-212381 44014.5 -3.78445e-14 3163.6 -1.59377e-14 -51911)
(66001 91622.4 1.21631e-13 -2793.8 -1.74125e-13 15683)
(94155.8 97175.2 -8.47587e-14 -1839.4 5.82965e-14 22905.6)
(-67213.6 75405 -2.46677e-14 3218.27 -3.63921e-14 -15878.6)
(-115473 66393.8 -1.54738e-13 -923.723 -1.20747e-13 -28880.5)
(-2879.98 80001.6 -1.48724e-13 -2489.71 -1.11911e-13 -1332.33)
(-35807.3 79381 -8.9162e-14 -1343.7 9.79582e-14 -9217.93)
(-7827.46 81120.3 -5.82889e-14 -2086.13 -5.55513e-14 -2459.76)
(9034.48 55858.6 2.77103e-15 38649.3 1.24116e-13 11831.3)
(-36733.8 6854.04 -4.11475e-16 -8477.06 5.89947e-14 -11217.7)
(-2.00312e+06 -322566 1.79991e-14 83033.3 -9.09726e-15 -476413)
(-1.4432e+06 72487.2 1.29778e-14 -11018.1 -1.97815e-15 -360821)
(446849 47150.5 6.71524e-14 3831.71 -6.54929e-14 111823)
(-1.33436e+06 74023.4 -5.18124e-14 1073.35 3.2538e-14 -330816)
(647440 43226 -3.02475e-14 4502.18 9.16128e-14 161760)
(-1.22611e+06 70890.9 1.977e-14 1309 1.98617e-14 -303898)
(-1.12147e+06 68850.9 -1.13978e-13 1711.12 8.70946e-14 -277835)
(371914 65951.7 6.57687e-14 -4297.52 1.83283e-13 91213)
(-1.14123e+06 30238.1 7.07735e-14 7933.32 -9.73132e-14 -281195)
(542586 68837.4 8.16072e-14 -5137.8 -6.49785e-14 133352)
(-1.04945e+06 30849 5.86103e-14 6943.11 -1.0094e-13 -258667)
(-960359 32489.4 -6.07737e-14 6857.73 -5.47136e-14 -236583)
(-538511 89966.4 4.55312e-15 16271.9 4.57131e-14 -129578)
(163972 75720.9 -3.28356e-14 -5910.56 -2.18696e-13 39218.2)
(234394 73218.5 -5.24782e-14 -7449.27 -1.51624e-13 56309.7)
(-342596 71507.3 -1.57912e-14 10958.5 9.09852e-14 -82286)
(1.38356e+06 45502 -1.00075e-13 1801.5 -3.37563e-14 343736)
(-1.42818e+06 -17774.5 9.62322e-14 -11497 2.97549e-14 -357212)
(802759 44135.1 6.77236e-14 -2813.52 -6.30775e-14 198483)
(-411363 44867.9 1.51209e-15 7339.52 8.97867e-15 -100246)
(-188067 72306 -8.51463e-14 2358.03 -7.03563e-14 -46078.1)
(-197060 60299.3 7.2868e-14 -2389.63 -6.59257e-14 -49487.5)
(20751.6 80612.2 5.53931e-14 1585.15 1.01179e-13 5542.21)
(-279745 52618.4 -1.24573e-13 -443.206 1.29185e-13 -69520.4)
(239761 63078.7 -6.53069e-14 -4538.99 -6.90054e-14 58363.4)
(162471 72089.5 -5.9853e-14 2431.92 4.61351e-14 40915.7)
(-519427 59014.8 1.01306e-13 7600.95 -6.81947e-14 -126995)
(-726933 65210.2 3.68223e-14 3091.68 8.05695e-14 -179600)
(1.47705e+06 21137 2.27507e-14 1760.06 -3.04962e-16 366922)
(-6724.41 84587.2 2.90788e-14 -481.545 -1.41442e-13 -1787.94)
(2.14677e+06 79437 -2.65255e-14 -13257.3 -1.44569e-14 529367)
(-230331 64961.1 -1.07603e-13 1133.06 7.41452e-14 -56868.5)
(1.86342e+06 51130.4 0 -19244 0 457578)
(-532311 65873.3 3.16711e-14 -5106.36 1.32198e-13 -133344)
(-581405 66041 -3.24702e-14 -5928.91 3.85227e-14 -145729)
(-630698 67542.8 -5.24577e-15 -6133.04 1.39344e-13 -158011)
(292691 72672.6 -7.97611e-14 932.299 1.96185e-14 72853.9)
(198893 74655.3 -8.50971e-14 377.767 2.10103e-14 49443.2)
(-2.33792e+06 -18006.1 2.1037e-14 -8970.22 -1.20012e-14 -582312)
(-1.45078e+06 70971.6 -2.16161e-14 -8406.29 4.07764e-14 -362054)
(508395 50874.7 -8.49413e-14 4900.59 -4.97124e-14 127359)
(705581 47614.7 2.38601e-13 5437.33 -1.28243e-13 176418)
(79390.5 80667.3 4.67028e-14 -7937.88 -1.20751e-13 17728.8)
(-415327 37182.4 0 1711.2 0 -102626)
(-421001 21045.5 1.27734e-13 -2245.24 -6.49362e-14 -105016)
(2.04664e+06 56134.4 3.44262e-14 -14543 2.29659e-14 504204)
(2.09513e+06 -12049.4 2.85333e-14 13134.7 2.52205e-14 523104)
(1.09867e+06 25086.6 1.73304e-15 -980.645 6.02844e-14 272359)
(1.00781e+06 26902.5 1.22928e-14 -465.38 1.46332e-13 249943)
(1.19234e+06 22901.1 3.11619e-14 -2048.03 -4.50409e-14 295335)
(-518217 70547.4 -7.70466e-14 4432.18 6.93261e-14 -127480)
(-344427 67018.3 -7.47523e-14 3141.84 8.19907e-14 -84679.7)
(225648 93713.7 0 1947.25 0 56471)
(153696 91346.4 -3.1099e-15 806.557 1.18853e-13 38335.1)
(492027 70620.2 -9.16045e-14 -223.158 7.49028e-14 122026)
(-207904 66836.1 -7.32544e-14 2624.64 1.73697e-13 -50933.9)
(-325894 100426 -1.45293e-14 3945.41 6.4254e-14 -79882)
(100410 73668.2 -2.72321e-13 -868.859 -7.22656e-14 24698.2)
(142937 69854.7 -1.88354e-13 -896.927 7.88116e-14 35243)
(-88325.8 83959.2 -3.67185e-14 2130.58 -5.13437e-16 -21386.8)
(-247442 56417.7 -3.04079e-14 5400.55 -1.89897e-14 -60055.5)
(-227326 57168.9 2.00864e-14 4615.2 -3.43005e-14 -55259)
(-229755 42454.9 0 -533.113 0 -57139.2)
(-110550 104026 4.18052e-16 -5079.87 -3.99033e-14 -28690.2)
(-1.05359e+06 4024.36 8.92332e-14 -6956.15 -3.90734e-14 -263144)
(1.32291e+06 54064.2 -1.15998e-13 -5907.21 -1.16735e-14 326776)
(1.63968e+06 171347 6.91691e-15 -282861 3.49753e-15 336653)
(-39097.4 71265.2 2.43178e-14 -3360.22 -5.51225e-14 -10534.6)
(249493 25384.1 8.87387e-14 2119.48 -2.02604e-13 62430)
(-2.05475e+06 -254922 1.72898e-14 167815 -1.12001e-14 -468186)
(116060 56909.3 3.79774e-15 3797.03 1.02968e-13 29739)
(317236 40042.2 7.1641e-14 1293.84 -8.22452e-14 79033.7)
(350380 43763.5 1.00032e-13 -5172.06 -4.22068e-14 85653)
(-4489.41 83671.1 7.53466e-14 -83.0467 -1.11752e-14 -1134.52)
(-5133.98 86450.4 7.94784e-14 -629.341 6.72143e-15 -1430)
(957704 33200.7 2.54012e-14 -5227.91 8.45431e-14 236329)
(793755 89855.3 3.23052e-14 6502.87 -7.79163e-15 198560)
(-721824 74560.6 0 6830.33 0 -177404)
(-617184 40790.9 -8.21725e-14 -9766.36 -5.14029e-14 -155559)
(1.99721e+06 -325802 -7.25417e-15 -85130.5 -4.9083e-15 474426)
(-610840 115795 -6.58701e-15 16807.2 7.68914e-14 -147392)
(-977903 40410.5 4.53706e-14 -2450.18 -2.67561e-14 -243245)
(-2.083e+06 -838664 -1.95253e-14 437812 7.63943e-15 -408205)
(2.48639e+06 2428.06 0 33989.2 0 625357)
(-1.82424e+06 -776835 -6.35422e-15 206690 1.96648e-15 -401347)
(318432 115720 -4.32363e-14 -42.2631 1.52551e-14 78998.9)
(-71433 68226.2 -7.68564e-15 -1334.08 1.07469e-13 -18055)
(-936396 84921.5 3.83132e-14 -7844.59 -4.21509e-14 -234285)
(-855774 84455.4 5.70851e-14 -6833.11 -7.12572e-15 -214030)
(-784188 82306.8 -6.51016e-14 -6171 2.52622e-15 -196104)
(278948 59836.9 5.70126e-14 3826.56 -1.59071e-13 70162)
(418225 56775.8 -1.43107e-13 4753.47 1.39127e-13 104950)
(41371 72870.1 -2.2497e-14 -7593.99 1.05588e-13 8380.75)
(58885 68266.6 5.32603e-14 -10105.5 6.82313e-14 12103.2)
(-135553 109593 -6.0807e-14 21883.3 1.64567e-14 -28203.7)
(-85684.5 63965.3 4.53158e-14 14907.8 -5.79645e-14 -17561.1)
(-1.14239e+06 -459812 -4.92284e-15 -28280.7 1.02856e-15 -290468)
(211505 110435 -3.45318e-14 16109 -1.22427e-13 56475.7)
(-104953 65651.9 -1.18936e-13 -8458.76 -5.43728e-14 -28139.9)
(-492874 102929 0 182.521 0 -122247)
(211276 61837.7 9.15806e-14 1408.36 -3.73956e-14 52771.3)
(-103837 88768.4 0 -448.81 0 -25875.5)
(-78007.3 71631.8 -5.78658e-14 -697.466 -9.16595e-14 -19528.2)
(735345 73773.3 8.10422e-14 4321.3 -8.47534e-14 183526)
(755520 46944.1 1.24044e-13 -100.541 5.92462e-14 187435)
(2.07962e+06 -837365 -7.30283e-15 -437970 -2.41642e-15 407327)
(1.14035e+06 -459438 8.53297e-15 28069.1 2.34073e-15 289908)
(-230686 52383.2 1.76399e-14 1740.62 2.51033e-14 -56805.9)
(-246348 53452.2 -5.35891e-14 -2776.64 -1.09587e-13 -61812.9)
(-1.31093e+06 1722.54 -5.89969e-14 -5240.81 -1.35233e-14 -326568)
(1.06216e+06 50592.2 1.33568e-13 -3896.35 -3.49015e-14 262577)
(344444 67902.6 4.4209e-15 -2756.25 2.42765e-13 84779.6)
(517461 72429.3 8.24722e-14 -3582.95 8.96761e-14 127504)
(-1.19463e+06 23491.3 -2.15977e-15 -1197.03 5.12902e-14 -296709)
(-1.1031e+06 26816.5 -5.21287e-14 -758.525 1.7238e-14 -273889)
(-1.01139e+06 28991.1 -3.469e-15 -857.737 8.09611e-14 -251159)
(-15347.6 85786.4 -1.25444e-13 -946.961 3.62846e-14 -4043)
(-1.29678e+06 25228.2 3.39017e-14 -2133.57 3.64611e-14 -322288)
(432159 67953 -8.45258e-14 -2830.36 4.14658e-14 106525)
(605581 71271.4 0 -3480.31 0 149393)
(571580 54221.1 3.22134e-14 -4196.02 7.68833e-14 140779)
(110369 71405 -1.06011e-13 1074.26 -2.80254e-13 27651.3)
(9347.53 74287.1 -9.28994e-14 -8636.21 -3.41675e-14 176.493)
(471120 40944.3 -1.18238e-13 14844.7 2.1203e-14 120578)
(-398403 56166.4 -1.01065e-14 -1159.99 -8.17688e-14 -99139.6)
(62988 76897.1 1.37691e-15 -14906.7 1.72165e-14 11929.9)
(1.82061e+06 -776254 -6.60891e-15 -207523 -1.6636e-15 400239)
(282905 78414.6 8.38851e-15 -2629.83 -1.5524e-13 69542)
(341063 76444.7 7.22658e-14 160.953 2.45786e-14 84664.5)
(-224234 75731.6 0 -144.755 0 -55673)
(-266320 84923.6 2.69636e-14 -6677.69 -7.50469e-14 -67736.3)
(785827 81932.3 0 7461.86 0 196831)
(857521 84418.4 4.7709e-14 7863.56 4.52741e-14 214719)
(929532 88128.2 -1.06837e-13 8124.3 -1.03194e-14 232651)
(-418810 53869 1.51057e-13 -5562.84 1.53444e-13 -105296)
(-282540 58551.9 7.93741e-15 -4087.49 -9.18314e-14 -71118)
(-15457.1 82085.3 8.93543e-14 -33.0835 4.75733e-14 -3843.44)
(1.87161e+06 13935.2 -1.38771e-14 -29514 -2.54092e-14 457062)
(-11900.6 94697.1 -9.65469e-14 -5809.03 3.00807e-14 -4394.12)
(23743.3 48918.2 -9.23627e-14 11324.5 -5.74944e-14 8701.03)
(41462.2 78052.8 6.94315e-14 1164.04 -1.61135e-13 10576.4)
(444861 77570.3 7.39437e-14 182.137 7.81351e-14 110424)
(-175457 5516.5 -1.229e-13 -3117.78 6.02401e-15 -44308.1)
(587775 86613 0 -3629.24 0 144938)
(1.97005e+06 -82328.7 3.19903e-16 -276300 1.28616e-16 420253)
(444109 21696.3 7.09472e-14 6478.16 1.61331e-13 111800)
(426598 33690.4 3.21546e-14 -6342.48 1.75211e-14 104274)
(-640058 73675.4 1.05688e-14 5975.19 2.2313e-14 -157329)
(-455333 69351.8 -8.23478e-14 4833.17 2.63769e-14 -111778)
(-545451 46295 -1.68372e-13 -2209.82 -2.94551e-14 -135886)
(-391028 50997 8.49914e-15 -2733.74 -8.93683e-15 -97700.4)
(1.3588e+06 21179.1 -5.89975e-15 -3554.88 1.94065e-14 336265)
(1.12491e+06 93752.2 2.44389e-15 -334.132 -4.01321e-14 279031)
(322784 85122.1 1.49047e-14 -3746.03 8.81562e-15 79159.7)
(434291 70821.4 2.79789e-14 -50.6623 4.75968e-14 107744)
(237862 84365.3 7.78355e-14 -4236.33 5.54579e-14 57967.3)
(319207 71153.5 6.97979e-14 -1962.37 -1.10474e-14 78714.9)
(-615137 51242.4 -1.28722e-14 6136.03 3.23068e-14 -151105)
(-808953 79548.9 -3.57084e-14 2035.3 6.41764e-15 -200213)
(-185760 124784 3.96718e-14 -720.09 2.83254e-14 -46269.5)
(1.3354e+06 56696.4 4.4316e-14 5260.01 3.18094e-14 332645)
(1.44811e+06 56625.8 -9.60415e-15 23456.3 4.77386e-15 365126)
(1.71828e+06 57605.6 7.79772e-15 -2232.4 4.91425e-15 425786)
(119233 79657.5 -1.51466e-13 263.416 1.83918e-13 29649.5)
(-438294 22806 -9.38518e-14 -5626.05 -4.82516e-14 -110146)
(-423691 36465.6 -1.19088e-13 4424.49 7.96508e-14 -104029)
(2.00467e+06 -7184.26 0 13206.6 0 500677)
(2.00983e+06 63013.9 0 1476.52 0 499046)
(1.19415e+06 49421.3 1.83713e-14 -1865.93 8.75776e-14 295830)
(1.1845e+06 9054.77 5.87542e-14 4991.14 -1.65e-13 295138)
(-1.23157e+06 11395 0 -9466.35 0 -307926)
(-1.20073e+06 49525.7 0 8182.24 0 -295896)
(34631.4 77690.3 -2.08719e-14 2621.3 5.97821e-14 9243.16)
(-85091 34245.4 2.23376e-13 -5087.9 -9.45462e-14 -22375.2)
(-326049 34201.3 -5.88979e-14 -3519.34 -2.17306e-14 -81772.7)
(2.6279e+06 3778.84 0 53330.1 0 665267)
(-46448.5 68469.4 -1.473e-13 -2018.54 -3.67757e-15 -12025.7)
(-54834.3 71264.7 -2.1216e-14 -4991.77 -1.18e-13 -14844.1)
(286970 91609 -7.59861e-14 -6420.84 -5.2074e-14 69609.8)
(-226820 90167.6 -1.58335e-13 -6599.83 6.63045e-14 -57916.1)
(274647 55597.2 4.59951e-14 -7698.5 -4.75708e-14 66235.3)
(-1.05191e+06 46902.3 3.25857e-14 -9454.05 -6.6362e-14 -263345)
(1.0595e+06 51268.8 -1.35204e-14 -10666.3 -8.11496e-14 260236)
(-1.78979e+06 77349.5 1.40599e-14 -11073.1 -6.01838e-14 -446830)
(-2.12767e+06 -192349 7.45692e-15 396004 -5.37111e-15 -429663)
(741801 101267 -1.1866e-14 -15550.4 1.47481e-14 180198)
(83539.7 99117.7 -7.86279e-15 -4535.79 4.42551e-14 19602.5)
(-992718 81487.7 -3.9397e-14 -4877.54 -1.10336e-13 -247524)
(834149 27865.1 -5.12626e-14 10206.4 7.39236e-14 209502)
(-578533 50146 5.6559e-14 -10135.6 7.25324e-14 -146061)
(451048 80141.8 8.49255e-14 5504.47 1.48584e-15 113280)
(83967.2 87881.8 2.36864e-14 4701.41 1.10842e-15 22000.5)
(144742 68227.1 -1.00174e-13 -983.444 1.25805e-13 35669.5)
(-287696 58988.1 6.88173e-14 -18339.4 -7.31014e-14 -75933.6)
(-465363 116405 1.13259e-15 7818.04 9.20611e-14 -113526)
(-263892 59672.6 1.06067e-14 -17020.9 -7.39245e-14 -69700.1)
(-426729 112342 6.71212e-14 7008.67 -2.45294e-14 -104141)
(105501 49260.8 -4.21566e-14 -3167.68 1.31005e-14 25391.1)
(-49817.3 96032.5 -1.11558e-15 2567.85 -8.27218e-14 -11723.6)
(-32577.5 94557.6 1.02598e-13 2421.4 8.22901e-14 -7482.35)
(-21930.8 84744.2 5.28079e-14 682.45 -1.14983e-13 -5272.15)
(1.42369e+06 40425.2 3.04421e-14 3780.92 4.71794e-15 354185)
(-14797.5 96515.8 -1.16071e-13 -6761.91 -5.15927e-14 -5349.32)
(-56358.9 70699.9 5.7336e-14 -5042.22 -1.91986e-13 -15234.9)
(1.98565e+06 -57239.2 -1.51055e-14 -102742 -1.1034e-14 467188)
(328620 57423.9 6.11159e-14 -5206.35 -7.83989e-14 80245.4)
(-762973 100122 4.0888e-14 13753.6 1.10424e-14 -185896)
(-873552 63693.7 -6.67372e-14 1950.33 -2.92032e-14 -216262)
(-867493 29338.4 0 -10224.5 0 -217779)
(1.09169e+06 17565.1 -6.01016e-14 5681.23 -2.85782e-14 272281)
(1.04547e+06 72263.9 3.65079e-15 9328.71 7.15925e-14 261718)
(-33868.8 58904 -6.7823e-14 1143.34 5.52841e-14 -8119.86)
(-25782.1 59332.3 4.92035e-14 1684.84 -2.75112e-13 -5979.03)
(-684392 107294 -2.70226e-14 7679.27 -6.64134e-16 -167906)
(-921622 76482.3 0 11464.3 0 -225828)
(651110 48375.5 1.4796e-14 7113.44 3.64323e-14 163319)
(-1.68435e+06 95633.3 6.46862e-15 -7623.03 -2.04765e-14 -419812)
(58707.1 66999.8 0 14633.8 0 18197.4)
(927994 41558.5 -3.21056e-15 -2262.79 2.22215e-14 229693)
(703677 104103 -1.7322e-15 6524.16 8.44135e-17 176215)
(-442899 84880.7 1.26128e-13 4843.06 -1.62193e-14 -108691)
(-344001 58049.2 -1.23196e-14 -2357.79 8.88716e-14 -85938.6)
(-315791 80997.9 1.95093e-14 3683.47 -7.41512e-14 -77440.1)
(-247272 61895.5 -1.10275e-15 -2458.4 4.35643e-15 -61963.2)
(-353469 39328 4.56164e-14 534.498 6.7367e-14 -87570.2)
(-297864 44732.6 -7.97935e-14 3542.14 1.60588e-14 -73027.3)
(-363313 102788 0 1205.3 0 -89846.3)
(-408445 104447 -4.02299e-14 -712.099 3.4954e-14 -101520)
(-444753 108128 -3.2854e-15 -688.045 -3.74601e-15 -110523)
(121056 67196.5 -1.964e-13 1358.71 -9.81853e-14 30373.7)
(-24263.1 80654.7 -4.35924e-14 -2385.41 8.67705e-14 -6612.03)
(874202 40425.4 -2.45839e-14 5506.52 7.00164e-14 218273)
(915129 54961.7 3.40405e-14 -6137.37 -6.61419e-14 225539)
(151517 71240.1 7.06785e-15 746.345 -4.89643e-14 37779.7)
(221721 64761.1 0 2586.92 0 55655.3)
(-482350 103971 5.03885e-14 -3170.71 -5.53898e-14 -120468)
(426428 62912.8 -9.63146e-14 4673.34 -1.21341e-15 106965)
(465641 92918.4 -4.21602e-14 5460.89 -2.6076e-15 116890)
(-170186 77415.1 -8.07176e-14 -1089.45 1.15682e-13 -42497)
(-145027 80839.4 4.70951e-14 -1979.33 2.76424e-15 -36475.1)
(-208715 84737.7 7.63216e-14 -656.629 2.71467e-14 -51949.3)
(-231761 72950.5 0 -2356.71 0 -58089.5)
(-1.01059e+06 43022 2.24385e-14 -72.4202 -3.42449e-14 -250767)
(466098 74774 -3.69573e-14 -705.546 -1.46146e-13 115473)
(331909 72834.4 -1.69298e-14 -1030.86 -2.41974e-15 82097.7)
(-110452 199425 -1.0287e-14 20945.4 -7.36311e-15 -22208.3)
(1.20862e+06 33627.5 -7.75512e-14 -8918.22 -4.64568e-14 297669)
(-1.41252e+06 10398.7 6.71577e-14 2249.59 4.01885e-14 -349916)
(-163782 184620 0 -7187.67 0 -42421)
(-167594 75418 2.82153e-14 2173.55 8.51705e-14 -41044.1)
(-141662 79580.5 -2.12227e-13 3809.87 -5.38346e-14 -34203.8)
(-244031 73860.2 9.15391e-14 1617.17 1.02434e-15 -60147.9)
(-210187 80982.5 0 3131.2 0 -51374.7)
(477169 60437 4.67184e-14 -4025.14 -7.51995e-14 117397)
(547830 84486.7 1.70563e-14 -3429.8 7.22947e-15 135077)
(444756 64210.5 -3.47398e-14 -8267.54 3.32586e-14 108302)
(518647 86985.3 3.70768e-14 -5895.71 1.02462e-13 127224)
(407551 63956.2 2.90867e-14 -7308.83 4.88063e-14 99308.1)
(475160 85000.4 -6.32011e-14 -5332.15 3.61164e-14 116574)
(375209 38130 2.87905e-14 114.091 1.08718e-13 93125.2)
(362053 22691.7 8.46589e-14 2683.84 1.81257e-13 90498.6)
(-719915 83782.5 -1.61957e-14 537.079 2.12783e-14 -178492)
(337604 79531.6 -8.76896e-14 -4348.15 -2.13131e-15 82687.5)
(-804845 60497 0 6682.67 0 -198040)
(1.39155e+06 88137.5 4.73645e-14 -11964.9 -2.97996e-14 342303)
(-702671 37488.5 8.83568e-14 2659.04 -1.45179e-13 -173687)
(-512176 42889.4 1.06701e-13 784.496 -7.17056e-14 -126887)
(-1.57193e+06 -743117 -6.04946e-15 250454 1.354e-15 -327886)
(46722.1 75675.6 1.19191e-13 252.65 -3.1298e-14 11655.4)
(1.47668e+06 49162.6 -1.58272e-14 -3551.91 -8.01729e-16 365514)
(-717678 57553.8 -2.47348e-14 2579.21 -7.17061e-14 -177431)
(-516515 55731.9 1.5459e-13 2229.34 7.60724e-14 -127605)
(2.2038e+06 -16009.9 2.57473e-14 -4762.63 1.14625e-14 545625)
(-99155.9 67437.5 -1.70946e-14 -1403.03 6.85724e-14 -24950.7)
(1.52135e+06 13303.3 3.93728e-14 4472.97 -2.44686e-14 378587)
(-357120 58630.2 5.34847e-14 1559.82 -9.42844e-14 -88221.7)
(-1.25773e+06 87319.6 3.19316e-14 12896.7 -4.15942e-15 -308867)
(-1.18223e+06 55710.6 -1.95056e-14 -7171.8 -1.48569e-15 -295114)
(1.14467e+06 57249.6 -3.69319e-14 1727.64 2.41533e-14 284443)
(-145754 78651.2 -2.33464e-13 5947.99 -1.06263e-13 -34688.6)
(-3442.06 -39911.8 2.46185e-16 -62558.8 8.74816e-17 -16376.2)
(-18084.7 72082 0 3048.9 0 -3730.69)
(-2.08612e+06 -666467 9.9349e-15 263209 -2.74124e-15 -452301)
(1.56819e+06 -742542 1.17609e-14 -252754 3.7045e-15 326387)
(-1.00433e+06 91030.8 4.12536e-14 -8443.39 -4.00139e-14 -251289)
(348105 56676.9 1.78666e-14 3141.36 6.89594e-14 87151.5)
(482882 51899.2 -5.74716e-14 4121.75 1.30812e-13 120836)
(139932 74209.2 1.1508e-13 -1366.74 3.42704e-14 34380.7)
(-261172 15572.9 6.66954e-14 151.291 -1.02558e-13 -64764.6)
(234384 96242.1 -5.54525e-14 -1481.91 5.07433e-14 57787.7)
(-119062 59062.9 1.63816e-14 839.57 2.51165e-14 -29333.3)
(-108626 105954 1.17518e-14 4359.12 3.40935e-14 -25870.7)
(-1.71077e+06 3123.09 -5.44771e-15 46284.6 1.29413e-14 -412993)
(13987.6 -23752.3 6.46058e-17 -41467.4 4.00944e-17 -6818.3)
(-590984 95634.3 -2.46185e-16 7349.27 4.64186e-15 -144812)
(464768 53491.7 4.1585e-14 -2903.02 1.28849e-13 114598)
(1.77543e+06 -343764 1.04356e-15 -46997.4 1.35506e-15 428860)
(-52837.1 58585.3 -1.06866e-14 -8978.51 -8.30752e-14 -15337.7)
(-59310.1 98557.9 8.47869e-15 -3933.68 8.1106e-14 -15692.1)
(-33755.5 86000.5 -1.45103e-15 381.711 -1.24231e-13 -8280.72)
(-87863 73886.2 -2.29839e-14 3333.51 3.13244e-14 -20973.5)
(39479.6 84758.1 3.71358e-14 -1439.15 9.59652e-14 9438.6)
(26070.1 86994.2 -8.72663e-14 -349.979 -2.84895e-14 6381.68)
(-1.77988e+06 -341793 4.45062e-15 45390.7 -1.37592e-15 -430361)
(624799 90023.6 -3.39663e-14 2226.57 1.83802e-14 155578)
(-219017 72977 -2.33597e-13 -364.048 -6.62742e-14 -54432.8)
(735613 76792.9 1.21712e-13 5368.63 -2.06013e-13 183853)
(675055 75394.1 -1.50361e-15 4750.77 -7.89999e-14 168674)
(617700 72828.5 -2.25932e-13 2559.29 3.40974e-14 153899)
(107092 42750 -1.14154e-13 4043.03 -4.27066e-14 27574.8)
(-1.44788e+06 31332.3 6.12183e-14 -3815.45 -5.94132e-14 -360196)
(456545 58228.4 1.23789e-13 -2569.98 1.33547e-14 112640)
(647534 60174.1 -5.60488e-14 -2535.08 -8.0162e-14 160037)
(-124601 72712.7 -1.97838e-13 -368.797 -3.33557e-14 -31007.6)
(925709 98579.1 1.29428e-14 -12210.5 1.87001e-14 226657)
(177543 56472 -8.0052e-14 15.2501 5.42238e-14 44055.8)
(-1.85397e+06 23218.5 -2.07296e-14 -2452.68 -7.67195e-15 -460616)
(53805.5 74522.3 -1.03235e-13 1868.1 -8.68508e-14 13813.7)
(-156698 79399.7 -2.0528e-13 1629.47 9.69366e-14 -38475.5)
(528289 61020.8 1.54651e-13 1366.94 -2.22685e-14 131418)
(484692 61067.6 1.44525e-13 924.556 3.51654e-14 120491)
(443127 59424.2 -1.0479e-13 -982.281 2.88732e-14 109705)
(964906 45136.1 1.5565e-14 100.708 3.271e-14 239438)
(211181 79139.6 -6.9282e-14 3059.59 -1.48473e-13 53157.4)
(-531663 65807 4.71728e-14 -8224.07 1.05578e-15 -133957)
(-416142 118657 2.87645e-14 3836.93 3.20743e-14 -102301)
(-233183 49268.1 0 1708.27 0 -57433.6)
(-737805 87939.2 -6.35472e-14 -8366.9 1.93445e-14 -185140)
(-806096 90365.6 -9.55885e-14 -9269.61 -6.31891e-15 -202309)
(-876795 94106.8 -9.54058e-14 -10499.2 4.59626e-14 -220156)
(417415 59486 1.96437e-15 6742.29 2.43813e-14 105242)
(285443 64625.9 3.08612e-14 4733.54 -3.86362e-14 71998.6)
(74984.2 7853.9 -8.97231e-14 3753.12 3.23655e-14 19536.3)
(147393 61985.1 0 -1813.85 0 36121)
(189502 50211.5 -1.05059e-13 1507.47 6.27049e-14 47393.4)
(2.14872e+06 -103781 -5.58385e-15 -283658 -2.69445e-15 462760)
(817332 41700.1 1.03418e-13 1027.19 -1.06127e-13 203051)
(-627450 79915.7 0 1115.21 0 -155406)
(-439798 72594.4 -5.12495e-14 8602.01 -2.25196e-15 -106989)
(353017 76657.8 2.73643e-14 -3572.11 -3.38417e-14 86704.3)
(-112633 90095.7 4.57188e-14 -2514.22 3.75075e-14 -28570.4)
(-14408.2 87998.2 1.34782e-13 -2742.59 -1.06203e-13 -4255.45)
(36865.3 63027.9 1.07474e-13 9214.36 -1.70067e-14 11433.3)
(40354.2 62791.6 -5.62255e-14 10075.2 -5.236e-14 12512.6)
(-4696.79 111661 -2.81744e-15 -3066.76 -2.30903e-14 -1926.29)
(-9770.24 58361.3 -2.51358e-14 -918.049 8.45314e-14 -2651.98)
(165.691 67675.1 -9.41625e-14 -518.056 7.01668e-14 -87.4289)
(12660.7 71483.3 8.99614e-14 -13774 -4.08666e-14 -276.243)
(156710 50469.4 -6.96022e-15 2412.23 -3.27919e-14 39481.5)
(-290857 113547 -1.63734e-15 2006.39 -1.58319e-14 -71669.7)
(92872.9 71384.8 2.25659e-13 1152.58 -4.44017e-14 23329.6)
(13513.9 110124 9.40035e-15 -17215.7 1.34064e-14 -918.489)
(-614715 111285 -2.34635e-14 -2932.25 -1.40911e-14 -153251)
(780502 51650.8 7.76092e-14 3840.96 6.92363e-14 194612)
(-335142 81252.3 -8.68382e-14 -326.088 2.8404e-14 -83236.5)
(-1.42347e+06 258017 -4.06407e-15 252227 2.43524e-15 -290610)
(-208370 47371.9 6.18436e-14 -2067.13 6.71577e-14 -52213.8)
(-341886 112466 0 3165.72 0 -84043.3)
(100863 71518.4 1.2042e-13 -128.925 -1.66335e-13 24994.2)
(156589 64889.3 6.36878e-15 -329.871 2.068e-14 38771.1)
(1.56494e+06 -345990 -1.25977e-15 50135.8 2.20512e-16 400732)
(-2.15995e+06 10054.7 -1.73095e-14 12693.1 7.9565e-15 -532777)
(672034 58690.6 3.80428e-14 4674.18 3.19657e-14 167905)
(732737 58675 -3.8572e-14 4923.24 8.39918e-14 183028)
(-222618 78740.5 -2.8571e-13 1521.29 -1.02009e-13 -54858.7)
(155488 99121.6 5.02805e-14 10252.4 9.91013e-14 41123.6)
(-34446.7 68458.1 8.03825e-14 -3230.28 1.2232e-13 -9348.43)
(-887089 -576328 -1.07752e-15 66912.9 4.53702e-16 -203502)
(-2.1025e+06 71903.9 5.67211e-15 1859.79 7.32617e-15 -521210)
(1.86593e+06 36323.1 3.08183e-14 3124.33 -1.51907e-14 463749)
(-2.70292e+06 -46270.8 -7.99803e-15 -7271.8 -3.44674e-15 -672455)
(862656 52894.5 -3.48063e-14 -6150.88 -5.41076e-14 212516)
(599259 47931.5 -5.753e-14 -4873.26 2.12164e-13 147479)