/*--------------------------------*- C++ -*----------------------------------*\
| =========                 |                                                 |
| \\      /  F ield         | OpenFOAM: The Open Source CFD Toolbox           |
|  \\    /   O peration     | Version:  2.3.1                                 |
|   \\  /    A nd           | Web:      www.OpenFOAM.org                      |
|    \\/     M anipulation  |                                                 |
\*---------------------------------------------------------------------------*/
FoamFile
{
    version     2.0;
    format      ascii;
    class       volScalarField;
    location    "0.98";
    object      k;
}
// * * * * * * * * * * * * * * * * * * * * * * * * * * * * * * * * * * * * * //

dimensions      [0 2 -2 0 0 0 0];

internalField   nonuniform List<scalar> 
1000
(
0.00214203
0.00219041
0.00219227
0.00219226
0.00219224
0.00219223
0.00219222
0.00219221
0.00219198
0.00218761
0.00219345
0.00221416
0.00221608
0.00221619
0.00221621
0.0022162
0.00221617
0.00221606
0.00221421
0.00219188
0.00220051
0.00222223
0.00222453
0.00222471
0.00222475
0.00222475
0.00222469
0.00222451
0.00222226
0.00219659
0.0022074
0.00223128
0.00223393
0.00223426
0.00223436
0.00223436
0.00223425
0.00223395
0.00223138
0.00220359
0.00221081
0.00223921
0.00224234
0.00224276
0.00224289
0.00224288
0.00224278
0.00224242
0.00223944
0.00220716
0.00219251
0.00220798
0.00220965
0.00220984
0.00220989
0.00220992
0.00220992
0.00220986
0.00220844
0.00219159
0.00221027
0.00255637
0.00258494
0.00258676
0.00258689
0.00258692
0.0025869
0.00258564
0.00255943
0.00220822
0.00221606
0.00259366
0.00262599
0.00262811
0.00262827
0.00262828
0.00262818
0.00262656
0.00259674
0.00221395
0.00222215
0.00259861
0.00263146
0.00263363
0.00263379
0.00263379
0.00263369
0.00263201
0.0026016
0.00222006
0.00222682
0.00261483
0.00265028
0.00265341
0.00265396
0.00265398
0.00265352
0.00265094
0.00261801
0.00222479
0.0021982
0.00221279
0.00221453
0.00221473
0.00221479
0.00221481
0.00221482
0.00221475
0.00221314
0.00219497
0.00221437
0.0025847
0.00261616
0.00261816
0.00261829
0.00261832
0.00261829
0.00261684
0.0025879
0.00221242
0.00221951
0.00262332
0.00265904
0.00266142
0.00266158
0.00266159
0.00266149
0.00265966
0.00262674
0.00221766
0.00222461
0.00262861
0.002665
0.00266749
0.00266768
0.00266768
0.00266755
0.00266561
0.00263199
0.00222275
0.00222995
0.00263634
0.00267428
0.00267734
0.00267774
0.00267775
0.00267742
0.00267495
0.0026398
0.00222812
0.00220081
0.00221539
0.00221711
0.00221728
0.00221734
0.00221736
0.00221737
0.00221729
0.00221566
0.00219738
0.00221663
0.00258809
0.00261967
0.00262166
0.00262177
0.00262179
0.00262176
0.00262028
0.00259108
0.00221467
0.00222122
0.00262471
0.00266046
0.00266281
0.00266296
0.00266297
0.00266288
0.00266106
0.00262805
0.00221939
0.0022256
0.00262988
0.00266629
0.0026688
0.00266898
0.00266899
0.00266885
0.0026669
0.00263324
0.00222376
0.00223105
0.00263298
0.00267008
0.0026728
0.00267307
0.00267307
0.00267286
0.0026707
0.00263635
0.00222921
0.00220225
0.00221683
0.00221853
0.00221869
0.00221874
0.00221876
0.00221876
0.00221867
0.00221703
0.00219866
0.00221796
0.00259026
0.00262189
0.00262386
0.00262398
0.00262399
0.00262395
0.00262244
0.00259312
0.00221594
0.00222222
0.00262477
0.00266037
0.00266271
0.00266285
0.00266286
0.00266277
0.00266096
0.00262804
0.00222036
0.00222625
0.00262961
0.00266579
0.00266827
0.00266846
0.00266846
0.00266833
0.00266638
0.00263292
0.00222438
0.0022316
0.00263127
0.00266767
0.00267021
0.00267042
0.00267042
0.00267026
0.00266825
0.00263455
0.00222972
0.00220246
0.00221767
0.00221942
0.00221958
0.00221964
0.00221965
0.00221965
0.00221953
0.00221783
0.00219881
0.0022183
0.00259203
0.00262375
0.00262573
0.00262583
0.00262584
0.00262578
0.00262425
0.0025948
0.00221624
0.00222258
0.00262521
0.00266077
0.00266311
0.00266326
0.00266326
0.00266317
0.00266134
0.00262843
0.00222069
0.0022267
0.00262985
0.0026659
0.00266839
0.00266858
0.00266859
0.00266844
0.00266649
0.00263311
0.00222481
0.00223211
0.00263177
0.00266788
0.0026704
0.00267061
0.00267061
0.00267045
0.00266844
0.00263499
0.0022302
0.00220153
0.00221839
0.0022203
0.00222049
0.00222054
0.00222056
0.00222053
0.00222039
0.00221853
0.00219784
0.00221766
0.00259286
0.00262465
0.00262665
0.00262677
0.00262677
0.00262671
0.00262514
0.00259561
0.00221555
0.00222239
0.00262595
0.00266154
0.00266392
0.00266407
0.00266409
0.00266397
0.00266212
0.00262914
0.00222046
0.00222713
0.00263071
0.0026668
0.00266931
0.00266953
0.00266953
0.00266938
0.00266737
0.00263395
0.00222519
0.0022331
0.00263406
0.00267039
0.00267308
0.00267335
0.00267336
0.00267313
0.00267096
0.00263726
0.00223114
0.00219938
0.00221776
0.00221981
0.00222002
0.00222009
0.0022201
0.00222006
0.00221988
0.0022179
0.00219566
0.00221594
0.00259156
0.00262318
0.00262519
0.00262531
0.00262533
0.00262524
0.00262367
0.00259427
0.00221379
0.0022214
0.00262415
0.00265946
0.00266185
0.00266203
0.00266203
0.00266191
0.00266002
0.00262729
0.00221942
0.00222715
0.00262878
0.00266452
0.00266708
0.00266731
0.00266733
0.00266713
0.00266509
0.00263192
0.00222514
0.00223421
0.00263444
0.00267079
0.00267377
0.00267417
0.00267418
0.00267382
0.00267132
0.00263755
0.00223218
0.00219589
0.00221369
0.00221559
0.00221581
0.00221587
0.00221588
0.00221583
0.00221565
0.00221378
0.00219212
0.00221175
0.00255785
0.00258607
0.00258781
0.00258792
0.00258791
0.00258785
0.00258647
0.00256015
0.00220941
0.00221798
0.00258523
0.00261635
0.00261838
0.00261851
0.00261852
0.00261841
0.00261681
0.00258786
0.00221576
0.00222484
0.00258728
0.00261851
0.00262069
0.00262087
0.00262087
0.00262072
0.00261893
0.00258986
0.00222257
0.00223387
0.00259525
0.00262741
0.00263035
0.00263077
0.00263078
0.00263036
0.00262782
0.00259778
0.00223154
0.00218802
0.00218883
0.00218896
0.002189
0.00218902
0.00218902
0.00218901
0.00218896
0.0021887
0.00218401
0.00219293
0.00220752
0.00220921
0.00220942
0.00220947
0.00220948
0.00220942
0.00220925
0.00220759
0.00218905
0.00219905
0.00221524
0.00221733
0.00221767
0.00221779
0.0022178
0.00221769
0.00221737
0.00221533
0.00219518
0.0022074
0.00222437
0.00222686
0.00222742
0.00222761
0.00222762
0.00222742
0.00222689
0.00222444
0.00220353
0.00222116
0.00224553
0.00225012
0.00225097
0.00225118
0.00225117
0.00225095
0.00225008
0.00224579
0.00221746
0.0022662
0.00242395
0.00246002
0.00245668
0.00245402
0.00245386
0.00245612
0.00245977
0.00242886
0.00226454
0.0025888
0.00424104
0.00457893
0.00450478
0.00446613
0.00446416
0.00449873
0.00457599
0.00428982
0.00261026
0.00482127
0.014045
0.0156815
0.0153482
0.0151737
0.0151651
0.015321
0.015671
0.0142574
0.00496931
0.0125924
0.0405077
0.045222
0.0449726
0.0447113
0.0446932
0.0449183
0.0452131
0.0409784
0.0130026
0.0289924
0.0943023
0.105382
0.106128
0.106008
0.105981
0.106051
0.105397
0.0951389
0.0297326
0.00224987
0.00261832
0.00265389
0.00265735
0.00265761
0.00265758
0.0026573
0.00265421
0.00262123
0.00224772
0.00229051
0.00291278
0.00300062
0.00300605
0.00300419
0.00300398
0.0030055
0.00300115
0.00292233
0.00229068
0.00259502
0.00467018
0.00502568
0.00500944
0.00499048
0.00498915
0.00500559
0.00502627
0.00471073
0.00261348
0.00521528
0.0179321
0.0195904
0.0190338
0.0187861
0.0187781
0.0190127
0.0195962
0.0181449
0.0053434
0.040012
0.152252
0.165805
0.166615
0.166497
0.166474
0.166558
0.165895
0.153346
0.0410197
0.00224299
0.00264319
0.002681
0.00268482
0.00268551
0.00268552
0.00268487
0.00268154
0.00264636
0.00224104
0.00225507
0.00266568
0.00270772
0.00271211
0.00271245
0.00271243
0.00271211
0.00270829
0.00266957
0.00225342
0.00230054
0.00303495
0.00313659
0.00315305
0.00315555
0.00315548
0.00315302
0.00313816
0.00304541
0.00230147
0.00385424
0.0106834
0.0114501
0.0114435
0.0114216
0.0114202
0.0114412
0.0114614
0.0107842
0.00392157
0.0412407
0.157132
0.167781
0.168109
0.167947
0.167939
0.168099
0.167951
0.158268
0.0422642
0.00223809
0.00264206
0.00267983
0.00268324
0.00268383
0.00268384
0.00268331
0.00268043
0.00264534
0.00223618
0.00224803
0.00263572
0.00267209
0.00267475
0.00267489
0.00267489
0.00267478
0.00267263
0.00263902
0.00224625
0.00227117
0.00279467
0.00284591
0.00285179
0.0028531
0.00285315
0.00285201
0.00284706
0.00280052
0.00227082
0.00369132
0.0101983
0.0108437
0.0108925
0.0108958
0.0108956
0.0108937
0.0108587
0.0102909
0.00375151
0.0441814
0.166486
0.177067
0.177792
0.177791
0.177791
0.177813
0.177295
0.167699
0.0453049
0.00223516
0.0026402
0.00267793
0.00268121
0.00268175
0.00268176
0.00268129
0.00267856
0.00264355
0.00223328
0.00224511
0.0026299
0.0026658
0.00266813
0.00266822
0.00266821
0.00266817
0.00266635
0.00263314
0.00224333
0.00226314
0.00275633
0.00280559
0.00281088
0.00281199
0.00281203
0.00281108
0.00280667
0.00276179
0.00226261
0.00398792
0.0108632
0.0115572
0.0117258
0.011782
0.011783
0.0117332
0.0115816
0.0109622
0.00406498
0.0454169
0.168305
0.178684
0.179511
0.179558
0.179561
0.179544
0.178932
0.169521
0.0465736
0.0022346
0.00264231
0.00268083
0.00268426
0.00268486
0.00268487
0.00268435
0.00268151
0.00264576
0.00223274
0.00224529
0.00262901
0.00266661
0.00266916
0.00266926
0.00266926
0.00266921
0.0026672
0.00263236
0.00224353
0.00226884
0.00277441
0.00282815
0.00283615
0.00283817
0.00283822
0.00283641
0.00282939
0.00278007
0.00226855
0.00490313
0.0111591
0.011912
0.0122309
0.0123629
0.0123661
0.0122456
0.0119415
0.0112494
0.00500807
0.0457452
0.164145
0.173778
0.174659
0.17476
0.174765
0.174705
0.174033
0.165282
0.0468908
0.00223588
0.00264865
0.00268837
0.00269207
0.00269276
0.00269277
0.00269218
0.0026891
0.00265224
0.00223408
0.00224692
0.00263466
0.00267588
0.00267939
0.00267968
0.00267969
0.00267947
0.00267659
0.00263826
0.00224518
0.00228591
0.00284036
0.00290056
0.00291203
0.00291541
0.00291549
0.00291245
0.00290206
0.0028466
0.00228608
0.00557145
0.0103075
0.0110441
0.0112723
0.0113624
0.0113645
0.0112822
0.0110686
0.0103887
0.00566974
0.0448466
0.151138
0.159182
0.160133
0.160348
0.160358
0.160194
0.159417
0.152073
0.0458802
0.00223916
0.00265384
0.00269424
0.00269799
0.00269867
0.00269869
0.00269812
0.00269502
0.00265752
0.00223741
0.00224787
0.0026646
0.00271381
0.00272006
0.00272115
0.00272117
0.00272023
0.00271475
0.00266884
0.00224611
0.00230354
0.00296821
0.00303858
0.00305289
0.00305722
0.00305734
0.00305337
0.00304035
0.00297505
0.00230341
0.00462251
0.0087553
0.00936664
0.00949884
0.00954536
0.00954608
0.00950381
0.00938272
0.0088184
0.00467225
0.0405685
0.125
0.130902
0.131735
0.131988
0.131998
0.131791
0.131088
0.125664
0.0413295
0.00224283
0.00262759
0.00266458
0.00266771
0.00266818
0.0026682
0.00266782
0.00266528
0.00263089
0.00224095
0.00224485
0.00272227
0.0027815
0.00279177
0.00279421
0.00279427
0.00279206
0.00278275
0.00272715
0.00224294
0.00231957
0.00308063
0.00315617
0.00317034
0.00317442
0.00317452
0.00317076
0.00315783
0.00308699
0.00231912
0.00360633
0.00681372
0.00730444
0.00736139
0.00737471
0.00737451
0.0073626
0.00731315
0.00685676
0.00364127
0.0298288
0.0846394
0.0882873
0.0888694
0.089062
0.0890688
0.0889063
0.088402
0.0850357
0.0302527
0.00223125
0.0022651
0.00226958
0.00227054
0.00227092
0.00227095
0.00227059
0.00226975
0.00226554
0.00222764
0.00221834
0.00227545
0.00228298
0.00228417
0.00228451
0.00228454
0.00228428
0.00228326
0.00227611
0.00221471
0.00231815
0.00240604
0.00241813
0.00242116
0.00242215
0.00242217
0.0024213
0.00241843
0.0024072
0.00231531
0.00274313
0.00355343
0.00370297
0.00372544
0.00373111
0.00373104
0.0037258
0.00370573
0.00356709
0.0027525
0.0127749
0.0231912
0.0240608
0.0242946
0.0243662
0.0243683
0.024305
0.024091
0.0232929
0.0128902
)
;

boundaryField
{
    walls
    {
        type            kqRWallFunction;
        value           nonuniform List<scalar> 
500
(
0.00214203
0.00214203
0.00214203
0.00219041
0.00219041
0.00219227
0.00219227
0.00219226
0.00219226
0.00219224
0.00219224
0.00219223
0.00219223
0.00219222
0.00219222
0.00219221
0.00219221
0.00219198
0.00219198
0.00218761
0.00218761
0.00218761
0.00219345
0.00219345
0.00221416
0.00221608
0.00221619
0.00221621
0.0022162
0.00221617
0.00221606
0.00221421
0.00219188
0.00219188
0.00220051
0.00220051
0.00222223
0.00222453
0.00222471
0.00222475
0.00222475
0.00222469
0.00222451
0.00222226
0.00219659
0.00219659
0.0022074
0.0022074
0.00223128
0.00223393
0.00223426
0.00223436
0.00223436
0.00223425
0.00223395
0.00223138
0.00220359
0.00220359
0.00221081
0.00221081
0.00223921
0.00224234
0.00224276
0.00224289
0.00224288
0.00224278
0.00224242
0.00223944
0.00220716
0.00220716
0.00219251
0.00219251
0.00220798
0.00220965
0.00220984
0.00220989
0.00220992
0.00220992
0.00220986
0.00220844
0.00219159
0.00219159
0.00221027
0.00220822
0.00221606
0.00221395
0.00222215
0.00222006
0.00222682
0.00222479
0.0021982
0.0021982
0.00221279
0.00221453
0.00221473
0.00221479
0.00221481
0.00221482
0.00221475
0.00221314
0.00219497
0.00219497
0.00221437
0.00221242
0.00221951
0.00221766
0.00222461
0.00222275
0.00222995
0.00222812
0.00220081
0.00220081
0.00221539
0.00221711
0.00221728
0.00221734
0.00221736
0.00221737
0.00221729
0.00221566
0.00219738
0.00219738
0.00221663
0.00221467
0.00222122
0.00221939
0.0022256
0.00222376
0.00223105
0.00222921
0.00220225
0.00220225
0.00221683
0.00221853
0.00221869
0.00221874
0.00221876
0.00221876
0.00221867
0.00221703
0.00219866
0.00219866
0.00221796
0.00221594
0.00222222
0.00222036
0.00222625
0.00222438
0.0022316
0.00222972
0.00220246
0.00220246
0.00221767
0.00221942
0.00221958
0.00221964
0.00221965
0.00221965
0.00221953
0.00221783
0.00219881
0.00219881
0.0022183
0.00221624
0.00222258
0.00222069
0.0022267
0.00222481
0.00223211
0.0022302
0.00220153
0.00220153
0.00221839
0.0022203
0.00222049
0.00222054
0.00222056
0.00222053
0.00222039
0.00221853
0.00219784
0.00219784
0.00221766
0.00221555
0.00222239
0.00222046
0.00222713
0.00222519
0.0022331
0.00223114
0.00219938
0.00219938
0.00221776
0.00221981
0.00222002
0.00222009
0.0022201
0.00222006
0.00221988
0.0022179
0.00219566
0.00219566
0.00221594
0.00221379
0.0022214
0.00221942
0.00222715
0.00222514
0.00223421
0.00223218
0.00219589
0.00219589
0.00221369
0.00221559
0.00221581
0.00221587
0.00221588
0.00221583
0.00221565
0.00221378
0.00219212
0.00219212
0.00221175
0.00220941
0.00221798
0.00221576
0.00222484
0.00222257
0.00223387
0.00223154
0.00218802
0.00218802
0.00218802
0.00218883
0.00218883
0.00218896
0.00218896
0.002189
0.002189
0.00218902
0.00218902
0.00218902
0.00218902
0.00218901
0.00218901
0.00218896
0.00218896
0.0021887
0.0021887
0.00218401
0.00218401
0.00218401
0.00219293
0.00219293
0.00220752
0.00220921
0.00220942
0.00220947
0.00220948
0.00220942
0.00220925
0.00220759
0.00218905
0.00218905
0.00219905
0.00219905
0.00221524
0.00221733
0.00221767
0.00221779
0.0022178
0.00221769
0.00221737
0.00221533
0.00219518
0.00219518
0.0022074
0.0022074
0.00222437
0.00222686
0.00222742
0.00222761
0.00222762
0.00222742
0.00222689
0.00222444
0.00220353
0.00220353
0.00222116
0.00222116
0.00224553
0.00225012
0.00225097
0.00225118
0.00225117
0.00225095
0.00225008
0.00224579
0.00221746
0.00221746
0.0022662
0.0022662
0.00242395
0.00246002
0.00245668
0.00245402
0.00245386
0.00245612
0.00245977
0.00242886
0.00226454
0.00226454
0.0025888
0.0025888
0.00424104
0.00457893
0.00450478
0.00446613
0.00446416
0.00449873
0.00457599
0.00428982
0.00261026
0.00261026
0.00482127
0.00482127
0.014045
0.0156815
0.0153482
0.0151737
0.0151651
0.015321
0.015671
0.0142574
0.00496931
0.00496931
0.0125924
0.0125924
0.0405077
0.045222
0.0449726
0.0447113
0.0446932
0.0449183
0.0452131
0.0409784
0.0130026
0.0130026
0.0289924
0.0289924
0.0943023
0.105382
0.106128
0.106008
0.105981
0.106051
0.105397
0.0951389
0.0297326
0.0297326
0.00224987
0.00224772
0.00229051
0.00229068
0.00259502
0.00261348
0.00521528
0.0053434
0.040012
0.0410197
0.00224299
0.00224104
0.00225507
0.00225342
0.00230054
0.00230147
0.00385424
0.00392157
0.0412407
0.0422642
0.00223809
0.00223618
0.00224803
0.00224625
0.00227117
0.00227082
0.00369132
0.00375151
0.0441814
0.0453049
0.00223516
0.00223328
0.00224511
0.00224333
0.00226314
0.00226261
0.00398792
0.00406498
0.0454169
0.0465736
0.0022346
0.00223274
0.00224529
0.00224353
0.00226884
0.00226855
0.00490313
0.00500807
0.0457452
0.0468908
0.00223588
0.00223408
0.00224692
0.00224518
0.00228591
0.00228608
0.00557145
0.00566974
0.0448466
0.0458802
0.00223916
0.00223741
0.00224787
0.00224611
0.00230354
0.00230341
0.00462251
0.00467225
0.0405685
0.0413295
0.00224283
0.00224095
0.00224485
0.00224294
0.00231957
0.00231912
0.00360633
0.00364127
0.0298288
0.0302527
0.00223125
0.00223125
0.0022651
0.00226958
0.00227054
0.00227092
0.00227095
0.00227059
0.00226975
0.00226554
0.00222764
0.00222764
0.00221834
0.00221834
0.00227545
0.00228298
0.00228417
0.00228451
0.00228454
0.00228428
0.00228326
0.00227611
0.00221471
0.00221471
0.00231815
0.00231815
0.00240604
0.00241813
0.00242116
0.00242215
0.00242217
0.0024213
0.00241843
0.0024072
0.00231531
0.00231531
0.00274313
0.00274313
0.00355343
0.00370297
0.00372544
0.00373111
0.00373104
0.0037258
0.00370573
0.00356709
0.0027525
0.0027525
0.0127749
0.0127749
0.0231912
0.0240608
0.0242946
0.0243662
0.0243683
0.024305
0.024091
0.0232929
0.0128902
0.0128902
)
;
    }
    lid
    {
        type            kqRWallFunction;
        value           nonuniform List<scalar> 
100
(
0.0289924
0.0943023
0.105382
0.106128
0.106008
0.105981
0.106051
0.105397
0.0951389
0.0297326
0.040012
0.152252
0.165805
0.166615
0.166497
0.166474
0.166558
0.165895
0.153346
0.0410197
0.0412407
0.157132
0.167781
0.168109
0.167947
0.167939
0.168099
0.167951
0.158268
0.0422642
0.0441814
0.166486
0.177067
0.177792
0.177791
0.177791
0.177813
0.177295
0.167699
0.0453049
0.0454169
0.168305
0.178684
0.179511
0.179558
0.179561
0.179544
0.178932
0.169521
0.0465736
0.0457452
0.164145
0.173778
0.174659
0.17476
0.174765
0.174705
0.174033
0.165282
0.0468908
0.0448466
0.151138
0.159182
0.160133
0.160348
0.160358
0.160194
0.159417
0.152073
0.0458802
0.0405685
0.125
0.130902
0.131735
0.131988
0.131998
0.131791
0.131088
0.125664
0.0413295
0.0298288
0.0846394
0.0882873
0.0888694
0.089062
0.0890688
0.0889063
0.088402
0.0850357
0.0302527
0.0127749
0.0231912
0.0240608
0.0242946
0.0243662
0.0243683
0.024305
0.024091
0.0232929
0.0128902
)
;
    }
}


// ************************************************************************* //
