/*--------------------------------*- C++ -*----------------------------------*\
| =========                 |                                                 |
| \\      /  F ield         | OpenFOAM: The Open Source CFD Toolbox           |
|  \\    /   O peration     | Version:  2.3.1                                 |
|   \\  /    A nd           | Web:      www.OpenFOAM.org                      |
|    \\/     M anipulation  |                                                 |
\*---------------------------------------------------------------------------*/
FoamFile
{
    version     2.0;
    format      ascii;
    class       volScalarField;
    location    "0.08";
    object      k;
}
// * * * * * * * * * * * * * * * * * * * * * * * * * * * * * * * * * * * * * //

dimensions      [0 2 -2 0 0 0 0];

internalField   nonuniform List<scalar> 
9648
(
2.14064
2.12069
2.09457
2.06658
2.03684
2.00538
1.97234
1.93791
1.90239
1.8661
1.82938
1.79257
1.75606
1.72015
1.68518
1.65141
1.61909
1.5884
1.55951
1.53252
1.50748
1.48446
1.46346
1.44445
1.42742
1.41231
1.39906
1.3876
1.37786
1.36976
1.36322
1.35818
1.35456
1.35229
1.35131
1.35155
1.35297
1.35549
1.35908
1.36369
1.36928
1.37581
1.38324
1.39154
1.40069
1.41063
1.42136
1.43287
1.44512
1.45809
1.47178
1.48616
1.50123
1.51694
1.5333
1.55026
1.56776
1.58572
1.60409
1.62288
1.64204
1.43962
1.43438
1.43036
1.43007
1.43405
1.44273
1.456
1.47354
1.4949
1.51965
1.54734
1.57755
1.60989
1.644
1.6796
1.71643
1.75431
1.79307
1.83257
1.87274
1.91349
1.95475
1.9965
2.0387
2.08128
2.12425
2.16759
2.21127
2.25525
2.29949
2.34402
2.38878
2.43373
2.4789
2.52424
2.56972
2.61534
2.66112
2.707
2.7529
2.79884
2.84487
2.89093
2.937
2.98312
3.02903
3.07471
3.12025
3.16567
3.21078
3.25557
3.30006
3.34427
3.3879
3.43119
3.47396
3.51644
3.55812
3.59928
3.63999
3.68032
1.59954
1.61196
1.62954
1.65227
1.6805
1.71435
1.75324
1.79695
1.84476
1.89637
1.95085
2.00781
2.06669
2.127
2.18829
2.25022
2.31252
2.37495
2.43733
2.49953
2.56145
2.62304
2.6842
2.74492
2.80518
2.86497
2.92429
2.98309
3.04138
3.09914
3.15635
3.21303
3.2692
3.32481
3.37986
3.43438
3.48834
3.54176
3.59462
3.64688
3.69856
3.74961
3.80005
3.84985
3.89899
3.94748
3.9953
4.04252
4.08905
4.13491
4.18005
4.2245
4.26842
4.31126
4.3538
4.39521
4.43611
4.47563
4.51484
4.55342
4.59156
1.85055
1.87296
1.90267
1.93849
1.98025
2.02773
2.08049
2.13804
2.19972
2.26506
2.33318
2.40351
2.47528
2.54807
2.62129
2.69455
2.76753
2.83998
2.91172
2.98263
3.05262
3.12159
3.18953
3.25646
3.32239
3.38732
3.45128
3.51428
3.57632
3.6374
3.69759
3.75691
3.81537
3.87302
3.92983
3.98585
4.04109
4.09556
4.14927
4.20223
4.25447
4.30601
4.35685
4.40703
4.45652
4.50534
4.55347
4.60091
4.64762
4.69357
4.73886
4.78322
4.82685
4.8696
4.91187
4.95326
4.9938
5.03345
5.07225
5.11017
5.14703
2.13807
2.16749
2.20559
2.2506
2.30174
2.35869
2.421
2.48796
2.5591
2.6337
2.71093
2.79001
2.87031
2.95125
3.03218
3.1126
3.19216
3.27063
3.34781
3.42363
3.49795
3.57073
3.64194
3.71161
3.77982
3.84664
3.91207
3.97615
4.03887
4.10029
4.16045
4.21944
4.27733
4.3341
4.38977
4.44443
4.49809
4.55073
4.60239
4.65309
4.70288
4.75179
4.79988
4.84714
4.89361
4.93926
4.98409
5.0281
5.07131
5.11358
5.15504
5.19559
5.23512
5.27369
5.31142
5.34837
5.3843
5.41926
5.45319
5.48599
5.51764
2.43487
2.46784
2.51102
2.56203
2.61942
2.68258
2.751
2.82412
2.90121
2.98157
3.06433
3.14863
3.23389
3.31937
3.40454
3.48872
3.57138
3.65245
3.73165
3.80901
3.8844
3.95767
4.02891
4.09808
4.16542
4.23101
4.2949
4.35713
4.41761
4.47643
4.53375
4.5896
4.64417
4.69743
4.74934
4.80005
4.84964
4.89803
4.94525
4.99133
5.0363
5.08027
5.12332
5.16546
5.20666
5.247
5.28649
5.32495
5.36251
5.3991
5.43468
5.46927
5.5028
5.53517
5.5666
5.59707
5.6266
5.6551
5.6824
5.70841
5.7334
2.73904
2.77212
2.81734
2.87127
2.93181
2.99825
3.06974
3.14572
3.22565
3.30839
3.39346
3.47968
3.56661
3.65345
3.73991
3.82469
3.90738
3.988
4.06613
4.1421
4.21572
4.28658
4.35503
4.42078
4.48445
4.54613
4.60582
4.66374
4.71942
4.77312
4.82507
4.87524
4.9241
4.9715
5.01719
5.06158
5.10491
5.14675
5.18733
5.2266
5.26452
5.30135
5.33721
5.37211
5.40582
5.43863
5.47055
5.50145
5.53138
5.56019
5.58796
5.61464
5.64019
5.66438
5.68742
5.70971
5.73113
5.75146
5.77037
5.78785
5.80433
3.04996
3.07929
3.12329
3.17722
3.23794
3.30433
3.37584
3.45177
3.53135
3.61328
3.69734
3.782
3.86732
3.9521
4.03697
4.11933
4.19911
4.27635
4.35009
4.4216
4.49062
4.55607
4.6191
4.67826
4.73523
4.79
4.84268
4.89374
4.94193
4.98791
5.0319
5.07357
5.11413
5.15307
5.18984
5.22543
5.25988
5.29253
5.32402
5.35398
5.38235
5.4093
5.43548
5.46058
5.48429
5.50739
5.52928
5.55037
5.57031
5.58918
5.6069
5.62361
5.63931
5.65328
5.66606
5.67834
5.68961
5.7005
5.7095
5.71668
5.72339
3.36828
3.38897
3.42833
3.47852
3.53757
3.59994
3.66808
3.74199
3.81718
3.89548
3.97477
4.05528
4.13544
4.21415
4.2943
4.37132
4.44578
4.51707
4.58478
4.64898
4.70967
4.7671
4.82101
4.87136
4.91843
4.96218
5.00502
5.04606
5.08371
5.11989
5.15283
5.1834
5.21294
5.24011
5.26469
5.28906
5.3106
5.33124
5.35107
5.36784
5.38298
5.39528
5.40923
5.42082
5.43222
5.44379
5.45213
5.46096
5.46724
5.47263
5.47646
5.47969
5.48273
5.48489
5.48623
5.48638
5.48417
5.48583
5.48337
5.47853
5.4746
1.66152
1.68134
1.70174
1.72287
1.74496
1.7675
1.78982
1.81263
1.83581
1.85958
1.88373
1.90864
1.93421
1.96037
1.98703
2.01437
2.04234
2.07078
2.09965
2.12914
2.15913
2.18963
2.22078
2.25244
2.28442
2.31688
2.34991
2.38351
2.41759
2.4522
2.48743
2.5232
2.55955
2.59658
2.63426
2.67256
2.71158
2.75138
2.79192
2.83315
2.87515
2.91799
2.96165
3.00608
3.05136
3.09735
3.14403
3.1915
3.23976
3.28869
3.33829
3.3886
3.43966
3.49129
3.54373
3.59694
3.65119
3.70642
3.76301
3.82119
3.88114
3.72017
3.75837
3.79584
3.83255
3.86825
3.90315
3.93665
3.96961
4.00145
4.03299
4.06343
4.09309
4.12181
4.14958
4.17638
4.20216
4.22704
4.25099
4.27406
4.29626
4.31768
4.33836
4.35811
4.37683
4.39446
4.41106
4.42662
4.4411
4.45454
4.46691
4.47822
4.48848
4.49774
4.50596
4.51318
4.51943
4.52467
4.52896
4.53227
4.53461
4.53601
4.53648
4.53608
4.53473
4.53238
4.52894
4.52426
4.51835
4.51109
4.50245
4.49231
4.48055
4.46722
4.45184
4.43496
4.41603
4.39566
4.37361
4.3511
4.32841
4.30621
4.62873
4.66529
4.70074
4.73519
4.76838
4.80044
4.83122
4.86091
4.88953
4.9176
4.9447
4.97089
4.99594
5.02008
5.04318
5.06526
5.08634
5.10643
5.12553
5.14361
5.16075
5.17694
5.19222
5.20662
5.22009
5.23258
5.2441
5.2546
5.26411
5.27258
5.28004
5.28644
5.29178
5.29613
5.29944
5.30173
5.30297
5.30316
5.30228
5.30036
5.29744
5.29357
5.28877
5.28305
5.27633
5.26851
5.2594
5.2489
5.23691
5.22337
5.20815
5.19095
5.1718
5.15042
5.12688
5.10079
5.0724
5.04202
5.01043
4.97813
4.94584
5.18311
5.21819
5.25234
5.28532
5.31712
5.34777
5.37716
5.40531
5.43243
5.45845
5.4833
5.507
5.52962
5.55122
5.5717
5.59113
5.60948
5.62672
5.64283
5.65782
5.67173
5.6846
5.69645
5.70735
5.71727
5.72618
5.73407
5.74092
5.74678
5.75161
5.7554
5.75809
5.75969
5.76023
5.75977
5.75827
5.75569
5.75199
5.74715
5.74122
5.7343
5.72644
5.71778
5.70838
5.69821
5.68719
5.67504
5.66169
5.647
5.63095
5.61329
5.5938
5.57243
5.54891
5.52308
5.49455
5.4635
5.43018
5.3954
5.35958
5.32371
5.5481
5.57742
5.60551
5.63245
5.65844
5.6836
5.70787
5.7311
5.75318
5.77417
5.79405
5.81288
5.83067
5.84737
5.86301
5.87764
5.89117
5.90358
5.91482
5.92489
5.93387
5.94184
5.94888
5.95505
5.9603
5.9646
5.96797
5.97039
5.97195
5.97266
5.97248
5.97126
5.96902
5.96579
5.96169
5.95663
5.95053
5.94335
5.93498
5.9255
5.91505
5.90369
5.89167
5.87915
5.86622
5.85284
5.83856
5.82343
5.80723
5.79011
5.77155
5.7513
5.72944
5.70556
5.67946
5.65042
5.61882
5.58459
5.54876
5.51159
5.4742
5.75723
5.77993
5.8014
5.82164
5.84069
5.85882
5.87614
5.89256
5.90792
5.92217
5.93543
5.94774
5.95903
5.96922
5.97834
5.98654
5.99378
5.99989
6.00476
6.00834
6.01079
6.01225
6.01287
6.01277
6.01185
6.01004
6.00737
6.00383
5.99969
5.99502
5.98982
5.98372
5.97681
5.969
5.96061
5.9514
5.94116
5.92995
5.91755
5.90404
5.88956
5.8741
5.85806
5.8418
5.82552
5.80946
5.79271
5.7757
5.75797
5.74014
5.72117
5.70053
5.6788
5.65522
5.62983
5.60111
5.56998
5.53577
5.50028
5.46295
5.42523
5.81974
5.83401
5.84703
5.85871
5.86937
5.87919
5.88829
5.89678
5.90424
5.91049
5.9159
5.92057
5.92429
5.9269
5.92833
5.92908
5.92919
5.92823
5.92596
5.92208
5.91697
5.91096
5.90409
5.89676
5.88873
5.87982
5.87012
5.85934
5.84825
5.83707
5.82624
5.81463
5.80278
5.79013
5.77755
5.7643
5.74971
5.73428
5.71777
5.70024
5.6817
5.66189
5.64142
5.62093
5.60069
5.58175
5.56187
5.5428
5.52323
5.50522
5.48653
5.46576
5.44468
5.42185
5.39807
5.36993
5.34019
5.30663
5.27289
5.23653
5.19998
5.72895
5.73356
5.73685
5.73911
5.7405
5.74144
5.74171
5.74203
5.74164
5.7396
5.73691
5.73392
5.73018
5.72526
5.71838
5.71115
5.70423
5.69657
5.68791
5.67649
5.66338
5.64998
5.6354
5.62039
5.60515
5.58904
5.57242
5.55344
5.53396
5.5149
5.49819
5.48051
5.46407
5.44687
5.43148
5.41585
5.3974
5.37738
5.35701
5.33653
5.31472
5.29093
5.26628
5.24149
5.21692
5.19547
5.17169
5.15042
5.12825
5.11099
5.09383
5.07311
5.0532
5.0317
5.01062
4.98298
4.95536
4.92272
4.89243
4.85837
4.82517
5.46858
5.46243
5.45449
5.4471
5.43825
5.43186
5.42371
5.41662
5.40961
5.40199
5.39361
5.38489
5.37603
5.3668
5.35195
5.33581
5.32196
5.30942
5.29917
5.28365
5.26192
5.24358
5.22328
5.20104
5.17852
5.15596
5.13653
5.11101
5.08121
5.05217
5.02975
5.00452
4.98375
4.96185
4.94788
4.93446
4.91465
4.88924
4.86503
4.84377
4.82185
4.79539
4.76684
4.73899
4.71064
4.68825
4.6589
4.63541
4.60831
4.59416
4.58037
4.5593
4.54159
4.52285
4.50618
4.47845
4.45329
4.42086
4.39591
4.36562
4.33867
3.94299
4.00664
4.07198
4.13868
4.20643
4.27565
4.34519
4.41561
4.48991
4.58295
4.6623
4.74331
4.8254
4.90868
4.99322
5.07899
5.16598
5.25402
5.34299
5.43278
5.5232
5.61413
5.70547
5.79711
5.88877
5.98022
6.07131
6.16188
6.2517
6.3404
6.42788
6.51382
6.59778
6.67956
6.75885
6.83522
6.908
6.97511
7.03277
7.0769
7.10849
7.12792
7.13508
7.12947
7.11033
7.07664
7.027
6.95971
6.87277
6.76389
6.63026
6.46856
6.275
6.04516
5.77382
5.45439
5.08464
4.43969
4.04658
3.8898
3.85389
4.28474
4.2647
4.24568
4.22728
4.20873
4.19176
4.16679
4.13798
4.1114
4.07983
4.05286
4.02597
3.99959
3.97387
3.94848
3.9231
3.89727
3.87077
3.8435
3.81549
3.78682
3.75742
3.72733
3.69664
3.66539
3.63367
3.60156
3.56924
3.53677
3.50429
3.47195
3.43988
3.40821
3.37714
3.34689
3.31779
3.2903
3.26466
3.24213
3.22326
3.20621
3.19101
3.17793
3.16733
3.1599
3.15628
3.15715
3.16353
3.17664
3.19754
3.22737
3.26725
3.31841
3.38142
3.45705
3.54755
3.64259
3.76623
3.93911
4.20796
4.61757
4.91428
4.88418
4.85524
4.82651
4.79699
4.76367
4.72075
4.67864
4.63946
4.60169
4.56583
4.52981
4.49346
4.45701
4.42021
4.38274
4.34415
4.30434
4.26328
4.22105
4.17766
4.13302
4.08714
4.04009
3.99192
3.94274
3.89263
3.84169
3.78995
3.73749
3.68431
3.63045
3.57596
3.52083
3.46515
3.40896
3.35236
3.29544
3.23833
3.18115
3.12371
3.06569
3.00821
2.95147
2.89564
2.84109
2.78838
2.73831
2.69198
2.65083
2.61673
2.59206
2.58
2.58403
2.6092
2.66132
2.7438
2.86364
3.02933
3.26798
3.63168
5.28849
5.25513
5.22313
5.19132
5.15788
5.11739
5.06993
5.02546
4.98422
4.94569
4.90865
4.87184
4.83479
4.79762
4.75985
4.7211
4.68084
4.6392
4.59627
4.55219
4.50695
4.46034
4.41246
4.36342
4.31328
4.26219
4.21024
4.15752
4.10401
4.04974
3.99469
3.93886
3.88224
3.82485
3.76671
3.70786
3.64832
3.58811
3.52723
3.46571
3.40349
3.34043
3.27565
3.20988
3.14328
3.07588
3.0078
2.93924
2.87058
2.80244
2.73561
2.67143
2.6117
2.55889
2.51635
2.48841
2.47953
2.49539
2.54479
2.6449
2.82671
5.43703
5.40198
5.3685
5.33542
5.29991
5.25697
5.20905
5.16513
5.12447
5.08684
5.05016
5.01401
4.97787
4.94197
4.90535
4.86754
4.82775
4.78655
4.74404
4.70052
4.65586
4.60967
4.56225
4.51383
4.46442
4.4143
4.3635
4.31209
4.25998
4.20714
4.15353
4.09916
4.044
3.98812
3.93153
3.87431
3.81649
3.75811
3.69915
3.63966
3.57962
3.51906
3.45782
3.39514
3.33129
3.26626
3.20006
3.13267
3.06415
2.99466
2.92438
2.85362
2.78297
2.71324
2.64568
2.58178
2.52371
2.47485
2.44164
2.43539
2.47387
5.38673
5.35081
5.31662
5.28344
5.24714
5.20465
5.15845
5.11706
5.0789
5.044
5.00877
4.97412
4.93966
4.90616
4.87177
4.83614
4.79786
4.7584
4.71767
4.67618
4.63365
4.58924
4.54392
4.49803
4.45137
4.4044
4.35695
4.30916
4.26063
4.21143
4.16139
4.11064
4.05913
4.00703
3.95431
3.90113
3.84751
3.79353
3.73915
3.68446
3.62948
3.57429
3.51886
3.46295
3.40601
3.3479
3.2886
3.22818
3.16662
3.10398
3.0403
2.97561
2.90993
2.8434
2.776
2.70786
2.63918
2.57076
2.50547
2.44943
2.41247
5.1605
5.12438
5.09009
5.0582
5.022
4.98184
4.93861
4.90154
4.8675
4.8373
4.80402
4.77137
4.73881
4.70865
4.67711
4.64455
4.60811
4.5713
4.53317
4.4947
4.45537
4.41346
4.37158
4.33013
4.28802
4.24624
4.20397
4.16178
4.1185
4.07458
4.02953
3.98402
3.93775
3.89122
3.84416
3.79697
3.74946
3.70186
3.65406
3.6063
3.55853
3.51098
3.46359
3.4163
3.36886
3.32035
3.27077
3.22009
3.16843
3.11588
3.06253
3.00839
2.95347
2.89761
2.84057
2.7819
2.721
2.6575
2.59176
2.52588
2.46435
4.78519
4.74945
4.71588
4.68664
4.65123
4.61459
4.57493
4.54365
4.51507
4.4916
4.45998
4.42926
4.3982
4.37223
4.34353
4.3145
4.27935
4.24579
4.21052
4.17529
4.13972
4.10025
4.06288
4.0282
3.99231
3.95738
3.92134
3.88632
3.84899
3.81114
3.77136
3.73199
3.69181
3.65225
3.6121
3.57235
3.53208
3.49218
3.4523
3.41316
3.37432
3.33631
3.29904
3.2621
3.22529
3.18836
3.15021
3.11082
3.07065
3.02984
2.98878
2.94749
2.90606
2.86423
2.82172
2.77795
2.73224
2.68373
2.63182
2.57648
2.51899
4.2993
4.26398
4.23292
4.20704
4.1731
4.13997
4.10375
4.07944
4.05748
4.04268
4.01112
3.98161
3.95066
3.93016
3.90339
3.87797
3.84281
3.81333
3.78028
3.74725
3.71559
3.67745
3.64607
3.62235
3.59355
3.5654
3.53507
3.50838
3.47595
3.44349
3.40681
3.37416
3.34011
3.30856
3.27574
3.24409
3.2102
3.17797
3.14672
3.11727
3.08893
3.06165
3.03617
3.01107
2.98499
2.95924
2.93182
2.90261
2.87409
2.84476
2.81762
2.7907
2.76533
2.73976
2.71447
2.68833
2.66107
2.63156
2.59947
2.56331
2.52301
3.87073
3.85735
3.78836
3.70559
3.614
3.52024
3.4302
3.34638
3.27028
3.20376
3.14787
3.10321
3.0698
3.04692
3.03162
3.02187
3.01553
3.01126
3.0087
3.00791
3.00902
3.01207
3.01696
3.02345
3.03122
3.03999
3.0495
3.05941
3.06939
3.07917
3.0884
3.09663
3.10335
3.10802
3.11
3.10863
3.10324
3.09306
3.07731
3.05522
3.02612
2.98941
2.9448
2.8922
2.83213
2.76574
2.69494
2.62245
2.55147
2.48532
2.42672
2.37732
2.33725
2.30537
2.27972
2.25817
2.23886
2.22038
2.20169
2.18222
2.16217
5.26119
5.65992
5.63758
5.51707
5.32068
5.09854
4.87302
4.65178
4.43775
4.23664
4.05194
3.88654
3.74217
3.62171
3.53099
3.46406
3.41192
3.36839
3.33139
3.30082
3.27749
3.26213
3.25485
3.25519
3.26229
3.27525
3.29329
3.31533
3.34027
3.36704
3.39522
3.42413
3.45281
3.48002
3.50448
3.52485
3.53986
3.54819
3.54834
3.53877
3.5179
3.48419
3.43567
3.37024
3.28596
3.18095
3.05406
2.9053
2.73674
2.5532
2.36283
2.17623
2.00441
1.85599
1.73561
1.64263
1.57329
1.52279
1.48709
1.46282
1.44708
4.22479
4.96795
5.58124
6.00873
6.19422
6.08914
5.89157
5.64214
5.37347
5.10436
4.84371
4.60242
4.38738
4.20513
4.05923
3.95091
3.86831
3.80261
3.74877
3.70509
3.67189
3.65012
3.64008
3.64106
3.65177
3.67079
3.69654
3.72706
3.76123
3.79824
3.83708
3.87673
3.91588
3.9531
3.98674
4.01525
4.03704
4.05049
4.05394
4.0455
4.02341
3.98565
3.93041
3.85554
3.75915
3.63962
3.49582
3.32782
3.13715
2.92772
2.70621
2.48231
2.26804
2.07565
1.91529
1.79154
1.70348
1.64575
1.61176
1.59508
1.59094
3.14936
3.65554
4.30409
5.03584
5.74503
6.21221
6.42322
6.40628
6.21276
5.94878
5.64594
5.34523
5.06483
4.81981
4.61805
4.45784
4.3378
4.24532
4.17202
4.11404
4.07048
4.04188
4.02827
4.02845
4.04036
4.06194
4.09077
4.12532
4.1643
4.20633
4.25028
4.29497
4.33915
4.38116
4.41941
4.45216
4.47764
4.49423
4.49998
4.49312
4.47157
4.43352
4.37683
4.2997
4.20019
4.07679
3.92872
3.75584
3.55947
3.3426
3.1107
2.87168
2.63632
2.41718
2.22677
2.07423
1.96295
1.89032
1.84956
1.83281
1.83338
2.58716
2.8149
3.18648
3.72082
4.40784
5.15025
5.83077
6.33986
6.58298
6.59191
6.40827
6.12358
5.8084
5.50009
5.23101
5.01054
4.83775
4.70618
4.60388
4.52452
4.46558
4.42654
4.40666
4.40366
4.41437
4.43522
4.46434
4.50012
4.5409
4.58483
4.63049
4.67696
4.72294
4.76707
4.8075
4.84253
4.8704
4.88924
4.89741
4.89272
4.87341
4.83727
4.78264
4.70729
4.60961
4.48838
4.34252
4.17203
3.97773
3.76203
3.52911
3.28552
3.04023
2.80487
2.59244
2.41482
2.27962
2.18815
2.13564
2.11414
2.11564
2.41023
2.466
2.60782
2.86792
3.27601
3.83634
4.51994
5.2548
5.91922
6.40696
6.65753
6.66127
6.48402
6.19764
5.89565
5.61871
5.39224
5.21088
5.06538
4.95261
4.86922
4.81319
4.78261
4.77306
4.77946
4.7977
4.82507
4.85973
4.89992
4.94323
4.98823
5.03389
5.07968
5.12384
5.165
5.20113
5.2304
5.2513
5.26177
5.26013
5.24408
5.21184
5.161
5.08997
4.997
4.88097
4.74126
4.57693
4.38892
4.17857
3.94938
3.70632
3.45696
3.21148
2.98247
2.78316
2.62442
2.51166
2.44334
2.4126
2.41081
2.41485
2.38953
2.40562
2.486
2.65889
2.9522
3.38548
3.95878
4.63464
5.33523
5.95783
6.40166
6.62238
6.62394
6.46556
6.22129
5.977
5.76016
5.56943
5.41319
5.29426
5.21219
5.16517
5.14551
5.14567
5.15923
5.18257
5.21391
5.25148
5.29219
5.33424
5.37717
5.42052
5.46347
5.50377
5.53992
5.5701
5.59228
5.60569
5.60745
5.5961
5.56862
5.52349
5.4583
5.37212
5.26407
5.13266
4.97745
4.79837
4.59651
4.37419
4.13542
3.88605
3.63494
3.39368
3.17604
2.99484
2.8593
2.77158
2.72712
2.71735
2.46234
2.41205
2.37701
2.37031
2.41008
2.51907
2.72274
3.04415
3.49577
4.06591
4.71067
5.35286
5.90889
6.30209
6.50242
6.53062
6.43727
6.27995
6.08542
5.89536
5.73813
5.62586
5.5611
5.53034
5.52249
5.5293
5.54576
5.57152
5.60476
5.64076
5.67812
5.71559
5.75523
5.79465
5.83289
5.86795
5.898
5.92144
5.93725
5.94322
5.93724
5.91631
5.8786
5.82128
5.74399
5.64466
5.52399
5.37936
5.212
5.02058
4.80803
4.57617
4.32992
4.07652
3.82618
3.59301
3.39024
3.23103
3.12064
3.05805
3.03518
2.47924
2.43346
2.39
2.35496
2.33799
2.35296
2.4181
2.55495
2.7847
3.12491
3.57385
4.11454
4.70419
5.28432
5.78764
6.17792
6.42076
6.51385
6.48737
6.34637
6.17794
6.04795
5.97375
5.9366
5.9186
5.91751
5.9228
5.94125
5.96845
5.99728
6.02855
6.05756
6.09151
6.12553
6.16011
6.19232
6.22231
6.24402
6.26378
6.27325
6.27367
6.26033
6.23224
6.18426
6.11822
6.02811
5.92101
5.78749
5.63484
5.45485
5.25522
5.03292
4.79215
4.53957
4.28133
4.03587
3.81094
3.62831
3.49137
3.40753
3.36529
0.101966
3.53123
3.30811
0.148194
0.141848
0.0755568
0.0032183
2.46682
0.00324485
0.0226361
8.75701
0.756212
0.00321754
5.16025
0.0645236
3.60837
0.00323744
2.27708
8.94028
0.00323303
0.148674
5.29943
3.52552
0.0033132
0.00323048
0.119292
0.00323208
0.586004
0.0032312
0.00324548
1.17506
0.00324899
0.0172872
6.31561
0.537246
8.71492
7.71927
1.42482
0.00320704
3.89457
2.27819
0.823614
0.00320094
2.95312
3.78199
0.19691
0.00321074
0.00670943
0.393645
0.801109
4.77559
5.0588
0.00320076
0.00332669
0.0462971
0.00322437
0.00324399
0.853652
7.74296
4.51047
4.32209
0.00338559
0.227274
0.0141879
3.75974
0.00432383
7.16439
1.72411
0.00450661
0.00321054
1.21041
2.43775
2.08273
0.00320275
0.0536214
9.58836
3.82003
2.67439
0.00319616
0.669815
0.00472183
3.39853
0.0107112
3.57431
0.00321494
1.05353
0.0032411
7.30994
0.0180236
0.00374793
0.0524033
0.0031951
0.00334307
4.6964
3.18064
0.00328841
0.327535
0.523056
0.00595465
4.38028
0.00361757
7.04117
0.866314
0.00319372
0.00319575
0.00319807
0.358873
0.10137
0.00326794
3.85545
4.58859
0.0108148
4.59097
5.33757
4.02851
7.76083
6.846
0.00400697
0.0469841
0.00326893
0.00319745
3.87206
0.00401557
5.17836
5.05002
0.841702
0.00320122
0.577341
0.604205
0.00320055
0.0394614
0.0147495
2.04263
0.00349037
8.13499
0.00320885
0.00319486
5.19917
4.93949
0.00320048
0.292449
3.38772
0.124709
0.281464
5.6406
5.80627
0.147949
5.99214
0.00920481
4.35801
2.48891
0.00326034
2.65938
3.53197
3.89394
0.00321186
0.00320586
0.115304
0.00319941
6.95584
0.0423109
0.00498359
0.00321485
0.00320179
0.00323457
2.09829
2.43289
1.89963
0.00339782
4.76809
4.09829
3.19314
8.53605
0.0175421
4.87063
4.70041
7.16273
0.00320042
0.00448314
4.5548
8.63707
0.827698
1.98343
0.00320208
0.00326476
4.83981
0.0163633
0.472862
0.00323338
0.00320679
0.106679
0.00338564
4.70363
0.346476
0.00319682
0.133438
2.52985
2.69063
0.00450402
6.26535
0.0032042
0.00320439
9.10606
1.35704
4.51484
0.0045648
0.0032433
0.00938113
1.50208
6.25247
1.14374
2.48642
3.13654
4.74869
0.242771
2.87984
2.41088
0.756551
1.00429
7.47868
0.0033396
0.0301432
0.00320036
0.00322867
6.96233
0.00888149
0.00970202
0.00341143
0.0165989
2.60365
5.28597
0.0221832
3.07048
0.633745
2.85175
0.0032022
0.0551862
1.73264
0.586766
0.00427427
4.84995
1.07157
0.226302
0.553772
5.11536
0.95728
0.608381
3.38592
0.00373335
0.00319899
0.00349705
0.0115941
6.51782
0.00322124
0.00367839
0.00320402
0.424208
8.42191
9.48719
8.43024
2.87436
0.983571
5.05673
0.00454713
7.11569
6.4425
0.00319926
3.64548
0.00321401
6.53812
0.424116
3.72034
0.00427061
0.00320641
1.55538
0.569186
0.00323736
0.00320111
0.00321264
0.00324032
0.313526
1.94626
1.82679
0.0183085
0.00323927
0.0031994
0.00319472
3.34152
0.144256
0.00367162
0.813428
0.0696992
0.0442067
0.00319627
0.271521
0.00323904
0.0655777
1.78855
4.29819
0.997651
0.0032608
0.00388747
2.68689
0.0555617
2.15716
5.13766
0.00336383
0.00319958
0.00320279
4.06967
0.00321979
4.37642
0.00321026
0.881543
3.21199
0.036644
4.0258
7.81301
0.00376556
8.4097
3.24135
1.94645
8.61705
3.6548
4.89721
8.1111
8.37523
8.7075
2.8424
2.07264
0.0767203
4.96031
5.02886
8.58456
7.34926
0.00407767
4.40629
4.03384
4.94236
0.0212768
0.00333984
0.00320037
0.00326404
0.224165
0.354401
1.4463
0.0503482
0.00321184
3.7547
0.00320155
5.097
1.02511
4.36794
4.04648
1.06135
0.00374978
0.0034977
0.0689437
5.90956
0.0053106
0.916056
4.83652
7.47034
3.14554
3.49954
4.09808
0.00324902
5.13548
3.15725
2.09243
0.00320564
3.70889
3.41855
0.00323244
7.0302
0.00320857
4.77064
7.12407
6.88121
2.77878
3.89689
3.53699
0.00330168
3.60284
0.00342648
9.21306
3.15403
7.17545
5.12014
0.415768
0.187116
0.52313
0.00348144
5.35162
0.275761
0.00707995
0.00476086
4.26926
0.00342582
3.32728
0.00321048
0.0032152
0.00622355
2.14495
0.0437074
0.981824
0.00336441
2.75331
0.0951799
3.69979
8.25902
1.48815
4.77628
0.0034342
5.17905
2.15929
0.00319675
3.09609
1.11797
0.00319862
0.00319652
8.62249
0.00735951
2.18456
0.0718103
5.07019
0.0213287
0.29145
1.45372
6.13078
1.36076
3.97729
2.1224
0.00405734
0.0218095
6.49016
0.640403
5.26336
4.85154
2.72332
0.0283963
3.09871
3.07839
0.599931
2.07219
1.55083
1.12731
0.00358578
3.16828
5.05613
0.00372674
6.53468
1.417
1.5633
0.0130601
0.0286259
5.02857
0.00372706
5.23409
0.0036535
0.311812
0.00321773
1.00656
2.66964
0.180019
0.00368345
0.00389484
6.22256
5.82741
0.0114099
0.37503
4.90926
4.42374
0.00442412
0.93546
6.00043
8.19496
5.39979
5.06988
7.29346
8.4796
2.40697
0.0826581
0.377307
5.22999
2.30305
5.19218
4.04239
0.055413
4.08723
7.76193
0.00341667
2.53686
5.53339
3.31474
0.0222909
8.71375
1.78145
0.354056
2.30449
0.00533885
0.00320483
0.00325206
6.88083
2.70193
7.83261
0.00321057
0.00322261
0.00319696
6.27006
0.03826
0.00319965
0.0542558
8.57291
4.53427
0.00571696
0.00598153
0.00319701
0.00321567
0.00370711
2.07695
2.08365
0.616947
0.443169
4.52353
4.39853
0.00533466
2.72296
6.9605
7.21737
2.60711
5.00273
0.00342686
0.00531028
0.00320115
4.45712
0.111993
0.00319887
0.937218
0.0792451
5.04791
0.0032366
4.67255
0.635989
0.0167096
4.35065
0.00319895
0.00319993
0.00333487
5.08507
2.45491
3.302
4.17808
4.5238
6.77955
0.00319434
0.00413798
0.0660179
0.00577784
0.0178632
2.21187
7.57384
0.00320238
1.56334
6.28427
3.7708
5.07919
0.00531397
5.1011
0.00389973
0.0185379
4.95481
0.00320276
3.91452
0.00323775
0.0032342
0.0294828
7.24758
0.501595
2.59872
2.27366
0.00327232
6.56972
6.14357
0.00572475
0.152595
1.32349
0.00322039
0.00320883
0.00652804
3.86251
0.666043
0.0034479
4.4417
5.00424
4.38069
0.00328131
6.34569
0.00450138
1.46236
0.0546109
0.043022
6.29448
6.42365
2.13313
4.07126
0.00328188
0.00319427
0.00503056
6.62127
2.46427
0.584037
0.0072816
0.00321059
0.00320029
0.00469968
0.00320155
0.00449667
6.33759
4.75351
0.0130247
5.63582
3.71146
0.0032428
8.06485
0.00322302
0.223988
0.00324443
0.0178561
1.44432
0.0144307
0.00320675
0.445755
4.90349
4.06801
0.0032244
0.00320065
0.194345
0.00320896
0.00320559
2.3447
0.00333321
6.36108
5.02229
1.84134
2.03218
2.51488
8.91241
5.27011
0.00319868
0.00741417
0.0175877
7.61722
1.72719
3.72544
2.52461
0.33912
9.04811
4.5777
2.55071
0.147611
1.14187
0.00321298
0.165434
4.9125
1.9701
6.54751
0.753543
0.189563
2.4171
0.118875
0.00930473
5.18281
0.00320081
6.22662
0.00326949
0.475396
5.20565
3.94894
0.279784
0.00603178
0.928291
0.0032138
0.00320085
0.0441733
0.0114456
4.6249
0.00667653
6.4238
0.00321217
0.0148062
0.00319881
2.85143
0.00484191
9.15329
2.55873
0.00968434
2.17323
4.85494
0.0032067
2.04621
4.60628
0.00338935
5.20195
0.0459494
0.00360656
0.0032092
4.21667
0.00319824
0.00349269
0.0410771
0.11978
4.84633
4.93239
0.00321854
0.0032059
1.98918
1.38371
0.00756284
0.458726
1.54316
0.00320314
0.00342083
0.00322071
4.04686
5.1401
0.604613
4.51979
0.0126303
5.77383
0.00340464
0.00861982
0.0121478
0.0488468
0.00320513
4.74909
0.00320161
0.0169153
0.00321496
0.0113571
0.00981595
0.00321276
0.179174
0.793483
7.81985
0.159239
1.10873
6.93177
8.01132
0.00333431
6.8805
4.92025
1.33117
2.55942
0.00326629
8.37877
2.01383
0.00320115
4.91253
7.23007
0.00330001
0.00319649
4.19505
4.40032
0.0630921
5.02085
4.89799
0.652139
4.91116
4.24591
4.04717
6.39143
0.75251
0.787193
4.6051
4.49504
0.0097979
4.49027
1.14737
6.50557
0.00336672
0.389118
2.68825
4.88045
3.51821
0.0129507
5.30249
4.59724
0.456569
0.039468
0.481484
6.92476
0.00404429
7.02978
4.78483
0.0377034
4.85051
0.633742
2.76446
4.18076
0.00320771
0.00553593
0.60617
0.816973
0.024836
0.00320642
0.243077
0.320217
0.00396458
0.0032359
8.12517
0.544167
1.60731
1.20253
0.00531271
0.00346345
0.0694681
8.82512
0.00328229
1.01213
5.79066
0.365314
2.68037
0.00359189
0.149396
0.00320063
0.0032494
2.88158
0.00319561
0.0980066
7.46317
3.09681
0.160673
3.60905
0.740276
1.04305
0.00371883
1.30644
4.69057
0.00320098
0.00320497
3.60366
0.0152664
0.00323435
2.24962
0.301186
2.24926
7.42547
1.80082
0.0651376
1.42457
7.1256
3.04214
4.31085
0.00322682
4.91894
0.00329382
7.25809
0.00351242
0.00323404
7.3401
0.00752595
7.24616
0.0199593
0.022551
2.21757
0.900909
0.242646
0.00334643
3.79366
0.00333769
0.00319911
4.90058
3.65003
2.18346
7.04818
0.00325071
0.00319382
1.37879
3.56799
0.00319503
3.60385
2.03316
0.00320833
4.33645
0.00320194
0.426719
0.894365
0.982267
0.165317
1.91404
5.1828
0.00320144
4.71803
4.65967
0.00319791
0.0219259
7.24934
0.00320288
4.99083
7.94541
6.25002
0.00319878
0.00319791
3.82193
0.04271
0.00342914
2.1507
2.08087
3.96753
0.00319405
0.00336387
0.0156328
0.0230667
0.00320306
0.00722931
3.69972
8.56933
0.00320673
0.649021
0.00320385
0.888697
0.00432329
0.00332673
1.3539
0.00320011
0.0407234
0.00319804
1.48146
0.580027
0.843752
4.48711
6.88908
5.12476
0.441529
3.59818
0.00323538
0.554404
5.01949
4.42133
0.0579985
0.0032954
3.29099
0.0032013
0.0329255
0.00319894
4.87456
0.959935
0.4509
3.75884
2.61835
0.601049
2.69465
0.891392
4.92272
3.89266
0.00322354
0.0033383
0.0044341
0.00327729
0.0107563
2.10662
0.00383814
4.10078
0.00388167
0.39598
0.298472
7.34387
0.00542483
1.50175
0.0217913
1.3141
1.45181
4.78337
0.00350858
0.00395784
0.0249607
3.47604
2.11398
2.75126
0.197232
0.632027
0.733013
0.0610565
0.395135
0.0213107
6.47475
0.00320548
6.53987
0.243591
2.73788
0.00322619
2.68703
1.223
0.00320036
1.93294
1.30528
0.027837
0.003212
0.00319936
5.32592
2.63226
3.97547
0.00319452
0.00871538
6.69101
4.5016
0.146854
0.00663306
0.00319709
3.04671
3.18123
7.53885
1.5734
0.00319824
7.15117
4.99817
0.00321045
0.00321051
1.52264
0.00320558
0.00699073
0.0434702
2.32596
0.00437698
7.82345
5.16747
0.00327696
0.00345439
0.00319778
0.003214
2.41128
6.09305
4.81105
0.018413
1.26641
7.52702
0.0915301
1.68963
0.00359974
6.44328
0.20321
7.52994
0.806115
1.98565
5.84599
0.00322178
0.00323633
3.94194
7.48699
4.21628
0.522652
6.21013
0.2009
2.67
0.00760923
0.00378067
4.59201
3.46164
0.0211163
0.332452
0.00321373
0.0377062
1.16303
0.0382424
1.27575
0.036737
4.36351
7.07426
0.412663
4.60418
3.97982
8.58415
0.956125
4.71366
7.65812
0.60841
2.17606
0.00321378
2.59129
2.37491
0.00320355
0.00320319
0.0424076
0.00320197
0.00338541
8.6345
7.93555
0.00321429
8.71793
0.0031992
0.00320013
0.00319537
0.00331914
0.0052089
6.95819
1.17452
4.91809
0.0032184
0.00320851
0.526039
0.00329228
0.036608
0.00324495
0.00322501
5.70891
0.00352499
0.00585338
4.36537
0.00802361
0.00320908
4.62346
0.00320139
0.00322306
0.00352171
0.00328764
0.21514
0.00506017
0.0125038
0.00320613
0.00325316
5.01163
5.05718
1.34519
0.0360695
5.06989
0.848765
0.00529417
6.50208
7.14242
4.98501
6.13643
0.00321095
1.68112
2.83948
0.0844529
6.55744
8.29238
0.15078
7.22039
0.00320489
6.54791
0.141625
0.923162
0.00323201
3.89507
0.0033313
6.88939
1.47306
0.0032069
0.231747
0.00486842
0.0116196
0.00321558
0.540762
0.00335592
0.00324917
8.18156
0.00319708
0.0659591
4.96648
2.25327
0.00351723
0.00395852
1.44276
4.76683
0.00319978
0.00321652
0.0890851
1.66261
4.11313
0.00648724
0.95615
0.00320401
0.00326996
0.00319571
0.016292
1.22115
0.0122337
4.87957
6.36145
4.7996
3.72458
0.00328263
4.44133
2.40552
0.00319997
0.00322624
0.00322117
0.00344063
0.0032018
6.53127
0.00320642
0.0032006
4.85693
0.155073
0.00505061
0.0257989
4.80556
0.977774
0.00819147
0.00331687
4.17863
0.00324467
0.871278
0.0032767
0.00330818
3.6968
3.05551
0.00484097
0.0036583
1.25239
0.00320329
4.8321
0.00326977
3.06464
0.0124513
0.906614
0.00345184
0.460344
0.00338323
1.83333
0.00324075
0.0033101
0.00670915
1.52577
0.0427268
5.08347
0.00320097
0.0050821
0.00393683
4.79267
2.99422
3.49278
0.00684946
0.0113695
0.256136
0.00321437
2.56652
2.31942
0.008626
5.05703
4.47303
1.80532
0.00455298
0.205114
5.02756
4.23037
6.80791
0.0180196
4.92286
0.263359
2.89694
0.0403826
0.287508
1.17887
0.0032433
6.5225
0.0034688
0.00798634
0.00323497
0.0293338
0.00335419
1.13183
0.00322146
5.80223
0.0788024
0.00323135
0.0118858
0.00323311
0.161355
0.0503143
7.93081
0.583681
9.12298
0.108075
0.00320769
0.00319468
0.0761841
0.0364609
1.65181
4.79051
0.00321571
5.29145
1.6086
0.0131357
2.40964
0.516134
7.9381
6.95126
0.0318505
0.00409702