/*--------------------------------*- C++ -*----------------------------------*\
| =========                 |                                                 |
| \\      /  F ield         | OpenFOAM: The Open Source CFD Toolbox           |
|  \\    /   O peration     | Version:  2.3.1                                 |
|   \\  /    A nd           | Web:      www.OpenFOAM.org                      |
|    \\/     M anipulation  |                                                 |
\*---------------------------------------------------------------------------*/
FoamFile
{
    version     2.0;
    format      ascii;
    class       volScalarField;
    location    "0.08";
    object      nut;
}
// * * * * * * * * * * * * * * * * * * * * * * * * * * * * * * * * * * * * * //

dimensions      [0 2 -1 0 0 0 0];

internalField   nonuniform List<scalar> 
9648
(
0.00024282
0.000241395
0.000239898
0.00023831
0.000236611
0.000234766
0.000232808
0.000230764
0.000228641
0.000226446
0.000224193
0.000221929
0.000219659
0.000217393
0.000215166
0.000213008
0.000210924
0.000208918
0.00020701
0.00020522
0.000203548
0.000201998
0.000200583
0.000199294
0.000198126
0.000197089
0.00019618
0.000195395
0.000194723
0.000194167
0.000193718
0.000193372
0.000193125
0.000192975
0.000192911
0.000192936
0.000193047
0.00019324
0.0001935
0.000193829
0.000194233
0.000194701
0.000195229
0.000195824
0.000196472
0.000197163
0.000197908
0.000198713
0.000199569
0.000200457
0.000201389
0.000202379
0.0002034
0.000204455
0.000205552
0.000206695
0.000207863
0.000209026
0.000210214
0.000211446
0.000212719
0.00046271
0.000465397
0.000468768
0.000472716
0.000478329
0.000486005
0.000495761
0.000507877
0.000522217
0.000538753
0.000557215
0.000577651
0.000599874
0.000623686
0.000648916
0.000675518
0.000703346
0.000732184
0.000761881
0.000792422
0.000823619
0.000855387
0.000887685
0.000920377
0.000953316
0.000986486
0.00101987
0.00105338
0.00108691
0.00112042
0.00115391
0.00118727
0.00122045
0.00125349
0.0012863
0.0013188
0.00135106
0.00138308
0.00141478
0.00144602
0.00147686
0.00150736
0.00153745
0.00156707
0.00159641
0.00162511
0.00165313
0.00168067
0.00170777
0.00173419
0.00175993
0.00178511
0.00180979
0.00183348
0.00185667
0.00187908
0.00190119
0.00192196
0.00194194
0.00196121
0.00197998
0.00107249
0.00107904
0.00108784
0.00109907
0.00111413
0.001134
0.00115768
0.00118598
0.00121809
0.00125456
0.00129421
0.00133718
0.00138298
0.00143125
0.00148165
0.00153382
0.00158756
0.00164252
0.0016985
0.00175532
0.0018128
0.00187088
0.00192935
0.00198811
0.00204708
0.0021062
0.00216545
0.00222466
0.00228385
0.00234293
0.00240181
0.0024605
0.00251899
0.00257714
0.00263493
0.0026924
0.00274945
0.00280611
0.00286232
0.00291804
0.00297324
0.00302782
0.00308187
0.00313532
0.00318811
0.00324018
0.00329144
0.00334205
0.00339179
0.00344073
0.00348879
0.00353599
0.00358275
0.00362773
0.00367283
0.00371598
0.00375878
0.00379876
0.00383871
0.00387757
0.00391577
0.00185627
0.00185165
0.00185449
0.00186344
0.00187917
0.00190188
0.00193124
0.00196709
0.00200889
0.00205675
0.00210953
0.00216693
0.00222801
0.00229248
0.00235967
0.00242913
0.00250051
0.00257342
0.00264763
0.00272289
0.00279906
0.00287594
0.00295343
0.00303145
0.00310993
0.00318877
0.00326793
0.00334733
0.00342692
0.00350657
0.00358634
0.00366613
0.00374586
0.00382556
0.00390507
0.00398442
0.00406352
0.00414237
0.00422089
0.00429905
0.00437681
0.00445413
0.00453091
0.0046072
0.00468285
0.00475784
0.00483211
0.00490564
0.00497824
0.00504991
0.00512094
0.00519046
0.00525906
0.00532623
0.00539326
0.00545862
0.0055224
0.00558462
0.00564564
0.00570535
0.00576307
0.00269251
0.00266921
0.00266025
0.00266246
0.00267467
0.00269672
0.00272818
0.00276823
0.00281663
0.00287278
0.00293565
0.00300433
0.00307807
0.00315622
0.00323782
0.00332227
0.00340907
0.00349785
0.00358826
0.00368009
0.00377309
0.00386711
0.00396199
0.00405767
0.00415409
0.0042512
0.00434886
0.00444701
0.00454558
0.00464449
0.00474366
0.00484308
0.0049427
0.00504237
0.00514203
0.00524167
0.00534119
0.00544045
0.00553943
0.00563807
0.00573636
0.00583415
0.00593147
0.00602819
0.00612426
0.00621956
0.00631398
0.00640751
0.00650023
0.0065916
0.00668211
0.00677143
0.00685909
0.00694527
0.00703032
0.00711436
0.00719635
0.00727679
0.00735575
0.00743272
0.00750765
0.0035413
0.00349437
0.00347042
0.00346364
0.00347072
0.00349034
0.00352185
0.00356456
0.00361752
0.00368008
0.003751
0.00382917
0.00391374
0.0040036
0.00409789
0.00419582
0.00429637
0.00439943
0.00450444
0.00461119
0.00471944
0.0048289
0.00493951
0.00505111
0.00516374
0.00527728
0.00539168
0.00550678
0.0056224
0.0057385
0.00585505
0.00597195
0.00608922
0.00620668
0.00632418
0.00644169
0.00655913
0.00667637
0.00679326
0.00690972
0.00702568
0.00714114
0.00725604
0.00737027
0.00748372
0.00759636
0.00770827
0.00781855
0.00792786
0.00803599
0.00814272
0.00824815
0.00835201
0.00845388
0.00855448
0.00865303
0.00874981
0.00884501
0.00893817
0.00902856
0.00911734
0.00440943
0.00433308
0.00429088
0.00427239
0.00427208
0.00428747
0.00431709
0.00436002
0.00441542
0.00448192
0.0045587
0.00464419
0.00473734
0.004837
0.00494228
0.00505169
0.00516421
0.00527966
0.00539735
0.00551714
0.00563874
0.00576167
0.00588592
0.00601117
0.00613772
0.00626551
0.00639434
0.00652418
0.00665447
0.00678522
0.00691649
0.00704809
0.00718023
0.00731271
0.00744511
0.0075775
0.00770997
0.00784202
0.0079736
0.00810458
0.00823476
0.00836421
0.00849305
0.0086211
0.008748
0.00887392
0.00899893
0.00912247
0.00924474
0.00936534
0.00948452
0.00960204
0.0097175
0.00983108
0.00994233
0.010052
0.0101598
0.010265
0.0103676
0.0104675
0.010565
0.00531444
0.00519942
0.00513316
0.0050992
0.00508843
0.00509575
0.00512032
0.00516051
0.00521498
0.00528256
0.00536207
0.00545181
0.00555065
0.00565689
0.00577064
0.00588945
0.00601201
0.00613786
0.00626569
0.0063958
0.00652836
0.00666209
0.00679751
0.0069333
0.00707049
0.00720938
0.00734972
0.00749169
0.00763395
0.00777638
0.00791912
0.00806163
0.00820502
0.00834923
0.00849318
0.0086371
0.00878136
0.00892504
0.00906803
0.00921012
0.00935091
0.0094902
0.00962827
0.00976581
0.00990194
0.0100368
0.0101704
0.0103019
0.0104322
0.0105604
0.0106868
0.0108112
0.0109344
0.0110552
0.0111728
0.011288
0.0114011
0.0115127
0.0116208
0.011725
0.0118258
0.00628012
0.00611167
0.00601165
0.00595537
0.00593088
0.005923
0.00593704
0.00597037
0.00601771
0.00608202
0.00615967
0.00625085
0.00635158
0.00645845
0.00657629
0.00670206
0.00683218
0.00696794
0.00710482
0.00724089
0.00738167
0.00752362
0.00766805
0.00781146
0.00795309
0.00809862
0.0082456
0.0083971
0.00855092
0.00870307
0.0088555
0.00900372
0.00915032
0.0093031
0.00945682
0.0096066
0.00975971
0.00991475
0.0100665
0.0102189
0.01037
0.0105182
0.0106582
0.0108003
0.0109451
0.0110831
0.0112231
0.0113555
0.0114915
0.0116192
0.01175
0.0118697
0.0119933
0.0121226
0.0122463
0.0123571
0.0124704
0.0125796
0.0126931
0.0128005
0.0128977
0.000213971
0.000215203
0.00021649
0.000217839
0.000219245
0.00022064
0.000222007
0.000223407
0.000224827
0.000226269
0.000227715
0.000229213
0.000230741
0.000232279
0.00023384
0.000235443
0.000237073
0.000238708
0.000240352
0.000242029
0.00024372
0.000245426
0.000247165
0.000248918
0.000250667
0.000252433
0.000254223
0.000256034
0.000257851
0.000259686
0.000261539
0.000263406
0.000265286
0.000267191
0.00026911
0.000271049
0.000273016
0.000275011
0.00027702
0.000279043
0.000281099
0.000283179
0.000285282
0.000287416
0.00028957
0.000291726
0.0002939
0.00029611
0.000298343
0.000300572
0.000302813
0.000305091
0.000307371
0.000309652
0.00031196
0.000314301
0.000316665
0.000319012
0.000321407
0.000323888
0.000326465
0.00199835
0.00201424
0.00202934
0.00204366
0.0020567
0.00206885
0.00207925
0.00208917
0.00209768
0.002106
0.002113
0.00211939
0.00212494
0.00212966
0.00213356
0.00213655
0.00213881
0.00214023
0.00214089
0.00214078
0.00213998
0.00213857
0.00213643
0.0021336
0.00213003
0.00212574
0.00212078
0.00211504
0.00210864
0.00210151
0.0020936
0.00208503
0.00207579
0.00206583
0.0020552
0.00204394
0.002032
0.00201946
0.0020063
0.00199254
0.00197822
0.0019633
0.00194794
0.00193206
0.00191563
0.00189862
0.00188095
0.00186269
0.00184371
0.00182405
0.00180367
0.00178252
0.00176066
0.0017375
0.00171389
0.00168896
0.00166337
0.00163654
0.0016098
0.00158298
0.0015563
0.00395207
0.00398742
0.00402069
0.00405268
0.0040829
0.0041119
0.00413927
0.00416505
0.00418909
0.00421269
0.00423483
0.00425593
0.00427531
0.00429372
0.00431081
0.00432661
0.00434116
0.00435445
0.00436647
0.00437724
0.00438691
0.00439539
0.00440278
0.00440911
0.00441434
0.00441842
0.00442141
0.00442323
0.00442394
0.00442339
0.00442174
0.00441887
0.00441478
0.00440961
0.00440322
0.0043957
0.00438698
0.00437714
0.00436615
0.0043541
0.00434105
0.00432707
0.0043122
0.00429657
0.00428003
0.00426252
0.00424387
0.00422405
0.00420287
0.00418027
0.0041563
0.00413024
0.00410239
0.00407224
0.00404043
0.00400567
0.00396833
0.00392871
0.00388784
0.00384589
0.00380319
0.00581966
0.00587438
0.00592784
0.00597916
0.0060282
0.00607597
0.00612216
0.00616605
0.00620865
0.0062499
0.0062894
0.00632692
0.00636278
0.00639728
0.00642985
0.00646084
0.00649013
0.00651771
0.00654355
0.00656773
0.00659027
0.00661131
0.00663079
0.00664885
0.00666542
0.00668052
0.00669407
0.00670612
0.00671675
0.00672588
0.00673342
0.00673939
0.00674378
0.00674659
0.00674784
0.00674755
0.00674565
0.00674209
0.00673695
0.00673034
0.00672242
0.00671322
0.00670306
0.00669199
0.00668006
0.00666713
0.00665294
0.00663737
0.00662027
0.00660138
0.00658063
0.00655747
0.00653161
0.00650283
0.0064712
0.0064358
0.00639638
0.00635366
0.0063086
0.00626113
0.00621242
0.00758042
0.0076517
0.00772092
0.00778774
0.00785199
0.00791455
0.00797563
0.00803499
0.00809203
0.0081474
0.00820047
0.00825146
0.00830064
0.00834771
0.00839282
0.00843623
0.00847698
0.00851573
0.00855226
0.00858658
0.00861886
0.00864921
0.00867775
0.00870451
0.00872944
0.00875251
0.00877382
0.00879339
0.00881134
0.00882771
0.00884243
0.00885529
0.00886629
0.00887543
0.0088828
0.00888824
0.00889162
0.00889305
0.00889241
0.00888986
0.00888559
0.00887977
0.0088728
0.00886498
0.00885643
0.00884718
0.00883678
0.00882478
0.00881153
0.00879689
0.00878009
0.00876068
0.00873837
0.00871255
0.00868322
0.00864879
0.00860994
0.00856679
0.00852022
0.00847031
0.00841886
0.00920348
0.00928746
0.00936854
0.00944766
0.00952383
0.00959813
0.00967029
0.00974035
0.00980834
0.00987375
0.00993719
0.0099982
0.0100568
0.0101131
0.0101669
0.0102184
0.0102673
0.0103138
0.0103575
0.0103983
0.0104364
0.0104722
0.0105056
0.010537
0.0105661
0.010593
0.0106178
0.0106404
0.0106613
0.0106808
0.0106988
0.010715
0.0107292
0.0107414
0.0107519
0.01076
0.0107656
0.0107688
0.0107696
0.0107682
0.0107645
0.0107588
0.0107515
0.0107434
0.0107348
0.010726
0.0107162
0.0107054
0.0106934
0.010681
0.0106666
0.0106491
0.010629
0.0106056
0.0105783
0.0105451
0.0105071
0.0104632
0.0104158
0.0103646
0.010311
0.0106597
0.0107517
0.0108407
0.0109265
0.0110098
0.0110906
0.0111697
0.0112469
0.0113217
0.0113938
0.0114633
0.0115304
0.0115952
0.0116567
0.0117153
0.0117718
0.0118258
0.0118771
0.0119253
0.0119694
0.0120102
0.0120481
0.012083
0.0121155
0.0121454
0.0121725
0.0121969
0.0122181
0.0122372
0.012255
0.0122723
0.0122876
0.0123017
0.0123138
0.0123249
0.0123334
0.0123381
0.0123399
0.0123391
0.012336
0.0123305
0.012322
0.0123112
0.0122995
0.0122874
0.0122763
0.0122633
0.0122502
0.0122363
0.012224
0.01221
0.0121923
0.012173
0.0121506
0.0121252
0.0120926
0.0120551
0.0120107
0.0119632
0.0119107
0.0118555
0.0119239
0.0120182
0.0121091
0.0121957
0.0122802
0.0123626
0.0124434
0.0125227
0.0126001
0.012675
0.0127468
0.0128164
0.0128842
0.0129487
0.0130084
0.0130651
0.0131208
0.0131749
0.0132265
0.0132728
0.0133139
0.0133525
0.0133874
0.0134186
0.0134469
0.0134722
0.0134949
0.0135121
0.0135251
0.0135363
0.0135488
0.0135585
0.0135687
0.013577
0.013587
0.0135951
0.013597
0.0135936
0.0135877
0.0135807
0.0135716
0.0135592
0.0135426
0.0135246
0.0135067
0.0134912
0.0134721
0.0134541
0.0134345
0.0134197
0.0134046
0.0133837
0.0133627
0.0133401
0.0133163
0.0132839
0.0132474
0.0132025
0.013155
0.013102
0.0130462
0.0129978
0.0130879
0.0131775
0.0132539
0.0133318
0.0134039
0.0134826
0.0135514
0.013623
0.0136991
0.0137702
0.0138307
0.0138985
0.0139667
0.0140264
0.0140779
0.014126
0.0141757
0.0142307
0.014281
0.0143202
0.0143608
0.0143998
0.0144296
0.0144542
0.0144756
0.0144984
0.0145166
0.0145233
0.0145257
0.014531
0.0145307
0.0145326
0.0145309
0.0145371
0.0145454
0.0145453
0.014533
0.0145175
0.0145016
0.0144851
0.014472
0.014448
0.0144208
0.0143982
0.014377
0.0143532
0.0143276
0.014302
0.0142813
0.0142628
0.0142351
0.0142063
0.0141832
0.0141571
0.0141275
0.0140908
0.0140492
0.0139996
0.0139485
0.0138898
0.000329052
0.000331643
0.000334322
0.000337073
0.000339853
0.000342625
0.000345384
0.000348166
0.00035107
0.000354698
0.000357746
0.00036085
0.000363966
0.000367078
0.000370215
0.00037339
0.000376584
0.000379771
0.000382958
0.000386161
0.000389357
0.000392544
0.000395732
0.0003989
0.000402032
0.000405135
0.000408213
0.000411253
0.000414237
0.000417167
0.000420034
0.000422829
0.000425537
0.000428163
0.000430685
0.000433101
0.0004354
0.000437513
0.0004393
0.000440652
0.000441625
0.000442217
0.000442425
0.00044225
0.000441646
0.000440563
0.000438979
0.000436855
0.000434101
0.000430599
0.000426264
0.000420993
0.000414574
0.000406812
0.000397469
0.000386198
0.000372748
0.000347392
0.000332733
0.000326647
0.00032541
0.00152963
0.00150354
0.00147767
0.00145214
0.00142679
0.00140262
0.00137674
0.0013506
0.00132441
0.00129455
0.00126624
0.00123878
0.00121214
0.00118617
0.00116061
0.00113534
0.00111014
0.00108497
0.00105983
0.00103478
0.00100988
0.00098508
0.000960425
0.000935953
0.0009117
0.000887732
0.000864052
0.000840739
0.000817792
0.000795239
0.000773128
0.000751486
0.000730304
0.00070962
0.000689484
0.000669904
0.000650993
0.000632816
0.000613985
0.000593465
0.000572715
0.000552808
0.000533741
0.000515675
0.000498639
0.00048277
0.000468263
0.000455286
0.00044399
0.000434599
0.000427366
0.000422592
0.000420533
0.000421599
0.000426206
0.000434935
0.000446396
0.00046767
0.00050299
0.000558363
0.000647409
0.00376053
0.0037185
0.00367685
0.00363495
0.00359246
0.00354887
0.00350421
0.00346048
0.00341637
0.00337055
0.00332332
0.0032758
0.00322855
0.00318155
0.00313428
0.00308644
0.00303756
0.0029877
0.00293685
0.00288524
0.00283284
0.00277959
0.00272554
0.00267078
0.00261536
0.00255941
0.00250299
0.00244618
0.00238893
0.00233136
0.00227338
0.00221498
0.0021562
0.00209692
0.00203717
0.00197692
0.0019162
0.00185499
0.00179266
0.00172834
0.00165976
0.00157999
0.00149573
0.00140861
0.00131953
0.00122936
0.00113931
0.0010503
0.000963679
0.000880827
0.000803224
0.000732487
0.000669732
0.000616879
0.000574617
0.000544076
0.00052506
0.000520671
0.000534728
0.000572021
0.000643364
0.0061634
0.00611575
0.00606871
0.00602153
0.00597292
0.00592247
0.00587221
0.00582295
0.00577331
0.00572219
0.00566833
0.00561315
0.00555754
0.00550166
0.00544476
0.00538629
0.00532558
0.00526281
0.00519815
0.00513184
0.00506396
0.00499413
0.00492262
0.00484959
0.00477513
0.00469937
0.0046224
0.00454434
0.00446504
0.00438445
0.0043025
0.00421913
0.00413417
0.00404759
0.00395935
0.00386938
0.0037776
0.00368396
0.00358818
0.00348977
0.00338761
0.00327883
0.00315331
0.00301604
0.00286848
0.00271074
0.00254324
0.00236645
0.00218148
0.00199051
0.0017955
0.00160125
0.00141208
0.00123455
0.00107322
0.000933267
0.00081797
0.000730796
0.000674693
0.000650525
0.00066131
0.00836613
0.00831489
0.00826482
0.00821564
0.00816445
0.00811182
0.00805941
0.00800815
0.00795629
0.00790299
0.00784587
0.00778674
0.00772641
0.00766554
0.00760307
0.0075378
0.00746898
0.00739741
0.00732328
0.00724706
0.00716865
0.00708753
0.00700421
0.00691909
0.00683214
0.00674375
0.00665381
0.00656237
0.0064691
0.00637389
0.00627649
0.00617685
0.00607484
0.00597042
0.00586352
0.00575414
0.00564224
0.00552772
0.00541039
0.00529
0.00516603
0.00503735
0.00490053
0.00474546
0.00457744
0.00439547
0.00419835
0.00398485
0.00375357
0.00350443
0.00323674
0.00295151
0.00265225
0.00234544
0.00203989
0.00174621
0.00147809
0.00124805
0.00106506
0.00093165
0.00084603
0.0102547
0.0102
0.0101472
0.0100963
0.0100436
0.00998988
0.00993561
0.00988321
0.00983029
0.00977617
0.00971672
0.00965439
0.00959008
0.0095253
0.00945781
0.00938666
0.00931052
0.00923157
0.00914968
0.00906571
0.00897933
0.00888945
0.00879767
0.00870465
0.00860992
0.008514
0.00841646
0.00831727
0.00821561
0.0081114
0.0080042
0.00789417
0.0077812
0.00766545
0.00754675
0.0074253
0.00730097
0.00717375
0.0070435
0.00691011
0.00677324
0.00663248
0.00648636
0.00633012
0.00615699
0.00597048
0.00576812
0.005549
0.00531053
0.00505021
0.00476583
0.00445462
0.00411496
0.00374827
0.00335727
0.00295138
0.00254533
0.00215892
0.00181363
0.00152536
0.00129849
0.0117955
0.0117372
0.0116814
0.0116291
0.0115744
0.0115195
0.0114636
0.0114107
0.0113576
0.0113035
0.0112412
0.0111752
0.0111065
0.0110379
0.0109653
0.0108884
0.0108047
0.0107188
0.0106301
0.0105399
0.0104475
0.0103508
0.0102538
0.0101571
0.0100589
0.00996017
0.00985943
0.00975709
0.00965111
0.00954183
0.00942852
0.00931228
0.00919271
0.00907058
0.0089454
0.00881762
0.00868687
0.00855345
0.00841716
0.00827825
0.00813633
0.00799124
0.00784239
0.00768734
0.00751855
0.00733678
0.00714015
0.00692733
0.00669639
0.00644518
0.00617066
0.00586934
0.00553807
0.00517264
0.00477137
0.00433476
0.00386902
0.00338942
0.00291789
0.00247875
0.00209136
0.0129829
0.0129203
0.0128613
0.0128072
0.0127506
0.0126944
0.0126377
0.0125845
0.012532
0.012478
0.0124122
0.0123411
0.0122673
0.0121945
0.0121158
0.0120322
0.0119403
0.0118477
0.0117532
0.0116589
0.0115625
0.0114612
0.0113629
0.0112676
0.0111706
0.011073
0.0109726
0.0108706
0.0107626
0.0106503
0.0105327
0.0104134
0.0102905
0.0101663
0.0100389
0.0099097
0.00977719
0.00964323
0.00950717
0.0093701
0.00923092
0.00908979
0.00894587
0.0087978
0.00864179
0.00846956
0.00828285
0.00808095
0.00786301
0.00762738
0.00737246
0.00709511
0.0067913
0.00645659
0.00608631
0.00567624
0.0052252
0.00473651
0.00422223
0.00370112
0.00319645
0.0138278
0.0137577
0.0136967
0.0136384
0.013582
0.0135236
0.0134691
0.0134133
0.0133634
0.0133058
0.0132394
0.0131596
0.0130818
0.0130008
0.0129156
0.012821
0.0127239
0.0126231
0.0125259
0.0124321
0.0123334
0.0122329
0.0121378
0.0120475
0.0119574
0.0118619
0.0117658
0.0116638
0.0115553
0.0114388
0.011319
0.0111995
0.0110759
0.0109528
0.0108277
0.010701
0.0105707
0.0104435
0.0103153
0.0101902
0.0100621
0.00993387
0.00980299
0.00966797
0.00952675
0.00937038
0.00919672
0.00900651
0.00880395
0.00859179
0.00836211
0.00811746
0.00784783
0.00755466
0.00722823
0.00687027
0.00646836
0.00602643
0.0055394
0.00501635
0.00447447
0.000326143
0.00032531
0.00032231
0.000318758
0.000314798
0.000310671
0.000306662
0.000302904
0.000299467
0.000296431
0.000293851
0.0002918
0.000290268
0.000289203
0.000288495
0.000288062
0.000287789
0.000287599
0.000287487
0.000287469
0.000287539
0.000287699
0.000287954
0.000288276
0.000288648
0.000289066
0.00028952
0.000289989
0.000290454
0.000290911
0.000291335
0.000291708
0.000292001
0.000292197
0.000292256
0.000292157
0.000291877
0.000291371
0.00029059
0.000289496
0.000288076
0.000286277
0.000284094
0.000281513
0.00027854
0.000275222
0.000271652
0.00026799
0.000264374
0.000260971
0.000257934
0.000255382
0.00025329
0.000251612
0.000250254
0.000249116
0.000248082
0.000247051
0.000246008
0.000244957
0.000243934
0.000801589
0.000949581
0.001037
0.0011115
0.00116904
0.00120316
0.00122425
0.00123453
0.00123429
0.00122688
0.00121371
0.00119703
0.00117737
0.00115444
0.00113705
0.00112336
0.00111122
0.00109936
0.00108778
0.00107721
0.00106862
0.00106286
0.00106025
0.00106077
0.00106412
0.00107001
0.0010783
0.00108852
0.00110015
0.00111235
0.00112511
0.00113856
0.00115221
0.00116567
0.00117841
0.00118981
0.00119947
0.00120693
0.00121159
0.00121275
0.00120987
0.00120241
0.00118971
0.00117075
0.00114467
0.00111032
0.00106687
0.00101396
0.00095202
0.000882582
0.000809001
0.000736166
0.000669144
0.000611469
0.000565435
0.000530614
0.000505489
0.000487538
0.000475052
0.000466704
0.000461825
0.000773978
0.000962645
0.00116837
0.00138503
0.00162128
0.00178888
0.00192949
0.0020539
0.00215138
0.00222743
0.0022854
0.00232576
0.00235193
0.00236385
0.00236561
0.00237097
0.00237504
0.00237639
0.00237487
0.00237188
0.00236993
0.00237158
0.00237855
0.0023914
0.00240998
0.00243404
0.00246347
0.00249593
0.00253086
0.00256873
0.00260918
0.00265161
0.00269492
0.00273798
0.00277939
0.00281793
0.00285229
0.00288127
0.00290347
0.00291742
0.00292178
0.0029149
0.00289557
0.00286205
0.00281254
0.00274514
0.0026578
0.00254904
0.00241759
0.00226396
0.00209123
0.00190652
0.0017213
0.00154771
0.00139949
0.00128211
0.00119704
0.00113823
0.00110088
0.00107898
0.00106884
0.000718296
0.000835006
0.00101179
0.00124706
0.0015345
0.00182151
0.00209965
0.00238782
0.00262221
0.00282272
0.00300576
0.00315843
0.00328963
0.00340184
0.00349468
0.00357186
0.00364505
0.00371088
0.00376854
0.00381879
0.00386444
0.00390939
0.00395686
0.00400882
0.00406602
0.00412892
0.00419542
0.00426644
0.00434236
0.00442311
0.00450842
0.00459727
0.00468821
0.00477932
0.00486864
0.00495413
0.00503358
0.00510506
0.00516605
0.00521433
0.00524716
0.00526213
0.0052563
0.00522701
0.00517081
0.00508388
0.00496233
0.00480164
0.00459746
0.00434701
0.0040516
0.00371758
0.00336133
0.00300667
0.00268278
0.00241141
0.00220341
0.00205617
0.0019591
0.00189923
0.00186495
0.000808555
0.000825041
0.000903055
0.00105113
0.00127667
0.00156515
0.00189623
0.00225263
0.00259718
0.00292557
0.00326122
0.00353053
0.00377693
0.00400758
0.00421759
0.00441617
0.00460144
0.00477917
0.00494811
0.00510573
0.00525239
0.0053907
0.00552414
0.00565573
0.00578745
0.00591776
0.00604956
0.00618541
0.0063262
0.00647214
0.00662303
0.00677836
0.00693638
0.00709513
0.00725184
0.00740393
0.00754862
0.00768254
0.00780278
0.00790517
0.00798629
0.00804135
0.00806651
0.00805609
0.00800466
0.0079061
0.00775252
0.00753648
0.00725025
0.00688743
0.00644714
0.0059367
0.00537604
0.00479993
0.00425257
0.00377535
0.0033944
0.00311487
0.00292401
0.00280111
0.00272556
0.00113287
0.001028
0.000986409
0.00101291
0.00111591
0.0013004
0.00156592
0.00190352
0.00228541
0.00268432
0.00308505
0.00345905
0.00382387
0.00417315
0.00448557
0.0048008
0.00511493
0.00542931
0.00574234
0.00604862
0.00634394
0.00662506
0.0068928
0.00714868
0.0073937
0.00763127
0.00786498
0.0080982
0.00833303
0.00857036
0.00881113
0.00905476
0.00930092
0.00954659
0.00978978
0.0100267
0.0102538
0.0104675
0.0106627
0.0108352
0.0109783
0.0110865
0.011152
0.0111674
0.0111239
0.0110126
0.0108238
0.0105442
0.0101648
0.00967634
0.00907764
0.00837699
0.00759934
0.0067872
0.00599739
0.00528808
0.00470272
0.00425849
0.00394562
0.00373825
0.00360691
0.0017671
0.00151092
0.00132544
0.00121268
0.00117615
0.00122072
0.00135185
0.00157363
0.00188141
0.00225905
0.00268154
0.00311478
0.00354135
0.00395242
0.00435094
0.00477903
0.00519877
0.00563642
0.00609747
0.00656827
0.00703999
0.00749732
0.00793625
0.00835606
0.00875783
0.00914406
0.00951799
0.00988391
0.0102448
0.0106027
0.0109594
0.0113156
0.0116704
0.0120236
0.0123709
0.0127091
0.0130344
0.0133404
0.0136248
0.0138781
0.0140946
0.0142628
0.0143749
0.0144183
0.0143827
0.0142578
0.014029
0.0136826
0.0132062
0.0125903
0.011834
0.0109476
0.00995844
0.00891515
0.00788256
0.006933
0.00612527
0.00549233
0.00503242
0.00471973
0.00451697
0.00272914
0.00231653
0.00197027
0.00169834
0.00150576
0.00139665
0.0013744
0.00144326
0.0016068
0.00186454
0.00220787
0.00261539
0.00306086
0.00351709
0.00397098
0.00443585
0.00492247
0.00546464
0.00605701
0.00667262
0.00732023
0.00796226
0.00859169
0.00920276
0.00979272
0.010362
0.0109106
0.011443
0.0119615
0.012469
0.0129695
0.0134615
0.0139483
0.0144269
0.0148962
0.0153514
0.0157876
0.0161991
0.0165818
0.016927
0.0172252
0.0174611
0.0176259
0.0177013
0.0176776
0.0175377
0.0172734
0.0168621
0.0162981
0.0155646
0.0146671
0.0136129
0.0124321
0.0111754
0.00991098
0.00872368
0.0076829
0.00684266
0.00621129
0.00577068
0.00547704
0.0039286
0.00340483
0.0029221
0.00249413
0.00213686
0.00186056
0.00167275
0.00157697
0.00157615
0.0016729
0.00186706
0.00215405
0.00252294
0.00295419
0.00342815
0.00394269
0.00448262
0.00506911
0.00570673
0.00643321
0.00724666
0.00804669
0.0088549
0.00965883
0.0104488
0.0112216
0.0119701
0.0126966
0.0133987
0.0140819
0.0147541
0.0154058
0.0160436
0.0166681
0.0172748
0.0178633
0.0184258
0.0189459
0.0194429
0.0198899
0.0202773
0.0205945
0.0208181
0.0209339
0.0209324
0.0207828
0.0204982
0.0200328
0.0194039
0.0185714
0.0175635
0.0163705
0.0150274
0.0135857
0.0121029
0.0106922
0.00940796
0.00834844
0.00751744
0.0069272
0.00651647
0.00220315
0.0120325
0.0119403
0.00165051
0.00213405
0.00552495
0.00124711
0.00479176
0.00125285
0.00320084
0.0261166
0.0123884
0.00124694
0.0145989
0.00512771
0.0147341
0.00125119
0.00458449
0.0242391
0.00125025
0.001641
0.0152913
0.0125718
0.00126741
0.00124977
0.00447298
0.00125004
0.00338993
0.00124983
0.00125295
0.0104134
0.00125321
0.00273166
0.0205004
0.0113977
0.0223973
0.0191501
0.0129123
0.00124468
0.0257144
0.00611652
0.00742049
0.00124263
0.0142287
0.00668083
0.00818224
0.00124531
0.00171979
0.0076475
0.0127774
0.00923981
0.0108142
0.00124326
0.00126975
0.00257301
0.00120204
0.00125263
0.00533596
0.0214775
0.0120551
0.00574095
0.00128266
0.00253379
0.00249176
0.0126049
0.000357631
0.0211861
0.00352132
0.00149712
0.00124178
0.023765
0.0134289
0.00591244
0.00123301
0.00306488
0.0388086
0.0122718
0.0151045
0.00124229
0.0121799
0.00153886
0.0209447
0.000585246
0.0155823
0.00124184
0.0114412
0.00125202
0.029441
0.00209939
0.00135569
0.00382165
0.00124201
0.00127363
0.0117254
0.0128139
0.00126211
0.00913362
0.00573362
0.00173443
0.0137426
0.000529912
0.072848
0.00839722
0.00124171
0.00124204
0.00124267
0.00576886
0.0056768
0.00125778
0.0136896
0.0136645
0.00184203
0.00932845
0.017788
0.00653414
0.0304137
0.0236845
0.0014063
0.00455752
0.00125678
0.00124246
0.00685395
0.000774656
0.0127622
0.00951098
0.0025984
0.00124205
0.0102318
0.0107234
0.00124232
0.0035964
0.00254687
0.00304957
0.00128429
0.0322044
0.0012426
0.00124189
0.00986604
0.0110355
0.00124297
0.00353914
0.0132348
0.00414006
0.00815602
0.0200196
0.0163796
0.00297781
0.021938
0.00215725
0.0125184
0.0430948
0.00111261
0.0136166
0.015553
0.0131623
0.00124568
0.00124443
0.00625824
0.00124293
0.0187941
0.000861449
0.00157374
0.00124407
0.00124228
0.00124248
0.0151833
0.00441558
0.00756086
0.00128471
0.0127875
0.00671388
0.00199055
0.020793
0.00269801
0.0113427
0.0125242
0.0279003
0.00124323
0.0014944
0.00526252
0.0307056
0.00735075
0.011534
0.0012426
0.00125708
0.0105621
0.00270158
0.0103237
0.00124385
0.00124447
0.00532214
0.00128272
0.0114172
0.0077029
0.00124236
0.00663193
0.0037377
0.0113226
0.00149856
0.0134606
0.00124276
0.0012438
0.0477469
0.0115641
0.0120953
0.00150968
0.0012525
0.00197516
0.0113951
0.0116125
0.0105761
0.0111834
0.051586
0.0137716
0.00409838
0.0150853
0.0130954
0.0067068
0.0132755
0.0302785
0.00126835
0.00370648
0.00124283
0.00124908
0.0248248
0.0020877
0.00219099
0.00117438
0.00262696
0.0137037
0.0135562
0.0029895
0.0117436
0.0109297
0.0402668
0.00124348
0.00239022
0.0138566
0.0102558
0.00145657
0.0454134
0.00286084
0.00364521
0.0112334
0.013197
0.00776947
0.00474178
0.014632
0.00135343
0.00124241
0.0013058
0.00236729
0.0232651
0.00124769
0.000975881
0.001244
0.007066
0.0520613
0.0372812
0.0342039
0.0470249
0.0133359
0.0115056
0.0015047
0.0185607
0.020119
0.00124198
0.00718055
0.00124181
0.00609775
0.00703139
0.00803355
0.0014561
0.0012425
0.0139575
0.00337864
0.0012426
0.0012432
0.00124576
0.00125186
0.00888358
0.00763029
0.0137123
0.00211808
0.00124261
0.00124299
0.0012419
0.015414
0.00187436
0.00134101
0.00884927
0.00509307
0.00215635
0.00124224
0.00725814
0.00124253
0.00119294
0.00502737
0.00773105
0.0175373
0.00125588
0.00137822
0.014931
0.00330144
0.0027674
0.0116033
0.00127813
0.00124202
0.0012436
0.0151437
0.0012474
0.0109133
0.00124246
0.00853754
0.0483613
0.00297144
0.00786914
0.0108173
0.00135993
0.0332751
0.0189464
0.00334105
0.0481715
0.057669
0.0110666
0.0349193
0.0540663
0.0192789
0.0142544
0.00584048
0.00477478
0.011236
0.0126748
0.031992
0.0304182
0.00141086
0.0128251
0.00804842
0.0142973
0.00314958
0.00127311
0.00124206
0.00125695
0.00409938
0.00929818
0.0129779
0.00466886
0.00124572
0.0135589
0.001242
0.0163099
0.0102259
0.0142704
0.0244139
0.0123803
0.00134261
0.00130594
0.00170791
0.0176781
0.00160656
0.00674274
0.0104578
0.0255298
0.0156592
0.0126855
0.0222976
0.00125372
0.0127934
0.0127621
0.00367623
0.00124412
0.0126034
0.013246
0.00125013
0.028704
0.00124479
0.00876731
0.0273983
0.0280245
0.0149521
0.00768139
0.0138084
0.00126496
0.0140383
0.00129116
0.0365418
0.0152978
0.0283711
0.0129022
0.0101135
0.00735832
0.0097503
0.0013025
0.00388883
0.00314435
0.0018869
0.0011107
0.00774941
0.00129104
0.0157277
0.00124364
0.00124632
0.00177142
0.0101781
0.0034586
0.0100368
0.00120772
0.0147819
0.00601557
0.0122192
0.0111902
0.0119404
0.00955478
0.0012928
0.0130887
0.0152757
0.00124209
0.015265
0.0106962
0.00124277
0.00124212
0.0212378
0.00193127
0.0147243
0.00177339
0.0133944
0.00322972
0.00683292
0.0113497
0.0279695
0.0116296
0.0201498
0.0125121
0.00140713
0.00167572
0.0204061
0.0058315
0.0115581
0.0101692
0.0115183
0.00308748
0.0133911
0.0133513
0.00660277
0.00312017
0.0111072
0.0107217
0.00132201
0.0155885
0.0103045
0.00135205
0.0215774
0.0142406
0.0111367
0.00249331
0.00310035
0.0132549
0.0013391
0.0116042
0.00133769
0.00361697
0.00124701
0.010832
0.00291756
0.00726314
0.0013427
0.00138324
0.0196409
0.0211783
0.00043593
0.0028296
0.010855
0.0025377
0.00124852
0.0127916
0.0221463
0.0319966
0.0185711
0.00353479
0.0295038
0.0345814
0.0154848
0.00203201
0.0082343
0.0123924
0.00729601
0.0108856
0.0143139
0.00139201
0.00775413
0.0298946
0.00128917
0.00366105
0.0184437
0.0516894
0.00295096
0.0456342
0.00527338
0.00775081
0.00742573
0.00163432
0.001242
0.00109318
0.0747597
0.0128847
0.0198387
0.00124212
0.00124801
0.00124217
0.0232099
0.00281633
0.00124221
0.00388213