/*--------------------------------*- C++ -*----------------------------------*\
| =========                 |                                                 |
| \\      /  F ield         | OpenFOAM: The Open Source CFD Toolbox           |
|  \\    /   O peration     | Version:  2.3.1                                 |
|   \\  /    A nd           | Web:      www.OpenFOAM.org                      |
|    \\/     M anipulation  |                                                 |
\*---------------------------------------------------------------------------*/
FoamFile
{
    version     2.0;
    format      ascii;
    class       volScalarField;
    location    "0.8";
    object      k;
}
// * * * * * * * * * * * * * * * * * * * * * * * * * * * * * * * * * * * * * //

dimensions      [0 2 -2 0 0 0 0];

internalField   nonuniform List<scalar> 
1000
(
0.0022909
0.00234437
0.00234593
0.00234589
0.00234586
0.00234585
0.00234583
0.00234583
0.00234565
0.00234119
0.00234655
0.00236102
0.00236217
0.00236221
0.00236221
0.0023622
0.00236218
0.00236212
0.00236097
0.00234396
0.00235155
0.00236615
0.00236751
0.0023676
0.00236761
0.0023676
0.00236756
0.00236746
0.0023661
0.00234714
0.00235568
0.0023717
0.00237327
0.00237344
0.00237349
0.00237348
0.00237341
0.00237325
0.00237172
0.00235146
0.00235937
0.0023779
0.00237973
0.00237998
0.00238006
0.00238005
0.00237999
0.00237976
0.00237805
0.00235533
0.00234529
0.00235739
0.00235858
0.00235874
0.00235879
0.00235881
0.00235881
0.00235878
0.00235784
0.00234385
0.00235903
0.00267615
0.00269889
0.00270018
0.00270028
0.00270031
0.00270031
0.00269952
0.00267929
0.00235674
0.00236294
0.00270355
0.00272863
0.00273003
0.00273011
0.00273012
0.00273007
0.00272911
0.00270663
0.0023606
0.00236677
0.00270676
0.00273208
0.0027335
0.00273359
0.00273359
0.00273354
0.00273254
0.00270975
0.00236445
0.00237077
0.00271427
0.00274072
0.00274257
0.00274283
0.00274284
0.00274264
0.00274124
0.00271735
0.00236851
0.00234965
0.00236061
0.0023618
0.00236195
0.00236201
0.00236204
0.00236205
0.00236202
0.00236097
0.00234608
0.00236171
0.00269895
0.00272368
0.00272506
0.00272515
0.00272518
0.00272517
0.00272428
0.00270219
0.00235959
0.00236515
0.00272749
0.00275493
0.00275649
0.00275658
0.00275658
0.00275654
0.00275546
0.00273089
0.00236309
0.00236847
0.00273055
0.00275829
0.00275989
0.00275998
0.00275998
0.00275993
0.0027588
0.0027339
0.00236639
0.0023724
0.00273402
0.00276235
0.00276417
0.00276435
0.00276434
0.00276421
0.00276288
0.00273739
0.00237034
0.00235145
0.00236234
0.00236348
0.00236361
0.00236366
0.00236369
0.0023637
0.00236366
0.00236261
0.00234766
0.00236319
0.00270134
0.00272608
0.00272744
0.00272752
0.00272753
0.00272752
0.00272661
0.00270437
0.00236104
0.00236624
0.00272874
0.0027562
0.00275774
0.00275782
0.00275782
0.00275779
0.00275671
0.00273207
0.0023642
0.00236914
0.00273154
0.00275928
0.00276088
0.00276097
0.00276097
0.00276091
0.00275978
0.00273487
0.00236708
0.00237281
0.00273316
0.00276113
0.0027628
0.00276292
0.00276291
0.00276283
0.00276163
0.00273647
0.00237073
0.00235243
0.00236328
0.0023644
0.0023645
0.00236455
0.00236457
0.00236457
0.00236453
0.00236347
0.00234848
0.00236405
0.00270271
0.00272745
0.00272879
0.00272886
0.00272887
0.00272886
0.00272793
0.00270563
0.00236183
0.00236686
0.00272888
0.00275625
0.00275779
0.00275787
0.00275787
0.00275784
0.00275675
0.00273216
0.00236478
0.00236954
0.00273145
0.00275906
0.00276064
0.00276073
0.00276073
0.00276068
0.00275955
0.00273474
0.00236745
0.00237299
0.00273254
0.0027602
0.0027618
0.0027619
0.0027619
0.00276183
0.00276068
0.0027358
0.00237088
0.00235258
0.00236378
0.00236491
0.00236501
0.00236505
0.00236507
0.00236507
0.00236502
0.00236393
0.00234855
0.00236425
0.00270371
0.00272846
0.00272979
0.00272986
0.00272986
0.00272984
0.0027289
0.00270654
0.00236198
0.00236707
0.00272914
0.00275647
0.00275801
0.00275809
0.00275809
0.00275805
0.00275697
0.00273237
0.00236497
0.00236981
0.00273163
0.00275916
0.00276074
0.00276084
0.00276084
0.00276078
0.00275965
0.00273487
0.00236769
0.0023733
0.00273278
0.0027603
0.0027619
0.002762
0.002762
0.00276193
0.00276077
0.00273598
0.00237116
0.00235195
0.00236401
0.00236521
0.00236531
0.00236535
0.00236537
0.00236536
0.00236529
0.00236414
0.00234788
0.00236383
0.00270412
0.00272889
0.00273023
0.00273029
0.0027303
0.00273027
0.00272932
0.00270693
0.00236151
0.00236694
0.00272952
0.00275685
0.0027584
0.00275848
0.00275849
0.00275844
0.00275734
0.00273273
0.0023648
0.00237006
0.00273214
0.00275967
0.00276127
0.00276137
0.00276137
0.00276131
0.00276015
0.00273535
0.00236789
0.00237395
0.00273377
0.00276135
0.002763
0.00276313
0.00276313
0.00276303
0.00276182
0.00273694
0.00237176
0.00235053
0.00236338
0.00236463
0.00236475
0.00236478
0.0023648
0.00236478
0.0023647
0.00236348
0.00234642
0.00236271
0.00270327
0.00272795
0.00272929
0.00272936
0.00272937
0.00272934
0.00272838
0.00270605
0.00236035
0.00236631
0.00272847
0.00275566
0.00275721
0.0027573
0.00275731
0.00275726
0.00275615
0.00273164
0.00236411
0.00237003
0.00273112
0.00275849
0.0027601
0.00276021
0.00276021
0.00276014
0.00275897
0.00273428
0.00236781
0.00237467
0.00273362
0.00276116
0.00276291
0.00276308
0.00276308
0.00276294
0.00276161
0.00273671
0.00237242
0.0023482
0.00236065
0.00236182
0.00236193
0.00236197
0.00236197
0.00236195
0.00236187
0.00236072
0.00234406
0.00236
0.00267867
0.00270117
0.00270236
0.00270241
0.00270241
0.00270238
0.00270153
0.00268109
0.00235747
0.0023641
0.00270068
0.00272526
0.00272661
0.00272667
0.00272668
0.00272664
0.00272566
0.00270343
0.00236171
0.00236852
0.00270162
0.00272617
0.00272756
0.00272763
0.00272764
0.00272758
0.00272656
0.00270431
0.00236608
0.00237429
0.00270344
0.00272812
0.00272975
0.00272991
0.00272991
0.00272975
0.00272847
0.00270601
0.00237179
0.00234142
0.0023419
0.00234196
0.00234198
0.00234199
0.002342
0.00234199
0.00234197
0.00234178
0.00233702
0.00234463
0.00235612
0.00235727
0.00235738
0.00235741
0.00235742
0.00235739
0.0023573
0.00235619
0.00234035
0.00234855
0.00236111
0.0023625
0.00236268
0.00236274
0.00236275
0.00236269
0.00236253
0.0023612
0.00234428
0.0023538
0.00236661
0.00236817
0.00236845
0.00236855
0.00236856
0.00236845
0.00236818
0.00236666
0.00234952
0.00236193
0.00237566
0.00237756
0.002378
0.00237814
0.00237814
0.00237798
0.00237753
0.00237567
0.00235772
0.00238077
0.00240509
0.00240884
0.0024092
0.0024092
0.00240919
0.00240915
0.00240876
0.00240538
0.0023769
0.00244672
0.00269189
0.00272351
0.00271377
0.00270907
0.00270882
0.00271294
0.00272264
0.00269886
0.00244684
0.003106
0.00548719
0.00575575
0.00564073
0.00559506
0.00559276
0.00563271
0.00574743
0.00554567
0.00314364
0.00689505
0.0181083
0.0194774
0.019228
0.0191031
0.0190943
0.0191989
0.0194512
0.0183192
0.00707897
0.0179295
0.0512238
0.0559164
0.0560811
0.0559993
0.0559801
0.0560227
0.0558746
0.0517103
0.0183487
0.002383
0.00270403
0.00272837
0.00273002
0.00273014
0.00273013
0.00273001
0.00272865
0.00270649
0.00238054
0.00239512
0.00277458
0.00280886
0.00281239
0.00281243
0.0028124
0.00281234
0.00280927
0.00277856
0.00239308
0.00247668
0.00333774
0.00342947
0.00343041
0.00342831
0.00342809
0.00342966
0.00342979
0.00335024
0.00247883
0.00364165
0.00819243
0.00854807
0.0082392
0.00812492
0.00812133
0.00822783
0.00854177
0.00828648
0.00369809
0.0250328
0.0943654
0.101212
0.101366
0.101234
0.101212
0.101303
0.101208
0.0951542
0.0256883
0.00237948
0.00273666
0.00276474
0.00276682
0.00276711
0.00276711
0.00276684
0.00276518
0.00273975
0.00237731
0.00238595
0.0027401
0.00276861
0.00277066
0.00277077
0.00277077
0.00277068
0.00276905
0.0027434
0.00238392
0.00240185
0.00289859
0.00295058
0.00295969
0.0029616
0.00296162
0.00295982
0.00295166
0.00290485
0.00240065
0.00310355
0.00638224
0.00665914
0.0066586
0.00665326
0.00665263
0.00665737
0.00666299
0.00643432
0.00313512
0.0260304
0.096296
0.101452
0.101439
0.101317
0.101307
0.101415
0.101516
0.0971109
0.0267054
0.00237659
0.00273623
0.00276437
0.00276628
0.00276652
0.00276652
0.00276631
0.00276484
0.00273943
0.00237445
0.00238222
0.00273314
0.00276067
0.00276226
0.00276232
0.00276232
0.00276228
0.00276112
0.00273636
0.00238016
0.00239178
0.00280978
0.00284467
0.00284788
0.00284853
0.00284856
0.002848
0.00284546
0.00281452
0.0023904
0.00304075
0.0062161
0.00646932
0.00648757
0.00648937
0.00648925
0.0064878
0.0064755
0.00626696
0.00307005
0.0275019
0.102294
0.107433
0.107638
0.107602
0.107599
0.107637
0.107547
0.103195
0.0282449
0.00237495
0.00273479
0.00276285
0.00276468
0.00276489
0.00276489
0.00276472
0.00276333
0.00273803
0.00237283
0.00238034
0.00273115
0.00275855
0.00276006
0.00276011
0.00276011
0.00276008
0.00275902
0.00273437
0.00237828
0.0023875
0.00279012
0.00282306
0.00282566
0.00282614
0.00282616
0.00282578
0.0028238
0.0027946
0.00238599
0.00306304
0.00633601
0.00659346
0.00662261
0.00662975
0.00662989
0.00662385
0.00660194
0.00639098
0.00309501
0.0282221
0.104638
0.1098
0.110107
0.110114
0.110113
0.110119
0.109939
0.105577
0.0289998
0.00237464
0.00273551
0.00276393
0.00276584
0.00276606
0.00276607
0.00276587
0.00276445
0.00273882
0.00237253
0.00238047
0.0027307
0.00275872
0.00276029
0.00276034
0.00276034
0.00276032
0.00275921
0.00273399
0.00237842
0.00238864
0.00279521
0.00283046
0.00283378
0.00283439
0.00283441
0.00283388
0.00283123
0.00279984
0.00238714
0.00346395
0.00720157
0.00756998
0.00767767
0.00771528
0.00771601
0.00768231
0.00758494
0.00726851
0.00351387
0.0284696
0.104019
0.109055
0.109359
0.10937
0.109371
0.109376
0.109205
0.104959
0.0292667
0.00237542
0.00273877
0.00276791
0.00277001
0.00277031
0.00277031
0.00277006
0.00276847
0.00274219
0.00237337
0.00238194
0.00273233
0.00276178
0.0027636
0.00276369
0.00276369
0.00276365
0.00276233
0.00273575
0.00237989
0.00239676
0.00283864
0.0028802
0.00288659
0.0028883
0.00288833
0.00288682
0.00288123
0.00284391
0.00239555
0.00400405
0.00743901
0.00785859
0.00810501
0.00819933
0.00820171
0.00811562
0.00788119
0.00749481
0.0040715
0.0285409
0.100643
0.105287
0.105576
0.1056
0.105601
0.105602
0.105444
0.101533
0.029341
0.00237737
0.0027425
0.00277226
0.00277453
0.00277488
0.0027749
0.0027746
0.00277287
0.00274603
0.00237535
0.0023834
0.00274516
0.00277853
0.00278151
0.0027819
0.00278191
0.0027816
0.00277918
0.00274891
0.00238132
0.00241274
0.00293911
0.00299065
0.00300087
0.00300399
0.00300408
0.0030012
0.00299204
0.00294531
0.00241173
0.00411135
0.00634595
0.00668796
0.00679597
0.00683786
0.0068388
0.00680072
0.00670041
0.00639122
0.00415711
0.0274895
0.0894874
0.0932214
0.093649
0.0937651
0.0937703
0.0936871
0.0933724
0.090192
0.0282032
0.0023797
0.00272382
0.00275158
0.00275361
0.0027539
0.0027539
0.00275369
0.00275216
0.00272706
0.00237755
0.00238245
0.00277596
0.00281564
0.00282116
0.00282241
0.00282244
0.00282132
0.00281651
0.00278018
0.00238019
0.00242977
0.00306355
0.00312146
0.00313283
0.00313638
0.00313646
0.00313317
0.0031229
0.00306965
0.00242861
0.00321781
0.00533687
0.00562009
0.00565616
0.00566626
0.00566624
0.00565732
0.0056265
0.00537113
0.00324433
0.0224124
0.0640267
0.0663524
0.0667269
0.0668562
0.0668615
0.0667577
0.0664535
0.0644391
0.0228564
0.00236967
0.00239339
0.00239628
0.00239691
0.00239716
0.00239718
0.00239693
0.00239641
0.00239374
0.00236558
0.00236306
0.00240005
0.00240426
0.00240485
0.00240503
0.00240504
0.00240491
0.00240443
0.00240045
0.00235891
0.00243713
0.00249501
0.0025027
0.00250476
0.00250542
0.00250541
0.00250487
0.00250285
0.00249587
0.00243374
0.00269859
0.00317992
0.00325757
0.00327069
0.00327452
0.00327457
0.00327108
0.00325956
0.00318971
0.00270392
0.0106676
0.0180766
0.0185797
0.0187139
0.0187575
0.0187589
0.0187216
0.018602
0.0181594
0.0107753
)
;

boundaryField
{
    walls
    {
        type            kqRWallFunction;
        value           nonuniform List<scalar> 
500
(
0.0022909
0.0022909
0.0022909
0.00234437
0.00234437
0.00234593
0.00234593
0.00234589
0.00234589
0.00234586
0.00234586
0.00234585
0.00234585
0.00234583
0.00234583
0.00234583
0.00234583
0.00234565
0.00234565
0.00234119
0.00234119
0.00234119
0.00234655
0.00234655
0.00236102
0.00236217
0.00236221
0.00236221
0.0023622
0.00236218
0.00236212
0.00236097
0.00234396
0.00234396
0.00235155
0.00235155
0.00236615
0.00236751
0.0023676
0.00236761
0.0023676
0.00236756
0.00236746
0.0023661
0.00234714
0.00234714
0.00235568
0.00235568
0.0023717
0.00237327
0.00237344
0.00237349
0.00237348
0.00237341
0.00237325
0.00237172
0.00235146
0.00235146
0.00235937
0.00235937
0.0023779
0.00237973
0.00237998
0.00238006
0.00238005
0.00237999
0.00237976
0.00237805
0.00235533
0.00235533
0.00234529
0.00234529
0.00235739
0.00235858
0.00235874
0.00235879
0.00235881
0.00235881
0.00235878
0.00235784
0.00234385
0.00234385
0.00235903
0.00235674
0.00236294
0.0023606
0.00236677
0.00236445
0.00237077
0.00236851
0.00234965
0.00234965
0.00236061
0.0023618
0.00236195
0.00236201
0.00236204
0.00236205
0.00236202
0.00236097
0.00234608
0.00234608
0.00236171
0.00235959
0.00236515
0.00236309
0.00236847
0.00236639
0.0023724
0.00237034
0.00235145
0.00235145
0.00236234
0.00236348
0.00236361
0.00236366
0.00236369
0.0023637
0.00236366
0.00236261
0.00234766
0.00234766
0.00236319
0.00236104
0.00236624
0.0023642
0.00236914
0.00236708
0.00237281
0.00237073
0.00235243
0.00235243
0.00236328
0.0023644
0.0023645
0.00236455
0.00236457
0.00236457
0.00236453
0.00236347
0.00234848
0.00234848
0.00236405
0.00236183
0.00236686
0.00236478
0.00236954
0.00236745
0.00237299
0.00237088
0.00235258
0.00235258
0.00236378
0.00236491
0.00236501
0.00236505
0.00236507
0.00236507
0.00236502
0.00236393
0.00234855
0.00234855
0.00236425
0.00236198
0.00236707
0.00236497
0.00236981
0.00236769
0.0023733
0.00237116
0.00235195
0.00235195
0.00236401
0.00236521
0.00236531
0.00236535
0.00236537
0.00236536
0.00236529
0.00236414
0.00234788
0.00234788
0.00236383
0.00236151
0.00236694
0.0023648
0.00237006
0.00236789
0.00237395
0.00237176
0.00235053
0.00235053
0.00236338
0.00236463
0.00236475
0.00236478
0.0023648
0.00236478
0.0023647
0.00236348
0.00234642
0.00234642
0.00236271
0.00236035
0.00236631
0.00236411
0.00237003
0.00236781
0.00237467
0.00237242
0.0023482
0.0023482
0.00236065
0.00236182
0.00236193
0.00236197
0.00236197
0.00236195
0.00236187
0.00236072
0.00234406
0.00234406
0.00236
0.00235747
0.0023641
0.00236171
0.00236852
0.00236608
0.00237429
0.00237179
0.00234142
0.00234142
0.00234142
0.0023419
0.0023419
0.00234196
0.00234196
0.00234198
0.00234198
0.00234199
0.00234199
0.002342
0.002342
0.00234199
0.00234199
0.00234197
0.00234197
0.00234178
0.00234178
0.00233702
0.00233702
0.00233702
0.00234463
0.00234463
0.00235612
0.00235727
0.00235738
0.00235741
0.00235742
0.00235739
0.0023573
0.00235619
0.00234035
0.00234035
0.00234855
0.00234855
0.00236111
0.0023625
0.00236268
0.00236274
0.00236275
0.00236269
0.00236253
0.0023612
0.00234428
0.00234428
0.0023538
0.0023538
0.00236661
0.00236817
0.00236845
0.00236855
0.00236856
0.00236845
0.00236818
0.00236666
0.00234952
0.00234952
0.00236193
0.00236193
0.00237566
0.00237756
0.002378
0.00237814
0.00237814
0.00237798
0.00237753
0.00237567
0.00235772
0.00235772
0.00238077
0.00238077
0.00240509
0.00240884
0.0024092
0.0024092
0.00240919
0.00240915
0.00240876
0.00240538
0.0023769
0.0023769
0.00244672
0.00244672
0.00269189
0.00272351
0.00271377
0.00270907
0.00270882
0.00271294
0.00272264
0.00269886
0.00244684
0.00244684
0.003106
0.003106
0.00548719
0.00575575
0.00564073
0.00559506
0.00559276
0.00563271
0.00574743
0.00554567
0.00314364
0.00314364
0.00689505
0.00689505
0.0181083
0.0194774
0.019228
0.0191031
0.0190943
0.0191989
0.0194512
0.0183192
0.00707897
0.00707897
0.0179295
0.0179295
0.0512238
0.0559164
0.0560811
0.0559993
0.0559801
0.0560227
0.0558746
0.0517103
0.0183487
0.0183487
0.002383
0.00238054
0.00239512
0.00239308
0.00247668
0.00247883
0.00364165
0.00369809
0.0250328
0.0256883
0.00237948
0.00237731
0.00238595
0.00238392
0.00240185
0.00240065
0.00310355
0.00313512
0.0260304
0.0267054
0.00237659
0.00237445
0.00238222
0.00238016
0.00239178
0.0023904
0.00304075
0.00307005
0.0275019
0.0282449
0.00237495
0.00237283
0.00238034
0.00237828
0.0023875
0.00238599
0.00306304
0.00309501
0.0282221
0.0289998
0.00237464
0.00237253
0.00238047
0.00237842
0.00238864
0.00238714
0.00346395
0.00351387
0.0284696
0.0292667
0.00237542
0.00237337
0.00238194
0.00237989
0.00239676
0.00239555
0.00400405
0.0040715
0.0285409
0.029341
0.00237737
0.00237535
0.0023834
0.00238132
0.00241274
0.00241173
0.00411135
0.00415711
0.0274895
0.0282032
0.0023797
0.00237755
0.00238245
0.00238019
0.00242977
0.00242861
0.00321781
0.00324433
0.0224124
0.0228564
0.00236967
0.00236967
0.00239339
0.00239628
0.00239691
0.00239716
0.00239718
0.00239693
0.00239641
0.00239374
0.00236558
0.00236558
0.00236306
0.00236306
0.00240005
0.00240426
0.00240485
0.00240503
0.00240504
0.00240491
0.00240443
0.00240045
0.00235891
0.00235891
0.00243713
0.00243713
0.00249501
0.0025027
0.00250476
0.00250542
0.00250541
0.00250487
0.00250285
0.00249587
0.00243374
0.00243374
0.00269859
0.00269859
0.00317992
0.00325757
0.00327069
0.00327452
0.00327457
0.00327108
0.00325956
0.00318971
0.00270392
0.00270392
0.0106676
0.0106676
0.0180766
0.0185797
0.0187139
0.0187575
0.0187589
0.0187216
0.018602
0.0181594
0.0107753
0.0107753
)
;
    }
    lid
    {
        type            kqRWallFunction;
        value           nonuniform List<scalar> 
100
(
0.0179295
0.0512238
0.0559164
0.0560811
0.0559993
0.0559801
0.0560227
0.0558746
0.0517103
0.0183487
0.0250328
0.0943654
0.101212
0.101366
0.101234
0.101212
0.101303
0.101208
0.0951542
0.0256883
0.0260304
0.096296
0.101452
0.101439
0.101317
0.101307
0.101415
0.101516
0.0971109
0.0267054
0.0275019
0.102294
0.107433
0.107638
0.107602
0.107599
0.107637
0.107547
0.103195
0.0282449
0.0282221
0.104638
0.1098
0.110107
0.110114
0.110113
0.110119
0.109939
0.105577
0.0289998
0.0284696
0.104019
0.109055
0.109359
0.10937
0.109371
0.109376
0.109205
0.104959
0.0292667
0.0285409
0.100643
0.105287
0.105576
0.1056
0.105601
0.105602
0.105444
0.101533
0.029341
0.0274895
0.0894874
0.0932214
0.093649
0.0937651
0.0937703
0.0936871
0.0933724
0.090192
0.0282032
0.0224124
0.0640267
0.0663524
0.0667269
0.0668562
0.0668615
0.0667577
0.0664535
0.0644391
0.0228564
0.0106676
0.0180766
0.0185797
0.0187139
0.0187575
0.0187589
0.0187216
0.018602
0.0181594
0.0107753
)
;
    }
}


// ************************************************************************* //
