/*--------------------------------*- C++ -*----------------------------------*\
| =========                 |                                                 |
| \\      /  F ield         | OpenFOAM: The Open Source CFD Toolbox           |
|  \\    /   O peration     | Version:  2.3.1                                 |
|   \\  /    A nd           | Web:      www.OpenFOAM.org                      |
|    \\/     M anipulation  |                                                 |
\*---------------------------------------------------------------------------*/
FoamFile
{
    version     2.0;
    format      ascii;
    class       surfaceScalarField;
    location    "0.8";
    object      phi;
}
// * * * * * * * * * * * * * * * * * * * * * * * * * * * * * * * * * * * * * //

dimensions      [0 3 -1 0 0 0 0];

internalField   nonuniform List<scalar> 
2700
(
2.97058e-06
4.2882e-05
-3.93033e-05
2.53465e-06
4.15457e-05
-4.11543e-05
1.34774e-06
4.19463e-05
-4.08041e-05
8.35041e-07
4.18212e-05
-4.1351e-05
2.57747e-07
4.19736e-05
-4.14353e-05
-2.24941e-07
4.19421e-05
-4.14953e-05
-5.42715e-07
4.17692e-05
-4.14877e-05
-6.05687e-07
4.14894e-05
-4.14644e-05
-3.79529e-07
4.11901e-05
-4.14529e-05
4.09825e-05
-4.13776e-05
8.60573e-07
8.75487e-05
-4.55386e-05
1.27421e-06
8.7291e-05
-4.6176e-05
1.25065e-06
8.81628e-05
-4.62095e-05
8.17981e-07
8.86709e-05
-4.64277e-05
2.112e-07
8.90741e-05
-4.6502e-05
-3.85269e-07
8.90695e-05
-4.6536e-05
-7.87794e-07
8.86744e-05
-4.65109e-05
-8.07926e-07
8.79655e-05
-4.64708e-05
-4.03981e-07
8.71667e-05
-4.63899e-05
8.62726e-05
-4.56921e-05
1.37951e-06
0.000140465
-5.42651e-05
1.95522e-06
0.000142211
-5.54636e-05
1.88285e-06
0.000143905
-5.56305e-05
1.17381e-06
0.000145243
-5.58182e-05
2.02685e-07
0.000146014
-5.59205e-05
-7.63957e-07
0.00014603
-5.59466e-05
-1.45244e-06
0.000145294
-5.58945e-05
-1.54047e-06
0.000143901
-5.5813e-05
-9.50881e-07
0.000142288
-5.56803e-05
0.000140175
-5.48248e-05
2.11904e-06
0.000207842
-6.94906e-05
3.04512e-06
0.000211675
-7.03798e-05
2.89942e-06
0.000214532
-7.04572e-05
1.76752e-06
0.000216975
-7.05824e-05
2.09516e-07
0.000218276
-7.06827e-05
-1.35399e-06
0.000218314
-7.07047e-05
-2.50408e-06
0.000217094
-7.06443e-05
-2.7034e-06
0.000214695
-7.0578e-05
-1.85767e-06
0.000211968
-7.05204e-05
0.000208038
-6.97205e-05
7.15733e-06
-0.000101839
0.000302436
8.37469e-06
-0.000103991
0.000314365
6.97443e-06
-0.00010478
0.000320617
3.91702e-06
-0.000105357
0.00032528
2.89149e-07
-0.000105695
0.000327487
-3.34446e-06
-0.000105726
0.000327546
-6.40125e-06
-0.000105448
0.000325497
-7.84995e-06
-0.000104934
0.000320997
-6.78837e-06
-0.000104202
0.000315035
-0.000102103
0.000303275
6.78893e-07
3.67981e-05
-7.68105e-05
8.54116e-07
3.76603e-05
-7.90267e-05
8.89544e-07
3.82038e-05
-7.90828e-05
6.02929e-07
3.83553e-05
-7.94584e-05
1.84863e-07
3.85142e-05
-7.95688e-05
-2.35796e-07
3.85048e-05
-7.96133e-05
-5.39254e-07
3.83436e-05
-7.95622e-05
-6.56267e-07
3.80681e-05
-7.94539e-05
-5.31902e-07
3.7714e-05
-7.9326e-05
3.68378e-05
-7.87599e-05
6.49899e-07
7.69432e-05
-8.63369e-05
1.02544e-06
7.83734e-05
-8.72741e-05
1.08624e-06
7.93451e-05
-8.74186e-05
7.15944e-07
7.99857e-05
-8.76903e-05
1.7593e-07
8.03794e-05
-8.78268e-05
-3.74366e-07
8.03852e-05
-8.7863e-05
-7.70587e-07
8.00109e-05
-8.77847e-05
-8.70646e-07
7.93269e-05
-8.76359e-05
-6.07007e-07
7.85029e-05
-8.74441e-05
7.71375e-05
-8.6586e-05
1.39146e-06
0.000123707
-0.000102384
1.84526e-06
0.000126028
-0.000103525
1.73759e-06
0.000127734
-0.000103858
1.07839e-06
0.000129088
-0.000104207
1.8051e-07
0.000129829
-0.000104413
-7.25904e-07
0.000129849
-0.000104449
-1.40264e-06
0.00012915
-0.000104308
-1.60061e-06
0.000127808
-0.000104053
-1.19639e-06
0.000126211
-0.000103744
0.000123884
-0.000102729
2.66552e-06
0.00018009
-0.000128515
3.223e-06
0.00018502
-0.000129909
2.85652e-06
0.000188037
-0.000130364
1.70115e-06
0.000190506
-0.000130822
1.93812e-07
0.000191783
-0.000131108
-1.32229e-06
0.000191821
-0.000131143
-2.50586e-06
0.000190625
-0.00013093
-2.93703e-06
0.000188236
-0.000130543
-2.47136e-06
0.00018537
-0.000130131
0.000180489
-0.000128787
6.87472e-06
-0.000178459
0.000249802
7.86967e-06
-0.000180979
0.000260984
6.46501e-06
-0.000182441
0.000267052
3.61063e-06
-0.000183696
0.000271646
2.64336e-07
-0.000184404
0.00027378
-3.08791e-06
-0.000184463
0.000273838
-5.94364e-06
-0.000183856
0.000271855
-7.39312e-06
-0.000182711
0.00026743
-6.55569e-06
-0.000181346
0.000261655
-0.000178897
0.000250698
1.01097e-06
2.95543e-05
-0.0001074
9.60162e-07
2.98973e-05
-0.000108903
7.92695e-07
3.02104e-05
-0.000109159
4.89924e-07
3.03562e-05
-0.000109545
1.44601e-07
3.04743e-05
-0.000109729
-1.92578e-07
3.04695e-05
-0.000109775
-4.43623e-07
3.03375e-05
-0.000109679
-5.59535e-07
3.0108e-05
-0.00010948
-4.92526e-07
2.98048e-05
-0.000109228
2.90208e-05
-0.00010828
7.98182e-07
6.05591e-05
-0.000118141
9.7638e-07
6.16511e-05
-0.000119204
9.23959e-07
6.2391e-05
-0.000119544
5.89327e-07
6.29311e-05
-0.000119925
1.43245e-07
6.32465e-05
-0.000120144
-3.03874e-07
6.3251e-05
-0.000120187
-6.36083e-07
6.29418e-05
-0.00012005
-7.49823e-07
6.237e-05
-0.000119784
-5.76964e-07
6.16647e-05
-0.000119466
6.04104e-05
-0.000118532
1.28393e-06
9.57804e-05
-0.000138837
1.59381e-06
9.78943e-05
-0.000140027
1.44014e-06
9.93348e-05
-0.000140588
8.82702e-07
0.00010047
-0.000141126
1.45985e-07
0.000101079
-0.000141447
-5.94372e-07
0.000101096
-0.000141492
-1.16521e-06
0.000100512
-0.000141259
-1.37065e-06
9.93957e-05
-0.000140816
-1.09464e-06
9.80096e-05
-0.000140309
9.58439e-05
-0.000139208
2.43454e-06
0.000136633
-0.000171785
2.83692e-06
0.000141117
-0.000173492
2.43184e-06
0.000143803
-0.000174387
1.42517e-06
0.000145896
-0.000175209
1.58687e-07
0.000146965
-0.00017569
-1.11962e-06
0.000146989
-0.000175742
-2.14e-06
0.000145992
-0.000175353
-2.59313e-06
0.000143965
-0.000174629
-2.26926e-06
0.000141396
-0.000173804
0.000136951
-0.000172148
5.86478e-06
-0.000227046
0.000179414
6.49322e-06
-0.000230252
0.000189786
5.23764e-06
-0.000232401
0.000195041
2.90206e-06
-0.000234229
0.000198803
2.05026e-07
-0.000235241
0.000200519
-2.48106e-06
-0.000235307
0.000200568
-4.82406e-06
-0.000234447
0.000198962
-6.10695e-06
-0.000232756
0.00019534
-5.61145e-06
-0.000230742
0.000190329
-0.000227632
0.000180104
4.92205e-07
1.91188e-05
-0.000127029
5.05914e-07
1.94798e-05
-0.000128418
4.59577e-07
1.96778e-05
-0.000128815
2.96469e-07
1.98e-05
-0.000129205
9.54431e-08
1.98786e-05
-0.000129431
-1.02345e-07
1.98763e-05
-0.000129474
-2.56166e-07
1.97897e-05
-0.000129337
-3.36067e-07
1.96389e-05
-0.000129065
-3.08672e-07
1.94451e-05
-0.000128722
1.89815e-05
-0.000127571
4.51854e-07
3.94055e-05
-0.000138872
5.88755e-07
4.01612e-05
-0.000140017
5.66953e-07
4.06501e-05
-0.000140486
3.67869e-07
4.10254e-05
-0.000140941
9.78203e-08
4.12354e-05
-0.000141217
-1.74345e-07
4.1238e-05
-0.000141263
-3.81262e-07
4.103e-05
-0.000141075
-4.51629e-07
4.06473e-05
-0.000140714
-3.34094e-07
4.01725e-05
-0.000140296
3.93775e-05
-0.000139238
7.75077e-07
6.18431e-05
-0.000162016
1.01105e-06
6.32578e-05
-0.000163312
9.17956e-07
6.425e-05
-0.000164042
5.64956e-07
6.50264e-05
-0.000164723
9.9703e-08
6.544e-05
-0.000165131
-3.70507e-07
6.5448e-05
-0.000165181
-7.36011e-07
6.50529e-05
-0.000164869
-8.66784e-07
6.4289e-05
-0.000164282
-6.67266e-07
6.33334e-05
-0.000163615
6.19107e-05
-0.000162374
1.59741e-06
8.65755e-05
-0.000198075
1.90778e-06
8.95544e-05
-0.000200068
1.62548e-06
9.14782e-05
-0.0002013
9.48118e-07
9.29232e-05
-0.000202398
1.05813e-07
9.36506e-05
-0.000203035
-7.40331e-07
9.36701e-05
-0.000203092
-1.43246e-06
9.29755e-05
-0.000202569
-1.7429e-06
9.1584e-05
-0.000201574
-1.48973e-06
8.97325e-05
-0.000200431
8.67797e-05
-0.000198488
3.82353e-06
-0.000252217
0.000107973
4.27851e-06
-0.000255894
0.000114819
3.42587e-06
-0.000258454
0.00011844
1.88649e-06
-0.000260595
0.000120883
1.38128e-07
-0.000261773
0.000121994
-1.61895e-06
-0.000261856
0.000122005
-3.15266e-06
-0.000260827
0.000120976
-4.03053e-06
-0.000258849
0.000118607
-3.66768e-06
-0.000256436
0.000115148
-0.000252844
0.00010838
1.46992e-07
7.77697e-06
-0.000134966
1.22346e-07
7.90166e-06
-0.00013631
1.0405e-07
7.96476e-06
-0.000136778
7.42334e-08
8.00248e-06
-0.000137196
5.11027e-08
8.02597e-06
-0.00013745
2.71959e-08
8.02234e-06
-0.000137491
3.7676e-10
7.99173e-06
-0.00013732
-3.30958e-08
7.93913e-06
-0.00013699
-5.65367e-08
7.87012e-06
-0.000136582
7.70778e-06
-0.000135335
1.21948e-07
1.61517e-05
-0.000147366
1.41689e-07
1.64319e-05
-0.000148564
1.35825e-07
1.66167e-05
-0.000149127
9.68988e-08
1.67549e-05
-0.000149649
5.13132e-08
1.68287e-05
-0.000149971
4.34767e-09
1.6827e-05
-0.000150014
-3.91161e-08
1.67457e-05
-0.000149782
-6.62416e-08
1.65983e-05
-0.000149343
-5.67137e-08
1.64126e-05
-0.000148838
1.61135e-05
-0.000147691
2.39925e-07
2.55645e-05
-0.000171654
2.97348e-07
2.61442e-05
-0.000173065
2.6376e-07
2.65742e-05
-0.000173944
1.66016e-07
2.68994e-05
-0.000174749
4.93779e-08
2.70674e-05
-0.000175227
-7.12222e-08
2.70668e-05
-0.000175279
-1.75346e-07
2.68972e-05
-0.000174898
-2.25671e-07
2.65732e-05
-0.000174186
-1.84924e-07
2.61499e-05
-0.000173375
2.55632e-05
-0.000172004
5.94932e-07
3.58585e-05
-0.000208972
6.88917e-07
3.71837e-05
-0.000211195
5.637e-07
3.81072e-05
-0.0002127
3.23101e-07
3.87681e-05
-0.000214021
4.80522e-08
3.90949e-05
-0.00021478
-2.3141e-07
3.9096e-05
-0.000214841
-4.75778e-07
3.87818e-05
-0.000214202
-6.14836e-07
3.81306e-05
-0.000212993
-5.46512e-07
3.72343e-05
-0.000211581
3.59171e-05
-0.000209404
1.59274e-06
-0.000261492
4.36097e-05
1.73906e-06
-0.000265437
4.66252e-05
1.34021e-06
-0.000268269
4.83679e-05
7.20837e-07
-0.000270626
4.94677e-05
5.46134e-08
-0.000271928
4.99477e-05
-6.07624e-07
-0.000272006
4.99582e-05
-1.23122e-06
-0.000270871
4.94767e-05
-1.63514e-06
-0.000268668
4.84141e-05
-1.53033e-06
-0.000265991
4.67288e-05
-0.000262128
4.37241e-05
-2.12043e-07
-4.13687e-06
-0.000130624
-3.13972e-07
-4.29848e-06
-0.00013192
-2.89934e-07
-4.38937e-06
-0.000132425
-1.68908e-07
-4.4681e-06
-0.000132863
1.04952e-08
-4.51582e-06
-0.000133131
1.92427e-07
-4.52045e-06
-0.000133167
3.1552e-07
-4.48573e-06
-0.000132975
3.3835e-07
-4.41863e-06
-0.000132607
2.41094e-07
-4.33775e-06
-0.000132157
-4.19011e-06
-0.000130903
-2.52098e-07
-8.16019e-06
-0.000143105
-3.82853e-07
-8.40546e-06
-0.000144337
-3.59451e-07
-8.57809e-06
-0.000144974
-2.1099e-07
-8.73231e-06
-0.000145549
8.64543e-09
-8.8203e-06
-0.000145896
2.26854e-07
-8.83144e-06
-0.000145939
3.77953e-07
-8.7602e-06
-0.000145671
3.99998e-07
-8.6254e-06
-0.000145172
2.73885e-07
-8.46648e-06
-0.00014459
-8.23309e-06
-0.000143391
-3.7668e-07
-1.16991e-05
-0.000167762
-5.45001e-07
-1.20122e-05
-0.000169317
-5.06315e-07
-1.22389e-05
-0.000170346
-2.96491e-07
-1.24474e-05
-0.000171264
-1.65479e-09
-1.25679e-05
-0.000171803
2.95269e-07
-1.25785e-05
-0.00017185
5.04834e-07
-1.24823e-05
-0.000171411
5.4704e-07
-1.22954e-05
-0.00017058
3.85316e-07
-1.20879e-05
-0.000169621
-1.17901e-05
-0.000168102
-5.69684e-07
-1.42381e-05
-0.000205899
-7.73315e-07
-1.45707e-05
-0.000208475
-7.06049e-07
-1.47536e-05
-0.000210289
-4.15796e-07
-1.49496e-05
-0.000211838
-1.27885e-08
-1.50653e-05
-0.000212707
3.88674e-07
-1.50756e-05
-0.000212769
6.82526e-07
-1.4984e-05
-0.000212018
7.54634e-07
-1.48078e-05
-0.000210584
5.59425e-07
-1.46511e-05
-0.000208874
-1.43351e-05
-0.000206346
-7.64599e-07
-0.000258554
-1.64346e-05
-1.01912e-06
-0.000263114
-1.66393e-05
-9.36352e-07
-0.000266374
-1.67165e-05
-5.55884e-07
-0.000269042
-1.69114e-05
-2.36194e-08
-0.000270479
-1.70231e-05
5.03196e-07
-0.000270557
-1.70435e-05
8.90751e-07
-0.000269281
-1.69504e-05
9.73787e-07
-0.000266777
-1.67912e-05
7.32359e-07
-0.000263673
-1.67322e-05
-0.000259188
-1.65382e-05
-5.78497e-07
-1.61909e-05
-0.000113865
-7.81483e-07
-1.67019e-05
-0.000115025
-7.10722e-07
-1.69818e-05
-0.000115523
-4.30383e-07
-1.72091e-05
-0.000115951
-2.51885e-08
-1.73397e-05
-0.000116209
3.78784e-07
-1.73498e-05
-0.000116241
6.69456e-07
-1.72357e-05
-0.000116044
7.50975e-07
-1.70263e-05
-0.000115674
5.73376e-07
-1.67608e-05
-0.000115218
-1.62573e-05
-0.000114081
-6.84243e-07
-3.2904e-05
-0.000125731
-9.84346e-07
-3.37838e-05
-0.000126986
-9.13348e-07
-3.43908e-05
-0.000127668
-5.48976e-07
-3.48962e-05
-0.00012826
-3.35066e-08
-3.51801e-05
-0.000128612
4.85427e-07
-3.51958e-05
-0.000128646
8.57506e-07
-3.49492e-05
-0.000128367
9.45136e-07
-3.4476e-05
-0.000127839
6.70777e-07
-3.39008e-05
-0.000127208
-3.3038e-05
-0.000125976
-1.13297e-06
-4.98131e-05
-0.000149794
-1.54207e-06
-5.12083e-05
-0.000151555
-1.39208e-06
-5.22295e-05
-0.000152732
-8.2338e-07
-5.30713e-05
-0.000153732
-4.90425e-08
-5.35216e-05
-0.000154296
7.22324e-07
-5.35483e-05
-0.000154343
1.30407e-06
-5.31403e-05
-0.000153862
1.47356e-06
-5.23485e-05
-0.000152945
1.09683e-06
-5.13813e-05
-0.000151839
-5.00128e-05
-0.00015011
-2.0329e-06
-6.54614e-05
-0.000188291
-2.54852e-06
-6.77559e-05
-0.000191493
-2.20601e-06
-6.92401e-05
-0.000193683
-1.26904e-06
-7.04402e-05
-0.000195462
-7.63536e-08
-7.10593e-05
-0.000196424
1.12455e-06
-7.1081e-05
-0.000196474
2.06656e-06
-7.05249e-05
-0.000195633
2.42856e-06
-6.93864e-05
-0.000193967
1.96293e-06
-6.79776e-05
-0.000191887
-6.57211e-05
-0.000188738
-3.56762e-06
-0.000243231
-7.72186e-05
-4.21047e-06
-0.000249376
-8.08489e-05
-3.52035e-06
-0.000253396
-8.28896e-05
-1.97605e-06
-0.000256508
-8.45063e-05
-1.0247e-07
-0.000258094
-8.52866e-05
1.76071e-06
-0.000258171
-8.53156e-05
3.30977e-06
-0.000256733
-8.46174e-05
4.01756e-06
-0.000253783
-8.30714e-05
3.44521e-06
-0.000249954
-8.1141e-05
-0.000243883
-7.75606e-05
-9.35678e-07
-2.78489e-05
-8.50803e-05
-1.24509e-06
-2.88237e-05
-8.58942e-05
-1.12803e-06
-2.93447e-05
-8.63007e-05
-6.83313e-07
-2.97531e-05
-8.66502e-05
-5.75333e-08
-2.99841e-05
-8.6864e-05
5.72074e-07
-2.99958e-05
-8.68863e-05
1.03008e-06
-2.97926e-05
-8.67192e-05
1.17464e-06
-2.94086e-05
-8.64098e-05
9.05801e-07
-2.89132e-05
-8.60368e-05
-2.79463e-05
-8.52357e-05
-1.20217e-06
-5.72749e-05
-9.51445e-05
-1.64342e-06
-5.89645e-05
-9.64479e-05
-1.49338e-06
-6.01207e-05
-9.70874e-05
-8.96273e-07
-6.10548e-05
-9.7608e-05
-6.7957e-08
-6.15596e-05
-9.79102e-05
7.60207e-07
-6.15873e-05
-9.79386e-05
1.37424e-06
-6.1131e-05
-9.76884e-05
1.55441e-06
-6.02504e-05
-9.72186e-05
1.15931e-06
-5.91482e-05
-9.66219e-05
-5.74854e-05
-9.53352e-05
-2.1103e-06
-8.85979e-05
-0.000116446
-2.71146e-06
-9.15042e-05
-0.000118507
-2.37547e-06
-9.35618e-05
-0.000119718
-1.38383e-06
-9.51955e-05
-0.000120669
-9.57095e-08
-9.6049e-05
-0.000121192
1.19961e-06
-9.60797e-05
-0.000121224
2.20362e-06
-9.53069e-05
-0.000120773
2.57391e-06
-9.37534e-05
-0.00011989
2.03198e-06
-9.17898e-05
-0.000118747
-8.89301e-05
-0.000116711
-4.03086e-06
-0.000120096
-0.000152844
-4.74459e-06
-0.000125391
-0.000156964
-3.95832e-06
-0.000128664
-0.000159428
-2.23233e-06
-0.000131178
-0.000161267
-1.27555e-07
-0.000132403
-0.000162202
1.96602e-06
-0.000132451
-0.00016225
3.70459e-06
-0.000131313
-0.000161406
4.51909e-06
-0.000128908
-0.000159667
3.8949e-06
-0.000125793
-0.00015733
-0.000120555
-0.000153254
-7.49935e-06
-0.00020933
-0.000146459
-8.23278e-06
-0.000218417
-0.000155572
-6.57493e-06
-0.000223318
-0.000160329
-3.57018e-06
-0.000226751
-0.000163884
-1.81657e-07
-0.000228371
-0.000165482
3.20547e-06
-0.000228424
-0.000165528
6.19886e-06
-0.000226941
-0.00016406
7.85955e-06
-0.000223667
-0.000160639
7.28533e-06
-0.000219003
-0.000156126
-0.000209992
-0.000147104
-1.17597e-06
-3.80294e-05
-4.58701e-05
-1.61229e-06
-3.93116e-05
-4.61466e-05
-1.47123e-06
-4.00728e-05
-4.63684e-05
-8.94197e-07
-4.067e-05
-4.65653e-05
-8.01076e-08
-4.09972e-05
-4.66864e-05
7.36728e-07
-4.10144e-05
-4.66996e-05
1.33325e-06
-4.07195e-05
-4.66014e-05
1.51071e-06
-4.01567e-05
-4.64263e-05
1.13041e-06
-3.94298e-05
-4.62211e-05
-3.81645e-05
-4.59582e-05
-1.58685e-06
-7.93514e-05
-5.22746e-05
-2.20475e-06
-8.17771e-05
-5.34039e-05
-2.00312e-06
-8.35461e-05
-5.38614e-05
-1.19547e-06
-8.49456e-05
-5.41869e-05
-9.58538e-08
-8.56864e-05
-5.43741e-05
1.00851e-06
-8.57177e-05
-5.43886e-05
1.83484e-06
-8.5046e-05
-5.42314e-05
2.07676e-06
-8.37193e-05
-5.39353e-05
1.51804e-06
-8.20309e-05
-5.35082e-05
-7.96427e-05
-5.23877e-05
-3.03773e-06
-0.000126046
-6.67838e-05
-3.85054e-06
-0.000130755
-6.87962e-05
-3.32004e-06
-0.000134111
-6.97571e-05
-1.91147e-06
-0.000136685
-7.04147e-05
-1.27348e-07
-0.000137972
-7.07531e-05
1.65568e-06
-0.00013802
-7.07727e-05
3.08024e-06
-0.000136833
-7.04722e-05
3.65142e-06
-0.000134372
-6.98568e-05
2.92207e-06
-0.00013117
-6.89511e-05
-0.000126532
-6.69556e-05
-6.30279e-06
-0.000178411
-9.42383e-05
-7.16547e-06
-0.000188239
-9.86418e-05
-5.80544e-06
-0.000194119
-0.000100791
-3.19356e-06
-0.000198405
-0.000102164
-1.77321e-07
-0.000200397
-0.000102805
2.83546e-06
-0.000200452
-0.000102829
5.44952e-06
-0.0001986
-0.000102242
6.82584e-06
-0.000194485
-0.000100945
6.1049e-06
-0.000188881
-9.89036e-05
-0.000179153
-9.45265e-05
-1.28859e-05
-0.000144566
-0.000230106
-1.31815e-05
-0.000156348
-0.000249935
-1.00333e-05
-0.000161222
-0.00025927
-5.24885e-06
-0.000164022
-0.00026584
-2.37577e-07
-0.000165147
-0.000268528
4.74508e-06
-0.000165178
-0.000268598
9.49146e-06
-0.000164132
-0.000266079
1.2606e-05
-0.000161441
-0.000259721
1.25636e-05
-0.000156879
-0.000250934
-0.000145147
-0.000231252
-1.18644e-06
-4.46855e-05
-1.75513e-06
-4.558e-05
-1.64522e-06
-4.64848e-05
-1.00331e-06
-4.7215e-05
-9.22642e-08
-4.76091e-05
8.24645e-07
-4.76264e-05
1.48758e-06
-4.72697e-05
1.63896e-06
-4.65787e-05
1.1273e-06
-4.57171e-05
-4.48478e-05
-1.74035e-06
-9.5246e-05
-2.51653e-06
-9.82371e-05
-2.30929e-06
-0.000100584
-1.37385e-06
-0.000102371
-1.08538e-07
-0.00010328
1.16018e-06
-0.000103315
2.11547e-06
-0.000102484
2.36367e-06
-0.000100784
1.65418e-06
-9.85468e-05
-9.56096e-05
-3.79051e-06
-0.000158289
-4.7132e-06
-0.000166145
-3.99726e-06
-0.00017109
-2.26074e-06
-0.000174551
-1.45229e-07
-0.000176178
1.96945e-06
-0.000176229
3.7171e-06
-0.000174718
4.4658e-06
-0.000171411
3.64371e-06
-0.000166703
-0.000158936
-8.9493e-06
-0.00024354
-9.4812e-06
-0.000264261
-7.32569e-06
-0.000274025
-3.8919e-06
-0.000280141
-1.99185e-07
-0.000282663
3.4809e-06
-0.000282721
6.8883e-06
-0.000280363
9.02891e-06
-0.000274468
8.69773e-06
-0.000265296
-0.000244717
-2.19621e-05
-0.000366078
-1.94229e-05
-0.000423091
-1.33661e-05
-0.00044128
-6.53819e-06
-0.00045098
-2.67037e-07
-0.00045407
5.95485e-06
-0.000454117
1.26835e-05
-0.000451173
1.85686e-05
-0.000441845
2.15126e-05
-0.000425051
-0.000368245
-5.83946e-05
-0.000556327
0.000248868
-4.22071e-05
-0.000723759
0.000284237
-2.3398e-05
-0.000756484
0.000296124
-1.01731e-05
-0.000766723
0.000302253
-3.22863e-07
-0.000768462
0.000304281
9.43301e-06
-0.000768407
0.000304317
2.22815e-05
-0.000766738
0.000302397
4.05406e-05
-0.000756869
0.000296543
5.75123e-05
-0.00072781
0.000285478
-0.000560914
0.000250287
-0.00012453
-0.000839985
0.000407817
-8.42431e-05
-0.00124078
0.000476645
-3.90603e-05
-0.00129903
0.000497095
-1.55715e-05
-0.00129658
0.000506131
-3.91068e-07
-0.00129205
0.000508267
1.45301e-05
-0.00129181
0.000508256
3.71893e-05
-0.00129576
0.000506214
8.10297e-05
-0.00129866
0.000497466
0.000122916
-0.00124803
0.000478648
-0.000848144
0.00041009
-0.000309263
-0.00118598
0.000655189
-0.000160763
-0.00219468
0.000804525
-4.58899e-05
-0.00226534
0.000850891
-1.2174e-05
-0.00220358
0.000872667
-9.79745e-08
-0.00218146
0.000876681
1.16634e-05
-0.0021808
0.000876677
4.33562e-05
-0.0022011
0.000872773
0.00015516
-0.00226253
0.000851936
0.000305632
-0.00220734
0.000808
-0.00120317
0.000660346
-0.000331436
-0.00182351
0.000967744
-0.000134907
-0.00322688
0.000833334
-3.73073e-05
-0.00328553
0.000919892
-8.4262e-06
-0.00320376
0.00096862
-8.54744e-08
-0.00317476
0.000982283
7.978e-06
-0.00317403
0.000982368
3.56317e-05
-0.00320076
0.000969457
0.000130645
-0.00328214
0.000921825
0.000327052
-0.00323976
0.000833784
-0.00184662
0.000969541
0.000345165
-0.00216868
0.000180144
-0.00306175
5.70564e-05
-0.0031623
1.63782e-05
-0.00316292
1.16282e-07
-0.00315849
-1.56704e-05
-0.00315816
-5.42114e-05
-0.00316198
-0.000173928
-0.00316229
-0.000340579
-0.00307299
-0.00218709
-2.65381e-05
-0.000245598
0.000290796
-2.25976e-05
-0.000283213
0.000313503
-1.52831e-05
-0.000293585
0.000322983
-7.341e-06
-0.00030088
0.000329193
-2.82401e-07
-0.000303248
0.00033176
6.73022e-06
-0.000303283
0.000331834
1.45447e-05
-0.000301101
0.000329439
2.16844e-05
-0.000294013
0.000323469
2.60738e-05
-0.000284428
0.000314582
-0.000246963
0.000291989
-5.17254e-05
-0.000217172
0.000431246
-4.43424e-05
-0.000288435
0.000474411
-2.9158e-05
-0.000303692
0.000491968
-1.37503e-05
-0.000313468
0.000503238
-4.68342e-07
-0.000315866
0.000507598
1.26988e-05
-0.000315899
0.00050768
2.78135e-05
-0.000313701
0.000503583
4.27541e-05
-0.0003041
0.000492706
5.07929e-05
-0.000290037
0.000476124
-0.000219235
0.000433224
-5.35181e-05
1.50977e-05
0.000475151
-4.02914e-05
-7.49643e-05
0.00057822
-1.77332e-05
-7.27755e-05
0.000597887
-6.76507e-06
-5.98439e-05
0.000608355
-1.74066e-07
-5.59668e-05
0.000610566
6.30043e-06
-5.59326e-05
0.000610566
1.67773e-05
-5.95546e-05
0.000608511
3.89684e-05
-7.23753e-05
0.00059837
5.26242e-05
-7.57479e-05
0.000580669
1.45666e-05
0.000478162
-0.000122089
0.00024592
0.000860635
-9.86818e-05
-0.000185185
0.0009229
-5.56568e-05
-0.000173008
0.000980176
-2.47738e-05
-0.000132009
0.00101308
-8.38922e-07
-0.000117862
0.00102337
2.2929e-05
-0.000117657
0.00102349
5.3519e-05
-0.000131215
0.00101368
9.7146e-05
-0.00017241
0.000981393
0.00011999
-0.000187206
0.000925133
0.000240825
0.000864877
0.000224333
-0.00214719
0.000124824
-0.00314785
4.33638e-05
-0.00325438
1.29e-05
-0.0032649
1.39166e-07
-0.00326418
-1.22516e-05
-0.00326401
-4.13623e-05
-0.00326454
-0.00012096
-0.0032556
-0.000221795
-0.00315998
-0.00216815
-1.29642e-05
-0.000147718
0.000305005
-1.19065e-05
-0.000160821
0.00031763
-8.74481e-06
-0.000164582
0.000323956
-4.45525e-06
-0.000167651
0.000328561
-1.96793e-07
-0.000168806
0.000330707
4.02879e-06
-0.000168849
0.000330789
8.28726e-06
-0.000167795
0.000328819
1.14058e-05
-0.00016482
0.000324419
1.26975e-05
-0.000161375
0.000318429
-0.000148319
0.00030588
-2.59641e-05
-0.000122959
0.000432382
-2.39062e-05
-0.00014241
0.000453883
-1.75351e-05
-0.000145051
0.000465953
-8.88072e-06
-0.000148015
0.000474841
-3.7596e-07
-0.000148746
0.000478945
8.09661e-06
-0.000148776
0.000479076
1.66615e-05
-0.000148162
0.00047528
2.29428e-05
-0.000145308
0.000466736
2.54041e-05
-0.000142948
0.000455266
-0.000123712
0.000434008
-1.91135e-05
2.16611e-06
0.000368794
-1.26957e-05
2.27882e-05
0.000405371
-6.60077e-06
3.25504e-05
0.000413493
-2.86482e-06
3.72894e-05
0.000418628
-1.08898e-07
3.83445e-05
0.000420019
2.6343e-06
3.83301e-05
0.000420046
6.20041e-06
3.72925e-05
0.000418766
1.21478e-05
3.26932e-05
0.000413806
1.8812e-05
2.33821e-05
0.000406453
3.04666e-06
0.00036985
-6.74342e-05
0.000305875
0.000623913
-5.18591e-05
0.000313143
0.00061702
-3.24968e-05
0.000351075
0.000641616
-1.5687e-05
0.000371722
0.000661155
-6.88601e-07
0.000377694
0.000668408
1.41914e-05
0.000377691
0.000668593
3.08162e-05
0.000371834
0.000661905
5.02538e-05
0.000351163
0.000642841
6.59866e-05
0.000314157
0.000618524
0.000307344
0.000626147
8.3565e-05
-0.00192487
4.36598e-05
-0.00279484
1.45247e-05
-0.00287409
3.76612e-06
-0.0028824
3.86001e-08
-0.00288272
-3.51931e-06
-0.00288266
-1.3765e-05
-0.00288243
-4.2442e-05
-0.00287574
-8.26881e-05
-0.00280568
-0.00194353
-5.26519e-06
-7.62837e-05
0.000309297
-5.265e-06
-8.04882e-05
0.000317279
-4.16858e-06
-8.17027e-05
0.000321664
-2.25168e-06
-8.2958e-05
0.000325045
-1.08543e-07
-8.35012e-05
0.000326761
2.00316e-06
-8.35433e-05
0.000326829
3.93315e-06
-8.3055e-05
0.000325299
5.02099e-06
-8.18661e-05
0.000322078
5.12508e-06
-8.075e-05
0.000317916
-7.65581e-05
0.000310007
-1.11593e-05
-6.19956e-05
0.000429465
-1.12195e-05
-7.07262e-05
0.000444325
-8.82736e-06
-7.22659e-05
0.000454245
-4.70587e-06
-7.38739e-05
0.000461763
-2.38787e-07
-7.44174e-05
0.000465466
4.23018e-06
-7.44372e-05
0.000465634
8.32306e-06
-7.40037e-05
0.000462226
1.07254e-05
-7.24593e-05
0.000455083
1.08627e-05
-7.10803e-05
0.0004456
-6.24602e-05
0.000430943
-4.55266e-06
-4.01672e-05
0.000351296
-3.32822e-06
-3.22417e-05
0.000365564
-2.33221e-06
-2.95611e-05
0.000369625
-1.26117e-06
-2.92325e-05
0.000372742
-6.43317e-08
-2.96422e-05
0.000373919
1.10383e-06
-2.97057e-05
0.000373934
2.18033e-06
-2.93133e-05
0.000372913
3.13749e-06
-2.96645e-05
0.000369863
4.45912e-06
-3.21581e-05
0.000366148
-4.01922e-05
0.000351891
-3.50613e-05
8.95534e-05
0.000529375
-2.73669e-05
7.41448e-05
0.000503158
-1.83439e-05
8.40199e-05
0.000519359
-9.08019e-06
8.89723e-05
0.000534036
-4.85786e-07
9.03209e-05
0.000540118
8.10002e-06
9.03347e-05
0.00054039
1.72279e-05
8.89598e-05
0.000534735
2.63325e-05
8.39325e-05
0.000520535
3.41893e-05
7.42265e-05
0.000504505
8.93394e-05
0.000530838
1.96686e-05
-0.00185521
8.91408e-06
-0.00271007
1.9595e-06
-0.00278323
1.37573e-08
-0.00279157
2.17249e-08
-0.00279246
5.24923e-08
-0.00279248
-1.72247e-06
-0.00279177
-8.64329e-06
-0.00278507
-1.94797e-05
-0.00272077
-0.0018738
-6.73679e-07
-1.22841e-05
0.000305972
-8.75612e-07
-1.13558e-05
0.00031228
-8.74597e-07
-1.05947e-05
0.000315633
-5.31585e-07
-1.04257e-05
0.000318301
-3.80221e-08
-1.04146e-05
0.000319694
4.71688e-07
-1.04157e-05
0.00031978
8.04023e-07
-1.04945e-05
0.000318526
8.22108e-07
-1.06552e-05
0.000316031
6.41905e-07
-1.14068e-05
0.000312852
-1.23628e-05
0.0003066
-5.62e-07
-1.96507e-05
0.000437432
-1.26862e-06
-1.81528e-05
0.00045208
-1.53163e-06
-1.76322e-05
0.000461693
-1.00695e-06
-1.79653e-05
0.000468915
-6.46015e-08
-1.82028e-05
0.000472515
8.25019e-07
-1.82601e-05
0.000472647
1.41158e-06
-1.80341e-05
0.00046943
1.16874e-06
-1.77832e-05
0.000462557
4.88526e-07
-1.82721e-05
0.000453414
-1.98239e-05
0.000439028
2.48171e-06
-2.16363e-05
0.000350976
1.59067e-06
-1.38083e-05
0.000362193
4.81096e-07
-1.21959e-05
0.000365548
1.73323e-08
-1.27028e-05
0.000368165
-4.69172e-08
-1.33192e-05
0.000369206
-3.75427e-08
-1.33196e-05
0.000369285
-5.11183e-07
-1.28776e-05
0.000368327
-1.55811e-06
-1.24017e-05
0.000365867
-2.43364e-06
-1.38795e-05
0.000362774
-2.18832e-05
0.000351514
2.65004e-06
-2.11623e-05
0.000526223
-1.48461e-06
-2.73697e-05
0.000520856
-3.87695e-06
-2.9115e-05
0.000538767
-2.83439e-06
-3.13388e-05
0.000551803
-2.01595e-07
-3.22226e-05
0.000556748
2.29016e-06
-3.227e-05
0.000556889
3.47986e-06
-3.13864e-05
0.000552452
1.13329e-06
-2.93025e-05
0.000539871
-3.06672e-06
-2.76575e-05
0.000522666
-2.19817e-05
0.000527762
-2.11927e-06
-0.00187439
-3.48239e-06
-0.00273623
-2.86691e-06
-0.0028131
-1.61025e-06
-0.00282437
-2.52277e-08
-0.00282658
1.61383e-06
-0.00282659
2.82408e-06
-0.00282476
3.45687e-06
-0.00281514
2.19277e-06
-0.0027473
-0.00189376
2.63426e-06
5.4873e-05
0.000292152
2.43412e-06
6.11999e-05
0.000298072
1.69198e-06
6.41888e-05
0.000300682
8.37511e-07
6.5907e-05
0.000302837
5.00849e-08
6.65921e-05
0.000303985
-7.59993e-07
6.65753e-05
0.000304041
-1.58667e-06
6.59428e-05
0.000303063
-2.33573e-06
6.42604e-05
0.000301035
-2.5809e-06
6.14213e-05
0.000298585
5.51253e-05
0.000292736
1.01094e-05
2.58597e-05
0.000456552
8.45837e-06
4.18641e-05
0.000473403
5.46951e-06
4.57545e-05
0.000483493
2.57095e-06
4.7091e-05
0.000491057
7.18083e-08
4.71926e-05
0.000494757
-2.36871e-06
4.71944e-05
0.000494947
-5.23797e-06
4.70131e-05
0.000491593
-8.14386e-06
4.57067e-05
0.000484439
-9.94216e-06
4.21164e-05
0.000474889
2.59564e-05
0.000458366
8.34495e-06
2.33328e-05
0.000345095
5.75019e-06
4.86194e-05
0.000357811
2.88334e-06
5.39237e-05
0.000359922
1.105e-06
5.47519e-05
0.000361967
5.10247e-08
5.44703e-05
0.0003628
-1.05596e-06
5.44013e-05
0.000362827
-2.73999e-06
5.46743e-05
0.000362184
-5.53161e-06
5.38371e-05
0.000360241
-8.25988e-06
4.89527e-05
0.000358299
2.34117e-05
0.000345686
5.56191e-05
-0.000131405
0.000625444
3.02608e-05
-9.27441e-05
0.000688709
1.10569e-05
-9.84381e-05
0.000711679
3.46493e-06
-0.000108515
0.000723932
-2.68691e-08
-0.000112433
0.000728285
-3.39046e-06
-0.000112488
0.000728501
-1.06726e-05
-0.000108991
0.000724464
-2.94166e-05
-9.91263e-05
0.000712875
-5.55085e-05
-9.29778e-05
0.00069198
-0.000133042
0.000628717
-2.36984e-05
-0.00198244
-1.71128e-05
-0.00283591
-8.60337e-06
-0.00292068
-3.5833e-06
-0.00293852
-3.18294e-08
-0.0029432
3.40362e-06
-0.00294335
8.32075e-06
-0.00293911
1.67208e-05
-0.00292319
2.36193e-05
-0.00284771
-0.00200337
5.57492e-06
0.000135694
0.000259034
5.15359e-06
0.000149453
0.000264024
3.79894e-06
0.000155127
0.000265515
1.98371e-06
0.000158739
0.000266987
1.06402e-07
0.000160205
0.00026778
-1.7342e-06
0.000160255
0.000267851
-3.56122e-06
0.000158861
0.000267163
-4.91823e-06
0.000155395
0.000265798
-5.42106e-06
0.00015002
0.000264422
0.000136338
0.000259464
2.29517e-05
0.000100022
0.000469453
1.92149e-05
0.000143224
0.00048368
1.29737e-05
0.000152615
0.000492648
6.27817e-06
0.000156908
0.000499961
2.62993e-07
0.000157869
0.000503613
-5.72946e-06
0.000157835
0.000503776
-1.23169e-05
0.000156953
0.000500517
-1.84366e-05
0.000152786
0.000493567
-2.24841e-05
0.000144155
0.000485057
0.000101007
0.000471323
1.47833e-05
0.000115182
0.000314756
9.75752e-06
0.000182099
0.00032329
5.04776e-06
0.000195131
0.000321484
2.104e-06
0.000199256
0.000322
8.23423e-08
0.000199889
0.0003222
-1.86646e-06
0.000199919
0.000322279
-4.75047e-06
0.000199178
0.000322146
-9.40351e-06
0.00019531
0.000321648
-1.45523e-05
0.000183463
0.000323504
0.000116534
0.000315093
0.000141749
-0.000241622
0.000841175
7.95443e-05
-2.44429e-05
0.000960887
3.17123e-05
-2.345e-05
0.000981728
1.15446e-05
-5.06986e-05
0.000996835
3.00854e-07
-6.11416e-05
0.00100321
-1.09046e-05
-6.14828e-05
0.00100341
-3.02353e-05
-5.17913e-05
0.000997713
-7.67849e-05
-2.48817e-05
0.000983248
-0.000140286
-2.1855e-05
0.000964147
-0.000241477
0.000847229
-6.6092e-05
-0.00215825
-4.40347e-05
-0.002885
-1.98876e-05
-0.00297131
-7.6829e-06
-0.0030034
-1.67407e-07
-0.0030139
7.32178e-06
-0.00301411
1.90327e-05
-0.00300454
4.25027e-05
-0.00297452
6.55328e-05
-0.00289531
-0.00217967
7.63639e-06