/*--------------------------------*- C++ -*----------------------------------*\
| =========                 |                                                 |
| \\      /  F ield         | OpenFOAM: The Open Source CFD Toolbox           |
|  \\    /   O peration     | Version:  2.3.1                                 |
|   \\  /    A nd           | Web:      www.OpenFOAM.org                      |
|    \\/     M anipulation  |                                                 |
\*---------------------------------------------------------------------------*/
FoamFile
{
    version     2.0;
    format      ascii;
    class       volVectorField;
    location    "0.8";
    object      U;
}
// * * * * * * * * * * * * * * * * * * * * * * * * * * * * * * * * * * * * * //

dimensions      [0 1 -1 0 0 0 0];

internalField   nonuniform List<vector> 
1000
(
(-0.00171776 0.00242623 0.000376971)
(-0.00204445 0.00215738 0.000308527)
(-0.00208592 0.00214554 0.00013206)
(-0.00212617 0.00212385 0.000127414)
(-0.00213452 0.00212729 4.72052e-05)
(-0.00213901 0.0021242 -2.57473e-07)
(-0.00213924 0.00211522 -4.26344e-05)
(-0.00213853 0.00210188 -6.27888e-05)
(-0.00213884 0.00208785 -5.2867e-05)
(-0.00213942 0.0020785 -2.17229e-05)
(-0.00227306 0.00652642 9.46203e-05)
(-0.00238864 0.00637076 0.000103814)
(-0.0024062 0.00643045 0.000125107)
(-0.00242446 0.00643873 0.000113994)
(-0.00243088 0.00646348 5.0387e-05)
(-0.00243372 0.00646055 -1.06848e-05)
(-0.00243295 0.00643274 -6.34868e-05)
(-0.00243134 0.00638541 -8.86253e-05)
(-0.00242609 0.00633353 -6.32712e-05)
(-0.00236564 0.00628635 -2.37522e-05)
(-0.00280112 0.0111276 0.000105726)
(-0.00290824 0.0112288 0.000185551)
(-0.00292396 0.0113359 0.000198735)
(-0.00293632 0.0114143 0.000160231)
(-0.00294284 0.0114649 6.96603e-05)
(-0.00294485 0.011465 -3.03994e-05)
(-0.0029426 0.0114155 -0.000117322)
(-0.00293903 0.011326 -0.00016212)
(-0.00293063 0.0112288 -0.000131329)
(-0.00285335 0.0111079 -5.75776e-05)
(-0.00366315 0.0185065 0.000130011)
(-0.00375277 0.0188725 0.000285159)
(-0.00376117 0.0192038 0.000311807)
(-0.00376859 0.0194623 0.000242814)
(-0.00377443 0.0196011 0.00010103)
(-0.00377597 0.0196056 -6.01039e-05)
(-0.00377309 0.0194762 -0.000202428)
(-0.00377031 0.0192227 -0.000276556)
(-0.00376536 0.0189055 -0.000251792)
(-0.00368461 0.0185198 -0.000107556)
(-0.0054589 0.0183663 0.000489494)
(-0.00563114 0.0186196 0.000840807)
(-0.00567592 0.0186966 0.000789763)
(-0.00570444 0.0188085 0.000556436)
(-0.00572152 0.0188673 0.000212438)
(-0.00572331 0.0188677 -0.000155076)
(-0.00570976 0.0188111 -0.000499308)
(-0.00568525 0.018697 -0.000734168)
(-0.00564448 0.0186242 -0.000793538)
(-0.00547585 0.0183655 -0.00046731)
(-0.00579217 0.00190725 7.38511e-05)
(-0.00602786 0.00194953 7.55589e-05)
(-0.00603155 0.00197407 8.27435e-05)
(-0.00608105 0.00197522 8.65367e-05)
(-0.00609201 0.00198095 3.82098e-05)
(-0.00609802 0.00197953 -3.6357e-06)
(-0.00609549 0.00197117 -4.19297e-05)
(-0.00608928 0.00195766 -6.2978e-05)
(-0.00608268 0.0019385 -6.66547e-05)
(-0.00604899 0.00186825 -3.07595e-05)
(-0.00662904 0.00563945 5.24788e-05)
(-0.00674488 0.00575166 8.69806e-05)
(-0.00675591 0.00582686 0.000110523)
(-0.0067826 0.00586171 9.68653e-05)
(-0.00679418 0.0058874 4.49527e-05)
(-0.0067983 0.0058866 -1.12804e-05)
(-0.00679348 0.00586049 -6.11963e-05)
(-0.00678433 0.00581448 -8.78721e-05)
(-0.00676909 0.00575776 -8.02632e-05)
(-0.00667079 0.00564176 -3.50766e-05)
(-0.00791323 0.0099038 9.20274e-05)
(-0.00806154 0.0100622 0.000176926)
(-0.00809008 0.0101772 0.000186661)
(-0.00811836 0.0102652 0.00014695)
(-0.00813445 0.010316 6.42233e-05)
(-0.00813795 0.0103169 -2.90471e-05)
(-0.00812856 0.0102682 -0.000111997)
(-0.00811198 0.0101781 -0.000158557)
(-0.00808749 0.0100745 -0.000152867)
(-0.00796703 0.00992288 -7.21604e-05)
(-0.0100533 0.0160286 0.000162872)
(-0.0102021 0.0163784 0.000331402)
(-0.0102318 0.01668 0.000314531)
(-0.0102612 0.0169208 0.000235884)
(-0.0102806 0.0170483 9.6737e-05)
(-0.0102837 0.0170526 -5.86381e-05)
(-0.0102704 0.016934 -0.000199391)
(-0.0102484 0.0167015 -0.000282534)
(-0.0102226 0.0164149 -0.000306628)
(-0.0100825 0.0160697 -0.000148962)
(-0.0143934 0.0161195 0.000458392)
(-0.0146746 0.016694 0.000811835)
(-0.0147929 0.0168637 0.000734306)
(-0.0148856 0.017013 0.000514811)
(-0.0149385 0.0170846 0.000195678)
(-0.0149431 0.0170857 -0.000143106)
(-0.0148986 0.0170171 -0.000462644)
(-0.0148151 0.0168697 -0.000683411)
(-0.014705 0.0167085 -0.000770411)
(-0.0144306 0.0161333 -0.000440239)
(-0.00942607 0.00151781 8.33474e-05)
(-0.00950898 0.00154548 0.000116788)
(-0.00951371 0.0015591 8.1203e-05)
(-0.00954683 0.00156355 6.8417e-05)
(-0.00956098 0.00156824 3.14475e-05)
(-0.00956543 0.00156747 -3.24868e-06)
(-0.00955813 0.00156071 -3.40981e-05)
(-0.0095427 0.00154944 -5.2242e-05)
(-0.00952337 0.00153316 -5.98824e-05)
(-0.00944269 0.00147346 -2.92378e-05)
(-0.0103497 0.00448152 5.77445e-05)
(-0.0104316 0.00455145 9.98702e-05)
(-0.0104542 0.00460159 9.75415e-05)
(-0.0104858 0.00463245 7.92275e-05)
(-0.0105035 0.00465266 3.70786e-05)
(-0.0105076 0.00465227 -9.03242e-06)
(-0.0104969 0.00463076 -4.99669e-05)
(-0.0104759 0.00459224 -7.321e-05)
(-0.0104497 0.00454344 -7.30668e-05)
(-0.0103626 0.00443746 -3.41575e-05)
(-0.0122029 0.00776469 8.10009e-05)
(-0.0123116 0.00790143 0.00015877)
(-0.0123566 0.00799902 0.000157163)
(-0.012401 0.00807582 0.000120468)
(-0.0124276 0.00811858 5.2514e-05)
(-0.0124318 0.00811935 -2.37222e-05)
(-0.012413 0.00807761 -9.22615e-05)
(-0.0123776 0.0079997 -0.00013268)
(-0.0123358 0.00790603 -0.000136173)
(-0.012233 0.00776094 -6.63103e-05)
(-0.0152054 0.0121265 0.000148664)
(-0.0153578 0.0124482 0.000296906)
(-0.0154274 0.0126949 0.000271374)
(-0.0154926 0.0128884 0.000198804)
(-0.0155316 0.0129899 8.07296e-05)
(-0.0155361 0.0129929 -4.96082e-05)
(-0.0155056 0.0128982 -0.000169049)
(-0.0154489 0.0127114 -0.000244308)
(-0.0153848 0.0124748 -0.000275765)
(-0.0152363 0.0121556 -0.000138177)
(-0.0205598 0.0124824 0.000384567)
(-0.0208402 0.0130164 0.000685981)
(-0.021025 0.0132057 0.000599034)
(-0.0211825 0.0133499 0.000415055)
(-0.0212702 0.0134175 0.000156813)
(-0.0212766 0.0134184 -0.000115198)
(-0.0212019 0.0133537 -0.000373354)
(-0.021057 0.013212 -0.00055824)
(-0.0208841 0.0130308 -0.000653191)
(-0.020612 0.012497 -0.000370833)
(-0.0118171 0.000977137 3.6649e-05)
(-0.0119681 0.00100476 5.7662e-05)
(-0.012003 0.00101386 4.7718e-05)
(-0.0120416 0.00101873 3.94924e-05)
(-0.0120623 0.00102203 1.97119e-05)
(-0.0120668 0.00102162 -7.55745e-07)
(-0.0120551 0.00101721 -1.92804e-05)
(-0.0120313 0.00100985 -3.0753e-05)
(-0.0120012 0.000999629 -3.69987e-05)
(-0.0118913 0.000964115 -1.8545e-05)
(-0.0129585 0.00291281 3.03226e-05)
(-0.0130828 0.00296991 5.79224e-05)
(-0.0131258 0.0030027 6.02389e-05)
(-0.0131679 0.0030258 4.86833e-05)
(-0.0131929 0.00303938 2.37282e-05)
(-0.0131975 0.0030392 -4.35779e-06)
(-0.0131811 0.00302485 -2.9586e-05)
(-0.0131495 0.0029992 -4.41315e-05)
(-0.0131107 0.00296685 -4.31257e-05)
(-0.0129988 0.00290127 -1.93367e-05)
(-0.0151672 0.00505051 4.70602e-05)
(-0.0153073 0.00514505 9.77262e-05)
(-0.0153747 0.00521349 0.000100368)
(-0.0154362 0.00526777 7.68224e-05)
(-0.015473 0.0052973 3.39895e-05)
(-0.0154778 0.00529768 -1.42676e-05)
(-0.0154504 0.00526882 -5.79898e-05)
(-0.0153984 0.00521445 -8.41651e-05)
(-0.0153372 0.00514816 -8.44575e-05)
(-0.0152042 0.00505155 -3.92517e-05)
(-0.0186388 0.00767129 9.54505e-05)
(-0.0188435 0.00788741 0.000195556)
(-0.0189536 0.00805286 0.000182283)
(-0.0190506 0.00818049 0.000132409)
(-0.0191069 0.00824689 5.36958e-05)
(-0.0191125 0.00824881 -3.25645e-05)
(-0.0190666 0.00818603 -0.000112375)
(-0.0189798 0.00806291 -0.000164149)
(-0.0188779 0.00790371 -0.000181715)
(-0.018678 0.00768992 -8.89908e-05)
(-0.0241279 0.00806288 0.000244334)
(-0.0244983 0.00842403 0.000448546)
(-0.0247393 0.00858028 0.000393689)
(-0.0249397 0.00868963 0.000270527)
(-0.0250501 0.00874062 0.000102156)
(-0.0250576 0.00874056 -7.49505e-05)
(-0.0249625 0.00869169 -0.000243559)
(-0.0247774 0.0085844 -0.000367006)
(-0.0245507 0.0084339 -0.00042808)
(-0.0241891 0.00807374 -0.000236161)
(-0.0132093 0.000396096 1.14024e-05)
(-0.0133454 0.000406107 1.59665e-05)
(-0.0133882 0.000408826 1.07522e-05)
(-0.0134281 0.000410132 9.2892e-06)
(-0.0134519 0.000410967 6.3411e-06)
(-0.0134561 0.000410621 3.95465e-06)
(-0.0134406 0.000409069 1.25772e-06)
(-0.0134104 0.000406548 -1.34908e-06)
(-0.0133726 0.000402982 -5.81e-06)
(-0.0132482 0.000390439 -3.87936e-06)
(-0.0144241 0.00119227 8.8172e-06)
(-0.0145526 0.00121259 1.50854e-05)
(-0.0146059 0.00122405 1.45076e-05)
(-0.0146546 0.00123198 1.21804e-05)
(-0.0146845 0.00123641 7.60912e-06)
(-0.0146889 0.00123605 2.80654e-06)
(-0.0146679 0.00123065 -2.04456e-06)
(-0.0146277 0.00122119 -5.72197e-06)
(-0.0145798 0.00120908 -7.1216e-06)
(-0.0144567 0.00118537 -3.50209e-06)
(-0.0167986 0.00208465 1.47819e-05)
(-0.0169489 0.00212213 2.95928e-05)
(-0.0170313 0.00215054 2.92008e-05)
(-0.0171056 0.00217233 2.21944e-05)
(-0.0171499 0.00218373 1.10282e-05)
(-0.017155 0.00218353 -1.1541e-06)
(-0.0171204 0.00217147 -1.28898e-05)
(-0.0170553 0.00214909 -2.10484e-05)
(-0.0169794 0.00212076 -2.30002e-05)
(-0.0168332 0.00208204 -1.10307e-05)
(-0.0204661 0.0031637 3.54378e-05)
(-0.0206933 0.00325666 7.16277e-05)
(-0.0208321 0.00332993 6.43434e-05)
(-0.020953 0.00338447 4.53051e-05)
(-0.0210227 0.0034123 1.8851e-05)
(-0.0210287 0.00341254 -9.27368e-06)
(-0.0209707 0.00338566 -3.62019e-05)
(-0.0208606 0.00333204 -5.60682e-05)
(-0.0207309 0.00326074 -6.55422e-05)
(-0.0205082 0.00316836 -3.25607e-05)
(-0.0257799 0.00336418 0.000100342)
(-0.0261767 0.00352945 0.000184096)
(-0.0264475 0.00361578 0.00015674)
(-0.0266718 0.00367192 0.000104257)
(-0.0267956 0.00369724 3.89869e-05)
(-0.0268038 0.00369722 -2.76594e-05)
(-0.0266958 0.00367121 -9.30648e-05)
(-0.0264874 0.00361587 -0.000145865)
(-0.0262316 0.00353163 -0.000175814)
(-0.025843 0.00336627 -9.71019e-05)
(-0.0133862 -0.000210607 -1.08717e-05)
(-0.0135215 -0.000222429 -2.82619e-05)
(-0.0135701 -0.000227513 -3.17067e-05)
(-0.0136128 -0.000231681 -2.40944e-05)
(-0.0136389 -0.000234241 -8.31285e-06)
(-0.0136427 -0.000234575 1.05419e-05)
(-0.0136244 -0.000232877 2.63813e-05)
(-0.0135893 -0.000229522 3.40626e-05)
(-0.0135461 -0.000225212 3.12002e-05)
(-0.0134165 -0.000214076 1.33738e-05)
(-0.0146358 -0.000610122 -1.31692e-05)
(-0.0147697 -0.000632343 -3.39327e-05)
(-0.0148314 -0.00064574 -3.91967e-05)
(-0.0148864 -0.000657412 -2.99359e-05)
(-0.0149198 -0.00066424 -1.05727e-05)
(-0.014924 -0.000665079 1.2276e-05)
(-0.014899 -0.000659851 3.15367e-05)
(-0.0148519 -0.000649865 4.08983e-05)
(-0.0147957 -0.000637808 3.60165e-05)
(-0.0146654 -0.000616883 1.50002e-05)
(-0.0170842 -0.000991134 -2.08077e-05)
(-0.0172475 -0.00101771 -4.97505e-05)
(-0.0173448 -0.00103758 -5.52144e-05)
(-0.0174309 -0.00105565 -4.19275e-05)
(-0.0174817 -0.00106607 -1.5481e-05)
(-0.0174867 -0.0010672 1.52675e-05)
(-0.0174457 -0.00105893 4.17539e-05)
(-0.0173685 -0.00104299 5.52412e-05)
(-0.0172781 -0.00102483 5.02666e-05)
(-0.0171182 -0.000999631 2.16013e-05)
(-0.0208494 -0.00130991 -3.3049e-05)
(-0.0211043 -0.00134351 -7.35487e-05)
(-0.0212713 -0.001367 -7.72733e-05)
(-0.0214144 -0.00138946 -5.84707e-05)
(-0.0214956 -0.00140252 -2.20784e-05)
(-0.0215018 -0.00140362 1.95268e-05)
(-0.0214324 -0.00139307 5.59276e-05)
(-0.0213008 -0.00137282 7.51312e-05)
(-0.0211435 -0.00135168 7.20188e-05)
(-0.0208931 -0.00131969 3.26824e-05)
(-0.0260803 -0.00145113 -4.72492e-05)
(-0.0265152 -0.00148023 -9.86352e-05)
(-0.0268187 -0.00148383 -0.000102041)
(-0.0270684 -0.00149384 -7.7881e-05)
(-0.0272048 -0.00149978 -2.97598e-05)
(-0.0272126 -0.00150105 2.48548e-05)
(-0.0270927 -0.00149678 7.29808e-05)
(-0.0268589 -0.00148898 9.73781e-05)
(-0.0265707 -0.00148729 9.45421e-05)
(-0.0261435 -0.00145868 4.56827e-05)
(-0.0123309 -0.000824688 -3.2503e-05)
(-0.0124584 -0.000862187 -7.39913e-05)
(-0.012509 -0.000877118 -7.72622e-05)
(-0.0125526 -0.000888579 -5.93778e-05)
(-0.012579 -0.000895233 -2.3515e-05)
(-0.0125824 -0.000895802 1.84441e-05)
(-0.0125627 -0.00089011 5.45896e-05)
(-0.0125253 -0.000879675 7.37089e-05)
(-0.0124794 -0.000865672 7.22898e-05)
(-0.0123546 -0.000828434 3.25156e-05)
(-0.0135595 -0.00244003 -3.81285e-05)
(-0.0136963 -0.00251346 -8.97702e-05)
(-0.0137644 -0.00255743 -9.94052e-05)
(-0.0138233 -0.00259347 -7.61807e-05)
(-0.0138585 -0.00261395 -3.00869e-05)
(-0.0138624 -0.00261526 2.35981e-05)
(-0.0138347 -0.00259753 7.00969e-05)
(-0.0137827 -0.00256404 9.46337e-05)
(-0.0137198 -0.00252247 8.71218e-05)
(-0.0135854 -0.00245023 3.75978e-05)
(-0.0160067 -0.00412988 -6.49067e-05)
(-0.0161879 -0.00423546 -0.00014527)
(-0.0163008 -0.00431526 -0.000153121)
(-0.0163974 -0.00438194 -0.000114924)
(-0.0164529 -0.00441842 -4.4818e-05)
(-0.0164576 -0.00442057 3.49406e-05)
(-0.0164112 -0.00438815 0.000105413)
(-0.0163232 -0.00432562 0.000145201)
(-0.0162172 -0.00425011 0.00013994)
(-0.0160393 -0.00414676 6.31141e-05)
(-0.0198442 -0.00583089 -0.000120558)
(-0.0201485 -0.00601217 -0.000252892)
(-0.020351 -0.00614534 -0.000246073)
(-0.020518 -0.00625424 -0.000179361)
(-0.0206099 -0.00631186 -6.86466e-05)
(-0.0206156 -0.0063145 5.39216e-05)
(-0.0205356 -0.00626254 0.000165156)
(-0.02038 -0.00615965 0.000232848)
(-0.0201882 -0.00603306 0.000243244)
(-0.0198889 -0.00585536 0.000117046)
(-0.0252031 -0.00658776 -0.000223906)
(-0.025745 -0.00687156 -0.00043203)
(-0.0261082 -0.00700071 -0.000397211)
(-0.0263964 -0.0071015 -0.000282155)
(-0.0265476 -0.00714991 -0.000105244)
(-0.0265554 -0.00715146 8.4445e-05)
(-0.0264197 -0.00710826 0.000260939)
(-0.0261478 -0.00701183 0.000376535)
(-0.0258017 -0.00689039 0.000415908)
(-0.0252671 -0.00660825 0.000217901)
(-0.0100523 -0.00141584 -5.30931e-05)
(-0.0101565 -0.00148523 -0.000118912)
(-0.0102028 -0.00151274 -0.000122692)
(-0.0102423 -0.00153312 -9.39969e-05)
(-0.0102662 -0.00154473 -3.81573e-05)
(-0.0102689 -0.00154537 2.68658e-05)
(-0.0102503 -0.00153523 8.34051e-05)
(-0.0102156 -0.00151618 0.000114303)
(-0.0101731 -0.00149016 0.000113866)
(-0.0100704 -0.00142094 5.16009e-05)
(-0.0111688 -0.00422555 -6.89617e-05)
(-0.0112952 -0.0043627 -0.0001539)
(-0.0113629 -0.00444476 -0.000163469)
(-0.0114196 -0.00451021 -0.000123988)
(-0.0114529 -0.00454631 -4.96057e-05)
(-0.011456 -0.00454829 3.60686e-05)
(-0.011429 -0.00451602 0.000111142)
(-0.0113779 -0.00445446 0.000152981)
(-0.0113149 -0.00437639 0.000147215)
(-0.0111904 -0.0042409 6.67382e-05)
(-0.0134697 -0.00727777 -0.000124458)
(-0.0136585 -0.00748803 -0.000263614)
(-0.0137804 -0.00764415 -0.000263809)
(-0.01388 -0.00777056 -0.00019414)
(-0.0139353 -0.0078378 -7.56643e-05)
(-0.0139393 -0.00784076 5.69885e-05)
(-0.0138917 -0.00778001 0.000176282)
(-0.0137998 -0.00766029 0.000248095)
(-0.0136848 -0.00751143 0.000252673)
(-0.0134988 -0.00730498 0.000120435)
(-0.0172525 -0.010506 -0.000245509)
(-0.0176119 -0.010893 -0.000488239)
(-0.0178478 -0.0111647 -0.000447275)
(-0.0180319 -0.011378 -0.000317729)
(-0.0181287 -0.0114866 -0.00011973)
(-0.0181337 -0.0114907 9.38699e-05)
(-0.0180476 -0.0113912 0.000291753)
(-0.0178743 -0.0111877 0.000422755)
(-0.0176501 -0.0109283 0.000469984)
(-0.0172957 -0.0105471 0.000238735)
(-0.0228208 -0.0123959 -0.000483097)
(-0.0235597 -0.0131111 -0.00088432)
(-0.0240072 -0.0134413 -0.000754141)
(-0.024338 -0.0136835 -0.000517196)
(-0.0245009 -0.0137922 -0.000188596)
(-0.0245075 -0.0137954 0.000152637)
(-0.024359 -0.0136947 0.000480397)
(-0.0240443 -0.0134615 0.000715845)
(-0.0236179 -0.0131497 0.000854582)
(-0.0228865 -0.0124374 0.000472781)
(-0.00660859 -0.00192732 -6.60393e-05)
(-0.00666602 -0.00201854 -0.000151078)
(-0.00669808 -0.00205802 -0.000160085)
(-0.00672588 -0.00208751 -0.00012266)
(-0.0067429 -0.00210381 -5.0148e-05)
(-0.00674465 -0.00210472 3.43107e-05)
(-0.00673104 -0.0020901 0.00010776)
(-0.00670629 -0.00206242 0.000148094)
(-0.00667668 -0.00202483 0.000143639)
(-0.0066205 -0.0019342 6.36396e-05)
(-0.00746367 -0.00580767 -9.0776e-05)
(-0.00761058 -0.00599229 -0.000204182)
(-0.00766986 -0.00611388 -0.000219904)
(-0.00771372 -0.00621016 -0.000165668)
(-0.00773896 -0.00626213 -6.63089e-05)
(-0.0077411 -0.00626456 4.7449e-05)
(-0.00771997 -0.00621763 0.000147815)
(-0.00768016 -0.00612663 0.000204958)
(-0.00762465 -0.00601064 0.000194186)
(-0.00747881 -0.00582864 8.70934e-05)
(-0.00933779 -0.010215 -0.000180711)
(-0.00958085 -0.0105341 -0.000376723)
(-0.00969933 -0.0107795 -0.000371579)
(-0.00978415 -0.0109731 -0.000269241)
(-0.00982915 -0.0110729 -0.000103879)
(-0.00983174 -0.0110769 7.85121e-05)
(-0.0097923 -0.0109856 0.000244424)
(-0.00971321 -0.0108012 0.00034919)
(-0.00960129 -0.010567 0.000360739)
(-0.00936013 -0.0102534 0.000174762)
(-0.0127438 -0.0151795 -0.000390465)
(-0.0132465 -0.0158407 -0.000752669)
(-0.0135008 -0.0162895 -0.000663783)
(-0.0136729 -0.0166276 -0.000459502)
(-0.0137561 -0.0167921 -0.000170037)
(-0.0137598 -0.0167974 0.000134798)
(-0.013684 -0.0166452 0.000423923)
(-0.0135212 -0.0163215 0.000628102)
(-0.0132798 -0.0158927 0.000725441)
(-0.0127806 -0.0152404 0.000380681)
(-0.0186097 -0.019314 -0.000848844)
(-0.0198336 -0.0207811 -0.0014877)
(-0.0203777 -0.021454 -0.00117197)
(-0.0207155 -0.0219275 -0.00077352)
(-0.0208611 -0.022127 -0.000273822)
(-0.0208654 -0.0221318 0.0002256)
(-0.0207308 -0.0219451 0.000721933)
(-0.0204074 -0.0214876 0.00111424)
(-0.0198944 -0.0208543 0.00144197)
(-0.0186772 -0.0193949 0.000833861)
(-0.00237791 -0.0022561 -6.63691e-05)
(-0.00238701 -0.00229668 -0.000155981)
(-0.00239782 -0.0023392 -0.000178615)
(-0.00240792 -0.00237414 -0.000137395)
(-0.00241421 -0.00239336 -5.64197e-05)
(-0.00241492 -0.00239426 3.83051e-05)
(-0.00240987 -0.00237692 0.000120457)
(-0.00240094 -0.00234396 0.000164921)
(-0.00239101 -0.00230354 0.000147069)
(-0.00238266 -0.00226416 6.31299e-05)
(-0.00272477 -0.00688188 -0.000100428)
(-0.00280905 -0.00705195 -0.000225392)
(-0.00283548 -0.00720349 -0.000254285)
(-0.00285294 -0.00732309 -0.000190381)
(-0.00286297 -0.00738591 -7.60041e-05)
(-0.00286377 -0.00738856 5.45594e-05)
(-0.00285541 -0.00733137 0.000169918)
(-0.00283959 -0.00721787 0.000236817)
(-0.00281497 -0.00707349 0.00021317)
(-0.00273092 -0.00690731 9.57588e-05)
(-0.00354122 -0.0124961 -0.000230516)
(-0.00368711 -0.0129764 -0.000461466)
(-0.00374481 -0.013319 -0.000451992)
(-0.00378172 -0.0135711 -0.000320586)
(-0.00380046 -0.0136953 -0.000122069)
(-0.00380153 -0.0136997 9.31786e-05)
(-0.0037849 -0.0135852 0.000292043)
(-0.00375042 -0.0133449 0.000425006)
(-0.0036961 -0.0130182 0.000441315)
(-0.00355084 -0.0125448 0.000223071)
(-0.00518111 -0.0197244 -0.000576606)
(-0.00549114 -0.0209603 -0.00103179)
(-0.00562687 -0.0216506 -0.000855252)
(-0.00570791 -0.0221137 -0.000568508)
(-0.00574461 -0.0223213 -0.000205039)
(-0.00574593 -0.0223271 0.000165044)
(-0.00571223 -0.0221338 0.000526463)
(-0.00563574 -0.0216891 0.000809627)
(-0.0055071 -0.0210353 0.000996302)
(-0.00519832 -0.0198108 0.000564728)
(-0.00848955 -0.0293428 -0.00150666)
(-0.00935956 -0.0328962 -0.00240129)
(-0.00969483 -0.0342312 -0.00162236)
(-0.00987193 -0.0350109 -0.000995693)
(-0.00993902 -0.0352925 -0.000336095)
(-0.00994059 -0.0352977 0.00028139)
(-0.00987792 -0.0350318 0.000934059)
(-0.00970821 -0.0342812 0.00153889)
(-0.00939496 -0.0330374 0.00233241)
(-0.00852782 -0.0295029 0.00148784)
(-0.016221 -0.0476138 -0.00420596)
(-0.019 -0.0551435 -0.0060366)
(-0.0198928 -0.0574993 -0.00301072)
(-0.0203075 -0.0587223 -0.00164023)
(-0.0204313 -0.0591129 -0.000493849)
(-0.0204328 -0.0591186 0.000427609)
(-0.0203149 -0.0587501 0.00155254)
(-0.0199197 -0.0575696 0.00284145)
(-0.0190923 -0.0554013 0.00589049)
(-0.0163257 -0.0478993 0.00417666)
(-0.02866 -0.0563332 -0.00954893)
(-0.0341883 -0.0842147 -0.0127146)
(-0.0358377 -0.0886107 -0.00519174)
(-0.0364812 -0.0893466 -0.00256315)
(-0.0365905 -0.0891661 -0.000709655)
(-0.0365877 -0.0891463 0.000625058)
(-0.036481 -0.0892988 0.00243987)
(-0.0358616 -0.0886042 0.00488053)
(-0.0343387 -0.084766 0.0124291)
(-0.028839 -0.0569531 0.00950575)
(-0.0496241 -0.126582 -0.0259787)
(-0.0520832 -0.180303 -0.0280698)
(-0.0558174 -0.188528 -0.007191)
(-0.0581345 -0.187264 -0.00231925)
(-0.0586474 -0.186622 -0.000392312)
(-0.0586513 -0.186593 0.000372973)
(-0.0581647 -0.187163 0.00221754)
(-0.0559309 -0.188466 0.00666776)
(-0.0522068 -0.181259 0.0274923)
(-0.0499341 -0.127677 0.0258494)
(-0.020522 -0.0722885 -0.0313779)
(0.029306 -0.199785 -0.0232882)
(0.0265898 -0.201858 -0.00722995)
(0.0226331 -0.191015 -0.00159712)
(0.0214154 -0.187371 -0.000356472)
(0.0213935 -0.187281 0.000334534)
(0.022514 -0.190641 0.00151546)
(0.0263932 -0.201364 0.00691698)
(0.0297869 -0.201061 0.0227999)
(-0.0198306 -0.0742056 0.0310422)
(0.217257 -0.348268 0.0297804)
(0.289754 -0.530725 0.0311898)
(0.300614 -0.545155 0.00853275)
(0.301021 -0.539677 0.00297373)
(0.300747 -0.537385 0.000550729)
(0.300716 -0.537314 -0.000524012)
(0.300929 -0.539422 -0.00285249)
(0.300617 -0.544979 -0.00792935)
(0.290871 -0.532406 -0.0305503)
(0.218876 -0.351562 -0.0295346)
(-0.0293574 -0.0301541 -0.00181974)
(-0.0327503 -0.0325937 -0.0029202)
(-0.0339594 -0.0339001 -0.00183294)
(-0.0346487 -0.0348495 -0.00113193)
(-0.034899 -0.0352521 -0.000373234)
(-0.0349046 -0.035263 0.000315845)
(-0.0346692 -0.0348879 0.00106725)
(-0.0340085 -0.0339721 0.00174)
(-0.032881 -0.0327316 0.00284445)
(-0.0295066 -0.0303208 0.00180201)
(-0.0458719 -0.0125922 -0.00376862)
(-0.0524124 -0.0169578 -0.00568918)
(-0.0544354 -0.0174249 -0.0035042)
(-0.0554821 -0.0177429 -0.00212785)
(-0.0557991 -0.0177209 -0.000684559)
(-0.0558016 -0.0177151 0.000587792)
(-0.0555009 -0.0177392 0.00201507)
(-0.0544892 -0.0174166 0.00334168)
(-0.0526175 -0.0170293 0.00554779)
(-0.0461008 -0.0126611 0.0037284)
(-0.0658303 -0.0356061 -0.00441512)
(-0.086325 -0.0460893 -0.00613668)
(-0.0901753 -0.0488127 -0.00208798)
(-0.0916839 -0.0506357 -0.00115645)
(-0.0919111 -0.0512429 -0.000271574)
(-0.0919074 -0.0512606 0.000232916)
(-0.0916833 -0.0506994 0.00110705)
(-0.0902431 -0.0489279 0.00194928)
(-0.0867629 -0.0463611 0.00599686)
(-0.066387 -0.0359697 0.00439445)
(-0.137208 0.0392934 -0.0135797)
(-0.154461 0.0327641 -0.013307)
(-0.164798 0.0356625 -0.00630668)
(-0.169231 0.0400108 -0.00383991)
(-0.170423 0.0413851 -0.00116726)
(-0.170422 0.0414147 0.000997548)
(-0.16927 0.0401403 0.0036613)
(-0.164929 0.0358697 0.00609601)
(-0.154877 0.0328771 0.0130558)
(-0.138001 0.0395155 0.0134538)
(0.214643 0.00215502 0.0183164)
(0.322201 -0.0764299 0.0207771)
(0.333657 -0.0767122 0.00654282)
(0.334355 -0.0722523 0.00237528)
(0.334076 -0.0705271 0.000456926)
(0.334049 -0.0705146 -0.0004248)
(0.334287 -0.0722162 -0.00226911)
(0.333725 -0.076807 -0.00617367)
(0.323415 -0.0769942 -0.0203927)
(0.216799 0.000982753 -0.0182085)
(-0.02992 -0.0195468 -0.000859413)
(-0.0316071 -0.0206559 -0.0014616)
(-0.0323955 -0.0213467 -0.00102461)
(-0.0329479 -0.0218868 -0.000668553)
(-0.0331925 -0.02214 -0.000231297)
(-0.0332006 -0.0221492 0.000191053)
(-0.0329741 -0.0219164 0.00062556)
(-0.0324442 -0.0213985 0.000972411)
(-0.0317005 -0.0207414 0.00142063)
(-0.030023 -0.0196513 0.00084864)
(-0.0430916 -0.00569765 -0.00184231)
(-0.046006 -0.00706638 -0.00289077)
(-0.04749 -0.00702241 -0.00205388)
(-0.0485346 -0.00699351 -0.00133128)
(-0.0489817 -0.00691673 -0.000456564)
(-0.0489931 -0.00691225 0.000381198)
(-0.048576 -0.00698459 0.00125057)
(-0.0475686 -0.00700647 0.00195634)
(-0.0461582 -0.00707085 0.00280839)
(-0.0432705 -0.00569022 0.00181561)
(-0.037784 -0.0236677 -0.00139546)
(-0.0425354 -0.026396 -0.00197599)
(-0.0434987 -0.0270564 -0.00076772)
(-0.0442453 -0.0278014 -0.000478692)
(-0.0444504 -0.0280772 -0.00012495)
(-0.0444536 -0.0280911 0.000102529)
(-0.0442671 -0.0278501 0.000452908)
(-0.0435377 -0.0271364 0.000711918)
(-0.0426701 -0.0265214 0.00192546)
(-0.0379256 -0.0238534 0.00138799)
(-0.062022 0.0256764 -0.00587191)
(-0.0645702 0.0337485 -0.00713989)
(-0.0684361 0.0368301 -0.00368367)
(-0.0712954 0.0388078 -0.00241705)
(-0.0723345 0.0393648 -0.000768238)
(-0.0723562 0.0393761 0.000627894)
(-0.0713819 0.0388632 0.0022676)
(-0.0685804 0.0369525 0.00350956)
(-0.0647606 0.0340225 0.00696129)
(-0.0623141 0.0260491 0.00579342)
(0.202636 0.0255537 0.00726479)
(0.290452 0.0180887 0.00739372)
(0.298603 0.0218249 0.0021814)
(0.299272 0.0234364 0.000741929)
(0.299202 0.023914 0.000107041)
(0.299192 0.0238987 -9.66581e-05)
(0.299258 0.0233856 -0.000700022)
(0.298746 0.0216939 -0.00205931)
(0.291553 0.0179755 -0.00726917)
(0.204508 0.0254125 -0.0072241)
(-0.0307486 -0.0103566 -0.000335576)
(-0.0317594 -0.0108031 -0.000614239)
(-0.0322875 -0.0111208 -0.000476483)
(-0.0326837 -0.0113846 -0.000328624)
(-0.0328766 -0.0115159 -0.000118504)
(-0.0328842 -0.0115225 9.5529e-05)
(-0.0327094 -0.0114038 0.000304856)
(-0.0323313 -0.0111537 0.000451101)
(-0.0318305 -0.0108515 0.000594176)
(-0.0308268 -0.0104152 0.000329461)
(-0.0430291 -0.0025629 -0.000775527)
(-0.0447422 -0.00291088 -0.00128175)
(-0.0458199 -0.00279402 -0.00101101)
(-0.0466347 -0.00273147 -0.000688382)
(-0.0470263 -0.0026832 -0.000246475)
(-0.0470414 -0.002681 0.000199394)
(-0.0466802 -0.00272677 0.00063996)
(-0.0459011 -0.00278366 0.000959636)
(-0.044873 -0.00290322 0.00123995)
(-0.0431827 -0.00254664 0.000760662)
(-0.0353637 -0.0125489 -0.000311036)
(-0.0373162 -0.0141545 -0.000489719)
(-0.0378072 -0.0146572 -0.000235553)
(-0.0381745 -0.0151316 -0.000196995)
(-0.0382953 -0.0153254 -6.21366e-05)
(-0.0382975 -0.0153367 4.73003e-05)
(-0.03819 -0.0151672 0.00018318)
(-0.0378328 -0.0147186 0.00021667)
(-0.037386 -0.0142482 0.000472996)
(-0.0354337 -0.012678 0.000308037)
(-0.0547692 0.0072029 -0.00272918)
(-0.0510942 0.0102249 -0.00373944)
(-0.0523839 0.0112078 -0.00206873)
(-0.0538434 0.0117981 -0.00138856)
(-0.0544525 0.0119511 -0.000462819)
(-0.0544763 0.0119565 0.000366545)
(-0.0539166 0.0118238 0.00128726)
(-0.0524986 0.0112618 0.00195564)
(-0.0511996 0.0103411 0.00363042)
(-0.0549022 0.00733998 0.00267977)
(0.188928 0.00689359 0.0018452)
(0.275468 0.000887089 0.00163708)
(0.283103 0.00158965 0.000348147)
(0.284032 0.00177347 4.15855e-05)
(0.284129 0.00182071 -3.00092e-05)
(0.284128 0.00181238 3.35478e-05)
(0.284047 0.00173783 -2.71649e-05)
(0.283282 0.00150401 -0.000317011)
(0.276548 0.000770643 -0.00161016)
(0.190803 0.0066968 -0.00183613)
(-0.0307872 -0.00194779 -4.36573e-05)
(-0.031491 -0.00192679 -9.12491e-05)
(-0.0318714 -0.00193043 -9.10207e-05)
(-0.0321696 -0.00196175 -7.45661e-05)
(-0.0323236 -0.00198323 -2.92978e-05)
(-0.0323314 -0.0019853 2.25627e-05)
(-0.0321936 -0.00197001 6.81435e-05)
(-0.0319118 -0.00194219 8.4658e-05)
(-0.031551 -0.00194092 8.66226e-05)
(-0.0308535 -0.001966 4.21649e-05)
(-0.0432834 -0.000396284 -5.14426e-05)
(-0.0446954 -0.000283114 -0.000103152)
(-0.0456507 -0.000160478 -0.000148354)
(-0.0463778 -0.000105084 -0.000135889)
(-0.0467404 -8.11571e-05 -5.50261e-05)
(-0.0467555 -8.14204e-05 3.95198e-05)
(-0.0464267 -0.000104084 0.000120932)
(-0.0457356 -0.00015776 0.000137221)
(-0.0448243 -0.00027534 9.2228e-05)
(-0.0434354 -0.000384034 4.60122e-05)
(-0.0349711 -0.00400428 0.00016819)
(-0.0361034 -0.00361084 0.000234636)
(-0.0364478 -0.00357853 0.000100651)
(-0.0367234 -0.00370852 8.52834e-06)
(-0.0368319 -0.00379252 -4.58784e-06)
(-0.0368367 -0.00379905 -1.12775e-06)
(-0.03674 -0.00373267 -1.15667e-05)
(-0.0364753 -0.00361722 -9.95456e-05)
(-0.0361587 -0.00364672 -0.000231076)
(-0.0350256 -0.00406682 -0.000167305)
(-0.0522854 0.000305933 0.000175769)
(-0.0499763 0.000827345 0.000135873)
(-0.0516011 0.000955185 -0.000304216)
(-0.0529768 0.000996522 -0.00037622)
(-0.0535301 0.000991628 -0.000152948)
(-0.0535513 0.000993696 0.000106003)
(-0.0530454 0.00100386 0.000327693)
(-0.051715 0.000971345 0.000278664)
(-0.0501229 0.000853322 -0.000170355)
(-0.0524263 0.000333159 -0.000205787)
(0.185973 -0.00487533 -0.000128283)
(0.271702 -0.00590085 -0.000375716)
(0.279111 -0.00618442 -0.000302849)
(0.280066 -0.00666179 -0.000234338)
(0.280216 -0.00685832 -8.02584e-05)
(0.280218 -0.0068674 7.76296e-05)
(0.280095 -0.00669742 0.000234153)
(0.2793 -0.00625915 0.000297686)
(0.272784 -0.00598909 0.000375368)
(0.187856 -0.00508161 0.0001403)
(-0.0299782 0.00676689 0.000163709)
(-0.0305953 0.00729721 0.000296984)
(-0.0308936 0.00762381 0.0002061)
(-0.0311335 0.00783139 0.000126797)
(-0.03126 0.00792329 4.41808e-05)
(-0.0312672 0.00792396 -3.52945e-05)
(-0.0311561 0.00783656 -0.000117584)
(-0.0309313 0.00763516 -0.000195148)
(-0.0306497 0.00732158 -0.000289392)
(-0.0300388 0.00679581 -0.000161301)
(-0.0446632 0.00189721 0.000675011)
(-0.0462156 0.00241808 0.00106822)
(-0.0471919 0.00256548 0.000691787)
(-0.0479263 0.00262324 0.000399335)
(-0.0482897 0.00263166 0.000129859)
(-0.0483059 0.00263111 -0.000112961)
(-0.047979 0.00262138 -0.000377684)
(-0.0472825 0.00256511 -0.000661879)
(-0.0463563 0.00242878 -0.00104366)
(-0.0448329 0.00190566 -0.000668427)
(-0.0347547 0.00520047 0.000567964)
(-0.0359066 0.0087672 0.000842726)
(-0.0361841 0.00963671 0.000393857)
(-0.0364157 0.0099417 0.000189168)
(-0.0365088 0.00997809 5.11054e-05)
(-0.0365141 0.00997317 -4.46373e-05)
(-0.0364345 0.00993036 -0.000179996)
(-0.0362162 0.00962773 -0.000371508)
(-0.0359596 0.00882254 -0.000826261)
(-0.0348099 0.00522438 -0.000567154)
(-0.0562353 -0.00280394 0.00396049)
(-0.0577402 -0.0032256 0.00513854)
(-0.059684 -0.00347375 0.00170956)
(-0.0609967 -0.00372903 0.000649072)
(-0.0614817 -0.00382524 0.000135687)
(-0.0615006 -0.00382626 -0.000137367)
(-0.0610575 -0.00373549 -0.000635286)
(-0.059798 -0.00348148 -0.00161978)
(-0.0579636 -0.00324424 -0.00508413)
(-0.0564473 -0.00283242 -0.00397935)
(0.191537 -0.0185784 -0.00206433)
(0.278475 -0.00958861 -0.00249673)
(0.286599 -0.00998867 -0.00108615)
(0.288015 -0.01136 -0.000579651)
(0.288347 -0.0119283 -0.000154124)
(0.288355 -0.0119412 0.000143762)
(0.288062 -0.0114313 0.000563035)
(0.286825 -0.0100955 0.00104169)
(0.27964 -0.00958266 0.00246136)
(0.193561 -0.0188137 0.0020833)
(-0.0277504 0.0169211 0.000350351)
(-0.0283292 0.0181134 0.00063534)
(-0.0285428 0.0188172 0.000445553)
(-0.0287274 0.0192957 0.000292848)
(-0.0288257 0.0195134 0.000104684)