/*--------------------------------*- C++ -*----------------------------------*\
| =========                 |                                                 |
| \\      /  F ield         | OpenFOAM: The Open Source CFD Toolbox           |
|  \\    /   O peration     | Version:  2.3.1                                 |
|   \\  /    A nd           | Web:      www.OpenFOAM.org                      |
|    \\/     M anipulation  |                                                 |
\*---------------------------------------------------------------------------*/
FoamFile
{
    version     2.0;
    format      ascii;
    class       volSymmTensorField;
    location    "800";
    object      sigma;
}
// * * * * * * * * * * * * * * * * * * * * * * * * * * * * * * * * * * * * * //

dimensions      [1 -1 -2 0 0 0 0];

internalField   nonuniform List<symmTensor> 
11800
(
(52738.2 49487.5 2.6072e-14 -1880.79 1.38792e-14 12618.8)
(-30459.9 50650.3 4.00224e-14 -4019.47 1.27749e-14 -8555.03)
(210640 49248.9 -5.44184e-16 559.35 -3.02061e-14 52402.9)
(-189956 35745.7 0 2872.92 0 -46419.2)
(-30783.1 48477.7 7.4692e-15 -8237.23 -2.12113e-14 -9681.74)
(-120757 53833.5 2.9613e-14 3262.53 1.55998e-14 -29152.7)
(-21830.3 55030.6 5.48988e-14 -634.714 -1.43376e-14 -5574.04)
(-29832.7 52184.2 -8.22923e-15 1532.82 3.33005e-14 -7021.78)
(70473.4 44905.2 1.21566e-14 285.98 -8.39523e-15 17556.8)
(42022.3 53714.1 -2.90864e-14 1115.89 -2.46142e-14 10703.5)
(61468.8 45320.1 -2.17528e-14 -994.733 1.87109e-14 15004.9)
(-274888 29607 -2.68552e-14 -2766.47 -1.2257e-14 -68891.8)
(10539.5 -15365.6 5.72852e-17 -28522.2 4.45178e-17 -4461.88)
(196152 35467.4 2.45265e-14 1801.06 -6.77376e-15 49116.3)
(-162217 49927.1 -2.00687e-14 5981.61 1.56831e-14 -38765.2)
(882397 6130.69 0 -2180.35 0 218400)
(-14628.5 48831.9 1.85762e-14 436.57 1.64898e-15 -3521.31)
(-21779.8 43306.5 -1.05496e-14 2063.59 6.09785e-14 -4891.98)
(46513.2 69817.7 -1.19262e-14 -6823.12 8.56455e-15 9847.91)
(31255 40491.1 -3.87287e-14 -2560.92 -1.25709e-14 7119.57)
(-151612 39481 1.19208e-14 2240.38 1.25355e-14 -37062.1)
(-239368 47040.5 1.91598e-14 725.416 -1.11834e-14 -59212.1)
(-401882 70527.3 -1.09794e-14 6021.77 7.2066e-15 -98221)
(-369165 50720.2 1.17889e-16 928.394 1.95227e-15 -91366.9)
(707175 46154.7 1.10394e-15 -4059.56 1.55963e-14 174457)
(-466059 67987.8 -1.06956e-14 4034.02 -3.40012e-16 -114638)
(-409822 34804.8 0 3490.18 0 -100819)
(198970 31209.2 -3.10309e-14 -4997.64 -1.88164e-14 48128.5)
(-461243 36488.9 -6.01158e-15 4820.45 -2.78529e-14 -113248)
(-517353 38487.5 7.69788e-15 4561.72 -1.2198e-14 -127234)
(139245 35535.1 -3.82912e-14 -754.937 -6.89674e-14 34362.3)
(26500.7 53351 -7.19873e-15 1253.74 -6.12663e-15 6886.44)
(457124 63812.3 -1.66246e-15 4758.48 -7.68073e-15 114602)
(-14348.9 56994.3 5.01673e-15 456.818 -3.77002e-14 -3446.9)
(8028.51 57638 -1.3232e-14 5008.54 -5.71447e-14 3234.76)
(-139771 30081 -3.47731e-14 6047.01 -2.53434e-14 -33179.5)
(7598.58 57058.2 4.70266e-14 3245.72 -5.62488e-14 2690.69)
(490498 47260.3 -6.09195e-15 2449.27 -2.75645e-14 122310)
(-16360.1 52302 0 -4481.05 0 -5171.11)
(30203.6 46233.4 -1.67487e-14 1576.21 3.13029e-14 7885.22)
(-431057 31167.5 -3.07135e-14 -1668.81 -1.43713e-14 -107368)
(-484771 32316 2.21627e-14 -1522.48 -1.2788e-14 -120659)
(207981 37795.4 -1.18962e-14 -3993.03 -4.00323e-14 50613.7)
(-543647 34221.9 -4.54809e-15 -2739.17 -2.31939e-14 -135569)
(145727 40544.5 1.01857e-13 2629.45 -3.19463e-14 36810.3)
(821351 30766.5 0 -3421.22 0 202945)
(370731 74344.5 -6.96497e-15 -2044.06 3.72643e-15 91478.8)
(445341 42412.2 -1.21666e-14 -4587.71 -8.62696e-15 109360)
(-34818.6 52906.8 -4.04053e-14 -2569.94 -2.50265e-14 -9276.86)
(78004.9 47255.5 0 944.912 0 19589)
(-279618 28213.3 -1.88948e-15 2315.88 2.09771e-14 -68804.2)
(-200282 29832.6 6.79084e-14 5608.09 8.00329e-15 -48302.5)
(-4287.46 56900 3.79036e-14 -1649.71 2.37444e-14 -1473.13)
(12497.5 83644.5 -9.93124e-16 3482.79 8.68743e-15 3965.03)
(-944266 5330.12 -1.62496e-15 -5250.57 -2.27783e-15 -235594)
(831461 -18214.5 1.97699e-15 -38437.5 3.79551e-15 196765)
(-27590.6 25407.7 3.27201e-14 1624.94 1.21937e-14 -6442.62)
(-181643 52290.3 2.47283e-15 -1584.14 -2.11545e-14 -45462.3)
(140941 41073 -2.10913e-14 2932.09 3.0948e-14 35697.9)
(-132874 51910.5 1.76245e-14 -3948.96 -3.18227e-15 -33948.5)
(835793 26908.8 -1.76743e-14 -5535.63 -6.13129e-15 206004)
(-17904.6 58512.6 1.6036e-14 60.4441 -2.62557e-14 -4427.5)
(-144409 46572.7 -9.61026e-15 -2150.98 1.66591e-14 -36364.5)
(109972 47221.4 2.87229e-14 -542.288 -1.64559e-14 27151.6)
(702230 20931.5 2.00988e-15 827.882 -1.12756e-14 174443)
(-97082.9 33109.1 -4.59722e-14 2815.98 -5.57972e-14 -23389.5)
(-290319 19625.9 3.27074e-14 721.936 1.09699e-14 -71855)
(-210326 21789.5 8.26631e-16 4147.41 -5.71233e-14 -51157.1)
(-27881.2 27322.5 0 -1672.07 0 -7332.78)
(-435012 47226.6 -6.869e-16 4476.54 2.8384e-14 -106825)
(-13159.7 59259.8 -9.2026e-15 743.365 1.91019e-14 -3080.76)
(-21347.2 49691.6 -3.54621e-14 -3001.66 3.98844e-14 -6041.44)
(-19436.7 47842.2 2.48737e-14 -5043.71 -1.52955e-14 -6074.09)
(-721376 182091 -2.58992e-15 102841 2.4751e-15 -153471)
(824707 46044.8 -5.45571e-16 -3122.71 -7.21589e-15 203852)
(-132109 37594.4 -3.41541e-14 8061.1 -2.49253e-14 -30778.9)
(717337 18574.9 -1.42184e-14 2569.98 1.26456e-14 178624)
(-95408.7 26350 3.02335e-14 1582.25 -9.96031e-14 -23280.2)
(-71351.9 40671 5.67764e-15 5361.71 -5.44853e-15 -16373.5)
(-70790.9 46028.3 5.79225e-14 4205.03 5.83989e-14 -16521.3)
(-958474 -12726.7 5.66487e-15 2287.37 2.47455e-14 -237249)
(33433.9 40258.2 0 3603.97 0 9189.85)
(22767.9 48778.6 -6.02677e-14 -419.877 -2.38746e-14 5545)
(15218.4 51825.1 2.08917e-14 3326.78 -1.70285e-16 4601.43)
(-28767.9 43487.7 1.46992e-14 -3178.56 4.17726e-14 -7926.57)
(-498815 45809.9 -8.30713e-15 -2123.16 4.42012e-14 -124293)
(144857 39979.9 4.87144e-14 1223.06 -1.52333e-14 36245.5)
(-444417 41571.7 0 -1672.77 0 -110684)
(-396830 40208.7 -1.78542e-14 -1472.36 -1.8262e-14 -98827)
(205206 36303.3 2.24319e-14 2015.03 1.35672e-15 51415.8)
(-5589.84 54553.5 -7.8516e-14 -1513.99 -5.06291e-14 -1762.6)
(543071 60134.5 0 -2345.67 0 134165)
(-42283.6 50456.8 -1.66551e-14 1706.23 -2.77592e-14 -10068.1)
(34924 24295.3 -9.64195e-15 2734.9 -1.40352e-14 9343.93)
(55691 42533.5 7.4988e-14 -429.449 1.332e-15 13711.5)
(24417.9 -18447.9 -3.64792e-16 -51988.1 -2.70527e-16 -6840.74)
(-1288.62 5030.69 9.42568e-18 3016.73 -5.60354e-17 428.779)
(-24439.3 -18171.3 -2.28975e-16 51437.5 1.52693e-16 6698.79)
(-5506.87 56064.8 -2.4413e-14 -2114.96 -3.61108e-16 -1891.13)
(-238022 35119.7 -6.07062e-15 -1501.51 2.46956e-14 -59430.5)
(23246 36226 1.34313e-14 -558.595 -3.77845e-14 5629.2)
(253871 38974.6 -2.95325e-14 -3154.16 -4.12436e-14 62208.1)
(-513316 63618.8 2.2498e-15 973.678 4.55624e-15 -127123)
(-177033 56625.7 -1.36899e-15 2911.01 4.40414e-15 -43203.1)
(2441.46 58834.5 -3.77328e-15 -122.74 -1.88566e-14 575.322)
(121644 63523.7 -8.61796e-15 980.892 -1.51278e-14 30425.8)
(-51484.7 44640.8 -2.32944e-14 1281.21 5.16637e-14 -12456.5)
(-36678.7 49219.9 -7.84087e-14 -396.195 -3.79985e-14 -9199.04)
(801312 23484.7 4.99601e-15 3016.35 1.08827e-14 199570)
(435177 39131.3 7.67726e-15 947.71 1.54668e-15 108211)
(490845 41714.5 1.47634e-14 1634.23 2.09526e-14 122194)
(389588 36855.4 5.28433e-14 1878.88 3.14494e-14 97130.8)
(-148818 40115.3 2.28678e-14 -4070.91 3.58314e-14 -37934.8)
(-211193 36636.8 -6.06459e-14 -2825.34 2.18533e-14 -53102.2)
(70484.7 41237.3 2.6696e-14 -199.732 -1.40598e-14 17439.1)
(723063 34340.9 7.70922e-15 853.979 4.61366e-15 179619)
(95731.6 27540.4 -1.88256e-14 -3508.77 -7.41559e-14 22882.4)
(-27376.4 53811.4 -6.50813e-14 1886.66 6.11956e-14 -6324.53)
(676445 49998.3 -9.09778e-15 254.449 1.13664e-14 167903)
(-48097.8 55277 -2.18507e-14 713.926 -5.90705e-15 -11756.9)
(-89839.5 42572.9 -1.61606e-14 1567.44 -6.88465e-15 -21902.1)
(22877.8 55321.9 4.67205e-14 -3367.36 -6.71763e-14 4840.93)
(30617.4 52323.3 -3.28332e-14 -532.132 2.26625e-14 7464.78)
(-20448.3 47102.5 -9.49665e-15 -2201.01 -1.40622e-14 -5619.76)
(-43591.6 48467.3 -5.92608e-14 1704.56 -4.64684e-14 -10393)
(-2226.99 56366.3 -5.69456e-14 -2599.09 -4.3101e-14 -1197.45)
(-16203.2 56541.1 -3.41559e-14 -6382.82 3.77235e-14 -5604.05)
(-1503.88 55403.3 -2.23361e-14 -791.171 -2.13985e-14 -569.448)
(4942.05 46620.7 1.07375e-15 24513.8 4.80425e-14 7308.6)
(-22787.8 16133.7 -2.18303e-16 -5186.07 2.2985e-14 -6940.89)
(-928705 -143663 8.38258e-15 39125.9 -4.33995e-15 -220723)
(-616282 49587.4 5.78873e-15 -3871.82 -8.75496e-16 -153873)
(159951 35676.3 2.58065e-14 4346.21 -2.52592e-14 40765.4)
(-492662 45127 -2.14663e-14 1957.84 1.3567e-14 -121754)
(219158 31575.3 -1.17919e-14 5114.91 3.5543e-14 55646.7)
(-435950 40307 8.16927e-15 2362.66 8.19112e-15 -107582)
(-389490 38246.2 -4.57441e-14 2736.87 3.51614e-14 -95961.4)
(132765 44157.3 2.51751e-14 899.181 7.06314e-14 33164.7)
(-423740 30589.2 2.91652e-14 3351.52 -4.07145e-14 -104307)
(183904 41711 3.15887e-14 1556.66 -2.52309e-14 46016.5)
(-375793 27461.8 2.37135e-14 2886.25 -4.14864e-14 -92525.7)
(-336062 27075.2 -2.4649e-14 3457.89 -2.22168e-14 -82525.9)
(-217581 60273.2 1.99877e-15 6919.83 1.97987e-14 -52269.2)
(55258.8 50407.1 -1.25463e-14 -4601.57 -8.43108e-14 12569.1)
(76473.9 44754.5 -2.02166e-14 -3223.77 -5.886e-14 18174.8)
(-116242 43168.9 -6.17844e-15 3721.91 3.61812e-14 -27918.5)
(459164 26733 -3.94289e-14 274.08 -1.32538e-14 113996)
(-487376 4323.93 3.813e-14 -4918.8 1.1902e-14 -122148)
(266463 33508.4 2.66833e-14 -2416.15 -2.48893e-14 65515.3)
(-175131 43946.4 6.642e-16 3371.51 3.97992e-15 -42617)
(-73331.4 49848.6 -3.25944e-14 3645.58 -2.70609e-14 -17290.5)
(-76420.7 46260.8 2.79006e-14 971.481 -2.53739e-14 -18720.5)
(6445.92 56361.1 2.12111e-14 2575.14 3.89671e-14 2238.31)
(-106500 39546.6 -4.7727e-14 3195.17 4.97188e-14 -25632.1)
(79381.7 42214 -2.51524e-14 -3952.25 -2.6718e-14 18715.6)
(52316.5 52558.7 -2.29469e-14 152.886 1.77821e-14 13018.7)
(-180575 39382.2 3.8934e-14 4692.46 -2.63235e-14 -43640)
(-246077 40220.4 1.44066e-14 1064.56 3.14222e-14 -60792.6)
(560749 25951.6 9.67712e-15 889.004 -1.69954e-16 139354)
(-1718.41 57158.4 1.11323e-14 1120.5 -5.44564e-14 -148.354)
(907847 46578.1 -1.18443e-14 -7136.92 -6.49912e-15 223484)
(-88034.7 45066.8 -4.12244e-14 2114.47 2.85391e-14 -21318.6)
(717489 31514.8 0 -8064.05 0 176023)
(-189646 43295 1.29327e-14 4.59586 5.36278e-14 -47053.9)
(-211814 45134.5 -1.32432e-14 -797.557 1.58596e-14 -52753.3)
(-238294 48967.7 -1.98231e-15 -1708.46 5.84699e-14 -59549.5)
(95851.4 45970.9 -3.07915e-14 -45.5529 7.61894e-15 23771.4)
(65004 51687.2 -3.26301e-14 -1026.56 8.10459e-15 15874.1)
(-1.02338e+06 2068.19 9.50784e-15 -5658.7 -5.46767e-15 -255326)
(-564351 46349.2 -9.052e-15 -2650.64 1.74745e-14 -140685)
(173728 39139.9 -3.26247e-14 3191.25 -1.91779e-14 43897.2)
(232705 33869.3 9.27484e-14 1242.36 -5.0053e-14 58047)
(30803.1 51427.2 1.79358e-14 -4539.82 -4.66004e-14 6516.45)
(-153665 28768.3 0 1831.52 0 -37673.1)
(-159196 22707.9 4.89972e-14 2933.59 -2.50032e-14 -38771.8)
(809343 32404.8 1.48467e-14 -7315.14 9.97508e-15 198999)
(832725 5409.34 1.22406e-14 6191.92 1.09701e-14 208152)
(387650 27190.3 4.98248e-16 390.241 2.49734e-14 96280.7)
(346929 26103.4 4.53616e-15 1308.67 5.96033e-14 86404.8)
(437233 27854.2 1.32273e-14 -31.5861 -1.90454e-14 108478)
(-177600 41946.3 -2.96709e-14 1974.67 2.68208e-14 -43576.3)
(-123302 45188 -2.86739e-14 220.344 3.16068e-14 -30539.1)
(75278.8 52014.5 0 882.904 0 18897.3)
(48612.5 57968.4 -1.23338e-15 1054.16 4.57989e-14 12323.3)
(164821 44173.4 -3.62325e-14 -884.774 2.97218e-14 40676)
(-72786.5 42782.4 -2.89295e-14 -209.556 6.9074e-14 -18111.8)
(-133922 64675.6 -6.19562e-15 1622.51 2.78209e-14 -32826.1)
(35111.5 50707.4 -1.04446e-13 -770.48 -2.7856e-14 8520.71)
(47982.7 44283 -7.28377e-14 200.632 3.06182e-14 11955.3)
(-37224.6 53552.6 -1.40591e-14 1422.81 -1.95545e-16 -8883.15)
(-98039.6 45448.1 -1.25882e-14 1144.83 -7.92746e-15 -24041.6)
(-86812.2 42660.1 8.17093e-15 537.109 -1.40587e-14 -21406.6)
(-91394.8 39843 0 -1079.25 0 -22944.7)
(-51199.3 69142.9 1.96179e-16 -1726.63 -1.7807e-14 -13132)
(-349948 13003.4 3.47944e-14 -4474.98 -1.52451e-14 -87939.5)
(446494 29343.9 -4.63654e-14 -2093.91 -4.5357e-15 110265)
(742291 103130 3.16908e-15 -145311 1.63484e-15 148123)
(-18092.6 53544.8 9.32414e-15 -1046.94 -2.12447e-14 -4748.91)
(100796 25088.8 3.4e-14 133.938 -7.7961e-14 25042.7)
(-947291 -102741 7.99152e-15 81220 -5.43107e-15 -214890)
(46097.3 44666.3 1.45901e-15 3290.65 3.96668e-14 12254.2)
(117190 30438.2 2.74976e-14 3423.95 -3.16677e-14 29926.9)
(128254 31881.6 3.83838e-14 -2596.92 -1.62515e-14 31178.2)
(-1916.31 58219.3 2.88676e-14 39.6904 -4.30632e-15 -465.628)
(-2475.73 59156.7 3.04556e-14 -505.889 2.59049e-15 -739.8)
(324318 27479.6 9.93712e-15 -3367.06 3.39323e-14 79634.5)
(267955 48218.9 1.29396e-14 239.093 -3.14913e-15 66544.4)
(-240563 42018.1 0 705.186 0 -59513.5)
(-207100 32510.3 -3.21279e-14 -4302.15 -2.01803e-14 -52453.2)
(917600 -144675 -3.32979e-15 -39845.2 -2.35422e-15 217789)
(-251520 71385.4 -2.76089e-15 6953.11 3.38113e-14 -60682)
(-415238 40959.4 2.00029e-14 -1178.07 -1.19879e-14 -103321)
(-965307 -387685 -9.06201e-15 207217 3.57729e-15 -188097)
(1.02578e+06 3351.29 0 14468.4 0 258106)
(-846267 -360036 -2.95357e-15 97522.1 9.17847e-16 -185779)
(127184 74906.3 -1.91372e-14 -211.923 6.89138e-15 31504.3)
(-29588.9 50118.9 -2.9485e-15 -3860.22 4.13914e-14 -8299.41)
(-351117 53424.6 1.5929e-14 -2461.94 -1.77338e-14 -87730.1)
(-310041 49854.7 2.34755e-14 -1434.24 -2.90662e-15 -77283.4)
(-276951 47520.2 -2.63742e-14 -1332.39 9.87211e-16 -69047.8)
(100027 45275 2.19026e-14 2177.44 -6.13222e-14 25359)
(142151 40192.7 -5.52719e-14 1896.05 5.3914e-14 35741)
(14970.6 47870.3 -8.6376e-15 -4545.77 4.07193e-14 2586.62)
(19688.9 42058.5 2.05959e-14 -4734.51 2.64952e-14 3710.49)
(-59333 67886.6 -2.60511e-14 8641.16 7.11971e-15 -12577.7)
(-31060.4 41380.3 1.79424e-14 5199.09 -2.30617e-14 -6416.71)
(-532271 -214763 -2.29712e-15 -14220.1 4.75992e-16 -135596)
(75066.9 67488.1 -1.45354e-14 5746.84 -5.24528e-14 20051.5)
(-36192 43021.3 -4.61372e-14 -3830.78 -2.11899e-14 -9930.46)
(-169018 54111.2 0 -143.134 0 -41972.4)
(75175.6 48759.7 3.89168e-14 -53.3906 -1.6067e-14 18639.3)
(-35718.6 50970.2 0 -14.5211 0 -8866.12)
(-30298.7 50177.7 -2.21604e-14 717.702 -3.52788e-14 -7339.64)
(243081 41399.8 3.21627e-14 1668.79 -3.36306e-14 60727.5)
(250649 33416.2 4.88525e-14 -904.35 2.34067e-14 61966.8)
(955384 -384219 -3.36069e-15 -203688 -1.11356e-15 186511)
(527040 -213014 3.94452e-15 14468.9 1.07415e-15 134359)
(-90708.1 39617.1 6.75776e-15 169.198 9.66097e-15 -22464.5)
(-97929.2 41893 -2.05155e-14 -1650.76 -4.21755e-14 -24707.8)
(-449183 13055.4 -2.35583e-14 -3244.35 -5.47668e-15 -112256)
(354526 32143.8 5.24002e-14 -2727.91 -1.38168e-14 87288.2)
(122725 47135.8 1.61866e-15 -161.472 9.35808e-14 30410.5)
(175403 44721.3 3.17339e-14 -1517.88 3.47038e-14 43144.4)
(-448934 28694.9 -7.38411e-16 -907.84 2.1641e-14 -111615)
(-401268 27754 -2.14157e-14 -43.7367 7.08841e-15 -99573.7)
(-357958 27803.2 -1.19936e-15 -74.6994 3.29896e-14 -88835.3)
(-4305.6 58029.1 -4.80443e-14 -1244.74 1.3969e-14 -1377.15)
(-509176 29044.3 1.45811e-14 -1658.73 1.57281e-14 -126748)
(147173 43833.9 -3.25176e-14 -431.293 1.60253e-14 36409.6)
(197938 41515.5 0 -2124.97 0 48585.3)
(189483 38480.1 1.25847e-14 -1257.83 3.04324e-14 46702.6)
(38699.7 47401.4 -4.05741e-14 3407.97 -1.07837e-13 10447.8)
(1530.74 55715.7 -3.55925e-14 -5724.2 -1.31738e-14 -1040.48)
(191838 43376.7 -5.22945e-14 6129.78 9.64284e-15 49119.9)
(-141824 37691 -4.09934e-15 -965.037 -3.28026e-14 -35428.8)
(20926.1 61046.3 5.94291e-16 -6699.87 7.98712e-15 3529.82)
(837538 -357245 -3.04876e-15 -95487.7 -7.62984e-16 184118)
(93132.2 46586.5 3.47126e-15 -2613.34 -6.2124e-14 22459.6)
(113461 46491.6 2.8785e-14 -1414.59 9.82455e-15 27801)
(-79629.7 48080.5 0 2251.76 0 -19199)
(-94096.4 51066.1 1.05156e-14 -1197.87 -2.94806e-14 -23644.4)
(266726 46705.7 0 3615.62 0 67077.3)
(299034 49969.1 1.95e-14 2604.41 1.86838e-14 74842.7)
(336521 54056.4 -4.46777e-14 2592.31 -4.23079e-15 84140.8)
(-146796 37982.2 5.8339e-14 -2930.47 5.94555e-14 -37150.3)
(-104910 42896.2 3.0346e-15 -2217.49 -3.5402e-14 -26580.6)
(-8470.55 58177.7 3.42144e-14 2769.52 1.83149e-14 -1414.54)
(823376 24812 -6.14829e-15 -11717.2 -1.18854e-14 201389)
(-6660.74 52778.3 -3.72218e-14 -3102.47 1.1641e-14 -2422.45)
(3552.32 43455.5 -3.86403e-14 3993.3 -2.42829e-14 1872.22)
(14623.8 56441.6 2.65993e-14 -104.885 -6.20762e-14 3602.44)
(149956 46401.3 2.91093e-14 -1448.11 3.09583e-14 36847.7)
(-72259.9 15397.3 -4.71842e-14 -2600.93 2.34011e-15 -18574.5)
(194298 51814.1 0 -1559.88 0 47822.3)
(896183 -18112.4 1.4679e-16 -137046 5.89906e-17 188357)
(162982 21201.6 2.71822e-14 1613.92 6.20702e-14 40839.6)
(154170 26577.1 1.23302e-14 -3202.63 6.73955e-15 37458)
(-216717 41893.3 4.12294e-15 2841.41 8.68359e-15 -53067)
(-155772 43163.6 -3.1649e-14 748.534 1.01606e-14 -38464.5)
(-185820 34901.2 -6.52847e-14 1741.75 -1.15022e-14 -45673.4)
(-133864 38549.7 3.26283e-15 -500.5 -3.44973e-15 -33338.7)
(520528 27743.4 -2.60359e-15 -602.342 8.36251e-15 129004)
(427153 57250.6 1.19898e-15 -782.697 -1.72619e-14 105791)
(106684 49167.2 5.79038e-15 -275.301 3.43834e-15 26402.1)
(144896 44860.8 1.08367e-14 986.589 1.85806e-14 36196.5)
(78242.4 50691.8 2.99384e-14 -3161.16 2.14325e-14 18629.2)
(108683 45468.8 2.6876e-14 -4210.4 -4.27468e-15 25921.7)
(-239428 42950 -5.38329e-15 1778.32 1.37381e-14 -58965.7)
(-310944 53056.8 -1.50497e-14 567.328 2.7022e-15 -77010.9)
(-80947.6 76370.4 1.72565e-14 -47.1701 1.24814e-14 -20096.4)
(550784 42721.8 1.94744e-14 2518.76 1.41824e-14 137286)
(599004 44164.3 -4.27849e-15 10326.9 2.16414e-15 151187)
(722558 42820.5 3.45555e-15 -698.083 2.20802e-15 179108)
(42902.6 51457.2 -5.80393e-14 4211.31 7.0798e-14 11689.9)
(-161242 22628.2 -3.60216e-14 1018.13 -1.85703e-14 -39754.9)
(-153090 27855.4 -4.5681e-14 6178.69 3.06666e-14 -36451.7)
(791177 7242.38 0 7022.86 0 198050)
(789625 35526.5 0 -809.545 0 195721)
(395012 30664.1 6.98282e-15 -1898.17 3.46739e-14 97539.5)
(395933 17456.6 2.36558e-14 2470.38 -6.53928e-14 98852)
(-421026 16396 0 -4352.78 0 -105545)
(-408442 28970 0 3295.38 0 -100525)
(13775.7 54399.9 -7.99526e-15 3758.34 2.30231e-14 4350.54)
(-39907.2 36641 8.57137e-14 -4073.64 -3.64583e-14 -10912.5)
(-127877 28425.6 -2.25804e-14 -3055.64 -8.3617e-15 -32487)
(1.12621e+06 2279.42 0 23166.5 0 285184)
(-20821.4 51939.2 -5.64635e-14 -6835.47 -1.44131e-15 -6862.24)
(-21894.5 54686.3 -8.13245e-15 -6134.25 -4.54932e-14 -6954.51)
(94142.2 50526.3 -2.9511e-14 -1435.14 -2.03045e-14 23002.5)
(-78754.1 51949.7 -6.18531e-14 -1027.6 2.60137e-14 -19795.5)
(90572.6 39348.3 1.83864e-14 -4535.64 -1.90824e-14 21347.5)
(-358405 30392.1 1.27054e-14 -2583.67 -2.62467e-14 -89568.5)
(351589 31506.4 -5.11761e-15 -3359.78 -3.21568e-14 86402.8)
(-714813 45414 5.78087e-15 -3798.44 -2.62317e-14 -178302)
(-981600 -74940.2 3.45987e-15 200087 -2.62618e-15 -193909)
(315615 70397.1 -5.37906e-15 -6698.72 6.82422e-15 76648.5)
(24752.1 53614.5 -3.14145e-15 -2208.57 1.7665e-14 5593.51)
(-338271 45715.8 -1.5932e-14 -3384.68 -4.40674e-14 -84771.8)
(277534 28511.4 -2.02297e-14 1462.67 2.91338e-14 69224.8)
(-203498 34333.6 2.26812e-14 -4385.66 2.91199e-14 -51580.1)
(149914 44182.9 3.31788e-14 1613.87 5.55192e-16 37597.1)
(24731.7 59586.3 9.07497e-15 -587.223 4.27087e-16 5990.74)
(51768.4 52246.3 -3.83938e-14 -1511.62 4.84867e-14 12469.7)
(-108399 45591.7 2.83074e-14 -6718.38 -3.03326e-14 -28562.8)
(-172461 66112.7 5.68042e-16 1825.86 3.81913e-14 -42338.1)
(-96279.5 43346 4.26312e-15 -6539.41 -3.01712e-14 -25511.5)
(-153896 61885.3 2.72154e-14 780.338 -9.97798e-15 -37991.1)
(35323.4 44858.8 -1.7965e-14 -989.483 5.65417e-15 8518.94)
(-15956.5 53109.1 -4.4165e-16 1641.94 -3.21799e-14 -3551.73)
(-10563 56852.7 3.94113e-14 877.237 3.17597e-14 -2403.23)
(-8170.3 58253.3 2.02302e-14 -572.325 -4.42996e-14 -2169.22)
(598964 36308.9 1.35747e-14 1802.14 2.07314e-15 149062)
(-6440.67 54831.3 -4.54081e-14 -2204.83 -2.0272e-14 -2145.12)
(-24056.4 53076.6 2.19713e-14 -8206.95 -7.39689e-14 -8005.19)
(889797 -7763.46 -6.88003e-15 -47287.4 -5.22636e-15 209044)
(110290 40385.3 2.35862e-14 -3817.74 -3.03415e-14 26417.9)
(-288467 60267.4 1.71777e-14 5208.65 4.69869e-15 -70282.1)
(-291086 35449.1 -2.61862e-14 1759.99 -1.15071e-14 -71787.7)
(-291418 25672.2 0 -1978.06 0 -72797.6)
(367042 20769.8 -2.38827e-14 4143.72 -1.13773e-14 92098.8)
(348660 40666.3 1.24073e-15 4654.74 2.86452e-14 87664.5)
(-16289.5 46689.6 -2.60111e-14 2950.55 2.13152e-14 -3309.66)
(-12365.4 46832.6 1.88917e-14 2064.82 -1.06044e-13 -2555.8)
(-282031 67279.3 -1.17626e-14 3377.85 -3.09652e-16 -69139.6)
(-378223 54445.7 0 4776.08 0 -92659.8)
(276330 46971.5 6.53882e-15 3415.09 1.67644e-14 69410.3)
(-734921 59783.4 2.83161e-15 -2275.34 -9.41061e-15 -182913)
(16492.1 41931.9 0 3046.54 0 4847.93)
(352543 39308 -1.43684e-15 -503.079 9.55814e-15 87348.3)
(264035 63724.4 -7.37874e-16 2074.06 3.78144e-17 66027.1)
(-150776 48263.7 4.88921e-14 4988.27 -6.29419e-15 -36172.9)
(-118355 39846 -4.7324e-15 3852.06 3.46009e-14 -28410.6)
(-106940 48296.5 7.46821e-15 2234.57 -2.8632e-14 -25979.7)
(-81628.8 41567.7 -4.22296e-16 1077.15 1.68258e-15 -19986.5)
(-134760 32141.5 1.74889e-14 3218.91 2.59229e-14 -32638)
(-111034 35771 -3.05923e-14 7601.3 6.19542e-15 -25663.8)
(-128884 54256.7 0 1314 0 -31652.7)
(-150039 59016.7 -1.63811e-14 116.532 1.43257e-14 -37198.8)
(-169357 63744.6 -1.36511e-15 3.61354 -1.56473e-15 -42020)
(41081.7 44325.9 -7.52581e-14 1736.1 -3.77708e-14 10624)
(-9217.93 55763.4 -1.66957e-14 -2461.13 3.34164e-14 -2897.81)
(289965 28221.1 -9.87258e-15 2209.43 2.77749e-14 72494.4)
(302475 34673.9 1.35988e-14 -3417.06 -2.62342e-14 74202.3)
(53338.4 50280.7 2.7186e-15 -3159.58 -1.88917e-14 12450.4)
(72776.8 42879.2 0 606.562 0 18207.9)
(-194611 65678.4 2.14731e-14 -474.61 -2.38817e-14 -48404.7)
(157256 48640.8 -4.09236e-14 1581.91 -4.63489e-16 39411)
(171438 60371 -1.7904e-14 1529.88 -1.09177e-15 42916.8)
(-56056.1 48023.1 -3.10066e-14 -3542.93 4.46691e-14 -14787.7)
(-46193.3 48688.1 1.81167e-14 -2707.31 1.07599e-15 -12133.2)
(-72701.7 49714.3 2.96059e-14 1831.34 1.05743e-14 -17584.4)
(-81188.2 46121.8 0 725.527 0 -19964.4)
(-400218 38519.9 9.49958e-15 -540.881 -1.47418e-14 -99436.4)
(151969 45284.8 -1.41631e-14 1061.21 -5.68277e-14 37969.8)
(113655 48322.6 -6.50118e-15 -37.4962 -9.30834e-16 28190.8)
(-55784.3 116624 -4.66513e-15 11648.2 -3.48806e-15 -10951)
(402431 26421.7 -3.0313e-14 -3816.94 -1.82285e-14 98904.3)
(-485922 16611.7 2.68338e-14 1633.62 1.61091e-14 -120162)
(-79823.1 110379 0 -1201.87 0 -20103.9)
(-63852.7 50398 1.08195e-14 2821.25 3.28197e-14 -15143.2)
(-55495 52185 -8.13894e-14 4348.63 -2.0726e-14 -12690.5)
(-88881 43047 3.53126e-14 996.389 4.01262e-16 -21806)
(-76965.8 45230.9 0 2569.57 0 -18459.2)
(170342 44751.7 1.97073e-14 -1019.06 -3.17728e-14 42012.6)
(196316 54269.6 7.12306e-15 -1574.27 3.03605e-15 48319.5)
(153037 45114.5 -1.43558e-14 -2559.71 1.38033e-14 37336.4)
(179864 53408.1 1.50621e-14 -2033.86 4.23843e-14 44123.2)
(135544 41981.3 1.17168e-14 -723.216 1.98684e-14 33451.7)
(159362 49337.9 -2.56623e-14 -985.187 1.47402e-14 39296.6)
(137011 29781.1 1.10179e-14 1954.46 4.1842e-14 34480.2)
(132293 24065.7 3.24288e-14 5983.23 6.97515e-14 34309.1)
(-306112 59532.6 -7.1309e-15 1103.2 9.55699e-15 -75678.8)
(114113 48887.8 -3.37723e-14 -2227.23 -8.09487e-16 27761.1)
(-305453 46385.5 0 2465.7 0 -75177.3)
(525033 52478.8 2.02848e-14 -5604.9 -1.28366e-14 128881)
(-238130 31176.2 3.41199e-14 892.205 -5.65629e-14 -58863.6)
(-179181 32819.1 4.10075e-14 -409.94 -2.76683e-14 -44560)
(-730202 -345188 -2.82016e-15 117831 6.27435e-16 -151942)
(21797.6 53587.4 4.5642e-14 975.054 -1.20498e-14 5650.37)
(562809 37937.8 -6.73934e-15 -1234.15 -3.16512e-16 139338)
(-242532 38589.6 -9.69221e-15 610.842 -2.79487e-14 -60025.5)
(-179930 39590 5.95148e-14 -536.74 2.9428e-14 -44777.4)
(923881 3556.22 1.14365e-14 -874.127 5.09477e-15 229017)
(-38227.8 49296.9 -6.54912e-15 848.335 2.64006e-14 -9274.61)
(592310 22124.8 1.70685e-14 2317.07 -1.069e-14 147539)
(-131588 40469.6 2.04986e-14 1809.26 -3.63078e-14 -32200.7)
(-522717 57692.3 1.40106e-14 5989.47 -1.80833e-15 -128211)
(-491909 43355.5 -8.56476e-15 -3000.68 -6.82454e-16 -122797)
(463794 44649.4 -1.63096e-14 365.201 1.07931e-14 115167)
(-52571.1 48906.9 -9.13428e-14 2600.99 -4.17779e-14 -12398.6)
(-1640.66 -18568.4 1.14551e-16 -29120.4 4.07863e-17 -7632.45)
(-10122.1 53357.7 0 2953.95 0 -1778.57)
(-966972 -306676 4.6185e-15 126790 -1.27395e-15 -208466)
(722595 -342490 5.42829e-15 -116460 1.70952e-15 150394)
(-392334 56878.6 1.74742e-14 -3122.11 -1.7154e-14 -98120.6)
(122209 42431.9 6.83971e-15 -212.68 2.6625e-14 30269.7)
(159509 36548.7 -2.24086e-14 -460.97 5.09353e-14 39463.1)
(55850.2 50538.7 4.41172e-14 -1936.84 1.32088e-14 13377)
(-99329.1 21959.8 2.55928e-14 1136.56 -3.94963e-14 -24363.6)
(74930.5 53104.6 -2.18083e-14 -378.607 2.00199e-14 18497.8)
(-40821.5 42637.5 6.43996e-15 1224.45 9.91794e-15 -9824.83)
(-51012.6 70054.6 5.12697e-15 2164.86 1.51347e-14 -12120.1)
(-771768 19352.8 -2.44457e-15 19369.9 6.14003e-15 -186685)
(6481.25 -11041.9 3.00179e-17 -19293.3 1.86371e-17 -3178.94)
(-205943 51220.9 -9.20787e-17 2467.28 1.86067e-15 -50486.4)
(155727 37144.4 1.61155e-14 -384.154 5.05303e-14 38543.8)
(818722 -158263 4.65322e-16 -21982.9 6.4772e-16 197687)
(-18879.9 41917.8 -4.20642e-15 -2222.01 -3.28296e-14 -5235.82)
(-22270 54892.1 3.34016e-15 -593.35 3.20677e-14 -5672.85)
(-13785.2 49261 -5.72975e-16 896.912 -4.95557e-14 -3197.85)
(-40361.4 54492.6 -9.80965e-15 1622.2 1.3507e-14 -9611.97)
(13542.4 49133.2 1.43773e-14 -198.678 3.7319e-14 3310.84)
(9824.32 54128.3 -3.35142e-14 -1227.44 -1.09969e-14 2133.06)
(-827633 -158050 2.08945e-15 21543.2 -6.37685e-16 -200007)
(248479 60955.1 -1.48817e-14 508.638 8.1663e-15 61779)
(-84575.3 49539.7 -8.95507e-14 2813.24 -2.55084e-14 -20286.8)
(256753 50289.2 5.08456e-14 3026.67 -8.58214e-14 64456.6)
(228613 46915.2 -4.26572e-16 3510.75 -3.22964e-14 57594.5)
(204989 43704.2 -9.06643e-14 1601.9 1.38902e-14 51259.5)
(39854 38478.9 -4.37528e-14 4523.85 -1.64362e-14 11011)
(-570781 29679 2.60167e-14 -2157.97 -2.55862e-14 -142158)
(157949 38862.4 4.75614e-14 -692.088 5.12531e-15 39018.7)
(213770 37033.4 -2.16038e-14 -721.392 -3.11306e-14 52861.6)
(-49016.9 51012 -7.5794e-14 -638.762 -1.28452e-14 -12320.6)
(396917 67161.9 5.76876e-15 -5912.04 8.63262e-15 97016.2)
(66495.9 42769.3 -3.06807e-14 -2554.05 2.08727e-14 15865.3)
(-811975 27584.4 -9.41703e-15 -1606.72 -3.5891e-15 -201866)
(20241.2 52328.1 -3.95441e-14 2101.7 -3.34377e-14 5543.72)
(-62538.8 51804.4 -7.87176e-14 3309.87 3.73692e-14 -14695.9)
(183021 44953.5 6.39422e-14 1034.68 -9.37861e-15 45668)
(162532 42201.3 5.87119e-14 1287.49 1.42894e-14 40646.8)
(145912 39445.8 -4.20559e-14 -158.79 1.16846e-14 36164.3)
(416165 45032 6.89564e-15 537.856 1.51424e-14 103392)
(68937.6 47992.7 -2.66074e-14 1185.57 -5.73839e-14 17399)
(-206510 48456.6 1.98578e-14 -2769 4.66096e-16 -51926.3)
(-176186 74405.4 1.25732e-14 1915.18 1.42026e-14 -43240)
(-89335.8 41681.4 0 287.928 0 -22094.6)
(-259881 50453.9 -2.56116e-14 -1818.84 7.80879e-15 -64933.1)
(-290081 53182.3 -3.91693e-14 -2034.9 -2.66472e-15 -72479.8)
(-326868 58310 -3.96279e-14 -3089.68 1.92111e-14 -81869.1)
(139974 41237.3 7.4014e-16 1770.38 9.44978e-15 35169.7)
(99041.3 47307.1 1.18446e-14 446.084 -1.48916e-14 24684.8)
(40156.3 17983.8 -3.44776e-14 1518.6 1.24713e-14 10340.4)
(55316.8 42426.1 0 -1973.54 0 13235.5)
(73564.6 37306.4 -4.02761e-14 -1467.08 2.41286e-14 17888.8)
(980397 -30729.4 -2.56032e-15 -142952 -1.25868e-15 207787)
(277182 32038.9 4.1548e-14 -932.602 -4.26639e-14 68543)
(-208993 45407.6 0 -312.112 0 -51932.8)
(-155202 44465.5 -2.04441e-14 2382.54 -9.20686e-16 -37917.5)
(117157 47619 1.0716e-14 -2088.16 -1.32874e-14 28550.9)
(-38687.4 48723.2 1.78111e-14 -637.327 1.46597e-14 -9757.25)
(-9799.68 57608.9 5.16784e-14 422.831 -4.09415e-14 -2326.59)
(7785.9 42467.8 4.35657e-14 3431.32 -6.94184e-15 2783.22)
(9201.78 45583 -2.3117e-14 3379.55 -2.16938e-14 3121.68)
(-7083.38 66672.2 -1.17498e-15 -2474.86 -9.76487e-15 -2371.59)
(-2695.54 38660 -9.7925e-15 -169.057 3.30786e-14 -710.765)
(-2849.25 43237.9 -3.62932e-14 -4145.39 2.71427e-14 -1735.51)
(4004.4 54706.6 3.44727e-14 -9319.69 -1.57427e-14 -1318.83)
(57554.5 46413 -2.9973e-15 1302.54 -1.44978e-14 14603.6)
(-133454 77149.6 -7.29012e-16 807.849 -7.34035e-15 -32912.2)
(32333.7 51010.2 8.67448e-14 -1001.35 -1.71603e-14 7774.18)
(-773.28 75530.4 4.21097e-15 -7309.48 6.20437e-15 -2005.5)
(-259646 71207.1 -1.03458e-14 -756.378 -6.3105e-15 -64611.1)
(284160 41899.9 3.23611e-14 2650.45 2.92016e-14 71163.5)
(-118028 45693.8 -3.34558e-14 364.708 1.09741e-14 -29194.5)
(-656770 144906 -1.88096e-15 128371 1.16888e-15 -131107)
(-83836.6 42295.2 2.36795e-14 -2593.51 2.58604e-14 -21445.1)
(-139777 69077.1 0 1875.02 0 -34216.3)
(35916.3 48729.6 4.62507e-14 -3377.56 -6.41786e-14 8073.51)
(51725.9 41595.4 2.45933e-15 -68.667 8.03917e-15 12817.2)
(723897 -160558 -5.88171e-16 24291.3 1.05683e-16 185641)
(-915196 16554.8 -7.68405e-15 4712.46 3.5437e-15 -225909)
(226758 40542.2 1.53699e-14 4750.94 1.30134e-14 57442)
(255200 43414.9 -1.6131e-14 3489.62 3.49191e-14 64186.1)
(-85369.6 51895.6 -1.09559e-13 5141.69 -3.92696e-14 -19906.2)
(49199.7 55446.5 1.99809e-14 1949.43 3.96643e-14 12691.1)
(-15292.6 50931.3 3.08108e-14 -5431.09 4.71509e-14 -5141.96)
(-413619 -269036 -5.0164e-16 29735.9 2.10923e-16 -95249.1)
(-864672 39709.8 2.55223e-15 1973.21 3.26352e-15 -214053)
(784807 29470.4 1.39281e-14 1325.83 -6.97351e-15 195055)
(-1.18169e+06 -15501.7 -3.70745e-15 -4852.51 -1.62593e-15 -294406)
(285846 33996.3 -1.36163e-14 -1851.98 -2.1406e-14 70464.6)
(198137 33980.6 -2.27666e-14 -684.5 8.32317e-14 48992.1)
(-267942 47948.6 0 5451.13 0 -65129.3)
(32348.4 42003.4 -4.29555e-14 -3978.44 2.05781e-14 7039.16)
(-23200.7 52222.5 -3.32223e-14 1884.06 1.76536e-14 -5289.08)
(-14717.1 52630.8 -2.85565e-14 -145.593 -6.41387e-15 -3687.73)
(60894 49018.5 2.03983e-15 -2219.36 3.45723e-14 14558.4)