/*--------------------------------*- C++ -*----------------------------------*\
| =========                 |                                                 |
| \\      /  F ield         | OpenFOAM: The Open Source CFD Toolbox           |
|  \\    /   O peration     | Version:  2.3.1                                 |
|   \\  /    A nd           | Web:      www.OpenFOAM.org                      |
|    \\/     M anipulation  |                                                 |
\*---------------------------------------------------------------------------*/
FoamFile
{
    version     2.0;
    format      ascii;
    class       volScalarField;
    location    "3280";
    object      sigmaEq;
}
// * * * * * * * * * * * * * * * * * * * * * * * * * * * * * * * * * * * * * //

dimensions      [1 -1 -2 0 0 0 0];

internalField   nonuniform List<scalar> 
11800
(
177905
127567
582574
495187
123471
348262
166481
180859
193574
206659
176684
707140
91460.7
524705
448527
1.94737e+06
130199
130283
235295
143066
394705
639014
849702
761139
1.59534e+06
1.00101e+06
1.0395e+06
516296
1.1332e+06
1.22799e+06
343817
121926
1.00222e+06
134301
140222
330993
142089
1.06812e+06
141287
151957
1.07742e+06
1.17462e+06
542479
1.27368e+06
362662
1.82335e+06
813185
947240
167286
245738
741755
523747
138588
224338
2.07791e+06
1.7114e+06
68206
485554
378401
363404
1.70778e+06
152030
385716
317744
1.56438e+06
236250
762747
542124
68102.6
925631
142055
118652
114698
1.63781e+06
1.69115e+06
321712
1.63418e+06
223870
180531
184782
2.11259e+06
127515
123646
126017
127128
1.18365e+06
368879
1.0901e+06
999134
537833
137245
1.19318e+06
155395
65047
189396
155985
20218.5
155939
139779
622349
79517.4
685829
1.13271e+06
393341
148323
334427
184596
160730
1.66658e+06
1.09829e+06
1.19264e+06
1.00661e+06
374025
545734
225019
1.50493e+06
220326
146151
1.41328e+06
213275
205226
168010
186241
143063
152608
137312
139645
139214
100228
29405.8
1.91782e+06
1.27533e+06
399980
1.18665e+06
572766
1.09059e+06
998398
350317
1.01575e+06
496757
933580
854921
512377
197774
246627
333880
1.22198e+06
1.25231e+06
714534
377792
208897
201246
139355
263032
240711
188059
475202
653490
1.30455e+06
145139
1.91479e+06
232870
1.66387e+06
479882
521727
564974
286050
217043
2.06362e+06
1.28215e+06
453555
623893
157810
373739
372258
1.82312e+06
1.84297e+06
971749
891102
1.05556e+06
476290
327331
254374
206567
450940
218098
338415
154766
174393
164424
243287
226890
215635
201884
924424
1.17555e+06
1.69555e+06
126636
223472
1.99557e+06
139801
287581
322277
143598
148313
851142
712539
654488
541912
1.91562e+06
587512
866529
2.6086e+06
2.17445e+06
2.21248e+06
344659
132652
834486
764643
702155
264336
378347
131895
131321
232370
140200
1.26302e+06
257808
141981
469362
214100
177187
140696
657796
671612
2.60466e+06
1.26117e+06
224138
234544
1.15317e+06
944227
327622
475796
1.05557e+06
974929
893852
147650
1.14575e+06
400805
550550
515929
155903
128562
411958
363934
148716
2.20953e+06
285335
328279
236813
272380
702097
765013
828898
377137
266304
141537
1.67962e+06
161955
85998.7
138719
414401
153203
542003
1.96176e+06
389328
385911
583138
422498
486446
354155
1.2042e+06
1.00729e+06
322358
402014
257366
308416
555533
729499
269409
1.18156e+06
1.26752e+06
1.52551e+06
172173
385110
382800
1.7626e+06
1.77914e+06
1.05848e+06
1.04164e+06
1.08016e+06
1.06926e+06
136332
93101.3
291614
2.28645e+06
124160
130460
301778
248995
266064
924935
946915
1.58011e+06
2.21445e+06
690489
186140
883553
730147
510580
417048
166433
174101
261416
462159
243363
427695
128274
170432
164629
146701
1.25904e+06
165405
129942
1.83877e+06
310046
705742
779935
759680
959567
923815
105991
104918
638265
834325
577096
1.49482e+06
122142
824923
642160
420481
318105
313723
241037
320123
276916
366560
402258
434188
156389
139759
770410
817509
180920
223317
460295
388699
437433
199621
187380
234179
238383
896690
431102
319158
359652
1.07475e+06
1.2487e+06
345518
197892
187165
250907
233492
436968
507590
413781
485749
381188
447608
337726
320111
653688
330558
723870
1.24784e+06
625499
458731
2.02772e+06
136279
1.31051e+06
642933
467526
1.95393e+06
144657
1.34181e+06
332277
1.13251e+06
1.04516e+06
1.01602e+06
189584
86097.6
125200
2.3424e+06
2.02567e+06
895272
320239
432357
178248
232561
265131
146715
207440
1.55021e+06
62511.3
551973
422412
1.71157e+06
108579
175704
150331
150645
149401
150759
1.7132e+06
572144
230365
658711
606116
557257
117619
1.27845e+06
417063
582414
166255
845647
184537
1.64037e+06
135936
195112
477102
439791
404821
857640
228490
477587
423292
224090
662561
721844
783738
377432
272182
65392
169195
187488
2.12786e+06
724254
571034
413869
340588
182259
151209
111490
111929
191418
100546
115997
124945
162261
324393
147071
190960
574427
692225
326665
1.52073e+06
200178
360766
151719
177598
1.47234e+06
1.92126e+06
598026
650969
239632
213511
120922
1.28936e+06
1.86561e+06
1.65019e+06
2.38911e+06
771096
538660
707735
121944
182621
168064
186780
701681
144528
142579
123946
177464
1.28774e+06
286331
1.29846e+06
778427
167959
214837
1.06949e+06
1.3436e+06
697322
759973
821562
373128
264432
635022
142059
143148
139778
159838
127699
187041
97526.8
180298
96783.2
177474
86023.9
173008
158671
165311
114257
1.47445e+06
229401
243263
542552
863986
120072
150781
130718
127676
113753
283873
409556
129722
128785
563792
120472
179690
1.60127e+06
80389.1
161952
500290
460239
482466
523237
537006
566952
264677
199688
1.8487e+06
2.29103e+06
472886
86515.6
336677
330655
360536
256977
769579
710679
652291
169175
84091.4
742832
695722
310162
343991
174562
593558
645525
225899
1.04544e+06
1.05871e+06
1.07111e+06
1.06171e+06
1.81056e+06
1.7716e+06
555170
2.17248e+06
780331
137319
1.51846e+06
1.32406e+06
1.44286e+06
734779
298234
323024
182503
1.54388e+06
507096
640795
2.29896e+06
206185
252422
504393
487066
1.28043e+06
662078
1.91273e+06
136025
133138
262634
373937
830789
762661
700079
1.75784e+06
149603
381485
820356
1.25166e+06
133270
2.06112e+06
1.92817e+06
1.99373e+06
231498
313886
120542
2.03854e+06
581417
236447
400476
1.908e+06
145484
239237
254380
141260
470245
286953
2.34103e+06
2.04222e+06
199916
578216
739248
282996
333444
249864
221032
625931
191307
571431
422975
1.08639e+06
952324
167755
1.24794e+06
140749
390828
479983
1.6728e+06
316102
428792
240296
199102
182811
213521
406102
948015
1.04473e+06
140326
135637
136520
181356
339278
1.26547e+06
114813
433604
782255
608761
220143
1.03756e+06
1.14995e+06
744477
1.25346e+06
1.36056e+06
561505
369006
158786
187443
351531
375017
326357
359930
189474
331925
388078
228909
140721
2.37303e+06
1.01434e+06
380654
513326
474287
230754
409452
596905
1.28975e+06
1.18676e+06
1.08673e+06
334789
395221
198656
211224
1.47826e+06
1.09429e+06
1.25874e+06
151356
198316
278608
652990
1.45428e+06
463172
92898.8
152918
2.16177e+06
2.03232e+06
242786
1.86134e+06
113163
160236
121075
704435
127764
221822
247199
1.30338e+06
1.4207e+06
1.54112e+06
1.66593e+06
748630
637435
530085
418707
190394
134751
411062
2.04093e+06
143575
140474
152834
146121
152134
158334
164359
1.58083e+06
799058
812316
477178
886606
964933
338130
1.13149e+06
271096
226081
149775
2.1372e+06
140931
167824
161322
167928
140617
1.94501e+06
272706
270607
1.05198e+06
341159
719698
258327
1.98079e+06
863862
429759
322010
1.33686e+06
476639
186113
156743
139935
135683
232890
257586
245778
177474
483750
157491
137647
839399
938229
120611
595514
855541
726097
984060
1.84751e+06
1.70609e+06
1.56653e+06
1.42827e+06
595206
725217
1.85126e+06
1.70946e+06
854665
1.56994e+06
983841
1.43135e+06
1.65728e+06
156573
135491
148001
242021
525206
1.15764e+06
141867
436746
595611
472918
648498
193661
248384
431870
630062
1.35315e+06
1.24497e+06
1.13974e+06
540641
401834
1.01479e+06
207748
262175
167800
338425
314030
285342
580499
454313
466776
347233
133945
706445
195033
355377
437838
1.08785e+06
587701
687086
560222
204728
264636
186670
164684
156840
179640
611322
517401
143666
213807
232476
475362
1.4246e+06
464523
650313
497982
160044
222823
209467
192970
262013
190379
631096
580472
529644
208734
1.55018e+06
715092
219676
950764
639511
1.36795e+06
1.87103e+06
230985
257796
216967
149787
158132
758734
646216
1.94776e+06
132577
185396
356408
525021
229599
142673
765952
757722
62143.8
139019
369832
300565
92992.7
1.70136e+06
1.86993e+06
305576
123824
277626
388974
829894
700021
763256
2.13577e+06
137583
600740
676255
166942
618623
755502
891281
1.02476e+06
1.9348e+06
1.78729e+06
1.64136e+06
1.49727e+06
618138
754440
1.9373e+06
1.78917e+06
889177
1.64352e+06
1.02384e+06
1.49897e+06
1.81502e+06
1.56388e+06
1.17971e+06
493801
563545
1.56312e+06
1.16648e+06
342470
122823
117734
1.16492e+06
2.06087e+06
156488
424320
1.70478e+06
1.16339e+06
1.87162e+06
1.90903e+06
1.21179e+06
1.21539e+06
556940
442758
577700
251815
184095
308584
159960
192411
232466
198098
422254
1.99611e+06
577066
198952
121025
371461
398777
1.8124e+06
377136
340861
430209
456966
1.17367e+06
551158
399135
1.5178e+06
427135
554378
202442
169029
386715
333546
360439
897132
577324
560010
1.36075e+06
1.30176e+06
553580
583869
1.02746e+06
1.10392e+06
413374
432708
139397
186514
195241
563298
438309
77121.1
166627
190639
659694
628718
338753
657052
508740
203078
125971
126443
526775
1.26206e+06
126889
1.86936e+06
269607
748940
687404
214620
267885
447575
151172
130759
1.58743e+06
398512
1.02755e+06
947249
869022
319338
462601
167500
1.4462e+06
1.89356e+06
176965
148062
1.04024e+06
378979
515939
891568
971808
1.06605e+06
323385
466773
63216.3
764340
394104
1.88602e+06
323582
1.08751e+06
894641
1.00335e+06
143167
145569
147643
158111
157865
139422
1.56867e+06
483132
182899
213538
235173
264731
327562
363558
746166
722917
688235
664529
610996
631752
1.10394e+06
168680
141312
137962
184423
211401
150983
169305
1.31089e+06
268579
488253
412154
1.06328e+06
556786
197309
206183
458821
356060
631841
517263
1.2762e+06
1.11703e+06
1.0288e+06
942513
524292
1.47194e+06
722777
1.47515e+06
260180
217644
280555
273936
191862
176265
189559
1.49411e+06
1.95313e+06
345077
117836
256797
577720
447827
127923
154889
255821
241622
248156
231406
303703
285988
216708
489589
543474
529294
587685
448414
498648
556540
134023
1.20433e+06
953587
506321
1.22078e+06
1.14729e+06
669700
1.95209e+06
367006
348708
395586
424636
195779
163006
176246
371396
147471
1.62528e+06
214829
144209
802942
60522.4
119904
1.62381e+06
186614
415535
1.32512e+06
607644
1.21999e+06
1.11741e+06
1.46442e+06
973556
159187
611728
489513
208971
1.37596e+06
625778
213383
1.14251e+06
1.04049e+06
1.24459e+06
139216
141731
160705
2.35917e+06
281695
436505
532701
244050
143062
141221
421168
455708
181032
1.62571e+06
424982
1.63008e+06
249420
810462
140844
642762
769379
1.02483e+06
410302
550975
660413
269840
2.30228e+06
168252
120093
144617
1.96912e+06
1.29605e+06
323229
473868
1.07698e+06
996257
913856
2.02701e+06
613335
497360
2.03539e+06
2.29706e+06
1.57955e+06
87015.7
543720
1.33739e+06
1.0017e+06
543823
405938
1.00127e+06
893105
413275
1.36803e+06
330354
274622
511761
450101
344491
1.59727e+06
2.42106e+06
127630
140542
166292
2.31775e+06
161735
187313
708609
543275
2.0549e+06
2.15225e+06
139418
609488
214380
203351
504369
218258
132237
544945
131000
148538
2.4329e+06
1.05283e+06
583148
436665
393118
283030
798482
736243
674595
213416
2.17717e+06
428507
386656
435364
1.82447e+06
740128
1.08386e+06
151152
236043
178060
816869
494413
658552
128165
283218
385181
818344
289092
187872
161563
317295
2.03038e+06
292256
393374
810839
1.31302e+06
1.85498e+06
1.24477e+06
853761
666767
788956
83896.6
235207
324212
691788
637463
585842
1.85369e+06
147884
189770
203564
203195
203708
198949
290346
140299
141189
663462
1.67297e+06
469699
1.0419e+06
959676
880404
324245
1.89127e+06
599695
682634
816340
703644
1.15534e+06
1.84923e+06
558479
149997
724138
120474
862699
517540
941918
1.02539e+06
368895
1.19531e+06
295525
2.51341e+06
859440
142777
1.72226e+06
2.51977e+06
2.16948e+06
510624
138214
967314
168522
157213
119323
275060
151767
154995
134691
139831
1.56156e+06
1.63913e+06
141435
1.08372e+06
176963
167761
139843
228110
1.1127e+06
1.11897e+06
256915
1.13262e+06
1.13594e+06
1.47577e+06
486293
183738
227590
309171
619328
673099
230485
61192.1
161336
743394
348878
848949
955543
1.04519e+06
1.13764e+06
583667
412812
307744
172912
150303
1.88254e+06
1.03598e+06
131878
216449
919995
716574
388547
421340
196471
173678
321208
283926
117756
217228
151677
1.57778e+06
607739
1.48058e+06
142957
135072
2.52106e+06
136925
1.95454e+06
1.92665e+06
141590
893279
447977
1.54828e+06
155142
841544
969901
2.11352e+06
235413
151227
129452
478819
226922
307157
618594
566093
519714
155076
129161
176637
167868
1.0877e+06
1.19879e+06
818990
1.40262e+06
1.28707e+06
1.49225e+06
2.1399e+06
267552
682564
2.03809e+06
606731
1.92205e+06
904783
986281
1.07158e+06
473783
323287
401070
472657
1.78057e+06
164767
190554
278223
263451
245385
182654
365768
337174
315725
780744
797008
2.37095e+06
259690
125787
174895
1.87945e+06
539325
289822
279494
1.83513e+06
941056
649773
109353
199081
129456
926993
1.18288e+06
302030
1.34421e+06
185585
180288
2.44581e+06
1.60517e+06
1.96481e+06
378694
500505
880072
280485
690224
2.03431e+06
2.161e+06
182969
210389
352083
288788
1.00545e+06
1.12276e+06
766998
864058
2.25785e+06
2.09074e+06
268259
180921
108890
1.48735e+06
125354
1.96142e+06
394981
295505
1.05274e+06
335051
141723
1.827e+06
210195
269679
109417
129726
1.36258e+06
464213
145571
737081
349391
195327
147716
132224
675172
132983
1.86118e+06
1.68301e+06
305774
823857
468214
143618
159405
1.4441e+06
176668
969243
249338
532951
1.10893e+06
1.26737e+06
1.77645e+06
192875
307033
1.94495e+06
244515
156526
144571
170225
133725
1.99747e+06
1.55073e+06
354947
486257
847498
843204
1.11088e+06
389691
533509
386644
559512
1.19593e+06
1.10115e+06
1.00847e+06
1.58875e+06
742083
530857
1.5454e+06
534524
1.68105e+06
625612
687834
1.85083e+06
2.51794e+06
2.15081e+06
418039
414840
1.14977e+06
544003
396199
137394
349454
1.78456e+06
152885
176991
2.26761e+06
1.6931e+06
1.95907e+06
893243
1.10789e+06
1.11787e+06
964638
127673
119753
180450
122545
693409
754984
821510
381620
269487
594272
1.98584e+06
152586
204154
171665
159126
1.00989e+06
912968
190305
1.76517e+06
2.00132e+06
1.16738e+06
952301
1.60766e+06
1.85189e+06
123921
888437
565449
1.22678e+06
165316
261014
279400
1.57364e+06
1.56756e+06
728424
362900
117951
140720
230068
482621
1.65051e+06
220532
1.26412e+06
153072
365159
250497
330080
567144
292453
451183
43827.9
12666.2
450473
2.35597e+06
204425
169904
172371
136428
126999
183719
190405
139085
141590
520590
137486
149708
183295
973047
1.20077e+06
862911
1.65297e+06
2.09597e+06
148398
203365
380601
168791
1.48836e+06
214951
2.19517e+06
235460
304806
588982
434910
233454
240270
557923
133315
155840
194739
126523
186839
123656
1.93842e+06
111015
158221
282373
126044
96262
1.869e+06
207493
1.61546e+06
1.71377e+06
622591
405887
323565
468500
1.0554e+06
982895
901647
135512
1.16954e+06
611746
132764
1.99701e+06
140242
146399
367778
1.09524e+06
866212
962054
1.33141e+06
193118
148376
411268
607750
1.33151e+06
706276
1.44193e+06
509542
1.22551e+06
1.12264e+06
406110
1.43195e+06
503170
1.3171e+06
597137
1.21291e+06
1.111e+06
695955
1.45679e+06
184911
598090
465405
152201
191557
1.62493e+06
1.00223e+06
1.3592e+06
1.26394e+06
1.10294e+06
1.36698e+06
1.00693e+06
384271
421521
623082
1.50769e+06
150240
2.25241e+06
183235
149493
1.70126e+06
200588
315232
623224
620353
1.84006e+06
115816
1.16256e+06
1.07186e+06
982313
358315
524601
2.25571e+06
377604
290382
672754
177757
703932
324831
347126
127240
202693
211634
183070
534926
126386
659152
354076
269515
893989
1.19204e+06
1.19814e+06
893573
438836
2.12544e+06
139283
140215
1.90172e+06
1.72218e+06
1.04438e+06
2.50784e+06
1.11201e+06
958258
999174
2.22962e+06
1.09978e+06
878299
1.97941e+06
426444
447224
657305
1.74144e+06
113573
1.49008e+06
178339
261068
401425
672641
733528
796980
390151
280058
455438
77470.5
82905.2
150110
158682
216732
179319
144598
197917
1.10292e+06
2.0269e+06
242165
181945
1.86774e+06
1.34405e+06
529568
717423
149624
157139
1.62277e+06
1.07608e+06
232744
853328
799709
1.07441e+06
133429
149695
156992
135598
1.26406e+06
2.05217e+06
2.00892e+06
1.3618e+06
2.17785e+06
275802
125461
354205
1.07516e+06
985414
1.16773e+06
530283
361063
2.28359e+06
499023
627804
821214
268700
230105
954911
339820
175112
721632
275506
355244
2.12333e+06
363670
322012
1.12933e+06
1.04172e+06
955831
480953
1.44682e+06
1.36143e+06
1.78476e+06
556741
576586
730824
1.5183e+06
717253
515166
1.34932e+06
260925
2.51774e+06
169662
1.9223e+06
511355
585178
139320
622005
1.19061e+06
147203
172525
167848
2.22318e+06
648301
593387
701709
346464
251495
320843
628710
1.45492e+06
635006
1.23915e+06
1.4658e+06
1.35191e+06
424492
1.36977e+06
1.03957e+06
1.10117e+06
1.30374e+06
1.37151e+06
1.04054e+06
1.11096e+06
1.31256e+06
758616
639591
49488.1
307770
190052
435291
641045
534001
742980
1.50213e+06
1.38893e+06
1.2781e+06
1.17054e+06
430782
1.20084e+06
591111
167552
116875
122611
209425
112310
511423
1.21005e+06
1.23801e+06
441618
2.05787e+06
172806
154165
1.60568e+06
1.99284e+06
101439
1.26559e+06
499305
675025
942520
532574
337850
153595
500092
720290
69666.5
142548
2.08391e+06
276492
209305
502611
461936
544935
352303
140435
145970
359453
1.25725e+06
1.95236e+06
2.26052e+06
345445
383752
1.61743e+06
1.45807e+06
1.90123e+06
121183
1.06351e+06
1.8508e+06
2.27365e+06
2.34621e+06
2.28846e+06
592062
1.0311e+06
443674
2.151e+06
1.61882e+06
661388
1.40187e+06
157890
142185
1.66884e+06
1.67063e+06
143391
451669
2.08336e+06
1.74507e+06
1.65785e+06
1.71569e+06
2.35572e+06
1.5975e+06
2.06373e+06
1.7885e+06
159226
283340
1.31378e+06
633815
1.07881e+06
227748
151254
191432
176730
163439
213567
190823
445761
2.06831e+06
1.25681e+06
439567
606520
1.34556e+06
178317
624646
437815
2.41083e+06
334814
323657
600542
341240
556473
246011
193761
1.96206e+06
16105.8
157340
157057
32372.9
481579
522901
187865
205916
219543
154355
559327
545273
136982
2.09009e+06
1.78567e+06
634894
1.34149e+06
457272
132629
1.56552e+06
346065
2.07724e+06
569471
696191
822618
947976
1.80515e+06
1.66903e+06
1.53291e+06
1.40064e+06
568605
694345
1.80588e+06
1.66881e+06
819837
1.53313e+06
945607
1.40001e+06
315262
242825
589330
636521
561200
266883
220048
188705
152960
143483
161368
137935
144327
243265
967473
1.0391e+06
924889
518263
1.00771e+06
1.11064e+06
1.72861e+06
728815
587156
1.85021e+06
618105
212406
131355
182156
151498
292511
268525
272725
148195
396243
311689
399400
817364
147388
215918
980659
158703
117933
145900
125117
1.45573e+06
174960
208023
682931
544810
270180
682902
223590
134331
122411
2.19759e+06
2.25856e+06
1.35755e+06
1.1109e+06
1.08296e+06
1.38015e+06
2.20991e+06
1.14099e+06
136269
736150
408433
313395
451014
217115
2.10436e+06
229652
1.23169e+06
1.13701e+06
1.04237e+06
547860
372315
646483
376920
288210
2.12645e+06
244097
136409
697650
696559
315776
199738
242274
407056
839264
1.59067e+06
661493
527381
991665
1.29286e+06
350867
510143
1.11169e+06
1.02318e+06
937638
528112
569078
926016
758495
1.06705e+06
566597
1.17363e+06
1.27886e+06
370964
1.38779e+06
2.49974e+06
1.76496e+06
121218
840074
917522
998532
308169
211113
1.51554e+06
262441
344716
429790
470490
201055
255898
208076
165152
1.43603e+06
1.10155e+06
1.15609e+06
1.38512e+06
325145
1.76765e+06
2.19135e+06
808787
144589
824963
900048
979886
924011
1.07689e+06
300635
1.7203e+06
753561
694433
635642
753310
273310
378553
220185
205034
473209
558760
514203
590128
643953
699718
427032
423462
607920
610814
1.24038e+06
1.23405e+06
1.0433e+06
1.14008e+06
1.03758e+06
1.13409e+06
618037
672830
241895
153611
173796
205075
1.24698e+06
790360
143436
1.25693e+06
1.04233e+06
998478
1.29432e+06
208547
451682
1.62568e+06
684118
1.49817e+06
1.3739e+06
114044
270001
1.12452e+06
661536
468911
1.49036e+06
524642
74386.3
1.13726e+06
1.04278e+06
1.23576e+06
552471
374525
1.53511e+06
588162
476166
2.03603e+06
590225
834088
201154
150074
342455
319849
292551
1.73318e+06
428446
290458
489911
450293
528753
266274
204090
1.14843e+06
1.29074e+06
208309
735180
157285
991847
1.98632e+06
1.24869e+06
605777
454349
1.08587e+06
553256
493537
407433
268170
169368
412860
204300
500582
203097
345192
146875
163637
2.08114e+06
417180
1.76576e+06
1.00801e+06
1.08596e+06
586360
438903
1.04749e+06
1.89553e+06
124894
151832
155526
146529
376037
36389.4
12039.3
375443
787847
146704
831031
369288
259259
174108
551684
770033
1.61676e+06
134581
107687
173923
201465
433507
279237
1.08999e+06
971679
237700
156023
126324
2.10897e+06
788047
136015
308212
152097
2.41071e+06
1.95574e+06
307378
229713
851681
411567
582920
1.15087e+06
967008
1.05731e+06
2.26269e+06
1.7998e+06
150776
1.68965e+06
2.28216e+06
1.77903e+06
1.9765e+06
856485
177164
1.15472e+06
281523
176587
216261
422177
458185
336821
335184
763025
249861
171924
130924
1.11258e+06
1.3539e+06
1.47553e+06
1.60039e+06
1.71488e+06
764200
652220
538584
424362
268439
126940
531061
24643.1
260480
260056
13382.9
571851
286595
225769
93650.1
358805
407234
142012
368834
1.11092e+06
857562
591689
419171
478772
2.08352e+06
1.59573e+06
212037
683990
141288
151613
582281
686304
713110
1.41762e+06
410668
448680
147086
1.88264e+06
156077
329155
383951
357934
1.35974e+06
1.48142e+06
767533
828531
827258
581450
747348
1.40484e+06
1.33732e+06
1.33423e+06
458741
634933
118724
130920
122978
285655
136407
619690
1.29161e+06
1.14688e+06
1.4055e+06
1.02563e+06
1.41578e+06
1.02436e+06
697635
468240
1.23911e+06
907177
1.24098e+06
910256
300602
1.37262e+06
1.14786e+06
1.00563e+06
1.30994e+06
1.15967e+06
1.43018e+06
1.03961e+06
1.43033e+06
1.03883e+06
1.30147e+06
2.41426e+06
523080
733532
1.55862e+06
573968
144361
154516
242060
23952.4
241655
21180.6
141875
442887
1.3733e+06
1.25875e+06
1.49151e+06
660450
457988
2.13593e+06
74070.4
135905
271903
928650
304174
839104
412379
2.17361e+06
2.19283e+06
1.31619e+06
157498
289612
1.47831e+06
782017
627041
429181
777266
711979
843190
295466
412521
2.23451e+06
524922
1.98743e+06
143850
141198
136785
142832
97648.3
1.96261e+06
160598
1.44102e+06
95364.2
1.05289e+06
1.34534e+06
160868
144653
205734
602880
215774
507284
466149
342959
371432
402260
173239
369064
497735
615878
414537
1.40184e+06
1.29324e+06
1.18532e+06
1.46943e+06
1.96524e+06
2.16895e+06
131159
129166
130847
141657
286518
169055
309631
2.17664e+06
2.22222e+06
2.21949e+06
1.7034e+06
67274.9
1.17828e+06
2.028e+06
1.37522e+06
1.08394e+06
1.10689e+06
1.35713e+06
669886
597919
1.20035e+06
786980
1.42247e+06
107678
256778
326734
629113
259318
255287
291400
197441
227457
166819
193901
439691
442855
480707
478348
518791
519446
609470
601928
146853
144981
570815
369722
114459
216343
850375
1.42505e+06
147345
851617
1.84149e+06
567010
1.7503e+06
798319
223807
1.63589e+06
861299
724199
1.14752e+06
1.96185e+06
2.34836e+06
922414
390094
1.97811e+06
282991
208414
178716
441577
98503.9
833548
1.45353e+06
375403
569299
231042
141443
246563
2.12761e+06
379365
442084
427047
316312
905091
284389
225671
900662
198600
1.92863e+06
154807
1.14061e+06
421193
457349
1.7882e+06
1.51379e+06
914411
1.65217e+06
1.7942e+06
783585
1.93779e+06
654450
522777
1.51338e+06
1.65118e+06
1.93972e+06
1.79352e+06
524534
786640
917823
656503
1.96651e+06
196160
1.54402e+06
169734
119908
149828
8865.15
67471.9
842791
91543.1
1.48482e+06
305166
228977
572992
619408
526571
445901
289170
1.28657e+06
287818
309077
1.16606e+06
102547
454507
420786
417444
1.31976e+06
1.21002e+06
1.43289e+06
627025
538432
227374
387333
756734
1.48272e+06
75853.5
376057
224611
145566
489718
1.57046e+06
882708
758992
1.65383e+06
190509
903745
1.93082e+06
975068
1.80117e+06
162783
2.02777e+06
242909
1.35635e+06
483048
596276
144519
15584.8
156297
155980
26650.4
259221
1.38919e+06
197553
1.69459e+06
771710
278804
1.30743e+06
1.25529e+06
1.42875e+06
1.372e+06
1.55317e+06
1.49187e+06
721004
697165
492444
477104
546685
369788
1.23837e+06
1.14349e+06
1.04807e+06
331336
387912
358138
179713
1.16039e+06
1.01268e+06
97060.1
200252
150284
170936
180713
1.96946e+06
1.64495e+06
428256
1.40738e+06
1.29118e+06
1.52564e+06
128604
730514
1.33246e+06
1.38625e+06
144892
135821
1.59624e+06
509973
175181
291125
339317
315046
184293
546582
504353
466212
1.83197e+06
2.40972e+06
1.77086e+06
1.25492e+06
612322
442200
189637
206540
308406
222613
144140
129099
232351
668446
533049
141732
1.46055e+06
1.68952e+06
695465
610096
180338
173878
155011
164134
472815
1.59416e+06
1.2317e+06
948561
977283
1.16537e+06
138048
153010
228396
138431
140755
305750
2.49144e+06
1.97689e+06
153236
191205
835084
720612
501505
1.55835e+06
1.68287e+06
1.31231e+06
1.43334e+06
855853
442240
378557
410690
193102
240042
1.82358e+06
484239
1.16013e+06
87982.6
1.69131e+06
155846
660612
766289
2.48821e+06
139333
680580
165595
637123
175367
402524
1.23106e+06
560688
1.41008e+06
914218
1.54211e+06
1.67716e+06
790843
1.81486e+06
665709
542077
667212
542590
258826
790443
893355
1.16767e+06
144923
234576
1.44476e+06
627502
2.28115e+06
1.85635e+06
2.08051e+06
376217
1.62501e+06
765516
589456
288386
220735
2.22303e+06
1.15528e+06
137788
2.41626e+06
2.0341e+06
70340.1
702089
574561
89258.1
940374
751499
114901
190368
1.56841e+06
2.32146e+06
144254
812097
833332
1.67679e+06
1.62408e+06
590180
604886
590889
605450
148653
149769
149045
140499
112077
2.39495e+06
1.8581e+06
1.68121e+06
2.12075e+06
798287
424969
1.72273e+06
961605
1.05124e+06
1.14412e+06
80061.4
1.7746e+06
308369
1.32844e+06
1.90255e+06
563329
394203
2.41692e+06
641683
673745
472106
498138
1.27518e+06
1.23257e+06
217135
214335
119692
141843
414463
1.50693e+06
1.38876e+06
1.27369e+06
629088
2.39117e+06
147677
287304
131080
1.25825e+06
1.37461e+06
801785
1.49369e+06
685467
1.6291e+06
580127
1.54093e+06
1.2977e+06
1.41745e+06
1.66491e+06
465857
824916
711502
582170
139270
193060
205390
264101
492122
415924
452297
1.96806e+06
907747
1.10753e+06
1.82081e+06
214800
325561
141570
512059
713501
246762
342538
1.8456e+06
197171
136695
140038
142732
137474
89862.2
219529
167763
181390
1.58194e+06
1.87074e+06
165850
143696
182017
315284
684335
2.02573e+06
1.88646e+06
843876
146482
204318
1.60826e+06
147831
149179
2.45831e+06
947475
1.85216e+06
517802
1.25396e+06
788936
774725
216423
885639
1.32347e+06
636220
457957
182907
416730
143759
109271
129622
1.99507e+06
1.16575e+06
1.18823e+06
1.96125e+06
308036
330595
173132
622741
155594
141649
153233
391049
311038
31657.4
310560
21686.9
141041
1.2316e+06
369386
534398
1.13351e+06
1.04341e+06
955352
193755
2.25904e+06
747688
428610
1.93813e+06
1.14997e+06
1.19669e+06
199776
19616.3
199418
20645.2
1.71679e+06
428343
712478
845701
779328
160236
1.84973e+06
429777
309154
987337
758251
136201
42241.9
1.3551e+06
280448
1.35578e+06
343375
455496
840680
935363
784938
171896
689896
283932
364528
177106
190288
656186
683877
227459
411987
145992
147182
1.09386e+06
546622
401601
156603
585404
15153.6
56700.4
584492
725131
586097
867168
1.0296e+06
121919
2.25444e+06
2.34946e+06
294163
144006
159202
245106
270519
27960.3
270113
24107
1.17951e+06
402624
558361
2.18926e+06
2.22171e+06
1.88085e+06
1.7121e+06
1.01206e+06
896750
857992
761652
1.85526e+06
267104
527644
191746
126538
140670
379168
530943
759630
2.1418e+06
2.16318e+06
271798
140955
707055
769490
259758
1.17077e+06
479098
393257
1.72164e+06
171830
158547
211340
1.13943e+06
1.14547e+06
1.21235e+06
768849
385652
538491
96831
97895.3
1.32549e+06
139114
1.17274e+06
151163
574471
933618
818245
1.37103e+06
1.60364e+06
146438
189856
434766
1.90317e+06
9225
114241
33884.3
114744
307022
283524
95920.3
2.07399e+06
36994.3
1.96563e+06
511792
49562.1
15986.7
510998
333186
166304
19138.6
166121
423920
1.84649e+06
426288
2.04474e+06
2.34746e+06
68204.1
669529
793932
731811
950119
455002
331587
1.02307e+06
650217
113332
251943
397540
285510
707544
936660
262848
263909
2.25708e+06
807256
936643
873933
1.00852e+06
1.43145e+06
133450
143124
1.19796e+06
1.45918e+06
493087
275667
317178
164937
329828
481514
150625
255195
368055
147969
103395
1.30846e+06
1.53047e+06
294763
651193
508236
519613
1.61474e+06
731928
317929
247024
623122
519109
130079
372742
1.46074e+06
1.86343e+06
495175
345677
871839
1.03433e+06
952190
91181.6
141473
360125
257239
1.38715e+06
503090
113295
54810.9
84281.3
483260
339657
843586
1.00058e+06
921375
146223
2.01739e+06
2.30227e+06
160867
159723
151671
147594
2.01568e+06
398988
296398
855121
2.49141e+06
2.00461e+06
564756
199463
523008
481869
295470
275554
314956
176398
155877
155992
426750
1.96357e+06
118278
1.07783e+06
1.16747e+06
1.85174e+06
1.33436e+06
1.30219e+06
497133
490067
668385
678971
314124
349175
301717
140366
138810
787261
255804
1.82344e+06
1.25882e+06
318421
137580
782468
2.33365e+06
135704
1.23487e+06
1.02709e+06
975197
1.27551e+06
879937
377358
524251
1.16755e+06
205702
852280
368654
411819
212361
437841
261883
340237
934533
462524
198821
172631
228320
1.19354e+06
980107
215733
205637
194280
222433
143506
631108
485211
129014
459961
147249
263758
425753
2.13394e+06
1.87899e+06
1.27961e+06
370050
263893
827651
765435
702895
334216
334944
160332
1.15607e+06
159998
646286
843162
248230
220483
1.90531e+06
109536
376170
350500
170104
2.00734e+06
106551
141715
560955
661772
201806
191099
212420
153944
147306
1.2772e+06
118083
157220
19537.9
156996
1.27529e+06
1.21026e+06
2.29022e+06
1.37729e+06
1.72978e+06
146983
1.78767e+06
1.21764e+06
17674.1
128277
300966
228935
512623
557300
602224
789864
441545
1.84542e+06
1.07799e+06
1.17141e+06
188397
126877
123404
142948
156418
163082
251308
1.06491e+06
128420
2.29994e+06
565026
227409
1.18803e+06
776000
394773
549795
254575
220592
313802
473700
305102
630972
574627
227560
148057
809912
1.13485e+06
101122
109196
198567
117297
121094
1.73129e+06
454057
334302
969710
1.67544e+06
457895
328614
816023
694759
753347
637201
368363
266031
150253
10396.3
82270.1
780286
642592
915913
1.91457e+06
1.62127e+06
1.76645e+06
642822
778606
1.91926e+06
1.77007e+06
914721
1.62469e+06
211603
429519
357006
355169
134932
238187
211116
626153
301921
233735
286069
503830
1.39868e+06
692939
150723
250818
139528
152476
269308
417769
133788
138618
145069
1.01104e+06
375035
499288
335865
440176
911953
775929
941092
753971
1.27372e+06
385361
219167