/*--------------------------------*- C++ -*----------------------------------*\
| =========                 |                                                 |
| \\      /  F ield         | OpenFOAM: The Open Source CFD Toolbox           |
|  \\    /   O peration     | Version:  2.3.1                                 |
|   \\  /    A nd           | Web:      www.OpenFOAM.org                      |
|    \\/     M anipulation  |                                                 |
\*---------------------------------------------------------------------------*/
FoamFile
{
    version     2.0;
    format      ascii;
    class       volScalarField;
    location    "0.39";
    object      epsilon;
}
// * * * * * * * * * * * * * * * * * * * * * * * * * * * * * * * * * * * * * //

dimensions      [0 2 -3 0 0 0 0];

internalField   nonuniform List<scalar> 
9648
(
2407.86
2407.77
2406.06
2400.09
2389.53
2373.76
2353.09
2327.26
2296.19
2259.96
2218.79
2172.84
2123
2070.23
2015.34
1959.24
1902.99
1847.52
1793.5
1741.44
1691.9
1645.25
1601.66
1561.38
1524.48
1490.85
1460.36
1432.89
1408.28
1386.35
1367
1350.07
1335.46
1323.01
1312.66
1304.26
1297.68
1292.85
1289.73
1288.25
1288.28
1289.82
1292.84
1297.24
1303.1
1310.43
1319.22
1329.44
1341.17
1354.55
1369.59
1386.26
1404.78
1425.14
1447.31
1471.1
1496.29
1522.48
1548.92
1575.01
1600.32
596.508
589.232
580.567
570.945
562.435
557.429
555.471
555.636
557.646
561.601
567.261
573.974
581.336
588.988
596.594
603.771
610.341
616.254
621.476
625.942
629.732
632.92
635.588
637.874
639.931
641.809
643.563
645.251
646.968
648.745
650.623
652.665
654.901
657.348
660.026
662.968
666.175
669.641
673.394
677.446
681.791
686.414
691.325
696.542
702.043
707.865
713.996
720.408
727.081
734.009
741.151
748.474
755.926
763.537
771.165
778.788
786.249
793.656
800.867
807.807
814.43
235.421
238.393
242.814
249.39
258.071
268.524
280.862
294.716
310.001
326.338
343.519
361.097
378.742
396.119
412.938
428.964
444.023
458.021
470.9
482.63
493.236
502.757
511.278
518.905
525.734
531.851
537.327
542.265
546.723
550.796
554.558
558.055
561.345
564.444
567.395
570.234
573.002
575.736
578.443
581.145
583.843
586.551
589.274
592.017
594.789
597.579
600.387
603.189
605.984
608.75
611.48
614.17
616.78
619.361
621.798
624.191
626.441
628.685
630.763
632.717
634.539
131.475
141.195
152.379
165.2
179.648
195.638
213.103
231.826
251.561
271.949
292.671
313.351
333.67
353.324
372.063
389.682
406.065
421.132
434.843
447.198
458.211
467.948
476.512
483.996
490.504
496.117
500.938
505.062
508.605
511.648
514.269
516.542
518.489
520.165
521.599
522.845
523.968
524.994
525.962
526.863
527.72
528.548
529.358
530.17
530.978
531.79
532.598
533.404
534.205
534.997
535.759
536.517
537.243
537.948
538.584
539.209
539.82
540.408
540.951
541.457
541.964
96.2411
108.928
123.265
139.251
156.831
175.907
196.298
217.741
239.912
262.42
284.899
306.971
328.329
348.684
367.825
385.577
401.854
416.616
429.842
441.546
451.778
460.618
468.187
474.589
479.922
484.285
487.788
490.585
492.75
494.404
495.621
496.422
496.902
497.07
496.987
496.724
496.337
495.876
495.345
494.756
494.11
493.432
492.755
492.087
491.439
490.807
490.199
489.608
489.032
488.477
487.923
487.373
486.833
486.295
485.754
485.211
484.693
484.174
483.64
483.099
482.561
82.8184
97.4266
113.911
132.178
152.069
173.418
195.95
219.327
243.162
267.01
290.488
313.2
334.864
355.209
374.09
391.322
406.871
420.736
432.89
443.412
452.361
459.832
466.002
470.93
474.753
477.569
479.526
480.773
481.449
481.605
481.317
480.641
479.594
478.298
476.763
475.081
473.351
471.561
469.754
467.886
465.977
464.065
462.171
460.342
458.55
456.815
455.127
453.504
451.93
450.394
448.896
447.419
445.967
444.538
443.123
441.753
440.42
439.097
437.772
436.451
435.122
78.4083
94.6436
112.947
133.136
154.922
178.088
202.264
227.053
252.04
276.679
300.636
323.44
344.9
364.724
382.932
399.243
413.666
426.282
437.018
446.03
453.456
459.327
463.913
467.192
469.346
470.513
470.815
470.559
469.687
468.356
466.62
464.416
461.973
459.286
456.408
453.463
450.518
447.571
444.622
441.655
438.654
435.687
432.8
430.006
427.288
424.647
422.096
419.625
417.243
414.928
412.664
410.442
408.271
406.109
403.98
401.906
399.886
397.917
395.944
393.947
391.972
78.265
95.9925
115.941
137.821
161.188
185.776
211.193
236.999
262.742
287.749
311.795
334.231
355.063
373.941
391.22
406.329
419.367
430.532
439.547
446.869
452.644
456.74
459.704
461.169
461.556
461.013
459.689
457.917
455.562
452.718
449.523
445.895
442.067
438.133
434.033
429.892
425.845
421.757
417.759
413.753
409.722
405.776
401.987
398.355
394.79
391.372
388.028
384.819
381.707
378.697
375.76
372.879
370.055
367.22
364.439
361.756
359.101
356.561
353.98
351.357
348.826
80.1352
99.042
120.444
143.596
168.352
193.95
220.153
246.801
272.826
298.032
321.797
343.739
363.561
381.186
397.31
411.128
422.687
432.23
439.782
445.415
449.334
451.606
452.665
452.494
451.18
448.818
445.931
442.743
438.763
434.456
429.754
424.816
419.941
414.807
409.377
404.225
398.964
393.685
388.693
383.546
378.407
373.246
368.747
364.28
359.823
355.808
351.548
347.7
343.685
339.962
336.133
332.642
329.235
325.671
322.215
319.071
315.669
312.829
309.588
306.223
303.235
1624.95
1648.76
1671.45
1693
1713.59
1733.65
1753.28
1772.78
1792.1
1810.44
1827.44
1843.67
1859.38
1874.93
1890.56
1906.92
1924.6
1944.11
1965.81
1990.22
2017.05
2045.8
2076.03
2107.33
2139.36
2172.06
2205.58
2239.59
2274.05
2308.98
2344.56
2380.67
2417.31
2454.66
2492.7
2531.34
2570.7
2610.91
2652.03
2693.91
2736.57
2780.28
2824.99
2870.56
2917.3
2965.08
3013.77
3063.43
3114.25
3166.29
3219.44
3273.6
3329.32
3386.18
3444.56
3504.25
3565.98
3629.75
3695.57
3763.32
3833.14
820.712
827.066
833.243
839.164
844.853
850.43
856.043
861.538
867.13
872.469
877.764
882.95
888.144
893.367
898.614
903.93
909.334
914.872
920.535
926.298
932.121
937.943
943.74
949.491
955.182
960.793
966.254
971.535
976.63
981.564
986.353
990.972
995.439
999.777
1003.98
1008.05
1012.01
1015.85
1019.58
1023.19
1026.7
1030.14
1033.46
1036.69
1039.83
1042.87
1045.81
1048.62
1051.35
1053.98
1056.49
1058.9
1061.2
1063.54
1065.69
1067.93
1070.11
1072.51
1074.78
1077.11
1079.56
636.328
638.036
639.792
641.516
643.211
644.807
646.479
648.054
649.613
651.026
652.387
653.695
655.019
656.315
657.584
658.815
660.003
661.146
662.231
663.248
664.181
665.032
665.787
666.442
666.995
667.44
667.771
667.988
668.08
668.054
667.899
667.621
667.222
666.699
666.066
665.32
664.464
663.495
662.414
661.22
659.918
658.512
657.01
655.396
653.683
651.858
649.91
647.831
645.627
643.301
640.825
638.249
635.531
632.704
629.682
626.576
623.381
620.109
616.749
613.335
609.931
542.445
542.926
543.375
543.811
544.214
544.586
544.921
545.238
545.493
545.645
545.734
545.781
545.764
545.663
545.508
545.285
544.997
544.634
544.191
543.658
543.038
542.328
541.535
540.652
539.674
538.595
537.416
536.137
534.757
533.276
531.693
530.002
528.203
526.304
524.313
522.229
520.052
517.782
515.412
512.948
510.395
507.765
505.062
502.293
499.458
496.556
493.565
490.485
487.31
484.058
480.7
477.246
473.71
470.074
466.31
462.426
458.469
454.424
450.322
446.199
442.081
482.025
481.463
480.877
480.261
479.616
478.91
478.148
477.379
476.606
475.783
474.925
474.023
473.06
472.04
470.957
469.808
468.623
467.365
466.032
464.621
463.137
461.587
459.975
458.306
456.571
454.764
452.883
450.928
448.904
446.811
444.645
442.394
440.058
437.642
435.16
432.611
429.992
427.296
424.517
421.661
418.737
415.754
412.727
409.672
406.594
403.496
400.341
397.154
393.901
390.603
387.239
383.8
380.307
376.743
373.085
369.324
365.481
361.548
357.594
353.624
349.655
433.805
432.478
431.144
429.764
428.359
426.919
425.437
423.938
422.394
420.826
419.219
417.587
415.917
414.196
412.428
410.625
408.793
406.896
404.929
402.894
400.8
398.659
396.484
394.285
392.045
389.755
387.415
385.026
382.605
380.153
377.666
375.117
372.509
369.837
367.127
364.376
361.568
358.706
355.77
352.763
349.698
346.582
343.44
340.301
337.181
334.094
330.98
327.878
324.746
321.628
318.474
315.26
312.029
308.734
305.393
301.926
298.392
294.781
291.182
287.543
283.927
390.015
388.068
386.113
384.144
382.137
380.084
377.999
375.91
373.784
371.606
369.415
367.216
364.983
362.724
360.419
358.098
355.776
353.404
350.961
348.443
345.865
343.266
340.654
338.055
335.446
332.797
330.116
327.397
324.686
321.992
319.334
316.637
313.924
311.16
308.399
305.617
302.775
299.897
296.957
293.952
290.885
287.748
284.591
281.449
278.347
275.351
272.336
269.402
266.459
263.622
260.793
257.887
254.997
252.056
249.112
245.99
242.852
239.603
236.445
233.221
230.048
346.293
343.82
341.335
338.892
336.421
333.962
331.427
328.963
326.466
323.854
321.245
318.678
316.064
313.427
310.709
308.02
305.408
302.754
300.033
297.165
294.214
291.283
288.335
285.43
282.588
279.707
276.795
273.789
270.807
267.909
265.184
262.445
259.78
257.086
254.472
251.877
249.148
246.352
243.546
240.732
237.814
234.769
231.696
228.62
225.567
222.734
219.82
217.086
214.342
211.872
209.474
206.93
204.443
201.903
199.426
196.66
193.956
191.08
188.439
185.682
183.028
300.009
297.023
293.87
291.061
288.089
285.544
282.655
280.192
277.695
274.965
272.224
269.742
267.01
264.304
261.307
258.282
255.612
253.041
250.47
247.642
244.387
241.35
238.235
235.083
232.121
229.212
226.398
223.256
219.895
216.731
213.965
211.2
208.655
206.173
204.034
201.979
199.602
196.93
194.344
191.961
189.512
186.693
183.788
180.928
177.979
175.411
172.513
169.982
167.337
165.359
163.5
161.326
159.333
157.274
155.377
152.925
150.69
148.124
146.051
143.8
141.774
3906.11
3981.71
4059.33
4139.01
4221.19
4306.78
4395.24
4486.53
4580.35
4676.89
4776.48
4877.98
4981.67
5091.87
5229.6
5355.95
5481.42
5609.49
5740.09
5873.17
6009.08
6147.87
6289.12
6433.06
6579.45
6727.58
6877.15
7027.92
7179.67
7331.55
7483.45
7634.78
7784.65
7932.46
8077.71
8218.97
8355.1
8484.85
8600.2
8685.3
8743.45
8776.3
8783.69
8763.86
8715.25
8635.41
8520.29
8365.28
8166.06
7918
7614.84
7249.72
6817.39
6309.73
5715.25
4746.24
4316.26
4098.86
4011.97
3971.25
3891.03
1082.25
1085.04
1088.05
1091.11
1094.27
1097.67
1101.62
1105.97
1110.79
1115.92
1121.55
1125.03
1126.45
1129.43
1133.06
1138.1
1143.3
1148.44
1153.72
1159.24
1165.05
1171.16
1177.54
1184.19
1191.1
1198.24
1205.65
1213.34
1221.37
1229.78
1238.61
1247.93
1257.87
1268.52
1280.01
1292.56
1306.35
1321.76
1339.83
1369.16
1404.62
1443.23
1485
1530.06
1579.11
1632.49
1690.29
1752.8
1820.3
1892.37
1968.16
2046.07
2124.41
2202.4
2272.86
2339.18
2397.55
2483.93
2588
2698.67
2666.05
606.504
603.085
599.634
596.166
592.646
589.154
585.776
582.558
579.413
576.237
572.625
567.102
561.245
556.205
551.674
547.758
543.937
540.018
536.04
532.055
528.104
524.181
520.282
516.404
512.543
508.695
504.871
501.072
497.32
493.609
489.961
486.398
482.931
479.604
476.444
473.501
470.82
468.472
466.583
465.665
465.903
470.251
478.439
489.922
505.15
524.772
549.498
580.35
618.327
664.512
719.926
785.37
862.031
950.332
1050.3
1158.88
1266.42
1383.61
1526.75
1712.27
1905.8
437.968
433.87
429.774
425.666
421.514
417.366
413.271
409.282
405.277
401.179
396.315
390.42
384.694
379.509
374.711
370.264
365.929
361.612
357.294
352.999
348.729
344.464
340.212
335.979
331.759
327.563
323.392
319.246
315.126
311.035
306.975
302.951
298.976
295.06
291.213
287.454
283.805
280.281
276.908
273.749
270.883
268.605
267.568
268.25
270.506
274.67
281.198
290.734
304.111
322.344
346.836
378.91
420.233
471.975
534.914
607.223
684.609
768.303
866.404
992.631
1152.11
345.708
341.826
337.967
334.09
330.148
326.21
322.292
318.461
314.609
310.648
305.94
300.725
295.777
291.234
286.94
282.883
278.929
275.07
271.265
267.525
263.822
260.106
256.41
252.74
249.085
245.46
241.862
238.293
234.742
231.214
227.708
224.23
220.785
217.384
214.035
210.749
207.537
204.411
201.379
198.458
195.674
193.089
190.829
189.23
188.439
188.457
189.503
191.874
195.997
202.401
211.872
225.405
244.194
269.512
302.423
343.13
390.254
443.25
504.269
578.788
673.406
280.312
276.82
273.36
269.903
266.308
262.722
259.13
255.659
252.167
248.612
244.385
239.957
235.791
231.972
228.291
224.777
221.327
218.029
214.82
211.71
208.646
205.54
202.47
199.446
196.431
193.456
190.5
187.576
184.655
181.75
178.853
175.984
173.141
170.34
167.584
164.886
162.251
159.689
157.203
154.802
152.5
150.319
148.297
146.518
145.221
144.315
143.915
144.139
145.191
147.341
150.953
156.544
164.779
176.426
192.37
213.203
239.076
270.058
306.739
350.734
405.17
226.792
223.733
220.719
217.757
214.542
211.359
208.115
205.074
202.018
198.993
195.311
191.63
188.161
185.059
181.975
179.035
176.085
173.361
170.729
168.215
165.752
163.186
160.704
158.312
155.908
153.558
151.199
148.883
146.538
144.205
141.861
139.557
137.275
135.048
132.857
130.729
128.653
126.649
124.71
122.852
121.077
119.407
117.85
116.439
115.229
114.381
113.798
113.543
113.718
114.452
115.932
118.404
122.184
127.701
135.424
145.854
159.411
176.426
197.362
222.992
254.592
180.12
177.494
174.954
172.567
169.749
167.006
164.106
161.556
158.985
156.567
153.408
150.393
147.52
145.101
142.548
140.182
137.684
135.52
133.421
131.428
129.495
127.366
125.404
123.641
121.799
120.002
118.146
116.376
114.509
112.663
110.769
108.969
107.181
105.485
103.801
102.193
100.61
99.105
97.6578
96.3057
95.0253
93.8535
92.7909
91.8321
91.0062
90.4068
90.0166
89.8108
89.8548
90.2194
91.0021
92.323
94.3493
97.2751
101.347
106.85
114.081
123.375
135.099
149.753
167.992
139.18
136.922
134.878
133.149
130.726
128.448
125.845
123.872
121.822
120.047
117.356
114.916
112.492
110.732
108.594
106.809
104.665
103.07
101.439
99.8187
98.3293
96.4882
94.992
93.9476
92.5671
91.1638
89.6569
88.3871
86.8367
85.3575
83.7501
82.4269
81.0464
79.8453
78.5634
77.4
76.1524
75.0424
74.0004
73.0898
72.2531
71.5177
70.9014
70.3701
69.8748
69.4841
69.2692
69.1645
69.2808
69.5393
70.1788
71.1148
72.553
74.4528
77.026
80.3049
84.5787
89.9389
96.7748
105.35
116.014
3744.28
3582.43
3408.54
3225.52
3043.13
2867.3
2701.74
2550.91
2418.44
2306.17
2214.22
2141.26
2085.44
2044.37
2015.23
1995.39
1982.71
1975.67
1972.85
1973.08
1975.7
1980.21
1986.17
1993.54
2002.22
2012.09
2023.05
2035.12
2048.37
2062.69
2078.05
2094.38
2111.59
2129.43
2147.8
2166.42
2184.93
2203.1
2220.7
2237.39
2252.75
2266.55
2278.63
2288.81
2297.18
2304.01
2309.41
2313.62
2317.19
2320.86
2324.96
2329.7
2335.61
2342.86
2351.18
2360.3
2369.93
2380.06
2389.65
2397.72
2403.63
2475.4
2270.52
2069.32
1874.65
1703.68
1545.56
1399.63
1266.84
1147.54
1042.51
951.824
874.841
810.454
757.135
714.563
681.853
656.888
637.795
623.045
611.553
602.57
595.511
590.055
585.865
582.916
580.946
579.948
579.896
580.765
582.555
585.284
588.937
593.512
598.981
605.294
612.384
620.122
628.392
637.034
645.844
654.55
662.82
670.231
676.334
680.717
682.988
682.811
680.051
674.835
667.554
658.798
649.348
640.102
631.84
624.906
619.637
615.761
612.964
610.285
606.96
602.343
1997.7
1989.29
1891.35
1716.99
1535.36
1358.71
1186.76
1030.66
891.586
768.798
663.169
574.152
500.442
440.697
393.911
358.198
330.743
309.117
292.057
278.704
268.227
259.96
253.366
248.123
243.842
240.427
237.685
235.561
233.997
232.962
232.432
232.403
232.862
233.774
235.118
236.853
238.944
241.346
244.002
246.832
249.74
252.617
255.337
257.732
259.637
260.851
261.176
260.438
258.535
255.43
251.23
246.252
240.95
235.895
231.559
228.486
226.898
226.831
228.014
230.112
232.779
1319.25
1469.09
1569.98
1590.95
1524.18
1399.45
1230.41
1057.86
898.818
752.425
624.968
518.544
430.982
360.979
306.239
263.814
230.938
205.062
184.8
169.077
156.945
147.627
140.465
134.916
130.55
127.073
124.282
122.042
120.262
118.873
117.84
117.138
116.74
116.61
116.712
117.011
117.471
118.054
118.718
119.415
120.091
120.693
121.16
121.432
121.453
121.165
120.523
119.495
118.076
116.265
114.107
111.719
109.295
107.106
105.473
104.828
105.534
107.749
111.459
116.568
123.189
789.478
924.862
1068.92
1198.34
1282.6
1303.69
1256.07
1151.75
1015.39
860.508
711.936
584.557
475.113
385.676
314.885
258.967
215.233
181.114
154.527
134.019
118.376
106.612
97.8329
91.2546
86.2567
82.3941
79.3757
77.0012
75.1333
73.6656
72.5375
71.7139
71.157
70.8232
70.6717
70.665
70.7667
70.9404
71.1491
71.3517
71.5046
71.5662
71.4961
71.2563
70.8131
70.1419
69.2342
68.0937
66.7296
65.1746
63.4846
61.756
60.1501
58.8791
58.2388
58.5251
60.179
63.5264
68.7514
76.052
85.2511
473.125
557.789
660.277
776.875
895.507
998.534
1065.74
1081.44
1042.98
957.837
842.425
716.052
588.097
475.474
383.523
307.645
247.552
200.112
162.374
133.251
111.291
95.1071
83.342
74.7603
68.4099
63.6254
59.9825
57.1923
55.0505
53.3943
52.1309
51.2072
50.5719
50.1699
49.9531
49.8804
49.9126
50.0146
50.1504
50.282
50.37
50.3802
50.2768
50.0303
49.6102
49.0004
48.1957
47.2065
46.0406
44.7275
43.3147
41.8868
40.5765
39.5738
39.1594
39.6992
41.6577
45.4587
51.4264
59.7037
70.2133
293.888
343.123
404.656
480.036
568.406
665.205
760.65
840.77
891.241
901.376
868.534
799.53
706.057
601.914
499.202
401.85
321.129
255.362
200.423
157.421
124.806
101.059
84.1768
72.1224
63.385
56.923
52.1018
48.4938
45.7925
43.7385
42.1881
41.0572
40.2761
39.7693
39.4771
39.3495
39.3427
39.4195
39.5434
39.6773
39.7828
39.8317
39.7887
39.6288
39.3189
38.8501
38.2146
37.4261
36.4845
35.42
34.2694
33.1082
32.0513
31.2622
31.0005
31.6573
33.6911
37.642
43.9765
52.9232
64.4598
190.776
219.318
255.181
299.994
355.089
420.733
495.269
573.854
648.733
709.34
745.196
749.744
722.712
668.114
594.493
510.076
424.937
344.554
268.186
206.501
157.623
122.061
97.2442
79.7329
67.1242
57.863
51.029
46.0245
42.3756
39.6392
37.5939
36.0986
35.0591
34.3653
33.9386
33.7133
33.6372
33.667
33.7649
33.8916
34.008
34.0923
34.1083
34.034
33.8299
33.4947
33.0148
32.4092
31.669
30.8252
29.9073
28.9859
28.1621
27.581
27.488
28.2526
30.3554
34.4259
41.0557
50.5998
63.0796
129.435
146.129
167.038
193.428
226.351
266.85
315.324
371.315
432.442
494.794
550.687
594.11
618.64
621.322
600.316
557.657
499.162
428.889
355.747
280.682
210.446
159.152
123.532
98.1901
79.5028
65.7479
55.6114
48.3346
43.1416
39.2836
36.4393
34.3424
32.8806
31.8808
31.234
30.8439
30.647
30.586
30.624
30.7097
30.8101
30.9049
30.9594
30.9482
30.8305
30.6043
30.2597
29.8085
29.2441
28.5884
27.8761
27.1706
26.5715
26.2081
26.3063
27.2275
29.457
33.6814
40.5689
50.6245
63.8595
1.53461
214.397
191.865
2.25168
2.20651
0.207422
0.000721786
90.2814
0.000793542
0.0146445
96.2898
7.33037
0.00072248
246.093
0.169717
136.442
0.000756214
91.8322
121.085
0.000720085
2.24484
234.974
202.513
0.000766847
0.000778623
0.210943
0.00072072
7.78527
0.000752077
0.000818352
6.30503
0.00076923
0.00872846
64.6206
4.20045
114.796
74.0479
16.3184
0.000723944
43.8325
65.269
28.9909
0.000743056
103.84
172.742
0.738532
0.000875103
0.00861073
1.33533
7.59171
369.707
358.797
0.000705686
0.00103283
0.0622736
0.0636182
0.000815206
9.05577
60.6587
286.038
138.233
0.000902069
1.52454
0.0251364
202.889
1.54908
39.9927
62.9464
0.00112897
0.000747766
9.63943
41.4112
56.0277
0.014092
0.0508257
81.291
231.563
56.4714
0.000705559
5.78596
0.00233212
46.4588
0.0132963
110.961
0.000750055
8.91297
0.000788529
37.8366
0.0109679
0.00136147
0.234247
0.000704311
0.000929902
309.873
145.04
0.000863832
1.64356
1.77856
0.00183748
208.838
0.557296
31.375
5.93617
0.000703485
0.00072643
0.000703485
1.42039
0.211873
0.000747993
175.688
224.405
0.00473305
235.889
27.1743
113.086
55.0556
29.2041
0.000975829
0.112449
0.00110126
0.00121673
189.522
0.00290476
289.766
417.216
28.0665
0.000745961
7.45091
7.30943
0.000743778
0.0298369
0.0270294
90.5406
0.00182681
64.5289
0.000748768
0.000724507
398.024
353.184
0.000747825
0.724975
151.059
0.230442
0.935632
27.3144
121.32
0.313454
28.3796
0.00523675
277.696
11.2122
0.0599865
49.5066
108.555
190.566
0.000766424
0.00075464
0.527903
0.000744221
42.7639
0.118345
0.0014416
0.000741717
0.000747326
0.000758658
41.3793
69.5025
34.5339
0.00077312
286.452
304.595
403.346
167.875
0.00685704
159.353
43.8605
29.192
0.000747703
0.00168824
192.019
69.8066
29.7856
73.2716
0.000744411
0.000839414
240.048
0.0297629
2.58857
0.000758216
0.000874423
0.174631
0.000797453
334.763
4.12521
0.000748009
0.704617
89.6221
143.297
0.00119366
54.2286
0.00074594
0.000749568
108.831
33.2831
303.336
0.00121064
0.000797295
0.00284103
42.4178
78.8095
10.0143
124.314
13.9847
233.799
0.808864
87.1301
83.3692
27.3435
11.2603
40.2649
0.00141722
0.0294446
0.000746894
0.000754947
29.3171
0.0100431
0.0117965
0.00187773
0.00622119
47.6562
197.218
0.0110743
172.41
7.83956
2.70804
0.000732124
0.534805
39.1582
7.54972
0.00106074
12.7081
35.246
0.851406
2.54402
273.286
7.546
4.98504
123.674
0.000952152
0.000727014
0.00102115
0.00425002
29.606
0.000784827
0.00236456
0.000724135
1.76635
76.4733
78.0027
50.4742
12.1304
11.9171
327.28
0.00113681
49.7038
100.184
0.000743801
82.2534
0.000749718
334.874
1.76275
51.6533
0.00154072
0.000748433
20.9033
7.59838
0.000759696
0.000749191
0.000754416
0.000750546
1.23057
35.9159
45.2974
0.0107434
0.000760494
0.000724677
0.000702666
105.208
1.14258
0.00118336
19.4429
0.11773
0.0941126
0.000702163
0.798528
0.000760196
0.103045
47.4864
273.012
3.20484
0.000983683
0.00184428
57.0406
0.358111
128.788
324.598
0.000835372
0.00073979
0.000733586
157.553
0.000771031
137.895
0.000749946
24.8565
12.3862
0.0239968
139.829
244.353
0.00126398
51.3345
49.5762
88.9946
91.9195
9.03915
350.894
39.7106
72.0557
144.601
95.8506
56.228
0.347928
340.06
282.159
64.3178
34.5031
0.00100636
270.833
125.172
231.68
0.0188054
0.000864069
0.000745632
0.000808711
0.689554
1.61876
6.23577
0.126843
0.000726904
172.145
0.000746334
27.107
23.9893
193.761
42.0351
19.3271
0.0019153
0.00110218
0.453862
85.8475
0.00435721
8.06212
259.821
37.1325
84.6915
194.635
60.672
0.000819105
285.029
144.058
96.705
0.000749815
195.233
153.732
0.000779215
31.4145
0.000750838
396.845
172.119
28.9928
82.2291
113.398
150.651
0.00076446
149.763
0.000959783
70.1077
81.7944
29.2199
281.321
3.85542
0.504607
2.67915
0.00109684
441.438
1.49092
0.00288973
0.00188672
255.774
0.000948542
93.3479
0.000739454
0.000749057
0.00182699
31.7956
0.195112
22.1567
0.00186482
84.2972
0.316855
220.922
280.945
38.9282
339.592
0.000794323
281.256
43.1523
0.000740486
79.2264
26.1331
0.000704484
0.000727791
118.714
0.00204793
26.728
0.451018
75.9975
0.0177249
3.5318
40.2739
120.49
33.3843
83.3361
70.2299
0.00100749
0.0333727
29.6418
21.7663
333.047
341.34
142.426
0.0855279
124.984
123.879
3.38949
90.6976
46.5934
26.4431
0.000827144
85.0088
386.039
0.00107064
91.9072
19.8744
47.2419
0.0153857
0.090201
268.549
0.00191574
329.082
0.00124069
1.80701
0.000737487
7.9891
166.484
0.56647
0.00131654
0.000902715
75.921
27.53
0.219722
5.45909
294.389
543.524
0.00141524
12.1475
28.0201
73.2313
26.7596
450.108
29.7602
154.535
52.7185
3.77283
7.08474
304.278
54.4142
356.168
173.098
0.25692
173.683
61.1188
0.000792313
91.3041
29.5763
13.1333
0.00967812
98.0384
44.9516
4.25753
53.3766
0.00158382
0.000747216
0.0614798
27.9909
107.53
75.2015
0.000750407
0.00073156
0.000742209
29.1034
0.0275285
0.000745462
0.250017
95.3988
272.966
0.00440336
0.00453358
0.000724731
0.000738126
0.00192302
29.7366
100.782
21.3893
1.95023
299.468
384.971
0.00150333
62.4079
28.8135
29.4122
76.5311
439.736
0.000821015
0.00444918
0.000749316
396.356
0.7953
0.000726933
11.0126
0.361628
304.065
0.000759434
326.321
9.05265
0.0656942
203.271
0.000746061
0.00073423
0.00103024
406.587
53.8817
131.416
319.507
10.5034
29.5459
0.000712147
0.00183963
0.455739
0.0108502
0.0163556
177.424
42.2425
0.000747331
25.5975
46.483
186.121
408.993
0.00293605
412.437
0.00182381
0.0219047
148.562
0.000737211
147.186
0.000759935
0.000788407
0.020896
35.3192
3.05025
322.346
61.9494
0.000888056
29.3609
504.514
0.118821
2.16802
7.55547
0.000772093
0.000757524
0.00229424
136.346
5.50222
0.000784749
272.196
278.658
217.711
0.0482433
61.5069
0.00108749
30.6414
0.543349
0.133202
125.36
30.6257
149.405
175.272
0.000760531
0.000714542
0.00489324
73.4748
104.444
6.21356
0.00659367
0.000774708
0.000747672
0.00342643
0.304288
0.00210593
74.5062
21.4116
0.00494667
26.9838
173.97
0.00075926
39.2776
0.000741865
3.35711
0.000762517
0.01323
37.9799
0.011638
0.000744627
4.27749
365.604
264.357
0.000731476
0.000750136
1.59493
0.276502
0.000747744
99.5161
0.000900846
32.9191
379.142
30.5953
86.7198
294.766
134.733
337.979
0.000745776
0.00248789
0.0110095
295.93
59.8542
201.993
4.95747
4.31316
102.159
166.946
128.33
4.04892
46.9089
0.000750632
1.56077
40.1189
34.0146
315.32
26.9917
1.10961
41.3317
0.204333
0.0103519
40.4583
0.000749223
175.231
0.000889513
2.73007
294.833
184.261
3.10549
0.0024969
7.1479
0.000765859
0.00073585
0.200977
0.0135548
51.1304
0.00871357
29.5603
0.000750679
0.0191439
0.000725619
96.3261
0.00186877
88.0525
300.289
0.0143514
167.27
374.908
0.000755181
98.5225
223.091
0.000785957
289.269
0.26603
0.000828363
0.000795514
282.885
0.000731452
0.00111568
0.124162
0.215406
433.162
272.066
0.000751597
0.000754708
8.4907
28.4064
0.0071069
2.43525
22.9008
0.00074763
0.000948934
0.000917807
170.056
272.982
3.41935
296.64
0.0172676
27.2455
0.000773572
0.00718278
0.016112
0.0429999
0.000749239
297.778
0.000741889
0.0161279
0.00077176
0.874512
0.0148425
0.016026
2.55365
5.12643
36.0009
2.20514
9.46968
28.8223
190.795
0.000813963
165.548
328.437
12.7718
76.2424
0.00076083
270.749
80.512
0.000744807
412.02
68.113
0.00403665
0.00863976
162.818
161.753
0.155401
317.778
410.28
4.64013
432.855
265.827
128.593
52.0515
21.2528
27.9262
266.399
292.733
0.0143288
310.539
42.0429
409.854
0.000811577
1.59135
2.53514
226.795
166.643
0.0118513
445.399
197.008
6.89313
0.0538553
2.76439
29.0295
0.00153812
29.1847
442.051
0.0293075
223.087
14.4119
94.3264
191.052
0.000745386
0.00167052
7.66259
5.33269
0.0131324
0.000748318
0.825977
1.80932
0.00120286
0.000758738
268.705
7.28683
53.3834
10.7
0.00313681
0.00107174
0.288953
89.5409
0.000820804
22.0989
30.4138
1.91975
163.825
0.00100073
0.393376
0.00074029
2.11859
87.6238
0.00120514
0.187896
42.1602
167.918
0.513785
95.6226
5.14534
0.775551
0.000983709
33.5858
334.216
0.000743737
0.000757181
149.257
0.0158437
0.000758314
73.7147
2.27105
163.886
30.5937
38.2448
0.318879
17.8076
207.719
164.76
243.362
0.000761948
274.757
0.000973055
37.7079
0.000799464
0.00130983
46.4574
0.00208245
259.62
0.0121608
0.0325505
45.6828
7.76763
0.58727
0.000892398
187.071
0.000882373
0.000720303
346.578
162.861
41.6243
29.6035
0.000810076
0.000702873
19.8071
149.98
0.000732139
220.48
37.4793
0.000752076
170.47
0.000707925
3.35886
6.62069
11.1907
1.55567
76.0875
21.2374
0.000706896
271.566
329.116
0.000743298
0.0131692
29.8696
0.000712136
240.433
161.481
406.438
0.000744594
0.000727835
199.893
0.0951923
0.00083479
31.4828
80.5239
253.513
0.000722222
0.000793363
0.0158207
0.011577
0.0007464
0.00201747
126.502
52.0682
0.000746044
13.5565
0.000747095
10.052
0.00108804
0.000863078
27.6873
0.000750552
0.343107
0.000730374
50.1156
2.13917
20.5582
187.016
364.424
148.005
5.34622
14.922
0.000758284
5.9194
279.612
529.196
0.159572
0.000823875
130.251
0.000745956
0.117022
0.000721453
443.495
14.9646
3.14033
198.473
52.6506
4.974
81.0048
7.80011
225.516
113.877
0.000771509
0.000757459
0.00307087
0.000750418
0.0141283
100.294
0.000930687
252.626
0.00186318
0.248232
3.12335
153.588
0.00135352
42.2418
0.0134236
56.61
30.9905
438.459
0.000798929
0.000953497
0.996577
85.2886
63.6134
66.4011
1.99328
7.96596
20.2088
0.0625708
10.3985
2.05877
31.1118
0.000757865
397.491
1.50535
56.381
0.000785992
53.4972
16.2871
0.00134914
88.1971
17.9144
0.0854272
0.000717535
0.000745322
203.594
48.339
15.0112
0.000736024
0.0095757
52.0824
189.278
3.75069
0.00586413
0.000736743
149.031
131.494
36.9678
36.2897
0.000742116
102.25
437.731
0.000746991
0.000749428
18.5852
0.00110242
0.00385562
0.250663
47.6728
0.00104982
37.448
346.697
0.000734747
0.000821055
0.000728615
0.000767139
67.1276
519.182
337.505
0.0206721
34.3169
48.6073
0.134078
45.1002
0.000827973
32.3245
0.545126
31.4887
5.26631
81.8597
101.686
0.257638
0.000759368
160.915
86.0485
278.999
5.9634
30.5753
0.528447
20.4555
0.00351418
0.00132676
152.279
144.568
0.0334767
1.25643
0.000753214
0.100962
20.2132
0.0276658
13.8179
3.50144
385.906
37.7942
1.80378
274.977
140.523
57.9679
16.0397
200.255
192.298
3.2192
38.8402
0.00229809
47.7027
46.1332
0.000743463
0.000713733
0.343726
0.000747846
0.000776181
58.9879
299.442
0.000743787
85.8427
0.000744021
0.000736461
0.000738767
0.00075387
0.00180352
30.4869
45.5313
251.375
0.000720906
0.00100734
6.92054
0.000850806
0.0282999
0.000762827
0.000872726
166.955
0.00097851
0.00466333
181.478
0.00423757
0.000749572
186.763
0.000745158
0.000759436
1.9264
0.000867456
6.47155
0.00123424
0.0241349
0.000743862
0.000752767
305.788
423.321
44.6838
0.0235517
109.392
16.3511
0.00129623
28.5164
313.586
236.43
479.762
0.000721517
27.3407
56.5333
0.26799
29.4156
103.167
0.357989
32.5676
1.58431
29.3193
0.30045
7.65677
0.000757737
223.395
0.00076815
29.6357
32.6183
0.000747975
0.949037
0.00244485
0.02061
0.000727226
4.10256
0.000889319
0.000741816
41.3831
0.110735
0.168657
231.992
152.105
0.000819323
0.000966423
30.782
262.771
0.000709645
0.000752988
0.193643
24.1863
147.433
0.00208453
16.2355
0.00074485
0.000815055
0.000721033
0.0281182
23.6688
0.00405798
273.693
30.4597
261.042
174.278
0.000839053
301.195
66.9303
0.00073281
0.000754118
0.000750347
0.00116068
0.000739775
124.259
0.000745443
0.000748292
351.391
1.23898
0.00266498
0.0263223
58.5314
7.59469
0.00832248
0.000821336
187.091
0.000762731
6.97689
0.000754737
0.000842105
164.815
166.536
0.00333582
0.000837384
3.9781
0.000744287
369.369
0.000752676
152.769
0.0261039
8.53103
0.0567758
3.16017
2.23741
29.9365
0.000761144
0.000855885
0.00488732
60.9122
0.289099
305.383
0.000746642
0.00123828
0.001636
258.93
62.1005
270.858
0.00224871
0.00347681
0.824317
0.000751501
19.1599
38.264
0.00877516
269.144
181.192
41.0461
0.00153904
1.49362
168.638
227.583
28.8265
0.0105342
120.838
0.554712
135.39
0.14612
2.37761
43.3365
0.000761978
29.3616
0.00122468
0.00508435
0.00375978
0.0483675
0.000902103
11.2988
0.00074502
46.2249
0.133744
0.000872774
1.89656
0.000756587
0.787171
0.23059
41.5329
3.80603
94.1932
0.822547
0.000748519
0.000730685
3.89094
0.160453
43.4989
264.022