/*--------------------------------*- C++ -*----------------------------------*\
| =========                 |                                                 |
| \\      /  F ield         | OpenFOAM: The Open Source CFD Toolbox           |
|  \\    /   O peration     | Version:  2.3.1                                 |
|   \\  /    A nd           | Web:      www.OpenFOAM.org                      |
|    \\/     M anipulation  |                                                 |
\*---------------------------------------------------------------------------*/
FoamFile
{
    version     2.0;
    format      ascii;
    class       volScalarField;
    location    "0.99";
    object      k;
}
// * * * * * * * * * * * * * * * * * * * * * * * * * * * * * * * * * * * * * //

dimensions      [0 2 -2 0 0 0 0];

internalField   nonuniform List<scalar> 
9648
(
2.71312
2.71481
2.7144
2.71101
2.70411
2.69292
2.67799
2.6592
2.63638
2.60947
2.57851
2.54374
2.50557
2.46456
2.42137
2.37673
2.33139
2.28606
2.24134
2.19781
2.15588
2.11591
2.07814
2.04274
2.0098
1.97937
1.95143
1.92596
1.90288
1.88212
1.86361
1.84723
1.83291
1.82055
1.81006
1.80136
1.79436
1.789
1.7852
1.78289
1.78205
1.78261
1.78454
1.78782
1.79243
1.79835
1.80561
1.81424
1.82427
1.83571
1.84862
1.86306
1.87908
1.89665
1.91578
1.93632
1.95794
1.98013
2.0024
2.02436
2.04568
1.74288
1.74647
1.74827
1.74923
1.75148
1.7575
1.76955
1.78866
1.81483
1.84817
1.88847
1.93518
1.98749
2.04444
2.10505
2.16837
2.23352
2.29973
2.36634
2.43283
2.49877
2.56385
2.62786
2.69067
2.75217
2.81238
2.87135
2.9291
2.98569
3.0412
3.09578
3.14947
3.20235
3.25458
3.30619
3.35725
3.40786
3.45812
3.50802
3.55754
3.60677
3.65581
3.70461
3.75316
3.80156
3.84966
3.89746
3.94509
3.99259
4.03982
4.08667
4.13305
4.17903
4.22423
4.26893
4.31284
4.35618
4.39823
4.43926
4.47931
4.51843
1.42306
1.47615
1.53283
1.59456
1.66325
1.73967
1.82334
1.91404
2.01112
2.11406
2.22175
2.33339
2.44794
2.56431
2.68144
2.79832
2.91413
3.02804
3.13945
3.24787
3.35292
3.45439
3.55212
3.64608
3.73635
3.82304
3.90636
3.98641
4.06343
4.13763
4.20918
4.27834
4.34533
4.41027
4.47333
4.53473
4.59456
4.65299
4.71009
4.76597
4.82072
4.87439
4.92712
4.97894
5.02984
5.07981
5.12883
5.17697
5.22408
5.27018
5.31524
5.35931
5.40259
5.44439
5.48564
5.52532
5.56418
5.60115
5.63743
5.67261
5.70675
1.33349
1.43425
1.54303
1.65968
1.78416
1.91624
2.05526
2.2002
2.34984
2.50302
2.65832
2.81459
2.97052
3.12509
3.27717
3.42577
3.57015
3.70968
3.84387
3.97242
4.09513
4.21185
4.32266
4.42771
4.52727
4.62162
4.7111
4.79603
4.87673
4.9535
5.02676
5.0968
5.16394
5.22847
5.29059
5.35058
5.40863
5.46491
5.51959
5.57281
5.6247
5.67541
5.72501
5.77365
5.8213
5.86803
5.91386
5.95882
6.00282
6.04588
6.08811
6.12916
6.16927
6.20823
6.24656
6.2837
6.31969
6.35452
6.38826
6.42096
6.45239
1.36052
1.50132
1.65424
1.81727
1.98895
2.16827
2.35377
2.54375
2.73659
2.93051
3.12388
3.31512
3.50304
3.68652
3.86453
4.03601
4.20033
4.3571
4.50599
4.64697
4.77994
4.90491
5.02211
5.13185
5.23463
5.33096
5.42127
5.50605
5.58567
5.66061
5.73132
5.79821
5.86177
5.92228
5.98
6.0353
6.08844
6.13955
6.18887
6.23655
6.28275
6.32765
6.37142
6.41417
6.45592
6.49674
6.53664
6.57565
6.61384
6.651
6.68728
6.72255
6.75668
6.78971
6.8218
6.85303
6.88311
6.91212
6.93998
6.96655
6.99188
1.44224
1.61807
1.80976
2.0139
2.22754
2.44864
2.67497
2.90432
3.1344
3.36292
3.58803
3.8078
4.02119
4.22698
4.4246
4.61279
4.79092
4.95904
5.1168
5.26457
5.40247
5.53041
5.64903
5.75849
5.85974
5.95347
6.04025
6.12081
6.19539
6.26462
6.32915
6.38929
6.44581
6.49906
6.5492
6.59672
6.64206
6.68523
6.72655
6.76615
6.80412
6.84078
6.87633
6.91095
6.94459
6.97738
7.00944
7.04053
7.0709
7.10038
7.1289
7.15643
7.18295
7.20826
7.23263
7.256
7.27845
7.29991
7.32008
7.33875
7.3563
1.55646
1.76405
1.99108
2.23247
2.48372
2.74207
3.00447
3.26816
3.53062
3.78844
4.04014
4.28293
4.51627
4.7388
4.95118
5.15104
5.33806
5.51287
5.67471
5.82477
5.96345
6.0901
6.20627
6.31138
6.40714
6.49461
6.57425
6.6474
6.7137
6.77408
6.82953
6.87992
6.92656
6.9699
7.00969
7.04673
7.08188
7.11461
7.14565
7.17503
7.20255
7.22881
7.25406
7.27859
7.30199
7.32464
7.34668
7.36794
7.38866
7.40848
7.42745
7.44538
7.46235
7.47803
7.4925
7.50627
7.51927
7.53132
7.54189
7.5508
7.55857
1.6903
1.92679
2.18615
2.46132
2.74625
3.03714
3.33101
3.62476
3.91507
4.19772
4.47167
4.73256
4.98098
5.21479
5.43765
5.64507
5.83697
6.01511
6.177
6.3252
6.46113
6.58257
6.69363
6.79082
6.87738
6.95513
7.02418
7.08718
7.14219
7.19081
7.23481
7.27256
7.30657
7.33738
7.36417
7.38813
7.41044
7.42972
7.44798
7.46488
7.47956
7.49286
7.5054
7.51745
7.52818
7.53852
7.54798
7.55694
7.56543
7.57335
7.58033
7.58636
7.5917
7.59531
7.59774
7.59972
7.60058
7.60151
7.60038
7.59703
7.59315
1.83431
2.09426
2.38281
2.68548
3.00154
3.31948
3.63909
3.96052
4.27233
4.57709
4.86829
5.14582
5.40437
5.64499
5.8728
6.08468
6.27857
6.45691
6.62006
6.76338
6.89173
7.00559
7.10754
7.19773
7.27218
7.33612
7.39244
7.44267
7.48314
7.51768
7.54791
7.5723
7.59164
7.60671
7.61729
7.62664
7.63154
7.63413
7.63714
7.63801
7.63687
7.63318
7.63153
7.6285
7.62373
7.62049
7.6133
7.60741
7.59923
7.59134
7.5815
7.57193
7.56293
7.55175
7.5395
7.52753
7.51228
7.50146
7.48576
7.46654
7.44896
2.0661
2.08549
2.10401
2.12163
2.13842
2.15451
2.17017
2.18573
2.20113
2.21562
2.22891
2.24162
2.25386
2.26585
2.27787
2.29054
2.30422
2.31924
2.33594
2.35479
2.37551
2.39769
2.42102
2.44507
2.46953
2.49442
2.51986
2.54558
2.57149
2.59765
2.62418
2.65097
2.67802
2.7055
2.73332
2.76147
2.79006
2.81916
2.84872
2.87866
2.9091
2.94012
2.9717
3.0038
3.03653
3.06974
3.10342
3.13773
3.1727
3.20821
3.24431
3.28107
3.3186
3.35669
3.39566
3.43543
3.47631
3.51802
3.56089
3.60504
3.65057
4.55669
4.59291
4.62823
4.66278
4.69628
4.72832
4.75843
4.7873
4.81392
4.8398
4.86396
4.88713
4.90921
4.93028
4.95023
4.96893
4.9865
5.0029
5.01817
5.03229
5.04531
5.05727
5.06803
5.07766
5.08618
5.09355
5.09964
5.10421
5.10736
5.10905
5.10929
5.10813
5.10561
5.10171
5.09647
5.08997
5.08217
5.07315
5.06289
5.05142
5.03879
5.02502
5.01023
4.99433
4.97732
4.95914
4.93968
4.919
4.89702
4.87378
4.84922
4.82329
4.79614
4.76731
4.73752
4.70618
4.67392
4.64025
4.60623
4.57172
4.53687
5.73926
5.7707
5.8006
5.82959
5.85758
5.88496
5.91046
5.93465
5.95667
5.97741
5.99654
6.01445
6.03099
6.04648
6.06072
6.07363
6.08523
6.09551
6.10445
6.11203
6.11834
6.12333
6.12702
6.12941
6.13049
6.13023
6.12868
6.12579
6.12151
6.11578
6.10866
6.10006
6.09002
6.07859
6.06575
6.05154
6.03595
6.01901
6.0007
5.98108
5.96021
5.93817
5.91503
5.89081
5.86547
5.83895
5.81111
5.78191
5.75128
5.71922
5.68571
5.65049
5.61367
5.57509
5.53497
5.493
5.44942
5.40449
5.35865
5.31201
5.26468
6.48283
6.51199
6.5399
6.56627
6.59145
6.61545
6.63801
6.65893
6.67824
6.69593
6.71204
6.72659
6.73961
6.75118
6.76118
6.76977
6.77691
6.78256
6.7867
6.78933
6.7905
6.79029
6.78869
6.78575
6.78141
6.77562
6.76838
6.75973
6.74968
6.7382
6.72524
6.71074
6.69471
6.67716
6.65817
6.63773
6.61581
6.59238
6.56744
6.54105
6.51335
6.48442
6.45444
6.42351
6.39166
6.35882
6.32479
6.28952
6.25295
6.21506
6.17574
6.13482
6.09229
6.04804
6.00202
5.95403
5.90428
5.85307
5.80087
5.74773
5.69406
7.01592
7.0388
7.06026
7.08015
7.09838
7.11504
7.13015
7.14371
7.15591
7.16677
7.17612
7.184
7.19041
7.19527
7.19863
7.2006
7.20101
7.19988
7.19713
7.19277
7.18692
7.17969
7.17118
7.16142
7.15034
7.13787
7.12404
7.10889
7.09252
7.07492
7.05603
7.03567
7.01383
6.99053
6.96589
6.93987
6.91236
6.88333
6.85267
6.82046
6.78686
6.752
6.71617
6.67961
6.64243
6.60466
6.56593
6.52627
6.48555
6.44391
6.401
6.35658
6.31077
6.26327
6.214
6.16249
6.1092
6.05426
5.99836
5.94147
5.88414
7.37252
7.38745
7.40082
7.41274
7.42296
7.4315
7.43848
7.4437
7.44734
7.44949
7.4503
7.44975
7.44776
7.44424
7.4392
7.43282
7.42504
7.41566
7.40454
7.39162
7.37715
7.36133
7.34434
7.32633
7.3071
7.28653
7.26469
7.24162
7.21765
7.19285
7.16722
7.14032
7.11219
7.08273
7.05222
7.02049
6.98731
6.9527
6.9164
6.87843
6.83895
6.79805
6.75618
6.71377
6.67113
6.62855
6.58524
6.54158
6.4972
6.45266
6.40716
6.36019
6.31223
6.26271
6.21168
6.158
6.10258
6.04522
5.98738
5.92834
5.86894
7.56515
7.57046
7.57424
7.57645
7.57696
7.57573
7.57273
7.56824
7.56215
7.55425
7.54503
7.53471
7.52301
7.5098
7.49499
7.47911
7.46223
7.44374
7.42334
7.40077
7.37645
7.35088
7.32423
7.29691
7.26863
7.23895
7.20799
7.17565
7.14275
7.10963
7.0767
7.04282
7.00835
6.97275
6.9368
6.89995
6.86144
6.82164
6.78027
6.73724
6.6925
6.6459
6.59811
6.54984
6.50157
6.45442
6.4064
6.35905
6.31123
6.26481
6.21803
6.16942
6.12047
6.07006
6.01883
5.96392
5.9078
5.84912
5.79117
5.7315
5.6719
7.58791
7.58178
7.57401
7.56512
7.55454
7.54255
7.52848
7.51393
7.49794
7.47932
7.45942
7.43906
7.41725
7.39405
7.36856
7.34233
7.31645
7.28928
7.26019
7.22786
7.19298
7.15738
7.12056
7.08325
7.04591
7.00712
6.96696
6.92423
6.88068
6.83763
6.79699
6.75567
6.71529
6.67412
6.63425
6.5944
6.55164
6.50691
6.46141
6.41528
6.36693
6.31582
6.26309
6.20947
6.15564
6.10478
6.05181
6.00118
5.94978
5.90286
5.85685
5.80762
5.75892
5.70893
5.65941
5.60409
5.54882
5.48964
5.43373
5.37527
5.31788
7.42822
7.40828
7.38503
7.36298
7.33812
7.31562
7.28884
7.26484
7.24071
7.21368
7.18475
7.15635
7.1255
7.09453
7.05828
7.01981
6.98513
6.95164
6.91845
6.88045
6.83417
6.79042
6.74494
6.69711
6.6509
6.60449
6.55914
6.50786
6.45095
6.3954
6.34623
6.29624
6.24986
6.20358
6.16377
6.12602
6.08231
6.03232
5.98317
5.93703
5.88962
5.83657
5.78009
5.7233
5.66509
5.61245
5.55369
5.50012
5.44387
5.39912
5.35673
5.30741
5.26084
5.21363
5.16848
5.11331
5.06046
5.00098
4.94927
4.89421
4.84227
3.69746
3.74538
3.79459
3.84508
3.89689
3.95016
4.00481
4.06097
4.11837
4.17697
4.23689
4.29769
4.35935
4.4243
4.50483
4.57869
4.6513
4.72462
4.79869
4.87367
4.94958
5.02647
5.10422
5.18277
5.26191
5.34141
5.42115
5.50094
5.58057
5.65972
5.73828
5.81594
5.89228
5.96711
6.04004
6.11054
6.17811
6.24199
6.29774
6.33848
6.36612
6.38133
6.38408
6.37369
6.34912
6.30894
6.25125
6.17372
6.07363
5.94778
5.79238
5.60293
5.3744
5.10045
4.75031
4.21631
3.96914
3.84302
3.79279
3.76783
3.71472
4.50138
4.46555
4.42894
4.39166
4.35372
4.31583
4.27775
4.24023
4.20277
4.16576
4.12996
4.08896
4.04443
4.00246
3.95538
3.91006
3.86473
3.81931
3.77426
3.72987
3.68613
3.64279
3.59975
3.55695
3.51433
3.4719
3.42967
3.38774
3.34613
3.30491
3.2642
3.22413
3.18481
3.14648
3.10938
3.07383
3.04023
3.00918
2.98134
2.95821
2.93732
2.91879
2.90302
2.89058
2.88237
2.87933
2.88247
2.89312
2.91271
2.94251
2.98375
3.03754
3.10518
3.18823
3.27848
3.41414
3.59239
3.8656
4.2521
4.74952
5.06101
5.21687
5.16855
5.11946
5.06927
5.01797
4.96608
4.91393
4.86196
4.80979
4.75737
4.70177
4.63819
4.57522
4.51551
4.45598
4.39716
4.33763
4.27737
4.21675
4.15622
4.09581
4.03528
3.97459
3.91372
3.85256
3.79114
3.72942
3.66742
3.60507
3.5424
3.47936
3.41599
3.35232
3.28838
3.22426
3.16005
3.09585
3.03178
2.968
2.90473
2.84192
2.77925
2.7173
2.65685
2.59822
2.54201
2.4891
2.44072
2.39854
2.36473
2.3421
2.33425
2.34592
2.38239
2.44697
2.55056
2.69784
2.91948
3.26041
3.7715
4.38449
5.64
5.58589
5.53111
5.47532
5.41811
5.36028
5.30219
5.24449
5.18654
5.1278
5.06238
4.9911
4.92236
4.85707
4.79297
4.72969
4.66603
4.6021
4.53802
4.47414
4.41037
4.34626
4.28194
4.21746
4.15269
4.08769
4.02242
3.95685
3.89089
3.82449
3.75763
3.69033
3.62262
3.55454
3.48615
3.41753
3.34874
3.27983
3.2108
3.14168
3.07243
3.00298
2.93267
2.86148
2.79005
2.71849
2.64705
2.57616
2.50655
2.43927
2.37581
2.31834
2.26981
2.23397
2.21464
2.21803
2.25258
2.33612
2.49833
2.78262
3.21371
5.82638
5.769
5.71121
5.6525
5.59188
5.53059
5.46894
5.40805
5.3468
5.28447
5.21403
5.13998
5.06918
5.00193
4.93585
4.87062
4.8052
4.74031
4.67576
4.61179
4.548
4.4836
4.41906
4.35448
4.28959
4.22458
4.15929
4.09374
4.02769
3.96117
3.89413
3.82668
3.75886
3.69081
3.62258
3.55429
3.48601
3.41781
3.34967
3.28162
3.21366
3.1458
3.0779
3.0094
2.94011
2.87017
2.79964
2.72858
2.65715
2.5857
2.51463
2.44456
2.37645
2.31155
2.25148
2.19929
2.16114
2.14788
2.17643
2.27217
2.46483
5.80878
5.74976
5.69063
5.63084
5.56818
5.50481
5.44072
5.3781
5.31524
5.25169
5.17933
5.10535
5.03483
4.9683
4.90235
4.83723
4.77179
4.70794
4.64492
4.58301
4.52137
4.45858
4.39597
4.33368
4.27102
4.20839
4.14536
4.08213
4.01817
3.95369
3.88859
3.82324
3.75765
3.69209
3.62655
3.56123
3.49618
3.43152
3.36721
3.30334
3.23989
3.17695
3.11449
3.05238
2.99016
2.92733
2.8639
2.79995
2.73551
2.67068
2.60554
2.54013
2.47445
2.40849
2.34214
2.27606
2.21278
2.15769
2.11981
2.11275
2.15541
5.61021
5.55096
5.49199
5.43322
5.36954
5.30539
5.23969
5.17697
5.11421
5.05202
4.97964
4.90771
4.83907
4.77564
4.71157
4.64863
4.58458
4.52363
4.46378
4.40557
4.34768
4.28754
4.2285
4.17066
4.11206
4.0537
3.9945
3.93534
3.87489
3.81395
3.75216
3.69061
3.629
3.56794
3.50706
3.44683
3.38706
3.32811
3.26982
3.21246
3.15589
3.10036
3.04578
2.99212
2.93916
2.88649
2.83335
2.77974
2.72581
2.6717
2.61743
2.563
2.50822
2.45263
2.39562
2.33661
2.27576
2.21484
2.15771
2.11089
2.08445
5.25537
5.19688
5.13967
5.08452
5.02115
4.95784
4.89128
4.83039
4.76969
4.71161
4.6405
4.5719
4.50605
4.44785
4.38675
4.32789
4.26614
4.20978
4.15439
4.10079
4.04759
3.99024
3.93587
3.88489
3.83175
3.7787
3.72387
3.66997
3.61343
3.55669
3.49862
3.4422
3.38576
3.33094
3.27609
3.22254
3.16927
3.11753
3.06679
3.01782
2.96993
2.92374
2.87905
2.83555
2.79314
2.75189
2.71048
2.66861
2.62671
2.585
2.54377
2.50297
2.46243
2.42163
2.37982
2.33609
2.28969
2.24049
2.18945
2.13894
2.09342
4.77985
4.72179
4.66839
4.61977
4.55828
4.49727
4.4303
4.37386
4.3177
4.26622
4.19748
4.13271
4.06953
4.01856
3.96066
3.90778
3.8486
3.79863
3.74855
3.69896
3.65048
3.59496
3.54624
3.50611
3.45877
3.40975
3.35843
3.3108
3.25697
3.20396
3.14847
3.09894
3.04811
3.00115
2.95259
2.90661
2.85906
2.81519
2.77287
2.7338
2.69585
2.66014
2.62648
2.59412
2.56189
2.5304
2.49944
2.46778
2.43769
2.40802
2.38119
2.35544
2.33148
2.30766
2.28381
2.25857
2.23128
2.20095
2.16759
2.13091
2.09242
3.62216
3.51899
3.40693
3.28744
3.16597
3.04574
2.9295
2.82084
2.72292
2.6378
2.56638
2.50864
2.46366
2.42995
2.4057
2.38907
2.37831
2.37213
2.36944
2.36936
2.37131
2.37482
2.37965
2.3856
2.39259
2.40056
2.40946
2.41924
2.42992
2.44144
2.45375
2.46678
2.48046
2.49462
2.50912
2.52377
2.53838
2.55269
2.56648
2.57953
2.59157
2.6024
2.61185
2.61988
2.62643
2.63165
2.63571
2.63887
2.64148
2.64399
2.64677
2.65013
2.65433
2.65957
2.66578
2.67283
2.68043
2.68837
2.69614
2.70318
2.70898
5.05294
4.98062
4.85938
4.68816
4.49746
4.28897
4.06061
3.8195
3.57403
3.33219
3.10028
2.88481
2.68962
2.51607
2.36495
2.23773
2.13378
2.05001
1.98326
1.93079
1.89004
1.85869
1.83485
1.81724
1.80435
1.79581
1.79084
1.78918
1.79051
1.79459
1.80123
1.8102
1.82127
1.83411
1.84842
1.86377
1.87974
1.89591
1.91174
1.92662
1.93988
1.95075
1.95833
1.96169
1.96004
1.95272
1.93932
1.9199
1.8951
1.86626
1.83523
1.80431
1.77597
1.75233
1.73472
1.72397
1.71966
1.72092
1.72578
1.7322
1.73823
4.88362
5.23778
5.43219
5.43975
5.30792
5.11296
4.85591
4.56077
4.24434
3.91843
3.59509
3.28571
2.9978
2.73653
2.50527
2.30564
2.1362
1.9927
1.87296
1.77593
1.69913
1.63954
1.59403
1.55962
1.53405
1.51538
1.50238
1.49413
1.48987
1.48903
1.49115
1.4958
1.5025
1.51072
1.51998
1.52976
1.53956
1.54884
1.55703
1.56353
1.56773
1.56904
1.56691
1.56079
1.5502
1.53471
1.51404
1.48814
1.45729
1.42224
1.38443
1.34611
1.31027
1.28016
1.25872
1.24859
1.25098
1.2661
1.29285
1.32952
1.37394
3.75064
4.34028
4.90278
5.3329
5.55089
5.59156
5.46887
5.22054
4.90626
4.54625
4.1679
3.79485
3.43937
3.11247
2.81924
2.55981
2.33158
2.13355
1.96468
1.82416
1.71013
1.62026
1.55121
1.4991
1.46045
1.4323
1.4126
1.39975
1.39248
1.38978
1.39092
1.39528
1.40215
1.41078
1.42044
1.43045
1.4401
1.44869
1.4555
1.45979
1.46081
1.45791
1.45046
1.43795
1.41997
1.39633
1.36704
1.33235
1.2927
1.24889
1.20219
1.15466
1.1092
1.06966
1.04061
1.02693
1.03183
1.0567
1.10118
1.16385
1.24251
2.77405
3.20904
3.7543
4.34927
4.89443
5.31144
5.54961
5.58425
5.4518
5.18039
4.81994
4.42862
4.0263
3.63875
3.28093
2.95572
2.66487
2.40698
2.18365
1.99487
1.83902
1.71441
1.61769
1.54418
1.4891
1.44851
1.41956
1.40006
1.38818
1.38241
1.38176
1.38544
1.39256
1.40218
1.41339
1.42533
1.43714
1.448
1.45702
1.46332
1.466
1.46428
1.45743
1.44481
1.42587
1.4004
1.36837
1.33006
1.28586
1.23654
1.18326
1.12791
1.07327
1.02326
0.983598
0.961206
0.961612
0.98906
1.04511
1.12835
1.23508
2.26971
2.47925
2.80291
3.24332
3.77138
4.33051
4.84395
5.22998
5.44121
5.46559
5.31782
5.04203
4.67164
4.26391
3.86205
3.4753
3.12057
2.79929
2.51024
2.26011
2.05147
1.88356
1.75261
1.6525
1.57661
1.51971
1.47815
1.44913
1.43028
1.41938
1.41514
1.4166
1.42275
1.43239
1.44446
1.45793
1.47182
1.48514
1.49691
1.5061
1.5117
1.51286
1.50868
1.49848
1.4815
1.45749
1.42628
1.38815
1.3433
1.29245
1.2366
1.17751
1.11779
1.06119
1.01354
0.982531
0.975524
1.00007
1.06097
1.1581
1.28725
2.09228
2.15233
2.28531
2.51089
2.84012
3.26821
3.7662
4.27904
4.73841
5.07902
5.25607
5.2603
5.11033
4.83902
4.49102
4.09143
3.69451
3.3152
2.95177
2.62697
2.34983
2.12467
1.94866
1.8129
1.709
1.62966
1.57043
1.52781
1.49879
1.48008
1.46989
1.46707
1.47045
1.47858
1.49017
1.50403
1.51901
1.534
1.54787
1.5595
1.56773
1.57171
1.57043
1.56316
1.54891
1.52744
1.49843
1.46219
1.41875
1.36884
1.31328
1.25385
1.19295
1.13403
1.08296
1.04695
1.0345
1.05583
1.11914
1.22684
1.37513
2.06002
2.04906
2.07445
2.15308
2.30258
2.53727
2.86263
3.26755
3.72242
4.17748
4.57306
4.85766
5.00314
4.99899
4.86056
4.611
4.28679
3.91551
3.4998
3.10238
2.74273
2.44459
2.21129
2.03005
1.88937
1.77965
1.69538
1.6332
1.58983
1.55987
1.54093
1.53132
1.52983
1.53464
1.54419
1.55706
1.57191
1.58747
1.60246
1.61562
1.62575
1.63199
1.63324
1.62882
1.61742
1.59884
1.57263
1.5391
1.49815
1.4505
1.39695
1.33918
1.27937
1.22111
1.1697
1.13202
1.1172
1.13708
1.20289
1.31991
1.48519
2.05499
2.02331
2.00527
2.01116
2.05416
2.14902
2.30973
2.54549
2.85549
3.2271
3.62544
4.01408
4.34994
4.5981
4.72878
4.73321
4.61367
4.37665
4.05788
3.65747
3.22389
2.85181
2.55654
2.32162
2.13162
1.97973
1.86034
1.77133
1.70768
1.66157
1.63025
1.61055
1.6014
1.60072
1.60637
1.61665
1.63002
1.64495
1.65996
1.67346
1.68468
1.69232
1.69562
1.69363
1.68509
1.6694
1.64656
1.61597
1.57827
1.53355
1.48324
1.42849
1.37156
1.31611
1.26655
1.22965
1.21496
1.23577
1.30434
1.42958
1.60822
0.297908
6.73797
6.41743
0.223326
0.365104
0.126627
0.00316218
2.49175
0.00337876
0.023409
3.30832
1.07825
0.00316391
6.11946
0.110987
5.377
0.00326111
2.59711
3.61105
0.00315808
0.222778
5.94038
6.51896
0.00329996
0.00333288
0.105666
0.00316029
0.528529
0.00324742
0.00346014
0.724856
0.00324685
0.0163452
2.48734
0.789048
3.38593
2.52435
1.56708
0.00316525
2.61213
1.88362
2.06106
0.00320904
4.65596
3.18873
0.281535
0.00360846
0.0151973
0.135324
1.10158
6.72162
7.85489
0.00310773
0.00405228
0.0379893
0.00898175
0.00345087
0.693144
2.39972
7.55762
2.54068
0.00369654
0.14518
0.0319593
6.59841
0.439307
1.97299
1.79774
0.00432672
0.00321288
1.21135
2.52438
1.71686
0.0145398
0.0397637
4.02332
7.00118
3.22949
0.00310849
0.937682
0.00711077
2.61344
0.0107847
4.74862
0.00321774
1.06849
0.00336199
2.20364
0.0149859
0.00491604
0.119477
0.00310409
0.00378349
7.73029
5.52215
0.003595
0.439265
0.305595
0.00605317
6.59091
0.205655
2.50466
0.735059
0.00310002
0.00316493
0.00309722
0.303169
0.124912
0.00324155
6.11026
6.78344
0.00938201
4.6083
1.50645
2.64892
2.70668
1.78195
0.00391032
0.0855539
0.00417903
0.00435968
3.45217
0.00725524
7.38277
7.8206
1.02377
0.00321414
1.02026
1.02888
0.00320982
0.0342119
0.033522
1.74512
0.00565931
3.02166
0.00321951
0.00316025
7.74638
7.93354
0.00322918
0.165373
5.64966
0.104883
0.302662
1.55903
4.75278
0.0397791
1.64674
0.0121032
7.22089
1.2251
0.00929903
2.76956
4.68765
6.34333
0.00330582
0.0032672
0.216783
0.00311604
1.94319
0.0306431
0.00511515
0.0031986
0.00321884
0.00323668
2.80139
1.83919
1.56469
0.00332099
6.8899
4.84705
3.18375
4.87779
0.0140292
3.69569
1.66393
1.8939
0.00324015
0.00568557
2.9426
3.0527
2.12068
3.70969
0.00321477
0.00352254
4.92807
0.0361119
0.56775
0.00323739
0.00360486
0.104951
0.00339324
7.91047
0.675799
0.00310485
0.255425
1.85328
5.51978
0.00449647
1.92053
0.00321722
0.00323271
4.80231
2.36328
7.43377
0.00454073
0.00339443
0.00768864
2.69075
2.19667
1.07829
5.11668
1.53455
6.89887
0.189419
4.26957
4.05921
2.01802
1.36014
2.30624
0.00487691
0.0370552
0.00322452
0.00320127
1.81944
0.018203
0.0202032
0.0056989
0.0131684
2.72862
4.68183
0.0189388
6.08107
1.07484
0.380817
0.00318312
0.161904
2.74288
1.02774
0.00414488
1.1414
1.18984
0.182033
0.263838
7.2622
0.774267
0.493114
5.10497
0.00384156
0.00316134
0.00403435
0.0105244
1.74775
0.00336113
0.00648259
0.00316478
0.383926
3.93257
3.96449
2.73581
1.26598
1.43249
7.68421
0.00434782
2.07032
4.48664
0.00320941
1.95935
0.00321717
4.01239
0.382135
1.53166
0.00533892
0.00321957
1.87903
0.521135
0.00323893
0.00323602
0.00325047
0.00324585
0.360274
1.60238
2.94758
0.0149033
0.00324058
0.00316419
0.00309837
4.68261
0.231944
0.00446887
1.62494
0.0879081
0.0419026
0.00309185
0.264539
0.00323971
0.0508207
1.46886
4.74817
0.303258
0.00391239
0.00596105
3.21833
0.139793
1.97475
7.61492
0.00350242
0.00319726
0.0031871
5.76094
0.00331095
4.78295
0.00322116
1.87715
1.19812
0.027206
2.92362
3.92956
0.00467795
2.71637
2.69733
1.65665
4.62756
1.0772
7.94585
2.45293
3.8288
3.59964
4.45227
1.70832
0.158113
7.82509
7.35585
2.99147
2.12848
0.00395723
7.11458
2.72881
6.82069
0.0275656
0.00358632
0.00321402
0.00342351
0.175298
0.422379
0.721421
0.0923726
0.00317475
6.04691
0.00321478
1.45561
1.90044
6.35857
2.61733
1.81137
0.00595541
0.00425682
0.0904076
2.78152
0.0103348
0.734472
5.24593
2.04749
4.09952
6.38183
3.3074
0.00346245
7.35135
5.50388
1.74454
0.00323433
6.45999
5.71266
0.00333251
1.97378
0.00323805
6.92784
5.61375
1.87024
4.12892
2.50107
5.6526
0.00329243
5.64031
0.00386343
3.62689
3.95834
1.90749
7.32436
0.719421
0.213684
0.550692
0.00424085
4.29959
0.143097
0.00815645
0.00509432
4.52054
0.00383097
4.31341
0.00319222
0.00323527
0.00601225
1.78441
0.104955
1.80664
0.00569967
4.18798
0.163652
6.84954
4.37481
2.60082
6.33256
0.00338554
7.32278
2.87373
0.0032111
3.8875
2.01962
0.00310259
0.00316806
3.36062
0.00649973
1.97783
0.0901228
2.34154
0.026852
0.597041
2.60938
4.93349
2.37083
4.04333
3.652
0.00395586
0.0220354
1.6846
1.73193
7.6072
6.58081
5.51786
0.0655906
5.09832
5.0748
0.492858
1.76292
2.81718
2.03365
0.00347892
4.0855
7.93968
0.00416318
4.40052
1.87077
2.84329
0.0242035
0.0679157
6.29504
0.00596235
7.60347
0.00461933
0.263478
0.00320399
0.984957
2.337
0.230908
0.00479964
0.00370446
2.68714
1.60613
0.0818881
0.423132
5.9571
4.09579
0.00450816
1.4445
1.64843
3.216
1.50205
4.20245
1.95406
5.35604
3.20719
0.498699
0.989725
7.47446
1.91137
7.73307
6.04719
0.0323605
3.39431
2.83832
0.00337909
1.84622
1.59865
1.32478
0.0174482
4.74814
1.46232
0.688163
1.91356
0.00546009
0.00321495
0.0426518
2.32914
4.69465
2.57952
0.00322114
0.00318949
0.00321531
1.71198
0.0279408
0.00321533
0.124218
4.40184
5.02671
0.0105467
0.0107714
0.00315542
0.00320525
0.00598292
1.72822
1.74691
1.69156
0.458051
7.69969
5.96656
0.00526887
3.42872
1.83536
1.93887
3.97096
7.53204
0.00346313
0.0104854
0.00323803
3.87435
0.2423
0.00316912
1.36467
0.16249
7.52001
0.00323854
7.86677
1.1306
0.047576
6.51947
0.00323177
0.00319508
0.00404532
7.86748
3.21801
5.26026
5.08873
0.99335
1.75949
0.00312656
0.0060315
0.0901065
0.0133768
0.0251865
1.97654
2.14007
0.00322451
1.28198
1.82671
6.28926
7.86186
0.00823593
7.81805
0.00591424
0.0303668
3.56542
0.00320143
5.56268
0.00324077
0.00336695
0.0224779
2.12638
0.626576
2.57289
1.8829
0.00365856
1.76347
4.61563
0.051889
0.217347
0.847606
0.00331496
0.0032672
0.00694156
5.3382
0.540854
0.00335861
7.42276
6.04051
6.72206
0.032209
2.0252
0.00421576
2.36811
0.164116
0.0913643
2.645
1.66569
1.91925
6.08692
0.00327937
0.0031328
0.0104613
4.13062
4.60311
0.972124
0.0138912
0.00333373
0.00323894
0.00882324
0.0269614
0.00661246
2.17023
1.74562
0.0116062
1.56107
6.0701
0.0032713
2.38139
0.00321764
0.524256
0.00324484
0.0222352
2.49216
0.0201391
0.00320607
0.764054
7.99478
7.3287
0.00318986
0.00326411
0.387398
0.0281412
0.0032164
4.49677
0.00370115
1.67043
7.95497
2.35564
1.731
2.46358
3.66827
7.62463
0.00322913
0.00745688
0.0149541
4.21606
1.46404
6.58266
0.669367
0.372381
4.25653
3.61835
5.21527
0.729541
2.82856
0.00322241
0.355586
1.65584
2.49969
3.93028
1.98213
0.228689
2.49141
0.102665
0.00936604
1.72678
0.00323941
5.79137
0.00366297
0.378832
7.41419
2.7691
0.559198
0.00742325
0.751733
0.00329897
0.00319169
0.106844
0.0225489
1.77555
0.0153353
1.7411
0.00322133
0.0280156
0.0031663
4.46537
0.00509492
4.08146
2.52962
0.0220085
1.93233
7.7167
0.0032581
1.72324
4.45339
0.00335942
7.37611
0.062366
0.00348475
0.00339463
7.45541
0.00317847
0.00429098
0.0871354
0.100951
7.26855
7.27494
0.00322106
0.00327
1.08711
2.27305
0.0146222
0.256522
2.00837
0.00321771
0.00383415
0.00372399
6.00122
7.25966
0.488215
7.33909
0.0261508
1.59594
0.00332504
0.0148
0.0249428
0.0365055
0.00322993
6.99728
0.0032009
0.0250781
0.00332168
0.241778
0.0225388
0.0148987
0.437342
0.673045
2.28466
0.396292
1.05896
1.82208
5.06259
0.00343918
4.86019
7.77204
1.11548
3.95835
0.00327896
4.32923
3.93486
0.0032158
7.58805
2.30702
0.008105
0.0107614
5.82345
5.62551
0.0574457
7.64095
7.51314
0.796349
7.46315
7.39803
4.87394
1.92207
1.72637
1.04382
7.30977
7.63188
0.0219795
7.58844
2.61788
4.34465
0.00343338
0.33647
0.371945
6.76159
5.94629
0.0202614
4.27624
6.37221
0.486447
0.0341876
0.381826
1.81333
0.00535267
1.84973
7.07008
0.0339143
6.71479
1.33576
4.40205
6.34061
0.00322225
0.00566638
1.05259
0.695169
0.0183933
0.00321834
0.191239
0.263622
0.00451406
0.00323648
4.23584
0.984444
3.06351
0.999466
0.00863033
0.00417314
0.0888357
3.35593
0.00346008
1.8285
1.6714
0.47863
2.34392
0.00397264
0.118519
0.00320215
0.353937
4.2709
0.00435085
0.118596
2.09959
5.95374
0.225
3.9378
0.589274
0.163877
0.00392844
2.34344
7.90312
0.00321147
0.00328226
5.6311
0.0245599
0.00323562
3.77475
0.244119
1.9303
2.00515
1.47553
0.145389
1.71856
3.47819
5.94269
4.43123
0.00327549
5.65636
0.00389026
2.4888
0.00340187
0.00452312
2.10504
0.00657848
3.85706
0.0207672
0.0398278
1.83796
0.720506
0.0647792
0.00367425
6.30589
0.00364365
0.00315328
7.91881
5.87371
2.79284
1.92596
0.00343452
0.00307296
1.86087
5.6296
0.00319865
6.80739
1.67746
0.00324248
5.92983
0.00311713
0.363731
0.909624
1.35667
0.355063
1.59878
1.92416
0.00311312
7.32327
7.60596
0.00321542
0.0169907
1.92436
0.00313159
6.93234
5.42571
4.39713
0.00321766
0.00317072
3.5274
0.0419762
0.0035027
1.80902
1.71874
4.21356
0.00315381
0.00338041
0.024369
0.0195121
0.00321704
0.00643327
5.13296
2.87179
0.00322239
1.3123
0.00321472
0.719886
0.00421949
0.00358628
2.23061
0.00326657
0.122303
0.00317616
2.9466
0.183957
1.68757
6.21016
4.36938
3.65768
0.81228
1.23337
0.00323548
0.932329
7.33214
4.08886
0.106966
0.00346691
5.23428
0.00321469
0.0307848
0.00315606
7.29967
0.796107
0.374361
6.50682
2.19427
0.491838
4.10207
0.71542
6.73388
4.47161
0.00331014
0.00327517
0.00819072
0.00323248
0.0228287
4.51462
0.00378235
7.25108
0.00600514
0.0741486
0.578961
4.68541
0.004888
2.6914
0.0171218
3.20759
2.38779
7.08643
0.00339979
0.00384787
0.249666
3.61106
1.7416
3.63056
0.417587
1.04915
1.63115
0.0507911
1.05941
0.263648
1.6813
0.00328296
4.32005
0.415887
3.08805
0.00336472
2.99945
0.990954
0.00460262
1.64979
1.78398
0.0654867
0.00314929
0.00321798
4.89615
2.76574
1.37142
0.00320712
0.0176128
1.98769
6.25455
0.466343
0.0126324
0.00322423
5.62265
5.25997
2.07513
2.60085
0.00321318
3.48296
7.56124
0.00321104
0.00321773
1.231
0.00410485
0.00988383
0.0314652
1.93073
0.00411356
2.20671
7.71511
0.00320514
0.00346418
0.00316808
0.00330595
3.69072
4.63463
7.89853
0.0290515
2.34254
2.192
0.0872731
2.86234
0.00348296
1.68527
0.221937
2.07546
0.680086
1.65573
3.08266
0.0290333
0.00323895
5.84271
4.46093
4.71358
0.906018
1.76629
0.174551
1.64379
0.00929402
0.00483576
3.41418
5.5194
0.0219559
0.129949
0.00324516
0.0781892
1.88699
0.0279688
1.0277
0.696817
3.82785
2.13559
0.436839
6.95863
5.38773
2.93696
1.62472
4.21732
3.5191
0.560613
2.63088
0.00612073
2.75778
2.90877
0.00320397
0.00313645
0.122975
0.0032266
0.00333112
3.00103
4.37791
0.00322006
3.21918
0.0032147
0.00319231
0.00321566
0.00326314
0.005952
1.93237
2.76786
7.07149
0.00315986
0.00390627
0.953342
0.00355464
0.0331135
0.00324573
0.00361008
4.37993
0.00391029
0.0109714
2.85116
0.0104947
0.00321967
3.94354
0.00321419
0.00326658
0.268506
0.00360531
0.944143
0.00458666
0.0301594
0.00320423
0.00325408
7.54323
7.75396
2.72688
0.0269047
2.9271
1.53916
0.00474423
1.76409
4.15124
6.87601
4.57392
0.00312638
1.99877
2.50999
0.146698
1.73757
4.44754
0.173676
2.04955
0.21561
1.71546
0.0387261
1.01709
0.00323489
6.88136
0.00329139
1.79292
2.44037
0.00321515
0.313775
0.00731161
0.0192421
0.0031764
0.767319
0.00366348
0.00322161
2.52314
0.00961787
0.110526
6.81932
1.91232
0.00346082
0.0038832
2.36762
7.21316
0.00309365
0.00324646
0.0734116
1.35688
5.48936
0.00660206
1.63148
0.00321795
0.00344322
0.00314808
0.0349126
1.01187
0.0101739
6.6201
1.80087
7.19401
6.07212
0.00351914
7.50668
3.68151
0.00317934
0.00322625
0.00321814
0.00439574
0.00320257
3.76602
0.00320801
0.00323933
6.86297
0.322795
0.00775915
0.0215889
1.95329
0.91103
0.008267
0.00345952
6.27659
0.00324545
0.812548
0.00326235
0.00352373
5.91004
5.98979
0.0087104
0.00351428
0.340055
0.00320643
6.92349
0.00325543
5.70605
0.0249171
0.730545
0.0332456
0.375882
0.375064
1.5042
0.00324275
0.0035662
0.0115777
3.31457
0.119849
7.51322
0.00321938
0.0045971
0.00556112
7.16706
2.75959
3.10662
0.00695158
0.00902671
0.210702
0.0032235
1.28644
2.44724
0.017012
5.98859
6.10398
1.99418
0.00534379
0.387233
2.90027
6.88755
1.79916
0.0188566
3.07963
0.0629837
5.32746
0.0915993
0.520666
2.66642
0.00324365
1.7604
0.00454929
0.0118736
0.00807319
0.050152
0.00370202
1.27951
0.00322649
3.08496
0.0957701
0.00361173
0.246369
0.00323205
0.284178
0.117461
2.30167
0.463493
4.63624
0.241037
0.00321698
0.0031903
0.725442
0.09168
2.8047
7.21817
0.00322407
3.89604
2.64821
0.0232335
2.00574
0.579754
2.35158
2.14939
0.0340915
0.00588952
7.28483
1.54854
5.80052
0.00321078