/*--------------------------------*- C++ -*----------------------------------*\
| =========                 |                                                 |
| \\      /  F ield         | OpenFOAM: The Open Source CFD Toolbox           |
|  \\    /   O peration     | Version:  2.3.1                                 |
|   \\  /    A nd           | Web:      www.OpenFOAM.org                      |
|    \\/     M anipulation  |                                                 |
\*---------------------------------------------------------------------------*/
FoamFile
{
    version     2.0;
    format      ascii;
    class       volVectorField;
    location    "0.99";
    object      U;
}
// * * * * * * * * * * * * * * * * * * * * * * * * * * * * * * * * * * * * * //

dimensions      [0 1 -1 0 0 0 0];

internalField   nonuniform List<vector> 
9648
(
(0.15746 -4.76375 -1.92193e-22)
(0.279159 -4.73175 -4.57811e-23)
(0.400047 -4.7014 0)
(0.520713 -4.6747 0)
(0.6419 -4.6533 8.91121e-21)
(0.764517 -4.6383 1.3815e-20)
(0.891217 -4.63372 -2.60357e-20)
(1.02405 -4.64116 -1.22078e-20)
(1.16403 -4.66191 1.21765e-20)
(1.31182 -4.69795 3.74732e-20)
(1.46954 -4.75084 -3.7314e-20)
(1.63903 -4.82155 -5.42311e-20)
(1.82227 -4.91066 2.88698e-19)
(2.02127 -5.01809 7.50086e-20)
(2.23772 -5.14302 -7.04237e-19)
(2.47284 -5.28419 0)
(2.72781 -5.4399 0)
(3.00345 -5.60809 1.28901e-19)
(3.30047 -5.78618 4.15762e-19)
(3.61893 -5.9714 -1.19719e-18)
(3.95888 -6.16114 -2.11719e-20)
(4.32017 -6.35234 3.30146e-19)
(4.70206 -6.54212 3.9095e-19)
(5.10386 -6.72771 -1.77863e-18)
(5.52465 -6.90642 0)
(5.9634 -7.07564 1.06639e-18)
(6.41879 -7.23287 -1.11855e-18)
(6.88946 -7.37606 0)
(7.37397 -7.50302 0)
(7.87069 -7.61208 -6.7984e-19)
(8.37812 -7.70156 -1.50487e-18)
(8.89446 -7.77001 2.36368e-18)
(9.41809 -7.81628 0)
(9.94724 -7.83917 0)
(10.4801 -7.838 1.81219e-18)
(11.015 -7.8119 -1.95092e-18)
(11.55 -7.76045 0)
(12.0836 -7.68338 4.19012e-18)
(12.614 -7.58028 1.13059e-18)
(13.1394 -7.45104 -3.34702e-18)
(13.6579 -7.29568 6.33835e-20)
(14.1681 -7.1147 2.38216e-18)
(14.6684 -6.90796 -3.16533e-18)
(15.1567 -6.67602 6.36749e-19)
(15.6321 -6.41964 0)
(16.0931 -6.13896 0)
(16.5381 -5.83469 4.80496e-18)
(16.9659 -5.50761 7.03305e-19)
(17.3758 -5.15863 -2.17365e-18)
(17.767 -4.78775 -7.31739e-19)
(18.1375 -4.39572 -7.61209e-19)
(18.4856 -3.98488 7.56485e-19)
(18.8109 -3.55692 3.90848e-19)
(19.1127 -3.11262 -3.88735e-19)
(19.3897 -2.6537 1.98444e-18)
(19.6416 -2.18125 -1.95396e-18)
(19.8674 -1.69671 -2.17827e-20)
(20.0667 -1.20131 0)
(20.2391 -0.69651 -3.96951e-19)
(20.384 -0.183985 -5.13422e-20)
(20.5016 0.335062 -4.86722e-20)
(-0.0656927 -2.45605 2.28146e-22)
(0.00306971 -2.46133 0)
(0.0737229 -2.4773 0)
(0.147686 -2.5072 4.02986e-21)
(0.226662 -2.55752 -4.87857e-21)
(0.315031 -2.6314 -3.27813e-20)
(0.414253 -2.72608 0)
(0.526135 -2.84022 0)
(0.652234 -2.97454 -4.1325e-20)
(0.79319 -3.12879 0)
(0.950373 -3.30197 -1.0119e-19)
(1.12463 -3.49256 8.02121e-20)
(1.31689 -3.69926 -4.34675e-20)
(1.52812 -3.92039 0)
(1.75908 -4.15401 2.73811e-19)
(2.0101 -4.39803 1.6257e-19)
(2.2815 -4.65018 -1.59947e-19)
(2.57342 -4.90824 2.08633e-19)
(2.88605 -5.1697 -6.35772e-19)
(3.21915 -5.43207 5.07378e-19)
(3.5724 -5.69304 -5.62465e-19)
(3.94553 -5.95005 -3.03374e-19)
(4.33772 -6.20078 -3.11208e-19)
(4.74823 -6.44289 1.07114e-18)
(5.17612 -6.67419 3.71031e-19)
(5.62047 -6.8925 4.4166e-19)
(6.08014 -7.09583 -3.91254e-19)
(6.55384 -7.28243 0)
(7.04034 -7.4505 0)
(7.53811 -7.59869 0)
(8.04583 -7.72554 0)
(8.56184 -7.82984 0)
(9.08464 -7.91061 0)
(9.61271 -7.96684 0)
(10.1442 -7.99795 -8.13279e-19)
(10.6778 -8.00316 7.38416e-19)
(11.2115 -7.98221 8.14857e-19)
(11.744 -7.93479 -4.1403e-18)
(12.2735 -7.86056 -8.79028e-19)
(12.7983 -7.75948 2.70391e-18)
(13.3167 -7.63166 1.89792e-18)
(13.8272 -7.47754 -1.95917e-18)
(14.3283 -7.297 9.35715e-19)
(14.8181 -7.09073 9.8758e-19)
(15.2954 -6.85937 -1.0501e-18)
(15.7588 -6.60315 1.04082e-18)
(16.2066 -6.32294 -2.23187e-18)
(16.6376 -6.01956 0)
(17.0506 -5.69393 -5.70264e-19)
(17.4447 -5.34619 1.14605e-18)
(17.8192 -4.97712 -5.7594e-19)
(18.1728 -4.58853 0)
(18.5044 -4.18184 1.18415e-18)
(18.8131 -3.75784 0)
(19.098 -3.31802 0)
(19.3582 -2.86353 2.80777e-18)
(19.5931 -2.39571 -1.26555e-18)
(19.802 -1.91618 -3.079e-19)
(19.9846 -1.42582 3.25027e-19)
(20.1402 -0.926354 0)
(20.2685 -0.419053 8.17411e-20)
(0.0491773 -1.38942 -3.76565e-22)
(0.105072 -1.43723 0)
(0.167573 -1.50392 4.50766e-23)
(0.237288 -1.59259 -3.15744e-22)
(0.315307 -1.70097 0)
(0.40474 -1.82804 2.72983e-20)
(0.506695 -1.97524 1.90219e-20)
(0.622664 -2.14147 0)
(0.754399 -2.32627 2.28512e-21)
(0.903511 -2.52818 4.25893e-20)
(1.07098 -2.74615 8.60938e-20)
(1.25744 -2.97828 -2.98884e-20)
(1.46346 -3.22281 0)
(1.68941 -3.47768 0)
(1.93556 -3.74081 2.07217e-19)
(2.20187 -4.01007 -1.32483e-19)
(2.4883 -4.28324 -1.42166e-19)
(2.79468 -4.55813 0)
(3.12076 -4.8325 5.501e-19)
(3.46621 -5.10414 -5.71473e-19)
(3.83053 -5.37097 -4.27898e-19)
(4.21318 -5.6309 -4.71826e-19)
(4.61339 -5.88186 0)
(5.03027 -6.1219 -8.47607e-19)
(5.46287 -6.34907 -2.9825e-19)
(5.9102 -6.56155 3.54992e-19)
(6.37117 -6.75762 3.92381e-19)
(6.84459 -6.93574 0)
(7.32918 -7.09448 0)
(7.82357 -7.2326 0)
(8.32634 -7.3489 0)
(8.83602 -7.44238 0)
(9.35115 -7.51213 0)
(9.8702 -7.55742 0)
(10.3916 -7.5777 -1.78337e-18)
(10.9138 -7.57244 5.92545e-19)
(11.4351 -7.54137 -6.54052e-19)
(11.9542 -7.48428 3.29211e-18)
(12.4694 -7.40099 0)
(12.9791 -7.29157 1.40138e-18)
(13.4817 -7.15622 1.44977e-18)
(13.9756 -6.99523 7.18311e-19)
(14.4594 -6.80877 -8.23396e-19)
(14.9317 -6.59737 -1.58605e-18)
(15.391 -6.36158 2.47193e-18)
(15.836 -6.10193 -8.36339e-19)
(16.2653 -5.8192 -1.70632e-18)
(16.6778 -5.51421 0)
(17.0723 -5.18797 0)
(17.4475 -4.84149 -4.66104e-19)
(17.8027 -4.47585 -4.55715e-19)
(18.1368 -4.09196 -9.323e-19)
(18.4493 -3.69092 -9.76109e-19)
(18.7389 -3.27416 0)
(19.005 -2.84248 -9.65605e-19)
(19.2469 -2.39763 -1.0065e-18)
(19.4641 -1.94034 0)
(19.6557 -1.47282 1.63771e-20)
(19.8213 -0.995386 0)
(19.9606 -0.509793 0)
(20.0735 -0.0170733 -6.23767e-20)
(0.0225785 -0.876089 7.6606e-22)
(0.0828614 -0.962013 -1.16268e-21)
(0.15482 -1.06697 8.88668e-22)
(0.237807 -1.19036 -1.48438e-21)
(0.331952 -1.33147 0)
(0.437736 -1.49006 -1.12986e-20)
(0.556761 -1.66623 -1.64e-20)
(0.690425 -1.85934 0)
(0.840213 -2.06854 3.08435e-21)
(1.00703 -2.29265 -3.63557e-20)
(1.19176 -2.53028 8.19213e-20)
(1.39475 -2.77975 9.97408e-20)
(1.61638 -3.03911 0)
(1.85683 -3.30633 -7.9624e-20)
(2.11634 -3.57943 -1.69165e-19)
(2.39466 -3.85639 -9.02646e-20)
(2.69165 -4.13512 3.49324e-19)
(3.00708 -4.41354 -2.52789e-19)
(3.34057 -4.68962 2.83961e-19)
(3.6918 -4.96133 4.84578e-19)
(4.06035 -5.22685 7.02208e-19)
(4.4455 -5.48434 3.96671e-19)
(4.84662 -5.73198 1.90772e-19)
(5.26275 -5.96803 6.94812e-19)
(5.69305 -6.19072 2.2821e-19)
(6.13654 -6.3984 2.59994e-19)
(6.59221 -6.58955 3.0721e-19)
(7.05904 -6.76274 -9.19639e-19)
(7.53581 -6.91677 6.60648e-19)
(8.02121 -7.05047 7.47172e-19)
(8.51401 -7.16278 -1.52795e-18)
(9.01275 -7.25279 7.80428e-19)
(9.51609 -7.31965 -8.36549e-19)
(10.0227 -7.3627 4.17041e-19)
(10.531 -7.38149 4.57418e-19)
(11.0396 -7.37553 5.07964e-19)
(11.547 -7.34452 -5.01606e-19)
(12.0518 -7.28833 -5.46914e-19)
(12.5525 -7.20684 -1.63956e-18)
(13.0476 -7.10014 -1.18347e-18)
(13.5355 -6.96844 -2.39981e-18)
(14.0149 -6.81198 -3.10981e-18)
(14.4842 -6.63103 1.27529e-18)
(14.9421 -6.426 2.89865e-20)
(15.3874 -6.19743 -7.14738e-19)
(15.8185 -5.94589 -7.01146e-19)
(16.2345 -5.67203 4.23992e-18)
(16.634 -5.37664 -7.10779e-19)
(17.0161 -5.06054 0)
(17.3797 -4.72464 0)
(17.7238 -4.36998 -7.14233e-19)
(18.0476 -3.99774 3.20239e-20)
(18.3502 -3.60892 7.66788e-19)
(18.6309 -3.20468 0)
(18.8888 -2.7863 8.17031e-19)
(19.1231 -2.3551 0)
(19.3334 -1.91226 0)
(19.519 -1.45873 6.2291e-19)
(19.6796 -0.996085 1.98115e-19)
(19.8148 -0.525784 -2.0192e-19)
(19.9242 -0.0493032 1.03348e-19)
(0.113965 -0.622642 4.26203e-23)
(0.175934 -0.729801 1.01564e-21)
(0.251819 -0.853867 -2.03641e-21)
(0.341584 -0.995275 2.01788e-22)
(0.444844 -1.15389 -1.73185e-21)
(0.562307 -1.32924 4.47116e-21)
(0.694718 -1.52088 2.27723e-21)
(0.84292 -1.72783 -1.18002e-20)
(1.00806 -1.94915 3.71886e-20)
(1.19036 -2.18357 -5.39558e-20)
(1.39045 -2.42957 6.09627e-20)
(1.60812 -2.68546 -7.67321e-20)
(1.84364 -2.94924 -4.44865e-20)
(2.09683 -3.21896 0)
(2.36802 -3.4926 8.29497e-20)
(2.65661 -3.76848 7.94935e-20)
(2.96241 -4.04455 0)
(3.2852 -4.31888 1.97676e-19)
(3.6244 -4.58957 0)
(3.97985 -4.8547 -2.63185e-19)
(4.35115 -5.11272 2.87628e-19)
(4.73748 -5.36203 1.01534e-20)
(5.13832 -5.60094 -1.70292e-20)
(5.5526 -5.82799 2.89795e-20)
(5.97953 -6.04142 -8.12264e-19)
(6.41827 -6.23976 -4.66917e-19)
(6.86778 -6.4216 9.61645e-19)
(7.32727 -6.58559 1.04425e-18)
(7.79552 -6.73079 -5.65743e-19)
(8.27132 -6.85604 0)
(8.75354 -6.9604 0)
(9.24073 -7.04308 0)
(9.73172 -7.10319 7.1779e-19)
(10.2253 -7.14017 -2.96578e-18)
(10.7199 -7.15368 1.55275e-18)
(11.2142 -7.14323 -7.89894e-19)
(11.707 -7.1085 -1.705e-18)
(12.1968 -7.0495 1.73004e-18)
(12.6821 -6.96606 3.99888e-20)
(13.1618 -6.85832 -9.77774e-19)
(13.6342 -6.72655 1.01044e-18)
(14.098 -6.57096 1.0452e-18)
(14.5516 -6.39182 0)
(14.994 -6.18946 -1.06195e-18)
(15.4239 -5.96444 0)
(15.8398 -5.7173 -1.69771e-18)
(16.2409 -5.44871 5.24793e-19)
(16.6258 -5.15938 0)
(16.9936 -4.85002 -6.16295e-19)
(17.3434 -4.52166 -1.48152e-20)
(17.6742 -4.17512 1.31371e-18)
(17.9853 -3.81158 -6.24332e-19)
(18.2757 -3.43212 -3.47397e-19)
(18.5449 -3.03785 6.36123e-19)
(18.792 -2.63015 -4.87561e-21)
(19.0162 -2.20999 3.31904e-19)
(19.2168 -1.77869 1.60348e-19)
(19.3933 -1.33718 3.38552e-19)
(19.5457 -0.886692 -8.50683e-19)
(19.6735 -0.428741 3.41743e-19)
(19.7762 0.0351167 -4.37396e-20)
(0.197286 -0.489503 -3.69002e-22)
(0.272894 -0.611141 0)
(0.363138 -0.748711 2.98255e-21)
(0.468205 -0.902774 0)
(0.587095 -1.07309 7.58042e-23)
(0.720902 -1.25892 5.17171e-21)
(0.870008 -1.45971 6.90119e-21)
(1.03502 -1.67419 2.30895e-20)
(1.21703 -1.90132 3.66231e-21)
(1.4156 -2.13988 5.62378e-21)
(1.63146 -2.38823 1.04265e-21)
(1.8637 -2.64485 -2.89399e-20)
(2.11274 -2.90767 4.32134e-20)
(2.3777 -3.17471 -1.31838e-19)
(2.65962 -3.44403 1.13079e-19)
(2.95744 -3.71449 -8.37297e-21)
(3.27071 -3.98379 -1.4098e-19)
(3.59959 -4.25025 -1.7058e-19)
(3.94303 -4.51218 0)
(4.30115 -4.76755 2.03744e-19)
(4.67385 -5.01517 8.2623e-21)
(5.05981 -5.25376 -5.30405e-19)
(5.45906 -5.4816 -2.30437e-20)
(5.87009 -5.6977 -2.87923e-19)
(6.29221 -5.90013 1.01815e-18)
(6.72476 -6.08754 3.51577e-20)
(7.16657 -6.25868 -3.79268e-19)
(7.61734 -6.41216 -4.0845e-20)
(8.07571 -6.54743 0)
(8.54046 -6.66331 0)
(9.01085 -6.75885 0)
(9.48516 -6.83361 0)
(9.96232 -6.88644 0)
(10.4415 -6.91684 5.70795e-20)
(10.9213 -6.92475 -6.65243e-19)
(11.3999 -6.90966 -3.89802e-20)
(11.8768 -6.87101 2.90572e-20)
(12.3502 -6.80916 6.87381e-19)
(12.8189 -6.7238 1.57259e-18)
(13.282 -6.61508 -2.37279e-18)
(13.7377 -6.48351 1.65242e-18)
(14.1848 -6.32915 -8.34283e-19)
(14.6217 -6.15236 0)
(15.0474 -5.95318 9.27691e-19)
(15.4609 -5.7323 0)
(15.8607 -5.49028 9.77377e-19)
(16.2459 -5.22756 -1.00051e-18)
(16.6152 -4.94519 4.70003e-19)
(16.9679 -4.64346 5.02315e-19)
(17.303 -4.32342 -5.24423e-19)
(17.6198 -3.98593 3.76394e-20)
(17.9174 -3.63222 -1.07403e-20)
(18.1951 -3.26305 1.06772e-18)
(18.4524 -2.87983 -1.09931e-18)
(18.6883 -2.48379 -5.4253e-19)
(18.9019 -2.07623 -2.65684e-19)
(19.0926 -1.65795 -8.45553e-19)
(19.2599 -1.22978 0)
(19.4039 -0.792869 5.71511e-19)
(19.5243 -0.349044 -1.4677e-19)
(19.6206 0.100428 0)
(0.300758 -0.426836 0)
(0.391352 -0.558526 0)
(0.497499 -0.705957 -1.52229e-21)
(0.620246 -0.8694 1.51541e-21)
(0.756534 -1.04814 -1.49199e-21)
(0.908508 -1.24092 -8.44178e-21)
(1.07568 -1.44714 4.74262e-21)
(1.25799 -1.66519 -1.59702e-20)
(1.45783 -1.89425 -1.21348e-21)
(1.67252 -2.13311 4.37537e-20)
(1.90451 -2.38011 -8.22632e-20)
(2.15077 -2.63407 0)
(2.4131 -2.89259 0)
(2.68854 -3.15395 1.49773e-19)
(2.98077 -3.41568 9.65756e-20)
(3.28692 -3.67803 -2.1352e-19)
(3.60645 -3.93811 3.47047e-19)
(3.94066 -4.19433 1.45802e-19)
(4.28707 -4.44567 -2.91867e-19)
(4.64654 -4.68935 -1.77409e-19)
(5.02001 -4.9246 2.04521e-19)
(5.40421 -5.15104 -5.09716e-21)
(5.80125 -5.3661 0)
(6.20795 -5.57024 5.29628e-19)
(6.62409 -5.76065 -8.73471e-19)
(7.04967 -5.93604 2.91005e-19)
(7.48233 -6.09572 6.44334e-19)
(7.9235 -6.23753 -1.79495e-18)
(8.37113 -6.36205 3.6576e-19)
(8.82358 -6.4679 0)
(9.28142 -6.55371 0)
(9.7418 -6.62018 0)
(10.2039 -6.66532 5.03596e-19)
(10.6679 -6.68835 1.55989e-18)
(11.132 -6.69017 -1.05544e-18)
(11.5936 -6.67037 5.83045e-19)
(12.0536 -6.6271 6.39466e-19)
(12.5096 -6.5621 -1.2689e-18)
(12.9605 -6.47451 0)
(13.406 -6.36421 -1.30429e-18)
(13.844 -6.23266 6.77732e-19)
(14.2734 -6.07929 3.52301e-20)
(14.6923 -5.905 -3.16767e-20)
(15.1004 -5.70877 7.47629e-19)
(15.4965 -5.49192 3.16748e-20)
(15.8789 -5.25528 -2.38974e-18)
(16.2474 -4.99844 8.10038e-19)
(16.6 -4.72322 -1.68343e-18)
(16.9365 -4.42904 0)
(17.2559 -4.11775 0)
(17.5577 -3.78928 1.77985e-18)
(17.8409 -3.44588 -4.25269e-19)
(18.1047 -3.08743 -9.22939e-19)
(18.3493 -2.71523 -4.43723e-19)
(18.5734 -2.33139 1.4176e-18)
(18.7758 -1.93694 7.15274e-19)
(18.9558 -1.53213 2.47328e-19)
(19.1129 -1.11816 -4.66289e-21)
(19.2477 -0.695145 -2.47618e-19)
(19.3603 -0.26556 0)
(19.4497 0.168756 0)
(0.420426 -0.40869 3.878e-22)
(0.529378 -0.547492 0)
(0.652745 -0.701819 0)
(0.796006 -0.872238 -9.86125e-22)
(0.950272 -1.05696 0)
(1.12157 -1.25392 2.33043e-21)
(1.30722 -1.46266 4.68951e-21)
(1.506 -1.68115 -9.77924e-21)
(1.72504 -1.90925 0)
(1.95455 -2.14569 -2.62091e-20)
(2.20376 -2.38876 3.75759e-21)
(2.46248 -2.63803 0)
(2.73892 -2.89025 0)
(3.02185 -3.14431 -6.28606e-20)
(3.32475 -3.39519 6.89425e-20)
(3.63897 -3.6481 -8.70151e-20)
(3.96282 -3.89752 -1.00489e-19)
(4.30232 -4.14182 0)
(4.65025 -4.38218 1.30388e-19)
(5.00949 -4.61282 -2.75677e-19)
(5.3845 -4.83424 -3.09619e-19)
(5.76455 -5.04824 -3.63888e-19)
(6.15963 -5.24892 -3.29399e-20)
(6.56104 -5.4412 -4.63869e-19)
(6.97017 -5.61915 4.45142e-19)
(7.38888 -5.78171 4.9714e-19)
(7.81027 -5.93003 -5.66679e-19)
(8.24148 -6.05879 3.13438e-20)
(8.678 -6.17221 4.2185e-20)
(9.11619 -6.26808 -6.55582e-19)
(9.56124 -6.34314 0)
(10.0067 -6.40176 -7.99636e-19)
(10.4525 -6.43885 1.5867e-18)
(10.9008 -6.45335 -4.46881e-20)
(11.3487 -6.44932 9.3266e-19)
(11.791 -6.42604 -9.28363e-19)
(12.2343 -6.37681 1.02426e-18)
(12.6719 -6.30878 1.06912e-18)
(13.1033 -6.21889 -2.11422e-18)
(13.5304 -6.10621 1.15753e-18)
(13.9492 -5.97513 1.13879e-18)
(14.3605 -5.82237 1.79989e-18)
(14.7597 -5.65098 -6.41044e-19)
(15.149 -5.45657 0)
(15.5269 -5.24389 3.44412e-20)
(15.8903 -5.01365 6.97283e-19)
(16.2415 -4.76229 -6.78043e-19)
(16.5757 -4.49563 7.30517e-19)
(16.8952 -4.20897 0)
(17.1971 -3.90748 0)
(17.4833 -3.58798 -4.01181e-20)
(17.7508 -3.25595 7.85968e-19)
(17.9996 -2.90759 0)
(18.2305 -2.54624 3.90669e-19)
(18.4424 -2.17579 3.94181e-19)
(18.6328 -1.79557 -8.03297e-19)
(18.8016 -1.40485 -3.94141e-19)
(18.9471 -1.00622 -2.09491e-19)
(19.0716 -0.596676 0)
(19.1761 -0.182446 0)
(19.2579 0.235211 2.51066e-20)
(0.556714 -0.418644 -1.07818e-21)
(0.690381 -0.561404 2.22671e-21)
(0.830508 -0.718305 -2.97751e-23)
(1.00069 -0.893629 -2.18685e-21)
(1.16933 -1.0811 2.90962e-21)
(1.35972 -1.28196 -1.46467e-21)
(1.56476 -1.48898 0)
(1.77629 -1.70391 1.34263e-21)
(2.0198 -1.9294 -1.23611e-20)
(2.25831 -2.15986 0)
(2.53068 -2.39765 5.40096e-20)
(2.79463 -2.64166 -3.41679e-20)
(3.08873 -2.88754 3.49024e-20)
(3.37165 -3.13452 4.50002e-20)
(3.68797 -3.36874 -5.95319e-20)
(4.00982 -3.61316 -7.3216e-20)
(4.33369 -3.85179 2.42432e-19)
(4.68289 -4.08056 -2.53009e-19)
(5.02567 -4.31245 0)
(5.37979 -4.53152 -9.0963e-21)
(5.76306 -4.73775 7.59819e-19)
(6.13068 -4.94202 -2.92573e-20)
(6.53145 -5.12284 -3.62462e-19)
(6.92137 -5.30627 6.94517e-19)
(7.32152 -5.47417 0)
(7.73655 -5.62386 -4.28704e-19)
(8.14018 -5.76247 -4.39585e-19)
(8.56323 -5.87659 9.76231e-19)
(8.98965 -5.97983 -6.54918e-21)
(9.40926 -6.06734 5.80842e-19)
(9.8442 -6.12885 -1.18817e-18)
(10.2707 -6.18218 1.8908e-18)
(10.6977 -6.21287 -1.35689e-18)
(11.1311 -6.21867 -1.42445e-18)
(11.5655 -6.20805 0)
(11.9836 -6.18197 8.12633e-19)
(12.4156 -6.12403 0)
(12.8311 -6.05615 -3.00373e-21)
(13.2405 -5.96589 9.65363e-19)
(13.6519 -5.84763 -1.79642e-18)
(14.0489 -5.71624 -6.64443e-21)
(14.4433 -5.56425 -1.98976e-18)
(14.8167 -5.39862 0)
(15.1863 -5.20728 -5.70444e-19)
(15.5468 -5.00019 2.19001e-18)
(15.8866 -4.77753 -5.57107e-19)
(16.2242 -4.53113 5.90558e-19)
(16.536 -4.27415 0)
(16.8401 -3.99401 6.08373e-19)
(17.1221 -3.70141 -1.83656e-18)
(17.3934 -3.38722 -2.56875e-20)
(17.6438 -3.06674 0)
(17.8743 -2.73126 6.32052e-19)
(18.0922 -2.38119 -1.90331e-20)
(18.2929 -2.02189 0)
(18.4684 -1.65453 3.56786e-19)
(18.6277 -1.28559 -3.24081e-19)
(18.7588 -0.90434 3.39913e-19)
(18.8711 -0.509399 3.37321e-19)
(18.9703 -0.107006 -1.69489e-19)
(19.0413 0.294641 -6.41452e-20)
(20.5909 0.85972 1.51439e-19)
(20.6516 1.38827 -5.13473e-20)
(20.6841 1.92014 0)
(20.6885 2.45288 0)
(20.665 2.98476 8.16099e-19)
(20.6139 3.51464 1.1742e-18)
(20.5353 4.0407 -1.20923e-18)
(20.4294 4.56153 -3.98525e-19)
(20.2963 5.07565 3.98473e-19)
(20.1365 5.58199 7.79898e-19)
(19.9505 6.07993 -7.80373e-19)
(19.7382 6.56763 -7.58786e-19)
(19.5012 7.04402 3.77402e-18)
(19.2407 7.5079 7.34059e-19)
(18.9572 7.95783 -6.47762e-18)
(18.6513 8.39229 0)
(18.3238 8.81037 0)
(17.976 9.21111 6.73892e-19)
(17.6087 9.59397 1.99057e-18)
(17.2226 9.9576 -5.11681e-18)
(16.8194 10.3013 -7.51528e-20)
(16.3997 10.6247 1.17271e-18)
(15.9646 10.9266 1.20683e-18)
(15.5154 11.2064 -4.50313e-18)
(15.0534 11.4641 0)
(14.5796 11.6998 2.11545e-18)
(14.0944 11.9127 -1.96013e-18)
(13.5996 12.1012 0)
(13.0968 12.2649 0)
(12.5878 12.4036 -8.98414e-19)
(12.0738 12.5172 -1.64275e-18)
(11.5559 12.6055 2.34159e-18)
(11.0359 12.6686 0)
(10.5146 12.7065 0)
(9.99357 12.7192 1.18192e-18)
(9.474 12.7069 -1.12396e-18)
(8.95721 12.6697 0)
(8.44449 12.6082 1.77215e-18)
(7.93687 12.5225 3.69465e-19)
(7.43561 12.413 -1.02206e-18)
(6.94193 12.2801 3.57966e-20)
(6.45724 12.1246 4.30966e-19)
(5.98232 11.9471 -4.2701e-19)
(5.51838 11.7479 7.47779e-20)
(5.06658 11.5281 0)
(4.62765 11.2883 0)
(4.20264 11.029 -1.70563e-19)
(3.79247 10.7514 -3.68655e-20)
(3.39814 10.4562 2.20437e-19)
(3.02035 10.1448 9.17591e-20)
(2.65972 9.81778 1.43663e-19)
(2.31708 9.47613 -1.45541e-19)
(1.99318 9.1211 -9.7564e-20)
(1.68833 8.75389 9.88978e-20)
(1.40323 8.37542 -5.90837e-19)
(1.13829 7.98714 6.44807e-19)
(0.893932 7.59018 -1.36523e-21)
(0.670462 7.18603 0)
(0.468048 6.77576 1.64283e-19)
(0.287041 6.36046 2.23144e-20)
(0.127518 5.94135 2.3623e-20)
(20.3689 0.0944072 -8.18267e-20)
(20.4407 0.61195 0)
(20.4846 1.13117 0)
(20.5012 1.65174 9.39698e-19)
(20.4901 2.1723 -6.2836e-19)
(20.4519 2.69159 -2.21462e-18)
(20.3866 3.20783 0)
(20.2942 3.72008 0)
(20.1751 4.22665 -1.20603e-18)
(20.0292 4.72609 0)
(19.8571 5.21764 -1.76733e-18)
(19.6591 5.69905 1.17261e-18)
(19.437 6.1685 -5.82141e-19)
(19.1916 6.62574 0)
(18.9232 7.07031 2.3029e-18)
(18.6322 7.5009 1.07856e-18)
(18.3194 7.91631 -1.08077e-18)
(17.9858 8.31536 1.02811e-18)
(17.6323 8.69741 -3.03825e-18)
(17.2598 9.06125 2.04634e-18)
(16.8697 9.40576 -1.98748e-18)
(16.4628 9.73048 -1.01344e-18)
(16.0403 10.0342 -9.16476e-19)
(15.6034 10.3162 2.65942e-18)
(15.1534 10.5758 8.52346e-19)
(14.6909 10.8127 7.7994e-19)
(14.2171 11.0272 -7.0448e-19)
(13.734 11.2183 0)
(13.2426 11.3853 0)
(12.7443 11.5277 0)
(12.2404 11.6454 0)
(11.7322 11.7381 0)
(11.2211 11.8058 0)
(10.7083 11.8486 0)
(10.1954 11.8662 -4.92254e-19)
(9.68335 11.8589 4.3671e-19)
(9.17366 11.8266 3.49822e-19)
(8.6675 11.7698 -1.69827e-18)
(8.166 11.6888 -2.65108e-19)
(7.67049 11.5839 7.91165e-19)
(7.1822 11.4554 4.35644e-19)
(6.70249 11.304 -3.47556e-19)
(6.23224 11.1302 1.28853e-19)
(5.77278 10.9344 9.45688e-20)
(5.32523 10.7174 -7.75048e-21)
(4.89039 10.48 7.83774e-21)
(4.46933 10.2227 9.27741e-20)
(4.06302 9.94646 0)
(3.67252 9.65216 8.07635e-20)
(3.2986 9.3408 -1.83253e-19)
(2.94193 9.01326 1.02782e-19)
(2.60343 8.67042 0)
(2.28392 8.31343 -3.06438e-19)
(1.98368 7.94344 0)
(1.70362 7.56141 0)
(1.44398 7.16875 -9.52325e-19)
(1.2054 6.76667 4.59385e-19)
(0.988092 6.35658 1.27046e-19)
(0.792621 5.93947 -1.32865e-19)
(0.619296 5.51663 0)
(0.468349 5.08928 -3.74843e-20)
(20.1599 0.480671 6.24293e-20)
(20.2199 0.982201 0)
(20.253 1.48418 -2.4914e-19)
(20.2585 1.98651 -1.64642e-20)
(20.2371 2.48778 0)
(20.1897 2.98741 1.99977e-18)
(20.116 3.4846 9.76372e-19)
(20.0158 3.97884 0)
(19.8894 4.46797 3.23468e-20)
(19.737 4.94975 9.45435e-19)
(19.5597 5.42254 1.43646e-18)
(19.3585 5.88493 -4.72248e-19)
(19.1341 6.33529 0)
(18.8865 6.77279 0)
(18.6165 7.19696 1.7396e-18)
(18.3248 7.60693 -8.5847e-19)
(18.0125 8.00168 -8.04328e-19)
(17.6804 8.38026 0)
(17.3294 8.74186 2.43028e-18)
(16.9605 9.08554 -2.33191e-18)
(16.5749 9.41036 -1.48936e-18)
(16.1736 9.71562 -1.44125e-18)
(15.7577 10.0004 0)
(15.3283 10.2641 -2.05953e-18)
(14.8866 10.5059 -6.72088e-19)
(14.4336 10.7253 6.13991e-19)
(13.9708 10.9217 6.04364e-19)
(13.4993 11.0951 0)
(13.0203 11.245 0)
(12.5351 11.3712 0)
(12.0448 11.4734 0)
(11.5508 11.5515 0)
(11.0543 11.6055 0)
(10.5568 11.6354 0)
(10.0594 11.641 -1.05566e-18)
(9.56335 11.6227 3.37974e-19)
(9.06994 11.5803 -2.69399e-19)
(8.5803 11.5142 1.28318e-18)
(8.09556 11.4248 0)
(7.61696 11.3125 3.60198e-19)
(7.14567 11.1776 2.93595e-19)
(6.68294 11.0206 1.25539e-19)
(6.22976 10.8421 -7.5074e-20)
(5.78731 10.6427 -9.37815e-20)
(5.35662 10.4229 2.82694e-20)
(4.93858 10.1834 -7.94101e-22)
(4.53406 9.925 1.04111e-19)
(4.14403 9.64842 0)
(3.7694 9.35462 0)
(3.41103 9.04445 8.11271e-20)
(3.06963 8.71882 9.80219e-20)
(2.74588 8.37868 2.11117e-19)
(2.44056 8.02497 2.41645e-19)
(2.15407 7.65883 0)
(1.88714 7.28112 3.00817e-19)
(1.64001 6.89334 3.3175e-19)
(1.41318 6.49652 0)
(1.20705 6.09215 -1.78327e-21)
(1.02213 5.68112 0)
(0.858656 5.26476 0)
(0.716897 4.84414 2.88162e-20)
(20.0078 0.432309 -1.0342e-19)
(20.0655 0.917493 2.02314e-19)
(20.0972 1.40565 -3.98972e-19)
(20.1024 1.8948 -2.14663e-19)
(20.0815 2.38339 0)
(20.0338 2.8703 -8.31574e-19)
(19.9592 3.35498 -8.257e-19)
(19.8593 3.83551 0)
(19.7347 4.31176 3.43876e-20)
(19.586 4.78167 -7.98299e-19)
(19.4132 5.24308 1.50721e-18)
(19.2166 5.69498 1.48386e-18)
(18.9967 6.13625 0)
(18.7542 6.5657 -7.23282e-19)
(18.4898 6.98207 -1.43676e-18)
(18.2044 7.38416 -7.08525e-19)
(17.8988 7.77111 2.07559e-18)
(17.5738 8.14202 -1.33352e-18)
(17.2304 8.49616 1.29759e-18)
(16.8696 8.83267 1.88389e-18)
(16.4926 9.15074 2.44608e-18)
(16.1004 9.44957 1.20939e-18)
(15.694 9.72834 5.56578e-19)
(15.2744 9.98634 1.68278e-18)
(14.8428 10.2231 5.14985e-19)
(14.4002 10.438 5.15621e-19)
(13.9478 10.6307 4.67182e-19)
(13.487 10.8008 -1.36041e-18)
(13.0189 10.948 8.43471e-19)
(12.5447 11.0719 7.87183e-19)
(12.0656 11.1723 -1.52755e-18)
(11.5829 11.2492 7.40286e-19)
(11.0978 11.3026 -6.44035e-19)
(10.6117 11.3324 3.02267e-19)
(10.1258 11.3386 2.92052e-19)
(9.64125 11.3212 2.37134e-19)
(9.15934 11.2805 -2.38691e-19)
(8.68108 11.2165 -2.25009e-19)
(8.20763 11.1297 -5.13634e-19)
(7.74019 11.0206 -2.9792e-19)
(7.27993 10.8895 -4.64658e-19)
(6.82796 10.7369 -4.31027e-19)
(6.38545 10.5633 1.23842e-19)
(5.95344 10.3693 7.38578e-21)
(5.53296 10.1555 -1.10714e-21)
(5.1249 9.92237 3.17828e-20)
(4.72999 9.67074 -2.70912e-19)
(4.34923 9.4014 5.85338e-20)
(3.98345 9.11531 0)
(3.63358 8.81323 0)
(3.30022 8.496 1.50482e-19)
(2.98418 8.1647 8.79399e-22)
(2.68608 7.82015 -1.97015e-19)
(2.40637 7.46338 0)
(2.14567 7.09522 -2.44561e-19)
(1.90417 6.71713 0)
(1.68242 6.33026 0)
(1.48067 5.93588 -2.35153e-19)
(1.29971 5.53511 -8.37644e-20)
(1.13952 5.12911 8.70222e-20)
(1.00066 4.71905 -4.61629e-20)
(19.8538 0.503743 1.87841e-21)
(19.906 0.975907 -1.75047e-19)
(19.9328 1.45066 5.13086e-19)
(19.9341 1.92643 3.40478e-19)
(19.9099 2.40205 -5.01607e-19)
(19.8602 2.87618 3.361e-19)
(19.7858 3.34685 -2.41888e-21)
(19.6867 3.81199 -6.50833e-19)
(19.5627 4.27144 9.91512e-19)
(19.4152 4.72438 -1.29166e-18)
(19.2446 5.16973 1.21559e-18)
(19.051 5.60602 -1.29271e-18)
(18.8351 6.03214 -6.21108e-19)
(18.5974 6.44706 0)
(18.3386 6.84941 6.39733e-19)
(18.0596 7.23799 5.45866e-19)
(17.7609 7.61205 0)
(17.4434 7.97063 1.07536e-18)
(17.1081 8.31303 0)
(16.756 8.63848 -1.064e-18)
(16.3883 8.94612 9.39395e-19)
(16.0059 9.23517 -4.08436e-20)
(15.6099 9.50473 -4.5852e-20)
(15.2013 9.75408 1.80652e-21)
(14.7809 9.9828 -1.76874e-18)
(14.35 10.1904 -8.04304e-19)
(13.9097 10.3765 1.57177e-18)
(13.4611 10.5408 1.45317e-18)
(13.0055 10.6828 -7.24798e-19)
(12.5441 10.8023 0)
(12.078 10.899 0)
(11.6082 10.973 0)
(11.1362 11.0242 5.52296e-19)
(10.6632 11.0527 -1.93338e-18)
(10.1906 11.0582 8.97218e-19)
(9.71934 11.0409 -4.27722e-19)
(9.25059 11.0008 -6.83882e-19)
(8.78542 10.9381 6.41944e-19)
(8.3248 10.8534 2.17452e-20)
(7.87004 10.7471 -2.01896e-19)
(7.42223 10.6194 2.21873e-19)
(6.98245 10.471 1.43811e-19)
(6.55191 10.3024 0)
(6.13164 10.1141 -3.91381e-20)
(5.7226 9.90652 0)
(5.32575 9.68014 7.92906e-20)
(4.94156 9.43586 -4.12447e-20)
(4.57105 9.17442 0)
(4.21488 8.89679 9.5477e-20)
(3.87434 8.60366 1.97015e-20)
(3.54972 8.29575 -2.50022e-19)
(3.24183 7.97419 1.47077e-19)
(2.95146 7.63977 9.66847e-20)
(2.6788 7.29346 -1.77367e-19)
(2.42474 6.93601 8.16469e-21)
(2.18884 6.56875 -1.07562e-19)
(1.97216 6.19291 -5.79972e-20)
(1.77461 5.80978 -1.28889e-19)
(1.59732 5.42046 3.41715e-19)
(1.43992 5.02606 -1.45333e-19)
(1.3035 4.6277 1.92387e-20)
(19.6925 0.554345 3.68181e-20)
(19.74 1.01155 0)
(19.7628 1.47089 -5.74221e-19)
(19.761 1.9312 0)
(19.7345 2.39114 2.85843e-19)
(19.6837 2.84931 8.36381e-19)
(19.6087 3.3043 5.48686e-19)
(19.5096 3.75561 1.11284e-18)
(19.3869 4.20128 9.75087e-21)
(19.2413 4.64042 -6.79149e-21)
(19.0734 5.0716 -6.0228e-20)
(18.8833 5.49385 -5.29417e-19)
(18.6716 5.90613 5.11238e-19)
(18.439 6.30747 -1.49889e-18)
(18.1862 6.69668 1.01717e-18)
(17.9139 7.07248 -4.89094e-20)
(17.6225 7.43409 -9.22357e-19)
(17.313 7.78063 -9.45088e-19)
(16.9861 8.11158 0)
(16.643 8.42632 8.46079e-19)
(16.2848 8.72389 -3.79954e-20)
(15.9127 9.00351 -1.66479e-18)
(15.5277 9.26426 -5.89172e-21)
(15.1305 9.50523 -6.90553e-19)
(14.7219 9.72625 2.10222e-18)
(14.3031 9.92682 -3.48626e-20)
(13.8752 10.1066 -6.71235e-19)
(13.4394 10.2655 -7.10827e-20)
(12.997 10.4028 0)
(12.549 10.5184 0)
(12.0965 10.6117 0)
(11.6402 10.6832 0)
(11.1819 10.7327 0)
(10.7225 10.7605 5.44479e-20)
(10.2639 10.766 -3.47933e-19)
(9.80644 10.7493 3.93869e-20)
(9.3515 10.7105 5.36029e-20)
(8.89998 10.6497 2.22832e-19)
(8.45266 10.5676 4.23844e-19)
(8.01097 10.4646 -5.27066e-19)
(7.57606 10.341 3.09602e-19)
(7.14878 10.1974 -9.52577e-20)
(6.73057 10.0344 0)
(6.3224 9.85243 3.41642e-20)
(5.92518 9.65205 0)
(5.54007 9.43317 -4.14338e-20)
(5.16682 9.19706 7.86617e-20)
(4.80702 8.94432 -5.45658e-20)
(4.46072 8.67615 -6.87198e-20)
(4.12986 8.3929 1.02941e-19)
(3.81424 8.09524 1.93712e-20)
(3.51472 7.78445 1.54507e-20)
(3.23232 7.46106 -2.8334e-19)
(2.96691 7.12618 3.22891e-19)
(2.71966 6.78018 1.76834e-19)
(2.48946 6.4247 9.24808e-20)
(2.27804 6.06074 3.07593e-19)
(2.08436 5.68981 0)
(1.9107 5.31282 -2.35311e-19)
(1.7559 4.93101 6.24936e-20)
(1.62181 4.54521 0)
(19.5155 0.607361 0)
(19.5576 1.04895 0)
(19.5761 1.49262 2.49181e-19)
(19.5709 1.93693 -4.7742e-19)
(19.542 2.38093 -2.46454e-19)
(19.4899 2.8233 -1.19678e-18)
(19.4145 3.26235 4.62096e-19)
(19.3158 3.69706 -9.55711e-19)
(19.1942 4.12708 1.55026e-20)
(19.0509 4.55114 1.35494e-18)
(18.8861 4.96725 -1.809e-18)
(18.7 5.37453 0)
(18.493 5.77191 0)
(18.2657 6.15915 1.71363e-18)
(18.0193 6.53476 8.28272e-19)
(17.7544 6.89682 -1.68124e-18)
(17.4709 7.24518 2.40723e-18)
(17.1697 7.57893 7.65722e-19)
(16.8516 7.89772 -1.50105e-18)
(16.5177 8.20128 -7.53448e-19)
(16.1698 8.48815 6.95081e-19)
(15.8085 8.75793 -7.12937e-20)
(15.435 9.00955 0)
(15.0501 9.24148 1.30195e-18)
(14.6539 9.45429 -1.83664e-18)
(14.2478 9.64745 5.91622e-19)
(13.833 9.82049 1.06449e-18)
(13.4105 9.97372 -2.58463e-18)
(12.9821 10.106 5.05746e-19)
(12.5483 10.2177 0)
(12.1105 10.3073 0)
(11.6684 10.3765 0)
(11.2247 10.4242 3.50502e-19)
(10.7797 10.4517 9.91736e-19)
(10.3361 10.4574 -5.84458e-19)
(9.8935 10.4416 2.54847e-19)
(9.45332 10.4044 2.44232e-19)
(9.01663 10.3454 -4.34251e-19)
(8.58335 10.266 0)
(8.15541 10.1666 -2.4242e-19)
(7.73425 10.0472 1.26249e-19)
(7.31991 9.90867 1.43251e-20)
(6.91444 9.75161 9.78628e-21)
(6.51903 9.57644 2.91714e-20)
(6.13403 9.384 -1.06009e-20)
(5.76181 9.17297 1.54932e-19)
(5.39987 8.94576 -6.61124e-20)
(5.05165 8.70219 2.24575e-19)
(4.71529 8.44441 0)
(4.39513 8.172 0)
(4.08904 7.88525 -4.03454e-19)
(3.79808 7.58614 1.09761e-19)
(3.52462 7.27472 2.51688e-19)
(3.26655 6.9522 1.4876e-19)
(3.02729 6.6183 -4.68606e-19)
(2.80267 6.27525 -2.62248e-19)
(2.5971 5.92374 -9.64959e-20)
(2.40692 5.56595 -2.10999e-21)
(2.2376 5.20222 1.03379e-19)
(2.08498 4.8338 0)
(1.95372 4.46134 0)
(19.3171 0.657442 -2.51432e-20)
(19.3533 1.08231 0)
(19.3669 1.50941 0)
(19.3577 1.93701 2.11718e-19)
(19.3262 2.36405 0)
(19.2728 2.78952 8.15992e-19)
(19.1978 3.21172 4.02534e-19)
(19.0997 3.62904 -7.90707e-19)
(18.9788 4.04334 0)
(18.8379 4.45252 -8.03068e-19)
(18.6777 4.85193 4.42118e-20)
(18.4961 5.24343 0)
(18.2945 5.62473 0)
(18.0727 5.99697 -7.49243e-19)
(17.833 6.35912 6.91823e-19)
(17.5769 6.70623 -7.16749e-19)
(17.302 7.04064 -6.98879e-19)
(17.0096 7.36126 0)
(16.701 7.66676 6.60554e-19)
(16.3768 7.9586 -1.20445e-18)
(16.0399 8.23387 -1.16376e-18)
(15.69 8.49341 -1.19525e-18)
(15.3284 8.73615 -9.61041e-21)
(14.9575 8.95783 -9.86655e-19)
(14.574 9.16194 1.04658e-18)
(14.181 9.3476 9.43263e-19)
(13.7805 9.5129 -9.57537e-19)
(13.3714 9.66052 6.01188e-20)
(12.958 9.78706 1.05824e-21)
(12.5384 9.89557 -8.00289e-19)
(12.1169 9.98017 0)
(11.6889 10.0478 -6.37988e-19)
(11.2615 10.0929 1.22893e-18)
(10.8306 10.1215 -4.65707e-20)
(10.4043 10.1278 5.25965e-19)
(9.97772 10.1129 -4.27951e-19)
(9.55344 10.0778 3.63648e-19)
(9.13366 10.0203 2.60448e-19)
(8.71519 9.94388 -5.73038e-19)
(8.30157 9.84837 2.40868e-19)
(7.8958 9.73328 1.5368e-19)
(7.49424 9.59991 1.62401e-19)
(7.10159 9.4488 -3.48329e-20)