/*--------------------------------*- C++ -*----------------------------------*\
| =========                 |                                                 |
| \\      /  F ield         | OpenFOAM: The Open Source CFD Toolbox           |
|  \\    /   O peration     | Version:  2.3.1                                 |
|   \\  /    A nd           | Web:      www.OpenFOAM.org                      |
|    \\/     M anipulation  |                                                 |
\*---------------------------------------------------------------------------*/
FoamFile
{
    version     2.0;
    format      ascii;
    class       volScalarField;
    location    "1200";
    object      sigmaEq;
}
// * * * * * * * * * * * * * * * * * * * * * * * * * * * * * * * * * * * * * //

dimensions      [1 -1 -2 0 0 0 0];

internalField   nonuniform List<scalar> 
11800
(
117023
99375.4
299126
259498
94994.5
193935
113868
115360
120414
125475
114696
362509
55144.2
268207
240306
1.081e+06
96270.6
90172.3
154429
91357.3
212061
330672
500168
446792
879773
577307
539941
269981
598763
660195
188902
100218
565435
108031
109666
186254
109375
600284
103272
99957.3
559856
620375
284205
684265
198639
1.01096e+06
470610
543004
112731
139976
376720
272601
108298
163978
1.15098e+06
1.00924e+06
54083
258742
199795
199750
992867
114401
208120
173692
863003
136440
386390
280590
55322.4
532064
112805
94949.7
91178.5
1.00253e+06
981982
184408
889334
127498
116408
122417
1.1737e+06
86459
95692.3
98918.1
90031.5
634347
199752
574140
519596
277175
104965
672272
109547
53350.1
112770
94043.3
12129.8
93556.3
107523
319674
69052.2
349431
637859
238045
113217
197239
112502
107355
954222
569722
630540
515526
202115
282814
125803
863502
129175
108314
812155
131307
131732
115326
116799
97227.1
106801
107300
108309
106485
87052.7
30853.3
1.15256e+06
735616
212929
633059
291600
570567
516431
191166
542389
256509
489090
443153
296203
124275
138528
179721
614217
636420
362532
225346
133424
127884
107766
153678
136215
121365
251181
335652
703329
110266
1.09581e+06
140679
903953
257851
282563
311165
157117
132221
1.20075e+06
702458
236811
315944
109551
202868
204384
1.0052e+06
1.01667e+06
504546
456511
559047
249619
181411
146048
131546
236134
126797
206955
107660
107949
114694
147679
135548
131424
145555
462909
596250
1.02259e+06
101880
129666
1.19538e+06
98433.1
156722
176039
111256
113634
434222
367201
333026
276890
1.14554e+06
342035
499407
1.57115e+06
1.22482e+06
1.33263e+06
213797
99866.3
452124
407450
369686
152004
200390
96021.6
89115.8
156075
92890.2
762394
162251
94496.7
249320
131987
113821
102869
334050
340825
1.56028e+06
757628
134195
141475
587536
477813
182401
249180
566569
514823
465575
111988
629195
212441
280488
264611
103719
104439
238569
196237
117119
1.32401e+06
157602
178056
140613
157576
361460
399701
441366
201276
153442
111059
980859
108719
77393.8
108224
219986
88044.6
281106
1.17282e+06
208138
206041
301189
222819
253631
189049
652355
547891
174711
211418
147751
170954
308822
401631
179499
667834
717255
870251
113537
207819
206760
968239
977619
532516
524526
549971
544846
104722
75489.3
163523
1.31562e+06
98770.8
103940
165310
146094
145849
472468
476964
876568
1.33668e+06
405852
117549
452552
370115
267930
217808
119834
118239
154204
258958
141881
236616
92661.2
112002
114936
112171
718679
112164
101797
1.08501e+06
167950
387038
395484
385982
484411
467161
88246.5
87609.4
369054
474262
336542
872285
85209.7
447840
353908
225006
174448
172829
135529
179943
159203
202606
225794
247689
101072
107206
388316
412984
118999
127566
269658
217456
246098
119808
114946
138686
139174
496637
222959
176290
246820
541724
638953
238339
127285
124344
143692
136540
236328
275520
221133
260035
199938
235487
181715
169418
382869
181086
395029
673660
320215
240482
1.22251e+06
104723
709010
329779
246014
1.10989e+06
104340
732734
185132
645161
594533
570157
119485
51918.2
100931
1.41075e+06
1.21513e+06
495112
176792
223642
119596
129680
149933
97247.2
148707
917939
37681.9
291485
219206
1.02707e+06
82271.5
116152
101887
112877
101347
108022
1.03282e+06
326166
143001
346000
313368
285904
82953.7
703460
220309
295765
114185
494438
116594
956098
102521
128070
252987
229614
210147
499055
132433
268910
258173
134704
349916
384964
425372
199574
155906
50006.3
108064
115242
1.27508e+06
371035
293222
222387
184068
113009
112634
82531.9
86648.6
133893
75130.5
84936.3
102607
108970
214495
105607
145099
339638
368858
179441
929407
125416
219502
105418
106981
884750
1.09849e+06
306657
339883
148916
130776
96442.5
778406
1.05081e+06
940467
1.3893e+06
389430
273613
369132
87596.3
114777
110561
121559
357513
111953
110025
86202.1
108078
773644
164751
713954
500554
105718
131059
684485
775131
356735
395285
436739
201296
157536
324701
108814
108456
106631
117297
98597.6
126115
75447
117710
72348.7
113428
66968.1
112393
103687
112402
81494.5
890253
156913
137892
304887
503783
80312.7
109971
93132.2
88127.5
80114.6
162287
215035
108383
106514
327374
86931.5
126492
961592
61895.1
117137
271110
247381
262314
286772
296001
315939
144904
122350
1.06945e+06
1.38167e+06
248631
73373.1
181140
216970
191727
145508
410197
374013
338452
116133
65183.3
381935
373718
169610
182773
106851
306800
339511
140040
531195
531886
538687
539163
1.00298e+06
981436
289066
1.26108e+06
400260
102648
898069
680703
752977
372478
157774
173977
125101
853931
260120
333734
1.33076e+06
129512
141024
290667
255928
696631
337797
1.06106e+06
104836
100229
153813
199952
449672
406399
367963
1.04019e+06
106960
204493
443485
745959
102501
1.21256e+06
1.13657e+06
1.14248e+06
134115
180753
77140.3
1.16827e+06
298202
138805
215456
1.05023e+06
104896
139812
151752
105415
286270
157059
1.40234e+06
1.15093e+06
128010
328655
417614
156644
177096
146046
136252
394979
142364
293156
224230
584265
534250
111800
716442
110062
207943
249253
1.009e+06
177788
246678
142373
131476
111390
125942
231750
534648
590873
95070.1
98038.2
93367.2
126007
199313
727507
87539.2
230201
401073
309385
129870
531764
596949
376660
662116
731963
291106
200597
108752
112397
196415
211701
179371
194133
126294
176112
211433
134506
104714
1.36709e+06
556493
206397
265082
266530
134440
217784
304442
688241
621698
562157
181078
210717
142057
131770
836364
663212
706016
110306
132150
158691
331467
799424
243480
56031.2
112444
1.29466e+06
1.21962e+06
138605
1.12057e+06
90512.5
108206
94771.8
391962
89897.1
148003
172775
675337
748534
827687
914252
379067
329036
276635
225677
126831
102230
218921
1.12563e+06
111404
111511
103208
106487
100815
105748
113468
877191
449784
422208
244566
465354
516582
182650
628037
153461
136964
112424
1.27709e+06
103814
110494
103877
105095
102464
1.16523e+06
154193
156201
659692
187141
401750
155648
1.18982e+06
477240
224996
180971
783327
252233
118317
108348
94051
99956.3
142723
163970
151950
107204
309004
124772
102762
425931
480494
100113
309995
434802
374369
497379
986021
892117
804213
725152
308302
371489
996619
901297
431388
813710
495655
731191
920308
115450
103686
113549
138200
294853
691200
113002
239907
315557
261963
347342
125660
149620
226664
319243
721346
651968
589625
279024
214596
545335
123950
147575
116930
194473
177585
159567
298976
239323
245419
186572
107608
421316
124482
183536
231760
590765
300934
350657
314441
118061
143359
117452
106606
108953
117648
312460
271496
104887
131039
129088
244385
782397
245240
330845
302834
115069
129871
120982
109983
145346
121243
341902
308580
279223
125158
955897
366456
156281
577202
380159
765031
1.12728e+06
137820
153679
127078
108720
101714
388371
330901
1.16304e+06
95239.5
123709
196405
271891
131780
113133
390487
385049
58210
102124
201975
162904
82572.1
986960
1.12126e+06
163878
101144
164240
209815
440371
358012
396641
1.28963e+06
107411
309535
346890
116019
322599
392407
455489
519715
1.03299e+06
934114
841982
759431
321949
389440
1.04234e+06
942599
450865
851191
517083
765485
1.05592e+06
920304
696274
256217
292669
914931
704653
190300
100667
96620.8
700330
1.18642e+06
96983.4
225053
1.02444e+06
692497
1.12871e+06
1.14257e+06
609570
616416
285644
232615
298445
176160
116567
169534
109535
119835
136601
123819
220455
1.14812e+06
298930
123229
85254.9
201074
216339
1.02791e+06
206692
187140
224060
238728
645933
278125
209747
897507
225914
285580
118902
113292
215369
181218
199177
513424
300954
289399
722501
691813
286534
298067
558847
601217
222927
228069
104621
115952
120861
294582
227598
50581
113935
126072
367282
355215
181606
337717
264584
116875
82442.2
84560.9
325316
742260
91476.2
1.12175e+06
159608
398520
361154
127226
153883
247531
108829
104035
901289
211166
553500
501775
454581
177350
241688
111230
868964
1.05004e+06
115182
107892
571641
201397
263697
456054
504326
565629
183753
246728
50711.7
450727
210567
1.03837e+06
214827
607748
457423
510659
111908
104972
99462.2
115615
104676
100909
881367
250649
108113
127515
137410
154984
175700
195970
404080
394882
367263
356945
324987
333955
690412
115358
104276
107205
118269
147502
108782
110353
807061
155630
287437
221106
579494
287839
112102
118470
241333
191533
323735
268178
689104
589210
532994
481862
271795
802482
365538
862000
147572
128088
159861
163370
118765
121112
116629
844060
1.17721e+06
183812
88607.4
139495
303479
231410
81722.3
108959
161874
149467
139368
137343
164286
156809
129382
258909
288223
281969
314671
232848
260194
329510
105750
617111
478279
265524
694557
655159
379163
1.17083e+06
205559
194698
223357
244603
114103
109034
119136
225497
107365
918502
142454
112010
408657
48760.7
95716.5
975103
115699
220919
707492
310218
639901
578678
879582
588735
96457.9
316692
255566
137809
764230
325473
152488
586869
528049
648654
110109
111688
97149.5
1.41297e+06
167767
230719
276965
144039
105233
97960.3
232304
253841
120133
980890
224498
888031
140405
480724
103388
327727
395983
558539
216760
281903
339372
155611
1.30107e+06
110321
85089.9
97969
1.13637e+06
772042
178148
247662
579613
527562
477181
1.16957e+06
315327
259565
1.23068e+06
1.37704e+06
921885
83534
322049
742770
536958
281496
217222
503795
449243
217879
748481
182709
170878
267462
230845
188486
946878
1.40331e+06
93064
107161
123366
1.37446e+06
106655
116080
369361
275246
1.23403e+06
1.29192e+06
111556
357084
139041
128566
294859
131704
87368.7
319942
98597.4
113203
1.40208e+06
562880
302603
234409
210774
161876
422065
384106
346584
146683
1.30318e+06
260621
230709
227712
1.09746e+06
425269
599820
94067.1
148869
111109
487722
255647
338323
96891.6
153866
202500
449311
158646
126096
113514
209029
1.21391e+06
161500
208789
443324
790944
1.117e+06
699799
490332
341130
403991
59350.8
142541
177591
370637
336079
303847
1.1111e+06
98807.9
114644
123180
122090
121344
127222
157370
108128
103847
384474
966386
244876
553467
500345
453074
179046
1.09906e+06
311641
350210
414524
356446
649298
1.06648e+06
336377
107960
462332
96393.4
447331
266410
493222
547317
200719
662137
168064
1.51524e+06
507122
105207
980578
1.51361e+06
1.3041e+06
298133
109321
555000
111254
100126
96181.5
177418
108035
103140
98270.2
92319.3
884485
927858
103282
657312
117234
108620
104571
141261
559403
568585
145992
569541
576414
846194
283735
116331
127795
165913
330193
363716
140185
36880.9
109471
458724
186478
431071
485015
537792
594084
298694
218174
183826
107385
99470.4
1.13493e+06
607451
107476
134025
510614
406432
212464
232735
132478
105745
195773
173561
94682.1
125928
104422
940620
315638
787788
94992.9
103015
1.51924e+06
109791
1.16861e+06
1.13687e+06
96762.3
501242
238946
934941
107076
449819
579529
1.2718e+06
137149
99086
97225
287877
137912
171516
329260
297594
268741
97121.4
105587
104289
98504.2
550567
608393
419449
730422
660802
792636
1.21356e+06
148230
387137
1.1562e+06
379994
1.13481e+06
463506
512278
569017
248592
179946
227943
280132
1.06758e+06
116086
118571
158488
149356
136513
123159
203019
184110
172518
458314
404224
1.37825e+06
140334
90448.9
128107
1.12751e+06
326546
163707
156220
1.10448e+06
476530
330226
85785.2
126152
96277.3
465480
598874
172305
739255
113347
111367
1.44832e+06
961913
1.18088e+06
204609
257760
476889
178762
352822
1.16376e+06
1.30108e+06
112997
128636
204302
174332
517539
575425
385573
434526
1.27526e+06
1.2372e+06
155970
120639
87083.9
849308
94364.3
1.11437e+06
252343
163928
593303
181906
99695.2
1.0762e+06
134958
150898
92769.9
104616
817157
241725
106037
417481
191035
120980
100715
102297
343344
103124
1.06404e+06
1.01541e+06
169847
422149
246468
101968
110338
861234
114801
559316
146599
297548
559538
647011
1.00874e+06
115934
193290
1.14945e+06
144711
109114
91979.4
113481
106700
1.2099e+06
890355
190784
247849
462301
427846
611551
207120
271628
208923
290743
630058
569508
514440
869698
373783
274012
928875
277023
1.00926e+06
357027
351453
1.07873e+06
1.52343e+06
1.26872e+06
220224
274695
633054
276551
211275
100049
214082
1.07237e+06
106773
115639
1.30339e+06
965701
1.17177e+06
450194
558769
567197
487068
95576.5
85979.3
131023
88050.8
366568
403027
445847
199073
150658
340850
1.18354e+06
103481
138154
116660
105028
510093
462091
132057
1.04024e+06
1.2064e+06
595885
480415
953832
1.09715e+06
100763
531655
344255
691888
104131
144467
154619
878176
875633
436258
195387
97107.5
109406
132867
271632
948735
129492
703139
96523.7
193554
149727
179146
315277
167450
272266
26281.8
7620.78
270487
1.4194e+06
119275
106809
119175
100628
100424
120277
128125
101309
112004
273864
99620.4
106623
124056
494428
614782
435085
1.01315e+06
1.25244e+06
105796
133625
207157
109296
824932
149565
1.29441e+06
136056
166426
323787
227267
140400
137077
313780
104017
116944
127848
94657.8
119363
89769.9
1.08152e+06
87882
101752
156896
102987
82086.8
1.12628e+06
118282
962912
991215
367712
260670
180797
247630
567588
520615
470829
105167
657944
373935
106678
1.19786e+06
109430
111210
198513
644922
439440
494147
747868
115516
101025
217928
312575
702592
361334
778461
267577
633975
573368
215449
781777
259550
703788
304602
636740
575654
350724
890748
119822
314324
238426
101311
120652
949454
503316
689734
638744
558079
699011
505749
200855
221268
324739
801747
109234
1.35615e+06
124112
105339
1.03486e+06
116217
167594
354149
368397
1.04893e+06
95121.2
622891
564907
510930
194212
270631
1.27163e+06
198813
161047
370445
117843
384746
177354
220015
95455.1
128767
137830
115138
280490
102874
357852
195298
152923
451226
604472
612694
450855
235091
1.17099e+06
110162
110116
1.06304e+06
985936
585482
1.50263e+06
568129
484669
573177
1.34123e+06
563681
441184
1.18568e+06
262637
262926
338557
1.0279e+06
94086.6
917654
109645
162821
214079
353390
389253
429808
206096
158732
292513
64228.7
66947.7
105834
103329
138667
111714
102531
143175
611802
1.21075e+06
137635
122811
1.11998e+06
718502
277951
368056
103666
109193
955345
649669
157054
487364
454158
645541
93708.6
101065
117367
102596
709305
1.20208e+06
1.20468e+06
802229
1.31853e+06
161960
95985.9
189691
557285
504177
616991
275283
195222
1.28739e+06
263411
321282
419385
151054
141964
554693
207283
106136
402463
155000
186550
1.24296e+06
194986
176556
608153
552620
499129
253155
829473
773031
1.00278e+06
315331
331918
374386
831303
360265
265076
737412
145219
1.50817e+06
113790
1.1552e+06
295239
341361
86340.4
357183
664800
104413
115535
108748
1.33803e+06
342044
307028
373977
181793
140785
195919
320576
883733
324935
642560
785202
711479
225167
700337
520653
555440
657139
695909
520700
561898
667044
390844
364883
29824
182459
119517
230708
329393
280594
379482
810422
732592
660945
597666
226538
656976
300681
116300
82663.7
90525.7
143517
80668
268261
606997
630777
236658
1.13101e+06
116075
99778.6
901068
1.12914e+06
85078.6
676700
264412
347724
481918
334332
180365
103530
261069
434823
61335.2
109068
1.15284e+06
154794
129683
266675
241149
292093
206268
110192
112267
215643
728990
1.16818e+06
1.35316e+06
188042
207237
884487
797671
1.06084e+06
101745
631271
1.02591e+06
1.35843e+06
1.40616e+06
1.33625e+06
305748
548336
232491
1.21368e+06
861729
343570
790569
105527
105889
939891
942245
103996
267709
1.23793e+06
1.00568e+06
943073
975244
1.41138e+06
945508
1.14199e+06
1.02428e+06
109192
164347
724530
409518
613547
135006
96661.4
121219
113178
117931
135078
119330
236931
1.13668e+06
688597
228418
306014
745944
118200
350136
260333
1.45381e+06
182570
171236
352685
183416
320784
138937
123508
1.18143e+06
9657.14
94911.9
94272.1
19503
246440
320058
115619
126920
137782
107238
362625
316738
102543
1.21468e+06
1.05311e+06
319622
735488
236904
105811
860140
191151
1.21531e+06
296813
361640
419633
481012
964878
874075
787557
711328
296434
357592
974097
881474
415048
795479
477145
716220
166999
138207
330766
332303
286873
145926
129948
117345
105354
101976
100740
98708.7
96271.7
155378
547348
589282
466929
264306
510501
562735
952478
376618
300749
1.09939e+06
369408
127427
77790.7
112622
107241
173474
154545
159156
113535
250445
193574
213030
418987
112620
131427
591461
112216
97726.4
112812
95410.5
793536
121643
153959
347568
277757
173673
356219
152981
92607.9
85176.7
1.32173e+06
1.31086e+06
691271
560076
542165
699276
1.2503e+06
629165
108850
404627
212756
171585
239420
126759
1.26452e+06
134467
660604
599888
542563
282746
200442
355578
198351
159353
1.27966e+06
144443
108719
421136
418403
175098
125825
141251
225936
493147
923264
344884
269505
624705
732629
188517
260782
595653
538718
487816
271875
295205
521941
384640
547225
294185
609860
676462
201756
748164
1.4559e+06
1.04782e+06
100616
426331
471426
520372
177271
133364
868308
145758
189149
255302
269913
116540
145817
132752
109815
734814
551291
581904
698448
198381
1.05793e+06
1.31265e+06
480640
98934.9
419798
462616
510848
514617
631000
170528
987804
435818
362356
326109
398164
154229
200413
129046
125311
250728
304843
275596
311521
343147
379827
226333
222886
309342
311892
651626
646975
531310
588189
527640
584399
326223
360256
146527
108434
114969
120323
750038
402582
109951
639577
527045
499632
656780
130813
241848
871754
351835
787930
711125
83648.6
149325
628658
336795
248266
820269
313173
63939.9
590046
534064
654486
286770
202520
902359
303543
248752
1.1526e+06
305104
422528
113892
109660
194185
179048
161803
966857
225663
182546
262865
237706
285955
145570
123339
661726
758045
132005
405543
101429
591839
1.16861e+06
754642
309861
240395
587101
284659
259562
213568
148779
109352
236571
121116
264175
118872
212192
104047
103214
1.24603e+06
223971
964743
506129
556286
297807
231447
566210
1.13182e+06
87352.7
105328
111782
105035
226928
21821.5
7244.95
225449
454415
97115
451876
196914
171002
105977
286215
392946
875049
101013
92060.2
111673
118061
248811
156147
557614
491883
143830
101440
97792.3
1.24557e+06
455743
100150
189794
100242
1.45306e+06
1.10128e+06
192200
132501
431803
218566
297483
602151
490954
544270
1.27338e+06
1.0026e+06
109311
976444
1.36859e+06
1.01973e+06
1.11301e+06
513773
120346
719716
156221
112576
126798
240128
241136
188203
180610
429087
148060
111704
97832
643795
700677
777015
859777
942065
387977
336893
281875
228753
147749
98170.6
313321
14772.3
157160
156125
8065.33
317223
160006
128373
82893
191248
220606
112725
231188
708386
434865
302607
221055
251854
1.18809e+06
932388
117201
394710
109984
112973
298706
353897
412260
845458
213843
239080
112691
1.07233e+06
113028
179315
213760
197998
698405
772956
389984
500219
497012
295528
387736
787326
748457
731828
237779
319677
81975.5
99368.5
85616.6
156879
89831.1
362670
651543
580780
713023
515495
723910
514197
357069
282459
627443
458396
633528
459753
173977
755968
581710
507675
661894
586887
724714
524420
730350
523003
726439
1.44713e+06
269895
373682
844336
331495
93881.8
111974
146018
14359.9
145050
12756.2
104098
235259
711486
643439
789334
339596
239550
1.23992e+06
62432.9
103730
185988
590878
166090
457101
219226
1.28761e+06
1.2999e+06
810917
99386.6
198220
823727
398096
320951
260478
405374
365506
446212
166147
218153
1.35431e+06
317533
1.19025e+06
99800
104373
107283
100072
82453
1.16938e+06
104144
824138
82312.7
595801
828851
97966.3
114392
131019
345824
139527
273901
248034
187600
204775
225686
114321
191800
257036
314900
219780
751008
681121
615605
872725
1.17818e+06
1.30517e+06
91491.3
93931.3
99049.1
103403
159549
99891.3
165640
1.29076e+06
1.33e+06
1.24304e+06
1.03529e+06
40570
745069
1.16807e+06
697956
541267
558859
690432
383032
375451
671682
403033
855861
83935.8
157045
179813
353010
145503
140567
163744
122239
141410
105302
121594
234715
241686
265166
258606
285228
291387
344609
347385
106830
109237
293430
206151
95466.9
124656
543412
861498
108278
470297
1.02437e+06
295661
958169
405020
138519
972588
439134
368782
582372
1.08289e+06
1.39858e+06
557152
201340
1.19067e+06
162950
127542
114402
285660
77444
510959
853901
201564
321543
138880
112368
141814
1.27357e+06
201013
226904
219948
175397
503350
157093
132799
530698
116671
1.08978e+06
108742
640565
219942
237082
996751
781795
459816
865622
959229
395464
1.05677e+06
336298
270189
774185
855927
1.04997e+06
949157
271095
399617
463022
337671
1.1842e+06
127025
929120
108144
97912.9
101492
5321.9
40463
486049
61382.9
895935
166623
138843
304345
331987
275612
283707
161558
707001
160304
168247
675945
88691.9
244001
223081
221391
684368
619098
759257
321642
331122
133878
216716
383690
890271
68832.3
204146
132736
97451.6
295674
970423
505036
448381
1.00426e+06
138740
524694
1.15338e+06
567289
1.03653e+06
111575
1.14568e+06
147809
781052
254559
313837
107420
9342.81
94273.6
93613.8
16055.2
150055
845449
116073
938302
457461
154654
673767
646383
746149
715822
826597
793273
365648
353481
257645
250099
282106
199287
664034
603374
545137
180789
218182
198221
116268
593977
510820
86177.2
121889
99002.6
114040
114989
1.17305e+06
935056
226138
732306
662547
810011
106160
458980
780641
783297
115446
109505
965841
329312
123552
155271
184340
170071
116364
301874
273785
250569
995820
1.44411e+06
1.02135e+06
678480
315453
232444
118363
128367
171187
130862
111419
107341
130818
347951
272898
101248
894265
1.01465e+06
355812
352985
116166
120280
111320
108703
286484
960152
630496
475453
493117
587864
107008
99647.4
152600
100284
95116.2
167042
1.50137e+06
1.18396e+06
96845.6
121416
424000
367394
262639
821155
906497
669577
740234
517827
241518
202104
222667
124814
137392
1.07881e+06
254059
665772
71050.5
1.02063e+06
99848.9
339782
388733
1.49114e+06
101569
346320
113172
324758
112886
211921
678476
283241
723780
458984
802499
889411
401169
982895
341433
283623
346065
284010
141736
401537
456535
588933
97398.7
151155
815992
369076
1.34302e+06
1.11822e+06
1.25205e+06
235709
938874
468733
327548
158015
125985
1.26177e+06
688286
95303
1.40809e+06
1.13299e+06
42419
358054
297096
55440.1
592484
426813
96379.7
108974
967808
1.35033e+06
108275
409368
420511
910757
881319
303990
311872
306268
317027
103651
105988
106204
101674
74402.1
1.4431e+06
1.05757e+06
999625
1.25775e+06
450210
225419
939060
489014
541355
597857
72450.1
1.04434e+06
171472
762972
1.14442e+06
327224
217457
1.41548e+06
325518
342009
245626
260500
691825
670096
145188
144754
85645.4
103848
224643
808575
731056
659274
325627
1.43321e+06
109066
156423
89811.9
649463
718941
403423
795552
347183
885628
297461
811587
661713
731690
896415
242813
419789
363552
303895
103261
129338
130681
150748
264226
217379
240426
1.11275e+06
457927
558637
1.06973e+06
138044
179601
103561
287629
387649
142376
186589
1.11892e+06
121352
101922
110566
112089
102527
79064.5
158506
113684
123239
900266
1.08087e+06
108099
93111.1
109967
191618
395845
1.20599e+06
1.11572e+06
530896
114599
116865
915839
109682
112790
1.46151e+06
528113
1.06517e+06
265550
708171
404374
425877
135393
555753
716999
326573
239307
113229
243667
100546
66224.8
91022.6
1.19248e+06
590876
597988
1.08431e+06
177281
191490
114031
349416
105602
103195
116823
204335
187620
18982
186402
13053.1
108403
715054
198328
276839
596695
539387
487060
116379
1.29596e+06
459841
229382
1.06348e+06
577490
609629
120520
11760.4
119710
12434.1
970321
279988
364932
446357
406512
103331
1.12336e+06
222627
168964
501509
382791
102301
25444.7
794305
158135
813400
185383
237088
454099
478423
398120
105181
381783
161490
194426
114251
122938
367952
381854
131710
215353
97936.1
99175.4
591968
284117
214542
111807
353237
9108.9
34000.9
350935
370170
300626
438411
521159
86505.6
1.32719e+06
1.39941e+06
162025
107862
109516
145271
163189
16767.1
162140
14511.5
641056
212366
288567
1.30388e+06
1.32096e+06
1.05891e+06
1.02314e+06
514337
454723
434054
387578
1.1122e+06
152462
292179
118893
89291.4
102625
200744
272961
385362
1.19659e+06
1.21775e+06
152537
79879.8
373413
411723
152139
637668
249881
212087
1.03891e+06
112770
113861
138972
576548
573656
618680
391212
203548
277238
81228
77555.2
752255
91805.2
639845
83425
293754
474316
415845
757795
884837
110326
124642
234266
1.04216e+06
5524.65
68911.5
20422.4
68873.4
171323
164371
82180.9
1.24324e+06
22281.9
1.1848e+06
308822
29722.8
9612.94
306817
180367
100290
11478.3
99683.5
228833
1.01024e+06
226996
1.22991e+06
1.36216e+06
41097
343518
419947
382373
517539
237895
178063
575543
405185
73213.9
144385
206608
157290
356844
482547
146509
146958
1.31556e+06
410339
473599
449424
517232
843232
104595
88577.8
705259
877432
318592
150111
170193
104067
198029
255370
112449
147249
198395
109055
76172.8
766193
905846
161038
334063
264059
273464
885333
372849
170280
146611
349941
324601
91748.5
198471
882478
1.0805e+06
257555
187573
444807
545029
493028
80765.5
100458
193596
148427
822918
299457
82798
42015
50803.9
254411
187750
430084
526546
476822
107266
1.20486e+06
1.36224e+06
116651
100572
93675.1
89834.7
1.1758e+06
211687
170842
476206
1.46122e+06
1.19473e+06
293597
128034
286309
259608
168947
154811
182214
110877
110457
108444
229680
1.17766e+06
98062.9
545970
591093
1.019e+06
725438
707654
261703
257219
341438
347186
193232
185045
168082
95393.5
103166
402437
141530
1.07257e+06
710082
173646
101293
486973
1.39708e+06
97915.7
627503
520181
487523
648040
495084
205309
269458
645271
129860
472558
199586
219034
127626
293529
145498
183713
507442
243084
123356
109906
134789
601350
493949
134165
126944
127666
139221
105898
327037
250741
105437
240096
111720
144812
221605
1.2723e+06
1.12112e+06
777332
198633
156955
442203
400459
361981
187910
195991
89799.5
694751
107917
325364
436330
146402
164463
1.15093e+06
77939.5
200956
186227
107419
1.18897e+06
74247.5
113390
287378
342068
124466
115908
132553
100448
106354
770822
98133.7
94791.2
11719.4
94189.3
765891
696056
1.31084e+06
853069
1.03942e+06
115069
1.08125e+06
701342
10603.8
76944.4
166083
139594
275036
301342
330815
448812
235426
1.00761e+06
540782
598521
114560
88475.4
84057.9
98099.4
113048
107702
144774
626750
77408.9
1.30508e+06
333062
124744
647550
395244
208551
283519
145886
124470
172689
274437
170592
363288
343216
132879
111401
413474
670289
80048.7
82153.7
137412
85526.5
98552.9
1.04501e+06
233630
184305
538207
981960
273060
177033
414238
363870
399340
329005
198791
153319
105607
6238.7
49348.6
401407
332827
464066
1.01979e+06
832917
922464
332198
397215
1.03107e+06
931202
461518
841377
139276
226553
189065
206142
102716
143396
123213
354364
165329
141691
151894
263835
761598
352649
103932
138594
96191.7
108043
148865
221139
107101
99430.3
88554.3
570582
201640
259092
185222
233210
490695
416072
476534
382644
711886
205654
128279
195705
414995
311434
160286
208509
290854
106957
194508
118726
118286
335773
334986
136025
439424
142078
144906
826174
691746
98715
117041
1.14534e+06
88690.9
134604
87205.7
140629
170029
529310
477771
429857
281732
281771
543427
136098
106241
102434
766231
142890
132447
146319
137086
121950
129396
83600
117520
898811
885180
252410
201597
112990
587304
503406
204631
275959
388684
108784
75589.7
107294
1.15877e+06
390370
466946
61051.5
335599
141050
59746.3
132958
145441
138474
327717
106882
206273
164273
112087
1.41082e+06
217758
642377
180323
1.08141e+06
420290
493701
259186
195683
625407
87678.9
110040
119082
229933
284375
206810
137958
81051.6
64841.9
494976
204311
162387
90023.2
95763.7
97702.5
99711.3
220625
181217
201687
56497.6
106201
1.01765e+06
101239
1.4192e+06
287452
141075
533260
118175
93587.8
396425
139389
133193
632520
102163
388033
810671
732949
893609
92923.6
150406
260961
821345
777945
208286
104116
223683
226653
318145
369387
703586
317732
361029
783430
694691
761593
574137
635144
566762
626927
991485
226480
160415
1.17912e+06
99298.1
121711
410950
992862
297011
164575
134010
97932.1
88900.6
112739
123857
91985.5
775450
186833
237097
440195
109952
533445
130131
202606
211993
325397
120575
109597
136272
107138
102316
139575
129575
121211
1.17684e+06
122622
102499
224414
285303
79057.9
156970
158829
877189
168302
125464
114805
120936
116601
1.16102e+06
191868
176807
430830
187882
155299
1.11915e+06
850501
899918
277000
115049
988868
290871
329887
143861
567891
455687
619945
501476
726373
376202
958530
628728
827967
628270
410930
328042
91832.3
106181
1.01226e+06
90888
104368
102649
106040
102274
90546.8
568537
593394
134303
287141
27760.2
3822.36
285263
129379
84736.1
995856
324462
448715
175105
149839
166898
125471
137342
243455
278300
101688
136900
360840
254383
188208
348741
584173
494932
88067.4
537641
451742
1.38233e+06
806559
481058
893327
990257
415223
1.09134e+06
353293
286087
799556
883842
980489
1.08472e+06
417940
285350
483241
355259
104765
500122
79886.7
639347
635211
1.39164e+06
120171
253707
741631
113898
450128
79006.4
88930.4
724958
104539
161682
406286
528723
1.17228e+06
206129
229565
253136
115375
193125
249019
545686
220098
127829
109102
109675
113391
1.14039e+06
527885
513857
985870
959395
195965
177444
255005
228732
501914
461461
862188
1.00036e+06
603153
666880
739839
823118
229553
378460
280139
328186
826573
745391
674891
610213
225818
271436
320176
367445
132290
168221
750014
1.05877e+06
196253
166684
203444
434695
498261
452655
407464
352473
181809
244683
1.47093e+06
89274.7
159742
609008
906682
777867
292752
364796
121620
40328.2
151918
813412
292931
1.29128e+06
130909
163465
764431
954483
95963.4
604444
668272
544467
1.2204e+06
400087
175391
219454
306970
154013
181634
402110
607771
264337
621890
513546
163923
423500
518924
468455
177656
254173
1.40743e+06
1.13525e+06
156313
131946