/*--------------------------------*- C++ -*----------------------------------*\
| =========                 |                                                 |
| \\      /  F ield         | OpenFOAM: The Open Source CFD Toolbox           |
|  \\    /   O peration     | Version:  2.3.1                                 |
|   \\  /    A nd           | Web:      www.OpenFOAM.org                      |
|    \\/     M anipulation  |                                                 |
\*---------------------------------------------------------------------------*/
FoamFile
{
    version     2.0;
    format      ascii;
    class       volScalarField;
    location    "0.68";
    object      epsilon;
}
// * * * * * * * * * * * * * * * * * * * * * * * * * * * * * * * * * * * * * //

dimensions      [0 2 -3 0 0 0 0];

internalField   nonuniform List<scalar> 
9648
(
2426.38
2431.79
2430.55
2425.17
2414.96
2399.29
2378.88
2353.27
2322.43
2286.43
2245.49
2199.76
2150.06
2097.32
2042.31
1985.94
1929.29
1873.36
1818.82
1766.22
1716.11
1668.82
1624.53
1583.42
1545.55
1510.84
1479.19
1450.53
1424.77
1401.73
1381.3
1363.34
1347.72
1334.29
1322.97
1313.61
1306.1
1300.36
1296.35
1293.98
1293.15
1293.85
1296.05
1299.65
1304.72
1311.3
1319.34
1328.82
1339.84
1352.53
1366.9
1382.92
1400.82
1420.57
1442.15
1465.34
1489.92
1515.47
1541.23
1566.59
1591.14
600.619
595.583
588.421
580.241
572.945
569.255
568.12
568.718
571.116
575.316
581.127
587.914
595.28
602.861
610.324
617.302
623.618
629.236
634.151
638.299
641.787
644.684
647.047
649.004
650.689
652.17
653.508
654.784
656.087
657.471
658.962
660.621
662.492
664.572
666.899
669.502
672.371
675.509
678.93
682.664
686.703
691.032
695.662
700.604
705.838
711.397
717.274
723.438
729.871
736.571
743.486
750.587
757.821
765.216
772.629
780.036
787.279
794.465
801.45
808.162
814.556
234.503
238.717
244.608
252.631
262.563
274.154
287.435
302.062
317.995
334.853
352.452
370.359
388.248
405.79
422.702
438.751
453.772
467.682
480.427
491.999
502.429
511.76
520.076
527.47
534.045
539.891
545.099
549.764
553.963
557.772
561.26
564.487
567.503
570.355
573.083
575.715
578.284
580.806
583.302
585.789
588.281
590.797
593.334
595.902
598.504
601.131
603.78
606.432
609.08
611.701
614.289
616.839
619.311
621.757
624.061
626.321
628.441
630.554
632.502
634.327
636.022
129.376
139.791
151.947
165.867
181.424
198.493
216.959
236.581
257.105
278.17
299.46
320.603
341.287
361.216
380.153
397.899
414.332
429.384
443.025
455.274
466.165
475.758
484.141
491.413
497.687
503.071
507.669
511.581
514.893
517.694
520.059
522.06
523.762
525.214
526.463
527.55
528.512
529.37
530.151
530.876
531.564
532.232
532.894
533.558
534.228
534.906
535.59
536.276
536.964
537.645
538.3
538.954
539.579
540.189
540.731
541.266
541.789
542.291
542.752
543.177
543.606
94.0192
107.019
121.958
138.749
157.254
177.312
198.68
221.053
244.078
267.339
290.464
313.072
334.856
355.547
374.944
392.867
409.232
424.002
437.176
448.806
458.944
467.656
475.054
481.238
486.347
490.502
493.818
496.406
498.351
499.749
500.688
501.238
501.476
501.456
501.222
500.821
500.295
499.665
498.96
498.202
497.406
496.598
495.794
495.008
494.24
493.498
492.785
492.098
491.43
490.786
490.148
489.518
488.904
488.295
487.688
487.081
486.502
485.925
485.333
484.739
484.147
80.8586
95.4946
112.293
131.122
151.761
173.978
197.434
221.733
246.442
271.081
295.246
318.53
340.659
361.373
380.544
397.975
413.616
427.488
439.6
450.061
458.942
466.299
472.285
476.987
480.581
483.211
484.99
486.055
486.471
486.346
485.78
484.832
483.602
482.144
480.486
478.691
476.811
474.849
472.846
470.817
468.774
466.748
464.76
462.826
460.939
459.107
457.333
455.629
453.98
452.374
450.809
449.271
447.765
446.286
444.826
443.413
442.04
440.679
439.316
437.961
436.597
76.7896
92.8522
111.251
131.798
154.17
178.088
203.118
228.797
254.656
280.098
304.763
328.158
350.101
370.324
388.846
405.358
419.871
432.488
443.182
452.17
459.542
465.293
469.682
472.711
474.645
475.644
475.803
475.317
474.184
472.539
470.511
468.112
465.493
462.697
459.713
456.635
453.546
450.395
447.256
444.135
441.02
437.968
434.994
432.122
429.316
426.599
423.976
421.442
419.001
416.631
414.318
412.051
409.844
407.65
405.493
403.394
401.35
399.359
397.366
395.349
393.354
76.9848
94.3999
114.273
136.339
160.138
185.358
211.545
238.188
264.779
290.583
315.343
338.372
359.706
378.989
396.595
411.91
425.022
436.197
445.212
452.516
458.244
462.201
464.946
466.169
466.354
465.671
464.168
462.165
459.483
456.34
452.928
449.13
445.211
441.166
436.935
432.67
428.462
424.166
419.979
415.858
411.746
407.734
403.884
400.17
396.533
393.047
389.651
386.397
383.245
380.198
377.226
374.318
371.472
368.62
365.823
363.126
360.46
357.909
355.318
352.685
350.143
79.1722
97.6658
118.855
142.039
167.074
193.181
220.056
247.458
274.294
300.258
324.739
347.26
367.577
385.598
402.063
416.094
427.732
437.314
444.864
450.5
454.361
456.485
457.342
456.938
455.439
452.942
449.897
446.44
442.13
437.553
432.696
427.664
422.725
417.454
411.878
406.616
401.209
395.756
390.622
385.379
380.174
374.958
370.401
365.872
361.348
357.283
352.987
349.112
345.076
341.331
337.486
333.979
330.56
326.986
323.52
320.369
316.961
314.114
310.861
307.485
304.486
1615
1638.02
1659.91
1680.65
1700.44
1719.69
1738.51
1757.2
1775.71
1793.22
1809.41
1824.82
1839.7
1854.42
1869.19
1884.69
1901.48
1920.06
1940.83
1964.3
1990.24
2018.13
2047.54
2078.05
2109.3
2141.24
2174
2207.27
2241
2275.22
2310.1
2345.52
2381.49
2418.17
2455.57
2493.59
2532.33
2571.94
2612.48
2653.79
2695.91
2739.08
2783.27
2828.34
2874.6
2921.91
2970.18
3019.44
3069.9
3121.6
3174.47
3228.4
3283.94
3340.68
3399
3458.69
3520.47
3584.33
3650.28
3718.2
3788.22
820.611
826.734
832.682
838.373
843.833
849.181
854.562
859.825
865.183
870.288
875.349
880.302
885.26
890.247
895.256
900.332
905.494
910.787
916.205
921.723
927.304
932.885
938.445
943.957
949.411
954.785
960.012
965.062
969.928
974.634
979.197
983.592
987.839
991.958
995.945
999.802
1003.55
1007.19
1010.71
1014.12
1017.43
1020.67
1023.8
1026.84
1029.79
1032.65
1035.41
1038.05
1040.62
1043.09
1045.46
1047.73
1049.91
1052.14
1054.18
1056.33
1058.42
1060.74
1062.94
1065.21
1067.59
637.684
639.267
640.898
642.498
644.069
645.543
647.092
648.543
649.979
651.268
652.506
653.689
654.889
656.059
657.202
658.306
659.366
660.38
661.336
662.224
663.028
663.748
664.373
664.898
665.319
665.632
665.833
665.918
665.88
665.724
665.441
665.035
664.509
663.86
663.103
662.234
661.255
660.165
658.965
657.653
656.234
654.713
653.096
651.369
649.544
647.609
645.553
643.368
641.062
638.637
636.066
633.396
630.591
627.68
624.581
621.402
618.138
614.802
611.382
607.911
604.451
544.011
544.417
544.792
545.155
545.485
545.785
546.048
546.293
546.476
546.555
546.571
546.543
546.45
546.273
546.04
545.739
545.371
544.929
544.405
543.791
543.089
542.297
541.419
540.451
539.386
538.219
536.952
535.584
534.113
532.542
530.87
529.088
527.2
525.212
523.133
520.96
518.695
516.337
513.882
511.332
508.693
505.98
503.194
500.342
497.426
494.442
491.37
488.211
484.959
481.63
478.198
474.671
471.063
467.358
463.529
459.585
455.572
451.475
447.324
443.155
438.993
483.56
482.948
482.314
481.649
480.955
480.2
479.389
478.572
477.749
476.876
475.966
475.011
473.994
472.918
471.778
470.571
469.327
468.009
466.617
465.146
463.602
461.989
460.314
458.579
456.777
454.903
452.952
450.927
448.832
446.667
444.428
442.104
439.696
437.209
434.654
432.033
429.343
426.575
423.727
420.8
417.807
414.756
411.664
408.543
405.401
402.238
399.018
395.769
392.453
389.093
385.669
382.169
378.616
374.993
371.279
367.467
363.576
359.601
355.606
351.6
347.597
435.247
433.887
432.52
431.108
429.67
428.197
426.681
425.145
423.566
421.959
420.312
418.639
416.925
415.158
413.342
411.489
409.606
407.657
405.638
403.551
401.404
399.21
396.98
394.723
392.424
390.073
387.672
385.221
382.737
380.221
377.667
375.052
372.379
369.641
366.864
364.047
361.173
358.246
355.246
352.174
349.045
345.869
342.669
339.473
336.297
333.154
329.985
326.829
323.644
320.474
317.268
314.003
310.719
307.371
303.979
300.465
296.89
293.242
289.609
285.94
282.296
391.377
389.41
387.433
385.441
383.409
381.329
379.215
377.096
374.937
372.726
370.498
368.261
365.987
363.685
361.334
358.965
356.592
354.166
351.67
349.099
346.469
343.817
341.149
338.493
335.825
333.116
330.375
327.596
324.825
322.069
319.348
316.588
313.811
310.983
308.157
305.31
302.403
299.462
296.46
293.39
290.259
287.063
283.851
280.656
277.503
274.455
271.392
268.411
265.425
262.544
259.671
256.721
253.784
250.795
247.802
244.637
241.462
238.183
234.997
231.748
228.552
347.6
345.114
342.615
340.153
337.661
335.177
332.615
330.119
327.588
324.939
322.29
319.681
317.023
314.338
311.572
308.833
306.167
303.454
300.672
297.743
294.733
291.744
288.736
285.771
282.865
279.92
276.943
273.872
270.83
267.87
265.086
262.287
259.564
256.809
254.132
251.471
248.676
245.82
242.956
240.079
237.095
233.986
230.858
227.732
224.63
221.748
218.792
216.019
213.239
210.738
208.304
205.723
203.198
200.614
198.091
195.287
192.552
189.651
186.99
184.213
181.539
301.246
298.247
295.076
292.252
289.26
286.692
283.774
281.281
278.749
275.976
273.192
270.664
267.879
265.11
262.055
258.98
256.263
253.634
250.999
248.097
244.774
241.67
238.479
235.262
232.237
229.262
226.381
223.16
219.729
216.495
213.668
210.854
208.267
205.737
203.551
201.432
198.985
196.258
193.626
191.191
188.686
185.792
182.828
179.924
176.925
174.309
171.372
168.816
166.139
164.148
162.268
160.059
158.047
155.946
154.005
151.521
149.265
146.679
144.594
142.332
140.288
3861.39
3937.24
4015.15
4095.16
4177.71
4263.71
4352.63
4444.41
4538.76
4635.88
4736.11
4838.23
4942.56
5053.57
5192.03
5320.16
5446.96
5576.27
5708.05
5842.26
5979.25
6119.07
6261.33
6406.25
6553.57
6702.61
6853.06
7004.65
7157.18
7309.78
7462.35
7614.25
7764.63
7912.85
8058.41
8199.86
8336.05
8465.32
8578.77
8662.09
8718.5
8749.48
8754.89
8732.94
8682.03
8599.69
8481.85
8323.87
8121.39
7869.76
7562.72
7193.41
6756.58
6245.37
5605.01
4691.69
4287.9
4087.72
4009.2
3969.32
3883.42
1070.23
1072.96
1075.91
1078.93
1082.05
1085.43
1089.35
1093.7
1098.53
1103.68
1109.34
1112.89
1114.44
1117.56
1121.35
1126.56
1131.96
1137.3
1142.77
1148.49
1154.48
1160.78
1167.36
1174.22
1181.33
1188.69
1196.33
1204.25
1212.53
1221.19
1230.3
1239.9
1250.13
1261.1
1272.92
1285.83
1300.01
1315.82
1335.04
1365.03
1401.3
1440.25
1482.42
1527.94
1577.48
1631.38
1689.71
1752.74
1820.73
1893.22
1969.31
2047.38
2125.97
2203.67
2272.87
2338.17
2398.93
2486.23
2591.39
2696.8
2641.67
600.97
597.497
593.994
590.475
586.908
583.375
579.959
576.708
573.536
570.346
566.723
561.21
555.414
550.442
545.983
542.136
538.396
534.559
530.663
526.758
522.887
519.048
515.235
511.446
507.679
503.929
500.206
496.513
492.869
489.27
485.739
482.297
478.955
475.758
472.733
469.931
467.397
465.203
463.509
462.786
463.243
468.081
476.661
488.56
504.242
524.369
549.661
581.146
619.822
666.764
722.985
789.279
866.878
956.058
1056.49
1164.6
1272.31
1390.53
1536.06
1724.45
1908.13
434.839
430.699
426.563
422.413
418.224
414.042
409.918
405.902
401.876
397.768
392.885
386.99
381.302
376.164
371.415
367.017
362.734
358.469
354.203
349.959
345.743
341.535
337.342
333.17
329.013
324.881
320.776
316.697
312.646
308.626
304.638
300.688
296.787
292.947
289.178
285.498
281.929
278.487
275.2
272.129
269.356
267.196
266.367
267.225
269.678
274.072
280.875
290.745
304.531
323.262
348.354
381.133
423.258
475.816
539.377
611.861
689.322
773.465
872.883
1001.43
1160.81
343.618
339.704
335.814
331.905
327.933
323.969
320.029
316.181
312.315
308.35
303.624
298.409
293.489
288.982
284.729
280.713
276.8
272.98
269.215
265.514
261.854
258.185
254.537
250.916
247.311
243.737
240.19
236.673
233.175
229.7
226.247
222.823
219.434
216.088
212.794
209.564
206.407
203.337
200.361
197.497
194.772
192.25
190.065
188.581
187.883
188.009
189.184
191.713
196.033
202.688
212.478
226.415
245.7
271.584
305.043
346.153
393.538
446.806
508.359
583.904
679.52
278.656
275.141
271.657
268.174
264.556
260.95
257.342
253.86
250.361
246.809
242.57
238.145
234.004
230.219
226.578
223.104
219.692
216.429
213.254
210.179
207.155
204.093
201.068
198.087
195.118
192.19
189.28
186.402
183.528
180.669
177.82
174.998
172.201
169.447
166.737
164.085
161.495
158.979
156.537
154.182
151.925
149.79
147.816
146.093
144.862
144.023
143.697
144.008
145.163
147.443
151.219
157.019
165.52
177.489
193.794
214.98
241.168
272.438
309.453
353.926
408.978
225.277
222.201
219.169
216.188
212.953
209.754
206.498
203.453
200.398
197.382
193.697
190.024
186.583
183.516
180.474
177.577
174.667
171.978
169.379
166.9
164.476
161.955
159.516
157.167
154.809
152.505
150.192
147.921
145.622
143.336
141.037
138.777
136.54
134.357
132.209
130.123
128.09
126.127
124.229
122.411
120.675
119.046
117.529
116.161
115.008
114.206
113.673
113.474
113.712
114.522
116.094
118.68
122.602
128.294
136.224
146.884
160.683
177.946
199.148
225.089
257.068
178.618
175.981
173.43
171.028
168.197
165.44
162.533
159.982
157.423
155.02
151.868
148.867
146.024
143.642
141.137
138.816
136.362
134.235
132.169
130.209
128.316
126.232
124.312
122.592
120.799
119.051
117.241
115.517
113.697
111.898
110.05
108.293
106.549
104.895
103.253
101.687
100.145
98.6807
97.272
95.9574
94.7146
93.5799
92.5543
91.6333
90.8489
90.304
89.9532
89.7907
89.8823
90.2999
91.1426
92.5332
94.6422
97.6669
101.857
107.496
114.881
124.348
136.265
151.14
169.639
137.688
135.423
133.372
131.632
129.205
126.916
124.307
122.338
120.312
118.553
115.882
113.454
111.064
109.34
107.258
105.52
103.424
101.866
100.266
98.6725
97.222
95.4237
93.9683
92.9711
91.6448
90.2924
88.8245
87.6018
86.0999
84.669
83.1008
81.819
80.478
79.3183
78.0787
76.9594
75.7495
74.6753
73.6666
72.7893
71.9889
71.2881
70.7071
70.2126
69.7544
69.4027
69.2341
69.1745
69.3344
69.6374
70.3227
71.3083
72.8015
74.7634
77.4075
80.7688
85.1374
90.6067
97.5698
106.295
117.136
3738.58
3579.96
3409.73
3231.06
3052.81
2880.22
2716.73
2566.87
2434.37
2321.31
2228.07
2153.61
2096.27
2053.8
2023.48
2002.69
1989.28
1981.68
1978.46
1978.42
1980.9
1985.38
1991.36
1998.75
2007.63
2017.6
2028.76
2041.05
2054.54
2069.12
2084.75
2101.37
2118.86
2136.99
2155.67
2174.57
2193.43
2211.94
2229.88
2246.94
2262.66
2276.83
2289.26
2299.75
2308.38
2315.42
2320.96
2325.23
2328.81
2332.45
2336.53
2341.28
2347.29
2354.79
2363.52
2373.26
2383.73
2394.86
2405.62
2414.9
2421.95
2449.94
2247.61
2049.54
1860.79
1694.52
1540.7
1398.24
1268.19
1150.78
1046.96
956.877
880.028
815.452
761.698
718.549
685.196
659.604
639.912
624.617
612.649
603.262
595.879
590.215
585.726
582.638
580.471
579.325
579.13
579.868
581.534
584.143
587.679
592.141
597.501
603.703
610.656
618.258
626.409
634.945
643.663
652.299
660.542
667.968
674.11
678.55
680.882
680.753
678.003
672.735
665.321
656.344
646.596
637.011
628.434
621.302
616.057
612.524
610.465
609.033
607.473
604.876
1990.18
1973.55
1869.18
1695.44
1517.33
1344.54
1176.23
1023.9
887.548
766.803
662.669
574.604
501.465
441.982
395.247
359.428
331.749
309.878
292.573
278.99
268.303
259.86
253.085
247.72
243.274
239.735
236.86
234.612
232.928
231.777
231.131
230.987
231.327
232.118
233.334
234.94
236.899
239.161
241.672
244.356
247.119
249.852
252.431
254.694
256.48
257.589
257.83
257.027
255.084
251.958
247.745
242.745
237.39
232.24
227.781
224.595
222.974
223.055
224.668
227.495
231.082
1325.85
1471.25
1565.72
1579.18
1508.23
1382.3
1213.75
1044.84
888.67
744.706
619.64
514.911
428.596
359.491
305.309
263.192
230.46
204.626
184.363
168.622
156.467
147.122
139.926
134.346
129.929
126.403
123.554
121.254
119.411
117.959
116.861
116.092
115.625
115.423
115.45
115.67
116.047
116.543
117.116
117.72
118.301
118.808
119.182
119.367
119.305
118.945
118.244
117.174
115.733
113.926
111.797
109.459
107.09
104.932
103.276
102.532
103.068
105.105
108.707
113.864
120.702
796.317
931.688
1074.34
1200.14
1279.63
1295.78
1244.15
1137.86
1001.4
847.282
701.505
576.255
468.646
380.913
311.321
256.241
213.094
179.365
153.047
132.732
117.242
105.596
96.9042
90.39
85.4302
81.5892
78.5779
76.1996
74.3197
72.834
71.6831
70.8326
70.2448
69.8765
69.6865
69.6376
69.6934
69.8176
69.974
70.1225
70.2209
70.2293
70.1094
69.8253
69.3459
68.649
67.729
66.5928
65.2534
63.7472
62.1324
60.5046
59.0162
57.8577
57.2875
57.5681
59.0856
62.1696
67.0484
74.0066
83.0187
477.665
563.087
666.111
782.521
899.954
1000.54
1064.17
1075.81
1033.74
946.047
829.807
703.917
577.209
466.918
376.702
302.206
243.229
196.585
159.491
130.89
109.34
93.472
81.9402
73.5281
67.3001
62.6043
59.0249
56.2783
54.1657
52.5275
51.2737
50.3519
49.7119
49.2992
49.0665
48.973
48.9798
49.0521
49.155
49.2518
49.3044
49.2807
49.1468
48.8757
48.4394
47.8244
47.0283
46.0644
44.9447
43.7023
42.388
41.0873
39.9288
39.0885
38.8165
39.4307
41.3408
44.9298
50.53
58.3617
68.4787
296.832
346.636
408.808
484.777
573.519
670.202
764.721
842.883
890.42
897.053
860.905
789.479
694.81
590.844
489.122
393.121
313.978
249.348
195.527
153.497
121.682
98.5586
82.1287
70.3985
61.8969
55.6095
50.9173
47.4049
44.7744
42.7735
41.2624
40.1591
39.3947
38.8958
38.6038
38.4697
38.4503
38.5092
38.6109
38.7199
38.7992
38.8227
38.7575
38.581
38.2627
37.796
37.1763
36.4196
35.5301
34.5417
33.495
32.4677
31.5735
30.9685
30.892
31.6836
33.7604
37.6008
43.6389
52.1442
63.205
192.735
221.657
257.976
303.311
358.962
425.111
499.944
578.377
652.406
711.28
744.604
746.203
716.396
659.727
584.983
500.293
415.516
335.723
260.725
200.429
152.829
118.354
94.3031
77.3278
65.1095
56.1393
49.5274
44.6888
41.1638
38.5229
36.5515
35.1126
34.1122
33.4448
33.0333
32.814
32.7355
32.7564
32.8392
32.9472
33.0425
33.1059
33.1031
33.0153
32.8055
32.4751
32.0126
31.4399
30.752
29.9841
29.1694
28.3818
27.7229
27.3369
27.4524
28.4003
30.6031
34.6657
41.0923
50.249
62.239
130.77
147.723
168.946
195.709
229.068
270.05
319.01
375.4
436.691
498.794
553.814
595.727
618.236
618.679
595.52
551.003
491.071
419.886
346.561
272.28
203.552
153.908
119.393
94.8171
76.736
63.4379
53.6618
46.6454
41.647
37.9453
35.221
33.2221
31.8285
30.8783
30.264
29.8945
29.7057
29.6454
29.6744
29.7472
29.8298
29.9072
29.9438
29.9207
29.7977
29.5776
29.2496
28.8314
28.3169
27.736
27.1244
26.5508
26.1164
25.9517
26.2727
27.411
29.799
34.0938
40.8657
50.6086
63.3763
1.527
214.332
192.094
2.25558
2.18236
0.203926
0.000719664
90.9003
0.00079674
0.0147082
92.9254
6.94795
0.000720618
243.661
0.166949
136.701
0.000757579
92.2297
117.17
0.000715461
2.26294
232.555
201.188
0.000767106
0.000781415
0.210704
0.000716673
7.88624
0.000753323
0.000820413
6.15546
0.000740685
0.00879105
64.6797
3.96413
111.071
71.042
15.5714
0.000723232
44.9211
65.9976
29.1429
0.000743359
104.01
171.271
0.717991
0.000866738
0.00861958
1.276
7.15541
370.652
360.648
0.000697647
0.00102917
0.0631192
0.0339362
0.000817523
9.23855
58.2238
287.497
141.716
0.000906584
1.54119
0.0250866
204.181
2.40765
38.3659
63.906
0.00113273
0.000747675
9.78975
40.2253
56.7966
0.0401053
0.0516844
80.1621
232.54
54.7908
0.000699582
5.43428
0.00234753
47.8182
0.0125851
109.983
0.000749932
8.50142
0.000791397
37.0231
0.0110172
0.00136937
0.231629
0.000697926
0.000934708
311.479
146.081
0.000868035
1.58413
1.76865
0.00185078
209.92
1.0448
31.7524
5.83172
0.000696416
0.000725928
0.000693448
1.41528
0.210047
0.000748103
176.687
225.558
0.00475352
234.345
26.8743
115.412
54.2997
28.149
0.000977898
0.110981
0.00110542
0.00167527
188.178
0.00311132
291.027
420.094
28.3043
0.000746045
7.08166
6.93866
0.000743968
0.0300058
0.0269684
93.6038
0.00187839
63.6591
0.000748859
0.000723758
400.447
355.043
0.000748918
0.729774
152.034
0.231663
0.906477
26.5316
118.879
0.292738
27.425
0.00526824
276.376
11.0935
0.0367665
48.3172
107.528
191.732
0.000766329
0.000757641
0.514574
0.000695298
40.9845
0.113636
0.00145081
0.000740336
0.000747513
0.000758569
39.9863
71.071
34.9371
0.000767183
284.415
306.232
408.166
164.404
0.006937
158.326
44.4763
28.0995
0.000750334
0.00169949
195.7
67.1566
29.9204
73.8825
0.00074544
0.000842707
238.244
0.0296953
2.48277
0.000757793
0.000864791
0.173006
0.000797992
336.252
3.97981
0.000691409
0.681585
92.4819
142.777
0.00119882
52.1227
0.000746685
0.000750288
106.209
32.9446
302.53
0.00121575
0.000801103
0.0028563
42.3402
75.804
9.68179
124.677
14.2986
234.944
0.830922
86.3323
83.6866
27.3511
10.6079
39.4465
0.00144583
0.0294427
0.000747749
0.000724486
28.2446
0.0100521
0.0117856
0.00199368
0.00629523
46.3729
195.731
0.0111531
172.607
7.44906
2.94913
0.000732515
0.535223
38.1856
7.20467
0.00106377
12.8557
35.7334
0.873381
2.43897
274.521
7.54467
5.09451
123.818
0.000955795
0.000723835
0.00102785
0.0042936
28.5663
0.000784945
0.00251464
0.000723652
1.73056
75.0351
76.7176
48.7209
12.0274
11.3081
328.785
0.00114041
47.6075
98.3447
0.00074394
81.5605
0.000749604
326.211
1.73064
51.8906
0.00155033
0.000748506
19.9595
7.67322
0.000759624
0.000750694
0.000755482
0.000751659
1.18518
36.3144
44.4373
0.010821
0.000760435
0.00072443
0.00069543
104.504
1.12962
0.00119207
19.388
0.116633
0.0946536
0.000691568
0.780751
0.000760155
0.107595
48.4352
272.74
3.07795
0.000976549
0.00184793
55.5415
0.356566
133.116
326.07
0.000838573
0.00073994
0.000734041
157.653
0.000773883
135.606
0.00074984
25.0411
12.201
0.0243363
138.449
237.865
0.00127379
49.5
50.9834
91.2329
90.646
9.75327
352.682
38.5529
70.9924
140.337
95.7996
57.0028
0.339729
341.615
283.406
61.9055
33.5745
0.000999632
269.28
123.984
232.525
0.0188342
0.000867934
0.000745793
0.000812012
0.70688
1.56229
6.09864
0.12526
0.000726299
173.172
0.000746398
26.9397
23.7295
194.777
40.7038
18.5575
0.00193101
0.00110764
0.454375
85.9936
0.00436668
8.18673
258.124
35.6988
83.2519
193.08
61.6771
0.000822003
286.294
145.088
98.4973
0.000750571
196.448
154.781
0.000781708
30.4757
0.000751706
398.997
168.906
27.9362
81.4162
112.317
151.497
0.000764816
150.551
0.000965772
68.5045
80.3843
28.1233
282.581
3.62778
0.493437
2.56058
0.00110138
440.79
1.49388
0.00290962
0.00181072
255.088
0.000954138
91.8289
0.000737457
0.000750126
0.00184
31.7
0.193711
21.9016
0.00199462
83.7125
0.309227
221.758
279.639
38.5476
339.434
0.000793815
282.475
41.7733
0.000742445
77.7795
25.796
0.000695811
0.000727428
114.786
0.00206308
25.9701
0.451668
76.4642
0.0177416
3.44851
40.1105
117.382
32.9698
81.0358
70.457
0.000999091
0.0333567
28.6452
21.6835
334.513
341.027
141.756
0.084949
125.783
124.703
3.38144
93.7768
46.6812
26.125
0.000820835
83.4909
388.059
0.00107698
90.4986
18.8712
47.3469
0.0153709
0.0896631
266.263
0.00193422
330.529
0.0012485
1.83557
0.000738125
7.66003
170.979
0.556896
0.0013229
0.000902069
75.991
26.683
0.378303
5.4476
292.834
544.567
0.00138547
11.555
27.0907
72.2909
26.1205
449.96
28.6468
151.355
51.2501
3.46683
7.17975
305.565
54.9088
357.852
173.924
0.234261
172.079
60.3795
0.000792002
94.1841
29.4003
13.0106
0.00981177
96.49
45.7973
4.11412
53.8542
0.00159465
0.000747176
0.163709
28.413
105.773
72.1866
0.000750199
0.000731324
0.000744025
28.0675
0.0280132
0.000745762
0.247177
92.9013
272.028
0.00441465
0.00454807
0.000721182
0.000738843
0.00194406
29.6418
102.782
21.3503
1.88186
300.988
388.648
0.00151188
60.9041
27.7501
28.304
75.7127
443.469
0.000822099
0.00446042
0.000751047
398.85
0.777351
0.000726929
10.4033
0.353536
305.391
0.00075933
327.737
8.61043
0.0657633
204.343
0.000748297
0.000736806
0.00102735
409.019
52.3903
132.128
321.38
10.7444
28.4805
0.000708423
0.00184917
0.455927
0.0157685
0.0163819
180.81
40.6
0.000747907
25.9847
44.6791
187.233
411.594
0.00295373
415.022
0.00182696
0.0218628
147.755
0.000739554
147.294
0.000759557
0.000791977
0.0211672
34.4549
2.92274
327.096
62.643
0.000886418
28.3088
498.665
0.21716
2.19014
7.39756
0.000775062
0.000759845
0.00231139
135.957
5.6186
0.000783101
273.544
276.703
218.84
0.116607
59.1021
0.00109008
29.7459
0.543709
0.131681
120.851
29.5756
153.171
176.113
0.000761216
0.000711276
0.00493679
73.0945
105.334
5.8723
0.00661118
0.000771816
0.00075017
0.00343869
0.120674
0.00211917
71.6276
21.0579
0.00499581
26.2644
175.071
0.00076072
37.9459
0.000742725
3.34502
0.000762491
0.013269
37.1825
0.0116713
0.000744597
4.03073
367.494
264.54
0.000731071
0.000746928
1.54438
0.130821
0.000747738
98.1379
0.000906154
31.7447
381.058
29.3225
89.7503
299.46
130.812
339.494
0.000747773
0.00250822
0.0110227
290.119
62.0402
203.241
5.4915
4.2889
98.4482
165.585
128.875
4.93745
46.5383
0.000750533
1.52337
40.6377
32.6318
306.87
27.049
1.10009
40.2605
0.20474
0.00969672
40.8979
0.000751177
171.969
0.000887409
2.79206
296.089
188.026
3.00684
0.00251516
7.14572
0.000769122
0.000736287
0.199703
0.0135513
51.7475
0.00873127
28.5048
0.000750509
0.0191069
0.000725491
96.315
0.00180391
85.3795
305.226
0.0143352
170.545
375.875
0.000757184
100.6
221.446
0.000785651
290.515
0.266392
0.000823685
0.000789571
282.799
0.000731647
0.00111996
0.122714
0.216624
437.033
273.302
0.000751493
0.00075497
9.16573
27.5052
0.00712553
2.31353
21.832
0.000747677
0.000954784
0.000910549
170.777
274.198
3.42909
295.582
0.0172417
26.6294
0.000771676
0.0072025
0.0160896
0.0437044
0.000749728
296.029
0.000741939
0.0161144
0.000772191
1.35139
0.0148292
0.0417644
2.551
5.04063
34.9341
2.20635
9.10306
27.7686
188.31
0.000816692
163.898
329.831
12.6109
75.5841
0.000761965
265.926
81.2464
0.000745701
414.592
65.2238
0.00647689
0.0258213
162.881
160.986
0.225875
319.165
412.863
4.38982
436.375
267.207
127.222
49.9899
21.0349
28.0909
267.684
294.184
0.0143118
310.38
42.371
401.487
0.000813736
1.57204
2.80168
227.709
167.745
0.0118675
444.626
197.542
6.92759
0.0543676
2.82625
27.9732
0.00154993
28.1117
446.541
0.029425
223.95
14.3976
94.4715
192.076
0.00074614
0.00168204
7.27781
5.2416
0.0133273
0.000748302
0.848039
1.84556
0.0012101
0.000758694
268.706
6.95501
53.7134
10.5846
0.00315529
0.00107654
0.421826
86.2837
0.000824337
21.7217
30.1413
1.84913
168.349
0.00100598
0.403756
0.000740642
1.75235
86.9901
0.00167199
0.185721
40.4813
166.537
0.504177
94.1208
5.20442
0.919628
0.000988487
33.35
335.681
0.000744105
0.000755142
149.997
0.0158417
0.000758244
73.979
2.10388
166.483
29.4603
38.8596
0.314223
16.9071
200.8
165.383
242.34
0.000763384
273.047
0.000968942
37.7094
0.000795955
0.00148874
44.5489
0.00209759
252.5
0.0122246
0.0324338
46.0816
7.88521
0.554217
0.000897871
188.243
0.000887394
0.000719167
348.337
163.871
40.1674
28.5449
0.000814281
0.000683312
18.8401
150.795
0.00073276
220.179
37.8417
0.000752991
170.637
0.000701916
3.40515
6.32203
10.5781
1.52249
77.8197
20.944
0.000700083
272.676
328.909
0.000744603
0.0133262
28.7569
0.000708532
241.359
158.401
401.927
0.000745614
0.00072788
198.864
0.0954647
0.000837207
31.318
81.9076
253.675
0.000720802
0.000794168
0.0158149
0.0116574
0.000746849
0.0020329
126.141
50.4388
0.000746727
13.4395
0.000747041
10.2701
0.00109147
0.000867549
26.8913
0.000746826
0.343296
0.00073055
50.521
2.09949
20.5046
187.49
358.758
147.354
5.11402
14.5912
0.000758248
5.62355
280.859
530.397
0.157047
0.00082699
130.926
0.000746094
0.114262
0.000720554
447.612
15.3053
3.19798
199.713
52.7209
5.076
80.292
7.92839
226.24
112.376
0.000774018
0.000755917
0.00308624
0.000735193
0.0141194
100.722
0.000932447
253.899
0.0018672
0.304285
3.01326
152.045
0.00136014
42.0778
0.0135464
56.365
30.0749
442.845
0.000794823
0.000955256
1.455
83.9158
64.8804
64.8732
1.93964
7.98616
20.3576
0.0629541
10.3101
1.76255
30.0141
0.000756231
389.158
1.43716
54.9539
0.000788564
52.0509
16.6007
0.00191856
90.4643
17.0366
0.0849037
0.000714833
0.00074607
202.038
47.0855
14.7247
0.000738216
0.00958083
49.9006
189.802
3.43237
0.00587471
0.000734396
150.086
132.32
35.5637
35.4207
0.000743757
101.701
441.434
0.000746914
0.000749287
18.7225
0.00128732
0.00387785
0.223276
48.0223
0.00105187
36.0717
348.284
0.000731216
0.000821768
0.000727368
0.000770403
66.2143
513.628
339.183
0.0206489
34.2135
46.6397
0.133257
44.7509
0.000822742
31.1599
0.532883
30.3674
5.18593
83.5482
101.698
0.139784
0.000759126
161.494
85.1978
279.177
5.67146
30.0416
0.527649
19.8369
0.0035403
0.00133631
151.133
145.402
0.0333471
1.19395
0.000754078
0.0999399
19.3713
0.0280939
13.9547
4.36642
388.705
37.096
1.73743
273.065
140.062
55.8877
15.3442
198.628
186.055
3.11993
37.4442
0.00378775
46.3709
44.5775
0.00074346
0.000710714
0.343987
0.00074851
0.000775289
56.9112
298.042
0.00074471
82.7871
0.000745011
0.000736841
0.00074119
0.000752694
0.00181757
29.5236
45.8413
252.564
0.000718508
0.00107184
6.59351
0.0008557
0.0284124
0.000762782
0.000863922
165.947
0.000983843
0.00467589
185.015
0.00426509
0.000749441
185.255
0.0007454
0.000760659
1.44823
0.000871373
6.5567
0.00123888
0.0240642
0.000743846
0.000753684
307.139
426.441
45.0603
0.0238973
109.326
15.9726
0.00130197
27.4748
306.268
237.279
474.21
0.00069954
26.6302
56.1428
0.262645
28.4062
100.343
0.352171
31.604
1.01482
28.3295
0.279814
7.31158
0.000757618
224.625
0.000755263
28.5549
31.8243
0.000747865
0.920027
0.00246157
0.030133
0.000726468
3.86962
0.000894347
0.00074197
40.2512
0.0338007
0.165631
232.782
154.455
0.000819035
0.000968606
29.9877
263.995
0.000689554
0.000754077
0.197433
24.4478
147.008
0.00210064
15.584
0.000745496
0.000818589
0.000718246
0.0280272
24.2747
0.00409788
271.511
29.8173
262.26
175.297
0.000843624
300.692
66.1359
0.000732727
0.000754063
0.000750339
0.00115977
0.000740263
123.772
0.000745392
0.000750592
351.301
1.20371
0.00268314
0.0357839
59.12
7.36327
0.00768524
0.000824337
188.095
0.000762691
6.76197
0.000755095
0.000846026
165.795
167.128
0.00334265
0.000834246
3.80406
0.000744259
370.134
0.000753156
153.778
0.026899
8.69122
0.123382
3.22693
1.9394
30.2468
0.000760942
0.00086049
0.0049081
61.4246
0.289542
306.72
0.000747087
0.00124237
0.00164281
260.142
61.4673
276.161
0.00226551
0.00351088
0.832233
0.000751302
19.7176
37.0056
0.00879547
267.069
181.411
42.6238
0.00154873
1.43855
172.301
228.728
27.7798
0.0105994
120.543
0.520708
136.4
0.144924
2.26908
43.6933
0.000761952
28.3018
0.00122419
0.00510321
0.00655566
0.0479398
0.000907683
10.7126
0.00074607
46.1912
0.132643
0.000865701
1.58519
0.000756578
0.766387
0.228406
39.9996
3.88804
93
0.806764
0.000748385
0.000732628
4.72163
0.159744
43.0864
265.259
0.000751611
153.598