/*--------------------------------*- C++ -*----------------------------------*\
| =========                 |                                                 |
| \\      /  F ield         | OpenFOAM: The Open Source CFD Toolbox           |
|  \\    /   O peration     | Version:  2.3.1                                 |
|   \\  /    A nd           | Web:      www.OpenFOAM.org                      |
|    \\/     M anipulation  |                                                 |
\*---------------------------------------------------------------------------*/
FoamFile
{
    version     2.0;
    format      ascii;
    class       volScalarField;
    location    "0.68";
    object      p;
}
// * * * * * * * * * * * * * * * * * * * * * * * * * * * * * * * * * * * * * //

dimensions      [0 2 -2 0 0 0 0];

internalField   nonuniform List<scalar> 
9648
(
-0.0253488
-0.277253
-0.581245
-0.946369
-1.38862
-1.91883
-2.54821
-3.28382
-4.1358
-5.12137
-6.25156
-7.53933
-8.99739
-10.6366
-12.4663
-14.4966
-16.7356
-19.1919
-21.8689
-24.7711
-27.9032
-31.2618
-34.8467
-38.6532
-42.6767
-46.9078
-51.3357
-55.9517
-60.7381
-65.6861
-70.7752
-75.9901
-81.3152
-86.726
-92.2112
-97.7427
-103.307
-108.885
-114.451
-119.984
-125.462
-130.877
-136.19
-141.391
-146.469
-151.392
-156.148
-160.719
-165.11
-169.29
-173.221
-176.908
-180.353
-183.525
-186.427
-189.044
-191.363
-193.39
-195.101
-196.51
-197.605
0.531259
0.279741
-0.0203215
-0.38152
-0.815417
-1.32702
-1.92909
-2.63623
-3.45863
-4.40622
-5.4903
-6.72283
-8.11503
-9.67739
-11.4198
-13.3512
-15.4795
-17.8115
-20.352
-23.105
-26.0735
-29.2569
-32.6536
-36.2595
-40.0695
-44.0755
-48.268
-52.6367
-57.1684
-61.8507
-66.6673
-71.6025
-76.6405
-81.7617
-86.9497
-92.1843
-97.4486
-102.723
-107.987
-113.219
-118.402
-123.518
-128.541
-133.458
-138.25
-142.895
-147.379
-151.683
-155.794
-159.708
-163.413
-166.891
-170.131
-173.123
-175.85
-178.309
-180.482
-182.38
-183.979
-185.283
-186.275
0.352502
0.123507
-0.151302
-0.480946
-0.875254
-1.35105
-1.91563
-2.58076
-3.35678
-4.25695
-5.29182
-6.47341
-7.81254
-9.31923
-11.0033
-12.8732
-14.9366
-17.1998
-19.6675
-22.3436
-25.2305
-28.3282
-31.6351
-35.1471
-38.8587
-42.7621
-46.8483
-51.1071
-55.5262
-60.0926
-64.7912
-69.6062
-74.5218
-79.5204
-84.5843
-89.6951
-94.8352
-99.9858
-105.127
-110.24
-115.306
-120.306
-125.218
-130.028
-134.716
-139.265
-143.657
-147.878
-151.912
-155.744
-159.367
-162.767
-165.939
-168.86
-171.533
-173.938
-176.084
-177.938
-179.508
-180.793
-181.798
0.581342
0.349617
0.0742051
-0.252971
-0.641127
-1.10124
-1.644
-2.28071
-3.02287
-3.88287
-4.87264
-6.00372
-7.2868
-8.7318
-10.3489
-12.1459
-14.1303
-16.308
-18.6832
-21.2599
-24.0403
-27.024
-30.21
-33.5934
-37.1687
-40.9281
-44.863
-48.9637
-53.2181
-57.6134
-62.1356
-66.7685
-71.4971
-76.3054
-81.1754
-86.0893
-91.0309
-95.9812
-100.922
-105.836
-110.703
-115.505
-120.222
-124.838
-129.336
-133.698
-137.908
-141.953
-145.818
-149.489
-152.957
-156.21
-159.241
-162.034
-164.582
-166.874
-168.907
-170.666
-172.151
-173.356
-174.281
0.643707
0.444835
0.201203
-0.0957284
-0.453605
-0.881819
-1.39017
-1.98918
-2.691
-3.50662
-4.44881
-5.52767
-6.75418
-8.1372
-9.68778
-11.4125
-13.3187
-15.4122
-17.6956
-20.1737
-22.8488
-25.7197
-28.7865
-32.0427
-35.4833
-39.1007
-42.8854
-46.8299
-50.9215
-55.1479
-59.4963
-63.9495
-68.4939
-73.1152
-77.7948
-82.5156
-87.2632
-92.0178
-96.7635
-101.484
-106.159
-110.771
-115.301
-119.733
-124.05
-128.235
-132.275
-136.153
-139.858
-143.377
-146.7
-149.817
-152.72
-155.399
-157.841
-160.037
-161.976
-163.657
-165.078
-166.23
-167.112
0.733821
0.5515
0.328512
0.0552015
-0.275268
-0.673301
-1.14813
-1.7102
-2.37239
-3.14438
-4.04021
-5.06804
-6.23975
-7.56127
-9.04686
-10.7005
-12.529
-14.5389
-16.7298
-19.1082
-21.6775
-24.4337
-27.3808
-30.508
-33.8114
-37.2835
-40.9132
-44.6975
-48.6213
-52.6729
-56.8424
-61.1088
-65.461
-69.8882
-74.3694
-78.8874
-83.4325
-87.9815
-92.5218
-97.0397
-101.514
-105.926
-110.257
-114.494
-118.62
-122.617
-126.476
-130.175
-133.709
-137.063
-140.231
-143.2
-145.966
-148.52
-150.847
-152.935
-154.774
-156.364
-157.708
-158.796
-159.624
0.824601
0.659242
0.455659
0.203973
-0.100924
-0.470731
-0.913979
-1.44006
-2.06414
-2.79325
-3.6446
-4.62304
-5.74208
-7.00196
-8.42408
-10.0069
-11.7573
-13.6844
-15.7817
-18.0576
-20.5206
-23.1589
-25.9862
-28.9836
-32.1468
-35.4714
-38.9399
-42.5608
-46.3127
-50.183
-54.1712
-58.2462
-62.3967
-66.624
-70.9032
-75.2097
-79.5456
-83.882
-88.2078
-92.5177
-96.7855
-100.994
-105.117
-109.151
-113.079
-116.882
-120.552
-124.065
-127.419
-130.601
-133.609
-136.422
-139.042
-141.468
-143.679
-145.656
-147.388
-148.877
-150.139
-151.165
-151.937
0.910848
0.763154
0.580821
0.349352
0.0703424
-0.272897
-0.687165
-1.17525
-1.76431
-2.44852
-3.2598
-4.18853
-5.26365
-6.45406
-7.81573
-9.32982
-10.9978
-12.849
-14.8517
-17.0144
-19.3805
-21.8882
-24.6038
-27.4728
-30.4864
-33.6713
-36.9613
-40.4176
-44.0007
-47.674
-51.4924
-55.3741
-59.2982
-63.3256
-67.4176
-71.4836
-75.6105
-79.7318
-83.8238
-87.9322
-91.9834
-95.9982
-99.8892
-103.71
-107.452
-111.043
-114.534
-117.841
-121.019
-124.008
-126.863
-129.498
-131.956
-134.258
-136.365
-138.215
-139.842
-141.206
-142.386
-143.363
-144.07
0.999325
0.859843
0.714067
0.486971
0.24463
-0.0836524
-0.475542
-0.898024
-1.48472
-2.08889
-2.89742
-3.74411
-4.83105
-5.88379
-7.22838
-8.6914
-10.2339
-12.0548
-13.9401
-15.9569
-18.3088
-20.6008
-23.2694
-25.9831
-28.8256
-31.9484
-34.9764
-38.3029
-41.7543
-45.153
-48.8714
-52.5299
-56.1893
-60.0688
-64.0204
-67.6728
-71.6981
-75.6011
-79.4037
-83.37
-87.1287
-91.0215
-94.6007
-98.2807
-101.89
-105.156
-108.571
-111.565
-114.632
-117.317
-120.085
-122.442
-124.761
-127.019
-129.003
-130.662
-132.28
-133.422
-134.596
-135.526
-136.099
-198.361
-198.796
-198.911
-198.699
-198.179
-197.341
-196.189
-194.722
-192.931
-190.843
-188.433
-185.718
-182.733
-179.482
-175.955
-172.168
-168.127
-163.859
-159.356
-154.632
-149.721
-144.608
-139.318
-133.863
-128.271
-122.548
-116.68
-110.702
-104.62
-98.4693
-92.2482
-85.9779
-79.6798
-73.3542
-67.0294
-60.7073
-54.4115
-48.1538
-41.9425
-35.7944
-29.7211
-23.7461
-17.8663
-12.1025
-6.46853
-0.966765
4.38698
9.58448
14.6106
19.4587
24.1239
28.5953
32.8619
36.9225
40.7664
44.3887
47.7843
50.9478
53.8788
56.5729
59.0298
-186.957
-187.309
-187.389
-187.164
-186.641
-185.826
-184.711
-183.3
-181.582
-179.568
-177.256
-174.656
-171.807
-168.711
-165.358
-161.751
-157.904
-153.83
-149.534
-145.03
-140.336
-135.457
-130.406
-125.195
-119.839
-114.348
-108.755
-103.061
-97.2734
-91.41
-85.4833
-79.5085
-73.5009
-67.4723
-61.439
-55.4104
-49.4026
-43.4293
-37.502
-31.6334
-25.8368
-20.1281
-14.5144
-9.00933
-3.62517
1.6311
6.74824
11.7156
16.5216
21.1589
25.6208
29.8982
33.9819
37.8687
41.5495
45.0195
48.2719
51.3045
54.1141
56.6977
59.0544
-182.506
-182.941
-183.036
-182.823
-182.323
-181.546
-180.447
-179.054
-177.338
-175.327
-173.05
-170.506
-167.684
-164.592
-161.251
-157.674
-153.867
-149.842
-145.608
-141.177
-136.563
-131.772
-126.818
-121.712
-116.464
-111.085
-105.595
-100.006
-94.3309
-88.5825
-82.7749
-76.9228
-71.04
-65.1401
-59.2363
-53.3402
-47.465
-41.6234
-35.8285
-30.0927
-24.4291
-18.8508
-13.3678
-7.99194
-2.7336
2.39867
7.39418
12.2426
16.9337
21.4603
25.814
29.9876
33.9733
37.7666
41.3594
44.7466
47.9228
50.8844
53.6285
56.1521
58.4553
-174.92
-175.283
-175.348
-175.121
-174.595
-173.754
-172.63
-171.28
-169.673
-167.797
-165.638
-163.216
-160.528
-157.585
-154.396
-150.971
-147.319
-143.451
-139.379
-135.115
-130.672
-126.059
-121.288
-116.367
-111.31
-106.128
-100.835
-95.4458
-89.9725
-84.4275
-78.8237
-73.1764
-67.499
-61.8057
-56.1072
-50.4159
-44.7434
-39.1018
-33.5047
-27.964
-22.4924
-17.1025
-11.8048
-6.61007
-1.52807
3.43339
8.26299
12.9514
17.4876
21.8664
26.0782
30.1161
33.9743
37.6467
41.1279
44.4101
47.4903
50.3625
53.0253
55.4749
57.7125
-167.719
-168.053
-168.109
-167.888
-167.385
-166.603
-165.572
-164.208
-162.598
-160.742
-158.63
-156.266
-153.654
-150.803
-147.719
-144.408
-140.877
-137.138
-133.202
-129.084
-124.793
-120.342
-115.738
-110.989
-106.109
-101.108
-96.0017
-90.8032
-85.5238
-80.1759
-74.7696
-69.3223
-63.8465
-58.3579
-52.8641
-47.3772
-41.9074
-36.4663
-31.0683
-25.7244
-20.4466
-15.2483
-10.139
-5.12928
-0.228554
4.55847
9.21646
13.7404
18.1159
22.3411
26.4056
30.3018
34.026
37.571
40.9343
44.1057
47.0847
49.861
52.4373
54.8073
56.9741
-160.189
-160.489
-160.52
-160.284
-159.78
-159.014
-157.982
-156.688
-155.135
-153.336
-151.292
-149.005
-146.48
-143.729
-140.756
-137.565
-134.161
-130.554
-126.758
-122.79
-118.658
-114.376
-109.947
-105.377
-100.68
-95.8671
-90.951
-85.9504
-80.8721
-75.7279
-70.5241
-65.2833
-60.0145
-54.7391
-49.4574
-44.1826
-38.9229
-33.6888
-28.4969
-23.3562
-18.2787
-13.2789
-8.36382
-3.54607
1.16609
5.77437
10.256
14.6116
18.8197
22.8867
26.798
30.5466
34.1325
37.5433
40.7861
43.8416
46.7163
49.3923
51.8803
54.1655
56.2592
-152.456
-152.718
-152.725
-152.473
-151.969
-151.218
-150.208
-148.943
-147.435
-145.697
-143.725
-141.519
-139.083
-136.436
-133.579
-130.512
-127.239
-123.762
-120.108
-116.293
-112.326
-108.22
-103.974
-99.5873
-95.0793
-90.4554
-85.7353
-80.9384
-76.0675
-71.1317
-66.133
-61.1015
-56.0439
-50.99
-45.9268
-40.8729
-35.8317
-30.8105
-25.8303
-20.9008
-16.0293
-11.2327
-6.51755
-1.89805
2.61945
7.04519
11.3467
15.532
19.5675
23.4704
27.2232
30.8194
34.2612
37.5326
40.6525
43.589
46.3596
48.9314
51.3271
53.5225
55.5412
-144.544
-144.757
-144.741
-144.463
-143.964
-143.228
-142.246
-140.989
-139.514
-137.853
-135.961
-133.83
-131.482
-128.941
-126.216
-123.275
-120.134
-116.783
-113.277
-109.624
-105.82
-101.897
-97.8508
-93.6451
-89.3293
-84.8989
-80.3823
-75.7942
-71.1258
-66.4033
-61.6039
-56.7873
-51.9382
-47.1196
-42.2791
-37.4662
-32.664
-27.8471
-23.0795
-18.3804
-13.7102
-9.11663
-4.61473
-0.191469
4.11709
8.36543
12.4791
16.5
20.3486
24.0849
27.6701
31.1011
34.4036
37.5265
40.5325
43.3444
46.0174
48.4705
50.7742
52.8684
54.8159
-136.53
-136.665
-136.638
-136.329
-135.84
-135.087
-134.149
-132.83
-131.431
-129.956
-128.071
-126.019
-123.723
-121.274
-118.779
-115.893
-112.879
-109.721
-106.339
-102.86
-99.1414
-95.3813
-91.6336
-87.5139
-83.4024
-79.2423
-74.8654
-70.5216
-65.9507
-61.5577
-56.8348
-52.3556
-47.6038
-43.1206
-38.4643
-33.9214
-29.4183
-24.6897
-20.1415
-15.7204
-11.1701
-6.82931
-2.57846
1.72782
5.68265
9.89384
13.6835
17.6571
21.182
24.8257
28.2601
31.4301
34.7098
37.5696
40.5976
43.1585
45.8402
48.0265
50.3639
52.258
54.242
61.2507
63.2342
64.981
66.4916
67.7655
68.8069
69.6198
70.2092
70.5795
70.7369
70.704
70.5238
70.1889
69.6582
68.9576
68.094
67.0307
65.7773
64.356
62.7827
61.0694
59.2264
57.2662
55.1997
53.0393
50.7978
48.4886
46.1259
43.7221
41.2929
38.8515
36.4129
33.9927
31.6041
29.2643
26.9859
24.7841
22.6735
20.6766
18.809
17.0946
15.5395
14.1564
12.9651
11.9798
11.2098
10.6643
10.3443
10.2439
10.344
10.6103
10.9884
11.3996
11.7426
11.8611
11.1212
9.61256
8.10826
6.88884
5.97145
5.15508
61.1845
63.0885
64.7664
66.2188
67.4457
68.4492
69.2328
69.8006
70.1566
70.3032
70.255
70.0708
69.7508
69.2435
68.5621
67.7124
66.6748
65.4565
64.0753
62.5458
60.8795
59.0871
57.1805
55.1719
53.0733
50.8967
48.6544
46.3595
44.0245
41.6635
39.2895
36.9167
34.5595
32.2317
29.9481
27.723
25.5708
23.5027
21.526
19.6671
17.9343
16.3657
14.9659
13.7491
12.7275
11.9112
11.3084
10.9207
10.7424
10.7569
10.9326
11.2195
11.5415
11.7967
11.7943
11.1023
9.77288
8.44158
7.40387
6.60204
5.77321
60.537
62.399
64.0408
65.4637
66.6674
67.6547
68.4286
68.9934
69.3514
69.4996
69.4616
69.3016
69.0044
68.519
67.8627
67.0434
66.0483
64.8826
63.5594
62.0917
60.4908
58.7669
56.9318
54.9971
52.9737
50.8737
48.7089
46.4916
44.2343
41.9501
39.6522
37.354
35.0689
32.8109
30.5936
28.4308
26.3357
24.3203
22.3971
20.5876
18.9111
17.375
15.997
14.7867
13.7547
12.9106
12.2609
11.8064
11.541
11.4492
11.5009
11.6496
11.8196
11.9073
11.7329
11.0434
9.87732
8.66282
7.65436
6.81477
5.98102
59.7356
61.547
63.1453
64.5334
65.7092
66.6767
67.4368
67.9951
68.3499
68.4968
68.4744
68.3437
68.0704
67.6134
66.9867
66.2
65.2474
64.1351
62.8716
61.4687
59.9367
58.2849
56.5261
54.6705
52.7282
50.7123
48.6332
46.5034
44.3342
42.139
39.9298
37.72
35.5221
33.3497
31.2154
29.1328
27.1144
25.1726
23.3205
21.5742
19.9487
18.4547
17.1046
15.9062
14.8693
14.0016
13.307
12.7842
12.4258
12.2163
12.1265
12.1127
12.1063
12.0136
11.6981
11.0175
10.0012
8.90136
7.91351
7.04882
6.22683
58.9327
60.6897
62.2404
63.5905
64.7342
65.679
66.4214
66.9697
67.3175
67.464
67.4589
67.3575
67.1063
66.6788
66.0827
65.3307
64.4196
63.3599
62.1549
60.8168
59.3545
57.7751
56.0939
54.3194
52.4601
50.5309
48.54
46.5005
44.4218
42.3181
40.1999
38.0809
35.9719
33.8868
31.8368
29.8357
27.8947
26.0264
24.2418
22.5551
20.9785
19.524
18.2013
17.0175
15.9784
15.0894
14.3527
13.7649
13.3168
12.9925
12.7646
12.5929
12.4199
12.1714
11.7561
11.0936
10.2
9.21347
8.26575
7.39368
6.56741
58.1486
59.8497
61.3494
62.6611
63.77
64.6916
65.4143
65.9526
66.2928
66.4438
66.4553
66.3808
66.1501
65.7522
65.1864
64.4711
63.6008
62.594
61.4465
60.1731
58.7814
57.2738
55.671
53.979
52.2028
50.3622
48.4601
46.5127
44.525
42.5143
40.4877
38.4605
36.4404
34.4431
32.477
30.5573
28.6932
26.897
25.1774
23.548
22.0184
20.6006
19.3023
18.1292
17.0852
16.1723
15.3921
14.7395
14.2044
13.772
13.4169
13.1043
12.7882
12.4141
11.9224
11.2681
10.4581
9.56468
8.66863
7.80881
6.98074
57.358
59.0018
60.4477
61.7207
62.7933
63.693
64.3964
64.9247
65.2581
65.4179
65.4454
65.3957
65.1852
64.8166
64.2809
63.6035
62.7745
61.8212
60.7299
59.5221
58.203
56.7676
55.2447
53.6355
51.9424
50.1927
48.3811
46.5274
44.6313
42.7155
40.7817
38.8474
36.9163
35.0069
33.124
31.2857
29.4983
27.7737
26.1167
24.5425
23.0571
21.674
20.3981
19.2337
18.1828
17.2455
16.4231
15.7084
15.0912
14.5601
14.0915
13.6574
13.2216
12.7458
12.1913
11.5322
10.7698
9.94174
9.09522
8.25884
7.44031
56.5485
58.1403
59.5245
60.7641
61.793
62.6761
63.3567
63.8786
64.2039
64.3808
64.4181
64.3948
64.2015
63.8642
63.3561
62.7193
61.9275
61.0366
59.9928
58.854
57.6125
56.2435
54.8104
53.2841
51.6663
50.0152
48.2921
46.5379
44.7292
42.9136
41.0708
39.2336
37.3888
35.5696
33.7651
32.0099
30.2977
28.6469
27.0483
25.529
24.0816
22.7327
21.4766
20.3228
19.2637
18.3013
17.4427
16.6719
15.9791
15.3626
14.7948
14.2597
13.7241
13.1663
12.5568
11.8843
11.1436
10.3575
9.54635
8.73476
7.93205
55.7597
57.409
58.632
59.9447
60.82
61.7645
62.3159
62.9259
63.163
63.4555
63.4023
63.4837
63.2285
63.0112
62.4542
61.9309
61.075
60.3492
59.3033
58.2412
57.1122
55.7043
54.4315
53.0197
51.3909
49.9125
48.2085
46.6214
44.8286
43.1728
41.3587
39.6708
37.8655
36.1852
34.4045
32.7709
31.0912
29.5513
27.9728
26.5431
25.0923
23.8042
22.5467
21.414
20.3494
19.3459
18.4676
17.6447
16.8758
16.2037
15.5392
14.9334
14.3037
13.6881
13.0204
12.3388
11.5955
10.8451
10.0494
9.24975
8.46697
4.35916
3.63625
2.95331
2.26181
1.57287
0.925152
0.330366
-0.201796
-0.649586
-1.00646
-1.26944
-1.44409
-1.53144
-1.52905
-1.46686
-1.36657
-1.24246
-1.116
-1.00081
-0.903557
-0.825684
-0.761669
-0.712339
-0.66935
-0.629061
-0.593729
-0.552196
-0.504656
-0.446812
-0.377144
-0.291707
-0.189786
-0.0726573
0.0595277
0.20334
0.358995
0.520598
0.684372
0.846745
1.0025
1.1467
1.2734
1.38234
1.4692
1.53049
1.5663
1.57573
1.56013
1.52044
1.45983
1.38234
1.29134
1.18982
1.08336
0.973142
0.861824
0.748832
0.632241
0.503702
0.352713
0.175087
4.9459
4.26297
3.63975
2.99312
2.33385
1.71733
1.15155
0.640033
0.210107
-0.128374
-0.37127
-0.515755
-0.56343
-0.528367
-0.448624
-0.340373
-0.216248
-0.0939404
0.0145274
0.10342
0.17299
0.22782
0.262344
0.298776
0.322368
0.346451
0.373854
0.406786
0.448493
0.501987
0.570317
0.654625
0.754696
0.869619
0.997107
1.13398
1.27801
1.42522
1.57157
1.7131
1.84541
1.96399
2.06417
2.14287
2.19762
2.22733
2.23167
2.21094
2.16641
2.10052
2.01638
1.91744
1.80664
1.68979
1.56794
1.44529
1.32043
1.19392
1.05985
0.91064
0.737767
5.1875
4.50896
3.86979
3.17352
2.46554
1.83102
1.24311
0.694101
0.226658
-0.150923
-0.438282
-0.633862
-0.741977
-0.779291
-0.742828
-0.658638
-0.531017
-0.393752
-0.272531
-0.174252
-0.0983515
-0.0399624
0.0091371
0.0423026
0.0772275
0.108582
0.142573
0.182551
0.230879
0.290436
0.364015
0.45274
0.556275
0.673442
0.802328
0.940473
1.08447
1.23063
1.37499
1.51319
1.64074
1.7536
1.84819
1.92122
1.97022
1.99408
1.99254
1.96666
1.91823
1.85018
1.76588
1.66956
1.56509
1.45618
1.34556
1.23535
1.12422
1.00863
0.881775
0.733343
0.554204
5.45429
4.76249
4.09334
3.38083
2.67336
2.03995
1.43374
0.86021
0.390287
0.0194644
-0.266971
-0.456781
-0.54825
-0.556601
-0.486429
-0.357253
-0.215254
-0.0989733
0.0138857
0.113558
0.193088
0.253341
0.29841
0.332613
0.356965
0.380261
0.402742
0.4292
0.462589
0.506109
0.562784
0.634147
0.720483
0.820645
0.933131
1.05529
1.18428
1.31656
1.44863
1.5764
1.6956
1.80236
1.89314
1.96504
2.01569
2.04408
2.04975
2.03365
1.99712
1.94285
1.87313
1.79146
1.70039
1.60271
1.49915
1.3917
1.2821
1.17079
1.05352
0.920522
0.769196
5.78877
5.06644
4.36629
3.64564
2.93495
2.27477
1.64174
1.06333
0.59223
0.205847
-0.107403
-0.31205
-0.413969
-0.440788
-0.397301
-0.304461
-0.192805
-0.0629677
0.0528029
0.150133
0.225497
0.282947
0.326333
0.362073
0.389223
0.414668
0.439017
0.466863
0.500336
0.54226
0.595439
0.661813
0.74149
0.833744
0.936991
1.04925
1.16751
1.28907
1.41051
1.52833
1.63823
1.737
1.82093
1.88781
1.93492
1.96148
1.96651
1.95108
1.91573
1.86305
1.79504
1.71521
1.62686
1.53287
1.43573
1.34206
1.24984
1.15379
1.04993
0.93739
0.804779
6.18697
5.43056
4.69889
3.96815
3.25047
2.5683
1.91989
1.32863
0.828209
0.41055
0.0839853
-0.126497
-0.24847
-0.29876
-0.262748
-0.16772
-0.0501161
0.0723534
0.182295
0.270004
0.333135
0.382038
0.417733
0.448139
0.470783
0.490823
0.50875
0.530182
0.55684
0.590146
0.634216
0.690412
0.759386
0.839803
0.930937
1.03015
1.13556
1.24421
1.35347
1.45989
1.55932
1.64917
1.72566
1.78748
1.83144
1.85764
1.86433
1.85362
1.82508
1.78193
1.7255
1.65961
1.5873
1.51233
1.43812
1.35944
1.27948
1.19725
1.10748
1.00498
0.882194
6.64174
5.86613
5.10991
4.36622
3.64013
2.94707
2.29167
1.69228
1.16627
0.722126
0.371177
0.12858
-0.0264276
-0.0872794
-0.0543883
0.0275765
0.134323
0.246871
0.347487
0.420864
0.46792
0.501645
0.525654
0.547099
0.560872
0.573171
0.582338
0.597035
0.615301
0.638698
0.672489
0.71795
0.775774
0.844259
0.922618
1.00923
1.1011
1.19705
1.29398
1.38943
1.47832
1.55956
1.62851
1.68547
1.72601
1.75183
1.75996
1.75367
1.73145
1.6974
1.65159
1.59823
1.53907
1.47637
1.41285
1.35013
1.28705
1.22169
1.14899
1.06329
0.956548
7.13987
6.36175
5.59643
4.85085
4.12031
3.42947
2.77704
2.185
1.65276
1.19592
0.826271
0.555411
0.357722
0.266772
0.263671
0.311002
0.408819
0.49072
0.557228
0.61487
0.63132
0.644463
0.646952
0.660123
0.659244
0.664294
0.661265
0.669479
0.680528
0.689576
0.712068
0.74629
0.795077
0.852276
0.920119
0.994232
1.07439
1.15819
1.24405
1.32971
1.40908
1.48307
1.54463
1.59793
1.63425
1.66003
1.6681
1.66583
1.6476
1.62091
1.58181
1.53776
1.48978
1.43791
1.38619
1.33551
1.28604
1.23772
1.18124
1.11393
1.02415
7.67294
6.91313
6.14336
5.40201
4.67348
4.00314
3.3668
2.81947
2.29615
1.85803
1.5036
1.24789
0.971603
0.848245
0.808582
0.787002
0.845799
0.77802
0.783294
0.863182
0.821598
0.811688
0.770555
0.804168
0.763454
0.776206
0.737008
0.743179
0.75961
0.74603
0.743752
0.775952
0.822683
0.866219
0.925449
0.990141
1.05628
1.13229
1.20797
1.29299
1.35663
1.4352
1.47885
1.54052
1.56111
1.59648
1.58964
1.60521
1.57722
1.56495
1.52047
1.47839
1.44239
1.40026
1.36073
1.31943
1.28052
1.2506
1.20647
1.16415
1.08473
4.90733
-4.45239
-5.77248
14.8735
5.78107
19.4175
18.0082
10.8661
11.5575
29.1256
1.67015
23.7419
18.1182
2.60186
21.7144
-102.384
20.5749
12.201
1.46431
17.4506
15.1067
2.97806
0.85899
20.1509
11.4634
17.1609
17.5141
9.52942
20.3244
6.87958
10.4812
16.6706
28.4608
1.53177
23.0283
0.813092
0.709183
57.3567
18.662
17.5385
7.74971
-2.89119
18.0474
-88.366
0.355243
31.6457
11.6424
3.04769
16.1992
25.3784
-3.58813
-45.7224
17.0759
9.55796
13.9784
16.2066
6.98674
7.82226
0.94602
-31.2681
3.76616
15.5233
17.1279
-8.1711
-25.7316
14.9053
0.861548
8.78901
18.8872
18.1055
15.395
59.5796
6.59094
13.4718
13.3918
6.32127
-12.5996
44.4657
17.1238
28.1237
-0.750145
16.5264
16.7288
-36.6675
17.9966
50.2772
12.028
1.69214
15.3668
1.61
-13.8871
17.1095
5.15566
-31.7093
-37.1015
5.65815
44.2225
10.0021
25.5013
-101.65
14.5351
16.1636
25.0928
16.9891
18.1075
16.9654
15.1758
39.6988
19.7762
-78.0702
-109.271
15.9653
0.457614
1.37607
5.99236
2.05042
1.14955
19.5448
-7.68987
11.3508
12.9666
0.115698
11.3298
-118.016
-26.5409
10.6447
15.3305
-47.2373
-35.0084
17.8526
21.2874
-8.00489
2.59013
11.0166
2.50042
10.8048
18.0111
-53.0975
-30.7651
11.6915
9.61063
-52.9683
14.9358
49.0508
1.48188
12.5425
16.6437
1.50457
31.7964
-0.805397
16.259
16.2334
59.1555
-33.5918
-59.2798
8.90955
8.3102
-27.9362
16.5696
0.789413
16.673
26.42
17.3807
12.5409
14.9399
13.105
7.02886
9.71637
17.1295
0.140682
-1.77934
1.56672
5.90807
17.4281
1.28135
1.3525
1.26043
8.88932
22.4355
1.42594
1.9827
-1.33684
-31.1203
9.76122
6.48611
0.717216
-10.5037
52.1353
9.86767
11.9434
25.472
20.2529
-16.8599
-39.2989
16.572
-31.7515
4.18981
0.293296
21.3381
0.859128
9.88844
15.0089
13.5512
-58.9245
-1.80999
20.8683
8.50877
16.1145
-45.6449
0.951169
41.2611
-5.83094
16.3734
-117.537
11.2237
-77.7657
-65.4429
1.70206
33.3293
1.76021
11.4188
40.1538
12.0216
16.7039
1.14947
-7.71614
-9.27503
11.7708
17.0144
59.7751
1.25292
21.4492
-5.31651
-37.7578
13.6643
19.2918
3.15823
-57.3597
-46.7634
19.3194
13.3852
8.77488
11.0331
15.9752
-123.759
16.7119
8.48283
-98.7617
23.9455
17.2434
8.85562
23.7717
1.40711
8.47943
11.3853
18.6621
25.3722
15.3563
6.64017
2.04961
15.6821
9.47608
-64.636
18.5737
0.745265
12.8494
17.5461
1.07754
17.5697
1.08167
24.0663
1.20279
22.8222
11.4282
52.8777
10.0068
14.3158
10.7943
15.9985
20.7276
50.3125
9.75559
-72.0998
15.3355
14.9069
18.6309
17.0216
-61.8439
7.99533
7.93584
-26.1929
40.5275
14.4658
16.9557
35.1315
17.4157
9.55881
5.15653
-0.779777
16.3681
10.998
5.50309
48.5774
-3.7848
1.74159
-78.8927
21.8371
18.6505
19.402
-100.73
9.79413
11.9834
11.5149
-12.5496
16.4844
14.2736
0.748321
1.10222
7.05548
2.01488
16.4884
3.58395
15.421
15.0274
-26.687
1.95084
15.5992
0.921794
-90.6652
6.46587
-27.2496
-44.4051
-101.408
2.23834
1.55023
16.8663
0.554965
0.828914
-124.295
35.099
15.0513
14.8071
12.0204
11.7326
49.765
11.3053
-9.3689
18.7831
-70.8286
14.9841
1.37475
-45.5394
-113.979
10.7229
-61.9762
8.70383
2.75129
14.5017
1.63927
2.43445
10.3947
0.378596
1.10069
-6.67158
0.846045
16.1022
6.80984
-114.071
-33.9648
3.93827
16.61
-26.1237
-49.6894
12.6807
1.63826
15.7463
-5.70304
7.17925
1.56685
-73.9488
0.853103
-79.9155
20.2768
-89.3788
11.2692
4.88078
20.9663
1.31674
-117.559
-27.7226
47.4361
50.1951
3.28186
0.659895
17.2295
30.2854
16.7549
-0.328393
12.0729
-10.2111
17.2759
18.8252
21.9917
21.5016
-7.66986
-46.834
12.0937
-83.1402
0.292848
-11.2684
1.84411
-62.0632
-1.97208
18.7904
-124.363
9.67229
9.4386
23.3029
-53.0164
17.0492
18.2036
1.45026
17.7612
10.0183
14.3879
1.1607
35.9395
-26.1749
-51.7292
9.57978
-61.209
9.17196
-54.4782
16.8477
15.713
1.04089
3.99902
-93.4711
-1.73089
1.51057
-10.8419
-62.1713
-59.7676
18.3564
2.8403
-41.5815
-50.1853
17.0774
2.5666
-31.9088
22.8606
13.0643
36.4583
-40.0049
-0.293148
-9.6566
0.400913
9.12861
-90.1172
2.33603
10.5534
19.8805
47.0563
0.347984
44.0898
2.08989
17.4431
1.6596
1.51092
13.7759
12.4207
0.152922
1.37339
16.8138
2.38093
1.50186
2.60908
1.46657
1.95744
1.46994
8.18885
4.81703
15.8257
15.6885
-111.083
10.0779
-67.8649
-107.137
16.2154
0.504629
2.27192
19.1309
3.77148
1.36284
16.3503
17.0481
15.2639
5.53736
-37.6106
10.5432
26.5864
13.6615
14.0027
15.5776
5.4379
0.754582
13.5214
19.2391
9.62145
1.48792
13.9352
13.6019
-12.7293
12.8135
-0.329567
-3.37405
-4.24962
17.1637
20.0123
9.46179
22.5414
3.52555
2.79979
48.7373
-21.9223
-5.29434
21.9663
8.27802
1.30847
1.53175
-80.3691
-27.2186
20.9775
3.20105
10.398
0.629153
-21.1259
18.6862
12.0642
-27.3763
-82.5632
12.7383
-17.6617
-54.244
4.64425
-105.567
9.3637
9.5243
9.15573
-32.1075
13.9206
-81.0213
-2.28588
13.094
1.06825
17.263
-0.291269
14.9784
12.8502
31.781
2.97075
1.01554
14.8764
7.29794
0.853479
-46.6449
-30.4862
8.09767
-34.0417
4.79843
28.6976
1.49721
9.48397
-95.7704
9.97889
8.57177
14.4535
1.44487
52.1738
1.7468
8.18453
8.58925
1.43621
1.2132
13.6616
15.6821
15.9902
9.57535
10.2769
29.2886
-76.3711
8.64751
17.8492
-31.94
0.558393
-87.2027
13.7117
0.872289
17.7214
-55.3715
4.30738
-21.0697
1.03092
0.938093
2.85128
-106.25
20.5712
17.3222
6.60571
16.1206
-26.9473
-22.4508
-6.40279
10.0883
9.13033
5.03772
16.2941
-0.23385
0.838338
16.2205
23.2741
1.45327
-58.3899
20.9483
1.71348
20.5406
-8.33514
17.2633
36.3883
6.74001
29.5553
18.5172
-30.1882
-21.3807
-4.65875
19.0822
10.6645
-32.4963
16.1041
12.5591
4.5301
5.63126
0.866088
-30.7785
40.5483
3.19692
2.13434
0.999297
-89.648
9.6089
23.3982
15.733
0.825975
5.69227
-22.9762
14.4941
12.4291
6.20462
1.23309
-7.06697
15.2521
2.10992
11.0064
-21.0867
1.34608
39.0902
1.01727
0.12323
8.36796
57.3179
17.1018
16.7323
1.26562
10.2697
7.0036
8.90823
10.4901
-116.064
1.34004
-34.962
30.5824
17.5933
8.53411
19.3537
-6.23134
-10.9046
1.30607
3.97864
1.48553
12.9281
-2.59286
18.5814
-88.7726
16.78
6.77408
2.158
-3.46566
2.98272
-7.05484
10.6702
3.4432
0.738247
19.2637
-121.058
15.4318
17.1111
10.8688
-4.32276
18.9159
3.88185
-21.3851
15.6768
-13.8896
-97.6457
17.5048
8.96247
14.5939
-63.3655
-6.48972
15.833
42.8276
12.6257
9.1124
11.6513
-111.218
-126.334
16.572
-1.44954
-11.9458
1.464
17.8138
6.94181
-11.4482
13.8535
15.3766
-0.0291995
18.5512
19.6189
8.5942
14.9053
-3.02212
13.4174
-5.57402
23.2148
1.76893
-4.4396
42.703
1.22555
6.83189
21.9372
4.1415
-45.1776
24.5544
-83.9364
20.91
1.18078
-19.6849
10.1928
-9.6896
0.799225
12.9599
13.215
-93.7492
-40.1028
13.5444
-65.0949
-8.95878
53.671
-16.1094
-20.1716
21.4828
0.855597
5.9727
11.9516
-55.5369
-22.8453
-4.70544
-4.30504
-6.64043
1.03218
22.6485
19.1345
13.407
-121.862
-44.4647
27.5337
2.21043
-112.319
11.2431
14.4747
10.6888
1.22824
4.80851
1.29306
-14.8844
21.4372
-121.446
-17.301
-85.9759
-98.5858
18.859
25.3925
-43.751
26.2383
14.5895
12.3014
11.1869
10.4577
26.0933
17.9446
2.15348
-51.7028
-30.3298
24.6361
2.24895
3.55299
13.8476
1.53378
12.9389
-53.6415
1.29913
49.2408
1.05833
22.3057
11.681
18.6139
15.7364
-76.972
13.2476
44.7775
1.02771
0.777702
32.2888
61.1975
12.711
13.2871
25.095
-50.7263
-15.5927
17.2996
10.1145
-91.6819
27.4881
17.4239
-63.2363
15.7692
3.67568
1.47501
6.34132
-16.3314
53.7981
0.824129
-8.66
-0.362826
17.8324
0.277574
9.60597
14.9257
17.3108
12.3032
1.02482
17.3364
0.704097
30.2646
0.126842
11.398
10.4215
16.6796
8.47325
-49.9219
9.80698
18.1444
-29.4915
-70.9007
34.0956
1.58964
7.55049
16.7345
34.3643
-84.7989
9.56882
-3.03031
11.1696
16.3495
-88.4441
17.2154
9.84686
50.0097
29.884
-19.5797
4.4443
15.8789
17.1556
-66.7305
-4.51826
10.1969
14.9258
1.34527
17.5248
-128.021
7.38567
0.801526
10.6021
18.7733
0.00256229
14.763
23.0301
24.9468
4.65397
-0.644574
17.7698
20.709
17.4892
20.374
10.8448
18.201
-70.5988
2.57042
18.1268
-25.7273
14.1361
7.29647
19.6725
11.6752
-62.3243
10.8684
5.11349
18.8951
-20.8213
16.7372
-24.8088
-104.344
1.51444
1.15232
-47.7852
16.1913
18.4332
-21.488
-104.784
1.26712
-14.2706
15.9232
-82.8134
13.4242
16.6262
18.2615
-18.3447
7.06183
9.65683
-28.7504
17.4908
8.71932
-85.096
10.6655
-119.526
47.2096
11.7031
18.2599
6.42216
16.8189
-9.18009
-6.35596
20.144
-18.4168
5.79576
12.903
-38.2207
4.63116
17.592
-49.4072
14.9204
1.85076
-67.6029
-13.9176
17.2315
19.3548
14.7994
62.2265
8.74531
-2.37202
-23.9089
15.6526
-11.7933
15.4987
5.37503
15.5407
0.904816
9.95016
0.752816
-14.0127
58.9689
7.39791
59.3328
7.70087
12.8951
4.05205
20.0905
-9.44055
17.8361
11.1721
1.39382
59.8465
16.87
9.20693
-8.5247
0.724007
-109.09
15.9011
-5.65705
10.6296
-21.8625
-61.9584
1.11702
-73.626
9.60488
2.76817
-25.6357
18.372
15.7856
14.172
12.4154
21.4439
16.2406
12.8116
17.6735
1.33525
-68.3294
17.6429
20.2878
17.6905
8.01044
-73.2037
1.34525
-24.422
15.7386
-43.5168
0.948209
25.0662
-67.5091
17.0561
0.857041
40.1858
1.49576
22.8523
4.21827
1.66657
16.003
10.5308
-107.589
13.8295
-1.20935
-39.2949
1.42303
15.9142
11.0558
30.9589
2.79798
1.24867
-79.3227
15.9346
16.509
17.0343
-20.1043
-36.0338
14.0406
12.7796
15.1605
1.04828
1.62548
49.3321
0.390081
-65.8135
2.25285
-59.1916
0.519576
0.59881
32.36
50.9945
13.0899
60.128
45.493
18.378
17.6179
6.31387
14.544
18.5915
2.37904
1.88342
19.7165
1.81966
10.3259
19.208
9.09237
18.5466
28.8262
1.55266
-5.57362
-121.021
17.8766
12.1796
-50.7555
7.7273
22.4812
14.0762
11.033
2.1463
17.3928
-2.22628
1.3822
30.4207
12.8531
0.781269
16.8022
17.4749
15.6466
5.79982
15.5611
17.0421
-3.58052
18.546
20.6559
-76.5801
-28.7495
-18.6376
14.7874
1.45606
-50.8052
17.1122
1.56495
1.08771
-126.283
0.721963
16.7462
8.70882
31.4857
-1.11659
1.297
9.28788
46.4253
1.63316
16.1567
1.17076
16.6539
53.9323
14.243
-21.0018
16.8328
1.06027
-69.689
15.7272
42.3849
4.15209
13.1055
18.7799
29.5178
11.007
19.76
2.03931
16.1714
10.6771
-123.431
4.42725
18.681
20.0126
-65.2115
-82.4914
16.7788
18.1845
12.592
11.417
-59.6462
24.6732
-58.9748
17.8676
11.3511
17.3363
-12.0928
5.73137
17.502
0.570554
1.44897
-89.5369
-62.3686
8.26307
-2.76985
-74.8567
18.2964
18.44
18.4861
7.52635
18.9704
2.23505
18.253
9.60176
-1.73797
-25.2372
2.42259
12.7839
1.39214
36.3879
16.7416
19.6629
-104.316
15.6152
15.5793
20.1362
12.5045
-73.7836
-7.04452
1.65997
17.2476
17.0618
17.7338
-4.10788
20.2883
-17.8409
8.41903
8.91995
13.6054
9.59068
15.6358
11.0253
10.6941
9.80291
-1.7004
-10.5134
2.78382
-86.9011
11.9256
16.8196
0.958139
-91.4505
41.2984
1.37932
23.7642
16.0285
13.284
11.8966
16.6937
60.8359
-8.29011
0.926028
-95.0107
16.911
27.9424
-37.2352
3.58575
-51.7408
1.35482
31.0117
1.42085
16.7107
-22.9313
-13.3112
-38.2442
-8.59105
17.8428
1.49492
7.78817
22.5203
13.333
19.5496
8.87618
56.7644
20.5222
16.6788
43.963
10.8343
15.6735
18.4839
20.4104
-10.6549
1.38683
10.1737
11.7624
-16.6576
13.9498
9.48909
15.1473