/*--------------------------------*- C++ -*----------------------------------*\
| =========                 |                                                 |
| \\      /  F ield         | OpenFOAM: The Open Source CFD Toolbox           |
|  \\    /   O peration     | Version:  2.3.1                                 |
|   \\  /    A nd           | Web:      www.OpenFOAM.org                      |
|    \\/     M anipulation  |                                                 |
\*---------------------------------------------------------------------------*/
FoamFile
{
    version     2.0;
    format      ascii;
    class       surfaceScalarField;
    location    "0.68";
    object      phi;
}
// * * * * * * * * * * * * * * * * * * * * * * * * * * * * * * * * * * * * * //

dimensions      [0 3 -1 0 0 0 0];

internalField   nonuniform List<scalar> 
15416
(
-0.000698447
-3.72172e-06
0.000702877
-0.000695253
-3.19459e-06
-0.000692824
-2.42921e-06
-0.000691534
-1.2893e-06
-0.000691555
2.11147e-08
-0.000693218
1.66388e-06
-0.000697271
4.05433e-06
-0.000703854
6.58493e-06
-0.000713221
9.36939e-06
-0.000725678
1.24592e-05
-0.000741618
1.59421e-05
-0.000761242
1.96271e-05
-0.000784673
2.3435e-05
-0.000811983
2.73141e-05
-0.000843256
3.12786e-05
-0.000878411
3.51599e-05
-0.000917257
3.8852e-05
-0.000959587
4.23369e-05
-0.00100526
4.56803e-05
-0.00105395
4.87e-05
-0.0011054
5.14581e-05
-0.00115936
5.39661e-05
-0.00121547
5.61199e-05
-0.00127337
5.7913e-05
-0.00133283
5.94659e-05
-0.0013936
6.07815e-05
-0.00145539
6.18014e-05
-0.00151788
6.25056e-05
-0.00158086
6.29925e-05
-0.00164416
6.33036e-05
-0.00170747
6.33273e-05
-0.0017706
6.31465e-05
-0.00183347
6.28743e-05
-0.00189582
6.23651e-05
-0.00195747
6.16627e-05
-0.00201837
6.09098e-05
-0.0020784
6.00478e-05
-0.00213739
5.90055e-05
-0.00219512
5.77381e-05
-0.00225156
5.64551e-05
-0.00230671
5.51576e-05
-0.00236038
5.3683e-05
-0.00241246
5.20916e-05
-0.002463
5.05457e-05
-0.00251171
4.87215e-05
-0.00255857
4.68719e-05
-0.0026037
4.51315e-05
-0.00264708
4.33944e-05
-0.00268853
4.1451e-05
-0.00272801
3.94858e-05
-0.00276546
3.74551e-05
-0.00280106
3.56014e-05
-0.00283431
3.32525e-05
-0.00286567
3.13617e-05
-0.00289493
2.92627e-05
-0.00292245
2.75256e-05
-0.00294729
2.48393e-05
-0.00296987
2.2576e-05
-0.00299053
2.06703e-05
-0.00300946
1.8926e-05
1.72172e-05
-0.00302668
-0.000397404
-3.8696e-06
0.000397551
-0.000399219
-1.38197e-06
-0.000403466
1.81646e-06
-0.000410939
6.18199e-06
-0.000422871
1.19504e-05
-0.000438606
1.73966e-05
-0.000458249
2.36938e-05
-0.000481689
3.00223e-05
-0.000509497
3.71738e-05
-0.000541225
4.41841e-05
-0.000577053
5.1767e-05
-0.000616839
5.94098e-05
-0.000660479
6.70725e-05
-0.000707851
7.46829e-05
-0.00075866
8.20853e-05
-0.000812773
8.92702e-05
-0.00086993
9.60079e-05
-0.000929924
0.000102329
-0.000992404
0.000108159
-0.00105717
0.000113464
-0.00112401
0.000118294
-0.00119248
0.000122438
-0.0012624
0.000126038
-0.00133355
0.000129063
-0.00140562
0.000131539
-0.00147838
0.000133538
-0.00155148
0.000134911
-0.00162489
0.000135916
-0.0016983
0.000136398
-0.00177138
0.000136384
-0.00184414
0.000136096
-0.00191643
0.000135438
-0.00198786
0.000134299
-0.00205839
0.000132896
-0.00212802
0.000131299
-0.00219637
0.000129264
-0.00226347
0.000127149
-0.00232918
0.000124717
-0.0023935
0.000122053
-0.00245621
0.000119165
-0.00251701
0.00011596
-0.00257618
0.00011286
-0.00263354
0.000109449
-0.0026888
0.000105817
-0.00274216
0.00010208
-0.00279342
9.81282e-05
-0.00284264
9.43575e-05
-0.0028894
9.01587e-05
-0.00293409
8.61389e-05
-0.00297661
8.20117e-05
-0.003017
7.78452e-05
-0.00305555
7.41579e-05
-0.00309064
6.83418e-05
-0.00312503
6.57573e-05
-0.00315561
5.98386e-05
-0.00318463
5.65519e-05
-0.0032093
4.95082e-05
-0.0032338
4.70719e-05
-0.003256
4.28795e-05
-0.00327604
3.89603e-05
3.29003e-05
-0.00329172
-0.000252272
3.68668e-06
0.000244715
-0.00026323
9.57489e-06
-0.000278402
1.69877e-05
-0.00029786
2.56386e-05
-0.000321004
3.50931e-05
-0.000348665
4.50558e-05
-0.000380382
5.54075e-05
-0.000416427
6.60654e-05
-0.000456707
7.74505e-05
-0.000501315
8.87899e-05
-0.000549983
0.000100432
-0.000602337
0.000111762
-0.000658505
0.000123238
-0.000718113
0.000134289
-0.000780966
0.000144936
-0.000846784
0.000155087
-0.00091535
0.000164573
-0.000986392
0.00017337
-0.00105959
0.000181358
-0.00113479
0.000188665
-0.00121154
0.000195037
-0.00128975
0.000200647
-0.00136912
0.000205412
-0.0014494
0.000209341
-0.00153029
0.000212429
-0.00161155
0.000214801
-0.00169303
0.000216384
-0.00177444
0.000217327
-0.00185551
0.000217466
-0.00193634
0.000217214
-0.00201646
0.000216219
-0.00209567
0.000214647
-0.00217416
0.000212789
-0.00225145
0.000210189
-0.00232746
0.000207304
-0.00240214
0.000203944
-0.00247532
0.00020033
-0.00254685
0.00019625
-0.00261669
0.000191896
-0.00268474
0.000187213
-0.00275103
0.000182258
-0.00281502
0.000176847
-0.00287707
0.000171504
-0.00293694
0.000165688
-0.00299462
0.00015976
-0.00305012
0.000153635
-0.00310321
0.000147443
-0.00315399
0.000140939
-0.0032022
0.000134357
-0.00324861
0.000128426
-0.00329132
0.000120554
-0.00333142
0.000114268
-0.0033699
0.000106819
-0.00340607
0.000101927
-0.00344008
9.38515e-05
-0.00346979
8.62729e-05
-0.00349936
7.90726e-05
-0.00352459
7.23049e-05
-0.00354758
6.58756e-05
-0.0035663
5.76813e-05
5.1511e-05
-0.00358491
-0.000181234
1.89208e-05
0.000165999
-0.00020086
2.92011e-05
-0.000224817
4.09443e-05
-0.000253023
5.38435e-05
-0.00028555
6.76184e-05
-0.000322513
8.20171e-05
-0.000363813
9.67056e-05
-0.000409793
0.000112042
-0.000460022
0.000127677
-0.0005146
0.000143365
-0.000573101
0.00015893
-0.000635712
0.000174369
-0.000702013
0.000189537
-0.000771592
0.000203865
-0.00084439
0.000217731
-0.000920058
0.000230751
-0.000998311
0.000242823
-0.00107885
0.000253908
-0.00116146
0.000263966
-0.00124573
0.00027293
-0.00133164
0.000280942
-0.00141868
0.000287692
-0.00150678
0.000293504
-0.00159559
0.000298152
-0.00168494
0.000301777
-0.00177441
0.000304264
-0.00186388
0.000305861
-0.00195318
0.000306621
-0.00204216
0.000306442
-0.00213034
0.000305396
-0.00221782
0.000303695
-0.00230446
0.000301285
-0.00238972
0.000298054
-0.00247383
0.000294292
-0.00255656
0.000290037
-0.00263776
0.000285142
-0.0027171
0.00027967
-0.00279475
0.000273901
-0.00287049
0.000267635
-0.00294435
0.000261074
-0.00301591
0.000253811
-0.00308554
0.000246479
-0.00315259
0.000238556
-0.00321742
0.00023052
-0.00327975
0.000222087
-0.00333957
0.000213452
-0.00339682
0.000204698
-0.00345181
0.000195931
-0.00350344
0.000185982
-0.00355251
0.000177504
-0.00360017
0.000168215
-0.00364372
0.000157821
-0.00368505
0.000148145
-0.00372224
0.000139117
-0.00375906
0.000130678
-0.00379174
0.000118949
-0.00382214
0.000109478
-0.00385029
0.000100461
-0.00387424
8.98244e-05
-0.00389593
7.9375e-05
6.90001e-05
-0.00391342
-0.000148166
4.10287e-05
0.000126058
-0.000174487
5.55228e-05
-0.000205461
7.19174e-05
-0.000241136
8.95176e-05
-0.000281492
0.000107973
-0.000326696
0.00012722
-0.000376901
0.000146908
-0.000431578
0.000166716
-0.000490958
0.000187054
-0.000554666
0.00020707
-0.000622744
0.000227004
-0.000694886
0.000246508
-0.000770569
0.000265217
-0.000849831
0.000283123
-0.000932468
0.000300365
-0.00101748
0.000315756
-0.00110516
0.000330503
-0.00119508
0.000343823
-0.00128686
0.000355745
-0.00138035
0.000366423
-0.00147521
0.000375796
-0.00157132
0.000383795
-0.00166826
0.000390449
-0.00176579
0.000395676
-0.00186352
0.000399501
-0.00196152
0.000402259
-0.00205928
0.000403623
-0.00215666
0.000403995
-0.00225347
0.00040325
-0.0023496
0.000401524
-0.00244473
0.000398827
-0.00253863
0.000395185
-0.00263131
0.00039073
-0.00272259
0.000385569
-0.00281213
0.000379572
-0.00289987
0.000372888
-0.00298601
0.000365804
-0.00306999
0.000357882
-0.00315186
0.000349501
-0.00323139
0.00034061
-0.00330888
0.000331298
-0.00338381
0.000321405
-0.00345634
0.000311085
-0.00352621
0.000300396
-0.00359342
0.000289291
-0.00365857
0.000278607
-0.00371895
0.000265078
-0.00377726
0.000254242
-0.0038339
0.000242617
-0.00388656
0.000230164
-0.00393691
0.000218568
-0.00398505
0.000205963
-0.0040292
0.000192297
-0.00407108
0.000181002
-0.00410696
0.000166555
-0.00414237
0.000154366
-0.00417555
0.000142652
-0.00420452
0.000129436
-0.00422932
0.00011463
-0.00425385
0.00010391
8.93492e-05
-0.0042742
-0.000134094
6.94542e-05
0.000105669
-0.000167211
8.86406e-05
-0.000205133
0.000109838
-0.0002484
0.000132784
-0.000296898
0.000156469
-0.000350441
0.000180761
-0.000409033
0.000205498
-0.000472822
0.000230502
-0.000541301
0.00025553
-0.00061469
0.000280456
-0.000692487
0.000304797
-0.000774228
0.000328246
-0.000859939
0.000350925
-0.000948826
0.000372006
-0.0010407
0.000392234
-0.00113558
0.000410635
-0.00123297
0.000427885
-0.00133268
0.000443538
-0.00143405
0.000457112
-0.00153695
0.000469315
-0.00164131
0.000480151
-0.00174653
0.000489018
-0.00185266
0.000496574
-0.00195928
0.000502292
-0.00206614
0.000506354
-0.00217282
0.000508935
-0.00227926
0.000510069
-0.00238513
0.000509855
-0.00249029
0.000508413
-0.00259457
0.000505804
-0.00269773
0.000501982
-0.00279944
0.000496891
-0.00289974
0.000491031
-0.00299843
0.000484255
-0.00309518
0.000476322
-0.00319009
0.000467788
-0.00328281
0.000458528
-0.00337337
0.000448439
-0.00346174
0.000437866
-0.00354782
0.000426687
-0.00363111
0.00041459
-0.0037119
0.000402196
-0.00378984
0.000389018
-0.00386452
0.000375074
-0.00393664
0.000361416
-0.0040061
0.000348063
-0.0040735
0.000332477
-0.00413685
0.000317591
-0.00419621
0.000301981
-0.0042533
0.00028725
-0.00430639
0.000271657
-0.00435538
0.000254959
-0.00440391
0.000240826
-0.00444662
0.000223711
-0.0044889
0.000208835
-0.00452704
0.00019251
-0.00455902
0.000174632
-0.0045887
0.000159114
-0.00461816
0.000144088
-0.00464154
0.000127296
0.000110521
-0.00466271
-0.000133579
0.000104071
9.89607e-05
-0.000173612
0.000128674
-0.000219121
0.000155347
-0.000270443
0.000184106
-0.000327141
0.000213166
-0.000389613
0.000243232
-0.000457496
0.000273378
-0.000530525
0.00030353
-0.000608954
0.000333956
-0.000691873
0.000363372
-0.000779689
0.00039261
-0.000871782
0.000420336
-0.000967447
0.000446586
-0.00106642
0.00047098
-0.00116902
0.000494829
-0.00127433
0.000515938
-0.00138178
0.000535331
-0.00149154
0.000553298
-0.00160292
0.000568492
-0.00171595
0.000582341
-0.00183018
0.000594376
-0.00194529
0.000604121
-0.00206125
0.000612537
-0.00217753
0.000618565
-0.00229379
0.000622611
-0.00240988
0.000625026
-0.00252525
0.00062543
-0.0026402
0.000624801
-0.00275428
0.000622499
-0.00286704
0.000618558
-0.00297869
0.000613624
-0.00308876
0.000606963
-0.00319683
0.000599097
-0.00330325
0.000590669
-0.00340779
0.000580859
-0.00350989
0.000569888
-0.00360988
0.000558513
-0.00370735
0.000545909
-0.00380226
0.000532774
-0.00389458
0.000519002
-0.00398431
0.000504324
-0.00407045
0.000488333
-0.00415429
0.000472862
-0.00423496
0.000455743
-0.00431286
0.000439316
-0.00438675
0.000421948
-0.00445672
0.00040245
-0.00452427
0.000385137
-0.0045895
0.000367213
-0.00464897
0.000346715
-0.00470617
0.000328861
-0.00476109
0.000309874
-0.00481021
0.00028995
-0.00485722
0.000270723
-0.00490019
0.000251799
-0.00493891
0.000231231
-0.00497712
0.000212844
-0.00500921
0.000191204
-0.00503732
0.000172194
-0.00506143
0.000151411
0.000132396
-0.00508331
-0.000144012
0.000145065
0.000103018
-0.00019134
0.000176001
-0.000244708
0.000208714
-0.000304908
0.000244305
-0.000370874
0.000279131
-0.000442656
0.000315012
-0.000520364
0.000351084
-0.000603052
0.000386215
-0.000691796
0.000422698
-0.000785177
0.00045675
-0.000884143
0.000491573
-0.000986744
0.000522934
-0.00109401
0.000553853
-0.0012036
0.000580563
-0.00131664
0.000607864
-0.00143322
0.000632514
-0.00155172
0.000653832
-0.00167231
0.000673883
-0.00179499
0.000691162
-0.001918
0.000705352
-0.00204305
0.000719423
-0.0021683
0.000729371
-0.00229501
0.000739243
-0.00242184
0.000745392
-0.0025481
0.000748858
-0.0026744
0.000751331
-0.00279922
0.000750241
-0.00292359
0.000749164
-0.00304716
0.000746069
-0.00316863
0.000740029
-0.00328942
0.000734408
-0.00340838
0.00072592
-0.00352465
0.000715367
-0.00363932
0.000705333
-0.00375216
0.000693692
-0.00386161
0.000679341
-0.00396903
0.000665926
-0.00407375
0.000650627
-0.00417504
0.000634066
-0.00427404
0.000617995
-0.00437055
0.000600837
-0.00446418
0.000581955
-0.00455213
0.000560814
-0.00463933
0.000542943
-0.00472149
0.000521473
-0.00479923
0.000499688
-0.00487663
0.000479849
-0.00494771
0.000456211
-0.00501519
0.000434701
-0.00507981
0.000411337
-0.0051393
0.00038835
-0.00519611
0.000366681
-0.00524892
0.000342764
-0.00529998
0.000321785
-0.00534542
0.00029724
-0.0053881
0.000273905
-0.00542477
0.000249515
-0.00545674
0.000223169
-0.00548699
0.000202448
-0.00551371
0.000178128
0.00015467
-0.00553598
-0.00016314
0.000116531
0.00019168
-0.00021901
0.000231881
-0.000279577
0.000269287
-0.000350172
0.000314907
-0.000425357
0.000354322
-0.000507486
0.000397145
-0.000595854
0.000439455
-0.000687652
0.000478015
-0.000789177
0.000524226
-0.000891896
0.000559468
-0.00100442
0.0006041
-0.00111699
0.000635503
-0.0012392
0.000676064
-0.00135742
0.000698781
-0.00148322
0.000733655
-0.00161253
0.000761826
-0.00174076
0.000782067
-0.00187481
0.000807932
-0.00200882
0.000825162
-0.00214211
0.00083864
-0.00228194
0.000859256
-0.00241585
0.000863276
-0.00255508
0.00087847
-0.00269351
0.000883822
-0.00282998
0.000885323
-0.00296894
0.000890291
-0.00310225
0.000883548
-0.00323723
0.000884135
-0.00337198
0.000880823
-0.00350143
0.000869476
-0.00363275
0.000865728
-0.0037608
0.000853967
-0.00388531
0.000839874
-0.00400868
0.000828699
-0.00413197
0.000816979
-0.00424699
0.000794358
-0.00436365
0.000782581
-0.00447576
0.000762733
-0.00458304
0.00074135
-0.00469084
0.000725794
-0.0047906
0.000700593
-0.00489107
0.00068243
-0.00498551
0.00065525
-0.0050766
0.000634033
-0.00516672
0.000611589
-0.00524932
0.000582284
-0.00533069
0.000561224
-0.00540497
0.000530491
-0.00547722
0.000506949
-0.00554325
0.000477368
-0.00560923
0.000454326
-0.00566814
0.000425594
-0.00572391
0.000398532
-0.00577577
0.000373642
-0.00582527
0.000346744
-0.00586685
0.00031548
-0.00590688
0.000289548
-0.00594038
0.000256672
-0.00597125
0.000233322
-0.00599865
0.000205524
-0.00602035
0.000176367
-0.00304031
1.36304e-05
-0.00305211
1.18069e-05
-0.00306223
1.01147e-05
-0.00307046
8.23489e-06
-0.00307644
5.97709e-06
-0.0030798
3.35725e-06
-0.00308141
1.60803e-06
-0.00308092
-4.87393e-07
-0.00307845
-2.47824e-06
-0.00307354
-4.91236e-06
-0.00306673
-6.80448e-06
-0.00305789
-8.84443e-06
-0.00304698
-1.09129e-05
-0.003034
-1.29806e-05
-0.00301926
-1.47412e-05
-0.00300268
-1.6587e-05
-0.00298407
-1.86138e-05
-0.00296341
-2.06631e-05
-0.00294104
-2.23684e-05
-0.00291679
-2.42505e-05
-0.00289075
-2.60462e-05
-0.00286308
-2.76724e-05
-0.00283366
-2.94198e-05
-0.0028024
-3.12556e-05
-0.00276951
-3.28965e-05
-0.00273523
-3.42843e-05
-0.00269928
-3.59487e-05
-0.00266166
-3.76194e-05
-0.0026225
-3.91616e-05
-0.00258196
-4.05444e-05
-0.00253992
-4.20373e-05
-0.00249644
-4.34859e-05
-0.0024517
-4.47351e-05
-0.00240565
-4.60517e-05
-0.00235827
-4.73825e-05
-0.00230973
-4.85444e-05
-0.00226009
-4.96392e-05
-0.00220932
-5.07671e-05
-0.00215735
-5.19685e-05
-0.00210435
-5.30052e-05
-0.00205045
-5.3901e-05
-0.00199561
-5.48363e-05
-0.00193985
-5.5758e-05
-0.00188334
-5.6511e-05
-0.00182593
-5.74103e-05
-0.00176771
-5.82226e-05
-0.00170886
-5.88555e-05
-0.00164945
-5.94035e-05
-0.00158938
-6.00729e-05
-0.00152874
-6.06417e-05
-0.00146765
-6.10913e-05
-0.00140623
-6.14264e-05
-0.00134428
-6.19459e-05
-0.00128211
-6.2169e-05
-0.00121971
-6.24068e-05
-0.00115728
-6.24328e-05
-0.00109455
-6.27253e-05
-0.00103177
-6.27808e-05
-0.000969116
-6.26564e-05
-0.000906661
-6.24562e-05
-6.22172e-05
-0.000844445
-0.00330726
2.91731e-05
-0.0033182
2.27489e-05
-0.00332714
1.90526e-05
-0.00333385
1.49489e-05
-0.00334043
1.25589e-05
-0.00334281
5.74245e-06
-0.00334364
2.43656e-06
-0.00334067
-3.45704e-06
-0.00333705
-6.09521e-06
-0.00332984
-1.21245e-05
-0.00332079
-1.5855e-05
-0.00330943
-2.02014e-05
-0.00329601
-2.4332e-05
-0.00328072
-2.82706e-05
-0.00326296
-3.24988e-05
-0.00324315
-3.63931e-05
-0.00322121
-4.05557e-05
-0.00319731
-4.45605e-05
-0.00317118
-4.84998e-05
-0.00314311
-5.23214e-05
-0.00311326
-5.58903e-05
-0.00308121
-5.97256e-05
-0.00304723
-6.33955e-05
-0.0030115
-6.69861e-05
-0.00297393
-7.04677e-05
-0.00293451
-7.37089e-05
-0.00289327
-7.7183e-05
-0.00285054
-8.03514e-05
-0.00280613
-8.35711e-05
-0.00275989
-8.67881e-05
-0.00271221
-8.97162e-05
-0.00266314
-9.25577e-05
-0.00261238
-9.54861e-05
-0.0025602
-9.82368e-05
-0.00250678
-0.000100798
-0.00245187
-0.000103455
-0.00239567
-0.00010584
-0.00233821
-0.000108225
-0.00227965
-0.000110531
-0.00221991
-0.000112742
-0.00215888
-0.000114935
-0.00209693
-0.00011678
-0.00203403
-0.000118666
-0.00197005
-0.000120492
-0.00190524
-0.00012222
-0.00183955
-0.000123912
-0.0017731
-0.000125305
-0.00170572
-0.000126779
-0.00163777
-0.000128026
-0.00156922
-0.000129192
-0.0015001
-0.000130215
-0.00143062
-0.000130907
-0.00136016
-0.000132404
-0.00128995
-0.000132377
-0.00121881
-0.00013355
-0.00114769
-0.000133556
-0.00107576
-0.000134658
-0.00100445
-0.000134094
-0.000933084
-0.00013402
-0.000861736
-0.000133804
-0.000133998
-0.000789956
-0.00359917
4.34301e-05
-0.00361354
3.7127e-05
-0.00362344
2.89571e-05
-0.00363107
2.25746e-05
-0.0036344
1.58919e-05
-0.00363785
9.18952e-06
-0.00363689
1.48193e-06
-0.00363387
-6.47141e-06
-0.00362856
-1.14094e-05
-0.00362154
-1.9145e-05
-0.00361204
-2.53521e-05
-0.00359879
-3.34487e-05
-0.00358383
-3.9294e-05
-0.00356623
-4.58661e-05
-0.00354632
-5.24122e-05
-0.00352399
-5.87216e-05
-0.00349948
-6.50602e-05
-0.00347276
-7.12782e-05
-0.00344378
-7.74852e-05
-0.00341282
-8.32761e-05
-0.00337936
-8.93531e-05
-0.00334398
-9.51033e-05
-0.00330656
-0.000100816
-0.00326713
-0.000106412
-0.00322565
-0.000111952
-0.00318215
-0.00011721
-0.00313682
-0.000122509
-0.00308959
-0.000127584
-0.00304039
-0.000132766
-0.00298976
-0.000137422
-0.00293724
-0.000142235
-0.00288292
-0.000146879
-0.0028273
-0.000151107
-0.00276997
-0.00015556
-0.00271109
-0.000159678
-0.0026508
-0.000163749
-0.00258905
-0.000167593
-0.00252587
-0.000171402
-0.00246141
-0.000174994
-0.00239571
-0.000178444
-0.00232893
-0.000181711
-0.00226075
-0.000184959
-0.00219163
-0.000187791
-0.00212142
-0.000190698
-0.00205026
-0.000193381
-0.00197822
-0.000195956
-0.00190524
-0.00019828
-0.00183147
-0.000200557
-0.00175686
-0.000202632
-0.0016819
-0.000204154
-0.00160565
-0.000206465
-0.00152882
-0.000207743
-0.00145185
-0.000209372
-0.00137452
-0.000209711
-0.0012969
-0.000211162
-0.00121838
-0.000212082
-0.00114045
-0.000212586
-0.00106183
-0.000212718
-0.000983237
-0.000212609
-0.000904234
-0.000212808
-0.000212347
-0.000825886
-0.00393063
6.06472e-05
-0.00394375
5.02388e-05
-0.00395457
3.97836e-05
-0.00396113
2.91333e-05
-0.00396549
2.0259e-05
-0.00396743
1.11267e-05
-0.00396496
-9.83498e-07
-0.00396257
-8.86216e-06
-0.00395613
-1.78536e-05
-0.00394765
-2.76234e-05
-0.0039349
-3.81002e-05
-0.00392095
-4.7398e-05
-0.00390448
-5.5764e-05
-0.00388458
-6.57666e-05
-0.00386248
-7.45144e-05
-0.00383782
-8.3376e-05
-0.00381066
-9.2224e-05
-0.00378095
-0.000100981
-0.00374902
-0.000109421
-0.0037144
-0.000117899
-0.00367782
-0.000125924
-0.00363873
-0.000134201
-0.00359754
-0.000142006
-0.00355412
-0.00014983
-0.00350867
-0.000157399
-0.00346084
-0.00016504
-0.00341098
-0.000172368
-0.00335918
-0.000179388
-0.00330557
-0.000186378
-0.0032497
-0.000193286
-0.00319215
-0.000199791
-0.00313294
-0.000206087
-0.0030717
-0.00021235
-0.00300893
-0.000218329
-0.00294456
-0.000224048
-0.00287862
-0.000229685
-0.00281094
-0.000235277
-0.00274187
-0.000240467
-0.00267138
-0.000245486
-0.00259963
-0.000250196
-0.00252639
-0.000254951
-0.00245217
-0.000259176
-0.00237656
-0.000263404
-0.00229995
-0.000267314
-0.00222221
-0.000271117
-0.00214344
-0.000274731
-0.0020637
-0.000278015
-0.00198325
-0.000281008
-0.00190162
-0.000284261
-0.00181927
-0.000286503
-0.00173687
-0.000288864
-0.00165316
-0.000291455
-0.00156909
-0.000293443
-0.00148395
-0.000294847
-0.00139931
-0.000295809
-0.00131385
-0.000297538
-0.00122831
-0.000298132
-0.00114281
-0.000298218
-0.0010568
-0.000298615
-0.000970987
-0.000298622
-0.000298445
-0.000884889
-0.00429032
7.67679e-05
-0.00430225
6.21728e-05
-0.00431393
5.14682e-05
-0.00432142
3.66224e-05
-0.0043247
2.35393e-05
-0.00432566
1.20903e-05
-0.00432677
1.23393e-07
-0.0043213
-1.43241e-05
-0.00431373
-2.54246e-05
-0.00430224
-3.91157e-05
-0.00428866
-5.16787e-05
-0.00427289
-6.31684e-05
-0.00425309
-7.55658e-05
-0.00423181
-8.70433e-05
-0.00420867
-9.76558e-05
-0.0041805
-0.000111542
-0.0041504
-0.00012232
-0.00411763
-0.000133757
-0.00408215
-0.000144895
-0.00404432
-0.000155734
-0.00400382
-0.000166417
-0.00396122
-0.000176806
-0.00391601
-0.000187211
-0.00386837
-0.000197471
-0.00381815
-0.000207614
-0.00376596
-0.000217236
-0.00371147
-0.000226859
-0.00365465
-0.000236202
-0.00359575
-0.000245278
-0.00353491
-0.000254125
-0.00347193
-0.000262774
-0.00340692
-0.000271094
-0.00334017
-0.000279104
-0.00327164
-0.00028685
-0.00320123
-0.000294459
-0.00312901
-0.000301906
-0.00305539
-0.000308896
-0.00297993
-0.000315926
-0.00290293
-0.000322494
-0.00282433
-0.000328794
-0.00274457
-0.000334709
-0.00266338
-0.000340363
-0.00258106
-0.000345726
-0.00249748
-0.000350897
-0.00241276
-0.000355837
-0.00232731
-0.000360183
-0.00223965
-0.000365674
-0.00215152
-0.000369131
-0.00206318
-0.000372602
-0.00197344
-0.000376249
-0.00188321
-0.000379089
-0.00179264
-0.000382031
-0.00170096
-0.000385117
-0.00160898
-0.000386824
-0.00151537
-0.000389421
-0.00142238
-0.000390534
-0.00132935
-0.00039116
-0.00123584
-0.000391723
-0.00114193
-0.000392531
-0.00104881
-0.000391745
-0.000391852
-0.000955398
-0.00467969
9.37505e-05
-0.00469447
7.69555e-05
-0.00470308
6.00754e-05
-0.00471147
4.50146e-05
-0.00471765
2.97246e-05
-0.00471769
1.21313e-05
-0.00471363
-3.9436e-06
-0.0047093
-1.86452e-05
-0.00469899
-3.57354e-05
-0.00468849
-4.96212e-05
-0.00467393
-6.62333e-05
-0.00465536
-8.17385e-05
-0.00463467
-9.62554e-05
-0.00461003
-0.000111677
-0.00458138
-0.000126312
-0.00455081
-0.000142111
-0.00451764
-0.00015549
-0.00448197
-0.000169424
-0.00444296
-0.000183906
-0.00440117
-0.000197517
-0.0043569
-0.000210687
-0.0043097
-0.000224001
-0.00426
-0.000236919
-0.00420778
-0.000249685
-0.0041531
-0.000262296
-0.0040957
-0.000274632
-0.0040361
-0.000286463
-0.003974
-0.000298295
-0.0039096
-0.000309679
-0.00384313
-0.000320593
-0.00377431
-0.000331599
-0.00370333
-0.00034207
-0.00363044
-0.000351999
-0.00355569
-0.000361591
-0.00347881
-0.000371339
-0.00340026
-0.000380463
-0.00331965
-0.0003895
-0.00323731
-0.000398265
-0.00315341
-0.000406402
-0.00306798
-0.000414223
-0.0029808
-0.000421885
-0.00289239
-0.000428779
-0.0028026
-0.000435516
-0.00271127
-0.000442227
-0.00261902
-0.000448084
-0.00252563
-0.000453571
-0.00243175
-0.000459557
-0.00233618
-0.000464703
-0.00223933
-0.000469445
-0.00214199
-0.000473591
-0.00204343
-0.000477653
-0.00194382
-0.000481635
-0.00184459
-0.00048435
-0.00174376
-0.000487657
-0.00164327
-0.000489907
-0.00154215
-0.000491658
-0.00143972
-0.000493581
-0.00133767
-0.000493776
-0.00123629
-0.000493909
-0.00113428
-0.000493754
-0.000493591
-0.00103254
-0.00510104
0.000111478
-0.00511655
9.24655e-05
-0.00512795
7.14792e-05
-0.0051352
5.22689e-05
-0.00513638
3.09068e-05
-0.00513744
1.31863e-05
-0.00513432
-7.06098e-06
-0.00512708
-2.58813e-05
-0.00511775
-4.50642e-05
-0.00510261
-6.4756e-05
-0.00508543
-8.34141e-05
-0.00506603
-0.000101139
-0.00504074
-0.000121549
-0.00501341
-0.000138998
-0.00498411
-0.000155619
-0.00495082
-0.0001754
-0.00491348
-0.000192821
-0.00487331
-0.0002096
-0.00482994
-0.000227268
-0.00478469
-0.000242773
-0.00473573
-0.000259643
-0.00468424
-0.000275487
-0.00462986
-0.000291304
-0.00457256
-0.000306986
-0.00451246
-0.000322391
-0.00444971
-0.00033738
-0.00438426
-0.000351915
-0.00431653
-0.000366022
-0.00424643
-0.000379775
-0.00417375
-0.000393277
-0.00409861
-0.000406736
-0.00402133
-0.000419352
-0.00394167
-0.00043166
-0.00386018
-0.000443076
-0.00377668
-0.000454836
-0.00369105
-0.000466098
-0.0036034
-0.000477143
-0.00351369
-0.000487975
-0.00342216
-0.000497931
-0.00332886
-0.000507529
-0.00323403
-0.00051671
-0.00313723
-0.000525578
-0.00303964
-0.00053311
-0.00294075
-0.000541118
-0.00284084
-0.000547986
-0.00273895
-0.000555462
-0.00263569
-0.000562816
-0.00253179
-0.000568604
-0.00242765
-0.000573589
-0.00232128
-0.000579959
-0.00221447
-0.000584465
-0.00210748
-0.000588623
-0.00199863
-0.000593198
-0.00188968
-0.000596606
-0.00177961
-0.000599974
-0.00166908
-0.000602189
-0.00155905
-0.000603615
-0.00144835
-0.000604474
-0.00133724
-0.000605015
-0.00122627
-0.000604719
-0.000604316
-0.00111555
-0.00555431
0.000129803
-0.00556827
0.000106429
-0.00557842
8.16307e-05
-0.00558621
6.0058e-05
-0.0055902
3.49002e-05
-0.00558835
1.13329e-05
-0.00558448
-1.09338e-05
-0.0055742
-3.6157e-05
-0.00556189
-5.73752e-05
-0.00554617
-8.04649e-05
-0.00552835
-0.000101236
-0.00550458
-0.000124913
-0.00547844
-0.000147685
-0.00544858
-0.000168852
-0.00541338
-0.000190824
-0.00537753
-0.000211247
-0.00533777
-0.000232578
-0.00529201
-0.000255359
-0.00524579
-0.000273487
-0.00519461
-0.000293948
-0.00514022
-0.000314038
-0.00508383
-0.000331878
-0.00502464
-0.000350488
-0.00496176
-0.000369864
-0.00489596
-0.000388187
-0.00482719
-0.000406153
-0.00475568
-0.000423423
-0.00468153
-0.00044017
-0.00460485
-0.000456461
-0.00452565
-0.000472476
-0.00444358
-0.000488806
-0.00435948
-0.000503446
-0.00427275
-0.000518395
-0.00418462
-0.000531207
-0.0040938
-0.000545656
-0.00400076
-0.000559133
-0.00390561
-0.000572292
-0.00380792
-0.00058567
-0.00370796
-0.000597884
-0.00360654
-0.000608952
-0.00350352
-0.000619726
-0.00339869
-0.000630415
-0.00329167
-0.000640126
-0.00318482
-0.000647965
-0.00307576
-0.000657052
-0.00296451
-0.000666708
-0.00285398
-0.000673348
-0.00274066
-0.000681922
-0.00262709
-0.000687155
-0.00251261
-0.000694447
-0.00239606
-0.000701012
-0.00227973
-0.000704955
-0.00216208
-0.000710842
-0.00204454
-0.000714143
-0.00192459
-0.000719924
-0.00180526
-0.000721524
-0.0016843
-0.000724565
-0.00156407
-0.000724706
-0.00144362
-0.000725469
-0.00132369
-0.000724643
-0.000724932
-0.00120308
-0.00603922
0.000148678
-0.00605286
0.000120064
-0.00606342
9.21902e-05
-0.00606719
6.38346e-05
-0.00606977
3.74726e-05
-0.00606853
1.00929e-05
-0.00606284
-1.66235e-05
-0.00605234
-4.66557e-05
-0.00603661
-7.30995e-05
-0.00602025
-9.68318e-05
-0.00599785
-0.00012363
-0.00597185
-0.000150917
-0.00594347
-0.000176064
-0.00590821
-0.000204111
-0.0058737
-0.000225329
-0.00583195
-0.000252989
-0.00578586
-0.000278675
-0.00573842
-0.000302792
-0.00568436
-0.00032755
-0.00562931
-0.000348998
-0.00557166
-0.000371683
-0.0055082
-0.000395342
-0.00544475
-0.000413934
-0.00537558
-0.000439031
-0.00530284
-0.000460921
-0.00522853
-0.000480462
-0.0051494
-0.000502557
-0.00506929
-0.000520284
-0.0049837
-0.000542042
-0.00489948
-0.000556695
-0.00480792
-0.000580375
-0.00471792
-0.000593437
-0.00462184
-0.000614475
-0.00452802
-0.000625032
-0.0044298
-0.000643873
-0.00432851
-0.000660422
-0.00422653
-0.000674277
-0.00411956
-0.000692641
-0.00401046
-0.000706977
-0.00390192
-0.000717499
-0.003788
-0.000733644
-0.00367267
-0.000745742
-0.00355864
-0.000754154
-0.00343977
-0.000766836
-0.00332494
-0.000771883
-0.00320233
-0.000789323
-0.00308345
-0.000792222
-0.00295862
-0.000806751
-0.00283796
-0.000807815
-0.00271398
-0.000818425
-0.00258711
-0.000827882
-0.00246338
-0.000828684
-0.00233432
-0.000839902
-0.00220858
-0.000839882
-0.00207589
-0.000852611
-0.00194822
-0.000849194
-0.00181417
-0.000858615
-0.00168785
-0.000851028
-0.00155442
-0.000858891
-0.00142682
-0.000852251
-0.00129263
-0.000859115
-0.000782032
-6.24141e-05
-0.000719977
-6.20559e-05
-0.000658299
-6.16789e-05
-0.000597036
-6.12646e-05
-0.000536244
-6.07929e-05
-0.000475975
-6.02703e-05
-0.000416482
-5.94946e-05
-0.00035781
-5.86727e-05
-0.000300167
-5.76447e-05
-0.000243684
-5.64848e-05
-0.000188247
-5.54378e-05
-0.000132033
-5.62161e-05
-7.40615e-05
-5.79726e-05
-1.49221e-05
-5.91407e-05
4.32133e-05
-5.81367e-05
9.876e-05
-5.5548e-05
0.000151975
-5.32159e-05
0.000203391
-5.14175e-05
0.000253213
-4.98238e-05
0.000301461
-4.82491e-05
0.000348153
-4.66939e-05
0.000393235
-4.50828e-05
0.000436639
-4.34051e-05
0.000478233
-4.1596e-05
0.000517958
-3.97265e-05
0.00055575
-3.77933e-05
0.00059149
-3.5741e-05
0.000625044
-3.35559e-05
0.000656298
-3.1255e-05
0.000685158
-2.8862e-05
0.000711427
-2.627e-05
0.000734944
-2.35187e-05
0.000755586
-2.06437e-05
0.000773107
-1.75222e-05
0.000787288
-1.41825e-05
0.000797934
-1.06482e-05
0.000804787
-6.85455e-06
0.000807604
-2.81827e-06
0.000807
6.02052e-07
0.000802883
4.11525e-06
0.000795282
7.59833e-06
0.000783579
1.17012e-05
0.000767246
1.63308e-05
0.00074585
2.13938e-05
0.000718755
2.70929e-05
0.000685332
3.34219e-05
0.000644955
4.03749e-05
0.000596883
4.807e-05
0.000540258
5.6623e-05
0.000474314
6.59419e-05
0.00039833
7.59826e-05
0.000311744
8.65838e-05
0.000213924
9.78185e-05
0.000103804
0.000110119
-2.4134e-05
0.000127938
-0.000163467
0.000139333
-0.000291619
0.000128152
-0.000397266
0.000105648
-0.000477103
7.98382e-05
-0.000537038
5.99373e-05
5.06091e-05
-0.000587645
-0.000718799
-0.000133572
-0.000647336
-0.00013352
-0.000576092
-0.000132923
-0.000505109
-0.000132249
-0.000434748
-0.000131154
-0.000364507
-0.000130512
-0.000294807
-0.000129196
-0.0002255
-0.00012798
-0.000156919
-0.000126227
-8.88941e-05
-0.000124511
-2.05257e-05
-0.000123807
4.82874e-05
-0.00012503
0.000116083
-0.000125769
0.000182586
-0.000125645
0.000248331
-0.000123882
0.000313443
-0.000120661
0.00037749
-0.000117264
0.000440222
-0.00011415
0.000501545
-0.000111148
0.000561478
-0.000108182
0.000620027
-0.000105243
0.000677053
-0.000102109
0.000732529
-9.88822e-05
0.00078645
-9.55171e-05
0.000838712
-9.19888e-05
0.000889254
-8.83358e-05
0.000937945
-8.4432e-05
0.000984803
-8.04135e-05
0.00102968
-7.61309e-05
0.0010724
-7.15804e-05