/*--------------------------------*- C++ -*----------------------------------*\
| =========                 |                                                 |
| \\      /  F ield         | OpenFOAM: The Open Source CFD Toolbox           |
|  \\    /   O peration     | Version:  2.3.1                                 |
|   \\  /    A nd           | Web:      www.OpenFOAM.org                      |
|    \\/     M anipulation  |                                                 |
\*---------------------------------------------------------------------------*/
FoamFile
{
    version     2.0;
    format      ascii;
    class       volScalarField;
    location    "0.5";
    object      p;
}
// * * * * * * * * * * * * * * * * * * * * * * * * * * * * * * * * * * * * * //

dimensions      [0 2 -2 0 0 0 0];

internalField   nonuniform List<scalar> 
768
(
0.0038597
0.00339718
0.00346323
0.00316704
0.00292914
0.00272429
0.00259138
0.0025358
0.00251513
0.002449
0.00214716
0.00134893
0.00349299
0.00339467
0.00336605
0.00319961
0.00301067
0.00284028
0.00271118
0.00261289
0.00249982
0.00229608
0.00186953
0.00107036
0.00325281
0.00344862
0.00336624
0.00322434
0.0030489
0.0028807
0.00273751
0.00260721
0.00244674
0.002189
0.00174214
0.00102047
0.00328971
0.00357566
0.00340307
0.00325231
0.00307735
0.00290334
0.00273984
0.00257581
0.00237691
0.00209305
0.001664
0.00104077
-0.000326344
-0.00248151
-0.00383578
-0.0029916
-0.00199001
-0.000790449
0.00043774
0.00154828
0.00247451
0.00308648
0.00337325
0.00362088
-0.000237206
-0.00170843
-0.002569
-0.00224403
-0.00150286
-0.000542227
0.000479307
0.00143387
0.00227722
0.00285149
0.00302515
0.00312423
2.47693e-06
-0.00105477
-0.0016799
-0.00156343
-0.00103059
-0.000275835
0.000557626
0.00134325
0.00208983
0.00257986
0.00262784
0.00254264
0.000242752
-0.000542588
-0.00101578
-0.000990596
-0.000612549
-2.97475e-05
0.000638165
0.0012857
0.00188051
0.00227899
0.00227707
0.0020076
0.00382746
0.00337057
0.00344245
0.00315197
0.00292019
0.00272221
0.00259701
0.00254998
0.00253856
0.0024822
0.00219055
0.00140363
0.00346165
0.00336955
0.00334737
0.00318658
0.00300378
0.00284011
0.00271847
0.00262842
0.00252428
0.00233
0.00191321
0.00112504
0.00322302
0.00342485
0.00334901
0.00321317
0.00304394
0.00288241
0.00274651
0.00262416
0.00247225
0.00222358
0.00178617
0.00107447
0.00326259
0.00355377
0.00338777
0.00324295
0.00307412
0.00290669
0.00275032
0.002594
0.00240335
0.0021282
0.00170818
0.00109421
-0.000260341
-0.0024068
-0.00375572
-0.0029037
-0.0018955
-0.000689304
0.000545456
0.00166284
0.00259626
0.00321607
0.00351121
0.00376827
-0.000172756
-0.00163579
-0.0024903
-0.00215777
-0.00140964
-0.000442346
0.000585575
0.00154699
0.00239763
0.00297957
0.00316169
0.00327107
6.56748e-05
-0.000983524
-0.00160179
-0.00147817
-0.000938443
-0.000177072
0.000662827
0.00145496
0.00220886
0.00270615
0.00276238
0.00268796
0.00030497
-0.000472412
-0.00093846
-0.000906277
-0.00052145
6.79195e-05
0.000742251
0.00139626
0.00199779
0.00240313
0.0024087
0.00214907
0.0037335
0.0036993
0.00346798
0.00327857
0.00309492
0.00291388
0.00273565
0.00254805
0.00232365
0.0020269
0.0016214
0.00108245
0.00387597
0.00373144
0.00349265
0.00329017
0.00310058
0.00291311
0.00272416
0.0025217
0.00228341
0.0019841
0.00160334
0.00113157
0.00387094
0.00370884
0.00348741
0.00328686
0.00309631
0.0029051
0.00270865
0.00249643
0.002251
0.00195487
0.00159822
0.00118007
0.00380945
0.00365966
0.00346429
0.00327368
0.00308545
0.00289311
0.00269231
0.00247435
0.00222607
0.00193574
0.00160091
0.00122542
0.00373793
0.00360611
0.00343424
0.00325527
0.00307117
0.00287948
0.00267665
0.00245591
0.00220759
0.00192419
0.00160836
0.00126654
0.00367038
0.00355619
0.00340337
0.00323526
0.00305593
0.00286593
0.00266258
0.00244095
0.00219413
0.00191776
0.00161795
0.00130245
0.00361182
0.00351275
0.00337471
0.003216
0.00304144
0.0028536
0.00265067
0.00242927
0.00218468
0.00191479
0.00162803
0.00133282
0.00356365
0.0034767
0.00334986
0.00319894
0.00302878
0.00284325
0.00264122
0.00242063
0.00217847
0.00191417
0.00163768
0.0013578
0.00352578
0.00344818
0.00332964
0.00318494
0.00301863
0.0028353
0.0026344
0.00241479
0.0021749
0.00191517
0.00164637
0.00137763
0.00349766
0.00342696
0.00331446
0.00317454
0.00301146
0.00283009
0.00263033
0.00241161
0.00217362
0.00191731
0.00165383
0.00139267
0.00347779
0.00341246
0.00330429
0.00316812
0.00300751
0.00282778
0.00262909
0.00241095
0.00217438
0.00192026
0.00165997
0.00140337
0.00346226
0.00340239
0.00329752
0.00316397
0.00300591
0.00282758
0.00263001
0.00241219
0.00217646
0.00192411
0.00166551
0.00141116
0.000443816
-0.000157148
-0.000525505
-0.000544156
-0.000277062
0.000172104
0.000705848
0.00123339
0.0017064
0.00202912
0.00203088
0.00176665
0.000605506
0.000127519
-0.000170729
-0.000208916
-1.74681e-05
0.000331457
0.000760837
0.00119356
0.00158599
0.00185139
0.00195604
0.00183385
0.000735174
0.000341509
9.21181e-05
4.50529e-05
0.000183947
0.000458104
0.000806863
0.00116535
0.00149415
0.00171778
0.00182109
0.00176588
0.000840553
0.000506929
0.000292854
0.000240694
0.000341894
0.000559637
0.000845795
0.00114614
0.00142482
0.0016195
0.00172586
0.00171921
0.000926443
0.000636224
0.000447564
0.000392126
0.000465758
0.000640803
0.000878426
0.00113323
0.00137269
0.00154559
0.00164977
0.00166954
0.000995813
0.000737239
0.000566881
0.000509211
0.000562509
0.000705172
0.000905304
0.00112456
0.00133352
0.00148951
0.00158997
0.00162308
0.00105113
0.000815665
0.000658522
0.00059927
0.000637393
0.000755529
0.000926928
0.00111867
0.00130403
0.00144679
0.0015432
0.00158269
0.00109448
0.000875668
0.000727997
0.000667497
0.000694272
0.000794026
0.000943726
0.00111451
0.0012819
0.00141439
0.001507
0.00154947
0.00112745
0.000920304
0.000779254
0.000717623
0.000736078
0.00082235
0.000956075
0.00111134
0.00126548
0.00139023
0.00147967
0.0015234
0.00115132
0.000951866
0.000815191
0.000752479
0.000765044
0.000841799
0.00096435
0.00110865
0.00125352
0.00137279
0.00145994
0.0015041
0.00116728
0.000972221
0.000837494
0.000774271
0.000783013
0.000853589
0.000968885
0.00110613
0.00124513
0.00136099
0.0014468
0.00149088
0.00117767
0.000984744
0.00084973
0.000785737
0.000792034
0.000859093
0.000970481
0.0011041
0.00124021
0.00135399
0.0014387
0.00148129
0.00371037
0.00368022
0.00345467
0.003271
0.00309333
0.00291871
0.00274743
0.00256732
0.00235089
0.00206251
0.00166567
0.00113547
0.00385676
0.00371543
0.00348156
0.00328437
0.00310053
0.0029193
0.00273711
0.00254191
0.00231135
0.00202011
0.00164769
0.00118428
0.00385513
0.00369557
0.00347836
0.00328271
0.00309766
0.0029125
0.00272263
0.00251747
0.00227954
0.00199123
0.00164264
0.00123257
0.00379644
0.00364875
0.00345707
0.00327103
0.00308807
0.00290158
0.00270719
0.00249611
0.00225513
0.0019724
0.0016454
0.00127777
0.00372719
0.00359718
0.00342864
0.00325395
0.00307489
0.00288889
0.0026923
0.00247828
0.0022371
0.00196112
0.00165293
0.00131878
0.00366147
0.00354891
0.00339913
0.00323506
0.0030606
0.00287612
0.00267888
0.00246384
0.00222402
0.00195491
0.00166258
0.0013546
0.00360437
0.00350679
0.00337159
0.00321676
0.0030469
0.00286446
0.00266751
0.00245259
0.00221488
0.00195211
0.00167271
0.00138491
0.00355735
0.0034718
0.00334765
0.00320046
0.00303488
0.00285464
0.0026585
0.00244429
0.00220891
0.00195164
0.00168241
0.00140984
0.00352034
0.00344409
0.00332813
0.00318705
0.00302523
0.00284711
0.00265202
0.00243871
0.00220553
0.00195275
0.00169113
0.00142963
0.00349284
0.00342345
0.00331345
0.00317707
0.00301841
0.00284219
0.0026482
0.00243571
0.00220439
0.00195497
0.00169861
0.00144464
0.00347337
0.00340932
0.00330361
0.00317094
0.00301469
0.00284007
0.00264712
0.00243514
0.00220523
0.00195797
0.00170476
0.00145532
0.00345804
0.00339943
0.003297
0.00316689
0.00301319
0.00283997
0.00264814
0.00243641
0.00220734
0.00196185
0.00171031
0.0014631
0.000505267
-8.78599e-05
-0.000448995
-0.000460699
-0.000186894
0.000268764
0.000808846
0.00134269
0.00182207
0.00215087
0.00215907
0.00190094
0.000666383
0.000196101
-9.49375e-05
-0.000126225
7.18769e-05
0.000427213
0.0008628
0.0013016
0.00169993
0.00197094
0.00208081
0.00196291
0.000795615
0.000409527
0.000167298
0.000127076
0.000272557
0.000553041
0.000907871
0.0012722
0.00160652
0.00183528
0.001943
0.00189092
0.000900652
0.000574484
0.000367509
0.000322145
0.000429859
0.000653836
0.000945933
0.00125191
0.00153579
0.00173516
0.00184533
0.00184114
0.00098627
0.000703395
0.000521773
0.000473085
0.000553165
0.000734353
0.000977789
0.00123804
0.00148244
0.00165967
0.00176722
0.00178902
0.00105542
0.000804096
0.000640718
0.000589744
0.000649434
0.000798162
0.001004
0.00122852
0.00144221
0.00160225
0.00170576
0.00174062
0.00111057
0.000882272
0.000732056
0.000679448
0.000723915
0.000848048
0.00102505
0.00122193
0.00141185
0.00155843
0.00165766
0.00169871
0.00115378
0.000942083
0.000801292
0.000747394
0.000780468
0.000886162
0.00104139
0.00121721
0.00138901
0.00152516
0.00162041
0.00166432
0.00118665
0.000986575
0.000852367
0.000797307
0.000822021
0.000914188
0.00105338
0.0012136
0.00137204
0.00150032
0.00159229
0.00163737
0.00121045
0.00101804
0.000888176
0.000832008
0.000850804
0.000933421
0.00106139
0.00121058
0.00135968
0.0014824
0.001572
0.00161744
0.00122637
0.00103833
0.000910397
0.000853703
0.000868658
0.000945072
0.00106576
0.00120786
0.00135104
0.00147029
0.0015585
0.00160383
0.00123674
0.00105082
0.000922591
0.00086512
0.000877622
0.000950509
0.00106727
0.00120573
0.001346
0.00146314
0.00155022
0.00159405
)
;

boundaryField
{
    rotor
    {
        type            zeroGradient;
    }
    stator
    {
        type            zeroGradient;
    }
    AMI1
    {
        type            cyclicAMI;
        value           nonuniform 0();
    }
    AMI2
    {
        type            cyclicAMI;
        value           nonuniform List<scalar> 
48
(
0.00410731
0.00326604
0.00346614
0.00314069
0.00286417
0.00264216
0.00253307
0.00256167
0.00266687
0.00275237
0.00255799
0.00173641
-0.000415239
-0.00309726
-0.00450336
-0.00347103
-0.00228472
-0.000921123
0.000431013
0.00161199
0.00255453
0.00316428
0.00350887
0.00383949
0.00407473
0.00323892
0.00344469
0.00312489
0.00285443
0.00263934
0.00253808
0.0025754
0.00269005
0.00278554
0.00260132
0.00179082
-0.000348998
-0.00302197
-0.00442319
-0.00338302
-0.00218971
-0.000819307
0.00053951
0.00172732
0.00267719
0.00329488
0.00364773
0.00398741
)
;
    }
    front
    {
        type            empty;
    }
    back
    {
        type            empty;
    }
    procBoundary1to0
    {
        type            processor;
        value           nonuniform List<scalar> 8(0.00365938 0.00316219 0.00257982 0.00204518 0.00398592 0.00362101 0.00338363 0.00342533);
    }
}


// ************************************************************************* //
