/*--------------------------------*- C++ -*----------------------------------*\
| =========                 |                                                 |
| \\      /  F ield         | OpenFOAM: The Open Source CFD Toolbox           |
|  \\    /   O peration     | Version:  2.3.1                                 |
|   \\  /    A nd           | Web:      www.OpenFOAM.org                      |
|    \\/     M anipulation  |                                                 |
\*---------------------------------------------------------------------------*/
FoamFile
{
    version     2.0;
    format      ascii;
    class       volScalarField;
    location    "0.61";
    object      epsilon;
}
// * * * * * * * * * * * * * * * * * * * * * * * * * * * * * * * * * * * * * //

dimensions      [0 2 -3 0 0 0 0];

internalField   nonuniform List<scalar> 
15166
(
1077.44
1003.59
1000.17
1064
1106.59
1135.59
1106.48
1023.38
922.599
805.889
688.74
589.599
1078.12
882.536
931.076
1001.44
1045.9
1069.26
1037.37
960.085
864.427
756.773
649.266
551.055
1090.27
787.918
864.685
940.347
987.174
1006.84
974.573
902.601
812.613
712.863
612.967
518.043
1106.17
716.8
805.448
883.578
931.673
948.694
917.291
850.32
766.05
673.228
579.458
486.924
1123.48
663.295
753.807
832.165
880.319
895.178
865.129
802.782
723.967
637.287
548.84
460.05
1142.25
622.164
708.531
785.696
833.067
846.124
817.591
759.48
685.765
604.52
520.745
435.227
1162.59
589.994
668.555
743.537
789.566
801.115
774.146
719.936
650.907
574.499
494.75
411.512
1184.15
564.612
633.136
705.191
749.488
759.766
734.338
683.702
618.966
546.9
470.835
390.692
1206.7
544.514
601.694
670.259
712.55
721.729
697.769
650.393
589.592
521.458
448.798
371.665
1229.94
528.59
573.701
638.366
678.476
686.683
664.1
619.706
562.49
497.943
428.521
354.781
1253.62
516.01
548.712
609.174
647.001
654.336
633.025
591.352
537.42
476.168
409.809
339.25
1277.63
506.13
526.334
582.39
617.885
624.423
604.279
565.086
514.163
455.971
392.656
325.955
1301.8
498.463
506.246
557.752
590.9
596.7
577.624
540.693
492.539
437.207
376.873
314.023
1326.01
492.616
488.17
535.04
565.854
570.963
552.854
517.997
472.385
419.716
362.08
301.398
1350.1
488.276
471.867
514.062
542.568
547.019
529.792
496.826
453.573
403.409
348.4
290.868
1374.05
485.191
457.132
494.647
520.883
524.709
508.283
477.055
435.97
388.153
335.663
280.976
1397.71
483.154
443.786
476.648
500.66
503.882
488.18
458.542
419.474
373.87
323.749
271.521
1421.09
481.994
431.68
459.935
481.771
484.405
469.358
441.191
403.998
360.469
312.579
262.647
1444.1
481.566
420.678
444.389
464.102
466.164
451.712
424.89
389.447
347.874
302.109
254.484
1466.61
481.756
410.665
429.911
447.551
449.054
435.135
409.561
375.744
336.022
292.267
246.778
1488.58
482.455
401.537
416.408
432.028
432.98
419.544
395.121
362.828
324.839
282.965
239.271
1510.04
483.589
393.206
403.799
417.45
417.861
404.861
381.502
350.629
314.273
274.148
232.094
1531.04
485.069
385.59
392.01
403.744
403.62
391.011
368.638
339.096
304.273
265.748
224.963
1551.28
486.857
378.622
380.977
390.844
390.19
377.932
356.472
328.179
294.796
257.758
218.289
1570.97
488.902
372.241
370.641
378.689
377.51
365.568
344.958
317.831
285.793
250.141
211.861
1589.94
491.132
366.389
360.948
367.226
365.528
353.868
334.044
308.012
277.239
242.888
205.864
1608.24
493.527
361.018
351.849
356.402
354.191
342.78
323.689
298.683
269.096
235.982
200.142
1625.89
496.048
356.082
343.301
346.176
343.454
332.263
313.855
289.81
261.343
229.401
194.805
1642.82
498.683
351.549
335.263
336.504
333.276
322.28
304.504
281.364
253.953
223.144
189.815
1659.08
501.427
347.376
327.699
327.349
323.619
312.793
295.608
273.315
246.906
217.163
184.879
1674.67
504.201
343.533
320.573
318.677
314.448
303.771
287.135
265.64
240.175
211.462
180.287
1689.39
507.041
339.99
313.858
310.455
305.733
295.182
279.06
258.315
233.746
206.002
175.779
1703.26
509.919
336.729
307.524
302.656
297.443
287.002
271.355
251.318
227.598
200.788
171.607
1716.68
512.793
333.718
301.547
295.253
289.555
279.202
264
244.63
221.718
195.795
167.51
1729.16
515.668
330.947
295.901
288.22
282.041
271.762
256.974
238.236
216.089
191.019
163.688
1740.84
518.549
328.389
290.568
281.536
274.88
264.657
250.257
232.114
210.695
186.437
159.892
1752
521.414
326.034
285.523
275.179
268.05
257.871
243.832
226.25
205.522
182.037
156.295
1762.24
524.259
323.863
280.751
269.129
261.531
251.383
237.68
220.629
200.56
177.822
152.971
1771.85
527.083
321.863
276.233
263.369
255.309
245.176
231.786
215.239
195.801
173.778
149.694
1780.79
529.872
320.019
271.954
257.883
249.363
239.237
226.141
210.069
191.233
169.911
146.692
1788.76
532.651
318.319
267.903
252.655
243.681
233.55
220.725
205.105
186.84
166.169
143.493
1796.11
535.534
316.764
264.065
247.673
238.247
228.102
215.53
200.336
182.616
162.543
140.271
1802.54
538.422
315.335
260.427
242.921
233.05
222.88
210.542
195.753
178.55
159.055
137.427
1808.38
541.377
314.058
256.983
238.389
228.075
217.872
205.753
191.347
174.635
155.688
134.571
1813.5
544.248
312.95
253.726
234.062
223.31
213.067
201.152
187.107
170.864
152.448
131.972
1817.8
546.944
311.983
250.655
229.931
218.745
208.454
196.729
183.027
167.231
149.316
129.272
1821.36
549.695
311.137
247.77
225.99
214.372
204.026
192.474
179.099
163.727
146.305
126.896
1824.35
552.273
310.403
245.041
222.229
210.184
199.771
188.38
175.313
160.348
143.395
124.448
1826.59
554.768
309.739
242.471
218.643
206.168
195.681
184.438
171.661
157.085
140.59
122.223
1828.1
557.192
309.194
240.047
215.223
202.319
191.748
180.641
168.14
153.934
137.872
119.915
1828.88
559.459
308.729
237.76
211.96
198.625
187.966
176.981
164.741
150.89
135.253
117.845
1829.06
561.775
308.342
235.609
208.849
195.084
184.328
173.456
161.461
147.949
132.725
115.832
1828.58
563.906
308.024
233.575
205.882
191.688
180.829
170.057
158.295
145.106
130.269
113.689
1827.36
565.991
307.772
231.665
203.053
188.43
177.462
166.78
155.237
142.359
127.896
111.766
1825.63
568.001
307.582
229.868
200.354
185.305
174.222
163.62
152.284
139.702
125.603
109.927
1823.34
569.934
307.45
228.177
197.78
182.308
171.104
160.572
149.431
137.133
123.396
108.231
1820.28
571.676
307.369
226.587
195.328
179.432
168.102
157.632
146.676
134.648
121.258
106.488
1816.69
573.476
307.342
225.103
192.99
176.674
165.214
154.797
144.013
132.247
119.195
104.882
1812.57
575.076
307.365
223.711
190.766
174.032
162.433
152.06
141.44
129.924
117.181
103.038
1807.68
576.618
307.41
222.4
188.643
171.496
159.758
149.421
138.954
127.675
115.229
101.421
1802.34
578.015
307.526
221.183
186.624
169.065
157.181
146.872
136.549
125.498
113.344
99.9495
1796.49
579.433
307.683
220.05
184.706
166.735
154.701
144.414
134.225
123.39
111.527
98.5668
1790.03
580.67
307.877
218.995
182.879
164.502
152.315
142.041
131.979
121.353
109.767
97.132
1782.95
581.849
308.085
218.026
181.146
162.365
150.019
139.752
129.806
119.38
108.065
95.7864
1775.35
582.877
308.358
217.122
179.501
160.317
147.811
137.544
127.708
117.47
106.413
94.3879
1767.11
583.87
308.641
216.291
177.945
158.358
145.688
135.413
125.678
115.624
104.811
93.0902
1758.75
584.823
308.963
215.538
176.469
156.484
143.646
133.359
123.718
113.835
103.254
91.7499
1749.16
585.607
309.309
214.846
175.073
154.693
141.683
131.377
121.822
112.103
101.747
90.5375
1739.58
586.335
309.697
214.222
173.759
152.984
139.797
129.467
119.992
110.427
100.285
89.3275
1729.66
586.95
310.117
213.664
172.516
151.35
137.987
127.625
118.221
108.805
98.8724
88.2082
1718.83
587.56
310.553
213.178
171.352
149.791
136.247
125.851
116.512
107.236
97.5011
87.0477
1707.61
587.869
311.028
212.747
170.258
148.309
134.578
124.141
114.861
105.717
96.1721
85.9871
1695.86
588.331
311.497
212.361
169.232
146.898
132.98
122.494
113.266
104.248
94.89
84.9555
1683.67
588.555
312.072
212.069
168.288
145.561
131.451
120.911
111.728
102.828
93.6465
83.9173
1670.97
588.688
312.597
211.814
167.399
144.289
129.983
119.387
110.242
101.454
92.4407
82.9354
1658.26
588.893
313.177
211.627
166.583
143.084
128.582
117.922
108.81
100.126
91.2704
81.9065
1644.63
588.864
313.766
211.491
165.836
141.947
127.244
116.516
107.43
98.8422
90.1345
80.9546
1630.23
588.631
314.367
211.417
165.151
140.877
125.967
115.165
106.1
97.603
89.034
79.9926
1615.84
588.512
315.019
211.397
164.533
139.869
124.752
113.871
104.821
96.4059
87.969
79.1045
1601.23
588.228
315.684
211.439
163.975
138.925
123.596
112.63
103.59
95.2518
86.9353
78.1747
1585.71
587.835
316.393
211.535
163.484
138.046
122.499
111.444
102.405
94.1369
85.936
77.3339
1569.94
587.367
317.086
211.694
163.06
137.23
121.458
110.31
101.267
93.0606
84.9708
76.5548
1553.75
586.776
317.794
211.899
162.694
136.471
120.477
109.229
100.176
92.0257
84.0421
75.7699
1537.11
586.101
318.548
212.159
162.394
135.777
119.554
108.201
99.1323
91.0318
83.1432
74.9536
1520.06
585.356
319.321
212.475
162.159
135.143
118.685
107.223
98.1327
90.0748
82.2765
74.2189
1503
584.533
320.121
212.87
161.98
134.568
117.875
106.294
97.1779
89.158
81.4404
73.4587
1485.14
583.561
320.934
213.311
161.869
134.059
117.119
105.417
96.2663
88.2766
80.6346
72.7969
1466.93
582.488
321.762
213.796
161.83
133.61
116.422
104.591
95.3988
87.4351
79.8625
72.0962
1448.34
581.312
322.609
214.348
161.847
133.225
115.782
103.815
94.5765
86.6311
79.1198
71.4248
1429.35
580.051
323.516
214.974
161.937
132.903
115.197
103.09
93.7989
85.8645
78.4009
70.7028
1410.01
578.669
324.389
215.637
162.085
132.637
114.669
102.412
93.0625
85.1327
77.7188
70.1986
1390.29
577.168
325.28
216.379
162.309
132.442
114.196
101.786
92.3731
84.4444
77.0789
69.6417
1370.6
575.676
326.229
217.18
162.599
132.309
113.783
101.213
91.7277
83.7911
76.4692
69.1457
1349.84
573.903
327.179
218.039
162.96
132.248
113.43
100.691
91.127
83.1773
75.8929
68.6394
1329.47
572.155
328.139
218.958
163.398
132.246
113.137
100.222
90.5707
82.602
75.3501
68.1799
1308.42
570.212
329.097
219.934
163.896
132.318
112.905
99.8056
90.0617
82.0685
74.84
67.6899
1287.04
568.246
330.112
220.995
164.479
132.459
112.735
99.4445
89.5993
81.5725
74.3603
67.2778
1265.32
566.043
331.122
222.116
165.137
132.677
112.632
99.1363
89.184
81.1169
73.9149
66.852
1243.66
563.906
332.143
223.299
165.881
132.962
112.592
98.886
88.8162
80.7026
73.5044
66.4889
1221.35
561.479
333.197
224.569
166.705
133.334
112.62
98.6967
88.5005
80.3319
73.1285
66.0935
1198.74
558.99
334.247
225.9
167.609
133.777
112.719
98.5652
88.2336
80.0026
72.7849
65.7845
1175.82
556.36
335.297
227.318
168.608
134.308
112.889
98.4935
88.0188
79.7166
72.4833
65.5258
1152.64
553.571
336.383
228.802
169.694
134.922
113.137
98.4897
87.8613
79.481
72.2237
65.2531
1129.2
550.695
337.458
230.352
170.879
135.63
113.462
98.5516
87.7608
79.2928
72.0024
65.012
1105.81
547.743
338.569
231.994
172.156
136.434
113.867
98.6837
87.7176
79.152
71.8221
64.8571
1081.87
544.591
339.665
233.728
173.542
137.331
114.359
98.8869
87.735
79.066
71.6901
64.7042
1057.98
541.357
340.791
235.532
175.026
138.327
114.943
99.1682
87.8167
79.0297
71.598
64.6281
1033.59
537.89
341.89
237.409
176.625
139.434
115.62
99.5313
87.9678
79.0536
71.5599
64.5852
1008.61
534.24
343.009
239.407
178.335
140.658
116.399
99.9776
88.1893
79.138
71.5704
64.5557
983.99
530.597
344.156
241.463
180.171
141.997
117.286
100.512
88.4864
79.283
71.631
64.5835
958.933
526.739
345.282
243.646
182.142
143.467
118.283
101.148
88.8657
79.497
71.7486
64.6264
933.637
522.686
346.416
245.911
184.236
145.066
119.401
101.884
89.33
79.7848
71.9315
64.7707
908.46
518.555
347.527
248.28
186.476
146.818
120.645
102.731
89.8892
80.1536
72.19
64.9668
882.865
514.201
348.642
250.737
188.864
148.714
122.031
103.692
90.5441
80.5993
72.5003
65.1194
857.072
509.646
349.791
253.333
191.413
150.772
123.557
104.779
91.3009
81.1269
72.8769
65.3962
831.151
504.975
350.866
256.013
194.109
152.991
125.238
105.996
92.1674
81.749
73.3387
65.7294
805.075
500.108
351.975
258.817
196.983
155.405
127.083
107.359
93.1567
82.4734
73.8794
66.1573
779.137
495.129
353.054
261.721
200.042
158.007
129.119
108.883
94.2847
83.3118
74.5219
66.6643
753.133
489.912
354.147
264.78
203.3
160.822
131.347
110.576
95.5568
84.2774
75.2765
67.3043
726.592
484.43
355.174
267.944
206.764
163.867
133.797
112.464
96.9877
85.3769
76.1481
68.0138
700.12
478.833
356.195
271.263
210.438
167.155
136.473
114.554
98.5926
86.6127
77.115
68.7201
673.851
473.059
357.202
274.707
214.361
170.71
139.403
116.864
100.387
88.0076
78.2186
69.6294
647.604
467.058
358.185
278.303
218.538
174.555
142.614
119.429
102.398
89.5896
79.4919
70.6734
620.935
460.821
359.133
282.08
222.981
178.715
146.142
122.269
104.643
91.3663
80.9116
71.8541
594.564
454.421
360.072
286.015
227.736
183.227
150.006
125.421
107.155
93.3626
82.523
73.1659
568.305
447.797
360.996
290.15
232.814
188.127
154.256
128.916
109.963
95.6048
84.33
74.6722
541.731
440.962
361.916
294.526
238.286
193.47
158.948
132.814
113.115
98.1375
86.387
76.3884
515.464
433.947
362.878
299.159
244.188
199.315
164.132
137.163
116.658
101.002
88.7157
78.2966
489.184
426.771
363.92
304.143
250.604
205.741
169.894
142.028
120.641
104.23
91.3435
80.4385
463.06
419.468
365.147
309.573
257.636
212.86
176.313
147.482
125.128
107.867
94.299
82.8826
436.889
412.173
366.72
315.644
265.465
220.794
183.516
153.625
130.196
111.986
97.6603
85.6518
410.806
405.181
369.043
322.687
274.344
229.748
191.644
160.571
135.924
116.64
101.447
88.7903
384.571
399.295
372.846
331.242
284.599
239.926
200.825
168.411
142.405
121.894
105.7
92.2185
358.177
397.472
380.241
342.614
296.924
251.758
211.379
177.41
149.815
127.884
110.502
96.0434
328.053
400.064
389.136
355.338
309.504
263.681
222.049
186.805
157.588
134.287
115.662
100.325
204.092
0.00127441
6.61789
4.94898
4.91212
12.0029
11.4401
81.1002
45.1609
26.4331
7.60909
0.00269741
0.0225729
574.724
12.1848
0.000851398
481.448
0.218378
0.207459
0.000828389
2.43328
5.66624
0.255378
0.0183573
209.861
6.57516
4.01593
16.241
16.9308
48.3741
14.6182
364.471
0.0010859
7.42531
0.0211523
2.32598
87.3124
12.694
29.7371
0.00290818
0.239166
0.000794188
0.119466
23.9637
23.6684
5.45042
0.0575874
0.0148364
23.9212
2.39964
2.27284
77.635
18.4154
0.000749082
215.546
0.00118115
0.00428369
0.000793151
12.7288
11.3111
3.50665
378.966
0.000746608
0.00894735
0.714028
0.00121407
75.9487
17.9969
321.658
18.7695
185.482
0.048544
28.399
43.4689
0.0188439
0.000739236
41.216
0.000696188
0.0790868
11.206
0.211305
0.000699393
75.3502
20.5112
0.00845143
70.1894
75.0869
0.000739954
5.19607
25.736
19.5226
26.126
0.000741583
0.00098435
53.6127
0.000751866
15.2008
0.00909695
0.000728964
76.8307
144.549
1.15135
0.000785222
0.00114027
0.000707795
68.0709
66.1532
101.277
19.2744
0.028385
0.527112
0.000709766
8.28738
0.000913663
0.000734491
8.35023
0.0108551
1.92844
69.2559
0.649439
120.106
0.0204747
176.398
0.995425
0.320178
53.3362
0.00104706
1333.1
0.0233488
0.000742466
123.043
0.000758846
87.3224
0.00114264
4.19362
0.00146184
28.4057
13.2095
8.70769
0.00176231
0.00877373
2.7633
14.1749
0.128726
31.2678
198.494
17.2478
0.00121803
61.6788
21.7514
0.585723
8.01251
0.000693019
0.266001
0.616619
0.000716845
12.5464
0.00072704
89.0503
0.00234151
0.0178409
0.000857528
0.326198
0.00608348
2.60502
0.191019
314.81
30.1562
18.4521
0.000686872
205.684
47.3638
217.148
0.00947213
0.000680103
18.5028
0.00070594
20.4643
0.723531
34.7377
330.643
3.28967
0.0834699
26.3601
0.000796767
13.4499
0.000724079
0.000721553
30.1125
0.000736009
9.21583
0.000697711
199.402
0.00130534
16.1363
14.1847
10.8615
4.55659
0.000709812
409.899
63.8322
19.7509
54.8026
9.17206
20.1025
0.142263
0.181144
1.48672
39.2787
1.55951
139.739
52.6015
48.1486
34.2886
0.000722342
15.4566
0.00601987
11.2044
426.917
20.9694
20.2816
64.057
24.5865
0.000718588
0.000731013
55.5844
70.2653
0.000758437
1485.39
0.0228417
167.473
0.297637
0.000704642
89.0439
10.2829
12.1995
11.7483
70.5082
34.7489
20.4974
0.507661
0.393865
32.6446
95.4665
196.15
132.799
82.9036
0.000837444
44.8993
16.2078
17.2016
43.1352
5.54336
4010.17
21.7493
1.8342
4.02938
19.1565
14.5003
24.6068
1.55317
12.6806
0.00758004
0.174999
577.555
13.1495
58.4022
48.4789
8.02202
164.45
10.7474
0.0432527
174.614
87.6189
85.5333
186.191
30.0787
105.965
29.1213
27.2091
178.812
29.6739
26.8118
21.0096
25.264
11.009
12.5192
82.2573
86.05
1.95073
26.8109
170.93
99.5038
98.8977
16.1902
191.454
0.677898
85.1601
0.0705465
54.5243
6.57846
1.01922
336.841
214.354
0.569165
54.0408
32.9332
0.00073701
0.69076
0.522522
0.708816
40.7764
0.000720436
97.9492
20.014
0.0941347
93.3653
43.0658
0.000721189
442.737
0.0292793
14.52
10.7413
9248.08
50.29
42.6505
18.4748
0.000714317
0.000717294
39.9755
13.4948
0.000683279
11.0569
0.000703652
0.000717382
0.000740062
0.000705937
0.231967
0.000725323
0.00175281
123.103
49.8672
0.000755471
19.1173
0.00381979
75.8047
147.327
90.5753
1101.61
15.0731
0.000659339
0.000744368
0.0952328
0.710617
96.1966
0.000682236
0.17822
24.5161
51.5245
5.43972
27.6967
25.1726
71.2764
1008.97
2.59283
4.97162
0.000883418
0.000735548
1.61039
4.12666
0.242999
28.1262
50.7701
5051.78
175.041
2.94462
22.8833
65.9976
0.000734759
8.93504
49.8434
0.00151419
0.000714546
51.8796
3771.23
81.0704
0.000685449
0.0499568
3.97402
0.0156115
0.000730484
53.1711
6.86718
17.5985
16.0692
0.000919417
920.997
0.000714644
1.66844
18.8639
0.00204592
0.00469394
92.7705
0.0031956
45.4692
313.836
85.4392
26.1231
41.2515
98.9829
0.000714964
0.000689676
0.000729242
74.8552
0.0843564
315.269
5355.04
4.53366
59.735
0.000724197
0.0435416
14.4786
0.000689968
0.000725726
97.5167
0.000679845
1.72347
55.1206
27.6807
0.000667643
0.00255824
0.259382
0.239526
10.9759
0.407622
0.000700725
809.896
54.1696
0.81366
0.00544785
33.3624
88.9551
0.00234468
15.359
0.00225215
65.2095
0.000844041
12.7221
1.03224
0.000705393
77.0738
11.1059
172.089
0.00351784
10.0362
2.70046
0.00146973
89.4757
51.1016
2.51828
210.769
0.0152324
0.0467363
0.00488266
117.013
31.6536
0.202611
2.4529
4.17139
171.025
0.830786
83.3536
1148.54
0.000673688
211.047
56.3863
10.4205
0.000697367
19.7026
94.4791
0.151665
84.5113
23.3659
2.42132
0.326842
30.0449
120.683
0.00086328
0.0103593
55.2979
0.0328108
0.00190383
240.856
1087.32
0.0331507
22.7767
52.1754
0.632017
46.2222
26.9822
52.1219
19.3117
24.4691
0.000738998
0.189251
44.9568
18.593
116.655
21.7096
98.1379
175.884
991.216
75.0619
2.57855
0.000727144
216.714
91.0625
46.2593
10.3927
1.11736
0.149642
11.1617
0.000731121
17.0701
0.00073215
35.6878
10.6883
92.1675
29.3691
78.0557
111.048
119.959
29.7014
221.005
0.000734523
0.340667
58.1071
1424.36
7.72923
23.9193
0.000875364
0.0194393
6.20076
118.191
18.2099
0.000699182
0.0653808
0.000708429
0.0541455
19.8447
0.0280707
66.1441
2.82843
72.0827
0.446126
0.442326
298.248
658.813
0.000740135
0.000740699
5.49786
186.022
17.5796
13.23
3.27165
30.9002
19.4985
0.000664847
0.752107
12.2349
0.0013433
77.4919
12.8391
26.9352
17.4182
0.00564452
0.000664664
0.0148128
0.000713661
26.9411
20.3161
122.756
22.9308
0.000731615
139.395
0.123253
118.659
1.79538
194.092
0.0306604
0.508123
0.000685119
38.9049
566.814
19.5396
4.60094
0.000657607
104.45
44.9295
50.5645
0.000700562
0.620893
56.7725
26.8976
0.00187211
1071.13
0.000918097
59.1342
28.9793
0.000879835
2.05196
0.141201
1.09083
0.00070051
0.000741847
75.5084
36.4469
19.7847
54.0702
0.00135234
1.9214
0.220838
44.7533
8.30494
0.00100864
1.57324
403.338
0.000689
0.00289094
26.294
130.87
88.4933
0.000720255
696.122
23.8524
115.774
0.0201943
2.51921
144.833
0.000735713
101.368
2.47769
18.1086
7.84888
45.3268
7.97889
94.3638
96.8905
15.9418
4967.52
0.000746674
0.000719185
142.831
47.3018
0.00130357
0.000723311
9.37583
0.000745337
51.9793
52.5761
1.13888
0.000701392
39.9156
0.405095
21.4496
66.611
25.5949
0.26704
2.35776
118.996
0.000738987
2.36779
61.5386
21.5151
18.1864
0.0023254
10.7092
2.74473
2789.49
0.000711224
2.56627
35.751
18.3449
0.000771086
0.166369
28.7977
55.7296
77.3481
0.0607305
205.024
31.8891
0.303982
31.5698
0.000712602
0.00246723
9.09734
0.000684435
26.5395
0.000726288
115.093
0.004546
57.1764
0.000732341
0.924502
51.9266
127.021
7.58859
31.09
0.388088
241.808
0.00778816
0.155576
18.4023
0.000697686
0.000745103
27.9532
0.383215
94.8469
25.906
0.000758644
90.8109
105.902
81.2722
7.20544
170.471
95.8212
0.000740884
2399.23
4212.52
49.7601
0.000759723
0.00435894
273.536
54.22
0.00070467
90.8882
0.000698266
0.111495
303.601
0.000851928
16.9051
0.00072004
0.0642327
121.432
0.000762143
0.00101787
0.000734967
0.000938577
0.0137166
1018.33
51.4738
0.309755
11.3895
0.000726474
49.2976
0.000729748
8.99186
1.82529
0.0157952
4.44006
0.00628685
73.9548
0.000725041
10698.9
4.2528
30.2341
208.3
4.79193
0.000697113
26.042
180.201
1.99013
49.7097
58.3656
184.817
23.1181
0.0364554
28.6097
0.174936
0.00103708
0.292452
4116.8
155.083
1.03304
0.0292605
20.6413
0.000924332
9.40868
52.2749
174.551
64.4417
60.5238
0.0301319
0.00176372
32.5424
24.3997
0.0490962
42.76
0.000720328
120.914
218.989
0.000766955
176.409
48.863
1.15436
0.152756
140.096
0.0155343
0.316811
13.4112
3.00451
2.84594
0.000752868
27.1361
0.111474
150.17
28.1057
79.8937
6.18399
0.00223542
39.2269
0.000730491
0.00072403
10.5808
0.149552
1.72227
211.992
0.000669081
72.7598
0.148707
0.0586064
0.000791278
166.399
8.1234
0.348386
40.6888
0.0585578
309.411
3.96198
0.000716372
236.618
270.715
0.0015933
0.00318279
77.655
26.5952
0.418688
233.406
0.0277716
2.02099
0.246081
0.391641
32.0623
94.3405
0.000736747
96.2016
22.0608
0.00735502
1.29294
1498.06
15.9812
0.000731446
0.000683578
35.4573
23.5295
66.9778
0.000683101
34.3291
2.89313
32.2539
0.000926317
167.474
46.6541
0.00156368
16.4323
0.000740961
86.8732
32.1846
28.3426
40.2223
0.000716166
0.000718333
9.82914
110.402
5.68074
37.9993
0.000665292
0.0436195
0.000734272
0.00194281
39.7949
0.088712
0.348112
0.917345
21.752
152.295
24.7978
65.6876
0.000728963
29.4238
37.8992
20.66
0.000738997
44.1358
0.00073533
0.000726962
0.158977
20.7582
0.0161939
336.767
35.1093
328.379
0.000762578
0.00132089
0.0372657
110.276
4.60579
145.81
0.000725841
0.000715973
0.00196181
0.00296934
139.772
44.8604
83.1163
0.308853
0.0360333
3.86441
3.79041
57.2955
15.2979
61.2812
18.9407
0.000690188
182.592
0.00155586
1.83361
62.1398
26.2517
1.31021
0.61961
0.000943324
106.325
7.47906
20.0299
28.5106
0.000722606
67.2861
43.0436
171.596
0.00440739
59.1361
47.6224
56.6702
191.118
22.0781
55.8499
0.277519
814.124
4.28474
0.188828
121.15
0.00072954
94.0538
173.506
0.000703883
35.8356
0.00130996
102.239
102.352
1.77336
18.8104
106.395
97.4822
13.3803
0.943482
50.2275
9.3491
0.00560345
0.00069651
24.6836
0.0862138
19.5036
58.1461
4.48951
53.932
105.074
0.000717039
15.9813
461.705
243.563
10.3981
99.7504
18.2206
208.577
97.3439
1.65228
0.0159491
0.221751
68.1241
84.0323
0.2222
53.8704
59.9045
53.0051
11.0926
2.07413
10.6436
32.9944
0.000738547
238.746
88.8095
1.51879
0.000738418
26.8076
15.5617
17.1627
0.000720235
149.682
0.000728796
12.0523
0.180635
0.000733694
39.4126
81.5265
0.000701061
50.5273
27.9132
24.8528
12.7044
40.4069
15.4362
40.7533
52.8685
1.71751
0.000708693
0.00128167
33.6911
5.6251
0.126427
0.000738556
84.1894
0.00185357
0.977085
0.250789
10.8763
8.66926
0.0645092
0.523458
394.63
173.191
24.3358
1421.44
56.9492
0.000706103
51.5612
18.0423
182.306
0.000709436
5.48316
0.000737103
0.000866615
17.4578
4.00079
0.0327358
0.000802667
56.998
3020.61
0.00246936
0.00072892
1.63797
9.51206
0.0158725
0.0871902
3169.28
0.553665
0.000795803
0.000727664
66.847
20.7728
0.306566
0.0668052
64.2432
193.172
29.5411
103.473
35.297
0.000730545
16.6225
0.000723076
130.356
15.4916
2935.98
6.15455
0.146542
0.000951911
97.3621
0.000739878
0.000712134
0.00176184
13.7146
18.5058
61.6887
0.000719014
16.6918
0.000727254
529.71
61.7511
0.000744625
126.182
6.27581
0.000729066
0.000766879
0.0263535
139.718
5.64895
0.0173905
0.000727497
0.000709723
134.683
91.5315
20.8815
34.5881
0.474698
34.4936
0.000718457
0.00406397
6.8892
209.964
48.1359
0.00325744
0.000731396
33.2603
0.000727523
87.9406
140.606
7.23369
0.0382069
91.8398
16.6102
3.15465
0.000727966
7.44186
95.0696
85.2049
0.00217339
0.0221231
31.8247
3012.28
0.053606
4.56436
0.000703037
0.000689908
0.000740628
0.010267
31.986
69.9638
0.0416867
99.6764
22.5756
419.997
8.16144
0.0109771
0.00276808
0.00617777
2.59045
48.0764
20.1533
0.000753059
96.3238
0.000716165
0.00631942
65.6634
49.7204
0.02669
5.32466
9.82924
0.00104964
0.740421
2.528
0.000722277
0.000931253
146.967
0.000888903
0.000753606
110.969
25.2428
3163.54
8.83019
1375.53
0.000851904
0.000700289
3520.46
17.3002
1.1794
3.72172
0.0572913
18.5503
1.02496
986.63
47.0437
66.6521
143.513
104.545
1.05629
27.1938
99.3808
0.00693342
80.7341
0.000980919
37.0333
6.32225
0.736031
7.88693
6.98908
3.50012
2.03932
39.2245
61.0176
45.0637
28.7071
50.2174
36.1627
6.2814
0.00109218
0.000724307
0.236996
252.393
0.000725512
80.089
0.000705566
0.0037931
189.952
112.721
45.0494
74.9543
979.747
77.5653
19.0904
40.2789
0.000724389
16.7221
74.4972
0.000760093
198.603
0.00253943
719.435
250.266
294.8
14.1516
84.1488
4.53417
0.501118
16.0451
94.4003
20.5337
12.2254
5.38862
77.2854
0.135772
124.336
335.527
0.00368005
34.578
0.000739834
0.000988048
17.5249
133.351
168.945
14.629
0.612717
0.218598
0.320303
0.000848486
22.8513
0.00084797
154.811
0.000803084
0.120895
258.611
5.55399
2.89856
192.115
157.85
0.00194696
0.000740096
0.1943
13.6203
0.166096
112.997
0.0371948
25.7624
5.13143
27.1023
56.1335
0.000867469
0.000719444
130.491
0.722739
5.57545
56.3088
29.2696
38.8189
0.00389002
164.647
56.1526
90.4929
0.000828363
1.28805
24.7622
79.1431
1.0039
14.0354
0.000737703
11.8609
0.000710647
221.85
0.00436212
34.7294
0.172584
10.1458
0.000761946
1961.4
0.000739093
142.754
0.0160702
0.000727375
0.00678375
14.5696
0.000729276
0.000733365
10.3297
0.0268854
20.4681
0.0634379
0.000772376
22.4128
6.44903
39.6926
0.000782263
111.689
4.55504
351.892
37.5115
29.9434
57.4794
93.0149
4.63567
299.271
249.185
98.3266
0.000753326
2.42129
25.6177
18.2157
0.00128569
0.0163378
20.6326
482.282
0.000735472
1.6652
105.139
0.000675626
57.8782
66.8406
182.227
73.377
52.5669
12.3108
0.341812
202.37
9.27865
73.8027
51.7824
52.4075
0.489104
0.000727258
34.1887
0.00182388
0.000750513
0.000711671
177.896
0.00072755
0.000913192
18.3867
9466.29
2.85519
2.58868
52.7477
11.167
0.000728512
42.3179
223.837
0.016188
4.73963
55.8003
49.0298
0.28254
0.0208537
0.000717028
0.00072621
0.0173093
0.0416936
25.244
21.2207
88.1938
14.1339
13.9378
0.000995507
197.962
28.2683
0.00074783
23.104
827.001
0.000734651
6.95886
119.794
43.7484
91.7407
0.717488
143.972
0.000856755
0.925221
0.000773862
0.00198771
0.000746828
63.3848
18.1492
0.096712
0.000739345
0.000686729
188.25
28.6447
2.73465
19.9816
6.24308
36.3337
18.4272
24.4777
26.5614
0.000732268
0.48235
0.879191
0.353961
19.0571
77.2043
49.5805
84.0746
27.8183
88.1003
161.595
95.3791
46.5642
32.165
0.131531
56.7908
29.6186
0.0202642
79.5661
53.9158
10.9303
0.000699448
0.000742731
0.000873469
0.0011827
49.9007
0.000674429
109.754
50.5034
229.907
28.9525
0.00072644
12.4743
15.8881
58.0825
15.3691
29.4781
13.7351
0.000754703
0.000742226
0.00345313
0.176016
0.000710774
84.5296
13.9611
1.74278
47.6632
15.0695
39.0286
118.305
0.000728216
19.0924
30.9795
0.000944621
0.0907741
52.8282
168.854
20.282
4.75172
0.00075393
33.6851
39.6359
0.00095951
0.0116211
0.000722848
39.7523
0.00116595
0.517964
112.713
0.763676
0.0999114
21.8083
2877.59
0.000758172
30.2144
0.000675454
10.2402
23.0476
22.2868
17.0794
60.8668
31.7213
58.2629
189.005
45.3554
0.000732409
0.000718148
0.0475292
0.2069
53.2001
4.54807
0.000730225
164.414
2.89846
0.00301845
52.3446
0.0545841
0.00287152
0.0322904
74.2094
0.00203755
0.000734266
21.3525
83.4568
25.144
1.62664
53.9655
8.24948
0.000737462
16.8038
0.146143
0.0685538
0.000791113
34.6982
20.0478
5.51036
139.125
94.6216
16.4153
2.90033
0.000725723
25.8579
0.000726208
223.159
0.00407556
33.4123
0.157988
53.6972
0.00810735
0.00356636
4.54882
3.7416
386.584
0.000853166
1.89439
46.3899
91.224
6.40697
114.718
1.32769
0.000812305
0.000744797
58.1962
24.6041
313.175
2.24709
0.164461
54.9289
21.0958
59.5248
0.0668346
0.00072599
0.000734803
1.27416
767.883
18.6072
105.985
0.000842796
0.00453232
1.10958
48.9151
22.825
45.0756
57.9196
60.8556
0.000741921
0.000735549
179.037
135.889
61.5945
427.116
48.0776
0.0161029
132.995
0.000724673
226.237
0.0177355
0.0210127
0.000727211
0.0347085
0.173063
53.6976
48.4311
0.000754517
116.311
0.000719039
82.8554
148.525
0.000718105
0.470247
0.0007544
16.4691
0.324114
5.61877
0.000691774
13.1869
90.9351
13.1429
45.1305
1.24022
60.6272
1.58097
62.6735
33.3868
84.0345
30.814
0.000955108
0.000736192
27.2196
0.48086
61.6537
0.000731901
123.352
0.000724324
0.00131046
0.250975
0.000720462
273.635
97.6752
0.000762186
21.8776
2.57121
0.175176
33.1999
0.00188093
0.000708279
42.9996
9.15734
0.0205803
46.5993
2371.87
108.395
1.62937
183.014
0.225346
0.000735777
0.000900532
0.0276567
1.55174
57.7089
140.775
312.552
52.4282
55.0418
10.6065
1.98005
37.3463
154.177
56.12
0.0352208
0.0854658
13.0684
83.878
0.000793218
1.00355
17.5316
192.491
0.000726907
49.0894
0.000680747
0.00644363
129.558
0.000790493
65.1868
1155.61
0.000738013
175.251
0.00087022
8.89696
0.00652854
0.00103378
47.5332
16.2042
64.6374
8.46963
79.567
350.452
105.554
5.96059
36.6806
20.3436
0.000705297
162.905
0.056543
88.6102
4.03137
10.5364
0.0346976
0.0010887
167.197
116.646
12.6437
48.3892
18.0946
0.0103114
0.000694836
0.000744479
1.65773
75.3321
17.2546
0.00070393
1167.95
20.4524
0.0096091
0.141792
20.1882
0.000664268
0.392136
0.000762217
0.000723747
21.4314
30.0442
0.0546554
0.00624162
0.000708808
29.0797
1.7743
20.7293
0.00231511
0.032179
0.00738239
61.1695
103.267
1.23314
0.000729312
160.243
0.000780826
0.0337239
0.00416223
0.0014126
34.8222
64.8532
0.000725239
49.9849
0.000748745
0.000696272
0.00088084
53.444
15.4254
53.2223
42.4432
20.0774
61.8972
0.0442253
0.00072878
0.0070698
0.00161846
2.86903
0.000713547
61.6102
11.7279
0.0330889
101.134
0.353806
22.31
1.87891
0.00184177
125.488
56.7834
20.1905
0.0072447
0.146529
214.861
0.000732765
8.92502
57.7629
0.00072466
0.708882
0.00279795
19.5265
0.000691665
81.5044
37.272
1.71726
0.430817
94.1655
365.901
4.71912
125.552
0.00104648
18.269