/*--------------------------------*- C++ -*----------------------------------*\
| =========                 |                                                 |
| \\      /  F ield         | OpenFOAM: The Open Source CFD Toolbox           |
|  \\    /   O peration     | Version:  2.3.1                                 |
|   \\  /    A nd           | Web:      www.OpenFOAM.org                      |
|    \\/     M anipulation  |                                                 |
\*---------------------------------------------------------------------------*/
FoamFile
{
    version     2.0;
    format      ascii;
    class       volVectorField;
    location    "0.61";
    object      U;
}
// * * * * * * * * * * * * * * * * * * * * * * * * * * * * * * * * * * * * * //

dimensions      [0 1 -1 0 0 0 0];

internalField   nonuniform List<vector> 
15166
(
(5.9731 0.560346 3.20104e-19)
(7.18884 1.03412 1.598e-18)
(8.2688 0.902085 -8.93932e-19)
(9.30119 0.956183 8.01553e-19)
(10.0961 1.02009 8.23833e-19)
(10.8728 1.07493 4.34256e-19)
(11.5267 1.17338 -8.5953e-19)
(12.0688 1.23914 8.33054e-19)
(12.4641 1.3335 -4.22597e-19)
(12.7711 1.39299 1.67161e-18)
(12.997 1.44845 -1.22775e-18)
(13.1508 1.50677 1.22184e-18)
(6.66559 1.0267 4.8881e-19)
(7.60348 1.42434 5.24193e-20)
(8.555 1.20939 2.74323e-20)
(9.47678 1.22941 4.56011e-19)
(10.2373 1.24932 -3.95899e-19)
(10.9651 1.27586 0)
(11.5823 1.33749 4.25018e-19)
(12.0879 1.38343 1.46101e-21)
(12.4665 1.44387 4.18319e-19)
(12.7601 1.48569 -8.43416e-19)
(12.9764 1.52574 1.65674e-18)
(13.1344 1.56469 -1.2343e-18)
(7.20839 1.25778 -4.63165e-19)
(8.03815 1.56777 -2.4768e-18)
(8.8995 1.37657 4.87913e-19)
(9.72184 1.41046 -9.25161e-19)
(10.4313 1.41718 -1.66314e-20)
(11.1023 1.43289 8.83996e-19)
(11.6751 1.47249 -1.26959e-18)
(12.1419 1.5034 -4.35712e-19)
(12.4973 1.54162 8.31636e-19)
(12.7724 1.56903 5.99318e-21)
(12.9766 1.59529 -1.2379e-18)
(13.1301 1.62009 1.62284e-18)
(7.51485 1.37447 0)
(8.35069 1.62635 -1.08454e-18)
(9.18125 1.47833 2.54366e-18)
(9.94662 1.52636 -1.44495e-18)
(10.6197 1.53132 9.25245e-19)
(11.2454 1.54613 1.36582e-18)
(11.7793 1.57482 -4.23947e-19)
(12.2125 1.59686 4.3572e-19)
(12.5453 1.62121 -8.51571e-19)
(12.8022 1.63802 8.41252e-19)
(12.9949 1.65298 4.17412e-19)
(13.1437 1.66615 8.27407e-19)
(7.72633 1.44798 -6.2551e-19)
(8.59232 1.66218 -5.80072e-19)
(9.4074 1.55346 -1.57511e-18)
(10.1387 1.60709 1.4859e-18)
(10.7877 1.61242 -4.70717e-19)
(11.3801 1.62862 -4.56039e-19)
(11.8831 1.65148 -4.44801e-19)
(12.2893 1.66817 4.51125e-19)
(12.6024 1.68382 -4.29797e-19)
(12.8434 1.69334 -4.23435e-19)
(13.0254 1.70077 -1.26307e-18)
(13.1674 1.70719 -4.66179e-21)
(7.91404 1.49936 1.23964e-18)
(8.80926 1.68479 1.17524e-18)
(9.60763 1.60972 -1.09921e-18)
(10.3123 1.66473 2.0759e-18)
(10.9413 1.67166 -1.98441e-18)
(11.5068 1.6894 9.50225e-19)
(11.9844 1.70863 0)
(12.3682 1.72173 9.05154e-19)
(12.6643 1.73167 -1.76278e-18)
(12.8915 1.73607 8.61724e-19)
(13.0638 1.73806 0)
(13.1986 1.73922 1.2561e-18)
(8.08686 1.53368 -6.74506e-19)
(9.01045 1.69515 6.20766e-19)
(9.79239 1.64866 0)
(10.4748 1.70354 0)
(11.0853 1.71328 5.19072e-19)
(11.6275 1.73263 4.97777e-19)
(12.0831 1.74963 -9.51133e-19)
(12.4477 1.7603 1.38427e-18)
(12.729 1.76637 4.5419e-19)
(12.9442 1.7669 0)
(13.1082 1.76444 4.35626e-19)
(13.2378 1.76133 0)
(8.24144 1.55424 -1.36287e-18)
(9.19374 1.69576 1.25556e-18)
(9.96182 1.67322 5.7477e-19)
(10.626 1.72706 5.61904e-19)
(11.2199 1.74013 -2.61909e-18)
(11.742 1.76102 5.09641e-19)
(12.1786 1.77681 0)
(12.5268 1.78598 -4.65761e-19)
(12.7951 1.7895 4.64857e-19)
(13 1.7874 2.75645e-21)
(13.1565 1.78198 -8.70984e-19)
(13.2798 1.77626 8.5906e-19)
(8.37903 1.56398 1.40235e-18)
(9.35962 1.68912 -1.29094e-18)
(10.1164 1.68659 5.9011e-19)
(10.7658 1.73875 -1.69059e-18)
(11.3452 1.75508 2.15635e-18)
(11.8499 1.77721 -2.06479e-18)
(12.2701 1.79242 9.94052e-19)
(12.6042 1.80073 0)
(12.8613 1.80266 4.72819e-19)
(13.0574 1.79885 0)
(13.2072 1.79137 9.01306e-19)
(13.3251 1.78319 -4.37024e-19)
(8.50274 1.56522 1.44201e-18)
(9.51074 1.67694 0)
(10.258 1.69118 6.2319e-19)
(10.8951 1.74125 5.88048e-19)
(11.4615 1.7605 5.58637e-19)
(11.9512 1.78351 5.34344e-19)
(12.3572 1.79846 0)
(12.6792 1.80629 0)
(12.9268 1.80726 -1.42731e-18)
(13.1152 1.80235 2.33095e-18)
(13.2592 1.79358 -9.02377e-19)
(13.372 1.78523 -1.33966e-18)
(8.61533 1.55976 1.47141e-18)
(9.64964 1.6604 -2.01449e-18)
(10.3888 1.68861 1.89412e-18)
(11.0152 1.73637 -1.77343e-18)
(11.5698 1.75812 -5.5666e-19)
(12.0465 1.7817 -5.33026e-19)
(12.4401 1.79654 1.03606e-18)
(12.7515 1.8041 -1.0041e-18)
(12.9908 1.80453 -1.46305e-18)
(13.1726 1.79897 -4.67485e-19)
(13.3117 1.78908 1.85644e-18)
(13.4196 1.77936 -8.9381e-19)
(8.71847 1.54875 -1.5074e-18)
(9.778 1.64016 -2.04996e-18)
(10.5103 1.68004 -3.18153e-19)
(11.1273 1.72539 1.21223e-18)
(11.671 1.74922 8.56853e-19)
(12.136 1.77308 -2.20016e-18)
(12.5188 1.7879 2.11543e-18)
(12.821 1.79534 -3.85859e-21)
(13.053 1.79556 -1.49091e-18)
(13.2291 1.78988 9.65913e-19)
(13.3634 1.77984 -4.66312e-19)
(13.4667 1.76927 9.05372e-19)
(8.81331 1.53316 -1.14837e-18)
(9.897 1.61681 -3.53579e-19)
(10.6236 1.66636 3.22574e-19)
(11.2321 1.70927 0)
(11.7659 1.73478 2.89658e-19)
(12.2204 1.75871 -2.82759e-19)
(12.5934 1.77353 0)
(12.8875 1.78092 0)
(13.113 1.78107 2.54168e-19)
(13.2838 1.77548 0)
(13.4131 1.76584 0)
(13.5105 1.75539 -9.15782e-19)
(8.90085 1.51369 -3.86881e-19)
(10.0078 1.59077 3.5193e-19)
(10.7295 1.64831 0)
(11.3303 1.6888 0)
(11.8549 1.71562 1.18757e-18)
(12.3 1.7394 -8.60603e-19)
(12.6644 1.75417 1.09229e-18)
(12.9513 1.76146 -1.06068e-18)
(13.1711 1.76143 7.67865e-19)
(13.3375 1.75537 -5.67691e-21)
(13.4632 1.74489 -1.9384e-18)
(13.5579 1.73723 1.17928e-18)
(8.98184 1.49094 -1.58993e-18)
(10.111 1.56235 0)
(10.8288 1.62648 1.34309e-18)
(11.4225 1.66458 -1.59639e-18)
(11.9386 1.69238 0)
(12.3752 1.71588 2.9187e-19)
(12.7318 1.73057 1.10936e-18)
(13.0123 1.73783 -2.41964e-18)
(13.2272 1.73793 2.08195e-18)
(13.3897 1.73222 -1.01444e-18)
(13.5123 1.72176 9.81242e-19)
(13.6039 1.70852 -1.1947e-18)
(9.05693 1.46537 3.47504e-21)
(10.2075 1.53184 7.35582e-19)
(10.9221 1.60136 0)
(11.5092 1.63714 3.1971e-19)
(12.0174 1.66562 0)
(12.4462 1.68874 8.79681e-19)
(12.7958 1.70335 -7.81844e-21)
(13.0707 1.71058 -8.23949e-19)
(13.2811 1.7108 0)
(13.44 1.70543 -2.583e-19)
(13.5592 1.69542 2.51256e-19)
(13.648 1.68082 0)
(9.12673 1.4374 4.02366e-19)
(10.2979 1.49948 -1.11944e-18)
(11.0099 1.57334 1.03881e-18)
(11.5909 1.60686 -4.56675e-21)
(12.0917 1.63579 3.09106e-19)
(12.5134 1.65844 -2.97816e-19)
(12.8567 1.67291 0)
(13.1264 1.6801 0)
(13.3329 1.68042 1.06748e-18)
(13.4885 1.67525 -7.85932e-19)
(13.6047 1.66577 -5.05966e-19)
(13.6902 1.65219 -2.45537e-19)
(9.19158 1.40727 4.11428e-19)
(10.3827 1.46537 3.7273e-19)
(11.0927 1.54274 -3.47701e-19)
(11.668 1.57409 6.59444e-19)
(12.162 1.60325 -1.57332e-18)
(12.5771 1.62536 3.06277e-19)
(12.9145 1.63967 0)
(13.1796 1.64683 5.58356e-19)
(13.3825 1.64727 -5.45082e-19)
(13.5353 1.64232 -7.9039e-19)
(13.649 1.63326 2.58651e-19)
(13.7322 1.62088 7.43759e-19)
(9.25197 1.37528 0)
(10.4624 1.42972 0)
(11.1709 1.50986 0)
(11.7408 1.5391 3.37052e-19)
(12.2283 1.56832 0)
(12.6373 1.58983 6.08618e-19)
(12.9695 1.60395 -8.86122e-19)
(13.2304 1.61107 0)
(13.4301 1.61171 -5.47635e-19)
(13.5803 1.60709 5.32741e-19)
(13.6918 1.59847 0)
(13.7731 1.58637 0)
(9.30823 1.34166 2.12246e-18)
(10.5373 1.39263 -1.53815e-18)
(11.2447 1.47492 7.18554e-19)
(11.8096 1.50212 -1.0105e-18)
(12.291 1.53123 1.29021e-18)
(12.6944 1.55212 -9.25285e-19)
(13.0217 1.56601 8.92894e-19)
(13.2787 1.57309 2.83123e-19)
(13.4754 1.57393 -1.11307e-18)
(13.6233 1.56972 8.11197e-19)
(13.7325 1.56172 0)
(13.8119 1.54929 0)
(9.36065 1.30657 -1.71724e-18)
(10.6077 1.35422 0)
(11.3146 1.43813 0)
(11.8747 1.46336 -6.81252e-19)
(12.3503 1.49221 6.54581e-19)
(12.7484 1.51242 -9.32858e-19)
(13.0712 1.52605 5.11582e-21)
(13.3247 1.53305 8.72395e-19)
(13.5187 1.53404 5.60476e-19)
(13.6643 1.53011 -5.48953e-19)
(13.7714 1.52262 -2.67082e-19)
(13.8486 1.50989 0)
(9.40937 1.2702 -1.29984e-18)
(10.674 1.31462 1.1816e-18)
(11.3806 1.39968 0)
(11.9363 1.42296 -6.87757e-19)
(12.4065 1.45145 9.92248e-19)
(12.7997 1.47095 0)
(13.1183 1.48426 0)
(13.3685 1.49113 2.95255e-19)
(13.5601 1.49216 5.66458e-19)
(13.7037 1.48833 -5.5495e-19)
(13.8092 1.481 5.3707e-19)
(13.8853 1.47007 0)
(9.45488 1.23257 -4.25272e-21)
(10.7365 1.27377 -1.18793e-18)
(11.4432 1.35966 0)
(11.9946 1.38108 1.04424e-18)
(12.4597 1.40911 -9.98038e-19)
(12.8482 1.42786 3.20473e-19)
(13.1629 1.44084 3.08612e-19)
(13.4102 1.44757 -8.85768e-19)
(13.5996 1.44871 5.77474e-19)
(13.7415 1.44517 -2.80481e-19)
(13.8457 1.43824 2.68528e-21)
(13.9207 1.4285 0)
(9.49668 1.19376 -8.798e-19)
(10.7951 1.2318 8.01651e-19)
(11.5023 1.31828 0)
(12.0497 1.33786 -3.49569e-19)
(12.51 1.36534 0)
(12.8942 1.38334 -3.2008e-19)
(13.2054 1.39597 3.09023e-21)
(13.45 1.40257 3.00979e-19)
(13.6373 1.40381 -2.9164e-19)
(13.7776 1.4005 -2.69228e-21)
(13.8806 1.39377 -2.53303e-21)
(13.9547 1.38524 -1.07124e-18)
(9.53545 1.15426 -4.48018e-19)
(10.8502 1.18915 -8.02034e-19)
(11.5582 1.27571 7.51747e-19)
(12.102 1.29343 3.55939e-19)
(12.5577 1.3203 0)
(12.9378 1.33753 3.26038e-19)
(13.2456 1.34979 -6.25378e-19)
(13.4877 1.35624 -5.98999e-19)
(13.6731 1.35757 8.80362e-19)
(13.8121 1.35452 -2.58035e-21)
(13.9141 1.34801 -2.47306e-21)
(13.9873 1.33993 2.68962e-19)
(9.57168 1.11384 4.42954e-19)
(10.9021 1.14548 -8.14514e-19)
(11.6111 1.23196 -3.79417e-19)
(12.1514 1.2479 -3.55298e-19)
(12.6027 1.2741 -3.42382e-19)
(12.979 1.29056 3.25767e-19)
(13.2837 1.30243 -1.26445e-18)
(13.5235 1.30871 2.92166e-21)
(13.7072 1.31012 0)
(13.845 1.3073 8.57341e-19)
(13.9461 1.30104 -2.83113e-19)
(14.0189 1.29393 -2.7176e-19)
(9.60499 1.07256 -4.54978e-19)
(10.9508 1.10092 0)
(11.6611 1.18716 3.14368e-21)
(12.198 1.20134 3.61122e-19)
(12.6453 1.22683 6.8677e-19)
(13.0179 1.24251 3.25391e-19)
(13.3198 1.25398 -1.27447e-18)
(13.5574 1.26011 3.11998e-19)
(13.7396 1.26162 8.98362e-19)
(13.8762 1.25913 0)
(13.9766 1.25325 0)
(14.0489 1.24602 0)
(9.63529 1.03043 1.82559e-18)
(10.9965 1.0555 -8.19833e-19)
(11.7083 1.1414 7.71354e-19)
(12.2421 1.15385 -3.60551e-19)
(12.6855 1.17858 6.97403e-19)
(13.0547 1.19347 9.92243e-19)
(13.3538 1.20454 -9.62411e-19)
(13.5894 1.21048 5.93801e-21)
(13.7702 1.21205 1.20432e-18)
(13.9058 1.20982 -8.79739e-19)
(14.0053 1.20443 2.84962e-19)
(14.0768 1.19802 -5.44865e-19)
(9.66297 0.987816 -4.57779e-19)
(11.0392 1.00956 -4.15249e-19)
(11.7527 1.09481 -3.84052e-19)
(12.2838 1.10548 -7.25726e-19)
(12.7234 1.12944 -3.40774e-19)
(13.0893 1.14354 3.36318e-19)
(13.3859 1.15417 3.18452e-19)
(13.6197 1.15992 -9.35486e-19)
(13.7992 1.16149 3.06902e-19)
(13.9338 1.1594 5.88296e-19)
(14.0327 1.15419 -2.85071e-19)
(14.1036 1.14936 -2.79688e-19)
(9.68811 0.94462 -9.20648e-19)
(11.0791 0.963006 1.66943e-18)
(11.7946 1.04745 0)
(12.323 1.05633 0)
(12.7591 1.07949 0)
(13.122 1.09278 6.7343e-19)
(13.4162 1.10297 6.498e-19)
(13.6482 1.10852 -3.13277e-19)
(13.8266 1.11013 3.06032e-19)
(13.9604 1.10826 2.05473e-21)
(14.0588 1.10328 -5.73544e-19)
(14.1293 1.09876 5.60796e-19)
(9.71117 0.901088 9.31163e-19)
(11.1165 0.915925 -2.07196e-19)
(11.834 0.999286 -1.95761e-19)
(12.3599 1.00644 0)
(12.7927 1.02878 0)
(13.1526 1.04126 -3.37671e-19)
(13.4446 1.05101 3.25013e-19)
(13.6751 1.05636 -6.3613e-19)
(13.8523 1.058 3.05073e-19)
(13.9855 1.05635 -8.97226e-19)
(14.0835 1.05165 0)
(14.1536 1.04768 -2.81511e-19)
(9.7316 0.857042 -1.86886e-18)
(11.1512 0.868141 6.36707e-19)
(11.871 0.950306 1.9555e-19)
(12.3946 0.955824 -5.52503e-19)
(12.8242 0.977361 7.12016e-19)
(13.1813 0.989046 0)
(13.4712 0.998354 6.54895e-19)
(13.7002 1.0035 -6.40191e-19)
(13.8765 1.00516 0)
(14.0091 1.00376 0)
(14.1065 0.999419 0)
(14.1763 0.994886 5.60425e-19)
(9.74968 0.813 0)
(11.1831 0.820212 0)
(11.9055 0.900742 -3.92718e-19)
(12.4271 0.904591 1.69436e-21)
(12.8537 0.925309 0)
(13.2082 0.936204 -6.82263e-19)
(13.4961 0.945067 1.48975e-18)
(13.7238 0.949984 -4.8339e-19)
(13.8992 0.951634 -6.1883e-19)
(14.0312 0.950367 1.57704e-19)
(14.1282 0.946292 6.05038e-21)
(14.1976 0.942052 5.77297e-19)
(9.76572 0.768562 4.7118e-19)
(11.2127 0.771637 -2.14338e-19)
(11.9378 0.850543 1.98746e-19)
(12.4574 0.852818 -1.86242e-19)
(12.8812 0.872695 8.95829e-19)
(13.2332 0.882794 -1.73404e-19)
(13.5192 0.891209 -4.97102e-19)
(13.7457 0.895912 -3.19065e-19)
(13.9204 0.897569 3.14366e-19)
(14.0519 0.896502 -3.04093e-19)
(14.1487 0.892811 1.48346e-19)
(14.2178 0.888595 -1.41533e-19)
(9.77972 0.723713 7.12109e-19)
(11.2398 0.722561 -6.42904e-19)
(11.9678 0.799811 -1.98604e-19)
(12.4857 0.8005 1.88622e-19)
(12.9067 0.819553 -5.37673e-19)
(13.2564 0.828868 5.1983e-19)
(13.5407 0.83684 -3.2255e-21)
(13.766 0.841346 -1.6403e-19)
(13.94 0.843037 -3.12973e-19)
(14.0712 0.842163 4.59947e-19)
(14.1678 0.838809 1.47664e-19)
(14.2369 0.835126 -4.38251e-19)
(9.79118 0.678728 2.39691e-19)
(11.2645 0.67325 0)
(11.9956 0.748644 -2.00511e-19)
(12.5119 0.74771 9.27315e-22)
(12.9304 0.76592 0)
(13.2778 0.774454 1.74355e-19)
(13.5605 0.781995 0)
(13.7847 0.786326 0)
(13.958 0.788088 0)
(14.0889 0.787523 0)
(14.1853 0.784677 -2.97733e-19)
(14.2546 0.780811 5.80746e-19)
(9.8011 0.633542 -4.80337e-19)
(11.287 0.623637 0)
(12.0212 0.69706 4.01715e-19)
(12.5362 0.694443 -1.89307e-19)
(12.9522 0.711834 -3.61329e-19)
(13.2974 0.719592 1.76735e-19)
(13.5785 0.726691 -3.36013e-19)
(13.8017 0.730813 3.28834e-19)
(13.9745 0.732585 -3.16164e-19)
(14.1049 0.732236 3.16358e-21)
(14.201 0.730001 1.53787e-19)
(14.2701 0.727325 2.91534e-19)
(9.8088 0.587866 0)
(11.3071 0.573463 -2.16943e-19)
(12.0447 0.645007 -2.01228e-19)
(12.5584 0.640708 0)
(12.9722 0.657312 -3.62768e-19)
(13.3154 0.664283 7.0159e-19)
(13.595 0.670929 -3.40725e-19)
(13.8172 0.674811 0)
(13.9894 0.676518 0)
(14.1195 0.676167 -1.55531e-19)
(14.2154 0.673963 -1.50781e-19)
(14.2837 0.673972 0)
(9.81441 0.542221 4.81893e-19)
(11.325 0.523304 -4.21752e-21)
(12.0662 0.592647 -2.9348e-21)
(12.5787 0.586561 -3.37278e-21)
(12.9904 0.602408 -5.50574e-19)
(13.3316 0.608591 0)
(13.6098 0.614768 0)
(13.8313 0.618398 0)
(14.003 0.620034 0)
(14.1331 0.619649 1.55609e-19)
(14.2294 0.616895 -1.49787e-19)
(14.2987 0.618757 2.9449e-21)
(9.81823 0.496126 -6.05486e-19)
(11.3407 0.472672 6.55992e-19)
(12.0855 0.539906 4.04402e-19)
(12.5972 0.532013 -3.85392e-19)
(13.0068 0.547172 9.12523e-20)
(13.3462 0.552576 0)
(13.6232 0.558319 3.40021e-19)
(13.8438 0.561746 -3.30953e-21)
(14.0152 0.563476 -3.23535e-19)
(14.1452 0.563605 0)
(14.2415 0.561612 -2.28527e-19)
(14.3105 0.558234 0)
(9.82009 0.449931 2.0519e-21)
(11.3543 0.421931 4.39735e-19)
(12.1028 0.486851 1.02048e-19)
(12.6136 0.477137 2.86849e-19)
(13.0215 0.491667 -2.77861e-19)
(13.3591 0.496278 0)
(13.6349 0.501574 3.4121e-19)
(13.8548 0.504765 -3.32562e-21)
(14.0259 0.506423 -2.43852e-19)
(14.1557 0.506601 0)
(14.2518 0.504988 1.53045e-19)
(14.3212 0.505122 0)
(9.82064 0.40376 1.21348e-21)
(11.3656 0.370914 3.30414e-19)
(12.118 0.433333 -1.02036e-19)
(12.6283 0.422016 1.92961e-19)
(13.0345 0.435946 0)
(13.3704 0.439718 0)
(13.6451 0.444565 -8.61204e-20)
(13.8644 0.447511 -8.3534e-20)
(14.0352 0.449123 -8.09364e-20)
(14.165 0.449431 -7.89871e-20)
(14.2613 0.448051 -1.52579e-19)
(14.331 0.448539 1.48919e-19)
(9.8193 0.357337 -1.22538e-19)
(11.3748 0.319378 -1.09855e-19)
(12.1314 0.379364 2.04009e-19)
(12.6412 0.366662 -4.83662e-19)
(13.0458 0.380009 1.85914e-19)
(13.3802 0.382924 0)
(13.6537 0.387321 8.61344e-20)
(13.8725 0.390023 8.35571e-20)
(14.0431 0.391611 -1.61806e-19)
(14.1729 0.392039 2.38136e-19)
(14.2694 0.390806 1.53535e-19)
(14.3392 0.391375 -1.5119e-19)
(9.81626 0.311181 0)
(11.3817 0.267985 0)
(12.1427 0.325059 1.02872e-19)
(12.6522 0.311049 0)
(13.0554 0.32393 -9.29012e-20)
(13.3883 0.325914 8.94931e-20)
(13.6609 0.329866 1.72126e-19)
(13.8791 0.332329 -2.52662e-19)
(14.0495 0.333895 0)
(14.1794 0.334508 -7.94814e-20)
(14.2761 0.333653 7.66131e-20)
(14.3461 0.333494 -2.25083e-19)
(9.81163 0.264829 6.17442e-20)
(11.3866 0.216203 2.20472e-19)
(12.1518 0.270465 -3.09401e-19)
(12.6616 0.255336 0)
(13.0636 0.267666 4.63484e-20)
(13.3949 0.268672 8.88497e-20)
(13.6665 0.272214 -3.46805e-19)
(13.8843 0.274433 4.20548e-19)
(14.0546 0.275951 -1.64416e-19)
(14.1846 0.276645 1.19376e-19)
(14.2814 0.276003 0)
(14.3518 0.275667 7.57727e-20)
(9.80518 0.218592 -6.17643e-20)
(11.3896 0.164359 0)
(12.1589 0.215798 -5.1065e-20)
(12.6693 0.199695 9.78629e-20)
(13.07 0.211207 1.39311e-19)
(13.3999 0.211158 -9.02198e-20)
(13.6707 0.214387 -4.34815e-20)
(13.888 0.216386 4.21995e-20)
(14.0582 0.217892 8.15697e-20)
(14.1883 0.218806 -1.20118e-19)
(14.2854 0.218804 -3.89108e-20)
(14.3564 0.217505 -3.75873e-20)
(9.79712 0.17242 -9.22881e-20)
(11.3906 0.112313 1.39275e-19)
(12.164 0.161148 -7.74911e-20)
(12.6751 0.144067 1.21563e-19)
(13.0745 0.154392 -2.10038e-19)
(13.4034 0.153462 1.79917e-19)
(13.6733 0.156471 -6.57709e-20)
(13.8902 0.158187 4.18629e-20)
(14.0604 0.159623 -1.6435e-19)
(14.1907 0.160543 6.04125e-20)
(14.2881 0.160731 3.89402e-20)
(14.3591 0.159588 3.81128e-20)
(9.78756 0.126587 -9.27736e-20)
(11.3899 0.0600763 2.8082e-20)
(12.1674 0.106484 2.58583e-20)
(12.6793 0.0882825 -2.4405e-20)
(13.0774 0.097316 -2.3164e-20)
(13.4053 0.095876 4.52474e-20)
(13.6745 0.0984072 2.17817e-20)
(13.8911 0.0998576 0)
(14.0613 0.10127 0)
(14.1918 0.102342 2.00237e-20)
(14.2895 0.103067 0)
(14.3611 0.102147 0)
(9.77653 0.0808193 -1.55431e-20)
(11.3872 0.00761769 1.38725e-20)
(12.1691 0.0517832 7.13599e-22)
(12.6816 0.0324192 -1.2664e-20)
(13.0788 0.0400957 0)
(13.4057 0.0382229 0)
(13.6742 0.0402381 1.15366e-20)
(13.8905 0.0414238 -2.11779e-20)
(14.0607 0.0427961 1.03525e-20)
(14.1915 0.0439198 6.2712e-22)
(14.2896 0.0448053 0)
(14.3614 0.044431 0)
(9.76367 0.0352344 4.67014e-20)
(11.3826 -0.0449274 2.77746e-20)
(12.169 -0.00306729 -1.38506e-20)
(12.6822 -0.0234862 3.82242e-22)
(13.0787 -0.0171458 -1.17062e-20)
(13.4046 -0.0195211 1.12792e-20)
(13.6724 -0.0180262 -1.16021e-20)
(13.8885 -0.0170744 -3.16879e-20)
(14.0588 -0.0157412 -1.0099e-20)
(14.1898 -0.0144596 9.51251e-21)
(14.2882 -0.0130738 -9.78201e-21)
(14.3607 -0.0128752 0)
(9.74928 -0.0100727 4.64529e-20)
(11.3762 -0.0972539 -8.37587e-20)
(12.1671 -0.0578866 1.31309e-20)
(12.6811 -0.0794584 -2.42776e-20)
(13.077 -0.074406 3.55511e-20)
(13.402 -0.0773078 3.4061e-20)
(13.6692 -0.0763473 1.09187e-20)
(13.8851 -0.0756551 1.06002e-20)
(14.0555 -0.0744254 1.03113e-20)
(14.1868 -0.0731966 3.01298e-20)
(14.2855 -0.0718711 -9.78996e-21)
(14.3575 -0.0707798 5.7281e-20)
(9.73349 -0.0553127 -6.17919e-20)
(11.3677 -0.149561 -8.28396e-20)
(12.1635 -0.112692 1.30183e-19)
(12.6783 -0.135472 -2.44986e-20)
(13.0738 -0.131664 -1.16694e-19)
(13.3979 -0.135119 1.80538e-19)
(13.6645 -0.134679 -4.41205e-20)
(13.8803 -0.134256 0)
(14.0509 -0.133148 4.12734e-20)
(14.1826 -0.131962 -2.00919e-20)
(14.2821 -0.130909 1.95764e-20)
(14.3552 -0.128443 -1.91325e-20)
(9.7159 -0.100392 -1.25499e-19)
(11.3576 -0.201742 -5.53171e-22)
(12.1581 -0.167468 0)
(12.6739 -0.191497 -9.76281e-20)
(13.069 -0.188864 9.41373e-20)
(13.3923 -0.192886 0)
(13.6585 -0.192954 -2.70368e-24)
(13.8741 -0.192756 0)
(14.045 -0.19167 -4.12758e-20)
(14.1772 -0.190219 0)
(14.2774 -0.188814 0)
(14.3518 -0.186 -7.50499e-20)
(9.6968 -0.145039 6.24917e-20)
(11.3456 -0.253562 5.52292e-20)
(12.1509 -0.222156 -4.1562e-19)
(12.6679 -0.247484 3.923e-19)
(13.0626 -0.246007 -1.88258e-19)
(13.3853 -0.250603 0)
(13.651 -0.251154 -4.36999e-20)
(13.8665 -0.251185 0)
(14.0376 -0.25016 0)
(14.1703 -0.248595 0)
(14.2709 -0.24705 0)
(14.3458 -0.244395 -1.50767e-19)
(9.67635 -0.189437 1.24971e-19)
(11.3318 -0.305236 2.23491e-19)
(12.1419 -0.276791 0)
(12.6602 -0.303409 2.93302e-19)
(13.0547 -0.30306 -9.45431e-20)
(13.3767 -0.308254 0)
(13.642 -0.309288 -8.65286e-20)
(13.8575 -0.309569 8.65014e-20)
(14.0289 -0.308635 1.65889e-19)
(14.162 -0.306967 2.40264e-19)
(14.2631 -0.305039 -1.57453e-19)
(14.3385 -0.302824 7.54014e-20)
(9.65459 -0.233561 -5.00157e-19)
(11.3162 -0.356695 -1.1179e-19)
(12.1312 -0.331329 1.03934e-19)
(12.6508 -0.359252 -8.30336e-23)
(13.0453 -0.360006 -9.36956e-20)
(13.3667 -0.365815 9.01485e-20)
(13.6316 -0.36734 8.64122e-20)
(13.8472 -0.367887 -2.55206e-19)
(14.0188 -0.367076 0)
(14.1524 -0.365442 -2.40172e-19)
(14.2541 -0.363436 3.13075e-19)
(14.3297 -0.361251 -3.06048e-19)
(9.63108 -0.277723 2.50086e-19)
(11.2989 -0.408189 2.22799e-19)
(12.1187 -0.385727 -2.08637e-19)
(12.6399 -0.414984 -9.80426e-20)
(13.0343 -0.416832 1.86334e-19)
(13.3552 -0.423258 -9.18814e-20)
(13.6199 -0.425257 -8.81424e-20)
(13.8354 -0.42606 8.46583e-20)
(14.0074 -0.425353 0)
(14.1416 -0.423637 0)
(14.2439 -0.421245 0)
(14.3202 -0.418852 7.76221e-22)
(9.60606 -0.32126 -2.50023e-19)
(11.2796 -0.459117 0)
(12.1044 -0.439938 -1.43179e-22)
(12.6272 -0.470575 0)
(13.0218 -0.473503 9.3455e-20)
(13.3423 -0.480535 -3.58456e-19)
(13.6066 -0.483006 2.63105e-19)
(13.8223 -0.484066 -8.46823e-20)
(13.9947 -0.483476 0)
(14.1296 -0.481847 -3.19137e-19)
(14.2328 -0.479796 3.14244e-19)
(14.3099 -0.477546 -7.67012e-20)
(9.57969 -0.364828 -3.74839e-19)
(11.2587 -0.510047 2.23022e-19)
(12.0883 -0.493945 -3.11377e-19)
(12.6129 -0.52598 1.95524e-19)
(13.0077 -0.529992 -2.8017e-19)
(13.3278 -0.537644 0)
(13.592 -0.540552 0)
(13.8078 -0.541823 3.36406e-19)
(13.9806 -0.541218 -4.94983e-19)
(14.1162 -0.539202 -1.58723e-19)
(14.2203 -0.536231 1.57925e-19)
(14.2997 -0.534599 0)
(9.55154 -0.407995 0)
(11.2359 -0.560583 -1.30471e-21)
(12.0706 -0.547713 -2.08543e-19)
(12.597 -0.581194 -1.65777e-21)
(12.992 -0.586271 -1.88091e-19)
(13.3119 -0.594541 5.3699e-19)
(13.5759 -0.597903 -3.49392e-19)
(13.7918 -0.599412 1.67277e-19)
(13.965 -0.598899 -1.65776e-19)
(14.1011 -0.596874 1.5818e-19)
(14.2057 -0.593642 -1.57381e-19)
(14.2855 -0.590155 2.99416e-19)
(9.52222 -0.45079 7.48445e-19)
(11.2115 -0.610749 2.23014e-19)
(12.0511 -0.601225 0)
(12.5794 -0.636195 3.90498e-19)
(12.9749 -0.642357 3.71e-19)
(13.2945 -0.651264 -1.82949e-19)
(13.5584 -0.655095 -3.48831e-19)
(13.7744 -0.656877 3.66506e-22)
(13.948 -0.656498 0)
(14.0847 -0.654548 0)
(14.19 -0.651238 0)
(14.2699 -0.647021 0)
(9.4916 -0.493357 -7.48273e-19)
(11.1853 -0.660733 -2.22241e-19)
(12.0298 -0.654569 0)
(12.5602 -0.690997 -1.95217e-19)
(12.9561 -0.698241 -1.85818e-19)
(13.2757 -0.707794 -1.77544e-19)
(13.5394 -0.712099 3.39036e-21)
(13.7556 -0.714175 8.41192e-19)
(13.9297 -0.71395 -3.29013e-19)
(14.0671 -0.712088 0)
(14.1734 -0.709064 3.09001e-19)
(14.2538 -0.705066 -3.04354e-19)
(9.45919 -0.535711 -2.49409e-19)
(11.1573 -0.710472 1.30731e-21)
(12.0067 -0.70763 2.08188e-19)
(12.5393 -0.745567 0)
(12.9359 -0.753876 1.70574e-21)
(13.2553 -0.764072 3.58569e-19)
(13.519 -0.768851 -3.44085e-19)
(13.7355 -0.771203 5.05005e-19)
(13.9102 -0.771084 0)
(14.0483 -0.769117 0)
(14.1555 -0.765713 0)
(14.2371 -0.761921 4.47318e-19)
(9.42522 -0.577588 -9.94683e-19)
(11.1274 -0.759703 -6.64505e-19)
(11.9819 -0.760316 6.20439e-19)
(12.5168 -0.799827 0)
(12.9141 -0.809228 -3.70694e-19)
(13.2335 -0.820073 -1.78543e-19)
(13.4973 -0.825314 0)
(13.714 -0.82795 3.32769e-19)
(13.8893 -0.827983 -3.27568e-19)
(14.0282 -0.8261 0)
(14.1362 -0.822847 0)
(14.2185 -0.818423 -1.50998e-19)
(9.38985 -0.619141 9.90733e-19)
(11.096 -0.808584 -2.23882e-19)
(11.9553 -0.812667 -2.044e-19)
(12.4926 -0.853762 1.95998e-19)
(12.8907 -0.864259 1.85242e-19)
(13.2103 -0.875752 -5.31591e-19)
(13.4741 -0.881457 3.45828e-19)
(13.6912 -0.884365 -3.34055e-19)
(13.867 -0.884513 -3.23388e-19)
(14.0068 -0.882533 3.1828e-19)
(14.1158 -0.878992 0)
(14.1995 -0.874477 -1.48597e-19)
(9.35299 -0.660197 4.92421e-19)
(11.0627 -0.856954 -6.65412e-19)
(11.927 -0.86464 -2.058e-19)
(12.4668 -0.907359 1.1576e-18)
(12.8658 -0.918958 -7.41201e-19)
(13.1856 -0.9311 1.77712e-19)
(13.4495 -0.937265 6.83055e-19)
(13.667 -0.940451 -5.02767e-19)
(13.8434 -0.940721 1.61795e-19)
(13.984 -0.938759 0)
(14.094 -0.935272 0)
(14.1786 -0.930949 1.49795e-19)
(9.31513 -0.700839 -9.22301e-22)
(11.0277 -0.904857 0)
(11.897 -0.916274 6.11622e-19)
(12.4393 -0.960616 -9.69006e-19)
(12.8393 -0.973297 -7.3268e-19)
(13.1594 -0.986109 7.10972e-19)
(13.4235 -0.992719 5.10271e-19)
(13.6413 -0.996154 -8.33544e-19)
(13.8184 -0.996552 -1.6188e-19)
(13.9599 -0.99447 -7.83355e-19)
(14.0708 -0.990493 4.63731e-19)
(14.157 -0.986749 0)
(9.27521 -0.741382 -2.47247e-19)
(10.9909 -0.952691 0)
(11.8651 -0.967564 1.01903e-18)
(12.4101 -1.01351 -1.54009e-18)
(12.8113 -1.0273 3.70916e-19)
(13.1317 -1.04075 -3.52041e-19)
(13.396 -1.04782 1.70906e-19)
(13.6143 -1.05153 4.94335e-19)
(13.7921 -1.05209 -6.47528e-19)
(13.9344 -1.05013 1.57179e-19)
(14.0463 -1.0462 4.56272e-19)
(14.133 -1.04327 -5.97607e-19)
(9.23359 -0.781042 4.91144e-19)
(10.9522 -0.999632 4.37768e-19)
(11.8314 -1.01829 8.12038e-19)
(12.3793 -1.06594 -1.53601e-18)
(12.7816 -1.08088 1.10161e-18)
(13.1024 -1.09499 -3.47515e-19)
(13.3671 -1.10253 3.44022e-19)
(13.5858 -1.10652 3.30648e-19)
(13.7643 -1.10719 0)
(13.9076 -1.10517 0)
(14.0206 -1.10066 -3.0099e-19)
(14.1087 -1.09788 6.31138e-21)
(9.19104 -0.820288 -2.26737e-21)
(10.912 -1.04606 -2.00866e-21)
(11.796 -1.06856 0)
(12.3468 -1.11797 -3.80304e-19)
(12.7504 -1.13405 1.09616e-18)
(13.0717 -1.14882 -3.4959e-19)
(13.3368 -1.15682 -6.72556e-19)
(13.5559 -1.16112 3.32822e-19)
(13.7352 -1.16192 3.17219e-19)
(13.8793 -1.16002 -9.36951e-19)
(13.9934 -1.15546 0)
(14.082 -1.15352 -2.95298e-19)
(9.14701 -0.859112 -2.38837e-21)
(10.8699 -1.09203 4.32282e-19)
(11.7589 -1.11844 -4.08694e-19)
(12.3125 -1.16953 -1.14202e-18)
(12.7176 -1.18679 -3.57689e-19)
(13.0395 -1.20226 1.39951e-18)
(13.3049 -1.2107 1.64915e-21)
(13.5246 -1.21528 1.59968e-21)
(13.7046 -1.21619 3.1927e-19)
(13.8498 -1.21426 3.11024e-19)
(13.9649 -1.20914 0)
(14.0554 -1.20594 8.74277e-19)
(9.10152 -0.897577 -4.89077e-19)
(10.8263 -1.13759 -4.33356e-19)
(11.7199 -1.16776 -4.049e-19)
(12.2766 -1.22064 -3.77834e-19)
(12.6833 -1.23908 7.2715e-19)
(13.0058 -1.25526 -1.04073e-18)
(13.2717 -1.26417 3.43458e-19)
(13.4919 -1.26905 6.57082e-19)
(13.6727 -1.27014 0)
(13.8187 -1.26838 3.06518e-19)
(13.9349 -1.26354 -1.20381e-18)
(14.0255 -1.26054 5.91443e-19)
(9.05417 -0.935465 4.83462e-19)
(10.7805 -1.18263 -4.35828e-19)
(11.6791 -1.21669 -1.20219e-18)
(12.2391 -1.27129 3.46314e-21)
(12.6473 -1.29089 0)
(12.9706 -1.30776 -3.45351e-19)
(13.237 -1.31717 -3.33721e-19)
(13.4579 -1.32237 3.25543e-19)
(13.6395 -1.32366 0)
(13.7866 -1.32201 3.08383e-19)
(13.904 -1.31731 5.9638e-19)
(13.9962 -1.31391 -6.40348e-21)
(9.00509 -0.972547 4.85977e-19)
(10.7331 -1.22673 0)
(11.6364 -1.26483 8.00475e-19)
(12.1997 -1.32131 -3.79604e-19)
(12.6097 -1.34216 -3.5811e-19)
(12.9339 -1.35974 1.03222e-18)
(13.2009 -1.36965 -9.98445e-19)
(13.4224 -1.37516 9.71836e-19)
(13.6049 -1.3766 0)
(13.7531 -1.37491 -3.03829e-19)
(13.8718 -1.36998 8.96998e-19)
(13.9655 -1.36629 2.88686e-19)
(8.95515 -1.00905 -9.65059e-19)
(10.6842 -1.2702 4.28197e-19)
(11.5921 -1.31241 -3.56502e-21)
(12.1587 -1.37082 -7.54245e-19)
(12.5706 -1.39291 7.14873e-19)
(12.8956 -1.41119 0)
(13.1633 -1.4216 -3.30467e-19)
(13.3856 -1.42744 -3.22477e-19)
(13.569 -1.42908 0)
(13.7182 -1.42752 3.0043e-19)
(13.8382 -1.42283 -8.94044e-19)
(13.9331 -1.4193 -2.90031e-19)
(8.90395 -1.04516 0)
(10.6332 -1.31323 2.70777e-21)
(11.5459 -1.35951 1.18988e-18)
(12.1159 -1.41976 -6.5979e-21)
(12.5298 -1.44312 -1.78008e-18)
(12.8559 -1.46211 1.36591e-18)
(13.1243 -1.47299 -1.31732e-18)
(13.3473 -1.47914 6.42988e-19)
(13.5316 -1.48094 0)
(13.682 -1.47933 0)
(13.8033 -1.47425 -2.932e-19)
(13.9004 -1.47051 5.72129e-19)
(8.8508 -1.08066 0)
(10.5805 -1.35558 2.84682e-21)
(11.4979 -1.40598 -1.18142e-18)
(12.0715 -1.46811 7.4762e-19)
(12.4874 -1.49271 0)
(12.8146 -1.51246 6.76332e-19)
(13.0837 -1.52383 -3.30167e-19)
(13.3076 -1.53028 0)
(13.4929 -1.53231 -6.15594e-19)
(13.6444 -1.53091 6.05623e-19)
(13.7669 -1.5262 -2.9452e-19)
(13.8649 -1.52285 0)
(8.79599 -1.11558 9.52996e-19)
(10.5262 -1.39733 4.25177e-19)
(11.448 -1.45172 7.87007e-19)
(12.0252 -1.51581 0)
(12.4433 -1.5417 7.01212e-19)
(12.7717 -1.5622 -3.43177e-19)
(13.0417 -1.57407 -6.5576e-19)
(13.2664 -1.58085 0)
(13.4527 -1.58305 3.06472e-19)
(13.6056 -1.58161 0)
(13.7296 -1.57658 0)
(13.8297 -1.57271 0)
(8.73951 -1.14964 4.7188e-19)
(10.4697 -1.43825 -8.47195e-19)
(11.3962 -1.49678 -3.92935e-19)
(11.9771 -1.56285 0)
(12.3975 -1.59003 6.97492e-19)
(12.7273 -1.61131 -3.38006e-19)
(12.9982 -1.62367 -6.45522e-19)
(13.2238 -1.63078 9.45436e-19)
(13.4112 -1.63318 -9.15087e-19)
(13.5653 -1.63191 8.95036e-19)
(13.6907 -1.62723 -8.66161e-19)
(13.7918 -1.62388 6.33348e-21)
(8.68169 -1.18287 1.88316e-18)
(10.4115 -1.47816 -4.24765e-19)
(11.3426 -1.54105 0)
(11.9273 -1.60915 1.09417e-18)
(12.3501 -1.63771 -6.27056e-21)
(12.6812 -1.65974 -6.7137e-19)
(12.9532 -1.67262 -3.21126e-19)
(13.1797 -1.68006 -2.38963e-21)
(13.3682 -1.68257 6.04478e-19)
(13.5236 -1.68123 -5.9689e-19)
(13.6506 -1.67605 1.14963e-18)
(13.7542 -1.67254 -1.11418e-18)
(8.62258 -1.21556 -9.38484e-19)
(10.3517 -1.51738 -4.18746e-19)
(11.287 -1.58459 -3.8555e-19)
(11.8757 -1.65473 -2.90767e-21)
(12.301 -1.68469 -3.44957e-19)
(12.6336 -1.70749 -6.61009e-19)
(12.9066 -1.72091 6.463e-19)
(13.1342 -1.72871 -2.47965e-21)
(13.3237 -1.73145 0)
(13.4803 -1.73027 -8.79532e-19)
(13.6085 -1.72506 5.7324e-19)
(13.7129 -1.72081 0)
(8.5619 -1.24756 4.7272e-19)
(10.29 -1.5559 8.32994e-19)
(11.2297 -1.62737 1.15269e-18)
(11.8222 -1.69957 -1.0908e-18)
(12.2501 -1.73094 -3.39632e-19)
(12.5844 -1.75457 9.91263e-19)
(12.8586 -1.76857 3.19491e-19)
(13.0872 -1.77674 -3.09644e-19)
(13.2779 -1.7798 -1.19271e-18)
(13.4357 -1.77897 1.1729e-18)
(13.5654 -1.77432 -2.85331e-19)
(13.6707 -1.7701 -1.10781e-18)
(8.49949 -1.27881 -9.23914e-19)
(10.2264 -1.59362 1.64962e-18)
(11.1705 -1.66939 -3.86459e-19)
(11.767 -1.74366 3.58015e-19)
(12.1976 -1.77646 3.40398e-19)
(12.5336 -1.80091 -2.84097e-21)
(12.809 -1.81548 9.43399e-19)
(13.0388 -1.82401 -1.23091e-18)
(13.2308 -1.82732 0)
(13.3902 -1.82661 2.88372e-19)
(13.5217 -1.82222 0)
(13.6293 -1.81834 2.7455e-19)
(8.43538 -1.30922 -1.83653e-18)
(10.1609 -1.63041 1.64515e-18)
(11.1092 -1.71053 -3.81613e-19)