/*--------------------------------*- C++ -*----------------------------------*\
| =========                 |                                                 |
| \\      /  F ield         | OpenFOAM: The Open Source CFD Toolbox           |
|  \\    /   O peration     | Version:  2.3.1                                 |
|   \\  /    A nd           | Web:      www.OpenFOAM.org                      |
|    \\/     M anipulation  |                                                 |
\*---------------------------------------------------------------------------*/
FoamFile
{
    version     2.0;
    format      ascii;
    class       volScalarField;
    location    "0.41";
    object      p;
}
// * * * * * * * * * * * * * * * * * * * * * * * * * * * * * * * * * * * * * //

dimensions      [0 2 -2 0 0 0 0];

internalField   nonuniform List<scalar> 
9648
(
-0.121863
-0.392517
-0.713988
-1.08572
-1.53247
-2.06666
-2.6999
-3.44163
-4.29793
-5.28757
-6.42168
-7.71261
-9.17207
-10.8106
-12.6375
-14.6631
-16.8947
-19.3434
-22.0154
-24.9162
-28.0482
-31.4043
-34.9801
-38.765
-42.7547
-46.9407
-51.3163
-55.8797
-60.6237
-65.5505
-70.6293
-75.8385
-81.1491
-86.5337
-91.9863
-97.486
-103.019
-108.563
-114.091
-119.581
-125.016
-130.388
-135.661
-140.825
-145.869
-150.76
-155.485
-160.028
-164.392
-168.551
-172.462
-176.131
-179.561
-182.72
-185.613
-188.223
-190.537
-192.562
-194.273
-195.685
-196.786
0.419611
0.161002
-0.148205
-0.513526
-0.954708
-1.4729
-2.08028
-2.79119
-3.61892
-4.57225
-5.66202
-6.89918
-8.29402
-9.85678
-11.5979
-13.5266
-15.6497
-17.9761
-20.514
-23.2679
-26.2386
-29.4206
-32.8079
-36.3917
-40.1699
-44.1374
-48.2852
-52.6105
-57.1047
-61.7683
-66.5756
-71.5027
-76.527
-81.6216
-86.7811
-91.9902
-97.2299
-102.479
-107.708
-112.902
-118.044
-123.12
-128.107
-132.99
-137.751
-142.367
-146.825
-151.105
-155.196
-159.087
-162.774
-166.237
-169.464
-172.445
-175.163
-177.617
-179.787
-181.683
-183.284
-184.591
-185.591
0.234143
-0.00229272
-0.286193
-0.625234
-1.02477
-1.50588
-2.07566
-2.74572
-3.52694
-4.43285
-5.47342
-6.65936
-8.00024
-9.50676
-11.1899
-13.0578
-15.1174
-17.3765
-19.8424
-22.5204
-25.4091
-28.503
-31.7944
-35.2795
-38.9595
-42.8301
-46.8853
-51.1085
-55.499
-60.0448
-64.7247
-69.5205
-74.4049
-79.3672
-84.4008
-89.4916
-94.6187
-99.7508
-104.864
-109.938
-114.961
-119.92
-124.794
-129.569
-134.225
-138.744
-143.109
-147.306
-151.318
-155.13
-158.735
-162.119
-165.278
-168.188
-170.853
-173.251
-175.392
-177.244
-178.815
-180.102
-181.11
0.462264
0.224871
-0.0573015
-0.391675
-0.787004
-1.25398
-1.80309
-2.44597
-3.19495
-4.06257
-5.05936
-6.1948
-7.47902
-8.92378
-10.5419
-12.34
-14.3227
-16.4975
-18.8725
-21.452
-24.2344
-27.2099
-30.3717
-33.7238
-37.2753
-41.0248
-44.9501
-49.0365
-53.2585
-57.6161
-62.0962
-66.6803
-71.3672
-76.1374
-80.9913
-85.9101
-90.8614
-95.8091
-100.722
-105.595
-110.417
-115.177
-119.859
-124.443
-128.913
-133.249
-137.436
-141.46
-145.306
-148.961
-152.414
-155.655
-158.675
-161.46
-164.001
-166.29
-168.32
-170.079
-171.566
-172.776
-173.706
0.521954
0.316759
0.0664506
-0.237246
-0.602112
-1.03714
-1.55181
-2.15756
-2.86744
-3.69186
-4.64132
-5.72362
-6.94982
-8.33408
-9.88931
-11.6181
-13.524
-15.6147
-17.8972
-20.3791
-23.0537
-25.9064
-28.9395
-32.1687
-35.6125
-39.257
-43.071
-46.9987
-51.0323
-55.1668
-59.4101
-63.7874
-68.2817
-72.8977
-77.6135
-82.39
-87.1844
-91.941
-96.6466
-101.303
-105.916
-110.479
-114.971
-119.376
-123.669
-127.833
-131.854
-135.714
-139.403
-142.907
-146.216
-149.321
-152.215
-154.886
-157.322
-159.514
-161.453
-163.133
-164.556
-165.712
-166.599
0.614716
0.425785
0.195792
-0.0847735
-0.422627
-0.827687
-1.3094
-1.87922
-2.55098
-3.33311
-4.23587
-5.26561
-6.43712
-7.76245
-9.25764
-10.9191
-12.7462
-14.7501
-16.9406
-19.3222
-21.885
-24.6116
-27.5203
-30.6387
-33.9931
-37.5533
-41.2338
-44.9942
-48.7725
-52.6345
-56.6287
-60.778
-65.1349
-69.634
-74.2471
-78.9012
-83.5247
-88.07
-92.5181
-96.9287
-101.308
-105.654
-109.95
-114.164
-118.277
-122.261
-126.108
-129.795
-133.315
-136.657
-139.812
-142.771
-145.528
-148.076
-150.399
-152.485
-154.323
-155.914
-157.26
-158.352
-159.187
0.710952
0.53926
0.328814
0.0698221
-0.242683
-0.619889
-1.07066
-1.60623
-2.24147
-2.98125
-3.83932
-4.81857
-5.93755
-7.20721
-8.64381
-10.2342
-11.9798
-13.8986
-15.9948
-18.2746
-20.7213
-23.32
-26.1113
-29.1455
-32.4242
-35.884
-39.4218
-42.9103
-46.4224
-49.9856
-53.7416
-57.787
-62.03
-66.4748
-70.9882
-75.4573
-79.8742
-84.1266
-88.2821
-92.4198
-96.5663
-100.715
-104.812
-108.845
-112.771
-116.573
-120.238
-123.744
-127.088
-130.258
-133.255
-136.058
-138.671
-141.091
-143.299
-145.275
-147.007
-148.498
-149.762
-150.792
-151.571
0.805133
0.651744
0.463118
0.224605
-0.0620447
-0.412863
-0.835789
-1.33442
-1.93589
-2.63219
-3.44796
-4.37625
-5.45608
-6.66069
-8.03874
-9.55723
-11.2146
-13.0581
-15.0669
-17.2271
-19.5658
-22.027
-24.7423
-27.6982
-30.8787
-34.2128
-37.4677
-40.7136
-43.898
-47.2173
-50.9092
-54.8981
-59.1486
-63.5106
-67.8228
-72.0055
-76.1104
-80.0131
-83.8109
-87.7178
-91.6734
-95.6717
-99.5967
-103.44
-107.199
-110.793
-114.282
-117.582
-120.75
-123.727
-126.571
-129.197
-131.649
-133.947
-136.052
-137.902
-139.529
-140.895
-142.077
-143.059
-143.773
0.903712
0.759487
0.608069
0.374768
0.124745
-0.210985
-0.611414
-1.04742
-1.64728
-2.2644
-3.07254
-3.92111
-5.01552
-6.09159
-7.45061
-8.90829
-10.4392
-12.2637
-14.1594
-16.1689
-18.475
-20.7392
-23.4518
-26.2995
-29.315
-32.4801
-35.3783
-38.3682
-41.3782
-44.5125
-48.2751
-52.3002
-56.4246
-60.6179
-64.6325
-68.2158
-72.0905
-75.6474
-79.1447
-82.9631
-86.7182
-90.6853
-94.3554
-98.0909
-101.721
-104.984
-108.386
-111.365
-114.42
-117.086
-119.843
-122.191
-124.511
-126.765
-128.745
-130.404
-132.025
-133.171
-134.346
-135.281
-135.858
-197.552
-197.996
-198.123
-197.922
-197.417
-196.594
-195.461
-194.015
-192.247
-190.183
-187.799
-185.111
-182.152
-178.928
-175.43
-171.672
-167.66
-163.421
-158.948
-154.254
-149.372
-144.288
-139.027
-133.601
-128.036
-122.34
-116.497
-110.544
-104.487
-98.359
-92.1602
-85.9109
-79.6328
-73.3259
-67.0185
-60.7126
-54.4315
-48.1872
-41.9878
-35.8502
-29.7859
-23.8184
-17.9448
-12.1859
-6.55541
-1.05592
4.29673
9.49419
14.5213
19.3712
24.0392
28.5142
32.7853
36.8513
40.7015
44.331
47.7346
50.9069
53.8473
56.5512
59.0184
-186.283
-186.644
-186.731
-186.519
-186.008
-185.206
-184.108
-182.716
-181.02
-179.028
-176.739
-174.164
-171.338
-168.268
-164.941
-161.36
-157.539
-153.491
-149.223
-144.746
-140.079
-135.226
-130.201
-125.016
-119.684
-114.217
-108.648
-102.976
-97.2101
-91.3674
-85.4604
-79.5043
-73.5141
-67.5019
-61.4838
-55.4691
-49.4738
-43.5118
-37.5945
-31.7344
-25.9451
-20.2422
-14.633
-9.13123
-3.74914
1.50627
6.62363
11.5923
16.4004
21.0407
25.5064
29.7884
33.8775
37.7706
41.4584
44.9364
48.1975
51.2394
54.059
56.6531
59.0206
-181.823
-182.269
-182.378
-182.178
-181.688
-180.922
-179.847
-178.474
-176.783
-174.793
-172.539
-170.019
-167.224
-164.158
-160.843
-157.293
-153.513
-149.515
-145.309
-140.905
-136.318
-131.555
-126.628
-121.547
-116.325
-110.97
-105.504
-99.9383
-94.2851
-88.5581
-82.7707
-76.938
-71.0733
-65.1905
-59.3025
-53.421
-47.559
-41.7295
-35.9451
-30.2185
-24.5627
-18.9909
-13.513
-8.14095
-2.88523
2.24564
7.24086
12.0901
16.7829
21.3122
25.6693
29.8472
33.838
37.6371
41.2366
44.6314
47.8161
50.7868
53.5408
56.0747
58.3887
-174.353
-174.725
-174.803
-174.59
-174.082
-173.264
-172.15
-170.817
-169.226
-167.373
-165.236
-162.836
-160.172
-157.253
-154.088
-150.688
-147.061
-143.219
-139.172
-134.934
-130.517
-125.93
-121.183
-116.287
-111.253
-106.094
-100.823
-95.4546
-90.0016
-84.4763
-78.8911
-73.2614
-67.6005
-61.9227
-56.2386
-50.5604
-44.8999
-39.269
-33.6812
-28.1484
-22.6834
-17.2988
-12.0051
-6.81315
-1.73279
3.22823
8.05847
12.7486
17.2874
21.6697
25.8857
29.9285
33.7924
37.4712
40.9597
44.2499
47.3391
50.2209
52.894
55.3545
57.6033
-167.213
-167.556
-167.623
-167.415
-166.927
-166.161
-165.14
-163.803
-162.213
-160.378
-158.289
-155.948
-153.36
-150.533
-147.473
-144.187
-140.681
-136.967
-133.057
-128.963
-124.698
-120.272
-115.692
-110.967
-106.11
-101.132
-96.0465
-90.8685
-85.6089
-80.28
-74.8917
-69.4616
-64.0017
-58.5281
-53.0482
-47.574
-42.1158
-36.6849
-31.2959
-25.9595
-20.6878
-15.4944
-10.3886
-5.38124
-0.481807
4.30526
8.96431
13.4905
17.8691
22.0983
26.1673
30.0689
33.7991
37.3506
40.7214
43.9011
46.8894
49.6756
52.2628
54.6439
56.8223
-159.759
-160.068
-160.111
-159.888
-159.398
-158.647
-157.637
-156.358
-154.823
-153.044
-151.022
-148.758
-146.256
-143.528
-140.579
-137.411
-134.032
-130.449
-126.677
-122.733
-118.625
-114.367
-109.962
-105.414
-100.74
-95.9476
-91.0516
-86.0704
-81.0107
-75.8847
-70.6979
-65.4733
-60.2193
-54.9582
-49.6896
-44.4268
-39.178
-33.9536
-28.7703
-23.6365
-18.5644
-13.5689
-8.65677
-3.84075
0.8705
5.47944
9.96261
14.3212
18.5328
22.6043
26.5206
30.2748
33.8671
37.2845
40.535
43.5989
46.4832
49.1693
51.6684
53.9648
56.0705
-152.098
-152.37
-152.388
-152.149
-151.658
-150.922
-149.93
-148.682
-147.193
-145.474
-143.523
-141.338
-138.923
-136.299
-133.466
-130.421
-127.172
-123.718
-120.086
-116.295
-112.351
-108.267
-104.044
-99.6788
-95.1915
-90.5872
-85.8854
-81.1066
-76.2527
-71.3342
-66.3511
-61.3349
-56.2906
-51.2501
-46.1989
-41.1562
-36.1251
-31.1126
-26.1408
-21.2174
-16.3502
-11.5575
-6.84448
-2.22587
2.29113
6.71844
11.0218
15.2111
19.2506
23.1586
26.9168
30.5189
33.9675
37.2456
40.3734
43.3182
46.0987
48.6807
51.0879
53.2945
55.3254
-144.255
-144.477
-144.473
-144.207
-143.722
-142.999
-142.032
-140.794
-139.338
-137.694
-135.821
-133.711
-131.383
-128.864
-126.161
-123.24
-120.121
-116.792
-113.307
-109.675
-105.893
-101.993
-97.9689
-93.7819
-89.4854
-85.0731
-80.5719
-76.0007
-71.3468
-66.641
-61.855
-57.0535
-52.2152
-47.4094
-42.5793
-37.7769
-32.9839
-28.1737
-23.4148
-18.721
-14.053
-9.46333
-4.96275
-0.538769
3.76914
8.02086
12.1361
16.1626
20.015
23.7577
27.3484
30.7853
34.0956
37.2246
40.2395
43.0589
45.7427
48.2054
50.5213
52.626
54.5862
-136.301
-136.443
-136.429
-136.132
-135.655
-134.913
-133.99
-132.688
-131.312
-129.857
-127.988
-125.954
-123.677
-121.249
-118.776
-115.904
-112.91
-109.773
-106.414
-102.957
-99.2517
-95.5168
-91.7933
-87.6841
-83.591
-79.4499
-75.0879
-70.7604
-66.1959
-61.822
-57.1063
-52.6458
-47.8975
-43.429
-38.7807
-34.2493
-29.757
-25.0267
-20.4884
-16.0738
-11.52
-7.18441
-2.93476
1.37716
5.32696
9.54859
13.3352
17.3207
20.8453
24.4992
27.9393
31.1115
34.4036
37.2658
40.3083
42.872
45.5696
47.7602
50.1145
52.0148
54.0154
61.25
63.2445
65.0024
66.5245
67.81
68.8634
69.6883
70.2897
70.6719
70.8409
70.8169
70.6425
70.3149
69.7941
69.1026
68.2484
67.1963
65.9536
64.5422
62.9782
61.2735
59.4385
57.4855
55.4255
53.2706
51.0336
48.7277
46.3671
43.9642
41.5346
39.0914
36.6498
34.225
31.8306
29.4836
27.1968
24.9855
22.8629
20.853
18.9687
17.2387
15.6656
14.2628
13.0507
12.0439
11.2524
10.6859
10.3469
10.2306
10.32
10.5824
10.9657
11.393
11.7624
11.9877
11.3504
9.8476
8.31304
7.04686
6.10296
5.27809
61.1618
63.0773
64.7669
66.2312
67.4702
68.4858
69.2815
69.8612
70.2294
70.3882
70.3497
70.171
69.8579
69.3608
68.6889
67.8492
66.8227
65.6152
64.2442
62.7243
61.0669
59.2828
57.3836
55.3817
53.2888
51.117
48.8786
46.5865
44.2533
41.8927
39.518
37.1433
34.7829
32.4506
30.1612
27.9291
25.7688
23.6928
21.7049
19.8345
18.089
16.4999
15.0814
13.8457
12.8043
11.968
11.3456
10.9399
10.7465
10.7503
10.9216
11.2124
11.5494
11.8374
11.9179
11.3093
9.98973
8.6265
7.54461
6.73579
5.9063
60.4815
62.3549
64.0083
65.4432
66.659
67.6585
68.4447
69.0217
69.3921
69.5537
69.5241
69.3696
69.0814
68.6064
67.9602
67.1515
66.1674
65.0126
63.6998
62.242
60.6503
58.935
57.1078
55.1802
53.1631
51.0686
48.9082
46.6944
44.4394
42.1565
39.8585
37.5591
35.2717
33.0101
30.7879
28.6191
26.5169
24.4935
22.56
20.7386
19.0447
17.497
16.1037
14.8767
13.8274
12.9661
12.2997
11.8301
11.5522
11.4521
11.5014
11.6558
11.843
11.9654
11.8543
11.227
10.076
8.83953
7.79919
6.95307
6.11061
59.638
61.4612
63.0715
64.4717
65.6599
66.64
67.4127
67.9837
68.3515
68.5124
68.4975
68.3723
68.1099
67.6639
67.048
66.2724
65.331
64.2299
62.9771
61.5844
60.062
58.4193
56.6688
54.8209
52.8856
50.8757
48.8018
46.6761
44.51
42.3168
40.1084
37.8984
35.6991
33.5241
31.3861
29.2987
27.2742
25.3253
23.4644
21.7077
20.0698
18.5647
17.2017
15.989
14.9374
14.0554
13.3471
12.8124
12.4444
12.2292
12.1392
12.1325
12.1435
12.0816
11.8128
11.1772
10.1779
9.06758
8.0592
7.1843
6.35137
58.7927
60.5619
62.1249
63.4875
64.6438
65.6016
66.3569
66.9182
67.2793
67.44
67.442
67.3464
67.1072
66.6913
66.1065
65.3659
64.4662
63.4178
62.2237
60.896
59.4436
57.8736
56.2013
54.435
52.5831
50.6605
48.6753
46.6407
44.5659
42.4651
40.3487
38.2305
36.1212
34.0347
31.9822
29.9776
28.032
26.1578
24.3661
22.6711
21.0849
19.6203
18.2866
17.0911
16.0402
15.1396
14.3921
13.7952
13.3405
13.0131
12.7868
12.6231
12.466
12.2426
11.8607
11.2302
10.3528
9.36403
8.40501
7.52358
6.68757
57.9719
59.6855
61.1976
62.5221
63.6437
64.5785
65.3141
65.8656
66.2192
66.3844
66.4029
66.3347
66.1164
65.7306
65.1761
64.4725
63.6135
62.618
61.4813
60.2182
58.8366
57.3384
55.7449
54.0615
52.293
50.4595
48.5636
46.6218
44.6385
42.6316
40.6076
38.5821
36.5626
34.5651
32.5976
30.6757
28.8081
27.0076
25.2824
23.6465
22.1092
20.6833
19.376
18.1936
17.1404
16.2185
15.4301
14.7709
14.2315
13.798
13.4457
13.1409
12.8384
12.4837
12.0159
11.3844
10.588
9.69691
8.79597
7.9298
7.09456
57.1541
58.8107
60.2689
61.5549
62.6401
63.5532
64.2694
64.8109
65.1575
65.3313
65.3656
65.3229
65.1247
64.7683
64.2439
63.578
62.7598
61.8178
60.7367
59.5391
58.23
56.8037
55.2903
53.69
52.0045
50.2623
48.457
46.6094
44.7182
42.8067
40.876
38.9441
37.0143
35.1056
33.2223
31.3829
29.593
27.8653
26.204
24.625
23.1336
21.7442
20.4613
19.2897
18.2316
17.2875
16.4592
15.74
15.1202
14.5893
14.124
13.6971
13.2724
12.8114
12.2739
11.631
10.8795
10.0556
9.20784
8.368
7.54448
56.3299
57.9352
59.3311
60.5842
61.6249
62.5218
63.2144
63.7495
64.0872
64.278
64.3222
64.3064
64.1247
63.7998
63.3021
62.6766
61.8946
61.0148
59.9803
58.851
57.6196
56.2588
54.8353
53.318
51.7071
50.0637
48.3466
46.5992
44.795
42.9843
41.1444
39.3104
37.4669
35.6495
33.8448
32.0896
30.3754
28.7227
27.1206
25.5982
24.1459
22.7925
21.5308
20.3715
19.3072
18.3396
17.477
16.7035
16.0091
15.3936
14.8291
14.3002
13.7732
13.2265
12.6292
11.9682
11.2359
10.4541
9.6438
8.83036
8.02471
55.5387
57.2063
58.4367
59.7671
60.6492
61.6114
62.171
62.7967
63.0417
63.3505
63.302
63.3943
63.1471
62.9447
62.3944
61.8839
61.0333
60.3215
59.2816
58.2285
57.1109
55.7064
54.4453
53.0434
51.4166
49.9487
48.2475
46.67
44.8785
43.2299
41.416
39.7336
37.9272
36.2513
34.4683
32.837
31.1538
29.6146
28.0314
26.6014
25.1449
23.8552
22.5924
21.4559
20.388
19.3794
18.4993
17.6756
16.9048
16.2347
15.5725
14.9723
14.3488
13.7418
13.0824
12.4096
11.6724
10.9261
10.132
9.33109
8.54703
4.46653
3.72905
3.03779
2.33876
1.63789
0.976813
0.368871
-0.176578
-0.638446
-1.00934
-1.28607
-1.47458
-1.57719
-1.58883
-1.53858
-1.44994
-1.33681
-1.21882
-1.1102
-1.01896
-0.948305
-0.894247
-0.854572
-0.824827
-0.795752
-0.763294
-0.729791
-0.686821
-0.632738
-0.566732
-0.485569
-0.388387
-0.275513
-0.146422
-0.00461399
0.14866
0.310141
0.475475
0.640714
0.800354
0.949371
1.08209
1.19789
1.29169
1.3601
1.4031
1.41963
1.41088
1.37762
1.32292
1.25075
1.16441
1.0668
0.963393
0.855168
0.744625
0.631408
0.514068
0.381492
0.219203
0.0370098
5.05364
4.35305
3.72241
3.07069
2.39958
1.7698
1.1914
0.667317
0.223695
-0.128502
-0.385146
-0.543773
-0.605382
-0.584999
-0.514949
-0.417344
-0.303598
-0.189608
-0.0875944
-0.00448376
0.0584406
0.103666
0.134359
0.150405
0.172915
0.18823
0.209162
0.237941
0.276163
0.32639
0.390791
0.470714
0.566631
0.678092
0.803406
0.940234
1.08466
1.23332
1.38227
1.52747
1.6644
1.78818
1.89417
1.97933
2.04076
2.07716
2.088
2.07342
2.03453
1.97369
1.89401
1.79894
1.69144
1.5773
1.4574
1.33582
1.2111
1.08347
0.946893
0.794722
0.62227
5.29569
4.60084
3.95864
3.25777
2.53358
1.88472
1.28465
0.723587
0.241885
-0.149458
-0.450182
-0.659476
-0.780359
-0.82904
-0.806425
-0.735358
-0.621082
-0.491183
-0.375977
-0.283285
-0.213676
-0.164252
-0.129392
-0.101433
-0.0835907
-0.0574621
-0.02947
0.00588318
0.0511951
0.10804
0.178435
0.263635
0.363874
0.478386
0.605516
0.742952
0.887544
1.03558
1.18293
1.32512
1.45762
1.57625
1.6772
1.75706
1.81318
1.84429
1.84999
1.83119
1.78947
1.72759
1.64878
1.55712
1.45632
1.34995
1.24047
1.12982
1.01699
0.898693
0.768249
0.61587
0.434615
5.56225
4.85712
4.18427
3.46478
2.7421
2.09404
1.4769
0.891364
0.405489
0.021126
-0.278119
-0.481963
-0.586838
-0.608016
-0.551174
-0.431988
-0.295189
-0.187046
-0.0820251
0.0109861
0.0841398
0.13704
0.172525
0.196445
0.213056
0.225652
0.242118
0.263282
0.29278
0.33284
0.385749
0.453268
0.536037
0.63337
0.743914
0.865343
0.994746
1.12874
1.26355
1.39506
1.51891
1.63115
1.72801
1.80647
1.86393
1.8992
1.91167
1.90208
1.87162
1.82278
1.75773
1.67986
1.59165
1.49588
1.39338
1.28622
1.176
1.06305
0.943638
0.807721
0.653404
5.89624
5.16265
4.45641
3.72771
3.00407
2.33057
1.68625
1.09442
0.607752
0.209044
-0.116816
-0.336504
-0.451321
-0.490203
-0.459001
-0.376744
-0.275143
-0.154164
-0.0469658
0.0444896
0.112852
0.162051
0.196314
0.221322
0.240658
0.256654
0.274869
0.298013
0.328202
0.367084
0.417235
0.48045
0.557335
0.647291
0.749238
0.861068
0.980197
1.10363
1.22793
1.34943
1.46396
1.56811
1.65807
1.73137
1.78515
1.81849
1.83023
1.82134
1.79219
1.74533
1.68269
1.60781
1.52395
1.43394
1.33977
1.24572
1.15173
1.05229
0.943296
0.82534
0.688022
6.29153
5.52583
4.78675
4.0475
3.3186
2.6244
1.96441
1.35996
0.845025
0.414646
0.0741182
-0.15064
-0.284835
-0.347249
-0.32434
-0.239895
-0.131388
-0.0173322
0.0869445
0.166443
0.22235
0.262716
0.289792
0.310058
0.323555
0.335074
0.346472
0.363073
0.385932
0.416105
0.456889
0.510162
0.576504
0.655098
0.745146
0.844557
0.950981
1.06177
1.17377
1.28382
1.38774
1.48293
1.56535
1.63353
1.68406
1.71693
1.73029
1.72607
1.70377
1.66649
1.61555
1.55468
1.48681
1.41517
1.34247
1.26568
1.18486
1.09974
1.00541
0.897436
0.769009
6.73959
5.95687
5.1936
4.44197
3.70575
3.0016
2.3348
1.72297
1.1836
0.726228
0.361884
0.105277
-0.0626293
-0.137231
-0.116631
-0.0446547
0.0534074
0.157413
0.251038
0.318366
0.356629
0.382135
0.396469
0.408863
0.413617
0.41823
0.420779
0.430084
0.444935
0.464686
0.49538
0.53786
0.593393
0.660279
0.738304
0.825146
0.918807
1.0169
1.11669
1.21557
1.30905
1.39553
1.47048
1.53374
1.58081
1.61318
1.62789
1.62805
1.61204
1.58388
1.54362
1.4955
1.44109
1.38236
1.32186
1.2608
1.19696
1.12913
1.05226
0.961242
0.848815
7.22809
6.44466
5.67368
4.92086
4.18164
3.48066
2.81741
2.21373
1.66884
1.19956
0.816977
0.532664
0.321547
0.218214
0.203338
0.240546
0.327488
0.401523
0.463103
0.51293
0.521763
0.524519
0.517218
0.521014
0.5118
0.508822
0.498476
0.500702
0.508413
0.513764
0.53304
0.564952
0.611788
0.667598
0.73484
0.810157
0.892074
0.978618
1.06755
1.15719
1.24115
1.32062
1.38825
1.44804
1.49088
1.52316
1.53778
1.54201
1.52998
1.50915
1.47571
1.43711
1.39416
1.3466
1.29862
1.2507
1.20162
1.15053
1.09076
1.01872
0.923834
7.74953
6.98601
6.21238
5.46413
4.72829
4.04868
3.40252
2.84397
2.30871
1.85818
1.49175
1.22418
0.937533
0.802837
0.755551
0.7246
0.773462
0.696074
0.694994
0.769105
0.714605
0.692782
0.639731
0.664632
0.616541
0.62093
0.572464
0.574307
0.585803
0.566542
0.561519
0.591858
0.637046
0.678182
0.737206
0.80259
0.871862
0.950969
1.03065
1.12017
1.18896
1.27292
1.32316
1.39172
1.41913
1.46101
1.4608
1.48315
1.46144
1.45506
1.4162
1.37993
1.34913
1.31156
1.2768
1.23948
1.20234
1.16987
1.12332
1.07725
0.993559
4.90362
-4.43486
-5.74938
14.9276
5.77998
19.3759
18.2191
10.8419
11.5206
29.1987
1.43717
23.6921
18.3276
2.67292
21.6762
-102.335
20.6404
12.1908
1.23629
17.6707
15.1597
3.04878
0.920144
20.2646
11.4231
17.1933
17.7416
9.46621
20.3917
6.74131
10.4798
16.9226
28.5335
1.51772
22.9756
0.638304
0.592339
57.4219
18.8534
17.5242
7.80969
-2.83789
18.1003
-88.2321
0.251408
31.6095
11.346
2.99052
16.3197
25.3359
-3.71239
-45.822
17.4196
9.39129
14.0155
16.4585
6.84849
7.53231
0.782755
-31.3633
3.62899
15.5182
17.1208
-8.19966
-26.2464
14.853
0.683285
8.78247
18.9676
18.192
15.4222
59.5869
6.61223
13.2057
13.3921
6.25397
-12.6835
44.2885
17.5055
28.0918
-0.789255
16.5053
16.794
-36.9711
18.0782
50.3853
11.9954
1.61234
15.4219
1.54627
-13.8932
17.5218
5.07035
-31.8652
-37.0326
5.55905
44.2182
9.98405
25.57
-101.543
14.4863
16.177
25.1583
17.4502
18.3773
17.3443
15.2055
39.7011
19.9054
-78.0372
-109.153
16.0275
0.408551
1.29711
5.84225
1.99647
0.96098
19.6312
-7.723
11.1413
12.5468
0.0176814
11.1911
-117.803
-26.6493
10.6788
15.3315
-47.2493
-35.0457
17.9047
21.3486
-8.03126
4.26582
10.8558
2.45792
10.6873
18.2955
-53.4747
-30.9159
11.6295
9.58197
-51.9629
14.9209
49.1148
1.37989
12.5595
16.7538
1.39012
31.8201
-0.752018
16.3155
16.4826
59.1223
-33.8948
-60.5929
8.69284
8.16104
-27.95
16.928
0.608961
16.7123
26.4861
17.8023
12.4867
14.9352
12.9564
6.90003
9.75433
17.2973
0.208098
-1.94689
1.53985
5.7071
17.4746
1.27453
1.29746
1.08396
8.76158
22.4437
1.70173
1.73007
-1.28801
-31.0263
9.57899
6.36958
0.698096
-10.5299
52.1902
9.66923
11.6299
25.5452
20.3593
-17.0074
-39.2617
16.965
-31.7582
4.06894
0.35538
21.4115
0.689188
9.71724
15.002
13.4469
-58.8311
-1.81398
20.9449
8.43759
16.1825
-45.6293
0.800029
41.3649
-5.80608
16.3816
-117.399
11.0968
-77.8687
-65.3999
1.74819
33.2983
1.67944
11.2303
40.2132
11.9653
16.9766
0.961098
-7.7481
-9.30161
11.5926
17.0615
59.7442
1.3087
21.5106
-5.29347
-37.7936
13.6299
19.4284
3.14851
-57.3974
-46.7806
19.4007
13.386
8.788
10.9482
16.0892
-123.562
16.7559
8.31468
-98.6883
24.019
17.6858
8.82213
23.8379
1.2509
8.28813
11.2327
18.8569
25.4511
15.2753
6.56302
1.82974
15.7579
9.41369
-65.0306
18.6556
0.574097
12.8844
17.5917
0.993917
17.6328
0.994085
24.1387
1.12504
22.8341
11.3357
52.8799
9.95378
14.2966
10.7146
16.0036
20.8231
50.3864
9.79814
-72.0899
15.3891
14.9015
18.8329
17.449
-62.0226
7.98093
7.90729
-26.0874
40.5353
14.508
17.3677
35.2262
17.4797
9.5048
4.97935
-0.889315
16.4819
10.7812
5.4082
48.4419
-3.79282
3.95278
-79.1052
21.8806
18.743
19.5315
-100.789
9.72718
12.0088
11.423
-12.4827
16.5638
14.2694
0.676867
1.18477
7.02352
1.78952
16.4702
3.52916
15.3262
14.9859
-26.8518
1.7888
15.5373
0.79903
-90.5986
6.48107
-27.2479
-44.3212
-101.284
1.99456
1.44919
16.9822
0.610094
0.761019
-124.204
35.1177
15.0439
14.7984
11.9904
11.6183
49.8493
11.3058
-9.39976
18.9641
-70.8096
14.9788
1.29544
-45.4548
-113.878
10.7233
-61.9774
8.58854
2.67455
14.5514
1.64121
2.37215
10.2984
0.363223
0.897574
-6.97041
0.926942
16.0944
6.68429
-113.871
-33.8297
3.90958
16.6262
-26.4738
-49.7212
12.6522
1.53679
15.7492
-5.86302
7.23628
1.44514
-74.0769
0.77827
-79.8565
20.3905
-89.2899
11.2453
4.74731
20.6825
1.1458
-117.368
-27.7658
47.4994
50.2969
3.1991
0.695971
17.2205
30.3445
16.8695
-0.439523
12.0525
-10.5298
17.7214
18.874
22.0591
21.5293
-7.68355
-46.764
11.914
-83.1269
0.244724
-11.3371
1.78966
-61.9748
-2.03953
18.9082
-124.143
9.50784
9.24671
23.0275
-52.9282
17.4211
18.4613
1.3102
17.8236
10.0221
14.4368
1.13358
36.0019
-26.1398
-51.7155
9.58239
-61.1106
9.17566
-54.4304
16.9656
15.7656
0.853151
4.03032
-93.3981
-1.80298
1.58544
-10.8583
-62.1876
-59.8395
18.4121
4.6039
-41.6431
-50.0885
17.2308
2.28671
-31.4796
22.889
13.0983
36.406
-40.1193
-0.320937
-9.67246
0.491395
9.00381
-90.0722
2.2706
10.4738
20.0003
47.1673
2.46689
44.0976
2.01867
17.5487
1.65524
1.40762
13.6614
12.4551
0.135303
1.33544
16.9232
2.3076
1.39083
2.57341
1.37147
1.97591
1.2946
8.2031
4.63287
15.9482
15.7206
-110.876
10.1388
-67.2106
-107.002
16.3617
0.42633
2.22913
19.2444
3.71142
1.29339
16.4223
17.0888
15.171
5.36294
-37.5751
10.6041
26.6525
13.6294
13.8313
15.5775
5.49812
0.627499
13.4863
19.3948
9.45765
1.35953
13.9465
13.571
-12.7348
12.7213
-0.406837
-3.41951
-4.2923
17.6282
20.1271
9.33828
22.5763
3.47541
2.83738
48.8353
-22.1886
-5.51207
22.0357
8.29464
1.1352
1.37375
-80.4385
-27.695
21.0768
3.13713
10.3115
0.694694
-21.121
18.8838
12.0103
-27.3651
-82.5957
12.6791
-17.8868
-54.2237
4.60698
-105.478
9.23084
9.16589
8.99791
-31.5077
13.746
-80.9122
-2.44136
13.0822
0.874723
17.6607
-0.349023
15.0287
12.6991
31.7894
2.93907
0.817733
14.868
7.18122
0.682016
-46.7157
-30.0418
8.07443
-33.3771
4.71115
28.6869
1.49301
9.14478
-95.8464
9.78937
8.49475
14.4914
1.35423
52.2217
1.72664
8.23762
8.42099
1.28328
1.16606
13.514
15.7268
16.0516
9.50256
10.201
29.3479
-76.5452
8.3086
17.9847
-32.2882
0.588255
-87.1227
13.499
0.704813
17.8038
-55.3994
4.29585
-21.0842
0.891089
0.746665
2.82704
-106.09
20.6823
17.7187
6.52643
16.1024
-27.0786
-22.5133
-6.43796
9.83438
9.00503
4.96316
16.523
-0.27479
0.680937
16.2713
23.3427
1.35647
-58.8346
21.017
1.51518
20.6409
-8.30582
17.322
36.4482
6.75968
29.5619
18.6253
-30.2321
-21.5285
-4.67248
19.2445
10.3462
-32.4843
16.3106
12.5007
4.59569
5.55872
0.680642
-30.5495
40.4517
3.81771
2.10686
0.82822
-89.5274
9.48345
23.4641
15.7897
0.913758
5.22244
-23.3934
14.4428
12.4616
6.0576
1.19386
-7.04782
15.2393
2.14922
10.8935
-21.0688
1.29403
38.9811
0.919938
0.168739
8.35114
57.332
17.1351
16.8141
1.21609
10.1776
7.06951
8.73424
10.2142
-115.848
1.99489
-34.9331
30.6163
17.6405
8.42667
19.4614
-6.24348
-10.9276
1.2546
3.92006
1.34384
12.8768
-2.62111
18.7884
-88.6734
16.8915
6.66844
2.12793
-3.50466
2.93855
-7.15424
10.6017
3.3749
0.697439
19.3794
-120.836
15.4771
17.252
10.5894
-4.3284
19.0841
3.79344
-21.3985
15.675
-14.1426
-97.5414
17.5679
8.73667
14.5666
-63.3718
-6.52601
15.9472
42.771
12.5721
9.07782
11.389
-111.148
-126.118
16.6244
-1.4127
-11.9709
1.37669
17.9592
6.91468
-11.4732
13.8399
15.3755
0.0133721
18.6462
19.6011
8.39371
14.7886
-3.05934
13.184
-5.55142
23.2675
1.62153
-4.41726
42.8014
1.04902
6.6573
21.9858
4.20144
-45.1664
24.6105
-83.9206
21.0105
1.18391
-19.6459
10.0532
-9.93981
0.681295
12.7615
12.8809
-93.8207
-40.4176
13.4277
-65.8036
-9.21049
53.7254
-16.271
-20.2985
21.1467
0.687946
5.99459
11.9874
-56.223
-23.0195
-4.74164
-4.32594
-6.57652
0.955316
22.7236
19.1941
13.3616
-121.76
-44.6087
27.535
2.23472
-112.336
11.2683
14.5181
10.4262
1.04624
4.77503
1.10761
-15.1135
21.4981
-121.39
-17.2192
-85.8963
-98.4987
18.9127
25.4615
-43.7714
26.3087
14.6272
12.236
11.0883
10.3694
26.1327
18.0325
2.09955
-51.6905
-30.2925
24.701
2.21943
3.46922
13.7424
1.2873
12.9184
-53.5521
1.22903
49.2672
3.68034
22.3303
11.6123
18.6823
15.8715
-77.0182
12.8019
44.8386
0.837924
0.866324
32.2556
61.0516
12.7161
13.2163
25.1522
-50.6936
-15.6976
17.3328
9.84079
-91.6044
27.4807
17.4873
-63.1731
15.8936
3.71282
1.29331
6.27122
-16.3325
53.8092
0.695061
-8.67451
-0.439916
17.8557
0.278306
9.42278
14.9216
17.4521
12.0657
0.850395
17.393
0.600793
30.3358
0.0944644
11.4562
10.3723
16.7632
8.42817
-50.6235
9.77071
18.3869
-29.7228
-70.8908
33.9606
1.46515
7.46869
17.2076
34.3138
-84.7045
9.27086
-3.00693
11.2158
16.3591
-88.5403
17.5496
9.75919
50.1229
29.8464
-19.5675
4.32576
15.9053
17.4857
-65.4471
-4.53532
10.0708
14.9723
1.15893
17.8169
-127.872
7.41823
0.799584
10.4984
18.962
-0.109571
14.8087
23.102
24.9863
4.62284
-0.783093
18.0882
20.8134
17.4675
20.4325
10.733
18.2646
-70.7618
2.3725
18.1682
-25.6371
14.114
7.15998
19.7518
11.6489
-62.314
10.5488
5.09083
19.071
-20.7116
16.7691
-24.7072
-104.382
1.60644
1.17141
-47.7714
16.2314
18.5642
-21.5419
-104.66
1.2325
-14.3004
15.9216
-82.6994
13.3907
16.6764
18.495
-18.5126
6.93208
9.54105
-28.9169
17.5181
8.56665
-85.1657
10.5471
-119.49
46.9404
11.6609
18.4036
6.33554
17.0552
-9.20998
-6.32318
20.2336
-18.5091
5.70343
12.8189
-38.1991
4.66424
17.6643
-49.3763
14.9668
1.89665
-67.6074
-14.1758
17.3785
19.4455
14.6787
62.1441
8.64682
-2.57868
-23.8807
15.6838
-11.7588
15.5045
5.39497
15.6828
0.712651
9.67601
0.671724
-14.0671
58.8782
7.25012
59.254
6.99218
12.5473
3.99375
20.0198
-9.45909
18.0744
11.0855
1.46169
59.8085
16.9191
8.95126
-8.55426
0.564514
-109.114
15.9898
-5.6962
10.2893
-21.9041
-61.8595
0.909662
-73.6528
9.42612
2.79058
-26.1079
18.4724
15.7989
14.2132
12.1149
21.4364
16.3863
12.8617
17.7614
1.11405
-67.9039
17.8358
20.3904
18.0407
7.87721
-73.2667
1.29347
-24.6722
15.7126
-43.5361
0.774826
25.1389
-67.4259
17.1997
0.669033
40.278
1.33938
22.9154
4.12746
1.68002
16.2149
10.3851
-107.486
13.7994
-1.32948
-39.3154
1.34832
15.9387
11.0507
30.9904
2.75248
1.21515
-79.2617
15.9881
16.6295
17.0551
-20.1221
-36.1073
14.0594
12.8094
15.1851
1.1501
1.5497
49.4205
0.454561
-66.0287
2.02142
-59.18
0.509273
0.617605
32.4581
50.9221
12.839
60.0866
45.3652
18.4723
17.8912
6.29071
14.5295
18.7188
2.1494
1.80452
19.7895
1.56678
10.1978
19.3126
8.86538
18.6916
28.8838
1.44747
-5.51145
-120.888
18.0996
11.8839
-50.7409
7.66417
22.5444
14.0511
10.7773
2.20294
17.3944
-2.27587
1.55877
30.4469
12.801
0.755044
16.8278
17.4957
15.7903
5.69513
15.6062
17.1222
-3.61229
18.6608
20.7619
-76.8498
-28.8566
-18.5252
14.7931
1.44553
-50.7276
17.1878
1.44194
1.08092
-126.174
0.680228
17.061
8.71915
31.5356
-1.16429
1.12905
9.21667
46.4835
1.52825
16.3568
0.991318
16.7705
54.0258
14.2221
-21.3275
17.0453
0.867194
-69.7061
15.7384
42.3753
4.12103
12.9742
18.9572
29.482
10.98
19.8928
1.88198
16.4666
10.6165
-123.358
4.4663
18.7927
20.0985
-65.2031
-82.4532
17.1599
18.2193
12.5927
11.4498
-59.8516
24.7412
-58.9371
17.9068
11.3178
17.7468
-12.118
5.67171
17.5541
0.658564
1.3687
-89.4593
-61.8481
8.20387
-2.77677
-74.9159
18.5397
18.5696
18.6757
7.39927
19.0403
2.27429
18.3415
9.49272
-1.82438
-25.2163
2.39216
12.6658
1.34906
36.4876
16.8428
19.6857
-104.21
15.6273
15.6539
20.2557
12.4829
-73.7682
-7.0488
1.59664
17.3788
17.123
17.7946
-4.20201
20.4053
-17.9201
8.35351
8.47162
13.4019
9.46818
15.8091
11.0666
10.5572
9.76264
-1.73148
-10.4657
2.76641
-86.8806
11.859
16.8983
0.891618
-91.3648
41.3415
2.18863
23.8331
16.0734
13.1913
11.8161
16.6313
60.8528
-8.32127
0.973966
-95.0546
16.9144
27.9805
-37.243
3.43781
-51.3852
1.18574
31.0825
1.40842
16.7938
-22.9985
-13.3234
-38.2635
-8.54077
17.926
1.34967
7.66503
22.5126
13.1008
19.5192
8.83646
56.8392
20.6063
16.6818
44.0197
10.6004
15.827