/*--------------------------------*- C++ -*----------------------------------*\
| =========                 |                                                 |
| \\      /  F ield         | OpenFOAM: The Open Source CFD Toolbox           |
|  \\    /   O peration     | Version:  2.3.1                                 |
|   \\  /    A nd           | Web:      www.OpenFOAM.org                      |
|    \\/     M anipulation  |                                                 |
\*---------------------------------------------------------------------------*/
FoamFile
{
    version     2.0;
    format      ascii;
    class       volVectorField;
    location    "0.41";
    object      U;
}
// * * * * * * * * * * * * * * * * * * * * * * * * * * * * * * * * * * * * * //

dimensions      [0 1 -1 0 0 0 0];

internalField   nonuniform List<vector> 
9648
(
(0.166208 -4.77846 -5.65788e-24)
(0.28433 -4.75513 -1.08951e-22)
(0.402977 -4.72405 0)
(0.523753 -4.69734 0)
(0.645405 -4.67474 1.04004e-20)
(0.768225 -4.65813 1.61321e-20)
(0.894682 -4.65114 -2.8525e-20)
(1.02704 -4.65608 -1.30936e-20)
(1.16673 -4.67411 1.30615e-20)
(1.31409 -4.7072 3.93948e-20)
(1.47118 -4.75705 -3.92319e-20)
(1.63984 -4.82473 -5.62825e-20)
(1.82206 -4.91085 2.9904e-19)
(2.01984 -5.01533 7.71373e-20)
(2.2349 -5.13739 -7.23477e-19)
(2.46847 -5.27575 0)
(2.72169 -5.4287 0)
(2.99542 -5.5942 1.31038e-19)
(3.29036 -5.76965 4.2217e-19)
(3.60657 -5.95232 -1.2146e-18)
(3.94411 -6.13965 -2.10168e-20)
(4.30282 -6.32858 3.34732e-19)
(4.68192 -6.51618 3.95326e-19)
(5.08076 -6.69969 -1.79549e-18)
(5.49843 -6.8764 0)
(5.934 -7.04374 1.07324e-18)
(6.38611 -7.19923 -1.12468e-18)
(6.85343 -7.34082 0)
(7.33437 -7.46623 0)
(7.82731 -7.57386 -6.81757e-19)
(8.331 -7.66223 -1.50862e-18)
(8.84354 -7.72983 2.36929e-18)
(9.36356 -7.77562 0)
(9.8891 -7.79822 0)
(10.4184 -7.79691 1.81529e-18)
(10.9497 -7.77082 -1.95313e-18)
(11.4812 -7.71962 0)
(12.0114 -7.64296 4.19321e-18)
(12.5383 -7.54051 1.13075e-18)
(13.0603 -7.41209 -3.34785e-18)
(13.5755 -7.25774 6.27413e-20)
(14.0824 -7.07795 2.38149e-18)
(14.5796 -6.87259 -3.16285e-18)
(15.065 -6.64223 6.362e-19)
(15.5377 -6.38761 0)
(15.9962 -6.10887 0)
(16.4389 -5.8067 4.79884e-18)
(16.8645 -5.4819 7.02259e-19)
(17.2725 -5.1354 -2.17008e-18)
(17.662 -4.76722 -7.30489e-19)
(18.0312 -4.37786 -7.59803e-19)
(18.3782 -3.96973 7.55071e-19)
(18.7026 -3.54454 3.90078e-19)
(19.0038 -3.10304 -3.87959e-19)
(19.2804 -2.64696 1.98036e-18)
(19.5321 -2.17735 -1.95022e-18)
(19.758 -1.69567 -2.15598e-20)
(19.9577 -1.20312 0)
(20.1306 -0.701145 -3.96179e-19)
(20.2763 -0.191421 -5.12311e-20)
(20.3949 0.324848 -4.85894e-20)
(-0.0568336 -2.49298 1.0976e-22)
(0.00739631 -2.49447 0)
(0.0751613 -2.50868 0)
(0.148859 -2.53703 6.02875e-21)
(0.227591 -2.58475 -6.26434e-21)
(0.315567 -2.65532 -3.80032e-20)
(0.414303 -2.74689 0)
(0.525512 -2.85782 0)
(0.651053 -2.98859 -4.47318e-20)
(0.791442 -3.13938 0)
(0.947956 -3.30911 -1.0674e-19)
(1.1214 -3.49625 8.39707e-20)
(1.31266 -3.69952 -4.53609e-20)
(1.52271 -3.91722 0)
(1.7523 -4.14741 2.81684e-19)
(2.00174 -4.38797 1.66557e-19)
(2.27138 -4.6367 -1.6387e-19)
(2.56134 -4.89135 2.12593e-19)
(2.8718 -5.14937 -6.47612e-19)
(3.20253 -5.40838 5.15177e-19)
(3.55317 -5.66606 -5.70324e-19)
(3.92344 -5.9199 -3.07225e-19)
(4.31254 -6.16759 -3.15113e-19)
(4.71983 -6.4068 1.08214e-18)
(5.14444 -6.63526 3.74517e-19)
(5.58549 -6.85084 4.44478e-19)
(6.04191 -7.05166 -3.94431e-19)
(6.51217 -7.23585 0)
(6.99517 -7.40181 0)
(7.48908 -7.54798 0)
(7.99279 -7.67315 0)
(8.50478 -7.77613 0)
(9.02345 -7.85573 0)
(9.54764 -7.9111 0)
(10.0754 -7.94142 -8.13574e-19)
(10.6052 -7.94604 7.38928e-19)
(11.1354 -7.92475 8.14906e-19)
(11.6642 -7.87722 -4.13933e-18)
(12.1902 -7.80324 -8.78429e-19)
(12.7114 -7.70258 2.70098e-18)
(13.2264 -7.57539 1.89483e-18)
(13.7334 -7.42209 -1.95527e-18)
(14.2311 -7.24255 9.3394e-19)
(14.7178 -7.0375 9.85401e-19)
(15.1922 -6.80755 -1.04731e-18)
(15.6527 -6.55294 1.03796e-18)
(16.0981 -6.27451 -2.22444e-18)
(16.5268 -5.9731 0)
(16.9376 -5.64966 -5.68275e-19)
(17.3298 -5.30434 1.14189e-18)
(17.7025 -4.93774 -5.73769e-19)
(18.0547 -4.55175 0)
(18.3851 -4.14776 1.17925e-18)
(18.6928 -3.72657 0)
(18.9769 -3.28964 0)
(19.2367 -2.83813 2.79482e-18)
(19.4713 -2.37333 -1.25958e-18)
(19.6802 -1.89685 -3.0644e-19)
(19.863 -1.40956 3.23394e-19)
(20.0191 -0.913165 0)
(20.1481 -0.40892 8.13186e-20)
(0.0538665 -1.43564 -2.5343e-22)
(0.108364 -1.47872 0)
(0.169581 -1.54236 -5.18501e-22)
(0.239101 -1.628 -3.02259e-22)
(0.316771 -1.73314 0)
(0.405899 -1.85644 3.263e-20)
(0.507569 -1.9998 2.18287e-20)
(0.623164 -2.16217 0)
(0.754262 -2.34313 2.24773e-21)
(0.902591 -2.54126 4.57771e-20)
(1.06911 -2.7555 9.10404e-20)
(1.25444 -2.98395 -3.15483e-20)
(1.45914 -3.22483 0)
(1.68355 -3.47606 0)
(1.92798 -3.73555 2.14267e-19)
(2.19238 -4.00121 -1.36039e-19)
(2.4767 -4.27081 -1.45763e-19)
(2.78075 -4.54213 0)
(3.10428 -4.81295 5.6045e-19)
(3.44691 -5.0811 -5.81921e-19)
(3.80815 -5.34459 -4.34923e-19)
(4.18745 -5.60135 -4.78688e-19)
(4.5841 -5.84937 0)
(4.99741 -6.08661 -8.56565e-19)
(5.42658 -6.31111 -3.01005e-19)
(5.87068 -6.52109 3.57225e-19)
(6.32832 -6.71478 3.94172e-19)
(6.79832 -6.89085 0)
(7.27884 -7.04754 0)
(7.76877 -7.18393 0)
(8.26694 -7.29888 0)
(8.77197 -7.39136 0)
(9.28299 -7.46063 0)
(9.79821 -7.50558 0)
(10.316 -7.5256 -1.78189e-18)
(10.8348 -7.52019 5.91861e-19)
(11.3526 -7.48913 -6.52934e-19)
(11.8681 -7.43238 3.28602e-18)
(12.3796 -7.34968 0)
(12.8856 -7.24112 1.39758e-18)
(13.3846 -7.10684 1.44502e-18)
(13.8751 -6.94713 7.15847e-19)
(14.3558 -6.76217 -8.19649e-19)
(14.825 -6.55247 -1.57869e-18)
(15.2816 -6.31859 2.45931e-18)
(15.724 -6.06102 -8.31767e-19)
(16.151 -5.78054 -1.69663e-18)
(16.5615 -5.47794 0)
(16.954 -5.15422 0)
(17.3277 -4.81036 -4.62955e-19)
(17.6814 -4.44747 -4.52708e-19)
(18.0145 -4.06643 -9.25763e-19)
(18.326 -3.66833 -9.68865e-19)
(18.615 -3.25458 0)
(18.8808 -2.82597 -9.58207e-19)
(19.1225 -2.38422 -9.9841e-19)
(19.3398 -1.93006 0)
(19.5319 -1.46566 1.61487e-20)
(19.698 -0.991332 0)
(19.8382 -0.508835 0)
(19.9521 -0.0191801 -6.18339e-20)
(0.0239018 -0.928861 5.45893e-22)
(0.0830322 -1.01062 -6.95913e-22)
(0.153358 -1.11171 -1.12858e-22)
(0.235313 -1.23132 -2.03337e-21)
(0.329088 -1.36854 0)
(0.434725 -1.5231 -1.36307e-20)
(0.553658 -1.69517 -1.88429e-20)
(0.687164 -1.8842 0)
(0.836637 -2.08935 3.08711e-21)
(1.00295 -2.30947 -3.9127e-20)
(1.18696 -2.54316 8.76948e-20)
(1.38899 -2.78875 1.05662e-19)
(1.60938 -3.04426 0)
(1.84839 -3.30765 -8.2713e-20)
(2.10625 -3.57692 -1.75305e-19)
(2.38269 -3.8501 -9.33012e-20)
(2.67759 -4.12508 3.58562e-19)
(2.99068 -4.39978 -2.58925e-19)
(3.32156 -4.67214 2.9008e-19)
(3.66991 -4.94024 4.93779e-19)
(4.0353 -5.20233 7.14336e-19)
(4.41705 -5.45662 4.02507e-19)
(4.81475 -5.7013 1.93466e-19)
(5.22762 -5.93445 7.02224e-19)
(5.65493 -6.15422 2.30527e-19)
(6.09552 -6.35909 2.62057e-19)
(6.54821 -6.54774 3.09061e-19)
(7.01133 -6.71863 -9.2531e-19)
(7.48385 -6.87083 6.63764e-19)
(7.96437 -7.00288 7.48834e-19)
(8.45219 -7.11389 -1.53012e-18)
(8.94662 -7.20302 7.80969e-19)
(9.44606 -7.26905 -8.35451e-19)
(9.94961 -7.31152 4.16147e-19)
(10.4551 -7.32965 4.56528e-19)
(10.9607 -7.32314 5.06818e-19)
(11.4649 -7.29188 -5.00351e-19)
(11.9661 -7.23583 -5.45125e-19)
(12.4631 -7.15489 -1.63452e-18)
(12.9544 -7.04885 -1.17835e-18)
(13.4387 -6.91799 -2.38832e-18)
(13.9147 -6.7625 -3.0929e-18)
(14.3808 -6.5827 1.26778e-18)
(14.8359 -6.37906 2.85054e-20)
(15.2785 -6.15206 -7.09493e-19)
(15.7073 -5.90227 -6.96012e-19)
(16.1211 -5.63032 4.20735e-18)
(16.5186 -5.337 -7.05119e-19)
(16.8989 -5.0231 0)
(17.2609 -4.68952 0)
(17.6036 -4.33729 -7.08145e-19)
(17.9263 -3.96758 3.14454e-20)
(18.228 -3.58138 7.59479e-19)
(18.508 -3.17982 0)
(18.7655 -2.76417 8.08479e-19)
(18.9997 -2.33575 0)
(19.2101 -1.89572 0)
(19.396 -1.44501 6.15953e-19)
(19.5571 -0.985159 1.95936e-19)
(19.693 -0.517621 -1.99624e-19)
(19.8034 -0.0438598 1.02129e-19)
(0.112428 -0.676437 4.32665e-23)
(0.173726 -0.780332 6.08154e-22)
(0.248506 -0.901068 -7.67802e-22)
(0.33736 -1.03897 1.11033e-21)
(0.440073 -1.19385 -3.14496e-21)
(0.557245 -1.3653 5.50854e-21)
(0.689479 -1.55292 2.34178e-21)
(0.837484 -1.75581 -1.3923e-20)
(1.0023 -1.97307 4.07689e-20)
(1.1841 -2.20346 -5.87965e-20)
(1.38344 -2.44548 6.59777e-20)
(1.60012 -2.69743 -8.17868e-20)
(1.8344 -2.95729 -4.70489e-20)
(2.08614 -3.22307 0)
(2.35566 -3.49281 8.56675e-20)
(2.64238 -3.76486 8.23319e-20)
(2.94604 -4.03713 0)
(3.2664 -4.30768 2.03135e-19)
(3.60293 -4.57466 0)
(3.95541 -4.83619 -2.68577e-19)
(4.32351 -5.09088 2.92952e-19)
(4.70655 -5.33716 1.00089e-20)
(5.10421 -5.57309 -1.72403e-20)
(5.51557 -5.797 2.9047e-20)
(5.93985 -6.00715 -8.20044e-19)
(6.376 -6.20242 -4.71214e-19)
(6.82231 -6.38167 9.69848e-19)
(7.27813 -6.54392 1.05255e-18)
(7.74151 -6.68771 -5.68259e-19)
(8.21217 -6.81196 0)
(8.68968 -6.91548 0)
(9.17254 -6.99707 0)
(9.66059 -7.05615 7.16459e-19)
(10.1515 -7.09184 -2.95717e-18)
(10.6437 -7.10407 1.54852e-18)
(11.1353 -7.09272 -7.87699e-19)
(11.6248 -7.05767 -1.70179e-18)
(12.111 -6.99906 1.7261e-18)
(12.5925 -6.9164 3.89342e-20)
(13.0684 -6.80958 -9.72947e-19)
(13.5373 -6.67876 1.00477e-18)
(13.9977 -6.52415 1.03839e-18)
(14.4484 -6.34613 0)
(14.8881 -6.14505 -1.05394e-18)
(15.3155 -5.9215 0)
(15.7292 -5.67602 -1.68326e-18)
(16.1282 -5.40926 5.20419e-19)
(16.5113 -5.12192 0)
(16.8775 -4.81469 -6.10183e-19)
(17.2258 -4.48858 -1.46172e-20)
(17.5555 -4.14439 1.29929e-18)
(17.8655 -3.78329 -6.17503e-19)
(18.1553 -3.40637 -3.43302e-19)
(18.424 -3.0147 6.28699e-19)
(18.6708 -2.60965 -4.81198e-21)
(18.895 -2.19219 3.27742e-19)
(19.0958 -1.76362 1.58334e-19)
(19.2729 -1.32485 3.34081e-19)
(19.426 -0.877087 -8.39176e-19)
(19.5546 -0.421832 3.37016e-19)
(19.6586 0.0393765 -4.31151e-20)
(0.193772 -0.541828 -2.84619e-22)
(0.268284 -0.661238 0)
(0.357256 -0.796239 1.50862e-21)
(0.461313 -0.947393 0)
(0.579592 -1.11447 8.63308e-22)
(0.713082 -1.2968 7.70783e-21)
(0.862024 -1.49389 8.6863e-21)
(1.02688 -1.70452 2.68826e-20)
(1.20861 -1.92774 3.75344e-21)
(1.4067 -2.16237 5.75851e-21)
(1.62183 -2.40681 1.09632e-21)
(1.85309 -2.65953 -3.11229e-20)
(2.10091 -2.91844 4.55248e-20)
(2.36446 -3.18155 -1.38684e-19)
(2.64473 -3.44696 1.17831e-19)
(2.94064 -3.71359 -8.32609e-21)
(3.25177 -3.97916 -1.45858e-19)
(3.5782 -4.24189 -1.754e-19)
(3.91893 -4.50014 0)
(4.27412 -4.75209 2.08545e-19)
(4.64372 -4.99659 8.1366e-21)
(5.02664 -5.23225 -5.3919e-19)
(5.42306 -5.45702 -2.30046e-20)
(5.83155 -5.66959 -2.91745e-19)
(6.25117 -5.86829 1.03141e-18)
(6.68091 -6.05246 3.58855e-20)
(7.11954 -6.22143 -3.83989e-19)
(7.56585 -6.37366 -3.91627e-20)
(8.01985 -6.50864 0)
(8.4798 -6.62397 0)
(8.94608 -6.71868 0)
(9.41766 -6.79209 0)
(9.89192 -6.84274 0)
(10.369 -6.87112 5.6474e-20)
(10.8459 -6.87711 -6.64181e-19)
(11.3212 -6.86094 -3.9735e-20)
(11.7946 -6.82216 2.60209e-20)
(12.2642 -6.76104 6.88413e-19)
(12.7295 -6.67695 1.56676e-18)
(13.189 -6.56924 -2.36166e-18)
(13.6416 -6.43864 1.64251e-18)
(14.0858 -6.28515 -8.28196e-19)
(14.5199 -6.10926 0)
(14.9434 -5.91118 9.19715e-19)
(15.3545 -5.69155 0)
(15.7523 -5.451 9.6794e-19)
(16.1356 -5.18992 -9.90347e-19)
(16.5033 -4.90935 4.65257e-19)
(16.8545 -4.60957 4.96824e-19)
(17.1884 -4.29159 -5.18395e-19)
(17.5042 -3.95625 3.68628e-20)
(17.8011 -3.60477 -1.0581e-20)
(18.0783 -3.2379 1.05408e-18)
(18.3352 -2.85706 -1.08467e-18)
(18.5711 -2.46344 -5.35169e-19)
(18.7849 -2.05834 -2.62015e-19)
(18.976 -1.64254 -8.3324e-19)
(19.144 -1.21687 0)
(19.2888 -0.782429 5.62735e-19)
(19.4103 -0.341023 -1.44437e-19)
(19.5079 0.10607 0)
(0.296021 -0.476523 0)
(0.384956 -0.606868 0)
(0.489441 -0.752499 -8.85276e-22)
(0.610873 -0.913716 1.90761e-22)
(0.746341 -1.08983 -2.24913e-21)
(0.897859 -1.27964 -1.21641e-20)
(1.06479 -1.48258 6.26092e-21)
(1.24692 -1.69713 -1.91812e-20)
(1.44646 -1.92255 -1.26e-21)
(1.66069 -2.1577 4.90749e-20)
(1.89192 -2.40096 -8.97577e-20)
(2.13725 -2.65116 0)
(2.3984 -2.90587 0)
(2.67246 -3.16335 1.57824e-19)
(2.96303 -3.42128 1.0092e-19)
(3.2673 -3.67995 -2.22162e-19)
(3.5847 -3.93639 3.5987e-19)
(3.91652 -4.189 1.50111e-19)
(4.26032 -4.43686 -3.00243e-19)
(4.61692 -4.67731 -1.81693e-19)
(4.98755 -4.90967 2.08452e-19)
(5.36912 -5.13325 -5.62872e-21)
(5.76379 -5.34494 0)
(6.16797 -5.54502 5.36328e-19)
(6.58135 -5.73155 -8.86337e-19)
(7.00373 -5.90399 2.9576e-19)
(7.43249 -6.0623 6.55973e-19)
(7.87021 -6.2044 -1.8152e-18)
(8.3134 -6.3287 3.68965e-19)
(8.7626 -6.43427 0)
(9.21789 -6.51826 0)
(9.67547 -6.5815 0)
(10.1357 -6.6238 5.01769e-19)
(10.5965 -6.64394 1.55841e-18)
(11.0569 -6.64433 -1.05803e-18)
(11.5149 -6.62431 5.84206e-19)
(11.9709 -6.58148 6.38833e-19)
(12.4237 -6.51819 -1.26759e-18)
(12.8715 -6.4321 0)
(13.3143 -6.32272 -1.29628e-18)
(13.7497 -6.19165 6.73412e-19)
(14.1767 -6.03865 3.52059e-20)
(14.5934 -5.86493 -3.14026e-20)
(14.9992 -5.6695 7.40674e-19)
(15.3934 -5.45378 3.12325e-20)
(15.7739 -5.21843 -2.36537e-18)
(16.1408 -4.96307 8.01328e-19)
(16.492 -4.6895 -1.66439e-18)
(16.8274 -4.39709 0)
(17.1458 -4.08766 0)
(17.4469 -3.76111 1.7567e-18)
(17.7295 -3.4197 -4.1967e-19)
(17.9931 -3.06331 -9.09885e-19)
(18.2376 -2.69324 -4.37417e-19)
(18.4619 -2.31156 1.39616e-18)
(18.6648 -1.9193 7.04136e-19)
(18.8455 -1.51673 2.4332e-19)
(19.0035 -1.10499 -4.54615e-21)
(19.1393 -0.684168 -2.43378e-19)
(19.2532 -0.256701 0)
(19.344 0.175536 0)
(0.415029 -0.45519 3.31002e-22)
(0.521693 -0.593324 0)
(0.642912 -0.746513 0)
(0.784446 -0.915357 -4.22743e-22)
(0.937584 -1.09806 0)
(1.10819 -1.29259 4.75862e-21)
(1.29342 -1.49856 6.02949e-21)
(1.49193 -1.714 -1.24243e-20)
(1.71056 -1.93882 0)
(1.9396 -2.17186 -2.93498e-20)
(2.188 -2.41149 3.91322e-21)
(2.44585 -2.65719 0)
(2.72112 -2.90575 0)
(3.00277 -3.15612 -6.63983e-20)
(3.30399 -3.40346 7.26047e-20)
(3.61635 -3.65287 -9.08292e-20)
(3.93821 -3.89885 -1.04265e-19)
(4.27549 -4.13972 0)
(4.62091 -4.3768 1.34152e-19)
(4.97755 -4.60457 -2.82994e-19)
(5.35001 -4.82328 -3.16287e-19)
(5.72795 -5.0342 -3.70215e-19)
(6.12086 -5.23104 -3.34644e-20)
(6.51958 -5.41922 -4.73787e-19)
(6.92543 -5.5936 4.53313e-19)
(7.34033 -5.7544 5.08496e-19)
(7.75855 -5.90286 -5.77161e-19)
(8.18655 -6.0319 3.34765e-20)
(8.62091 -6.14583 4.15377e-20)
(9.05683 -6.23973 -6.53701e-19)
(9.49919 -6.31087 0)
(9.94198 -6.36511 -7.96304e-19)
(10.3838 -6.39796 1.58384e-18)
(10.8283 -6.4109 -3.98945e-20)
(11.2724 -6.40715 9.34849e-19)
(11.7107 -6.38457 -9.33781e-19)
(12.151 -6.33673 1.02676e-18)
(12.587 -6.27102 1.06446e-18)
(13.0173 -6.18262 -2.1062e-18)
(13.4422 -6.0699 1.15025e-18)
(13.8586 -5.93842 1.12826e-18)
(14.2676 -5.78536 1.78311e-18)
(14.6644 -5.614 -6.34933e-19)
(15.0521 -5.42034 0)
(15.4283 -5.20864 3.37333e-20)
(15.7902 -4.97965 6.89608e-19)
(16.1402 -4.72966 -6.70489e-19)
(16.4733 -4.4645 7.21587e-19)
(16.7919 -4.17941 0)
(17.0932 -3.87957 0)
(17.3789 -3.56168 -3.93026e-20)
(17.6463 -3.23135 7.74343e-19)
(17.8952 -2.88474 0)
(18.1265 -2.52523 3.84486e-19)
(18.3389 -2.15662 3.87739e-19)
(18.5301 -1.77827 -7.89702e-19)
(18.7 -1.38949 -3.87332e-19)
(18.8467 -0.992753 -2.0569e-19)
(18.9724 -0.585063 0)
(19.0784 -0.172548 0)
(19.162 0.243431 2.46222e-20)
(0.550964 -0.461746 -9.38364e-22)
(0.681651 -0.604329 1.81679e-21)
(0.819144 -0.76055 -2.07078e-23)
(0.987076 -0.934912 -1.27754e-21)
(1.15426 -1.12084 1.04404e-21)
(1.34371 -1.31975 -6.10334e-22)
(1.54805 -1.52462 0)
(1.75918 -1.73689 1.42099e-21)
(2.00209 -1.95959 -1.467e-20)
(2.24013 -2.18708 0)
(2.51146 -2.42187 5.93596e-20)
(2.77463 -2.66253 -3.69927e-20)
(3.06756 -2.90507 3.75948e-20)
(3.34942 -3.14855 4.80364e-20)
(3.66393 -3.37967 -6.27536e-20)
(3.98403 -3.62093 -7.64031e-20)
(4.30617 -3.85625 2.51948e-19)
(4.65335 -4.08185 -2.62361e-19)
(4.99415 -4.31087 0)
(5.34581 -4.52737 -8.78705e-21)
(5.72671 -4.73101 7.77265e-19)
(6.09303 -4.93163 -2.9409e-20)
(6.49186 -5.1085 -3.6944e-19)
(6.87882 -5.28827 7.08094e-19)
(7.27469 -5.45402 0)
(7.68589 -5.60371 -4.38772e-19)
(8.08603 -5.74275 -4.4442e-19)
(8.50766 -5.85706 9.81633e-19)
(8.93434 -5.95875 -3.0396e-21)
(9.35342 -6.04228 5.75601e-19)
(9.78475 -6.09874 -1.17855e-18)
(10.2054 -6.1472 1.88839e-18)
(10.6258 -6.17556 -1.35821e-18)
(11.0544 -6.18244 -1.43337e-18)
(11.4859 -6.17392 0)
(11.9012 -6.14945 8.17136e-19)
(12.3328 -6.09223 0)
(12.7502 -6.02552 -6.14468e-21)
(13.16 -5.9348 9.56872e-19)
(13.5698 -5.81525 -1.77837e-18)
(13.9641 -5.68266 -6.81983e-21)
(14.3555 -5.53017 -1.96768e-18)
(14.7265 -5.36454 0)
(15.0948 -5.17394 -5.64329e-19)
(15.4543 -4.9677 2.16535e-18)
(15.793 -4.74626 -5.50704e-19)
(16.13 -4.50109 5.82873e-19)
(16.4411 -4.24556 0)
(16.7449 -3.96679 5.99614e-19)
(17.0266 -3.6757 -1.80943e-18)
(17.298 -3.36263 -2.5144e-20)
(17.5486 -3.0435 0)
(17.7798 -2.70956 6.21511e-19)
(17.9985 -2.36113 -1.8599e-20)
(18.2 -2.00306 0)
(18.3766 -1.63704 3.49893e-19)
(18.5376 -1.26968 -3.17621e-19)
(18.6702 -0.8901 3.3308e-19)
(18.7841 -0.496774 3.30278e-19)
(18.8853 -0.0954992 -1.65767e-19)
(18.9582 0.304837 -6.2739e-20)
(20.4854 0.846737 1.51132e-19)
(20.5475 1.37254 -5.1234e-20)
(20.5816 1.90175 0)
(20.5877 2.43202 0)
(20.5661 2.96151 8.14319e-19)
(20.517 3.48912 1.17198e-18)
(20.4405 4.0131 -1.20663e-18)
(20.337 4.53198 -3.97704e-19)
(20.2063 5.04426 3.97632e-19)
(20.0491 5.54886 7.78345e-19)
(19.8658 6.04521 -7.78777e-19)
(19.6563 6.53145 -7.57334e-19)
(19.4221 7.00651 3.76673e-18)
(19.1646 7.46925 7.32717e-19)
(18.8841 7.91818 -6.46632e-18)
(18.5812 8.35179 0)
(18.2567 8.76917 0)
(17.912 9.16936 6.72801e-19)
(17.5477 9.55182 1.98739e-18)
(17.1647 9.91518 -5.10942e-18)
(16.7645 10.2588 -7.44625e-20)
(16.3478 10.5822 1.17153e-18)
(15.9158 10.8842 1.20512e-18)
(15.4695 11.1644 -4.49798e-18)
(15.0104 11.4225 0)
(14.5395 11.6587 2.11313e-18)
(14.057 11.8723 -1.9587e-18)
(13.565 12.0615 0)
(13.0649 12.2261 0)
(12.5585 12.3657 -8.97734e-19)
(12.047 12.4804 -1.64187e-18)
(11.5315 12.5699 2.34062e-18)
(11.0138 12.6342 0)
(10.4948 12.6735 0)
(9.97591 12.6876 1.18268e-18)
(9.45838 12.6768 -1.1245e-18)
(8.94352 12.6411 0)
(8.43262 12.5812 1.77473e-18)
(7.92671 12.4971 3.70188e-19)
(7.42705 12.3892 -1.02475e-18)
(6.93484 12.258 3.53785e-20)
(6.45152 12.1042 4.3338e-19)
(5.97785 11.9283 -4.29807e-19)
(5.51504 11.7308 7.53583e-20)
(5.06427 11.5126 0)
(4.62627 11.2744 0)
(4.20208 11.0169 -1.65041e-19)
(3.79262 10.7408 -3.61001e-20)
(3.39892 10.4473 2.17993e-19)
(3.02167 10.1374 9.09161e-20)
(2.66148 9.81194 1.42772e-19)
(2.3192 9.4718 -1.4463e-19)
(1.99558 9.11826 -9.70924e-20)
(1.69093 8.75249 9.84145e-20)
(1.40596 8.37541 -5.88376e-19)
(1.14108 7.98844 6.42163e-19)
(0.896713 7.59272 -1.29589e-21)
(0.673171 7.18973 0)
(0.47063 6.78054 1.63744e-19)
(0.289448 6.36623 2.22529e-20)
(0.129711 5.94805 2.35543e-20)
(20.2495 0.101599 -8.13989e-20)
(20.3225 0.616397 0)
(20.3677 1.13294 0)
(20.3858 1.65075 9.34841e-19)
(20.3764 2.16858 -6.25086e-19)
(20.3399 2.68523 -2.20258e-18)
(20.2766 3.19908 0)
(20.1864 3.70889 0)
(20.0696 4.21323 -1.19968e-18)
(19.9263 4.71047 0)
(19.7568 5.19999 -1.75802e-18)
(19.5616 5.67952 1.16643e-18)
(19.3423 6.14726 -5.79041e-19)
(19.0998 6.60286 0)
(18.8344 7.04595 2.2902e-18)
(18.5465 7.47519 1.07297e-18)
(18.2367 7.88941 -1.07506e-18)
(17.9063 8.28742 1.02282e-18)
(17.5559 8.66858 -3.0225e-18)
(17.1866 9.03169 2.03526e-18)
(16.7997 9.37561 -1.97678e-18)
(16.396 9.69989 -1.0077e-18)
(15.9768 10.0033 -9.11805e-19)
(15.5431 10.2852 2.64567e-18)
(15.0961 10.5447 8.48088e-19)
(14.6368 10.7818 7.76225e-19)
(14.166 10.9965 -7.0166e-19)
(13.6859 11.188 0)
(13.1975 11.3555 0)
(12.7022 11.4985 0)
(12.2011 11.6169 0)
(11.6956 11.7105 0)
(11.1873 11.7792 0)
(10.6771 11.823 0)
(10.1667 11.8418 -4.89935e-19)
(9.65709 11.8357 4.35204e-19)
(9.14972 11.8048 3.48924e-19)
(8.64579 11.7494 -1.69387e-18)
(8.1464 11.6698 -2.64769e-19)
(7.65289 11.5664 7.89829e-19)
(7.16649 11.4395 4.35266e-19)
(6.68855 11.2896 -3.47768e-19)
(6.21995 11.1175 1.29603e-19)
(5.76203 10.9234 9.53548e-20)
(5.31589 10.7081 -9.09741e-21)
(4.88234 10.4723 9.19894e-21)
(4.46246 10.2168 8.96377e-20)
(4.05721 9.9422 0)
(3.66766 9.64962 7.95387e-20)
(3.29458 9.33998 -1.80645e-19)
(2.93864 9.01417 1.01395e-19)
(2.60076 8.67307 0)
(2.28179 8.3178 -3.02886e-19)
(1.98198 7.94952 0)
(1.70225 7.56917 0)
(1.44284 7.17815 -9.42891e-19)
(1.20441 6.77765 4.55025e-19)
(0.987154 6.36908 1.25802e-19)
(0.791643 5.95343 -1.31677e-19)
(0.618191 5.532 0)
(0.467038 5.10601 -3.71616e-20)
(20.0397 0.475641 6.18764e-20)
(20.1011 0.974486 0)
(20.136 1.47397 -2.46871e-19)
(20.1434 1.97381 -1.62091e-20)
(20.1241 2.47268 0)
(20.0787 2.96987 1.98061e-18)
(20.0073 3.46446 9.67031e-19)
(19.9097 3.95637 0)
(19.7861 4.44329 3.18159e-20)
(19.6365 4.92312 9.36309e-19)
(19.4622 5.39411 1.42219e-18)
(19.2641 5.85487 -4.67494e-19)
(19.0427 6.3038 0)
(18.7984 6.74001 0)
(18.5316 7.16303 1.7224e-18)
(18.2432 7.57202 -8.49787e-19)
(17.9342 7.96595 -7.96614e-19)
(17.6054 8.34386 0)
(17.2578 8.70496 2.40545e-18)
(16.8923 9.0483 -2.30843e-18)
(16.5101 9.37293 -1.47456e-18)
(16.1122 9.67816 -1.42696e-18)
(15.6996 9.96306 0)
(15.2735 10.2269 -2.03889e-18)
(14.835 10.4691 -6.65219e-19)
(14.3852 10.6891 6.07856e-19)
(13.9254 10.8862 5.98277e-19)
(13.457 11.0603 0)
(12.9809 11.2112 0)
(12.4986 11.3384 0)
(12.0111 11.4417 0)
(11.5198 11.5211 0)
(11.0259 11.5765 0)
(10.5309 11.6078 0)
(10.0359 11.615 -1.04634e-18)
(9.54214 11.5982 3.35052e-19)
(9.05091 11.5575 -2.67348e-19)
(8.56333 11.4931 1.27385e-18)
(8.08054 11.4055 0)
(7.60376 11.2949 3.58605e-19)
(7.13417 11.1619 2.92827e-19)
(6.67301 11.0068 1.25577e-19)
(6.22128 10.8302 -7.52605e-20)
(5.78015 10.6326 -9.54926e-20)
(5.35066 10.4148 3.20709e-20)
(4.93369 10.1772 -2.07346e-21)
(4.53012 9.92062 9.99426e-20)
(4.14092 9.64591 0)
(3.767 9.35398 0)
(3.40922 9.04567 7.94825e-20)
(3.0683 8.72189 9.60162e-20)
(2.74495 8.38358 2.07051e-19)
(2.43991 8.03169 2.37456e-19)
(2.15363 7.66733 0)
(1.88682 7.29137 2.9563e-19)
(1.63972 6.90527 3.26444e-19)
(1.41285 6.51007 0)
(1.20657 6.10725 -1.8964e-21)
(1.02142 5.6977 0)
(0.857636 5.28274 0)
(0.715494 4.86346 2.83711e-20)
(19.8881 0.435066 -1.02176e-19)
(19.9472 0.917574 1.99878e-19)
(19.9805 1.40311 -3.94151e-19)
(19.9876 1.88979 -2.1186e-19)
(19.9686 2.37604 0)
(19.9233 2.86061 -8.20597e-19)
(19.8512 3.3428 -8.14715e-19)
(19.7536 3.82115 0)
(19.6317 4.29522 3.36125e-20)
(19.4857 4.76315 -7.87433e-19)
(19.3157 5.22274 1.48714e-18)
(19.1221 5.67295 1.46395e-18)
(18.9054 6.11265 0)
(18.666 6.54071 -7.13382e-19)
(18.4048 6.95584 -1.41668e-18)
(18.1227 7.35686 -6.98631e-19)
(17.8203 7.74289 2.04623e-18)
(17.4987 8.11305 -1.31484e-18)
(17.1586 8.4666 1.27936e-18)
(16.8012 8.80268 1.85724e-18)
(16.4276 9.12048 2.41144e-18)
(16.0386 9.41919 1.19193e-18)
(15.6355 9.69798 5.48937e-19)
(15.2193 9.95614 1.65866e-18)
(14.7908 10.1932 5.07965e-19)
(14.3513 10.4085 5.08361e-19)
(13.9021 10.6018 4.6074e-19)
(13.4442 10.7726 -1.34182e-18)
(12.979 10.9205 8.32176e-19)
(12.5077 11.0453 7.76622e-19)
(12.0314 11.1468 -1.50708e-18)
(11.5513 11.2248 7.30389e-19)
(11.0688 11.2794 -6.35981e-19)
(10.5851 11.3106 2.98662e-19)
(10.1016 11.3182 2.88397e-19)
(9.61936 11.3023 2.34427e-19)
(9.1396 11.263 -2.35936e-19)
(8.66339 11.2007 -2.22193e-19)
(8.19185 11.1156 -5.0905e-19)
(7.72622 11.0081 -2.95185e-19)
(7.26763 10.8786 -4.61943e-19)
(6.81721 10.7277 -4.30205e-19)
(6.37613 10.5559 1.24364e-19)
(5.94543 10.3637 6.98003e-21)
(5.52612 10.1516 -2.12084e-21)
(5.11913 9.92022 2.99338e-20)
(4.72515 9.67033 -2.58458e-19)
(4.34521 9.40271 5.62152e-20)
(3.98011 9.11833 0)
(3.63082 8.81795 0)
(3.29792 8.5024 1.46253e-19)
(2.98225 8.17278 6.15239e-22)
(2.68442 7.82987 -1.92252e-19)
(2.40491 7.47472 0)
(2.14433 7.10815 -2.39248e-19)
(1.90287 6.73159 0)
(1.68109 6.34618 0)
(1.47922 5.95318 -2.30293e-19)
(1.29806 5.55373 -8.19818e-20)
(1.13757 5.14896 8.52127e-20)
(0.998357 4.74008 -4.52324e-20)
(19.7375 0.505395 1.83889e-21)
(19.7913 0.974978 -1.72446e-19)
(19.8198 1.4472 5.05391e-19)
(19.8231 1.92052 3.35277e-19)
(19.8011 2.39378 -4.93865e-19)
(19.7537 2.86573 3.30803e-19)
(19.6817 3.33451 -2.35179e-21)
(19.5851 3.79778 -6.40517e-19)
(19.4639 4.25551 9.75457e-19)
(19.3193 4.70679 -1.2706e-18)
(19.1516 5.15063 1.196e-18)
(18.9611 5.58554 -1.27097e-18)
(18.7483 6.01042 -6.1068e-19)
(18.5138 6.42424 0)
(18.2582 6.82565 6.28485e-19)
(17.9825 7.21342 5.36827e-19)
(17.6871 7.58684 0)
(17.373 7.94491 1.0571e-18)
(17.041 8.28696 0)
(16.6922 8.61222 -1.04539e-18)
(16.3277 8.91981 9.23716e-19)
(15.9485 9.20894 -3.98165e-20)
(15.5558 9.47872 -4.4586e-20)
(15.1503 9.7284 1.64393e-21)
(14.7331 9.95757 -1.73803e-18)
(14.3052 10.1657 -7.9066e-19)
(13.8678 10.3525 1.54507e-18)
(13.422 10.5176 1.42898e-18)
(12.9692 10.6605 -7.12428e-19)
(12.5105 10.7811 0)
(12.0469 10.8789 0)
(11.5797 10.9541 0)
(11.1101 11.0065 5.43372e-19)
(10.6393 11.0364 -1.90426e-18)
(10.1689 11.0433 8.83999e-19)
(9.69972 11.0275 -4.21525e-19)
(9.23294 10.9889 -6.75232e-19)
(8.76962 10.9278 6.34142e-19)
(8.31075 10.8447 2.09214e-20)
(7.85761 10.74 -2.00381e-19)
(7.4113 10.6139 2.19569e-19)
(6.97289 10.4672 1.43285e-19)
(6.54361 10.3002 0)
(6.12447 10.1135 -4.11453e-20)
(5.71644 9.90758 0)
(5.3205 9.68281 7.35481e-20)
(4.9371 9.44013 -3.86938e-20)
(4.56726 9.18025 0)
(4.21164 8.90417 9.22303e-20)
(3.87154 8.61256 1.93251e-20)
(3.54724 8.30616 -2.42711e-19)
(3.2396 7.98608 1.42687e-19)
(2.94939 7.65311 9.42088e-20)
(2.67683 7.30822 -1.72389e-19)
(2.4228 6.95215 8.01824e-21)
(2.18688 6.58621 -1.04744e-19)
(1.97013 6.21162 -5.6465e-20)
(1.77243 5.82967 -1.25671e-19)
(1.59492 5.44144 3.33315e-19)
(1.43722 5.04806 -1.41818e-19)
(1.30042 4.65065 1.87861e-20)
(19.5813 0.557659 3.62061e-20)
(19.6304 1.01258 0)
(19.6551 1.46972 -5.64388e-19)
(19.6554 1.92791 0)
(19.6312 2.38582 2.80754e-19)
(19.5828 2.84213 8.2139e-19)
(19.5104 3.29543 5.38834e-19)
(19.414 3.74497 1.09252e-18)
(19.2941 4.18906 9.50517e-21)
(19.1515 4.62675 -6.6063e-21)
(18.9866 5.05664 -5.86226e-20)
(18.7996 5.47773 -5.19329e-19)
(18.5911 5.88898 5.01486e-19)
(18.3616 6.28945 -1.47016e-18)
(18.112 6.67793 9.97223e-19)
(17.843 7.05314 -4.75409e-20)
(17.5549 7.41431 -9.04496e-19)
(17.2486 7.76055 -9.26303e-19)
(16.9249 8.09135 0)
(16.585 8.4061 8.29598e-19)
(16.2301 8.7038 -3.69329e-20)
(15.8612 8.9837 -1.63161e-18)
(15.4792 9.24482 -5.63502e-21)
(15.0851 9.48626 -6.7766e-19)
(14.6795 9.70785 2.06176e-18)
(14.2636 9.9091 -3.40001e-20)
(13.8385 10.0897 -6.5825e-19)
(13.4053 10.2494 -6.88818e-20)
(12.9654 10.3877 0)
(12.5198 10.5044 0)
(12.0697 10.5988 0)
(11.6157 10.6716 0)
(11.1596 10.7224 0)
(10.7022 10.7515 5.26426e-20)
(10.2455 10.7584 -3.4246e-19)
(9.78994 10.7432 3.84496e-20)
(9.33675 10.7058 5.19673e-20)
(8.88686 10.6465 2.20657e-19)
(8.44106 10.5659 4.19102e-19)
(8.00079 10.4644 -5.22835e-19)
(7.56716 10.3423 3.07526e-19)
(7.14103 10.2002 -9.57878e-20)
(6.72386 10.0387 0)
(6.31662 9.85818 3.58298e-20)
(5.92021 9.65926 0)
(5.53584 9.44181 -3.80477e-20)
(5.16318 9.20709 7.44377e-20)
(4.80389 8.95571 -5.19222e-20)
(4.45796 8.68887 -6.58686e-20)
(4.12737 8.40692 9.9352e-20)
(3.81193 8.11052 1.87028e-20)
(3.5125 7.80097 1.51316e-20)
(3.23013 7.47877 -2.74417e-19)
(2.96467 7.14506 3.1321e-19)
(2.71736 6.80018 1.71604e-19)
(2.48705 6.44576 8.97492e-20)
(2.27551 6.08279 2.98953e-19)
(2.08164 5.71277 0)
(1.90772 5.33662 -2.2895e-19)
(1.75258 4.95556 6.08476e-20)
(1.61811 4.57044 0)
(19.4116 0.612117 0)
(19.4555 1.05173 0)
(19.4761 1.49352 2.44408e-19)
(19.473 1.93602 -4.68248e-19)
(19.4466 2.37829 -2.41578e-19)
(19.397 2.81906 -1.17288e-18)
(19.3243 3.25666 4.5296e-19)
(19.2284 3.69009 -9.36282e-19)
(19.1098 4.11892 1.50642e-20)
(18.9694 4.54187 1.32712e-18)
(18.8077 4.957 -1.77131e-18)
(18.6247 5.36343 0)
(18.4209 5.76008 0)
(18.1968 6.14673 1.67718e-18)
(17.9536 6.5219 8.10653e-19)
(17.6919 6.88363 -1.64486e-18)
(17.4116 7.23182 2.35538e-18)
(17.1136 7.56554 7.49299e-19)
(16.7986 7.88443 -1.46877e-18)
(16.4678 8.18824 -7.37012e-19)
(16.1229 8.47548 6.80203e-19)
(15.7646 8.74578 -6.9174e-20)
(15.3941 8.99799 0)
(15.0122 9.23054 1.2739e-18)
(14.6187 9.44407 -1.79759e-18)
(14.2154 9.63803 5.79164e-19)
(13.8031 9.81194 1.04276e-18)
(13.383 9.96615 -2.53183e-18)
(12.9569 10.0995 4.95473e-19)
(12.5252 10.2123 0)
(12.0894 10.3031 0)
(11.6493 10.3735 0)
(11.2075 10.4224 3.44236e-19)
(10.7642 10.4513 9.7438e-19)
(10.3223 10.4584 -5.7502e-19)
(9.88116 10.4439 2.51025e-19)
(9.44244 10.4081 2.40477e-19)
(9.00709 10.3505 -4.28327e-19)
(8.57504 10.2725 0)
(8.14828 10.1745 -2.41736e-19)
(7.72815 10.0564 1.25682e-19)
(7.31468 9.91917 1.38117e-20)
(6.91 9.7634 9.61368e-21)
(6.51526 9.58948 3.09895e-20)
(6.13081 9.39828 -1.04135e-20)
(5.7591 9.18845 1.43655e-19)
(5.39754 8.9624 -6.20189e-20)
(5.04963 8.71993 2.1432e-19)
(4.71343 8.46321 0)
(4.39336 8.19183 0)
(4.08726 7.90607 -3.89154e-19)
(3.79622 7.60791 1.05926e-19)
(3.52262 7.29738 2.43461e-19)
(3.26435 6.97572 1.44063e-19)
(3.02489 6.64263 -4.5429e-19)
(2.80004 6.30035 -2.54511e-19)
(2.59428 5.94953 -9.37492e-20)
(2.40385 5.59235 -2.06096e-21)
(2.23425 5.22916 1.00489e-19)
(2.08125 4.86118 0)
(1.94957 4.48912 0)
(19.2232 0.664052 -2.46471e-20)
(19.2614 1.08731 0)
(19.2773 1.51293 0)
(19.2705 1.93911 2.07209e-19)
(19.2414 2.36482 0)
(19.1906 2.7891 7.98174e-19)
(19.1184 3.21027 3.93801e-19)
(19.023 3.62669 -7.73377e-19)
(18.9052 4.04018 0)
(18.7673 4.44861 -7.84942e-19)
(18.6102 4.84742 4.29135e-20)
(18.4316 5.23842 0)
(18.2332 5.61935 0)
(18.0145 5.99133 -7.31944e-19)
(17.778 6.35334 6.76091e-19)
(17.525 6.70041 -7.00109e-19)
(17.2531 7.03492 -6.82639e-19)
(16.9637 7.35578 0)
(16.658 7.66169 6.45218e-19)
(16.3367 7.95405 -1.17712e-18)
(16.0026 8.22993 -1.13744e-18)
(15.6556 8.49026 -1.16783e-18)
(15.2968 8.73381 -9.26896e-21)
(14.9287 8.95628 -9.65159e-19)
(14.5477 9.16123 1.02329e-18)
(14.157 9.34782 9.22909e-19)
(13.7588 9.51412 -9.36587e-19)
(13.3518 9.6628 5.82718e-20)
(12.9404 9.79039 1.00565e-21)
(12.5225 9.90011 -7.83877e-19)
(12.1028 9.98586 0)
(11.6763 10.0547 -6.26051e-19)
(11.2504 10.1009 1.2064e-18)
(10.8208 10.1307 -4.51822e-20)
(10.3957 10.1383 5.17009e-19)
(9.97033 10.1247 -4.21768e-19)
(9.54713 10.0908 3.59118e-19)
(9.12833 10.0345 2.58615e-19)
(8.71073 9.95937 -5.6813e-19)
(8.298 9.86506 2.39474e-19)
(7.893 9.75106 1.54598e-19)
(7.492 9.6188 1.65461e-19)
(7.09986 9.46874 -3.62889e-20)