/*--------------------------------*- C++ -*----------------------------------*\
| =========                 |                                                 |
| \\      /  F ield         | OpenFOAM: The Open Source CFD Toolbox           |
|  \\    /   O peration     | Version:  2.3.1                                 |
|   \\  /    A nd           | Web:      www.OpenFOAM.org                      |
|    \\/     M anipulation  |                                                 |
\*---------------------------------------------------------------------------*/
FoamFile
{
    version     2.0;
    format      ascii;
    class       volScalarField;
    location    "0.64";
    object      k;
}
// * * * * * * * * * * * * * * * * * * * * * * * * * * * * * * * * * * * * * //

dimensions      [0 2 -2 0 0 0 0];

internalField   nonuniform List<scalar> 
1000
(
0.00243828
0.00249591
0.00249711
0.00249704
0.00249701
0.002497
0.00249698
0.00249698
0.00249685
0.00249217
0.00249747
0.00250706
0.00250768
0.00250767
0.00250766
0.00250765
0.00250763
0.0025076
0.00250692
0.00249392
0.00250084
0.00251015
0.00251089
0.00251091
0.00251091
0.00251089
0.00251086
0.00251081
0.00251003
0.00249598
0.00250333
0.00251348
0.00251434
0.00251441
0.00251442
0.00251441
0.00251436
0.00251429
0.00251344
0.00249871
0.00250672
0.00251827
0.00251929
0.00251946
0.0025195
0.00251948
0.00251945
0.0025193
0.00251837
0.0025023
0.00249601
0.00250497
0.0025058
0.00250593
0.00250598
0.002506
0.002506
0.002506
0.00250541
0.00249394
0.00250615
0.00278769
0.00280515
0.00280604
0.00280612
0.00280614
0.00280615
0.00280569
0.00279086
0.00250362
0.00250872
0.00280761
0.00282646
0.00282736
0.0028274
0.0028274
0.00282739
0.00282686
0.00281069
0.00250615
0.00251118
0.00280962
0.00282854
0.00282945
0.0028295
0.00282949
0.00282947
0.00282892
0.00281261
0.00250864
0.00251442
0.0028124
0.00283165
0.0028327
0.00283279
0.00283279
0.00283273
0.00283206
0.00281542
0.00251196
0.00249933
0.00250708
0.00250788
0.002508
0.00250806
0.00250809
0.0025081
0.00250809
0.00250745
0.00249543
0.00250785
0.0028053
0.00282403
0.00282495
0.00282502
0.00282504
0.00282504
0.00282453
0.00280853
0.00250555
0.00251011
0.00282606
0.00284645
0.00284744
0.00284749
0.00284749
0.00284748
0.00284688
0.00282941
0.00250785
0.00251231
0.00282785
0.00284835
0.00284936
0.00284941
0.0028494
0.00284938
0.00284877
0.00283116
0.00251002
0.00251518
0.00282928
0.00284993
0.002851
0.00285107
0.00285106
0.00285102
0.00285035
0.00283258
0.0025129
0.00250063
0.00250826
0.00250899
0.00250909
0.00250914
0.00250917
0.00250918
0.00250917
0.00250853
0.00249647
0.00250885
0.00280693
0.00282561
0.00282651
0.00282656
0.00282658
0.00282658
0.00282606
0.00280998
0.0025065
0.00251083
0.00282702
0.00284742
0.00284841
0.00284845
0.00284845
0.00284844
0.00284784
0.00283033
0.00250859
0.00251278
0.00282864
0.00284913
0.00285013
0.00285018
0.00285018
0.00285016
0.00284954
0.00283192
0.0025105
0.00251529
0.00282951
0.00285006
0.00285108
0.00285114
0.00285113
0.0028511
0.00285046
0.00283277
0.00251299
0.00250132
0.0025089
0.00250959
0.00250967
0.00250971
0.00250973
0.00250975
0.00250973
0.00250909
0.002497
0.00250943
0.00280778
0.00282642
0.00282731
0.00282736
0.00282737
0.00282737
0.00282684
0.00281072
0.002507
0.00251125
0.00282717
0.00284751
0.0028485
0.00284854
0.00284854
0.00284853
0.00284793
0.00283043
0.00250896
0.00251305
0.00282865
0.00284908
0.00285008
0.00285013
0.00285012
0.0028501
0.00284949
0.00283191
0.00251074
0.00251536
0.00282934
0.00284977
0.00285078
0.00285083
0.00285082
0.0028508
0.00285017
0.00283256
0.00251302
0.00250144
0.00250919
0.00250988
0.00250995
0.00250998
0.00251
0.00251001
0.00250999
0.00250934
0.00249704
0.00250957
0.00280835
0.00282699
0.00282786
0.0028279
0.00282791
0.0028279
0.00282736
0.00281122
0.0025071
0.00251141
0.00282734
0.00284766
0.00284864
0.00284868
0.00284869
0.00284867
0.00284807
0.00283057
0.0025091
0.00251325
0.0028288
0.00284919
0.00285019
0.00285024
0.00285024
0.00285022
0.0028496
0.00283202
0.00251091
0.00251558
0.00282949
0.00284985
0.00285086
0.00285091
0.00285091
0.00285088
0.00285024
0.00283266
0.00251322
0.00250105
0.00250922
0.00250993
0.00250999
0.00251002
0.00251003
0.00251004
0.00251001
0.00250933
0.00249659
0.00250933
0.00280857
0.0028272
0.00282808
0.00282812
0.00282813
0.00282812
0.00282758
0.00281142
0.00250681
0.00251138
0.00282758
0.00284788
0.00284887
0.00284892
0.00284892
0.0028489
0.00284829
0.00283078
0.00250901
0.00251347
0.00282914
0.00284952
0.00285053
0.00285058
0.00285058
0.00285056
0.00284992
0.00283234
0.00251109
0.00251609
0.00282999
0.00285036
0.00285138
0.00285144
0.00285144
0.0028514
0.00285074
0.00283313
0.00251367
0.00250012
0.00250868
0.00250941
0.00250948
0.0025095
0.00250951
0.00250951
0.00250947
0.00250877
0.00249563
0.00250862
0.00280809
0.00282668
0.00282756
0.0028276
0.0028276
0.00282759
0.00282705
0.00281092
0.00250605
0.002511
0.00282705
0.00284729
0.00284828
0.00284833
0.00284833
0.00284832
0.0028477
0.00283023
0.00250859
0.0025135
0.0028287
0.00284901
0.00285003
0.00285008
0.00285009
0.00285006
0.00284941
0.00283186
0.00251106
0.00251666
0.00282984
0.00285016
0.00285121
0.00285128
0.00285129
0.00285123
0.00285053
0.00283291
0.00251417
0.00249858
0.00250689
0.00250758
0.00250764
0.00250766
0.00250766
0.00250766
0.00250762
0.00250695
0.00249405
0.00250692
0.00279084
0.00280811
0.00280891
0.00280894
0.00280894
0.00280893
0.00280843
0.00279338
0.00250421
0.00250965
0.00280798
0.00282667
0.00282756
0.0028276
0.00282761
0.00282759
0.00282703
0.00281081
0.00250706
0.0025126
0.00280869
0.00282736
0.00282826
0.0028283
0.00282831
0.00282828
0.0028277
0.00281147
0.00250996
0.00251649
0.00280866
0.00282723
0.00282817
0.00282822
0.00282822
0.00282816
0.00282752
0.0028113
0.00251379
0.00249235
0.00249262
0.00249265
0.00249267
0.00249267
0.00249268
0.00249267
0.00249266
0.00249253
0.00248756
0.00249447
0.00250321
0.00250398
0.00250404
0.00250406
0.00250407
0.00250405
0.00250401
0.00250329
0.0024898
0.00249706
0.00250651
0.0025074
0.00250751
0.00250754
0.00250755
0.00250752
0.00250743
0.0025066
0.00249238
0.00250047
0.00251001
0.002511
0.00251115
0.0025112
0.00251121
0.00251115
0.002511
0.00251005
0.00249578
0.00250569
0.00251542
0.00251655
0.00251677
0.00251684
0.00251684
0.00251675
0.00251651
0.0025154
0.00250105
0.00251797
0.00252752
0.00252884
0.00252912
0.0025292
0.0025292
0.0025291
0.00252879
0.0025274
0.00251349
0.0025377
0.00257559
0.00257869
0.00257802
0.00257757
0.00257754
0.00257796
0.00257852
0.00257644
0.00253413
0.00274352
0.00324599
0.00327084
0.00324894
0.00324105
0.00324071
0.00324749
0.00326889
0.0032587
0.00275074
0.00449902
0.00825807
0.00851473
0.00841251
0.0083722
0.00836926
0.00840259
0.00850135
0.00833318
0.00458054
0.0118775
0.0262652
0.0278066
0.0278294
0.0278051
0.0277959
0.0277996
0.0277678
0.0264879
0.012115
0.00252112
0.00280587
0.00282395
0.00282487
0.00282491
0.0028249
0.00282486
0.00282419
0.00280835
0.00251845
0.00252759
0.00282928
0.00285072
0.00285253
0.00285266
0.00285266
0.00285255
0.00285106
0.00283234
0.00252513
0.00255755
0.00305722
0.00310006
0.003106
0.0031072
0.00310721
0.00310599
0.00310085
0.00306333
0.00255636
0.0030638
0.00469582
0.00475575
0.00469854
0.00469358
0.00469297
0.00469662
0.00475343
0.00473436
0.00308853
0.016283
0.0531376
0.05589
0.0557775
0.0556605
0.0556457
0.0557316
0.0558545
0.053627
0.0167082
0.00251894
0.00283022
0.00285071
0.00285185
0.00285196
0.00285195
0.00285186
0.00285105
0.00283326
0.00251653
0.00252283
0.00283163
0.00285225
0.00285339
0.00285344
0.00285344
0.00285341
0.00285262
0.00283481
0.00252056
0.00253039
0.00290697
0.002939
0.00294359
0.0029446
0.00294462
0.00294369
0.00293977
0.0029118
0.00252854
0.00285679
0.00448352
0.00460113
0.00461094
0.00461286
0.00461267
0.0046107
0.00460327
0.00451187
0.0028724
0.0169725
0.0540192
0.056091
0.0560411
0.0559822
0.0559753
0.056022
0.0561061
0.0545255
0.0174164
0.00251715
0.00282992
0.00285047
0.00285155
0.00285163
0.00285162
0.00285155
0.00285083
0.00283305
0.00251477
0.0025201
0.00282912
0.0028495
0.0028505
0.00285053
0.00285053
0.00285051
0.00284987
0.0028323
0.00251781
0.00252432
0.00286072
0.0028843
0.00288598
0.00288624
0.00288625
0.00288603
0.00288483
0.00286473
0.00252234
0.00282899
0.00436869
0.00447519
0.00448364
0.004485
0.00448496
0.00448372
0.00447804
0.00439682
0.00284362
0.0176361
0.0567496
0.0588263
0.0588683
0.058845
0.0588423
0.058863
0.0588725
0.0573108
0.0181175
0.00251613
0.00282902
0.00284953
0.00285058
0.00285065
0.00285064
0.00285059
0.00284991
0.00283219
0.00251377
0.00251875
0.00282816
0.0028485
0.00284947
0.0028495
0.00284949
0.00284948
0.00284888
0.00283135
0.00251644
0.00252229
0.00285199
0.00287449
0.0028758
0.00287594
0.00287595
0.00287584
0.00287499
0.00285583
0.00252023
0.00282502
0.00433469
0.00443345
0.00444005
0.00444102
0.00444104
0.00444029
0.00443652
0.0043628
0.0028396
0.0179565
0.0579758
0.060085
0.0601775
0.0601752
0.0601749
0.0601804
0.0601476
0.0585651
0.0184575
0.00251591
0.00282904
0.00284968
0.00285075
0.00285082
0.00285082
0.00285076
0.00285008
0.00283227
0.00251357
0.00251874
0.00282808
0.00284865
0.00284964
0.00284967
0.00284967
0.00284965
0.00284905
0.00283133
0.00251644
0.00252277
0.00285335
0.00287648
0.00287795
0.00287813
0.00287813
0.00287799
0.002877
0.00285725
0.00252067
0.00296229
0.00469494
0.00483573
0.0048641
0.00487376
0.00487397
0.00486538
0.00484125
0.00473019
0.00298401
0.018051
0.0579958
0.0600875
0.0601868
0.060189
0.0601891
0.060193
0.0601573
0.0585934
0.0185638
0.00251632
0.00283013
0.00285109
0.00285223
0.00285233
0.00285233
0.00285226
0.00285151
0.00283344
0.00251405
0.00251979
0.00282889
0.00285001
0.00285109
0.00285114
0.00285114
0.00285111
0.00285046
0.00283222
0.00251748
0.00252628
0.00287244
0.00289884
0.00290146
0.00290202
0.00290202
0.00290156
0.00289945
0.00287674
0.00252427
0.00321997
0.00520837
0.00541711
0.00548702
0.0055127
0.00551337
0.00549019
0.00542671
0.00525072
0.00325355
0.0180904
0.0572136
0.0592214
0.0593124
0.0593151
0.0593154
0.0593221
0.0592983
0.0578087
0.0186193
0.00251725
0.00283179
0.00285312
0.00285438
0.00285452
0.00285452
0.00285442
0.0028536
0.00283519
0.002515
0.00252114
0.00283401
0.00285674
0.00285819
0.00285832
0.00285832
0.00285824
0.00285721
0.0028375
0.00251879
0.00253519
0.00293418
0.00296864
0.00297425
0.00297587
0.00297592
0.00297439
0.00296954
0.00293929
0.00253331
0.00349276
0.00492057
0.00514676
0.0052703
0.0053225
0.00532388
0.00527623
0.00515773
0.00494766
0.00353075
0.0179066
0.0542224
0.0560165
0.0561169
0.0561273
0.0561285
0.0561313
0.0561004
0.0547688
0.0184353
0.00251825
0.00281835
0.0028386
0.00283984
0.00283998
0.00283998
0.00283989
0.00283907
0.00282155
0.00251587
0.00252152
0.00284552
0.0028715
0.00287418
0.00287473
0.00287475
0.00287425
0.00287209
0.00284922
0.00251897
0.0025493
0.00303989
0.00308189
0.00308989
0.00309245
0.00309249
0.0030901
0.00308299
0.0030453
0.00254749
0.00302409
0.00431391
0.00447088
0.004493
0.00449956
0.00449957
0.00449383
0.00447499
0.00433861
0.00303984
0.0160447
0.0428734
0.0441444
0.0443309
0.0443944
0.0443973
0.0443503
0.044215
0.043226
0.0164418
0.00250919
0.00252534
0.00252714
0.00252749
0.00252762
0.00252764
0.00252748
0.00252723
0.00252562
0.00250464
0.00250879
0.00253145
0.00253375
0.00253403
0.00253413
0.00253412
0.00253405
0.00253384
0.00253166
0.00250416
0.00255766
0.00259537
0.00260019
0.00260144
0.0026018
0.00260177
0.00260152
0.0026002
0.00259598
0.00255371
0.00271533
0.00297297
0.00301113
0.00301813
0.00302026
0.00302036
0.00301839
0.00301242
0.00297941
0.00271714
0.00884218
0.0137791
0.0140622
0.014133
0.0141571
0.0141579
0.0141383
0.0140775
0.0138431
0.00894088
)
;

boundaryField
{
    walls
    {
        type            kqRWallFunction;
        value           nonuniform List<scalar> 
500
(
0.00243828
0.00243828
0.00243828
0.00249591
0.00249591
0.00249711
0.00249711
0.00249704
0.00249704
0.00249701
0.00249701
0.002497
0.002497
0.00249698
0.00249698
0.00249698
0.00249698
0.00249685
0.00249685
0.00249217
0.00249217
0.00249217
0.00249747
0.00249747
0.00250706
0.00250768
0.00250767
0.00250766
0.00250765
0.00250763
0.0025076
0.00250692
0.00249392
0.00249392
0.00250084
0.00250084
0.00251015
0.00251089
0.00251091
0.00251091
0.00251089
0.00251086
0.00251081
0.00251003
0.00249598
0.00249598
0.00250333
0.00250333
0.00251348
0.00251434
0.00251441
0.00251442
0.00251441
0.00251436
0.00251429
0.00251344
0.00249871
0.00249871
0.00250672
0.00250672
0.00251827
0.00251929
0.00251946
0.0025195
0.00251948
0.00251945
0.0025193
0.00251837
0.0025023
0.0025023
0.00249601
0.00249601
0.00250497
0.0025058
0.00250593
0.00250598
0.002506
0.002506
0.002506
0.00250541
0.00249394
0.00249394
0.00250615
0.00250362
0.00250872
0.00250615
0.00251118
0.00250864
0.00251442
0.00251196
0.00249933
0.00249933
0.00250708
0.00250788
0.002508
0.00250806
0.00250809
0.0025081
0.00250809
0.00250745
0.00249543
0.00249543
0.00250785
0.00250555
0.00251011
0.00250785
0.00251231
0.00251002
0.00251518
0.0025129
0.00250063
0.00250063
0.00250826
0.00250899
0.00250909
0.00250914
0.00250917
0.00250918
0.00250917
0.00250853
0.00249647
0.00249647
0.00250885
0.0025065
0.00251083
0.00250859
0.00251278
0.0025105
0.00251529
0.00251299
0.00250132
0.00250132
0.0025089
0.00250959
0.00250967
0.00250971
0.00250973
0.00250975
0.00250973
0.00250909
0.002497
0.002497
0.00250943
0.002507
0.00251125
0.00250896
0.00251305
0.00251074
0.00251536
0.00251302
0.00250144
0.00250144
0.00250919
0.00250988
0.00250995
0.00250998
0.00251
0.00251001
0.00250999
0.00250934
0.00249704
0.00249704
0.00250957
0.0025071
0.00251141
0.0025091
0.00251325
0.00251091
0.00251558
0.00251322
0.00250105
0.00250105
0.00250922
0.00250993
0.00250999
0.00251002
0.00251003
0.00251004
0.00251001
0.00250933
0.00249659
0.00249659
0.00250933
0.00250681
0.00251138
0.00250901
0.00251347
0.00251109
0.00251609
0.00251367
0.00250012
0.00250012
0.00250868
0.00250941
0.00250948
0.0025095
0.00250951
0.00250951
0.00250947
0.00250877
0.00249563
0.00249563
0.00250862
0.00250605
0.002511
0.00250859
0.0025135
0.00251106
0.00251666
0.00251417
0.00249858
0.00249858
0.00250689
0.00250758
0.00250764
0.00250766
0.00250766
0.00250766
0.00250762
0.00250695
0.00249405
0.00249405
0.00250692
0.00250421
0.00250965
0.00250706
0.0025126
0.00250996
0.00251649
0.00251379
0.00249235
0.00249235
0.00249235
0.00249262
0.00249262
0.00249265
0.00249265
0.00249267
0.00249267
0.00249267
0.00249267
0.00249268
0.00249268
0.00249267
0.00249267
0.00249266
0.00249266
0.00249253
0.00249253
0.00248756
0.00248756
0.00248756
0.00249447
0.00249447
0.00250321
0.00250398
0.00250404
0.00250406
0.00250407
0.00250405
0.00250401
0.00250329
0.0024898
0.0024898
0.00249706
0.00249706
0.00250651
0.0025074
0.00250751
0.00250754
0.00250755
0.00250752
0.00250743
0.0025066
0.00249238
0.00249238
0.00250047
0.00250047
0.00251001
0.002511
0.00251115
0.0025112
0.00251121
0.00251115
0.002511
0.00251005
0.00249578
0.00249578
0.00250569
0.00250569
0.00251542
0.00251655
0.00251677
0.00251684
0.00251684
0.00251675
0.00251651
0.0025154
0.00250105
0.00250105
0.00251797
0.00251797
0.00252752
0.00252884
0.00252912
0.0025292
0.0025292
0.0025291
0.00252879
0.0025274
0.00251349
0.00251349
0.0025377
0.0025377
0.00257559
0.00257869
0.00257802
0.00257757
0.00257754
0.00257796
0.00257852
0.00257644
0.00253413
0.00253413
0.00274352
0.00274352
0.00324599
0.00327084
0.00324894
0.00324105
0.00324071
0.00324749
0.00326889
0.0032587
0.00275074
0.00275074
0.00449902
0.00449902
0.00825807
0.00851473
0.00841251
0.0083722
0.00836926
0.00840259
0.00850135
0.00833318
0.00458054
0.00458054
0.0118775
0.0118775
0.0262652
0.0278066
0.0278294
0.0278051
0.0277959
0.0277996
0.0277678
0.0264879
0.012115
0.012115
0.00252112
0.00251845
0.00252759
0.00252513
0.00255755
0.00255636
0.0030638
0.00308853
0.016283
0.0167082
0.00251894
0.00251653
0.00252283
0.00252056
0.00253039
0.00252854
0.00285679
0.0028724
0.0169725
0.0174164
0.00251715
0.00251477
0.0025201
0.00251781
0.00252432
0.00252234
0.00282899
0.00284362
0.0176361
0.0181175
0.00251613
0.00251377
0.00251875
0.00251644
0.00252229
0.00252023
0.00282502
0.0028396
0.0179565
0.0184575
0.00251591
0.00251357
0.00251874
0.00251644
0.00252277
0.00252067
0.00296229
0.00298401
0.018051
0.0185638
0.00251632
0.00251405
0.00251979
0.00251748
0.00252628
0.00252427
0.00321997
0.00325355
0.0180904
0.0186193
0.00251725
0.002515
0.00252114
0.00251879
0.00253519
0.00253331
0.00349276
0.00353075
0.0179066
0.0184353
0.00251825
0.00251587
0.00252152
0.00251897
0.0025493
0.00254749
0.00302409
0.00303984
0.0160447
0.0164418
0.00250919
0.00250919
0.00252534
0.00252714
0.00252749
0.00252762
0.00252764
0.00252748
0.00252723
0.00252562
0.00250464
0.00250464
0.00250879
0.00250879
0.00253145
0.00253375
0.00253403
0.00253413
0.00253412
0.00253405
0.00253384
0.00253166
0.00250416
0.00250416
0.00255766
0.00255766
0.00259537
0.00260019
0.00260144
0.0026018
0.00260177
0.00260152
0.0026002
0.00259598
0.00255371
0.00255371
0.00271533
0.00271533
0.00297297
0.00301113
0.00301813
0.00302026
0.00302036
0.00301839
0.00301242
0.00297941
0.00271714
0.00271714
0.00884218
0.00884218
0.0137791
0.0140622
0.014133
0.0141571
0.0141579
0.0141383
0.0140775
0.0138431
0.00894088
0.00894088
)
;
    }
    lid
    {
        type            kqRWallFunction;
        value           nonuniform List<scalar> 
100
(
0.0118775
0.0262652
0.0278066
0.0278294
0.0278051
0.0277959
0.0277996
0.0277678
0.0264879
0.012115
0.016283
0.0531376
0.05589
0.0557775
0.0556605
0.0556457
0.0557316
0.0558545
0.053627
0.0167082
0.0169725
0.0540192
0.056091
0.0560411
0.0559822
0.0559753
0.056022
0.0561061
0.0545255
0.0174164
0.0176361
0.0567496
0.0588263
0.0588683
0.058845
0.0588423
0.058863
0.0588725
0.0573108
0.0181175
0.0179565
0.0579758
0.060085
0.0601775
0.0601752
0.0601749
0.0601804
0.0601476
0.0585651
0.0184575
0.018051
0.0579958
0.0600875
0.0601868
0.060189
0.0601891
0.060193
0.0601573
0.0585934
0.0185638
0.0180904
0.0572136
0.0592214
0.0593124
0.0593151
0.0593154
0.0593221
0.0592983
0.0578087
0.0186193
0.0179066
0.0542224
0.0560165
0.0561169
0.0561273
0.0561285
0.0561313
0.0561004
0.0547688
0.0184353
0.0160447
0.0428734
0.0441444
0.0443309
0.0443944
0.0443973
0.0443503
0.044215
0.043226
0.0164418
0.00884218
0.0137791
0.0140622
0.014133
0.0141571
0.0141579
0.0141383
0.0140775
0.0138431
0.00894088
)
;
    }
}


// ************************************************************************* //
