/*--------------------------------*- C++ -*----------------------------------*\
| =========                 |                                                 |
| \\      /  F ield         | OpenFOAM: The Open Source CFD Toolbox           |
|  \\    /   O peration     | Version:  2.3.1                                 |
|   \\  /    A nd           | Web:      www.OpenFOAM.org                      |
|    \\/     M anipulation  |                                                 |
\*---------------------------------------------------------------------------*/
FoamFile
{
    version     2.0;
    format      ascii;
    class       volScalarField;
    location    "0.64";
    object      nut;
}
// * * * * * * * * * * * * * * * * * * * * * * * * * * * * * * * * * * * * * //

dimensions      [0 2 -1 0 0 0 0];

internalField   nonuniform List<scalar> 
1000
(
0.000551125
0.000557611
0.000557756
0.000557748
0.000557745
0.000557743
0.000557742
0.000557741
0.000557725
0.000557202
0.000557799
0.000558976
0.000559055
0.000559055
0.000559054
0.000559053
0.000559051
0.000559047
0.000558962
0.000557418
0.000558211
0.00055936
0.000559454
0.000559458
0.000559458
0.000559456
0.000559452
0.000559446
0.000559348
0.000557671
0.000558518
0.000559771
0.00055988
0.00055989
0.000559892
0.000559891
0.000559885
0.000559876
0.000559768
0.000558006
0.00055892
0.000560347
0.000560476
0.000560496
0.000560502
0.0005605
0.000560496
0.000560477
0.000560359
0.00055843
0.000557637
0.000558715
0.000558815
0.000558831
0.000558836
0.000558838
0.000558839
0.000558838
0.000558765
0.000557418
0.000558857
0.00107641
0.00111963
0.00112155
0.00112171
0.00112178
0.00112182
0.00112075
0.0010811
0.000558576
0.00055917
0.00112568
0.00117527
0.00117728
0.00117735
0.00117735
0.00117734
0.00117599
0.00112998
0.000558885
0.00055947
0.00112845
0.00117835
0.00118036
0.00118042
0.00118042
0.00118039
0.00117902
0.00113246
0.000559189
0.000559857
0.0011292
0.00117953
0.00118159
0.00118167
0.00118167
0.00118163
0.0011802
0.0011331
0.000559584
0.000558032
0.000558973
0.00055907
0.000559084
0.000559091
0.000559094
0.000559095
0.000559094
0.000559015
0.000557599
0.000559066
0.00112009
0.00116901
0.00117108
0.00117121
0.00117126
0.00117129
0.00117001
0.00112475
0.00055881
0.000559341
0.00117422
0.00123121
0.00123356
0.00123364
0.00123364
0.00123362
0.00123203
0.00117915
0.00055909
0.000559608
0.00117687
0.00123429
0.00123666
0.00123673
0.00123672
0.00123669
0.00123507
0.00118164
0.000559355
0.000559953
0.001177
0.00123468
0.00123708
0.00123716
0.00123715
0.00123711
0.00123546
0.00118169
0.000559702
0.000558188
0.000559115
0.000559205
0.000559217
0.000559223
0.000559226
0.000559227
0.000559226
0.000559146
0.000557726
0.000559186
0.00112419
0.00117324
0.00117524
0.00117534
0.00117537
0.00117538
0.00117408
0.00112835
0.000558926
0.000559429
0.00117658
0.00123371
0.00123606
0.00123614
0.00123614
0.00123612
0.00123451
0.00118134
0.00055918
0.000559665
0.00117896
0.00123651
0.00123888
0.00123895
0.00123895
0.00123892
0.0012373
0.00118368
0.000559412
0.000559968
0.00117902
0.0012367
0.00123908
0.00123915
0.00123915
0.00123912
0.00123748
0.00118368
0.000559714
0.000558271
0.000559192
0.000559278
0.000559287
0.000559292
0.000559295
0.000559296
0.000559294
0.000559214
0.000557791
0.000559256
0.00112664
0.00117578
0.00117776
0.00117784
0.00117786
0.00117786
0.00117652
0.00113053
0.000558987
0.000559479
0.00117703
0.00123406
0.0012364
0.00123647
0.00123647
0.00123645
0.00123484
0.00118167
0.000559226
0.000559697
0.00117919
0.00123658
0.00123894
0.00123901
0.00123901
0.00123898
0.00123736
0.00118383
0.000559441
0.000559976
0.00117929
0.0012367
0.00123906
0.00123913
0.00123913
0.00123909
0.00123747
0.00118389
0.000559718
0.000558285
0.000559228
0.000559314
0.000559322
0.000559326
0.000559328
0.000559329
0.000559326
0.000559245
0.000557796
0.000559273
0.00112816
0.00117734
0.00117929
0.00117935
0.00117935
0.00117933
0.00117798
0.00113183
0.000558999
0.000559498
0.0011773
0.00123424
0.00123657
0.00123664
0.00123664
0.00123661
0.001235
0.00118183
0.000559242
0.00055972
0.00117933
0.00123659
0.00123894
0.00123901
0.00123901
0.00123898
0.00123736
0.00118388
0.000559462
0.000560003
0.00117946
0.00123668
0.00123902
0.00123909
0.00123909
0.00123906
0.00123744
0.00118398
0.000559741
0.000558236
0.000559234
0.000559323
0.000559331
0.000559334
0.000559336
0.000559336
0.000559332
0.000559247
0.000557741
0.000559243
0.00112838
0.00117754
0.00117949
0.00117955
0.00117955
0.00117952
0.00117817
0.001132
0.000558963
0.000559492
0.00117733
0.00123421
0.00123654
0.00123661
0.00123661
0.00123658
0.00123497
0.00118182
0.00055923
0.000559745
0.00117933
0.00123652
0.00123886
0.00123893
0.00123893
0.00123891
0.00123728
0.00118385
0.000559481
0.000560062
0.00117944
0.00123657
0.00123891
0.00123898
0.00123898
0.00123895
0.00123732
0.00118393
0.000559794
0.000558122
0.000559172
0.000559263
0.000559271
0.000559274
0.000559275
0.000559274
0.00055927
0.000559182
0.000557624
0.000559155
0.00112679
0.00117567
0.0011776
0.00117766
0.00117766
0.00117764
0.00117629
0.00113036
0.000558871
0.000559445
0.00117515
0.00123161
0.00123391
0.00123398
0.00123398
0.00123396
0.00123236
0.00117957
0.000559178
0.000559747
0.00117679
0.00123348
0.00123579
0.00123586
0.00123586
0.00123583
0.00123423
0.00118123
0.000559477
0.000560128
0.00117624
0.00123272
0.00123501
0.00123507
0.00123507
0.00123504
0.00123346
0.00118062
0.000559853
0.000557935
0.000558953
0.000559039
0.000559046
0.000559048
0.000559049
0.000559048
0.000559043
0.00055896
0.000557431
0.000558946
0.00107966
0.00112207
0.00112368
0.00112371
0.0011237
0.00112369
0.00112255
0.00108249
0.000558644
0.000559277
0.0011196
0.0011678
0.00116966
0.00116968
0.00116967
0.00116967
0.00116837
0.00112308
0.00055899
0.000559635
0.00111724
0.00116502
0.00116681
0.0011668
0.00116679
0.00116681
0.00116559
0.00112068
0.000559342
0.000560105
0.00110956
0.00115595
0.00115756
0.00115749
0.00115749
0.00115755
0.00115648
0.00111283
0.000559806
0.000557223
0.000557257
0.000557261
0.000557263
0.000557264
0.000557264
0.000557264
0.000557262
0.000557246
0.000556689
0.000557482
0.000558525
0.000558619
0.000558627
0.000558629
0.00055863
0.000558628
0.000558622
0.000558534
0.000556962
0.000557797
0.000558927
0.000559036
0.000559049
0.000559053
0.000559054
0.00055905
0.00055904
0.000558936
0.000557277
0.000558213
0.000559354
0.000559475
0.000559494
0.000559501
0.000559502
0.000559494
0.000559476
0.000559358
0.000557692
0.000558852
0.000560019
0.000560158
0.000560186
0.000560195
0.000560195
0.000560184
0.000560154
0.000560017
0.000558337
0.000560318
0.000561521
0.000561689
0.000561725
0.000561735
0.000561735
0.000561722
0.000561683
0.00056151
0.000559824
0.000562915
0.000568477
0.000568941
0.000568824
0.000568753
0.000568749
0.000568814
0.000568918
0.000568609
0.000562549
0.00059031
0.000657324
0.000660969
0.000658087
0.000657043
0.000656996
0.000657894
0.000660714
0.000658931
0.000591386
0.000778236
0.00109403
0.00111496
0.0011077
0.00110476
0.00110454
0.00110698
0.00111403
0.00109937
0.000785882
0.00127048
0.0019437
0.00200582
0.00200671
0.00200561
0.00200527
0.00200561
0.00200451
0.00195228
0.00128353
0.000560691
0.00109092
0.00113393
0.00113514
0.00113499
0.00113498
0.00113513
0.00113437
0.00109384
0.000560396
0.000561481
0.00106735
0.00110674
0.0011078
0.00110765
0.00110764
0.0011078
0.00110717
0.00107001
0.000561211
0.000565382
0.00104083
0.00107645
0.00107892
0.00107934
0.00107935
0.00107897
0.00107695
0.00104278
0.000565281
0.000627569
0.000733988
0.000751645
0.000766701
0.000767892
0.000767921
0.000766949
0.000752308
0.000732471
0.00063044
0.0014921
0.00275294
0.00282907
0.00282724
0.00282424
0.00282386
0.00282612
0.00282833
0.00276539
0.00151148
0.000560427
0.00117406
0.00123017
0.00123242
0.00123247
0.00123247
0.00123245
0.00123089
0.00117837
0.000560161
0.000560906
0.00117059
0.00122587
0.00122801
0.00122803
0.00122803
0.00122805
0.00122659
0.00117485
0.000560656
0.000561866
0.00116766
0.00122214
0.00122499
0.00122526
0.00122527
0.00122505
0.00122291
0.00117176
0.000561669
0.000602364
0.000785117
0.000794378
0.000797267
0.000798098
0.00079814
0.000797409
0.000794653
0.000784313
0.000604209
0.0015236
0.00277504
0.00283161
0.0028304
0.00282883
0.00282866
0.00282993
0.00283207
0.00278779
0.00154336
0.00056021
0.00117952
0.00123685
0.00123921
0.00123929
0.00123929
0.00123925
0.00123761
0.00118402
0.000559947
0.000560583
0.00117907
0.00123628
0.00123862
0.00123869
0.00123869
0.00123866
0.00123704
0.00118357
0.000560331
0.000561122
0.00116892
0.00122362
0.001226
0.00122608
0.00122608
0.00122603
0.00122434
0.00117308
0.00056091
0.000599016
0.000750286
0.000756665
0.000758028
0.000758483
0.000758506
0.000758094
0.000756765
0.00074942
0.000600756
0.00155552
0.00284858
0.00290371
0.00290494
0.00290435
0.00290429
0.00290482
0.00290492
0.00286236
0.00157659
0.000560087
0.00117966
0.00123713
0.00123951
0.00123958
0.00123958
0.00123954
0.0012379
0.0011842
0.000559826
0.000560421
0.00117941
0.00123684
0.00123919
0.00123926
0.00123926
0.00123923
0.0012376
0.00118394
0.000560168
0.000560863
0.0011692
0.00122391
0.00122611
0.00122614
0.00122613
0.00122614
0.00122461
0.00117337
0.000560641
0.000598571
0.000733032
0.000737693
0.000738252
0.000738431
0.000738439
0.000738265
0.000737672
0.000732011
0.000600312
0.00157094
0.00288103
0.00293634
0.00293887
0.00293883
0.00293882
0.00293895
0.00293793
0.00289535
0.00159269
0.000560061
0.00117944
0.00123724
0.00123963
0.00123971
0.00123971
0.00123967
0.00123801
0.00118405
0.000559803
0.000560422
0.00117886
0.00123694
0.00123933
0.0012394
0.0012394
0.00123937
0.00123772
0.00118347
0.000560169
0.000560923
0.00116724
0.00122181
0.00122386
0.00122385
0.00122384
0.00122389
0.00122251
0.00117139
0.000560697
0.000616145
0.000668597
0.000669352
0.00066741
0.000666609
0.000666599
0.000667322
0.000669139
0.000667584
0.000618728
0.00157555
0.00288058
0.0029353
0.00293796
0.00293803
0.00293803
0.00293813
0.00293707
0.0028951
0.00159778
0.000560113
0.00117919
0.00123752
0.00123997
0.00124006
0.00124006
0.00124001
0.00123831
0.00118387
0.000559862
0.00056055
0.00117782
0.00123719
0.00123968
0.00123976
0.00123976
0.00123972
0.00123799
0.00118249
0.000560295
0.000561378
0.00116367
0.00121809
0.00121989
0.00121975
0.00121974
0.0012199
0.00121873
0.00116772
0.000561165
0.000646384
0.000644461
0.000647434
0.000645698
0.000645022
0.000645012
0.000645612
0.000647293
0.000644094
0.000650162
0.00157786
0.00285803
0.00291073
0.00291317
0.00291325
0.00291326
0.00291343
0.00291268
0.00287253
0.00160073
0.000560234
0.00117774
0.00123653
0.00123904
0.00123913
0.00123913
0.00123908
0.00123734
0.00118247
0.000559985
0.000560708
0.00117607
0.00123747
0.00124016
0.00124026
0.00124025
0.00124019
0.00123828
0.00118082
0.000560448
0.000562516
0.00117546
0.00123297
0.00123461
0.00123435
0.00123434
0.00123457
0.00123364
0.0011799
0.000562321
0.000673568
0.000716036
0.000720165
0.000711625
0.000707877
0.000707774
0.000711215
0.000719727
0.000716438
0.000677433
0.00156819
0.00277057
0.00281873
0.00282214
0.00282246
0.00282249
0.00282253
0.00282093
0.00278397
0.00159086
0.000560369
0.0011329
0.00118515
0.00118738
0.00118747
0.00118747
0.00118742
0.00118586
0.0011369
0.000560106
0.000560729
0.00113697
0.00119433
0.00119712
0.00119734
0.00119734
0.00119716
0.00119508
0.00114116
0.000560447
0.000564201
0.00116933
0.00122852
0.00123222
0.00123278
0.00123278
0.00123226
0.00122933
0.00117352
0.000564011
0.000619255
0.000817379
0.000839499
0.000837413
0.000836077
0.000836043
0.00083729
0.000839471
0.000817417
0.000621051
0.00147313
0.00243589
0.00247328
0.00247889
0.00248081
0.00248089
0.00247944
0.00247526
0.00244548
0.00149062
0.000559328
0.000561288
0.00056151
0.000561555
0.000561572
0.000561574
0.000561554
0.000561521
0.000561321
0.000558824
0.000559163
0.000561962
0.000562249
0.000562286
0.000562297
0.000562297
0.000562288
0.000562261
0.000561989
0.00055865
0.000565179
0.000569721
0.000570305
0.000570459
0.000570505
0.000570501
0.000570469
0.000570309
0.000569794
0.000564751
0.000584192
0.000614839
0.000619296
0.000620103
0.000620348
0.000620358
0.000620133
0.00061944
0.000615557
0.000584451
0.00107639
0.00135541
0.00137007
0.00137379
0.00137504
0.00137509
0.00137405
0.00137083
0.00135855
0.00108226
)
;

boundaryField
{
    walls
    {
        type            nutkWallFunction;
        Cmu             0.09;
        kappa           0.41;
        E               9.8;
        value           nonuniform List<scalar> 
500
(
6.71198e-05
6.71198e-05
6.71198e-05
6.78994e-05
6.78994e-05
6.79155e-05
6.79155e-05
6.79146e-05
6.79146e-05
6.79141e-05
6.79141e-05
6.7914e-05
6.7914e-05
6.79138e-05
6.79138e-05
6.79137e-05
6.79137e-05
6.7912e-05
6.7912e-05
6.78491e-05
6.78491e-05
6.78491e-05
6.79203e-05
6.79203e-05
6.8049e-05
6.80573e-05
6.80572e-05
6.8057e-05
6.80569e-05
6.80566e-05
6.80562e-05
6.80471e-05
6.78726e-05
6.78726e-05
6.79656e-05
6.79656e-05
6.80905e-05
6.81004e-05
6.81006e-05
6.81006e-05
6.81003e-05
6.80999e-05
6.80993e-05
6.80889e-05
6.79002e-05
6.79002e-05
6.7999e-05
6.7999e-05
6.8135e-05
6.81464e-05
6.81474e-05
6.81476e-05
6.81474e-05
6.81468e-05
6.81458e-05
6.81344e-05
6.7937e-05
6.7937e-05
6.80444e-05
6.80444e-05
6.8199e-05
6.82128e-05
6.82149e-05
6.82156e-05
6.82153e-05
6.82149e-05
6.82129e-05
6.82004e-05
6.79852e-05
6.79852e-05
6.79008e-05
6.79008e-05
6.8021e-05
6.80321e-05
6.80339e-05
6.80345e-05
6.80348e-05
6.80349e-05
6.80347e-05
6.80269e-05
6.78728e-05
6.78728e-05
6.80368e-05
6.80029e-05
6.80712e-05
6.80367e-05
6.81042e-05
6.80702e-05
6.81476e-05
6.81146e-05
6.79453e-05
6.79453e-05
6.80493e-05
6.80599e-05
6.80616e-05
6.80624e-05
6.80628e-05
6.8063e-05
6.80628e-05
6.80543e-05
6.78928e-05
6.78928e-05
6.80596e-05
6.80287e-05
6.80899e-05
6.80595e-05
6.81194e-05
6.80887e-05
6.81577e-05
6.81273e-05
6.79627e-05
6.79627e-05
6.80651e-05
6.80749e-05
6.80762e-05
6.80769e-05
6.80773e-05
6.80775e-05
6.80773e-05
6.80687e-05
6.79069e-05
6.79069e-05
6.80729e-05
6.80416e-05
6.80996e-05
6.80695e-05
6.81256e-05
6.80951e-05
6.81593e-05
6.81285e-05
6.7972e-05
6.7972e-05
6.80736e-05
6.8083e-05
6.8084e-05
6.80845e-05
6.80848e-05
6.8085e-05
6.80848e-05
6.80762e-05
6.7914e-05
6.7914e-05
6.80807e-05
6.80482e-05
6.81051e-05
6.80745e-05
6.81292e-05
6.80983e-05
6.81601e-05
6.81288e-05
6.79737e-05
6.79737e-05
6.80775e-05
6.80868e-05
6.80877e-05
6.80882e-05
6.80884e-05
6.80886e-05
6.80882e-05
6.80795e-05
6.79146e-05
6.79146e-05
6.80827e-05
6.80495e-05
6.81073e-05
6.80763e-05
6.81319e-05
6.81006e-05
6.81632e-05
6.81315e-05
6.79684e-05
6.79684e-05
6.80779e-05
6.80875e-05
6.80883e-05
6.80887e-05
6.80889e-05
6.80889e-05
6.80885e-05
6.80794e-05
6.79085e-05
6.79085e-05
6.80794e-05
6.80456e-05
6.81068e-05
6.80752e-05
6.81349e-05
6.8103e-05
6.817e-05
6.81375e-05
6.79559e-05
6.79559e-05
6.80708e-05
6.80805e-05
6.80814e-05
6.80817e-05
6.80818e-05
6.80818e-05
6.80813e-05
6.80719e-05
6.78956e-05
6.78956e-05
6.80699e-05
6.80355e-05
6.81018e-05
6.80695e-05
6.81353e-05
6.81026e-05
6.81775e-05
6.81443e-05
6.79352e-05
6.79352e-05
6.80468e-05
6.8056e-05
6.80567e-05
6.8057e-05
6.80571e-05
6.8057e-05
6.80565e-05
6.80476e-05
6.78743e-05
6.78743e-05
6.80472e-05
6.80107e-05
6.80836e-05
6.8049e-05
6.81232e-05
6.80879e-05
6.81753e-05
6.81392e-05
6.78515e-05
6.78515e-05
6.78515e-05
6.78551e-05
6.78551e-05
6.78555e-05
6.78555e-05
6.78557e-05
6.78557e-05
6.78558e-05
6.78558e-05
6.78559e-05
6.78559e-05
6.78558e-05
6.78558e-05
6.78557e-05
6.78557e-05
6.78539e-05
6.78539e-05
6.7787e-05
6.7787e-05
6.7787e-05
6.788e-05
6.788e-05
6.79974e-05
6.80077e-05
6.80086e-05
6.80088e-05
6.80089e-05
6.80087e-05
6.80081e-05
6.79985e-05
6.78172e-05
6.78172e-05
6.79147e-05
6.79147e-05
6.80416e-05
6.80536e-05
6.8055e-05
6.80555e-05
6.80556e-05
6.80552e-05
6.8054e-05
6.80428e-05
6.78519e-05
6.78519e-05
6.79606e-05
6.79606e-05
6.80885e-05
6.81017e-05
6.81037e-05
6.81045e-05
6.81046e-05
6.81038e-05
6.81018e-05
6.8089e-05
6.78976e-05
6.78976e-05
6.80307e-05
6.80307e-05
6.81609e-05
6.81761e-05
6.8179e-05
6.818e-05
6.818e-05
6.81788e-05
6.81755e-05
6.81608e-05
6.79684e-05
6.79684e-05
6.81951e-05
6.81951e-05
6.83226e-05
6.83403e-05
6.8344e-05
6.83451e-05
6.8345e-05
6.83437e-05
6.83395e-05
6.8321e-05
6.81352e-05
6.81352e-05
6.84584e-05
6.84584e-05
6.89607e-05
6.90016e-05
6.89928e-05
6.89869e-05
6.89865e-05
6.89921e-05
6.89995e-05
6.8972e-05
6.84108e-05
6.84108e-05
7.11392e-05
7.11392e-05
7.7245e-05
7.75328e-05
7.72793e-05
7.71877e-05
7.71837e-05
7.72624e-05
7.75103e-05
7.73924e-05
7.12311e-05
7.12311e-05
9.04765e-05
9.04765e-05
0.000120827
0.000122584
0.000121888
0.000121612
0.000121592
0.00012182
0.000122494
0.000121344
9.12615e-05
9.12615e-05
0.000143327
0.000143327
0.000207207
0.000212731
0.000212812
0.000212726
0.000212693
0.000212707
0.000212594
0.000208016
0.000144661
0.000144661
6.82372e-05
6.82015e-05
6.83235e-05
6.82908e-05
6.87221e-05
6.87063e-05
7.50964e-05
7.53921e-05
0.000166045
0.000168046
6.82081e-05
6.81758e-05
6.826e-05
6.82298e-05
6.8361e-05
6.83363e-05
7.25667e-05
7.2761e-05
0.000169276
0.000171319
6.81841e-05
6.81523e-05
6.82236e-05
6.81929e-05
6.82799e-05
6.82534e-05
7.22194e-05
7.24024e-05
0.000172319
0.000174487
6.81704e-05
6.81389e-05
6.82054e-05
6.81746e-05
6.82528e-05
6.82253e-05
7.21696e-05
7.23522e-05
0.000173766
0.000175999
6.81675e-05
6.81363e-05
6.82053e-05
6.81746e-05
6.82592e-05
6.82312e-05
7.38683e-05
7.41331e-05
0.000174189
0.000176469
6.8173e-05
6.81426e-05
6.82194e-05
6.81885e-05
6.83061e-05
6.82793e-05
7.69424e-05
7.73327e-05
0.000174366
0.000176713
6.81854e-05
6.81553e-05
6.82375e-05
6.8206e-05
6.84249e-05
6.83999e-05
8.00507e-05
8.04727e-05
0.000173541
0.000175901
6.81989e-05
6.8167e-05
6.82425e-05
6.82084e-05
6.86127e-05
6.85886e-05
7.46187e-05
7.48086e-05
0.00016491
0.000166795
6.80776e-05
6.80776e-05
6.82935e-05
6.83175e-05
6.83223e-05
6.8324e-05
6.83243e-05
6.83222e-05
6.83188e-05
6.82972e-05
6.80165e-05
6.80165e-05
6.80722e-05
6.80722e-05
6.83751e-05
6.84057e-05
6.84095e-05
6.84107e-05
6.84106e-05
6.84097e-05
6.84069e-05
6.83779e-05
6.80101e-05
6.80101e-05
6.87235e-05
6.87235e-05
6.92213e-05
6.92847e-05
6.93011e-05
6.93058e-05
6.93054e-05
6.93022e-05
6.92848e-05
6.92294e-05
6.86711e-05
6.86711e-05
7.07787e-05
7.07787e-05
7.39986e-05
7.4462e-05
7.45467e-05
7.45724e-05
7.45736e-05
7.45499e-05
7.44777e-05
7.4077e-05
7.08019e-05
7.08019e-05
0.000124784
0.000124784
0.000153623
0.000155087
0.000155451
0.000155574
0.000155578
0.000155477
0.000155165
0.000153955
0.000125439
0.000125439
)
;
    }
    lid
    {
        type            nutkWallFunction;
        Cmu             0.09;
        kappa           0.41;
        E               9.8;
        value           nonuniform List<scalar> 
100
(
0.000143327
0.000207207
0.000212731
0.000212812
0.000212726
0.000212693
0.000212707
0.000212594
0.000208016
0.000144661
0.000166045
0.000286479
0.000293183
0.000292913
0.000292631
0.000292596
0.000292802
0.000293098
0.000287685
0.000168046
0.000169276
0.000288647
0.000293666
0.000293546
0.000293405
0.000293388
0.0002935
0.000293702
0.000289883
0.000171319
0.000172319
0.00029524
0.000300139
0.000300237
0.000300182
0.000300176
0.000300224
0.000300247
0.000296573
0.000174487
0.000173766
0.000298144
0.000303062
0.000303275
0.00030327
0.000303269
0.000303282
0.000303206
0.000299528
0.000175999
0.000174189
0.000298191
0.000303067
0.000303297
0.000303302
0.000303302
0.000303311
0.000303229
0.000299594
0.000176469
0.000174366
0.000296343
0.00030106
0.000301272
0.000301278
0.000301278
0.000301294
0.000301239
0.00029775
0.000176713
0.000173541
0.000289144
0.000293487
0.000293728
0.000293753
0.000293756
0.000293762
0.000293688
0.000290475
0.000175901
0.00016491
0.000259624
0.000263129
0.000263638
0.000263811
0.000263819
0.000263691
0.000263322
0.000260602
0.000166795
0.000124784
0.000153623
0.000155087
0.000155451
0.000155574
0.000155578
0.000155477
0.000155165
0.000153955
0.000125439
)
;
    }
}


// ************************************************************************* //
