/*--------------------------------*- C++ -*----------------------------------*\
| =========                 |                                                 |
| \\      /  F ield         | OpenFOAM: The Open Source CFD Toolbox           |
|  \\    /   O peration     | Version:  2.3.1                                 |
|   \\  /    A nd           | Web:      www.OpenFOAM.org                      |
|    \\/     M anipulation  |                                                 |
\*---------------------------------------------------------------------------*/
FoamFile
{
    version     2.0;
    format      ascii;
    class       volScalarField;
    location    "0.64";
    object      p;
}
// * * * * * * * * * * * * * * * * * * * * * * * * * * * * * * * * * * * * * //

dimensions      [0 2 -2 0 0 0 0];

internalField   nonuniform List<scalar> 
1000
(
-0.00382857
-0.00331041
-0.00321007
-0.00319903
-0.00317202
-0.00315473
-0.00313687
-0.00312073
-0.0031089
-0.00310617
-0.00414221
-0.00397545
-0.00393513
-0.0039309
-0.0039178
-0.00390332
-0.00388393
-0.00386285
-0.00384565
-0.00384285
-0.00554141
-0.00551789
-0.00552219
-0.00554133
-0.00554719
-0.00553723
-0.00551134
-0.00547572
-0.00544015
-0.00542114
-0.00802341
-0.00806502
-0.00811918
-0.00817487
-0.00820364
-0.00819729
-0.00815739
-0.00809197
-0.00802374
-0.00796766
-0.0120751
-0.0122887
-0.0124915
-0.0126547
-0.0127386
-0.0127366
-0.012649
-0.0124849
-0.0122818
-0.0120696
-0.00260408
-0.00249668
-0.00245733
-0.00245032
-0.00243335
-0.00241852
-0.00240225
-0.0023864
-0.00237401
-0.00236454
-0.00318542
-0.00313178
-0.00311505
-0.00311473
-0.00310719
-0.0030948
-0.00307664
-0.00305576
-0.00303749
-0.00302628
-0.00452214
-0.00452792
-0.00454445
-0.00456596
-0.00457391
-0.00456504
-0.00454019
-0.004504
-0.00446683
-0.00443455
-0.00673471
-0.00680545
-0.00687205
-0.00693218
-0.00696246
-0.00695701
-0.00691656
-0.00684877
-0.00677263
-0.00669097
-0.0101522
-0.0103746
-0.0105659
-0.0107194
-0.010798
-0.0107955
-0.0107141
-0.0105591
-0.0103697
-0.0101495
-0.00104116
-0.00101734
-0.000996348
-0.000992982
-0.000983987
-0.000973001
-0.000959646
-0.000946261
-0.000935454
-0.000925429
-0.00153901
-0.00152918
-0.00152367
-0.00152584
-0.00152234
-0.00151278
-0.00149764
-0.00147959
-0.0014633
-0.00145031
-0.00261409
-0.00263518
-0.00265658
-0.00267719
-0.00268521
-0.00267804
-0.00265662
-0.00262496
-0.00259108
-0.00255842
-0.00434195
-0.00441797
-0.00448355
-0.00453821
-0.00456528
-0.00456031
-0.00452508
-0.00446403
-0.00439326
-0.00431211
-0.0068627
-0.00706505
-0.00722658
-0.00735146
-0.00741429
-0.00741193
-0.00734462
-0.00721925
-0.00705896
-0.00685727
0.000978894
0.000987226
0.000999504
0.00100502
0.001012
0.00101996
0.00103029
0.00103883
0.0010455
0.0010516
0.000644071
0.000647644
0.000650771
0.0006515
0.000655142
0.000662598
0.000673381
0.000685465
0.000695996
0.000703196
-6.84941e-05
-8.27079e-05
-9.71363e-05
-0.000109532
-0.000113549
-0.00010753
-9.24833e-05
-7.07086e-05
-4.78292e-05
-2.71624e-05
-0.00119392
-0.00124372
-0.00128949
-0.00132597
-0.0013431
-0.00133879
-0.00131363
-0.00127143
-0.00122122
-0.00116734
-0.00275853
-0.00289169
-0.0029982
-0.00307835
-0.00311785
-0.00311449
-0.00307023
-0.00298697
-0.0028808
-0.00274693
0.00333693
0.0033421
0.00335255
0.00336122
0.00336914
0.00337572
0.00338051
0.0033835
0.00338414
0.00338467
0.00319119
0.00319541
0.00320224
0.00320874
0.00321522
0.00322133
0.0032265
0.00323051
0.00323271
0.00323392
0.0028818
0.00287923
0.00287838
0.00287908
0.00288212
0.00288739
0.00289425
0.00290215
0.0029098
0.00291656
0.00239152
0.00237318
0.00235815
0.00234793
0.00234496
0.00234944
0.00236033
0.00237741
0.00239715
0.00241884
0.00171315
0.00165976
0.00161824
0.0015891
0.00157685
0.0015804
0.00159982
0.00163368
0.00167793
0.00173415
0.00582889
0.00583938
0.00585434
0.00586872
0.00587965
0.00588523
0.00588504
0.00588053
0.00587378
0.00586729
0.00588702
0.00589758
0.00591331
0.00592866
0.00594003
0.00594541
0.00594435
0.00593849
0.00593044
0.00592398
0.00600015
0.0060131
0.00603105
0.00604861
0.00606102
0.00606609
0.00606331
0.00605472
0.00604376
0.00603457
0.00615299
0.0061709
0.00619236
0.00621312
0.00622716
0.00623192
0.00622698
0.00621452
0.00619938
0.00618493
0.00632534
0.00634832
0.00637464
0.00639999
0.00641648
0.00642133
0.00641348
0.00639599
0.0063749
0.00635485
0.00824468
0.00826342
0.00828648
0.00830859
0.00832378
0.00832883
0.00832355
0.00831085
0.00829574
0.00828108
0.00851077
0.00853128
0.00855936
0.008586
0.00860366
0.00860877
0.00860107
0.00858415
0.00856419
0.00854798
0.0090552
0.0090887
0.00912963
0.00916712
0.00919056
0.00919583
0.00918256
0.00915521
0.00912263
0.00909333
0.00986529
0.00992714
0.00999116
0.0100473
0.0100805
0.010086
0.0100634
0.0100178
0.0099623
0.00990414
0.0109074
0.0110194
0.0111205
0.0112063
0.0112547
0.0112605
0.0112238
0.0111486
0.0110556
0.0109473
0.0103631
0.010391
0.0104238
0.0104545
0.0104745
0.0104794
0.0104692
0.0104483
0.0104245
0.0104013
0.0108316
0.010866
0.0109086
0.0109478
0.0109725
0.0109776
0.0109633
0.0109347
0.0109016
0.0108722
0.0118044
0.0118661
0.0119337
0.0119932
0.0120287
0.0120343
0.0120102
0.0119625
0.0119053
0.0118483
0.0132877
0.0134107
0.0135241
0.0136198
0.013674
0.0136803
0.0136389
0.0135562
0.0134539
0.0133353
0.0152545
0.0154894
0.0156776
0.0158319
0.0159149
0.0159222
0.0158537
0.0157134
0.0155366
0.0153061
0.0119652
0.011999
0.0120405
0.0120789
0.0121032
0.0121082
0.0120941
0.0120664
0.0120347
0.0120063
0.012614
0.0126579
0.0127142
0.0127648
0.0127958
0.0128012
0.0127813
0.0127424
0.0126969
0.0126585
0.0139821
0.0140705
0.0141645
0.014245
0.0142919
0.0142979
0.0142639
0.0141967
0.014115
0.0140319
0.0161211
0.0163111
0.0164763
0.0166119
0.0166863
0.0166936
0.0166339
0.0165137
0.0163621
0.0161768
0.0190346
0.0194378
0.0197217
0.0199474
0.0200644
0.0200728
0.0199732
0.0197643
0.0194967
0.0190993
0.0128266
0.0128587
0.0129056
0.0129483
0.0129753
0.0129804
0.0129643
0.0129327
0.0128961
0.0128693
0.013604
0.0136505
0.0137167
0.0137746
0.0138098
0.0138154
0.0137921
0.0137465
0.0136916
0.0136504
0.0152895
0.0154001
0.0155168
0.0156127
0.0156672
0.0156738
0.0156329
0.0155514
0.0154477
0.0153422
0.0180679
0.0183476
0.0185648
0.0187323
0.0188211
0.0188287
0.0187563
0.0186053
0.0184044
0.0181303
0.0222571
0.0229509
0.0233476
0.0236369
0.023777
0.0237863
0.0236641
0.0233948
0.0230207
0.0223346
0.0279136
0.0299445
0.0306201
0.0310754
0.0312558
0.0312634
0.0311014
0.0306641
0.0300481
0.0280258
0.0423073
0.045238
0.0464856
0.0474276
0.0478274
0.0478405
0.0474623
0.0465578
0.0453876
0.0424715
0.0388988
0.0504371
0.0518855
0.0527435
0.052817
0.0528043
0.0527358
0.0518867
0.0506778
0.0391782
0.089829
0.112764
0.11915
0.121055
0.121605
0.121615
0.121064
0.119233
0.113243
0.0904114
-0.00184813
-0.0155436
-0.0161375
-0.0169408
-0.0170546
-0.0170532
-0.0169149
-0.0161139
-0.0157726
-0.00213082
0.0215605
0.0223251
0.0226368
0.0228929
0.0230133
0.0230206
0.0229137
0.0226706
0.022383
0.0216202
0.0323706
0.0338148
0.0347117
0.0354966
0.0358797
0.0358904
0.0355366
0.0347732
0.0339229
0.0324987
0.019638
0.0206546
0.0205899
0.0208461
0.0208914
0.0208912
0.0208352
0.0205544
0.0206586
0.0196488
0.0310503
0.0306574
0.0309889
0.0330745
0.0338541
0.0338716
0.0331498
0.0310098
0.0306505
0.0310659
0.0041678
-0.00565555
-0.00676879
-0.00845092
-0.00875372
-0.00874705
-0.0084341
-0.00668758
-0.00580144
0.0039403
0.0167209
0.0170512
0.0172007
0.0173321
0.0173989
0.0174048
0.0173486
0.0172262
0.0170886
0.0167601
0.0245467
0.0253043
0.0258339
0.0263008
0.0265463
0.0265563
0.0263321
0.0258844
0.0253823
0.0246385
0.0163351
0.0169691
0.0169955
0.0171099
0.0171231
0.0171204
0.0171061
0.0169811
0.0169831
0.0163531
0.0322789
0.03291
0.0332073
0.0339389
0.0342547
0.0342694
0.0339827
0.0332613
0.0329712
0.0323667
0.0127238
0.00893951
0.00853079
0.0079866
0.00791533
0.00791836
0.00799355
0.00852948
0.00888098
0.0126383
0.0116378
0.0117504
0.0118068
0.0118631
0.0118945
0.0118998
0.0118767
0.0118279
0.0117772
0.0116666
0.0159568
0.0162949
0.0165591
0.0167948
0.0169248
0.0169325
0.016819
0.0165972
0.0163484
0.0160204
0.0113725
0.0114964
0.0115029
0.0115447
0.0115518
0.0115519
0.0115469
0.0115037
0.0115051
0.0113803
0.0210506
0.02192
0.0222972
0.0227348
0.0229458
0.0229574
0.0227711
0.0223506
0.0219956
0.0211467
0.0118596
0.0110498
0.0111006
0.0110295
0.0110448
0.0110468
0.0110344
0.0111049
0.0110418
0.0118442
0.00636963
0.00637408
0.00637525
0.00638418
0.00639266
0.00639675
0.00639726
0.00639388
0.00639664
0.00639581
0.00704252
0.00704391
0.00706735
0.0071096
0.00713847
0.00714454
0.00712546
0.00709173
0.00707211
0.00707479
0.00635088
0.00626997
0.00624532
0.00624139
0.00623878
0.00624044
0.00624641
0.00624966
0.00628067
0.00636485
0.00879328
0.00855265
0.00855991
0.00865171
0.00870762
0.00871474
0.00867171
0.00859007
0.00858848
0.00884925
0.0071566
0.00703063
0.00703725
0.00704512
0.0070725
0.00707584
0.00705623
0.00705306
0.00704473
0.00716026
0.00117039
0.00109581
0.00106455
0.00104551
0.00103875
0.00104391
0.00105858
0.00108435
0.00111767
0.00119424
-0.00235286
-0.00273093
-0.00296128
-0.00311143
-0.00317906
-0.0031756
-0.0031052
-0.00295378
-0.00272918
-0.0023554
0.00142113
0.0011951
0.00114919
0.00112
0.00111582
0.00111741
0.00112848
0.00115998
0.00120508
0.00143872
-0.00467422
-0.00683536
-0.00743829
-0.00778163
-0.00789524
-0.00788951
-0.00777481
-0.00743074
-0.00686037
-0.00467987
0.00148908
0.00164708
0.00159967
0.00165351
0.00167606
0.001678
0.00166761
0.00161489
0.00166268
0.00150173
-0.00354303
-0.00366331
-0.00369594
-0.00372517
-0.00373838
-0.00373348
-0.00371025
-0.00367444
-0.00363701
-0.00351273
-0.012431
-0.0133339
-0.013856
-0.0142173
-0.0143823
-0.0143821
-0.0142227
-0.0138686
-0.0133632
-0.0124675
-0.00301858
-0.00338287
-0.00338547
-0.00340018
-0.00338396
-0.00337911
-0.00339294
-0.00337365
-0.00337279
-0.00300939
-0.0221674
-0.0286258
-0.0302201
-0.0312393
-0.0316144
-0.0316227
-0.0312529
-0.0302586
-0.0287803
-0.0223212
-0.00377326
-0.00304107
-0.00306363
-0.00289165
-0.00282767
-0.00281497
-0.00287411
-0.00304368
-0.00300235
-0.00374363
-0.00716892
-0.00730208
-0.00729614
-0.00731616
-0.00732655
-0.00732041
-0.00730114
-0.00726966
-0.00727002
-0.00713457
-0.0230235
-0.0244503
-0.0252372
-0.0258132
-0.026082
-0.0260879
-0.0258314
-0.025271
-0.0245143
-0.023104
-0.00622136
-0.00637787
-0.00617537
-0.00609447
-0.00600853
-0.00600535
-0.00608325
-0.00615939
-0.00635875
-0.00621056
-0.0473617
-0.0576642
-0.0600547
-0.0620601
-0.062922
-0.0629376
-0.0621208
-0.0601673
-0.0579232
-0.0477101
-0.00561595
-0.002615
-0.00211882
-0.00146021
-0.00115158
-0.00113963
-0.00142464
-0.00206629
-0.00250241
-0.00548512
-0.00931582
-0.00939287
-0.00932115
-0.00930802
-0.00930075
-0.00929519
-0.00929032
-0.00929049
-0.00935347
-0.00927207
-0.0324846
-0.0340599
-0.0349742
-0.0356755
-0.0360195
-0.036027
-0.0357037
-0.0350215
-0.0341427
-0.0325974
-0.00722034
-0.00689275
-0.0064288
-0.00630403
-0.00621467
-0.00621133
-0.00629191
-0.00640802
-0.00685216
-0.00718119
-0.073049
-0.0838855
-0.0865939
-0.0889832
-0.0899765
-0.0900007
-0.0890682
-0.0867319
-0.0841636
-0.0734931
-0.000795522
0.00686868
0.00855809
0.00962496
0.00993044
0.00993911
0.00966095
0.00864075
0.00710747
-0.000512843
-0.0101123
-0.0100107
-0.00986178
-0.00980602
-0.00977962
-0.0097736
-0.00978728
-0.00982761
-0.00996371
-0.0100614
-0.0386889
-0.0402051
-0.0411274
-0.0418423
-0.0422047
-0.0422139
-0.0418725
-0.0411772
-0.0402904
-0.0388037
-0.00665933
-0.00576869
-0.00518358
-0.00494498
-0.0048433
-0.00483854
-0.0049285
-0.00515291
-0.00570619
-0.00659637
-0.0907577
-0.100265
-0.102709
-0.104931
-0.10587
-0.105894
-0.105014
-0.102837
-0.100486
-0.091099
0.00440352
0.0166789
0.0185984
0.0197174
0.0199153
0.0199179
0.0197441
0.0186813
0.0169628
0.00477037
)
;

boundaryField
{
    walls
    {
        type            zeroGradient;
    }
    lid
    {
        type            zeroGradient;
    }
}


// ************************************************************************* //
