/*--------------------------------*- C++ -*----------------------------------*\
| =========                 |                                                 |
| \\      /  F ield         | OpenFOAM: The Open Source CFD Toolbox           |
|  \\    /   O peration     | Version:  2.3.1                                 |
|   \\  /    A nd           | Web:      www.OpenFOAM.org                      |
|    \\/     M anipulation  |                                                 |
\*---------------------------------------------------------------------------*/
FoamFile
{
    version     2.0;
    format      ascii;
    class       volVectorField;
    location    "4920";
    object      D;
}
// * * * * * * * * * * * * * * * * * * * * * * * * * * * * * * * * * * * * * //

dimensions      [0 1 0 0 0 0 0];

internalField   nonuniform List<vector> 
11800
(
(1.0639e-05 0.000301057 0)
(-1.34121e-05 0.000335584 0)
(7.44989e-06 0.000100572 0)
(-8.49264e-06 0.000137134 0)
(-1.22522e-05 0.000335014 0)
(-5.4994e-06 0.000137405 0)
(-2.02243e-06 0.000225587 0)
(-1.92242e-06 0.000173575 0)
(8.86789e-07 2.62678e-05 0)
(1.63151e-06 0.000104345 0)
(1.18113e-05 0.000300341 0)
(-1.05769e-05 0.000116751 0)
(-1.0158e-08 -8.088e-09 0)
(6.62232e-06 9.99603e-05 0)
(-7.5319e-06 0.000137717 0)
(7.17935e-06 1.6075e-05 0)
(-1.12745e-06 0.000224926 0)
(-1.09081e-06 0.000172949 0)
(5.03133e-07 2.65605e-05 0)
(1.01191e-06 0.000103824 0)
(-6.4735e-06 0.000136895 0)
(-9.69122e-06 0.000117218 0)
(-1.56834e-06 5.64964e-06 0)
(-1.67426e-06 5.88445e-06 0)
(6.41124e-06 1.83735e-05 0)
(-2.51313e-06 9.39086e-06 0)
(-1.03298e-05 6.94065e-05 0)
(1.513e-05 0.000202045 0)
(-9.18509e-06 5.25496e-05 0)
(-7.9336e-06 3.77071e-05 0)
(1.60341e-05 0.000255811 0)
(6.75808e-08 4.39371e-06 0)
(3.28362e-06 1.20883e-05 0)
(-8.15057e-06 0.000344405 0)
(6.63349e-06 0.000342849 0)
(-1.82424e-05 0.000273289 0)
(6.18032e-06 0.000344036 0)
(3.2322e-06 1.24298e-05 0)
(-1.97743e-06 0.000238345 0)
(1.63681e-06 0.000114668 0)
(-1.01575e-05 7.01896e-05 0)
(-9.04116e-06 5.32463e-05 0)
(1.47808e-05 0.000200882 0)
(-7.8187e-06 3.83162e-05 0)
(1.56785e-05 0.000254587 0)
(6.84912e-06 1.62032e-05 0)
(1.8101e-06 6.69544e-06 0)
(2.01749e-06 6.58842e-06 0)
(-3.11148e-06 0.00023855 0)
(2.54336e-06 0.000114831 0)
(-1.73155e-05 0.000175895 0)
(-1.85138e-05 0.000227924 0)
(-1.69334e-06 0.000297828 0)
(9.36471e-08 4.16861e-06 0)
(-8.79835e-06 1.91621e-05 0)
(1.18846e-06 9.79792e-07 0)
(-2.27667e-05 0.000349145 0)
(-5.69126e-06 9.67975e-05 0)
(6.54008e-06 0.000141484 0)
(-4.13258e-06 9.29637e-05 0)
(2.37698e-06 3.13126e-06 0)
(-2.92287e-06 0.000298052 0)
(-4.94761e-06 9.65773e-05 0)
(5.70416e-06 0.000141748 0)
(6.00519e-06 1.80909e-05 0)
(-2.17368e-05 0.000308506 0)
(-1.79634e-05 0.000175122 0)
(-1.92723e-05 0.000227074 0)
(-2.16239e-05 0.000348579 0)
(-2.63761e-06 9.69723e-06 0)
(-7.26464e-06 0.000345376 0)
(-1.28325e-05 0.0003435 0)
(-1.32059e-05 0.000342275 0)
(-1.11891e-07 1.2414e-07 0)
(2.53829e-06 3.26633e-06 0)
(-1.71831e-05 0.000274059 0)
(7.88177e-06 2.54274e-05 0)
(-2.20896e-05 0.000309664 0)
(-1.75885e-05 0.00031229 0)
(-1.64317e-05 0.000313338 0)
(-8.38693e-06 1.88982e-05 0)
(1.30762e-06 0.000119098 0)
(1.21218e-05 0.000340801 0)
(1.08213e-05 0.000341013 0)
(-1.54945e-06 0.000122424 0)
(-7.62989e-06 4.24899e-05 0)
(1.44951e-05 0.000246479 0)
(-8.7315e-06 5.8019e-05 0)
(-9.74508e-06 7.55312e-05 0)
(1.3626e-05 0.000193207 0)
(-3.82986e-07 0.000291362 0)
(3.48932e-06 1.14887e-05 0)
(-1.09211e-05 0.000314311 0)
(2.26128e-05 0.000351826 0)
(3.58747e-06 0.00015119 0)
(-2.70624e-09 -2.0587e-09 0)
(6.99925e-11 -4.37639e-10 0)
(2.70879e-09 -2.06099e-09 0)
(-2.23583e-07 0.000301504 0)
(-1.00424e-05 0.000119349 0)
(1.94655e-05 0.000350564 0)
(1.17433e-05 0.00013121 0)
(-4.23076e-06 1.68148e-05 0)
(-9.51147e-07 1.29635e-05 0)
(-6.22294e-07 0.000333506 0)
(1.17156e-06 2.74837e-05 0)
(-2.47036e-06 0.000171021 0)
(-2.57062e-06 0.000222755 0)
(3.69605e-06 6.25722e-06 0)
(8.81631e-06 5.79939e-05 0)
(7.70431e-06 4.24674e-05 0)
(9.84002e-06 7.55028e-05 0)
(-1.46755e-05 0.000246509 0)
(-1.37972e-05 0.000193249 0)
(2.10397e-06 0.000102207 0)
(2.92499e-06 5.70301e-06 0)
(2.15703e-05 0.000309772 0)
(-8.80796e-06 0.000318005 0)
(2.97811e-06 5.49426e-06 0)
(-1.45968e-06 0.000105651 0)
(-8.69064e-07 2.55711e-05 0)
(1.98005e-06 0.000227254 0)
(1.87869e-06 0.000175067 0)
(-2.71114e-06 0.000217886 0)
(-1.09925e-05 0.0003155 0)
(-9.52144e-07 0.000300559 0)
(-7.05796e-06 0.000333639 0)
(-1.63338e-06 0.000332729 0)
(-2.44318e-05 0.000360743 0)
(-2.53048e-05 0.000359868 0)
(-6.95085e-07 3.12072e-07 0)
(-3.16528e-06 7.40006e-06 0)
(1.48692e-05 0.000239121 0)
(-8.19477e-06 4.64785e-05 0)
(1.39249e-05 0.000186302 0)
(-9.30746e-06 6.25577e-05 0)
(-1.033e-05 8.05759e-05 0)
(1.37204e-05 0.000239339 0)
(-7.55134e-06 4.6339e-05 0)
(1.28505e-05 0.000186504 0)
(-8.57875e-06 6.24029e-05 0)
(-9.52301e-06 8.0407e-05 0)
(-1.98319e-06 2.36761e-05 0)
(4.82398e-06 0.000231628 0)
(4.49864e-06 0.00017928 0)
(-3.79268e-06 0.00010912 0)
(1.84574e-05 0.00011985 0)
(-1.83237e-05 0.00011722 0)
(1.15521e-05 0.000132167 0)
(-1.33393e-06 1.37598e-05 0)
(-1.21584e-05 0.000290013 0)
(-1.20531e-05 0.000291555 0)
(5.94926e-06 0.000340217 0)
(-1.35985e-05 0.000273672 0)
(5.46089e-06 0.00019311 0)
(5.92726e-06 0.000246349 0)
(-1.51434e-05 0.000216939 0)
(-1.40359e-05 0.000165617 0)
(7.06048e-06 3.03055e-05 0)
(-1.10439e-06 0.000292459 0)
(4.01781e-06 6.36905e-06 0)
(-1.24269e-05 0.000273943 0)
(8.25034e-06 2.5797e-05 0)
(-5.5197e-06 7.86319e-05 0)
(-4.96284e-06 6.07943e-05 0)
(-4.35736e-06 4.49118e-05 0)
(7.58591e-06 0.000188733 0)
(8.09004e-06 0.000241728 0)
(-3.54019e-06 4.36874e-06 0)
(-6.46594e-06 2.91484e-05 0)
(1.41491e-05 0.000219353 0)
(1.3106e-05 0.00016788 0)
(3.16505e-06 0.000222508 0)
(-2.07826e-05 0.000272013 0)
(-2.09923e-05 0.00027365 0)
(7.38116e-06 1.84064e-05 0)
(7.39178e-06 1.89158e-05 0)
(8.15792e-06 5.6308e-05 0)
(9.12559e-06 7.36234e-05 0)
(7.1076e-06 4.09876e-05 0)
(-1.29765e-05 0.000195866 0)
(-1.37856e-05 0.000249312 0)
(5.55483e-06 0.000191894 0)
(5.95988e-06 0.000245097 0)
(6.02751e-06 0.000116744 0)
(-2.86919e-06 0.000108872 0)
(-1.50787e-06 2.37986e-05 0)
(3.6523e-06 0.000231317 0)
(3.40493e-06 0.000178989 0)
(-4.7348e-06 0.000286035 0)
(-1.58885e-06 4.97944e-05 0)
(-1.79459e-06 6.63288e-05 0)
(-1.78851e-05 0.000306125 0)
(-4.83294e-07 1.12837e-05 0)
(-1.72383e-05 0.000143788 0)
(1.48614e-05 9.51291e-05 0)
(1.70285e-07 1.6194e-07 0)
(-1.07017e-05 0.000344956 0)
(2.14199e-05 0.000311023 0)
(-6.06563e-07 3.6127e-07 0)
(1.41124e-05 0.000326036 0)
(1.76259e-05 0.000278494 0)
(1.89034e-05 0.000278723 0)
(-5.45416e-07 0.000335201 0)
(-1.42708e-06 0.000336278 0)
(9.93911e-06 9.28157e-05 0)
(8.78042e-06 9.32283e-05 0)
(-1.17586e-05 0.000146245 0)
(-1.0359e-05 0.00014573 0)
(6.85466e-07 3.07822e-07 0)
(-1.93318e-06 1.65194e-05 0)
(-2.17536e-06 9.18962e-06 0)
(-5.07251e-08 1.90735e-08 0)
(6.62995e-06 1.08985e-05 0)
(-1.57788e-07 5.01113e-08 0)
(8.62549e-07 9.02522e-06 0)
(-1.21392e-05 0.000333434 0)
(-5.83107e-06 4.1466e-05 0)
(-6.66911e-06 5.68712e-05 0)
(-7.45445e-06 7.4258e-05 0)
(1.11771e-05 0.000248314 0)
(1.05464e-05 0.00019495 0)
(7.27877e-07 0.000230886 0)
(6.76988e-07 0.000178583 0)
(-3.07023e-07 2.39694e-05 0)
(-5.85628e-07 0.000108546 0)
(-2.31449e-07 3.84698e-08 0)
(9.1052e-07 2.99935e-05 0)
(-1.82357e-06 0.000165929 0)
(-5.47899e-06 0.000104827 0)
(1.26897e-06 2.95516e-05 0)
(-2.56882e-06 0.000166812 0)
(-8.29472e-06 0.000315458 0)
(1.02644e-05 0.000117604 0)
(9.5629e-06 0.000116697 0)
(5.05296e-08 1.90066e-08 0)
(2.31179e-07 3.84227e-08 0)
(-1.60909e-05 0.000293543 0)
(-1.54795e-05 0.000294792 0)
(-1.51545e-05 9.95221e-05 0)
(1.70968e-05 0.000138642 0)
(1.37099e-05 0.000249205 0)
(1.29029e-05 0.000195772 0)
(-7.09077e-06 4.10477e-05 0)
(-8.1403e-06 5.63723e-05 0)
(-9.10501e-06 7.36953e-05 0)
(-4.87153e-07 0.000299353 0)
(-5.97396e-06 2.78821e-05 0)
(1.3377e-05 0.000222107 0)
(1.24104e-05 0.000170432 0)
(8.19981e-06 0.000118838 0)
(6.93595e-06 0.000282243 0)
(1.08878e-05 0.000352251 0)
(1.10326e-06 8.89411e-06 0)
(-4.01362e-06 9.39224e-05 0)
(-9.52875e-09 3.27963e-06 0)
(1.57412e-07 5.00106e-08 0)
(3.87946e-06 9.91259e-05 0)
(3.33916e-06 9.80866e-05 0)
(-4.2019e-06 0.000138895 0)
(-3.59921e-06 0.000139925 0)
(7.45903e-06 7.42361e-05 0)
(6.67299e-06 5.68515e-05 0)
(5.8198e-06 4.14561e-05 0)
(-1.05587e-05 0.000194951 0)
(-1.12231e-05 0.000248346 0)
(-5.94118e-06 0.00034506 0)
(2.00125e-06 2.4215e-06 0)
(8.24956e-09 0.000197996 0)
(-1.46664e-08 3.9689e-05 0)
(7.91861e-06 0.000332914 0)
(6.44203e-06 0.000115896 0)
(-2.50571e-05 0.000328956 0)
(7.40383e-06 0.000119699 0)
(2.84955e-07 2.07594e-07 0)
(2.06293e-05 0.000268638 0)
(2.07482e-05 0.000267123 0)
(-1.25931e-05 0.00017065 0)
(-1.35734e-05 0.000222334 0)
(-1.12494e-05 0.000170218 0)
(-1.21286e-05 0.000221873 0)
(6.03223e-06 2.77798e-05 0)
(5.40897e-06 2.79638e-05 0)
(6.13752e-06 0.000156693 0)
(7.29924e-06 0.00015651 0)
(6.66395e-06 0.000207264 0)
(7.92839e-06 0.000207063 0)
(-3.35815e-06 3.48895e-05 0)
(-4.00069e-06 3.50035e-05 0)
(-7.00528e-07 1.56535e-05 0)
(3.54748e-06 9.97307e-06 0)
(3.32092e-06 9.6271e-06 0)
(3.38669e-06 7.28149e-06 0)
(5.93196e-06 0.000283461 0)
(-2.04482e-05 0.000269135 0)
(-2.05574e-05 0.000267561 0)
(7.62788e-06 2.05647e-05 0)
(7.47695e-06 1.99767e-05 0)
(1.61961e-05 0.000119875 0)
(1.64152e-05 0.000121226 0)
(-1.6064e-05 0.000117125 0)
(-1.61479e-05 0.000115797 0)
(7.33739e-06 0.000339989 0)
(-2.00662e-05 0.000344437 0)
(-1.92891e-05 0.000289764 0)
(4.47293e-06 5.02478e-06 0)
(-1.1783e-05 0.000340101 0)
(-1.05208e-05 0.000338931 0)
(4.99504e-06 0.000158493 0)
(-3.08236e-06 0.000142362 0)
(2.7506e-06 9.60532e-05 0)
(-1.37785e-05 0.000120324 0)
(1.351e-05 0.00011656 0)
(-6.48015e-06 2.0206e-05 0)
(-1.88928e-07 1.1941e-07 0)
(1.02118e-06 4.12914e-06 0)
(1.24155e-06 0.000102532 0)
(-1.15913e-05 0.000103265 0)
(1.25074e-05 0.000134171 0)
(-6.66874e-06 9.39609e-05 0)
(7.9611e-06 0.000144867 0)
(4.04244e-06 0.000253105 0)
(5.57494e-06 0.000252558 0)
(-2.35644e-06 5.39824e-05 0)
(-3.25522e-06 5.43095e-05 0)
(-2.64452e-06 7.10367e-05 0)
(-3.65152e-06 7.14019e-05 0)
(6.31872e-07 2.7295e-05 0)
(-1.3461e-06 0.000171407 0)
(-1.36458e-06 0.000223192 0)
(-2.21277e-06 0.000327357 0)
(3.09759e-06 7.23469e-06 0)
(-6.16387e-07 0.00013869 0)
(-9.52234e-06 0.0003356 0)
(1.28062e-06 1.01663e-06 0)
(8.52648e-06 0.00019895 0)
(-4.57722e-06 3.92516e-05 0)
(-1.43714e-05 0.000140169 0)
(-1.34968e-05 0.000139465 0)
(1.25582e-05 9.81117e-05 0)
(1.18388e-05 9.87107e-05 0)
(-1.42662e-05 0.000350024 0)
(-1.44235e-05 0.000348516 0)
(-2.32265e-06 1.57522e-05 0)
(-2.75465e-06 1.56924e-05 0)
(1.118e-06 4.32832e-06 0)
(-2.64254e-06 4.4929e-06 0)
(6.79511e-07 0.000145573 0)
(4.09444e-06 2.82867e-05 0)
(3.44367e-06 2.84673e-05 0)
(-8.46182e-06 0.000169469 0)
(-7.09319e-06 0.000169066 0)
(-9.12591e-06 0.000221077 0)
(-7.65169e-06 0.000220645 0)
(-1.85079e-05 0.000280383 0)
(-1.71262e-05 0.000280495 0)
(-4.03395e-06 8.40148e-05 0)
(-3.7244e-06 6.56306e-05 0)
(-3.29431e-06 4.91777e-05 0)
(5.86575e-06 0.000261536 0)
(-9.92612e-07 0.000296433 0)
(1.2156e-05 0.000116447 0)
(1.15108e-05 0.000117465 0)
(5.40969e-06 0.000226073 0)
(5.16958e-06 0.000174042 0)
(-2.403e-06 2.60654e-05 0)
(2.26914e-06 2.92002e-05 0)
(1.86788e-06 2.97715e-05 0)
(-4.18755e-06 0.000217843 0)
(-4.98376e-06 0.000218972 0)
(-4.61201e-06 0.000167538 0)
(-3.7571e-06 0.000166385 0)
(-4.78352e-06 2.67579e-05 0)
(1.0163e-05 0.000172696 0)
(1.09395e-05 0.00022455 0)
(-1.2833e-07 1.21809e-06 0)
(1.80818e-05 0.00013299 0)
(-1.65768e-05 0.000104658 0)
(-7.18348e-08 1.13299e-06 0)
(-5.45343e-06 0.000249154 0)
(-6.39696e-06 0.000250532 0)
(-4.99949e-06 0.000195821 0)
(-5.85609e-06 0.000197126 0)
(3.16971e-06 4.02138e-05 0)
(2.73125e-06 4.09237e-05 0)
(3.75291e-06 5.55066e-05 0)
(3.22195e-06 5.63181e-05 0)
(4.2028e-06 7.27409e-05 0)
(3.6041e-06 7.3649e-05 0)
(2.0429e-05 0.000280929 0)
(2.08094e-05 0.000282365 0)
(-1.88833e-06 9.26498e-06 0)
(7.66822e-06 0.000199946 0)
(-4.08618e-06 3.87066e-05 0)
(6.64159e-06 3.05673e-05 0)
(-1.31384e-05 0.000165064 0)
(-1.42089e-05 0.00021631 0)
(-1.83947e-07 5.58224e-08 0)
(2.66407e-06 0.000292845 0)
(6.55672e-06 2.91549e-05 0)
(-1.33225e-05 0.000167873 0)
(-1.43964e-05 0.000219299 0)
(4.95602e-06 8.46148e-06 0)
(-1.007e-05 0.000317545 0)
(6.28556e-06 2.32438e-05 0)
(-1.59064e-05 0.000260401 0)
(-3.34879e-06 1.2459e-05 0)
(-3.57322e-06 1.29184e-05 0)
(3.51138e-06 1.27834e-05 0)
(-1.70776e-06 0.000138473 0)
(-1.29731e-08 -9.54806e-09 0)
(-1.06938e-05 0.000348098 0)
(-1.64946e-07 6.54782e-08 0)
(1.83423e-07 5.56826e-08 0)
(-4.91179e-06 2.82358e-05 0)
(1.09173e-05 0.000221241 0)
(1.01231e-05 0.000169624 0)
(8.41679e-06 0.000293309 0)
(-2.4126e-05 0.000314811 0)
(3.09713e-06 0.000129549 0)
(-1.97701e-06 0.000126137 0)
(-5.35605e-07 1.30391e-05 0)
(-1.50593e-06 1.56472e-06 0)
(-9.36571e-09 -8.43412e-09 0)
(-5.98135e-06 9.48449e-05 0)
(7.13778e-06 0.000143845 0)
(5.11442e-07 1.79019e-07 0)
(-7.89988e-07 0.000124265 0)
(-7.44764e-07 0.000123055 0)
(-1.08631e-08 0.00010418 0)
(-1.37253e-07 2.63994e-05 0)
(2.78712e-07 0.000173288 0)
(2.51352e-07 0.000225375 0)
(-5.13517e-07 1.79727e-07 0)
(2.12718e-06 1.41099e-05 0)
(-8.31985e-06 0.000256133 0)
(4.73664e-06 5.22615e-05 0)
(5.32935e-06 6.91002e-05 0)
(5.86982e-06 8.78183e-05 0)
(1.75218e-05 0.000334062 0)
(-6.36388e-06 2.52457e-05 0)
(1.5023e-05 0.0002282 0)
(1.39856e-05 0.000176102 0)
(-9.91519e-06 0.000308019 0)
(1.42519e-06 3.60849e-06 0)
(1.33971e-05 0.000302267 0)
(-2.82142e-06 4.42507e-06 0)
(9.39102e-06 0.000335397 0)
(-7.17049e-06 0.000256161 0)
(4.07886e-06 5.22385e-05 0)
(4.58947e-06 6.90761e-05 0)
(5.05827e-06 8.7787e-05 0)
(1.24505e-06 3.419e-06 0)
(6.18907e-06 0.00020505 0)
(-3.17366e-06 3.60145e-05 0)
(-1.06997e-06 1.40504e-05 0)
(-1.75586e-05 0.000303349 0)
(-6.4895e-06 7.89255e-05 0)
(-5.83661e-06 6.10603e-05 0)
(-5.12656e-06 4.51479e-05 0)
(8.85253e-06 0.000188423 0)
(9.44215e-06 0.000241395 0)
(2.41416e-05 0.000354148 0)
(1.40619e-05 0.00031059 0)
(1.55889e-05 0.000310053 0)
(1.92521e-07 1.33962e-07 0)
(8.70502e-06 9.43116e-05 0)
(-1.01943e-05 0.000144437 0)
(-4.41755e-06 9.56675e-05 0)
(5.19792e-06 0.000142921 0)
(-1.48523e-06 0.000154033 0)
(-1.127e-06 0.000250791 0)
(7.29319e-07 7.2551e-05 0)
(6.51046e-07 5.53339e-05 0)
(4.38041e-08 3.88663e-05 0)
(-2.36673e-07 0.000149652 0)
(-9.9525e-08 0.000199576 0)
(1.10584e-05 0.000353668 0)
(6.21943e-07 1.44737e-05 0)
(-2.65355e-07 3.32809e-06 0)
(2.12822e-06 0.000211965 0)
(1.06478e-07 3.44235e-06 0)
(-1.60606e-06 1.07979e-05 0)
(4.05772e-06 3.87719e-05 0)
(-7.69762e-06 0.000199815 0)
(-1.50088e-07 1.64053e-07 0)
(-1.62622e-05 0.000303206 0)
(-1.33574e-06 2.58925e-05 0)
(2.90199e-06 0.000226585 0)
(2.87583e-06 0.000174383 0)
(3.59664e-07 8.62751e-08 0)
(-4.74702e-06 8.60051e-06 0)
(5.30752e-06 7.08234e-05 0)
(4.72799e-06 5.37965e-05 0)
(-8.18191e-06 0.000253473 0)
(1.58882e-06 9.86358e-05 0)
(-1.09977e-05 0.000343597 0)
(-1.80548e-07 2.53081e-08 0)
(-6.22332e-06 1.34772e-05 0)
(4.03094e-06 7.4049e-06 0)
(-4.05008e-06 4.42399e-06 0)
(1.22396e-05 0.000118595 0)
(9.31924e-06 0.000144466 0)
(-7.96274e-06 9.42786e-05 0)
(5.75295e-07 3.84673e-05 0)
(-1.31904e-06 0.000150224 0)
(-1.10299e-06 0.000200324 0)
(1.17207e-05 0.000298815 0)
(1.08836e-05 0.00012998 0)
(5.68772e-06 0.000346264 0)
(5.47982e-06 0.000347562 0)
(1.59387e-06 0.000143786 0)
(2.16531e-06 9.78918e-05 0)
(1.80325e-07 2.52752e-08 0)
(-1.57165e-05 0.000270801 0)
(5.64821e-06 1.92712e-05 0)
(1.96476e-08 2.62177e-07 0)
(3.0222e-06 0.000193014 0)
(3.94575e-06 0.000193688 0)
(5.27711e-09 2.27624e-08 0)
(-2.95338e-06 7.16226e-06 0)
(7.42821e-06 7.20177e-05 0)
(6.62723e-06 5.48676e-05 0)
(5.76155e-06 3.96628e-05 0)
(-1.06944e-05 0.00019801 0)
(-1.13499e-05 0.000251697 0)
(9.89332e-06 0.000123664 0)
(1.4627e-06 0.000293161 0)
(-6.39482e-06 0.000330783 0)
(-6.05384e-06 0.000332536 0)
(-6.06846e-07 0.000254877 0)
(-5.18566e-07 0.000256285 0)
(4.41645e-07 5.21196e-05 0)
(4.03546e-07 5.28951e-05 0)
(4.97009e-07 6.89469e-05 0)
(4.53593e-07 6.98182e-05 0)
(3.3143e-07 8.76476e-05 0)
(3.94592e-07 8.85807e-05 0)
(7.90877e-07 0.00014427 0)
(1.44204e-06 0.000146602 0)
(2.5017e-06 0.000223934 0)
(-6.19695e-07 0.000153653 0)
(-3.60179e-07 8.64018e-08 0)
(-4.02234e-07 3.17344e-06 0)
(5.45273e-06 0.000203954 0)
(-2.8206e-06 3.65757e-05 0)
(1.41875e-06 4.41129e-06 0)
(2.12648e-05 0.000335711 0)
(-1.60743e-06 0.00025741 0)
(1.00478e-06 5.15298e-05 0)
(1.13171e-06 6.82836e-05 0)
(1.11847e-06 8.68766e-05 0)
(-1.62281e-05 0.00028184 0)
(5.5884e-06 0.000100245 0)
(8.30242e-06 0.000356428 0)
(9.38716e-06 0.000355631 0)
(-1.59639e-06 1.11352e-05 0)
(-1.01968e-06 0.000196951 0)
(5.43791e-07 4.02583e-05 0)
(2.36628e-07 2.39316e-07 0)
(2.08659e-05 0.000345223 0)
(-2.78623e-07 5.61766e-06 0)
(-3.88796e-06 5.85231e-05 0)
(-4.33649e-06 7.61075e-05 0)
(-5.19106e-06 7.69119e-05 0)
(-4.65847e-06 5.92468e-05 0)
(-3.36169e-06 4.28987e-05 0)
(-4.06814e-06 4.35512e-05 0)
(6.90596e-06 0.000191105 0)
(7.35954e-06 0.000244264 0)
(2.95036e-06 4.00321e-06 0)
(-1.8905e-07 1.14425e-07 0)
(-1.79765e-05 0.000233038 0)
(-1.87315e-05 0.000344516 0)
(6.11871e-06 0.000146486 0)
(-5.14709e-07 5.74892e-06 0)
(-9.71583e-06 0.000190756 0)
(-1.03485e-05 0.00024388 0)
(5.51856e-06 4.3818e-05 0)
(6.29837e-06 5.95452e-05 0)
(7.0159e-06 7.72399e-05 0)
(9.04345e-06 0.000294287 0)
(2.0518e-05 0.000346454 0)
(-1.09984e-05 0.000119667 0)
(4.51871e-06 3.92412e-05 0)
(-8.53713e-06 0.000198942 0)
(5.8554e-06 0.000147632 0)
(-2.20357e-06 0.000104999 0)
(5.87745e-06 7.14308e-05 0)
(5.2398e-06 5.43397e-05 0)
(-9.0199e-06 0.000252555 0)
(-1.63569e-05 0.000121052 0)
(1.59737e-05 0.000116037 0)
(1.59743e-05 0.000117339 0)
(-1.6141e-05 0.000119669 0)
(-7.48663e-06 1.99647e-05 0)
(-7.70678e-06 2.05884e-05 0)
(-7.58073e-06 0.000117319 0)
(-3.81744e-06 4.52993e-06 0)
(-1.22716e-05 0.000118226 0)
(-1.78601e-06 0.000283482 0)
(-1.55994e-06 1.85806e-06 0)
(1.23141e-05 6.87393e-05 0)
(1.09401e-05 5.19646e-05 0)
(-1.74204e-05 0.000177438 0)
(2.81272e-06 7.14746e-05 0)
(2.50775e-06 5.43737e-05 0)
(-4.32376e-06 0.00025244 0)
(5.73078e-06 1.72101e-05 0)
(9.63855e-06 0.000143289 0)
(-8.29407e-06 9.52977e-05 0)
(-4.50507e-06 5.04704e-06 0)
(4.96589e-06 0.000224835 0)
(4.74222e-06 0.000172937 0)
(-2.22932e-06 2.6582e-05 0)
(1.43732e-05 0.000212245 0)
(-6.96022e-06 3.25207e-05 0)
(1.32577e-05 0.000161308 0)
(-7.91926e-06 1.96988e-05 0)
(1.01382e-05 0.00033145 0)
(1.16255e-05 0.000330964 0)
(1.11986e-05 0.000251705 0)
(1.06086e-05 0.000198031 0)
(-5.73277e-06 3.97761e-05 0)
(-6.56097e-06 5.48608e-05 0)
(-7.35386e-06 7.20105e-05 0)
(-1.6428e-06 1.61059e-06 0)
(-8.87171e-06 0.000307703 0)
(9.71048e-06 0.000195822 0)
(-5.32894e-06 4.09748e-05 0)
(-9.98265e-07 1.23596e-06 0)
(8.3068e-06 0.000335178 0)
(1.98551e-06 1.62278e-06 0)
(1.64648e-06 1.23025e-06 0)
(4.18128e-06 5.92399e-06 0)
(1.00394e-05 0.00026916 0)
(-1.69596e-05 0.000276604 0)
(2.26114e-05 0.000336141 0)
(4.23519e-06 6.22804e-06 0)
(9.91153e-06 0.00012994 0)
(1.36203e-05 0.000285469 0)
(-2.18422e-05 0.000269859 0)
(7.93701e-06 1.97433e-05 0)
(-5.0031e-06 0.00028727 0)
(2.04058e-06 7.16978e-05 0)
(1.81985e-06 5.45723e-05 0)
(-3.13681e-06 0.000252093 0)
(-7.42356e-07 3.55624e-06 0)
(5.80221e-06 0.000154608 0)
(1.63493e-07 6.49417e-08 0)
(-6.57904e-06 1.33469e-05 0)
(-1.16529e-06 0.000126926 0)
(-2.94817e-06 2.42779e-05 0)
(-3.4321e-06 2.44388e-05 0)
(6.60203e-06 0.000177974 0)
(7.66222e-06 0.000177641 0)
(8.22353e-06 0.000229867 0)
(7.08445e-06 0.000230226 0)
(1.93483e-07 7.13273e-07 0)
(-4.66166e-08 8.98458e-06 0)
(-1.18227e-05 0.000159799 0)
(-1.28302e-05 0.000210613 0)
(6.27717e-06 3.3293e-05 0)
(-3.67702e-06 1.97782e-05 0)
(-2.20818e-06 0.000216586 0)
(-3.32369e-06 8.44795e-06 0)
(6.95046e-06 0.000331983 0)
(-5.55876e-06 0.000107996 0)
(-6.44252e-06 0.000107723 0)
(1.88701e-07 1.89402e-07 0)
(-3.6797e-06 0.000111718 0)
(-1.85157e-06 2.23274e-05 0)
(4.33561e-06 0.000182362 0)
(4.6407e-06 0.000234928 0)
(-5.17933e-06 0.000216622 0)
(-4.55298e-06 0.000165267 0)
(2.28843e-06 3.03416e-05 0)
(3.02856e-06 1.13485e-05 0)
(2.81279e-06 1.09348e-05 0)
(1.49467e-06 0.000107679 0)
(-1.92139e-06 0.000229782 0)
(-1.79863e-06 0.000177531 0)
(7.97154e-07 2.44441e-05 0)
(-1.75289e-06 4.22157e-05 0)
(-3.13003e-06 8.68449e-06 0)
(1.2935e-05 0.000339816 0)
(-1.2585e-05 0.000202708 0)
(9.68277e-06 9.49193e-05 0)
(-1.12916e-05 0.000143753 0)
(1.37867e-05 0.000286763 0)
(-1.25837e-05 8.71997e-05 0)
(-1.14417e-05 6.8533e-05 0)
(1.54606e-05 0.000153083 0)
(-1.0162e-05 5.17775e-05 0)
(-8.77632e-06 3.7062e-05 0)
(1.69001e-05 0.000203346 0)
(1.78735e-05 0.000257252 0)
(-4.62441e-06 0.000246109 0)
(-4.3476e-06 0.000192844 0)
(2.77441e-06 5.81431e-05 0)
(2.42566e-06 4.25809e-05 0)
(3.09598e-06 7.56859e-05 0)
(2.65396e-06 5.89842e-05 0)
(-4.39163e-06 0.000244722 0)
(2.95832e-06 7.6623e-05 0)
(2.32378e-06 4.33176e-05 0)
(-4.12602e-06 0.00019154 0)
(-2.43321e-06 0.000312561 0)
(-4.8733e-06 6.35619e-06 0)
(-5.31667e-06 3.00538e-05 0)
(1.14385e-05 0.000217307 0)
(1.05824e-05 0.000165979 0)
(-3.34306e-06 4.0535e-05 0)
(6.1644e-06 0.000196577 0)
(1.69663e-05 0.000243851 0)
(1.5928e-05 0.000190743 0)
(-9.08121e-06 4.39352e-05 0)
(-1.03628e-05 5.96598e-05 0)
(-1.15416e-05 7.73518e-05 0)
(1.78777e-05 0.000266272 0)
(1.9511e-05 0.000265932 0)
(4.33381e-07 7.66237e-06 0)
(-1.78412e-06 0.000124835 0)
(-4.73082e-06 1.30084e-05 0)
(2.41389e-07 4.44204e-07 0)
(-4.66091e-06 1.65386e-05 0)
(-7.41654e-07 0.000284051 0)
(1.96777e-07 7.33167e-06 0)
(-3.89928e-06 0.000133838 0)
(1.61909e-05 0.000177544 0)
(-7.26122e-06 2.4647e-05 0)
(1.73768e-05 0.000229742 0)
(-1.58981e-08 -1.10186e-08 0)
(1.09557e-06 0.000212168 0)
(3.02607e-07 1.27021e-07 0)
(2.06595e-07 1.51229e-07 0)
(2.8834e-06 0.000152111 0)
(-3.45266e-07 2.76961e-07 0)
(1.32188e-05 0.000342369 0)
(9.99171e-07 0.000193632 0)
(-5.14094e-07 4.20867e-05 0)
(2.84739e-06 1.68358e-05 0)
(1.83032e-06 0.000193026 0)
(-1.00527e-06 4.23961e-05 0)
(-1.68426e-07 3.70418e-06 0)
(-1.22872e-05 6.87035e-05 0)
(-1.09154e-05 5.1933e-05 0)
(-9.42841e-06 3.72073e-05 0)
(-7.82322e-06 2.47075e-05 0)
(1.74274e-05 0.000177477 0)
(1.81238e-05 0.000203121 0)
(1.87044e-05 0.000229665 0)
(1.91749e-05 0.000257018 0)
(-8.46827e-06 0.000277426 0)
(-7.52266e-06 0.000330137 0)
(-2.4344e-05 0.000272331 0)
(8.65439e-06 1.89048e-05 0)
(5.57652e-06 0.000350091 0)
(6.48411e-06 0.000348575 0)
(1.74212e-06 0.000188722 0)
(1.88955e-06 0.000241747 0)
(-1.31613e-06 7.87242e-05 0)
(-1.18349e-06 6.08726e-05 0)
(-1.03927e-06 4.49754e-05 0)
(-6.87381e-06 1.97502e-05 0)
(2.50623e-06 1.41383e-05 0)
(-9.37926e-06 8.2503e-05 0)
(1.24846e-05 0.000183651 0)
(-8.46773e-06 6.42942e-05 0)
(-7.47526e-06 4.80076e-05 0)
(1.33518e-05 0.000236293 0)
(-5.22477e-06 2.18977e-05 0)
(1.35224e-05 0.000263865 0)
(2.27875e-06 0.000119529 0)
(-1.40136e-06 0.000294933 0)
(1.36269e-06 6.78105e-07 0)
(-1.02322e-06 0.000258779 0)
(6.68994e-07 5.07572e-05 0)
(7.54346e-07 6.74142e-05 0)
(7.03923e-07 8.59163e-05 0)
(4.2436e-06 0.000305612 0)
(-5.64644e-07 3.55493e-07 0)
(2.14476e-05 0.000300692 0)
(-3.19856e-06 0.000126742 0)
(-9.50582e-08 2.01925e-07 0)
(7.67319e-06 0.000180772 0)
(-3.32805e-06 2.30468e-05 0)
(8.22017e-06 0.000233222 0)
(1.64818e-07 1.27495e-07 0)
(-4.47351e-06 2.7835e-05 0)
(9.29242e-06 0.000170421 0)
(1.00165e-05 0.000222102 0)
(1.54296e-06 2.0048e-06 0)
(-6.48909e-06 0.0001104 0)
(1.38792e-06 0.000118103 0)
(-1.48261e-05 0.000321478 0)
(1.38013e-06 0.000189757 0)
(1.47155e-06 0.000242825 0)
(-1.1099e-06 7.79606e-05 0)
(-8.72882e-07 4.43743e-05 0)
(-9.97174e-07 6.01852e-05 0)
(2.20759e-06 0.00012042 0)
(-3.02247e-07 1.14092e-06 0)
(-2.66805e-07 3.89909e-06 0)
(6.66918e-07 0.000283586 0)
(1.45835e-05 0.000129554 0)
(-1.36447e-05 0.000107734 0)
(-1.0401e-05 0.000359927 0)
(-2.36243e-05 0.000234659 0)
(-2.20746e-05 0.000182152 0)
(-2.29192e-05 0.000207961 0)
(-2.10869e-05 0.00015739 0)
(1.14792e-05 3.48471e-05 0)
(1.3371e-05 4.91707e-05 0)
(1.51168e-05 6.55715e-05 0)
(1.67191e-05 8.38843e-05 0)
(2.36085e-05 0.000234656 0)
(2.2903e-05 0.000207961 0)
(-1.14884e-05 3.48476e-05 0)
(-1.33808e-05 4.91719e-05 0)
(2.20572e-05 0.000182152 0)
(-1.51282e-05 6.55725e-05 0)
(2.10718e-05 0.00015739 0)
(-1.67317e-05 8.38852e-05 0)
(-6.61508e-06 1.91954e-05 0)
(-3.65013e-06 0.000294302 0)
(-2.59852e-06 0.00029402 0)
(-3.2377e-06 0.000333528 0)
(5.40583e-06 0.000201423 0)
(-2.85146e-06 3.79031e-05 0)
(-1.01471e-06 1.48426e-06 0)
(-4.19365e-06 0.000352591 0)
(-4.5791e-06 7.50955e-05 0)
(-5.61167e-06 7.48109e-05 0)
(-4.1007e-06 5.76156e-05 0)
(-5.02372e-06 5.73624e-05 0)
(6.84904e-06 0.000247428 0)
(8.22398e-06 0.000247544 0)
(1.80579e-05 0.000243213 0)
(1.69473e-05 0.000190148 0)
(-9.70511e-06 4.42995e-05 0)
(-1.10671e-05 6.00709e-05 0)
(-1.23196e-05 7.78059e-05 0)
(-1.08953e-05 0.000160367 0)
(-1.18193e-05 0.000211231 0)
(5.75295e-06 3.29731e-05 0)
(-3.41491e-06 0.000143507 0)
(2.91101e-06 9.50778e-05 0)
(3.57416e-06 0.000254475 0)
(-2.05894e-06 5.31016e-05 0)
(-2.31368e-06 7.00491e-05 0)
(-2.50986e-06 8.86772e-05 0)
(6.72293e-06 9.39372e-05 0)
(5.69839e-06 9.41789e-05 0)
(-7.89534e-06 0.000144832 0)
(-6.68343e-06 0.000144532 0)
(-7.96385e-06 0.000349939 0)
(5.27266e-07 1.42482e-06 0)
(1.32832e-05 0.000301022 0)
(4.77221e-06 0.000104422 0)
(1.30135e-05 0.000207739 0)
(-6.53e-06 3.47291e-05 0)
(1.19701e-05 0.000157152 0)
(-1.10991e-05 0.000125377 0)
(2.67605e-06 2.62502e-05 0)
(-6.20579e-06 0.00022559 0)
(-5.77008e-06 0.000173658 0)
(7.82043e-07 0.000108681 0)
(-9.50206e-07 0.000178724 0)
(-1.01234e-06 0.000231057 0)
(4.11923e-07 2.39064e-05 0)
(7.48569e-06 9.83558e-05 0)
(-8.53587e-06 0.000139713 0)
(-4.08714e-06 0.000312556 0)
(-1.89781e-05 0.000309553 0)
(3.39746e-06 0.00013323 0)
(8.51418e-06 0.000133653 0)
(-6.81487e-06 2.55084e-05 0)
(1.60055e-05 0.000227632 0)
(1.48957e-05 0.000175575 0)
(-7.49562e-07 3.16046e-06 0)
(-2.55665e-06 0.000260588 0)
(1.42406e-06 4.97318e-05 0)
(1.60848e-06 6.62583e-05 0)
(1.76511e-06 8.46525e-05 0)
(-3.90465e-06 0.000126119 0)
(-1.75904e-05 0.000309657 0)
(-5.01616e-06 4.97927e-05 0)
(-5.66545e-06 6.63203e-05 0)
(-6.23986e-06 8.47546e-05 0)
(8.98541e-06 0.000260497 0)
(1.59534e-08 2.05461e-08 0)
(1.10135e-05 0.000124365 0)
(1.4202e-07 9.58037e-06 0)
(-5.12276e-07 8.84234e-07 0)
(-1.06607e-06 4.09392e-06 0)
(-5.1358e-06 1.76433e-05 0)
(-5.22524e-07 1.91818e-07 0)
(2.16411e-06 5.62588e-05 0)
(1.89442e-06 4.09049e-05 0)
(2.42093e-06 7.35841e-05 0)
(-3.67019e-06 0.000249239 0)
(-3.47274e-06 0.000195839 0)
(-1.06687e-05 0.00010304 0)
(1.16037e-05 0.000134463 0)
(-1.03637e-06 6.06428e-07 0)
(1.4122e-05 0.000331564 0)
(1.01898e-05 0.000296467 0)
(-2.16632e-05 0.00027896 0)
(8.01873e-06 0.000132613 0)
(2.89992e-06 0.000144119 0)
(-5.44364e-06 0.000352431 0)
(-1.51455e-05 0.000151043 0)
(-1.44056e-05 0.000150372 0)
(2.14149e-05 0.000352326 0)
(-1.70031e-06 0.000314123 0)
(-4.7735e-06 9.46915e-05 0)
(5.77313e-06 0.00014409 0)
(1.75543e-07 9.9179e-06 0)
(2.60208e-06 3.49122e-06 0)
(5.19539e-07 1.90732e-07 0)
(5.10665e-06 0.000153591 0)
(1.88753e-05 0.000359588 0)
(-1.03246e-05 0.000249282 0)
(-9.71016e-06 0.000195834 0)
(5.31455e-06 4.09556e-05 0)
(6.83107e-06 7.36025e-05 0)
(6.10646e-06 5.62827e-05 0)
(-1.90369e-07 1.32225e-07 0)
(-7.62772e-07 0.000327019 0)
(9.65323e-06 0.00013405 0)
(-8.75116e-06 0.000103567 0)
(-1.54754e-05 0.000319052 0)
(-2.31076e-05 0.000235868 0)
(-2.24229e-05 0.000209128 0)
(-2.16064e-05 0.000183279 0)
(-2.06468e-05 0.000158467 0)
(1.11285e-05 3.42462e-05 0)
(1.29835e-05 4.84746e-05 0)
(1.46956e-05 6.4787e-05 0)
(1.62674e-05 8.30187e-05 0)
(2.30898e-05 0.000235859 0)
(2.24068e-05 0.000209128 0)
(-1.11371e-05 3.42489e-05 0)
(-1.2992e-05 4.84776e-05 0)
(2.15862e-05 0.000183275 0)
(-1.47054e-05 6.47901e-05 0)
(2.06298e-05 0.000158462 0)
(-1.62783e-05 8.3022e-05 0)
(-3.31071e-06 4.41672e-06 0)
(1.30149e-06 1.21263e-06 0)
(-1.74193e-06 3.16471e-06 0)
(8.59475e-06 0.000131511 0)
(-9.41524e-06 0.000135443 0)
(1.66174e-06 1.98335e-06 0)
(-2.56743e-07 4.28758e-08 0)
(-2.08312e-05 0.000279636 0)
(1.19444e-05 0.000355947 0)
(1.34031e-05 0.000356622 0)
(2.56516e-07 4.28386e-08 0)
(3.74691e-06 4.95879e-06 0)
(1.86998e-05 0.000323895 0)
(-7.07912e-06 0.000149835 0)
(-4.55508e-07 3.95257e-07 0)
(-1.0324e-06 1.58909e-06 0)
(-1.60967e-07 4.11173e-08 0)
(3.02149e-07 2.32737e-07 0)
(1.92634e-05 0.000119244 0)
(-1.92007e-05 0.000117855 0)
(5.90269e-06 8.97556e-05 0)
(-7.25543e-06 0.000147077 0)
(6.12965e-06 9.20754e-05 0)
(-3.10552e-07 5.28689e-06 0)
(-4.47308e-06 0.000235818 0)
(3.54559e-06 0.000112461 0)
(-2.49202e-06 0.000233244 0)
(-2.38181e-06 0.000180655 0)
(1.02324e-06 2.30585e-05 0)
(1.95241e-06 0.000110408 0)
(-7.89628e-06 0.000149066 0)
(3.99352e-06 5.25493e-06 0)
(6.61114e-06 9.04377e-05 0)
(2.46884e-06 0.000133435 0)
(1.87926e-05 0.000334537 0)
(-5.69712e-06 0.000134543 0)
(-6.55195e-06 0.000135463 0)
(-5.25037e-06 1.11593e-05 0)
(-6.35457e-06 0.000139793 0)
(-5.43292e-06 0.000138818 0)
(5.66123e-06 9.81929e-05 0)
(4.97427e-06 9.9167e-05 0)
(-5.90861e-06 2.72487e-05 0)
(1.24345e-05 0.00017175 0)
(1.33922e-05 0.000223526 0)
(-1.61969e-06 1.78935e-06 0)
(-7.91064e-06 0.000147863 0)
(6.65766e-06 9.14531e-05 0)
(-5.04461e-06 0.000190551 0)
(-5.37343e-06 0.000243668 0)
(2.86493e-06 4.38884e-05 0)
(3.64089e-06 7.73448e-05 0)
(3.26901e-06 5.96335e-05 0)
(-2.59115e-06 1.2055e-05 0)
(-1.65586e-05 0.000201016 0)
(-1.56907e-05 0.000200377 0)
(8.69785e-06 3.82699e-05 0)
(8.27447e-06 3.86035e-05 0)
(1.09186e-05 0.00015933 0)
(1.2003e-05 0.00015854 0)
(-5.83846e-06 3.35267e-05 0)
(-6.46555e-06 3.39729e-05 0)
(1.18531e-05 0.000210107 0)
(1.30371e-05 0.000209247 0)
(-4.75628e-06 0.000311405 0)
(9.52664e-06 0.000284238 0)
(9.6636e-06 0.000282905 0)
(-7.00393e-06 9.20839e-05 0)
(8.26314e-06 0.00014704 0)
(-2.49516e-05 0.000347126 0)
(-7.17649e-06 0.00027663 0)
(-6.89156e-06 0.000275327 0)
(2.37204e-06 1.75437e-05 0)
(2.4375e-06 1.70952e-05 0)
(2.15598e-05 0.000279723 0)
(-9.49488e-06 0.000118332 0)
(-8.15026e-06 0.000118373 0)
(2.1331e-05 0.000316013 0)
(-2.15505e-05 0.000333214 0)
(-2.15226e-05 0.000334808 0)