/*--------------------------------*- C++ -*----------------------------------*\
| =========                 |                                                 |
| \\      /  F ield         | OpenFOAM: The Open Source CFD Toolbox           |
|  \\    /   O peration     | Version:  2.3.1                                 |
|   \\  /    A nd           | Web:      www.OpenFOAM.org                      |
|    \\/     M anipulation  |                                                 |
\*---------------------------------------------------------------------------*/
FoamFile
{
    version     2.0;
    format      ascii;
    class       volScalarField;
    location    "0.06";
    object      epsilon;
}
// * * * * * * * * * * * * * * * * * * * * * * * * * * * * * * * * * * * * * //

dimensions      [0 2 -3 0 0 0 0];

internalField   nonuniform List<scalar> 
15166
(
965.723
845.01
793.503
807.757
814.832
811.591
768.551
687.659
601.854
508.93
420.757
350.343
970.268
737.86
733.208
756.056
765.964
760.77
717.301
642.97
561.939
476.399
395.609
325.764
985.655
654.079
676.732
706.554
719.743
713.728
671.477
602.835
526.768
447.611
372.638
305.167
1004.7
590.593
626.763
661.011
676.693
670.41
630.178
566.653
495.46
421.854
351.535
285.698
1025.43
542.368
583.373
620.024
637.255
630.879
592.918
533.991
467.395
398.675
332.368
269.175
1047.72
504.972
545.454
583.181
601.255
594.898
559.22
504.426
442.101
377.684
314.873
253.943
1071.52
475.483
512.052
549.919
568.331
562.077
528.617
477.575
419.164
358.562
298.748
239.355
1096.42
452.019
482.5
519.789
538.159
532.072
500.721
453.087
398.26
341.07
283.979
226.726
1122.21
433.275
456.28
492.431
510.467
504.58
475.203
430.663
379.121
325.013
270.417
215.176
1148.61
418.284
432.94
467.522
485.008
479.331
451.789
410.074
361.528
310.223
257.976
205.004
1175.37
406.322
412.099
444.775
461.557
456.09
430.24
391.1
345.304
296.566
246.531
195.724
1202.42
396.828
393.43
423.945
439.914
434.647
410.351
373.563
330.29
283.928
236.068
187.828
1229.58
389.372
376.661
404.816
419.894
414.81
391.944
357.308
316.359
272.212
226.476
180.847
1256.74
383.607
361.563
387.205
401.34
396.425
374.865
342.206
303.397
261.31
217.518
173.465
1283.75
379.258
347.937
370.956
384.113
379.341
358.982
328.134
291.312
251.163
209.257
167.318
1310.59
376.1
335.615
355.931
368.086
363.44
344.184
315.005
280.015
241.681
201.583
161.575
1337.12
373.95
324.451
342.01
353.152
348.608
330.363
302.719
269.436
232.814
194.425
156.13
1363.38
372.653
314.321
329.089
339.21
334.745
317.427
291.211
259.516
224.504
187.729
151.02
1389.24
372.078
305.114
317.075
326.175
321.769
305.306
280.4
250.193
216.698
181.462
146.334
1414.58
372.124
296.737
305.888
313.967
309.601
293.921
270.235
241.414
209.359
175.583
141.937
1439.35
372.692
289.105
295.455
302.521
298.172
283.215
260.66
233.141
202.437
170.036
137.634
1463.67
373.714
282.145
285.713
291.77
287.424
273.132
251.63
225.326
195.902
164.784
133.528
1487.46
375.109
275.792
276.603
281.662
277.299
263.62
243.097
217.939
189.719
159.789
129.45
1510.52
376.839
269.99
268.077
272.147
267.749
254.635
235.024
210.944
183.862
155.041
125.624
1533
378.859
264.688
260.088
263.179
258.731
246.139
227.383
204.313
178.3
150.518
121.942
1554.71
381.101
259.841
252.595
254.718
250.207
238.096
220.135
198.018
173.017
146.211
118.503
1575.78
383.548
255.408
245.56
246.726
242.137
230.471
213.255
192.035
167.986
142.109
115.216
1596.2
386.162
251.352
238.951
239.171
234.492
223.233
206.718
186.343
163.195
138.198
112.153
1615.84
388.933
247.645
232.734
232.022
227.241
216.361
200.498
180.921
158.627
134.479
109.309
1634.84
391.853
244.252
226.884
225.251
220.357
209.825
194.577
175.753
154.271
130.923
106.488
1653.09
394.845
241.15
221.375
218.833
213.815
203.605
188.933
170.82
150.107
127.535
103.874
1670.44
397.941
238.313
216.183
212.745
207.594
197.679
183.551
166.109
146.127
124.289
101.302
1686.9
401.116
235.727
211.287
206.965
201.672
192.031
178.41
161.606
142.32
121.188
98.9304
1702.95
404.333
233.366
206.668
201.474
196.031
186.641
173.499
157.298
138.676
118.22
96.5962
1717.91
407.595
231.219
202.307
196.255
190.654
181.494
168.803
153.176
135.185
115.378
94.428
1732.11
410.906
229.265
198.19
191.29
185.524
176.575
164.309
149.226
131.837
112.65
92.2586
1745.72
414.247
227.496
194.298
186.565
180.626
171.872
160.006
145.439
128.623
110.028
90.1953
1758.37
417.61
225.895
190.62
182.064
175.947
167.37
155.882
141.805
125.539
107.516
88.3098
1770.35
420.997
224.451
187.142
177.776
171.477
163.059
151.926
138.316
122.577
105.104
86.4585
1781.5
424.498
223.157
183.852
173.688
167.199
158.929
148.133
134.966
119.731
102.797
84.7646
1791.59
428.023
222
180.742
169.791
163.108
154.97
144.489
131.746
116.992
100.566
82.9625
1800.97
431.682
220.982
177.8
166.072
159.19
151.173
140.991
128.649
114.357
98.4056
81.121
1809.35
435.373
220.084
175.017
162.524
155.438
147.528
137.626
125.669
111.818
96.3257
79.5049
1817.06
439.182
219.315
172.386
159.136
151.842
144.028
134.393
122.801
109.371
94.3166
77.867
1823.99
442.958
218.699
169.9
155.9
148.395
140.666
131.281
120.038
107.012
92.3809
76.3912
1830.05
446.586
218.232
167.557
152.809
145.087
137.433
128.286
117.374
104.736
90.508
74.8372
1835.29
450.32
217.906
165.351
149.856
141.914
134.325
125.4
114.807
102.539
88.7048
73.4857
1839.93
453.887
217.687
163.282
147.034
138.868
131.334
122.62
112.33
100.419
86.9595
72.0776
1843.77
457.397
217.543
161.353
144.336
135.943
128.457
119.94
109.939
98.3694
85.277
70.8085
1846.84
460.861
217.526
159.544
141.765
133.137
125.686
117.357
107.632
96.3887
83.6477
69.4782
1849.15
464.182
217.594
157.848
139.311
130.444
123.019
114.864
105.402
94.4759
82.0766
68.3088
1850.8
467.593
217.744
156.266
136.973
127.857
120.449
112.459
103.249
92.6261
80.5596
67.1668
1851.78
470.831
217.967
154.782
134.742
125.372
117.971
110.136
101.166
90.8346
79.0836
65.9222
1851.97
474.061
218.262
153.404
132.616
122.983
115.583
107.892
99.1504
89.0993
77.6537
64.8061
1851.63
477.245
218.625
152.12
130.589
120.689
113.279
105.722
97.199
87.4172
76.2672
63.7319
1850.71
480.385
219.052
150.927
128.656
118.485
111.058
103.625
95.3094
85.7873
74.9286
62.7659
1848.99
483.353
219.537
149.821
126.816
116.366
108.914
101.597
93.4799
84.2061
73.6295
61.7613
1846.72
486.421
220.083
148.805
125.064
114.331
106.848
99.6364
91.7071
82.6736
72.3737
60.8647
1843.91
489.31
220.688
147.869
123.398
112.377
104.853
97.7391
89.9892
81.1866
71.145
59.7744
1840.31
492.169
221.32
147.002
121.81
110.499
102.929
95.9042
88.325
79.7442
69.9521
58.8344
1836.25
494.906
222.035
146.219
120.303
108.696
101.071
94.128
86.7108
78.3436
68.7966
57.9819
1831.67
497.705
222.8
145.508
118.873
106.966
99.2791
92.4097
85.1461
76.9833
67.6788
57.1936
1826.48
500.341
223.614
144.867
117.513
105.304
97.5501
90.7461
83.6289
75.6639
66.5926
56.3616
1820.65
502.948
224.448
144.301
116.226
103.71
95.8815
89.1362
82.1568
74.382
65.5407
55.5978
1814.31
505.423
225.361
143.794
115.008
102.18
94.2721
87.5782
80.7297
73.1374
64.5168
54.7846
1807.32
507.893
226.292
143.351
113.859
100.714
92.7198
86.0694
79.345
71.9296
63.5218
54.0396
1800.23
510.358
227.275
142.98
112.772
99.3094
91.2223
84.6101
78.0022
70.7554
62.5517
53.2511
1791.89
512.674
228.292
142.663
111.748
97.9639
89.7778
83.197
76.6988
69.6145
61.6097
52.5504
1783.56
514.952
229.363
142.408
110.789
96.6769
88.3859
81.8294
75.4355
68.506
60.6928
51.8397
1774.92
517.143
230.477
142.216
109.886
95.4442
87.0443
80.5054
74.2085
67.4286
59.8035
51.1932
1765.37
519.362
231.62
142.088
109.045
94.2663
85.7509
79.225
73.0188
66.3824
58.9373
50.5113
1755.42
521.279
232.818
142.012
108.259
93.1434
84.5049
77.9854
71.8642
65.3654
58.0958
49.8999
1744.96
523.399
234.016
141.979
107.528
92.0715
83.3065
76.7863
70.7435
64.3773
57.2803
49.3013
1734.06
525.278
235.339
142.032
106.862
91.0535
82.1548
75.6277
69.6577
63.4172
56.486
48.6893
1722.66
527.089
236.623
142.123
106.239
90.0827
81.0448
74.5066
68.603
62.483
55.7117
48.1123
1711.27
529.011
237.975
142.277
105.676
89.1598
79.9792
73.4226
67.5803
61.5757
54.957
47.4949
1698.97
530.705
239.349
142.481
105.169
88.2875
78.9562
72.3767
66.5899
60.6937
54.2215
46.9329
1685.89
532.196
240.749
142.746
104.711
87.4632
77.9751
71.3653
65.6289
59.8372
53.505
46.3543
1672.83
533.841
242.214
143.063
104.308
86.6841
77.0347
70.3899
64.6987
59.0047
52.8082
45.8274
1659.59
535.328
243.704
143.442
103.954
85.9519
76.1347
69.4487
63.7972
58.1969
52.1273
45.2579
1645.42
536.718
245.26
143.872
103.655
85.2665
75.2745
68.5418
62.9234
57.4117
51.4657
44.7441
1631.01
538.053
246.808
144.368
103.412
84.6282
74.4521
67.6681
62.0778
56.6481
50.8224
44.2751
1616.19
539.274
248.386
144.91
103.215
84.0314
73.6703
66.8276
61.2602
55.9071
50.1973
43.7982
1600.92
540.424
250.027
145.506
103.074
83.4816
72.9272
66.0204
60.47
55.1892
49.5877
43.287
1585.25
541.516
251.7
146.16
102.988
82.9761
72.2207
65.245
59.7061
54.4919
48.9952
42.8285
1569.58
542.544
253.416
146.895
102.948
82.5145
71.5533
64.4995
58.9687
53.817
48.4181
42.3452
1553.1
543.429
255.163
147.678
102.965
82.1016
70.9227
63.7874
58.2567
53.1615
47.8566
41.9272
1536.28
544.218
256.94
148.507
103.045
81.7324
70.3319
63.1063
57.57
52.5273
47.3108
41.4716
1519.06
544.909
258.75
149.405
103.17
81.4111
69.7791
62.4569
56.9099
51.9136
46.7793
41.0242
1501.45
545.521
260.642
150.382
103.359
81.137
69.2633
61.8387
56.2762
51.3209
46.2598
40.538
1483.47
546.017
262.511
151.399
103.598
80.9039
68.7853
61.2503
55.6657
50.7458
45.7572
40.1953
1465.1
546.394
264.413
152.501
103.904
80.7241
68.3452
60.6935
55.082
50.1935
45.2743
39.8066
1446.79
546.803
266.396
153.666
104.267
80.5914
67.9445
60.1694
54.5237
49.6599
44.8082
39.4635
1427.34
546.905
268.396
154.895
104.692
80.5135
67.5843
59.6771
53.991
49.1472
44.3581
39.1084
1408.3
547.053
270.422
156.191
105.187
80.4786
67.2655
59.2177
53.4834
48.6547
43.9254
38.7856
1388.55
546.999
272.464
157.55
105.735
80.5015
66.9869
58.79
53.0026
48.1843
43.5083
38.4316
1368.45
546.933
274.584
159.003
106.359
80.5767
66.7511
58.3967
52.5484
47.7337
43.107
38.1272
1347.97
546.605
276.718
160.524
107.052
80.7117
66.56
58.0356
52.1207
47.3036
42.7209
37.8027
1327.56
546.377
278.878
162.118
107.825
80.8983
66.4125
57.7104
51.7197
46.8955
42.3529
37.5185
1306.45
545.824
281.099
163.81
108.671
81.1541
66.3113
57.4232
51.3485
46.5101
42.0004
37.1987
1284.98
545.217
283.331
165.574
109.591
81.4646
66.2595
57.1715
51.0048
46.1466
41.6632
36.9258
1263.16
544.457
285.579
167.441
110.603
81.8449
66.2562
56.9564
50.6899
45.804
41.3451
36.6826
1241.03
543.525
287.894
169.385
111.696
82.2917
66.3073
56.7833
50.4069
45.4872
41.046
36.4222
1218.58
542.51
290.214
171.409
112.886
82.8148
66.4116
56.6509
50.1564
45.195
40.7643
36.1663
1196.16
541.422
292.597
173.544
114.165
83.4167
66.572
56.5625
49.9378
44.9267
40.5011
35.9608
1173.09
540.11
294.983
175.792
115.552
84.0952
66.7948
56.5183
49.7532
44.6862
40.2599
35.7501
1150.04
538.718
297.429
178.126
117.036
84.8544
67.0833
56.5235
49.6051
44.4713
40.0387
35.5839
1126.38
537.066
299.867
180.552
118.635
85.7083
67.4381
56.5806
49.4962
44.2869
39.842
35.4323
1102
535.202
302.355
183.132
120.347
86.6613
67.8678
56.6902
49.4272
44.1336
39.6679
35.2795
1077.95
533.369
304.903
185.783
122.189
87.7129
68.3764
56.8564
49.4016
44.012
39.519
35.1581
1053.33
531.291
307.448
188.599
124.171
88.8784
68.966
57.0886
49.4231
43.9258
39.3952
35.0304
1028.36
528.989
310.038
191.524
126.283
90.1567
69.6469
57.3854
49.493
43.8769
39.3001
34.9475
1003.43
526.624
312.628
194.588
128.552
91.5741
70.423
57.7552
49.6176
43.8684
39.2389
34.8873
977.917
523.998
315.259
197.774
130.984
93.1223
71.3111
58.2018
49.8003
43.9033
39.2067
34.8085
952.059
521.139
317.978
201.151
133.594
94.8219
72.3097
58.737
50.0456
43.9832
39.2065
34.7889
925.928
518.169
320.634
204.653
136.373
96.6741
73.4337
59.3622
50.3575
44.1136
39.2461
34.7865
899.471
514.965
323.383
208.33
139.355
98.7145
74.6914
60.0902
50.7455
44.3009
39.3258
34.8329
873.021
511.653
326.132
212.157
142.552
100.937
76.1078
60.933
51.22
44.5497
39.453
34.9069
846.318
508.058
328.957
216.21
145.986
103.372
77.6854
61.898
51.7848
44.8691
39.6348
35.0413
818.803
504.146
331.752
220.43
149.67
106.04
79.4558
63.0084
52.4517
45.264
39.8764
35.2111
791.158
500.115
334.593
224.892
153.611
108.961
81.4254
64.2737
53.2366
45.742
40.1741
35.3886
763.527
495.878
337.48
229.553
157.868
112.165
83.6257
65.7102
54.1504
46.3151
40.5413
35.6535
735.678
491.374
340.404
234.463
162.451
115.683
86.0862
67.3509
55.2135
47.0002
40.9971
35.9792
707.066
486.573
343.357
239.668
167.378
119.55
88.8473
69.2146
56.4446
47.8096
41.5384
36.3822
678.519
481.585
346.374
245.137
172.723
123.813
91.9323
71.3415
57.8697
48.7593
42.1887
36.8554
649.796
476.319
349.453
250.937
178.498
128.521
95.3993
73.7617
59.5176
49.8721
42.9547
37.4267
620.358
470.769
352.611
257.133
184.807
133.744
99.3156
76.5372
61.4285
51.1793
43.8677
38.1085
590.929
464.993
355.907
263.742
191.701
139.563
103.738
79.7198
63.6481
52.717
44.9477
38.9012
561.106
458.987
359.392
270.902
199.292
146.082
108.776
83.3837
66.2306
54.5198
46.221
39.8299
531.056
452.787
363.197
278.719
207.718
153.447
114.526
87.6171
69.2459
56.6345
47.7166
40.9309
500.52
446.528
367.495
287.448
217.205
161.811
121.153
92.537
72.7747
59.1248
49.4897
42.2317
469.623
440.545
372.769
297.474
228.071
171.447
128.84
98.289
76.9147
62.0594
51.5764
43.7641
438.016
435.722
379.861
309.452
240.735
182.638
137.781
105.016
81.7955
65.522
54.0376
45.5335
405.598
435.58
391.289
324.887
256.012
195.903
148.356
112.993
87.5937
69.6461
56.9477
47.5954
368.491
440.709
404.989
342.694
272.555
210.182
159.808
121.867
94.0606
74.3087
60.2552
49.998
149.966
0.00107165
2.16754
1.6428
1.63354
16.7403
16.2882
97.1309
21.9077
10.6019
2.87095
0.00186171
0.0107604
332.274
7.92411
0.000826337
270.145
0.0810751
0.0773876
0.000812356
2.84481
7.6679
0.10384
0.0101407
155.116
2.1604
4.85498
7.86012
6.54124
24.9423
5.61404
385.515
0.000963701
2.79825
0.0101821
2.16231
108.996
4.86456
39.9161
0.00199501
0.170381
0.000782749
0.0659355
8.62401
52.2991
7.24161
0.0252925
0.00659225
52.5773
2.8378
2.14974
93.5069
44.9059
0.000750172
110.111
0.00100713
0.00219765
0.000782504
4.88091
7.30301
4.08217
399.884
0.000748519
0.00447704
0.362348
0.00102458
34.4134
43.6096
361.725
7.22431
92.5822
0.0218241
37.9427
19.8527
0.0104211
0.000769178
19.6261
0.000744799
0.0335299
22.3176
0.0826951
0.000745119
102.252
48.2285
0.00412689
32.8671
34.2627
0.000745601
1.77941
54.0607
26.4515
11.3688
0.000746091
0.000892409
89.0096
0.000769316
7.28566
0.00353097
0.000745425
35.7477
84.4398
0.654138
0.000781448
0.000979266
0.000744718
104.893
63.3946
131.892
7.92424
0.000791524
0.560644
0.000744974
11.1706
0.000864076
0.000744978
13.661
0.00612817
0.5651
32.8353
0.221941
65.6942
0.0097837
92.571
0.536746
0.132582
23.2017
0.000916752
1364.23
0.00849806
0.000746504
177.809
0.000758873
164.554
0.000986792
5.06162
0.00116234
57.2942
4.92943
11.3766
0.00127487
0.0048638
3.83414
35.0342
0.0703059
56.5195
101.667
37.4733
0.0010471
30.4893
45.1666
0.537182
13.0945
0.000745607
0.114379
0.361734
0.000746873
16.5761
0.000752435
42.2438
0.00171028
0.00904581
0.000833757
0.126918
0.00382785
2.84407
0.122296
317.76
61.1119
39.9043
0.000744774
107.07
23.3117
111.001
0.00526937
0.000744865
7.4073
0.000744735
47.6527
0.593136
16.381
334.092
1.29473
0.0376937
45.8539
0.000793073
18.0002
0.000755083
0.000744846
57.2552
0.0007451
3.33579
0.000746425
222.571
0.00114952
21.0444
27.5249
14.9261
6.29557
0.000745031
223.003
30.9503
42.4232
88.9752
12.3714
36.0142
0.0592529
0.0745192
0.496617
18.3205
0.51143
265.269
25.8371
62.5631
65.7697
0.000744695
32.283
0.00380017
4.09187
231.503
45.5591
47.8791
31.0663
52.8522
0.000749274
0.000750949
24.1457
32.9267
0.000763463
955.381
0.0083424
176.874
0.124051
0.000745732
42.2482
3.70742
28.0777
15.8585
34.2246
13.7107
27.3803
0.184059
0.172316
15.7366
44.3423
122.701
245.698
152.015
0.000809915
21.2585
35.45
6.58614
19.8748
1.89216
2980.95
47.4852
0.614297
1.2123
25.2861
5.47372
52.1936
0.509408
30.0044
0.00403943
0.0726015
561.532
31.6721
29.9894
60.0984
2.60887
166.398
5.53408
0.0194293
94.5502
153.762
150.73
101.138
61.64
143.805
60.0703
55.1268
203.992
60.5088
49.5679
36.3324
11.206
15.0191
4.74205
140.07
45.6843
2.62079
54.5788
90.0031
145.635
145.986
39.4746
214.632
0.645082
137.281
0.0298751
89.1278
8.84367
0.257411
310.338
106.967
0.330224
25.3836
64.6022
0.00074518
0.305033
0.218296
0.262106
70.311
0.000747853
52.7843
42.8113
0.0469788
131.569
21.9077
0.000744722
350.319
0.0116194
5.47783
3.92209
7641.19
76.7156
21.6985
7.65744
0.000745339
0.000754254
69.2533
4.89864
0.000745129
4.05469
0.000745775
0.000753947
0.000763624
0.00074472
0.0932551
0.000745466
0.00147198
67.4972
62.8761
0.000755496
25.9643
0.00206147
117.42
148.752
42.9949
666.188
5.83678
0.000744686
0.000764849
0.0409751
0.589677
119.491
0.000744899
0.0779685
54.0904
25.6259
1.8654
49.7134
54.7015
37.0039
602.803
2.65689
1.65356
0.000852666
0.000745043
0.361703
3.28708
0.0881759
51.0426
76.8004
4791.07
91.8169
3.56372
32.1012
32.9648
0.000752223
3.23907
21.6515
0.00125665
0.000749727
66.2156
2809.16
102.354
0.000745248
0.0229536
4.91325
0.00694562
0.000759939
28.2092
2.41334
43.5047
39.2233
0.000875227
549.958
0.000746592
0.559803
7.84591
0.00145398
0.00305734
44.1479
0.00209476
21.49
279.14
43.8386
11.3646
67.9495
129.153
0.000745126
0.000745353
0.000745324
39.5291
0.0366715
350.386
4240.76
6.24993
75.2378
0.000755491
0.000778308
30.8531
0.00074488
0.000748629
115.876
0.000744957
0.570935
27.3513
53.9965
0.000744702
0.00178287
0.105994
0.0908242
20.2406
0.142574
0.000744793
494.725
28.8271
0.958811
0.00318234
65.2248
126.602
0.00156029
23.9237
0.00148857
30.5573
0.000821386
16.7954
1.00825
0.000744852
34.3721
20.4286
173.091
0.00243044
3.61347
3.78869
0.00124248
149.439
82.8765
0.907773
247.24
0.00738342
0.0191754
0.00274921
63.2393
14.8626
0.150724
3.07048
5.01409
173.546
0.301708
117.373
1047.01
0.000744786
105.138
28.516
14.6826
0.000744962
47.0654
46.0633
0.00123244
111.008
44.0814
0.794363
0.135319
52.043
129.283
0.000838024
0.00554068
28.8274
0.0146498
0.00109098
259.534
659.967
0.0144953
47.2114
26.608
0.125135
59.1552
56.5052
27.1993
25.7686
53.9262
0.000768619
0.121298
78.8841
23.9444
62.1479
47.4321
44.923
196.861
607.711
35.3682
0.861844
0.000745167
156.975
131.49
23.5433
3.75249
0.852579
0.055796
4.06948
0.000756014
37.1743
0.000745
74.82
3.89949
157.65
51.1967
35.0749
154.156
62.4464
13.6827
114.531
0.000759913
0.195054
29.3043
1074.6
10.2287
9.54338
0.000835034
0.00924231
2.11183
55.9411
7.19654
0.00074493
0.0280702
0.000744718
0.0236684
42.5264
0.0133501
32.1835
3.43786
100.867
0.154061
0.307495
332.287
626.395
0.000745601
0.000745767
6.21822
118.359
43.5555
4.93473
1.30546
14.3768
46.6724
0.000744701
0.372661
28.0387
0.0011301
41.2657
29.8027
48.6232
43.2665
0.00264507
0.000744711
0.00710736
0.000746108
11.9655
7.97733
156.2
9.43534
0.000753654
73.9883
0.0541041
145.252
2.03609
105.625
0.000745703
0.186048
0.000745253
51.3982
554.527
42.9056
1.58759
0.000744683
53.1526
22.3098
68.8024
0.00074811
0.549081
29.4617
12.0394
0.00133896
1123.29
0.000858357
25.9838
12.2639
0.000838172
2.6548
0.0577111
0.3742
0.00074492
0.00074608
35.6284
62.1985
35.4411
75.0899
0.00110797
2.5913
0.0854953
23.0312
14.4992
0.000884985
0.984174
424.659
0.000744799
0.00182845
56.3753
225.502
47.7879
0.00074817
663.794
49.7718
62.4863
0.0073318
3.30613
168.77
0.000751722
158.85
3.10118
23.376
2.76007
19.3969
3.17308
48.4632
52.3306
20.7688
3939.16
0.000759798
0.000745755
75.7487
24.6631
0.00107999
0.000744718
3.37815
0.000747856
27.4667
65.2338
0.400073
0.000747982
18.3101
0.0463031
49.6866
29.2614
54.1231
0.108699
2.60687
63.3446
0.000745559
1.52339
30.4279
48.5203
7.33919
0.00168951
3.90102
0.887786
2677.05
0.000744994
2.83898
16.9352
23.7486
0.000788762
0.0728695
59.7918
90.9395
34.7217
0.0256433
107.047
55.0282
0.237813
41.5014
0.000745127
0.00161776
2.78173
0.000744803
49.0244
0.000745266
160.905
0.00300057
30.6317
0.000758032
1.0979
83.6443
59.477
2.47003
14.4712
0.168571
122.046
0.00468835
0.0660837
7.37706
0.000745019
0.000747424
37.4076
0.173134
123.214
34.7592
0.000781019
127.776
139.27
138.155
2.56726
112.295
151.414
0.000745857
2309.17
3401.55
67.7189
0.000759724
0.00232002
149.369
101.425
0.00074633
43.0717
0.000745091
0.0438413
158.743
0.000817876
21.9991
0.000744722
0.0299977
146.577
0.000762142
0.000932405
0.000745045
0.000891884
0.00769029
623.227
27.1329
0.240786
21.9002
0.000744747
22.7536
0.000745258
11.7371
0.600909
0.0052974
5.81731
0.00301746
34.7945
0.000755812
8263.89
1.3026
13.3529
138.246
6.14832
0.000744783
52.4946
129.673
2.69882
21.5186
30.9936
100.235
30.2707
0.0172331
13.0515
0.0868812
0.000922558
0.18885
3301.69
89.2343
1.14774
0.000745281
48.2882
0.000864349
3.39596
26.4193
125.242
29.9626
32.3794
0.0145525
0.00148621
64.4206
51.1139
0.0241641
83.6702
0.000749273
116.96
113.633
0.000774911
92.7423
25.3966
1.44279
0.0677661
75.7718
0.00867569
0.234204
5.06509
1.00134
0.945349
0.000753067
11.7515
0.0516078
167.34
35.6649
125.927
3.00222
0.00172412
15.6966
0.000744879
0.00074537
14.8959
0.0641589
1.56423
110.245
0.000744707
34.2764
0.0994504
0.024526
0.000807058
83.8627
2.65516
0.300302
19.5339
0.0245037
333.324
4.92292
0.000745055
279.106
147.604
0.00119252
0.00190452
120.617
11.5449
0.353403
268.47
0.0122834
0.64704
0.145449
0.141884
15.0486
135.915
0.000745142
51.8994
50.7372
0.00315964
0.411672
961.682
39.4373
0.000745071
0.00074517
15.9817
46.1172
33.787
0.000744839
16.2046
0.96156
55.1614
0.000891209
172.713
24.2021
0.00117501
40.5461
0.000754556
46.2225
59.9754
58.9801
69.5165
0.000747057
0.000744731
10.8078
53.7406
1.95172
18.5125
0.000744712
0.0220962
0.000760853
0.00140315
17.1486
0.0383361
0.278036
0.933677
50.0979
146.804
32.1101
28.8663
0.000745704
60.4262
18.489
47.6956
0.000745569
19.0521
0.0007557
0.000745067
0.0561453
43.7758
0.00798123
310.113
64.5253
171.527
0.000767836
0.00121999
0.0126133
135.102
1.45479
177.651
0.00074688
0.000748013
0.00150085
0.00197541
76.6343
22.2981
107.921
0.128402
0.015071
1.28613
5.24739
72.2085
20.099
33.2759
24.7423
0.000744843
121.357
0.00128839
0.457903
33.7737
48.2697
0.78058
0.487121
0.000877066
52.9323
2.68864
7.00903
59.4142
0.000746231
84.5659
21.9359
165.136
0.00205523
30.9389
77.8222
30.3842
163.304
30.8743
80.1804
0.110266
696.435
3.62416
0.0701341
150.257
0.000747888
48.3276
198.973
0.000746351
17.0241
0.00110946
132.442
153.625
0.594765
45.6156
126.017
48.1996
17.8065
0.925106
78.0285
12.6091
0.00298628
0.00074623
10.7926
0.0365624
8.48917
73.5826
1.38337
28.6946
135.58
0.000745382
39.8733
509.157
266.994
14.7515
183.222
7.30347
108.709
134.563
0.556012
0.0079471
0.158934
102.55
40.7553
0.0848752
28.5286
30.0511
25.5099
22.0685
0.638215
3.88796
15.6177
0.000745392
130.293
109.923
0.974316
0.0007455
10.9405
5.76427
39.731
0.000753255
151.071
0.000745744
15.8681
0.0740293
0.000751575
17.6446
100
0.00074477
63.0587
53.8126
11.0367
30.2228
73.1624
23.1377
15.9706
76.9348
1.57036
0.00074724
0.00106182
66.0266
7.38903
0.00260151
0.000767816
102.109
0.00132247
1.09616
0.0955801
4.04562
11.3635
0.0314128
0.559413
756.249
93.6328
53.4639
916
30.2832
0.000745047
64.7671
7.13738
99.1447
0.000745181
7.29191
0.000745287
0.000829587
43.2038
1.24366
0.0144339
0.000797417
26.5118
2221.44
0.00167484
0.000747326
2.10109
5.20118
0.00610806
0.037883
2327
0.371189
0.000798524
0.000749232
35.3347
47.2649
0.108446
0.0278517
82.9951
233.842
49.4284
141.797
16.7152
0.000744825
6.57258
0.000745943
172.036
38.3246
1996.58
8.06881
0.0599377
0.000866102
52.4105
0.000745644
0.000745657
0.00128656
18.6407
45.1121
30.7187
0.000745488
6.69177
0.000747244
423.922
30.7483
0.000747384
158.433
6.82236
0.000745757
0.000776193
0.00928792
76.4378
1.93559
0.00861171
0.000748061
0.000747071
156.716
108.691
26.9488
15.6292
0.361423
44.5006
0.000745837
0.00270916
2.42264
220.888
22.4321
0.00203703
0.000745053
62.952
0.000756046
125.036
163.904
2.38594
0.0164404
132.413
6.65116
3.44113
0.000745502
2.67505
44.919
110.053
0.00157309
0.0119785
14.7639
2903.44
0.0225437
1.56393
0.000744766
0.000745688
0.000753549
0.00581183
58.5497
33.9734
0.000757935
118.873
9.30081
440.416
13.9852
0.00576605
0.00177446
0.0184226
2.64109
74.7318
46.3962
0.000753448
45.4249
0.000745445
0.00391575
31.9554
24.8894
0.0106286
1.82041
3.53834
0.000943974
0.642292
1.52618
0.0007448
0.000894911
81.8526
0.000847269
0.000753869
182.901
53.7731
3067.76
11.5761
1038.2
0.000860208
0.000747719
2701.34
39.8575
0.391378
1.61316
0.0237183
43.5258
0.362405
892.071
23.8027
82.1258
146.684
140.091
1.36744
57.8917
116.848
0.00396874
99.112
0.000963568
50.2601
5.41323
0.837718
2.77605
9.4856
1.28685
1.45064
68.5385
49.2382
77.517
57.0778
78.7065
17.5825
1.95303
0.000952695
0.000744862
0.102698
128.366
0.000744711
39.2145
0.000748053
0.00219484
142.192
167.147
22.0655
109.603
864.124
37.6981
7.64416
73.8352
0.000747825
21.6955
38.4857
0.000760075
134.956
0.00181962
761.488
268.699
317.282
34.4547
133.774
1.29385
0.514997
38.5295
47.6968
43.004
6.04479
6.92765
134.003
0.0621145
173.746
312.512
0.0022836
15.7107
0.000745801
0.000905578
28.1274
67.0713
153.686
34.7074
0.230381
0.0825622
0.18661
0.000815388
29.8398
0.000797162
168.221
0.000752809
0.083973
275.519
7.19736
0.968036
147.211
103.909
0.00135636
0.000754969
0.102877
33.1666
0.0698323
131.845
0.0164311
47.1506
1.64557
49.7004
63.0505
0.000830513
0.000744691
61.0797
0.303563
7.23884
29.236
12.9861
17.4109
0.00224216
83.9156
86.4725
142.856
0.000801462
0.411289
32.9791
142.779
0.336549
21.293
0.000759535
4.44712
0.000747482
182.909
0.00281524
45.0037
0.070661
3.62521
0.00076194
1435.73
0.00074558
74.8497
0.0054668
0.0007486
0.00304867
30.7729
0.000744897
0.000745021
3.42243
0.00912283
36.005
0.0278954
0.000784167
49.1025
9.47513
67.7904
0.000775604
152.866
6.30885
393.784
18.4472
50.0106
112.756
129.852
1.4603
267.145
240.708
136.163
0.000753654
2.68011
33.127
40.6189
0.00113871
0.00502599
47.1058
533.591
0.000745097
0.474223
56.7124
0.000744803
31.1371
36.3353
151.884
101.915
27.3916
28.1655
0.129266
108.362
3.36664
34.213
27.3527
80.362
0.439105
0.000744879
58.2183
0.0014544
0.00075131
0.000746247
325.985
0.000744719
0.00090444
7.61712
7358.91
1.11232
1.95145
27.8849
21.3589
0.000750856
70.7612
262.597
0.00834379
6.00007
25.2248
77.2263
0.13985
0.00942694
0.000744993
0.00074636
0.0085888
0.0179477
55.3388
49.0767
42.7455
34.9064
27.9834
0.000915294
147.651
56.5405
0.0007493
30.1634
504.896
0.000760594
2.38766
138.701
21.5435
122.963
0.242448
83.9961
0.000822124
0.310167
0.000774555
0.00157922
0.000748639
31.1054
7.28329
0.0388316
0.0007455
0.000744825
226.837
36.357
0.910589
46.1071
2.12924
49.3175
23.8769
20.5983
55.807
0.000744912
0.174872
0.907743
0.125663
24.3104
40.6795
23.8232
121.235
56.9866
47.5375
188.379
45.9859
81.7599
13.0284
0.0919644
30.1595
50.8969
0.00730441
85.7566
28.2934
4.06498
0.000747769
0.000746355
0.000832368
0.00106305
84.6911
0.000744768
131.658
74.1786
251.845
11.9204
0.000747796
4.72635
38.2174
87.0031
20.175
38.7257
5.18436
0.000767513
0.000746369
0.00201629
0.0667355
0.000746425
113.843
24.1577
0.895374
23.3176
5.89274
66.9672
138.33
0.000744754
25.3939
14.4694
0.000876833
0.0386546
86.7355
156.945
8.34911
6.4806
0.000761092
71.1716
72.9088
0.000878692
0.00608076
0.000745371
72.328
0.00101329
0.323794
60.7946
0.792461
0.041568
9.65256
2756.22
0.000763563
13.2913
0.000744856
14.5363
38.3105
50.5438
6.00829
74.7345
14.8684
65.1778
120.489
21.9314
0.000745045
0.000744757
0.0211642
0.0877134
32.9548
6.45682
0.000756695
88.8119
0.846887
0.00218041
26.4924
0.0228147
0.00179994
0.0128785
40.4032
0.00141817
0.000750913
49.3496
134.223
10.8812
2.07314
82.3403
10.8401
0.000757906
21.8332
0.0622507
0.02955
0.000793875
63.1982
8.24944
7.35631
75.1288
44.6502
34.7596
1.14722
0.000745004
51.8098
0.000754603
128.779
0.0022177
43.0425
0.067957
28.4306
0.00332699
0.00245432
3.74727
1.24916
394.9
0.000862648
0.509737
73.2303
128.314
9.36769
133.916
1.69425
0.000800425
0.000747515
54.9793
10.6239
286.958
0.750294
0.0937389
75.5807
44.4818
29.8619
0.039543
0.0007472
0.000745016
1.51062
705.125
7.15751
53.1991
0.000848933
0.00291768
0.835123
84.1648
51.3925
23.0786
88.6922
33.0259
0.000746276
0.000759437
124.895
130.638
33.4955
332.155
80.1542
0.00822055
71.7912
0.000755568
248.478
0.00668911
0.00779416
0.000746583
0.0138869
0.0843117
28.4892
25.3316
0.000754696
137.699
0.000750285
119.207
76.7361
0.000744729
0.242986
0.00075454
40.6098
0.131058
7.50712
0.000745274
28.6822
150.546
20.4528
18.9004
0.940338
26.164
1.15514
29.4065
62.8467
44.0408
13.9152
0.000886115
0.000756436
49.3153
0.16933
27.6651
0.000745037
65.3499
0.000744698
0.00115853
0.00380509
0.000748598
238.02
47.8526
0.000762179
8.74701
0.828244
0.0660097
15.441
0.00151496
0.000746872
77.1084
3.11966
0.0172265
24.1417
1636.67
53.9013
1.51949
115.554
0.0907475
0.000745111
0.000848805
0.0126672
1.85999
30.9806
78.3351
275.519
27.2803
74.2936
3.89849
1.09793
14.5369
73.6515
80.1994
0.016357
0.0366538
9.10519
37.4478
0.000795448
0.350348
6.70682
156.264
0.000747705
85.0168
0.000744779
0.00359224
152.789
0.000801359
93.3322
910.952
0.00074538
122.068
0.000853334
9.79553
0.00286489
0.000999807
24.3391
39.8543
35.2067
3.02337
40.1752
387.371
128.659
7.69653
17.2126
29.2956
0.000744804
285.245
0.0233652
42.9334
3.53885
3.8656
0.000748596
0.00094739
188.112
59.1608
20.547
25.214
23.9978
0.00421489
0.000745618
0.000758254
1.55719
86.4481
7.01439
0.000748137
866.081
26.3899
0.00444696
0.0562884
8.51317
0.000744708
0.336712
0.000762203
0.000744691
46.8816
13.5438
0.0239216
0.00306882
0.000745141
13.2234
0.543403
26.9372
0.00181744
0.0128347
0.00364427
31.5726
132.53
1.29889
0.00074916
81.8759
0.000776677
0.0175965
0.00221327
0.00113556
72.9261
33.5226
0.000752932
26.2856
0.000749925
0.000745357
0.000857985
27.7366
34.5184
79.3882
75.1602
8.44918
28.8792
0.022254
0.000744786
0.00380977
0.00120751
3.98908
0.000748857
30.5705
4.4031
0.0155803
53.0822
0.28104
9.27574
1.43392
0.00146749
151.384
30.0051
47.9422
0.00389805
0.154921