/*--------------------------------*- C++ -*----------------------------------*\
| =========                 |                                                 |
| \\      /  F ield         | OpenFOAM: The Open Source CFD Toolbox           |
|  \\    /   O peration     | Version:  2.3.1                                 |
|   \\  /    A nd           | Web:      www.OpenFOAM.org                      |
|    \\/     M anipulation  |                                                 |
\*---------------------------------------------------------------------------*/
FoamFile
{
    version     2.0;
    format      ascii;
    class       volScalarField;
    location    "0.06";
    object      k;
}
// * * * * * * * * * * * * * * * * * * * * * * * * * * * * * * * * * * * * * //

dimensions      [0 2 -2 0 0 0 0];

internalField   nonuniform List<scalar> 
15166
(
1.00318
1.12025
1.37871
1.65527
1.86257
2.06781
2.20335
2.26665
2.2679
2.21597
2.11932
2.01124
1.00631
1.08508
1.37094
1.6403
1.84772
2.03829
2.15925
2.21235
2.20657
2.15242
2.05871
1.94274
1.01692
1.04919
1.34972
1.61539
1.82332
2.00258
2.11289
2.1584
2.14809
2.09272
2.00054
1.88218
1.02998
1.0195
1.32462
1.58636
1.7934
1.96326
2.06546
2.10539
2.09219
2.03618
1.94443
1.82191
1.04407
0.99583
1.2991
1.55634
1.76105
1.92259
2.01821
2.05389
2.03882
1.98259
1.89123
1.76832
1.05915
0.976689
1.27393
1.52629
1.72772
1.88176
1.97184
2.0042
1.98792
1.93168
1.84055
1.71652
1.07511
0.961078
1.2495
1.49664
1.69406
1.84134
1.92668
1.95643
1.93934
1.88318
1.79188
1.66504
1.09172
0.948379
1.22614
1.46763
1.66057
1.80169
1.88291
1.91055
1.89295
1.83698
1.7458
1.61948
1.10876
0.938117
1.20404
1.43955
1.62763
1.76307
1.84064
1.86654
1.84864
1.79296
1.70207
1.57617
1.12606
0.929871
1.18326
1.41247
1.59546
1.72563
1.79991
1.82435
1.80628
1.75099
1.66074
1.53672
1.1435
0.923324
1.16379
1.38644
1.56418
1.68943
1.76072
1.78391
1.76578
1.71101
1.62176
1.50046
1.16096
0.918178
1.14556
1.36147
1.53387
1.65451
1.72305
1.74513
1.72703
1.67295
1.58529
1.46864
1.17837
0.914216
1.12854
1.3375
1.50457
1.62085
1.68684
1.70794
1.68995
1.63671
1.55106
1.43935
1.19564
0.911277
1.11263
1.31453
1.47628
1.58843
1.65203
1.67225
1.65444
1.60211
1.51812
1.40697
1.21272
0.909158
1.09777
1.29254
1.44899
1.55721
1.61857
1.63799
1.62041
1.5691
1.48706
1.37974
1.22956
0.907751
1.08386
1.27145
1.42269
1.52716
1.5864
1.60509
1.58777
1.53754
1.45753
1.35345
1.24611
0.906923
1.07083
1.25125
1.39733
1.49822
1.55545
1.57346
1.55644
1.50734
1.42936
1.32801
1.26235
0.906599
1.05862
1.2319
1.37291
1.47035
1.52567
1.54305
1.52637
1.47841
1.40238
1.30336
1.27824
0.906696
1.04716
1.21333
1.34937
1.44349
1.49698
1.51378
1.49746
1.45067
1.37661
1.28047
1.29373
0.907133
1.03639
1.19553
1.32669
1.41761
1.46935
1.4856
1.46965
1.42405
1.35196
1.25858
1.30881
0.907865
1.02626
1.17844
1.30482
1.39265
1.44271
1.45844
1.44288
1.39844
1.32819
1.23655
1.32352
0.90883
1.01669
1.16205
1.28373
1.36856
1.41701
1.43225
1.41708
1.37378
1.30523
1.21515
1.33778
0.909997
1.00767
1.14628
1.26339
1.34532
1.39221
1.40698
1.39221
1.35001
1.28298
1.19396
1.3516
0.911337
0.999133
1.13114
1.24376
1.32288
1.36827
1.38259
1.3682
1.32706
1.26142
1.17345
1.36496
0.912818
0.991046
1.11659
1.22482
1.30121
1.34513
1.35902
1.34502
1.30487
1.24054
1.15374
1.37783
0.914411
0.98337
1.10259
1.20653
1.28026
1.32277
1.33624
1.3226
1.28341
1.22032
1.13478
1.39027
0.916092
0.976073
1.08911
1.18887
1.26001
1.30115
1.31421
1.30092
1.26263
1.20079
1.11677
1.40226
0.91787
0.969139
1.07612
1.17179
1.24041
1.28022
1.29288
1.27993
1.24253
1.18193
1.09991
1.41373
0.919725
0.962522
1.06362
1.15529
1.22145
1.25996
1.27223
1.2596
1.22306
1.16375
1.08364
1.42477
0.921645
0.956213
1.05156
1.13933
1.20309
1.24033
1.25222
1.23989
1.2042
1.14612
1.06749
1.43529
0.923612
0.950169
1.03992
1.12389
1.18531
1.22132
1.23283
1.22079
1.18591
1.12907
1.05207
1.44533
0.925621
0.944398
1.02868
1.10894
1.16808
1.20288
1.21402
1.20226
1.16818
1.11253
1.03695
1.45488
0.927676
0.938866
1.01784
1.09447
1.15138
1.18499
1.19576
1.18428
1.15097
1.0965
1.02246
1.46403
0.929766
0.933573
1.00735
1.08045
1.13518
1.16764
1.17804
1.16682
1.13427
1.08094
1.00828
1.47259
0.931883
0.928493
0.997227
1.06687
1.11946
1.15079
1.16084
1.14986
1.11804
1.06585
0.994668
1.48077
0.934051
0.923629
0.98742
1.05371
1.10421
1.13443
1.14411
1.13338
1.10228
1.05118
0.981254
1.48845
0.936239
0.918954
0.977936
1.04094
1.0894
1.11853
1.12786
1.11735
1.08695
1.03694
0.968514
1.49566
0.938464
0.914467
0.968749
1.02855
1.07502
1.10308
1.11206
1.10176
1.07205
1.02313
0.956411
1.50244
0.940727
0.910161
0.959853
1.01654
1.06105
1.08806
1.09668
1.0866
1.05756
1.00971
0.944423
1.50871
0.943051
0.906029
0.951236
1.00488
1.04747
1.07345
1.08172
1.07184
1.04347
0.996727
0.933239
1.51445
0.945402
0.902061
0.942885
0.993555
1.03427
1.05923
1.06716
1.05747
1.02974
0.983978
0.920945
1.51971
0.947792
0.898245
0.934794
0.982558
1.02144
1.0454
1.05298
1.04348
1.01636
0.971463
0.908696
1.52447
0.950195
0.89459
0.926951
0.971878
1.00895
1.03194
1.03917
1.02984
1.00331
0.959271
0.897591
1.52877
0.952626
0.891087
0.919342
0.961499
0.996808
1.01882
1.02572
1.01655
0.990585
0.947363
0.886459
1.53261
0.95503
0.887743
0.911968
0.951413
0.984985
1.00605
1.0126
1.00358
0.978168
0.93576
0.876024
1.53601
0.957372
0.884552
0.904828
0.941607
0.973476
0.993604
0.999813
0.990936
0.96605
0.924412
0.865318
1.53897
0.959741
0.88151
0.89792
0.93207
0.962267
0.981473
0.987341
0.978599
0.954219
0.913373
0.855591
1.5415
0.962027
0.878604
0.89123
0.922795
0.95135
0.969648
0.975174
0.966556
0.94267
0.902587
0.845685
1.54362
0.964271
0.875822
0.884741
0.913766
0.940719
0.95812
0.963302
0.954797
0.931391
0.892085
0.836429
1.54533
0.966491
0.873177
0.87845
0.90497
0.930361
0.946876
0.951717
0.943316
0.920373
0.881815
0.82692
1.54664
0.968667
0.870646
0.872348
0.89642
0.92027
0.935902
0.940403
0.9321
0.909615
0.871807
0.818091
1.54756
0.970881
0.868226
0.866429
0.888107
0.910428
0.92519
0.929351
0.921138
0.8991
0.862044
0.809473
1.5481
0.973043
0.865912
0.860691
0.880023
0.900835
0.914733
0.91855
0.910416
0.888809
0.852452
0.800402
1.54825
0.975222
0.863701
0.855127
0.872159
0.891481
0.904523
0.907991
0.899925
0.878734
0.843075
0.792063
1.54804
0.977395
0.861591
0.849729
0.864508
0.882359
0.894553
0.897667
0.889659
0.86887
0.833911
0.784
1.54748
0.979554
0.859582
0.844494
0.857064
0.873462
0.884814
0.887572
0.879611
0.859216
0.824978
0.776409
1.54655
0.981667
0.85767
0.839416
0.849818
0.864785
0.875303
0.8777
0.869777
0.849763
0.816234
0.768663
1.54528
0.983834
0.855861
0.834495
0.842767
0.856323
0.866011
0.868045
0.860152
0.840511
0.807693
0.761335
1.54368
0.985942
0.854152
0.829723
0.835903
0.848066
0.856934
0.858602
0.850728
0.831446
0.799256
0.753069
1.54172
0.988067
0.852533
0.825096
0.829221
0.840013
0.848064
0.849362
0.841501
0.822563
0.790988
0.745606
1.53945
0.990162
0.851022
0.820615
0.822716
0.832154
0.839396
0.840322
0.832463
0.813859
0.782914
0.738675
1.53685
0.992286
0.849608
0.816275
0.816382
0.824485
0.830924
0.831475
0.823611
0.80533
0.775033
0.732044
1.53393
0.994368
0.848293
0.812075
0.810217
0.817004
0.822645
0.822819
0.814942
0.796976
0.767309
0.725221
1.5307
0.996466
0.847066
0.808015
0.804218
0.809703
0.814554
0.814348
0.80645
0.78879
0.759756
0.718712
1.52715
0.998537
0.845955
0.80409
0.79838
0.802582
0.806647
0.80606
0.798134
0.780769
0.752334
0.711952
1.52328
1.00064
0.844931
0.800299
0.792701
0.795635
0.798919
0.797948
0.789988
0.77291
0.745059
0.705558
1.51914
1.00272
0.84401
0.796645
0.787177
0.788856
0.791368
0.790013
0.782006
0.765203
0.737906
0.698987
1.51467
1.00479
0.843191
0.793119
0.781804
0.782244
0.783987
0.782244
0.774187
0.757645
0.730892
0.692824
1.50991
1.00688
0.84248
0.78973
0.776583
0.775796
0.776773
0.77464
0.766529
0.750236
0.724008
0.686643
1.50487
1.00894
0.841877
0.786472
0.771508
0.769505
0.769722
0.767198
0.759022
0.74297
0.717268
0.680813
1.49954
1.01102
0.84137
0.783351
0.76658
0.763369
0.762832
0.759916
0.75167
0.735848
0.710644
0.67479
1.49392
1.01302
0.840969
0.780358
0.761796
0.757387
0.756099
0.752787
0.744466
0.728861
0.704148
0.669122
1.48802
1.0151
0.840663
0.777487
0.757153
0.751558
0.749521
0.745811
0.737405
0.722013
0.697788
0.663532
1.48182
1.01714
0.840512
0.774776
0.75266
0.745882
0.743098
0.738988
0.73049
0.715297
0.69154
0.657938
1.47535
1.01916
0.840422
0.772181
0.7483
0.740348
0.736821
0.732309
0.723712
0.708706
0.685405
0.652557
1.46862
1.0212
0.840458
0.769726
0.744084
0.73496
0.730693
0.725776
0.717073
0.702244
0.679374
0.646981
1.46162
1.02318
0.840598
0.767405
0.740011
0.729718
0.72471
0.719388
0.710572
0.695906
0.673444
0.641649
1.45432
1.02513
0.840843
0.765223
0.736077
0.72462
0.718871
0.713137
0.704204
0.689692
0.667617
0.636281
1.44676
1.02713
0.841225
0.763181
0.732286
0.719662
0.713174
0.707029
0.697969
0.683597
0.661897
0.63116
1.43894
1.02908
0.841719
0.761284
0.728635
0.714847
0.707619
0.701056
0.691865
0.677622
0.656263
0.625851
1.43084
1.03102
0.842336
0.759531
0.725127
0.710173
0.702202
0.695218
0.685885
0.67176
0.650737
0.620852
1.42248
1.03294
0.84305
0.757925
0.721765
0.705639
0.696921
0.689513
0.680029
0.666006
0.645315
0.616101
1.41386
1.03481
0.843877
0.756458
0.718543
0.701244
0.691779
0.683943
0.674301
0.660369
0.640001
0.611353
1.40497
1.03668
0.844845
0.755142
0.71547
0.696992
0.686776
0.678506
0.668698
0.654848
0.634776
0.606453
1.39581
1.03853
0.845937
0.753981
0.712546
0.69288
0.681907
0.673199
0.663217
0.649435
0.629649
0.601845
1.38639
1.04033
0.847153
0.752991
0.709768
0.688908
0.677173
0.668019
0.657857
0.644135
0.624611
0.597094
1.37673
1.04208
0.848483
0.752152
0.707144
0.685082
0.672576
0.662969
0.652615
0.638937
0.619664
0.592703
1.36679
1.04379
0.84994
0.751465
0.704682
0.681401
0.668117
0.658048
0.647494
0.633852
0.61481
0.588139
1.35658
1.04547
0.851527
0.750952
0.702372
0.677867
0.663796
0.653259
0.642494
0.628874
0.610041
0.583657
1.3461
1.04713
0.853268
0.750625
0.700232
0.674483
0.659611
0.648598
0.637615
0.624001
0.605333
0.578892
1.33536
1.04873
0.855105
0.750452
0.698247
0.671242
0.655564
0.644062
0.632848
0.619224
0.600737
0.575061
1.32436
1.05028
0.857073
0.750473
0.696443
0.668161
0.651657
0.639659
0.628208
0.614571
0.596269
0.570987
1.31311
1.05178
0.859198
0.750677
0.69481
0.665235
0.647894
0.63539
0.623686
0.610021
0.591903
0.567141
1.30157
1.05322
0.861445
0.751067
0.693357
0.662476
0.644278
0.631253
0.619288
0.605582
0.587638
0.563264
1.28978
1.0546
0.863825
0.751648
0.692094
0.659873
0.640809
0.627252
0.615009
0.601252
0.583478
0.559538
1.27773
1.05588
0.866324
0.752419
0.69101
0.657444
0.637491
0.623385
0.610859
0.597043
0.579412
0.555666
1.26541
1.05712
0.868995
0.753418
0.690134
0.655189
0.634327
0.61966
0.606832
0.592939
0.575438
0.552068
1.25279
1.05829
0.87179
0.754623
0.689463
0.653119
0.631323
0.616073
0.602933
0.588949
0.571561
0.5484
1.23993
1.05936
0.874726
0.756041
0.689011
0.651228
0.628481
0.612633
0.599164
0.585078
0.567792
0.544964
1.22677
1.06034
0.877811
0.757701
0.68878
0.649542
0.625809
0.609347
0.595533
0.581331
0.564122
0.54136
1.21334
1.06123
0.881028
0.759585
0.688773
0.648048
0.623311
0.606209
0.592033
0.577697
0.560545
0.538042
1.19961
1.06206
0.884386
0.761724
0.689018
0.646769
0.62099
0.603225
0.588669
0.574181
0.557085
0.534905
1.1856
1.06279
0.887901
0.764103
0.689508
0.645707
0.618863
0.600411
0.585455
0.570805
0.553746
0.531712
1.17131
1.06341
0.891548
0.766727
0.690266
0.64488
0.616929
0.597765
0.582393
0.567559
0.550516
0.528593
1.15673
1.06389
0.89536
0.769635
0.691292
0.644298
0.615198
0.595294
0.57948
0.564442
0.547407
0.525803
1.14185
1.06427
0.899304
0.77283
0.692615
0.643965
0.613683
0.593005
0.576726
0.561474
0.544438
0.522993
1.12667
1.0645
0.903409
0.7763
0.694232
0.643894
0.612398
0.590912
0.574137
0.558641
0.541586
0.520439
1.11118
1.0646
0.907645
0.780055
0.696173
0.644113
0.611349
0.589024
0.571727
0.555969
0.538883
0.517954
1.09536
1.06463
0.912041
0.784161
0.698447
0.644638
0.610559
0.587348
0.569501
0.553462
0.536322
0.515524
1.07922
1.06448
0.916619
0.788557
0.701083
0.645476
0.610041
0.585897
0.56747
0.551119
0.533903
0.51326
1.06275
1.06421
0.921338
0.793328
0.704109
0.646663
0.60981
0.584697
0.565648
0.548959
0.531639
0.511026
1.04595
1.0638
0.926216
0.798436
0.707519
0.648205
0.609888
0.583751
0.564043
0.546986
0.529543
0.509055
1.02882
1.06315
0.93124
0.803918
0.711361
0.650156
0.610295
0.583085
0.562678
0.545227
0.527659
0.507234
1.01134
1.06237
0.936436
0.80977
0.715656
0.652516
0.611069
0.582715
0.561564
0.543678
0.525919
0.505261
0.993488
1.06144
0.941806
0.816068
0.720442
0.655328
0.61222
0.582668
0.560713
0.542343
0.524353
0.503654
0.975287
1.06026
0.94732
0.82276
0.72572
0.658613
0.613785
0.582961
0.560148
0.541258
0.523019
0.502231
0.956683
1.05896
0.953027
0.829917
0.731553
0.662443
0.615799
0.583634
0.5599
0.540439
0.521895
0.501059
0.9377
1.05736
0.958917
0.837523
0.737977
0.66683
0.618322
0.584726
0.560006
0.539916
0.521043
0.50014
0.918308
1.05555
0.964977
0.845664
0.745045
0.671842
0.621378
0.586266
0.560486
0.539719
0.520488
0.49959
0.898513
1.05358
0.971199
0.854304
0.752793
0.677532
0.625043
0.588319
0.561381
0.539876
0.520261
0.499227
0.878282
1.05132
0.977622
0.863535
0.761263
0.683963
0.629353
0.590919
0.562734
0.540395
0.520284
0.49882
0.857593
1.04879
0.98426
0.873342
0.770553
0.691213
0.634391
0.594122
0.564588
0.54133
0.520659
0.498953
0.836448
1.04593
0.991101
0.883794
0.780715
0.699364
0.640245
0.598024
0.567023
0.542761
0.521496
0.499542
0.814823
1.04293
0.998143
0.894966
0.791819
0.708508
0.647022
0.602695
0.570091
0.54471
0.522726
0.500454
0.792677
1.03952
1.00545
0.90687
0.803994
0.718775
0.654808
0.608245
0.573883
0.547249
0.524477
0.501794
0.769998
1.03576
1.01303
0.919617
0.817321
0.730291
0.663758
0.614781
0.578494
0.55045
0.526748
0.503588
0.74676
1.03183
1.02092
0.933307
0.832001
0.743239
0.674052
0.622479
0.584059
0.554436
0.529693
0.506007
0.7229
1.02743
1.02921
0.948054
0.848179
0.757827
0.685865
0.631501
0.590722
0.559326
0.533368
0.5089
0.698395
1.02275
1.038
0.964071
0.866114
0.774307
0.699474
0.642056
0.598643
0.565223
0.537862
0.512548
0.673148
1.01772
1.04745
0.981641
0.886109
0.793035
0.715152
0.654387
0.608018
0.572262
0.543236
0.516869
0.647118
1.01256
1.05797
1.00119
0.908667
0.814392
0.733293
0.668806
0.619083
0.580642
0.549715
0.522147
0.620127
1.00747
1.07019
1.02348
0.934418
0.838956
0.754328
0.685675
0.632093
0.590541
0.557347
0.528296
0.592006
1.00372
1.08542
1.0496
0.964161
0.867298
0.778669
0.705296
0.647339
0.602151
0.566278
0.535351
0.56249
1.00537
1.10735
1.08216
0.999382
0.900456
0.807172
0.72841
0.665359
0.61589
0.576717
0.543431
0.527579
1.00969
1.12941
1.11722
1.03564
0.934748
0.836881
0.753307
0.684734
0.631025
0.588264
0.552719
0.664913
0.00411463
0.170286
0.166489
0.166391
0.314298
0.307878
0.684703
0.479315
0.440102
0.324213
0.0059906
0.0193129
2.06181
0.154027
0.00344365
1.90529
0.0621573
0.0605598
0.00340341
0.0942391
0.17689
0.0712751
0.0181856
0.674155
0.170544
0.128395
0.175554
0.330901
0.471584
0.288575
1.13546
0.00383006
0.318454
0.0185923
0.0818726
0.521342
0.243483
0.455695
0.00627717
0.0321467
0.00331782
0.0387917
0.223867
0.599371
0.168936
0.0338684
0.0140911
0.605362
0.0941386
0.0816688
0.672997
0.603331
0.00321708
1.27148
0.0039455
0.00671083
0.00331704
0.244252
0.147704
0.114724
1.1553
0.00321341
0.0106458
0.0707207
0.00399295
0.459781
0.582272
1.54265
0.385565
1.19495
0.0303996
0.441307
0.377415
0.0185204
0.00327719
0.455425
0.00320537
0.038204
0.398978
0.058084
0.00320626
0.57753
0.646637
0.0101492
0.666307
0.459711
0.00320714
0.208378
0.538332
0.371344
0.357524
0.00320813
0.00363146
0.708469
0.00327786
0.167784
0.0081331
0.0032074
0.481122
0.640409
0.0719655
0.0033138
0.00387095
0.00320514
0.739402
0.467988
0.806034
0.262896
0.00322338
0.0763122
0.00320591
0.215167
0.00355157
0.00320578
0.277514
0.0132447
0.12074
0.650878
0.0963415
0.56427
0.0180097
1.08332
0.0715044
0.0800418
0.793805
0.00368479
1.87975
0.0160963
0.00320904
0.296153
0.00323642
0.355929
0.0038907
0.132523
0.00435371
0.515593
0.329326
0.210106
0.00463975
0.0113952
0.130488
0.559299
0.00834932
0.368897
1.21207
0.565647
0.00405435
0.583814
0.650641
0.0353346
0.26856
0.00320776
0.0662399
0.0643556
0.0032117
0.268393
0.00322774
0.775871
0.00566272
0.0171855
0.00346434
0.0769996
0.00966927
0.0932786
0.0453461
0.944981
0.597732
0.60095
0.00320527
1.21087
0.417512
1.27506
0.0120267
0.00320565
0.306968
0.00320513
0.653852
0.0607618
0.398633
0.96681
0.256802
0.0397439
0.562246
0.00334758
0.27313
0.00323602
0.00320548
0.381669
0.00320599
0.263963
0.00321019
0.950377
0.00430836
0.30192
0.463018
0.279694
0.15301
0.00320615
2.14952
0.605852
0.602661
0.654531
0.219622
0.503274
0.0554058
0.0573586
0.125368
0.367453
0.125263
0.442147
0.527043
0.567883
0.693116
0.00320508
0.510084
0.00950755
0.207451
2.19927
0.486274
0.646964
0.606589
0.666694
0.00321886
0.00322382
0.802929
0.666042
0.003261
3.0515
0.0161535
0.323944
0.0773708
0.00320825
0.513881
0.202054
0.483477
0.253997
0.644439
0.304679
0.364713
0.0894934
0.0720665
0.812954
1.06949
0.305068
0.430094
0.347743
0.00339676
0.902469
0.549603
0.361392
0.378154
0.200329
3.14029
0.533563
0.13398
0.0923747
0.344292
0.3154
0.660987
0.125099
0.506165
0.01011
0.0565013
0.658275
0.525914
0.548702
0.542606
0.167362
1.38217
0.136846
0.0284876
1.05682
0.304087
0.303865
1.09706
0.543825
0.318911
0.618351
0.466861
0.906287
0.534685
0.606536
0.49535
0.32312
0.280338
0.246312
0.296438
0.693658
0.100732
0.462745
1.06407
0.291362
0.291149
0.604155
0.937248
0.0610515
0.2834
0.036323
0.723017
0.189017
0.0540399
1.11739
1.31282
0.0641541
0.559316
0.627308
0.0032061
0.0788109
0.0940535
0.117253
0.535569
0.00321466
0.744561
0.604138
0.0359501
0.283463
0.433139
0.00320522
0.550383
0.0203883
0.316432
0.20781
4.34113
0.679078
0.430643
0.278683
0.00320707
0.00323342
0.529416
0.205031
0.00320637
0.279684
0.00320834
0.00323253
0.00326123
0.00320511
0.070484
0.0032075
0.00509339
0.553853
0.560407
0.003229
0.352979
0.0064267
0.267486
0.308579
0.781118
2.93105
0.233333
0.00320496
0.00326477
0.0446746
0.06065
0.269354
0.00320574
0.06229
0.660156
0.513902
0.200294
0.38658
0.597778
0.622468
2.87207
0.0902579
0.168901
0.00351551
0.00320602
0.0781832
0.106548
0.0645728
0.377717
0.675702
2.6489
1.0805
0.106056
0.413857
0.606512
0.00322765
0.219309
0.377101
0.00458865
0.00321987
0.579363
3.04354
0.768182
0.00320669
0.0261169
0.126967
0.0145831
0.00325029
0.492126
0.200613
0.620432
0.602212
0.00357753
2.67181
0.00321082
0.131023
0.28234
0.00507474
0.00829399
0.522568
0.00650167
0.910786
0.69304
0.704127
0.357225
0.339831
0.799417
0.00320639
0.00320702
0.003207
0.635317
0.0415999
1.24693
2.34723
0.152371
0.621129
0.00323721
0.0032163
0.501026
0.00320557
0.00321691
0.741621
0.00320582
0.130009
0.539295
0.648906
0.00320508
0.00581377
0.0700307
0.0666219
0.363046
0.0803214
0.00320534
2.34923
0.495803
0.070017
0.00857622
0.63249
0.255351
0.00532384
0.370698
0.00515472
0.457811
0.00342958
0.269925
0.0660824
0.00320554
0.785429
0.365061
0.323343
0.00714294
0.249772
0.129759
0.00455025
0.305737
0.715384
0.195807
1.12486
0.0148776
0.0267079
0.00779753
0.832015
0.366463
0.0295285
0.0993389
0.131761
0.338102
0.109288
0.699261
1.03752
0.00320533
1.30743
0.541146
0.261336
0.00320584
0.608879
0.534722
0.00322688
0.593039
0.573621
0.141695
0.0805113
0.380548
0.298353
0.00347664
0.0123941
0.517881
0.023162
0.00341962
0.93157
2.89501
0.0231373
0.455274
0.449222
0.0443261
0.546382
0.566791
0.495769
0.338766
0.62747
0.00327555
0.0455844
0.714264
0.389909
0.839774
0.490579
0.866177
0.936833
2.65467
0.482663
0.165804
0.00320656
0.840152
0.290827
0.461712
0.203599
0.064823
0.0448597
0.206658
0.00323816
0.563678
0.00320597
0.705674
0.207102
0.304796
0.376924
0.763873
0.299893
0.570286
0.335987
1.27049
0.00324987
0.0573674
0.553131
1.92683
0.201681
0.400675
0.00346875
0.0172367
0.179338
1.18917
0.320888
0.00320586
0.0343734
0.00320503
0.0325575
0.627244
0.0221995
0.473332
0.103894
0.73721
0.0842383
0.0577999
1.21663
0.685654
0.00320714
0.00320751
0.241464
0.758624
0.617739
0.331017
0.260978
0.358302
0.607641
0.00320502
0.0712247
0.482108
0.00426829
0.645829
0.502688
0.388275
0.613437
0.00759722
0.00320504
0.0145589
0.00320936
0.350374
0.474118
0.831947
0.347035
0.00323192
0.937063
0.0466902
0.821451
0.0813712
1.12306
0.00320702
0.0900878
0.0032067
0.526413
0.681029
0.613368
0.221702
0.00320492
0.803947
0.461717
0.610276
0.0032152
0.0496865
0.473256
0.318363
0.00479495
2.09059
0.00353556
0.407491
0.297789
0.00347752
0.0956034
0.0518603
0.114554
0.00320579
0.00320815
0.69263
0.648538
0.497975
0.644708
0.00421165
0.100024
0.060737
0.439705
0.290115
0.00359891
0.0720574
1.17436
0.0032053
0.00593051
0.612581
1.08604
0.697449
0.00321556
0.706784
0.498345
0.828832
0.0148586
0.13895
0.860696
0.00322627
0.286807
0.0999869
0.384055
0.194562
0.358472
0.116998
0.749132
0.739084
0.300009
2.3204
0.00325012
0.00320832
0.949986
0.452488
0.00413903
0.00320518
0.253233
0.00321194
0.484546
0.566523
0.135142
0.00321485
0.459888
0.00467729
0.640003
0.726605
0.530345
0.0732349
0.0895361
0.849372
0.00320691
0.200144
0.582934
0.540867
0.295401
0.00548535
0.290623
0.143663
1.97688
0.003206
0.0931728
0.360465
0.324206
0.00333471
0.0598666
0.670507
0.685285
0.762664
0.0312083
1.20407
0.614615
0.0511915
0.459586
0.00320635
0.00545962
0.157428
0.00320531
0.390598
0.00320683
0.3056
0.00813519
0.500713
0.00324416
0.0745591
0.715086
0.993728
0.16847
0.360226
0.073644
1.60181
0.0110364
0.0569287
0.305204
0.00320604
0.00321105
0.438728
0.0703411
0.307498
0.414442
0.00331214
0.277419
0.292934
0.29016
0.270194
0.712115
0.299966
0.00320761
1.83453
2.10321
0.605782
0.00323832
0.0069689
1.37309
0.537831
0.00320998
0.784911
0.00320623
0.0452877
1.82494
0.00341983
0.310266
0.00320516
0.030248
0.819661
0.00324367
0.0037417
0.00320581
0.00362934
0.0148418
2.69572
0.470786
0.051458
0.38801
0.00320522
0.402438
0.00320686
0.244864
0.132083
0.0119928
0.140768
0.00833413
0.688405
0.00323802
3.6437
0.094939
0.313672
0.267671
0.144448
0.00320528
0.437026
0.718571
0.104271
0.3756
0.530065
1.09478
0.3696
0.0259005
0.323525
0.0491976
0.00371561
0.0527364
2.12516
0.676756
0.0703219
0.00320643
0.64784
0.00355274
0.233475
0.510626
0.70661
0.45263
0.5398
0.0232008
0.00512695
0.638015
0.504027
0.0312316
0.578511
0.0032189
0.311192
1.2634
0.00329451
1.08272
0.450993
0.0925928
0.0521432
0.927621
0.0161457
0.0522996
0.22125
0.165386
0.156903
0.00322359
0.371338
0.0489316
0.291493
0.409076
0.271765
0.106038
0.00568258
0.323616
0.00320562
0.00320716
0.263233
0.0543788
0.0719876
1.23107
0.00320504
0.682553
0.04256
0.0302932
0.00338555
1.08617
0.169281
0.0538596
0.446201
0.0319017
1.13337
0.12693
0.00320614
1.21757
1.36902
0.00443176
0.00609812
0.273128
0.640361
0.0553372
1.34251
0.0207478
0.131186
0.051739
0.0857904
0.369483
0.271757
0.00320615
0.737661
0.67123
0.00854727
0.114483
3.0833
0.58841
0.00320627
0.00320643
0.430421
0.418494
0.607418
0.00320546
0.396145
0.157969
0.611592
0.00362694
0.320402
0.446837
0.00438663
0.577926
0.00323467
0.696523
0.456662
0.674287
0.49772
0.00321221
0.00320518
0.325419
0.86311
0.204664
0.407348
0.00320511
0.0296719
0.00325303
0.00495273
0.709758
0.0390047
0.0527455
0.0654064
0.665599
0.308935
0.390423
0.723852
0.00320826
0.621168
0.40776
0.566355
0.00320704
0.546897
0.00323796
0.00320628
0.0410576
0.476908
0.0157225
1.11395
0.432653
1.86196
0.00327393
0.00446905
0.0193784
0.937245
0.155877
0.994769
0.00321174
0.00321504
0.00518419
0.00624544
0.639327
0.462231
0.739676
0.0788186
0.0243089
0.167447
0.154125
0.606739
0.299086
0.533293
0.330104
0.0032055
0.253769
0.00466719
0.100172
0.540313
0.409671
0.152027
0.0596201
0.00358886
0.826621
0.285223
0.205007
0.639647
0.0032098
0.652412
0.434012
0.3257
0.00585535
0.545676
0.701979
0.49999
0.296072
0.403753
0.754601
0.0725518
0.776596
0.109916
0.0525296
0.303971
0.00321481
0.747711
0.903487
0.00321002
0.361974
0.00421447
0.688549
0.301973
0.132469
0.60985
0.769958
0.499177
0.272076
0.0649073
0.329159
0.222123
0.00820122
0.00320959
0.637775
0.038019
0.580856
0.610182
0.0976722
0.494389
0.693752
0.00320718
0.605801
1.50906
1.0477
0.263838
0.359094
0.305566
1.21761
0.267454
0.130777
0.0156871
0.0466137
0.74878
0.722292
0.0641071
0.498062
0.467513
0.428347
0.395773
0.128036
0.211066
0.379014
0.00320661
1.26827
0.735152
0.0719578
0.00320675
0.279741
0.21672
0.600191
0.00323038
0.614353
0.00320835
0.25909
0.0570826
0.00322571
0.468902
0.484571
0.00320525
0.557874
0.642888
0.320317
0.509795
0.84278
0.355402
0.32686
0.301139
0.0722221
0.00321272
0.00409412
0.654969
0.161463
0.00324441
0.0032732
0.498293
0.00475594
0.0691898
0.0684661
0.230669
0.209091
0.036949
0.0761922
0.848227
1.05422
0.670488
2.98829
0.519266
0.00320615
0.567968
0.319272
1.08508
0.0032066
0.169467
0.0032063
0.00345322
0.620003
0.149254
0.0229866
0.00336026
0.429368
2.92303
0.00559393
0.0032131
0.11238
0.130264
0.012987
0.0392194
3.01768
0.0608674
0.00336311
0.00321874
0.587441
0.580161
0.0593501
0.0323135
0.688019
1.17062
0.572605
0.304824
0.357779
0.00320535
0.245321
0.00320892
0.278165
0.582054
4.02075
0.173853
0.0531937
0.00355759
0.743461
0.00320713
0.00320806
0.0046673
0.283663
0.638358
0.580822
0.00320756
0.253013
0.00321283
0.597511
0.580873
0.00321096
0.836948
0.164175
0.00320844
0.00329832
0.0156394
0.638691
0.203189
0.0165763
0.0032153
0.00321225
0.863235
0.719752
0.347598
0.425066
0.0567507
0.463956
0.00320854
0.00771081
0.200763
0.820586
0.40152
0.00637107
0.00320617
0.679671
0.00323854
0.297334
0.849905
0.170559
0.0249187
0.293225
0.252054
0.103904
0.00320753
0.283524
0.809638
0.744054
0.00524435
0.0204262
0.378302
3.39325
0.0288695
0.199717
0.00320523
0.00320798
0.00323162
0.0127685
0.651035
0.64291
0.00321259
0.285682
0.345421
1.19383
0.281172
0.0127497
0.00580995
0.00715463
0.0899261
0.325891
0.549478
0.00322435
0.816722
0.00320734
0.00982139
0.471543
0.495969
0.0192172
0.197585
0.248479
0.00377386
0.102376
0.0831895
0.0032053
0.00363746
0.657378
0.00350361
0.00322534
1.12619
0.535586
2.03754
0.211343
1.89718
0.00353851
0.00321404
2.61936
0.599477
0.120907
0.304421
0.0322698
0.538818
0.115704
0.956386
0.470014
0.638019
0.612107
0.289788
0.089841
0.658606
0.748024
0.00999059
0.501361
0.00382326
0.518237
0.303608
0.067813
0.195392
0.198421
0.232862
0.0772569
0.506139
0.906538
0.712007
0.484773
0.542225
0.391516
0.154385
0.00379879
0.00320563
0.0710892
1.43821
0.00320513
1.16911
0.0032151
0.00672211
0.280811
0.288095
0.471704
0.911375
0.8273
0.685455
0.248489
0.673938
0.00321448
0.307342
0.642741
0.00323913
0.796001
0.00576234
1.65003
0.944816
1.10803
0.554045
0.281026
0.135243
0.0709661
0.595861
0.758137
0.630701
0.485118
0.156928
0.293142
0.0546751
0.289721
0.771396
0.00687289
0.340054
0.0032075
0.00366926
0.412447
0.947175
0.35824
0.557915
0.0997192
0.0628957
0.056986
0.00335258
0.376712
0.00332655
0.771473
0.00322851
0.038685
0.94343
0.162905
0.16338
0.318656
0.252603
0.00483616
0.00323578
0.0500886
0.540717
0.0594887
0.620844
0.0249955
0.584921
0.104509
0.603999
0.762062
0.00345569
0.00320501
1.05033
0.134421
0.163037
0.471259
0.379956
0.466559
0.00678073
1.06344
0.53663
0.288818
0.00337249
0.114586
0.423274
0.304397
0.112863
0.340289
0.00324871
0.247787
0.00321346
0.551999
0.00788317
0.466088
0.0612404
0.198444
0.00324324
5.1392
0.00320709
0.954683
0.0122831
0.00321691
0.00837939
0.498249
0.0032057
0.00320596
0.177643
0.015866
0.497694
0.034179
0.00332112
0.504169
0.208553
0.674412
0.00329676
0.27593
0.185674
1.34339
0.386746
0.574182
0.82259
0.269153
0.155757
0.702692
0.789373
0.262566
0.00322484
0.0909424
0.395715
0.598938
0.00428605
0.00372619
0.541716
1.54902
0.00320583
0.113438
0.778577
0.00320535
0.509166
0.573518
0.316521
0.737736
0.461591
0.482845
0.0766769
1.75178
0.209975
0.471819
0.483291
0.3813
0.0572173
0.00320562
0.62672
0.00501576
0.00321962
0.00320981
0.450179
0.00320512
0.00366247
0.277743
3.42645
0.236812
0.083823
0.491613
0.380604
0.00322357
0.311444
1.16013
0.0162327
0.14624
0.598106
0.536581
0.0591194
0.0178752
0.0032059
0.00321015
0.0166475
0.0236259
0.643864
0.649301
0.749026
0.560151
0.461122
0.00369469
0.42981
0.481075
0.00321514
0.378051
2.37538
0.00325232
0.183225
1.02121
0.405343
0.789178
0.102105
0.637708
0.00343173
0.112692
0.00329356
0.00535698
0.0032137
0.469239
0.30414
0.0420449
0.00320682
0.00320546
1.14927
0.412605
0.15468
0.545261
0.182329
0.513221
0.324099
0.252221
0.674875
0.0032056
0.0872953
0.0650999
0.0758108
0.391683
0.64941
0.416438
0.782241
0.676408
0.69699
0.882926
0.511052
0.689237
0.506305
0.0381616
0.488037
0.589398
0.0146211
0.969027
0.505687
0.231711
0.00321417
0.00320876
0.00346143
0.00408199
0.726977
0.00320521
0.614812
0.294733
0.993876
0.431492
0.00321448
0.24663
0.593111
0.323065
0.298286
0.440349
0.299856
0.00327279
0.00320869
0.00631431
0.0565225
0.00321031
0.766421
0.392934
0.0799499
0.417431
0.270424
0.672405
0.637944
0.0032052
0.336192
0.360805
0.00358849
0.0429562
0.654808
0.336959
0.260067
0.188056
0.003254
0.750294
0.64574
0.003593
0.0132231
0.00320715
0.356781
0.00396368
0.0616101
0.814046
0.0930725
0.0432263
0.626332
1.76113
0.00326123
0.312762
0.00320548
0.26167
0.498224
0.566833
0.211495
0.709179
0.366301
0.772259
0.765356
0.405169
0.00320614
0.00320528
0.0299408
0.0644833
0.349044
0.165305
0.00324084
1.02074
0.133082
0.00659308
0.446593
0.0315997
0.00586877
0.0210162
0.617471
0.00498852
0.00322384
0.58901
0.282804
0.348852
0.144125
0.385341
0.202686
0.00324442
0.307746
0.054903
0.0355787
0.00334973
0.433343
0.258265
0.162765
0.92579
0.81176
0.547958
0.242874
0.00320601
0.645315
0.00323429
1.88651
0.00675633
0.455257
0.0579035
0.496965
0.0088616
0.00719132
0.114152
0.163927
1.1665
0.00354554
0.11319
0.674085
0.789754
0.205898
1.00605
0.0823909
0.00336913
0.00321117
0.432338
0.346377
0.859483
0.154884
0.0445344
0.643773
0.613456
0.465874
0.0283166
0.00321268
0.00320576
0.0773406
0.668431
0.386319
0.532233
0.00350731
0.00808083
0.0650526
0.715457
0.60062
0.430131
0.553945
0.532655
0.00320853
0.00324893
0.729603
0.320507
0.537782
2.34564
0.607178
0.0155369
0.899904
0.00323729
1.01403
0.0141614
0.0155419
0.0032109
0.0216054