/*--------------------------------*- C++ -*----------------------------------*\
| =========                 |                                                 |
| \\      /  F ield         | OpenFOAM: The Open Source CFD Toolbox           |
|  \\    /   O peration     | Version:  2.3.1                                 |
|   \\  /    A nd           | Web:      www.OpenFOAM.org                      |
|    \\/     M anipulation  |                                                 |
\*---------------------------------------------------------------------------*/
FoamFile
{
    version     2.0;
    format      ascii;
    class       volScalarField;
    location    "0.85";
    object      epsilon;
}
// * * * * * * * * * * * * * * * * * * * * * * * * * * * * * * * * * * * * * //

dimensions      [0 2 -3 0 0 0 0];

internalField   nonuniform List<scalar> 
1000
(
0.000859088
0.00088917
0.000890112
0.000890093
0.000890078
0.000890072
0.000890064
0.00089006
0.000889953
0.000887394
0.00089053
0.000899676
0.000900429
0.000900461
0.000900463
0.00090046
0.000900445
0.000900404
0.000899656
0.000889168
0.000893677
0.000902998
0.000903894
0.000903955
0.000903969
0.000903961
0.000903934
0.000903868
0.000902975
0.000891191
0.000896378
0.000906623
0.000907661
0.00090778
0.000907817
0.000907813
0.000907765
0.000907657
0.000906646
0.000893988
0.000898492
0.000910427
0.000911638
0.000911803
0.000911854
0.000911849
0.00091181
0.000911663
0.000910527
0.000896201
0.000889837
0.000897285
0.000898033
0.000898129
0.000898157
0.00089817
0.000898172
0.000898153
0.000897549
0.000889082
0.000898316
0.000605799
0.000589173
0.000588414
0.000588371
0.000588349
0.000588331
0.000588863
0.000604793
0.000897018
0.000900806
0.000585899
0.000567431
0.000566633
0.000566615
0.000566612
0.000566615
0.000567257
0.000585079
0.000899477
0.000903284
0.000585136
0.000566444
0.00056564
0.000565623
0.000565622
0.00056563
0.000566293
0.000584416
0.000901968
0.000905691
0.000588139
0.00056931
0.000568628
0.000568676
0.000568679
0.000568631
0.000569184
0.000587494
0.000904408
0.000892521
0.000899339
0.000900095
0.000900187
0.000900221
0.000900238
0.000900243
0.00090022
0.000899545
0.000890504
0.000900036
0.000588731
0.00057055
0.000569739
0.000569705
0.000569691
0.000569682
0.000570295
0.000587812
0.000898828
0.000902229
0.000567842
0.000547508
0.000546599
0.000546577
0.000546576
0.000546585
0.000547322
0.000566944
0.000901064
0.000904361
0.000567226
0.000546656
0.000545742
0.000545725
0.000545724
0.000545733
0.000546481
0.000566376
0.000903184
0.000906812
0.000568842
0.000548094
0.000547233
0.000547247
0.000547248
0.000547229
0.000547929
0.000568031
0.000905642
0.000893655
0.000900438
0.000901173
0.000901252
0.000901283
0.000901298
0.000901303
0.000901277
0.000900596
0.000891511
0.000900981
0.000586595
0.000568341
0.000567545
0.000567519
0.00056751
0.00056751
0.000568141
0.000585839
0.000899761
0.000902928
0.000566681
0.000546295
0.000545382
0.000545359
0.000545358
0.000545371
0.000546116
0.000565838
0.000901774
0.000904786
0.000566195
0.00054561
0.000544697
0.00054468
0.000544679
0.000544688
0.000545435
0.000565366
0.000903615
0.000907121
0.000566968
0.000546235
0.000545335
0.000545326
0.000545327
0.000545326
0.000546063
0.000566153
0.000905941
0.000894272
0.000901041
0.000901759
0.000901826
0.000901852
0.000901865
0.000901868
0.000901838
0.000901153
0.000892037
0.00090153
0.000585099
0.0005668
0.000566007
0.000565981
0.000565976
0.000565984
0.00056663
0.000584427
0.000900268
0.000903328
0.000566331
0.000545987
0.000545078
0.000545054
0.000545054
0.000545068
0.000545813
0.000565529
0.000902154
0.000905042
0.000565941
0.00054545
0.000544545
0.000544528
0.000544528
0.000544536
0.000545277
0.000565138
0.000903856
0.000907261
0.000566384
0.000545816
0.000544913
0.000544897
0.000544897
0.000544902
0.000545641
0.000565585
0.000906062
0.000894363
0.000901368
0.000902098
0.000902165
0.00090219
0.000902201
0.000902201
0.000902164
0.000901457
0.000892085
0.00090166
0.000584189
0.000565865
0.000565077
0.000565056
0.000565057
0.000565072
0.000565727
0.000583588
0.000900371
0.000903468
0.000566212
0.000545903
0.000545
0.000544977
0.000544978
0.000544992
0.000545736
0.000565444
0.000902276
0.000905214
0.000565901
0.000545481
0.000544585
0.000544568
0.000544569
0.000544576
0.000545311
0.000565125
0.000904014
0.000907462
0.000566299
0.000545869
0.000544981
0.000544966
0.000544967
0.00054497
0.000545696
0.000565521
0.000906247
0.000893964
0.000901552
0.000902328
0.000902399
0.000902424
0.000902431
0.000902425
0.000902379
0.000901627
0.000891658
0.000901387
0.000584188
0.000565878
0.000565093
0.000565072
0.000565072
0.000565087
0.000565741
0.0005836
0.000900072
0.000903381
0.00056641
0.000546137
0.000545241
0.000545221
0.000545221
0.000545233
0.000545971
0.000565654
0.000902163
0.000905372
0.000566199
0.000545824
0.000544938
0.000544925
0.000544926
0.00054493
0.000545654
0.000565429
0.000904144
0.000907867
0.000566882
0.000546534
0.000545674
0.00054567
0.000545671
0.000545663
0.00054636
0.000566107
0.000906622
0.000893054
0.000901178
0.000901995
0.000902072
0.000902097
0.000902103
0.000902092
0.000902035
0.000901241
0.000890732
0.000900665
0.000585365
0.000567202
0.000566431
0.000566414
0.000566415
0.000566427
0.00056707
0.000584798
0.000899324
0.000902969
0.000568088
0.000548027
0.000547158
0.000547146
0.000547148
0.000547153
0.000547867
0.000567356
0.000901722
0.000905354
0.000568376
0.000548277
0.000547436
0.000547437
0.000547439
0.000547429
0.000548113
0.000567633
0.000904092
0.000908321
0.000570399
0.000550509
0.000549765
0.000549802
0.000549805
0.000549756
0.000550344
0.000569664
0.000907039
0.000891576
0.000899437
0.000900199
0.000900273
0.000900297
0.000900301
0.000900286
0.000900228
0.000899481
0.00088923
0.000898925
0.000606356
0.000590134
0.000589499
0.000589503
0.000589509
0.000589506
0.000590041
0.00060596
0.000897483
0.000901544
0.000592594
0.000574932
0.000574263
0.00057429
0.000574297
0.000574271
0.000574821
0.000592076
0.000900178
0.000904381
0.000596165
0.000578815
0.000578263
0.000578333
0.000578341
0.00057827
0.000578705
0.000595653
0.000902984
0.000908074
0.000605549
0.000589225
0.000589007
0.000589187
0.000589194
0.000589015
0.000589127
0.000605098
0.000906645
0.000887546
0.000887855
0.000887899
0.000887914
0.00088792
0.000887923
0.000887918
0.000887904
0.000887785
0.000885057
0.000889588
0.000896634
0.000897366
0.000897441
0.000897462
0.000897466
0.000897447
0.000897386
0.000896676
0.000887172
0.000892099
0.000899835
0.000900719
0.000900842
0.000900883
0.000900889
0.000900848
0.00090074
0.000899886
0.000889684
0.000895469
0.000903402
0.000904407
0.000904598
0.000904667
0.000904671
0.0009046
0.000904415
0.000903431
0.000893047
0.000900735
0.000909486
0.000910759
0.000911057
0.000911149
0.00091115
0.000911047
0.000910741
0.000909501
0.000898353
0.00091339
0.000933621
0.000936978
0.000937096
0.000937011
0.000936997
0.000937044
0.000936919
0.000933986
0.000911271
0.000968231
0.0012065
0.00124268
0.001232
0.00122688
0.00122661
0.00123111
0.00124185
0.00121368
0.000969594
0.00153093
0.0043528
0.0047811
0.00462281
0.00455771
0.00455444
0.00461157
0.00477067
0.00443281
0.00156749
0.00554316
0.0260871
0.0295359
0.0290186
0.0287341
0.0287143
0.0289535
0.029486
0.0265536
0.00578182
0.0225605
0.116472
0.134156
0.134928
0.134637
0.13457
0.134728
0.134046
0.118134
0.0233804
0.000913901
0.000625558
0.000611429
0.000611696
0.00061196
0.000611964
0.000611701
0.000611351
0.000625301
0.000912498
0.000922728
0.000698423
0.000693051
0.000694003
0.000694001
0.000693977
0.000693943
0.000693017
0.000699467
0.000921659
0.000986532
0.00124504
0.00129973
0.00127646
0.00126703
0.00126663
0.00127504
0.00129881
0.00125772
0.000988926
0.0019427
0.012914
0.0140126
0.012942
0.0125384
0.0125278
0.0129074
0.0139966
0.0131612
0.00199432
0.03723
0.278376
0.31111
0.312198
0.311654
0.311561
0.311935
0.311158
0.281773
0.0386967
0.000911571
0.00057439
0.000555036
0.000554508
0.00055462
0.000554622
0.000554501
0.000554877
0.000573705
0.000910336
0.000915858
0.000582595
0.000564494
0.000564169
0.000564258
0.000564258
0.00056416
0.000564355
0.000582117
0.000914709
0.000927277
0.000704226
0.000701751
0.000703124
0.000703365
0.000703345
0.000703079
0.000701867
0.000706231
0.000926738
0.00146226
0.00764572
0.00830505
0.0082465
0.00821104
0.00820914
0.00824196
0.00831299
0.00776548
0.00148792
0.0393878
0.287972
0.312983
0.313091
0.312534
0.312492
0.312994
0.313322
0.291527
0.0409222
0.000909674
0.00056813
0.000547917
0.00054716
0.000547202
0.000547203
0.000547148
0.000547744
0.000567366
0.000908457
0.000913442
0.000568228
0.000548082
0.000547246
0.000547234
0.000547233
0.000547231
0.000547906
0.000567509
0.000912281
0.000920321
0.000658649
0.000646612
0.000646473
0.000646905
0.000646939
0.000646563
0.000646781
0.000659756
0.000919625
0.00140991
0.00768094
0.00831179
0.00834315
0.00834108
0.00834063
0.00834336
0.0083271
0.00780055
0.00143331
0.0430212
0.315753
0.341432
0.342625
0.342481
0.342469
0.342635
0.342008
0.319788
0.0447641
0.000908585
0.00056719
0.000546841
0.000546038
0.000546067
0.000546067
0.000546028
0.00054667
0.000566421
0.00090738
0.000912247
0.000566211
0.00054574
0.000544824
0.000544793
0.000544792
0.000544809
0.000545564
0.000565453
0.000911081
0.000917385
0.000643275
0.000630588
0.000631006
0.000631628
0.000631669
0.000631142
0.000630827
0.000644253
0.000916618
0.0014432
0.00858643
0.00931906
0.00943543
0.00946793
0.00946841
0.00944056
0.00934561
0.00872776
0.00146983
0.0448043
0.325954
0.351933
0.353609
0.353658
0.35366
0.353674
0.352621
0.330183
0.0466518
0.000908381
0.000567794
0.000547249
0.000546448
0.000546484
0.000546485
0.00054644
0.000547083
0.000567014
0.000907188
0.000912336
0.000566856
0.000545707
0.000544752
0.000544721
0.000544719
0.000544741
0.000545531
0.000566077
0.000911183
0.00091831
0.000652843
0.000643533
0.000645384
0.000646262
0.000646283
0.000645491
0.000643789
0.000653991
0.000917551
0.00179492
0.0108064
0.0118562
0.0122488
0.0123884
0.0123915
0.0122659
0.0119029
0.0109774
0.00183922
0.0454432
0.321741
0.346791
0.348423
0.348495
0.3485
0.348516
0.347526
0.325918
0.0473405
0.000908898
0.000569521
0.000548747
0.000547975
0.000548036
0.000548037
0.000547974
0.000548589
0.000568742
0.00090774
0.000913241
0.000569108
0.00054709
0.000546157
0.000546141
0.000546143
0.000546152
0.000546926
0.000568324
0.000912087
0.000924048
0.000677099
0.000670194
0.000675348
0.00067762
0.000677679
0.000675607
0.000670674
0.000678417
0.000923492
0.00225933
0.0096932
0.010634
0.0112069
0.0114602
0.0114672
0.0112344
0.0106832
0.00981824
0.00232026
0.045483
0.302625
0.324872
0.326579
0.326756
0.326768
0.32671
0.325618
0.306401
0.0473579
0.000910206
0.000572227
0.000551272
0.000550516
0.000550588
0.000550594
0.00055052
0.000551126
0.000571461
0.000909066
0.000914064
0.000576509
0.000554083
0.000553457
0.000553556
0.000553561
0.000553469
0.000553947
0.000575781
0.000912895
0.000934253
0.000695131
0.000686627
0.000691328
0.000693484
0.000693545
0.000691565
0.000687048
0.000696186
0.000933783
0.00222317
0.00705108
0.00771356
0.00791206
0.00798893
0.00799053
0.00792108
0.00773812
0.00714579
0.00225617
0.0422318
0.246704
0.262908
0.264932
0.265507
0.265532
0.2651
0.26354
0.249406
0.0438046
0.000911761
0.000590418
0.000571092
0.000570382
0.000570429
0.000570433
0.000570388
0.00057097
0.0005898
0.000910546
0.000913263
0.000612673
0.000592996
0.000593258
0.000593643
0.000593657
0.000593299
0.000592952
0.000612255
0.000911997
0.000944307
0.000740994
0.000730494
0.00073339
0.00073479
0.000734824
0.000733528
0.000730737
0.000741724
0.000943718
0.00151478
0.00449638
0.00488329
0.00495004
0.00497256
0.00497263
0.0049525
0.00489401
0.00455071
0.00153473
0.0299427
0.145425
0.153772
0.155136
0.155605
0.155623
0.155242
0.154114
0.14674
0.0307789
0.000905762
0.000920809
0.000922688
0.000923098
0.000923259
0.000923273
0.000923112
0.000922769
0.000921024
0.000903451
0.00090103
0.000925003
0.000927836
0.00092825
0.000928369
0.000928377
0.000928287
0.00092795
0.000925274
0.000898695
0.000947896
0.00098586
0.000990979
0.00099234
0.000992779
0.000992775
0.000992408
0.000991087
0.000986413
0.000945971
0.00112635
0.0014862
0.00154902
0.00155945
0.00156243
0.00156245
0.00155973
0.00155052
0.00149351
0.00113027
0.00941289
0.0213279
0.0222913
0.0225519
0.0226356
0.0226383
0.0225662
0.0223321
0.0214737
0.00955236
)
;

boundaryField
{
    walls
    {
        type            epsilonWallFunction;
        value           nonuniform List<scalar> 
500
(
0.000859088
0.000859088
0.000859088
0.00088917
0.00088917
0.000890112
0.000890112
0.000890093
0.000890093
0.000890078
0.000890078
0.000890072
0.000890072
0.000890064
0.000890064
0.00089006
0.00089006
0.000889953
0.000889953
0.000887394
0.000887394
0.000887394
0.00089053
0.00089053
0.000899676
0.000900429
0.000900461
0.000900463
0.00090046
0.000900445
0.000900404
0.000899656
0.000889168
0.000889168
0.000893677
0.000893677
0.000902998
0.000903894
0.000903955
0.000903969
0.000903961
0.000903934
0.000903868
0.000902975
0.000891191
0.000891191
0.000896378
0.000896378
0.000906623
0.000907661
0.00090778
0.000907817
0.000907813
0.000907765
0.000907657
0.000906646
0.000893988
0.000893988
0.000898492
0.000898492
0.000910427
0.000911638
0.000911803
0.000911854
0.000911849
0.00091181
0.000911663
0.000910527
0.000896201
0.000896201
0.000889837
0.000889837
0.000897285
0.000898033
0.000898129
0.000898157
0.00089817
0.000898172
0.000898153
0.000897549
0.000889082
0.000889082
0.000898316
0.000897018
0.000900806
0.000899477
0.000903284
0.000901968
0.000905691
0.000904408
0.000892521
0.000892521
0.000899339
0.000900095
0.000900187
0.000900221
0.000900238
0.000900243
0.00090022
0.000899545
0.000890504
0.000890504
0.000900036
0.000898828
0.000902229
0.000901064
0.000904361
0.000903184
0.000906812
0.000905642
0.000893655
0.000893655
0.000900438
0.000901173
0.000901252
0.000901283
0.000901298
0.000901303
0.000901277
0.000900596
0.000891511
0.000891511
0.000900981
0.000899761
0.000902928
0.000901774
0.000904786
0.000903615
0.000907121
0.000905941
0.000894272
0.000894272
0.000901041
0.000901759
0.000901826
0.000901852
0.000901865
0.000901868
0.000901838
0.000901153
0.000892037
0.000892037
0.00090153
0.000900268
0.000903328
0.000902154
0.000905042
0.000903856
0.000907261
0.000906062
0.000894363
0.000894363
0.000901368
0.000902098
0.000902165
0.00090219
0.000902201
0.000902201
0.000902164
0.000901457
0.000892085
0.000892085
0.00090166
0.000900371
0.000903468
0.000902276
0.000905214
0.000904014
0.000907462
0.000906247
0.000893964
0.000893964
0.000901552
0.000902328
0.000902399
0.000902424
0.000902431
0.000902425
0.000902379
0.000901627
0.000891658
0.000891658
0.000901387
0.000900072
0.000903381
0.000902163
0.000905372
0.000904144
0.000907867
0.000906622
0.000893054
0.000893054
0.000901178
0.000901995
0.000902072
0.000902097
0.000902103
0.000902092
0.000902035
0.000901241
0.000890732
0.000890732
0.000900665
0.000899324
0.000902969
0.000901722
0.000905354
0.000904092
0.000908321
0.000907039
0.000891576
0.000891576
0.000899437
0.000900199
0.000900273
0.000900297
0.000900301
0.000900286
0.000900228
0.000899481
0.00088923
0.00088923
0.000898925
0.000897483
0.000901544
0.000900178
0.000904381
0.000902984
0.000908074
0.000906645
0.000887546
0.000887546
0.000887546
0.000887855
0.000887855
0.000887899
0.000887899
0.000887914
0.000887914
0.00088792
0.00088792
0.000887923
0.000887923
0.000887918
0.000887918
0.000887904
0.000887904
0.000887785
0.000887785
0.000885057
0.000885057
0.000885057
0.000889588
0.000889588
0.000896634
0.000897366
0.000897441
0.000897462
0.000897466
0.000897447
0.000897386
0.000896676
0.000887172
0.000887172
0.000892099
0.000892099
0.000899835
0.000900719
0.000900842
0.000900883
0.000900889
0.000900848
0.00090074
0.000899886
0.000889684
0.000889684
0.000895469
0.000895469
0.000903402
0.000904407
0.000904598
0.000904667
0.000904671
0.0009046
0.000904415
0.000903431
0.000893047
0.000893047
0.000900735
0.000900735
0.000909486
0.000910759
0.000911057
0.000911149
0.00091115
0.000911047
0.000910741
0.000909501
0.000898353
0.000898353
0.00091339
0.00091339
0.000933621
0.000936978
0.000937096
0.000937011
0.000936997
0.000937044
0.000936919
0.000933986
0.000911271
0.000911271
0.000968231
0.000968231
0.0012065
0.00124268
0.001232
0.00122688
0.00122661
0.00123111
0.00124185
0.00121368
0.000969594
0.000969594
0.00153093
0.00153093
0.0043528
0.0047811
0.00462281
0.00455771
0.00455444
0.00461157
0.00477067
0.00443281
0.00156749
0.00156749
0.00554316
0.00554316
0.0260871
0.0295359
0.0290186
0.0287341
0.0287143
0.0289535
0.029486
0.0265536
0.00578182
0.00578182
0.0225605
0.0225605
0.116472
0.134156
0.134928
0.134637
0.13457
0.134728
0.134046
0.118134
0.0233804
0.0233804
0.000913901
0.000912498
0.000922728
0.000921659
0.000986532
0.000988926
0.0019427
0.00199432
0.03723
0.0386967
0.000911571
0.000910336
0.000915858
0.000914709
0.000927277
0.000926738
0.00146226
0.00148792
0.0393878
0.0409222
0.000909674
0.000908457
0.000913442
0.000912281
0.000920321
0.000919625
0.00140991
0.00143331
0.0430212
0.0447641
0.000908585
0.00090738
0.000912247
0.000911081
0.000917385
0.000916618
0.0014432
0.00146983
0.0448043
0.0466518
0.000908381
0.000907188
0.000912336
0.000911183
0.00091831
0.000917551
0.00179492
0.00183922
0.0454432
0.0473405
0.000908898
0.00090774
0.000913241
0.000912087
0.000924048
0.000923492
0.00225933
0.00232026
0.045483
0.0473579
0.000910206
0.000909066
0.000914064
0.000912895
0.000934253
0.000933783
0.00222317
0.00225617
0.0422318
0.0438046
0.000911761
0.000910546
0.000913263
0.000911997
0.000944307
0.000943718
0.00151478
0.00153473
0.0299427
0.0307789
0.000905762
0.000905762
0.000920809
0.000922688
0.000923098
0.000923259
0.000923273
0.000923112
0.000922769
0.000921024
0.000903451
0.000903451
0.00090103
0.00090103
0.000925003
0.000927836
0.00092825
0.000928369
0.000928377
0.000928287
0.00092795
0.000925274
0.000898695
0.000898695
0.000947896
0.000947896
0.00098586
0.000990979
0.00099234
0.000992779
0.000992775
0.000992408
0.000991087
0.000986413
0.000945971
0.000945971
0.00112635
0.00112635
0.0014862
0.00154902
0.00155945
0.00156243
0.00156245
0.00155973
0.00155052
0.00149351
0.00113027
0.00113027
0.00941289
0.00941289
0.0213279
0.0222913
0.0225519
0.0226356
0.0226383
0.0225662
0.0223321
0.0214737
0.00955236
0.00955236
)
;
        Cmu             0.09;
        kappa           0.41;
        E               9.8;
    }
    lid
    {
        type            epsilonWallFunction;
        value           nonuniform List<scalar> 
100
(
0.0225605
0.116472
0.134156
0.134928
0.134637
0.13457
0.134728
0.134046
0.118134
0.0233804
0.03723
0.278376
0.31111
0.312198
0.311654
0.311561
0.311935
0.311158
0.281773
0.0386967
0.0393878
0.287972
0.312983
0.313091
0.312534
0.312492
0.312994
0.313322
0.291527
0.0409222
0.0430212
0.315753
0.341432
0.342625
0.342481
0.342469
0.342635
0.342008
0.319788
0.0447641
0.0448043
0.325954
0.351933
0.353609
0.353658
0.35366
0.353674
0.352621
0.330183
0.0466518
0.0454432
0.321741
0.346791
0.348423
0.348495
0.3485
0.348516
0.347526
0.325918
0.0473405
0.045483
0.302625
0.324872
0.326579
0.326756
0.326768
0.32671
0.325618
0.306401
0.0473579
0.0422318
0.246704
0.262908
0.264932
0.265507
0.265532
0.2651
0.26354
0.249406
0.0438046
0.0299427
0.145425
0.153772
0.155136
0.155605
0.155623
0.155242
0.154114
0.14674
0.0307789
0.00941289
0.0213279
0.0222913
0.0225519
0.0226356
0.0226383
0.0225662
0.0223321
0.0214737
0.00955236
)
;
        Cmu             0.09;
        kappa           0.41;
        E               9.8;
    }
}


// ************************************************************************* //
