/*--------------------------------*- C++ -*----------------------------------*\
| =========                 |                                                 |
| \\      /  F ield         | OpenFOAM: The Open Source CFD Toolbox           |
|  \\    /   O peration     | Version:  2.3.1                                 |
|   \\  /    A nd           | Web:      www.OpenFOAM.org                      |
|    \\/     M anipulation  |                                                 |
\*---------------------------------------------------------------------------*/
FoamFile
{
    version     2.0;
    format      ascii;
    class       volScalarField;
    location    "0.85";
    object      nut;
}
// * * * * * * * * * * * * * * * * * * * * * * * * * * * * * * * * * * * * * //

dimensions      [0 2 -1 0 0 0 0];

internalField   nonuniform List<scalar> 
1000
(
0.000529343
0.000535415
0.000535615
0.000535612
0.000535609
0.000535608
0.000535607
0.000535606
0.000535582
0.000535064
0.000535713
0.000537724
0.000537895
0.000537903
0.000537904
0.000537904
0.0005379
0.000537891
0.000537723
0.000535463
0.000536405
0.000538467
0.000538669
0.000538684
0.000538688
0.000538686
0.00053868
0.000538665
0.000538464
0.000535912
0.000537018
0.00053928
0.000539515
0.000539542
0.000539551
0.000539551
0.00053954
0.000539515
0.000539287
0.000536544
0.00053744
0.000540084
0.000540357
0.000540394
0.000540405
0.000540405
0.000540396
0.000540363
0.000540106
0.000536986
0.00053558
0.000537181
0.000537344
0.000537364
0.00053737
0.000537373
0.000537373
0.000537368
0.000537234
0.00053544
0.000537405
0.0010372
0.00108624
0.00108881
0.00108898
0.00108905
0.00108908
0.00108735
0.00104138
0.000537149
0.000537955
0.0010969
0.00115567
0.00115866
0.00115878
0.00115879
0.00115874
0.00115646
0.00110098
0.000537693
0.000538508
0.00110133
0.00116108
0.00116412
0.00116424
0.00116424
0.00116417
0.00116181
0.00110515
0.000538249
0.000539009
0.00110358
0.00116472
0.00116798
0.00116816
0.00116816
0.00116804
0.00116546
0.00110735
0.000538757
0.000536159
0.000537635
0.000537802
0.000537821
0.000537828
0.000537831
0.000537832
0.000537827
0.000537676
0.000535758
0.000537787
0.00108706
0.0011442
0.00114715
0.0011473
0.00114735
0.00114736
0.00114524
0.0010914
0.000537548
0.000538272
0.00115358
0.00122292
0.00122654
0.00122668
0.00122668
0.00122662
0.00122383
0.00115832
0.000538042
0.000538744
0.00115789
0.00122838
0.00123208
0.00123223
0.00123223
0.00123214
0.00122926
0.00116252
0.000538512
0.000539271
0.00115838
0.00122985
0.00123369
0.00123386
0.00123386
0.00123375
0.00123073
0.00116295
0.000539042
0.000536408
0.000537878
0.00053804
0.000538057
0.000538064
0.000538067
0.000538068
0.000538061
0.00053791
0.000535982
0.000537997
0.00109319
0.00115095
0.00115386
0.00115399
0.00115402
0.00115401
0.00115182
0.00109708
0.000537755
0.000538427
0.00115706
0.00122683
0.00123046
0.0012306
0.0012306
0.00123053
0.00122771
0.00116165
0.0005382
0.000538837
0.00116092
0.0012317
0.00123541
0.00123555
0.00123555
0.00123547
0.00123257
0.00116549
0.000538607
0.000539349
0.00116099
0.00123232
0.00123609
0.00123624
0.00123624
0.00123615
0.00123319
0.00116552
0.000539118
0.000536544
0.000538011
0.00053817
0.000538185
0.000538191
0.000538193
0.000538194
0.000538187
0.000538034
0.0005361
0.000538119
0.00109728
0.00115542
0.00115834
0.00115846
0.00115848
0.00115845
0.00115621
0.00110093
0.000537869
0.000538516
0.00115789
0.00122755
0.00123116
0.0012313
0.0012313
0.00123123
0.00122841
0.00116235
0.000538285
0.000538894
0.00116132
0.00123179
0.00123547
0.00123561
0.00123561
0.00123553
0.00123266
0.0011658
0.000538661
0.000539385
0.00116146
0.00123214
0.00123583
0.00123598
0.00123598
0.00123589
0.00123299
0.00116591
0.00053915
0.000536564
0.000538085
0.000538248
0.000538263
0.000538268
0.00053827
0.00053827
0.000538261
0.000538104
0.000536112
0.000538148
0.00109996
0.00115837
0.00116128
0.00116138
0.00116139
0.00116133
0.00115905
0.00110341
0.000537893
0.000538547
0.00115839
0.00122797
0.00123157
0.00123171
0.00123171
0.00123163
0.00122881
0.00116274
0.000538313
0.000538932
0.00116156
0.00123182
0.00123547
0.00123562
0.00123562
0.00123553
0.00123267
0.00116596
0.000538696
0.000539429
0.00116188
0.00123213
0.00123579
0.00123593
0.00123593
0.00123584
0.00123297
0.00116624
0.000539191
0.000536476
0.000538133
0.000538307
0.000538323
0.000538328
0.00053833
0.000538328
0.000538317
0.000538148
0.000536017
0.000538087
0.00110037
0.0011588
0.00116171
0.00116182
0.00116182
0.00116176
0.00115947
0.00110378
0.000537827
0.000538528
0.00115837
0.00122786
0.00123145
0.00123159
0.00123159
0.00123152
0.00122869
0.00116268
0.000538288
0.000538967
0.00116145
0.00123157
0.00123522
0.00123536
0.00123537
0.00123528
0.00123242
0.00116581
0.000538726
0.000539517
0.00116177
0.00123185
0.0012355
0.00123565
0.00123565
0.00123556
0.00123268
0.00116609
0.000539273
0.000536273
0.000538056
0.00053824
0.000538258
0.000538264
0.000538265
0.000538262
0.000538248
0.00053807
0.000535811
0.000537927
0.00109736
0.00115517
0.00115804
0.00115815
0.00115815
0.00115809
0.00115582
0.0011007
0.000537661
0.000538436
0.00115388
0.00122235
0.00122587
0.00122599
0.001226
0.00122593
0.00122316
0.00115808
0.00053819
0.000538964
0.00115594
0.00122476
0.00122829
0.00122841
0.00122841
0.00122835
0.00122558
0.00116016
0.000538715
0.000539616
0.00115454
0.00122285
0.00122633
0.00122644
0.00122644
0.00122637
0.00122364
0.00115867
0.000539364
0.000535945
0.000537672
0.000537843
0.000537861
0.000537866
0.000537867
0.000537863
0.00053785
0.000537681
0.000535477
0.000537539
0.00103803
0.0010861
0.00108835
0.0010884
0.00108839
0.00108836
0.00108657
0.00104058
0.000537252
0.000538119
0.0010811
0.00113648
0.00113909
0.00113911
0.0011391
0.0011391
0.00113706
0.00108426
0.000537848
0.000538747
0.00107552
0.00112978
0.00113218
0.00113212
0.00113211
0.00113218
0.00113032
0.00107859
0.000538471
0.000539564
0.00106119
0.00111247
0.00111446
0.0011143
0.00111429
0.00111445
0.00111295
0.00106401
0.000539281
0.000535099
0.00053517
0.00053518
0.000535184
0.000535185
0.000535186
0.000535184
0.000535181
0.000535155
0.000534601
0.000535556
0.000537067
0.000537229
0.000537246
0.000537251
0.000537252
0.000537247
0.000537233
0.000537076
0.000535074
0.000536118
0.000537779
0.000537975
0.000538003
0.000538012
0.000538014
0.000538004
0.000537979
0.000537789
0.000535637
0.000536874
0.000538579
0.000538803
0.000538847
0.000538863
0.000538864
0.000538848
0.000538805
0.000538585
0.000536393
0.000538058
0.000539993
0.000540287
0.000540356
0.000540377
0.000540377
0.000540354
0.000540283
0.000539999
0.000537589
0.000541007
0.000546614
0.000547596
0.000547587
0.000547545
0.000547541
0.000547571
0.000547581
0.000546738
0.000540616
0.000555624
0.000617172
0.000626496
0.000623881
0.000622622
0.000622556
0.000623666
0.000626314
0.000618901
0.000556198
0.000671869
0.00101406
0.00105417
0.00104159
0.00103609
0.00103581
0.00104066
0.00105344
0.00102093
0.000678521
0.00105941
0.00182883
0.00191509
0.00190514
0.00189892
0.00189849
0.00190375
0.00191424
0.00183979
0.00107527
0.0016721
0.00294663
0.0030983
0.00310566
0.0031035
0.00310301
0.00310422
0.00309777
0.00296049
0.00169264
0.000540888
0.00102986
0.00107474
0.00107586
0.00107551
0.0010755
0.00107584
0.0010751
0.0010322
0.000540614
0.000543077
0.000994754
0.00103278
0.00103435
0.00103424
0.00103423
0.00103436
0.00103314
0.000996631
0.000542896
0.000559064
0.000908199
0.000933651
0.000948651
0.000953053
0.000953144
0.000949031
0.00093435
0.000907698
0.000559774
0.000725323
0.000718512
0.000740802
0.000743228
0.000744291
0.000744221
0.00074311
0.000740886
0.000721923
0.000732461
0.00197509
0.00388046
0.0040347
0.00404097
0.00403891
0.00403854
0.00403996
0.00403519
0.00389569
0.00200056
0.000540361
0.00115009
0.00121726
0.00122061
0.0012207
0.0012207
0.00122066
0.00121802
0.00115411
0.000540119
0.00054133
0.0011387
0.00120258
0.00120547
0.00120541
0.0012054
0.00120551
0.00120329
0.00114247
0.000541109
0.000544097
0.00108462
0.00113456
0.00114049
0.00114171
0.00114175
0.00114066
0.00113527
0.00108674
0.000544027
0.000649694
0.000628026
0.000638077
0.000641625
0.000642743
0.000642751
0.0006417
0.000638306
0.000629087
0.000653979
0.00201084
0.00392949
0.00404666
0.00404793
0.00404559
0.00404543
0.00404759
0.00404831
0.00394508
0.00203646
0.000539935
0.00116237
0.00123271
0.00123645
0.00123663
0.00123663
0.00123651
0.00123355
0.0011667
0.000539697
0.000540793
0.00115875
0.00122804
0.00123157
0.00123166
0.00123166
0.00123162
0.00122886
0.001163
0.000540567
0.00054245
0.00107231
0.00112292
0.0011262
0.00112611
0.00112608
0.00112617
0.00112333
0.00107436
0.000542336
0.000640497
0.000589759
0.000597208
0.000598752
0.000599211
0.000599219
0.000598797
0.00059739
0.00059072
0.000644482
0.00207463
0.00405288
0.0041662
0.00417198
0.00417152
0.00417149
0.00417208
0.00416867
0.00406944
0.00210204
0.000539688
0.00116293
0.00123364
0.00123741
0.00123759
0.00123759
0.00123747
0.0012345
0.00116733
0.000539452
0.000540531
0.00116063
0.00123078
0.00123439
0.00123451
0.00123451
0.00123445
0.00123161
0.00116496
0.000540305
0.000541779
0.00107871
0.00112972
0.00113152
0.00113093
0.00113088
0.00113139
0.00112996
0.00108074
0.000541648
0.000648899
0.000566622
0.000573027
0.000573273
0.000573267
0.000573271
0.000573277
0.000573146
0.000567649
0.000653494
0.00210392
0.00409221
0.00420417
0.00421166
0.00421193
0.00421194
0.00421196
0.004207
0.0041091
0.00213212
0.000539642
0.00116262
0.00123412
0.00123796
0.00123816
0.00123816
0.00123803
0.00123499
0.0011671
0.000539409
0.000540553
0.00115877
0.00123103
0.00123481
0.00123493
0.00123493
0.00123486
0.0012319
0.0011632
0.000540329
0.000542024
0.00106905
0.00111592
0.00111612
0.00111528
0.00111526
0.00111604
0.00111618
0.00107094
0.000541898
0.000705639
0.000574267
0.000585264
0.000587422
0.000588231
0.00058825
0.000587514
0.000585584
0.00057589
0.000712071
0.0021144
0.00406806
0.00417638
0.00418373
0.0041841
0.00418414
0.00418414
0.00417939
0.00408475
0.00214295
0.000539759
0.00116262
0.00123522
0.0012392
0.00123942
0.00123942
0.00123927
0.00123612
0.00116719
0.000539533
0.000540741
0.00115612
0.00123166
0.00123572
0.00123585
0.00123585
0.00123578
0.00123256
0.00116068
0.000540518
0.000543377
0.00106874
0.00111568
0.00111332
0.00111132
0.00111127
0.00111312
0.00111579
0.00107086
0.000543299
0.000763826
0.000604719
0.000619515
0.000623788
0.00062545
0.000625486
0.000623958
0.000619978
0.000606252
0.000770953
0.00211193
0.00396736
0.00406626
0.00407519
0.00407675
0.00407682
0.00407585
0.00406941
0.0039827
0.00213962
0.000540056
0.00116079
0.00123401
0.00123809
0.00123832
0.00123832
0.00123815
0.00123493
0.0011654
0.000539834
0.000540898
0.00115531
0.00123529
0.00124
0.00124026
0.00124025
0.00124007
0.00123624
0.00116006
0.000540672
0.000545525
0.00112381
0.0011821
0.00118314
0.00118226
0.00118223
0.00118305
0.00118257
0.00112703
0.000545457
0.000743095
0.000617382
0.000631532
0.00063495
0.000636152
0.000636179
0.000635053
0.000631846
0.000618126
0.000746091
0.00204721
0.00367289
0.00375418
0.00376472
0.00376781
0.00376794
0.00376555
0.00375713
0.00368518
0.00207092
0.000540406
0.001108
0.00117135
0.0011748
0.00117499
0.00117499
0.00117486
0.00117212
0.00111185
0.000540169
0.000540686
0.00111768
0.00119247
0.00119762
0.00119815
0.00119816
0.0011977
0.00119338
0.00112201
0.000540442
0.000547489
0.00114481
0.00120926
0.00121391
0.00121451
0.00121452
0.00121398
0.00121003
0.00114832
0.000547392
0.00065226
0.000655706
0.000676313
0.000676293
0.000675667
0.000675645
0.000676223
0.000676414
0.000656302
0.000655244
0.00180304
0.00305574
0.00311546
0.00312502
0.00312827
0.0031284
0.00312572
0.0031177
0.00306431
0.00181854
0.000539167
0.000542425
0.000542836
0.000542926
0.000542962
0.000542965
0.00054293
0.000542854
0.00054247
0.000538715
0.000538039
0.000543327
0.000543965
0.00054406
0.000544087
0.000544089
0.000544069
0.00054399
0.000543387
0.000537581
0.000548015
0.000556024
0.000557093
0.000557374
0.000557466
0.000557466
0.000557388
0.000557118
0.000556136
0.000547654
0.000584451
0.0006478
0.000657991
0.000659613
0.000660064
0.000660064
0.000659652
0.000658215
0.000648925
0.000585227
0.00120951
0.00160217
0.0016276
0.00163437
0.00163651
0.00163657
0.00163472
0.00162861
0.00160579
0.00121531
)
;

boundaryField
{
    walls
    {
        type            nutkWallFunction;
        Cmu             0.09;
        kappa           0.41;
        E               9.8;
        value           nonuniform List<scalar> 
500
(
6.44682e-05
6.44682e-05
6.44682e-05
6.52056e-05
6.52056e-05
6.52288e-05
6.52288e-05
6.52284e-05
6.52284e-05
6.5228e-05
6.5228e-05
6.52279e-05
6.52279e-05
6.52277e-05
6.52277e-05
6.52276e-05
6.52276e-05
6.52249e-05
6.52249e-05
6.51627e-05
6.51627e-05
6.51627e-05
6.52394e-05
6.52394e-05
6.54657e-05
6.54844e-05
6.54853e-05
6.54854e-05
6.54853e-05
6.54849e-05
6.54839e-05
6.54653e-05
6.5207e-05
6.5207e-05
6.53174e-05
6.53174e-05
6.5548e-05
6.55702e-05
6.55718e-05
6.55721e-05
6.55719e-05
6.55713e-05
6.55696e-05
6.55475e-05
6.52574e-05
6.52574e-05
6.53848e-05
6.53848e-05
6.56377e-05
6.56634e-05
6.56664e-05
6.56673e-05
6.56672e-05
6.5666e-05
6.56633e-05
6.56383e-05
6.53272e-05
6.53272e-05
6.54358e-05
6.54358e-05
6.57301e-05
6.576e-05
6.57641e-05
6.57653e-05
6.57652e-05
6.57642e-05
6.57606e-05
6.57326e-05
6.53807e-05
6.53807e-05
6.52227e-05
6.52227e-05
6.54061e-05
6.54246e-05
6.54269e-05
6.54276e-05
6.54279e-05
6.5428e-05
6.54275e-05
6.54125e-05
6.52048e-05
6.52048e-05
6.54315e-05
6.54003e-05
6.54931e-05
6.54612e-05
6.55544e-05
6.55229e-05
6.56128e-05
6.55821e-05
6.5289e-05
6.5289e-05
6.54569e-05
6.54756e-05
6.54779e-05
6.54787e-05
6.54791e-05
6.54792e-05
6.54786e-05
6.54619e-05
6.52403e-05
6.52403e-05
6.54741e-05
6.54451e-05
6.55283e-05
6.55003e-05
6.55809e-05
6.55527e-05
6.56408e-05
6.56129e-05
6.53171e-05
6.53171e-05
6.54841e-05
6.55023e-05
6.55042e-05
6.55049e-05
6.55053e-05
6.55054e-05
6.55048e-05
6.54879e-05
6.52653e-05
6.52653e-05
6.54975e-05
6.54682e-05
6.55455e-05
6.55179e-05
6.55913e-05
6.55633e-05
6.56487e-05
6.56206e-05
6.53324e-05
6.53324e-05
6.5499e-05
6.55167e-05
6.55184e-05
6.5519e-05
6.55193e-05
6.55194e-05
6.55187e-05
6.55017e-05
6.52784e-05
6.52784e-05
6.5511e-05
6.54808e-05
6.55554e-05
6.55273e-05
6.55976e-05
6.55693e-05
6.56523e-05
6.56237e-05
6.53346e-05
6.53346e-05
6.55071e-05
6.55252e-05
6.55268e-05
6.55275e-05
6.55277e-05
6.55277e-05
6.55268e-05
6.55093e-05
6.52796e-05
6.52796e-05
6.55143e-05
6.54834e-05
6.55589e-05
6.55303e-05
6.56019e-05
6.55732e-05
6.56572e-05
6.56282e-05
6.53247e-05
6.53247e-05
6.55119e-05
6.55311e-05
6.55329e-05
6.55335e-05
6.55337e-05
6.55335e-05
6.55323e-05
6.55137e-05
6.52691e-05
6.52691e-05
6.55075e-05
6.5476e-05
6.55567e-05
6.55276e-05
6.56058e-05
6.55764e-05
6.56672e-05
6.56375e-05
6.53021e-05
6.53021e-05
6.55028e-05
6.55231e-05
6.5525e-05
6.55256e-05
6.55258e-05
6.55255e-05
6.55241e-05
6.55044e-05
6.5246e-05
6.5246e-05
6.54897e-05
6.54575e-05
6.55465e-05
6.55167e-05
6.56053e-05
6.55752e-05
6.56783e-05
6.56477e-05
6.52654e-05
6.52654e-05
6.54598e-05
6.54787e-05
6.54806e-05
6.54812e-05
6.54813e-05
6.54809e-05
6.54795e-05
6.54609e-05
6.52086e-05
6.52086e-05
6.54466e-05
6.54119e-05
6.55113e-05
6.54785e-05
6.55813e-05
6.55479e-05
6.56723e-05
6.56381e-05
6.51665e-05
6.51665e-05
6.51665e-05
6.51743e-05
6.51743e-05
6.51754e-05
6.51754e-05
6.51758e-05
6.51758e-05
6.5176e-05
6.5176e-05
6.5176e-05
6.5176e-05
6.51759e-05
6.51759e-05
6.51755e-05
6.51755e-05
6.51726e-05
6.51726e-05
6.51061e-05
6.51061e-05
6.51061e-05
6.52175e-05
6.52175e-05
6.53909e-05
6.5409e-05
6.54109e-05
6.54115e-05
6.54115e-05
6.54111e-05
6.54095e-05
6.53919e-05
6.51589e-05
6.51589e-05
6.52801e-05
6.52801e-05
6.54702e-05
6.54921e-05
6.54952e-05
6.54962e-05
6.54963e-05
6.54953e-05
6.54926e-05
6.54715e-05
6.52217e-05
6.52217e-05
6.5364e-05
6.5364e-05
6.55586e-05
6.55835e-05
6.55883e-05
6.559e-05
6.55901e-05
6.55883e-05
6.55837e-05
6.55594e-05
6.53056e-05
6.53056e-05
6.54949e-05
6.54949e-05
6.57105e-05
6.57422e-05
6.57496e-05
6.57519e-05
6.57519e-05
6.57493e-05
6.57417e-05
6.5711e-05
6.54377e-05
6.54377e-05
6.58109e-05
6.58109e-05
6.63382e-05
6.64267e-05
6.64285e-05
6.64258e-05
6.64254e-05
6.64271e-05
6.64252e-05
6.63484e-05
6.57612e-05
6.57612e-05
6.72097e-05
6.72097e-05
7.28104e-05
7.36096e-05
7.33788e-05
7.32678e-05
7.32619e-05
7.33596e-05
7.35924e-05
7.29664e-05
6.72503e-05
6.72503e-05
7.87901e-05
7.87901e-05
0.000111764
0.000115331
0.000114091
0.000113566
0.000113539
0.000114001
0.000115253
0.000112428
7.94341e-05
7.94341e-05
0.000119574
0.000119574
0.000194974
0.000202797
0.000201729
0.000201118
0.000201075
0.00020159
0.000202697
0.000196045
0.000121194
0.000121194
0.000184662
0.000184662
0.000306882
0.000320627
0.000321223
0.000321013
0.000320965
0.00032108
0.000320555
0.00030821
0.000186722
0.000186722
6.58164e-05
6.57831e-05
6.60394e-05
6.6015e-05
6.76246e-05
6.76864e-05
8.5042e-05
8.57856e-05
0.000215452
0.000218023
6.57589e-05
6.57295e-05
6.58647e-05
6.58375e-05
6.61506e-05
6.6139e-05
7.72796e-05
7.77325e-05
0.000219173
0.000221757
6.57121e-05
6.56832e-05
6.58054e-05
6.57778e-05
6.59778e-05
6.5962e-05
7.63293e-05
7.67526e-05
0.000225288
0.000228045
6.56852e-05
6.56565e-05
6.57761e-05
6.57485e-05
6.59054e-05
6.58878e-05
7.70097e-05
7.74871e-05
0.00022814
0.000230978
6.56801e-05
6.56517e-05
6.57784e-05
6.5751e-05
6.59292e-05
6.5912e-05
8.2875e-05
8.35494e-05
0.000229146
0.000232028
6.56929e-05
6.56653e-05
6.58002e-05
6.57729e-05
6.60719e-05
6.60596e-05
8.93055e-05
9.00807e-05
0.000229131
0.000231965
6.57253e-05
6.56982e-05
6.58196e-05
6.5792e-05
6.63166e-05
6.63063e-05
8.83712e-05
8.87716e-05
0.000223643
0.000226133
6.57637e-05
6.57348e-05
6.5799e-05
6.5769e-05
6.65517e-05
6.65386e-05
7.8022e-05
7.83582e-05
0.000200626
0.000202306
6.56188e-05
6.56188e-05
6.59857e-05
6.60315e-05
6.60414e-05
6.60454e-05
6.60457e-05
6.60418e-05
6.60334e-05
6.59909e-05
6.55636e-05
6.55636e-05
6.54996e-05
6.54996e-05
6.60873e-05
6.61566e-05
6.61667e-05
6.61697e-05
6.61699e-05
6.61677e-05
6.61593e-05
6.60939e-05
6.54437e-05
6.54437e-05
6.66301e-05
6.66301e-05
6.75222e-05
6.76408e-05
6.76721e-05
6.76823e-05
6.76822e-05
6.76737e-05
6.76433e-05
6.75349e-05
6.65857e-05
6.65857e-05
7.064e-05
7.064e-05
7.75309e-05
7.86152e-05
7.87909e-05
7.88407e-05
7.88409e-05
7.87955e-05
7.86403e-05
7.76566e-05
7.07234e-05
7.07234e-05
0.000139714
0.000139714
0.000180478
0.000183002
0.000183672
0.000183885
0.000183892
0.000183708
0.000183106
0.000180858
0.000140354
0.000140354
)
;
    }
    lid
    {
        type            nutkWallFunction;
        Cmu             0.09;
        kappa           0.41;
        E               9.8;
        value           nonuniform List<scalar> 
100
(
0.000184662
0.000306882
0.000320627
0.000321223
0.000321013
0.000320965
0.00032108
0.000320555
0.00030821
0.000186722
0.000215452
0.000398768
0.000412659
0.000413133
0.000412921
0.000412884
0.000413031
0.000412685
0.00040023
0.000218023
0.000219173
0.000403014
0.000413503
0.000413565
0.000413342
0.000413326
0.000413528
0.000413643
0.000404509
0.000221757
0.000225288
0.000414479
0.000424595
0.000425067
0.000425016
0.000425011
0.000425072
0.000424815
0.000416068
0.000228045
0.00022814
0.000418415
0.000428422
0.00042906
0.00042908
0.000429081
0.000429085
0.000428678
0.000420041
0.000230978
0.000229146
0.000416614
0.000426342
0.00042697
0.000426998
0.000427
0.000427005
0.000426618
0.000418231
0.000232028
0.000229131
0.000408494
0.000417492
0.0004182
0.000418289
0.000418294
0.000418254
0.000417785
0.000410012
0.000231965
0.000223643
0.000383095
0.000390642
0.000391576
0.000391844
0.000391855
0.000391653
0.000390926
0.000384342
0.000226133
0.000200626
0.000325564
0.000331207
0.000332108
0.000332416
0.000332429
0.000332177
0.000331429
0.000326444
0.000202306
0.000139714
0.000180478
0.000183002
0.000183672
0.000183885
0.000183892
0.000183708
0.000183106
0.000180858
0.000140354
)
;
    }
}


// ************************************************************************* //
