/*--------------------------------*- C++ -*----------------------------------*\
| =========                 |                                                 |
| \\      /  F ield         | OpenFOAM: The Open Source CFD Toolbox           |
|  \\    /   O peration     | Version:  2.3.1                                 |
|   \\  /    A nd           | Web:      www.OpenFOAM.org                      |
|    \\/     M anipulation  |                                                 |
\*---------------------------------------------------------------------------*/
FoamFile
{
    version     2.0;
    format      ascii;
    class       volSymmTensorField;
    location    "5420";
    object      sigma;
}
// * * * * * * * * * * * * * * * * * * * * * * * * * * * * * * * * * * * * * //

dimensions      [1 -1 -2 0 0 0 0];

internalField   nonuniform List<symmTensor> 
11800
(
(164118 77030.5 7.84462e-14 -2896.18 4.15372e-14 40002.4)
(-80620.9 66820.5 1.20431e-13 84.2179 3.81729e-14 -19982.8)
(743500 100285 -2.0166e-15 1712.77 -8.67633e-14 184902)
(-644527 48832 0 -2428.75 0 -160523)
(-83699.7 64437.9 2.24696e-14 -4625.11 -6.34566e-14 -21915.2)
(-402862 102955 8.69369e-14 1952.81 4.55818e-14 -99473.6)
(-75106.7 98348.7 1.64745e-13 -555.338 -4.28229e-14 -18773.3)
(-105857 102892 -2.45156e-14 841.47 9.85783e-14 -26056.6)
(227741 49356.2 3.24505e-14 467.182 -2.21397e-14 56623.2)
(156667 108725 -8.42298e-14 478.497 -7.09157e-14 38991)
(189275 62579.6 -6.54374e-14 2154.82 5.59933e-14 47497.5)
(-934678 34446.6 -7.79908e-14 -6906.22 -3.53669e-14 -233626)
(25705.4 -37335.4 1.39372e-16 -69279.1 1.0831e-16 -10811.5)
(688518 49497.7 7.06745e-14 4185.13 -1.93253e-14 171874)
(-549488 96495.8 -5.90499e-14 6231.26 4.58825e-14 -134793)
(2.51985e+06 -11331.8 0 -8653.5 0 623079)
(-49023.1 75607.6 5.57511e-14 4845.15 4.91323e-15 -10961.4)
(-75645.6 69699.5 -3.14371e-14 9459.32 1.80437e-13 -16422.2)
(158104 121700 -3.18363e-14 -20195.2 2.261e-14 34217.9)
(119497 63435.1 -1.12094e-13 -13432 -3.62439e-14 26317)
(-505835 55770.8 3.49577e-14 -2446.73 3.66224e-14 -126115)
(-817823 90735.9 5.59014e-14 4205.05 -3.2491e-14 -201875)
(-1.05539e+06 115394 -2.79424e-14 13066.8 1.79399e-14 -258622)
(-968388 64512.8 2.79905e-16 330.346 4.84644e-15 -240195)
(2.05859e+06 86824 3.55515e-15 -9102.79 4.05157e-14 508519)
(-1.26195e+06 115444 -2.74551e-14 9149.08 -7.75148e-16 -310846)
(-1.35018e+06 60234.2 0 11914.7 0 -332052)
(668875 43584 -9.28788e-14 -5416.29 -5.60692e-14 164618)
(-1.46789e+06 61467.9 -1.58895e-14 12974.2 -7.65449e-14 -360995)
(-1.58544e+06 61862 2.12229e-14 15503 -3.29524e-14 -389534)
(438083 45892.4 -1.15168e-13 -2200.28 -2.06302e-13 108151)
(87792.7 59258.1 -1.82891e-14 2936.7 -1.50794e-14 22511.8)
(1.2912e+06 111592 -4.50122e-15 14959.8 -1.96031e-14 324086)
(-31402.6 80263.3 1.50627e-14 -2318.69 -1.12746e-13 -8366.92)
(22356 85463.7 -3.9842e-14 1990.75 -1.70937e-13 6040.91)
(-427335 33475.3 -1.04565e-13 -2107.17 -7.59396e-14 -106553)
(24853.9 86906.3 1.41497e-13 1583.1 -1.68203e-13 6559.57)
(1.38405e+06 62076.9 -1.65369e-14 7508.05 -7.04191e-14 345274)
(-50691 84022.7 0 -1098.68 0 -12850.1)
(114112 79488.4 -4.86415e-14 6706.8 9.05756e-14 29977.7)
(-1.41854e+06 43503.9 -8.61873e-14 -7336.07 -4.00339e-14 -353789)
(-1.54225e+06 42831.6 6.17101e-14 -7832.9 -3.53912e-14 -384606)
(703300 59638.9 -3.58407e-14 -131.073 -1.19183e-13 174470)
(-1.66562e+06 42955.2 -1.16861e-14 -5476.63 -6.24958e-14 -414634)
(460731 58586.9 3.0607e-13 945.188 -9.54283e-14 114551)
(2.35725e+06 54814.4 0 -8156.16 0 582857)
(1.01468e+06 126903 -1.76569e-14 -3661.66 9.22935e-15 250854)
(1.20784e+06 42444.2 -3.11944e-14 -13177.5 -2.16291e-14 296420)
(-119200 87301.8 -1.21329e-13 982.299 -7.47153e-14 -29332.3)
(273619 84473.1 0 2606.71 0 68537.2)
(-972642 50129.4 -5.8872e-15 2446.77 6.21696e-14 -240725)
(-681925 46297.4 2.03373e-13 2717.55 2.3814e-14 -168525)
(-13919 84624.3 1.14117e-13 1343.25 7.10182e-14 -3120.3)
(51150.4 138747 -2.44706e-15 9243.94 2.13235e-14 14985.1)
(-2.70869e+06 4310.32 -3.73409e-15 -13995.8 -5.89252e-15 -675553)
(2.10383e+06 -99052.2 5.05183e-15 -96130.8 8.85534e-15 498150)
(-72426.4 18456.2 9.82313e-14 1996.61 3.64672e-14 -17475.1)
(-608965 101655 7.31763e-15 -6898.83 -6.06049e-14 -152808)
(489783 61981.8 -6.18524e-14 10193.9 9.05641e-14 124054)
(-429919 107640 5.06266e-14 -7983.47 -9.13834e-15 -108653)
(2.18104e+06 19247.5 -4.41564e-14 -16676.4 -1.52992e-14 537023)
(-59572.1 89278.9 4.83023e-14 958.565 -7.85664e-14 -14543.2)
(-479518 82185.1 -2.77925e-14 -2912.85 4.77443e-14 -119701)
(384929 82158.1 8.44449e-14 3944.75 -4.81476e-14 96487.6)
(2.03169e+06 9467.35 4.80997e-15 -1296.16 -2.92126e-14 503782)
(-298895 32275 -1.38172e-13 1936.72 -1.66922e-13 -73681.3)
(-1.00257e+06 19467.9 9.70674e-14 5356.84 3.23456e-14 -247428)
(-710425 22832.3 2.86135e-15 3837.77 -1.70511e-13 -175319)
(-75239.1 19911.8 0 -3778.52 0 -19605.9)
(-1.17642e+06 61461.6 -2.21229e-15 12363.9 7.17422e-14 -288827)
(-24431.8 85882.2 -2.7685e-14 15.7896 5.7129e-14 -6058.1)
(-59078.5 66309.1 -1.06653e-13 -3327.18 1.19258e-13 -15484.1)
(-51698.9 64991.8 7.47997e-14 -1075.84 -4.57607e-14 -13094.5)
(-1.76563e+06 376534 -6.30983e-15 214773 5.66721e-15 -384799)
(2.16361e+06 74145 -1.74044e-15 -7311.32 -1.7514e-14 535023)
(-401441 53260.3 -1.02736e-13 2720.12 -7.46953e-14 -98930.8)
(2.13213e+06 10859 -3.72224e-14 4302.8 3.3121e-14 530092)
(-290157 18087.2 9.08544e-14 -571.939 -2.97929e-13 -72135.8)
(-214913 42293.2 1.70862e-14 -856.523 -1.62959e-14 -53536.8)
(-202404 57506.9 1.74443e-13 2053.18 1.7484e-13 -49711.2)
(-2.72811e+06 -54454 1.36154e-14 12275.4 6.41662e-14 -673853)
(121115 56516.9 0 9968.2 0 32524.4)
(63996.9 69088 -1.81352e-13 2263.03 -7.14187e-14 16440.4)
(44518 73902.3 6.28761e-14 950.684 -4.94526e-16 11281.7)
(-94758.5 65745.7 4.28945e-14 -9772.87 1.21325e-13 -25936.4)
(-1.54585e+06 75677.5 -2.38746e-14 -8228.45 1.19953e-13 -385597)
(476483 52571.3 1.46282e-13 5084.2 -4.54719e-14 119487)
(-1.42765e+06 74324.3 0 -8412.87 0 -356317)
(-1.31049e+06 72777.2 -5.01245e-14 -7474.25 -5.1317e-14 -327015)
(707696 49673.3 6.69767e-14 6313.08 4.09642e-15 177160)
(-14739.1 84307.9 -2.3643e-13 -3292.06 -1.51555e-13 -4473.9)
(1.52723e+06 102675 0 -4845.14 0 377735)
(-127247 73220.2 -5.01626e-14 1901.66 -8.31284e-14 -31100.8)
(78048.7 13252.7 -2.89146e-14 5175.93 -4.19465e-14 20649.7)
(193712 75334.5 2.21488e-13 1900.72 3.9661e-15 48535.4)
(59466.7 -44840.1 -8.87019e-16 -126295 -6.57539e-16 -16581.4)
(-3153.04 12345.3 2.31138e-17 7416.12 -1.37525e-16 1057.76)
(-60100.3 -44613.5 -5.62017e-16 126119 3.74443e-16 16380.7)
(-14691.7 85778.1 -7.35072e-14 462.203 -1.06808e-15 -3530.63)
(-814836 55168.9 -1.79977e-14 -3070.65 7.16605e-14 -202939)
(56027.4 37287.4 4.03978e-14 25.8492 -1.12943e-13 13908)
(889567 62630.1 -8.71609e-14 -7929.21 -1.20462e-13 218752)
(-1.44819e+06 117423 5.78123e-15 -977.662 1.17693e-14 -359568)
(-472939 76379.3 -3.57508e-15 7435.16 1.12659e-14 -115501)
(-2557.43 91826 -1.13423e-14 -934.725 -5.64068e-14 -866.474)
(379735 105444 -2.32112e-14 2628.74 -4.00728e-14 94872.1)
(-182787 76166.7 -6.93505e-14 -1069.8 1.52797e-13 -45618.7)
(-128138 79237.4 -2.35148e-13 -761.32 -1.13338e-13 -31982.5)
(2.15355e+06 19030.5 1.30717e-14 5701.01 2.71207e-14 535755)
(1.44259e+06 62336.2 2.14123e-14 5335.59 4.3568e-15 359259)
(1.56216e+06 63561.5 4.1018e-14 6120.06 5.70005e-14 389121)
(1.32433e+06 61687.2 1.5042e-13 4672.87 8.90803e-14 329752)
(-481758 54504.4 6.85279e-14 -4031.61 1.0698e-13 -120534)
(-715139 53744.2 -1.81183e-13 -4937.62 6.51137e-14 -178666)
(259830 68425.9 7.70587e-14 -39.1593 -4.03696e-14 64459.4)
(1.9388e+06 34438.7 1.96457e-14 -8.85558 1.15644e-14 481053)
(275834 30472.6 -5.64979e-14 -3122.64 -2.2203e-13 67665.3)
(-88084.4 79281.7 -1.95948e-13 825.952 1.83111e-13 -21650.6)
(1.81595e+06 79525.7 -2.24575e-14 1408.96 2.79645e-14 450924)
(-157674 112825 -6.32424e-14 -306.8 -1.7011e-14 -39198.3)
(-241936 42615.8 -4.31682e-14 4225.98 -1.81529e-14 -58980.8)
(77058.3 98376.1 1.40173e-13 -2363.8 -2.00564e-13 18533.2)
(110156 106008 -9.75907e-14 -2110.7 6.70901e-14 26808.2)
(-79129.1 80235.4 -2.84211e-14 4969.18 -4.19099e-14 -18400.6)
(-134279 69126.9 -1.78417e-13 -1513.78 -1.39153e-13 -33692.9)
(-2884.82 84165.6 -1.71484e-13 -2558.79 -1.28959e-13 -1350.67)
(-40741.9 83407.9 -1.02809e-13 -109.986 1.12889e-13 -10136.2)
(-9497.17 85953.6 -6.72082e-14 -2431.09 -6.4017e-14 -2959.64)
(10230.8 58236.8 3.19148e-15 42973.4 1.42993e-13 13201.1)
(-40282.2 3028.83 -4.59764e-16 -9348.04 6.79012e-14 -12314.3)
(-2.26515e+06 -366867 2.03402e-14 92621.9 -1.02417e-14 -539049)
(-1.64598e+06 76843.4 1.47366e-14 -12651.6 -2.24787e-15 -411541)
(519851 48017.7 7.73848e-14 3656.59 -7.54413e-14 129893)
(-1.54247e+06 79201.4 -5.92749e-14 336.929 3.71922e-14 -382633)
(755153 44003.8 -3.48032e-14 4069.44 1.05453e-13 188379)
(-1.42192e+06 76731.3 2.26233e-14 363.12 2.27289e-14 -352716)
(-1.30313e+06 74590.6 -1.30787e-13 962.449 9.98652e-14 -323095)
(432818 69365.4 7.58299e-14 -5584.68 2.11145e-13 106005)
(-1.31862e+06 28133.1 8.10083e-14 8502.9 -1.11198e-13 -325067)
(632821 73428.1 9.39678e-14 -7012.31 -7.47887e-14 155276)
(-1.21623e+06 29849.3 6.72024e-14 7526.8 -1.15544e-13 -299903)
(-1.11516e+06 31859.8 -6.96685e-14 7353.05 -6.27036e-14 -274870)
(-616946 95680.3 5.18032e-15 19406.9 5.20582e-14 -148262)
(191803 79692 -3.78651e-14 -6011.74 -2.51924e-13 46098.7)
(274258 77933.5 -6.04569e-14 -8401.52 -1.7452e-13 65964.4)
(-399035 76505.5 -1.8164e-14 12560.9 1.04481e-13 -95892)
(1.61448e+06 48446 -1.15034e-13 2282.92 -3.88098e-14 401151)
(-1.66223e+06 -24940.8 1.10557e-13 -13032.1 3.41482e-14 -415666)
(936878 44555.2 7.78481e-14 -2446.36 -7.24871e-14 231851)
(-469048 43378 1.72006e-15 8479.18 1.01996e-14 -114276)
(-217584 76011.4 -9.81733e-14 1939.3 -8.10788e-14 -53505.9)
(-228108 61837.4 8.402e-14 -3398.39 -7.59702e-14 -57441.4)
(24520.4 85021.4 6.38744e-14 1470.35 1.16601e-13 6448.84)
(-324121 53890.9 -1.43625e-13 -1319.93 1.4886e-13 -80748.6)
(280274 65871.7 -7.52386e-14 -4628.75 -7.94479e-14 68393.2)
(190807 74635.1 -6.89931e-14 3075.6 5.31483e-14 48106.1)
(-605396 61930.8 1.16742e-13 8166.62 -7.85441e-14 -148185)
(-847393 69325.6 4.23544e-14 3599.64 9.26928e-14 -209362)
(1.70376e+06 18143.6 2.59609e-14 2011.01 -3.36864e-16 423237)
(-8027.16 89631.3 3.35286e-14 -999.084 -1.62989e-13 -2239.59)
(2.45157e+06 86124.2 -3.01173e-14 -14662.9 -1.63976e-14 604646)
(-266814 67952.9 -1.24056e-13 916.854 8.54371e-14 -65974.4)
(2.14691e+06 54572.2 0 -21462 0 527367)
(-617160 69250.4 3.62845e-14 -6565.97 1.51515e-13 -154759)
(-672688 69145.6 -3.72028e-14 -7324.68 4.40895e-14 -168725)
(-727520 69983.4 -6.04995e-15 -7606.65 1.59183e-13 -182400)
(342424 76876.8 -9.18682e-14 1278.1 2.25802e-14 85279.4)
(233281 78071.8 -9.80898e-14 883.633 2.42015e-14 58101)
(-2.66e+06 -24112.5 2.38536e-14 -9998.55 -1.35911e-14 -662481)
(-1.66936e+06 75173.4 -2.47036e-14 -9908.59 4.64838e-14 -416660)
(593366 51658.2 -9.78905e-14 5388.38 -5.72605e-14 148563)
(824414 48893.7 2.74625e-13 6732.11 -1.47529e-13 206224)
(91586.2 85558 5.38224e-14 -8610.87 -1.39079e-13 20587.9)
(-482551 37702.2 0 1612.95 0 -119331)
(-488034 18987 1.47248e-13 -3516.61 -7.48253e-14 -121964)
(2.35216e+06 60772.2 3.92299e-14 -16494.6 2.61469e-14 579526)
(2.40674e+06 -17662.8 3.25321e-14 14787.6 2.87082e-14 600830)
(1.27502e+06 22408.5 2.04162e-15 -1387.43 6.89524e-14 316014)
(1.17185e+06 25077.6 1.42127e-14 -1144.19 1.67649e-13 290476)
(1.37945e+06 19764.1 3.55658e-14 -2544.1 -5.14147e-14 341639)
(-604206 75627.2 -8.87647e-14 4902.05 7.98243e-14 -148699)
(-400913 70577 -8.61678e-14 3860.28 9.4456e-14 -98516.8)
(263613 101773 0 2181.44 0 65948.9)
(180784 97465.4 -3.57055e-15 791.28 1.36924e-13 45052.6)
(573575 74980.6 -1.05262e-13 14.3359 8.603e-14 142319)
(-241490 70617.9 -8.41883e-14 3283.99 1.99459e-13 -59103.9)
(-372739 107476 -1.65739e-14 4787.71 7.31736e-14 -91296.3)
(117053 76930.8 -3.13887e-13 -880.236 -8.32469e-14 28824.9)
(166772 73758.2 -2.16907e-13 -1322.65 9.07043e-14 41051.3)
(-101395 89583.8 -4.23359e-14 2327.4 -5.91975e-16 -24580.7)
(-284002 56820.9 -3.47914e-14 6237.96 -2.17044e-14 -68918.8)
(-261698 58557.7 2.30195e-14 5552.55 -3.92734e-14 -63554.8)
(-265459 41373.3 0 -421.401 0 -65970.4)
(-124643 111118 4.70866e-16 -5590.25 -4.52992e-14 -32313.6)
(-1.22946e+06 16.9875 1.02673e-13 -7381.22 -4.49507e-14 -306886)
(1.54098e+06 58481.2 -1.33156e-13 -6961.83 -1.34345e-14 380620)
(1.85918e+06 185979 7.83213e-15 -315858 3.95298e-15 382929)
(-44448.7 74040.7 2.80382e-14 -3928.48 -6.35207e-14 -12003.4)
(287789 23855.1 1.02304e-13 2502.47 -2.33486e-13 72027.2)
(-2.325e+06 -293131 1.9555e-14 187600 -1.25854e-14 -530331)
(134245 58422.1 4.38047e-15 4031.3 1.18658e-13 34309.1)
(368754 40744.8 8.25756e-14 857.986 -9.47662e-14 91708.3)
(407803 45106 1.15306e-13 -5696.68 -4.86309e-14 99770.8)
(-5020.5 88443.6 8.68777e-14 -50.817 -1.2878e-14 -1258.3)
(-5732.07 91741.6 9.16404e-14 -649.742 7.74546e-15 -1583.46)
(1.11548e+06 32499.1 2.92179e-14 -5199.01 9.69943e-14 275484)
(924910 97935.8 3.70772e-14 8757.41 -8.93389e-15 231662)
(-842122 80526.2 0 8336.93 0 -206879)
(-719550 40583.3 -9.45269e-14 -11099.3 -5.9099e-14 -181289)
(2.26113e+06 -370782 -8.21211e-15 -94914.1 -5.52257e-15 537482)
(-698935 125204 -7.52557e-15 19425.9 8.74259e-14 -168600)
(-1.11574e+06 38625 5.15824e-14 -2379.88 -3.03605e-14 -277429)
(-2.35562e+06 -948888 -2.20733e-14 492648 8.62007e-15 -462240)
(2.84626e+06 1291.54 0 38847.2 0 715853)
(-2.06281e+06 -878638 -7.18224e-15 231997 2.21921e-15 -454262)
(365849 123953 -4.91358e-14 -128.682 1.72919e-14 90742.6)
(-82184.4 71075 -8.86221e-15 -674.421 1.23848e-13 -20559)
(-1.08087e+06 90478.9 4.3817e-14 -9186.78 -4.81381e-14 -270464)
(-990701 91036.2 6.53542e-14 -8381.91 -8.16197e-15 -247893)
(-909816 88832.5 -7.46381e-14 -7552.08 2.90489e-15 -227618)
(324598 61417 6.57013e-14 4291.56 -1.83252e-13 81604.1)
(487834 58601.2 -1.6482e-13 5545.7 1.60167e-13 122418)
(48105.8 76728.3 -2.59274e-14 -8287.52 1.21625e-13 9879.72)
(68744.6 72389.3 6.13343e-14 -11389.6 7.85319e-14 14230.9)
(-153727 118067 -6.93373e-14 25713.9 1.87445e-14 -31762.8)
(-99308.6 67371.6 5.20668e-14 17112.9 -6.65579e-14 -20394.4)
(-1.29108e+06 -519606 -5.56194e-15 -32257.8 1.16157e-15 -328348)
(245594 119302 -3.94478e-14 18613.4 -1.39572e-13 65555.3)
(-122146 68878 -1.36923e-13 -9512.73 -6.25584e-14 -32667.2)
(-573439 112841 0 31.8239 0 -142274)
(245109 63341.3 1.04512e-13 1319.59 -4.26172e-14 61143.9)
(-120981 95799.7 0 -680.928 0 -30186.8)
(-90437.8 75250.9 -6.67205e-14 -986.722 -1.05631e-13 -22684.3)
(858210 79765.4 9.30935e-14 4912.78 -9.73427e-14 214158)
(881547 48190.6 1.42594e-13 249.231 6.80751e-14 218792)
(2.35476e+06 -948594 -8.26496e-15 -493072 -2.7307e-15 461923)
(1.29022e+06 -519778 9.65229e-15 32167.7 2.64565e-15 328112)
(-266717 53895.5 2.03368e-14 2012.46 2.89282e-14 -65678.6)
(-284525 54554.5 -6.1785e-14 -3202.52 -1.26285e-13 -71391)
(-1.52513e+06 -2900.07 -6.77303e-14 -5755.49 -1.55019e-14 -379843)
(1.2389e+06 53249.5 1.53597e-13 -4000.96 -4.00952e-14 306403)
(401133 71196.4 5.12888e-15 -3329.52 2.79672e-13 98703)
(603865 77128.3 9.50237e-14 -3909.95 1.03252e-13 148861)
(-1.37851e+06 19981.5 -2.51165e-15 -685.182 5.85586e-14 -342206)
(-1.27651e+06 24594.4 -5.96851e-14 -1099.21 1.97304e-14 -317001)
(-1.17311e+06 27206.8 -4.03101e-15 -1145.42 9.27509e-14 -291356)
(-18194 91063.2 -1.44636e-13 -1006.19 4.18128e-14 -4763.96)
(-1.4908e+06 22539.8 3.86433e-14 -2334.18 4.15378e-14 -370477)
(504691 71888.7 -9.73932e-14 -3412.16 4.77519e-14 124378)
(708235 76543.6 0 -3638.37 0 174825)
(666913 55906.4 3.70592e-14 -4839.97 8.83251e-14 164274)
(128865 75536.9 -1.22237e-13 599.512 -3.2295e-13 32122.9)
(11558.3 77249.8 -1.07119e-13 -9317.77 -3.9372e-14 555.921)
(540076 38459.7 -1.34383e-13 16653.1 2.4011e-14 138136)
(-461880 58609.8 -1.15865e-14 -1399.98 -9.38177e-14 -114949)
(73555 78885 1.56971e-15 -17364.6 1.94557e-14 13942)
(2.06124e+06 -879001 -7.47762e-15 -232864 -1.87943e-15 453656)
(330323 84066.2 9.59615e-15 -2720.33 -1.78154e-13 81284.8)
(397824 81590.6 8.29847e-14 270.288 2.82108e-14 98775.4)
(-260156 80097.8 0 -975.464 0 -64791.9)
(-309105 90856.8 3.10249e-14 -8161.54 -8.62774e-14 -78720.4)
(914910 88596 0 8240.53 0 229052)
(996251 90861 5.46527e-14 9104.96 5.18044e-14 249449)
(1.07671e+06 94625.6 -1.22117e-13 9541.06 -1.18161e-14 269520)
(-487198 55595.6 1.73977e-13 -6218.2 1.76651e-13 -122426)
(-327648 60429.3 9.15498e-15 -4545.68 -1.0579e-13 -82424.1)
(-17201.8 86377.9 1.03036e-13 -698.262 5.48263e-14 -4441.37)
(2.1288e+06 9912.69 -1.57709e-14 -33547.3 -2.86887e-14 519875)
(-13073.6 102790 -1.11218e-13 -6445.12 3.46346e-14 -4842.99)
(29047.5 48270.8 -1.0557e-13 12882.9 -6.56409e-14 10403.8)
(48568.4 81838 8.00557e-14 1522.67 -1.8569e-13 12428.6)
(518339 83090.7 8.50057e-14 744.855 8.97546e-14 128795)
(-202458 1582.22 -1.41683e-13 -3300.33 6.93511e-15 -51052.8)
(685957 92872.6 0 -4082.34 0 169187)
(2.23312e+06 -99547.7 3.62157e-16 -308290 1.45403e-16 477590)
(516180 20141.5 8.18027e-14 7619.17 1.85901e-13 129965)
(496637 33820.4 3.70673e-14 -7110.94 2.01905e-14 121461)
(-746256 79480.2 1.21601e-14 6860.94 2.56758e-14 -183459)
(-531546 73869.6 -9.48951e-14 5870.83 3.03871e-14 -130431)
(-635627 46856.4 -1.93842e-13 -3316.21 -3.38824e-14 -158535)
(-456404 51942.4 9.79544e-15 -3365.56 -1.02931e-14 -114078)
(1.5662e+06 17856.7 -6.70675e-15 -4101.43 2.21111e-14 387589)
(1.29746e+06 100901 2.74547e-15 -609.202 -4.57324e-14 321775)
(376942 91767.8 1.71562e-14 -4682.16 1.01421e-14 92365.3)
(506715 74950.2 3.22148e-14 -396.167 5.47536e-14 125628)
(278437 90390.5 8.96861e-14 -4397.72 6.3864e-14 67994.6)
(372572 75174.1 8.04152e-14 -1135.6 -1.27201e-14 92160.8)
(-707474 51309.7 -1.47124e-14 7452.6 3.68579e-14 -173689)
(-931497 84120.5 -4.07841e-14 2896.51 7.32983e-15 -230405)
(-211122 135193 4.51681e-14 -754.287 3.21992e-14 -52570.9)
(1.52889e+06 58651 5.04023e-14 6129.14 3.61121e-14 380870)
(1.65752e+06 58104 -1.0907e-14 27090.6 5.40992e-15 417985)
(1.96362e+06 59834.4 8.8608e-15 -1821.73 5.57381e-15 486763)
(138926 84816.7 -1.74622e-13 -655.265 2.11929e-13 34307.8)
(-509336 21153.2 -1.08176e-13 -7371.95 -5.55963e-14 -128206)
(-493290 36986.9 -1.37281e-13 3867.57 9.17781e-14 -121436)
(2.30419e+06 -12071.9 0 14313.2 0 575268)
(2.31114e+06 68487.1 0 1747.01 0 573874)
(1.39382e+06 52137.5 2.1189e-14 -1638.51 1.00607e-13 345428)
(1.38124e+06 4958.76 6.73962e-14 5617.48 -1.8953e-13 344108)
(-1.43308e+06 8323.42 0 -10454.6 0 -358170)
(-1.3979e+06 52817.3 0 9429.11 0 -344508)
(40052.4 81829.4 -2.40663e-14 2478.89 6.88941e-14 10552.9)
(-96685.7 31993.7 2.57534e-13 -5272.42 -1.08948e-13 -25297.9)
(-377025 33993.2 -6.78994e-14 -3686.62 -2.50405e-14 -94462.3)
(2.99671e+06 3015.43 0 60470 0 758548)
(-52972.8 70998.6 -1.69837e-13 -794.914 -4.23152e-15 -13340.9)
(-63302.5 73798.4 -2.44611e-14 -4719.84 -1.35973e-13 -16877.7)
(335371 99548.6 -8.74672e-14 -7722.7 -5.99109e-14 81296.2)
(-263670 97195.2 -1.82155e-13 -8206.35 7.62346e-14 -67458.1)
(320691 57318.2 5.2799e-14 -8503.93 -5.45796e-14 77459.8)
(-1.22456e+06 49106 3.74933e-14 -11411.4 -7.62435e-14 -306671)
(1.2361e+06 54262.9 -1.55998e-14 -12723.2 -9.32162e-14 303544)
(-2.05454e+06 83898.8 1.60961e-14 -12800.6 -6.84923e-14 -512949)
(-2.40723e+06 -221895 8.43005e-15 442117 -6.03044e-15 -487584)
(846737 106980 -1.345e-14 -17636.2 1.66715e-14 205717)
(98258.8 108176 -9.02636e-15 -5256.38 5.08e-14 23075.8)
(-1.15526e+06 88351.8 -4.51758e-14 -4806.99 -1.26648e-13 -287836)
(973391 25557.4 -5.89171e-14 12999.2 8.49617e-14 244743)
(-671395 52027 6.49074e-14 -11553.6 8.32144e-14 -169453)
(526371 86893.3 9.77006e-14 6554.41 1.71615e-15 132229)
(99395.8 92745.1 2.73061e-14 6201.16 1.27705e-15 26200.7)
(168482 69953 -1.15476e-13 -855.738 1.44933e-13 41591.5)
(-331687 59911.8 7.87843e-14 -21079.9 -8.35993e-14 -87528.7)
(-537566 126431 1.2709e-15 9233.36 1.05283e-13 -131090)
(-305084 61314.8 1.21688e-14 -19480.6 -8.4676e-14 -80531)
(-494115 122385 7.69485e-14 8467.53 -2.81052e-14 -120499)
(123290 48426.2 -4.8096e-14 -3518.78 1.49238e-14 29717.7)
(-58403.6 104297 -1.28134e-15 2923.23 -9.51927e-14 -13765.8)
(-38210.1 101560 1.18237e-13 2869.43 9.47794e-14 -8768.74)
(-25573 89775.7 6.08905e-14 1022.54 -1.32503e-13 -6091.47)
(1.62686e+06 40037.4 3.45689e-14 4792.86 5.36326e-15 404845)
(-16713.9 104426 -1.33516e-13 -7705.03 -5.93113e-14 -6058.82)
(-64569.1 73446.9 6.61114e-14 -4246.12 -2.21241e-13 -17074.4)
(2.25399e+06 -70632.6 -1.71145e-14 -115806 -1.24383e-14 530528)
(383893 59321.7 7.03945e-14 -5383.05 -9.02672e-14 93915.9)
(-879911 107956 4.67152e-14 16010.3 1.25969e-14 -214351)
(-1.01912e+06 68855.2 -7.67432e-14 1988.17 -3.35636e-14 -252370)
(-1.01147e+06 28286.7 0 -12697.2 0 -254117)
(1.27207e+06 14868.9 -6.90304e-14 5883.02 -3.28133e-14 317085)
(1.21904e+06 78129.8 4.25077e-15 10233.7 8.21619e-14 305007)
(-38420.5 60291.9 -7.81979e-14 721.631 6.37052e-14 -9353.85)
(-29276.5 60790.5 5.67261e-14 1641.98 -3.17024e-13 -6856.69)
(-782993 115647 -3.07638e-14 9206.61 -7.49338e-16 -191992)
(-1.05505e+06 80374.3 0 13417.5 0 -258451)
(743547 47021.6 1.68192e-14 8353.28 4.12123e-14 186562)
(-1.91706e+06 102995 7.3593e-15 -9420.01 -2.31671e-14 -477999)
(69614.6 70880.8 0 17932.9 0 21722.3)
(1.07015e+06 40288.4 -3.64423e-15 -3552.46 2.53225e-14 264643)
(812251 112217 -1.97634e-15 6499 9.56428e-17 203149)
(-516300 91712 1.45212e-13 4436.42 -1.86684e-14 -127004)
(-400670 60205.7 -1.41967e-14 -4415.56 1.02261e-13 -100510)
(-369049 87051.6 2.24926e-14 3803.37 -8.54014e-14 -90624.9)
(-289570 64778.6 -1.27131e-15 -3591.79 5.01723e-15 -72739.5)
(-409668 39390.1 5.25833e-14 -130.828 7.76277e-14 -101679)
(-346034 45222.5 -9.19886e-14 2464.19 1.85024e-14 -85246.7)
(-421362 112689 0 871.865 0 -104332)
(-472202 113522 -4.61007e-14 -1345.43 4.00212e-14 -117497)
(-512727 116807 -3.75771e-15 -1635.34 -4.28134e-15 -127624)
(141706 70801.8 -2.26416e-13 1255.34 -1.13138e-13 35471.5)
(-28082.7 85165.5 -5.02616e-14 -2467.92 9.99875e-14 -7580.23)
(1.01997e+06 41549.1 -2.82073e-14 6176.94 8.04194e-14 254608)
(1.06811e+06 57994.2 3.90776e-14 -6718.54 -7.59703e-14 263352)
(176487 74008.5 8.14359e-15 2021.35 -5.63982e-14 44291.5)
(259179 67759.8 0 3128.85 0 65083.8)
(-552603 111515 5.74871e-14 -2979.31 -6.31073e-14 -137851)
(493124 64626.2 -1.09917e-13 4918.97 -1.40252e-15 123574)
(538462 99126.6 -4.81171e-14 5605.54 -2.98224e-15 134994)
(-199192 82495.3 -9.30216e-14 -128.068 1.33232e-13 -49455.4)
(-170277 86684.5 5.42655e-14 -1611.21 3.18072e-15 -42648.8)
(-242826 91050.2 8.78638e-14 -1448.29 3.12353e-14 -60609.5)
(-269506 77177.2 0 -3470.42 0 -67731)
(-1.16094e+06 42105.6 2.56161e-14 -326.419 -3.9019e-14 -288133)
(545146 79718.9 -4.25976e-14 -1309.88 -1.68185e-13 134937)
(387442 76663.8 -1.9511e-14 -1327.61 -2.78811e-15 95802.9)
(-122870 217893 -1.16612e-14 24388.1 -8.29591e-15 -24435.3)
(1.41e+06 33431.6 -8.92116e-14 -9996.35 -5.34147e-14 347368)
(-1.64275e+06 6923.24 7.70949e-14 2151.16 4.6114e-14 -407067)
(-183358 201056 0 -7446.96 0 -47342.6)
(-193866 79600.7 3.25222e-14 1988.1 9.81213e-14 -47608.8)
(-163431 84391 -2.44632e-13 3521.32 -6.20256e-14 -39676.9)
(-282891 79327.9 1.05443e-13 1793.63 1.17755e-15 -69745.9)
(-243560 87712 0 3194.69 0 -59639.4)
(553418 62559.7 5.33528e-14 -5001.61 -8.58493e-14 136073)
(635249 90185.4 1.94982e-14 -3748.86 8.25836e-15 156688)
(517184 66913.7 -3.97535e-14 -10262.2 3.80338e-14 125778)
(602842 93394.1 4.24985e-14 -7077.96 1.17217e-13 147821)
(475248 67374.9 3.33661e-14 -9434.7 5.59205e-14 115578)
(553794 91886.9 -7.24436e-14 -6590.33 4.13699e-14 135772)
(436948 38611 3.32043e-14 -210.246 1.25278e-13 108364)
(421533 20667.3 9.76186e-14 1973.99 2.08869e-13 105081)
(-821089 88162.1 -1.84152e-14 1006.55 2.41385e-14 -203479)
(394161 84787.4 -1.01025e-13 -4790.85 -2.45891e-15 96610.6)
(-927881 61977 0 7942.51 0 -228255)
(1.60605e+06 95132.9 5.40104e-14 -13447.3 -3.39528e-14 395157)
(-818983 36873.1 1.01763e-13 3150.56 -1.67041e-13 -202425)
(-596511 43371.5 1.2296e-13 1096.58 -8.25905e-14 -147734)
(-1.77732e+06 -840265 -6.83552e-15 281433 1.52824e-15 -371159)
(52962.5 79373.7 1.37427e-13 -32.3368 -3.60652e-14 13133)
(1.70285e+06 49973.6 -1.80586e-14 -3780.26 -9.21067e-16 421574)
(-836732 60050.5 -2.84465e-14 3273.17 -8.25001e-14 -206798)
(-601860 57700.9 1.78109e-13 2997.2 8.75955e-14 -148590)
(2.51887e+06 -22015.1 2.92499e-14 -5508.38 1.30174e-14 623617)
(-115084 70236.2 -1.97123e-14 -1872.35 7.90238e-14 -29019.2)
(1.75106e+06 9606.23 4.48414e-14 5139.35 -2.78389e-14 435749)
(-414777 61397.2 6.16617e-14 1596.32 -1.08634e-13 -102519)
(-1.43825e+06 93102.7 3.63221e-14 14712.5 -4.73522e-15 -353208)
(-1.35166e+06 57157.8 -2.2186e-14 -7864.58 -1.68056e-15 -337326)
(1.31278e+06 58737.2 -4.19812e-14 2347.1 2.74143e-14 326310)
(-168908 83546.5 -2.68549e-13 6545.97 -1.22157e-13 -40285.2)
(-3885.86 -45109.5 2.78232e-16 -70724.4 9.89048e-17 -18512.3)
(-20119.9 75115.6 0 3108.54 0 -4220.85)
(-2.35906e+06 -754549 1.12295e-14 295121 -3.09524e-15 -512106)
(1.7752e+06 -840567 1.3306e-14 -284092 4.18362e-15 369974)
(-1.15491e+06 97499.7 4.70937e-14 -9358.72 -4.56138e-14 -288879)
(405348 57897.5 2.05985e-14 4066.59 7.94222e-14 101584)
(564229 53368.6 -6.61285e-14 5544.43 1.50519e-13 141372)
(161542 78515.9 1.32674e-13 -1264.56 3.94885e-14 39768.1)
(-303198 12421.2 7.68962e-14 -143.868 -1.18187e-13 -75265.2)
(274362 104615 -6.37541e-14 -1807.4 5.83126e-14 67626.2)
(-138500 60789.4 1.88349e-14 815.403 2.8861e-14 -34162.4)
(-122345 113121 1.33767e-14 5011.76 3.87243e-14 -29112.7)
(-1.9403e+06 -2413.93 -6.1811e-15 52032.9 1.45838e-14 -468517)
(15812 -26846.6 7.30293e-17 -46879.1 4.53275e-17 -7708.39)
(-686452 104417 -2.84284e-16 8536.43 5.32618e-15 -168205)
(541937 55123.5 4.78777e-14 -3656.78 1.48154e-13 133558)
(2.00902e+06 -389389 1.18508e-15 -52454.1 1.52543e-15 485465)
(-61314.5 60416.7 -1.22856e-14 -10888.3 -9.54537e-14 -17915)
(-68559.3 107070 9.74662e-15 -5149.34 9.3186e-14 -18288.6)
(-38770.7 92925.6 -1.66753e-15 -18.6334 -1.42614e-13 -9624.42)
(-98992.7 76701.5 -2.62176e-14 4226.09 3.56872e-14 -23513.5)
(45946.4 91188.4 4.27601e-14 -1637.03 1.10436e-13 10994.1)
(30177 92799.2 -1.00571e-13 -29.2116 -3.28132e-14 7480.27)
(-2.01186e+06 -386797 5.02485e-15 50575.8 -1.55444e-15 -486635)
(717957 95659.9 -3.8642e-14 2854.75 2.08754e-14 178848)
(-253151 76779 -2.69279e-13 -1285.75 -7.63601e-14 -63130.9)
(854344 81154.9 1.39129e-13 5027.88 -2.35502e-13 213228)
(786030 80337.9 -1.77362e-15 4573.55 -9.04769e-14 196165)
(720574 77919.9 -2.59262e-13 2570.38 3.90611e-14 179427)
(124714 42183.6 -1.31622e-13 4050.06 -4.92191e-14 31949)
(-1.66395e+06 30107.3 6.98612e-14 -4204.67 -6.7697e-14 -413903)
(532582 61077 1.42656e-13 -3023.39 1.53922e-14 131394)
(756746 63900.3 -6.45658e-14 -3051.63 -9.22636e-14 187007)
(-144123 76543 -2.28105e-13 -448.174 -3.84371e-14 -35871.1)
(1.05567e+06 104517 1.46988e-14 -13946.3 2.11454e-14 258473)
(206340 58264.7 -9.22928e-14 612.891 6.24855e-14 51349.3)
(-2.10919e+06 20769.5 -2.34928e-14 -2809.63 -8.66267e-15 -524029)
(62627 78434.4 -1.19038e-13 1889.14 -1.00091e-13 16007.8)
(-180512 84260 -2.36634e-13 1059.25 1.11676e-13 -44525.9)
(613878 62801.5 1.76963e-13 395.964 -2.54202e-14 152414)
(564866 63575.2 1.65654e-13 318.241 4.03013e-14 140234)
(517188 62217.8 -1.20247e-13 -1653.67 3.30975e-14 127915)
(1.09982e+06 43444.5 1.76887e-14 91.1902 3.69753e-14 272910)
(247329 84523 -7.98431e-14 3585.02 -1.70975e-13 62256.9)
(-611552 68146.6 5.38848e-14 -9502.18 1.19995e-15 -154096)
(-474830 127903 3.27336e-14 4295.44 3.64411e-14 -116749)
(-270422 49510.5 0 1929.13 0 -66618.4)
(-856118 95012.7 -7.2892e-14 -9929.59 2.21816e-14 -214884)
(-933619 97515.4 -1.09474e-13 -11026.3 -7.21507e-15 -234386)
(-1.01251e+06 100817 -1.09122e-13 -12391.2 5.25262e-14 -254299)
(487347 61596.5 2.26817e-15 8106.56 2.80677e-14 122932)
(333057 66640.9 3.55689e-14 5929.93 -4.45085e-14 84109.6)
(83840.6 3727.98 -1.0343e-13 4272.72 3.72969e-14 21862.7)
(171397 65255.9 0 -1899.74 0 42055.6)
(219587 51807 -1.21123e-13 2106.66 7.22614e-14 55006.7)
(2.43472e+06 -122911 -6.32197e-15 -315929 -3.04012e-15 525714)
(951921 41838.1 1.1866e-13 2040.88 -1.2174e-13 236697)
(-732002 86259.1 0 1493.5 0 -181254)
(-510307 77357.4 -5.8843e-14 9956.71 -2.5796e-15 -124147)
(411925 81352 3.14738e-14 -4206.92 -3.89075e-14 101163)
(-131048 98131.4 5.26109e-14 -2936.06 4.31418e-14 -33244.3)
(-15364.9 93452 1.55366e-13 -3592.31 -1.22349e-13 -4703.67)
(44384.5 66038.2 1.23211e-13 10590.9 -1.94797e-14 13640.5)
(48360.4 65006.2 -6.43727e-14 11618.3 -5.98904e-14 14881.9)
(-3595.19 120854 -3.22171e-15 -2882.43 -2.6358e-14 -1607.23)
(-11563.5 60904.4 -2.89249e-14 -1116.96 9.72181e-14 -3146.27)
(1115.25 71378.7 -1.08475e-13 612.885 8.07931e-14 428.784)
(15020.6 73997.5 1.0373e-13 -14835.6 -4.70949e-14 45.914)
(181459 49772.1 -7.93332e-15 2523.89 -3.7262e-14 45649.9)
(-329093 120683 -1.8604e-15 2038.94 -1.78933e-14 -81148.7)
(108192 73924 2.60032e-13 1841.25 -5.11327e-14 27301.6)
(17429.4 116817 1.067e-14 -19581.4 1.5155e-14 -533.948)
(-701529 119611 -2.66766e-14 -2956.8 -1.59889e-14 -174797)
(903503 52189.3 8.87349e-14 3647.82 7.9058e-14 225083)
(-389835 87926.1 -1.00041e-13 -487.319 3.27101e-14 -96847)
(-1.61016e+06 283993 -4.59567e-15 281854 2.74146e-15 -329580)
(-240351 46875.3 7.13062e-14 -2050.88 7.73891e-14 -60144.9)
(-391065 121339 0 4210.82 0 -95986.4)
(117418 74780.3 1.38777e-13 1077.26 -1.91588e-13 29401.1)
(182905 68304.2 7.33526e-15 -442.871 2.37993e-14 45272.5)
(1.77033e+06 -391589 -1.42346e-15 57156.5 2.48065e-16 453437)
(-2.46557e+06 7214.58 -1.96652e-14 14704.2 9.03407e-15 -608109)
(782591 61016.4 4.36275e-14 3801 3.66255e-14 195120)
(850964 60150.9 -4.40872e-14 4020.55 9.60321e-14 212139)
(-257487 83404.5 -3.29339e-13 391.92 -1.17532e-13 -63790.6)
(182135 107605 5.77523e-14 12050.4 1.13728e-13 48181.4)
(-39399.5 71234.3 9.26809e-14 -2711.68 1.40954e-13 -10448.6)
(-1.00261e+06 -651255 -1.21772e-15 75155 5.12409e-16 -230121)
(-2.40701e+06 78518.9 6.43501e-15 1714.18 8.31803e-15 -596804)
(2.13223e+06 36662.3 3.49447e-14 4248.72 -1.71916e-14 530103)
(-3.0757e+06 -54670.5 -9.04371e-15 -8121.82 -3.88843e-15 -765159)