/*--------------------------------*- C++ -*----------------------------------*\
| =========                 |                                                 |
| \\      /  F ield         | OpenFOAM: The Open Source CFD Toolbox           |
|  \\    /   O peration     | Version:  2.3.1                                 |
|   \\  /    A nd           | Web:      www.OpenFOAM.org                      |
|    \\/     M anipulation  |                                                 |
\*---------------------------------------------------------------------------*/
FoamFile
{
    version     2.0;
    format      ascii;
    class       volScalarField;
    location    "2760";
    object      sigmaEq;
}
// * * * * * * * * * * * * * * * * * * * * * * * * * * * * * * * * * * * * * //

dimensions      [1 -1 -2 0 0 0 0];

internalField   nonuniform List<scalar> 
11800
(
167335
122600
534564
455181
118421
322024
157547
169765
180708
192812
165848
648792
85308.2
481194
413207
1.80068e+06
124420
123407
221651
134033
363619
586795
790544
707865
1.47426e+06
929216
954957
474510
1.04273e+06
1.13183e+06
317375
118250
928275
129842
135017
306327
136516
988933
134844
143088
989812
1.08079e+06
498659
1.1738e+06
334662
1.6859e+06
755180
878768
157866
227606
679940
481160
133442
214433
1.92109e+06
1.59261e+06
65396.1
447111
347927
335673
1.58683e+06
145575
355568
293097
1.44572e+06
219001
699003
497784
65471
858961
137093
114534
110615
1.5305e+06
1.57123e+06
298296
1.50815e+06
207236
169207
173856
1.9537e+06
120348
118825
121351
120785
1.09059e+06
339985
1.0028e+06
917970
493604
131772
1.10498e+06
147386
62589.9
176299
145494
18848.3
145371
134311
571105
77566.7
628805
1.04893e+06
366784
142375
310971
172204
151487
1.54604e+06
1.00885e+06
1.09752e+06
923482
344662
501103
207919
1.39644e+06
204688
139587
1.3116e+06
199376
192249
159062
174437
135181
144586
132225
134283
133664
97977.9
29187.7
1.78842e+06
1.18396e+06
368115
1.09294e+06
525046
1.00265e+06
916867
323125
935577
455942
858370
785232
475476
185015
228071
307624
1.11909e+06
1.14806e+06
654925
351680
195859
188466
133972
244259
222716
176287
437132
599602
1.20282e+06
139237
1.7762e+06
216984
1.53537e+06
442190
481117
521918
263951
202257
1.9176e+06
1.18398e+06
416660
571702
149601
344692
343716
1.68471e+06
1.70316e+06
892715
817532
971507
437790
302352
235834
193540
414406
202423
316014
146585
162898
155916
226911
211250
200922
192394
846273
1.0775e+06
1.5817e+06
122409
207385
1.86025e+06
132455
265231
297352
138119
142437
780605
654145
600021
496941
1.78546e+06
545838
804262
2.43306e+06
2.0138e+06
2.06365e+06
322345
126928
769723
704185
645876
244918
348006
125836
124142
219546
132117
1.17835e+06
241441
133800
432119
199716
166418
134155
602929
615550
2.42794e+06
1.17598e+06
208619
218460
1.05745e+06
865255
302722
437299
972659
897068
821357
141597
1.05833e+06
368697
504742
473262
146787
124458
382293
335480
143502
2.05976e+06
263490
302581
220375
252788
644396
703156
763243
347164
246881
136371
1.56141e+06
152996
84686.6
133487
381327
141920
497706
1.82839e+06
358550
355344
535311
388519
446897
325963
1.11081e+06
929479
297124
369520
238561
284929
513584
673836
254148
1.09464e+06
1.17445e+06
1.41477e+06
161971
354991
352886
1.62818e+06
1.64353e+06
969450
954077
990377
980495
130928
89690.5
269759
2.12224e+06
119754
125840
278463
231508
245406
848377
867276
1.46106e+06
2.06599e+06
642304
174578
810535
669170
469430
383246
158385
164230
243056
427768
226002
395363
121829
160590
156237
140838
1.16768e+06
156541
125042
1.71129e+06
285718
651735
714835
696425
879128
846501
102949
101963
592550
773260
536304
1.38944e+06
115937
760892
593145
387288
293628
289679
222913
296205
256756
338802
372363
402639
146745
134222
705640
748986
170162
206818
427739
359406
404735
185804
174856
217864
221420
828948
395716
294666
340890
984475
1.14554e+06
327606
185679
176357
232604
216971
402786
468144
380898
447307
350256
411503
311134
294405
607653
304995
668076
1.15069e+06
573715
421638
1.89153e+06
130888
1.20877e+06
589803
429840
1.81113e+06
137604
1.23873e+06
307141
1.04996e+06
968788
940591
177653
80305.9
121078
2.18481e+06
1.88858e+06
827519
295664
396892
168117
214899
245458
138084
197571
1.44336e+06
58307
507869
387857
1.59582e+06
104149
165776
142229
144348
141327
143556
1.59818e+06
530411
215331
605586
556407
511188
111229
1.18118e+06
383565
533773
157198
786205
172690
1.52449e+06
130175
183609
438809
403927
371593
796943
211956
442116
395231
208534
609593
664768
723022
347092
252104
62331.9
158597
174992
1.98377e+06
664470
523930
381413
313837
170518
144685
106633
107713
181857
96339.5
110786
121136
152788
305843
139869
183533
534544
637364
301585
1.42064e+06
187056
336610
143771
165392
1.3729e+06
1.782e+06
548536
598125
224063
199456
116720
1.20294e+06
1.72769e+06
1.53019e+06
2.21995e+06
706434
493720
650395
115613
171204
158358
175452
643362
138996
137047
117430
165498
1.20077e+06
265555
1.19957e+06
731817
157193
200488
1.00496e+06
1.24731e+06
639593
698193
756318
343884
246048
582402
136434
137231
134109
152635
122760
176967
93523.4
169865
92441.3
166791
82875.7
162924
149411
156242
108773
1.37562e+06
216912
225072
502266
803017
112881
143876
124259
120884
108057
263074
376495
126087
124986
523546
114827
170811
1.49313e+06
76895.5
154159
461341
424094
445119
483097
496097
524426
244072
186086
1.71691e+06
2.13715e+06
434818
83946.4
310265
311433
331767
237773
708639
653615
599095
160025
80554.5
681758
641078
286178
316563
162903
544865
593551
211072
958389
969525
980965
973262
1.67389e+06
1.63787e+06
510105
2.0184e+06
716027
131432
1.41362e+06
1.21514e+06
1.32617e+06
673408
274115
297398
172689
1.42712e+06
465308
588739
2.13516e+06
193034
233313
467963
447774
1.18156e+06
607116
1.76856e+06
130603
127352
243824
344309
766140
702359
643850
1.63658e+06
142168
351294
756556
1.16609e+06
127990
1.91766e+06
1.79433e+06
1.84963e+06
214682
291153
112745
1.8912e+06
533384
219660
369062
1.76286e+06
138504
222204
236771
135101
438790
264757
2.18227e+06
1.89138e+06
187742
535718
684678
261365
306710
231859
206337
587091
183187
524249
389163
1.00141e+06
881508
158141
1.15793e+06
135478
359755
440801
1.56065e+06
292559
397704
223549
187439
170436
198465
376350
877978
967908
132667
129299
129237
172035
315489
1.17435e+06
110086
399017
717775
558011
204540
951960
1.05642e+06
682156
1.1534e+06
1.2542e+06
515630
340296
150114
174575
325075
347179
301293
331610
178623
305322
357941
212801
134605
2.20287e+06
936784
350897
471187
439001
214122
376845
547302
1.18794e+06
1.09122e+06
997985
308583
363838
189093
197731
1.36957e+06
1.02158e+06
1.16522e+06
144396
186708
258043
598469
1.34347e+06
425838
86650.9
146123
2.01525e+06
1.89489e+06
225039
1.73593e+06
109230
151431
116737
651543
121295
209436
234611
1.1972e+06
1.30704e+06
1.42047e+06
1.53881e+06
685958
585114
487043
385842
179419
129140
378442
1.8861e+06
138112
135556
144438
139371
143482
149388
155704
1.46173e+06
739907
746289
437668
815325
889022
311588
1.0463e+06
250941
210891
143439
1.99171e+06
134665
158056
151518
157318
134140
1.81313e+06
252358
251096
985880
314853
665779
240606
1.847e+06
798291
394971
297864
1.24322e+06
438526
174607
148282
132015
129524
217692
241801
229929
165251
454116
152053
131670
769430
860726
117083
547133
784305
666517
901673
1.70177e+06
1.5684e+06
1.43756e+06
1.30928e+06
546589
665302
1.70668e+06
1.57273e+06
783010
1.44199e+06
901213
1.31286e+06
1.53257e+06
149523
130068
142156
224094
486145
1.07868e+06
136965
403349
548077
437107
597379
181775
231282
397002
577371
1.24624e+06
1.14468e+06
1.04665e+06
496268
369980
935319
193425
242592
158934
313936
290819
263931
532758
417782
429169
319829
129472
658113
182776
326089
402822
1.00358e+06
539080
630101
518383
189828
243936
174947
154845
148733
168869
560684
475664
137022
199318
214599
436118
1.31591e+06
427274
596170
464688
152436
206774
194181
178672
241995
178211
582063
534373
487219
194327
1.44992e+06
656038
209176
887570
595380
1.26593e+06
1.74528e+06
214951
239905
201524
142746
148514
695987
592790
1.81505e+06
125986
174736
329172
482047
212820
137658
702424
694639
61219.6
132732
341373
277104
91030.6
1.58057e+06
1.74337e+06
281446
119940
258168
358477
763836
642019
701096
1.99262e+06
132473
551376
620443
158047
568459
693978
817494
939256
1.78229e+06
1.64294e+06
1.5061e+06
1.37242e+06
567918
692575
1.78597e+06
1.64603e+06
814948
1.50952e+06
938039
1.37486e+06
1.68662e+06
1.45499e+06
1.09785e+06
453474
517646
1.45341e+06
1.08831e+06
316574
119040
114138
1.08625e+06
1.91293e+06
146041
390439
1.58955e+06
1.08365e+06
1.74595e+06
1.77941e+06
1.10986e+06
1.11405e+06
510855
407025
530364
239276
172394
284839
151451
180109
215694
185574
387901
1.85263e+06
529949
186023
114468
342426
367809
1.67967e+06
348222
314619
395127
419867
1.0844e+06
504805
366824
1.41297e+06
392917
508834
188120
159378
357543
307604
332957
832036
530496
514135
1.25274e+06
1.19856e+06
508268
535392
947984
1.01874e+06
380962
397907
133443
174282
182386
517696
402617
72214.4
157446
179492
610200
582499
311983
602962
467345
188254
118090
118878
492582
1.17406e+06
120609
1.74288e+06
250616
689610
632161
199563
248441
413384
143942
126178
1.47134e+06
366678
947184
871835
798848
294946
425045
157752
1.3485e+06
1.7508e+06
166536
141303
960938
348631
473123
817861
892754
981333
299453
429384
60678.6
711192
362931
1.74262e+06
305151
1.00629e+06
820653
919943
137860
138758
139532
151024
148959
132866
1.45242e+06
443621
169986
198929
218195
245769
301579
334970
688209
667365
633822
612401
562524
581264
1.03419e+06
159284
135029
132737
173284
200614
143689
159397
1.22573e+06
249324
454010
379622
981239
511170
182597
191003
421833
327978
579576
474986
1.1769e+06
1.02769e+06
944865
864517
481366
1.35871e+06
662232
1.37145e+06
240960
202376
259896
255020
179338
166765
176878
1.38412e+06
1.82193e+06
317630
112770
236635
531298
411116
119559
146980
240085
226158
229460
215145
279925
263962
201620
450320
500076
487146
541233
411705
458139
517929
129179
1.10499e+06
873076
465480
1.13167e+06
1.06393e+06
620386
1.81998e+06
339669
322642
366375
394165
181654
153466
166490
346502
140539
1.50565e+06
202530
138743
736172
57990.7
115716
1.51405e+06
174315
382416
1.22056e+06
557212
1.12189e+06
1.02627e+06
1.36545e+06
908405
148254
561739
449779
196577
1.27245e+06
574934
203082
1.0484e+06
953812
1.14377e+06
134229
136568
149614
2.19935e+06
261960
401509
489327
226715
136652
133898
389133
421462
170312
1.51666e+06
390843
1.50455e+06
230665
754616
134467
589370
706111
945749
377392
505309
606046
250431
2.1329e+06
158531
114218
136670
1.82827e+06
1.20735e+06
298322
435457
992609
916933
839937
1.882e+06
562861
456986
1.89922e+06
2.14152e+06
1.46819e+06
86610.2
505982
1.23671e+06
923023
499321
373814
917015
817895
380069
1.26323e+06
305101
257002
470377
412819
317876
1.48732e+06
2.24893e+06
121890
134957
159435
2.15822e+06
152254
174945
651128
497825
1.91606e+06
2.00673e+06
134686
566620
201673
190721
468683
203525
124092
506678
125400
142555
2.25858e+06
969865
535537
402242
362119
262239
734545
676460
618909
202275
2.02935e+06
399913
359961
400152
1.70144e+06
686648
1.002e+06
141302
220879
166400
761104
453860
604365
122924
261105
354138
755720
266909
177196
153195
298807
1.8923e+06
269944
362042
748444
1.22466e+06
1.73011e+06
1.15255e+06
792134
611614
723716
79350.9
219239
299212
637270
586248
537940
1.72804e+06
139277
176693
189586
189225
189537
186358
267602
134843
134913
616066
1.55344e+06
431471
959206
881912
808047
299353
1.75728e+06
550922
626351
748323
644893
1.06968e+06
1.71686e+06
520739
142840
680102
116296
792387
474889
865980
944458
340177
1.10512e+06
273697
2.34446e+06
799587
136450
1.59696e+06
2.34971e+06
2.02315e+06
474449
133298
897431
158941
147359
115481
258512
144415
146266
128464
131626
1.44698e+06
1.51872e+06
134826
1.01173e+06
166721
157636
133840
213158
1.01901e+06
1.0258e+06
237885
1.03731e+06
1.04123e+06
1.36921e+06
451628
171992
210442
284768
570382
620728
214752
57075.2
152609
695237
321154
778144
875997
959273
1.04572e+06
535357
379729
286509
161661
141514
1.75605e+06
963365
127732
202203
850773
663984
358621
389267
185343
161976
299901
264988
113812
201533
143489
1.46995e+06
558230
1.36339e+06
134445
129626
2.35155e+06
132307
1.82162e+06
1.79314e+06
133998
826933
412419
1.44453e+06
147161
775150
903747
1.9711e+06
218417
142373
123850
446278
211608
284049
569422
520433
477050
144887
125146
164128
155831
996746
1.0989e+06
751381
1.28888e+06
1.18105e+06
1.3739e+06
1.98312e+06
247151
632448
1.88889e+06
568458
1.78901e+06
830108
906160
986507
435544
298737
371541
440015
1.6599e+06
156426
178291
257582
243758
226642
172402
338000
311060
291331
726020
730466
2.203e+06
239339
119896
167268
1.7522e+06
503297
268290
258455
1.71163e+06
862377
595625
105217
186849
123624
848846
1.08404e+06
279820
1.24183e+06
173108
168377
2.27703e+06
1.49637e+06
1.83219e+06
349112
459268
811646
263105
633053
1.88692e+06
2.01562e+06
170852
196360
326964
269310
922821
1.03011e+06
702401
791326
2.09161e+06
1.94633e+06
249172
170619
104985
1.37933e+06
119591
1.81811e+06
370780
272963
974898
309008
134291
1.70001e+06
197302
249299
106544
125446
1.27027e+06
426449
138814
683012
322521
182459
139856
127314
618969
127716
1.7263e+06
1.57005e+06
282573
755914
430603
136406
150938
1.3455e+06
165907
899819
231683
492927
1.01592e+06
1.16238e+06
1.64656e+06
179730
287525
1.81049e+06
227572
148274
135250
160318
129083
1.86419e+06
1.43896e+06
326992
445741
782152
772866
1.02635e+06
358519
489086
356331
513900
1.10015e+06
1.01117e+06
924848
1.46713e+06
679684
487228
1.44108e+06
490786
1.56736e+06
580047
630846
1.72011e+06
2.34965e+06
2.00165e+06
384377
391292
1.06233e+06
498603
364634
131059
326328
1.66395e+06
144814
166200
2.10452e+06
1.57e+06
1.82588e+06
818225
1.01493e+06
1.02466e+06
883734
122280
114090
172303
116775
638066
695389
757901
350492
248996
551261
1.85017e+06
144041
192965
162052
149995
925172
836552
180185
1.64265e+06
1.86679e+06
1.07071e+06
872365
1.49697e+06
1.72437e+06
119993
828011
527898
1.1362e+06
154690
240967
258010
1.45606e+06
1.45048e+06
678972
334431
114404
135413
213317
446734
1.5318e+06
204987
1.1692e+06
143218
335949
233131
304259
524442
271071
420913
40855.6
11811.6
420025
2.19756e+06
189701
159074
163059
130361
122513
173074
179978
132758
136570
478833
131032
142366
172929
892006
1.10164e+06
790439
1.54484e+06
1.95332e+06
141148
191103
351029
158479
1.37614e+06
203867
2.0429e+06
218481
281293
543796
399666
217413
222465
516594
128347
149196
183434
121181
175410
117968
1.79341e+06
106899
148660
260970
122123
93839.7
1.74342e+06
192067
1.50502e+06
1.59158e+06
579386
381296
299050
430966
972749
904670
828730
130323
1.08295e+06
571372
128334
1.86172e+06
134961
140319
338917
1.01894e+06
794006
882827
1.23267e+06
179807
140169
378362
557715
1.22505e+06
647812
1.32966e+06
468463
1.1254e+06
1.02966e+06
373654
1.3219e+06
461769
1.21326e+06
547558
1.11542e+06
1.02037e+06
637457
1.36105e+06
173570
550047
426841
143368
179316
1.51062e+06
917731
1.24586e+06
1.15808e+06
1.01072e+06
1.25396e+06
922077
352994
387436
572526
1.38827e+06
143193
2.10079e+06
173128
141914
1.58847e+06
185959
289995
577612
577690
1.70622e+06
112247
1.07103e+06
986056
902483
330265
481521
2.08923e+06
347127
268286
621393
167322
649868
299587
325508
121872
190346
199401
171737
491770
122392
607965
327048
249539
819085
1.09255e+06
1.09906e+06
818612
404256
1.96396e+06
134336
135102
1.7598e+06
1.59757e+06
966738
2.33776e+06
1.01995e+06
878051
927004
2.07939e+06
1.00905e+06
804264
1.84518e+06
398622
415854
603286
1.62087e+06
110239
1.3934e+06
166614
244135
369632
618553
675216
734787
358778
259167
427953
74742.7
79774.3
142574
149261
203279
167746
136957
188712
1.01979e+06
1.88887e+06
224288
171549
1.74129e+06
1.23823e+06
486852
658228
141614
148945
1.50985e+06
1.00388e+06
219849
791309
741092
1.00176e+06
126806
141590
150513
130129
1.17021e+06
1.9084e+06
1.87281e+06
1.26714e+06
2.0325e+06
256275
120539
326250
987503
903929
1.07452e+06
487012
332748
2.11508e+06
459035
575835
753263
248456
214600
887183
317260
163202
667618
254719
326372
1.97444e+06
334986
297103
1.04096e+06
958892
878493
442295
1.34238e+06
1.26178e+06
1.65242e+06
515736
535016
670459
1.40205e+06
656767
472660
1.24574e+06
241111
2.3471e+06
160307
1.79262e+06
474592
543739
129898
576981
1.10154e+06
139707
163013
157760
2.07352e+06
596352
544729
646008
318440
232434
299409
576534
1.35827e+06
582392
1.13823e+06
1.35074e+06
1.24359e+06
390517
1.2565e+06
951756
1.00881e+06
1.19433e+06
1.25722e+06
952531
1.01801e+06
1.20336e+06
696289
592924
46158.7
286338
177919
400471
588200
490966
681357
1.38512e+06
1.27789e+06
1.17369e+06
1.0736e+06
395979
1.10882e+06
541856
158640
111103
117213
198526
106946
470186
1.10797e+06
1.13521e+06
406831
1.90107e+06
163410
144873
1.48653e+06
1.84672e+06
98575.2
1.1659e+06
459426
619604
864582
498964
311015
145248
459494
671923
68043.7
136871
1.92638e+06
255745
195573
462466
424372
501905
327192
135272
140201
334741
1.16789e+06
1.81971e+06
2.10712e+06
318616
353692
1.49346e+06
1.34635e+06
1.75916e+06
117866
990251
1.71119e+06
2.11873e+06
2.18726e+06
2.12742e+06
543509
949287
407746
1.99243e+06
1.49073e+06
607538
1.29848e+06
148692
135889
1.54555e+06
1.54742e+06
136754
420270
1.94034e+06
1.62004e+06
1.53702e+06
1.59052e+06
2.19607e+06
1.48735e+06
1.90783e+06
1.65915e+06
150496
262999
1.2141e+06
596341
999999
211777
141597
179234
165607
155648
199872
178718
410328
1.9107e+06
1.16066e+06
403623
555581
1.24403e+06
167835
578086
407520
2.24892e+06
308808
297584
558470
314338
516499
227572
181463
1.82997e+06
15012.6
146766
146420
30194.2
441632
488457
175649
192397
205529
146279
526295
506464
131115
1.94199e+06
1.66181e+06
581458
1.23891e+06
419796
128018
1.4462e+06
319651
1.93148e+06
523253
639486
754363
868892
1.66305e+06
1.53457e+06
1.4068e+06
1.28399e+06
522439
637238
1.66524e+06
1.53568e+06
751266
1.40838e+06
866270
1.2843e+06
289864
224807
545474
584959
514681
246187
204740
176663
144807
136403
150870
131218
136098
228295
896295
962935
847332
475176
923530
1.01787e+06
1.59728e+06
669102
538655
1.72325e+06
575994
197996
121999
170100
143802
272340
249173
253446
142311
371615
291357
367757
749971
141484
201312
914782
150620
114487
140283
119947
1.34368e+06
165646
199282
626105
499499
253650
627542
211566
126868
115717
2.04942e+06
2.09824e+06
1.24483e+06
1.01766e+06
991403
1.26492e+06
2.04758e+06
1.05434e+06
131611
679896
375124
289158
415081
201434
1.96229e+06
213230
1.13488e+06
1.04612e+06
957783
502890
342935
597081
346520
266174
1.98324e+06
226957
131705
650892
649536
291812
187096
225075
376081
780621
1.47772e+06
607782
483690
929942
1.19793e+06
323148
467813
1.02429e+06
941236
861518
484657
522666
857543
695146
979108
520410
1.07823e+06
1.17688e+06
342135
1.27948e+06
2.3231e+06
1.64373e+06
117711
770088
841964
917615
285741
197924
1.40608e+06
242540
318337
399999
436132
186455
237097
195108
155503
1.3174e+06
1.00841e+06
1.05892e+06
1.26886e+06
303409
1.64758e+06
2.04266e+06
753200
136674
756425
825950
900551
854782
1.00129e+06
278341
1.59641e+06
699651
638077
583099
693009
252867
348228
204470
191266
435473
515614
473679
542929
592945
645457
392925
389371
557288
560129
1.14086e+06
1.13478e+06
956726
1.04671e+06
951341
1.04105e+06
568592
619869
225377
145782
163535
190490
1.16286e+06
724728
137751
1.1525e+06
955073
913987
1.18642e+06
195073
415984
1.49816e+06
627767
1.37805e+06
1.26181e+06
108581
249283
1.04055e+06
606507
431434
1.37689e+06
488633
72337.6
1.04474e+06
956707
1.13742e+06
507393
345157
1.4281e+06
539968
437527
1.88655e+06
541895
764382
186161
143189
317213
295846
270275
1.60357e+06
394015
271789
451286
414125
487406
245639
190085
1.06614e+06
1.20063e+06
195140
679268
147487
924051
1.84812e+06
1.1651e+06
555575
418022
1.00133e+06
507760
453889
374533
247736
159051
382868
190077
460512
188607
322700
139455
153202
1.93998e+06
384349
1.63021e+06
923082
996309
537421
403681
965929
1.76635e+06
118711
144264
148531
139481
350799
33920.6
11227.4
350054
731298
137953
766819
339878
244019
162239
506657
706169
1.49125e+06
128889
105023
163152
187103
402120
258191
999856
890460
221541
146761
121407
1.96305e+06
731732
129815
288159
143036
2.24873e+06
1.81121e+06
287751
213144
780485
378749
534528
1.05809e+06
886520
970464
2.0953e+06
1.66491e+06
143647
1.56897e+06
2.1276e+06
1.65052e+06
1.83044e+06
798407
167321
1.08142e+06
260121
165587
200977
391182
421374
311396
308766
706462
232227
161890
125291
1.03345e+06
1.24344e+06
1.35739e+06
1.47519e+06
1.58414e+06
700448
598753
495016
391104
247873
121996
494134
22971.2
242995
242466
12482.7
528555
264941
208970
91793
330266
375551
137036
345330
1.04328e+06
785971
542679
385477
440251
1.93194e+06
1.48354e+06
195800
634810
135895
144979
534222
630005
662069
1.32077e+06
377178
413127
141259
1.7456e+06
148676
303637
355009
330661
1.24783e+06
1.3616e+06
703582
772972
771363
532982
686438
1.30039e+06
1.23769e+06
1.23228e+06
421136
581483
112435
125309
116708
263660
128058
576059
1.18321e+06
1.05112e+06
1.28835e+06
939204
1.29876e+06
937979
639988
436611
1.13558e+06
831154
1.13819e+06
833963
278933
1.26826e+06
1.05199e+06
921329
1.20024e+06
1.06276e+06
1.31078e+06
952364
1.31189e+06
951510
1.20415e+06
2.25075e+06
480141
672593
1.43777e+06
532771
135698
147239
225810
22327.5
225309
19754.4
135429
407562
1.26129e+06
1.15459e+06
1.37265e+06
606093
420900
1.98438e+06
71805.4
130331
257230
871948
280546
774355
379520
2.02376e+06
2.04175e+06
1.23106e+06
147357
274101
1.36755e+06
717029
575191
400515
714216
653216
775835
273289
379469
2.08555e+06
489655
1.8526e+06
136509
135023
132164
135774
95032.9
1.82841e+06
150774
1.33675e+06
93096.4
975542
1.2582e+06
149921
139517
192762
559174
202579
467633
429100
316562
343071
372214
163046
338879
456854
564817
381317
1.29171e+06
1.18969e+06
1.08891e+06
1.36842e+06
1.83203e+06
2.02284e+06
124678
123392
125769
135182
264845
157059
285046
2.02677e+06
2.07153e+06
2.05429e+06
1.5903e+06
62748.8
1.10542e+06
1.88256e+06
1.26062e+06
992063
1.01413e+06
1.24433e+06
621119
560282
1.11091e+06
722002
1.32666e+06
103735
239643
301703
582065
239756
235520
269597
184223
212591
156000
181366
404873
408803
444192
441007
479112
480862
564457
558780
140020
138884
523818
341894
111210
200617
798899
1.32974e+06
140570
786980
1.70313e+06
520980
1.6163e+06
731668
209048
1.52369e+06
789777
664024
1.05181e+06
1.81311e+06
2.18767e+06
860639
357980
1.84502e+06
262235
194645
167681
415248
94682.3
778968
1.35209e+06
345754
527287
215089
136505
228609
1.98325e+06
349080
405564
391821
292103
837034
262749
209577
838020
184402
1.7867e+06
146977
1.05592e+06
387011
419930
1.6543e+06
1.38995e+06
837454
1.51913e+06
1.65296e+06
717867
1.78881e+06
600543
479953
1.38834e+06
1.51668e+06
1.78922e+06
1.65067e+06
481576
721109
840835
602492
1.83412e+06
183930
1.43992e+06
159316
116426
141738
8264.84
62900.3
782307
86024.1
1.3852e+06
281559
213391
527351
570605
483957
418416
267346
1.1885e+06
266007
285104
1.08305e+06
100189
418853
387211
384070
1.21228e+06
1.11003e+06
1.31889e+06
575285
503229
211421
358188
693515
1.38249e+06
74609.6
346641
208985
137011
456780
1.4691e+06
818699
706254
1.54411e+06
181853
839625
1.79932e+06
905965
1.67187e+06
153614
1.87853e+06
226711
1.25889e+06
444310
548453
138232
14527.2
145801
145424
24856.4
240508
1.29742e+06
183522
1.56662e+06
718357
257615
1.20019e+06
1.15227e+06
1.31329e+06
1.26104e+06
1.43021e+06
1.37372e+06
660798
638921
452593
438567
501822
340662
1.14092e+06
1.05203e+06
962877
305729
359008
330900
168782
1.06455e+06
927621
95160.3
186588
141292
161078
169631
1.83485e+06
1.52473e+06
393860
1.29314e+06
1.18474e+06
1.40461e+06
124782
684980
1.2391e+06
1.28414e+06
139865
131295
1.48959e+06
479509
166392
267889
312766
290198
172421
505118
465285
429685
1.69059e+06
2.24655e+06
1.64416e+06
1.1574e+06
561971
406533
177197
192886
284993
206867
138594
125388
214894
614151
488943
134637
1.36497e+06
1.5753e+06
637957
566428
169539
164606
147636
154787
441199
1.48687e+06
1.12999e+06
868463
895319
1.06758e+06
132712
143947
215682
131995
133019
282090
2.32398e+06
1.84292e+06
143356
179334
765436
660759
460958
1.43365e+06
1.55156e+06
1.20358e+06
1.31609e+06
798708
408068
348504
378640
181276
222476
1.69764e+06
445123
1.07652e+06
84865.9
1.57785e+06
146217
606277
702347
2.31963e+06
132810
623980
156567
584240
164551
370028
1.13767e+06
513573
1.29398e+06
837078
1.41704e+06
1.54398e+06
724825
1.67429e+06
610708
498246
612788
498757
238714
724581
819383
1.0697e+06
136792
220507
1.33831e+06
583729
2.12255e+06
1.73154e+06
1.94046e+06
352303
1.50905e+06
715325
544889
266154
204470
2.06043e+06
1.07629e+06
130220
2.24566e+06
1.88159e+06
65610.8
643846
527514
83169.7
881792
696406
111748
176397
1.46709e+06
2.15709e+06
138018
743826
763383
1.54729e+06
1.49858e+06
541593
555155
542631
556552
140895
142237
141581
133684
105358
2.23391e+06
1.72271e+06
1.5659e+06
1.9747e+06
739356
391016
1.59017e+06
881675
964910
1.05172e+06
78668.1
1.65113e+06
285029
1.23284e+06
1.7743e+06
523264
364165
2.24745e+06
588113
617534
433629
457776
1.17638e+06
1.13735e+06
204859
202760
113874
135327
382129
1.3888e+06
1.27754e+06
1.16979e+06
577602
2.22912e+06
140934
264905
123652
1.15528e+06
1.26375e+06
734279
1.37569e+06
628135
1.50346e+06
532156
1.41757e+06
1.19013e+06
1.30149e+06
1.53498e+06
427984
756259
652545
534976
133152
181908
192532
244799
453327
382099
416186
1.82341e+06
831546
1.01466e+06
1.69384e+06
201488
300676
134841
474006
658303
228828
315893
1.72251e+06
183844
130800
135033
137530
131571
87944
209409
158349
171324
1.46664e+06
1.73716e+06
156181
135047
169684
294113
635373
1.88711e+06
1.75614e+06
791034
141070
189236
1.49105e+06
141220
143006
2.28965e+06
876496
1.71897e+06
475076
1.16152e+06
723884
715541
202448
829975
1.22093e+06
583678
420765
170764
387399
136591
101670
123190
1.85938e+06
1.06841e+06
1.08835e+06
1.81283e+06
285842
306938
162860
576515
147129
135148
147486
359313
290154
29510.6
289552
20225
135368
1.1442e+06
340219
490684
1.04268e+06
958106
876107
180339
2.09601e+06
699036
394799
1.79012e+06
1.05306e+06
1.0973e+06
186354
18284.7
185915
19255.3
1.59053e+06
403321
653516
777921
716109
150296
1.72683e+06
394588
285160
905022
694764
130426
39398.9
1.26025e+06
259536
1.26397e+06
316405
418332
775242
858066
719335
160323
637650
262890
335495
166168
178605
607408
632782
210950
378497
137473
138656
1.00889e+06
502056
369737
148833
546127
14129.8
52856
544986
665046
537704
794498
943587
115546
2.0976e+06
2.1887e+06
271521
137804
150918
227936
252344
26063.3
251824
22482.7
1.08834e+06
370260
512608
2.03946e+06
2.06926e+06
1.74176e+06
1.59557e+06
927817
821917
786173
698326
1.72959e+06
247436
487692
179455
120407
134016
348799
487199
696266
1.98188e+06
2.0032e+06
251415
130285
650600
708959
241114
1.08047e+06
440135
362454
1.60607e+06
161799
150879
198848
1.04415e+06
1.0487e+06
1.11184e+06
704954
354682
494205
94454.2
94634.6
1.2284e+06
130662
1.08249e+06
139457
526882
855872
750130
1.26724e+06
1.4821e+06
140313
178245
400740
1.75745e+06
8597.43
106562
31605.1
106970
283878
263229
93481
1.93343e+06
34503.5
1.83356e+06
477438
46199.5
14907.3
476439
307183
155125
17840.6
154868
390794
1.70501e+06
392473
1.90686e+06
2.18077e+06
63614.5
614231
730461
672534
876777
418158
305412
947351
608862
106164
233510
365072
263536
648107
859771
242902
243848
2.09785e+06
740045
858332
802061
925330
1.33192e+06
128550
133443
1.11455e+06
1.3607e+06
463861
254149
292078
154318
307475
443130
144146
236671
339235
141212
98548.7
1.21673e+06
1.42486e+06
271996
597494
466797
477822
1.49134e+06
671052
292629
229655
576817
486093
123193
343023
1.36291e+06
1.73106e+06
454811
318676
799544
951500
874447
89376.4
134211
331803
238741
1.29168e+06
468440
108138
52207.6
78609.3
444394
313700
773518
920238
846051
139616
1.87992e+06
2.14325e+06
153361
149248
141475
137524
1.87369e+06
367052
274772
790946
2.31714e+06
1.86764e+06
518756
187026
482842
444161
273829
254929
292255
165177
148056
147665
393333
1.83064e+06
114803
987784
1.06994e+06
1.7109e+06
1.23135e+06
1.20161e+06
457097
450496
612975
622725
293498
321157
278991
132677
132720
722147
236223
1.69641e+06
1.1659e+06
293783
131262
732512
2.17528e+06
129286
1.13212e+06
941265
892593
1.16931e+06
814763
347888
480915
1.07929e+06
192595
787975
339818
379036
197649
413778
241902
313561
862073
425294
186022
161925
212116
1.09326e+06
897816
201608
191985
182653
208068
137114
579652
445378
125009
422581
141220
243398
391038
1.98826e+06
1.75087e+06
1.19482e+06
340832
245465
762292
703559
645083
309282
311134
148125
1.078e+06
151285
591889
774265
230883
211192
1.7777e+06
103858
346318
322491
159228
1.86886e+06
100693
136901
514581
607551
188497
178177
198668
144853
140347
1.19152e+06
114686
146647
18213.5
146358
1.18909e+06
1.12333e+06
2.12459e+06
1.28886e+06
1.61299e+06
141553
1.66835e+06
1.13028e+06
16476.7
119583
277899
213410
472347
513876
556247
732092
406536
1.70362e+06
987052
1.07443e+06
175508
120105
116524
134973
149076
153700
233138
990775
119782
2.13163e+06
525552
209869
1.09648e+06
711544
363086
504636
235959
204119
289719
439660
282181
585501
535386
211407
141789
742762
1.05625e+06
97110.7
104161
188298
111925
117232
1.61525e+06
416571
308570
896599
1.55815e+06
426409
302832
747962
638607
693264
584906
339511
246665
142521
9691.68
76693.7
716106
590098
839412
1.76323e+06
1.48788e+06
1.62367e+06
590167
714004
1.76906e+06
1.62817e+06
837984
1.4922e+06
198895
395034
328436
329611
129436
221842
195900
579899
278581
217818
263002
463006
1.29096e+06
635231
142989
231522
132063
145022
248642
384387
129264
131841
135154
936430
345455
458460
310167
404978
840618
714959
862423
691141
1.17858e+06
354752
203542
291610
744252
561722
266485
362460
517036
142501
295171
177635
172281
601079
603193
214691
759613
230686
247627
1.35189e+06
1.13099e+06
129609
151279
1.79821e+06
108069
183489
115396
227281
280641
916150
839725
764594
500919
506949
905901
207942
148822
138300
1.20406e+06
229605
214737
208881
200475
199909
191860
108964
177190
1.41791e+06
1.4244e+06
439887
345447
140022
974193
831154
350738
488323
699177
129667
97624.2
147947
1.81109e+06
702974
846160
64697.8
598747
227299
92476.4
222737
240864
208519
583795
138063