/*--------------------------------*- C++ -*----------------------------------*\
| =========                 |                                                 |
| \\      /  F ield         | OpenFOAM: The Open Source CFD Toolbox           |
|  \\    /   O peration     | Version:  2.3.1                                 |
|   \\  /    A nd           | Web:      www.OpenFOAM.org                      |
|    \\/     M anipulation  |                                                 |
\*---------------------------------------------------------------------------*/
FoamFile
{
    version     2.0;
    format      ascii;
    class       volVectorField;
    location    "260";
    object      D;
}
// * * * * * * * * * * * * * * * * * * * * * * * * * * * * * * * * * * * * * //

dimensions      [0 1 0 0 0 0 0];

internalField   nonuniform List<vector> 
11800
(
(1.24543e-06 4.25019e-05 0)
(-1.72217e-06 4.685e-05 0)
(9.57595e-07 1.68543e-05 0)
(-1.15243e-06 2.17587e-05 0)
(-1.57877e-06 4.67782e-05 0)
(-7.659e-07 2.17944e-05 0)
(-3.07795e-07 3.30249e-05 0)
(-3.00305e-07 2.64592e-05 0)
(1.27995e-07 5.40584e-06 0)
(1.6524e-07 1.73745e-05 0)
(1.39016e-06 4.24119e-05 0)
(-1.45482e-06 1.90521e-05 0)
(-2.36776e-09 -1.88515e-09 0)
(8.46408e-07 1.67705e-05 0)
(-1.02788e-06 2.18351e-05 0)
(1.32989e-06 3.48386e-06 0)
(-1.97648e-07 3.29418e-05 0)
(-1.96219e-07 2.63795e-05 0)
(6.08311e-08 5.45886e-06 0)
(8.2042e-08 1.73035e-05 0)
(-8.918e-07 2.17275e-05 0)
(-1.33679e-06 1.91154e-05 0)
(-3.32414e-07 1.35396e-06 0)
(-3.53464e-07 1.40545e-06 0)
(1.15982e-06 3.9309e-06 0)
(-5.10082e-07 2.15356e-06 0)
(-1.55472e-06 1.24054e-05 0)
(1.8141e-06 3.00612e-05 0)
(-1.45993e-06 9.82395e-06 0)
(-1.33972e-06 7.39668e-06 0)
(1.91104e-06 3.68192e-05 0)
(4.18202e-09 1.0748e-06 0)
(6.15045e-07 2.70448e-06 0)
(-1.07194e-06 4.79666e-05 0)
(7.53348e-07 4.77682e-05 0)
(-2.30853e-06 3.9015e-05 0)
(6.97355e-07 4.79182e-05 0)
(6.02976e-07 2.77359e-06 0)
(-3.01728e-07 3.46274e-05 0)
(1.6169e-07 1.87754e-05 0)
(-1.52611e-06 1.2522e-05 0)
(-1.43403e-06 9.93422e-06 0)
(1.77117e-06 2.99149e-05 0)
(-1.31707e-06 7.49983e-06 0)
(1.867e-06 3.66657e-05 0)
(1.26505e-06 3.51026e-06 0)
(3.53947e-07 1.58079e-06 0)
(3.96758e-07 1.55707e-06 0)
(-4.41329e-07 3.4653e-05 0)
(2.81766e-07 1.87971e-05 0)
(-2.22981e-06 2.67516e-05 0)
(-2.34687e-06 3.33169e-05 0)
(-2.76322e-07 4.2094e-05 0)
(9.92965e-09 1.02382e-06 0)
(-1.64386e-06 4.07584e-06 0)
(2.61461e-07 2.54822e-07 0)
(-2.88568e-06 4.85665e-05 0)
(-8.30902e-07 1.63324e-05 0)
(7.81666e-07 2.23283e-05 0)
(-6.21317e-07 1.57998e-05 0)
(5.00675e-07 7.77451e-07 0)
(-4.27595e-07 4.21221e-05 0)
(-7.29594e-07 1.63021e-05 0)
(6.74173e-07 2.23628e-05 0)
(1.08668e-06 3.87818e-06 0)
(-2.74766e-06 4.34387e-05 0)
(-2.31217e-06 2.66532e-05 0)
(-2.44152e-06 3.32102e-05 0)
(-2.74313e-06 4.84949e-05 0)
(-5.33399e-07 2.21717e-06 0)
(-9.6286e-07 4.8089e-05 0)
(-1.65091e-06 4.78518e-05 0)
(-1.69707e-06 4.7697e-05 0)
(-2.65329e-08 3.56794e-08 0)
(5.34593e-07 8.082e-07 0)
(-2.1781e-06 3.91112e-05 0)
(1.36298e-06 5.24097e-06 0)
(-2.79155e-06 4.35848e-05 0)
(-2.23491e-06 4.39152e-05 0)
(-2.09244e-06 4.4047e-05 0)
(-1.56921e-06 4.02722e-06 0)
(1.16759e-07 1.93703e-05 0)
(1.43112e-06 4.75092e-05 0)
(1.27046e-06 4.75359e-05 0)
(-2.5936e-07 1.98152e-05 0)
(-1.26356e-06 8.19879e-06 0)
(1.72206e-06 3.56469e-05 0)
(-1.36498e-06 1.06812e-05 0)
(-1.44653e-06 1.33104e-05 0)
(1.63189e-06 2.89455e-05 0)
(-1.15175e-07 4.12801e-05 0)
(6.59072e-07 2.58223e-06 0)
(-1.41352e-06 4.41686e-05 0)
(2.7346e-06 4.89043e-05 0)
(3.98688e-07 2.35885e-05 0)
(-6.31766e-10 -4.80783e-10 0)
(1.61087e-11 -1.00028e-10 0)
(6.19874e-10 -4.71957e-10 0)
(-9.51923e-08 4.25572e-05 0)
(-1.37962e-06 1.94011e-05 0)
(2.34245e-06 4.87443e-05 0)
(1.46828e-06 2.09761e-05 0)
(-8.05606e-07 3.63912e-06 0)
(-1.98798e-07 2.88501e-06 0)
(-1.42423e-07 4.65892e-05 0)
(1.75643e-07 5.6246e-06 0)
(-3.69581e-07 2.61337e-05 0)
(-3.75487e-07 3.26691e-05 0)
(7.47003e-07 1.4785e-06 0)
(1.29529e-06 1.06743e-05 0)
(1.20777e-06 8.19214e-06 0)
(1.36592e-06 1.33022e-05 0)
(-1.86757e-06 3.56523e-05 0)
(-1.77525e-06 2.89512e-05 0)
(2.3034e-07 1.70816e-05 0)
(5.90873e-07 1.36e-06 0)
(2.59908e-06 4.36e-05 0)
(-1.15313e-06 4.46333e-05 0)
(6.04048e-07 1.31355e-06 0)
(-2.50821e-07 1.75534e-05 0)
(-1.78161e-07 5.28016e-06 0)
(1.85202e-07 3.32345e-05 0)
(1.75905e-07 2.66492e-05 0)
(-3.94128e-07 3.20564e-05 0)
(-1.42227e-06 4.43181e-05 0)
(-1.8481e-07 4.24382e-05 0)
(-9.36809e-07 4.66056e-05 0)
(-2.67392e-07 4.64911e-05 0)
(-3.09784e-06 5.00406e-05 0)
(-3.20782e-06 4.99285e-05 0)
(-1.6194e-07 7.72502e-08 0)
(-6.51612e-07 1.73103e-06 0)
(1.76902e-06 3.47237e-05 0)
(-1.33433e-06 8.85214e-06 0)
(1.67412e-06 2.80724e-05 0)
(-1.43258e-06 1.13764e-05 0)
(-1.51299e-06 1.40412e-05 0)
(1.62737e-06 3.47514e-05 0)
(-1.23252e-06 8.83046e-06 0)
(1.53999e-06 2.80984e-05 0)
(-1.32394e-06 1.13538e-05 0)
(-1.39883e-06 1.40177e-05 0)
(-3.75771e-07 4.93404e-06 0)
(5.34843e-07 3.37839e-05 0)
(5.02665e-07 2.71842e-05 0)
(-5.61646e-07 1.80246e-05 0)
(2.37775e-06 1.94599e-05 0)
(-2.48229e-06 1.91086e-05 0)
(1.44173e-06 2.11024e-05 0)
(-2.70842e-07 3.0439e-06 0)
(-1.56189e-06 4.11114e-05 0)
(-1.54927e-06 4.13048e-05 0)
(6.68984e-07 4.74361e-05 0)
(-1.73626e-06 3.90616e-05 0)
(6.18158e-07 2.89349e-05 0)
(6.67886e-07 3.56313e-05 0)
(-1.93323e-06 3.19352e-05 0)
(-1.82774e-06 2.54412e-05 0)
(1.17971e-06 6.11751e-06 0)
(-2.0392e-07 4.1418e-05 0)
(8.13641e-07 1.5014e-06 0)
(-1.59218e-06 3.90954e-05 0)
(1.42534e-06 5.30694e-06 0)
(-8.33903e-07 1.37644e-05 0)
(-7.86733e-07 1.11118e-05 0)
(-7.29151e-07 8.60138e-06 0)
(8.83785e-07 2.83816e-05 0)
(9.34617e-07 3.50513e-05 0)
(-7.59003e-07 1.0607e-06 0)
(-1.14021e-06 5.91625e-06 0)
(1.68549e-06 3.22417e-05 0)
(1.59009e-06 2.57302e-05 0)
(3.30748e-07 3.26384e-05 0)
(-2.62251e-06 3.88554e-05 0)
(-2.64871e-06 3.90608e-05 0)
(1.34121e-06 3.93369e-06 0)
(1.33765e-06 4.03091e-06 0)
(1.20304e-06 1.04132e-05 0)
(1.27012e-06 1.30278e-05 0)
(1.11943e-06 7.94765e-06 0)
(-1.67157e-06 2.92821e-05 0)
(-1.75702e-06 3.60052e-05 0)
(6.30224e-07 2.87815e-05 0)
(6.72302e-07 3.54743e-05 0)
(7.41423e-07 1.90535e-05 0)
(-4.38601e-07 1.79913e-05 0)
(-2.91606e-07 4.95675e-06 0)
(3.91105e-07 3.37449e-05 0)
(3.66357e-07 2.71475e-05 0)
(-6.49453e-07 4.0612e-05 0)
(-2.86184e-07 9.3928e-06 0)
(-3.09046e-07 1.19524e-05 0)
(-2.27056e-06 4.31384e-05 0)
(-1.09643e-07 2.54569e-06 0)
(-2.26897e-06 2.26233e-05 0)
(1.98817e-06 1.60914e-05 0)
(3.83961e-08 4.45166e-08 0)
(-1.38715e-06 4.80361e-05 0)
(2.58085e-06 4.37572e-05 0)
(-1.39881e-07 9.39602e-08 0)
(1.67704e-06 4.56467e-05 0)
(2.10723e-06 3.96623e-05 0)
(2.26544e-06 3.96911e-05 0)
(-1.32818e-07 4.68032e-05 0)
(-2.41827e-07 4.69394e-05 0)
(1.31745e-06 1.57745e-05 0)
(1.15641e-06 1.58332e-05 0)
(-1.5611e-06 2.29462e-05 0)
(-1.38281e-06 2.288e-05 0)
(1.56431e-07 7.41935e-08 0)
(-3.78922e-07 3.58504e-06 0)
(-4.43942e-07 2.1121e-06 0)
(-1.17646e-08 4.51123e-09 0)
(1.29187e-06 2.44863e-06 0)
(-3.66842e-08 1.18044e-08 0)
(1.5541e-07 2.07839e-06 0)
(-1.5646e-06 4.65788e-05 0)
(-9.76612e-07 8.03149e-06 0)
(-1.05485e-06 1.05055e-05 0)
(-1.11997e-06 1.3126e-05 0)
(1.31278e-06 3.58779e-05 0)
(1.24837e-06 2.91666e-05 0)
(3.11631e-08 3.36906e-05 0)
(2.53274e-08 2.70959e-05 0)
(-7.93336e-08 4.98833e-06 0)
(-1.33278e-07 1.79473e-05 0)
(-5.43195e-08 8.78207e-09 0)
(1.27154e-07 6.07136e-06 0)
(-2.89238e-07 2.54831e-05 0)
(-7.9216e-07 1.744e-05 0)
(1.89098e-07 5.99311e-06 0)
(-3.82806e-07 2.55958e-05 0)
(-1.08961e-06 4.43124e-05 0)
(1.29949e-06 1.91666e-05 0)
(1.20853e-06 1.90455e-05 0)
(1.14677e-08 4.35437e-09 0)
(5.31753e-08 8.50429e-09 0)
(-2.04679e-06 4.15549e-05 0)
(-1.97175e-06 4.17118e-05 0)
(-2.11502e-06 1.67021e-05 0)
(2.14607e-06 2.19501e-05 0)
(1.62475e-06 3.59899e-05 0)
(1.54041e-06 2.92701e-05 0)
(-1.18306e-06 7.95985e-06 0)
(-1.28141e-06 1.0426e-05 0)
(-1.36013e-06 1.30417e-05 0)
(-1.27604e-07 4.22862e-05 0)
(-1.06145e-06 5.69145e-06 0)
(1.58881e-06 3.25884e-05 0)
(1.49953e-06 2.60564e-05 0)
(1.02464e-06 1.93329e-05 0)
(7.86674e-07 4.01343e-05 0)
(1.27879e-06 4.89568e-05 0)
(2.03318e-07 2.05063e-06 0)
(-6.04169e-07 1.59335e-05 0)
(-1.0232e-08 8.19975e-07 0)
(3.58397e-08 1.1419e-08 0)
(4.74368e-07 1.66566e-05 0)
(4.01665e-07 1.65128e-05 0)
(-5.98303e-07 2.19898e-05 0)
(-5.2055e-07 2.21247e-05 0)
(1.0272e-06 1.31199e-05 0)
(9.73773e-07 1.05002e-05 0)
(9.07802e-07 8.02792e-06 0)
(-1.37159e-06 2.91669e-05 0)
(-1.44069e-06 3.58838e-05 0)
(-7.99619e-07 4.8049e-05 0)
(4.26119e-07 6.10726e-07 0)
(-5.87898e-08 2.95513e-05 0)
(-3.54078e-08 7.73853e-06 0)
(9.11929e-07 4.65152e-05 0)
(7.97085e-07 1.89395e-05 0)
(-3.16447e-06 4.60139e-05 0)
(9.18688e-07 1.94486e-05 0)
(6.41251e-08 5.44421e-08 0)
(2.47868e-06 3.84279e-05 0)
(2.49342e-06 3.82382e-05 0)
(-1.64124e-06 2.60858e-05 0)
(-1.73688e-06 3.2615e-05 0)
(-1.47278e-06 2.6031e-05 0)
(-1.55839e-06 3.25571e-05 0)
(1.01842e-06 5.67074e-06 0)
(9.08857e-07 5.70506e-06 0)
(7.19608e-07 2.42971e-05 0)
(8.66813e-07 2.42732e-05 0)
(7.63068e-07 3.07183e-05 0)
(9.19625e-07 3.0693e-05 0)
(-5.9037e-07 6.92314e-06 0)
(-6.97336e-07 6.9421e-06 0)
(-1.50488e-07 3.41723e-06 0)
(6.8186e-07 2.27047e-06 0)
(6.39375e-07 2.1992e-06 0)
(6.71877e-07 1.7025e-06 0)
(6.63052e-07 4.02874e-05 0)
(-2.58092e-06 3.84944e-05 0)
(-2.59443e-06 3.82971e-05 0)
(1.3641e-06 4.34225e-06 0)
(1.3423e-06 4.23192e-06 0)
(2.07794e-06 1.94657e-05 0)
(2.10277e-06 1.96465e-05 0)
(-2.18212e-06 1.90983e-05 0)
(-2.19703e-06 1.89196e-05 0)
(8.40307e-07 4.74072e-05 0)
(-2.54878e-06 4.79701e-05 0)
(-2.44128e-06 4.10808e-05 0)
(9.35218e-07 1.19989e-06 0)
(-1.52071e-06 4.7422e-05 0)
(-1.36451e-06 4.72741e-05 0)
(5.73907e-07 2.4529e-05 0)
(-4.53467e-07 2.24432e-05 0)
(3.22976e-07 1.62304e-05 0)
(-1.87129e-06 1.9529e-05 0)
(1.73199e-06 1.90239e-05 0)
(-1.20116e-06 4.28153e-06 0)
(-4.39304e-08 3.08516e-08 0)
(2.03231e-07 1.01351e-06 0)
(1.13538e-07 1.71264e-05 0)
(-1.61976e-06 1.72214e-05 0)
(1.56195e-06 2.13659e-05 0)
(-9.69041e-07 1.59377e-05 0)
(9.61342e-07 2.27688e-05 0)
(4.36084e-07 3.64801e-05 0)
(6.24106e-07 3.64114e-05 0)
(-4.01744e-07 1.00571e-05 0)
(-5.39113e-07 1.0108e-05 0)
(-4.30003e-07 1.26543e-05 0)
(-5.75628e-07 1.27079e-05 0)
(8.23844e-08 5.59101e-06 0)
(-2.28363e-07 2.61829e-05 0)
(-2.2693e-07 3.27241e-05 0)
(-3.38793e-07 4.58133e-05 0)
(6.12943e-07 1.69346e-06 0)
(-1.36926e-07 2.19629e-05 0)
(-1.24122e-06 4.68529e-05 0)
(2.82228e-07 2.6334e-07 0)
(9.96206e-07 2.96713e-05 0)
(-7.80021e-07 7.66271e-06 0)
(-1.90688e-06 2.21536e-05 0)
(-1.79535e-06 2.20623e-05 0)
(1.66012e-06 1.65092e-05 0)
(1.5598e-06 1.65931e-05 0)
(-1.82945e-06 4.86775e-05 0)
(-1.84873e-06 4.84869e-05 0)
(-4.53228e-07 3.4355e-06 0)
(-5.34228e-07 3.42331e-06 0)
(2.22585e-07 1.05854e-06 0)
(-5.62771e-07 1.09301e-06 0)
(2.87325e-08 2.28617e-05 0)
(6.7932e-07 5.76512e-06 0)
(5.66123e-07 5.79833e-06 0)
(-1.12285e-06 2.59356e-05 0)
(-9.51021e-07 2.58841e-05 0)
(-1.18714e-06 3.24573e-05 0)
(-1.00476e-06 3.2403e-05 0)
(-2.34342e-06 3.9905e-05 0)
(-2.17271e-06 3.99187e-05 0)
(-6.16487e-07 1.4538e-05 0)
(-5.94263e-07 1.18468e-05 0)
(-5.53207e-07 9.29344e-06 0)
(6.59016e-07 3.75381e-05 0)
(-1.89991e-07 4.19183e-05 0)
(1.5527e-06 1.901e-05 0)
(1.46475e-06 1.9147e-05 0)
(6.07593e-07 3.30865e-05 0)
(5.88813e-07 2.65184e-05 0)
(-4.45974e-07 5.36919e-06 0)
(3.61469e-07 5.93007e-06 0)
(2.91197e-07 6.03159e-06 0)
(-5.76818e-07 3.20506e-05 0)
(-6.74946e-07 3.21927e-05 0)
(-6.39604e-07 2.56887e-05 0)
(-5.32301e-07 2.55413e-05 0)
(-8.5921e-07 5.49168e-06 0)
(1.2151e-06 2.63457e-05 0)
(1.28745e-06 3.28955e-05 0)
(-3.21285e-08 3.25811e-07 0)
(2.28664e-06 2.12066e-05 0)
(-2.28901e-06 1.74068e-05 0)
(-1.96393e-08 3.0441e-07 0)
(-7.29781e-07 3.59846e-05 0)
(-8.46147e-07 3.61578e-05 0)
(-6.80717e-07 2.9277e-05 0)
(-7.87231e-07 2.94415e-05 0)
(4.82254e-07 7.82462e-06 0)
(4.09039e-07 7.94336e-06 0)
(5.32567e-07 1.02942e-05 0)
(4.4968e-07 1.04211e-05 0)
(5.61157e-07 1.2904e-05 0)
(4.72919e-07 1.30378e-05 0)
(2.45444e-06 3.9968e-05 0)
(2.50148e-06 4.01482e-05 0)
(-3.86904e-07 2.12827e-06 0)
(8.89655e-07 2.9797e-05 0)
(-7.01295e-07 7.57161e-06 0)
(1.10587e-06 6.16465e-06 0)
(-1.71504e-06 2.53707e-05 0)
(-1.81775e-06 3.18563e-05 0)
(-4.28275e-08 1.31037e-08 0)
(2.59825e-07 4.14668e-05 0)
(1.10057e-06 5.91497e-06 0)
(-1.73549e-06 2.57307e-05 0)
(-1.83994e-06 3.22326e-05 0)
(9.82554e-07 1.9477e-06 0)
(-1.30872e-06 4.45754e-05 0)
(1.09511e-06 4.84558e-06 0)
(-2.01951e-06 3.73993e-05 0)
(-6.59946e-07 2.78107e-06 0)
(-7.01009e-07 2.87298e-06 0)
(6.54577e-07 2.84411e-06 0)
(-2.77401e-07 2.19346e-05 0)
(-3.02517e-09 -2.22608e-09 0)
(-1.38681e-06 4.84334e-05 0)
(-3.82769e-08 1.56836e-08 0)
(4.18323e-08 1.26654e-08 0)
(-8.75378e-07 5.75646e-06 0)
(1.28553e-06 3.24797e-05 0)
(1.21291e-06 2.59538e-05 0)
(9.69739e-07 4.15255e-05 0)
(-3.04546e-06 4.42342e-05 0)
(3.45638e-07 2.07603e-05 0)
(-3.14165e-07 2.0309e-05 0)
(-1.19688e-07 2.90026e-06 0)
(-3.35515e-07 4.06125e-07 0)
(-2.18124e-09 -1.96428e-09 0)
(-8.73341e-07 1.6061e-05 0)
(8.5659e-07 2.26361e-05 0)
(1.17481e-07 4.14277e-08 0)
(-1.5971e-07 2.00605e-05 0)
(-1.53811e-07 1.98994e-05 0)
(-5.58962e-08 1.73522e-05 0)
(-5.05232e-08 5.42999e-06 0)
(-2.45439e-08 2.64227e-05 0)
(-2.78655e-08 3.29983e-05 0)
(-1.20344e-07 4.28169e-08 0)
(3.8331e-07 3.11153e-06 0)
(-1.08434e-06 3.68622e-05 0)
(6.9365e-07 9.78222e-06 0)
(7.34196e-07 1.23641e-05 0)
(7.6579e-07 1.50751e-05 0)
(2.09967e-06 4.66597e-05 0)
(-1.14508e-06 5.21488e-06 0)
(1.78977e-06 3.33529e-05 0)
(1.69083e-06 2.67774e-05 0)
(-1.28877e-06 4.33765e-05 0)
(2.90931e-07 8.93198e-07 0)
(1.58624e-06 4.26545e-05 0)
(-6.01604e-07 1.07693e-06 0)
(1.09363e-06 4.68284e-05 0)
(-9.42888e-07 3.68656e-05 0)
(5.91864e-07 9.77936e-06 0)
(6.2609e-07 1.23612e-05 0)
(6.52944e-07 1.50713e-05 0)
(2.53795e-07 8.49955e-07 0)
(7.04948e-07 3.04396e-05 0)
(-5.57239e-07 7.11603e-06 0)
(-2.20643e-07 3.10173e-06 0)
(-2.22972e-06 4.27886e-05 0)
(-9.71316e-07 1.38063e-05 0)
(-9.17156e-07 1.11519e-05 0)
(-8.51015e-07 8.63931e-06 0)
(1.0413e-06 2.83422e-05 0)
(1.1007e-06 3.50095e-05 0)
(2.92627e-06 4.91984e-05 0)
(1.66921e-06 4.37016e-05 0)
(1.85815e-06 4.36342e-05 0)
(4.34901e-08 3.45876e-08 0)
(1.14334e-06 1.59846e-05 0)
(-1.36338e-06 2.27122e-05 0)
(-6.58059e-07 1.6176e-05 0)
(6.08395e-07 2.2516e-05 0)
(-2.46762e-07 2.39554e-05 0)
(-1.97772e-07 3.61899e-05 0)
(5.88483e-08 1.28778e-05 0)
(5.8715e-08 1.02688e-05 0)
(-2.55497e-08 7.60039e-06 0)
(-8.834e-08 2.33899e-05 0)
(-7.22631e-08 2.97505e-05 0)
(1.29984e-06 4.9136e-05 0)
(9.80614e-08 3.18514e-06 0)
(-6.41047e-08 8.31235e-07 0)
(2.02199e-07 3.13107e-05 0)
(1.38638e-08 8.57519e-07 0)
(-3.27726e-07 2.44572e-06 0)
(6.32019e-07 7.5819e-06 0)
(-1.01555e-06 2.978e-05 0)
(-3.53598e-08 4.68663e-08 0)
(-2.06984e-06 4.27706e-05 0)
(-2.59628e-07 5.33834e-06 0)
(2.98776e-07 3.31506e-05 0)
(3.01026e-07 2.6562e-05 0)
(8.28472e-08 1.93691e-08 0)
(-9.65694e-07 1.98131e-06 0)
(7.2621e-07 1.262e-05 0)
(6.87199e-07 1.00249e-05 0)
(-1.06676e-06 3.65279e-05 0)
(1.62568e-07 1.65891e-05 0)
(-1.42375e-06 4.78643e-05 0)
(-4.23444e-08 5.74077e-09 0)
(-1.21164e-06 2.97749e-06 0)
(8.03802e-07 1.72627e-06 0)
(-8.71975e-07 1.0702e-06 0)
(1.55835e-06 1.92979e-05 0)
(1.13605e-06 2.27161e-05 0)
(-1.14635e-06 1.59811e-05 0)
(6.16356e-08 7.53311e-06 0)
(-2.26184e-07 2.34638e-05 0)
(-1.96766e-07 2.98447e-05 0)
(1.37887e-06 4.22197e-05 0)
(1.35857e-06 2.08144e-05 0)
(6.36501e-07 4.81998e-05 0)
(6.10861e-07 4.83639e-05 0)
(1.46321e-07 2.26293e-05 0)
(2.41602e-07 1.6486e-05 0)
(4.1448e-08 5.55047e-09 0)
(-1.9964e-06 3.87025e-05 0)
(1.01019e-06 4.10434e-06 0)
(3.28626e-09 7.71288e-08 0)
(3.15526e-07 2.89227e-05 0)
(4.3007e-07 2.90078e-05 0)
(1.15054e-09 7.14438e-09 0)
(-6.09777e-07 1.68046e-06 0)
(1.03029e-06 1.27936e-05 0)
(9.75033e-07 1.01903e-05 0)
(9.06855e-07 7.72869e-06 0)
(-1.38739e-06 2.95528e-05 0)
(-1.45654e-06 3.63054e-05 0)
(1.23937e-06 1.99773e-05 0)
(1.12115e-07 4.15065e-05 0)
(-8.54996e-07 4.62455e-05 0)
(-8.12921e-07 4.64666e-05 0)
(-1.35202e-07 3.67033e-05 0)
(-1.24923e-07 3.688e-05 0)
(2.90251e-08 9.76309e-06 0)
(2.25401e-08 9.8859e-06 0)
(2.74063e-08 1.23443e-05 0)
(2.05214e-08 1.2474e-05 0)
(-4.76304e-09 1.50539e-05 0)
(3.56884e-09 1.51855e-05 0)
(4.33056e-08 2.26922e-05 0)
(1.26128e-07 2.2995e-05 0)
(2.49225e-07 3.28174e-05 0)
(-1.36805e-07 2.39064e-05 0)
(-8.46399e-08 1.99813e-08 0)
(-9.281e-08 7.95321e-07 0)
(6.14322e-07 3.03019e-05 0)
(-4.97773e-07 7.21185e-06 0)
(2.84997e-07 1.07656e-06 0)
(2.56373e-06 4.68677e-05 0)
(-2.59174e-07 3.70212e-05 0)
(1.16939e-07 9.6693e-06 0)
(1.2102e-07 1.22452e-05 0)
(1.05399e-07 1.49448e-05 0)
(-2.06188e-06 4.00875e-05 0)
(7.05446e-07 1.68103e-05 0)
(9.59438e-07 4.94852e-05 0)
(1.09336e-06 4.93844e-05 0)
(-3.25168e-07 2.51478e-06 0)
(-1.86262e-07 2.94194e-05 0)
(5.50242e-08 7.83368e-06 0)
(5.2937e-08 6.60374e-08 0)
(2.51588e-06 4.80686e-05 0)
(-6.80638e-08 1.34777e-06 0)
(-6.29148e-07 1.07634e-05 0)
(-6.68703e-07 1.33983e-05 0)
(-7.89747e-07 1.3515e-05 0)
(-7.44062e-07 1.08745e-05 0)
(-5.74066e-07 8.2713e-06 0)
(-6.86088e-07 8.37836e-06 0)
(7.98277e-07 2.86815e-05 0)
(8.44306e-07 3.53696e-05 0)
(6.15404e-07 9.76897e-07 0)
(-4.39234e-08 2.92711e-08 0)
(-2.27884e-06 3.3959e-05 0)
(-2.38299e-06 4.79801e-05 0)
(7.23846e-07 2.29795e-05 0)
(-1.16291e-07 1.37667e-06 0)
(-1.26826e-06 2.86368e-05 0)
(-1.33288e-06 3.53222e-05 0)
(8.48663e-07 8.41878e-06 0)
(9.06916e-07 1.09174e-05 0)
(9.5444e-07 1.35587e-05 0)
(1.04733e-06 4.16489e-05 0)
(2.47275e-06 4.82242e-05 0)
(-1.50531e-06 1.9443e-05 0)
(7.0564e-07 7.66006e-06 0)
(-1.11974e-06 2.96701e-05 0)
(6.89432e-07 2.31283e-05 0)
(-3.51016e-07 1.74643e-05 0)
(8.07259e-07 1.27091e-05 0)
(7.64039e-07 1.01095e-05 0)
(-1.16973e-06 3.64128e-05 0)
(-2.20992e-06 1.96243e-05 0)
(2.06091e-06 1.89509e-05 0)
(2.05672e-06 1.91257e-05 0)
(-2.18524e-06 1.94394e-05 0)
(-1.38943e-06 4.23303e-06 0)
(-1.42444e-06 4.3498e-06 0)
(-1.05745e-06 1.91302e-05 0)
(-8.18124e-07 1.0958e-06 0)
(-1.67637e-06 1.9249e-05 0)
(-2.86122e-07 4.02914e-05 0)
(-3.45221e-07 4.78908e-07 0)
(1.75952e-06 1.22994e-05 0)
(1.66003e-06 9.72344e-06 0)
(-2.24116e-06 2.69473e-05 0)
(3.61944e-07 1.27184e-05 0)
(3.44201e-07 1.01178e-05 0)
(-5.91219e-07 3.63975e-05 0)
(1.04327e-06 3.70966e-06 0)
(1.17853e-06 2.25625e-05 0)
(-1.18986e-06 1.61227e-05 0)
(-9.62593e-07 1.20865e-06 0)
(5.52886e-07 3.2931e-05 0)
(5.35574e-07 2.63776e-05 0)
(-4.14816e-07 5.46257e-06 0)
(1.71524e-06 3.13459e-05 0)
(-1.2059e-06 6.50825e-06 0)
(1.61602e-06 2.48884e-05 0)
(-1.47263e-06 4.18127e-06 0)
(1.18605e-06 4.63303e-05 0)
(1.36966e-06 4.62689e-05 0)
(1.31542e-06 3.63042e-05 0)
(1.25462e-06 2.95555e-05 0)
(-9.67138e-07 7.74923e-06 0)
(-1.04491e-06 1.01916e-05 0)
(-1.11149e-06 1.2795e-05 0)
(-3.66297e-07 4.1652e-07 0)
(-1.15998e-06 4.33367e-05 0)
(1.14424e-06 2.92769e-05 0)
(-8.96913e-07 7.95028e-06 0)
(-2.23397e-07 3.26932e-07 0)
(9.59821e-07 4.68008e-05 0)
(4.35746e-07 4.12662e-07 0)
(3.64178e-07 3.14905e-07 0)
(8.5487e-07 1.40266e-06 0)
(1.17176e-06 3.84933e-05 0)
(-2.1513e-06 3.94301e-05 0)
(2.73129e-06 4.69221e-05 0)
(8.61913e-07 1.46932e-06 0)
(1.23208e-06 2.08096e-05 0)
(1.6116e-06 4.05392e-05 0)
(-2.75374e-06 3.85853e-05 0)
(1.43053e-06 4.18603e-06 0)
(-6.82607e-07 4.07668e-05 0)
(2.49648e-07 1.27517e-05 0)
(2.38444e-07 1.01493e-05 0)
(-4.45249e-07 3.63538e-05 0)
(-1.64294e-07 8.83694e-07 0)
(6.78434e-07 2.40287e-05 0)
(3.7122e-08 1.50726e-08 0)
(-1.28298e-06 2.95007e-06 0)
(-2.08324e-07 2.04136e-05 0)
(-5.45147e-07 5.04357e-06 0)
(-6.30087e-07 5.07255e-06 0)
(7.66012e-07 2.70182e-05 0)
(8.98467e-07 2.69757e-05 0)
(9.52555e-07 3.35631e-05 0)
(8.12745e-07 3.3608e-05 0)
(4.01177e-08 1.96317e-07 0)
(-2.37771e-08 2.07047e-06 0)
(-1.55402e-06 2.46955e-05 0)
(-1.64886e-06 3.114e-05 0)
(1.02666e-06 6.6418e-06 0)
(-6.90271e-07 4.20675e-06 0)
(-3.32213e-07 3.18928e-05 0)
(-6.7708e-07 1.95382e-06 0)
(7.92554e-07 4.63975e-05 0)
(-7.99173e-07 1.78715e-05 0)
(-9.17877e-07 1.7834e-05 0)
(4.2409e-08 5.24224e-08 0)
(-5.44952e-07 1.83763e-05 0)
(-3.54554e-07 4.68557e-06 0)
(4.81807e-07 2.75753e-05 0)
(5.1243e-07 3.41981e-05 0)
(-6.99851e-07 3.18967e-05 0)
(-6.32647e-07 2.53981e-05 0)
(3.61738e-07 6.13191e-06 0)
(5.70007e-07 2.55482e-06 0)
(5.30369e-07 2.47082e-06 0)
(1.45302e-07 1.78292e-05 0)
(-2.95148e-07 3.35518e-05 0)
(-2.84269e-07 2.69622e-05 0)
(1.14897e-07 5.07478e-06 0)
(-3.16155e-07 8.1591e-06 0)
(-6.36663e-07 2.00425e-06 0)
(1.53157e-06 4.73852e-05 0)
(-1.62056e-06 3.01441e-05 0)
(1.27624e-06 1.60686e-05 0)
(-1.50491e-06 2.26226e-05 0)
(1.63225e-06 4.07018e-05 0)
(-1.80608e-06 1.49828e-05 0)
(-1.7222e-06 1.22733e-05 0)
(1.90754e-06 2.38285e-05 0)
(-1.61648e-06 9.69969e-06 0)
(-1.48389e-06 7.28537e-06 0)
(2.03326e-06 3.0225e-05 0)
(2.13829e-06 3.70003e-05 0)
(-6.27478e-07 3.56023e-05 0)
(-5.99535e-07 2.89013e-05 0)
(3.78364e-07 1.07042e-05 0)
(3.55911e-07 8.21833e-06 0)
(3.96625e-07 1.33356e-05 0)
(3.58717e-07 1.0834e-05 0)
(-5.98673e-07 3.54282e-05 0)
(3.75511e-07 1.34721e-05 0)
(3.3793e-07 8.33995e-06 0)
(-5.72002e-07 2.87368e-05 0)
(-3.66723e-07 4.39482e-05 0)
(-1.02109e-06 1.49778e-06 0)
(-9.37498e-07 6.07858e-06 0)
(1.3509e-06 3.19843e-05 0)
(1.27403e-06 2.54878e-05 0)
(-5.75611e-07 7.87886e-06 0)
(7.04587e-07 2.93725e-05 0)
(2.02753e-06 3.53169e-05 0)
(1.92063e-06 2.86335e-05 0)
(-1.49053e-06 8.43461e-06 0)
(-1.60538e-06 1.09317e-05 0)
(-1.69812e-06 1.35735e-05 0)
(2.13866e-06 3.81317e-05 0)
(2.34047e-06 3.8089e-05 0)
(7.31464e-08 1.79064e-06 0)
(-2.89423e-07 2.01362e-05 0)
(-9.24509e-07 2.88835e-06 0)
(5.23901e-08 1.24317e-07 0)
(-8.87824e-07 3.5847e-06 0)
(-1.57829e-07 4.03626e-05 0)
(2.63776e-08 1.7201e-06 0)
(-5.60655e-07 2.13261e-05 0)
(1.96643e-06 2.69606e-05 0)
(-1.30922e-06 5.10352e-06 0)
(2.0808e-06 3.35468e-05 0)
(-3.70803e-09 -2.56919e-09 0)
(7.50534e-08 3.13363e-05 0)
(6.87806e-08 2.99223e-08 0)
(4.6631e-08 3.9588e-08 0)
(3.08794e-07 2.37074e-05 0)
(-7.9872e-08 7.54222e-08 0)
(1.56691e-06 4.77072e-05 0)
(6.45717e-08 2.90006e-05 0)
(-1.16771e-07 8.1378e-06 0)
(5.07112e-07 3.64426e-06 0)
(1.67636e-07 2.89242e-05 0)
(-1.95733e-07 8.189e-06 0)
(-4.40914e-08 9.17888e-07 0)
(-1.84601e-06 1.22972e-05 0)
(-1.73349e-06 9.7228e-06 0)
(-1.59175e-06 7.30841e-06 0)
(-1.40948e-06 5.11301e-06 0)
(2.12187e-06 2.69516e-05 0)
(2.18539e-06 3.01967e-05 0)
(2.24528e-06 3.35371e-05 0)
(2.29901e-06 3.6971e-05 0)
(-1.10554e-06 3.95319e-05 0)
(-9.94183e-07 4.6164e-05 0)
(-3.06418e-06 3.88954e-05 0)
(1.57563e-06 4.0237e-06 0)
(6.22877e-07 4.86837e-05 0)
(7.3492e-07 4.8492e-05 0)
(1.57306e-07 2.83812e-05 0)
(1.7319e-07 3.50545e-05 0)
(-2.35339e-07 1.37783e-05 0)
(-2.19497e-07 1.11248e-05 0)
(-2.00518e-07 8.61297e-06 0)
(-1.2776e-06 4.19437e-06 0)
(4.5504e-07 3.11658e-06 0)
(-1.37186e-06 1.4319e-05 0)
(1.49625e-06 2.77372e-05 0)
(-1.29983e-06 1.16412e-05 0)
(-1.21289e-06 9.1012e-06 0)
(1.5821e-06 3.43692e-05 0)
(-9.60984e-07 4.60118e-06 0)
(1.60138e-06 3.78298e-05 0)
(2.44364e-07 1.9428e-05 0)
(-2.40399e-07 4.17292e-05 0)
(3.14532e-07 1.66199e-07 0)
(-1.87831e-07 3.71929e-05 0)
(6.55761e-08 9.54643e-06 0)
(6.63021e-08 1.21153e-05 0)
(4.79807e-08 1.48088e-05 0)
(4.56082e-07 4.30743e-05 0)
(-1.30118e-07 9.32649e-08 0)
(2.58155e-06 4.24568e-05 0)
(-4.73109e-07 2.03892e-05 0)
(-2.28138e-08 5.9801e-08 0)
(8.98315e-07 2.73734e-05 0)
(-6.15911e-07 4.81719e-06 0)
(9.51851e-07 3.39842e-05 0)
(3.72613e-08 3.36895e-08 0)
(-8.01085e-07 5.68551e-06 0)
(1.1079e-06 2.60557e-05 0)
(1.17437e-06 3.2588e-05 0)
(3.28809e-07 5.12436e-07 0)
(-9.20675e-07 1.81971e-05 0)
(1.2753e-07 1.92369e-05 0)
(-1.89686e-06 4.50721e-05 0)
(1.12216e-07 2.8512e-05 0)
(1.21812e-07 3.51897e-05 0)
(-2.06131e-07 1.36679e-05 0)
(-1.74123e-07 8.51467e-06 0)
(-1.91732e-07 1.10197e-05 0)
(2.34595e-07 1.95471e-05 0)
(-6.99718e-08 3.06484e-07 0)
(-6.47807e-08 9.62568e-07 0)
(1.54204e-08 4.03039e-05 0)
(1.84043e-06 2.07561e-05 0)
(-1.88403e-06 1.78303e-05 0)
(-1.35265e-06 4.99295e-05 0)
(-2.9798e-06 3.41624e-05 0)
(-2.81925e-06 2.75428e-05 0)
(-2.9023e-06 3.08048e-05 0)
(-2.73262e-06 2.43813e-05 0)
(1.8962e-06 6.89538e-06 0)
(2.0659e-06 9.27084e-06 0)
(2.19614e-06 1.18187e-05 0)
(2.30504e-06 1.4501e-05 0)
(2.85196e-06 3.41632e-05 0)
(2.77675e-06 3.08046e-05 0)
(-1.95914e-06 6.89939e-06 0)
(-2.14291e-06 9.27583e-06 0)
(2.69721e-06 2.75434e-05 0)
(-2.28646e-06 1.18218e-05 0)
(2.61461e-06 2.43802e-05 0)
(-2.40528e-06 1.45053e-05 0)
(-1.23419e-06 4.08991e-06 0)
(-5.17147e-07 4.16498e-05 0)
(-3.87821e-07 4.16144e-05 0)
(-4.65522e-07 4.65919e-05 0)
(6.09363e-07 2.99832e-05 0)
(-5.0057e-07 7.4369e-06 0)
(-2.25968e-07 3.89487e-07 0)
(-5.8485e-07 4.9e-05 0)
(-7.04722e-07 1.32506e-05 0)
(-8.53445e-07 1.32084e-05 0)
(-6.62766e-07 1.06231e-05 0)
(-8.03215e-07 1.05833e-05 0)
(7.80746e-07 3.57668e-05 0)
(9.49632e-07 3.57813e-05 0)
(2.16268e-06 3.52368e-05 0)
(2.0485e-06 2.85578e-05 0)
(-1.58921e-06 8.49324e-06 0)
(-1.71008e-06 1.09937e-05 0)
(-1.8079e-06 1.36384e-05 0)
(-1.43607e-06 2.47687e-05 0)
(-1.52343e-06 3.12179e-05 0)
(9.3982e-07 6.58728e-06 0)
(-4.95821e-07 2.25926e-05 0)
(3.45919e-07 1.60945e-05 0)
(3.78249e-07 3.66524e-05 0)
(-3.56837e-07 9.91838e-06 0)
(-3.8272e-07 1.2508e-05 0)
(-3.99926e-07 1.5199e-05 0)
(8.71324e-07 1.59336e-05 0)
(7.30088e-07 1.59679e-05 0)
(-1.06874e-06 2.27643e-05 0)
(-9.14036e-07 2.27257e-05 0)
(-1.05007e-06 4.86655e-05 0)
(1.09756e-07 3.7542e-07 0)
(1.57207e-06 4.24977e-05 0)
(5.88526e-07 1.73837e-05 0)
(1.5489e-06 3.07783e-05 0)
(-1.12167e-06 6.89151e-06 0)
(1.45796e-06 2.43545e-05 0)
(-1.50829e-06 2.02047e-05 0)
(4.40299e-07 5.40136e-06 0)
(-8.24177e-07 3.30248e-05 0)
(-7.82748e-07 2.64694e-05 0)
(4.95885e-08 1.79655e-05 0)
(-1.78057e-07 2.71137e-05 0)
(-1.83075e-07 3.37118e-05 0)
(4.76706e-08 4.97666e-06 0)
(9.6709e-07 1.65482e-05 0)
(-1.15557e-06 2.20965e-05 0)
(-5.70644e-07 4.39475e-05 0)
(-2.40604e-06 4.35705e-05 0)
(3.82241e-07 2.12458e-05 0)
(1.04559e-06 2.12995e-05 0)
(-1.22345e-06 5.26159e-06 0)
(1.91148e-06 3.32815e-05 0)
(1.80574e-06 2.67101e-05 0)
(-1.66126e-07 7.92047e-07 0)
(-3.77182e-07 3.74201e-05 0)
(1.84683e-07 9.38218e-06 0)
(1.93396e-07 1.19415e-05 0)
(1.97733e-07 1.46288e-05 0)
(-5.65618e-07 2.03063e-05 0)
(-2.23483e-06 4.35834e-05 0)
(-8.20877e-07 9.39069e-06 0)
(-8.79073e-07 1.19491e-05 0)
(-9.25056e-07 1.46422e-05 0)
(1.04295e-06 3.7408e-05 0)
(3.68561e-09 5.9844e-09 0)
(1.38494e-06 2.00701e-05 0)
(1.27477e-08 2.19484e-06 0)
(-1.16252e-07 2.40123e-07 0)
(-2.31589e-07 1.0065e-06 0)
(-9.70057e-07 3.79704e-06 0)
(-1.22252e-07 4.60186e-08 0)
(2.88625e-07 1.04125e-05 0)
(2.73294e-07 7.94085e-06 0)
(3.02339e-07 1.30289e-05 0)
(-5.1037e-07 3.59952e-05 0)
(-4.90863e-07 2.92792e-05 0)
(-1.49569e-06 1.71915e-05 0)
(1.44455e-06 2.14047e-05 0)
(-2.3863e-07 1.56606e-07 0)
(1.67864e-06 4.63447e-05 0)
(1.18943e-06 4.19237e-05 0)
(-2.73347e-06 3.97271e-05 0)
(9.8257e-07 2.11628e-05 0)
(3.13505e-07 2.26725e-05 0)
(-7.39109e-07 4.89799e-05 0)
(-1.98653e-06 2.35652e-05 0)
(-1.89313e-06 2.34788e-05 0)
(2.58548e-06 4.89675e-05 0)
(-2.76203e-07 4.41446e-05 0)
(-7.07735e-07 1.60403e-05 0)
(6.81391e-07 2.26683e-05 0)
(1.8939e-08 2.26492e-06 0)
(5.45714e-07 8.60455e-07 0)
(1.19129e-07 4.44541e-08 0)
(5.90777e-07 2.38979e-05 0)
(2.26993e-06 4.98882e-05 0)
(-1.32994e-06 3.60015e-05 0)
(-1.26597e-06 2.92785e-05 0)
(8.28144e-07 7.94546e-06 0)
(9.38659e-07 1.30277e-05 0)
(8.89616e-07 1.04125e-05 0)
(-4.43534e-08 3.49494e-08 0)
(-1.59776e-07 4.57705e-05 0)
(1.19263e-06 2.13513e-05 0)
(-1.23564e-06 1.72655e-05 0)
(-1.97655e-06 4.47664e-05 0)
(-2.91539e-06 3.43142e-05 0)
(-2.84004e-06 3.09518e-05 0)
(-2.75935e-06 2.76855e-05 0)
(-2.67465e-06 2.45203e-05 0)
(1.84266e-06 6.79284e-06 0)
(2.01046e-06 9.15986e-06 0)
(2.13914e-06 1.17012e-05 0)
(2.24627e-06 1.43781e-05 0)
(2.7873e-06 3.43142e-05 0)
(2.71434e-06 3.09516e-05 0)
(-1.9049e-06 6.79724e-06 0)
(-2.08669e-06 9.16506e-06 0)
(2.63671e-06 2.7686e-05 0)
(-2.22866e-06 1.17046e-05 0)
(2.5563e-06 2.45184e-05 0)
(-2.34598e-06 1.43828e-05 0)
(-7.0785e-07 1.07283e-06 0)
(2.83839e-07 3.14988e-07 0)
(-3.77466e-07 7.90912e-07 0)
(1.05859e-06 2.10174e-05 0)
(-1.27349e-06 2.15363e-05 0)
(3.55543e-07 5.0627e-07 0)
(-6.03115e-08 9.78597e-09 0)
(-2.63068e-06 3.98118e-05 0)
(1.40961e-06 4.94248e-05 0)
(1.59032e-06 4.95104e-05 0)
(5.90597e-08 9.48497e-09 0)
(7.7566e-07 1.18981e-06 0)
(2.24527e-06 4.53763e-05 0)
(-9.60946e-07 2.34123e-05 0)
(-1.04727e-07 1.07984e-07 0)
(-2.29503e-07 4.15492e-07 0)
(-3.75454e-08 9.54274e-09 0)
(6.78519e-08 6.17503e-08 0)
(2.48691e-06 1.93775e-05 0)
(-2.59658e-06 1.91929e-05 0)
(7.6625e-07 1.53482e-05 0)
(-9.85268e-07 2.30556e-05 0)
(7.93206e-07 1.56736e-05 0)
(-7.44816e-08 1.27469e-06 0)
(-6.09322e-07 3.43096e-05 0)
(4.16229e-07 1.84771e-05 0)
(-3.65287e-07 3.39863e-05 0)
(-3.56711e-07 2.73586e-05 0)
(1.57174e-07 4.82046e-06 0)
(2.05254e-07 1.81995e-05 0)
(-1.06546e-06 2.33128e-05 0)
(8.24765e-07 1.25481e-06 0)
(8.6302e-07 1.54435e-05 0)
(2.62024e-07 2.1273e-05 0)
(2.25687e-06 4.67195e-05 0)
(-7.92753e-07 2.14186e-05 0)
(-9.02845e-07 2.15394e-05 0)
(-1.0421e-06 2.5118e-06 0)
(-8.74897e-07 2.21073e-05 0)
(-7.56674e-07 2.19797e-05 0)
(7.1864e-07 1.65267e-05 0)
(6.23455e-07 1.66619e-05 0)
(-1.05341e-06 5.57801e-06 0)
(1.50113e-06 2.62242e-05 0)
(1.59019e-06 3.27665e-05 0)
(-3.59233e-07 4.61441e-07 0)
(-1.06823e-06 2.31573e-05 0)
(8.67372e-07 1.5586e-05 0)
(-6.86416e-07 2.86116e-05 0)
(-7.19282e-07 3.52959e-05 0)
(4.23243e-07 8.4334e-06 0)
(4.71814e-07 1.35766e-05 0)
(4.50122e-07 1.09335e-05 0)
(-5.15181e-07 2.7007e-06 0)
(-2.11452e-06 2.99305e-05 0)
(-2.007e-06 2.98502e-05 0)
(1.39821e-06 7.48797e-06 0)
(1.32587e-06 7.54531e-06 0)
(1.32247e-06 2.4635e-05 0)
(1.46056e-06 2.45332e-05 0)
(-1.01101e-06 6.68514e-06 0)
(-1.11455e-06 6.76127e-06 0)
(1.40444e-06 3.10766e-05 0)
(1.55124e-06 3.09682e-05 0)
(-6.53091e-07 4.38026e-05 0)
(1.10605e-06 4.03846e-05 0)
(1.12291e-06 4.02172e-05 0)
(-1.01832e-06 1.56753e-05 0)
(9.97914e-07 2.30508e-05 0)
(-3.15808e-06 4.83112e-05 0)
(-9.46685e-07 3.9432e-05 0)
(-9.11459e-07 3.92685e-05 0)
(4.15975e-07 3.78161e-06 0)
(4.29858e-07 3.69503e-06 0)
(2.59454e-06 3.98165e-05 0)
(-1.30898e-06 1.9265e-05 0)
(-1.13129e-06 1.92714e-05 0)
(2.57073e-06 4.43843e-05 0)
(-2.72961e-06 4.65507e-05 0)
(-2.72641e-06 4.6752e-05 0)
(-1.44142e-07 8.17748e-07 0)