/*--------------------------------*- C++ -*----------------------------------*\
| =========                 |                                                 |
| \\      /  F ield         | OpenFOAM: The Open Source CFD Toolbox           |
|  \\    /   O peration     | Version:  2.3.1                                 |
|   \\  /    A nd           | Web:      www.OpenFOAM.org                      |
|    \\/     M anipulation  |                                                 |
\*---------------------------------------------------------------------------*/
FoamFile
{
    version     2.0;
    format      ascii;
    class       volScalarField;
    location    "4200";
    object      sigmaEq;
}
// * * * * * * * * * * * * * * * * * * * * * * * * * * * * * * * * * * * * * //

dimensions      [1 -1 -2 0 0 0 0];

internalField   nonuniform List<scalar> 
11800
(
191406
133866
643903
546082
129902
381379
177631
194499
209566
223708
190566
781810
99332.3
580381
493255
2.13527e+06
137298
138559
251313
154213
434227
705687
925341
829339
1.75043e+06
1.09289e+06
1.14774e+06
569721
1.249e+06
1.35121e+06
377676
125421
1.09678e+06
139897
146772
362564
149117
1.16944e+06
149259
162437
1.1895e+06
1.29462e+06
598485
1.40173e+06
398528
1.99925e+06
887294
1.03489e+06
179195
268538
820831
578205
144971
235354
2.2787e+06
1.86375e+06
71933
534421
417182
398642
1.86256e+06
160134
424108
348845
1.71652e+06
258395
844385
598867
71624.9
1.01101e+06
148306
123862
119870
1.77425e+06
1.84454e+06
351657
1.79556e+06
245241
195113
198803
2.31613e+06
136056
129744
131907
134397
1.3027e+06
405888
1.20174e+06
1.10293e+06
594495
144051
1.30603e+06
165621
68364.8
205733
169412
21971.1
169463
146593
687880
82015.7
758719
1.23954e+06
426852
155786
363764
200052
172380
1.8206e+06
1.21265e+06
1.31432e+06
1.11299e+06
411654
602864
246611
1.64371e+06
240361
154454
1.54333e+06
230165
221530
179148
200824
152888
162851
143624
146391
146169
103097
29939.2
2.08364e+06
1.39232e+06
440820
1.30613e+06
633944
1.20284e+06
1.10253e+06
385152
1.11798e+06
549054
1.02967e+06
943987
559505
214025
270212
367240
1.35359e+06
1.38585e+06
790697
411065
225568
217630
146132
287064
263632
203123
523850
722366
1.43488e+06
152496
2.09206e+06
253188
1.82823e+06
527873
573472
619729
314240
235954
2.25061e+06
1.40769e+06
500815
690623
168061
410926
408799
2.0004e+06
2.02209e+06
1.07305e+06
985459
1.16322e+06
525479
359293
277910
223173
497572
237794
366624
165093
188848
175188
263676
246471
234566
213169
1.02457e+06
1.30107e+06
1.84102e+06
131950
244099
2.16876e+06
149222
316221
354185
150449
155666
941282
786874
724228
599547
2.0825e+06
640674
946316
2.83332e+06
2.38018e+06
2.40305e+06
372407
139916
917044
841788
773985
289206
417190
139390
140029
247826
149778
1.3716e+06
277775
152021
516684
232089
190461
148987
727966
743318
2.83081e+06
1.37042e+06
244023
255172
1.27579e+06
1.0452e+06
359492
525045
1.16175e+06
1.07458e+06
986647
155194
1.25778e+06
441877
609053
570540
167523
133745
449897
400263
154173
2.40131e+06
312675
360633
257333
296955
775919
844050
912696
415466
291176
148053
1.83097e+06
172965
86152.4
145287
456493
167717
598557
2.13203e+06
428735
425051
644276
465986
536929
390223
1.3238e+06
1.10693e+06
354417
443489
281287
338353
609095
800599
288131
1.2928e+06
1.38658e+06
1.66713e+06
185188
423662
421066
1.93503e+06
1.95296e+06
1.17232e+06
1.15374e+06
1.19515e+06
1.18285e+06
143160
97580.4
319623
2.49681e+06
129715
136285
331328
270776
291995
1.02285e+06
1.04883e+06
1.7325e+06
2.40427e+06
751964
200070
977054
808048
563219
460129
176513
186679
284405
505501
265128
468480
135588
182392
175040
154034
1.37591e+06
175654
136133
2.00209e+06
341124
774576
863218
840581
1.0627e+06
1.02288e+06
109810
108616
696753
912494
629237
1.62937e+06
129340
907148
704971
462700
349121
344407
264126
350732
302698
401612
439856
473655
168683
146644
853290
905154
194573
244233
501549
426095
479048
217186
203219
254604
259709
983274
476337
350492
382631
1.1902e+06
1.38072e+06
367499
213432
200850
274161
254408
480614
557702
455792
534713
420708
493603
371790
353080
712561
363190
795157
1.37212e+06
691740
506197
2.20209e+06
143001
1.44069e+06
710880
515753
2.1367e+06
153633
1.47381e+06
364441
1.23808e+06
1.14293e+06
1.11243e+06
204147
93506.9
130378
2.54422e+06
2.20117e+06
982070
351660
477596
191137
255233
289739
157235
218832
1.68695e+06
67892.2
608221
466567
1.86e+06
113393
187426
159596
157363
159089
159628
1.86065e+06
625344
249553
726789
669748
616146
125923
1.4031e+06
459916
644592
177825
921742
199723
1.78859e+06
143235
209720
526026
485498
447184
935459
249543
522706
458672
244081
730256
794775
861194
416231
297883
69480.2
182748
203485
2.31197e+06
800562
631301
455250
374526
196744
159242
116501
115969
202049
105148
122199
129750
174064
347355
156001
199070
625392
762659
358659
1.64832e+06
217076
390929
161666
192939
1.5998e+06
2.09952e+06
661589
718932
259466
230535
126213
1.40013e+06
2.04201e+06
1.80359e+06
2.60571e+06
853845
596203
780915
129133
196529
180057
201266
776208
151494
149552
131457
191983
1.39921e+06
312904
1.42519e+06
835990
181456
232881
1.14873e+06
1.46699e+06
771409
839215
905157
410460
287926
702338
149058
150606
146928
168777
133764
198353
101488
192259
101160
190134
89146.8
185015
169823
176707
120603
1.60116e+06
244671
266498
593665
941994
129383
159384
137876
135274
120157
310487
451553
134324
133587
615482
127218
189461
1.73945e+06
84923.6
171468
549949
506334
529926
574271
589061
620716
291021
217128
2.01748e+06
2.48803e+06
521575
89869.7
370200
354489
397372
281612
847129
783203
720022
180791
88679.8
820866
765799
340784
378888
188854
656001
712211
244825
1.15692e+06
1.17284e+06
1.18647e+06
1.17495e+06
1.98569e+06
1.94303e+06
612607
2.36979e+06
862445
144659
1.6526e+06
1.46331e+06
1.59184e+06
813338
328936
355710
194866
1.69352e+06
560540
707193
2.50875e+06
222909
276696
550557
537327
1.40708e+06
732336
2.09756e+06
142866
140492
286711
411750
913594
839604
771874
1.91315e+06
159067
420049
901860
1.36113e+06
139925
2.24473e+06
2.09943e+06
2.17814e+06
253030
342962
130623
2.22717e+06
642784
257944
440677
2.09406e+06
154315
260275
276098
148907
510334
315121
2.54431e+06
2.23536e+06
214623
632666
809024
310511
367587
272907
239778
674288
200145
631797
466194
1.195e+06
1.04286e+06
179792
1.36314e+06
147360
430319
530054
1.81586e+06
345631
468765
261356
213844
198501
232443
443602
1.03775e+06
1.14306e+06
149261
143465
145293
192139
368964
1.382e+06
120804
477789
864503
673813
240148
1.14704e+06
1.26983e+06
824222
1.38169e+06
1.49694e+06
620141
405750
169736
203720
385015
410082
358088
396115
203186
365916
426473
249297
148410
2.59097e+06
1.1137e+06
418699
567066
518997
251902
451184
660377
1.42014e+06
1.3091e+06
1.20038e+06
368334
435421
209916
227728
1.61725e+06
1.18597e+06
1.37822e+06
160080
212810
304608
722671
1.59636e+06
510919
100891
161161
2.34948e+06
2.20772e+06
265134
2.02174e+06
118117
171068
125110
771980
135656
236206
262395
1.43934e+06
1.56625e+06
1.69566e+06
1.82875e+06
828822
704374
585170
460776
204371
141852
452853
2.23919e+06
150468
146659
163122
154538
162334
168871
174349
1.73338e+06
874654
896710
527791
977665
1.06176e+06
372132
1.2406e+06
296871
244695
157695
2.32368e+06
148720
179067
172654
180613
148768
2.1138e+06
298807
294968
1.13522e+06
374590
789019
280902
2.15171e+06
948193
474062
352828
1.45671e+06
525109
200065
167545
149733
143392
251361
276541
265037
192696
521343
163231
145141
928818
1.03734e+06
125106
657465
946732
802355
1.08954e+06
2.03419e+06
1.88238e+06
1.73162e+06
1.58058e+06
657460
801919
2.03643e+06
1.88454e+06
946409
1.73377e+06
1.08963e+06
1.58301e+06
1.81688e+06
165453
142270
155333
264909
574719
1.25855e+06
148062
479085
656404
518322
713860
208822
270242
476518
697527
1.48993e+06
1.37332e+06
1.25888e+06
597339
442520
1.11649e+06
225591
286550
178993
369222
343283
312464
641415
500773
514796
382150
139584
768038
210734
392828
482580
1.19575e+06
649762
759976
613387
223768
290987
200840
176773
166970
192736
676079
570549
152064
232453
255180
525461
1.56415e+06
512125
719446
540462
169559
242855
228385
210879
287389
206035
693577
639349
583833
227153
1.6766e+06
790542
231682
1.03138e+06
695740
1.49834e+06
2.03211e+06
250891
280028
236160
158547
170100
839134
714342
2.11781e+06
141001
198975
391290
579844
250677
149015
847226
838497
63391.3
146940
405990
330312
94544.1
1.85598e+06
2.03212e+06
336251
128787
302473
427909
914443
774410
842941
2.319e+06
143950
663637
747681
178295
682863
834246
985715
1.13426e+06
2.12996e+06
1.97212e+06
1.81452e+06
1.65713e+06
682442
833634
2.13113e+06
1.97246e+06
984200
1.81505e+06
1.13367e+06
1.65784e+06
1.97915e+06
1.7033e+06
1.28416e+06
545239
621910
1.70367e+06
1.26662e+06
375608
127609
122289
1.26569e+06
2.25062e+06
169933
467581
1.85202e+06
1.26544e+06
2.03257e+06
2.07443e+06
1.34229e+06
1.34517e+06
615886
488393
638120
266858
198989
338536
170606
207639
253821
213220
466214
2.17999e+06
637099
214793
129538
408367
437992
1.98236e+06
413699
374187
474904
504154
1.28781e+06
610482
440512
1.65202e+06
470809
612487
220571
181230
423452
366380
395164
980454
637180
618713
1.49914e+06
1.4337e+06
611407
645864
1.12942e+06
1.21307e+06
454759
477227
146891
202168
211666
621698
483829
83536
178343
204845
722696
687401
373050
726299
561595
222090
136178
136233
570021
1.37451e+06
134922
2.03132e+06
293870
824855
758104
233730
292413
491041
160279
136527
1.7362e+06
439083
1.13023e+06
1.04368e+06
958752
350584
510703
179920
1.57077e+06
2.07634e+06
189445
156356
1.14151e+06
417834
570655
986081
1.07316e+06
1.17455e+06
354010
514556
66612.9
832186
434027
2.06965e+06
346094
1.19135e+06
989239
1.11015e+06
149881
154019
157484
166244
168355
147642
1.71738e+06
533668
199452
231711
256932
288993
360836
400096
820007
793457
757731
731002
672810
696217
1.19178e+06
180728
149214
144513
197781
224216
159209
181264
1.41919e+06
292657
531932
453740
1.16861e+06
615036
215929
225221
506116
392044
698682
571377
1.40329e+06
1.23137e+06
1.13611e+06
1.04236e+06
579296
1.61663e+06
800303
1.60786e+06
284438
236769
306618
297606
207618
188272
205779
1.63496e+06
2.12122e+06
380009
124253
282413
637043
494734
138777
164938
274742
260446
272096
252187
333993
314047
235958
539559
598798
583048
646939
495247
550291
605798
140124
1.33136e+06
1.05672e+06
558621
1.33487e+06
1.25389e+06
732776
2.12135e+06
401509
381545
432421
462924
213713
175199
188480
402820
156257
1.77825e+06
229799
151123
888319
63951.4
125185
1.76449e+06
202339
457942
1.45896e+06
672218
1.3455e+06
1.23404e+06
1.59071e+06
1.05692e+06
173264
675468
540239
224266
1.50847e+06
690573
225248
1.263e+06
1.15138e+06
1.37352e+06
145475
148220
174970
2.56366e+06
306813
481103
587962
266317
151125
149756
461626
498943
194704
1.76551e+06
468762
1.79075e+06
273044
881615
148816
710851
850383
1.12591e+06
452365
609326
729802
294314
2.51912e+06
179899
126882
153992
2.14958e+06
1.4095e+06
355152
523014
1.1849e+06
1.09757e+06
1.00827e+06
2.21263e+06
677734
548917
2.2094e+06
2.49587e+06
1.72186e+06
86405
591827
1.46643e+06
1.10236e+06
600697
446987
1.10905e+06
989372
455575
1.50196e+06
362711
296052
564455
497644
378261
1.73797e+06
2.64154e+06
134388
147354
173421
2.5221e+06
173781
203158
782127
601436
2.23264e+06
2.33882e+06
145402
664304
229629
218667
549775
236366
142814
593648
138097
156040
2.65624e+06
1.15908e+06
643956
480631
432724
309626
880189
812561
745794
225949
2.36648e+06
464680
420863
480175
1.98166e+06
808599
1.18846e+06
163348
255426
192987
887724
546305
727626
134514
311481
424758
898646
317101
201491
172209
340372
2.20686e+06
320744
433286
890886
1.42559e+06
2.01508e+06
1.36254e+06
932589
737107
872489
89837.3
255614
356115
761328
702891
647083
2.01483e+06
158867
206591
221525
221086
221858
215149
319256
147126
148854
724042
1.826e+06
518599
1.14767e+06
1.05918e+06
973067
356140
2.06279e+06
661698
754458
903343
778825
1.2649e+06
2.01861e+06
606458
158975
779139
125739
952603
572123
1.03902e+06
1.1288e+06
405656
1.31085e+06
323462
2.72948e+06
935941
150467
1.88245e+06
2.73688e+06
2.35639e+06
556948
144397
1.05692e+06
179748
169213
123106
295271
160866
165565
142410
149951
1.70832e+06
1.79327e+06
149837
1.17461e+06
189491
180237
147330
246416
1.23257e+06
1.23827e+06
281321
1.25452e+06
1.25731e+06
1.61213e+06
530332
198717
249400
340189
681625
739707
250626
66460.6
171495
804604
384174
939428
1.05739e+06
1.15528e+06
1.25527e+06
645474
455123
334252
186875
161366
2.04461e+06
1.12869e+06
137126
234675
1.00823e+06
783882
426482
462004
210591
188264
347467
307882
122785
236838
162008
1.71592e+06
671078
1.63049e+06
153909
141850
2.73794e+06
142756
2.12474e+06
2.09765e+06
150576
978057
493387
1.68133e+06
164209
926701
1.05424e+06
2.29575e+06
257248
161510
136563
520237
246488
336621
681327
624365
574243
168170
134229
192679
183326
1.20413e+06
1.3265e+06
905417
1.54798e+06
1.42271e+06
1.64383e+06
2.34064e+06
293711
746519
2.22923e+06
654714
2.09247e+06
1.00046e+06
1.08888e+06
1.18044e+06
522670
354722
438663
513831
1.93487e+06
175207
205955
304233
288278
268974
195614
401325
370635
346811
850667
882101
2.58572e+06
285786
132658
182987
2.04249e+06
584778
317390
306449
1.9928e+06
1.04169e+06
719047
114597
213824
136880
1.02701e+06
1.30962e+06
330455
1.47536e+06
201562
195528
2.66202e+06
1.74402e+06
2.13477e+06
416417
553188
967753
301949
763281
2.22298e+06
2.34721e+06
198266
228068
383593
312881
1.11118e+06
1.24125e+06
849645
957187
2.47081e+06
2.27588e+06
291899
193897
113869
1.62571e+06
132528
2.14476e+06
425239
324393
1.15251e+06
368419
151241
1.98968e+06
226431
295545
113100
135087
1.48031e+06
512423
154098
805984
383312
211806
157085
136932
747003
138823
2.03375e+06
1.82772e+06
335450
910654
516387
152812
170197
1.57023e+06
190394
1.05801e+06
271758
583942
1.22802e+06
1.40161e+06
1.94295e+06
209228
331638
2.11723e+06
265527
166843
156590
182893
139552
2.16789e+06
1.69374e+06
390647
538101
930994
933181
1.21908e+06
429602
590264
425456
617885
1.31853e+06
1.21624e+06
1.11556e+06
1.74424e+06
822026
586766
1.67918e+06
590307
1.82669e+06
683810
760588
2.01806e+06
2.73268e+06
2.34179e+06
461195
444252
1.26168e+06
602078
436599
145328
378351
1.9389e+06
163180
190861
2.47638e+06
1.85059e+06
2.1298e+06
989270
1.22712e+06
1.23708e+06
1.0682e+06
134224
126347
189225
128840
763916
830915
902368
421545
295767
649083
2.15962e+06
163337
217354
182926
170131
1.1184e+06
1.01075e+06
202745
1.9221e+06
2.17363e+06
1.291e+06
1.05469e+06
1.74934e+06
2.01498e+06
127566
965460
613029
1.34276e+06
178890
286742
306822
1.72412e+06
1.71749e+06
791388
399330
122405
147351
251414
528201
1.80255e+06
239985
1.38544e+06
165074
402392
272559
362913
621762
319805
489976
47630.4
13759.3
489502
2.55875e+06
223302
183294
184300
143795
132446
196218
202506
146760
147931
573675
145592
158938
196593
1.07666e+06
1.32753e+06
955728
1.78995e+06
2.27876e+06
157546
218907
418333
181951
1.63203e+06
228221
2.39009e+06
257090
334649
646842
479737
253979
262990
610321
139367
164054
207871
131965
200274
129706
2.12435e+06
116270
169875
309797
131016
99318
2.02984e+06
226891
1.75686e+06
1.87026e+06
677638
436507
354958
516450
1.16128e+06
1.08293e+06
994898
142059
1.28044e+06
663175
138377
2.17026e+06
146845
154053
404768
1.19255e+06
958514
1.0633e+06
1.45768e+06
209713
158807
453441
671818
1.46779e+06
781065
1.5857e+06
562076
1.3536e+06
1.24168e+06
447671
1.57248e+06
556249
1.45005e+06
660615
1.33772e+06
1.22702e+06
770899
1.57874e+06
199442
659225
514760
163438
207179
1.77105e+06
1.11044e+06
1.50434e+06
1.39944e+06
1.22101e+06
1.51155e+06
1.11562e+06
424252
464999
687714
1.66065e+06
159128
2.44653e+06
195887
158949
1.84527e+06
219367
347289
681382
674807
2.01127e+06
120362
1.27965e+06
1.18163e+06
1.08443e+06
394248
579770
2.46888e+06
416484
318538
738372
191085
772837
357066
373944
133883
216961
225556
196535
590132
131411
724841
388301
294930
989879
1.31944e+06
1.3249e+06
989527
483114
2.33232e+06
145546
146680
2.08351e+06
1.88162e+06
1.14321e+06
2.72526e+06
1.22991e+06
1.0608e+06
1.09156e+06
2.42134e+06
1.21574e+06
973158
2.15133e+06
461461
487381
726245
1.89585e+06
117738
1.61268e+06
192901
281979
442136
741840
808105
876432
430270
306787
489626
81108.2
87037.7
159492
170228
233069
193425
153964
208581
1.20913e+06
2.20384e+06
264640
195298
2.0297e+06
1.47964e+06
584198
793105
159827
167509
1.7673e+06
1.1686e+06
248148
932778
874796
1.1675e+06
141232
159392
163669
141205
1.38414e+06
2.2362e+06
2.18323e+06
1.48286e+06
2.36356e+06
300782
131324
390005
1.1874e+06
1.08985e+06
1.28719e+06
585616
397324
2.49922e+06
549797
694315
907942
294657
249943
1.04134e+06
367843
190051
790416
302079
392100
2.31397e+06
400118
353948
1.24272e+06
1.14748e+06
1.05463e+06
530321
1.58029e+06
1.48883e+06
1.95423e+06
609145
629563
808005
1.66687e+06
794741
569659
1.48196e+06
286333
2.73609e+06
180773
2.08772e+06
558329
638266
151490
679645
1.30444e+06
156750
183598
179884
2.4148e+06
714336
655445
772618
382333
275902
348082
695339
1.57812e+06
702384
1.36827e+06
1.61301e+06
1.49045e+06
468035
1.51487e+06
1.15197e+06
1.21944e+06
1.44376e+06
1.51784e+06
1.15323e+06
1.2299e+06
1.45247e+06
838326
699418
53749.3
334866
205373
479899
708713
589036
821824
1.65191e+06
1.53106e+06
1.41167e+06
1.29466e+06
475334
1.3185e+06
654063
178927
123711
129265
222071
118304
564229
1.3408e+06
1.36957e+06
486145
2.25883e+06
183698
165433
1.7581e+06
2.17999e+06
105121
1.39342e+06
550253
745819
1.04214e+06
575056
371971
163281
551734
781815
71755.5
149688
2.28574e+06
302930
226819
553749
509858
599727
384361
146879
153199
391212
1.37165e+06
2.1221e+06
2.45688e+06
379791
422249
1.77612e+06
1.60113e+06
2.08305e+06
125374
1.15724e+06
2.0296e+06
2.47225e+06
2.54942e+06
2.49459e+06
654097
1.13614e+06
489525
2.35408e+06
1.78299e+06
730236
1.53425e+06
169689
150156
1.82661e+06
1.82838e+06
151527
491849
2.26669e+06
1.90545e+06
1.81238e+06
1.87575e+06
2.56006e+06
1.73839e+06
2.2635e+06
1.95416e+06
170358
309360
1.44149e+06
679830
1.17962e+06
248214
163693
207051
191022
173286
230679
205762
491142
2.27018e+06
1.37969e+06
485625
671714
1.47551e+06
191706
683807
476368
2.61805e+06
367692
356824
654507
375369
607484
269413
209419
2.13111e+06
17503.2
170876
170672
35161.3
532641
566560
202802
222532
236641
164537
600621
594591
144353
2.27959e+06
1.94439e+06
703210
1.47291e+06
505243
137643
1.71848e+06
379865
2.26382e+06
628657
768747
909975
1.04926e+06
1.98708e+06
1.84115e+06
1.69437e+06
1.55004e+06
627706
767421
1.98604e+06
1.83931e+06
907613
1.69284e+06
1.0471e+06
1.54816e+06
347691
265793
645032
702413
620710
293416
239199
203371
163238
152364
174290
146286
154366
261302
1.05871e+06
1.13653e+06
1.02416e+06
573318
1.11552e+06
1.22928e+06
1.89696e+06
805150
649108
2.01289e+06
671629
230400
143412
197593
161178
317648
292769
296839
155625
426956
337292
439922
903553
154851
234637
1.06489e+06
168985
122255
152995
131685
1.5992e+06
186878
217755
755583
602731
290896
753694
238314
143936
131033
2.38764e+06
2.46358e+06
1.50176e+06
1.23037e+06
1.20009e+06
1.52785e+06
2.41775e+06
1.25198e+06
142162
807982
450944
344328
497024
237275
2.28643e+06
250729
1.3554e+06
1.2531e+06
1.15042e+06
605489
409983
709587
415650
316307
2.30988e+06
266043
142362
757626
756904
345978
215757
263951
446595
914239
1.73535e+06
730027
583200
1.06876e+06
1.41444e+06
386382
564388
1.22334e+06
1.12786e+06
1.03489e+06
583602
628200
1.01356e+06
839487
1.17957e+06
625642
1.2958e+06
1.40944e+06
407878
1.52664e+06
2.72571e+06
1.92028e+06
125662
929735
1.01445e+06
1.10232e+06
336851
227294
1.65542e+06
287547
377918
467431
514515
219526
279668
224528
177374
1.58781e+06
1.22086e+06
1.28046e+06
1.53399e+06
352925
1.92124e+06
2.38202e+06
879809
154651
912646
994985
1.08143e+06
1.01227e+06
1.1735e+06
329185
1.87893e+06
822618
766425
702866
830447
299472
417297
240288
222600
521369
613599
565866
650350
708982
768718
470664
467112
672790
675717
1.36765e+06
1.36101e+06
1.15405e+06
1.25946e+06
1.14795e+06
1.25321e+06
681205
740493
263013
163587
186876
223601
1.35481e+06
874202
150612
1.39059e+06
1.15404e+06
1.10664e+06
1.43255e+06
225792
497380
1.78897e+06
756225
1.652e+06
1.51743e+06
121053
296261
1.2319e+06
731826
516826
1.63592e+06
570464
77068.8
1.25574e+06
1.15307e+06
1.36169e+06
610121
412137
1.67196e+06
649572
525516
2.22762e+06
652109
923387
220393
158715
374167
349890
320636
1.89911e+06
472210
314199
538909
496260
581232
292564
221983
1.25382e+06
1.40608e+06
225126
806635
169872
1.07829e+06
2.16316e+06
1.35586e+06
669867
500749
1.19408e+06
611241
544136
449330
293941
182442
450978
222200
551771
221248
373470
156200
176651
2.26204e+06
459220
1.93953e+06
1.11692e+06
1.20054e+06
648883
483905
1.15188e+06
2.06113e+06
131913
159956
162639
155336
408373
39546.5
13077.9
407975
860368
157951
912943
406880
278188
189313
609343
851781
1.77741e+06
141716
111026
187597
219573
473312
305652
1.20534e+06
1.07548e+06
257546
167512
132536
2.29595e+06
860125
143881
332943
163531
2.61803e+06
2.14071e+06
332003
250509
942789
453556
644907
1.26942e+06
1.06995e+06
1.16843e+06
2.47702e+06
1.97264e+06
159818
1.84428e+06
2.48026e+06
1.94351e+06
2.16338e+06
930428
188729
1.2467e+06
308462
190545
235491
461613
505095
369372
368865
835510
272391
183800
137911
1.21378e+06
1.49539e+06
1.62687e+06
1.76087e+06
1.88247e+06
845742
720619
594331
466926
294804
133191
578110
26782
282880
282590
14534.8
627059
314014
247183
95988.9
395166
447309
148310
398519
1.19469e+06
949051
654392
462284
527812
2.27767e+06
1.73924e+06
232876
746869
148047
159966
643567
758208
778224
1.54157e+06
453407
494216
154397
2.05788e+06
165405
361403
420418
392145
1.50294e+06
1.63459e+06
849377
899755
898924
643510
825046
1.53818e+06
1.46466e+06
1.46454e+06
506920
703339
126240
137588
130329
313866
147175
675296
1.43041e+06
1.26946e+06
1.55549e+06
1.13626e+06
1.56554e+06
1.13499e+06
771300
508576
1.37169e+06
1.00451e+06
1.37246e+06
1.00794e+06
328336
1.50638e+06
1.27052e+06
1.1136e+06
1.45045e+06
1.28364e+06
1.58298e+06
1.15133e+06
1.58188e+06
1.15069e+06
1.42597e+06
2.62342e+06
578075
811568
1.71322e+06
626458
154976
163672
262881
26031
262601
23005.7
150010
488140
1.5167e+06
1.39217e+06
1.64386e+06
730029
505446
2.33008e+06
77047.7
142951
289834
999053
334374
921941
454261
2.36561e+06
2.3866e+06
1.42348e+06
170510
308428
1.61995e+06
865200
693325
465160
857650
787004
929136
323858
454800
2.42452e+06
569645
2.16012e+06
152607
148767
141163
150639
100969
2.13465e+06
173171
1.57426e+06
98246
1.15188e+06
1.45602e+06
174930
151106
222338
658957
232546
558085
513637
376521
407540
440409
186176
407513
549807
681302
457134
1.54263e+06
1.42558e+06
1.30852e+06
1.59869e+06
2.13602e+06
2.35615e+06
138272
135020
135528
149718
314299
184481
340904
2.36868e+06
2.41525e+06
2.43108e+06
1.84771e+06
73063.8
1.26912e+06
2.21413e+06
1.52195e+06
1.20157e+06
1.22563e+06
1.50158e+06
732481
645513
1.31475e+06
870022
1.54537e+06
111827
278576
358521
689531
284359
280519
319081
214364
246398
180668
209884
484021
485863
526866
525859
569168
568073
667199
656770
155453
152640
630904
405311
118590
236503
914271
1.54726e+06
155925
934226
2.01872e+06
625910
1.92208e+06
883562
242678
1.77967e+06
952996
801012
1.27003e+06
2.15242e+06
2.55414e+06
1.00128e+06
431100
2.1486e+06
309380
225511
192622
474339
103390
903232
1.58325e+06
413211
622644
251340
147682
269558
2.31259e+06
417899
488754
472082
347302
992104
311705
246351
980574
216840
2.11025e+06
164707
1.24909e+06
464762
505151
1.9597e+06
1.67234e+06
1.01294e+06
1.82254e+06
1.97507e+06
867745
2.12862e+06
723462
577626
1.67352e+06
1.82342e+06
2.13247e+06
1.97644e+06
579561
870547
1.01639e+06
725655
2.1362e+06
211607
1.67681e+06
182448
122671
159498
9632.78
73325.7
920059
98717.1
1.61247e+06
335323
248906
631012
681423
580825
480270
317118
1.41214e+06
315717
339798
1.27251e+06
105554
499929
463779
460215
1.45722e+06
1.33798e+06
1.57895e+06
693279
582740
247425
424588
837629
1.61115e+06
77414.8
413630
244355
156570
531521
1.69857e+06
964463
826320
1.79343e+06
200147
985952
2.09907e+06
1.06363e+06
1.96689e+06
174188
2.21885e+06
262998
1.48115e+06
532602
657290
152410
16937.3
169743
169501
28945.9
283192
1.50538e+06
215541
1.85841e+06
839824
305957
1.44482e+06
1.38728e+06
1.57667e+06
1.51415e+06
1.71068e+06
1.64324e+06
798049
771686
543456
526429
604117
407101
1.36309e+06
1.26051e+06
1.15709e+06
363907
424479
392712
193598
1.28296e+06
1.1215e+06
99449.2
217812
161814
183508
194248
2.14198e+06
1.79916e+06
472336
1.55345e+06
1.42739e+06
1.68054e+06
133430
786897
1.45178e+06
1.5169e+06
151197
141490
1.73304e+06
548242
186239
320691
373181
346608
199460
599216
554040
512678
2.01282e+06
2.61857e+06
1.93312e+06
1.3798e+06
676656
487832
205623
224092
337629
242331
151072
133793
254749
737620
589511
150798
1.58147e+06
1.83584e+06
769020
665971
193217
185200
164167
175524
512909
1.73177e+06
1.3618e+06
1.05116e+06
1.08219e+06
1.2906e+06
144768
163878
243852
146417
150170
336059
2.7058e+06
2.14857e+06
165931
205546
924273
797290
553424
1.71786e+06
1.85089e+06
1.45144e+06
1.58333e+06
928645
485531
416776
451350
208145
262332
1.98485e+06
534200
1.26701e+06
91964.9
1.83669e+06
167465
729873
848064
2.70394e+06
147623
752905
177066
704751
189182
444146
1.35046e+06
621024
1.55876e+06
1.01303e+06
1.70227e+06
1.84776e+06
875332
1.99469e+06
736159
598189
736879
598720
284643
874598
988032
1.29306e+06
154946
251458
1.58097e+06
683438
2.48417e+06
2.01625e+06
2.25995e+06
406160
1.7735e+06
828772
646489
316563
241469
2.43134e+06
1.25619e+06
147515
2.63464e+06
2.22954e+06
76392.1
776652
634599
97151.2
1.01371e+06
821781
118906
208305
1.69664e+06
2.53172e+06
152143
899458
922827
1.84252e+06
1.78467e+06
652371
668543
652630
667963
158500
159314
158543
149172
120762
2.6011e+06
2.0313e+06
1.82881e+06
2.30798e+06
873627
468478
1.89245e+06
1.06393e+06
1.16187e+06
1.26243e+06
81826.5
1.93263e+06
338244
1.45055e+06
2.06706e+06
614148
432637
2.63394e+06
710210
745599
521347
549750
1.40186e+06
1.3544e+06
232132
227566
126719
150037
455825
1.6584e+06
1.53131e+06
1.40686e+06
694909
2.59858e+06
156241
315996
140650
1.3901e+06
1.51656e+06
888252
1.64484e+06
758849
1.78973e+06
641586
1.69875e+06
1.43534e+06
1.56578e+06
1.83114e+06
514347
912843
787031
642548
146938
207357
221743
288625
541590
459138
498394
2.15334e+06
1.00539e+06
1.22648e+06
1.98333e+06
231807
357386
150162
560150
783867
269539
376567
2.003e+06
214005
144089
146372
149315
144801
92281
231283
179797
194230
1.72952e+06
2.04172e+06
177441
154202
197423
341775
746865
2.20334e+06
2.05346e+06
910329
153327
223698
1.75845e+06
156198
156924
2.67434e+06
1.03815e+06
2.023e+06
572395
1.37232e+06
872052
850497
234233
955726
1.45458e+06
703450
505596
198324
453499
151866
119081
137008
2.1688e+06
1.29039e+06
1.31609e+06
2.15135e+06
335693
360107
186253
681347
165980
148763
158884
431479
337793
34404.1
337479
23557.4
148186
1.34359e+06
406741
590366
1.24972e+06
1.15241e+06
1.05679e+06
210943
2.46772e+06
809754
471896
2.12779e+06
1.27396e+06
1.32397e+06
216961
21318.6
216703
22424
1.87838e+06
459569
787896
932351
859969
172944
2.00669e+06
474822
339890
1.09274e+06
839521
143396
45881.1
1.47623e+06
307235
1.4729e+06
377815
502974
924204
1.03439e+06
868696
186740
756613
310764
401426
191099
205239
718038
748659
248624
454648
156945
158148
1.20261e+06
603539
442349
166479
635738
16463.2
61619.9
635133
801953
647993
960175
1.13965e+06
130137
2.45519e+06
2.5556e+06
322828
151824
168762
267073
293791
30385.8
293527
26185.7
1.29632e+06
444039
616826
2.38129e+06
2.41717e+06
2.05886e+06
1.86099e+06
1.1197e+06
992395
949934
842615
2.01629e+06
292108
578473
206898
133605
149125
418013
586856
840577
2.34656e+06
2.368e+06
297442
154707
779079
846678
283633
1.2866e+06
528709
432401
1.86927e+06
184177
168114
226901
1.26123e+06
1.26951e+06
1.34094e+06
850348
425245
595024
98202.4
100647
1.44977e+06
150015
1.28836e+06
166215
635292
1.03309e+06
905334
1.50402e+06
1.75914e+06
154079
204503
478307
2.09003e+06
10026.8
124068
36801.2
124690
336669
309008
98989.8
2.25421e+06
40181.8
2.13476e+06
555803
53861.8
17367.5
555277
366454
180615
20798.4
180525
466300
2.02794e+06
469604
2.22125e+06
2.56088e+06
74078
740253
875067
807464
1.04431e+06
501971
365037
1.11979e+06
702065
122592
275098
439096
313652
783581
1.03505e+06
288417
289642
2.4608e+06
893227
1.03685e+06
965695
1.11485e+06
1.55892e+06
139511
155623
1.30451e+06
1.58541e+06
529141
303268
349361
178405
357702
530674
158742
278928
404995
156518
109605
1.42598e+06
1.66556e+06
323948
719769
561156
573038
1.77314e+06
809713
350163
269179
682152
560974
138950
410430
1.58617e+06
2.03284e+06
546837
380249
964339
1.14026e+06
1.05149e+06
93463.3
150771
396376
280497
1.50933e+06
547455
118748
58309
91537.1
532957
372870
933298
1.10342e+06
1.01769e+06
154532
2.19364e+06
2.50609e+06
170195
172491
164054
160003
2.19738e+06
439752
324047
937365
2.71442e+06
2.17999e+06
623460
215320
574184
529961
322801
301592
343440
190473
165685
166641
469284
2.13381e+06
122627
1.1931e+06
1.29224e+06
2.03211e+06
1.46619e+06
1.43096e+06
548342
540666
739202
750866
339726
384673
330461
149867
146396
870319
280929
1.98612e+06
1.37779e+06
350000
145587
845745
2.53639e+06
143745
1.36653e+06
1.13684e+06
1.08101e+06
1.41144e+06
963165
415077
579700
1.28045e+06
222443
934452
404943
453552
231252
467469
287517
374324
1.02758e+06
509967
214566
185979
248581
1.32208e+06
1.08539e+06
233799
223117
209149
240790
151549
696535
536233
134092
507563
154756
289888
469908
2.32066e+06
2.04313e+06
1.38699e+06
407402
287459
911255
844732
776998
366116
364913
176029
1.25588e+06
170186
715947
931233
269411
230915
2.06892e+06
116849
414104
386191
184004
2.18489e+06
114126
147730
620102
731057
218293
207105
229251
165190
155963
1.38699e+06
122359
170752
21231.9
170612
1.38575e+06
1.32136e+06
2.50231e+06
1.48881e+06
1.87952e+06
153784
1.93963e+06
1.32925e+06
19205.9
139404
330375
248788
563786
612504
660563
863741
486397
2.02716e+06
1.19456e+06
1.29554e+06
204912
134963
131616
152457
165538
174699
273784
1.15974e+06
139475
2.51563e+06
615405
249911
1.30542e+06
858281
435305
607473
278418
241516
344159
517294
334455
688978
624444
247484
155937
895891
1.23533e+06
106365
115753
210090
123765
125935
1.88006e+06
502030
367257
1.06318e+06
1.8253e+06
497822
361664
903117
766267