/*--------------------------------*- C++ -*----------------------------------*\
| =========                 |                                                 |
| \\      /  F ield         | OpenFOAM: The Open Source CFD Toolbox           |
|  \\    /   O peration     | Version:  2.3.1                                 |
|   \\  /    A nd           | Web:      www.OpenFOAM.org                      |
|    \\/     M anipulation  |                                                 |
\*---------------------------------------------------------------------------*/
FoamFile
{
    version     2.0;
    format      ascii;
    class       surfaceScalarField;
    location    "0.1";
    object      phi;
}
// * * * * * * * * * * * * * * * * * * * * * * * * * * * * * * * * * * * * * //

dimensions      [0 3 -1 0 0 0 0];

internalField   nonuniform List<scalar> 
5856
(
-1.79728e-07
1.79728e-07
-5.5008e-07
3.70352e-07
-1.04101e-06
4.90929e-07
-1.59334e-06
5.52331e-07
-2.14371e-06
5.50372e-07
-2.639e-06
4.95287e-07
-3.04552e-06
4.06517e-07
-3.34886e-06
3.03344e-07
-3.54987e-06
2.01008e-07
-3.6609e-06
1.11027e-07
-3.70275e-06
4.18526e-08
-8.0557e-09
-3.69469e-06
-8.10186e-07
9.89914e-07
-1.70138e-06
1.26155e-06
-2.50126e-06
1.29081e-06
-3.15471e-06
1.20578e-06
-3.63835e-06
1.03402e-06
-3.95641e-06
8.13345e-07
-4.12925e-06
5.79353e-07
-4.18368e-06
3.57773e-07
-4.14615e-06
1.63478e-07
-4.02508e-06
-1.00398e-08
-3.85409e-06
-1.29134e-07
-1.99373e-07
-3.66278e-06
-9.04347e-07
1.89426e-06
-1.76655e-06
2.12375e-06
-2.41322e-06
1.93748e-06
-2.84268e-06
1.63523e-06
-3.08753e-06
1.27887e-06
-3.19137e-06
9.17188e-07
-3.19383e-06
5.81812e-07
-3.12691e-06
2.90848e-07
-3.02047e-06
5.70386e-08
-2.90693e-06
-1.23575e-07
-2.75427e-06
-2.81796e-07
-3.81075e-07
-2.57257e-06
-7.8373e-07
2.67799e-06
-1.52039e-06
2.86041e-06
-2.05327e-06
2.47037e-06
-2.42294e-06
2.0049e-06
-2.66564e-06
1.52158e-06
-2.7926e-06
1.04415e-06
-2.80496e-06
5.94169e-07
-2.70679e-06
1.92679e-07
-2.51021e-06
-1.39548e-07
-2.26758e-06
-3.662e-07
-2.02483e-06
-5.24551e-07
-6.18819e-07
-1.78708e-06
-6.55214e-07
3.3332e-06
-1.29042e-06
3.49561e-06
-1.77677e-06
2.95673e-06
-2.14536e-06
2.37348e-06
-2.38777e-06
1.76399e-06
-2.47609e-06
1.13247e-06
-2.40335e-06
5.21433e-07
-2.20414e-06
-6.52613e-09
-1.91513e-06
-4.28566e-07
-1.5796e-06
-7.01723e-07
-1.25023e-06
-8.53924e-07
-9.15496e-07
-9.53554e-07
-5.44449e-07
3.87765e-06
-1.10832e-06
4.05948e-06
-1.59353e-06
3.44194e-06
-2.00307e-06
2.78302e-06
-2.28107e-06
2.04199e-06
-2.35768e-06
1.20908e-06
-2.21131e-06
3.75062e-07
-1.8531e-06
-3.64734e-07
-1.3961e-06
-8.85566e-07
-9.22715e-07
-1.17511e-06
-4.94704e-07
-1.28193e-06
-1.27023e-06
-1.39973e-07
-4.33151e-07
4.31081e-06
-9.3804e-07
4.56437e-06
-1.44871e-06
3.9526e-06
-1.94898e-06
3.28329e-06
-2.32808e-06
2.42109e-06
-2.42967e-06
1.31067e-06
-2.18769e-06
1.33082e-07
-1.6199e-06
-9.32529e-07
-9.22745e-07
-1.58272e-06
-2.5312e-07
-1.84473e-06
2.99379e-07
-1.83443e-06
-1.68327e-06
7.12428e-07
-2.92994e-07
4.6038e-06
-7.25605e-07
4.99698e-06
-1.28859e-06
4.51559e-06
-1.97658e-06
3.97128e-06
-2.56787e-06
3.01239e-06
-2.73642e-06
1.47922e-06
-2.32026e-06
-2.83083e-07
-1.48517e-06
-1.76762e-06
-4.80369e-07
-2.58752e-06
4.37712e-07
-2.76281e-06
1.13845e-06
-2.53517e-06
-2.15388e-06
1.60905e-06
-6.79552e-08
4.67175e-06
-4.11977e-07
5.341e-06
-1.04829e-06
5.1519e-06
-1.94948e-06
4.87247e-06
-2.69228e-06
3.75519e-06
-2.79127e-06
1.57821e-06
-2.18618e-06
-8.88174e-07
-1.07495e-06
-2.87885e-06
1.7273e-07
-3.8352e-06
1.25796e-06
-3.84804e-06
2.04594e-06
-3.32315e-06
-2.64825e-06
2.54031e-06
2.54775e-07
4.41698e-06
6.54675e-08
5.53031e-06
-5.0389e-07
5.72126e-06
-1.37253e-06
5.74111e-06
-1.96641e-06
4.34908e-06
-1.84082e-06
1.45262e-06
-1.05435e-06
-1.67465e-06
1.53065e-07
-4.08626e-06
1.3839e-06
-5.06603e-06
2.38451e-06
-4.84864e-06
3.07803e-06
-4.01668e-06
-3.06656e-06
3.49635e-06
8.1843e-07
3.59855e-06
9.37532e-07
5.41121e-06
6.26299e-07
6.03249e-06
1.8323e-07
6.18418e-06
3.09675e-08
4.50134e-06
3.66919e-07
1.11667e-06
1.24514e-06
-2.55287e-06
2.27664e-06
-5.11776e-06
3.18255e-06
-5.97194e-06
3.83488e-06
-5.50097e-06
4.24267e-06
-4.42447e-06
-3.29432e-06
4.47042e-06
1.05139e-06
2.54716e-06
1.97084e-06
4.49175e-06
2.32105e-06
5.68228e-06
2.53322e-06
5.97201e-06
2.91542e-06
4.11913e-06
3.49437e-06
5.37719e-07
4.24445e-06
-3.30296e-06
4.86773e-06
-5.74103e-06
5.24119e-06
-6.3454e-06
5.39701e-06
-5.6568e-06
5.43419e-06
-4.46165e-06
5.42812e-06
-3.28824e-06
-3.64254e-06
-5.21526e-08
-3.56119e-06
-8.13517e-08
-3.4574e-06
-1.03792e-07
-3.33083e-06
-1.26562e-07
-3.15671e-06
-1.74121e-07
-2.92196e-06
-2.34754e-07
-2.60662e-06
-3.15344e-07
-2.18637e-06
-4.20243e-07
-1.64239e-06
-5.43983e-07
-9.90253e-07
-6.52137e-07
-3.43567e-07
-6.46685e-07
-3.43567e-07
-3.45955e-06
-2.55379e-07
-3.24093e-06
-2.99971e-07
-3.00706e-06
-3.37657e-07
-2.75873e-06
-3.749e-07
-2.51269e-06
-4.2016e-07
-2.26716e-06
-4.80277e-07
-2.01698e-06
-5.65523e-07
-1.74687e-06
-6.90352e-07
-1.42239e-06
-8.68472e-07
-9.93001e-07
-1.08152e-06
-4.48403e-07
-1.19128e-06
-7.9197e-07
-2.38369e-06
-4.44258e-07
-2.19902e-06
-4.84644e-07
-2.02248e-06
-5.14196e-07
-1.85294e-06
-5.44434e-07
-1.68753e-06
-5.85569e-07
-1.52217e-06
-6.45638e-07
-1.3554e-06
-7.32298e-07
-1.18966e-06
-8.56093e-07
-1.02312e-06
-1.03501e-06
-8.15165e-07
-1.28947e-06
-4.80685e-07
-1.52576e-06
-1.27266e-06
-1.56493e-06
-6.66406e-07
-1.36446e-06
-6.85114e-07
-1.18804e-06
-6.90622e-07
-1.03621e-06
-6.96264e-07
-9.08313e-07
-7.13465e-07
-8.01435e-07
-7.52515e-07
-7.10362e-07
-8.23371e-07
-6.28774e-07
-9.37681e-07
-5.62062e-07
-1.10172e-06
-4.96489e-07
-1.35505e-06
-3.80836e-07
-1.64141e-06
-1.65349e-06
-7.01698e-07
-9.18262e-07
-4.97565e-07
-8.89248e-07
-3.39413e-07
-8.48773e-07
-2.23615e-07
-8.12062e-07
-1.45952e-07
-7.91128e-07
-1.02217e-07
-7.9625e-07
-8.78786e-08
-8.37709e-07
-9.67025e-08
-9.28857e-07
-1.23937e-07
-1.07449e-06
-1.56771e-07
-1.32221e-06
-2.06387e-07
-1.5918e-06
-1.85988e-06
1.36655e-07
-1.19489e-06
3.41496e-07
-1.09409e-06
4.83569e-07
-9.90846e-07
5.70786e-07
-8.9928e-07
6.08503e-07
-8.28845e-07
6.00461e-07
-7.88207e-07
5.48306e-07
-7.85555e-07
4.55675e-07
-8.36226e-07
3.27592e-07
-9.46407e-07
1.77275e-07
-1.1719e-06
1.03799e-08
-1.4249e-06
-1.8495e-06
1.00303e-06
-1.48549e-06
1.19726e-06
-1.28832e-06
1.31583e-06
-1.10942e-06
1.37137e-06
-9.54815e-07
1.37021e-06
-8.2769e-07
1.31435e-06
-7.32348e-07
1.20367e-06
-6.74875e-07
1.03658e-06
-6.69135e-07
8.12344e-07
-7.22166e-07
5.36322e-07
-8.95874e-07
2.32905e-07
-1.12149e-06
-1.61659e-06
1.89914e-06
-1.77558e-06
2.06653e-06
-1.45571e-06
2.15117e-06
-1.19406e-06
2.17258e-06
-9.76223e-07
2.13683e-06
-7.91947e-07
2.04314e-06
-6.38656e-07
1.88589e-06
-5.17626e-07
1.65758e-06
-4.4082e-07
1.34756e-06
-4.1215e-07
9.50441e-07
-4.98753e-07
4.75667e-07
-6.46713e-07
-1.14093e-06
2.81181e-06
-2.04707e-06
2.94079e-06
-1.5847e-06
2.98478e-06
-1.23804e-06
2.97149e-06
-9.62931e-07
2.90708e-06
-7.27537e-07
2.78622e-06
-5.17803e-07
2.59736e-06
-3.28762e-07
2.32306e-06
-1.66522e-07
1.94505e-06
-3.41389e-08
1.43668e-06
9.62128e-09
7.77408e-07
1.25569e-08
-3.63519e-07
3.71119e-06
-2.26192e-06
3.79496e-06
-1.66847e-06
3.80138e-06
-1.24446e-06
3.75887e-06
-9.20417e-07
3.674e-06
-6.42667e-07
3.53898e-06
-3.8279e-07
3.3373e-06
-1.2708e-07
3.04657e-06
1.24213e-07
2.62813e-06
3.84294e-07
2.0205e-06
6.17258e-07
1.14441e-06
8.88639e-07
7.80895e-07
4.57827e-06
-2.36977e-06
4.6075e-06
-1.6977e-06
4.58465e-06
-1.22161e-06
4.52443e-06
-8.60199e-07
4.43022e-06
-5.48452e-07
4.29457e-06
-2.47137e-07
4.10056e-06
6.69266e-08
3.82179e-06
4.02979e-07
3.4176e-06
7.88487e-07
2.78809e-06
1.24677e-06
1.82302e-06
1.85371e-06
2.60392e-06
5.40855e-06
-2.3502e-06
5.37766e-06
-1.66682e-06
5.33005e-06
-1.174e-06
5.2615e-06
-7.91646e-07
5.16853e-06
-4.55481e-07
5.04285e-06
-1.21462e-07
4.87267e-06
2.37107e-07
4.63666e-06
6.38992e-07
4.30332e-06
1.12183e-06
3.74715e-06
1.80294e-06
2.76819e-06
2.83267e-06
5.3721e-06
-1.79768e-07
1.79768e-07
-5.50191e-07
3.70423e-07
-1.04121e-06
4.9102e-07
-1.59364e-06
5.52426e-07
-2.14409e-06
5.50453e-07
-2.63943e-06
4.95337e-07
-3.04595e-06
4.06525e-07
-3.34926e-06
3.03312e-07
-3.55021e-06
2.00942e-07
-3.66115e-06
1.10942e-07
-3.70291e-06
4.17609e-08
-8.16677e-09
-3.69474e-06
-8.10287e-07
9.90055e-07
-1.70158e-06
1.26172e-06
-2.50154e-06
1.29098e-06
-3.15503e-06
1.20592e-06
-3.63869e-06
1.03411e-06
-3.95672e-06
8.1337e-07
-4.12951e-06
5.79307e-07
-4.18386e-06
3.57669e-07
-4.14625e-06
1.6333e-07
-4.02504e-06
-1.02664e-08
-3.85401e-06
-1.29266e-07
-1.99509e-07
-3.66267e-06
-9.04458e-07
1.89451e-06
-1.76675e-06
2.12401e-06
-2.4135e-06
1.93773e-06
-2.84302e-06
1.63544e-06
-3.08792e-06
1.27901e-06
-3.19179e-06
9.17238e-07
-3.19425e-06
5.81767e-07
-3.1273e-06
2.9072e-07
-3.02084e-06
5.68641e-08
-2.90723e-06
-1.23872e-07
-2.75444e-06
-2.82055e-07
-3.81312e-07
-2.57264e-06
-7.83868e-07
2.67838e-06
-1.52065e-06
2.86079e-06
-2.05367e-06
2.47075e-06
-2.42346e-06
2.00523e-06
-2.66627e-06
1.52181e-06
-2.79326e-06
1.04423e-06
-2.80557e-06
5.94077e-07
-2.70728e-06
1.92432e-07
-2.51056e-06
-1.39854e-07
-2.26785e-06
-3.66578e-07
-2.02498e-06
-5.24926e-07
-6.19155e-07
-1.78714e-06
-6.55368e-07
3.33375e-06
-1.29071e-06
3.49614e-06
-1.77722e-06
2.95725e-06
-2.14593e-06
2.37395e-06
-2.38841e-06
1.76429e-06
-2.47675e-06
1.13256e-06
-2.40397e-06
5.21304e-07
-2.20469e-06
-6.85652e-09
-1.91549e-06
-4.29047e-07
-1.5798e-06
-7.02265e-07
-1.25028e-06
-8.54449e-07
-9.1595e-07
-9.53486e-07
-5.44563e-07
3.87831e-06
-1.10855e-06
4.06013e-06
-1.59388e-06
3.44259e-06
-2.00356e-06
2.78363e-06
-2.28173e-06
2.04246e-06
-2.35849e-06
1.20932e-06
-2.21216e-06
3.74974e-07
-1.85381e-06
-3.65199e-07
-1.39657e-06
-8.86294e-07
-9.22909e-07
-1.17592e-06
-4.94663e-07
-1.28269e-06
-1.27084e-06
-1.3977e-07
-4.33155e-07
4.31147e-06
-9.38102e-07
4.56508e-06
-1.44892e-06
3.95341e-06
-1.9495e-06
3.2842e-06
-2.32904e-06
2.422e-06
-2.431e-06
1.31129e-06
-2.18912e-06
1.33087e-07
-1.62108e-06
-9.33237e-07
-9.23472e-07
-1.5839e-06
-2.5337e-07
-1.84603e-06
2.99503e-07
-1.83557e-06
-1.68412e-06
7.1278e-07
-2.92857e-07
4.60433e-06
-7.25484e-07
4.9977e-06
-1.2887e-06
4.51663e-06
-1.97719e-06
3.97269e-06
-2.56913e-06
3.01394e-06
-2.73807e-06
1.48023e-06
-2.3219e-06
-2.8308e-07
-1.48646e-06
-1.76868e-06
-4.81092e-07
-2.58926e-06
4.37574e-07
-2.76469e-06
1.13877e-06
-2.53677e-06
-2.15499e-06
1.60965e-06
-6.7633e-08
4.67196e-06
-4.11644e-07
5.34171e-06
-1.04816e-06
5.15314e-06
-1.94978e-06
4.8743e-06
-2.69296e-06
3.75712e-06
-2.79215e-06
1.57942e-06
-2.18696e-06
-8.88272e-07
-1.07543e-06
-2.88022e-06
1.72661e-07
-3.83735e-06
1.25831e-06
-3.85034e-06
2.04664e-06
-3.3251e-06
-2.64958e-06
2.54122e-06
2.5525e-07
4.41671e-06
6.60968e-08
5.53087e-06
-5.03245e-07
5.72249e-06
-1.37193e-06
5.74299e-06
-1.96584e-06
4.35102e-06
-1.84025e-06
1.45383e-06
-1.0537e-06
-1.67482e-06
1.53833e-07
-4.08775e-06
1.38482e-06
-5.06834e-06
2.38557e-06
-4.85109e-06
3.07922e-06
-4.01874e-06
-3.06793e-06
3.49758e-06
8.18921e-07
3.59779e-06
9.38389e-07
5.4114e-06
6.27442e-07
6.03343e-06
1.84655e-07
6.18578e-06
3.26424e-08
4.50304e-06
3.68632e-07
1.11784e-06
1.24679e-06
-2.55297e-06
2.27819e-06
-5.11915e-06
3.18404e-06
-5.97419e-06
3.83636e-06
-5.50341e-06
4.24414e-06
-4.42652e-06
-3.29565e-06
4.47185e-06
1.05182e-06
2.54597e-06
1.97176e-06
4.49146e-06
2.32235e-06
5.68284e-06
2.53485e-06
5.97328e-06
2.91728e-06
4.12061e-06
3.49627e-06
5.38848e-07
4.24626e-06
-3.30296e-06
4.86936e-06
-5.74225e-06
5.24262e-06
-6.34745e-06
5.39833e-06
-5.65912e-06
5.43551e-06
-4.4637e-06
5.42945e-06
-3.28959e-06
-3.64249e-06
-5.22512e-08
-3.56106e-06
-8.14345e-08
-3.4572e-06
-1.03853e-07
-3.33061e-06
-1.26597e-07
-3.15647e-06
-1.74132e-07
-2.92175e-06
-2.34727e-07
-2.60645e-06
-3.15292e-07
-2.18628e-06
-4.20175e-07
-1.64236e-06
-5.43916e-07
-9.90271e-07
-6.52091e-07
-3.43593e-07
-6.46678e-07
-3.43593e-07
-3.45942e-06
-2.55504e-07
-3.24078e-06
-3.00072e-07
-3.00691e-06
-3.37726e-07
-2.75857e-06
-3.74934e-07
-2.51255e-06
-4.20158e-07
-2.26704e-06
-4.80238e-07
-2.01688e-06
-5.65448e-07
-1.7468e-06
-6.90252e-07
-1.42235e-06
-8.68367e-07
-9.92996e-07
-1.08145e-06
-4.48404e-07
-1.19127e-06
-7.91997e-07
-2.38368e-06
-4.44458e-07
-2.19896e-06
-4.84794e-07
-2.02239e-06
-5.14294e-07
-1.85285e-06
-5.44478e-07
-1.68745e-06
-5.85562e-07
-1.5221e-06
-6.45581e-07
-1.35535e-06
-7.32198e-07
-1.18964e-06
-8.55963e-07
-1.02313e-06
-1.03488e-06
-8.15189e-07
-1.28939e-06
-4.80694e-07
-1.52576e-06
-1.27269e-06
-1.56492e-06
-6.66678e-07
-1.3644e-06
-6.85313e-07
-1.18795e-06
-6.90743e-07
-1.03611e-06
-6.96316e-07
-9.08224e-07
-7.13451e-07
-8.01361e-07
-7.52444e-07
-7.1031e-07
-8.23249e-07
-6.28751e-07
-9.37522e-07
-5.62065e-07
-1.10157e-06
-4.96515e-07
-1.35494e-06
-3.80854e-07
-1.64142e-06
-1.65355e-06
-7.01549e-07
-9.18615e-07
-4.97369e-07
-8.89493e-07
-3.39198e-07
-8.48914e-07
-2.23402e-07
-8.12112e-07
-1.45757e-07
-7.91096e-07
-1.02049e-07
-7.96152e-07
-8.77422e-08
-8.37555e-07
-9.65958e-08
-9.28668e-07
-1.23862e-07
-1.0743e-06
-1.56739e-07
-1.32206e-06
-2.06379e-07
-1.59178e-06
-1.85992e-06
1.36954e-07
-1.19534e-06
3.4184e-07
-1.09438e-06
4.83924e-07
-9.90998e-07
5.71133e-07
-8.9932e-07
6.08832e-07
-8.28795e-07
6.00766e-07
-7.88085e-07
5.48574e-07
-7.85363e-07
4.55907e-07
-8.36e-07
3.2778e-07
-9.46172e-07
1.77403e-07
-1.17168e-06
1.04412e-08
-1.42482e-06
-1.84948e-06
1.00349e-06
-1.48604e-06
1.19774e-06
-1.28863e-06
1.3163e-06
-1.10956e-06
1.37181e-06
-9.54827e-07
1.37062e-06
-8.27611e-07
1.31473e-06
-7.32195e-07
1.20403e-06
-6.7466e-07
1.0369e-06
-6.68872e-07
8.12615e-07
-7.21882e-07
5.36522e-07
-8.95591e-07
2.32999e-07
-1.1213e-06
-1.61648e-06
1.89983e-06
-1.77623e-06
2.06721e-06
-1.45601e-06
2.15178e-06
-1.19413e-06
2.17311e-06
-9.7616e-07
2.1373e-06
-7.91805e-07
2.04357e-06
-6.38458e-07
1.88628e-06
-5.17375e-07
1.65791e-06
-4.405e-07
1.34785e-06
-4.11823e-07
9.50641e-07
-4.9838e-07
4.75738e-07
-6.46394e-07
-1.14074e-06
2.81277e-06
-2.04778e-06
2.94169e-06
-1.58493e-06
2.98555e-06
-1.23799e-06
2.97213e-06
-9.62738e-07
2.90761e-06
-7.2729e-07
2.78668e-06
-5.17523e-07
2.59778e-06
-3.28476e-07
2.32339e-06
-1.66107e-07
1.94533e-06
-3.37638e-08
1.43688e-06
1.00675e-08
7.77515e-07
1.29722e-08
-3.63229e-07
3.71238e-06
-2.26258e-06
3.79602e-06
-1.66857e-06
3.80228e-06
-1.24424e-06
3.7596e-06
-9.2006e-07
3.67459e-06
-6.42279e-07
3.53946e-06
-3.82394e-07
3.33768e-06
-1.26696e-07
3.04694e-06
1.24636e-07
2.62844e-06
3.84732e-07
2.02075e-06
6.17758e-07
1.14453e-06
8.89197e-07
7.81298e-07
4.57959e-06
-2.37032e-06
4.60866e-06
-1.69764e-06
4.58562e-06
-1.2212e-06
4.52522e-06
-8.59663e-07
4.43086e-06
-5.47924e-07
4.29508e-06
-2.46606e-07
4.10098e-06
6.74004e-08
3.82216e-06
4.03451e-07
3.41793e-06
7.88971e-07
2.78837e-06
1.24732e-06
1.82322e-06
1.85435e-06
2.60452e-06
5.40983e-06
-2.35069e-06
5.37882e-06
-1.66662e-06
5.33103e-06
-1.17342e-06
5.2623e-06
-7.90935e-07
5.16917e-06
-4.54792e-07
5.04339e-06
-1.20826e-07
4.87311e-06
2.3768e-07
4.63704e-06
6.39522e-07
4.30367e-06
1.12235e-06
3.74747e-06
1.80351e-06
2.76845e-06
2.83336e-06
5.37297e-06
-1.79754e-07
1.79754e-07
-5.50196e-07
3.70442e-07
-1.04129e-06
4.91089e-07
-1.59382e-06
5.52536e-07
-2.14441e-06
5.50584e-07
-2.63987e-06
4.95465e-07
-3.0465e-06
4.06634e-07
-3.3499e-06
3.03392e-07
-3.55088e-06
2.00988e-07
-3.66184e-06
1.10956e-07
-3.70359e-06
4.17521e-08
-8.20073e-09
-3.69539e-06
-8.10406e-07
9.9016e-07
-1.70185e-06
1.26188e-06
-2.50195e-06
1.2912e-06
-3.15558e-06
1.20616e-06
-3.63934e-06
1.03434e-06
-3.95743e-06
8.13558e-07
-4.13023e-06
5.79438e-07
-4.18458e-06
3.57737e-07
-4.14693e-06
1.63337e-07
-4.02564e-06
-1.03346e-08
-3.85455e-06
-1.29336e-07
-1.99612e-07
-3.66314e-06
-9.04636e-07
1.8948e-06
-1.76709e-06
2.12433e-06
-2.41396e-06
1.93807e-06
-2.84355e-06
1.63576e-06
-3.08849e-06
1.27928e-06
-3.19238e-06
9.17443e-07
-3.19484e-06
5.81898e-07
-3.12787e-06
2.90774e-07
-3.02139e-06
5.68485e-08
-2.90774e-06
-1.2398e-07
-2.75488e-06
-2.82201e-07
-3.81491e-07
-2.573e-06
-7.84032e-07
2.67883e-06
-1.52094e-06
2.86124e-06
-2.05405e-06
2.47117e-06
-2.42392e-06
2.00563e-06
-2.6668e-06
1.52216e-06
-2.79386e-06
1.0445e-06
-2.80621e-06
5.94251e-07
-2.70792e-06
1.92483e-07
-2.51116e-06
-1.39917e-07
-2.26839e-06
-3.66746e-07
-2.02543e-06
-5.2516e-07
-6.19425e-07
-1.7875e-06
-6.55498e-07
3.33433e-06
-1.29095e-06
3.49669e-06
-1.77757e-06
2.95779e-06
-2.14642e-06
2.37449e-06
-2.38907e-06
1.76481e-06
-2.47755e-06
1.13299e-06
-2.40485e-06
5.21551e-07
-2.20556e-06
-6.81166e-09
-1.91628e-06
-4.29199e-07
-1.58047e-06
-7.02558e-07
-1.25081e-06
-8.54819e-07
-9.16345e-07
-9.53886e-07
-5.4467e-07
3.879e-06
-1.10877e-06
4.06079e-06
-1.59427e-06
3.4433e-06
-2.00417e-06
2.78439e-06
-2.28257e-06
2.04321e-06
-2.35951e-06
1.20993e-06
-2.21327e-06
3.75307e-07
-1.85487e-06
-3.65209e-07
-1.39747e-06
-8.86597e-07
-9.23624e-07
-1.17641e-06
-4.95196e-07
-1.28325e-06
-1.27139e-06
-1.40152e-07
-4.33242e-07
4.31224e-06
-9.38322e-07
4.56587e-06
-1.44933e-06
3.9543e-06
-1.95014e-06
3.28519e-06
-2.32996e-06
2.42304e-06
-2.43217e-06
1.31214e-06
-2.19042e-06
1.33552e-07
-1.62233e-06
-9.33298e-07
-9.24506e-07
-1.58442e-06
-2.54116e-07
-1.8468e-06
2.99021e-07
-1.83638e-06
-1.68485e-06
7.12485e-07
-2.92914e-07
4.60515e-06
-7.25659e-07
4.99862e-06
-1.28902e-06
4.51766e-06
-1.97773e-06
3.9739e-06
-2.56998e-06
3.01529e-06
-2.73932e-06
1.48148e-06
-2.32343e-06
-2.82337e-07
-1.48797e-06
-1.76876e-06
-4.82323e-07
-2.59007e-06
4.3675e-07
-2.76587e-06
1.13832e-06
-2.53796e-06
-2.15598e-06
1.60945e-06
-6.76698e-08
4.67282e-06
-4.11732e-07
5.34268e-06
-1.04826e-06
5.1542e-06
-1.94998e-06
4.87562e-06
-2.69351e-06
3.75882e-06
-2.7933e-06
1.58126e-06
-2.18841e-06
-8.87222e-07
-1.07691e-06
-2.88026e-06
1.71463e-07
-3.83844e-06
1.25754e-06
-3.85195e-06
2.04627e-06
-3.32669e-06
-2.65084e-06
2.54113e-06
2.55228e-07
4.41759e-06
6.61335e-08
5.53177e-06
-5.03046e-07
5.72338e-06
-1.37171e-06
5.74428e-06
-1.96596e-06
4.35307e-06
-1.84083e-06
1.45614e-06
-1.05468e-06
-1.67337e-06
1.52812e-07
-4.08776e-06
1.38405e-06
-5.06968e-06
2.38515e-06
-4.85305e-06
3.07909e-06
-4.02063e-06
-3.06938e-06
3.49764e-06
8.18905e-07
3.59869e-06
9.38508e-07
5.41217e-06
6.27813e-07
6.03407e-06
1.85107e-07
6.18698e-06
3.29004e-08
4.50528e-06
3.68514e-07
1.12052e-06
1.24644e-06
-2.5513e-06
2.2779e-06
-5.11921e-06
3.18397e-06
-5.97575e-06
3.83651e-06
-5.50559e-06
4.24441e-06
-4.42853e-06
-3.29712e-06
4.47215e-06
1.05171e-06
2.54698e-06
1.97185e-06
4.49203e-06
2.32269e-06
5.68323e-06
2.53527e-06
5.9744e-06
2.91766e-06
4.12289e-06
3.4966e-06
5.41587e-07
4.24658e-06
-3.30129e-06
4.86986e-06
-5.74249e-06
5.2433e-06
-6.34918e-06
5.39905e-06
-5.66134e-06
5.43614e-06
-4.46563e-06
5.42995e-06
-3.29092e-06
-3.64309e-06
-5.23014e-08
-3.56159e-06
-8.14981e-08
-3.45767e-06
-1.03927e-07
-3.33099e-06
-1.26676e-07
-3.15675e-06
-1.7424e-07
-2.92193e-06
-2.34821e-07
-2.60655e-06
-3.15376e-07
-2.18631e-06
-4.20245e-07
-1.64235e-06
-5.43962e-07
-9.90243e-07
-6.52104e-07
-3.4358e-07
-6.46663e-07
-3.4358e-07
-3.45981e-06
-2.55629e-07
-3.24109e-06
-3.00212e-07
-3.00715e-06
-3.37873e-07
-2.75874e-06
-3.75082e-07
-2.51268e-06
-4.20307e-07
-2.26711e-06
-4.80384e-07
-2.0169e-06
-5.65589e-07
-1.74677e-06
-6.90373e-07
-1.42229e-06
-8.68446e-07
-9.92936e-07
-1.08145e-06
-4.48388e-07
-1.19121e-06
-7.91968e-07
-2.38397e-06
-4.44657e-07
-2.19918e-06
-4.85002e-07
-2.02255e-06
-5.14504e-07
-1.85294e-06
-5.44685e-07
-1.68749e-06
-5.85763e-07
-1.5221e-06
-6.45775e-07
-1.3553e-06
-7.32384e-07
-1.18955e-06
-8.56127e-07
-1.023e-06
-1.03499e-06
-8.15068e-07
-1.28939e-06
-4.80641e-07
-1.52564e-06
-1.27261e-06
-1.5652e-06
-6.6696e-07
-1.36461e-06
-6.8559e-07
-1.1881e-06
-6.91013e-07
-1.03621e-06
-6.96571e-07
-9.08281e-07
-7.13695e-07
-8.01381e-07
-7.52674e-07
-7.10297e-07
-8.23468e-07
-6.28705e-07
-9.37719e-07
-5.61988e-07
-1.10171e-06
-4.96411e-07
-1.35497e-06
-3.80784e-07
-1.64127e-06
-1.65339e-06
-7.01847e-07
-9.18999e-07
-4.97592e-07
-8.89845e-07
-3.3937e-07
-8.49235e-07
-2.23539e-07
-8.12402e-07
-1.45869e-07
-7.91366e-07
-1.02139e-07
-7.96404e-07
-8.78138e-08
-8.37793e-07
-9.66516e-08
-9.28882e-07
-1.23899e-07
-1.07446e-06
-1.56735e-07
-1.32213e-06
-2.06348e-07
-1.59165e-06
-1.85974e-06
1.36681e-07
-1.19583e-06
3.41636e-07
-1.0948e-06
4.83756e-07
-9.91354e-07
5.70975e-07
-8.99621e-07
6.08666e-07
-8.29057e-07
6.00586e-07
-7.88323e-07
5.48393e-07
-7.85601e-07
4.55726e-07
-8.36215e-07
3.27618e-07
-9.46352e-07
1.77288e-07
-1.1718e-06
1.03985e-08
-1.42476e-06
-1.84934e-06
1.0033e-06
-1.48665e-06
1.19761e-06
-1.28911e-06
1.31618e-06
-1.10993e-06
1.37168e-06
-9.55116e-07
1.37046e-06
-8.27842e-07
1.31454e-06
-7.32398e-07
1.20379e-06
-6.74856e-07
1.03665e-06
-6.69069e-07
8.12369e-07
-7.22074e-07
5.36329e-07
-8.95761e-07
2.32909e-07
-1.12134e-06
-1.61643e-06
1.89976e-06
-1.77696e-06
2.06718e-06
-1.45653e-06
2.15174e-06
-1.19449e-06
2.17304e-06
-9.76416e-07
2.13719e-06
-7.91989e-07
2.04339e-06
-6.38603e-07
1.88605e-06
-5.17518e-07
1.65765e-06
-4.40671e-07
1.34759e-06
-4.12008e-07
9.50442e-07
-4.98615e-07
4.75659e-07
-6.4656e-07
-1.14077e-06
2.8128e-06
-2.04864e-06
2.94175e-06
-1.58547e-06
2.98558e-06
-1.23832e-06
2.97211e-06
-9.62943e-07
2.90753e-06
-7.27416e-07
2.78654e-06
-5.17607e-07
2.59757e-06
-3.28554e-07
2.32314e-06
-1.66237e-07
1.94507e-06
-3.3943e-08
1.43666e-06
9.80026e-09
7.77391e-07
1.27097e-08
-3.63384e-07
3.71251e-06
-2.26351e-06
3.79615e-06
-1.6691e-06
3.80235e-06
-1.24452e-06
3.7596e-06
-9.20194e-07
3.67452e-06
-6.42338e-07
3.53933e-06
-3.82413e-07
3.33749e-06
-1.26716e-07
3.04668e-06
1.24566e-07
2.62816e-06
3.84583e-07
2.02048e-06
6.17483e-07
1.14437e-06
8.88813e-07
7.80989e-07
4.57984e-06
-2.37121e-06
4.60883e-06
-1.6981e-06
4.58571e-06
-1.22139e-06
4.52522e-06
-8.59709e-07
4.43079e-06
-5.47906e-07
4.29492e-06
-2.46548e-07
4.10076e-06
6.74447e-08
3.82189e-06
4.03443e-07
3.4176e-06
7.88867e-07
2.78803e-06
1.24705e-06
1.82295e-06
1.85389e-06
2.60394e-06
5.41017e-06
-2.35144e-06
5.37902e-06
-1.66695e-06
5.33112e-06
-1.17349e-06
5.26229e-06
-7.9088e-07
5.16907e-06
-4.54682e-07
5.04321e-06
-1.20691e-07
4.87285e-06
2.37802e-07
4.63671e-06
6.39583e-07
4.30328e-06
1.1223e-06
3.74705e-06
1.80328e-06
2.76807e-06
2.83287e-06
5.37201e-06
-1.79724e-07
1.79724e-07
-5.50117e-07
3.70393e-07
-1.04114e-06
4.91019e-07
-1.59358e-06
5.52447e-07
-2.14407e-06
5.50485e-07
-2.63944e-06
4.95369e-07
-3.04599e-06
4.06554e-07
-3.34933e-06
3.03337e-07
-3.55029e-06
2.00962e-07
-3.66125e-06
1.10957e-07
-3.70302e-06
4.17701e-08
-8.16437e-09
-3.69485e-06
-8.10289e-07
9.90014e-07
-1.70161e-06
1.26172e-06
-2.5016e-06
1.291e-06
-3.15509e-06
1.20594e-06
-3.63871e-06
1.03411e-06
-3.95669e-06
8.13341e-07
-4.1294e-06
5.79269e-07
-4.1837e-06
3.57634e-07
-4.14604e-06
1.63306e-07
-4.0248e-06
-1.02839e-08
-3.85377e-06
-1.29266e-07
-1.99504e-07
-3.66243e-06
-9.04444e-07
1.89446e-06
-1.76671e-06
2.12398e-06
-2.41338e-06
1.93767e-06
-2.84276e-06
1.63532e-06
-3.08749e-06
1.27883e-06
-3.1912e-06
9.17052e-07
-3.19355e-06
5.81621e-07
-3.12656e-06
2.9064e-07
-3.0201e-06
5.68504e-08
-2.90656e-06
-1.23829e-07
-2.75384e-06
-2.81987e-07
-3.81233e-07
-2.57211e-06
-7.83792e-07
2.67825e-06
-1.52047e-06
2.86067e-06
-2.05333e-06
2.47053e-06
-2.42294e-06
2.00493e-06
-2.6656e-06
1.5215e-06
-2.79253e-06
1.04398e-06
-2.80485e-06
5.93941e-07
-2.70662e-06
1.92414e-07
-2.50999e-06
-1.39782e-07
-2.26738e-06
-3.66439e-07
-2.02461e-06
-5.24758e-07
-6.18985e-07
-1.78686e-06
-6.55248e-07
3.3335e-06
-1.29045e-06
3.49587e-06
-1.77678e-06
2.95686e-06
-2.14534e-06
2.37349e-06
-2.38772e-06
1.76388e-06
-2.47603e-06
1.13228e-06
-2.40328e-06
5.21192e-07
-2.20407e-06
-6.79373e-09
-1.91501e-06
-4.2884e-07
-1.57948e-06
-7.01977e-07
-1.2501e-06
-8.54138e-07
-9.15661e-07
-9.5342e-07
-5.44441e-07
3.87794e-06
-1.10829e-06
4.05971e-06
-1.59346e-06
3.44204e-06
-2.003e-06
2.78303e-06
-2.28105e-06
2.04193e-06
-2.35773e-06
1.20896e-06
-2.2114e-06
3.74861e-07
-1.85318e-06
-3.65014e-07
-1.39613e-06
-8.85881e-07
-9.22705e-07
-1.17541e-06
-4.94663e-07
-1.28218e-06
-1.2704e-06
-1.39927e-07
-4.33072e-07
4.31101e-06
-9.37901e-07
4.56454e-06
-1.44859e-06
3.95273e-06
-1.94899e-06
3.28343e-06
-2.32831e-06
2.42124e-06
-2.43008e-06
1.31073e-06
-2.18815e-06
1.32935e-07
-1.62028e-06
-9.32884e-07
-9.22992e-07
-1.58317e-06
-2.53244e-07
-1.84515e-06
2.99328e-07
-1.83475e-06
-1.68347e-06
7.12396e-07
-2.92843e-07
4.60386e-06
-7.25398e-07
4.9971e-06
-1.2885e-06
4.51583e-06
-1.97676e-06
3.9717e-06
-2.56838e-06
3.01286e-06
-2.73706e-06
1.47941e-06
-2.32082e-06
-2.83299e-07
-1.48557e-06
-1.76814e-06
-4.80587e-07
-2.58815e-06
4.37629e-07
-2.76337e-06
1.13844e-06
-2.53556e-06
-2.15408e-06
1.60905e-06
-6.77126e-08
4.67157e-06
-4.11723e-07
5.34111e-06
-1.0482e-06
5.15231e-06
-1.94968e-06
4.87317e-06
-2.69263e-06
3.75581e-06
-2.79158e-06
1.57835e-06
-2.18633e-06
-8.88541e-07
-1.07494e-06
-2.87953e-06
1.72836e-07
-3.83593e-06
1.2581e-06
-3.84864e-06
2.04609e-06
-3.32355e-06
-2.64842e-06
2.54043e-06
2.55067e-07
4.4165e-06
6.57829e-08
5.53039e-06
-5.03706e-07
5.7218e-06
-1.37247e-06
5.74194e-06
-1.96632e-06
4.34966e-06
-1.84059e-06
1.45262e-06
-1.05397e-06
-1.67516e-06
1.53499e-07
-4.087e-06
1.38432e-06
-5.06674e-06
2.38487e-06
-4.84919e-06
3.07833e-06
-4.01701e-06
-3.06665e-06
3.49657e-06
8.18651e-07
3.59785e-06
9.37853e-07
5.41119e-06
6.26604e-07
6.03304e-06
1.83571e-07
6.18497e-06
3.1433e-08
4.5018e-06
3.67468e-07
1.11658e-06
1.24568e-06
-2.55337e-06
2.27708e-06
-5.11841e-06
3.18289e-06
-5.97255e-06
3.83516e-06
-5.50146e-06
4.24292e-06
-4.42477e-06
-3.29437e-06
4.47064e-06
1.05147e-06
2.54638e-06
1.97108e-06
4.49159e-06
2.32135e-06
5.68277e-06
2.53359e-06
5.97274e-06
2.91585e-06
4.11954e-06
3.49476e-06
5.37675e-07
4.24473e-06
-3.30334e-06
4.86781e-06
-5.7415e-06
5.24111e-06
-6.34585e-06
5.39689e-06
-5.65724e-06
5.43415e-06
-4.46203e-06
5.42816e-06
-3.28838e-06
-3.6426e-06
-5.22554e-08
-3.56116e-06
-8.14428e-08
-3.45729e-06
-1.03862e-07
-3.33069e-06
-1.26603e-07
-3.15656e-06
-1.74133e-07
-2.92184e-06
-2.34722e-07
-2.60655e-06
-3.15286e-07
-2.18637e-06
-4.20178e-07
-1.64243e-06
-5.43937e-07
-9.90303e-07
-6.52132e-07
-3.43587e-07
-6.46716e-07
-3.43587e-07
-3.45919e-06
-2.55494e-07
-3.24057e-06
-3.00058e-07
-3.00673e-06
-3.37705e-07
-2.75843e-06
-3.74902e-07
-2.51245e-06
-4.20114e-07
-2.26699e-06
-4.80185e-07
-2.01688e-06
-5.65394e-07
-1.74685e-06
-6.90209e-07
-1.42242e-06
-8.68358e-07
-9.93066e-07
-1.08149e-06
-4.4844e-07
-1.19134e-06
-7.92027e-07
-2.38322e-06
-4.44379e-07
-2.19856e-06
-4.84718e-07
-2.02205e-06
-5.14217e-07
-1.85256e-06
-5.44395e-07
-1.6872e-06
-5.85474e-07
-1.52189e-06
-6.4549e-07
-1.35518e-06
-7.32108e-07
-1.1895e-06
-8.55884e-07
-1.02303e-06
-1.03483e-06
-8.15141e-07
-1.28938e-06
-4.80699e-07
-1.52578e-06
-1.27273e-06
-1.56471e-06
-6.66526e-07
-1.36424e-06
-6.85185e-07
-1.18782e-06
-6.9064e-07
-1.03598e-06
-6.96232e-07
-9.08075e-07
-7.13381e-07
-8.01186e-07
-7.52379e-07
-7.10106e-07
-8.23188e-07
-6.28528e-07
-9.37462e-07
-5.61835e-07
-1.10152e-06
-4.96309e-07
-1.35491e-06
-3.80759e-07
-1.64133e-06
-1.65349e-06
-7.01573e-07
-9.18373e-07
-4.9745e-07
-8.89307e-07
-3.39307e-07
-8.48784e-07
-2.23509e-07
-8.1203e-07
-1.45835e-07
-7.91055e-07
-1.02074e-07
-7.9614e-07
-8.7697e-08
-8.37565e-07
-9.64718e-08
-9.28687e-07
-1.23675e-07
-1.07432e-06
-1.56527e-07
-1.32206e-06
-2.06229e-07
-1.59163e-06
-1.85971e-06
1.36689e-07
-1.19499e-06
3.41511e-07
-1.09413e-06
4.8357e-07
-9.90842e-07
5.70784e-07
-8.99244e-07
6.08516e-07
-8.28787e-07
6.00506e-07
-7.8813e-07
5.48393e-07
-7.85453e-07
4.55815e-07
-8.36108e-07
3.27771e-07
-9.46273e-07
1.77449e-07
-1.17174e-06
1.05026e-08
-1.42469e-06
-1.84921e-06
1.00298e-06
-1.48557e-06
1.19718e-06
-1.28832e-06
1.31572e-06
-1.10938e-06
1.37123e-06
-9.5476e-07
1.37008e-06
-8.27631e-07
1.31424e-06
-7.32291e-07
1.2036e-06
-6.74814e-07
1.03655e-06
-6.69064e-07
8.12352e-07
-7.2207e-07
5.3635e-07
-8.95735e-07
2.32914e-07
-1.12125e-06
-1.6163e-06
1.89911e-06
-1.77563e-06
2.06644e-06
-1.45566e-06
2.15101e-06
-1.19395e-06
2.17236e-06
-9.76112e-07
2.13658e-06
-7.91856e-07
2.04289e-06
-6.38593e-07
1.88565e-06
-5.17583e-07
1.65736e-06
-4.40774e-07
1.34738e-06
-4.12088e-07
9.50299e-07
-4.98652e-07
4.75554e-07
-6.46505e-07
-1.14074e-06
2.81185e-06
-2.04705e-06
2.94075e-06
-1.58455e-06
2.98463e-06
-1.23784e-06
2.97125e-06
-9.62733e-07
2.90678e-06
-7.27384e-07
2.78589e-06
-5.17704e-07
2.59703e-06
-3.2872e-07
2.32273e-06
-1.66469e-07
1.94476e-06
-3.41234e-08
1.43644e-06
9.6677e-09
7.77273e-07
1.26627e-08
-3.63471e-07
3.71131e-06
-2.26179e-06
3.79496e-06
-1.66819e-06
3.80125e-06
-1.24413e-06
3.75863e-06
-9.20112e-07
3.67368e-06
-6.42431e-07
3.53861e-06
-3.82635e-07
3.33689e-06
-1.27005e-07
3.04619e-06
1.24237e-07
2.62779e-06
3.84276e-07
2.02024e-06
6.17221e-07
1.14425e-06
8.88646e-07
7.80781e-07
4.5784e-06
-2.36956e-06
4.60751e-06
-1.6973e-06
4.58452e-06
-1.22115e-06
4.52419e-06
-8.59774e-07
4.42988e-06
-5.48129e-07
4.29416e-06
-2.46913e-07
4.10012e-06
6.70338e-08
3.82137e-06
4.02996e-07
3.41721e-06
7.88434e-07
2.78777e-06
1.24666e-06
1.82282e-06
1.85359e-06
2.6036e-06
5.40859e-06
-2.34999e-06
5.37763e-06
-1.66634e-06
5.3299e-06
-1.17341e-06
5.26123e-06
-7.91099e-07
5.16815e-06
-4.55056e-07
5.04242e-06
-1.21175e-07
4.8722e-06
2.37253e-07
4.63618e-06
6.39009e-07
4.30288e-06
1.12174e-06
3.74677e-06
1.80277e-06
2.76792e-06
2.83244e-06
5.37152e-06
3.51766e-06
4.10763e-06
-5.07813e-06
3.68434e-06
4.32507e-06
4.29134e-06
5.07528e-06
5.12247e-06
5.14088e-06
5.95436e-06
3.28725e-06
6.75005e-06
-2.57976e-07
7.2493e-06
-3.8022e-06
7.34132e-06
-5.83305e-06
7.1226e-06
-6.12668e-06
6.79336e-06
-5.32756e-06
6.50908e-06
-4.17737e-06
-3.09641e-06
6.31725e-06
6.59997e-06
4.51853e-06
-7.01086e-06
6.42123e-06
4.50381e-06
6.82951e-06
4.667e-06
7.77407e-06
4.19632e-06
8.85173e-06
2.20958e-06
9.58093e-06
-9.87174e-07
9.68251e-06
-3.90378e-06
9.22422e-06
-5.37476e-06
8.51296e-06
-5.41542e-06
7.85834e-06
-4.67294e-06
7.3932e-06
-3.71224e-06
-2.80993e-06
7.10672e-06
8.59765e-06
4.02445e-06
-8.10358e-06
8.97548e-06
4.12598e-06
9.58687e-06
4.05561e-06
1.05016e-05
3.28162e-06
1.13026e-05
1.40851e-06
1.15855e-05
-1.27007e-06
1.11745e-05
-3.49278e-06
1.03102e-05
-4.51043e-06
9.37534e-06
-4.48056e-06
8.62232e-06
-3.91992e-06
8.11274e-06
-3.20266e-06
-2.49107e-06
7.79388e-06
9.36897e-06