/*--------------------------------*- C++ -*----------------------------------*\
| =========                 |                                                 |
| \\      /  F ield         | OpenFOAM: The Open Source CFD Toolbox           |
|  \\    /   O peration     | Version:  2.3.1                                 |
|   \\  /    A nd           | Web:      www.OpenFOAM.org                      |
|    \\/     M anipulation  |                                                 |
\*---------------------------------------------------------------------------*/
FoamFile
{
    version     2.0;
    format      ascii;
    class       volVectorField;
    location    "0.1";
    object      U;
}
// * * * * * * * * * * * * * * * * * * * * * * * * * * * * * * * * * * * * * //

dimensions      [0 1 -1 0 0 0 0];

internalField   nonuniform List<vector> 
3072
(
(-0.0698906 0.114293 -9.35792e-20)
(-0.0599964 0.135797 -3.73166e-19)
(-0.0497711 0.159769 -3.65438e-19)
(-0.0390552 0.18597 7.95262e-19)
(-0.027662 0.211678 -2.56486e-19)
(-0.0156582 0.234512 0)
(-0.00305464 0.252958 3.65338e-20)
(0.0100707 0.266391 -3.50739e-20)
(0.0236555 0.274847 0)
(0.0377804 0.278789 1.13726e-21)
(0.0526061 0.27887 -6.80367e-20)
(0.0681051 0.275678 -6.09031e-20)
(-0.0632342 0.14934 4.26873e-19)
(-0.0585786 0.198782 -2.69351e-19)
(-0.0543953 0.235561 0)
(-0.0509382 0.265304 1.18826e-19)
(-0.047926 0.287043 0)
(-0.0447698 0.30165 5.52053e-20)
(-0.0405065 0.310502 7.74128e-20)
(-0.0343342 0.314891 -2.61401e-20)
(-0.0258117 0.315544 -5.2545e-20)
(-0.0150232 0.312873 1.16692e-20)
(-0.00247815 0.307563 -1.17427e-20)
(0.0110377 0.300651 0)
(-0.0290872 0.188279 1.19525e-19)
(-0.0285278 0.241152 -3.46514e-19)
(-0.0286693 0.266704 -1.08726e-19)
(-0.0291886 0.283432 -1.08107e-19)
(-0.0285009 0.292032 0)
(-0.0259885 0.295321 -1.0126e-19)
(-0.0211286 0.295034 0)
(-0.0140053 0.292419 -6.77186e-20)
(-0.00505615 0.288421 4.62879e-20)
(0.00515399 0.283716 0)
(0.0163211 0.277832 -2.75851e-20)
(0.0283451 0.270059 -2.86111e-20)
(0.000603744 0.218223 2.25229e-19)
(-0.0018819 0.268042 -1.12785e-19)
(-0.00772031 0.280199 9.98022e-20)
(-0.0154719 0.28849 -1.88342e-19)
(-0.0219404 0.292402 2.79598e-19)
(-0.0269681 0.29414 4.16918e-20)
(-0.0298151 0.293447 4.06695e-20)
(-0.0298601 0.290118 5.81325e-20)
(-0.0265473 0.284095 -2.0869e-20)
(-0.0198952 0.27614 0)
(-0.0105239 0.267535 1.77829e-20)
(0.000760345 0.258673 8.13426e-21)
(0.0181577 0.239847 -2.10793e-19)
(0.0132581 0.287919 4.00239e-19)
(0.00365009 0.29069 1.79708e-19)
(-0.00867536 0.296257 -1.8043e-19)
(-0.0184825 0.298753 0)
(-0.0262108 0.29875 -8.17343e-20)
(-0.0310074 0.294769 -7.50668e-20)
(-0.0325315 0.287326 3.18835e-20)
(-0.0305209 0.277426 -4.7829e-20)
(-0.0250508 0.265992 -5.75421e-21)
(-0.0165925 0.254138 5.80086e-21)
(-0.00581612 0.242752 1.00662e-20)
(0.0259826 0.255932 4.1312e-19)
(0.0202715 0.304886 -1.80489e-19)
(0.0105949 0.302187 -3.84579e-21)
(-0.00361221 0.308571 -2.47808e-19)
(-0.0163646 0.311083 0)
(-0.0294063 0.309912 0)
(-0.0405285 0.302804 -3.28147e-20)
(-0.0474413 0.290267 0)
(-0.0481392 0.274363 0)
(-0.0430888 0.25784 1.10586e-21)
(-0.033597 0.242341 0)
(-0.0211878 0.228687 0)
(0.0279561 0.268475 -3.13795e-22)
(0.0232475 0.320012 1.60797e-19)
(0.0166211 0.314146 -3.45737e-21)
(0.00159081 0.323558 -7.64459e-20)
(-0.0147536 0.328425 -1.45381e-19)
(-0.0342891 0.328069 1.3761e-19)
(-0.0525993 0.317934 -4.35659e-21)
(-0.0649641 0.298902 -4.96959e-20)
(-0.0685037 0.274329 3.30699e-20)
(-0.0629714 0.250102 -1.03729e-21)
(-0.0510423 0.22929 0)
(-0.0357361 0.212774 4.50358e-21)
(0.0256144 0.277662 3.38503e-19)
(0.0239479 0.332093 0)
(0.02333 0.324451 -1.79788e-21)
(0.00992049 0.341037 1.42724e-19)
(-0.0090362 0.353636 2.12386e-19)
(-0.0379371 0.356172 0)
(-0.0693236 0.340541 0)
(-0.092623 0.310995 4.55144e-20)
(-0.0992827 0.275876 -3.03906e-20)
(-0.0904213 0.242332 0)
(-0.0725705 0.214968 -2.54203e-21)
(-0.0515917 0.195055 -5.17683e-21)
(0.019591 0.281639 -2.9802e-19)
(0.0234682 0.338625 3.88149e-19)
(0.0331785 0.331568 -3.88019e-19)
(0.0250623 0.359688 1.37756e-19)
(0.00167453 0.378993 0)
(-0.0433046 0.376432 0)
(-0.0938118 0.348875 0)
(-0.130299 0.308993 0)
(-0.139224 0.266636 6.62791e-21)
(-0.124509 0.228122 -4.99143e-21)
(-0.0975455 0.197354 7.11955e-22)
(-0.0681273 0.17563 1.028e-21)
(0.00655334 0.278872 0)
(0.0220274 0.338038 -1.13815e-19)
(0.0469617 0.331264 1.19243e-19)
(0.0466023 0.365357 -1.17416e-19)
(0.017053 0.377397 -3.21951e-19)
(-0.0452379 0.355518 2.08701e-19)
(-0.116116 0.312686 9.80954e-20)
(-0.165433 0.268978 6.85962e-20)
(-0.176728 0.229856 0)
(-0.156567 0.197185 1.20995e-21)
(-0.120737 0.171822 -1.20424e-21)
(-0.0829476 0.153749 0)
(-0.0111131 0.267809 -8.61573e-20)
(0.0258655 0.322404 8.16615e-20)
(0.0616446 0.313558 0)
(0.0712991 0.340562 1.78939e-21)
(0.0387226 0.328027 1.71871e-19)
(-0.0370683 0.279933 -2.11294e-19)
(-0.124822 0.228813 -2.00047e-19)
(-0.185672 0.189806 -3.52665e-20)
(-0.200192 0.164626 -6.87847e-21)
(-0.176563 0.148438 0)
(-0.13497 0.137177 0)
(-0.0919542 0.128716 7.50502e-21)
(-0.078309 0.251484 1.47164e-19)
(0.0139171 0.298832 0)
(0.0747426 0.279895 9.04013e-20)
(0.09601 0.278563 2.32608e-19)
(0.0637957 0.241069 0)
(-0.019656 0.175687 -2.19878e-19)
(-0.119019 0.119105 2.79666e-19)
(-0.188093 0.0908053 0)
(-0.204676 0.0866772 -1.58188e-20)
(-0.179854 0.09278 -7.63408e-22)
(-0.136778 0.0992491 7.8305e-22)
(-0.0930437 0.102571 8.17656e-21)
(0.0839553 0.269582 1.55106e-19)
(0.0996244 0.261134 1.12996e-19)
(0.114225 0.250973 -1.13529e-19)
(0.126879 0.239546 -1.92872e-19)
(0.136569 0.226921 2.0298e-19)
(0.14248 0.213156 0)
(0.144007 0.198295 -2.06397e-19)
(0.140601 0.18192 1.46301e-19)
(0.132292 0.163405 -1.18701e-19)
(0.120986 0.142169 2.03688e-19)
(0.111422 0.11722 0)
(0.108779 0.0877275 -9.29074e-20)
(0.0251829 0.292395 1.09706e-20)
(0.039209 0.282723 0)
(0.0526409 0.271601 -1.21781e-19)
(0.0651164 0.259195 1.49235e-19)
(0.0763836 0.246075 3.53583e-20)
(0.0859395 0.232896 -5.18057e-20)
(0.092942 0.220172 2.42913e-19)
(0.09637 0.20852 -8.88914e-20)
(0.0955424 0.198272 0)
(0.0918298 0.188144 -1.2587e-19)
(0.0907423 0.171115 8.21046e-20)
(0.10226 0.129124 0)
(0.0406135 0.261063 3.13081e-20)
(0.0527451 0.251386 -2.31117e-20)
(0.0642471 0.241391 9.21977e-20)
(0.0745245 0.231385 -7.11129e-20)
(0.0830599 0.221696 -1.56144e-19)
(0.089672 0.212589 3.28193e-20)
(0.0941603 0.204365 2.44594e-20)
(0.0960763 0.197551 0)
(0.0948621 0.193239 0)
(0.0915849 0.192738 0)
(0.0920277 0.191376 0)
(0.104514 0.158503 -3.87568e-20)
(0.0130907 0.249557 -4.49958e-20)
(0.0257781 0.240372 3.67914e-20)
(0.0382921 0.23128 -5.60837e-20)
(0.050211 0.222464 4.25949e-20)
(0.0611771 0.214155 4.80537e-20)
(0.0708834 0.206634 0)
(0.0790746 0.200214 -1.30932e-20)
(0.085394 0.195202 8.3744e-21)
(0.0891048 0.192114 0)
(0.0892382 0.192574 0)
(0.0946075 0.200123 0)
(0.105704 0.183422 -2.52142e-20)
(0.00637505 0.232157 0)
(0.0191881 0.222457 -1.40992e-20)
(0.0320102 0.213672 -1.1611e-20)
(0.0443858 0.205834 0)
(0.0559821 0.199028 0)
(0.0665464 0.193417 0)
(0.0759161 0.189252 -1.51453e-20)
(0.0837709 0.186771 -2.54068e-21)
(0.0906954 0.186638 0)
(0.0927404 0.188042 1.04456e-20)
(0.102529 0.198001 7.20452e-21)
(0.111199 0.197998 -1.39266e-20)
(-0.0072411 0.216985 -1.1564e-20)
(0.00722849 0.207029 5.91576e-21)
(0.0215958 0.198567 3.64477e-21)
(0.0354942 0.191411 7.08525e-21)
(0.0487277 0.185508 -6.72048e-21)
(0.061173 0.180936 -5.38328e-21)
(0.0728106 0.177962 1.21103e-20)
(0.0833294 0.17683 0)
(0.0934023 0.178381 -2.14909e-20)
(0.0994966 0.181942 -2.2284e-20)
(0.112406 0.191545 2.61056e-20)
(0.12078 0.202665 0)
(-0.0191749 0.200036 1.03886e-20)
(-0.00255673 0.190103 -5.3032e-21)
(0.0135646 0.182152 9.51476e-21)
(0.0290035 0.17571 -1.29538e-20)
(0.043766 0.170604 9.99713e-21)
(0.0579063 0.166862 0)
(0.0715786 0.164726 0)
(0.0845882 0.164459 0)
(0.0977584 0.166923 0)
(0.108044 0.171966 3.15287e-20)
(0.124004 0.182899 -3.07366e-20)
(0.134455 0.198152 0)
(-0.0308396 0.18147 0)
(-0.0114433 0.172081 -6.93703e-21)
(0.00656589 0.165117 5.38378e-21)
(0.0234704 0.159615 2.61498e-20)
(0.0396057 0.155248 -5.96353e-20)
(0.055261 0.15203 0)
(0.0708014 0.15022 4.86488e-20)
(0.0862217 0.150146 -5.56782e-20)
(0.1025 0.152734 -6.29478e-20)
(0.117138 0.158226 0)
(0.137378 0.16954 0)
(0.150351 0.187253 0)
(-0.0414791 0.161772 0)
(-0.0186944 0.153228 1.0864e-20)
(0.00111209 0.147547 1.00136e-20)
(0.0191241 0.143184 3.57671e-20)
(0.0362289 0.139543 -1.75237e-21)
(0.0530139 0.136605 4.69354e-20)
(0.0700718 0.134687 -1.47154e-19)
(0.0876381 0.13419 5.18271e-20)
(0.107003 0.135992 5.88636e-20)
(0.126112 0.140633 -1.63276e-19)
(0.151351 0.151067 8.47318e-20)
(0.168577 0.169376 1.95602e-21)
(-0.0502814 0.141945 0)
(-0.0240968 0.134746 1.31656e-20)
(-0.00277484 0.130263 2.41769e-20)
(0.0158537 0.126936 -3.25259e-20)
(0.0333852 0.123933 0)
(0.0507642 0.12108 5.08037e-20)
(0.0687977 0.118662 -1.72959e-19)
(0.087935 0.117004 -7.14666e-20)
(0.109928 0.116944 -1.49197e-19)
(0.13375 0.119066 1.51132e-19)
(0.166853 0.126643 0)
(0.192483 0.140751 0)
(-0.0556189 0.122234 -7.64998e-21)
(-0.0273919 0.117508 -2.72359e-20)
(-0.00528724 0.11417 4.50846e-21)
(0.0134303 0.111515 -7.24534e-20)
(0.0308709 0.108866 0)
(0.0482959 0.105875 4.77496e-20)
(0.0666197 0.102655 1.59047e-19)
(0.0864997 0.0993233 1.87939e-19)
(0.109908 0.0964703 6.99344e-20)
(0.137125 0.0937122 0)
(0.176995 0.0946021 0)
(0.214624 0.0984817 -2.13526e-19)
(-0.0565896 0.102846 -8.37644e-21)
(-0.0285189 0.101438 1.09924e-20)
(-0.00672949 0.0994819 1.47475e-20)
(0.0115407 0.0973302 7.50154e-20)
(0.0284635 0.0947648 -3.96928e-20)
(0.0454427 0.0914587 -9.35575e-20)
(0.063375 0.0873228 -1.64544e-19)
(0.0830053 0.0821663 1.75797e-19)
(0.10591 0.075823 0)
(0.134675 0.0671763 0)
(0.176134 0.0543249 8.86495e-20)
(0.254637 0.0356242 9.89881e-20)
(0.114294 0.0698897 -9.36173e-20)
(0.135801 0.059995 2.09779e-21)
(0.159778 0.0497687 -3.62908e-19)
(0.185983 0.0390521 0)
(0.211694 0.0276583 0)
(0.234531 0.0156546 -7.5949e-20)
(0.252976 0.00305207 0)
(0.266408 -0.0100714 -3.50908e-20)
(0.274862 -0.0236539 0)
(0.278801 -0.0377768 9.9413e-22)
(0.278879 -0.0526011 8.71711e-21)
(0.275682 -0.0680988 1.29008e-19)
(0.149344 0.0632298 -1.42396e-19)
(0.198792 0.0585745 0)
(0.235574 0.0543921 0)
(0.265318 0.0509367 0)
(0.287057 0.0479272 5.72076e-20)
(0.301663 0.0447744 8.01062e-21)
(0.310512 0.0405142 5.32373e-20)
(0.314899 0.034344 3.04345e-20)
(0.315549 0.0258222 0)
(0.312874 0.0150336 -8.9333e-22)
(0.307562 0.00248844 4.31666e-20)
(0.300648 -0.011029 -1.42254e-19)
(0.188286 0.0290792 2.50927e-19)
(0.241164 0.0285207 -2.26433e-19)
(0.266718 0.0286636 2.18953e-19)
(0.283447 0.0291848 0)
(0.292048 0.0284994 -5.31848e-20)
(0.295337 0.0259894 -4.71843e-20)
(0.29505 0.0211319 4.94153e-20)
(0.292434 0.0140107 2.21335e-20)
(0.288436 0.00506354 0)
(0.28373 -0.00514422 9.93881e-21)
(0.277842 -0.0163104 -1.54132e-21)
(0.270065 -0.0283341 1.8651e-20)
(0.218234 -0.000615972 -6.45318e-21)
(0.268058 0.00187154 -2.16761e-19)
(0.280218 0.00771182 9.65249e-20)
(0.288513 0.0154659 -2.90994e-19)
(0.292428 0.0219385 -9.12975e-20)
(0.294167 0.0269719 0)
(0.293471 0.0298247 0)
(0.290138 0.0298741 -2.10356e-20)
(0.284111 0.0265636 0)
(0.276152 0.0199114 -9.09744e-22)
(0.267545 0.0105387 -7.96974e-21)
(0.258678 -0.000747194 1.05711e-20)
(0.239862 -0.0181748 1.10076e-19)
(0.287938 -0.0132725 0)
(0.290714 -0.00366297 2.72119e-19)
(0.296284 0.00866538 7.9374e-20)
(0.298782 0.0184781 -6.10591e-21)
(0.298776 0.0262137 -2.37938e-19)
(0.294794 0.0310177 4.16516e-20)
(0.287347 0.0325482 0)
(0.277443 0.0305423 0)
(0.266003 0.025074 -4.90022e-21)
(0.254145 0.0166148 5.8076e-21)
(0.242753 0.00583598 2.10337e-20)
(0.255949 -0.0260045 -4.10952e-19)
(0.304906 -0.020291 1.79051e-19)
(0.302209 -0.0106134 -1.65723e-19)
(0.308596 0.0035973 1.66834e-19)
(0.311109 0.0163571 7.80248e-20)
(0.309943 0.0294086 7.40858e-20)
(0.302836 0.0405408 3.92302e-20)
(0.290297 0.0474619 6.40621e-20)
(0.274385 0.0481653 -1.09106e-20)
(0.257853 0.0431173 1.09966e-20)
(0.242345 0.0336245 -6.53779e-21)
(0.228685 0.0212118 0)
(0.268488 -0.0279809 1.91545e-19)
(0.320029 -0.0232715 -1.66577e-19)
(0.314163 -0.0166457 0)
(0.323582 -0.0016128 -1.47756e-19)
(0.328462 0.0147375 1.52096e-19)
(0.328119 0.0342833 7.22169e-20)
(0.317991 0.0526093 -6.37326e-20)
(0.298953 0.0649917 0)
(0.274365 0.0685428 0)
(0.25012 0.0630131 -3.13529e-21)
(0.229294 0.0510799 9.28182e-21)
(0.212767 0.0357669 0)
(0.277671 -0.0256388 3.81303e-21)
(0.332102 -0.0239756 1.26754e-20)
(0.324464 -0.0233634 4.31142e-19)
(0.341066 -0.0099566 -1.45416e-19)
(0.35369 0.00900291 -1.43134e-19)
(0.356242 0.0379209 -6.31322e-20)
(0.340608 0.069338 0)
(0.311048 0.0926675 0)
(0.275912 0.0993447 0)
(0.242348 0.0904845 0)
(0.214967 0.0726245 0)
(0.19504 0.0516323 0)
(0.281638 -0.0196104 -1.57119e-19)
(0.338626 -0.0234983 0)
(0.331575 -0.0332225 -7.29691e-21)
(0.359716 -0.0251161 2.71809e-19)
(0.379039 -0.00172602 0)
(0.376475 0.0432786 -7.13507e-20)
(0.348905 0.0938267 8.15204e-20)
(0.309008 0.130353 0)
(0.26664 0.139302 1.8478e-20)
(0.228116 0.12459 0)
(0.197336 0.0976148 0)
(0.175603 0.0681779 0)
(0.278862 -0.00656016 2.19521e-19)
(0.338029 -0.0220612 2.03553e-19)
(0.331258 -0.0470146 -3.53803e-19)
(0.365363 -0.0466719 -1.40832e-19)
(0.377403 -0.0171219 -8.44516e-20)
(0.355507 0.0451962 9.0767e-20)
(0.312655 0.116117 -7.82782e-20)
(0.268938 0.165481 6.86779e-20)
(0.229814 0.176806 -1.68189e-20)
(0.197144 0.156653 -1.21594e-21)
(0.171782 0.120812 -1.57492e-22)
(0.153708 0.0830021 0)
(0.267793 0.0111229 -5.26389e-20)
(0.322385 -0.0258941 -8.71557e-20)
(0.313538 -0.0616984 0)
(0.34054 -0.0713747 1.27021e-19)
(0.327997 -0.0388014 0)
(0.279879 0.0370118 0)
(0.228745 0.124809 0)
(0.189732 0.185709 -3.53029e-20)
(0.164557 0.200263 -4.23951e-20)
(0.148378 0.176644 0)
(0.137122 0.135043 1.24297e-21)
(0.128664 0.0920062 -7.46042e-21)
(0.251461 0.0783353 -2.19188e-19)
(0.298806 -0.0139319 -8.84534e-21)
(0.279865 -0.0747866 -5.68481e-20)
(0.278528 -0.0960773 -2.08574e-19)
(0.241023 -0.0638659 -9.53291e-20)
(0.175627 0.0196026 1.03596e-19)
(0.119031 0.119002 1.88024e-19)
(0.0907282 0.188123 0)
(0.0866094 0.204739 3.10617e-20)
(0.0927253 0.179928 -7.69396e-22)
(0.0992015 0.136845 7.89198e-22)
(0.102523 0.0930916 0)
(0.269583 -0.0839487 -7.16357e-20)
(0.261132 -0.0996173 0)
(0.250968 -0.114218 0)
(0.239539 -0.126872 0)
(0.226913 -0.136564 4.63144e-20)
(0.213148 -0.142476 0)
(0.198287 -0.144005 0)
(0.181914 -0.1406 -5.76269e-20)
(0.163401 -0.132293 6.54536e-20)
(0.142167 -0.120988 2.15639e-20)
(0.11722 -0.111423 -1.20438e-19)
(0.087729 -0.108779 2.64149e-20)
(0.292392 -0.0251752 9.10599e-20)
(0.282718 -0.0392025 0)
(0.271596 -0.0526357 -1.21912e-19)
(0.25919 -0.0651126 1.23317e-19)
(0.246069 -0.0763813 0)
(0.23289 -0.0859386 4.32924e-20)
(0.220166 -0.0929426 -3.97708e-20)
(0.208514 -0.096372 9.02184e-20)
(0.198267 -0.0955452 -3.06062e-20)
(0.18814 -0.0918323 8.01735e-20)
(0.171114 -0.0907427 0)
(0.129126 -0.102259 -9.2697e-20)
(0.261066 -0.0406034 -6.02075e-20)
(0.251386 -0.0527368 0)
(0.241389 -0.064241 9.2323e-20)
(0.231383 -0.0745209 -1.28501e-19)
(0.221693 -0.0830587 1.04715e-19)
(0.212585 -0.0896733 -8.76182e-20)
(0.20436 -0.0941638 1.30443e-20)
(0.197546 -0.0960814 -3.46211e-20)
(0.193234 -0.0948675 7.4823e-20)
(0.192735 -0.0915891 -5.37517e-20)
(0.191375 -0.0920283 0)
(0.158504 -0.104513 -2.93478e-20)
(0.24956 -0.0130798 2.51211e-20)
(0.240372 -0.0257697 0)
(0.231279 -0.0382862 -3.19631e-20)
(0.222461 -0.0502076 9.05648e-20)
(0.214151 -0.061176 -2.97454e-20)
(0.20663 -0.0708845 -2.61852e-20)
(0.200209 -0.0790781 2.33041e-20)
(0.195196 -0.0853988 8.4392e-21)
(0.192109 -0.0891102 -4.72986e-20)
(0.192571 -0.0892424 2.73076e-20)
(0.200124 -0.0946072 0)
(0.183426 -0.105704 1.40035e-20)
(0.232156 -0.00635869 -3.14755e-20)
(0.222453 -0.0191752 0)
(0.213667 -0.0320013 -2.32549e-20)
(0.205826 -0.04438 0)
(0.19902 -0.0559799 0)
(0.193408 -0.0665464 0)
(0.189244 -0.0759189 4.13449e-21)
(0.186762 -0.0837745 -9.52227e-23)
(0.186629 -0.0906996 0)
(0.188036 -0.0927435 0)
(0.197999 -0.102528 0)
(0.198002 -0.111199 -1.28859e-20)
(0.216978 0.00726087 0)
(0.20702 -0.00721346 5.96967e-21)
(0.198556 -0.0215847 -7.21051e-21)
(0.1914 -0.035487 7.19457e-21)
(0.185495 -0.048723 5.88064e-21)
(0.180923 -0.061171 6.60772e-21)
(0.177948 -0.0728101 -3.76957e-21)
(0.176817 -0.0833309 -2.69335e-20)
(0.178368 -0.0934038 1.96462e-20)
(0.181932 -0.0994985 1.32104e-20)
(0.191539 -0.112402 5.33035e-20)
(0.202666 -0.120781 1.2451e-20)
(0.200024 0.0191985 0)
(0.190087 0.00257399 -6.17137e-21)
(0.182136 -0.0135526 1.02318e-20)
(0.175694 -0.0289953 1.02344e-20)
(0.170588 -0.0437609 1.49564e-20)
(0.166845 -0.0579035 0)
(0.164709 -0.0715775 -3.85646e-20)
(0.164442 -0.0845883 0)
(0.166906 -0.0977584 0)
(0.171953 -0.108046 -3.14195e-20)
(0.182889 -0.124001 6.65158e-20)
(0.198149 -0.134457 -9.36522e-20)
(0.181448 0.0308679 0)
(0.172057 0.0114622 7.53752e-21)
(0.165094 -0.00655351 2.07553e-20)
(0.159594 -0.0234625 -9.8407e-21)
(0.155228 -0.0396007 -5.94295e-20)
(0.152011 -0.055258 0)
(0.150202 -0.0708001 -5.86876e-20)
(0.150127 -0.0862223 1.0165e-19)
(0.152716 -0.102501 5.77299e-20)
(0.158209 -0.117139 -5.82197e-20)
(0.169527 -0.13738 -5.26744e-20)
(0.187247 -0.150353 6.34862e-20)
(0.161739 0.0415116 7.11265e-21)
(0.153194 0.0187136 -6.89451e-21)
(0.147516 -0.00110096 -2.80006e-20)
(0.143157 -0.0191175 -3.25638e-20)
(0.139519 -0.0362249 6.70506e-20)
(0.136583 -0.0530115 4.68327e-20)
(0.134667 -0.0700704 -2.30249e-21)
(0.134172 -0.0876378 1.07716e-20)
(0.135973 -0.107004 -1.43108e-19)
(0.140615 -0.126117 0)
(0.151051 -0.151354 -9.919e-20)
(0.169369 -0.16858 -1.59467e-19)
(0.141902 0.0503151 -6.5312e-21)
(0.134704 0.0241144 3.86981e-20)
(0.130224 0.0027829 1.8858e-20)
(0.126902 -0.0158503 -6.96945e-20)
(0.123905 -0.0333836 0)
(0.121056 -0.0507637 0)
(0.118642 -0.0687983 0)
(0.116985 -0.0879356 -5.81938e-20)
(0.116925 -0.109929 5.63703e-20)
(0.119047 -0.133754 7.72786e-20)
(0.126623 -0.166858 1.70461e-19)
(0.140741 -0.192489 1.05045e-19)
(0.122184 0.0556493 7.60468e-21)
(0.11746 0.0274053 -3.80365e-20)
(0.114127 0.0052909 8.09516e-20)
(0.111477 -0.0134308 -3.88659e-20)
(0.108834 -0.0308724 3.98161e-20)
(0.105848 -0.0482972 0)
(0.102632 -0.0666214 -5.90478e-20)
(0.099302 -0.0865021 5.91708e-20)
(0.0964498 -0.10991 7.61965e-20)
(0.0936914 -0.137129 1.0684e-20)
(0.0945804 -0.177001 1.14015e-20)
(0.0984655 -0.21463 5.84271e-21)
(0.102798 0.056615 0)
(0.101389 0.0285269 0)
(0.0994365 0.00672786 -3.06329e-20)
(0.09729 -0.0115455 3.91566e-20)
(0.0947305 -0.0284685 -3.95919e-20)
(0.0914297 -0.0454466 0)
(0.0872978 -0.063378 -1.0734e-19)
(0.0821439 -0.0830079 1.18862e-19)
(0.0758017 -0.105912 0)
(0.0671544 -0.134678 0)
(0.0543002 -0.176138 0)
(0.0356049 -0.254644 -9.21996e-20)
(0.0698926 -0.114292 0)
(0.0599966 -0.1358 8.75602e-20)
(0.0497687 -0.159779 -2.81013e-19)
(0.0390503 -0.185989 4.41095e-19)
(0.0276549 -0.211706 -8.59163e-20)
(0.0156499 -0.234548 3.4277e-20)
(0.00304642 -0.252998 1.6088e-19)
(-0.0100777 -0.266433 -1.58028e-19)
(-0.0236604 -0.274889 -3.72717e-20)
(-0.0377835 -0.278829 3.91687e-20)
(-0.0526082 -0.278907 0)
(-0.068106 -0.275708 -1.29085e-19)
(0.06323 -0.149348 0)
(0.0585731 -0.198802 6.01178e-20)
(0.0543888 -0.235591 -6.88203e-20)
(0.0509323 -0.265341 0)
(0.0479231 -0.287084 0)
(0.0447715 -0.301692 -1.18561e-19)
(0.0405133 -0.310542 0)
(0.0343451 -0.314928 0)
(0.025825 -0.315577 2.48725e-20)
(0.0150375 -0.312899 -2.60239e-20)
(0.00249336 -0.307585 0)
(-0.011024 -0.300669 0)
(0.0290729 -0.188296 -2.47421e-19)
(0.0285139 -0.241181 -3.42373e-19)
(0.0286562 -0.26674 4.35621e-19)
(0.0291775 -0.283472 -2.12924e-19)
(0.0284931 -0.292074 0)
(0.0259847 -0.295363 3.35808e-21)
(0.021129 -0.295075 4.69281e-20)
(0.0140096 -0.292458 -4.5668e-20)
(0.00506424 -0.288459 4.63573e-20)
(-0.00514144 -0.283751 8.77398e-21)
(-0.0163059 -0.277861 3.44948e-20)
(-0.0283282 -0.270082 -3.6188e-20)
(-0.000629689 -0.218248 -1.18863e-19)
(0.00185874 -0.268076 -1.06119e-19)
(0.0076999 -0.280239 -1.96474e-19)
(0.0154554 -0.288536 1.95879e-19)
(0.0219304 -0.292452 9.13763e-20)
(0.0269666 -0.294192 4.52676e-20)
(0.0298227 -0.293498 -1.31649e-19)
(0.0298756 -0.290164 0)
(0.0265681 -0.284136 -1.67637e-20)
(0.0199181 -0.276175 2.62307e-20)
(0.010547 -0.267565 -1.53967e-20)
(-0.000738085 -0.258696 -4.47348e-20)
(-0.0181941 -0.239878 1.07681e-19)
(-0.01329 -0.287957 9.70349e-20)
(-0.00367848 -0.290734 0)
(0.00865137 -0.296308 0)
(0.0184662 -0.29881 -1.69172e-19)
(0.0262052 -0.29881 8.18591e-20)
(0.0310138 -0.29483 0)
(0.03255 -0.287383 -3.19474e-20)
(0.0305494 -0.277476 1.82908e-20)
(0.0250851 -0.266032 1.29186e-20)
(0.0166281 -0.254169 0)
(0.00584982 -0.242774 0)
(-0.0260273 -0.255967 -2.06965e-19)
(-0.0203118 -0.304925 0)
(-0.0106329 -0.302233 -3.35585e-19)
(0.00357814 -0.308625 1.66979e-19)
(0.0163399 -0.311147 1.52693e-19)
(0.0293963 -0.309985 -7.62913e-20)
(0.0405367 -0.302882 -6.74654e-20)
(0.0474666 -0.29034 0)
(0.0481773 -0.274424 0)
(0.043134 -0.257885 -5.41703e-21)
(0.0336431 -0.242371 -2.18516e-21)
(0.0212303 -0.228705 0)
(-0.0280053 -0.268508 0)
(-0.0232957 -0.320047 -1.61019e-19)
(-0.01667 -0.314189 3.19794e-19)
(-0.00163839 -0.323615 0)
(0.0147133 -0.328504 7.5113e-20)
(0.0342656 -0.328169 -7.2293e-20)
(0.0526029 -0.318044 5.72835e-21)
(0.0649991 -0.299004 3.14988e-20)
(0.0685618 -0.274409 0)
(0.0630383 -0.250155 1.04067e-21)
(0.0511063 -0.22932 1.80574e-21)
(0.0357913 -0.212785 0)
(-0.0256639 -0.27769 1.72955e-19)
(-0.0240034 -0.332122 1.4243e-19)
(-0.023393 -0.32449 0)
(-0.00999011 -0.341098 -2.23542e-21)
(0.00896828 -0.353732 -6.23534e-20)
(0.0378929 -0.356294 6.73113e-20)
(0.0693275 -0.340669 -7.01367e-20)
(0.0926792 -0.311109 2.44272e-20)
(0.0993749 -0.275966 0)
(0.090523 -0.242389 2.90385e-21)
(0.072662 -0.214994 -8.78603e-22)
(0.0516641 -0.195056 0)
(-0.0196358 -0.281657 1.39981e-19)
(-0.0235286 -0.338644 -1.4538e-20)
(-0.0332563 -0.331597 0)
(-0.0251569 -0.359738 2.72067e-19)
(-0.00177231 -0.37907 -6.60073e-20)
(0.0432387 -0.376525 -7.70934e-20)
(0.0938075 -0.348963 6.55693e-20)
(0.130366 -0.309065 0)
(0.139343 -0.26669 2.51737e-20)
(0.124643 -0.228155 -7.23231e-21)
(0.0976659 -0.197362 2.30188e-21)
(0.0682186 -0.175617 0)
(-0.00658485 -0.278881 -3.71966e-19)
(-0.0220904 -0.338045 -1.27415e-21)
(-0.047049 -0.331268 0)
(-0.0467191 -0.36537 -2.63728e-19)
(-0.0171831 -0.377424 8.45247e-20)
(0.0451374 -0.355544 -9.08435e-20)
(0.116083 -0.312695 9.82997e-20)
(0.16549 -0.268974 -6.87766e-20)
(0.176853 -0.229845 -1.68538e-20)
(0.156717 -0.197167 0)
(0.120874 -0.171796 0)
(0.0830502 -0.153715 -4.6358e-21)
(0.0110978 -0.267811 -9.27665e-20)
(-0.0259197 -0.3224 4.02879e-20)
(-0.0617281 -0.313538 2.52049e-19)
(-0.0714236 -0.340536 1.27134e-19)
(-0.0388748 -0.328016 0)
(0.0369362 -0.279907 -1.11861e-19)
(0.12476 -0.228764 1.38696e-20)
(0.185712 -0.18974 6.13268e-20)
(0.200312 -0.164557 0)
(0.176714 -0.148375 0)
(0.135109 -0.137118 0)
(0.0920567 -0.128659 1.16904e-20)
(0.0783157 -0.25148 6.42652e-20)
(-0.013948 -0.298818 -6.02934e-20)
(-0.0748074 -0.279861 -2.12184e-19)
(-0.0961212 -0.278522 6.98229e-20)
(-0.0639343 -0.241038 -2.41264e-20)
(0.0195234 -0.175645 -2.20133e-19)
(0.118945 -0.119031 -1.88215e-19)
(0.188122 -0.0907057 0)
(0.204788 -0.0865767 5.49469e-21)
(0.179999 -0.092695 -6.23278e-21)
(0.13691 -0.0991785 0)
(0.093139 -0.102508 6.44325e-21)
(-0.083956 -0.269607 1.55288e-19)
(-0.0996243 -0.261154 -2.93599e-20)
(-0.114224 -0.250988 0)
(-0.126877 -0.239556 0)
(-0.136567 -0.226926 0)
(-0.142477 -0.213157 0)
(-0.144005 -0.198293 1.43807e-19)
(-0.140599 -0.181918 -1.46581e-19)
(-0.132291 -0.163403 1.72459e-19)
(-0.120986 -0.142167 -7.15213e-20)
(-0.111422 -0.11722 1.19433e-19)
(-0.108779 -0.0877283 -6.58474e-20)
(-0.0251699 -0.29241 1.10026e-20)
(-0.0391972 -0.282734 0)
(-0.0526305 -0.27161 0)
(-0.0651077 -0.259201 -1.11959e-19)
(-0.0763768 -0.246078 1.13199e-19)
(-0.0859343 -0.232898 4.3351e-20)
(-0.0929379 -0.220172 -3.98285e-20)
(-0.0963671 -0.208518 3.69249e-20)
(-0.0955409 -0.198268 -1.27932e-19)
(-0.0918298 -0.188139 3.43265e-20)
(-0.0907428 -0.171112 0)
(-0.10226 -0.129125 4.22864e-20)
(-0.0405964 -0.261081 -3.39057e-20)
(-0.0527291 -0.251399 0)
(-0.0642328 -0.2414 4.06177e-20)
(-0.074512 -0.231392 0)
(-0.0830494 -0.2217 3.11947e-20)
(-0.0896638 -0.212591 -4.11576e-20)
(-0.0941543 -0.204365 3.76252e-20)
(-0.0960725 -0.197549 -1.22944e-20)
(-0.0948604 -0.193235 5.39886e-20)
(-0.0915854 -0.192731 -3.3042e-20)
(-0.0920297 -0.191369 -2.31566e-20)
(-0.104513 -0.158501 -2.79884e-20)
(-0.0130702 -0.249574 8.36343e-20)
(-0.0257602 -0.240385 -7.1853e-20)
(-0.0382769 -0.231289 -5.56731e-21)
(-0.0501987 -0.22247 0)
(-0.0611673 -0.214159 -8.67978e-20)
(-0.070876 -0.206637 5.75832e-21)
(-0.0790693 -0.200214 3.54759e-20)
(-0.0853907 -0.195201 -1.26941e-20)
(-0.0891036 -0.192112 -2.76605e-20)
(-0.0892392 -0.192569 7.92116e-21)
(-0.094611 -0.200115 2.13811e-20)
(-0.105705 -0.183418 -2.92145e-20)
(-0.00634505 -0.232172 0)
(-0.0191627 -0.222467 1.67568e-20)
(-0.0319896 -0.213679 1.82073e-20)
(-0.0443696 -0.205838 -8.01212e-22)
(-0.05597 -0.19903 1.21369e-20)
(-0.0665379 -0.193418 -4.4245e-21)
(-0.0759108 -0.189253 -9.787e-21)
(-0.0837681 -0.18677 -8.07932e-21)
(-0.0906952 -0.186636 0)
(-0.0927422 -0.188039 4.38166e-21)
(-0.102534 -0.197995 2.68224e-21)
(-0.1112 -0.197991 1.29278e-20)
(0.00727753 -0.216995 0)
(-0.0071989 -0.207033 -2.38058e-20)
(-0.0215728 -0.198568 2.61988e-20)
(-0.035477 -0.19141 -1.13438e-20)
(-0.0487152 -0.185506 3.17545e-21)
(-0.0611647 -0.180934 -3.79316e-20)
(-0.0728057 -0.17796 1.19102e-20)
(-0.0833275 -0.176828 0)
(-0.0934028 -0.178378 0)
(-0.099499 -0.181939 0)
(-0.11241 -0.19154 1.01301e-20)
(-0.120782 -0.202658 4.23258e-20)
(0.0192194 -0.200037 0)
(0.00259087 -0.190098 1.3005e-21)
(-0.0135394 -0.182145 -8.5536e-21)
(-0.0289857 -0.175703 2.30474e-20)
(-0.0437541 -0.170597 6.12895e-21)
(-0.0578989 -0.166856 -3.35613e-20)
(-0.0715748 -0.164721 2.81411e-20)
(-0.0845874 -0.164455 0)
(-0.0977597 -0.166919 -4.95609e-20)
(-0.108047 -0.171963 0)
(-0.124008 -0.182895 -3.05575e-20)
(-0.134457 -0.198145 -2.49642e-20)
(0.0308928 -0.181457 0)
(0.0114809 -0.172064 -9.37997e-21)
(-0.00653995 -0.1651 0)
(-0.0234531 -0.1596 0)
(-0.0395948 -0.155235 0)
(-0.0552549 -0.152019 8.12037e-20)
(-0.070799 -0.150212 -4.25995e-20)
(-0.0862223 -0.15014 -4.60175e-20)
(-0.102502 -0.15273 1.6653e-19)
(-0.117141 -0.158222 1.16713e-20)
(-0.137382 -0.169536 -6.44357e-20)
(-0.150353 -0.187247 1.41334e-19)
(0.0415407 -0.161745 7.07498e-21)
(0.0187334 -0.153197 6.96002e-21)
(-0.00108794 -0.147518 1.08607e-20)
(-0.0191094 -0.14316 3.44566e-20)
(-0.0362205 -0.139523 0)
(-0.05301 -0.136589 -8.5905e-20)
(-0.0700708 -0.134675 4.55789e-20)
(-0.0876392 -0.134182 5.44736e-20)
(-0.107006 -0.135986 8.42999e-20)
(-0.126117 -0.140629 9.72603e-20)
(-0.151356 -0.151064 8.45766e-20)
(-0.16858 -0.169372 -7.21932e-20)
(0.0503475 -0.141904 -1.58046e-20)
(0.0241343 -0.134703 -3.55592e-20)
(0.00279443 -0.130224 0)
(-0.0158442 -0.126903 -3.19717e-20)
(-0.0333813 -0.123907 -4.31656e-20)
(-0.0507641 -0.12106 4.39887e-20)
(-0.0688004 -0.118648 -1.64542e-19)
(-0.0879385 -0.116994 6.66344e-20)
(-0.109932 -0.116937 -2.75998e-19)
(-0.133755 -0.119062 -2.45116e-19)
(-0.166859 -0.126639 0)
(-0.192486 -0.140748 -2.24753e-19)
(0.0556819 -0.122179 1.22642e-20)
(0.0274238 -0.117456 3.94352e-20)
(0.00530005 -0.114124 0)
(-0.0134273 -0.111477 3.93321e-20)
(-0.0308726 -0.108835 5.94475e-22)
(-0.0482999 -0.105852 -1.50912e-19)
(-0.0666258 -0.102638 1.586e-19)
(-0.086507 -0.0993108 -6.69321e-20)
(-0.109915 -0.0964619 1.43133e-19)
(-0.137132 -0.0937073 7.96849e-20)
(-0.177002 -0.0946001 -9.96031e-20)
(-0.214627 -0.0984812 2.01447e-19)
(0.0566439 -0.102787 0)
(0.0285416 -0.101382 -2.53873e-20)
(0.0067336 -0.0994325 0)
(-0.0115451 -0.0972887 0)
(-0.0284714 -0.0947317 8.46735e-20)
(-0.045452 -0.0914332 -5.30611e-20)
(-0.063385 -0.0873038 1.07613e-19)
(-0.0830156 -0.0821528 6.22044e-20)
(-0.10592 -0.0758144 -1.31733e-19)
(-0.134684 -0.0671716 8.03293e-20)
(-0.176142 -0.0543242 8.3267e-21)
(-0.254637 -0.0356278 9.88832e-20)
(-0.114292 -0.0698922 -2.9524e-19)
(-0.135797 -0.0599968 -2.09808e-21)
(-0.159774 -0.0497694 3.62892e-19)
(-0.18598 -0.0390515 6.63291e-21)
(-0.211693 -0.0276564 -1.64692e-19)
(-0.234531 -0.0156516 7.59449e-20)
(-0.252978 -0.003048 1.60778e-19)
(-0.266411 0.0100763 -1.57928e-19)
(-0.274865 0.0236593 -2.04858e-20)
(-0.278805 0.0377823 3.70124e-20)
(-0.278883 0.0526065 0)
(-0.275686 0.0681039 -2.80702e-20)
(-0.149343 -0.0632329 1.32752e-19)
(-0.198792 -0.0585753 0)
(-0.235577 -0.0543907 0)
(-0.265322 -0.0509341 6.62624e-20)
(-0.28706 -0.0479244 7.31484e-21)
(-0.301663 -0.044772 -6.32419e-20)
(-0.310509 -0.0405127 5.32342e-20)
(-0.314893 -0.0343437 5.21987e-20)
(-0.315541 -0.0258232 -9.22404e-20)
(-0.312865 -0.0150358 2.51097e-20)
(-0.307552 -0.00249203 0)
(-0.300639 0.0110244 2.56598e-20)
(-0.188285 -0.0290814 1.20312e-19)
(-0.241164 -0.0285204 -2.26421e-19)
(-0.266716 -0.0286622 2.18942e-19)
(-0.28344 -0.029184 0)
(-0.292033 -0.0285 5.31826e-20)
(-0.295315 -0.0259912 0)
(-0.295023 -0.0211338 -5.12294e-20)
(-0.292404 -0.014012 2.34959e-20)
(-0.288406 -0.00506384 -6.78132e-20)
(-0.283702 0.00514475 2.04877e-20)
(-0.277816 0.0163111 0)
(-0.270042 0.0283344 -6.47957e-20)
(-0.218231 0.00061312 -1.1906e-19)
(-0.268052 -0.00187229 0)
(-0.280206 -0.00771337 0)
(-0.288493 -0.0154698 0)
(-0.2924 -0.021944 0)
(-0.294136 -0.0269767 -1.72694e-19)
(-0.293441 -0.0298269 8.7146e-20)
(-0.290111 -0.0298734 5.84841e-20)
(-0.284086 -0.0265606 -1.67455e-20)
(-0.276132 -0.0199073 1.7912e-20)
(-0.267528 -0.0105342 0)
(-0.258665 0.000751501 4.46744e-20)
(-0.239855 0.0181689 -2.20303e-19)
(-0.287927 0.0132681 0)
(-0.290694 0.00365614 0)
(-0.296257 -0.00867466 -1.71134e-19)
(-0.298751 -0.0184868 1.72872e-19)
(-0.298745 -0.0262189 7.92609e-20)
(-0.294765 -0.0310179 -7.81344e-20)
(-0.287321 -0.0325436 -3.58441e-20)
(-0.277422 -0.030534 0)
(-0.265987 -0.0250635 0)
(-0.254134 -0.0166038 0)
(-0.242747 -0.00582531 -1.46498e-20)
(-0.255939 0.0259944 -2.06471e-19)
(-0.304892 0.0202812 3.72916e-21)
(-0.302187 0.0106006 1.75675e-19)
(-0.308568 -0.00361147 1.5756e-19)