/*--------------------------------*- C++ -*----------------------------------*\
| =========                 |                                                 |
| \\      /  F ield         | OpenFOAM: The Open Source CFD Toolbox           |
|  \\    /   O peration     | Version:  2.3.1                                 |
|   \\  /    A nd           | Web:      www.OpenFOAM.org                      |
|    \\/     M anipulation  |                                                 |
\*---------------------------------------------------------------------------*/
FoamFile
{
    version     2.0;
    format      ascii;
    class       surfaceVectorField;
    location    "0.1";
    object      Uf;
}
// * * * * * * * * * * * * * * * * * * * * * * * * * * * * * * * * * * * * * //

dimensions      [0 1 -1 0 0 0 0];

internalField   nonuniform List<vector> 
5856
(
(-0.0650994 0.125292 -2.3461e-19)
(-0.0719281 0.127896 1.61808e-19)
(-0.0546225 0.147302 -3.69302e-19)
(-0.0661861 0.162668 -3.22224e-19)
(-0.0442322 0.172477 2.13081e-19)
(-0.0595524 0.193195 -1.86116e-19)
(-0.0332412 0.198518 2.70775e-19)
(-0.0527677 0.221574 4.63333e-19)
(-0.021594 0.222882 -1.28243e-19)
(-0.0456917 0.245856 -1.30628e-19)
(-0.00933011 0.243625 1.82669e-20)
(-0.0380446 0.265229 2.70894e-20)
(0.00350746 0.259677 7.29943e-22)
(-0.029327 0.27957 4.93482e-20)
(0.0168534 0.270711 -1.75369e-20)
(-0.0191967 0.289155 -2.39043e-20)
(0.0307137 0.276926 5.6863e-22)
(-0.00753892 0.294318 -2.57839e-20)
(0.0451941 0.27886 -3.34497e-20)
(0.0056066 0.295473 6.30529e-21)
(0.0603545 0.277263 -6.44821e-20)
(0.0201421 0.293271 -4.04131e-20)
(0.0355113 0.288506 -3.10178e-20)
(0.076051 0.272761 4.73828e-20)
(-0.0619299 0.175683 7.06377e-20)
(-0.0427714 0.170974 2.90134e-19)
(-0.0562327 0.216703 -1.34675e-19)
(-0.0404775 0.221563 -3.07288e-19)
(-0.0525795 0.250243 5.94128e-20)
(-0.0383554 0.252573 -5.34538e-20)
(-0.0493829 0.276045 5.94128e-20)
(-0.0363841 0.275845 2.08179e-20)
(-0.046319 0.294253 2.76027e-20)
(-0.0340148 0.291008 0)
(-0.0426155 0.305982 6.63091e-20)
(-0.0308813 0.299818 -1.39081e-20)
(-0.0373988 0.31257 2.59063e-20)
(-0.0263544 0.303849 3.93537e-20)
(-0.0300659 0.31515 -3.92708e-20)
(-0.0200318 0.304438 -4.65817e-20)
(-0.0204291 0.314505 -2.04379e-20)
(-0.0117967 0.302484 -3.95491e-21)
(-0.0087418 0.310558 -1.2659e-22)
(-0.00256821 0.298555 5.93214e-21)
(0.00429439 0.304266 -5.87135e-21)
(0.0093593 0.292793 -1.95314e-20)
(0.0233594 0.285134 -1.40663e-20)
(0.0181141 0.296547 5.48532e-21)
(-0.0310154 0.218215 -1.31018e-19)
(-0.0116999 0.204899 1.71574e-19)
(-0.0280193 0.252861 -2.2762e-19)
(-0.0131021 0.255744 -2.39286e-19)
(-0.0287377 0.274653 -1.08416e-19)
(-0.0169494 0.274053 -1.06678e-20)
(-0.0287287 0.287429 -5.40534e-20)
(-0.0220711 0.286076 -1.47615e-19)
(-0.0272097 0.293564 -5.06302e-20)
(-0.0260232 0.291953 1.37675e-19)
(-0.0235726 0.295236 -5.06302e-20)
(-0.0280668 0.2943 -2.84357e-20)
(-0.0176044 0.293944 -3.38593e-20)
(-0.0274415 0.293834 2.00258e-20)
(-0.00954928 0.290597 -1.05274e-20)
(-0.0239334 0.290992 -4.17419e-21)
(5.28949e-05 0.285968 2.31439e-20)
(-0.0174603 0.28616 1.32196e-20)
(0.010744 0.281019 -1.37926e-20)
(-0.00870002 0.279976 0)
(0.0223567 0.274202 -2.78256e-20)
(0.000408123 0.272921 -6.23832e-21)
(0.0117621 0.264828 -1.05176e-20)
(0.0345018 0.265703 1.65256e-21)
(-0.00385054 0.248222 3.0733e-20)
(0.00954374 0.229078 1.02526e-20)
(-0.00396939 0.272589 -6.4916e-21)
(0.00592408 0.278042 1.40156e-19)
(-0.011464 0.284058 -4.42698e-20)
(-0.00225907 0.285299 1.39199e-19)
(-0.018596 0.290159 4.43263e-20)
(-0.0124314 0.292189 -1.84441e-19)
(-0.0244329 0.293203 1.60797e-19)
(-0.0204248 0.295468 1.41745e-19)
(-0.0283995 0.293827 4.11807e-20)
(-0.0263628 0.296477 -1.85136e-20)
(-0.0298733 0.291991 4.9401e-20)
(-0.0296365 0.294257 -1.53381e-20)
(-0.028248 0.287528 1.81834e-20)
(-0.0300515 0.288897 4.51907e-20)
(-0.0232302 0.280346 -1.04345e-20)
(-0.0273848 0.280888 -3.34032e-20)
(-0.0152098 0.271828 8.89144e-21)
(-0.0204292 0.27115 -2.83705e-21)
(-0.00487506 0.263177 1.28811e-20)
(-0.0113863 0.260804 1.18753e-20)
(-0.000446517 0.250569 7.70375e-21)
(0.00693296 0.254162 -1.85311e-20)
(0.0115678 0.270445 1.27582e-19)
(0.0215989 0.247501 9.71562e-20)
(0.00952953 0.287324 2.89974e-19)
(0.0168202 0.296353 1.14184e-19)
(-0.0024475 0.293332 2.97991e-22)
(0.00697331 0.296312 8.91102e-20)
(-0.0134155 0.29708 -9.0215e-20)
(-0.00639028 0.302245 -2.13686e-19)
(-0.0223203 0.298667 -4.08672e-20)
(-0.0178689 0.304689 0)
(-0.0286431 0.296901 -7.84005e-20)
(-0.0283933 0.304093 -4.13921e-20)
(-0.031812 0.291295 -2.15916e-20)
(-0.0363972 0.298593 -5.33348e-20)
(-0.0315662 0.282756 -8.37764e-21)
(-0.0402462 0.288728 1.61465e-20)
(-0.0277998 0.272064 -2.67916e-20)
(-0.0400983 0.275851 -2.42217e-20)
(-0.0208192 0.260159 4.82208e-23)
(-0.0347109 0.261964 -2.36823e-21)
(-0.0112068 0.248418 7.93351e-21)
(-0.0255759 0.24835 2.93769e-21)
(-0.0138984 0.235871 5.09774e-21)
(0.000265146 0.237364 5.03309e-21)
(0.0183152 0.288036 1.16316e-19)
(0.0269034 0.262092 2.08566e-19)
(0.0168684 0.300893 -9.21676e-20)
(0.0222071 0.312632 -1.1881e-20)
(0.00352331 0.305309 -1.25503e-19)
(0.0136391 0.308129 -4.00067e-21)
(-0.00975315 0.309214 -1.23904e-19)
(-0.00136919 0.315837 -1.62327e-19)
(-0.0228776 0.310472 0)
(-0.0163828 0.319368 -7.18235e-20)
(-0.0350372 0.306649 -1.64074e-20)
(-0.0328571 0.318596 6.79845e-20)
(-0.0441203 0.297323 -1.64074e-20)
(-0.0470887 0.310156 -1.73472e-20)
(-0.0478329 0.282721 0)
(-0.0568024 0.294436 -2.45517e-20)
(-0.045622 0.266306 5.52932e-22)
(-0.05855 0.274321 1.63378e-20)
(-0.0383441 0.250046 5.52932e-22)
(-0.0529712 0.254016 4.27576e-23)
(-0.0274092 0.235332 0)
(-0.0421579 0.23589 0)
(-0.0282904 0.220815 2.22494e-21)
(-0.0142491 0.222617 -5.78198e-21)
(0.0203224 0.302611 8.02417e-20)
(0.0270651 0.273198 1.67209e-19)
(0.0217786 0.313682 9.50396e-20)
(0.0242924 0.326395 8.12933e-20)
(0.00912548 0.318809 -3.99516e-20)
(0.0200995 0.319322 -2.63686e-21)
(-0.00622915 0.325074 -1.10913e-19)
(0.00515939 0.331968 3.44947e-20)
(-0.0245584 0.328366 -3.62038e-21)
(-0.013586 0.340315 3.5301e-20)
(-0.0436131 0.323705 6.50942e-20)
(-0.0384603 0.341313 6.95706e-20)
(-0.0590095 0.309744 -2.70263e-20)
(-0.0621175 0.328855 -2.20254e-21)
(-0.0667894 0.287143 -7.75117e-21)
(-0.0804983 0.304624 -5.96581e-22)
(-0.0657404 0.262287 1.60163e-20)
(-0.0845008 0.275038 1.27158e-21)
(-0.0570132 0.239455 -5.18645e-22)
(-0.0767883 0.246258 -5.24416e-22)
(-0.0434216 0.220679 2.25179e-21)
(-0.0617804 0.222214 -1.25687e-21)
(-0.0436268 0.204019 -3.38334e-22)
(-0.0275041 0.206098 7.44609e-21)
(0.0191445 0.313811 1.69251e-19)
(0.0228611 0.279783 2.46702e-20)
(0.0258931 0.32412 -8.9894e-22)
(0.0244773 0.335774 1.9205e-19)
(0.0167139 0.332551 6.95661e-20)
(0.0284894 0.328116 -1.91598e-19)
(0.00100902 0.34586 1.70856e-19)
(0.0169697 0.350078 1.40266e-19)
(-0.0235675 0.355165 1.06193e-19)
(-0.005019 0.365738 1.07301e-19)
(-0.0540198 0.349979 0)
(-0.0419814 0.365815 0)
(-0.0812269 0.327244 2.27572e-20)
(-0.0819276 0.344565 0)
(-0.0960586 0.294442 6.49066e-21)
(-0.111056 0.310033 2.29946e-20)
(-0.0948539 0.259153 -1.51953e-20)
(-0.118679 0.271331 -1.20744e-20)
(-0.0815085 0.228166 -1.27102e-21)
(-0.107093 0.235302 -2.46968e-21)
(-0.062131 0.204468 -3.85943e-21)
(-0.084859 0.206249 -9.66808e-22)
(-0.0597473 0.18544 -2.13321e-21)
(-0.0412776 0.187871 -2.58841e-21)
(0.0156117 0.319511 9.20335e-20)
(0.0130329 0.280199 -1.50472e-19)
(0.0308639 0.330417 2.26142e-20)
(0.0239039 0.339008 1.44701e-19)
(0.029366 0.345096 -1.25131e-19)
(0.0408606 0.331848 -1.40532e-19)
(0.0143966 0.366662 6.8878e-20)
(0.0369897 0.363028 1.66415e-20)
(-0.0208049 0.37768 0)
(0.0114967 0.378969 -1.59396e-19)
(-0.0690678 0.364776 0)
(-0.041982 0.366704 1.03326e-19)
(-0.112641 0.332342 0)
(-0.100861 0.33178 4.85663e-20)
(-0.134954 0.289648 3.31396e-21)
(-0.144559 0.289615 3.39614e-20)
(-0.131863 0.247275 8.73423e-22)
(-0.156184 0.248542 3.34648e-21)
(-0.111051 0.211831 -1.89975e-21)
(-0.139759 0.212809 -1.92117e-21)
(-0.0829094 0.185698 8.69975e-22)
(-0.108805 0.1847 -2.36737e-22)
(-0.0753655 0.164785 5.19043e-22)
(-0.0548804 0.168214 5.13998e-22)
(0.0081841 0.318133 -5.69074e-20)
(-0.00348701 0.272519 -4.26793e-20)
(0.0370609 0.329924 2.71404e-21)
(0.0240534 0.330366 -1.69826e-20)
(0.0474923 0.34677 9.1367e-22)
(0.0553789 0.323066 6.01741e-20)
(0.0338078 0.366219 -1.96282e-19)
(0.0620662 0.354437 -7.09704e-20)
(-0.0139089 0.365866 -5.66252e-20)
(0.0332696 0.354842 -9.81918e-20)
(-0.0817987 0.338775 1.53398e-19)
(-0.0366468 0.319325 1.75951e-20)
(-0.141889 0.297317 8.33458e-20)
(-0.114108 0.272438 -3.79944e-20)
(-0.171375 0.252223 3.42981e-20)
(-0.171934 0.230246 2.35426e-20)
(-0.166633 0.213144 6.04975e-22)
(-0.18674 0.197659 -3.40736e-21)
(-0.138687 0.18319 3.5057e-22)
(-0.165792 0.173042 6.10583e-22)
(-0.101937 0.161762 -6.02119e-22)
(-0.12752 0.154644 -6.077e-22)
(-0.0872818 0.141333 3.71773e-21)
(-0.0667056 0.147272 0)
(0.000863913 0.305428 4.94381e-20)
(-0.0387558 0.263554 2.9479e-20)
(0.0463724 0.31316 4.08308e-20)
(0.0197393 0.310602 4.11893e-20)
(0.0680021 0.323741 8.94697e-22)
(0.068244 0.296929 4.48038e-20)
(0.0582795 0.325779 8.68304e-20)
(0.0849654 0.310434 1.10938e-19)
(0.00103946 0.303297 -1.97113e-20)
(0.054114 0.285958 8.66903e-20)
(-0.0832016 0.263773 -2.0567e-19)
(-0.0257159 0.229017 -2.15548e-19)
(-0.156636 0.217393 -1.17657e-19)
(-0.119827 0.174876 3.402e-20)
(-0.193257 0.180306 -2.43623e-20)
(-0.185704 0.140902 -1.77881e-20)
(-0.188356 0.156008 -3.43924e-21)
(-0.201718 0.126044 -1.07148e-20)
(-0.155805 0.141316 0)
(-0.177771 0.120856 -3.78352e-22)
(-0.113566 0.131822 3.75251e-21)
(-0.13561 0.118364 3.88087e-22)
(-0.0923417 0.115739 7.83784e-21)
(-0.0738835 0.124863 -1.38466e-21)
(-0.039852 0.287292 7.35819e-20)
(-0.046183 0.206916 -3.77325e-20)
(0.0470434 0.284366 4.52006e-20)
(0.00783472 0.258125 8.70285e-21)
(0.0872127 0.275246 1.80082e-19)
(0.0687776 0.250327 6.40913e-21)
(0.0831142 0.25145 1.16304e-19)
(0.0979595 0.237363 9.52808e-20)
(0.0228958 0.205718 -1.09939e-19)
(0.0675562 0.18944 0)
(-0.0709734 0.15421 2.9894e-20)
(-0.0157708 0.119338 7.89235e-20)
(-0.154753 0.111923 1.39833e-19)
(-0.116177 0.0637434 5.23751e-20)
(-0.196677 0.0915258 -7.90939e-21)
(-0.183261 0.0442875 2.34771e-20)
(-0.192242 0.0891657 -8.29109e-21)
(-0.198193 0.0520375 -5.76907e-21)
(-0.158353 0.0945891 -3.67623e-22)
(-0.173344 0.0688028 -2.36589e-21)
(-0.115007 0.0998664 4.4798e-21)
(-0.131714 0.0828444 -1.23244e-22)
(-0.0749063 0.102143 -1.31363e-21)
(-0.0899269 0.0908373 8.19e-21)
(0.0918209 0.265495 1.34051e-19)
(0.0505049 0.281662 8.01583e-20)
(0.106948 0.256132 -4.40375e-22)
(0.0655006 0.272896 5.75484e-20)
(0.120546 0.245243 -1.53201e-19)
(0.0797675 0.262503 -1.17578e-19)
(0.131764 0.233324 5.473e-21)
(0.0926759 0.250772 -2.49993e-20)
(0.139564 0.220113 1.0149e-19)
(0.102538 0.238502 1.29716e-19)
(0.143314 0.205842 -1.03198e-19)
(0.109932 0.225574 -2.54212e-20)
(0.142533 0.190432 -2.83666e-20)
(0.114139 0.212199 3.4792e-20)
(0.137022 0.173373 1.38e-20)
(0.114381 0.198392 3.08914e-20)
(0.127352 0.153558 4.69407e-20)
(0.110318 0.183925 -6.04541e-20)
(0.115881 0.129388 1.01844e-19)
(0.103475 0.167891 2.57856e-20)
(0.107855 0.100606 -4.64537e-20)
(0.0987489 0.146508 4.02889e-20)
(0.103817 0.110308 -4.73175e-20)
(0.0322019 0.287585 5.48532e-21)
(0.0371566 0.276149 2.8198e-20)
(0.0459433 0.277224 -6.08904e-20)
(0.0504896 0.266109 -1.13626e-20)
(0.0589232 0.265519 1.42713e-20)
(0.0630198 0.255196 -1.65806e-20)
(0.0707492 0.252633 9.22965e-20)
(0.0743253 0.243659 4.89088e-20)
(0.0811592 0.239481 -8.2237e-21)
(0.0839814 0.231996 -5.87916e-20)
(0.0894517 0.226552 9.5642e-20)
(0.0917139 0.220672 4.46394e-21)
(0.0947854 0.214529 7.60614e-20)
(0.0970163 0.210112 1.35513e-19)
(0.0963579 0.203892 -4.44457e-20)
(0.0991575 0.200908 -4.51889e-20)
(0.0941228 0.19368 -6.29351e-20)
(0.0975179 0.193799 0)
(0.0906143 0.178992 -2.58048e-20)
(0.0933958 0.188738 -6.39876e-20)
(0.0941707 0.148181 4.10523e-20)
(0.0925971 0.1797 4.17388e-20)
(0.10426 0.142421 -1.90543e-20)
(0.0466937 0.256288 4.0982e-21)
(0.0240388 0.255978 -6.26419e-21)
(0.0585051 0.246418 3.4543e-20)
(0.0365482 0.246724 1.08211e-20)
(0.0693972 0.236419 1.04029e-20)
(0.0487229 0.237323 1.91835e-20)
(0.078809 0.226578 -1.13803e-19)
(0.0600431 0.228013 -7.15373e-21)
(0.0863873 0.217183 -6.14675e-20)
(0.0700818 0.219051 -5.55963e-20)
(0.0919325 0.208504 2.86393e-20)
(0.0785532 0.210719 1.6659e-20)
(0.0951959 0.201068 1.22297e-20)
(0.0852101 0.203324 6.0681e-22)
(0.095835 0.195847 0)
(0.089662 0.197268 4.12358e-21)
(0.093804 0.193616 0)
(0.091267 0.193343 0)
(0.0908894 0.191187 0)
(0.0899445 0.193136 0)
(0.0957613 0.172852 -1.93784e-20)
(0.0929758 0.196045 0)
(0.104826 0.171125 -3.34003e-20)
(0.0194384 0.244982 -4.10221e-21)
(0.0116597 0.240617 -2.28111e-20)
(0.0320349 0.235825 -9.64617e-21)
(0.0242354 0.231094 1.40782e-20)
(0.044248 0.226862 -6.78781e-21)
(0.0367045 0.222097 -3.41569e-20)
(0.0556915 0.218304 4.52978e-20)
(0.0486154 0.213746 2.15939e-20)
(0.0660419 0.210417 2.40268e-20)
(0.0596248 0.206207 2.43613e-20)
(0.0750141 0.203481 -6.54658e-21)
(0.0694676 0.199707 0)
(0.0823098 0.197814 -2.35938e-21)
(0.0779284 0.194538 -1.27776e-20)
(0.0874862 0.19395 4.1872e-21)
(0.0846683 0.190989 3.24489e-21)
(0.0900836 0.193331 0)
(0.0897873 0.189502 0)
(0.0909489 0.195424 0)
(0.0909227 0.190381 5.15008e-21)
(0.0972621 0.189366 -1.26071e-20)
(0.0983551 0.199254 3.55211e-21)
(0.108211 0.190868 -1.9649e-20)
(0.0127563 0.227196 -7.0496e-21)
(-0.000787833 0.224754 -5.7077e-21)
(0.0255674 0.217958 -1.28551e-20)
(0.012877 0.214949 -4.22028e-21)
(0.0381662 0.209667 -5.8055e-21)
(0.0264874 0.206344 -3.07773e-21)
(0.0501613 0.20238 0)
(0.0396323 0.198864 3.49712e-21)
(0.061264 0.196222 0)
(0.0520396 0.19253 -3.31707e-21)
(0.0712689 0.191396 -7.57264e-21)
(0.0635315 0.187463 -2.65706e-21)
(0.0799801 0.188205 -7.84056e-21)
(0.0739982 0.183933 -1.69257e-21)
(0.0873684 0.186871 -1.27034e-21)
(0.0831315 0.182183 -1.28666e-21)
(0.0927173 0.188421 5.22279e-21)
(0.0915468 0.182982 -1.06074e-20)
(0.0968534 0.19228 8.82505e-21)
(0.0956681 0.185433 -2.86179e-21)
(0.103655 0.19533 -3.36104e-21)
(0.107029 0.195237 1.93491e-20)
(0.11561 0.200709 -7.05275e-21)
(-4.96087e-05 0.211816 -2.8241e-21)
(-0.0130506 0.208595 -9.21577e-22)
(0.0143691 0.202653 4.78027e-21)
(0.00246679 0.198648 5.46523e-22)
(0.0285064 0.194885 4.89202e-21)
(0.0176729 0.190442 6.54476e-21)
(0.0420794 0.188389 1.82385e-22)
(0.032283 0.183656 -2.81481e-21)
(0.0549379 0.183198 -5.93908e-21)
(0.0462024 0.178181 1.53865e-21)
(0.067003 0.179467 3.27257e-21)
(0.0593984 0.174074 -2.72374e-21)
(0.0781793 0.177551 6.05513e-21)
(0.0719585 0.171583 6.12734e-21)
(0.0884826 0.17775 -1.07454e-20)
(0.0836249 0.170965 0)
(0.0972492 0.181026 -2.68768e-20)
(0.0951426 0.173076 -1.08736e-20)
(0.10563 0.186439 1.91081e-21)
(0.103263 0.177464 1.33892e-21)
(0.113483 0.194518 1.30528e-20)
(0.117672 0.187795 1.24767e-21)
(0.127022 0.201097 0)
(-0.0109159 0.194848 2.54271e-21)
(-0.0249745 0.190863 5.25211e-21)
(0.00545841 0.185973 2.10578e-21)
(-0.00697533 0.181199 -6.11102e-21)
(0.0212439 0.178822 -2.21104e-21)
(0.0100722 0.17374 7.47225e-21)
(0.0363502 0.173079 -1.83848e-21)
(0.0262092 0.167776 6.10792e-21)
(0.0508131 0.168689 4.99857e-21)
(0.0416034 0.163063 -2.39254e-20)
(0.0647378 0.165786 0)
(0.056437 0.15962 0)
(0.0781585 0.164699 0)
(0.0709583 0.157709 2.40537e-20)
(0.0912671 0.165807 0)
(0.0851032 0.157604 -2.75293e-20)
(0.10357 0.170168 1.57643e-20)
(0.099743 0.160219 -3.11237e-20)
(0.116028 0.177436 3.96039e-22)
(0.112129 0.165578 1.59398e-20)
(0.127117 0.188769 -1.53683e-20)
(0.130163 0.176804 -1.55393e-20)
(0.141643 0.193626 0)
(-0.0211974 0.176528 -3.46852e-21)
(-0.0360847 0.17172 0)
(-0.00248469 0.168444 -4.33783e-22)
(-0.0150084 0.162747 1.87064e-21)
(0.0149793 0.162261 1.52916e-20)
(0.00388837 0.156417 7.76382e-21)
(0.031502 0.15735 -1.67428e-20)
(0.0213271 0.151482 3.0877e-20)
(0.0474032 0.153582 -2.98176e-20)
(0.0379105 0.147489 -3.11056e-20)
(0.0630041 0.151081 2.43244e-20)
(0.0540697 0.144443 2.32229e-20)
(0.0785512 0.150239 -3.51468e-21)
(0.0702826 0.142639 -4.74669e-20)
(0.0944145 0.151507 -5.9313e-20)
(0.0866914 0.142426 -3.65864e-21)
(0.110391 0.156099 -3.14739e-20)
(0.104422 0.144715 -4.31476e-21)
(0.127494 0.164107 0)
(0.121186 0.149908 -8.07864e-20)
(0.143675 0.178239 0)
(0.143858 0.160888 4.1924e-20)
(0.158997 0.178885 9.67811e-22)
(-0.0301482 0.157228 5.43199e-21)
(-0.0457618 0.151941 0)
(-0.00883647 0.150235 1.01009e-20)
(-0.0212972 0.144059 1.20035e-20)
(0.0100821 0.145268 2.33309e-20)
(-0.000746635 0.138968 1.67623e-20)
(0.0276406 0.141283 1.66333e-20)
(0.0175582 0.135118 1.95574e-21)
(0.0445829 0.138 2.25915e-20)
(0.0348524 0.131799 -8.84784e-22)
(0.0614949 0.135567 -5.04979e-20)
(0.0518937 0.128922 4.88506e-20)
(0.0788417 0.13442 -4.76632e-20)
(0.0693727 0.126798 -1.60241e-19)
(0.0973308 0.135104 5.53453e-20)
(0.0876854 0.125757 -9.21464e-21)
(0.117021 0.138814 -5.22062e-20)
(0.108142 0.126829 -4.41455e-20)
(0.139221 0.146314 -3.9272e-20)
(0.129315 0.130527 -1.38049e-20)
(0.16199 0.161907 5.45018e-20)
(0.158164 0.139945 4.27817e-20)
(0.1796 0.156249 9.87612e-22)
(-0.0372546 0.138056 6.58279e-21)
(-0.0528272 0.132162 -3.78954e-21)
(-0.0134792 0.132358 1.83476e-20)
(-0.0256307 0.126181 -6.84793e-21)
(0.00650762 0.128513 -4.56388e-21)
(-0.00392086 0.122258 1.40605e-20)
(0.0245865 0.125361 -1.6263e-20)
(0.0147456 0.119259 -5.23046e-20)
(0.042033 0.122427 2.54018e-20)
(0.0322171 0.116432 0)
(0.0597162 0.119765 -6.16031e-20)
(0.0495973 0.113516 4.92908e-20)
(0.0783256 0.117775 -1.21914e-19)
(0.0677597 0.110706 -8.14258e-21)
(0.0988365 0.116857 -1.10332e-19)
(0.0872277 0.108243 5.70677e-20)
(0.122106 0.118295 9.67475e-22)
(0.109789 0.106914 -4.18728e-20)
(0.150639 0.123175 7.55658e-20)
(0.134992 0.106931 7.62662e-20)
(0.183877 0.137197 0)
(0.171086 0.111661 0)
(0.201109 0.122823 -1.05773e-19)
(-0.0415719 0.119577 -1.7443e-20)
(-0.0560006 0.112606 -8.01002e-21)
(-0.0163803 0.115701 -1.13637e-20)
(-0.0278679 0.109522 -7.99886e-21)
(0.00404439 0.112769 -3.43046e-20)
(-0.00591657 0.106862 9.58303e-21)
(0.0221237 0.11013 -3.62267e-20)
(0.01259 0.104446 9.87389e-22)
(0.039548 0.107303 2.38748e-20)
(0.0297793 0.101828 -1.96722e-20)
(0.0573951 0.104163 1.03906e-19)
(0.0469687 0.0986806 -2.29646e-20)
(0.0765045 0.100911 1.73493e-19)
(0.0651407 0.0949712 -1.32779e-21)
(0.0980975 0.0977658 1.28222e-19)
(0.0849211 0.0907041 1.81921e-19)
(0.123659 0.0952456 3.49672e-20)
(0.108073 0.0861102 3.52742e-20)
(0.157293 0.0943777 0)
(0.13589 0.080581 0)
(0.19995 0.099985 -1.06763e-19)
(0.175336 0.076027 4.39356e-20)
(0.230143 0.0728724 -1.06485e-19)
(-0.0426164 0.101867 1.30799e-21)
(-0.0551218 0.0938041 -8.39572e-21)
(-0.0176616 0.100333 1.31491e-20)
(-0.028151 0.0938824 -1.50257e-21)
(0.00238264 0.0983437 4.48814e-20)
(-0.00701982 0.0926909 -8.53395e-22)
(0.0199829 0.0960043 1.74609e-20)
(0.010825 0.0908675 3.78205e-20)
(0.0369262 0.0930607 -6.66252e-20)
(0.0273771 0.0883426 -2.00119e-20)
(0.0543729 0.0893321 -1.29051e-19)
(0.0439752 0.0848419 -2.33563e-20)
(0.0731543 0.0846939 5.8896e-21)
(0.0615116 0.0802031 -2.93149e-20)
(0.094452 0.0789879 8.78987e-20)
(0.0806397 0.0741708 5.52414e-21)
(0.120293 0.0715004 0)
(0.102445 0.0659773 0)
(0.156755 0.0620321 4.43248e-20)
(0.130335 0.053609 0)
(0.216315 0.0457476 9.89387e-20)
(0.165466 0.0312187 1.61234e-20)
(0.241018 -0.0205451 7.68955e-20)
(0.125295 0.0650983 -4.69976e-20)
(0.127898 0.0719263 -1.17553e-19)
(0.147308 0.0546206 -1.78086e-19)
(0.162675 0.0661843 1.0684e-21)
(0.172488 0.0442293 -1.81454e-19)
(0.193205 0.0595504 -1.84828e-19)
(0.198533 0.0332378 0)
(0.221587 0.0527661 0)
(0.222899 0.0215903 -3.79745e-20)
(0.24587 0.045691 2.80719e-20)
(0.243644 0.00932703 -3.79745e-20)
(0.265245 0.0380454 -1.96442e-20)
(0.259695 -0.00350911 -1.75454e-20)
(0.279585 0.0293294 2.61237e-20)
(0.270727 -0.016853 -1.75454e-20)
(0.289168 0.0192007 3.84794e-21)
(0.276939 -0.0307111 4.97065e-22)
(0.294328 0.00754415 0)
(0.278871 -0.0451897 4.85562e-21)
(0.29548 -0.00560076 -1.07953e-22)
(0.277269 -0.0603489 6.88623e-20)
(0.293274 -0.0201361 2.56216e-20)
(0.288507 -0.0355039 -4.1014e-21)
(0.272764 -0.0760445 2.84045e-20)
(0.17569 0.0619258 -7.11981e-20)
(0.17098 0.0427651 3.66111e-20)
(0.216715 0.056229 0)
(0.221574 0.0404718 -1.11323e-19)
(0.250257 0.0525772 0)
(0.252586 0.0383506 1.07646e-19)
(0.276059 0.0493828 2.86038e-20)
(0.27586 0.036381 0)
(0.294267 0.0463219 3.26091e-20)
(0.291023 0.0340141 1.04039e-20)
(0.305993 0.0426216 3.0624e-20)
(0.299833 0.0308837 -2.69371e-20)
(0.312579 0.0374075 4.18359e-20)
(0.303862 0.02636 5.89984e-20)
(0.315156 0.030076 1.52172e-20)
(0.30445 0.0200399 2.63534e-20)
(0.314509 0.0204396 -4.46665e-22)
(0.302494 0.0118065 0)
(0.310556 0.00875213 2.11367e-20)
(0.298562 0.00258211 4.43217e-21)
(0.304264 -0.00428492 -4.9713e-20)
(0.292797 -0.00935144 2.11865e-20)
(0.285136 -0.0233513 -6.62569e-20)
(0.296545 -0.018106 -2.55448e-20)
(0.218225 0.0310079 1.22468e-20)
(0.204908 0.0116895 1.34028e-19)
(0.252874 0.0280128 -8.88209e-21)
(0.255758 0.0130933 -2.21671e-19)
(0.274667 0.0287329 1.09477e-19)
(0.274069 0.0169425 1.58669e-19)
(0.287445 0.028726 -2.65924e-20)
(0.286095 0.0220666 -1.43286e-19)
(0.29358 0.0272094 -5.01845e-20)
(0.291974 0.0260221 -7.19516e-20)
(0.295253 0.0235748 1.24351e-21)
(0.294322 0.0280697 -2.39506e-20)
(0.29396 0.0176088 3.57744e-20)
(0.293854 0.0274482 2.5083e-20)
(0.290612 0.00955566 1.10668e-20)
(0.29101 0.0239431 -6.97983e-22)
(0.285982 -4.43113e-05 4.9694e-21)
(0.286175 0.0174711 0)
(0.281031 -0.0107337 4.13382e-21)
(0.279989 0.0087166 4.59694e-21)
(0.27421 -0.0223458 8.55484e-21)
(0.27293 -0.000394274 -5.69964e-21)
(0.264833 -0.0117495 1.46725e-20)
(0.265708 -0.0344912 -2.07783e-20)
(0.248236 0.00383932 -1.37096e-19)
(0.229091 -0.00955865 5.00703e-20)
(0.272606 0.00395981 -6.01181e-20)
(0.27806 -0.00593667 -1.09889e-19)
(0.284079 0.0114567 -9.58973e-20)
(0.28532 0.00224824 1.83536e-19)
(0.290184 0.018592 -1.91146e-19)
(0.292213 0.0124233 -1.0748e-19)
(0.293228 0.0244338 -4.56488e-20)
(0.295495 0.0204215 -4.8755e-20)
(0.293852 0.0284062 0)
(0.296503 0.0263659 -1.17313e-19)
(0.292013 0.0298852 -1.05178e-20)
(0.294281 0.0296463 2.05359e-20)
(0.287546 0.0282631 -1.05178e-20)
(0.288918 0.030067 -1.06642e-20)
(0.28036 0.0232464 -4.54872e-22)
(0.280904 0.0274016 0)
(0.27184 0.0152253 -4.43974e-21)
(0.271162 0.0204486 -2.96182e-21)
(0.263184 0.00488908 1.3007e-21)
(0.260812 0.011405 -1.17697e-21)
(0.250572 0.000463262 1.71124e-20)
(0.254166 -0.0069209 1.78461e-20)
(0.270462 -0.0115835 5.50381e-20)
(0.247517 -0.0216188 -1.4962e-19)
(0.287345 -0.00954335 1.36059e-19)
(0.296372 -0.0168376 8.83753e-20)
(0.293357 0.00243599 1.76406e-19)
(0.296335 -0.00698933 5.60102e-20)
(0.297107 0.0134083 3.85658e-20)
(0.302271 0.00637753 1.22542e-19)
(0.298694 0.0223196 -1.21834e-19)
(0.304717 0.0178632 3.54191e-20)
(0.296927 0.0286498 -9.78346e-20)
(0.304121 0.0283964 -8.23665e-20)
(0.291318 0.0318255 2.08258e-20)
(0.298621 0.0364092 4.13347e-20)
(0.282776 0.0315853 0)
(0.288754 0.0402654 3.16196e-20)
(0.272078 0.0278221 -2.45011e-21)
(0.27587 0.0401223 -5.38521e-21)
(0.260168 0.0208419 4.78593e-22)
(0.261976 0.0347365 2.94607e-21)
(0.248422 0.0112279 1.34207e-20)
(0.248355 0.0256004 -2.858e-22)
(0.235871 0.0139199 1.0652e-20)
(0.237364 -0.000247019 -5.02688e-21)
(0.288054 -0.0183359 -1.1595e-19)
(0.262108 -0.0269275 -1.12997e-19)
(0.300914 -0.0168875 6.66385e-21)
(0.31265 -0.0222292 1.07933e-20)
(0.305333 -0.00354019 2.30133e-22)
(0.308149 -0.0136609 -8.38497e-20)
(0.309239 0.00974186 1.22429e-19)
(0.315861 0.00135103 1.14146e-20)
(0.310501 0.022875 7.60553e-20)
(0.3194 0.0163718 1.12625e-19)
(0.306681 0.0350446 5.6658e-20)
(0.318637 0.0328571 7.31625e-20)
(0.297355 0.0441369 5.33405e-20)
(0.3102 0.0471016 -1.30497e-20)
(0.282747 0.0478563 2.65758e-20)
(0.294476 0.0568284 3.2413e-20)
(0.266324 0.0456493 1.51529e-22)
(0.27435 0.058584 -5.52034e-21)
(0.250055 0.038372 2.22939e-21)
(0.254032 0.053007 4.0149e-21)
(0.235332 0.0274349 -3.26889e-21)
(0.235894 0.0421909 1.24456e-21)
(0.22081 0.0283181 0)
(0.222612 0.014271 0)
(0.302626 -0.0203466 1.24841e-20)
(0.27321 -0.0270898 9.87237e-20)
(0.313698 -0.0218032 -8.32885e-20)
(0.326408 -0.0243183 -7.79482e-20)
(0.31883 -0.00914891 -7.38782e-20)
(0.319337 -0.0201285 2.13172e-19)
(0.325104 0.00620978 -1.99685e-21)
(0.331994 -0.00518823 -1.46599e-19)
(0.32841 0.0245474 1.12157e-19)
(0.34036 0.0135623 2.33254e-21)
(0.323759 0.0436154 4.24219e-21)
(0.341373 0.0384505 -4.26596e-24)
(0.309799 0.0590284 -3.18663e-20)
(0.328917 0.06213 -3.22209e-20)
(0.287187 0.0668228 0)
(0.304676 0.0805346 0)
(0.262314 0.0657808 -1.56764e-21)
(0.275074 0.0845516 0)
(0.239466 0.0570528 3.0094e-21)
(0.246276 0.0768412 -1.58509e-21)
(0.220677 0.0434559 4.64091e-21)
(0.222216 0.0618266 4.69255e-21)
(0.204008 0.0436629 0)
(0.206088 0.0275313 0)
(0.313821 -0.0191702 5.29836e-20)
(0.279787 -0.0228826 -7.47066e-20)
(0.324131 -0.0259238 2.019e-19)
(0.335779 -0.0245064 6.4038e-21)
(0.332572 -0.0167488 1.43761e-19)
(0.328127 -0.0285284 2.15507e-19)
(0.345899 -0.00104425 -1.3757e-19)
(0.350107 -0.017016 6.2958e-20)
(0.355225 0.0235423 -1.03708e-19)
(0.365788 0.00497379 -7.23137e-20)
(0.350047 0.0540188 -3.15661e-20)
(0.365872 0.0419572 -7.01046e-20)
(0.327306 0.0812566 0)
(0.344614 0.0819376 4.03351e-20)
(0.294488 0.096112 0)
(0.310068 0.111102 0)
(0.25918 0.0949165 0)
(0.271351 0.118747 9.14265e-21)
(0.228173 0.0815672 0)
(0.235307 0.107165 0)
(0.204459 0.0621784 0)
(0.206239 0.0849207 0)
(0.18542 0.059793 0)
(0.187852 0.0413121 0)
(0.319511 -0.0156363 -7.85595e-20)
(0.280193 -0.0130456 2.93525e-20)
(0.330422 -0.0309006 -3.64846e-21)
(0.339004 -0.0239359 1.00778e-19)
(0.345113 -0.029415 1.32256e-19)
(0.331849 -0.0409099 -1.75191e-19)
(0.366696 -0.0144504 1.35904e-19)
(0.363046 -0.0370538 7.27426e-20)
(0.377721 0.0207651 -3.56754e-20)
(0.378996 -0.0115607 -4.18113e-20)
(0.364814 0.0690625 5.08485e-21)
(0.366723 0.0419419 8.91256e-21)
(0.332368 0.112676 4.07602e-20)
(0.33178 0.100864 1.01755e-20)
(0.28966 0.135021 9.23901e-21)
(0.289604 0.144607 3.40019e-20)
(0.247274 0.131942 9.23901e-21)
(0.248524 0.156261 2.53855e-21)
(0.211819 0.111126 0)
(0.212786 0.139842 -6.02004e-22)
(0.185675 0.0829694 0)
(0.184671 0.108877 -7.79729e-23)
(0.16475 0.0754179 0)
(0.168184 0.054922 3.55632e-21)
(0.318123 -0.00820442 2.11537e-19)
(0.272505 0.00348896 7.35001e-20)
(0.329919 -0.0371033 -5.23547e-20)
(0.330352 -0.0240839 6.00628e-20)
(0.34677 -0.0475538 -2.54505e-19)
(0.323054 -0.055432 -1.78541e-19)
(0.36622 -0.0338788 -1.12642e-19)
(0.35443 -0.0621389 -2.07518e-20)
(0.36586 0.0138523 1.83747e-21)
(0.35483 -0.0333438 -4.26172e-20)
(0.338756 0.0817793 6.2444e-21)
(0.319294 0.0365954 4.58042e-20)
(0.297286 0.141914 -4.80017e-21)
(0.272389 0.114104 -3.95019e-20)
(0.252185 0.171439 2.59295e-20)
(0.23019 0.171977 2.35653e-20)
(0.213104 0.166715 -9.0174e-21)
(0.197604 0.186815 -2.94885e-20)
(0.18315 0.138767 -1.0345e-21)
(0.172992 0.165875 -6.13606e-22)
(0.16172 0.102001 -7.87458e-23)
(0.154597 0.127593 2.94593e-22)
(0.141286 0.0873346 -3.69564e-21)
(0.147229 0.0667498 -3.2656e-21)
(0.30541 -0.000873262 -6.98973e-20)
(0.263535 0.0387725 -8.85901e-20)
(0.313143 -0.0464125 -4.35778e-20)
(0.310579 -0.0197601 -4.83443e-20)
(0.32372 -0.0680668 6.35107e-20)
(0.296903 -0.068291 -2.81745e-20)
(0.325749 -0.0583586 6.35107e-20)
(0.310404 -0.0850339 -3.93032e-20)
(0.303248 -0.00110901 0)
(0.285919 -0.0541855 -4.7246e-20)
(0.263711 0.0831671 0)
(0.228959 0.0256609 5.13432e-20)
(0.217324 0.156649 -1.76514e-20)
(0.174805 0.119816 9.31866e-20)
(0.180238 0.193311 -4.21418e-20)
(0.140826 0.185739 -1.78064e-20)
(0.155945 0.188433 -2.11976e-20)
(0.125976 0.201785 -6.58346e-21)
(0.141259 0.155882 6.21484e-22)
(0.120799 0.177849 -3.8132e-22)
(0.131769 0.113628 -3.10873e-21)
(0.118313 0.135679 1.01807e-21)
(0.115689 0.092391 -3.76296e-21)
(0.124812 0.0739247 1.38495e-21)
(0.287268 0.0398581 -1.14017e-19)
(0.206882 0.0462038 -1.10508e-19)
(0.28434 -0.0470717 -8.77156e-21)
(0.258098 -0.00784005 7.63121e-20)
(0.275214 -0.0872678 -1.32711e-19)
(0.250298 -0.0688118 -1.04822e-20)
(0.251407 -0.0831839 -1.51952e-19)
(0.237328 -0.0980162 -3.42981e-20)
(0.20566 -0.0229591 -1.77512e-21)
(0.189396 -0.0676191 -4.80621e-20)
(0.15414 0.0709377 1.4581e-19)
(0.119283 0.0157199 -3.57818e-20)
(0.111849 0.15476 9.4012e-20)
(0.0636759 0.116163 7.96758e-20)
(0.0914553 0.196723 1.55309e-20)
(0.0442173 0.183289 2.35025e-20)
(0.0891056 0.192311 1.51462e-20)
(0.0519782 0.198251 8.4596e-21)
(0.0945381 0.158424 -3.67503e-22)
(0.068758 0.173415 -3.87906e-22)
(0.0998188 0.115064 3.94599e-22)
(0.0828071 0.131779 3.9789e-22)
(0.102094 0.0749429 0)
(0.0907994 0.0899731 -4.04433e-21)
(0.265495 -0.0918141 -3.58179e-20)
(0.281661 -0.0504978 3.97925e-21)
(0.256129 -0.106941 0)
(0.272893 -0.065494 0)
(0.245237 -0.120539 0)
(0.262498 -0.0797614 -5.98228e-20)
(0.233317 -0.131758 2.31572e-20)
(0.250766 -0.0926708 6.05118e-20)
(0.220105 -0.139559 2.31572e-20)
(0.238495 -0.102533 2.35878e-20)
(0.205833 -0.143311 0)
(0.225567 -0.10993 2.12437e-20)
(0.190425 -0.142532 -2.88135e-20)
(0.212192 -0.114139 -1.95156e-20)
(0.173368 -0.137022 3.91334e-21)
(0.198385 -0.114382 3.52858e-20)
(0.153555 -0.127353 3.90609e-20)
(0.18392 -0.11032 3.70557e-20)
(0.129387 -0.115883 -4.7554e-20)
(0.167889 -0.103477 5.03238e-20)
(0.100607 -0.107855 -4.70115e-20)
(0.146508 -0.0987495 -6.13387e-20)
(0.11031 -0.103816 -4.23627e-20)
(0.287582 -0.0321948 4.553e-20)
(0.276148 -0.0371487 2.39213e-20)
(0.277219 -0.0459375 -6.09562e-20)
(0.266107 -0.0504828 0)
(0.265514 -0.0589186 1.24661e-21)
(0.255193 -0.0630143 -1.6586e-20)
(0.252628 -0.0707461 6.16584e-20)
(0.243655 -0.0743215 -4.86597e-22)
(0.239475 -0.0811576 2.16462e-20)
(0.231992 -0.0839794 5.14818e-20)
(0.226546 -0.0894515 1.76078e-21)
(0.220667 -0.0917139 -6.40449e-21)
(0.214523 -0.0947866 2.52238e-20)
(0.210106 -0.0970181 -2.72711e-20)
(0.203887 -0.0963603 2.98061e-20)
(0.200903 -0.0991609 4.07412e-20)
(0.193676 -0.0941255 2.75085e-20)
(0.193794 -0.097522 2.12269e-20)
(0.17899 -0.0906159 4.00868e-20)
(0.188735 -0.0933992 1.43307e-20)