/*--------------------------------*- C++ -*----------------------------------*\
| =========                 |                                                 |
| \\      /  F ield         | OpenFOAM: The Open Source CFD Toolbox           |
|  \\    /   O peration     | Version:  2.3.1                                 |
|   \\  /    A nd           | Web:      www.OpenFOAM.org                      |
|    \\/     M anipulation  |                                                 |
\*---------------------------------------------------------------------------*/
FoamFile
{
    version     2.0;
    format      ascii;
    class       volScalarField;
    location    "0.97";
    object      epsilon;
}
// * * * * * * * * * * * * * * * * * * * * * * * * * * * * * * * * * * * * * //

dimensions      [0 2 -3 0 0 0 0];

internalField   nonuniform List<scalar> 
1000
(
0.000803396
0.0008309
0.000831934
0.000831926
0.000831915
0.00083191
0.000831903
0.000831895
0.000831771
0.000829301
0.000832558
0.000843877
0.00084491
0.00084497
0.000844979
0.000844978
0.000844959
0.000844899
0.0008439
0.000831611
0.000836416
0.000848259
0.000849497
0.000849595
0.000849618
0.000849612
0.000849581
0.000849486
0.000848268
0.000834168
0.000840122
0.000853164
0.000854597
0.000854773
0.000854829
0.000854827
0.000854765
0.000854608
0.000853216
0.000837939
0.000842078
0.000857557
0.000859252
0.000859476
0.000859545
0.000859544
0.000859489
0.000859292
0.000857686
0.000839985
0.000832003
0.000840555
0.00084147
0.000841578
0.000841606
0.000841619
0.00084162
0.000841589
0.000840817
0.000831457
0.000841812
0.000582015
0.000566088
0.000565313
0.000565279
0.000565261
0.000565242
0.00056582
0.000581168
0.000840635
0.00084497
0.000562342
0.000544287
0.000543437
0.000543422
0.00054342
0.00054342
0.000544131
0.000561623
0.000843757
0.000848269
0.000561492
0.00054311
0.000542241
0.000542225
0.000542224
0.000542233
0.000542975
0.000560858
0.000847067
0.000850877
0.00056634
0.000547837
0.000547167
0.000547257
0.000547262
0.000547177
0.000547735
0.000565783
0.000849707
0.000835133
0.000843176
0.000844127
0.000844232
0.000844267
0.000844282
0.000844286
0.000844247
0.000843374
0.000833285
0.000844038
0.000565497
0.000547833
0.000546979
0.000546951
0.000546939
0.000546929
0.000547609
0.000564703
0.000842922
0.000846838
0.000544663
0.000524537
0.000523547
0.000523526
0.000523525
0.000523534
0.000524367
0.000543871
0.000845777
0.000849614
0.000544119
0.000523663
0.000522664
0.000522648
0.000522648
0.000522655
0.000523505
0.000543368
0.000848544
0.000852557
0.000546723
0.000526059
0.000525158
0.000525198
0.0005252
0.000525158
0.000525916
0.000546012
0.000851497
0.000836552
0.000844585
0.000845523
0.000845618
0.000845651
0.000845666
0.000845667
0.000845625
0.00084474
0.000834588
0.000845264
0.000563008
0.000545199
0.000544351
0.000544327
0.000544319
0.00054432
0.000545024
0.000562353
0.000844141
0.000847765
0.000543246
0.000523026
0.000522028
0.000522003
0.000522003
0.000522016
0.000522864
0.000542502
0.000846714
0.000850153
0.000542944
0.00052246
0.000521464
0.00052145
0.00052145
0.000521456
0.000522302
0.000542212
0.00084909
0.000853131
0.000544115
0.000523426
0.000522457
0.00052246
0.000522462
0.00052245
0.000523272
0.000543396
0.000852062
0.000837331
0.000845371
0.000846296
0.000846381
0.00084641
0.000846422
0.000846422
0.000846374
0.000845482
0.000835281
0.000845985
0.000561166
0.000543266
0.000542413
0.000542386
0.000542382
0.000542393
0.000543116
0.000560581
0.000844823
0.000848302
0.00054274
0.000522555
0.000521559
0.000521533
0.000521532
0.000521548
0.000522397
0.000542033
0.000847232
0.000850502
0.000542588
0.000522218
0.000521234
0.000521221
0.000521222
0.000521226
0.000522063
0.000541881
0.000849424
0.00085341
0.000543191
0.000522698
0.000521717
0.000521707
0.000521707
0.000521708
0.00052254
0.000542486
0.000852325
0.000837449
0.000845819
0.000846773
0.000846862
0.000846891
0.000846902
0.000846895
0.000846839
0.000845911
0.000835359
0.000846165
0.00056001
0.00054205
0.000541198
0.000541173
0.000541174
0.000541192
0.000541928
0.000559485
0.000844981
0.000848496
0.000542575
0.000522423
0.000521433
0.000521409
0.000521409
0.000521425
0.000522273
0.000541898
0.000847409
0.000850742
0.000542523
0.000522246
0.000521274
0.000521264
0.000521264
0.000521267
0.000522093
0.00054184
0.000849651
0.000853689
0.00054307
0.000522779
0.000521821
0.000521813
0.000521814
0.00052181
0.000522623
0.000542386
0.000852586
0.00083694
0.000846191
0.000847224
0.000847324
0.000847357
0.000847364
0.000847351
0.000847275
0.000846272
0.000834826
0.000845817
0.000560052
0.000542108
0.000541259
0.000541235
0.000541236
0.000541253
0.000541987
0.000559538
0.000844607
0.000848387
0.000542905
0.000522806
0.000521829
0.000521809
0.00052181
0.000521822
0.000522656
0.00054224
0.000847276
0.000850972
0.000542991
0.000522785
0.000521833
0.000521828
0.00052183
0.000521825
0.000522633
0.000542314
0.000849853
0.000854217
0.000544094
0.000523951
0.000523051
0.000523066
0.000523067
0.000523042
0.000523795
0.000543417
0.000853085
0.000835774
0.000845827
0.000846932
0.000847047
0.000847082
0.00084709
0.000847066
0.000846977
0.0008459
0.000833646
0.000844878
0.000561622
0.000543887
0.000543061
0.000543045
0.000543046
0.000543058
0.000543771
0.000561131
0.000843643
0.000847856
0.000545214
0.000525433
0.000524505
0.0005245
0.000524503
0.0005245
0.000525292
0.000544579
0.000846714
0.000850967
0.000546082
0.000526309
0.00052544
0.000525463
0.000525465
0.000525436
0.000526164
0.000545441
0.000849814
0.000854816
0.000549487
0.000530109
0.000529433
0.000529526
0.000529531
0.000529428
0.00052997
0.000548869
0.000853642
0.000833877
0.000843608
0.000844635
0.000844747
0.000844785
0.000844788
0.000844762
0.000844667
0.000843659
0.000831728
0.00084261
0.000583361
0.000567875
0.000567232
0.000567247
0.000567253
0.00056724
0.000567801
0.000583029
0.000841266
0.000845988
0.00057131
0.000554394
0.000553746
0.000553803
0.000553809
0.000553757
0.000554305
0.00057088
0.00084472
0.000849715
0.000576747
0.000560388
0.000559954
0.000560085
0.000560096
0.000559964
0.000560306
0.000576338
0.000848412
0.000854589
0.00059105
0.000576405
0.00057656
0.000576876
0.000576883
0.000576577
0.000576344
0.000590754
0.000853256
0.000829518
0.00082995
0.000830016
0.000830039
0.000830048
0.000830051
0.000830041
0.000830021
0.000829874
0.00082723
0.000832168
0.000840233
0.000841156
0.000841262
0.000841295
0.000841297
0.000841269
0.000841177
0.000840273
0.000829952
0.000835468
0.000844411
0.000845549
0.000845733
0.000845793
0.000845801
0.000845737
0.000845574
0.000844463
0.000833254
0.000839956
0.000849308
0.000850653
0.000850945
0.000851051
0.000851052
0.000850949
0.000850661
0.000849346
0.000837742
0.000847287
0.000859909
0.000862172
0.000862637
0.00086275
0.000862752
0.000862616
0.000862158
0.000860017
0.000845143
0.000869872
0.000942692
0.000958862
0.000957478
0.000956335
0.00095625
0.000957229
0.000958717
0.000944913
0.000868648
0.00102927
0.0019585
0.0021634
0.0021154
0.00209104
0.00208981
0.0021115
0.00216122
0.0019889
0.0010396
0.00242633
0.0113592
0.0132859
0.0128472
0.0126291
0.0126182
0.0128125
0.0132693
0.0116151
0.00253151
0.0101953
0.057939
0.0680265
0.0673605
0.0667569
0.0667152
0.0672328
0.0679924
0.0589629
0.0106924
0.0365227
0.212421
0.250274
0.25277
0.252322
0.252219
0.25248
0.250294
0.215297
0.0379251
0.000863115
0.000624786
0.000614557
0.000615531
0.000615923
0.000615922
0.000615528
0.000614527
0.000624919
0.000861854
0.000883007
0.000801628
0.000821584
0.000821922
0.000820591
0.000820464
0.000821586
0.000821599
0.000805813
0.000882826
0.00103819
0.00231048
0.00260701
0.00253292
0.00249644
0.00249487
0.00252789
0.00260574
0.00235124
0.00104751
0.00281127
0.0294508
0.0332544
0.0315432
0.03082
0.0308
0.0314863
0.0332608
0.0299539
0.00291179
0.0594546
0.444784
0.504497
0.507941
0.507356
0.507243
0.507659
0.50487
0.449683
0.061732
0.000859529
0.000556545
0.0005382
0.000537939
0.000538168
0.000538172
0.00053794
0.000538078
0.000556021
0.000858405
0.000865919
0.000576784
0.000562112
0.000562322
0.000562487
0.000562482
0.000562306
0.000562033
0.000576777
0.000864936
0.000888842
0.000845795
0.000874475
0.000874893
0.000873706
0.000873591
0.0008746
0.000874838
0.000851635
0.000889141
0.0018303
0.0145614
0.016191
0.016108
0.0160348
0.0160314
0.0161012
0.0162141
0.0147789
0.00187616
0.0623308
0.465525
0.512678
0.513961
0.513181
0.513137
0.513899
0.513428
0.470686
0.064685
0.000856892
0.000546764
0.000526934
0.000526241
0.000526346
0.000526349
0.000526235
0.000526787
0.000546116
0.000855791
0.000862257
0.000548376
0.000528879
0.000528092
0.000528113
0.000528114
0.000528082
0.000528735
0.000547827
0.000861222
0.000874415
0.000719614
0.000714372
0.000714208
0.000714821
0.000714879
0.000714376
0.000714836
0.00072208
0.000874127
0.00172392
0.0143226
0.015775
0.0158653
0.0158638
0.0158633
0.0158676
0.0158091
0.0145313
0.00176431
0.0690111
0.508613
0.556873
0.560064
0.56002
0.560015
0.560152
0.557933
0.514327
0.0716895
0.000855325
0.000545356
0.000525295
0.000524521
0.000524603
0.000524605
0.000524517
0.000525151
0.000544697
0.000854236
0.000860683
0.000543949
0.000523627
0.000522641
0.000522614
0.000522613
0.000522629
0.000523473
0.000543313
0.000859646
0.000870035
0.000696498
0.000694812
0.000697135
0.00069835
0.000698402
0.000697358
0.000695403
0.000698945
0.000869664
0.00190091
0.0165223
0.0182009
0.0186438
0.0187924
0.0187956
0.0186637
0.0182639
0.0167611
0.00195336
0.0719616
0.518495
0.566309
0.570059
0.570253
0.57026
0.570208
0.567481
0.524298
0.07477
0.000855027
0.000546394
0.000526031
0.000525255
0.000525348
0.000525352
0.000525255
0.000525893
0.000545727
0.00085395
0.000860787
0.000544979
0.000523693
0.000522668
0.000522638
0.000522637
0.000522658
0.000523539
0.000544313
0.000859765
0.000872775
0.000716437
0.000719669
0.000726382
0.000729102
0.000729167
0.000726702
0.000720437
0.000719062
0.000872493
0.00257063
0.0170205
0.0187342
0.0196153
0.0199926
0.0200022
0.0196571
0.0188097
0.017227
0.00265211
0.0728538
0.501867
0.546193
0.549924
0.550268
0.550288
0.550123
0.547389
0.507316
0.0756637
0.000855723
0.000548876
0.000528204
0.00052745
0.000527568
0.000527572
0.000527457
0.000528076
0.000548209
0.000854682
0.000861731
0.000548586
0.000526347
0.000525443
0.000525472
0.000525475
0.000525444
0.000526211
0.000547921
0.00086071
0.000881958
0.000732178
0.00073575
0.000744361
0.000748071
0.000748169
0.00074478
0.000736616
0.000734675
0.000881962
0.00316172
0.0143972
0.0159619
0.0164445
0.0166346
0.0166392
0.0164664
0.0160161
0.0145798
0.00324799
0.0711561
0.447835
0.483782
0.487935
0.488823
0.488862
0.488204
0.484872
0.452209
0.0737103
0.000857518
0.000552039
0.000531148
0.000530373
0.000530486
0.000530494
0.000530384
0.000531028
0.00055138
0.000856499
0.000862325
0.000559728
0.000537418
0.000537049
0.000537274
0.000537283
0.000537075
0.000537327
0.00055915
0.000861301
0.000892449
0.000741478
0.000740843
0.00074726
0.000750055
0.000750129
0.000747574
0.000741506
0.000743411
0.000892318
0.00246589
0.0107418
0.0118796
0.0121218
0.0122079
0.0122093
0.0121318
0.0119119
0.0108711
0.00250363
0.0619628
0.33998
0.364102
0.367514
0.368554
0.368596
0.367754
0.364896
0.34283
0.0637996
0.000859544
0.000569359
0.000550316
0.000549569
0.000549634
0.00054964
0.000549579
0.000550216
0.000568827
0.000858452
0.000860741
0.000601653
0.000582907
0.000583716
0.00058432
0.000584339
0.000583779
0.000582921
0.000601394
0.000859628
0.000901892
0.000766761
0.00076167
0.000765342
0.000766972
0.000767008
0.000765505
0.000762035
0.000767954
0.000901586
0.00170094
0.00650448
0.00718377
0.00728053
0.00730923
0.00730909
0.00728335
0.00719851
0.00657606
0.00172542
0.0396368
0.190373
0.202601
0.204581
0.205242
0.205266
0.204711
0.203005
0.191762
0.0405205
0.000853056
0.000871722
0.000874179
0.000874713
0.000874923
0.000874939
0.000874738
0.000874277
0.000871967
0.000850973
0.00084606
0.000877329
0.000881417
0.000882056
0.000882236
0.000882252
0.000882114
0.00088157
0.000877694
0.000843965
0.000901839
0.000951169
0.00095799
0.000959722
0.000960288
0.000960294
0.000959801
0.000958155
0.000951833
0.000900161
0.00114658
0.00166414
0.00176486
0.00178035
0.00178435
0.00178431
0.00178062
0.00176681
0.00167359
0.00115222
0.0112534
0.0272728
0.0287748
0.0291832
0.0293095
0.0293133
0.0292021
0.028829
0.0274537
0.0114081
)
;

boundaryField
{
    walls
    {
        type            epsilonWallFunction;
        value           nonuniform List<scalar> 
500
(
0.000803396
0.000803396
0.000803396
0.0008309
0.0008309
0.000831934
0.000831934
0.000831926
0.000831926
0.000831915
0.000831915
0.00083191
0.00083191
0.000831903
0.000831903
0.000831895
0.000831895
0.000831771
0.000831771
0.000829301
0.000829301
0.000829301
0.000832558
0.000832558
0.000843877
0.00084491
0.00084497
0.000844979
0.000844978
0.000844959
0.000844899
0.0008439
0.000831611
0.000831611
0.000836416
0.000836416
0.000848259
0.000849497
0.000849595
0.000849618
0.000849612
0.000849581
0.000849486
0.000848268
0.000834168
0.000834168
0.000840122
0.000840122
0.000853164
0.000854597
0.000854773
0.000854829
0.000854827
0.000854765
0.000854608
0.000853216
0.000837939
0.000837939
0.000842078
0.000842078
0.000857557
0.000859252
0.000859476
0.000859545
0.000859544
0.000859489
0.000859292
0.000857686
0.000839985
0.000839985
0.000832003
0.000832003
0.000840555
0.00084147
0.000841578
0.000841606
0.000841619
0.00084162
0.000841589
0.000840817
0.000831457
0.000831457
0.000841812
0.000840635
0.00084497
0.000843757
0.000848269
0.000847067
0.000850877
0.000849707
0.000835133
0.000835133
0.000843176
0.000844127
0.000844232
0.000844267
0.000844282
0.000844286
0.000844247
0.000843374
0.000833285
0.000833285
0.000844038
0.000842922
0.000846838
0.000845777
0.000849614
0.000848544
0.000852557
0.000851497
0.000836552
0.000836552
0.000844585
0.000845523
0.000845618
0.000845651
0.000845666
0.000845667
0.000845625
0.00084474
0.000834588
0.000834588
0.000845264
0.000844141
0.000847765
0.000846714
0.000850153
0.00084909
0.000853131
0.000852062
0.000837331
0.000837331
0.000845371
0.000846296
0.000846381
0.00084641
0.000846422
0.000846422
0.000846374
0.000845482
0.000835281
0.000835281
0.000845985
0.000844823
0.000848302
0.000847232
0.000850502
0.000849424
0.00085341
0.000852325
0.000837449
0.000837449
0.000845819
0.000846773
0.000846862
0.000846891
0.000846902
0.000846895
0.000846839
0.000845911
0.000835359
0.000835359
0.000846165
0.000844981
0.000848496
0.000847409
0.000850742
0.000849651
0.000853689
0.000852586
0.00083694
0.00083694
0.000846191
0.000847224
0.000847324
0.000847357
0.000847364
0.000847351
0.000847275
0.000846272
0.000834826
0.000834826
0.000845817
0.000844607
0.000848387
0.000847276
0.000850972
0.000849853
0.000854217
0.000853085
0.000835774
0.000835774
0.000845827
0.000846932
0.000847047
0.000847082
0.00084709
0.000847066
0.000846977
0.0008459
0.000833646
0.000833646
0.000844878
0.000843643
0.000847856
0.000846714
0.000850967
0.000849814
0.000854816
0.000853642
0.000833877
0.000833877
0.000843608
0.000844635
0.000844747
0.000844785
0.000844788
0.000844762
0.000844667
0.000843659
0.000831728
0.000831728
0.00084261
0.000841266
0.000845988
0.00084472
0.000849715
0.000848412
0.000854589
0.000853256
0.000829518
0.000829518
0.000829518
0.00082995
0.00082995
0.000830016
0.000830016
0.000830039
0.000830039
0.000830048
0.000830048
0.000830051
0.000830051
0.000830041
0.000830041
0.000830021
0.000830021
0.000829874
0.000829874
0.00082723
0.00082723
0.00082723
0.000832168
0.000832168
0.000840233
0.000841156
0.000841262
0.000841295
0.000841297
0.000841269
0.000841177
0.000840273
0.000829952
0.000829952
0.000835468
0.000835468
0.000844411
0.000845549
0.000845733
0.000845793
0.000845801
0.000845737
0.000845574
0.000844463
0.000833254
0.000833254
0.000839956
0.000839956
0.000849308
0.000850653
0.000850945
0.000851051
0.000851052
0.000850949
0.000850661
0.000849346
0.000837742
0.000837742
0.000847287
0.000847287
0.000859909
0.000862172
0.000862637
0.00086275
0.000862752
0.000862616
0.000862158
0.000860017
0.000845143
0.000845143
0.000869872
0.000869872
0.000942692
0.000958862
0.000957478
0.000956335
0.00095625
0.000957229
0.000958717
0.000944913
0.000868648
0.000868648
0.00102927
0.00102927
0.0019585
0.0021634
0.0021154
0.00209104
0.00208981
0.0021115
0.00216122
0.0019889
0.0010396
0.0010396
0.00242633
0.00242633
0.0113592
0.0132859
0.0128472
0.0126291
0.0126182
0.0128125
0.0132693
0.0116151
0.00253151
0.00253151
0.0101953
0.0101953
0.057939
0.0680265
0.0673605
0.0667569
0.0667152
0.0672328
0.0679924
0.0589629
0.0106924
0.0106924
0.0365227
0.0365227
0.212421
0.250274
0.25277
0.252322
0.252219
0.25248
0.250294
0.215297
0.0379251
0.0379251
0.000863115
0.000861854
0.000883007
0.000882826
0.00103819
0.00104751
0.00281127
0.00291179
0.0594546
0.061732
0.000859529
0.000858405
0.000865919
0.000864936
0.000888842
0.000889141
0.0018303
0.00187616
0.0623308
0.064685
0.000856892
0.000855791
0.000862257
0.000861222
0.000874415
0.000874127
0.00172392
0.00176431
0.0690111
0.0716895
0.000855325
0.000854236
0.000860683
0.000859646
0.000870035
0.000869664
0.00190091
0.00195336
0.0719616
0.07477
0.000855027
0.00085395
0.000860787
0.000859765
0.000872775
0.000872493
0.00257063
0.00265211
0.0728538
0.0756637
0.000855723
0.000854682
0.000861731
0.00086071
0.000881958
0.000881962
0.00316172
0.00324799
0.0711561
0.0737103
0.000857518
0.000856499
0.000862325
0.000861301
0.000892449
0.000892318
0.00246589
0.00250363
0.0619628
0.0637996
0.000859544
0.000858452
0.000860741
0.000859628
0.000901892
0.000901586
0.00170094
0.00172542
0.0396368
0.0405205
0.000853056
0.000853056
0.000871722
0.000874179
0.000874713
0.000874923
0.000874939
0.000874738
0.000874277
0.000871967
0.000850973
0.000850973
0.00084606
0.00084606
0.000877329
0.000881417
0.000882056
0.000882236
0.000882252
0.000882114
0.00088157
0.000877694
0.000843965
0.000843965
0.000901839
0.000901839
0.000951169
0.00095799
0.000959722
0.000960288
0.000960294
0.000959801
0.000958155
0.000951833
0.000900161
0.000900161
0.00114658
0.00114658
0.00166414
0.00176486
0.00178035
0.00178435
0.00178431
0.00178062
0.00176681
0.00167359
0.00115222
0.00115222
0.0112534
0.0112534
0.0272728
0.0287748
0.0291832
0.0293095
0.0293133
0.0292021
0.028829
0.0274537
0.0114081
0.0114081
)
;
        Cmu             0.09;
        kappa           0.41;
        E               9.8;
    }
    lid
    {
        type            epsilonWallFunction;
        value           nonuniform List<scalar> 
100
(
0.0365227
0.212421
0.250274
0.25277
0.252322
0.252219
0.25248
0.250294
0.215297
0.0379251
0.0594546
0.444784
0.504497
0.507941
0.507356
0.507243
0.507659
0.50487
0.449683
0.061732
0.0623308
0.465525
0.512678
0.513961
0.513181
0.513137
0.513899
0.513428
0.470686
0.064685
0.0690111
0.508613
0.556873
0.560064
0.56002
0.560015
0.560152
0.557933
0.514327
0.0716895
0.0719616
0.518495
0.566309
0.570059
0.570253
0.57026
0.570208
0.567481
0.524298
0.07477
0.0728538
0.501867
0.546193
0.549924
0.550268
0.550288
0.550123
0.547389
0.507316
0.0756637
0.0711561
0.447835
0.483782
0.487935
0.488823
0.488862
0.488204
0.484872
0.452209
0.0737103
0.0619628
0.33998
0.364102
0.367514
0.368554
0.368596
0.367754
0.364896
0.34283
0.0637996
0.0396368
0.190373
0.202601
0.204581
0.205242
0.205266
0.204711
0.203005
0.191762
0.0405205
0.0112534
0.0272728
0.0287748
0.0291832
0.0293095
0.0293133
0.0292021
0.028829
0.0274537
0.0114081
)
;
        Cmu             0.09;
        kappa           0.41;
        E               9.8;
    }
}


// ************************************************************************* //
