/*--------------------------------*- C++ -*----------------------------------*\
| =========                 |                                                 |
| \\      /  F ield         | OpenFOAM: The Open Source CFD Toolbox           |
|  \\    /   O peration     | Version:  2.3.1                                 |
|   \\  /    A nd           | Web:      www.OpenFOAM.org                      |
|    \\/     M anipulation  |                                                 |
\*---------------------------------------------------------------------------*/
FoamFile
{
    version     2.0;
    format      ascii;
    class       volScalarField;
    location    "0.6";
    object      p;
}
// * * * * * * * * * * * * * * * * * * * * * * * * * * * * * * * * * * * * * //

dimensions      [0 2 -2 0 0 0 0];

internalField   nonuniform List<scalar> 
9648
(
-0.10464
-0.369845
-0.685505
-1.05304
-1.49576
-2.02674
-2.65772
-3.39842
-4.25338
-5.24113
-6.37286
-7.66131
-9.11893
-10.7564
-12.5829
-14.6085
-16.8413
-19.29
-21.9579
-24.8494
-27.9697
-31.3152
-34.8859
-38.6771
-42.6844
-46.8983
-51.3084
-55.9059
-60.6732
-65.6016
-70.6706
-75.865
-81.1692
-86.5587
-92.0223
-97.5322
-103.075
-108.631
-114.175
-119.687
-125.143
-130.537
-135.829
-141.01
-146.069
-150.973
-155.71
-160.263
-164.637
-168.804
-172.722
-176.396
-179.83
-182.992
-185.886
-188.496
-190.81
-192.833
-194.542
-195.95
-197.046
0.438084
0.183325
-0.123334
-0.485143
-0.923343
-1.43951
-2.04477
-2.754
-3.58071
-4.53228
-5.61957
-6.85425
-8.24734
-9.80921
-11.5496
-13.4776
-15.6009
-17.9265
-20.4591
-23.203
-26.1611
-29.3328
-32.7169
-36.3093
-40.1047
-44.0954
-48.272
-52.6242
-57.1389
-61.8037
-66.6024
-71.5193
-76.5385
-81.6407
-86.8095
-92.0246
-97.2694
-102.524
-107.768
-112.982
-118.146
-123.242
-128.247
-133.146
-137.92
-142.548
-147.016
-151.306
-155.403
-159.301
-162.994
-166.46
-169.691
-172.674
-175.393
-177.847
-180.015
-181.909
-183.506
-184.809
-185.804
0.253553
0.0167717
-0.263211
-0.598841
-0.995272
-1.47302
-2.04034
-2.70858
-3.48784
-4.39092
-5.4281
-6.6111
-7.95052
-9.45618
-11.1378
-13.0038
-15.0618
-17.3182
-19.7776
-22.4441
-25.3201
-28.4059
-31.6998
-35.1978
-38.8945
-42.7823
-46.8524
-51.0944
-55.4962
-60.045
-64.7254
-69.5218
-74.4184
-79.3978
-84.4422
-89.5333
-94.6538
-99.7847
-104.907
-110
-115.047
-120.027
-124.921
-129.712
-134.383
-138.914
-143.29
-147.496
-151.516
-155.335
-158.945
-162.333
-165.496
-168.408
-171.074
-173.473
-175.613
-177.463
-179.031
-180.315
-181.319
0.48276
0.249517
-0.030844
-0.363499
-0.757144
-1.2225
-1.77033
-2.41203
-3.15884
-4.02281
-5.01563
-6.14867
-7.43243
-8.87674
-10.4917
-12.2851
-14.2645
-16.4358
-18.8032
-21.3708
-24.1411
-27.1136
-30.2873
-33.6577
-37.2192
-40.9642
-44.8841
-48.9694
-53.208
-57.587
-62.0925
-66.7084
-71.4196
-76.2103
-81.0625
-85.9587
-90.8826
-95.8152
-100.739
-105.635
-110.484
-115.269
-119.97
-124.57
-129.052
-133.398
-137.595
-141.625
-145.478
-149.138
-152.595
-155.839
-158.861
-161.647
-164.189
-166.476
-168.505
-170.262
-171.745
-172.951
-173.876
0.533027
0.332111
0.0857074
-0.214634
-0.576886
-1.01011
-1.52369
-2.12795
-2.83471
-3.65463
-4.60013
-5.68118
-6.90856
-8.29109
-9.83973
-11.5611
-13.4626
-15.5499
-17.826
-20.2955
-22.961
-25.8212
-28.8765
-32.1203
-35.5479
-39.1516
-42.9222
-46.8522
-50.9288
-55.1399
-59.4725
-63.9095
-68.4374
-73.0421
-77.7049
-82.409
-87.1401
-91.8781
-96.6071
-101.311
-105.97
-110.565
-115.079
-119.495
-123.797
-127.968
-131.994
-135.859
-139.552
-143.06
-146.373
-149.48
-152.376
-155.047
-157.484
-159.675
-161.611
-163.289
-164.708
-165.86
-166.743
0.624978
0.439216
0.212324
-0.0654958
-0.401376
-0.805372
-1.28641
-1.85466
-2.52254
-3.29953
-4.19921
-5.22974
-6.4027
-7.72416
-9.20818
-10.8589
-12.6831
-14.6874
-16.8714
-19.2418
-21.8022
-24.5485
-27.4847
-30.6004
-33.8916
-37.351
-40.9675
-44.7383
-48.6481
-52.6852
-56.8398
-61.091
-65.4278
-69.8395
-74.3051
-78.8077
-83.3374
-87.871
-92.3956
-96.8977
-101.356
-105.753
-110.068
-114.291
-118.402
-122.386
-126.231
-129.919
-133.441
-136.785
-139.943
-142.904
-145.662
-148.209
-150.531
-152.615
-154.451
-156.039
-157.381
-158.469
-159.299
0.72154
0.55282
0.344853
0.0876919
-0.22396
-0.601178
-1.05214
-1.58597
-2.21707
-2.95247
-3.80869
-4.7908
-5.91186
-7.17249
-8.59374
-10.1744
-11.9213
-13.8435
-15.9348
-18.2035
-20.6583
-23.2877
-26.1052
-29.092
-32.2439
-35.5567
-39.0131
-42.6213
-46.3604
-50.2172
-54.1916
-58.2524
-62.3885
-66.6015
-70.8664
-75.1584
-79.48
-83.8017
-88.1124
-92.407
-96.6594
-100.853
-104.961
-108.981
-112.895
-116.685
-120.343
-123.845
-127.189
-130.36
-133.359
-136.164
-138.777
-141.196
-143.402
-145.375
-147.104
-148.592
-149.852
-150.877
-151.651
0.818074
0.667512
0.480746
0.243283
-0.043769
-0.395815
-0.819408
-1.3173
-1.91497
-2.60739
-3.42489
-4.35892
-5.43707
-6.62965
-7.99144
-9.50461
-11.1704
-13.0176
-15.0153
-17.1721
-19.5308
-22.0311
-24.7381
-27.5975
-30.6008
-33.775
-37.0539
-40.4988
-44.0701
-47.7312
-51.537
-55.4054
-59.3161
-63.3302
-67.4086
-71.4605
-75.5739
-79.6808
-83.7578
-87.8515
-91.8876
-95.8878
-99.7647
-103.572
-107.301
-110.88
-114.359
-117.656
-120.823
-123.802
-126.648
-129.275
-131.726
-134.022
-136.124
-137.971
-139.595
-140.957
-142.135
-143.112
-143.82
0.920933
0.77983
0.629134
0.396941
0.144773
-0.192923
-0.595091
-1.03114
-1.62624
-2.243
-3.05762
-3.91351
-5.00318
-6.0623
-7.40656
-8.87031
-10.4133
-12.2305
-14.1131
-16.1259
-18.4703
-20.7574
-23.4184
-26.1238
-28.9575
-32.0703
-35.089
-38.4051
-41.8457
-45.2338
-48.9398
-52.585
-56.2328
-60.1
-64.0373
-67.6753
-71.6887
-75.576
-79.3639
-83.3171
-87.0591
-90.9372
-94.5027
-98.1706
-101.767
-105.02
-108.425
-111.408
-114.466
-117.137
-119.896
-122.244
-124.56
-126.812
-128.79
-130.445
-132.062
-133.203
-134.374
-135.304
-135.876
-197.806
-198.243
-198.363
-198.155
-197.641
-196.81
-195.668
-194.211
-192.432
-190.357
-187.962
-185.262
-182.291
-179.056
-175.546
-171.776
-167.751
-163.501
-159.016
-154.31
-149.417
-144.323
-139.051
-133.615
-128.041
-122.336
-116.485
-110.525
-104.461
-98.3274
-92.1232
-85.8694
-79.5874
-73.2774
-66.9676
-60.66
-54.3779
-48.1334
-41.9346
-35.7983
-29.7361
-23.7714
-17.9014
-12.1467
-6.5211
-1.02712
4.31943
9.51023
14.5302
19.3725
24.0324
28.4989
32.7612
36.8179
40.6586
44.2783
47.6718
50.8339
53.7639
56.4573
58.9139
-186.49
-186.842
-186.924
-186.705
-186.186
-185.376
-184.269
-182.868
-181.161
-179.159
-176.859
-174.272
-171.436
-168.355
-165.017
-161.425
-157.593
-153.535
-149.255
-144.768
-140.09
-135.227
-130.193
-124.999
-119.659
-114.185
-108.608
-102.93
-97.1578
-91.31
-85.3985
-79.4387
-73.4456
-67.431
-61.4112
-55.3956
-49.4001
-43.4386
-37.5225
-31.6644
-25.8777
-20.1782
-14.5731
-9.07603
-3.69925
1.55024
6.66111
11.6227
16.4234
21.0557
25.5131
29.7864
33.8664
37.7501
41.4282
44.8961
48.147
51.1786
53.9876
56.5711
58.9279
-182.028
-182.468
-182.568
-182.361
-181.864
-181.091
-180.006
-178.622
-176.92
-174.921
-172.656
-170.126
-167.319
-164.242
-160.917
-157.355
-153.564
-149.556
-145.338
-140.924
-136.327
-131.553
-126.616
-121.527
-116.296
-110.933
-105.459
-99.887
-94.2277
-88.4952
-82.7031
-76.8662
-70.9981
-65.1125
-59.2224
-53.3394
-47.4767
-41.6471
-35.8635
-30.1383
-24.4847
-18.9157
-13.4413
-8.07346
-2.82252
2.30294
7.29219
12.1349
16.8207
21.3425
25.6917
29.8613
33.8435
37.6336
41.2238
44.609
47.7837
50.7443
53.488
56.0116
58.3151
-174.517
-174.884
-174.954
-174.733
-174.216
-173.387
-172.266
-170.924
-169.325
-167.46
-165.313
-162.903
-160.228
-157.299
-154.124
-150.713
-147.076
-143.224
-139.167
-134.919
-130.491
-125.894
-121.138
-116.233
-111.192
-106.024
-100.747
-95.3725
-89.9139
-84.3836
-78.7942
-73.1607
-67.4969
-61.8166
-56.1307
-50.4514
-44.7905
-39.1598
-33.5729
-28.0419
-22.5793
-17.1977
-11.9077
-6.72008
-1.64462
3.31087
8.13503
12.8185
17.3502
21.725
25.9331
29.9676
33.8229
37.4927
40.9718
44.2524
47.3317
50.2034
52.8662
55.3163
57.5546
-167.351
-167.689
-167.748
-167.532
-167.037
-166.262
-165.234
-163.885
-162.286
-160.441
-158.341
-155.99
-153.392
-150.555
-147.484
-144.187
-140.672
-136.948
-133.027
-128.924
-124.648
-120.213
-115.624
-110.89
-106.025
-101.039
-95.9472
-90.7631
-85.498
-80.1642
-74.7718
-69.338
-63.8752
-58.3991
-52.9172
-47.4419
-41.9831
-36.5524
-31.1641
-25.8293
-20.5599
-15.3694
-10.2672
-5.26398
-0.369231
4.41241
9.06555
13.5852
17.9568
22.1785
26.2398
30.1333
33.8551
37.3978
40.7594
43.9296
46.9082
49.6844
52.2612
54.632
56.7999
-159.866
-160.169
-160.204
-159.974
-159.476
-158.717
-157.697
-156.409
-154.866
-153.077
-151.045
-148.771
-146.259
-143.521
-140.561
-137.383
-133.994
-130.401
-126.62
-122.666
-118.549
-114.282
-109.868
-105.312
-100.629
-95.83
-90.9276
-85.9405
-80.8756
-75.745
-70.5543
-65.3263
-60.0696
-54.806
-49.5356
-44.2715
-39.0221
-33.7978
-28.6151
-23.4828
-18.413
-13.4202
-8.51164
-3.69971
1.00707
5.6106
10.088
14.44
18.6448
22.7089
26.6177
30.364
33.9479
37.3568
40.5983
43.6529
46.5275
49.2038
51.6926
53.9789
56.074
-152.173
-152.438
-152.449
-152.202
-151.704
-150.959
-149.959
-148.703
-147.205
-145.477
-143.516
-141.322
-138.897
-136.263
-133.42
-130.365
-127.106
-123.643
-120.001
-116.201
-112.248
-108.155
-103.923
-99.5502
-95.0555
-90.4445
-85.7368
-80.9524
-76.0938
-71.1707
-66.1843
-61.1649
-56.1184
-51.0754
-46.0226
-40.9787
-35.947
-30.9347
-25.963
-21.0411
-16.1764
-11.3862
-6.67677
-2.06227
2.45052
6.87226
11.1702
15.3526
19.3855
23.2862
27.0369
30.6314
34.0717
37.3416
40.4603
43.3963
46.167
48.7395
51.1364
53.333
55.3533
-144.297
-144.512
-144.501
-144.228
-143.735
-143.004
-142.03
-140.783
-139.318
-137.666
-135.784
-133.665
-131.327
-128.799
-126.087
-123.157
-120.028
-116.69
-113.197
-109.556
-105.765
-101.855
-97.8226
-93.6288
-89.3253
-84.9065
-80.4004
-75.8237
-71.1659
-66.4553
-61.667
-56.862
-52.0226
-47.214
-42.3828
-37.5793
-32.7858
-27.9764
-23.2168
-18.5246
-13.8599
-9.27212
-4.77501
-0.355683
3.94884
8.19414
12.3047
16.3237
20.1703
23.9051
27.4885
30.9183
34.22
37.3415
40.3468
43.1581
45.8317
48.2857
50.5908
52.6861
54.6354
-136.312
-136.448
-136.426
-136.122
-135.638
-134.889
-133.959
-132.648
-131.262
-129.797
-127.92
-125.878
-123.593
-121.155
-118.674
-115.796
-112.794
-109.648
-106.279
-102.813
-99.1016
-95.3556
-91.6217
-87.5094
-83.4093
-79.2608
-74.8936
-70.56
-65.995
-61.6142
-56.8994
-52.4327
-47.6871
-43.2138
-38.5655
-34.0321
-29.5377
-24.8129
-20.2722
-15.8581
-11.311
-6.97529
-2.72858
1.57587
5.52645
9.73693
13.5231
17.4967
21.0197
24.6626
28.0957
31.2643
34.5445
37.4028
40.431
42.9908
45.6739
47.8608
50.2002
52.0949
54.0809
61.1348
63.1187
64.8659
66.3773
67.6522
68.6949
69.5094
70.1005
70.4728
70.6323
70.6013
70.4223
70.0892
69.5611
68.8636
68.0032
66.9436
65.694
64.2765
62.7069
60.9973
59.1579
57.2013
55.1382
52.9809
50.7423
48.4355
46.0749
43.6727
41.2445
38.8036
36.365
33.944
31.5541
29.2123
26.9314
24.7266
22.6115
20.6096
18.7347
17.0141
15.4508
14.0585
12.8572
11.8615
11.0808
10.5247
10.1952
10.0871
10.1828
10.4492
10.8337
11.259
11.6236
11.8218
11.1612
9.66273
8.14014
6.88908
5.95489
5.13601
61.0584
62.9631
64.642
66.0955
67.3238
68.3288
69.1142
69.6838
70.042
70.191
70.1449
69.9621
69.6437
69.1392
68.4608
67.6146
66.5807
65.3663
63.9889
62.4633
60.8008
59.0122
57.1091
55.104
53.0086
50.8349
48.5954
46.3027
43.9697
41.6101
39.237
36.8647
34.5074
32.1788
29.8939
27.667
25.5124
23.442
21.4614
19.5985
17.861
16.2822
14.8738
13.6483
12.6173
11.7912
11.1788
10.7823
10.597
10.6072
10.7828
11.0753
11.4109
11.6925
11.7533
11.1269
9.80999
8.45875
7.39093
6.58664
5.76111
60.3973
62.2601
63.903
65.3272
66.5325
67.5215
68.2973
68.8642
69.2246
69.3756
69.3396
69.181
68.886
68.4035
67.7504
66.9347
65.9433
64.7814
63.4621
61.9984
60.4013
58.6812
56.8499
54.9188
52.8988
50.8019
48.6399
46.4252
44.1699
41.8874
39.5906
37.2931
35.0082
32.7499
30.5316
28.3674
26.2703
24.2525
22.3256
20.5115
18.8265
17.2867
15.9022
14.6842
13.6441
12.7919
12.1343
11.6728
11.402
11.3076
11.3605
11.5161
11.7012
11.8169
11.6917
11.0518
9.9012
8.67389
7.64446
6.80289
5.96645
59.5787
61.3914
62.9911
64.3808
65.5584
66.5279
67.2903
67.851
68.2085
68.3585
68.338
68.2088
67.9384
67.4844
66.8611
66.0781
65.1292
64.0208
62.7612
61.3623
59.8342
58.1864
56.4314
54.5795
52.6407
50.6281
48.552
46.4248
44.258
42.0646
39.8569
37.648
35.4507
33.2783
31.1435
29.06
27.04
25.0961
23.241
21.4908
19.8602
18.3622
17.0068
15.802
14.7586
13.8844
13.1838
12.656
12.2942
12.0837
11.9967
11.9909
11.9998
11.9323
11.6539
11.0098
10.0098
8.90539
7.9052
7.03605
6.2099
58.7599
60.5185
62.071
63.4229
64.5688
65.5159
66.2608
66.8118
67.1624
67.3121
67.3089
67.2092
66.9612
66.5369
65.9442
65.1958
64.2884
63.2325
62.0314
60.6971
59.2388
57.6633
55.9859
54.2152
52.3595
50.4336
48.4457
46.4091
44.3328
42.2313
40.1148
37.9971
35.889
33.8043
31.7544
29.7528
27.8108
25.9409
24.1542
22.4647
20.8846
19.4264
18.0994
16.9108
15.8668
14.973
14.2321
13.6411
13.1914
12.8679
12.6441
12.481
12.3223
12.0948
11.7068
11.071
10.1926
9.20764
8.25464
7.37907
6.54976
57.9652
59.6682
61.1699
62.4837
63.5949
64.519
65.2443
65.7853
66.1284
66.2825
66.2959
66.2233
65.9957
65.6011
65.0385
64.3267
63.4599
62.4566
61.3127
60.0429
58.6549
57.151
55.5521
53.8637
52.0909
50.2536
48.3545
46.4099
44.4247
42.4163
40.3916
38.3659
36.3469
34.3504
32.3847
30.4651
28.6004
26.8034
25.0822
23.4509
21.9188
20.4983
19.1968
18.0203
16.9731
16.0569
15.2739
14.6197
14.0846
13.6543
13.304
12.9998
12.6962
12.3391
11.8677
11.2331
10.4363
9.54773
8.65141
7.7906
6.96169
57.1719
58.818
60.266
61.5412
62.6162
63.5185
64.2245
64.7554
65.0916
65.2543
65.2834
65.2357
65.0281
64.6625
64.1298
63.4555
62.6295
61.6794
60.591
59.3865
58.0708
56.6387
55.1194
53.5136
51.8236
50.0769
48.268
46.417
44.5232
42.6096
40.6776
38.7448
36.8149
34.9065
33.0242
31.1863
29.3986
27.6736
26.0156
24.4402
22.9532
21.5683
20.2902
19.1235
18.0703
17.1311
16.3074
15.5923
14.9761
14.4479
13.9843
13.5581
13.133
12.6707
12.1315
11.4872
10.7359
9.91411
9.07014
8.23525
7.41756
56.3698
57.964
59.3503
60.592
61.6232
62.5089
63.1919
63.7163
64.044
64.2235
64.2623
64.2407
64.0499
63.7153
63.2096
62.5754
61.786
60.8975
59.856
58.7197
57.4813
56.1151
54.6851
53.1615
51.5462
49.8977
48.1767
46.4248
44.618
42.8044
40.9629
39.1271
37.2831
35.4651
33.661
31.9064
30.1939
28.543
26.9436
25.4239
23.9752
22.6253
21.3678
20.2126
19.1522
18.1887
17.3298
16.5597
15.8683
15.255
14.6922
14.1642
13.6374
13.0903
12.4925
11.8313
11.0999
10.3201
9.51318
8.70426
7.90417
55.5998
57.2522
58.4768
59.7916
60.6684
61.6157
62.1693
62.7813
63.0204
63.3147
63.2627
63.3454
63.0921
62.8769
62.3219
61.8002
60.9457
60.2219
59.1768
58.1167
56.9902
55.584
54.3141
52.9041
51.2759
49.8001
48.0966
46.5118
44.7193
43.0655
41.2515
39.565
37.7592
36.0806
34.2991
32.6665
30.9856
29.4463
27.8663
26.4372
24.9847
23.6967
22.4376
21.3043
20.2392
19.2345
18.357
17.5358
16.768
16.0994
15.4392
14.8397
14.2172
13.6103
12.9514
12.2789
11.5434
10.7991
10.008
9.21159
8.4324
4.33371
3.60687
2.92631
2.23875
1.55039
0.901218
0.303425
-0.234019
-0.689958
-1.05677
-1.33042
-1.51648
-1.61858
-1.62958
-1.57753
-1.48756
-1.37379
-1.25489
-1.14565
-1.05392
-0.982969
-0.928102
-0.886453
-0.853395
-0.824068
-0.788967
-0.754803
-0.71067
-0.654735
-0.586618
-0.503546
-0.404843
-0.290815
-0.160884
-0.0183836
0.135316
0.295773
0.460299
0.624756
0.783357
0.931167
1.06389
1.17938
1.27298
1.34152
1.38506
1.40256
1.39521
1.36374
1.31117
1.24139
1.1576
1.06258
0.961684
0.855499
0.746539
0.636406
0.522353
0.394954
0.23887
0.0595604
4.91992
4.23032
3.60991
2.96902
2.31048
1.6928
1.12472
0.608832
0.171321
-0.17691
-0.431297
-0.588728
-0.649556
-0.629655
-0.556445
-0.456294
-0.340371
-0.224456
-0.120984
-0.0367893
0.0270188
0.073382
0.10632
0.13043
0.147051
0.171046
0.190656
0.22101
0.261085
0.313455
0.379826
0.461393
0.558603
0.670981
0.796772
0.933763
1.07866
1.2271
1.3755
1.52005
1.65631
1.77886
1.88419
1.96898
2.03031
2.06693
2.0783
2.06458
2.02687
1.96752
1.88961
1.79654
1.69121
1.57928
1.46155
1.34175
1.21754
1.09055
0.954951
0.805162
0.635783
5.16204
4.47796
3.84523
3.15553
2.4455
1.80978
1.22089
0.668878
0.194369
-0.192087
-0.489728
-0.697028
-0.816167
-0.86285
-0.840845
-0.77004
-0.656742
-0.526102
-0.410042
-0.316552
-0.246148
-0.195052
-0.158269
-0.130885
-0.103248
-0.0823452
-0.0507723
-0.0142728
0.0331586
0.0923083
0.164835
0.251816
0.353492
0.469044
0.596797
0.734363
0.878743
1.02631
1.17302
1.31442
1.44616
1.56408
1.66446
1.74398
1.80008
1.83158
1.83811
1.82057
1.78052
1.72065
1.64407
1.55474
1.45624
1.35208
1.24463
1.13594
1.02542
0.909916
0.783336
0.637054
0.460127
5.43017
4.73521
4.07213
3.36449
2.65588
2.02113
1.41504
0.838601
0.360042
-0.019835
-0.316649
-0.519048
-0.623321
-0.644333
-0.588045
-0.468079
-0.327788
-0.217512
-0.112498
-0.0194447
0.0544175
0.108897
0.147197
0.173958
0.19351
0.206642
0.224711
0.247369
0.278763
0.320898
0.3757
0.444915
0.52908
0.627508
0.73874
0.860571
0.990025
1.12383
1.25818
1.38908
1.51225
1.62383
1.72018
1.79833
1.85576
1.8913
1.90439
1.89573
1.86646
1.81901
1.75541
1.67895
1.59207
1.49756
1.39636
1.2904
1.18099
1.06842
0.950017
0.81916
0.666522
5.767
5.04312
4.34703
3.63017
2.91987
2.25929
1.62615
1.04368
0.564283
0.169922
-0.153152
-0.37079
-0.484328
-0.522243
-0.489997
-0.40646
-0.304451
-0.183799
-0.0776021
0.0150691
0.0840439
0.134612
0.171071
0.19878
0.219973
0.237661
0.257761
0.282888
0.315258
0.356163
0.408202
0.473029
0.551311
0.642318
0.745082
0.857343
0.976718
1.10008
1.22407
1.34503
1.45898
1.56257
1.65209
1.72513
1.7789
1.81252
1.82489
1.81697
1.78915
1.74394
1.68322
1.61037
1.52847
1.44019
1.3472
1.25222
1.15808
1.05909
0.950332
0.829716
0.6954
6.16646
5.40991
4.6809
3.95306
3.23662
2.55468
1.90564
1.31055
0.802885
0.377486
0.0403634
-0.181858
-0.314514
-0.375414
-0.351207
-0.265715
-0.156567
-0.0423146
0.0635501
0.142072
0.198278
0.239408
0.268325
0.290436
0.305418
0.318633
0.332013
0.350875
0.375768
0.407905
0.450277
0.505009
0.572508
0.652099
0.74283
0.842843
0.949497
1.06032
1.17198
1.28152
1.38489
1.47962
1.56171
1.62973
1.68038
1.71364
1.72776
1.72463
1.70378
1.66823
1.61926
1.56034
1.49409
1.42322
1.35005
1.2735
1.19112
1.10469
1.01013
0.902782
0.776588
6.61989
5.84559
5.09173
4.35076
3.6259
2.93312
2.27686
1.67417
1.14227
0.690366
0.330464
0.0769391
-0.0886889
-0.161626
-0.139415
-0.0660966
0.0330629
0.137322
0.231066
0.299271
0.337486
0.364178
0.379751
0.393622
0.399745
0.405996
0.410681
0.421869
0.438744
0.459955
0.492133
0.535723
0.592168
0.659854
0.738585
0.825755
0.91979
1.01778
1.11713
1.21535
1.30827
1.39428
1.46896
1.53215
1.57941
1.6123
1.62788
1.6293
1.61488
1.58858
1.55039
1.50434
1.45164
1.39394
1.33346
1.27088
1.2048
1.13479
1.05695
0.966745
0.856567
7.11425
6.33856
5.57625
4.83304
4.10402
3.41336
2.75995
2.16527
1.62776
1.16469
0.787021
0.506672
0.298416
0.198135
0.18553
0.22428
0.311585
0.385535
0.448769
0.499467
0.509459
0.512987
0.506861
0.51191
0.503962
0.502618
0.493586
0.497488
0.506463
0.512978
0.533459
0.566498
0.614136
0.67039
0.737789
0.813513
0.895405
0.981816
1.0702
1.15918
1.24246
1.32141
1.38876
1.44846
1.49156
1.52435
1.54001
1.54563
1.53541
1.51657
1.48545
1.44909
1.40805
1.36175
1.31383
1.26449
1.21296
1.15935
1.09822
1.0266
0.933927
7.64155
6.88525
6.11908
5.37995
4.65301
3.983
3.3459
2.79622
2.26809
1.82374
1.46264
1.20023
0.917613
0.786572
0.743512
0.713666
0.763824
0.686815
0.688368
0.7652
0.709935
0.689577
0.637157
0.663512
0.617086
0.622543
0.573869
0.576917
0.589333
0.569969
0.566004
0.597906
0.643692
0.684565
0.743284
0.808545
0.877863
0.956784
1.03587
1.12472
1.19265
1.27583
1.32581
1.39423
1.42195
1.46423
1.46543
1.4891
1.46957
1.46554
1.42908
1.39513
1.36632
1.3304
1.29607
1.25841
1.2188
1.18392
1.13562
1.08974
1.00822
4.89195
-4.39754
-5.71388
14.8356
5.76557
19.3951
17.952
10.7079
11.5237
29.0684
1.5048
23.7451
18.0621
2.78505
21.6896
-102.229
20.5256
12.0558
1.31164
17.3922
15.0704
3.172
1.00468
20.0915
11.4293
17.0849
17.4556
9.36369
20.2751
6.8439
10.431
16.6103
28.4029
1.60117
23.022
0.736197
0.67309
57.3574
18.6069
17.4782
7.72147
-2.82081
18.0021
-88.1739
0.275303
31.6176
11.6019
3.0216
16.1272
25.396
-3.69617
-45.8256
17.0169
9.51928
13.9043
16.1551
6.95081
7.41396
0.846471
-31.3904
3.68614
15.4877
17.0747
-8.17529
-25.8043
14.8524
0.719694
8.66131
18.8228
18.0577
15.3487
59.5219
6.55145
13.4265
13.2802
6.28525
-12.6459
44.415
17.0672
28.1534
-0.764911
16.472
16.6719
-36.715
17.9494
50.2626
11.9935
1.67093
15.3073
1.58734
-13.8789
17.0511
5.12612
-31.8396
-37.0971
5.62704
44.1947
9.95788
25.4409
-101.512
14.4812
16.1058
25.0295
16.9301
18.059
16.904
15.1092
39.6567
19.7189
-77.9806
-109.124
15.9017
0.446501
1.32572
5.75504
2.08733
0.973804
19.4803
-7.68683
11.3099
12.9141
0.0447182
11.2911
-117.831
-26.7004
10.5522
15.289
-47.1658
-34.9385
17.8075
21.2296
-8.00897
5.34461
10.9776
2.55168
10.764
17.9629
-53.1638
-30.9113
11.6537
9.57017
-52.9207
14.8108
49.0103
1.39669
12.4503
16.5712
1.40077
31.7521
-0.690266
16.2015
16.1797
59.0997
-33.6424
-59.2653
8.86959
8.27189
-27.9026
16.5071
0.635278
16.6181
26.361
17.3446
12.5014
14.8979
13.1129
6.80146
9.66959
17.0692
0.279958
-1.92786
1.53266
5.68614
17.3578
1.34076
1.33458
1.10206
8.85104
22.3971
1.95232
1.77903
-1.2685
-31.0703
9.71703
6.45214
0.741967
-10.5041
52.1164
9.82191
11.903
25.4184
20.1917
-17.0116
-39.2481
16.5085
-31.712
4.10173
0.425728
21.2736
0.698455
9.84479
14.9686
13.3801
-58.7961
-1.77625
20.8038
8.47615
16.0517
-45.529
0.811814
41.2248
-5.76721
16.3323
-117.371
10.971
-77.6908
-65.3354
1.76841
33.3564
1.74537
11.3796
40.1017
11.9836
16.6401
0.976788
-7.72098
-9.27621
11.7314
16.9445
59.7176
1.41844
21.3898
-5.24811
-37.6846
13.6151
19.2397
3.14585
-57.2735
-46.7044
19.2544
13.3034
8.66903
10.8305
15.8819
-123.57
16.6492
8.20646
-98.5943
23.8881
17.1978
8.82824
23.7102
1.25606
8.44036
11.3461
18.6075
25.3222
15.1465
6.57699
1.88115
15.6113
9.5389
-64.653
18.509
0.609832
12.7811
17.5015
1.01622
17.5234
0.999639
24.015
1.14377
22.7823
11.388
52.9098
9.85026
14.2744
10.7566
15.9577
20.6747
50.2823
9.71066
-71.9761
15.2715
14.8649
18.5777
16.9604
-61.815
7.95893
7.91095
-26.1195
40.4849
14.3973
16.8935
35.0819
17.3696
9.5203
4.88649
-0.871183
16.299
10.9589
5.47042
48.5339
-3.78434
5.05297
-78.8737
21.7902
18.6017
19.3502
-100.643
9.75975
11.8977
11.4746
-12.4911
16.4241
14.1519
0.712092
1.34835
7.03145
1.83771
16.4237
3.5327
15.1856
14.9899
-26.8392
1.83156
15.3973
0.909919
-90.5018
6.42327
-27.2209
-44.5127
-101.287
2.04248
1.49739
16.805
0.681089
0.79917
-124.136
35.0548
15.0162
14.7663
11.9865
11.4931
49.7319
11.2464
-9.36319
18.7279
-70.7581
14.9429
1.32678
-45.4329
-113.809
10.6977
-61.8528
8.66706
2.72595
14.4472
1.7269
2.40876
10.1827
0.407785
0.933569
-6.72375
1.01958
16.0209
6.77495
-113.892
-33.9585
3.85257
16.5683
-26.1884
-49.6553
12.6451
1.57451
15.7059
-5.85417
7.39946
1.46287
-73.8784
0.813007
-79.8047
20.218
-89.2334
11.2392
4.77877
20.8963
1.16277
-117.384
-27.6668
47.3877
50.1709
3.25498
0.779879
17.1762
30.2315
16.6939
-0.423254
12.0418
-10.2763
17.2413
18.779
21.9276
21.3986
-7.66918
-46.7395
12.0543
-83.0004
0.28905
-11.298
1.93208
-61.9335
-2.0219
18.7286
-124.164
9.69896
9.39485
23.2324
-52.9062
16.9905
18.1548
1.41789
17.693
9.99451
14.3311
1.19562
35.8862
-26.1397
-51.6296
9.67179
-61.0732
9.22034
-54.343
16.7869
15.6537
0.861314
4.03668
-93.3816
-1.78975
1.66483
-10.8403
-62.0648
-59.6628
18.3057
5.51299
-41.4796
-50.0771
17.0169
2.49962
-32.053
22.8164
12.9894
36.4949
-39.9058
-0.301602
-9.65531
0.584694
9.09124
-90.0518
2.31276
10.3611
19.8274
47.0403
3.54808
44.0459
2.06561
17.3789
1.74422
1.4248
13.7297
12.3428
0.174927
1.32361
16.7541
2.41502
1.40083
2.67617
1.3915
2.03987
1.31331
8.33357
4.81209
15.7559
15.6475
-110.913
10.0347
-67.8745
-106.949
16.1419
0.457706
2.3301
19.0686
3.76071
1.33434
16.282
16.9739
15.0385
5.26264
-37.5671
10.4971
26.5264
13.6213
13.9568
15.5262
5.58014
0.706501
13.4813
19.1831
9.57957
1.36711
13.8331
13.5622
-12.722
12.6586
-0.376371
-3.38749
-4.26141
17.1168
19.9597
9.4237
22.4434
3.41739
2.84184
48.7145
-22.055
-5.47666
21.9022
8.33137
1.14924
1.38826
-80.2748
-27.3652
20.9178
3.17417
10.3605
0.794312
-21.1059
18.6344
12.1308
-27.3447
-82.5183
12.6978
-17.8164
-54.1599
4.6171
-105.433
9.32396
9.47449
9.11742
-32.2501
13.9041
-80.8652
-2.42918
13.0163
0.887378
17.2106
-0.31076
14.927
12.8088
31.7401
2.90009
0.86175
14.8362
7.08701
0.692744
-46.6669
-30.628
8.07646
-34.1745
4.7673
28.6603
1.56441
9.4332
-95.6871
9.93358
8.53864
14.3755
1.40485
52.1557
1.69772
8.14899
8.55068
1.28858
1.17065
13.6105
15.6404
15.9268
9.54092
10.2407
29.2334
-76.3496
8.14471
17.7871
-32.0556
0.653876
-87.1082
13.6648
0.715542
17.6534
-55.2821
4.29049
-21.0534
0.899446
0.755247
2.83321
-106.047
20.5145
17.2717
6.5727
15.9921
-26.9341
-22.4026
-6.40992
10.0478
9.09174
5.00722
16.2397
-0.249565
0.693227
16.1743
23.2147
1.37574
-58.3623
20.8984
1.55621
20.4873
-8.30781
17.2175
36.3355
6.77154
29.5151
18.4685
-30.1393
-21.5384
-4.65581
19.0261
10.6266
-32.4622
16.0534
12.5192
4.67053
5.60275
0.691987
-30.9271
40.586
4.09295
2.07773
0.931301
-89.5717
9.56935
23.3358
15.6709
1.07551
5.35083
-23.0516
14.4636
12.3484
6.04899
1.23968
-7.01664
15.2208
2.18072
10.9655
-21.0634
1.33495
39.1173
0.924809
0.187001
8.33292
57.263
17.0263
16.6744
1.26111
10.2323
7.23041
8.86914
10.0371
-115.882
2.34898
-34.9202
30.5347
17.5318
8.49796
19.3031
-6.23109
-10.9021
1.29457
3.95048
1.34907
12.8878
-2.59759
18.5296
-88.5893
16.7189
6.65806
2.10385
-3.47799
2.89409
-7.14942
10.634
3.33136
0.741212
19.2018
-120.864
15.3788
17.0496
10.8301
-4.31286
18.864
3.85366
-21.3674
15.5643
-14.0613
-97.535
17.4584
8.92232
14.5697
-63.2553
-6.49701
15.7366
42.8244
12.5861
9.08421
11.6103
-111.066
-126.128
16.5247
-1.35961
-11.9445
1.40268
17.7527
6.9237
-11.4472
13.7232
15.3359
0.0757899
18.5023
19.5899
8.55457
14.8613
-3.03444
13.3737
-5.54948
23.1468
1.66747
-4.41802
42.6719
1.06231
6.61238
21.8894
4.3536
-45.2759
24.4794
-83.8002
20.8554
1.31691
-19.63
10.1515
-9.87129
0.740464
12.9188
13.1701
-93.675
-40.1879
13.508
-65.1146
-9.13221
53.668
-16.2712
-20.2794
21.3418
0.702596
6.00016
11.862
-55.5834
-22.9785
-4.71571
-4.30257
-6.56371
0.959956
22.5943
19.0853
13.355
-121.694
-44.4888
27.4957
2.30579
-112.214
11.1461
14.4052
10.2509
1.06174
4.78822
1.12397
-15.0641
21.38
-121.305
-17.2455
-85.8143
-98.4535
18.8122
25.3321
-43.6733
26.1805
14.5072
12.2615
10.9732
10.2556
26.0447
17.8971
2.22708
-51.631
-30.2707
24.5681
2.23323
3.52565
13.8073
1.34701
12.9049
-53.5288
1.26643
49.2139
5.06888
22.2625
11.494
18.5665
15.6854
-76.871
13.1912
44.7263
0.881415
0.946384
32.2574
61.0775
12.624
13.2466
25.0437
-50.6287
-15.7195
17.2558
10.0749
-91.5415
27.4511
17.3777
-63.114
15.7023
3.65761
1.31529
6.18875
-16.32
53.8256
0.729532
-8.63775
-0.409329
17.7898
0.333145
9.56751
14.7915
17.2492
12.262
0.895491
17.2651
0.649374
30.2073
0.119258
11.3488
10.2792
16.6171
8.44385
-49.9122
9.77718
18.0911
-29.637
-70.8244
34.1089
1.48893
7.51808
16.6685
34.3928
-84.6599
9.52579
-2.96109
11.1163
16.3081
-88.3855
17.157
9.65227
49.9998
29.9188
-19.5592
4.3003
15.8308
17.0966
-66.7299
-4.51112
10.1566
14.8543
1.17949
17.4691
-127.832
7.56542
0.884941
10.563
18.721
-0.0886793
14.6982
22.9759
24.8481
4.56009
-0.767033
17.7222
20.6493
17.4618
20.3133
10.8044
18.1338
-70.5693
2.419
18.0815
-25.6607
14.0954
7.1163
19.6076
11.6436
-62.217
10.8314
5.08466
18.8432
-20.7661
16.6829
-24.7323
-104.249
1.7467
1.25769
-47.7199
16.1436
18.384
-21.4578
-104.668
1.22484
-14.2578
15.8855
-82.6511
13.385
16.5692
18.2086
-18.5142
6.86544
9.42738
-28.8169
17.3857
8.45701
-84.9981
10.4223
-119.398
47.0683
11.6679
18.1986
6.38909
16.7575
-9.18301
-6.28907
20.0807
-18.5142
5.76365
12.8628
-38.1793
4.81125
17.5236
-49.2925
14.8499
1.93594
-67.4939
-14.0978
17.1703
19.2904
14.7565
62.1132
8.53012
-2.39663
-23.8788
15.6085
-11.7512
15.3935
5.38351
15.481
0.723288
9.91058
0.678901
-13.9887
58.9174
7.36076
59.2862
6.65553
12.8475
3.99892
20.1153
-9.44093
17.7797
11.1329
1.5769
59.7993
16.8143
9.16254
-8.52746
0.588632
-108.989
15.8198
-5.66661
10.5925
-21.8933
-61.8785
0.945531
-73.5043
9.56149
2.90755
-25.7901
18.3235
15.7428
14.1076
12.3726
21.4093
16.1617
12.7442
17.6069
1.14692
-68.3369
17.5833
20.2264
17.646
7.97337
-73.1116
1.29375
-24.5784
15.7137
-43.4241
0.826294
25.0118
-67.3632
16.995
0.681007
40.1387
1.36825
22.7915
4.08733
1.77505
15.9547
10.4881
-107.417
13.6814
-1.30429
-39.2232
1.39285
15.8343
11.0011
30.9123
2.77722
1.26875
-79.2072
15.8774
16.4256
16.9919
-20.0883
-35.9574
13.9466
12.717
15.0973
1.27673
1.61334
49.3076
0.526173
-65.8202
2.07055
-59.0725
0.574467
0.746092
32.3127
50.9728
13.0459
60.0795
45.4542
18.3296
17.5623
6.28238
14.5041
18.5299
2.19865
1.90734
19.6677
1.62525
10.2852
19.1579
9.04778
18.4861
28.7732
1.47751
-5.49773
-120.867
17.821
12.1392
-50.6857
7.69699
22.424
14.035
10.9938
2.31809
17.3556
-2.24188
1.73098
30.3758
12.813
0.809896
16.7589
17.4329
15.6042
5.76827
15.4978
16.9752
-3.59132
18.497
20.6011
-76.5673
-28.8946
-18.5714
14.6759
1.51961
-50.7076
17.0431
1.45533
1.17107
-126.115
0.708935
16.6839
8.70416
31.38
-1.11958
1.13578
9.16071
46.3762
1.57045
16.0914
0.99922
16.5775
53.9228
14.2017
-21.0876
16.7707
0.882669
-69.5711
15.6847
42.3518
4.13313
13.0677
18.7236
29.5299
10.9768
19.7031
1.92898
16.1263
10.6608
-123.283
4.40643
18.6182
19.9484
-65.0924
-82.4262
16.7161
18.1407
12.485
11.3598
-59.6556
24.6127
-58.8461
17.8235
11.3182
17.2871
-12.0918
5.65502
17.4337
0.747217
1.41164
-89.4229
-62.3291
8.23226
-2.74451
-74.7557
18.2476
18.3909
18.4369
7.49041
18.9226
2.41009
18.2051
9.56407
-1.8165
-25.2106
2.406
12.7465
1.3937
36.3473
16.6805
19.6205
-104.156
15.5724
15.5074
20.0782
12.4717
-73.6967
-7.01321
1.6361
17.186
17.0094
17.6873
-4.18754
20.2312
-17.8654
8.381
8.2328
13.5605
9.35436
15.5796
10.9739
10.6518
9.77201
-1.71068
-10.4566
2.76684
-86.8399
11.887
16.7528
0.935758
-91.3425
41.1941
2.6705
23.7032
15.95
13.0612
11.8565
16.638
60.774
-8.29319
1.05196
-94.9238
16.8654
27.8933
-37.1915
3.50836
-51.7696
1.19643
30.9548
1.4789
16.6511
-22.9558
-13.3046
-38.1918
-8.52752
17.7956
1.35595
7.75214
22.4863
13.2906
19.523
8.84735
56.7578
20.4714
16.6101
43.9116
10.7943
15.6253
18.4345