/*--------------------------------*- C++ -*----------------------------------*\
| =========                 |                                                 |
| \\      /  F ield         | OpenFOAM: The Open Source CFD Toolbox           |
|  \\    /   O peration     | Version:  2.3.1                                 |
|   \\  /    A nd           | Web:      www.OpenFOAM.org                      |
|    \\/     M anipulation  |                                                 |
\*---------------------------------------------------------------------------*/
FoamFile
{
    version     2.0;
    format      ascii;
    class       surfaceScalarField;
    location    "0.6";
    object      phi;
}
// * * * * * * * * * * * * * * * * * * * * * * * * * * * * * * * * * * * * * //

dimensions      [0 3 -1 0 0 0 0];

internalField   nonuniform List<scalar> 
15416
(
-0.00070153
-3.01745e-06
0.000707495
-0.000698201
-3.32963e-06
-0.000695079
-3.12493e-06
-0.000692972
-2.10889e-06
-0.000692182
-7.92582e-07
-0.000692976
7.90102e-07
-0.00069604
3.0613e-06
-0.000701831
5.78817e-06
-0.00071042
8.5851e-06
-0.000722159
1.17354e-05
-0.000737451
1.52874e-05
-0.000756496
1.904e-05
-0.000779412
2.29108e-05
-0.000806264
2.6847e-05
-0.000837132
3.08618e-05
-0.000871926
3.47871e-05
-0.00091045
3.85175e-05
-0.000952492
4.20347e-05
-0.000997904
4.54045e-05
-0.00104636
4.84468e-05
-0.00109759
5.12233e-05
-0.00115135
5.37462e-05
-0.00120727
5.59126e-05
-0.00126499
5.77164e-05
-0.00132428
5.92782e-05
-0.00138489
6.06013e-05
-0.00144653
6.1628e-05
-0.00150888
6.23386e-05
-0.00157172
6.28312e-05
-0.00163488
6.31472e-05
-0.00169806
6.31759e-05
-0.00176107
6.29997e-05
-0.00182381
6.27314e-05
-0.00188605
6.22269e-05
-0.00194759
6.15294e-05
-0.00200838
6.07813e-05
-0.00206832
5.99244e-05
-0.00212721
5.88879e-05
-0.00218485
5.7627e-05
-0.00224121
5.63505e-05
-0.00229628
5.50597e-05
-0.00234988
5.35925e-05
-0.00240189
5.20091e-05
-0.00245237
5.04712e-05
-0.00250103
4.86557e-05
-0.00254785
4.68147e-05
-0.00259294
4.50831e-05
-0.0026363
4.3354e-05
-0.00267771
4.14034e-05
-0.0027172
3.94892e-05
-0.00275466
3.74556e-05
-0.00279027
3.56096e-05
-0.00282355
3.32733e-05
-0.00285494
3.13921e-05
-0.00288425
2.93045e-05
-0.00291183
2.75756e-05
-0.00293673
2.4903e-05
-0.00295938
2.2649e-05
-0.00298014
2.07518e-05
-0.00299915
1.90147e-05
1.73176e-05
-0.00301647
-0.000404013
-4.59659e-06
0.000405594
-0.000404637
-2.70252e-06
-0.000407767
7.34106e-09
-0.0004135
3.62643e-06
-0.000423734
9.44463e-06
-0.000437997
1.50553e-05
-0.000456493
2.15602e-05
-0.000478828
2.81263e-05
-0.000505729
3.5488e-05
-0.000536681
4.26903e-05
-0.000571833
5.04413e-05
-0.000611021
5.823e-05
-0.000654127
6.60178e-05
-0.000701014
7.37351e-05
-0.000751381
8.12288e-05
-0.000805084
8.84905e-05
-0.000861861
9.52936e-05
-0.000921497
0.00010167
-0.000983639
0.000107546
-0.00104808
0.000112892
-0.00111462
0.000117755
-0.0011828
0.00012193
-0.00125245
0.000125557
-0.00132334
0.000128604
-0.00139516
0.000131102
-0.00146768
0.00013312
-0.00154057
0.000134512
-0.00161377
0.000135534
-0.00168697
0.000136032
-0.00175986
0.000136033
-0.00183244
0.000135758
-0.00190456
0.000135113
-0.00197581
0.000133988
-0.00204619
0.000132598
-0.00211567
0.000131013
-0.00218389
0.000128992
-0.00225086
0.000126891
-0.00231645
0.000124473
-0.00238065
0.000121825
-0.00244325
0.000118952
-0.00250396
0.000115764
-0.00256304
0.000112681
-0.00262032
0.000109287
-0.00267553
0.000105674
-0.00272883
0.000101958
-0.00278005
9.8027e-05
-0.00282924
9.42767e-05
-0.00287599
9.00983e-05
-0.00292068
8.60941e-05
-0.0029632
8.20014e-05
-0.0030036
7.78578e-05
-0.00304218
7.41904e-05
-0.00307732
6.8407e-05
-0.00311177
6.58365e-05
-0.00314241
5.99502e-05
-0.00317152
5.66782e-05
-0.00319629
4.96724e-05
-0.00322089
4.72458e-05
-0.00324321
4.3075e-05
-0.00326337
3.9173e-05
3.3149e-05
-0.00327921
-0.000260724
1.62167e-06
0.000254507
-0.000270003
6.57715e-06
-0.000283233
1.32392e-05
-0.000301161
2.15553e-05
-0.000322738
3.10231e-05
-0.000348925
4.12445e-05
-0.000379334
5.197e-05
-0.000414218
6.30119e-05
-0.000453478
7.47494e-05
-0.000497194
8.64068e-05
-0.000545072
9.83203e-05
-0.000596724
0.000109882
-0.000652256
0.00012155
-0.000711283
0.000132762
-0.000773598
0.000143544
-0.000838917
0.000153808
-0.000907014
0.00016339
-0.000977614
0.000172269
-0.0010504
0.000180328
-0.0011252
0.000187697
-0.00120158
0.000194125
-0.00127943
0.000199786
-0.00135848
0.000204596
-0.00143844
0.000208566
-0.00151903
0.000211694
-0.00160002
0.000214101
-0.00168123
0.000215719
-0.00176239
0.000216694
-0.00184322
0.000216864
-0.00192383
0.000216638
-0.00200374
0.000215669
-0.00208275
0.000214122
-0.00216106
0.000212287
-0.00223817
0.000209711
-0.00231401
0.00020685
-0.00238854
0.000203514
-0.00246157
0.000199925
-0.00253297
0.00019587
-0.00260269
0.000191541
-0.00267062
0.000186885
-0.00273682
0.000181956
-0.00280071
0.000176574
-0.00286269
0.000171258
-0.00292249
0.000165474
-0.00298011
0.000159576
-0.00303557
0.000153485
-0.00308862
0.000147325
-0.00313938
0.000140855
-0.00318759
0.000134308
-0.00323401
0.000128414
-0.00327674
0.000120586
-0.00331688
0.000114337
-0.00335541
0.00010693
-0.00339164
0.000102068
-0.00342573
9.40358e-05
-0.00345555
8.64957e-05
-0.00348521
7.93329e-05
-0.00351056
7.25984e-05
-0.00353369
6.62012e-05
-0.00355256
5.80442e-05
5.19096e-05
-0.00357133
-0.000191583
1.48991e-05
0.000178307
-0.000209258
2.42534e-05
-0.000231363
3.53457e-05
-0.000257805
4.79995e-05
-0.000288665
6.1885e-05
-0.000324064
7.66459e-05
-0.000363926
9.18341e-05
-0.000408611
0.000107699
-0.000457685
0.000123826
-0.000511231
0.000139955
-0.000568806
0.000155897
-0.000630579
0.000171655
-0.000696115
0.000187087
-0.000764992
0.000201639
-0.00083714
0.000215692
-0.000912203
0.000228871
-0.000989891
0.000241078
-0.0010699
0.000252279
-0.00115201
0.00026244
-0.00123581
0.000271497
-0.00132128
0.000279593
-0.00140792
0.00028642
-0.00149562
0.000292301
-0.00158407
0.000297014
-0.00167308
0.0003007
-0.00176222
0.000303244
-0.0018514
0.000304895
-0.00194041
0.000305706
-0.00202912
0.000305573
-0.00211705
0.00030457
-0.00220429
0.000302909
-0.00229071
0.000300535
-0.00237576
0.000297342
-0.00245967
0.000293617
-0.00254222
0.000289397
-0.00262324
0.000284539
-0.00270242
0.000279104
-0.00277992
0.000273371
-0.00285552
0.000267142
-0.00292926
0.000260617
-0.00300069
0.000253393
-0.00307022
0.000246099
-0.00313718
0.000238217
-0.00320193
0.000230224
-0.0032642
0.000221836
-0.00332396
0.000213247
-0.00338118
0.000204541
-0.00343615
0.00019582
-0.00348777
0.000185926
-0.00353685
0.000177498
-0.00358453
0.000168265
-0.00362813
0.00015793
-0.00366951
0.000148309
-0.00370678
0.000139334
-0.00374369
0.000130944
-0.00377647
0.000119276
-0.00380699
0.000109854
-0.00383528
0.000100884
-0.00385938
9.03e-05
-0.00388124
7.99033e-05
6.95816e-05
-0.00389891
-0.000160232
3.548e-05
0.000139652
-0.00018479
4.8813e-05
-0.000213921
6.4478e-05
-0.00024774
8.18196e-05
-0.0002863
0.000100448
-0.00032981
0.000120157
-0.000378439
0.000140465
-0.000431671
0.000160933
-0.000489739
0.000181896
-0.000552259
0.000202476
-0.000619255
0.000222895
-0.00069041
0.000242813
-0.000765191
0.000261869
-0.000843621
0.000280071
-0.000925488
0.00029756
-0.00100979
0.000313169
-0.00109681
0.000328099
-0.00118611
0.000341581
-0.00127731
0.000353647
-0.00137027
0.000364455
-0.00146463
0.000373948
-0.00156026
0.000382057
-0.00165677
0.000388811
-0.00175389
0.000394131
-0.00185124
0.000398043
-0.00194887
0.000400882
-0.0020463
0.000402324
-0.00214337
0.000402767
-0.00223988
0.000402089
-0.00233574
0.000400422
-0.00243061
0.000397781
-0.00252427
0.000394191
-0.00261671
0.000389787
-0.00270777
0.000384677
-0.00279711
0.000378731
-0.00288466
0.000372096
-0.00297062
0.000365061
-0.00305443
0.000357188
-0.00313615
0.000348856
-0.00321555
0.000340014
-0.00329291
0.000330751
-0.00336772
0.000320909
-0.00344015
0.000310642
-0.00350994
0.000300011
-0.00357707
0.000288967
-0.00364217
0.000278342
-0.00370252
0.000264887
-0.00376081
0.00025411
-0.00381744
0.000242552
-0.00387011
0.000230171
-0.00392049
0.000218646
-0.00396868
0.000206117
-0.0040129
0.000192529
-0.00405487
0.000181303
-0.00409087
0.000166936
-0.00412641
0.000154815
-0.00415972
0.000143165
-0.00418885
0.000130016
-0.00421384
0.000115285
-0.00423856
0.000104626
9.01393e-05
-0.00425912
-0.000147544
6.2549e-05
0.000120477
-0.000179069
8.03395e-05
-0.000215244
0.000100654
-0.000256701
0.000123277
-0.000303394
0.000147143
-0.000355181
0.000171946
-0.000412097
0.000197384
-0.000474322
0.00022316
-0.000541346
0.000248922
-0.000613397
0.00027453
-0.000689959
0.000299458
-0.000770567
0.000323422
-0.000855232
0.000346536
-0.000943158
0.000367998
-0.00103414
0.000388548
-0.00112821
0.000407235
-0.00122484
0.000424731
-0.00132386
0.000440598
-0.00142458
0.000454369
-0.00152687
0.000466748
-0.00163067
0.000477745
-0.00173538
0.000486765
-0.00184102
0.000494457
-0.00194719
0.000500299
-0.00205362
0.000504477
-0.00215991
0.000507169
-0.00226599
0.000508405
-0.00237151
0.000508288
-0.00247636
0.000506935
-0.00258034
0.000504404
-0.00268322
0.000500655
-0.00278466
0.000495634
-0.00288471
0.000489839
-0.00298316
0.000483128
-0.00307969
0.000475261
-0.00317438
0.000466788
-0.00326691
0.000457593
-0.00335729
0.000447565
-0.00344549
0.000437053
-0.00353142
0.000425937
-0.00361457
0.000413904
-0.00369524
0.000401576
-0.00377307
0.000388467
-0.00384766
0.0003746
-0.00391972
0.00036102
-0.00398912
0.000347743
-0.00405648
0.000332246
-0.00411981
0.000317442
-0.00417918
0.000301921
-0.00423629
0.000287276
-0.00428943
0.000271782
-0.0043385
0.000255184
-0.00438711
0.000241142
-0.00442994
0.000224128
-0.00447235
0.000209343
-0.00451065
0.000193111
-0.00454281
0.000175326
-0.00457269
0.00015989
-0.00460235
0.000144947
-0.00462597
0.000128248
0.000111561
-0.0046474
-0.000148228
9.59545e-05
0.000114824
-0.000186822
0.000118935
-0.000230726
0.00014456
-0.000280329
0.000172883
-0.000335262
0.000202077
-0.000395974
0.00023266
-0.00046213
0.000263542
-0.000533507
0.00029454
-0.000610366
0.000325783
-0.000691816
0.000355983
-0.000778257
0.000385901
-0.00086908
0.000414248
-0.000963566
0.000441024
-0.00106146
0.000465894
-0.00116306
0.000490146
-0.00126744
0.000511624
-0.00137405
0.00053134
-0.00148304
0.000549585
-0.0015937
0.000565035
-0.00170607
0.000579113
-0.00181968
0.000591359
-0.00193422
0.000601306
-0.00204966
0.0006099
-0.00216545
0.000616087
-0.00228125
0.00062028
-0.00239692
0.000622838
-0.00251189
0.000623375
-0.00262647
0.000622869
-0.00274022
0.000620682
-0.00285265
0.000616841
-0.002964
0.000611998
-0.00307378
0.000605421
-0.00318158
0.000597636
-0.00328774
0.000589289
-0.00339203
0.000579558
-0.00349391
0.000568661
-0.00359369
0.000557368
-0.00369097
0.000544842
-0.0037857
0.000531781
-0.00387786
0.00051809
-0.00396745
0.000503491
-0.00405347
0.00048759
-0.00413721
0.000472202
-0.00421779
0.00045518
-0.00429562
0.000438854
-0.00436946
0.000421585
-0.00443942
0.000402202
-0.00450696
0.000384986
-0.00457221
0.000367169
-0.00463172
0.000346786
-0.004689
0.000329053
-0.00474401
0.000310192
-0.00479326
0.000290393
-0.00484042
0.000271286
-0.00488356
0.000252483
-0.00492249
0.000232037
-0.00496092
0.000213753
-0.00499325
0.00019222
-0.00502162
0.000173313
-0.00504602
0.00015265
0.000133743
-0.0050682
-0.000159617
0.00013587
0.000119704
-0.000205662
0.00016498
-0.000257579
0.000196478
-0.000316191
0.000231496
-0.000380487
0.000266375
-0.000450545
0.000302721
-0.00052652
0.000339519
-0.000607513
0.000375536
-0.000694606
0.000412879
-0.000786426
0.000447805
-0.000883898
0.000483375
-0.000985117
0.000515469
-0.00109109
0.000547001
-0.00119949
0.000574297
-0.00131143
0.000602083
-0.001427
0.000627196
-0.00154459
0.000648931
-0.00166433
0.00066933
-0.00178622
0.000686931
-0.00190852
0.000701413
-0.0020329
0.000715743
-0.00215756
0.000725961
-0.00228371
0.000736057
-0.00241002
0.000742397
-0.00253579
0.000746044
-0.00266164
0.000748694
-0.00278604
0.000747772
-0.00291001
0.000746846
-0.00303322
0.000743893
-0.00315436
0.000737978
-0.00327482
0.000732463
-0.00339347
0.000724071
-0.00350945
0.000713619
-0.00362385
0.000703682
-0.00373642
0.000692132
-0.00384564
0.000677871
-0.00395284
0.000664563
-0.00405736
0.000649355
-0.00415847
0.000632891
-0.00425731
0.000616927
-0.00435368
0.000599862
-0.00444718
0.000581091
-0.00453504
0.000560061
-0.00462216
0.000542304
-0.00470427
0.000520968
-0.00478199
0.000499312
-0.0048594
0.000479606
-0.00493051
0.000456096
-0.00499805
0.00043471
-0.00506274
0.000411479
-0.00512234
0.00038865
-0.0051793
0.000367142
-0.00523229
0.000343386
-0.00528355
0.000322542
-0.00532922
0.000298152
-0.00537217
0.000274984
-0.00540914
0.000250718
-0.00544141
0.000224497
-0.00547199
0.000203888
-0.00549906
0.000179715
0.0001564
-0.00552172
-0.000179413
0.000133793
0.000181487
-0.000234112
0.000219674
-0.000293384
0.000255748
-0.000362525
0.000300637
-0.000436132
0.000339983
-0.000516635
0.000383225
-0.000603301
0.000426188
-0.000693432
0.000465669
-0.000793255
0.000512706
-0.000894413
0.000548967
-0.00100534
0.000594303
-0.00111648
0.000626617
-0.00123729
0.000667811
-0.00135429
0.000691296
-0.00147888
0.000726681
-0.00160712
0.000755436
-0.0017344
0.000776212
-0.00186755
0.00080248
-0.00200075
0.000820129
-0.00213329
0.000833957
-0.00227239
0.00085485
-0.00240569
0.000859263
-0.00254435
0.000874715
-0.00268225
0.000880294
-0.00281821
0.000882003
-0.00295668
0.000887175
-0.00308956
0.00088065
-0.00322413
0.000881412
-0.0033585
0.000878266
-0.0034876
0.000867079
-0.00361857
0.000863432
-0.00374628
0.00085178
-0.00387049
0.000837834
-0.00399359
0.000826774
-0.00411659
0.000815132
-0.00423136
0.000792638
-0.0043478
0.000780998
-0.00445969
0.00076125
-0.00456681
0.000740008
-0.00467446
0.000724587
-0.0047741
0.000699507
-0.00487444
0.000681443
-0.00496881
0.000654432
-0.00505986
0.000633362
-0.00514995
0.000611057
-0.00523258
0.000581942
-0.00531402
0.000561049
-0.00538841
0.000530484
-0.00546078
0.000507086
-0.00552695
0.000477645
-0.00559308
0.000454784
-0.0056522
0.000426262
-0.00570828
0.000399458
-0.00576041
0.000374677
-0.00581018
0.000347919
-0.00585215
0.000316949
-0.00589256
0.000291135
-0.00592649
0.000258422
-0.00595778
0.000235177
-0.00598561
0.000207549
-0.00600779
0.000178578
-0.00303023
1.37528e-05
-0.00304215
1.19253e-05
-0.00305239
1.02336e-05
-0.00306075
8.36259e-06
-0.00306686
6.11014e-06
-0.00307036
3.49608e-06
-0.00307212
1.76069e-06
-0.00307179
-3.28614e-07
-0.00306949
-2.31073e-06
-0.00306475
-4.73995e-06
-0.00305812
-6.62785e-06
-0.00304946
-8.66217e-06
-0.00303874
-1.07296e-05
-0.00302595
-1.27931e-05
-0.0030114
-1.45514e-05
-0.002995
-1.63952e-05
-0.00297659
-1.842e-05
-0.00295612
-2.04674e-05
-0.00293396
-2.21721e-05
-0.00290991
-2.40532e-05
-0.00288406
-2.58483e-05
-0.00285659
-2.7475e-05
-0.00282737
-2.92228e-05
-0.00279632
-3.1059e-05
-0.00276362
-3.27006e-05
-0.00272954
-3.40871e-05
-0.00269379
-3.57572e-05
-0.00265637
-3.74256e-05
-0.0026174
-3.89681e-05
-0.00257706
-4.03521e-05
-0.00253521
-4.18463e-05
-0.00249192
-4.32967e-05
-0.00244738
-4.45485e-05
-0.00240151
-4.58676e-05
-0.00235432
-4.72011e-05
-0.00230596
-4.83665e-05
-0.00225649
-4.9465e-05
-0.0022059
-5.05968e-05
-0.0021541
-5.18021e-05
-0.00210126
-5.28431e-05
-0.00204752
-5.37436e-05
-0.00199284
-5.46833e-05
-0.00193723
-5.56094e-05
-0.00188087
-5.63669e-05
-0.0018236
-5.72698e-05
-0.00176552
-5.80858e-05
-0.0017068
-5.87221e-05
-0.00164752
-5.92735e-05
-0.00158758
-5.99454e-05
-0.00152706
-6.05165e-05
-0.00146609
-6.09683e-05
-0.00140479
-6.13061e-05
-0.00134296
-6.18286e-05
-0.0012809
-6.20557e-05
-0.0012186
-6.22985e-05
-0.00115627
-6.2331e-05
-0.00109364
-6.26302e-05
-0.00103094
-6.26925e-05
-0.000968368
-6.25743e-05
-0.000905987
-6.23796e-05
-6.21458e-05
-0.00084384
-0.00329492
2.94641e-05
-0.00330602
2.30284e-05
-0.00331513
1.93339e-05
-0.00332202
1.52563e-05
-0.00332878
1.28715e-05
-0.00333135
6.06214e-06
-0.00333239
2.79306e-06
-0.00332963
-3.08384e-06
-0.00332624
-5.70439e-06
-0.00331926
-1.17212e-05
-0.00331045
-1.5444e-05
-0.00329933
-1.9776e-05
-0.00328615
-2.39098e-05
-0.00327111
-2.78387e-05
-0.0032536
-3.20603e-05
-0.00323405
-3.59503e-05
-0.00321236
-4.0109e-05
-0.00318872
-4.41108e-05
-0.00316285
-4.80477e-05
-0.00313503
-5.18673e-05
-0.00310545
-5.54354e-05
-0.00307365
-5.92702e-05
-0.00303994
-6.29408e-05
-0.00300446
-6.65331e-05
-0.00296715
-7.00162e-05
-0.00292798
-7.32587e-05
-0.002887
-7.67356e-05
-0.00284452
-7.99055e-05
-0.00280037
-8.31267e-05
-0.00275437
-8.6346e-05
-0.00270694
-8.92777e-05
-0.00265812
-9.21238e-05
-0.00260761
-9.50575e-05
-0.00255566
-9.78142e-05
-0.00250248
-0.000100383
-0.0024478
-0.000103047
-0.00239183
-0.00010544
-0.00233459
-0.000107834
-0.00227625
-0.00011015
-0.00221672
-0.000112371
-0.00215589
-0.000114573
-0.00209415
-0.000116429
-0.00203143
-0.000118326
-0.00196764
-0.000120161
-0.00190301
-0.000121898
-0.0018375
-0.000123599
-0.00177122
-0.000125001
-0.00170401
-0.000126481
-0.00163622
-0.000127735
-0.00156783
-0.000128906
-0.00149886
-0.000129935
-0.00142954
-0.000130631
-0.00135923
-0.000132134
-0.00128917
-0.000132116
-0.00121817
-0.000133298
-0.00114718
-0.000133318
-0.00107538
-0.000134435
-0.00100419
-0.000133885
-0.000932938
-0.000133823
-0.000861698
-0.000133619
-0.000133823
-0.00079002
-0.00358574
4.38733e-05
-0.0036003
3.75877e-05
-0.0036104
2.94418e-05
-0.00361824
2.30862e-05
-0.00362179
1.64237e-05
-0.00362541
9.68131e-06
-0.00362471
2.09441e-06
-0.00362193
-5.8658e-06
-0.00361688
-1.07528e-05
-0.00361012
-1.84864e-05
-0.00360088
-2.46788e-05
-0.0035879
-3.27538e-05
-0.00357322
-3.85922e-05
-0.00355591
-4.51525e-05
-0.00353628
-5.16887e-05
-0.00351424
-5.79908e-05
-0.00349003
-6.43234e-05
-0.0034636
-7.05368e-05
-0.00343491
-7.67399e-05
-0.00340425
-8.25284e-05
-0.00337108
-8.8603e-05
-0.003336
-9.43528e-05
-0.00329887
-0.000100067
-0.00325974
-0.000105666
-0.00321854
-0.000111209
-0.00317533
-0.00011647
-0.00313029
-0.000121773
-0.00308335
-0.000126851
-0.00303444
-0.000132037
-0.00298408
-0.000136697
-0.00293185
-0.000141516
-0.0028778
-0.000146167
-0.00282245
-0.000150405
-0.0027654
-0.000154869
-0.00270678
-0.000158999
-0.00264675
-0.000163082
-0.00258524
-0.000166941
-0.00252231
-0.000170765
-0.00245809
-0.000174372
-0.00239262
-0.00017784
-0.00232607
-0.000181125
-0.00225811
-0.000184389
-0.0021892
-0.000187239
-0.00211919
-0.000190162
-0.00204823
-0.000192862
-0.00197638
-0.000195452
-0.00190358
-0.000197792
-0.00182998
-0.000200082
-0.00175555
-0.000202168
-0.00168076
-0.000203699
-0.00160467
-0.000206019
-0.001528
-0.000207305
-0.00145119
-0.000208945
-0.00137401
-0.000209296
-0.00129654
-0.000210763
-0.00121815
-0.000211704
-0.00114036
-0.000212231
-0.00106186
-0.000212386
-0.000983381
-0.000212299
-0.000904484
-0.000212516
-0.000212071
-0.000826236
-0.00391631
6.1272e-05
-0.00392963
5.09065e-05
-0.00394069
4.04924e-05
-0.00394749
2.98856e-05
-0.0039521
2.10407e-05
-0.00395436
1.19347e-05
-0.00395215
-1.14485e-07
-0.00395004
-7.98135e-06
-0.00394387
-1.69212e-05
-0.00393569
-2.66669e-05
-0.00392325
-3.71178e-05
-0.00390961
-4.63948e-05
-0.00389346
-5.47467e-05
-0.00387388
-6.47314e-05
-0.0038521
-7.3467e-05
-0.00382778
-8.23185e-05
-0.00380094
-9.11582e-05
-0.00377157
-9.9909e-05
-0.00373997
-0.000108345
-0.00370568
-0.000116819
-0.00366944
-0.000124842
-0.00363067
-0.00013312
-0.00358981
-0.000140928
-0.00354672
-0.000148757
-0.0035016
-0.000156332
-0.00345409
-0.00016398
-0.00340455
-0.000171315
-0.00335306
-0.000178341
-0.00329976
-0.000185336
-0.00324421
-0.000192251
-0.00318696
-0.000198766
-0.00312805
-0.000205074
-0.0030671
-0.000211353
-0.00300462
-0.000217348
-0.00294054
-0.000223086
-0.00287488
-0.000228742
-0.00280746
-0.000234355
-0.00273866
-0.000239569
-0.00266842
-0.000244613
-0.00259691
-0.000249349
-0.0025239
-0.00025413
-0.00244991
-0.000258381
-0.00237452
-0.000262634
-0.00229811
-0.00026657
-0.00222057
-0.000270397
-0.00214199
-0.000274036
-0.00206244
-0.000277343
-0.00198216
-0.000280358
-0.0019007
-0.000283629
-0.00181852
-0.000285886
-0.00173627
-0.000288261
-0.00165271
-0.000290865
-0.00156879
-0.000292867
-0.0014838
-0.000294286
-0.00139929
-0.00029527
-0.00131397
-0.000297029
-0.00122855
-0.000297656
-0.00114316
-0.000297776
-0.00105725
-0.000298204
-0.000971528
-0.000298238
-0.000298085
-0.000885515
-0.00427547
7.76211e-05
-0.00428766
6.30903e-05
-0.0042996
5.24349e-05
-0.00430737
3.76485e-05
-0.00431094
2.46146e-05
-0.00431224
1.32289e-05
-0.00431359
1.23856e-06
-0.00430849
-1.30809e-05
-0.00430126
-2.41566e-05
-0.00429012
-3.78113e-05
-0.00427689
-5.03436e-05
-0.00426148
-6.1809e-05
-0.00424204
-7.41839e-05
-0.00422113
-8.56433e-05
-0.00419835
-9.62425e-05
-0.00417056
-0.000110111
-0.00414084
-0.000120882
-0.00410844
-0.000132312
-0.00407334
-0.000143446
-0.00403587
-0.000154282
-0.00399575
-0.000164965
-0.00395351
-0.000175357
-0.00390867
-0.000185768
-0.00386139
-0.000196039
-0.00381153
-0.000206194
-0.00375968
-0.000215829
-0.00370553
-0.000225465
-0.00364906
-0.000234817
-0.00359049
-0.000243903
-0.00352998
-0.00025276
-0.00346732
-0.000261424
-0.00340263
-0.000269763
-0.00333619
-0.000277796
-0.00326797
-0.000285565
-0.00319786
-0.0002932
-0.00312592
-0.000300676
-0.00305258
-0.000307697
-0.00297739
-0.00031476
-0.00290064
-0.000321363
-0.00282229
-0.0003277
-0.00274276
-0.000333654
-0.0026618
-0.000339345
-0.00257969
-0.000344745
-0.00249631
-0.000349952
-0.00241178
-0.000354926
-0.00232651
-0.000359307
-0.00223902
-0.000364831
-0.00215106
-0.00036832
-0.00206287
-0.000371817
-0.00197327
-0.000375487
-0.00188318
-0.000378347
-0.00179274
-0.000381307
-0.00170119
-0.000384412
-0.00160934
-0.000386138
-0.00151585
-0.000388763
-0.00142296
-0.000389914
-0.00133003
-0.000390585
-0.00123662
-0.000391195
-0.00114278
-0.000392044
-0.00104972
-0.000391294
-0.000391434
-0.000956372
-0.00466465
9.48757e-05
-0.00467972
7.81594e-05
-0.00468865
6.13559e-05
-0.00469736
4.63616e-05
-0.00470388
3.11367e-05
-0.00470427
1.36159e-05
-0.00470062
-2.41619e-06
-0.00469666
-1.70415e-05
-0.00468674
-3.4076e-05
-0.00467663
-4.79234e-05
-0.00466248
-6.44941e-05
-0.00464433
-7.99667e-05
-0.00462405
-9.44595e-05
-0.00459984
-0.000109858
-0.00457161
-0.000124475
-0.00454146
-0.000140259
-0.00450871
-0.000153631
-0.00447346
-0.000167561
-0.00443487
-0.000182041
-0.0043935
-0.000195651
-0.00434964
-0.000208825
-0.00430285
-0.000222144
-0.00425354
-0.000235076
-0.00420172
-0.000247862
-0.00414742
-0.000260496
-0.00409039
-0.000272853
-0.00403115
-0.000284707
-0.00396941
-0.000296556
-0.00390536
-0.000307957
-0.00383923
-0.000318885
-0.00377074
-0.000329914
-0.00370009
-0.000340411
-0.00362752
-0.000350374
-0.00355308
-0.000359998
-0.0034765
-0.000369781
-0.00339823
-0.000378945
-0.00331791
-0.000388024
-0.00323583
-0.000396835
-0.00315217
-0.00040502
-0.00306698
-0.000412892
-0.00298003
-0.000420608
-0.00289182
-0.000427552
-0.00280222
-0.00043434
-0.00271108
-0.000441101
-0.002619
-0.000447003
-0.00252577
-0.000452536
-0.00243203
-0.000458568
-0.00233659
-0.000463759
-0.00223987
-0.000468539
-0.00214264
-0.000472716
-0.00204419
-0.000476806
-0.00194468
-0.000480814
-0.00184554
-0.000483553
-0.00174479
-0.000486882
-0.00164439
-0.000489163
-0.00154335
-0.000490961
-0.00144099
-0.000492941
-0.00133899
-0.000493197
-0.00123765
-0.000493383
-0.00113567
-0.000493274
-0.000493153
-0.00103395
-0.00508626
0.000112931
-0.00510212
9.40122e-05
-0.00511388
7.3122e-05
-0.00512152
5.39992e-05
-0.00512311
3.27238e-05
-0.00512458
1.50803e-05
-0.00512191
-5.08936e-06
-0.00511512
-2.38314e-05
-0.00510624
-4.29531e-05
-0.00509157
-6.25945e-05
-0.00507486
-8.12078e-05
-0.00505593
-9.88954e-05
-0.00503112
-0.000119276
-0.00500427
-0.000136703
-0.00497544
-0.000153306
-0.00494263
-0.000173075
-0.00490577
-0.000190491
-0.00486606
-0.000207269
-0.00482316
-0.000224942
-0.00477836
-0.000240451
-0.00472986
-0.000257329
-0.00467882
-0.000273184
-0.00462487
-0.000289024
-0.00456798
-0.000304745
-0.00450829
-0.000320186
-0.00444594
-0.000335211
-0.00438086
-0.000349787
-0.00431349
-0.000363922
-0.00424374
-0.000377706
-0.0041714
-0.000391225
-0.0040966
-0.000404719
-0.00401964
-0.00041737
-0.00394028
-0.000429729
-0.00385909
-0.000441187
-0.00377588
-0.000452992
-0.00369052
-0.000464305
-0.00360314
-0.000475407
-0.00351367
-0.0004863
-0.00342237
-0.000496315
-0.00332928
-0.000505984
-0.00323465
-0.000515239
-0.00313803
-0.000524172
-0.0030406
-0.000531772
-0.00294185
-0.000539847
-0.00284208
-0.000546773
-0.00274031
-0.000554309
-0.00263715
-0.000561722
-0.00253334
-0.00056757
-0.00242928
-0.000572605
-0.00232298
-0.000579016
-0.00221622
-0.000583561
-0.00210928
-0.000587756
-0.00200047
-0.000592364
-0.00189156
-0.000595795
-0.00178153
-0.000599192
-0.00167103
-0.000601463
-0.00156101
-0.000602956
-0.00145032
-0.000603894
-0.0013392
-0.0006045
-0.00122821
-0.000604261
-0.000603906
-0.00111746
-0.00554044
0.000131658
-0.00555483
0.000108397
-0.00556542
8.37046e-05
-0.00557366
6.22379e-05
-0.00557811
3.71723e-05
-0.00557674
1.37105e-05
-0.00557336
-8.47229e-06
-0.0055636
-3.35865e-05
-0.00555182
-5.47365e-05
-0.00553663
-7.77833e-05
-0.00551934
-9.85078e-05
-0.0054961
-0.000122131
-0.00547049
-0.000144885
-0.00544118
-0.000166021
-0.0054065
-0.000187979
-0.00537117
-0.000208406
-0.00533193
-0.000229738
-0.00528668
-0.000252518
-0.00524095
-0.000270669
-0.00519027
-0.000291131
-0.00513636
-0.000311244
-0.00508045
-0.000329091
-0.00502173
-0.00034774
-0.00495929
-0.000367184
-0.00489391
-0.000385566
-0.00482554
-0.000403581
-0.0047544
-0.000420924
-0.00468061
-0.000437711
-0.00460426
-0.000454062
-0.00452539
-0.000470095
-0.00444362
-0.000486484
-0.00435983
-0.000501165
-0.00427336
-0.000516196
-0.00418548
-0.000529059
-0.00409492
-0.000543558
-0.00400212
-0.000557097
-0.0039072
-0.000570331
-0.00380971
-0.000583792
-0.00370995
-0.000596069
-0.0036087
-0.000607232
-0.00350584
-0.000618104
-0.00340114
-0.000628869
-0.00329423
-0.000638677
-0.00318747
-0.000646604
-0.00307849
-0.00065576
-0.0029673
-0.000665493
-0.00285682
-0.000672202
-0.00274354
-0.000680854
-0.00262999
-0.000686155
-0.00251551
-0.000693494
-0.00239896
-0.000700109
-0.00228261
-0.000704109
-0.00216493
-0.000710042
-0.00204736
-0.000713364
-0.00192738
-0.00071917
-0.00180802
-0.00072083
-0.00168703
-0.000723946
-0.00156674
-0.000724185
-0.00144621
-0.000725026
-0.00132621
-0.000724266
-0.000724606
-0.00120551
-0.0060272
0.000151065
-0.00604135
0.000122553
-0.00605245
9.48013e-05
-0.00605677
6.65568e-05
-0.00605985
4.02544e-05
-0.00605915
1.30046e-05
-0.00605399
-1.36289e-05
-0.00604404
-4.3541e-05
-0.00602892
-6.98564e-05
-0.00601312
-9.35879e-05
-0.00599129
-0.000120338
-0.00596583
-0.000147588
-0.00593802
-0.00017269
-0.00590336
-0.000200685
-0.00586942
-0.000221918
-0.00582822
-0.000249609
-0.00578265
-0.000275307
-0.00573571
-0.00029946
-0.00568217
-0.000324215
-0.00562761
-0.000345683
-0.00557044
-0.000368423
-0.0055075
-0.000392031
-0.00544453
-0.00041071
-0.0053758
-0.000435915
-0.00530347
-0.000457896
-0.00522953
-0.000477519
-0.00515077
-0.000499679
-0.005071
-0.000517484
-0.00498572
-0.00053934
-0.00490179
-0.000554029
-0.00481048
-0.000577784
-0.00472073
-0.00059092
-0.00462485
-0.000612071
-0.00453119
-0.000622718
-0.00443316
-0.000641589
-0.00433206
-0.000658199
-0.00423023
-0.000672158
-0.00412338
-0.000690638
-0.00401442
-0.00070503
-0.00390598
-0.000715673
-0.00379216
-0.000731928
-0.00367691
-0.000744117
-0.00356292
-0.000752667
-0.00344407
-0.000765449
-0.00332924
-0.000770591
-0.00320663
-0.000788106
-0.00308772
-0.000791108
-0.00296287
-0.000805709
-0.00284214
-0.000806883
-0.00271811
-0.000817525
-0.00259119
-0.000827034
-0.00246735
-0.000827946
-0.00233818
-0.000839217
-0.00221231
-0.000839232
-0.00207952
-0.000851957
-0.00195173
-0.000848623
-0.00181759
-0.000858093
-0.00169114
-0.000850634
-0.00155758
-0.000858581
-0.00142982
-0.00085203
-0.00129551
-0.000858923
-0.000781491
-6.23475e-05
-0.000719496
-6.19942e-05
-0.000657873
-6.16218e-05
-0.000596659
-6.12124e-05
-0.000535913
-6.0744e-05
-0.00047568
-6.02313e-05
-0.000416216
-5.94624e-05
-0.000357568
-5.86464e-05
-0.000299942
-5.76244e-05
-0.000243471
-5.64702e-05
-0.000188063
-5.54062e-05
-0.000131923
-5.61392e-05
-7.40352e-05
-5.78866e-05
-1.49642e-05
-5.90701e-05
4.31246e-05
-5.80881e-05
9.86499e-05
-5.55246e-05
0.000151863
-5.32127e-05
0.000203291
-5.14273e-05
0.000253133
-4.98419e-05
0.000301408
-4.82742e-05
0.000348135
-4.67264e-05
0.000393258
-4.51225e-05
0.000436714
-4.34558e-05
0.000478375
-4.16611e-05
0.000518181
-3.98052e-05
0.000556067
-3.78864e-05
0.000591916
-3.58493e-05
0.000625597
-3.36805e-05
0.000656994
-3.1397e-05
0.000686017
-2.90227e-05
0.000712468
-2.6451e-05
0.00073619
-2.37218e-05
0.00075706
-2.08708e-05
0.000774836
-1.77759e-05
0.000789302
-1.44653e-05
0.000800265
-1.09631e-05
0.000807475
-7.21074e-06
0.000810596
-3.12069e-06
0.000810315
2.81729e-07
0.00080648
3.83534e-06
0.000799255
7.22496e-06
0.000787938
1.13177e-05
0.000772019
1.59192e-05
0.000751074
2.09454e-05
0.000724467
2.66077e-05
0.000691569
3.28982e-05
0.000651758
3.98115e-05
0.000604292
4.74674e-05
0.000548306
5.59863e-05
0.000483027
6.52797e-05
0.000407719
7.53086e-05
0.000321805
8.5915e-05
0.000224724
9.70816e-05
0.000115747
0.000108977
-1.14155e-05
0.000127163
-0.000151815
0.0001404
-0.000282023
0.000130208
-0.000390263
0.00010824
-0.000472363
8.21002e-05
-0.000533555
6.11926e-05
5.1052e-05
-0.000584607
-0.000718961
-0.000133406
-0.000647592
-0.000133363
-0.000576439
-0.000132775
-0.000505542
-0.000132109
-0.000435263
-0.000131023
-0.000365101
-0.000130393
-0.000295477
-0.000129086
-0.000226244
-0.000127879
-0.000157735
-0.000126133
-8.97794e-05
-0.000124426
-2.15165e-05
-0.000123669
4.71838e-05
-0.000124839
0.0001149
-0.000125602
0.000181323
-0.000125493
0.000246987
-0.000123752
0.000312017
-0.000120555
0.000375987
-0.000117183
0.000438647
-0.000114088
0.000499904
-0.0001111
0.000559776
-0.000108147
0.000618268
-0.00010522
0.000675245
-0.0001021
0.000730679
-9.88913e-05
0.000784564
-9.55477e-05
0.000836799
-9.20419e-05
0.000887324
-8.84132e-05
0.000936007
-8.45352e-05
0.000982869
-8.05441e-05
0.00102776
-7.62908e-05
0.00107051
-7.17718e-05