/*--------------------------------*- C++ -*----------------------------------*\
| =========                 |                                                 |
| \\      /  F ield         | OpenFOAM: The Open Source CFD Toolbox           |
|  \\    /   O peration     | Version:  2.3.1                                 |
|   \\  /    A nd           | Web:      www.OpenFOAM.org                      |
|    \\/     M anipulation  |                                                 |
\*---------------------------------------------------------------------------*/
FoamFile
{
    version     2.0;
    format      ascii;
    class       volSymmTensorField;
    location    "1800";
    object      sigma;
}
// * * * * * * * * * * * * * * * * * * * * * * * * * * * * * * * * * * * * * //

dimensions      [1 -1 -2 0 0 0 0];

internalField   nonuniform List<symmTensor> 
11800
(
(98865.4 61712.5 4.80219e-14 -2330.2 2.54727e-14 23952.3)
(-51306.2 58141.2 7.37181e-14 -2318.15 2.34202e-14 -13305.3)
(433657 72027.8 -1.16025e-15 890.077 -5.39602e-14 107820)
(-379821 42963.9 0 1372.87 0 -93900.7)
(-52781.2 55898.1 1.37548e-14 -6783.17 -3.89175e-14 -14779.1)
(-238775 76100.5 5.36686e-14 2854.01 2.81881e-14 -58536.7)
(-44076.1 74335.5 1.00958e-13 -780.436 -2.62845e-14 -11129.8)
(-61511.5 74791.3 -1.50607e-14 1302.37 6.06953e-14 -14939.1)
(136319 48493.2 2.06834e-14 418.609 -1.4177e-14 33927.3)
(90315.5 78188.3 -5.22336e-14 1581.86 -4.40576e-14 22801.6)
(114444 53276.9 -4.00623e-14 284.093 3.43396e-14 28466.4)
(-551085 33119.9 -4.8319e-14 -4253.27 -2.19619e-14 -137791)
(16937.1 -24614.8 9.18292e-17 -45626 7.13316e-17 -7118.29)
(402281 42874.9 4.38993e-14 2806.11 -1.20463e-14 100510)
(-323967 71103.9 -3.64259e-14 6757.8 2.83635e-14 -78706)
(1.57003e+06 227.386 0 -4099.09 0 388539)
(-28986.2 61252 3.41639e-14 2170.32 3.01838e-15 -6653.57)
(-44307.9 55779.4 -1.93109e-14 4911.51 1.11112e-13 -9775.04)
(92797 93445.2 -2.02917e-14 -13368.8 1.44714e-14 19707.8)
(68479.2 51461.4 -6.9525e-14 -6416.4 -2.25101e-14 15399)
(-299697 48005.7 2.15884e-14 669.458 2.26485e-14 -74194.9)
(-481512 66887.3 3.45804e-14 2319.55 -2.01311e-14 -118897)
(-677044 91127.4 -1.81108e-14 8402.1 1.17275e-14 -165904)
(-621542 58091.9 1.85821e-16 39.6154 3.17171e-15 -154207)
(1.2746e+06 64520.4 2.13184e-15 -5637.82 2.60798e-14 314854)
(-800981 89495.9 -1.77402e-14 5166.44 -5.26611e-16 -197458)
(-804297 47005.4 0 6759.44 0 -197885)
(394749 37456.5 -5.69683e-14 -5499.78 -3.44449e-14 96580.6)
(-883774 48613.3 -1.01621e-14 7867.91 -4.83215e-14 -217330)
(-966055 49705.2 1.33791e-14 8214.82 -2.09228e-14 -237660)
(263527 40747.1 -7.05141e-14 -1405.42 -1.26554e-13 65037.8)
(52110.5 57766.3 -1.18606e-14 1924.87 -9.90205e-15 13407.3)
(807309 85344 -2.85479e-15 9191.68 -1.26988e-14 202590)
(-21462.6 67445.6 9.22636e-15 -691.328 -6.91534e-14 -5496.84)
(14009.4 69970.8 -2.43828e-14 3746.08 -1.04838e-13 4405.49)
(-259189 32364.4 -6.40304e-14 2800.05 -4.65574e-14 -63615.3)
(14763 70207.9 8.66149e-14 2547.02 -1.03171e-13 4294.96)
(865642 54974 -1.04794e-14 4498.37 -4.56022e-14 215899)
(-30770.6 66744 0 -3330.21 0 -8461.11)
(65193.2 61813.1 -3.01356e-14 3835.89 5.61953e-14 17127.5)
(-845203 37744.6 -5.40099e-14 -4035.43 -2.51554e-14 -210713)
(-928524 38181.2 3.87726e-14 -4175.09 -2.22878e-14 -231421)
(414330 48070.7 -2.19342e-14 -2781.12 -7.32392e-14 102114)
(-1.01512e+06 39490.2 -7.54779e-15 -5303.62 -3.97206e-14 -253188)
(276695 48954 1.87472e-13 1888.84 -5.85687e-14 69122.2)
(1.46592e+06 42321 0 -5599.03 0 362334)
(641099 97689 -1.14602e-14 -2875.13 6.04397e-15 158356)
(765559 43820.5 -2.0165e-14 -8249.48 -1.41024e-14 187904)
(-69997.5 68427.7 -7.43347e-14 -1240.77 -4.58665e-14 -17675.6)
(159854 64377.2 0 1875.3 0 40128.2)
(-568891 38373.8 -3.56381e-15 2462.76 3.8263e-14 -140542)
(-400587 37600.9 1.24714e-13 4594.07 1.4637e-14 -98254)
(-8316.84 69282 6.98454e-14 -370.741 4.35613e-14 -2155.56)
(28632.5 108658 -1.60484e-15 5997.54 1.40161e-14 8592.41)
(-1.68506e+06 6036.74 -2.51282e-15 -8773.89 -3.80323e-15 -420275)
(1.36636e+06 -50909.2 3.26959e-15 -62838.3 5.9346e-15 323430)
(-46178 23211.9 6.01723e-14 1739.71 2.23675e-14 -11026)
(-360652 74680 4.50595e-15 -3608.42 -3.7726e-14 -90380.3)
(286805 51519.1 -3.8197e-14 6117.01 5.59781e-14 72679.9)
(-257495 76748 3.14793e-14 -5757.24 -5.68376e-15 -65318.3)
(1.40091e+06 25315.7 -2.88088e-14 -10650.7 -9.99599e-15 344950)
(-35177.4 72161.1 2.95588e-14 532.671 -4.81841e-14 -8596.07)
(-284906 63094.1 -1.72428e-14 -2466.64 2.97161e-14 -71302.9)
(224884 63483.3 5.21056e-14 1444.26 -2.97619e-14 56156.7)
(1.26044e+06 17491.2 3.18812e-15 369.769 -1.88227e-14 312832)
(-180643 33501.9 -8.46165e-14 2459.43 -1.02379e-13 -44211.1)
(-587807 20588.7 5.9709e-14 2474.88 1.99421e-14 -145233)
(-418455 23136.5 1.67204e-15 4033.5 -1.04682e-13 -102826)
(-47489.2 24951.6 0 -2584.43 0 -12424.3)
(-746924 54824.2 -1.32861e-15 7190.77 4.66424e-14 -183543)
(-17907 71104.9 -1.69476e-14 424.934 3.50399e-14 -4337.65)
(-36998 57358.1 -6.52939e-14 -3155.97 7.31515e-14 -9963.02)
(-32847.2 55720.6 4.57949e-14 -3435.66 -2.8064e-14 -9002.52)
(-1.15994e+06 265647 -4.15428e-15 152065 3.83073e-15 -250073)
(1.38714e+06 59456.3 -1.04678e-15 -5444.66 -1.15596e-14 342826)
(-243924 44999.4 -6.29036e-14 5995.97 -4.57926e-14 -59034.7)
(1.31092e+06 16680.1 -2.38864e-14 3127.94 2.12581e-14 326042)
(-176060 23645.4 5.56308e-14 667.184 -1.82734e-13 -43518.5)
(-130799 42152.8 1.04584e-14 2809.01 -9.99526e-15 -31757)
(-125308 51604.2 1.06756e-13 3339.87 1.07207e-13 -30262.7)
(-1.70159e+06 -28974.8 9.00961e-15 6372.6 4.13314e-14 -420618)
(70204.9 48687.7 0 6411.81 0 19010.2)
(39833.1 57983.9 -1.11008e-13 662.907 -4.38014e-14 10047.9)
(27357.6 61764.2 3.84852e-14 2324.3 -3.06251e-16 7364.69)
(-56338.8 54365.2 2.65327e-14 -5797.69 7.51772e-14 -15417.3)
(-938579 60889.9 -1.48438e-14 -5689.54 7.6063e-14 -234292)
(282743 46245.2 8.9621e-14 2793.09 -2.79157e-14 70847.2)
(-856865 57119.2 0 -4337.72 0 -213682)
(-779892 55709.7 -3.14058e-14 -3967.29 -3.2153e-14 -194491)
(414861 43226.7 4.11154e-14 3807.89 2.5055e-15 103880)
(-9409.71 67822.5 -1.44701e-13 -2257.64 -9.29384e-14 -2894.91)
(956374 79422 0 -3036.54 0 236542)
(-77419 60742.2 -3.06984e-14 1789.89 -5.09678e-14 -18765.1)
(52858.5 20380 -1.77178e-14 3776.96 -2.57333e-14 14052.4)
(113192 57680.6 1.36456e-13 83.0608 2.44005e-15 28105.8)
(39192.1 -29564.2 -5.84585e-16 -83188.9 -4.33149e-16 -10916.5)
(-2076.56 8105.3 1.51942e-17 4864.09 -9.02938e-17 691.641)
(-39478.1 -29311.7 -3.69105e-16 82757.3 2.45734e-16 10738.5)
(-9368.23 69265.8 -4.49885e-14 -987.745 -6.57355e-16 -2569.53)
(-479513 45150.4 -1.10751e-14 -2058.88 4.44183e-14 -119488)
(36856.7 37363.1 2.47319e-14 -312.419 -6.92847e-14 9067.38)
(519715 50249.8 -5.37135e-14 -5285.46 -7.45031e-14 127640)
(-905746 87913.7 3.73413e-15 568.922 7.59168e-15 -224593)
(-301323 66428.8 -2.2961e-15 4874.29 7.2921e-15 -73554.9)
(387.57 73324.8 -6.94517e-15 -442.376 -3.4595e-14 -13.5985)
(229955 82892.1 -1.47485e-14 2073.01 -2.56198e-14 57570.9)
(-106194 59261.8 -4.26136e-14 448.302 9.41076e-14 -26237.7)
(-74791.8 62986.1 -1.44133e-13 -717.26 -6.96019e-14 -18735.3)
(1.36891e+06 22879.7 8.3891e-15 3276.83 1.77221e-14 340469)
(857418 50796.8 1.34455e-14 2586.03 2.72772e-15 213384)
(940063 52608.2 2.57897e-14 3337.95 3.61086e-14 234077)
(781266 48959.2 9.3813e-14 3149.15 5.56628e-14 194629)
(-287426 47168.9 4.20142e-14 -4271.02 6.56702e-14 -72376)
(-421484 44954.7 -1.11201e-13 -3764.2 4.00019e-14 -105513)
(149953 54038.3 4.78373e-14 458.356 -2.51114e-14 37320.2)
(1.23348e+06 35562.8 1.27274e-14 -212.737 7.5416e-15 305998)
(170429 29475.7 -3.4609e-14 -3302.3 -1.3614e-13 41467.6)
(-52444.4 65211.4 -1.19922e-13 1447.91 1.12296e-13 -12653.3)
(1.15494e+06 63827.3 -1.47171e-14 338.369 1.83605e-14 286649)
(-93815.5 80825.7 -3.92254e-14 641.458 -1.05698e-14 -23118.4)
(-154252 44110.3 -2.75079e-14 1504.86 -1.16272e-14 -37899.6)
(45308.7 74458.7 8.59066e-14 -3255.66 -1.23123e-13 10434.2)
(63856.2 76084.9 -5.9999e-14 -1151.17 4.13069e-14 15558.4)
(-44999.4 62146.8 -1.74328e-14 337.824 -2.57442e-14 -11081.5)
(-81086.9 57871 -1.09198e-13 354.2 -8.53185e-14 -20031.4)
(-2567.5 68773.1 -1.04949e-13 -2518.65 -7.90912e-14 -1261.98)
(-26455.9 68514.5 -6.29252e-14 -3797.91 6.92277e-14 -7506.59)
(-4799.51 68869.8 -4.11402e-14 -1455 -3.92612e-14 -1551.87)
(7071.28 51436.7 1.96144e-15 31881.5 8.78297e-14 9664.99)
(-30069.2 11293.3 -3.19242e-16 -6906.28 4.18187e-14 -9174.36)
(-1.4902e+06 -236620 1.34124e-14 63487.1 -6.84076e-15 -353998)
(-1.04915e+06 62149.8 9.55031e-15 -7893.13 -1.45229e-15 -262274)
(309754 41805.8 4.74344e-14 4184.88 -4.63059e-14 77894.6)
(-932837 61351.1 -3.73463e-14 2102.07 2.35016e-14 -230934)
(443023 37961.7 -2.14479e-14 5181.5 6.48788e-14 111209)
(-849156 57004.8 1.42401e-14 2540.4 1.42997e-14 -210063)
(-772263 54921.3 -8.14497e-14 2640.97 6.23466e-14 -190959)
(257632 55675.3 4.64074e-14 -1733.2 1.29559e-13 63493.7)
(-798868 31473.4 5.09387e-14 6466.1 -7.03518e-14 -196611)
(371389 56165.8 5.77564e-14 -1616.24 -4.60276e-14 91748.2)
(-728146 29979.7 4.19752e-14 5475.1 -7.26106e-14 -179309)
(-662548 30653.2 -4.35531e-14 5564.5 -3.92267e-14 -163011)
(-386010 76396.2 3.33511e-15 10628.6 3.33659e-14 -93139.8)
(111924 63718.3 -2.31585e-14 -5497.23 -1.54608e-13 26406.7)
(158953 59890.7 -3.70939e-14 -5475.91 -1.07394e-13 38080.7)
(-234524 58299.1 -1.12082e-14 7779.36 6.48616e-14 -56260)
(942407 37238.2 -7.1161e-14 1122.38 -2.39832e-14 234109)
(-979328 -6632.85 6.85324e-14 -8541.6 2.12467e-14 -245111)
(546614 39686.3 4.81575e-14 -3075.43 -4.48737e-14 134863)
(-298793 45271 1.10792e-15 5199.91 6.59779e-15 -72846.4)
(-133173 61626.9 -6.00814e-14 3041.47 -4.97063e-14 -32288.2)
(-139352 53656.5 5.14199e-14 -734.736 -4.65843e-14 -34758.4)
(13927.1 69046.7 3.9089e-14 2087.5 7.15053e-14 3973.55)
(-196885 46442 -8.79207e-14 1349.87 9.12844e-14 -48516.2)
(163160 53340.3 -4.61585e-14 -4252.52 -4.88415e-14 39428.1)
(109807 62890.6 -4.22518e-14 1291.22 3.26133e-14 27565.7)
(-357433 49840.5 7.15605e-14 6357.09 -4.8228e-14 -87109.1)
(-497302 53766.1 2.6135e-14 2114.64 5.71389e-14 -122866)
(1.04034e+06 24474.8 1.65185e-14 1397.95 -2.4086e-16 258476)
(-4331.99 71554.9 2.05191e-14 303.249 -9.99542e-14 -999.612)
(1.5562e+06 64768 -1.95258e-14 -10331.9 -1.06675e-14 383561)
(-162293 55530.1 -7.59434e-14 1593.36 5.23936e-14 -39872.9)
(1.31696e+06 42524 0 -14541.7 0 323157)
(-368783 55858 2.27393e-14 -2516.62 9.47557e-14 -92127.1)
(-405155 56800.2 -2.33048e-14 -3416.03 2.77235e-14 -101375)
(-443402 59696.5 -3.68937e-15 -3558.37 1.00815e-13 -110900)
(198707 60205.1 -5.64099e-14 480.01 1.38971e-14 49422.3)
(134873 63813.8 -6.00747e-14 -391.996 1.48554e-14 33367.6)
(-1.711e+06 -7493.76 1.55394e-14 -7131.84 -8.89081e-15 -426304)
(-1.02811e+06 60344.8 -1.56265e-14 -5670.99 2.9677e-14 -256501)
(348502 45513 -5.99913e-14 4088.14 -3.51514e-14 87484.7)
(479732 41429.4 1.69056e-13 3243.23 -9.09638e-14 119836)
(56107.5 66902.7 3.29842e-14 -6439.32 -8.53906e-14 12323.7)
(-290213 33302.7 0 1791.66 0 -71563.3)
(-295799 21930.1 9.01795e-14 287.179 -4.58904e-14 -73322.4)
(1.45706e+06 45490.1 2.50926e-14 -10699.8 1.67755e-14 358873)
(1.49346e+06 -2900.5 2.07663e-14 9966.24 1.84314e-14 373030)
(759832 27290.5 1.14466e-15 -228.383 4.3462e-14 188473)
(692827 27366.8 8.59483e-15 711.677 1.05004e-13 172081)
(832397 26237.9 2.26126e-14 -1067 -3.26567e-14 206270)
(-355473 57116.5 -5.44542e-14 3308.03 4.90581e-14 -87379.3)
(-238784 56799.4 -5.27756e-14 1598.27 5.79621e-14 -58850.5)
(153867 74036.8 0 1538.64 0 38559.2)
(103461 75538 -2.21536e-15 888.133 8.40132e-14 25891.2)
(335901 58444.3 -6.52066e-14 -492.449 5.33668e-14 83221.7)
(-143370 55786.9 -5.21228e-14 1413.75 1.23829e-13 -35222.1)
(-234567 84141.9 -1.05569e-14 2412.12 4.68966e-14 -57602.4)
(69170.4 62850.7 -1.9226e-13 -879.915 -5.10875e-14 16944.3)
(97639.1 57939.7 -1.33271e-13 -215.719 5.58343e-14 24172.7)
(-63887.7 69485.2 -2.5911e-14 1772.44 -3.61868e-16 -15412.1)
(-176051 52374.8 -2.19135e-14 3651.53 -1.37195e-14 -42775.7)
(-160372 51131.1 1.44064e-14 2700.21 -2.46555e-14 -39121.5)
(-163606 41284.6 0 -834.391 0 -40801)
(-82462.6 87939.8 3.12546e-16 -3926.19 -2.93759e-14 -21434.8)
(-717902 8773.01 6.32767e-14 -6147.54 -2.77126e-14 -179651)
(904884 42968.7 -8.28026e-14 -3871.61 -8.27001e-15 223559)
(1.2118e+06 140299 5.12957e-15 -217134 2.60626e-15 246797)
(-29056.8 62821.5 1.71661e-14 -2258.34 -3.89635e-14 -7769.93)
(178364 25290.6 6.2631e-14 1156.98 -1.43153e-13 44542.8)
(-1.52606e+06 -181629 1.28553e-14 128094 -8.46295e-15 -346863)
(82625 51116.9 2.68195e-15 3604.28 7.27751e-14 21395.2)
(221617 35542.2 5.05872e-14 2390.14 -5.81229e-14 55580.8)
(244171 38169.8 7.0629e-14 -3938.21 -2.98279e-14 59606.6)
(-3265.41 71556.3 5.31771e-14 -17.8197 -7.89895e-15 -814.637)
(-3869.15 73456.5 5.60956e-14 -568.225 4.75107e-15 -1101)
(655329 31253.4 1.80282e-14 -4905.38 6.04241e-14 161383)
(542556 70906 2.30733e-14 2688.16 -5.57836e-15 135286)
(-492211 59426.9 0 3712.26 0 -121207)
(-421593 37286 -5.8312e-14 -7390.37 -3.65194e-14 -106440)
(1.48179e+06 -238640 -5.38257e-15 -65130.1 -3.69742e-15 351502)
(-439721 95195.3 -4.76353e-15 11780.8 5.63661e-14 -106181)
(-710004 41558.6 3.32772e-14 -2424.65 -1.97203e-14 -176768)
(-1.54945e+06 -623161 -1.45354e-14 329375 5.7118e-15 -302725)
(1.79007e+06 3580.82 0 24587.5 0 450253)
(-1.35732e+06 -577721 -4.7325e-15 156238 1.46959e-15 -298012)
(227296 97267.7 -3.17472e-14 78.7487 1.1274e-14 56416.2)
(-51430.7 59612.2 -5.42596e-15 -2558.07 7.59515e-14 -13395.7)
(-657415 71202.4 2.76428e-14 -5295.95 -3.05203e-14 -164432)
(-595592 68824.2 4.10639e-14 -4096.27 -5.11579e-15 -148795)
(-542298 66564.9 -4.66403e-14 -3749.85 1.79303e-15 -135486)
(193420 53029.2 4.02688e-14 3055.15 -1.12454e-13 48749.6)
(286378 49122.1 -1.01223e-13 3430.46 9.8496e-14 71907.4)
(28705.2 61129.9 -1.58875e-14 -6225.99 7.46531e-14 5577.56)
(40174.8 56083.2 3.76845e-14 -7523.76 4.83318e-14 8101.38)
(-99514.7 90623 -4.42387e-14 14805.6 1.20055e-14 -21018)
(-59480.7 53716.9 3.22658e-14 10592.8 -4.1329e-14 -12130.1)
(-851182 -342740 -3.67059e-15 -20816.8 7.67084e-16 -216361)
(146470 90670.9 -2.49996e-14 11246.9 -8.90873e-14 39132.8)
(-72123.9 55222.1 -8.4224e-14 -6263.85 -3.85525e-14 -19449.6)
(-338314 80317.1 0 308.318 0 -83866)
(146640 56289.3 6.64764e-14 1318.23 -2.72371e-14 36711.3)
(-71211.9 71069.1 0 -39.3956 0 -17678.9)
(-55175.2 61420.4 -4.08355e-14 20.5682 -6.47676e-14 -13685)
(500606 58891.5 5.77393e-14 3339.4 -6.03867e-14 125039)
(514642 40996.2 8.8196e-14 -480.956 4.21626e-14 127574)
(1.54243e+06 -620443 -5.4227e-15 -328932 -1.79993e-15 301095)
(847451 -341570 6.34434e-15 20494.8 1.74231e-15 215355)
(-163740 46337.6 1.24496e-14 1003.58 1.7738e-14 -40378.1)
(-175366 47980.2 -3.78149e-14 -2228.64 -7.74348e-14 -44064.7)
(-899965 7804.59 -4.21026e-14 -4414.86 -9.68888e-15 -224395)
(724233 42352.8 9.48694e-14 -3512.55 -2.48509e-14 178825)
(238453 58135.1 3.08242e-15 -1499.43 1.71618e-13 58792.9)
(354063 59514.5 5.82761e-14 -2598.77 6.3464e-14 87205.5)
(-839479 27363.5 -1.48244e-15 -1820.21 3.71684e-14 -208743)
(-768518 28260.1 -3.74882e-14 -281.53 1.24025e-14 -190755)
(-699830 29380.6 -2.38685e-15 -439.869 5.81031e-14 -173751)
(-10072.5 72596.7 -8.8527e-14 -1078.04 2.56411e-14 -2766.69)
(-921351 27967.9 2.46917e-14 -1882.95 2.65847e-14 -229073)
(295979 56619.3 -5.97237e-14 -1658.02 2.93343e-14 73026.9)
(410884 57414.1 0 -2944.85 0 101218)
(389349 47233 2.28551e-14 -2689.96 5.47419e-14 95937.9)
(76108.6 59989 -7.47998e-14 2208.51 -1.9802e-13 19432.1)
(5608 65419.1 -6.5565e-14 -7247.66 -2.41538e-14 -406.834)
(338189 43224.7 -8.67991e-14 11184.8 1.57069e-14 86686.6)
(-275962 47927.4 -7.24303e-15 -896.629 -5.84313e-14 -68694.1)
(43256.1 70512.8 1.00411e-15 -10346.1 1.28261e-14 8165.64)
(1.35079e+06 -575773 -4.91091e-15 -156768 -1.23949e-15 296261)
(192334 64007.6 6.04525e-15 -2514.59 -1.10863e-13 47098.2)
(232485 62984.3 5.15372e-14 -273.984 1.75462e-14 57616.2)
(-155125 63199.9 0 1143.55 0 -38205.9)
(-184053 69406.5 1.91211e-14 -4002.12 -5.33265e-14 -46660.3)
(538415 65893.9 0 5903.58 0 135056)
(591336 68966.4 3.42619e-14 5464.98 3.26046e-14 148078)
(646831 72788 -7.72064e-14 5459.67 -7.4184e-15 161847)
(-288862 46527.2 1.06845e-13 -4328.65 1.08628e-13 -72746.5)
(-197682 51246.6 5.59857e-15 -3320.3 -6.49199e-14 -49872.8)
(-12107.4 70673.8 6.30537e-14 1329.1 3.36176e-14 -2674.33)
(1.37173e+06 19906 -1.01922e-14 -21434.4 -1.89731e-14 335035)
(-9388.23 74930.1 -6.82568e-14 -4503.96 2.12881e-14 -3446.94)
(14160.2 47183.9 -6.6754e-14 8161.87 -4.16697e-14 5538.55)
(28624.8 67764.1 4.90017e-14 548.856 -1.13887e-13 7238.57)
(304078 63183.9 5.25686e-14 -671.212 5.56479e-14 75281.4)
(-126107 10290.5 -8.6785e-14 -2882.2 4.26691e-15 -32004.9)
(400131 70647.7 0 -2520.53 0 98655.2)
(1.45708e+06 -50626.5 2.37352e-16 -212090 9.57001e-17 308908)
(309698 21549.2 5.00718e-14 4165.36 1.13989e-13 77875.8)
(296353 30388.5 2.26992e-14 -4827.65 1.23789e-14 72333.4)
(-437925 58829.5 7.4955e-15 4360.14 1.58149e-14 -107576)
(-312228 57029.9 -5.81694e-14 2811.94 1.86433e-14 -76772.4)
(-373616 41275.5 -1.19217e-13 -125.682 -2.08954e-14 -92732.9)
(-268133 45285.1 6.00188e-15 -1595.96 -6.32022e-15 -66925.3)
(959153 25156.4 -4.32846e-15 -2330.31 1.41451e-14 237407)
(792571 77354 1.85023e-15 72.8219 -2.92382e-14 196671)
(219632 68336.1 1.05589e-14 -1980.6 6.25193e-15 54003.7)
(296163 58810.3 1.98051e-14 573.666 3.37633e-14 73626.3)
(161592 68559.8 5.4994e-14 -3730.09 3.9233e-14 39168.8)
(218532 59171.9 4.93293e-14 -3214.81 -7.8177e-15 53424.6)
(-436125 48324.6 -9.30224e-15 3758.62 2.34609e-14 -107279)
(-571809 67977 -2.58605e-14 654.638 4.64615e-15 -141715)
(-135911 102223 2.89863e-14 -635.251 2.07771e-14 -33879.9)
(961343 50884.2 3.24727e-14 3770.08 2.34144e-14 239464)
(1.04318e+06 51647.9 -7.06496e-15 16703.1 3.53068e-15 262978)
(1.24327e+06 51324.6 5.72757e-15 -2489.1 3.62613e-15 307864)
(82747.1 66230.2 -1.06906e-13 2189.22 1.29966e-13 21074.4)
(-305801 22842.6 -6.62703e-14 -2364.24 -3.40957e-14 -76462.1)
(-294290 32484.3 -8.40761e-14 5333.69 5.62886e-14 -71696)
(1.42653e+06 536.301 0 10893.4 0 356653)
(1.42848e+06 50687.7 0 954.186 0 354671)
(812810 41261.9 1.29406e-14 -1911.96 6.23626e-14 201200)
(808247 13901.9 4.20227e-14 3914.48 -1.17527e-13 201514)
(-844929 14440.8 0 -7380.4 0 -211475)
(-822738 40393.2 0 5692.62 0 -202725)
(24679.5 66578.7 -1.473e-14 3210.73 4.22488e-14 6920.13)
(-63491.6 35450.9 1.57713e-13 -4606.91 -6.68396e-14 -16896.6)
(-231292 31492.2 -4.1576e-14 -3324 -1.53544e-14 -58213.1)
(1.91247e+06 4344.37 0 39334 0 484282)
(-34223.1 60621.7 -1.03973e-13 -4389.29 -2.61127e-15 -9580.51)
(-39110.3 63405.8 -1.49755e-14 -5588 -8.3416e-14 -11090.6)
(194917 72374.7 -5.38261e-14 -3951.2 -3.69275e-14 47382.4)
(-156129 72610.3 -1.12333e-13 -3813.68 4.70994e-14 -39684.9)
(186702 48668.8 3.28337e-14 -6212.65 -3.39943e-14 44783.1)
(-720887 39566.3 2.31068e-14 -5931.75 -4.72409e-14 -180339)
(721868 42370.7 -9.51345e-15 -6735.43 -5.77967e-14 177439)
(-1.27752e+06 62778.2 1.01139e-14 -7791.97 -4.40073e-14 -318913)
(-1.58073e+06 -135842 5.5508e-15 303863 -4.06722e-15 -316817)
(538725 87677 -8.77268e-15 -11377.6 1.09781e-14 130846)
(55628.1 78018 -5.61193e-15 -3199.97 3.15819e-14 13008.5)
(-680843 65012.6 -2.8211e-14 -4788.84 -7.87526e-14 -170119)
(568179 28713.5 -3.64679e-14 5380.35 5.25721e-14 142312)
(-399645 43165.7 4.04092e-14 -7454.49 5.1842e-14 -101010)
(307275 63512.3 6.0253e-14 3601.71 1.04212e-15 77134.9)
(55605.3 74528.8 1.67178e-14 2044.29 7.83563e-16 14304)
(100275 60760.8 -7.07096e-14 -1280.36 8.8931e-14 24562.7)
(-202327 53798.3 4.95069e-14 -12965.3 -5.27265e-14 -53418.5)
(-325706 93662 8.63484e-16 5057.7 6.63986e-14 -79559.3)
(-184115 52918.7 7.58297e-15 -12217.3 -5.30774e-14 -48714)
(-296620 89393 4.8098e-14 4133.76 -1.75965e-14 -72571.7)
(71899.9 48131 -3.06245e-14 -2396.64 9.55268e-15 17245.2)
(-33655.3 75929.3 -7.94316e-16 2090.03 -5.86248e-14 -7831.98)
(-22092.8 76747.3 7.24645e-14 1626.69 5.81938e-14 -5078.05)
(-15356.8 72148.8 3.72691e-14 60.207 -8.12689e-14 -3795.38)
(1.03034e+06 39180.6 2.24007e-14 2189.17 3.46029e-15 256192)
(-10940.1 77253.4 -8.23806e-14 -4845.4 -3.66639e-14 -3916.69)
(-40941.8 62334.6 4.04676e-14 -6615.18 -1.35695e-13 -11799.8)
(1.46303e+06 -32907.2 -1.11836e-14 -76842.6 -8.2728e-15 343941)
(224266 49492.8 4.32198e-14 -4636.47 -5.54833e-14 54494.6)
(-536955 82119.8 2.95855e-14 9450.18 8.02087e-15 -130885)
(-595576 50605.7 -4.74036e-14 1765.94 -2.07677e-14 -147336)
(-592348 27964.3 0 -5888.48 0 -148435)
(746186 19748.8 -4.28349e-14 5260.35 -2.03793e-14 186449)
(713347 57844.8 2.50154e-15 7588.1 5.11239e-14 178879)
(-25462.5 53078.8 -4.78794e-14 2006.69 3.90815e-14 -5819.86)
(-19371.9 53380.8 3.47452e-14 1860.41 -1.9447e-13 -4344.95)
(-492904 88788.7 -1.9748e-14 4924.49 -4.96935e-16 -121078)
(-662837 66609.7 0 7791.46 0 -162530)
(472388 48621.2 1.08599e-14 4953.06 2.70716e-14 118438)
(-1.23136e+06 79418.2 4.73409e-15 -4489.4 -1.52086e-14 -306638)
(38343.7 55521 0 8609.48 0 11650)
(654169 41376.6 -2.36487e-15 -247.503 1.61892e-14 162251)
(494761 85781.4 -1.25821e-15 5985.29 6.23985e-17 124245)
(-303216 67780.9 8.92996e-14 5307.74 -1.14885e-14 -73917)
(-235967 49790.5 -8.70105e-15 1229.41 6.29977e-14 -58243.2)
(-215939 65597.2 1.37665e-14 3166.16 -5.24446e-14 -52793.2)
(-168062 52459.5 -7.78222e-16 -567.764 3.08138e-15 -41840.4)
(-248849 35983.5 3.22015e-14 1901.44 4.76005e-14 -61272.8)
(-208454 40564.4 -5.63266e-14 5654.2 1.13547e-14 -50318.7)
(-251440 80265.9 0 1557.21 0 -62001)
(-285049 83611.8 -2.88614e-14 201.492 2.51255e-14 -70676.4)
(-312952 88131.8 -2.37007e-15 671.566 -2.70673e-15 -77483.1)
(82798.1 56348.2 -1.38622e-13 1508.09 -6.93718e-14 20918.1)
(-17085.2 68834.6 -3.07636e-14 -2440.46 6.1323e-14 -4844.7)
(595560 35075 -1.75709e-14 4266.25 4.98818e-14 148829)
(622872 45788.1 2.42955e-14 -4730.44 -4.71198e-14 153373)
(104507 61404.7 4.99386e-15 -1354.62 -3.46233e-14 25594.1)
(150615 54701.7 0 1653.01 0 37780.8)
(-345568 86665.1 3.66044e-14 -3082.53 -4.03763e-14 -86507.3)
(298486 56946.9 -6.99103e-14 3943.55 -8.51561e-16 75038.8)
(325891 78266.8 -3.05974e-14 4742.69 -1.8823e-15 82036.9)
(-115770 63639.9 -5.70105e-14 -2530.41 8.18182e-14 -29352.7)
(-97870.3 65717.8 3.32755e-14 -2473.58 1.95943e-15 -24897.4)
(-143595 68437.2 5.40466e-14 811.174 1.92451e-14 -35427.7)
(-159641 60596.8 0 -427.681 0 -39716.3)
(-719372 42092.5 1.62702e-14 147.983 -2.49565e-14 -178454)
(316230 61202.9 -2.60874e-14 349.269 -1.03563e-13 78549.7)
(227643 61355.2 -1.19563e-14 -485.082 -1.70965e-15 56362.5)
(-85083.6 160959 -7.6057e-15 14750.1 -5.52678e-15 -17451.2)
(823642 30855.1 -5.50284e-14 -6623.77 -3.30013e-14 202719)
(-970393 14208.1 4.79345e-14 2178.94 2.87127e-14 -240234)
(-124470 150132 0 -6142.28 0 -32407.5)
(-118032 63566.7 1.99191e-14 2409.44 6.02038e-14 -28688.4)
(-100470 66621.4 -1.49827e-13 4083.05 -3.80448e-14 -23915.7)
(-169882 59383.1 6.47267e-14 1315.07 7.27433e-16 -41824.9)
(-146484 64135.3 0 2948.58 0 -35614.1)
(331050 53687.3 3.38424e-14 -2298.63 -5.45088e-14 81569.9)
(380213 70808.2 1.23213e-14 -2714.02 5.23156e-15 93665.1)
(305987 55886.4 -2.5023e-14 -4806.3 2.39897e-14 74729.1)
(357214 71563 2.65827e-14 -3755.09 7.38328e-14 87700.2)
(278084 54088.4 2.08066e-14 -3570.13 3.5015e-14 68112.5)
(324634 68482.7 -4.53069e-14 -3050.62 2.59296e-14 79791.5)
(261345 34220.8 2.03128e-14 1075.93 7.68218e-14 65112)
(252246 23439.6 5.97458e-14 4381.71 1.28074e-13 63674.5)
(-523058 73004.2 -1.18744e-14 -109.491 1.56941e-14 -129808)
(230807 65106 -6.19782e-14 -3355.63 -1.50084e-15 56435.2)
(-567002 54716.8 0 4342.51 0 -139607)
(978558 72152.4 3.44554e-14 -8905.19 -2.17194e-14 240590)
(-480841 34968 6.24937e-14 1802.52 -1.02931e-13 -118859)
(-353025 38265.8 7.53717e-14 253.654 -5.07055e-14 -87529.8)
(-1.16995e+06 -553032 -4.5094e-15 188861 1.01114e-15 -243428)
(34809.1 65190.6 8.41111e-14 632.613 -2.21176e-14 8793.8)
(1.04092e+06 45040.9 -1.14949e-14 -2809.09 -5.70855e-16 257576)
(-490862 49040.6 -1.7563e-14 1440.1 -5.08454e-14 -121435)
(-355694 48267.8 1.0925e-13 854.151 5.38304e-14 -88042.9)
(1.59359e+06 -5895.72 1.89247e-14 -3158.92 8.42996e-15 394619)
(-70006.6 58809.9 -1.20645e-14 -302.661 4.84577e-14 -17445.2)
(1.07845e+06 18292.8 2.87404e-14 3337.35 -1.79044e-14 268413)
(-249326 50070.2 3.77516e-14 1596.48 -6.66337e-14 -61466.8)
(-907462 73935.1 2.33881e-14 9359.01 -3.03845e-15 -222838)
(-853332 50743.6 -1.42896e-14 -5675.5 -1.10424e-15 -213137)
(820126 52142.3 -2.71001e-14 781.144 1.77892e-14 203684)
(-101167 65125.9 -1.65704e-13 4572.23 -7.55235e-14 -23967.1)
(-2571.38 -29736.3 1.83436e-16 -46581.3 6.5138e-17 -12195.8)
(-14277 63148.1 0 3001.32 0 -2797.73)
(-1.5519e+06 -494430 7.39961e-15 199635 -2.04573e-15 -335524)
(1.16397e+06 -551182 8.74022e-15 -190314 2.76311e-15 241583)
(-712938 75860.4 2.99183e-14 -6563.74 -2.91235e-14 -178523)
(240087 50129 1.26073e-14 1426.3 4.87717e-14 59924.5)
(328327 45023.5 -4.07538e-14 1628.96 9.27299e-14 81868.9)
(99692.4 62992.2 8.12333e-14 -1697.1 2.42251e-14 24314.6)
(-183786 18705.2 4.70898e-14 606.68 -7.24797e-14 -45450.4)
(158270 76297.6 -3.94122e-14 -889.804 3.60989e-14 39049.2)
(-81781.6 51710.7 1.16418e-14 962.006 1.78717e-14 -20053)
(-81180.3 89579.6 8.59374e-15 3156.99 2.50627e-14 -19359.2)
(-1.26268e+06 12035 -4.01586e-15 34570 9.70947e-15 -304719)
(10417 -17695 4.81183e-17 -30876.3 2.98529e-17 -5076.37)
(-407339 75219.3 -1.72698e-16 4969.1 3.31643e-15 -99836)
(317288 46400.1 2.94403e-14 -1514 9.15159e-14 78349.9)
(1.31894e+06 -254837 7.67918e-16 -35873.6 1.01955e-15 318355)
(-36556 51123.1 -7.59711e-15 -5481.26 -5.91243e-14 -10430.3)
(-41430 78331.3 6.02901e-15 -1825.64 5.77315e-14 -10732.6)
(-24040.2 69044.3 -1.03279e-15 1015.24 -8.86391e-14 -5712.96)
(-65483.5 65685 -1.67038e-14 1861.75 2.28364e-14 -15785.9)
(27101.7 68146.3 2.62838e-14 -868.232 6.80042e-14 6509.06)
(18263.4 71494.7 -6.16319e-14 -837.34 -2.01479e-14 4323.75)
(-1.32561e+06 -253898 3.32454e-15 34759.6 -1.02549e-15 -320286)
(445386 76815.4 -2.48682e-14 1204.9 1.35136e-14 110808)
(-154723 61908.2 -1.64897e-13 1205.41 -4.68323e-14 -38090.8)
(507916 65250 8.79285e-14 5518.56 -1.48761e-13 127394)
(462494 62587 -9.90314e-16 4839.25 -5.67447e-14 115955)
(421012 59552.8 -1.61449e-13 2459.2 2.44707e-14 105072)
(74949 40744 -8.05738e-14 4292.01 -3.01761e-14 19661.3)
(-1.02994e+06 31428 4.44382e-14 -3159.09 -4.3298e-14 -256334)
(313834 49141.7 8.74358e-14 -1643.01 9.42971e-15 77461)
(440422 49472.2 -3.96232e-14 -1544.84 -5.67841e-14 108894)
(-88468.1 62396.4 -1.39627e-13 -502.484 -2.35731e-14 -22075.4)
(673889 84702.6 9.52273e-15 -8817.73 1.39093e-14 165018)
(124427 49976.7 -5.65037e-14 -1251.57 3.83166e-14 30562.3)
(-1.35699e+06 26130.2 -1.53359e-14 -1869.94 -5.72867e-15 -337161)
(37765.5 63936.3 -7.28558e-14 2002.28 -6.13738e-14 9867.19)
(-111660 66350.9 -1.44918e-13 2497.77 6.8528e-14 -27085.2)
(364261 54471.8 1.1141e-13 2589.01 -1.61385e-14 91022.9)
(331320 52951.6 1.03618e-13 1766.77 2.52134e-14 82645.7)
(301592 50527.9 -7.48841e-14 18.9454 2.06843e-14 74835.8)
(703399 46076.2 1.14323e-14 248.577 2.43503e-14 174589)
(143221 64485.6 -4.89308e-14 2185.06 -1.05038e-13 36078.1)
(-376756 58475.2 3.4152e-14 -5734.94 7.75202e-16 -94903.8)
(-301712 98283.1 2.10459e-14 2909.32 2.35608e-14 -74139.1)
(-164408 45705.1 0 1006.5 0 -40543.2)
(-509982 70843.7 -4.54632e-14 -5471.13 1.38466e-14 -127894)
(-560185 73375.7 -6.86942e-14 -6012.72 -4.57867e-15 -140485)
(-614627 78043.2 -6.88175e-14 -6954.28 3.32178e-14 -154227)
(284902 51037.7 1.38041e-15 4360.09 1.72617e-14 71771.9)
(196305 56479.5 2.17921e-14 2573.8 -2.73123e-14 49345.8)
(58333.7 12708.9 -6.33717e-14 2692.88 2.28763e-14 15141.9)
(103343 52682.7 0 -1923.51 0 25164.3)
(134027 44091.6 -7.41598e-14 35.1438 4.43053e-14 33263.7)
(1.59084e+06 -68056.1 -4.14198e-15 -218697 -2.01515e-15 340457)
(559367 37995.6 7.39241e-14 -544.563 -7.58817e-14 138655)
(-427870 63931.9 0 190.779 0 -106116)
(-303979 59843.2 -3.6564e-14 5814.69 -1.61722e-15 -73980.5)
(240515 63473.7 1.94268e-14 -2556.16 -2.40444e-14 59042.3)
(-77400.1 70755.3 3.24123e-14 -1737.52 2.66152e-14 -19635.6)
(-12222.1 73621.6 9.51476e-14 -1280.06 -7.5079e-14 -3350.15)
(23016.8 53888.7 7.70097e-14 6525.72 -1.22107e-14 7330.1)
(25582.3 55357.4 -4.04436e-14 7061.45 -3.77477e-14 8099.57)
(-6088.7 91040.2 -2.03433e-15 -3202.81 -1.67416e-14 -2305.41)
(-6437.03 49414.7 -1.78202e-14 -612.909 6.00025e-14 -1749.23)
(-1327.72 56263.4 -6.65664e-14 -2399.89 4.9651e-14 -924.895)
(8515.77 63469.3 6.34943e-14 -11653.5 -2.88829e-14 -778.529)
(109605 49340.6 -5.0713e-15 2109 -2.40775e-14 27718.5)
(-215695 97184.3 -1.20422e-15 1782.77 -1.17911e-14 -53076)
(63901.4 61905.2 1.59413e-13 57.6515 -3.14114e-14 15869.5)
(6838.46 94642.2 6.92632e-15 -12530.4 9.97939e-15 -1412.29)
(-445821 92835 -1.72097e-14 -2657.2 -1.03866e-14 -111277)
(544230 47854.4 5.60406e-14 3951.93 5.01596e-14 136015)
(-231410 64443.3 -6.13817e-14 -11.7551 2.00924e-14 -57420.3)
(-1.05783e+06 204889 -3.02326e-15 193304 1.83204e-15 -214506)
(-148840 45014.3 4.36408e-14 -2355.4 4.74607e-14 -37514.6)
(-245868 92678.3 0 1551.11 0 -60619.9)
(69694.4 60860.9 8.50488e-14 -1985.7 -1.17619e-13 16799.9)
(106588 54127.8 4.50459e-15 -62.413 1.4653e-14 26431)
(1.16339e+06 -257022 -9.39454e-16 36812.4 1.6628e-16 297794)
(-1.56666e+06 13946.9 -1.27205e-14 8756.23 5.85424e-15 -386548)
(460252 50880.1 2.72349e-14 5852.19 2.29329e-14 115650)
(505902 52605.8 -2.78733e-14 5931.06 6.06177e-14 126996)
(-156954 66075.4 -2.01699e-13 3359.77 -7.20877e-14 -38109.9)
(104827 79080 3.58356e-14 6600.46 7.07747e-14 27647.4)
(-25309.3 60113.6 5.67378e-14 -4336.6 8.64663e-14 -7355.74)
(-660904 -429596 -8.02859e-16 50289.4 3.38449e-16 -151506)
(-1.51233e+06 57455.1 4.18474e-15 1967.46 5.39124e-15 -374751)
(1.35026e+06 33903.1 2.27656e-14 1406.83 -1.12749e-14 335376)
(-1.97751e+06 -30938.3 -5.95224e-15 -5809.02 -2.57967e-15 -492103)
(587583 44497.9 -2.47035e-14 -3803.65 -3.85201e-14 144848)
(407814 41879.7 -4.09567e-14 -2812.57 1.50703e-13 100489)
(-530376 69917.2 0 10849.2 0 -128905)
(66905 44433.3 -7.40495e-14 -6361 3.52342e-14 15022.2)
(-49228.6 77314 -6.04356e-14 3336.85 3.20352e-14 -11386.7)