/*--------------------------------*- C++ -*----------------------------------*\
| =========                 |                                                 |
| \\      /  F ield         | OpenFOAM: The Open Source CFD Toolbox           |
|  \\    /   O peration     | Version:  2.3.1                                 |
|   \\  /    A nd           | Web:      www.OpenFOAM.org                      |
|    \\/     M anipulation  |                                                 |
\*---------------------------------------------------------------------------*/
FoamFile
{
    version     2.0;
    format      ascii;
    class       volScalarField;
    location    "0.44";
    object      k;
}
// * * * * * * * * * * * * * * * * * * * * * * * * * * * * * * * * * * * * * //

dimensions      [0 2 -2 0 0 0 0];

internalField   nonuniform List<scalar> 
1000
(
0.002653
0.00270706
0.00270775
0.00270765
0.00270761
0.00270759
0.00270757
0.00270757
0.00270749
0.00270249
0.00270792
0.00271248
0.00271265
0.0027126
0.00271258
0.00271256
0.00271255
0.00271254
0.00271226
0.00270333
0.00270967
0.00271381
0.00271404
0.002714
0.00271398
0.00271396
0.00271393
0.00271393
0.00271363
0.00270436
0.00271081
0.0027153
0.00271558
0.00271558
0.00271556
0.00271554
0.00271551
0.0027155
0.0027152
0.00270579
0.00271264
0.00271773
0.00271809
0.00271815
0.00271816
0.00271812
0.00271814
0.00271807
0.00271779
0.00270786
0.00270665
0.00271155
0.00271202
0.00271211
0.00271215
0.00271216
0.00271217
0.00271217
0.00271192
0.00270346
0.00271228
0.00293251
0.00294355
0.00294404
0.00294408
0.0029441
0.0029441
0.00294394
0.00293558
0.00270949
0.00271359
0.00294448
0.0029561
0.00295655
0.00295657
0.00295657
0.00295656
0.00295638
0.00294746
0.0027108
0.00271486
0.00294532
0.00295691
0.00295735
0.00295737
0.00295735
0.00295735
0.00295718
0.00294824
0.00271214
0.00271668
0.00294614
0.00295773
0.0029582
0.00295821
0.00295821
0.00295821
0.00295801
0.00294908
0.00271407
0.00270867
0.00271264
0.00271306
0.00271316
0.00271321
0.00271324
0.00271325
0.00271326
0.00271299
0.0027043
0.00271309
0.0029437
0.00295532
0.00295581
0.00295585
0.00295586
0.00295587
0.00295569
0.00294681
0.00271059
0.00271428
0.00295612
0.00296852
0.00296901
0.00296903
0.00296903
0.00296903
0.00296882
0.00295935
0.0027118
0.0027155
0.00295692
0.00296931
0.00296979
0.00296981
0.0029698
0.0029698
0.0029696
0.00296009
0.002713
0.00271711
0.0029574
0.00296978
0.00297027
0.00297029
0.00297028
0.00297028
0.00297007
0.00296057
0.00271465
0.00270952
0.00271334
0.00271369
0.00271376
0.00271381
0.00271384
0.00271385
0.00271386
0.0027136
0.00270489
0.00271368
0.0029446
0.00295615
0.00295662
0.00295666
0.00295667
0.00295667
0.00295649
0.00294759
0.00271113
0.00271472
0.00295674
0.00296912
0.00296961
0.00296963
0.00296963
0.00296963
0.00296943
0.00295993
0.00271226
0.00271583
0.0029575
0.00296989
0.00297038
0.0029704
0.00297039
0.00297039
0.00297018
0.00296067
0.00271333
0.00271727
0.00295786
0.00297023
0.00297072
0.00297074
0.00297073
0.00297072
0.00297051
0.002961
0.00271475
0.00270996
0.00271373
0.00271404
0.00271409
0.00271412
0.00271415
0.00271416
0.00271416
0.0027139
0.00270518
0.00271403
0.00294502
0.00295654
0.002957
0.00295703
0.00295704
0.00295704
0.00295685
0.00294794
0.0027114
0.00271498
0.00295686
0.00296922
0.00296971
0.00296973
0.00296973
0.00296973
0.00296952
0.00296003
0.00271248
0.00271601
0.00295759
0.00296996
0.00297045
0.00297047
0.00297047
0.00297047
0.00297025
0.00296074
0.00271348
0.00271734
0.00295791
0.00297026
0.00297075
0.00297077
0.00297076
0.00297076
0.00297054
0.00296103
0.00271478
0.00271006
0.00271387
0.00271417
0.00271421
0.00271423
0.00271425
0.00271427
0.00271426
0.002714
0.00270521
0.00271415
0.0029453
0.0029568
0.00295725
0.00295727
0.00295728
0.00295728
0.00295709
0.00294817
0.00271147
0.00271512
0.00295698
0.00296932
0.00296982
0.00296984
0.00296984
0.00296984
0.00296962
0.00296013
0.00271258
0.00271618
0.00295772
0.00297008
0.00297057
0.0029706
0.00297059
0.00297059
0.00297037
0.00296086
0.00271362
0.00271754
0.00295806
0.00297038
0.00297088
0.0029709
0.0029709
0.00297089
0.00297066
0.00296115
0.00271495
0.00270988
0.00271382
0.00271411
0.00271414
0.00271416
0.00271418
0.00271419
0.00271418
0.00271392
0.00270497
0.00271408
0.00294542
0.00295691
0.00295736
0.00295738
0.00295738
0.00295738
0.00295719
0.00294827
0.00271135
0.00271518
0.00295714
0.00296947
0.00296997
0.00296999
0.00296999
0.00297
0.00296978
0.00296028
0.0027126
0.00271642
0.00295796
0.00297031
0.00297081
0.00297083
0.00297083
0.00297083
0.0029706
0.00296108
0.00271382
0.00271797
0.00295838
0.0029707
0.00297119
0.00297122
0.00297122
0.0029712
0.00297096
0.00296144
0.00271531
0.0027094
0.00271346
0.00271375
0.00271378
0.0027138
0.00271381
0.00271381
0.0027138
0.00271354
0.00270445
0.00271374
0.00294526
0.00295675
0.0029572
0.00295722
0.00295722
0.00295723
0.00295703
0.00294811
0.00271097
0.00271506
0.00295703
0.00296935
0.00296985
0.00296988
0.00296988
0.00296988
0.00296966
0.00296016
0.00271243
0.00271654
0.00295794
0.00297027
0.00297078
0.0029708
0.00297081
0.0029708
0.00297056
0.00296104
0.00271387
0.00271842
0.00295848
0.00297078
0.00297128
0.00297131
0.00297131
0.00297129
0.00297104
0.00296148
0.00271569
0.00270857
0.00271254
0.00271282
0.00271284
0.00271286
0.00271286
0.00271286
0.00271286
0.0027126
0.00270359
0.00271294
0.00293598
0.0029469
0.00294733
0.00294734
0.00294735
0.00294735
0.00294716
0.00293862
0.00271005
0.00271447
0.00294705
0.00295874
0.00295921
0.00295923
0.00295923
0.00295923
0.00295902
0.00294995
0.0027117
0.00271623
0.00294765
0.00295932
0.0029598
0.00295981
0.00295983
0.00295982
0.00295958
0.00295049
0.0027134
0.00271852
0.0029476
0.00295918
0.00295963
0.00295965
0.00295966
0.00295962
0.00295939
0.0029503
0.0027156
0.00270267
0.00270277
0.00270279
0.0027028
0.0027028
0.00270281
0.00270281
0.0027028
0.00270273
0.00269741
0.00270386
0.00270939
0.0027098
0.00270983
0.00270984
0.00270985
0.00270984
0.00270983
0.00270949
0.00269872
0.00270535
0.00271126
0.00271172
0.00271177
0.00271179
0.0027118
0.00271179
0.00271175
0.00271136
0.0027002
0.00270729
0.00271321
0.00271371
0.00271378
0.00271381
0.00271381
0.00271378
0.00271372
0.00271327
0.00270209
0.00271015
0.00271605
0.0027166
0.00271667
0.00271671
0.00271671
0.00271666
0.00271655
0.00271604
0.00270496
0.0027192
0.00272328
0.00272378
0.00272386
0.00272389
0.00272388
0.00272384
0.00272371
0.00272309
0.00271414
0.00272763
0.00273361
0.00273419
0.00273429
0.00273427
0.00273427
0.00273432
0.0027341
0.00273369
0.00272294
0.00277072
0.00281742
0.00281787
0.00281658
0.00281611
0.00281615
0.00281646
0.00281784
0.00281858
0.00276763
0.00330186
0.00400724
0.00400912
0.00399126
0.00398508
0.00398463
0.00399002
0.00400682
0.00402288
0.00332497
0.00738158
0.011388
0.0116586
0.0116676
0.0116674
0.0116653
0.0116602
0.0116456
0.0114498
0.0074925
0.00272046
0.00294412
0.00295528
0.00295571
0.00295572
0.0029557
0.0029557
0.00295543
0.00294665
0.00271755
0.00272417
0.00294858
0.00296031
0.00296087
0.00296088
0.00296089
0.00296086
0.00296055
0.00295129
0.00272142
0.00273316
0.00301545
0.00303434
0.00303693
0.00303756
0.00303758
0.003037
0.00303488
0.00301928
0.00273079
0.0028878
0.00347045
0.00350389
0.00350464
0.0035047
0.0035046
0.00350445
0.00350427
0.00348312
0.00289514
0.00953563
0.0215343
0.0220891
0.0220542
0.0220339
0.0220299
0.0220414
0.022075
0.0217291
0.00975851
0.00271895
0.00295777
0.00297006
0.00297055
0.00297058
0.00297057
0.00297055
0.00297027
0.00296073
0.00271627
0.00272092
0.00295866
0.00297108
0.00297161
0.00297164
0.00297164
0.00297161
0.00297133
0.00296174
0.00271838
0.00272358
0.00297747
0.00299263
0.00299385
0.00299406
0.00299406
0.00299388
0.00299303
0.00298112
0.00272121
0.00283473
0.00349563
0.00353865
0.00354298
0.00354397
0.00354394
0.00354298
0.00353979
0.00350985
0.00284046
0.00985112
0.0220728
0.0225581
0.0225476
0.0225364
0.0225342
0.0225417
0.0225614
0.0222802
0.0100874
0.0027178
0.00295763
0.00296999
0.00297048
0.0029705
0.00297049
0.00297048
0.00297023
0.00296066
0.00271517
0.00271909
0.00295763
0.00297
0.00297049
0.00297051
0.00297051
0.00297049
0.00297025
0.00296071
0.00271654
0.00272059
0.00296407
0.00297712
0.00297774
0.00297779
0.00297778
0.00297775
0.00297743
0.00296745
0.00271815
0.00282539
0.00343977
0.0034766
0.00347935
0.00347988
0.00347988
0.00347938
0.00347776
0.00345368
0.00283066
0.0100374
0.0226547
0.0231567
0.0231647
0.02316
0.0231591
0.0231627
0.0231694
0.0228783
0.0102863
0.00271709
0.00295719
0.00296957
0.00297006
0.00297007
0.00297007
0.00297005
0.00296983
0.00296027
0.00271449
0.00271823
0.00295709
0.00296945
0.00296994
0.00296995
0.00296994
0.00296993
0.00296971
0.00296019
0.00271568
0.00271964
0.00296212
0.00297486
0.00297538
0.0029754
0.00297539
0.00297538
0.00297515
0.00296544
0.00271717
0.00282361
0.00342382
0.00345799
0.00346006
0.0034604
0.00346042
0.00346013
0.00345916
0.00343758
0.00282877
0.0101141
0.0228925
0.0234059
0.0234234
0.0234223
0.0234221
0.0234236
0.0234233
0.0231233
0.0103684
0.00271687
0.00295704
0.00296946
0.00296995
0.00296996
0.00296995
0.00296994
0.00296973
0.00296016
0.0027143
0.00271816
0.00295711
0.00296952
0.00297002
0.00297004
0.00297003
0.00297002
0.0029698
0.00296026
0.00271562
0.00271997
0.00296263
0.00297553
0.00297609
0.00297613
0.00297613
0.0029761
0.00297586
0.00296599
0.00271746
0.00284461
0.00347115
0.00351119
0.0035159
0.00351729
0.00351735
0.00351618
0.00351282
0.00348628
0.00285108
0.0101333
0.0229244
0.0234382
0.0234582
0.0234585
0.0234585
0.0234594
0.0234575
0.0231579
0.0103905
0.00271699
0.00295716
0.00296963
0.00297014
0.00297015
0.00297014
0.00297014
0.00296992
0.00296034
0.00271451
0.00271874
0.00295759
0.00297017
0.00297071
0.00297073
0.00297074
0.00297071
0.0029705
0.00296078
0.0027162
0.00272132
0.00296609
0.00297968
0.00298044
0.00298055
0.00298054
0.00298048
0.00297998
0.00296957
0.00271882
0.00290371
0.00360691
0.00366473
0.00367656
0.00368053
0.00368069
0.00367719
0.00366746
0.00362499
0.00291341
0.0101217
0.022809
0.0233119
0.0233308
0.0233313
0.0233313
0.0233327
0.0233326
0.0230443
0.0103835
0.00271734
0.00295739
0.00296994
0.0029705
0.00297051
0.00297051
0.0029705
0.00297028
0.00296064
0.00271491
0.0027196
0.00295895
0.00297186
0.00297246
0.00297251
0.0029725
0.00297248
0.00297217
0.00296221
0.00271705
0.00272444
0.00298356
0.00300004
0.00300153
0.00300184
0.00300184
0.00300153
0.00300048
0.00298729
0.00272184
0.00302051
0.00380399
0.00389374
0.00391921
0.00392798
0.00392829
0.0039205
0.00389776
0.00382388
0.00303559
0.0100698
0.0224102
0.0228867
0.0229047
0.0229057
0.0229057
0.0229076
0.0229108
0.0226428
0.0103406
0.00271761
0.00294932
0.00296143
0.002962
0.00296203
0.00296202
0.00296203
0.00296179
0.00295247
0.0027151
0.00272073
0.00295685
0.00297029
0.00297101
0.0029711
0.00297111
0.00297101
0.00297064
0.00296001
0.002718
0.00273082
0.00303248
0.00305422
0.00305723
0.0030581
0.0030581
0.00305726
0.00305475
0.00303652
0.00272838
0.00300817
0.00354993
0.00361696
0.00362778
0.00363085
0.00363084
0.0036283
0.00361904
0.00356354
0.00301651
0.00966782
0.0203594
0.0207892
0.0208363
0.0208499
0.0208507
0.0208419
0.0208151
0.0205422
0.00991253
0.00271042
0.00271891
0.00271977
0.00271987
0.0027199
0.00271993
0.00271983
0.00271985
0.00271912
0.00270543
0.00271438
0.00272539
0.00272647
0.00272662
0.00272668
0.00272662
0.00272663
0.00272648
0.00272545
0.00270935
0.00273395
0.00275322
0.00275531
0.00275571
0.00275576
0.00275574
0.00275577
0.00275524
0.00275355
0.00272926
0.00280532
0.0029011
0.00291413
0.00291681
0.00291761
0.00291773
0.00291693
0.00291477
0.00290431
0.00280367
0.00665304
0.0091462
0.00926532
0.00928875
0.00929635
0.0092966
0.00929089
0.00927232
0.00918551
0.00672847
)
;

boundaryField
{
    walls
    {
        type            kqRWallFunction;
        value           nonuniform List<scalar> 
500
(
0.002653
0.002653
0.002653
0.00270706
0.00270706
0.00270775
0.00270775
0.00270765
0.00270765
0.00270761
0.00270761
0.00270759
0.00270759
0.00270757
0.00270757
0.00270757
0.00270757
0.00270749
0.00270749
0.00270249
0.00270249
0.00270249
0.00270792
0.00270792
0.00271248
0.00271265
0.0027126
0.00271258
0.00271256
0.00271255
0.00271254
0.00271226
0.00270333
0.00270333
0.00270967
0.00270967
0.00271381
0.00271404
0.002714
0.00271398
0.00271396
0.00271393
0.00271393
0.00271363
0.00270436
0.00270436
0.00271081
0.00271081
0.0027153
0.00271558
0.00271558
0.00271556
0.00271554
0.00271551
0.0027155
0.0027152
0.00270579
0.00270579
0.00271264
0.00271264
0.00271773
0.00271809
0.00271815
0.00271816
0.00271812
0.00271814
0.00271807
0.00271779
0.00270786
0.00270786
0.00270665
0.00270665
0.00271155
0.00271202
0.00271211
0.00271215
0.00271216
0.00271217
0.00271217
0.00271192
0.00270346
0.00270346
0.00271228
0.00270949
0.00271359
0.0027108
0.00271486
0.00271214
0.00271668
0.00271407
0.00270867
0.00270867
0.00271264
0.00271306
0.00271316
0.00271321
0.00271324
0.00271325
0.00271326
0.00271299
0.0027043
0.0027043
0.00271309
0.00271059
0.00271428
0.0027118
0.0027155
0.002713
0.00271711
0.00271465
0.00270952
0.00270952
0.00271334
0.00271369
0.00271376
0.00271381
0.00271384
0.00271385
0.00271386
0.0027136
0.00270489
0.00270489
0.00271368
0.00271113
0.00271472
0.00271226
0.00271583
0.00271333
0.00271727
0.00271475
0.00270996
0.00270996
0.00271373
0.00271404
0.00271409
0.00271412
0.00271415
0.00271416
0.00271416
0.0027139
0.00270518
0.00270518
0.00271403
0.0027114
0.00271498
0.00271248
0.00271601
0.00271348
0.00271734
0.00271478
0.00271006
0.00271006
0.00271387
0.00271417
0.00271421
0.00271423
0.00271425
0.00271427
0.00271426
0.002714
0.00270521
0.00270521
0.00271415
0.00271147
0.00271512
0.00271258
0.00271618
0.00271362
0.00271754
0.00271495
0.00270988
0.00270988
0.00271382
0.00271411
0.00271414
0.00271416
0.00271418
0.00271419
0.00271418
0.00271392
0.00270497
0.00270497
0.00271408
0.00271135
0.00271518
0.0027126
0.00271642
0.00271382
0.00271797
0.00271531
0.0027094
0.0027094
0.00271346
0.00271375
0.00271378
0.0027138
0.00271381
0.00271381
0.0027138
0.00271354
0.00270445
0.00270445
0.00271374
0.00271097
0.00271506
0.00271243
0.00271654
0.00271387
0.00271842
0.00271569
0.00270857
0.00270857
0.00271254
0.00271282
0.00271284
0.00271286
0.00271286
0.00271286
0.00271286
0.0027126
0.00270359
0.00270359
0.00271294
0.00271005
0.00271447
0.0027117
0.00271623
0.0027134
0.00271852
0.0027156
0.00270267
0.00270267
0.00270267
0.00270277
0.00270277
0.00270279
0.00270279
0.0027028
0.0027028
0.0027028
0.0027028
0.00270281
0.00270281
0.00270281
0.00270281
0.0027028
0.0027028
0.00270273
0.00270273
0.00269741
0.00269741
0.00269741
0.00270386
0.00270386
0.00270939
0.0027098
0.00270983
0.00270984
0.00270985
0.00270984
0.00270983
0.00270949
0.00269872
0.00269872
0.00270535
0.00270535
0.00271126
0.00271172
0.00271177
0.00271179
0.0027118
0.00271179
0.00271175
0.00271136
0.0027002
0.0027002
0.00270729
0.00270729
0.00271321
0.00271371
0.00271378
0.00271381
0.00271381
0.00271378
0.00271372
0.00271327
0.00270209
0.00270209
0.00271015
0.00271015
0.00271605
0.0027166
0.00271667
0.00271671
0.00271671
0.00271666
0.00271655
0.00271604
0.00270496
0.00270496
0.0027192
0.0027192
0.00272328
0.00272378
0.00272386
0.00272389
0.00272388
0.00272384
0.00272371
0.00272309
0.00271414
0.00271414
0.00272763
0.00272763
0.00273361
0.00273419
0.00273429
0.00273427
0.00273427
0.00273432
0.0027341
0.00273369
0.00272294
0.00272294
0.00277072
0.00277072
0.00281742
0.00281787
0.00281658
0.00281611
0.00281615
0.00281646
0.00281784
0.00281858
0.00276763
0.00276763
0.00330186
0.00330186
0.00400724
0.00400912
0.00399126
0.00398508
0.00398463
0.00399002
0.00400682
0.00402288
0.00332497
0.00332497
0.00738158
0.00738158
0.011388
0.0116586
0.0116676
0.0116674
0.0116653
0.0116602
0.0116456
0.0114498
0.0074925
0.0074925
0.00272046
0.00271755
0.00272417
0.00272142
0.00273316
0.00273079
0.0028878
0.00289514
0.00953563
0.00975851
0.00271895
0.00271627
0.00272092
0.00271838
0.00272358
0.00272121
0.00283473
0.00284046
0.00985112
0.0100874
0.0027178
0.00271517
0.00271909
0.00271654
0.00272059
0.00271815
0.00282539
0.00283066
0.0100374
0.0102863
0.00271709
0.00271449
0.00271823
0.00271568
0.00271964
0.00271717
0.00282361
0.00282877
0.0101141
0.0103684
0.00271687
0.0027143
0.00271816
0.00271562
0.00271997
0.00271746
0.00284461
0.00285108
0.0101333
0.0103905
0.00271699
0.00271451
0.00271874
0.0027162
0.00272132
0.00271882
0.00290371
0.00291341
0.0101217
0.0103835
0.00271734
0.00271491
0.0027196
0.00271705
0.00272444
0.00272184
0.00302051
0.00303559
0.0100698
0.0103406
0.00271761
0.0027151
0.00272073
0.002718
0.00273082
0.00272838
0.00300817
0.00301651
0.00966782
0.00991253
0.00271042
0.00271042
0.00271891
0.00271977
0.00271987
0.0027199
0.00271993
0.00271983
0.00271985
0.00271912
0.00270543
0.00270543
0.00271438
0.00271438
0.00272539
0.00272647
0.00272662
0.00272668
0.00272662
0.00272663
0.00272648
0.00272545
0.00270935
0.00270935
0.00273395
0.00273395
0.00275322
0.00275531
0.00275571
0.00275576
0.00275574
0.00275577
0.00275524
0.00275355
0.00272926
0.00272926
0.00280532
0.00280532
0.0029011
0.00291413
0.00291681
0.00291761
0.00291773
0.00291693
0.00291477
0.00290431
0.00280367
0.00280367
0.00665304
0.00665304
0.0091462
0.00926532
0.00928875
0.00929635
0.0092966
0.00929089
0.00927232
0.00918551
0.00672847
0.00672847
)
;
    }
    lid
    {
        type            kqRWallFunction;
        value           nonuniform List<scalar> 
100
(
0.00738158
0.011388
0.0116586
0.0116676
0.0116674
0.0116653
0.0116602
0.0116456
0.0114498
0.0074925
0.00953563
0.0215343
0.0220891
0.0220542
0.0220339
0.0220299
0.0220414
0.022075
0.0217291
0.00975851
0.00985112
0.0220728
0.0225581
0.0225476
0.0225364
0.0225342
0.0225417
0.0225614
0.0222802
0.0100874
0.0100374
0.0226547
0.0231567
0.0231647
0.02316
0.0231591
0.0231627
0.0231694
0.0228783
0.0102863
0.0101141
0.0228925
0.0234059
0.0234234
0.0234223
0.0234221
0.0234236
0.0234233
0.0231233
0.0103684
0.0101333
0.0229244
0.0234382
0.0234582
0.0234585
0.0234585
0.0234594
0.0234575
0.0231579
0.0103905
0.0101217
0.022809
0.0233119
0.0233308
0.0233313
0.0233313
0.0233327
0.0233326
0.0230443
0.0103835
0.0100698
0.0224102
0.0228867
0.0229047
0.0229057
0.0229057
0.0229076
0.0229108
0.0226428
0.0103406
0.00966782
0.0203594
0.0207892
0.0208363
0.0208499
0.0208507
0.0208419
0.0208151
0.0205422
0.00991253
0.00665304
0.0091462
0.00926532
0.00928875
0.00929635
0.0092966
0.00929089
0.00927232
0.00918551
0.00672847
)
;
    }
}


// ************************************************************************* //
