/*--------------------------------*- C++ -*----------------------------------*\
| =========                 |                                                 |
| \\      /  F ield         | OpenFOAM: The Open Source CFD Toolbox           |
|  \\    /   O peration     | Version:  2.3.1                                 |
|   \\  /    A nd           | Web:      www.OpenFOAM.org                      |
|    \\/     M anipulation  |                                                 |
\*---------------------------------------------------------------------------*/
FoamFile
{
    version     2.0;
    format      ascii;
    class       volScalarField;
    location    "0.44";
    object      p;
}
// * * * * * * * * * * * * * * * * * * * * * * * * * * * * * * * * * * * * * //

dimensions      [0 2 -2 0 0 0 0];

internalField   nonuniform List<scalar> 
1000
(
-0.00474836
-0.00428415
-0.00390099
-0.00377524
-0.00370938
-0.00367031
-0.00365051
-0.00363967
-0.00363802
-0.00365032
-0.00482843
-0.00462629
-0.00443659
-0.00433559
-0.00428002
-0.0042446
-0.00422489
-0.00421222
-0.00420643
-0.00422636
-0.00573188
-0.00568779
-0.00562144
-0.00556964
-0.00553671
-0.0055103
-0.00548888
-0.00546842
-0.00545602
-0.005479
-0.00764542
-0.00767319
-0.00769124
-0.00768738
-0.00768313
-0.00766479
-0.00763756
-0.00760752
-0.00757168
-0.0075642
-0.0107522
-0.0108683
-0.0109838
-0.0110468
-0.0110742
-0.0110659
-0.0110325
-0.0109659
-0.0108449
-0.0107608
-0.00383122
-0.00358388
-0.00338364
-0.00327426
-0.00321268
-0.00317449
-0.00315414
-0.0031426
-0.00314038
-0.00314893
-0.00406867
-0.00395822
-0.00383803
-0.00375578
-0.00370516
-0.00367147
-0.00365198
-0.00363972
-0.00363472
-0.00364955
-0.00493823
-0.00490578
-0.00485688
-0.00481323
-0.00478244
-0.00475728
-0.00473844
-0.00471987
-0.00471189
-0.00472647
-0.00656003
-0.00658358
-0.00659972
-0.00659588
-0.00658927
-0.00657346
-0.00655015
-0.00652583
-0.0064974
-0.00649589
-0.00906385
-0.00918493
-0.00928197
-0.00932779
-0.00934893
-0.00933933
-0.00931493
-0.00926403
-0.0091797
-0.0090989
-0.00253799
-0.00248414
-0.0023903
-0.00231734
-0.00226792
-0.00223439
-0.00221513
-0.00220405
-0.00220163
-0.0022074
-0.00284456
-0.00280113
-0.00273393
-0.00267631
-0.00263499
-0.00260551
-0.00258768
-0.00257653
-0.00257324
-0.00258483
-0.00353914
-0.00352126
-0.00348913
-0.00345554
-0.00342871
-0.00340659
-0.00339092
-0.00337672
-0.00337296
-0.00338845
-0.00472173
-0.00473578
-0.00474291
-0.00473705
-0.00472808
-0.004714
-0.00469824
-0.00468206
-0.00466823
-0.00467869
-0.00645553
-0.00652796
-0.00658817
-0.00661364
-0.00662407
-0.00661786
-0.00660131
-0.00657352
-0.00653051
-0.00650155
-0.00116271
-0.00113601
-0.00108554
-0.00103782
-0.00100054
-0.000973248
-0.000956575
-0.000947041
-0.000945254
-0.000948188
-0.00136264
-0.00133913
-0.00129931
-0.00125963
-0.00122752
-0.00120329
-0.00118806
-0.0011791
-0.00117767
-0.0011859
-0.00179976
-0.0017865
-0.00176321
-0.00173693
-0.00171405
-0.00169521
-0.00168251
-0.00167379
-0.00167257
-0.00168752
-0.00251789
-0.0025197
-0.0025169
-0.00250694
-0.00249563
-0.00248339
-0.00247288
-0.00246455
-0.00246138
-0.00248071
-0.00354019
-0.00356817
-0.00359261
-0.00360138
-0.00360291
-0.00359706
-0.00358874
-0.00357697
-0.00356407
-0.00357353
0.000352994
0.000368864
0.000399011
0.000431225
0.000459111
0.000480543
0.000494267
0.000502053
0.000504039
0.000501359
0.000276033
0.000290878
0.000317085
0.000345655
0.000370772
0.00039021
0.00040255
0.000409324
0.000410256
0.000404429
0.000107577
0.000118772
0.000138471
0.00016092
0.000181141
0.000197024
0.000206824
0.000211691
0.000210604
0.000200272
-0.000171043
-0.000165152
-0.000153417
-0.000138528
-0.000124472
-0.000113061
-0.000106612
-0.000104423
-0.000106927
-0.000123944
-0.000572728
-0.000574315
-0.000573437
-0.000567177
-0.000560302
-0.000553912
-0.000550737
-0.000549859
-0.000553233
-0.000573272
0.00190799
0.00192026
0.0019417
0.00196581
0.00198793
0.00200511
0.00201633
0.0020225
0.0020244
0.00202287
0.00196014
0.00197187
0.00199286
0.00201624
0.00203755
0.00205366
0.0020635
0.00206803
0.00206805
0.00206518
0.00206294
0.0020749
0.00209595
0.00211871
0.00213873
0.00215288
0.00215987
0.00216087
0.00215666
0.00215064
0.00220759
0.00222199
0.00224473
0.00226711
0.00228566
0.0022971
0.00229987
0.00229552
0.00228549
0.00227352
0.00238031
0.00239918
0.00242382
0.00244623
0.00246278
0.00247089
0.00246864
0.00245877
0.00244118
0.00242117
0.00339474
0.00340731
0.00342637
0.00344761
0.0034674
0.00348223
0.00349169
0.00349639
0.00349771
0.00349718
0.00358096
0.0035936
0.0036149
0.00363789
0.00365854
0.00367306
0.00368083
0.00368278
0.00368066
0.0036797
0.00396436
0.00398092
0.00400848
0.00403613
0.00405886
0.00407261
0.00407656
0.00407215
0.00406202
0.00405718
0.00454576
0.00457334
0.00461275
0.0046479
0.0046739
0.00468624
0.00468389
0.00466921
0.0046463
0.00463277
0.0053046
0.00535437
0.00541149
0.00545639
0.00548582
0.00549583
0.0054857
0.00545821
0.00541669
0.00538333
0.0046957
0.00470968
0.00472963
0.00475202
0.00477169
0.00478583
0.00479396
0.00479689
0.00479668
0.00479586
0.00501732
0.00503334
0.00505872
0.00508496
0.00510739
0.00512155
0.00512731
0.00512582
0.00511985
0.00511738
0.0056899
0.00571659
0.00575534
0.00579167
0.00581937
0.00583357
0.00583357
0.00582124
0.00580158
0.0057915
0.00673973
0.0067911
0.00685585
0.00690918
0.00694522
0.00695859
0.00694851
0.00691819
0.00687368
0.00684392
0.00816325
0.0082724
0.00838047
0.0084582
0.00850491
0.00851628
0.00849357
0.00843666
0.00835211
0.00826979
0.00567867
0.00569365
0.00571608
0.00573971
0.00576135
0.00577514
0.00578206
0.0057832
0.00578078
0.00577914
0.0061222
0.00614127
0.00617162
0.00620212
0.00622691
0.00624136
0.00624494
0.00623944
0.00622904
0.00622483
0.00706641
0.00710326
0.0071547
0.00720095
0.0072339
0.0072484
0.00724381
0.00722247
0.00719186
0.00717289
0.00858957
0.00867178
0.00876635
0.00883953
0.00888587
0.00889972
0.00888037
0.00883122
0.00876038
0.00870254
0.0107905
0.0109819
0.0111575
0.0112755
0.0113415
0.0113535
0.011314
0.011222
0.0110712
0.0109116
0.00620946
0.0062231
0.00624675
0.00627235
0.00629419
0.00630848
0.00631451
0.00631387
0.00630983
0.00631003
0.0067308
0.00674945
0.00678294
0.00681659
0.00684291
0.00685735
0.00685936
0.0068508
0.00683752
0.00683372
0.00785933
0.00790079
0.00796084
0.00801345
0.00804945
0.00806406
0.00805578
0.00802839
0.00799013
0.00796653
0.00975269
0.00985289
0.0099697
0.010056
0.0101089
0.0101222
0.0100959
0.0100364
0.00994186
0.00986848
0.0126957
0.0129589
0.0131863
0.013334
0.0134124
0.0134236
0.0133764
0.0132539
0.0130525
0.0128213
0.0172033
0.0179051
0.0183526
0.0186158
0.0187312
0.0187457
0.0186668
0.0184343
0.0180073
0.0173361
0.0237653
0.0256061
0.0264519
0.02687
0.0270313
0.0270559
0.026932
0.0265451
0.0257607
0.0239348
0.0212763
0.0263063
0.026152
0.0259576
0.0258509
0.025857
0.0259769
0.0261675
0.0264009
0.021344
0.0821862
0.0974484
0.102621
0.104588
0.105242
0.105243
0.10464
0.102734
0.0979045
0.082779
-0.0192749
-0.0338855
-0.0363865
-0.0375093
-0.0378785
-0.0378901
-0.0375792
-0.0364762
-0.0343383
-0.019819
0.0136466
0.0141405
0.0144655
0.0146604
0.0147527
0.0147651
0.0147042
0.0145348
0.014237
0.0137698
0.0166547
0.0178974
0.0184747
0.0187604
0.018877
0.0188936
0.0188102
0.0185574
0.0180074
0.0167837
0.0115568
0.0112152
0.0105541
0.0103876
0.0103539
0.0103623
0.0104103
0.0105578
0.0112
0.0115057
0.0401783
0.0498664
0.0530814
0.0548204
0.0554507
0.0554679
0.0548776
0.0532104
0.0501424
0.0404735
-0.0045844
-0.0156214
-0.0177601
-0.0187191
-0.0190288
-0.0190486
-0.0187819
-0.0178723
-0.0159647
-0.00495586
0.00982245
0.0100573
0.010228
0.0103384
0.0103956
0.0104056
0.0103709
0.0102807
0.0101332
0.00991953
0.0112343
0.0116829
0.011908
0.012034
0.0120922
0.0121018
0.0120627
0.0119576
0.011748
0.0113086
0.00984409
0.00941911
0.00905445
0.00897599
0.00897583
0.00898169
0.00898856
0.00905894
0.00940017
0.00980561
0.0253749
0.0277446
0.0288803
0.0296816
0.0300227
0.0300353
0.0297172
0.0289482
0.0278556
0.0254719
0.00451323
0.000490215
-0.000444723
-0.000784472
-0.000883024
-0.000897945
-0.000831547
-0.000529041
0.000310167
0.00430249
0.00614796
0.00623924
0.00631576
0.00637061
0.0064016
0.00640885
0.0063921
0.00635108
0.00628775
0.0062067
0.00682266
0.00696335
0.00703898
0.00709085
0.00711782
0.00712232
0.007104
0.00705996
0.00699128
0.00685089
0.0069231
0.00682633
0.0067258
0.00671907
0.00673065
0.00673303
0.00672031
0.00672418
0.00680889
0.00688992
0.0139487
0.0151337
0.015722
0.0161045
0.0162763
0.0162811
0.0161164
0.0157451
0.0151756
0.013978
0.00535084
0.00417723
0.00385106
0.00375395
0.00373381
0.00372258
0.00371886
0.00379022
0.00407884
0.00523085
0.00255128
0.00258003
0.00260452
0.002626
0.00263904
0.00264319
0.00263717
0.00262173
0.0025992
0.00256173
0.00262977
0.00265664
0.002672
0.00268625
0.00269418
0.00269554
0.00268713
0.002674
0.00265258
0.00261414
0.00264697
0.00260863
0.00257094
0.00256652
0.00256926
0.00256788
0.00256001
0.00255715
0.00258532
0.00261355
0.00463833
0.00490306
0.00504808
0.00515735
0.00521054
0.00520954
0.00515186
0.00504127
0.00489493
0.00463093
0.00268596
0.00242645
0.00234687
0.00232773
0.00232602
0.0023175
0.00230105
0.00230304
0.00237081
0.00263132
-0.00107593
-0.00109217
-0.00110515
-0.00110806
-0.00110885
-0.00110678
-0.00110617
-0.00110442
-0.00110364
-0.00111659
-0.00164969
-0.00169455
-0.00172503
-0.00173757
-0.00174439
-0.00174586
-0.00174374
-0.0017377
-0.00172019
-0.0016932
-0.00213751
-0.00221739
-0.00225319
-0.00227733
-0.00229063
-0.00229304
-0.00228902
-0.00226678
-0.00223967
-0.00215571
-0.00418006
-0.00477961
-0.00506481
-0.00518818
-0.00523298
-0.00523712
-0.00520086
-0.00508774
-0.00480498
-0.00417713
-0.000867299
-0.000620225
-0.000555424
-0.000532305
-0.000526965
-0.000532313
-0.00054687
-0.000572552
-0.000629392
-0.000848832
-0.00479425
-0.00487419
-0.00493548
-0.00496063
-0.00497334
-0.00497312
-0.0049641
-0.00494566
-0.00491011
-0.0048714
-0.00600345
-0.00618164
-0.00626875
-0.00630508
-0.00632215
-0.00632285
-0.00631617
-0.00628795
-0.00622072
-0.00606007
-0.00662798
-0.00670589
-0.00668716
-0.00669954
-0.0067179
-0.00672092
-0.00670387
-0.00669153
-0.00670091
-0.0065963
-0.0153558
-0.017728
-0.0186825
-0.0191268
-0.019295
-0.0193007
-0.0191446
-0.0187063
-0.017787
-0.0153576
-0.003415
-0.00231883
-0.00205069
-0.0019457
-0.00191794
-0.00191959
-0.00193943
-0.00203456
-0.00223207
-0.00327164
-0.00864645
-0.0088646
-0.00900438
-0.00906334
-0.00909122
-0.00908771
-0.00907169
-0.00902207
-0.00891217
-0.00873486
-0.0107087
-0.0112787
-0.0115225
-0.0115938
-0.0116209
-0.0116257
-0.0116092
-0.0115487
-0.0113394
-0.0107718
-0.00924558
-0.00897511
-0.0085811
-0.0084739
-0.00844417
-0.00843756
-0.00846961
-0.00855863
-0.00890706
-0.0091312
-0.0338598
-0.0408358
-0.0431346
-0.0442269
-0.0446357
-0.0446469
-0.0442618
-0.0431999
-0.0410264
-0.0339886
-0.00188402
0.00190564
0.00273994
0.00313024
0.00323421
0.00323436
0.00317151
0.00283791
0.00213785
-0.00159818
-0.0125419
-0.0129128
-0.0131648
-0.0132827
-0.0133332
-0.0133352
-0.0132969
-0.0131934
-0.0129585
-0.0126103
-0.0167485
-0.0180557
-0.0185922
-0.0188305
-0.018897
-0.0189014
-0.0188779
-0.0186599
-0.0181664
-0.0168671
-0.00767019
-0.00639075
-0.00510139
-0.00451383
-0.00431193
-0.00432293
-0.00448422
-0.00503067
-0.00620344
-0.00735958
-0.0627052
-0.0740217
-0.0778818
-0.0800533
-0.0809088
-0.0809345
-0.0801369
-0.0780349
-0.0744067
-0.0631164
0.00817827
0.0166781
0.0186754
0.0196029
0.0198829
0.0199252
0.0197094
0.0188619
0.017116
0.00862801
-0.0153284
-0.0157374
-0.016039
-0.0162489
-0.016338
-0.0163441
-0.0162908
-0.0160755
-0.0157979
-0.0153876
-0.0224847
-0.0236555
-0.0245227
-0.0250247
-0.0252387
-0.0252776
-0.0250991
-0.0246637
-0.023798
-0.0225874
-0.00664067
-0.00480582
-0.00329635
-0.00265255
-0.00246261
-0.00247063
-0.00266162
-0.0032399
-0.00463483
-0.00634029
-0.0880666
-0.0978446
-0.101507
-0.103677
-0.104551
-0.104553
-0.10373
-0.101655
-0.0981557
-0.0885086
0.0135614
0.0238831
0.0262961
0.0273589
0.0277297
0.027782
0.0275195
0.0265601
0.0243945
0.0141172
)
;

boundaryField
{
    walls
    {
        type            zeroGradient;
    }
    lid
    {
        type            zeroGradient;
    }
}


// ************************************************************************* //
