/*--------------------------------*- C++ -*----------------------------------*\
| =========                 |                                                 |
| \\      /  F ield         | OpenFOAM: The Open Source CFD Toolbox           |
|  \\    /   O peration     | Version:  2.3.1                                 |
|   \\  /    A nd           | Web:      www.OpenFOAM.org                      |
|    \\/     M anipulation  |                                                 |
\*---------------------------------------------------------------------------*/
FoamFile
{
    version     2.0;
    format      ascii;
    class       surfaceScalarField;
    location    "0.44";
    object      phi;
}
// * * * * * * * * * * * * * * * * * * * * * * * * * * * * * * * * * * * * * //

dimensions      [0 3 -1 0 0 0 0];

internalField   nonuniform List<scalar> 
2700
(
1.45658e-05
3.0218e-05
-2.28191e-06
7.2504e-06
1.89266e-05
-1.14486e-05
3.49619e-06
1.69504e-05
-1.30213e-05
1.88917e-06
1.59894e-05
-1.41911e-05
1.0561e-06
1.56584e-05
-1.46298e-05
5.61179e-07
1.5506e-05
-1.48029e-05
2.50683e-07
1.53939e-05
-1.48721e-05
8.69956e-08
1.52872e-05
-1.48983e-05
5.71542e-08
1.5194e-05
-1.49122e-05
1.51726e-05
-1.49031e-05
4.21325e-06
3.89547e-05
-1.25421e-05
3.17873e-06
3.51958e-05
-1.48045e-05
2.27194e-06
3.41364e-05
-1.58213e-05
1.48718e-06
3.36391e-05
-1.63871e-05
8.87626e-07
3.34061e-05
-1.66566e-05
4.48769e-07
3.32321e-05
-1.67797e-05
1.51667e-07
3.30284e-05
-1.6828e-05
3.49571e-08
3.27816e-05
-1.68398e-05
7.29295e-08
3.25493e-05
-1.68311e-05
3.23912e-05
-1.66703e-05
1.97091e-06
5.66399e-05
-1.86648e-05
2.06806e-06
5.59758e-05
-1.97806e-05
1.72676e-06
5.58713e-05
-2.02655e-05
1.22133e-06
5.58937e-05
-2.05679e-05
6.97629e-07
5.58814e-05
-2.07431e-05
2.41527e-07
5.57383e-05
-2.08251e-05
-6.05521e-08
5.54275e-05
-2.08416e-05
-1.81851e-07
5.49727e-05
-2.08259e-05
-7.98557e-09
5.4459e-05
-2.07877e-05
5.3938e-05
-2.05951e-05
1.51432e-06
8.41152e-05
-2.70072e-05
1.96843e-06
8.52895e-05
-2.76287e-05
1.7333e-06
8.62903e-05
-2.79501e-05
1.19727e-06
8.69911e-05
-2.81896e-05
5.47905e-07
8.72729e-05
-2.83403e-05
-4.53691e-08
8.71813e-05
-2.83956e-05
-5.23863e-07
8.67307e-05
-2.83724e-05
-6.91119e-07
8.58395e-05
-2.82952e-05
-3.02173e-07
8.45904e-05
-2.81965e-05
8.31338e-05
-2.78657e-05
2.4163e-06
-4.07167e-05
0.000125075
2.94397e-06
-4.14796e-05
0.000129118
2.42746e-06
-4.19295e-05
0.000131893
1.47729e-06
-4.22781e-05
0.000133446
4.54536e-07
-4.24671e-05
0.000134098
-5.18069e-07
-4.25161e-05
0.000134073
-1.41435e-06
-4.24283e-05
0.000133312
-1.90033e-06
-4.22123e-05
0.000131694
-1.38435e-06
-4.18786e-05
0.000128881
-4.1258e-05
0.00012463
3.00247e-06
1.6352e-05
-2.1514e-05
2.55414e-06
1.50132e-05
-2.58768e-05
2.03127e-06
1.4581e-05
-2.6929e-05
1.38664e-06
1.42506e-05
-2.76359e-05
8.68723e-07
1.40808e-05
-2.80252e-05
4.89063e-07
1.39759e-05
-2.82208e-05
2.23175e-07
1.3883e-05
-2.83065e-05
6.59069e-08
1.37884e-05
-2.83318e-05
1.28331e-08
1.36914e-05
-2.83291e-05
1.34955e-05
-2.82023e-05
1.80312e-06
3.08698e-05
-2.85137e-05
1.93131e-06
3.02476e-05
-2.9797e-05
1.64904e-06
2.99127e-05
-3.04807e-05
1.19934e-06
2.9698e-05
-3.09785e-05
7.62236e-07
2.95615e-05
-3.12801e-05
4.01397e-07
2.94273e-05
-3.14372e-05
1.39026e-07
2.92535e-05
-3.14984e-05
1.43243e-08
2.9032e-05
-3.15024e-05
2.0994e-08
2.88172e-05
-3.14775e-05
2.85506e-05
-3.12984e-05
1.29142e-06
4.8105e-05
-3.6306e-05
1.56439e-06
4.8182e-05
-3.70512e-05
1.41071e-06
4.8308e-05
-3.75286e-05
1.04612e-06
4.84077e-05
-3.78968e-05
6.19378e-07
4.84221e-05
-3.81345e-05
2.27235e-07
4.83047e-05
-3.82501e-05
-5.22607e-08
4.80322e-05
-3.82669e-05
-1.76233e-07
4.76374e-05
-3.8219e-05
-5.45852e-08
4.71758e-05
-3.81451e-05
4.67012e-05
-3.79372e-05
1.27153e-06
6.99994e-05
-4.84735e-05
1.67223e-06
7.1175e-05
-4.91221e-05
1.49475e-06
7.20724e-05
-4.95862e-05
1.05004e-06
7.26718e-05
-4.9956e-05
4.96625e-07
7.29169e-05
-5.01915e-05
-3.0761e-08
7.28313e-05
-5.02789e-05
-4.48893e-07
7.2444e-05
-5.02259e-05
-6.27737e-07
7.16891e-05
-5.00823e-05
-3.26424e-07
7.06752e-05
-4.98842e-05
6.94191e-05
-4.9526e-05
2.1447e-06
-6.77536e-05
9.74339e-05
2.5384e-06
-6.88147e-05
0.00010075
2.08504e-06
-6.95534e-05
0.000102987
1.29326e-06
-7.0116e-05
0.000104245
4.10025e-07
-7.04325e-05
0.000104744
-4.29687e-07
-7.05024e-05
0.000104703
-1.20083e-06
-7.03577e-05
0.0001041
-1.60648e-06
-6.99811e-05
0.000102822
-1.25404e-06
-6.94632e-05
0.000100554
-6.86179e-05
9.71715e-05
1.81437e-06
1.20633e-05
-3.53067e-05
1.57842e-06
1.13716e-05
-3.69212e-05
1.30398e-06
1.10978e-05
-3.76529e-05
9.73835e-07
1.09475e-05
-3.81487e-05
6.59417e-07
1.08602e-05
-3.84606e-05
3.95702e-07
1.07934e-05
-3.8633e-05
1.93453e-07
1.07261e-05
-3.87083e-05
6.22786e-08
1.06545e-05
-3.87212e-05
4.55403e-09
1.0584e-05
-3.87004e-05
1.04212e-05
-3.84906e-05
1.11177e-06
2.30878e-05
-4.04101e-05
1.26418e-06
2.28942e-05
-4.12185e-05
1.1439e-06
2.27404e-05
-4.17371e-05
8.86531e-07
2.26458e-05
-4.21432e-05
5.96833e-07
2.25699e-05
-4.24138e-05
3.34635e-07
2.24764e-05
-4.25621e-05
1.30634e-07
2.23476e-05
-4.26152e-05
2.04346e-08
2.21804e-05
-4.26037e-05
1.12924e-08
2.20206e-05
-4.25643e-05
2.18022e-05
-4.23847e-05
8.33635e-07
3.56941e-05
-4.9131e-05
1.0935e-06
3.5897e-05
-4.96684e-05
1.03677e-06
3.60277e-05
-5.00863e-05
8.02034e-07
3.61222e-05
-5.04415e-05
4.99244e-07
3.61373e-05
-5.06824e-05
2.06319e-07
3.6048e-05
-5.08003e-05
-1.27584e-08
3.58471e-05
-5.08098e-05
-1.15947e-07
3.55528e-05
-5.07352e-05
-4.04867e-08
3.52265e-05
-5.06412e-05
3.4887e-05
-5.0446e-05
8.88097e-07
5.02796e-05
-6.27182e-05
1.21152e-06
5.1072e-05
-6.32878e-05
1.12194e-06
5.16755e-05
-6.37575e-05
8.1083e-07
5.20756e-05
-6.41589e-05
4.07061e-07
5.22384e-05
-6.44182e-05
8.9545e-09
5.21705e-05
-6.4512e-05
-2.97547e-07
5.18786e-05
-6.44489e-05
-4.34872e-07
5.13666e-05
-6.42658e-05
-2.144e-07
5.06989e-05
-6.40401e-05
4.99117e-05
-6.37186e-05
1.43629e-06
-8.26964e-05
6.56138e-05
1.79685e-06
-8.36356e-05
6.75672e-05
1.51685e-06
-8.43974e-05
6.89018e-05
9.72776e-07
-8.49945e-05
6.96898e-05
3.38661e-07
-8.53439e-05
7.00097e-05
-2.81298e-07
-8.54261e-05
6.99557e-05
-8.20398e-07
-8.52562e-05
6.95585e-05
-1.08373e-06
-8.4857e-05
6.87193e-05
-7.54506e-07
-8.43304e-05
6.73857e-05
-8.36301e-05
6.54335e-05
7.97033e-07
7.2356e-06
-4.32982e-05
8.85022e-07
7.09084e-06
-4.40582e-05
8.10934e-07
6.97327e-06
-4.45081e-05
6.5775e-07
6.90214e-06
-4.48537e-05
4.81982e-07
6.85376e-06
-4.5092e-05
3.1632e-07
6.81146e-06
-4.52295e-05
1.7753e-07
6.76763e-06
-4.52852e-05
7.73383e-08
6.72256e-06
-4.52838e-05
2.17117e-08
6.6828e-06
-4.52518e-05
6.59357e-06
-4.49985e-05
5.82571e-07
1.43489e-05
-4.79815e-05
7.58184e-07
1.43195e-05
-4.84928e-05
7.38708e-07
1.42476e-05
-4.88572e-05
6.11703e-07
1.41964e-05
-4.91725e-05
4.43877e-07
1.41469e-05
-4.9396e-05
2.77294e-07
1.40829e-05
-4.95196e-05
1.38246e-07
1.39984e-05
-4.9556e-05
5.21185e-08
1.38965e-05
-4.95307e-05
3.55695e-08
1.38e-05
-4.9485e-05
1.36783e-05
-4.92849e-05
4.7031e-07
2.20194e-05
-5.69446e-05
6.79229e-07
2.21453e-05
-5.73637e-05
6.82443e-07
2.22129e-05
-5.77019e-05
5.58296e-07
2.22567e-05
-5.80142e-05
3.78258e-07
2.22515e-05
-5.82333e-05
1.93226e-07
2.2186e-05
-5.83368e-05
4.15073e-08
2.20589e-05
-5.83323e-05
-2.72498e-08
2.18763e-05
-5.82478e-05
9.11113e-09
2.16914e-05
-5.8144e-05
2.15214e-05
-5.79362e-05
5.04898e-07
3.02014e-05
-7.07372e-05
7.41234e-07
3.05782e-05
-7.12466e-05
7.21965e-07
3.08782e-05
-7.16653e-05
5.50102e-07
3.10796e-05
-7.20461e-05
3.1124e-07
3.11515e-05
-7.22971e-05
6.66628e-08
3.10959e-05
-7.23849e-05
-1.20763e-07
3.09121e-05
-7.23144e-05
-2.06034e-07
3.06206e-05
-7.21171e-05
-6.81625e-08
3.02667e-05
-7.18961e-05
2.99035e-05
-7.15798e-05
7.60072e-07
-8.98311e-05
3.76139e-05
1.03331e-06
-9.06378e-05
3.84336e-05
9.20922e-07
-9.12992e-05
3.90714e-05
6.21752e-07
-9.18566e-05
3.94535e-05
2.55134e-07
-9.21928e-05
3.96049e-05
-1.0678e-07
-9.22728e-05
3.95587e-05
-4.2367e-07
-9.20981e-05
3.93231e-05
-5.53842e-07
-9.1721e-05
3.88794e-05
-3.13154e-07
-9.12598e-05
3.82248e-05
-9.06673e-05
3.74174e-05
3.55561e-07
2.70236e-06
-4.63643e-05
4.67384e-07
2.65935e-06
-4.68403e-05
4.73329e-07
2.60005e-06
-4.71267e-05
4.20521e-07
2.55528e-06
-4.73727e-05
3.43454e-07
2.5212e-06
-4.7553e-05
2.58942e-07
2.49363e-06
-4.7657e-05
1.77221e-07
2.47046e-06
-4.76918e-05
1.03786e-07
2.45119e-06
-4.76761e-05
4.11081e-08
2.43785e-06
-4.76326e-05
2.40988e-06
-4.73689e-05
2.82628e-07
5.38814e-06
-5.09305e-05
4.08353e-07
5.36192e-06
-5.13029e-05
4.30292e-07
5.3023e-06
-5.15638e-05
3.89028e-07
5.2489e-06
-5.18096e-05
3.18933e-07
5.20138e-06
-5.19904e-05
2.3873e-07
5.1567e-06
-5.2087e-05
1.6086e-07
5.11343e-06
-5.21044e-05
9.56061e-08
5.07202e-06
-5.2065e-05
5.04876e-08
5.04008e-06
-5.2009e-05
5.00298e-06
-5.17995e-05
2.24449e-07
8.22142e-06
-5.99183e-05
3.47233e-07
8.23731e-06
-6.02778e-05
3.75634e-07
8.2184e-06
-6.05604e-05
3.403e-07
8.19087e-06
-6.08348e-05
2.73625e-07
8.15242e-06
-6.1029e-05
1.9539e-07
8.10222e-06
-6.11138e-05
1.20149e-07
8.04131e-06
-6.10922e-05
6.57137e-08
7.97244e-06
-6.09931e-05
4.87579e-08
7.90818e-06
-6.08788e-05
7.8646e-06
-6.06533e-05
2.09757e-07
1.11459e-05
-7.36835e-05
3.27412e-07
1.12341e-05
-7.41696e-05
3.47049e-07
1.12916e-05
-7.45598e-05
3.00747e-07
1.13167e-05
-7.49231e-05
2.22625e-07
1.13038e-05
-7.51624e-05
1.34162e-07
1.1256e-05
-7.52377e-05
5.27269e-08
1.11763e-05
-7.51515e-05
1.19704e-08
1.10644e-05
-7.49428e-05
3.92487e-08
1.09506e-05
-7.47048e-05
1.08544e-05
-7.43621e-05
2.60583e-07
-9.22646e-05
1.35975e-05
3.83346e-07
-9.30312e-05
1.38058e-05
3.7162e-07
-9.36555e-05
1.39707e-05
2.87685e-07
-9.41957e-05
1.40598e-05
1.74535e-07
-9.45232e-05
1.40759e-05
5.42641e-08
-9.45941e-05
1.40317e-05
-4.97648e-08
-9.4412e-05
1.3933e-05
-1.0177e-07
-9.40232e-05
1.37747e-05
-2.68805e-08
-9.3562e-05
1.35666e-05
-9.29711e-05
1.33514e-05
1.27788e-07
-1.73862e-06
-4.48146e-05
2.01574e-07
-1.80141e-06
-4.51792e-05
2.34253e-07
-1.85224e-06
-4.53775e-05
2.42593e-07
-1.89803e-06
-4.55595e-05
2.39667e-07
-1.93227e-06
-4.56967e-05
2.23552e-07
-1.9515e-06
-4.57727e-05
1.92231e-07
-1.95603e-06
-4.57894e-05
1.42019e-07
-1.94992e-06
-4.57618e-05
7.34203e-08
-1.93792e-06
-4.57095e-05
-1.90387e-06
-4.54538e-05
1.00202e-07
-3.59682e-06
-4.92514e-05
1.56734e-07
-3.68714e-06
-4.95591e-05
1.91194e-07
-3.77818e-06
-4.97613e-05
2.10822e-07
-3.86341e-06
-4.99599e-05
2.22434e-07
-3.92598e-06
-5.01066e-05
2.20211e-07
-3.95947e-06
-5.01793e-05
1.98828e-07
-3.96355e-06
-5.01791e-05
1.51841e-07
-3.94444e-06
-5.01256e-05
7.49191e-08
-3.91258e-06
-5.00564e-05
-3.8608e-06
-4.98466e-05
3.91796e-08
-5.52635e-06
-5.81434e-05
6.84819e-08
-5.64285e-06
-5.84783e-05
1.07136e-07
-5.77213e-06
-5.87381e-05
1.48572e-07
-5.89023e-06
-5.89906e-05
1.88705e-07
-5.97472e-06
-5.9165e-05
2.15397e-07
-6.01584e-06
-5.92318e-05
2.16716e-07
-6.01242e-06
-5.91918e-05
1.80829e-07
-5.97168e-06
-5.90723e-05
9.55023e-08
-5.91121e-06
-5.89337e-05
-5.8324e-06
-5.86944e-05
-4.47338e-08
-7.35379e-06
-7.20112e-05
-5.29884e-08
-7.51525e-06
-7.25093e-05
-9.45354e-09
-7.68783e-06
-7.29184e-05
6.4189e-08
-7.83858e-06
-7.3291e-05
1.47135e-07
-7.9389e-06
-7.35285e-05
2.17858e-07
-7.98236e-06
-7.3591e-05
2.55748e-07
-7.96701e-06
-7.34814e-05
2.38081e-07
-7.89996e-06
-7.32367e-05
1.45644e-07
-7.79476e-06
-7.29485e-05
-7.67383e-06
-7.25666e-05
-1.76505e-07
-9.11148e-05
-8.64439e-06
-2.19685e-07
-9.19671e-05
-8.88707e-06
-1.54913e-07
-9.2674e-05
-9.10106e-06
-3.58643e-08
-9.32649e-05
-9.26945e-06
1.03295e-07
-9.36118e-05
-9.37494e-06
2.32798e-07
-9.36737e-05
-9.41655e-06
3.21306e-07
-9.34566e-05
-9.39145e-06
3.40066e-07
-9.29988e-05
-9.29982e-06
2.33891e-07
-9.24315e-05
-9.14722e-06
-9.1727e-05
-8.93056e-06
-1.28582e-08
-6.06998e-06
-3.8845e-05
1.61114e-08
-6.1953e-06
-3.91347e-05
5.68534e-08
-6.26521e-06
-3.92778e-05
1.07545e-07
-6.32885e-06
-3.94152e-05
1.64336e-07
-6.37251e-06
-3.95175e-05
2.06571e-07
-6.38773e-06
-3.9571e-05
2.19072e-07
-6.37414e-06
-3.95747e-05
1.88964e-07
-6.34018e-06
-3.95414e-05
1.13713e-07
-6.29817e-06
-3.94879e-05
-6.19346e-06
-3.92631e-05
-2.98129e-08
-1.2506e-05
-4.29534e-05
-3.96726e-08
-1.27019e-05
-4.32229e-05
-2.39609e-09
-1.28594e-05
-4.33908e-05
6.65398e-08
-1.30013e-05
-4.35538e-05
1.50328e-07
-1.30929e-05
-4.3672e-05
2.19679e-07
-1.31208e-05
-4.37242e-05
2.50894e-07
-1.30846e-05
-4.37108e-05
2.20558e-07
-1.29982e-05
-4.36487e-05
1.10418e-07
-1.28905e-05
-4.35695e-05
-1.27322e-05
-4.33624e-05
-1.28233e-07
-1.94015e-05
-5.1419e-05
-1.85649e-07
-1.96957e-05
-5.1749e-05
-1.36463e-07
-1.99782e-05
-5.20028e-05
-2.31724e-08
-2.02181e-05
-5.22379e-05
1.22242e-07
-2.03666e-05
-5.23949e-05
2.53983e-07
-2.04039e-05
-5.24453e-05
3.33367e-07
-2.03308e-05
-5.23905e-05
3.19346e-07
-2.01642e-05
-5.22529e-05
1.69665e-07
-1.99516e-05
-5.20876e-05
-1.97158e-05
-5.18309e-05
-3.31958e-07
-2.64105e-05
-6.52137e-05
-4.60383e-07
-2.69087e-05
-6.57639e-05
-3.74199e-07
-2.73773e-05
-6.62238e-05
-1.69012e-07
-2.77459e-05
-6.6615e-05
8.45387e-08
-2.79555e-05
-6.6851e-05
3.25185e-07
-2.79984e-05
-6.69013e-05
4.9519e-07
-2.78762e-05
-6.67678e-05
5.22193e-07
-2.75966e-05
-6.64802e-05
3.12841e-07
-2.72145e-05
-6.61221e-05
-2.67888e-05
-6.56694e-05
-7.14175e-07
-8.55328e-05
-3.20752e-05
-9.19256e-07
-8.66177e-05
-3.29383e-05
-7.40514e-07
-8.75126e-05
-3.3644e-05
-3.80363e-07
-8.81999e-05
-3.41302e-05
4.1045e-08
-8.85776e-05
-3.4382e-05
4.47051e-07
-8.86291e-05
-3.44242e-05
7.70694e-07
-8.83653e-05
-3.42525e-05
8.94228e-07
-8.7796e-05
-3.38564e-05
6.22857e-07
-8.70355e-05
-3.32324e-05
-8.60763e-05
-3.24003e-05
-1.09444e-07
-1.01137e-05
-2.8775e-05
-1.17567e-07
-1.03278e-05
-2.8962e-05
-7.29929e-08
-1.04366e-05
-2.90549e-05
6.89052e-09
-1.05276e-05
-2.91456e-05
1.1151e-07
-1.05873e-05
-2.92185e-05
2.02788e-07
-1.06007e-05
-2.92521e-05
2.51835e-07
-1.05688e-05
-2.92502e-05
2.37542e-07
-1.05036e-05
-2.92228e-05
1.51901e-07
-1.04227e-05
-2.9185e-05
-1.02277e-05
-2.90345e-05
-1.49897e-07
-2.10342e-05
-3.21271e-05
-2.01537e-07
-2.13734e-05
-3.23868e-05
-1.59873e-07
-2.16275e-05
-3.25109e-05
-4.79866e-08
-2.18449e-05
-3.26323e-05
9.87832e-08
-2.19769e-05
-3.27191e-05
2.32713e-07
-2.20032e-05
-3.27537e-05
3.12132e-07
-2.19246e-05
-3.27367e-05
3.00213e-07
-2.17602e-05
-3.26811e-05
1.70656e-07
-2.15571e-05
-3.26124e-05
-2.12663e-05
-3.2392e-05
-3.21827e-07
-3.32866e-05
-3.93131e-05
-4.43231e-07
-3.38409e-05
-3.96613e-05
-3.7096e-07
-3.43395e-05
-3.98825e-05
-1.7665e-07
-3.47396e-05
-4.00797e-05
7.22757e-08
-3.49687e-05
-4.02053e-05
3.08103e-07
-3.50063e-05
-4.02401e-05
4.69417e-07
-3.48531e-05
-4.01835e-05
4.86987e-07
-3.45332e-05
-4.00543e-05
2.89429e-07
-3.41185e-05
-3.98964e-05
-3.36468e-05
-3.95988e-05
-6.99513e-07
-4.68184e-05
-5.1813e-05
-9.22992e-07
-4.78781e-05
-5.24452e-05
-7.63469e-07
-4.87903e-05
-5.29077e-05
-4.05014e-07
-4.94585e-05
-5.32727e-05
3.41477e-08
-4.9811e-05
-5.34815e-05
4.58201e-07
-4.98551e-05
-5.35169e-05
7.8039e-07
-4.96022e-05
-5.33834e-05
8.82031e-07
-4.9038e-05
-5.30973e-05
5.84886e-07
-4.8246e-05
-5.27177e-05
-4.72874e-05
-5.21607e-05
-1.51633e-06
-7.23273e-05
-5.97218e-05
-1.81393e-06
-7.37181e-05
-6.1818e-05
-1.42686e-06
-7.47373e-05
-6.33629e-05
-7.59184e-07
-7.54512e-05
-6.43336e-05
-1.14562e-08
-7.58161e-05
-6.47929e-05
7.11583e-07
-7.58553e-05
-6.4839e-05
1.33853e-06
-7.55792e-05
-6.44669e-05
1.6546e-06
-7.49693e-05
-6.36147e-05
1.30086e-06
-7.40615e-05
-6.21835e-05
-7.27834e-05
-6.01186e-05
-1.63075e-07
-1.34501e-05
-1.53432e-05
-2.04343e-07
-1.37231e-05
-1.53932e-05
-1.64197e-07
-1.38683e-05
-1.5427e-05
-5.89681e-08
-1.39912e-05
-1.54728e-05
7.84196e-08
-1.4065e-05
-1.55082e-05
2.04705e-07
-1.40788e-05
-1.55264e-05
2.78646e-07
-1.40308e-05
-1.55258e-05
2.70887e-07
-1.39354e-05
-1.55137e-05
1.68967e-07
-1.3818e-05
-1.55078e-05
-1.35688e-05
-1.54783e-05
-2.22954e-07
-2.83428e-05
-1.73168e-05
-3.23575e-07
-2.87931e-05
-1.75392e-05
-2.7884e-07
-2.91527e-05
-1.7606e-05
-1.31835e-07
-2.94497e-05
-1.76704e-05
6.50897e-08
-2.96222e-05
-1.77174e-05
2.49784e-07
-2.96488e-05
-1.77358e-05
3.67091e-07
-2.95292e-05
-1.77256e-05
3.64113e-07
-2.92879e-05
-1.76956e-05
2.01148e-07
-2.89876e-05
-1.76608e-05
-2.85973e-05
-1.74592e-05
-4.73527e-07
-4.60382e-05
-2.17378e-05
-6.60211e-07
-4.68605e-05
-2.20534e-05
-5.66273e-07
-4.76151e-05
-2.21895e-05
-3.01699e-07
-4.81901e-05
-2.23043e-05
3.82653e-08
-4.85053e-05
-2.23768e-05
3.64944e-07
-4.85434e-05
-2.23958e-05
5.98046e-07
-4.83109e-05
-2.23606e-05
6.41175e-07
-4.78276e-05
-2.2286e-05
3.91524e-07
-4.71769e-05
-2.21897e-05
-4.64615e-05
-2.19063e-05
-1.07724e-06
-6.77722e-05
-3.0112e-05
-1.38301e-06
-6.95694e-05
-3.06742e-05
-1.12879e-06
-7.10692e-05
-3.09921e-05
-6.14402e-07
-7.2099e-05
-3.12251e-05
-1.12188e-09
-7.26111e-05
-3.13545e-05
5.93334e-07
-7.26591e-05
-3.13755e-05
1.06748e-06
-7.226e-05
-3.12898e-05
1.25984e-06
-7.13596e-05
-3.11089e-05
8.86555e-07
-7.00093e-05
-3.08365e-05
-6.83513e-05
-3.0341e-05
-2.52132e-06
-4.58315e-05
-9.3232e-05
-2.84029e-06
-4.71243e-05
-9.74405e-05
-2.15062e-06
-4.79028e-05
-0.000100316
-1.12931e-06
-4.83946e-05
-0.00010196
-5.22974e-08
-4.86288e-05
-0.000102681
9.93191e-07
-4.86484e-05
-0.000102734
1.95858e-06
-4.84783e-05
-0.000102115
2.57078e-06
-4.80447e-05
-0.000100626
2.19381e-06
-4.73446e-05
-9.79331e-05
-4.61082e-05
-9.3755e-05
-1.47772e-07
-1.53415e-05
-2.30625e-07
-1.5463e-05
-2.05124e-07
-1.56128e-05
-9.29663e-08
-1.57511e-05
6.05877e-08
-1.58346e-05
2.04475e-07
-1.58479e-05
2.8827e-07
-1.57905e-05
2.70419e-07
-1.56789e-05
1.29154e-07
-1.55589e-05
-1.5466e-05
-2.09555e-07
-3.27059e-05
-3.68065e-07
-3.31164e-05
-3.38438e-07
-3.35352e-05
-1.75081e-07
-3.38817e-05
4.79436e-08
-3.40793e-05
2.5997e-07
-3.41062e-05
3.94611e-07
-3.3962e-05
3.78797e-07
-3.36764e-05
1.59763e-07
-3.3324e-05
-3.29859e-05
-5.03867e-07
-5.44758e-05
-7.69732e-07
-5.54751e-05
-6.76673e-07
-5.64134e-05
-3.72317e-07
-5.71089e-05
2.0469e-08
-5.7481e-05
4.00522e-07
-5.75211e-05
6.70622e-07
-5.72375e-05
7.12845e-07
-5.66455e-05
3.77761e-07
-5.58171e-05
-5.49582e-05
-1.27136e-06
-8.41833e-05
-1.67104e-06
-8.67324e-05
-1.35934e-06
-8.87307e-05
-7.42678e-07
-9.00279e-05
-2.1475e-08
-9.06449e-05
6.80291e-07
-9.0691e-05
1.24845e-06
-9.02063e-05
1.50456e-06
-8.90451e-05
1.01099e-06
-8.72316e-05
-8.48101e-05
-3.31678e-06
-0.000127592
-3.60402e-06
-0.000134709
-2.65136e-06
-0.000138822
-1.36454e-06
-0.000140962
-7.09885e-08
-0.000141832
1.16714e-06
-0.000141895
2.4032e-06
-0.000141117
3.25904e-06
-0.000139147
2.92925e-06
-0.000135345
-0.000128291
-8.96857e-06
-0.000196876
7.6916e-05
-7.67334e-06
-0.000217793
8.05552e-05
-4.8324e-06
-0.000225541
8.24199e-05
-2.26726e-06
-0.00022835
8.33989e-05
-1.39422e-07
-0.000229235
8.37934e-05
1.97331e-06
-0.000229242
8.38242e-05
4.41323e-06
-0.000228407
8.34868e-05
7.02797e-06
-0.000225843
8.25818e-05
8.49763e-06
-0.000218509
8.0907e-05
-0.000197681
7.73457e-05
-2.40637e-05
-0.000314511
0.000141552
-1.54006e-05
-0.000379332
0.000152329
-7.81002e-06
-0.000390005
0.000156484
-3.2649e-06
-0.000391546
0.000158143
-1.48459e-07
-0.000391477
0.000158719
2.9158e-06
-0.000391432
0.000158748
7.13877e-06
-0.000391459
0.000158197
1.44649e-05
-0.000389975
0.000156739
2.35006e-05
-0.000380716
0.000152859
-0.000316331
0.000142194
-7.04185e-05
-0.000505914
0.000262614
-2.73963e-05
-0.000733694
0.000311953
-9.24497e-06
-0.000728284
0.000320678
-3.00224e-06
-0.000719305
0.000322186
-9.01459e-08
-0.000715962
0.000322243
2.6799e-06
-0.000715854
0.000322193
8.57857e-06
-0.000718832
0.000322188
2.57459e-05
-0.000727289
0.000320801
6.94531e-05
-0.000737121
0.000313354
-0.000510524
0.000264429
-0.000189683
-0.00100736
0.000692185
-7.50826e-05
-0.00156603
0.000719023
-2.39503e-05
-0.00152849
0.000750397
-6.75392e-06
-0.00149463
0.000759427
-1.44213e-07
-0.0014831
0.000761842
6.27216e-06
-0.0014828
0.000761869
2.24685e-05
-0.00149316
0.00075953
7.12616e-05
-0.00152593
0.000750951
0.000186907
-0.00157227
0.000721217
-0.00101823
0.000695504
0.000238525
-0.00124493
0.000105623
-0.0014323
3.83e-05
-0.00146024
1.23288e-05
-0.00146772
2.74262e-07
-0.00147009
-1.1451e-05
-0.00147012
-3.59714e-05
-0.00146779
-0.000100044
-0.00146072
-0.000234594
-0.0014369
-0.00125245
-6.0747e-06
-0.000116403
0.000105175
-5.71086e-06
-0.000127216
0.000108767
-3.81763e-06
-0.000132049
0.00011107
-1.86747e-06
-0.000134192
0.000112438
-1.11678e-07
-0.000134949
0.000113058
1.62837e-06
-0.000134962
0.000113103
3.46992e-06
-0.000134291
0.000112586
5.26673e-06
-0.000132252
0.000111357
5.70041e-06
-0.000127676
0.000109234
-0.000116889
0.000105756
-1.45422e-05
-0.000115696
0.000154961
-1.0582e-05
-0.000144513
0.000165223
-6.02463e-06
-0.000150709
0.000170135
-2.67911e-06
-0.000152363
0.000172526
-1.24918e-07
-0.000152666
0.000173461
2.35071e-06
-0.000152657
0.000173502
5.57272e-06
-0.000152376
0.000172686
9.91255e-06
-0.000150729
0.000170475
1.41234e-05
-0.00014515
0.000165911
-0.00011637
0.000155801
-2.24527e-05
-3.09476e-05
0.000200541
-1.36108e-05
-6.33688e-05
0.000222449
-7.00051e-06
-6.49527e-05
0.000228752
-2.89346e-06
-6.5266e-05
0.000231399
-1.17862e-07
-6.5086e-05
0.000232281
2.62055e-06
-6.50706e-05
0.000232298
6.56157e-06
-6.51965e-05
0.000231495
1.29112e-05
-6.4833e-05
0.00022901
2.21404e-05
-6.36403e-05
0.000223282
-3.09711e-05
0.00020149
-0.00014741
0.00035812
0.000451846
-6.61116e-05
2.55116e-05
0.000550286
-2.2881e-05
6.11101e-05
0.000582526
-6.90344e-06
8.60546e-05
0.000593507
-1.9165e-07
9.48341e-05
0.000596617
6.30085e-06
9.50674e-05
0.000596675
2.14095e-05
8.6861e-05
0.000593767
6.33457e-05
6.24708e-05
0.000583349
0.000145558
2.33495e-05
0.000553389
0.000355115
0.000455847
0.000160053
-0.00104595
7.08246e-05
-0.00131662
2.60168e-05
-0.00135334
8.42966e-06
-0.00136307
2.10451e-07
-0.00136602
-7.77739e-06
-0.00136606
-2.43696e-05
-0.00136325
-6.74409e-05
-0.00135419
-0.000157804
-0.00132225
-0.00105473
-3.23887e-06
-6.53499e-05
0.000113194
-3.3544e-06
-6.93776e-05
0.000115534
-2.41152e-06
-7.14144e-05
0.000117268
-1.22961e-06
-7.24571e-05
0.00011844
-5.99867e-08
-7.28735e-05
0.000119025
1.09424e-06
-7.28906e-05
0.00011908
2.20441e-06
-7.25418e-05
0.000118615
3.0858e-06
-7.15601e-05
0.00011759
2.98375e-06
-6.96031e-05
0.000116023
-6.55556e-05
0.00011381
-6.40894e-06
-5.07696e-05
0.000146384
-5.46713e-06
-5.69263e-05
0.000151488
-3.51843e-06
-5.80901e-05
0.000154515
-1.68526e-06
-5.84128e-05
0.000156295
-8.15154e-08
-5.84676e-05
0.000157102
1.48051e-06
-5.84738e-05
0.000157151
3.25104e-06
-5.84223e-05
0.000156475
5.12765e-06
-5.80786e-05
0.000154857
6.16207e-06
-5.69901e-05
0.000152041
-5.07046e-05
0.000147063
-7.13977e-06
-1.39691e-05
0.000171132
-5.72066e-06
-1.39004e-05
0.000178346
-3.75553e-06
-1.23979e-05
0.000181388
-1.78825e-06
-1.19255e-05
0.000183211
-8.71872e-08
-1.16513e-05
0.000184015
1.60371e-06
-1.16471e-05
0.000184057
3.5256e-06
-1.18915e-05
0.000183357
5.45605e-06
-1.22913e-05
0.000181655
7.01345e-06
-1.37259e-05
0.000178831
-1.35794e-05
0.000171687
-4.03719e-05
0.000229535
0.000249704
-2.15295e-05
0.000245128
0.000273466
-9.20225e-06
0.000272962
0.000285877
-3.19162e-06
0.000285578
0.000291028
-1.30587e-07
0.000290243
0.000292725
2.84074e-06
0.000290357
0.000292785
8.59128e-06
0.000285993
0.000291261
2.05581e-05
0.000273781
0.000286414
3.98886e-05
0.000246584
0.000274775
0.000231546
0.000251276
5.55636e-05
-0.000871321
2.71316e-05
-0.00104238
1.11581e-05
-0.00106371
3.8718e-06
-0.00106949
1.21419e-07
-0.0010713
-3.50529e-06
-0.00107133
-1.03617e-05
-0.00106964
-2.56477e-05
-0.00106438
-5.46454e-05
-0.00104601
-0.00087759
-1.42775e-06
-3.26691e-05
0.00011476
-1.62466e-06
-3.40184e-05
0.000116313
-1.23472e-06
-3.4787e-05
0.000117526
-6.38661e-07
-3.52339e-05
0.000118441
-1.87939e-09
-3.54374e-05
0.000118937
6.24501e-07
-3.54602e-05
0.000119
1.17446e-06
-3.53151e-05
0.000118633
1.52008e-06
-3.49125e-05
0.000117865
1.30083e-06
-3.41786e-05
0.000116812
-3.281e-05
0.000115412
-2.52697e-06
-2.39352e-05
0.000139939
-2.43607e-06
-2.54881e-05
0.000142733
-1.71832e-06
-2.57413e-05
0.000144599
-8.61119e-07
-2.58095e-05
0.000145867
-2.65281e-08
-2.58215e-05
0.000146508
7.89033e-07
-2.58368e-05
0.000146563
1.6142e-06
-2.58335e-05
0.000146055
2.3e-06
-2.57684e-05
0.000144933
2.41413e-06
-2.54881e-05
0.00014324
-2.38406e-05
0.000140584
-2.94904e-06
-8.4185e-06
0.000158855
-2.60796e-06
-9.51004e-06
0.000162326
-1.8341e-06
-9.18372e-06
0.000164371
-9.20836e-07
-8.93566e-06
0.000165728
-3.9568e-08
-8.78039e-06
0.000166395
8.44526e-07
-8.78074e-06
0.000166446
1.73192e-06
-8.93234e-06
0.00016589
2.52481e-06
-9.13727e-06
0.000164662
2.92202e-06
-9.45647e-06
0.000162746
-8.2785e-06
0.000159341
-1.35248e-05
8.50848e-05
0.000170255
-7.35409e-06
8.96046e-05
0.000168811
-3.42569e-06
9.96873e-05
0.000173715
-1.30001e-06
0.000104521
0.000176092
-6.22077e-08
0.000106412
0.000176958
1.13746e-06
0.000106462
0.000177008
3.20629e-06
0.000104711
0.000176275
7.03284e-06
0.00010007
0.000174049
1.34074e-05
9.02661e-05
0.000169302
8.59645e-05
0.000170748
1.68674e-05
-0.000802868
9.50272e-06
-0.000945162
4.27986e-06
-0.000958554
1.56429e-06
-0.000961998
6.9937e-08
-0.000963139
-1.36809e-06
-0.000963162
-3.91448e-06
-0.000962106
-8.92266e-06
-0.000959048
-1.64914e-05
-0.000947959
-0.000808162
-3.84088e-07
-8.14836e-06
0.00011475
-4.40407e-07
-8.44595e-06
0.00011606
-3.29188e-07
-8.62167e-06
0.00011708
-1.43876e-07
-8.74586e-06
0.000117885
6.14457e-08
-8.81734e-06
0.000118338
2.59818e-07
-8.84733e-06
0.000118407
4.15727e-07
-8.83182e-06
0.000118097
4.94697e-07
-8.75452e-06
0.000117453
4.11195e-07
-8.60209e-06
0.000116614
-8.30003e-06
0.0001155
-6.24553e-07
-5.68876e-06
0.00013832
-6.28472e-07
-6.00033e-06
0.000140552
-4.62733e-07
-6.01347e-06
0.000142104
-2.25164e-07
-6.02943e-06
0.000143204
3.20961e-08
-6.04465e-06
0.00014378
2.81291e-07
-6.06459e-06
0.000143846
5.03666e-07
-6.07996e-06
0.000143405
6.60106e-07
-6.08034e-06
0.000142468
6.53552e-07
-6.07074e-06
0.000141096
-5.74131e-06
0.000139029
-6.83997e-07
-2.79163e-06
0.000156766
-6.29025e-07
-3.11227e-06
0.000159625
-4.90024e-07
-3.07004e-06
0.000161529
-2.54706e-07
-3.06763e-06
0.000162784
1.34677e-08
-3.06815e-06
0.000163404
2.81592e-07
-3.08071e-06
0.000163458
5.16916e-07
-3.09635e-06
0.000162962
6.65747e-07
-3.11195e-06
0.000161833
7.33451e-07
-3.15553e-06
0.000160076
-2.85588e-06
0.000157278
-3.05936e-06
1.76714e-05
0.000152714
-1.74285e-06
1.76353e-05
0.000146653
-9.25464e-07
1.98255e-05
0.000149915
-3.93422e-07
2.08733e-05
0.000151535
-1.01988e-08
2.12918e-05
0.000152126
3.6472e-07
2.13026e-05
0.00015217
8.98429e-07
2.09115e-05
0.000151668
1.70248e-06
1.9903e-05
0.00015017
3.03798e-06
1.7739e-05
0.000146915
1.7786e-05
0.000152856
3.36478e-06
-0.000788968
1.90857e-06
-0.000926443
8.3334e-07
-0.000938044
2.95345e-07
-0.000940981
4.08453e-08
-0.000941997
-1.93918e-07
-0.000942019
-6.95726e-07
-0.000941083
-1.74625e-06
-0.000938498
-3.28815e-06
-0.00092908
-0.000794115
4.24688e-07
1.47987e-05
0.000114029
5.46497e-07
1.52393e-05
0.000115508
4.62567e-07
1.55416e-05
0.000116652
3.05541e-07
1.56827e-05
0.000117507
1.30504e-07
1.57205e-05
0.000117982
-4.5275e-08
1.56875e-05
0.00011806
-2.15479e-07
1.55836e-05
0.000117746
-3.09599e-07
1.53968e-05
0.00011708
-2.03261e-07
1.50667e-05
0.000116164
1.45997e-05
0.000114919
8.08354e-07
1.1869e-05
0.000141108
8.60573e-07
1.261e-05
0.00014396
6.18013e-07
1.28964e-05
0.000145832
3.51855e-07
1.29633e-05
0.00014707
9.88104e-08
1.29526e-05
0.000147694
-1.56576e-07
1.29167e-05
0.000147761
-4.15302e-07
1.28829e-05
0.000147298
-6.53201e-07
1.27566e-05
0.000146244
-6.12092e-07
1.24449e-05
0.000144591
1.16167e-05
0.000141917
1.38395e-06
2.75195e-06
0.000164357
1.21154e-06
3.70592e-06
0.000168704
7.45123e-07
3.76671e-06
0.00017112
3.72664e-07
3.52558e-06
0.000172585
6.79226e-08
3.34849e-06
0.000173286
-2.18289e-07
3.32191e-06
0.000173344
-5.94196e-07
3.43634e-06
0.000172759
-1.03241e-06
3.63541e-06
0.000171422
-1.26391e-06
3.50953e-06
0.000169223
2.38467e-06
0.000164912
4.47608e-06
-3.25349e-05
0.000182394
2.33133e-06
-3.53512e-05
0.000186674
8.48122e-07
-3.87558e-05
0.000192745
2.56753e-07
-4.06349e-05
0.000195076
3.56777e-08
-4.13845e-05
0.000195848
-1.80401e-07
-4.14094e-05
0.000195884
-7.46993e-07
-4.07378e-05
0.000195212
-2.18068e-06
-3.90144e-05
0.000193032
-4.51283e-06
-3.58021e-05
0.000187237
-3.3206e-05
0.000182815
-5.31115e-06
-0.000817357
-3.52081e-06
-0.00096466
-1.8479e-06
-0.000979603
-7.44102e-07
-0.000983865
1.78742e-08
-0.000985312
7.71761e-07
-0.000985343
1.8044e-06
-0.000984029
3.38929e-06
-0.000980216
5.10843e-06
-0.000967765
-0.000823109
1.41588e-06
4.13088e-05
0.000110644
1.66558e-06
4.29843e-05
0.000112685
1.30851e-06
4.39742e-05
0.000114133
7.78478e-07
4.44739e-05
0.000115133
2.09409e-07
4.46499e-05
0.000115651
-3.56232e-07
4.46048e-05
0.000115726
-8.72939e-07
4.43638e-05
0.000115395
-1.20401e-06
4.38098e-05
0.000114604
-9.61215e-07
4.27848e-05
0.000113409
4.10315e-05
0.000111595
2.80808e-06
3.42036e-05
0.00014636
2.68519e-06
3.70274e-05
0.000151289
1.84552e-06
3.78919e-05
0.000154053
9.7522e-07
3.81206e-05
0.000155592
1.66719e-07
3.81448e-05
0.000156307
-6.16624e-07
3.81021e-05
0.000156388
-1.46079e-06
3.79802e-05
0.00015583
-2.26627e-06
3.76514e-05
0.000154495
-2.43099e-06
3.67636e-05
0.000152033
3.36981e-05
0.000147246
4.51479e-06
1.58516e-05
0.000177747
3.59374e-06
2.12872e-05
0.000184804
2.20986e-06
2.21536e-05
0.00018767
1.08005e-06
2.18825e-05
0.00018942
1.27273e-07
2.15748e-05
0.000190213
-8.12654e-07
2.15252e-05
0.000190251
-1.92957e-06
2.17473e-05
0.000189567
-3.20547e-06
2.1897e-05
0.000187991
-4.33613e-06
2.10366e-05
0.000185227
1.52653e-05
0.000178154
2.01144e-05
-0.000114777
0.000290415
9.68654e-06
-0.000117635
0.000333617
3.66362e-06
-0.000129279
0.000347686
1.18159e-06
-0.000135668
0.000352494
7.85986e-08
-0.00013813
0.000354035
-1.00906e-06
-0.000138211
0.000354091
-3.35051e-06
-0.000136019
0.000352717
-9.17479e-06
-0.000130083
0.000348137
-2.01423e-05
-0.000118807
0.000335518
-0.000116654
0.000292529
-2.09845e-05
-0.00091296
-1.26553e-05
-0.00109243
-5.98256e-06
-0.00111739
-2.26328e-06
-0.00112515
-2.32022e-08
-0.00112762
2.16072e-06
-0.00112767
5.64516e-06
-0.00112547
1.19813e-05
-0.00111842
2.03871e-05
-0.00109695
-0.000920463
3.00048e-06
7.67396e-05
9.88879e-05
3.11841e-06
8.1318e-05