/*--------------------------------*- C++ -*----------------------------------*\
| =========                 |                                                 |
| \\      /  F ield         | OpenFOAM: The Open Source CFD Toolbox           |
|  \\    /   O peration     | Version:  2.3.1                                 |
|   \\  /    A nd           | Web:      www.OpenFOAM.org                      |
|    \\/     M anipulation  |                                                 |
\*---------------------------------------------------------------------------*/
FoamFile
{
    version     2.0;
    format      ascii;
    class       volVectorField;
    location    "0.44";
    object      U;
}
// * * * * * * * * * * * * * * * * * * * * * * * * * * * * * * * * * * * * * //

dimensions      [0 1 -1 0 0 0 0];

internalField   nonuniform List<vector> 
1000
(
(0.000417453 0.00182403 0.00112522)
(-0.000483336 0.0010136 0.00132858)
(-0.000658207 0.00087062 0.000440664)
(-0.000724293 0.000816791 0.000253827)
(-0.00074825 0.000797919 0.000142096)
(-0.000757683 0.000789408 7.87051e-05)
(-0.000761439 0.000783459 3.93007e-05)
(-0.000762893 0.000778019 1.57063e-05)
(-0.000763736 0.000773394 5.65468e-06)
(-0.000763848 0.000772271 1.86874e-06)
(-0.000540931 0.00363894 0.000307672)
(-0.000742579 0.00271312 0.000434852)
(-0.000809783 0.0025416 0.000268448)
(-0.000842489 0.00246473 0.000185308)
(-0.000857784 0.00243457 0.000116921)
(-0.00086468 0.00241748 6.55252e-05)
(-0.000867398 0.00240152 2.87477e-05)
(-0.000868142 0.00238407 6.23434e-06)
(-0.0008678 0.00236823 3.55292e-06)
(-0.000854644 0.00236126 3.1618e-06)
(-0.000949707 0.00472186 0.00012251)
(-0.00101554 0.00453467 0.000220651)
(-0.0010442 0.00447939 0.000191595)
(-0.00106156 0.00445496 0.000147462)
(-0.00107139 0.00444179 9.55542e-05)
(-0.00107597 0.00442546 4.62313e-05)
(-0.00107701 0.00439971 6.30158e-06)
(-0.00107633 0.00436509 -1.73577e-05)
(-0.00107444 0.00432884 -1.02673e-05)
(-0.00105781 0.00429828 1.21105e-08)
(-0.00138946 0.00699111 8.64014e-05)
(-0.00143136 0.0070197 0.000181672)
(-0.0014494 0.00706522 0.000188593)
(-0.00146255 0.00710123 0.000147533)
(-0.00147073 0.00711444 8.73374e-05)
(-0.00147381 0.00710257 2.34377e-05)
(-0.00147272 0.00706466 -3.16143e-05)
(-0.00146885 0.00699811 -6.4741e-05)
(-0.00146377 0.00691248 -5.2134e-05)
(-0.00143765 0.00682058 -1.82848e-05)
(-0.00212022 0.0103897 0.000135078)
(-0.00217329 0.010637 0.00027779)
(-0.00219753 0.0108235 0.000273177)
(-0.00221595 0.0109364 0.000196513)
(-0.00222599 0.0109836 9.67916e-05)
(-0.0022286 0.0109779 -3.56672e-06)
(-0.00222411 0.010917 -9.81422e-05)
(-0.00221294 0.0107921 -0.000169728)
(-0.00219543 0.0105927 -0.00017172)
(-0.0021498 0.0103237 -8.02393e-05)
(-0.000840021 0.000880044 0.000231966)
(-0.00179472 0.000785617 0.000333563)
(-0.00199247 0.000752341 0.000226145)
(-0.00209096 0.000732018 0.000168662)
(-0.00213366 0.000721855 0.000111137)
(-0.00215267 0.000715885 6.67548e-05)
(-0.00216064 0.000710919 3.47348e-05)
(-0.00216331 0.000706066 1.37069e-05)
(-0.00216391 0.000701183 1.4964e-06)
(-0.00215603 0.000686457 -7.79271e-07)
(-0.00198456 0.00237271 0.000122994)
(-0.00222814 0.00225656 0.000208234)
(-0.00231903 0.00221338 0.000180899)
(-0.00237465 0.00218359 0.000142251)
(-0.00240456 0.00216689 9.73107e-05)
(-0.00241917 0.00215434 5.72979e-05)
(-0.0024249 0.00214087 2.60005e-05)
(-0.00242579 0.00212529 5.4869e-06)
(-0.00242389 0.00211041 -7.67889e-07)
(-0.0024016 0.00208847 9.67264e-08)
(-0.0027488 0.00393536 7.77507e-05)
(-0.0028505 0.0039034 0.000153222)
(-0.00290152 0.0038914 0.000151707)
(-0.00293678 0.00388439 0.000123638)
(-0.00295831 0.00387744 8.31731e-05)
(-0.0029686 0.00386447 4.17596e-05)
(-0.00297042 0.00384217 6.50128e-06)
(-0.00296727 0.00381184 -1.54384e-05)
(-0.00296123 0.00377961 -1.44997e-05)
(-0.00293387 0.00375086 -3.78402e-06)
(-0.00378865 0.00588765 7.10226e-05)
(-0.00386446 0.00594411 0.000154122)
(-0.00390602 0.00599346 0.000161794)
(-0.00393759 0.00602774 0.000128608)
(-0.00395749 0.00604037 7.75879e-05)
(-0.00396487 0.00603007 2.21947e-05)
(-0.0039611 0.00599722 -2.64897e-05)
(-0.00394992 0.00594049 -5.71373e-05)
(-0.00393415 0.00586934 -5.11356e-05)
(-0.00388823 0.0057911 -1.832e-05)
(-0.0054736 0.00835687 0.00011697)
(-0.0055854 0.00857021 0.00024477)
(-0.00564779 0.00872399 0.000235456)
(-0.00569445 0.00881665 0.00017047)
(-0.00572026 0.00885412 8.54669e-05)
(-0.00572637 0.00884781 -1.37064e-06)
(-0.00571454 0.00879822 -8.30784e-05)
(-0.00568436 0.00869716 -0.000143966)
(-0.00563954 0.00853658 -0.000151568)
(-0.00554589 0.00831652 -6.93851e-05)
(-0.00298167 0.000622236 0.000114344)
(-0.00316136 0.000587797 0.000190428)
(-0.00324215 0.000570959 0.000145334)
(-0.0033016 0.000561842 0.000113826)
(-0.00333703 0.000556624 8.13001e-05)
(-0.00335577 0.000552851 5.23255e-05)
(-0.003364 0.000549265 2.90133e-05)
(-0.003366 0.00054559 1.23725e-05)
(-0.00336482 0.000542056 1.04695e-06)
(-0.00334614 0.000530444 -1.18971e-06)
(-0.00347004 0.0017554 6.79539e-05)
(-0.00356733 0.00170813 0.000128827)
(-0.00362667 0.00168464 0.000122651)
(-0.00367218 0.00167103 0.000102066)
(-0.00370128 0.00166211 7.40385e-05)
(-0.00371689 0.00165375 4.61832e-05)
(-0.00372279 0.00164388 2.26668e-05)
(-0.00372247 0.00163208 6.40685e-06)
(-0.00371888 0.00162102 -2.70139e-07)
(-0.00369935 0.00160255 -3.02659e-07)
(-0.00429142 0.0029358 4.78291e-05)
(-0.00435695 0.00293147 0.000101945)
(-0.00440246 0.00292909 0.000108972)
(-0.00443921 0.00292826 9.29042e-05)
(-0.00446361 0.00292469 6.52243e-05)
(-0.00447556 0.00291529 3.50108e-05)
(-0.00447699 0.0028988 8.05815e-06)
(-0.00447085 0.00287598 -9.29862e-06)
(-0.00446185 0.00285258 -1.03648e-05)
(-0.00443918 0.00283009 -2.94368e-06)
(-0.00558742 0.00429618 4.84821e-05)
(-0.00565214 0.00434334 0.00010952)
(-0.00570018 0.00437913 0.000119308)
(-0.00573938 0.00440344 9.78798e-05)
(-0.00576453 0.00441211 6.1228e-05)
(-0.00577378 0.00440415 2.04351e-05)
(-0.00576798 0.00437952 -1.65292e-05)
(-0.00575147 0.00433954 -3.96924e-05)
(-0.00572928 0.00429093 -3.51682e-05)
(-0.00569144 0.00423767 -1.17032e-05)
(-0.00756664 0.00580045 7.70688e-05)
(-0.00767273 0.00593693 0.000168772)
(-0.00774991 0.00603319 0.00016894)
(-0.00780879 0.00609267 0.00012585)
(-0.00784254 0.00611699 6.59167e-05)
(-0.00785027 0.0061109 2.44806e-06)
(-0.00783438 0.00607631 -5.65339e-05)
(-0.00779504 0.00600882 -9.80563e-05)
(-0.00774099 0.00590966 -9.79038e-05)
(-0.00765768 0.00577368 -4.1023e-05)
(-0.0039549 0.000370916 4.66976e-05)
(-0.00406712 0.000365385 9.01706e-05)
(-0.00412354 0.000358453 8.62549e-05)
(-0.00416487 0.000354214 7.38148e-05)
(-0.00419229 0.000351374 5.70092e-05)
(-0.00420785 0.000349006 3.98116e-05)
(-0.00421448 0.000346669 2.45254e-05)
(-0.0042151 0.000344343 1.25559e-05)
(-0.00421244 0.000342353 3.23068e-06)
(-0.00418725 0.00033577 -2.47007e-08)
(-0.00443901 0.00107649 3.36916e-05)
(-0.00450811 0.0010677 7.10122e-05)
(-0.00455183 0.00105739 7.65625e-05)
(-0.00458764 0.00105068 6.82064e-05)
(-0.00461239 0.00104542 5.29268e-05)
(-0.0046261 0.00103993 3.59644e-05)
(-0.00463067 0.00103348 2.05243e-05)
(-0.00462885 0.00102619 9.06802e-06)
(-0.004624 0.0010196 3.27289e-06)
(-0.00459943 0.00100914 1.1987e-06)
(-0.00532266 0.00181845 2.61798e-05)
(-0.00537678 0.00182086 6.00799e-05)
(-0.00541509 0.00182002 6.97486e-05)
(-0.00544852 0.00181923 6.28602e-05)
(-0.00547165 0.00181621 4.70851e-05)
(-0.00548284 0.00180958 2.85194e-05)
(-0.00548316 0.00179897 1.13049e-05)
(-0.0054752 0.00178484 -5.1519e-07)
(-0.00546456 0.00177114 -2.39844e-06)
(-0.00543739 0.0017591 1.09877e-07)
(-0.00669371 0.00261277 2.71255e-05)
(-0.00675559 0.00263792 6.46608e-05)
(-0.00680096 0.002656 7.4861e-05)
(-0.00684025 0.00266806 6.45217e-05)
(-0.00686592 0.00267128 4.33865e-05)
(-0.0068751 0.00266513 1.88267e-05)
(-0.00686846 0.00264956 -4.13162e-06)
(-0.00684939 0.00262593 -1.86728e-05)
(-0.00682616 0.00259928 -1.55531e-05)
(-0.00678607 0.00257279 -3.78686e-06)
(-0.00864897 0.00340047 4.01975e-05)
(-0.00874513 0.00346275 9.32317e-05)
(-0.00881741 0.00350976 9.97838e-05)
(-0.00887536 0.00353912 7.81176e-05)
(-0.0089098 0.00355043 4.41534e-05)
(-0.00891798 0.00354533 6.8242e-06)
(-0.00890075 0.00352421 -2.78759e-05)
(-0.00886186 0.00348734 -5.08323e-05)
(-0.00881147 0.00343694 -4.64966e-05)
(-0.00873781 0.00337611 -1.67592e-05)
(-0.00450113 0.00013845 1.98749e-05)
(-0.00456241 0.000137035 4.30393e-05)
(-0.00459786 0.000133697 4.79926e-05)
(-0.00462685 0.000131169 4.50823e-05)
(-0.00464757 0.000129255 3.83305e-05)
(-0.00465961 0.000127731 3.01431e-05)
(-0.00466415 0.000126478 2.1785e-05)
(-0.00466331 0.00012546 1.4004e-05)
(-0.00465952 0.000124782 6.65681e-06)
(-0.00463158 0.000122647 1.81259e-06)
(-0.00496369 0.00040389 1.58595e-05)
(-0.00501276 0.000400536 3.60859e-05)
(-0.00504387 0.00039427 4.29262e-05)
(-0.00507155 0.000389123 4.14961e-05)
(-0.00509164 0.000384888 3.56096e-05)
(-0.00510263 0.000381187 2.7934e-05)
(-0.00510534 0.000377827 1.9946e-05)
(-0.00510212 0.000374795 1.27268e-05)
(-0.00509643 0.000372592 6.97904e-06)
(-0.00507006 0.000369345 2.46714e-06)
(-0.00586056 0.000681201 1.23655e-05)
(-0.00590605 0.000679941 2.96582e-05)
(-0.00593748 0.000675767 3.70156e-05)
(-0.00596666 0.000671527 3.63257e-05)
(-0.00598728 0.000667085 3.09336e-05)
(-0.00599671 0.000662251 2.35208e-05)
(-0.00599545 0.000656997 1.57369e-05)
(-0.00598629 0.000651479 9.15662e-06)
(-0.00597471 0.000646756 5.28455e-06)
(-0.00594611 0.000643512 2.28878e-06)
(-0.0072376 0.000969816 1.12792e-05)
(-0.00729431 0.000975259 2.77506e-05)
(-0.00733531 0.000977095 3.44944e-05)
(-0.00737244 0.000976869 3.2889e-05)
(-0.00739694 0.000974218 2.64048e-05)
(-0.00740512 0.000969254 1.79126e-05)
(-0.00739735 0.000962171 9.23307e-06)
(-0.00737712 0.000953123 2.52211e-06)
(-0.00735355 0.000944241 1.31256e-06)
(-0.00731349 0.000937114 1.54537e-06)
(-0.00911785 0.00124145 1.37384e-05)
(-0.00920229 0.00125753 3.33076e-05)
(-0.00926687 0.00126874 3.85466e-05)
(-0.00932159 0.0012745 3.34336e-05)
(-0.00935473 0.00127469 2.33218e-05)
(-0.0093623 0.00127006 1.14955e-05)
(-0.00934457 0.00126105 -3.62888e-07)
(-0.00930646 0.00124749 -8.77362e-06)
(-0.00926006 0.00123135 -7.72822e-06)
(-0.00919501 0.00121467 -1.65598e-06)
(-0.00457419 -8.82478e-05 7.10674e-06)
(-0.00461757 -9.20581e-05 1.69398e-05)
(-0.00464118 -9.47633e-05 2.22696e-05)
(-0.00466221 -9.71972e-05 2.41023e-05)
(-0.00467791 -9.90262e-05 2.42503e-05)
(-0.00468684 -0.000100074 2.32404e-05)
(-0.00468939 -0.00010036 2.08389e-05)
(-0.00468722 -0.000100098 1.67486e-05)
(-0.0046824 -9.95235e-05 1.06633e-05)
(-0.00465431 -9.71315e-05 3.65076e-06)
(-0.00502623 -0.000264906 5.6755e-06)
(-0.00506582 -0.000272619 1.33397e-05)
(-0.00508917 -0.000279768 1.78101e-05)
(-0.00511112 -0.000286388 2.03947e-05)
(-0.00512736 -0.000291284 2.18424e-05)
(-0.00513577 -0.000293968 2.22598e-05)
(-0.00513661 -0.000294443 2.10539e-05)
(-0.00513195 -0.000293236 1.76142e-05)
(-0.00512505 -0.000291119 1.12235e-05)
(-0.00509813 -0.000286723 3.73146e-06)
(-0.00592027 -0.000455371 2.39827e-06)
(-0.00596182 -0.000465198 5.61841e-06)
(-0.00598943 -0.000476197 9.02813e-06)
(-0.00601564 -0.000486404 1.30034e-05)
(-0.00603399 -0.000493811 1.70288e-05)
(-0.00604155 -0.000497597 2.03576e-05)
(-0.00603847 -0.000497689 2.17638e-05)
(-0.00602754 -0.000494772 2.0055e-05)
(-0.00601421 -0.000490269 1.38186e-05)
(-0.00598396 -0.000484242 4.76109e-06)
(-0.00730114 -0.000644454 -2.35674e-06)
(-0.00735736 -0.000658715 -5.59543e-06)
(-0.00739787 -0.000673824 -3.38725e-06)
(-0.00743456 -0.000687304 2.82717e-06)
(-0.00745835 -0.000696606 1.06993e-05)
(-0.00746524 -0.000700887 1.84241e-05)
(-0.00745549 -0.000700002 2.39156e-05)
(-0.00743288 -0.000694681 2.50285e-05)
(-0.00740595 -0.000686472 1.94546e-05)
(-0.00736262 -0.000676069 7.32776e-06)
(-0.00918155 -0.000804688 -9.2903e-06)
(-0.00926806 -0.000826182 -2.1236e-05)
(-0.00933481 -0.000845739 -1.96683e-05)
(-0.00939116 -0.000861864 -9.81264e-06)
(-0.0094248 -0.000872288 3.44562e-06)
(-0.00943145 -0.000876594 1.69843e-05)
(-0.00941158 -0.000874527 2.80165e-05)
(-0.00936946 -0.000866505 3.36271e-05)
(-0.00931781 -0.000853418 2.94603e-05)
(-0.00924743 -0.000835126 1.19902e-05)
(-0.00419681 -0.000309068 -5.99017e-07)
(-0.00423136 -0.000317376 -1.47982e-07)
(-0.00424817 -0.00032093 3.81421e-06)
(-0.00426393 -0.000324177 8.34721e-06)
(-0.00427579 -0.000326426 1.36999e-05)
(-0.0042822 -0.00032724 1.86628e-05)
(-0.00428317 -0.000326599 2.1412e-05)
(-0.0042801 -0.00032494 2.0556e-05)
(-0.00427474 -0.000322886 1.5172e-05)
(-0.00424862 -0.000315564 5.55512e-06)
(-0.00462707 -0.000923974 -1.56489e-06)
(-0.00466159 -0.000940016 -3.79495e-06)
(-0.00468053 -0.000951183 -2.17758e-06)
(-0.00469847 -0.000961382 3.27959e-06)
(-0.00471162 -0.000968124 1.09636e-05)
(-0.0047178 -0.000970307 1.86858e-05)
(-0.00471707 -0.000967891 2.37855e-05)
(-0.00471122 -0.000962009 2.39174e-05)
(-0.00470311 -0.000954781 1.6608e-05)
(-0.00467648 -0.000941612 5.49133e-06)
(-0.00549698 -0.00159372 -6.73703e-06)
(-0.00553739 -0.00161605 -1.65629e-05)
(-0.00556378 -0.00163771 -1.68188e-05)
(-0.00558813 -0.00165669 -8.27653e-06)
(-0.00560466 -0.00166867 5.02137e-06)
(-0.00561047 -0.00167197 1.90501e-05)
(-0.00560569 -0.0016666 2.97762e-05)
(-0.00559275 -0.00165414 3.32585e-05)
(-0.00557671 -0.00163852 2.48351e-05)
(-0.00554467 -0.00162099 8.51606e-06)
(-0.00688248 -0.00229151 -1.72736e-05)
(-0.0069431 -0.00233146 -4.12468e-05)
(-0.00698745 -0.00236881 -4.27989e-05)
(-0.00702569 -0.00239918 -2.76527e-05)
(-0.00704938 -0.00241711 -4.27882e-06)
(-0.00705501 -0.00242117 2.07818e-05)
(-0.00704281 -0.00241147 4.16385e-05)
(-0.00701609 -0.00238932 5.19666e-05)
(-0.00698284 -0.00235989 4.28881e-05)
(-0.00693285 -0.00232643 1.58643e-05)
(-0.00885404 -0.00293562 -3.76253e-05)
(-0.00895926 -0.00300668 -8.53599e-05)
(-0.00904021 -0.00306572 -8.47449e-05)
(-0.00910419 -0.00310877 -5.66462e-05)
(-0.00914047 -0.00313211 -1.69745e-05)
(-0.00914614 -0.00313643 2.47157e-05)
(-0.00912206 -0.00312157 6.16878e-05)
(-0.00907062 -0.0030876 8.49737e-05)
(-0.00900338 -0.00303701 7.88441e-05)
(-0.00891178 -0.00297094 3.24207e-05)
(-0.00339312 -0.000514675 -5.95444e-06)
(-0.00341881 -0.000528802 -1.23384e-05)
(-0.00343052 -0.000534263 -9.85784e-06)
(-0.00344182 -0.000538834 -3.52572e-06)
(-0.00345052 -0.000541858 5.98483e-06)
(-0.00345482 -0.00054256 1.58605e-05)
(-0.00345486 -0.000540991 2.29431e-05)
(-0.00345178 -0.00053778 2.47587e-05)
(-0.00344713 -0.000533801 1.96371e-05)
(-0.00342642 -0.000520583 7.3728e-06)
(-0.00377006 -0.00154834 -8.00633e-06)
(-0.00379836 -0.00157545 -1.8503e-05)
(-0.00381332 -0.00159307 -1.88239e-05)
(-0.0038275 -0.00160825 -1.07167e-05)
(-0.00383768 -0.00161774 2.51396e-06)
(-0.00384197 -0.00161973 1.68103e-05)
(-0.00384039 -0.00161433 2.76455e-05)
(-0.0038344 -0.00160312 3.1217e-05)
(-0.0038265 -0.00158947 2.35696e-05)
(-0.00380327 -0.00156574 8.37268e-06)
(-0.0045578 -0.00271091 -1.70244e-05)
(-0.00459463 -0.00275056 -3.96078e-05)
(-0.00461905 -0.00278723 -4.16861e-05)
(-0.00464075 -0.00281775 -2.79113e-05)
(-0.00465489 -0.00283569 -5.31799e-06)
(-0.0046591 -0.00283891 1.93341e-05)
(-0.00465344 -0.0028275 3.95184e-05)
(-0.00463992 -0.0028037 4.88727e-05)
(-0.00462301 -0.00277381 3.95288e-05)
(-0.00459238 -0.00274076 1.46843e-05)
(-0.00588213 -0.0040021 -3.70323e-05)
(-0.00594558 -0.0040807 -8.43081e-05)
(-0.00599289 -0.0041503 -8.60684e-05)
(-0.00603101 -0.00420342 -5.91621e-05)
(-0.00605339 -0.00423247 -1.86182e-05)
(-0.00605764 -0.0042366 2.50115e-05)
(-0.00604413 -0.00421643 6.2876e-05)
(-0.0060151 -0.00417262 8.49196e-05)
(-0.00597702 -0.00411329 7.56835e-05)
(-0.0059222 -0.0040438 3.02853e-05)
(-0.00793907 -0.00533537 -8.10814e-05)
(-0.00806897 -0.00549379 -0.000174331)
(-0.00816675 -0.00561624 -0.000164916)
(-0.0082376 -0.00569839 -0.000110196)
(-0.00827507 -0.00573931 -3.85134e-05)
(-0.00827961 -0.00574389 3.54118e-05)
(-0.00825228 -0.0057124 0.000103604)
(-0.00819256 -0.00564151 0.000152399)
(-0.00810711 -0.00553068 0.000154485)
(-0.00798915 -0.00537867 6.9166e-05)
(-0.00220726 -0.000683779 -8.61769e-06)
(-0.00222029 -0.000702383 -1.9315e-05)
(-0.00222655 -0.000709654 -1.8808e-05)
(-0.0022333 -0.000715798 -1.16379e-05)
(-0.00223866 -0.000719508 7.13146e-07)
(-0.0022412 -0.000720218 1.4328e-05)
(-0.00224104 -0.000717845 2.44571e-05)
(-0.00223904 -0.000713137 2.79152e-05)
(-0.00223683 -0.000707345 2.20088e-05)
(-0.0022266 -0.000689868 8.00102e-06)
(-0.00247643 -0.00207492 -1.19219e-05)
(-0.00250616 -0.00210974 -2.80854e-05)
(-0.00251599 -0.00213407 -3.09157e-05)
(-0.00252526 -0.00215464 -2.10299e-05)
(-0.00253191 -0.00216678 -3.46022e-06)
(-0.00253453 -0.0021688 1.60114e-05)
(-0.00253313 -0.00216061 3.13675e-05)
(-0.00252879 -0.0021442 3.74233e-05)
(-0.00252327 -0.00212426 2.82612e-05)
(-0.00249645 -0.00209365 9.96477e-06)
(-0.00306217 -0.0037057 -2.53134e-05)
(-0.0031033 -0.00376098 -5.83773e-05)
(-0.0031218 -0.00381479 -6.2691e-05)
(-0.00313752 -0.00385768 -4.4054e-05)
(-0.00314747 -0.00388182 -1.32732e-05)
(-0.00315012 -0.00388508 2.05267e-05)
(-0.00314545 -0.00386778 4.89644e-05)
(-0.0031351 -0.00383232 6.34314e-05)
(-0.00312173 -0.0037867 5.24094e-05)
(-0.00308463 -0.00373985 2.00549e-05)
(-0.00412119 -0.00567372 -5.77901e-05)
(-0.00419379 -0.00579652 -0.000127529)
(-0.00423434 -0.0059064 -0.000128019)
(-0.00426472 -0.00598581 -8.80759e-05)
(-0.00428183 -0.00602703 -3.08367e-05)
(-0.00428463 -0.00603141 3.00617e-05)
(-0.00427347 -0.00600011 8.41674e-05)
(-0.00424963 -0.00593187 0.000118828)
(-0.00421553 -0.00583469 0.000110764)
(-0.00414992 -0.00572417 4.68876e-05)
(-0.00597857 -0.00803684 -0.000137122)
(-0.00613678 -0.00832575 -0.000280931)
(-0.00623068 -0.00854118 -0.000253347)
(-0.00629238 -0.00867459 -0.000164895)
(-0.00632288 -0.00873656 -5.88959e-05)
(-0.00632582 -0.00874168 4.74979e-05)
(-0.00630297 -0.00869056 0.000148676)
(-0.00624944 -0.00857147 0.000229994)
(-0.00616516 -0.00837242 0.000249552)
(-0.00601522 -0.00809184 0.00011916)
(-0.000786097 -0.000780204 -7.96601e-06)
(-0.000788057 -0.000786309 -1.92955e-05)
(-0.000789671 -0.00079368 -2.24198e-05)
(-0.000791989 -0.000800539 -1.55039e-05)
(-0.000793797 -0.000804709 -1.87599e-06)
(-0.000794738 -0.000805391 1.34263e-05)
(-0.000794739 -0.000802564 2.49805e-05)
(-0.000794162 -0.000797075 2.85445e-05)
(-0.000794003 -0.000791229 1.95997e-05)
(-0.000793111 -0.000786547 6.23717e-06)
(-0.000887664 -0.00238372 -1.17511e-05)
(-0.000904078 -0.00240799 -2.92169e-05)
(-0.000907495 -0.00243565 -3.63372e-05)
(-0.000910782 -0.00245941 -2.62797e-05)
(-0.000913199 -0.00247326 -6.55636e-06)
(-0.000914166 -0.00247527 1.56405e-05)
(-0.000913682 -0.0024654 3.32703e-05)
(-0.000912203 -0.00244602 3.9757e-05)
(-0.000910499 -0.00242318 2.6582e-05)
(-0.000895062 -0.002404 8.45816e-06)
(-0.00111702 -0.00433663 -2.75689e-05)
(-0.00114022 -0.00440284 -6.4744e-05)
(-0.0011473 -0.00446902 -7.39649e-05)
(-0.00115319 -0.00452032 -5.31225e-05)
(-0.00115694 -0.00454854 -1.76852e-05)
(-0.00115793 -0.00455193 2.13785e-05)
(-0.00115616 -0.00453088 5.43616e-05)
(-0.00115238 -0.00448786 7.09554e-05)
(-0.00114744 -0.00443053 5.49954e-05)
(-0.00112576 -0.00437504 2.04363e-05)
(-0.00155655 -0.00688916 -6.96712e-05)
(-0.00159539 -0.0070556 -0.00015113)
(-0.00161214 -0.00719866 -0.000154261)
(-0.00162425 -0.0072972 -0.000105932)
(-0.00163096 -0.00734653 -3.8194e-05)
(-0.00163208 -0.00735094 3.33319e-05)
(-0.00162767 -0.00731283 9.74602e-05)
(-0.00161827 -0.0072264 0.000140467)
(-0.00160396 -0.00709799 0.00012858)
(-0.00156837 -0.00694489 5.52188e-05)
(-0.00240189 -0.0104933 -0.000184641)
(-0.00248501 -0.0109413 -0.000360066)
(-0.00252705 -0.0112395 -0.000316682)
(-0.002553 -0.0114112 -0.000201301)
(-0.00256528 -0.0114864 -7.14801e-05)
(-0.00256632 -0.011492 5.51335e-05)
(-0.00255735 -0.0114282 0.000179171)
(-0.0025345 -0.0112719 0.000286703)
(-0.0024966 -0.0109981 0.00032182)
(-0.00241611 -0.0105591 0.00016374)
(-0.00415214 -0.0158088 -0.000518218)
(-0.00437705 -0.0170379 -0.000884515)
(-0.00448103 -0.0176002 -0.000627184)
(-0.00453341 -0.0178483 -0.000353481)
(-0.00455413 -0.0179392 -0.000119127)
(-0.00455572 -0.0179427 9.16121e-05)
(-0.00453789 -0.0178589 0.000318001)
(-0.00448948 -0.0176316 0.000573097)
(-0.00439605 -0.0170999 0.00082804)
(-0.00417506 -0.0158773 0.000494637)
(-0.00809191 -0.0226097 -0.00148316)
(-0.00878115 -0.0266771 -0.00217135)
(-0.00902342 -0.0274282 -0.00113338)
(-0.00911156 -0.0275892 -0.000539906)
(-0.00914045 -0.0276074 -0.00016552)
(-0.0091418 -0.0276025 0.000135015)
(-0.00911392 -0.0275854 0.000489846)
(-0.00903707 -0.0274277 0.00105036)
(-0.00881115 -0.0267694 0.00209473)
(-0.00812851 -0.0227176 0.00145616)
(-0.0169061 -0.0640798 -0.00445065)
(-0.0197689 -0.0757224 -0.00567857)
(-0.0203361 -0.0788894 -0.00154222)
(-0.0204268 -0.0797266 -0.000529167)
(-0.0204286 -0.0799322 -0.000131544)
(-0.0204258 -0.0799353 0.000113165)
(-0.0204262 -0.0797347 0.000489017)
(-0.0203432 -0.0789361 0.00139325)
(-0.019851 -0.0760504 0.00551684)
(-0.0170162 -0.064536 0.00441286)
(-0.0323217 0.0168186 -0.0134852)
(-0.028313 -0.00140179 -0.0136583)
(-0.0301799 0.00513668 -0.00436444)
(-0.0308335 0.00841862 -0.0013271)
(-0.0310196 0.00949852 -0.000304765)
(-0.031023 0.00952499 0.000272024)
(-0.0308459 0.00853224 0.00125299)
(-0.0302235 0.00540529 0.00404276)
(-0.0283368 -0.00138889 0.0132631)
(-0.0323553 0.0168484 0.0133741)
(0.110125 -0.301102 0.0158487)
(0.121693 -0.424967 0.0193976)
(0.123873 -0.426146 0.00637397)
(0.12445 -0.422942 0.00222624)
(0.12463 -0.421805 0.000561052)
(0.124633 -0.421764 -0.000500276)
(0.124454 -0.422768 -0.00209216)
(0.12391 -0.425909 -0.00589689)
(0.121995 -0.426809 -0.0188528)
(0.110642 -0.304162 -0.0156662)
(-0.00931505 -0.0104548 -0.00033769)
(-0.00973035 -0.0111584 -0.000627144)
(-0.00994935 -0.0115343 -0.000480208)
(-0.0100701 -0.0117232 -0.000283889)
(-0.0101218 -0.0117978 -9.79663e-05)
(-0.0101256 -0.011801 7.60911e-05)
(-0.0100819 -0.0117358 0.000254695)
(-0.00997186 -0.0115596 0.000439873)
(-0.00977229 -0.0112043 0.000584988)
(-0.00936659 -0.0105033 0.000318337)
(-0.0154623 -0.0105739 -0.000846704)
(-0.0166477 -0.0118085 -0.00137093)
(-0.017125 -0.0121409 -0.000825647)
(-0.0173327 -0.012279 -0.000429166)
(-0.0174091 -0.0123213 -0.000136871)
(-0.0174126 -0.0123213 0.000109556)
(-0.0173431 -0.0122802 0.000390633)
(-0.0171557 -0.0121445 0.000768299)
(-0.0167103 -0.0118338 0.00131576)
(-0.0155386 -0.0105913 0.00082646)
(-0.0251453 -0.0239405 -0.00145672)
(-0.0291655 -0.0316287 -0.00219851)
(-0.0299555 -0.0337619 -0.000949196)
(-0.0301604 -0.0344536 -0.000459471)
(-0.0302014 -0.0346341 -0.000138934)
(-0.0301991 -0.0346375 0.000116143)
(-0.0301646 -0.0344686 0.000426871)
(-0.0299735 -0.0338107 0.000884937)
(-0.0292879 -0.0318394 0.00214301)
(-0.0252978 -0.0242165 0.00144415)
(-0.0705729 0.0333494 -0.0098285)
(-0.0791892 0.0405559 -0.0119806)
(-0.0824232 0.0444271 -0.00372606)
(-0.0833821 0.0460638 -0.00127681)
(-0.0836403 0.0466317 -0.000310312)
(-0.0836442 0.0466473 0.000266129)
(-0.0833954 0.0461241 0.00119414)
(-0.0824872 0.0445826 0.00346378)
(-0.0795064 0.0409032 0.0116997)
(-0.071042 0.0338441 0.00975907)
(0.114708 0.00461081 0.0102127)
(0.141086 -0.0596359 0.0130544)
(0.144195 -0.0584466 0.0043407)
(0.144921 -0.0561389 0.0015309)
(0.145139 -0.0553163 0.000387407)
(0.145141 -0.0552972 -0.000340496)
(0.144929 -0.0560773 -0.00142901)
(0.144253 -0.058417 -0.0040371)
(0.141643 -0.0606319 -0.0127317)
(0.115577 0.00344782 -0.0101135)
(-0.0109802 -0.00630487 -0.000177125)
(-0.0112821 -0.00660915 -0.000349405)
(-0.0114873 -0.00678934 -0.000291935)
(-0.011616 -0.00689201 -0.00018249)
(-0.011677 -0.00693711 -6.41511e-05)
(-0.011682 -0.00694025 5.19585e-05)
(-0.0116323 -0.00690297 0.00016546)
(-0.0115179 -0.00680918 0.000267705)
(-0.0113301 -0.00663823 0.000322242)
(-0.0110402 -0.00633432 0.000163825)
(-0.0151155 -0.00574541 -0.000367428)
(-0.0158719 -0.00608758 -0.000642201)
(-0.0162729 -0.00619356 -0.000450881)
(-0.0164847 -0.00625388 -0.000258668)
(-0.0165732 -0.00627808 -8.69109e-05)
(-0.0165778 -0.00627934 6.96812e-05)
(-0.0165018 -0.00625737 0.000235241)
(-0.0163073 -0.00619759 0.000419975)
(-0.0159342 -0.00609278 0.000612249)
(-0.0151918 -0.00574197 0.000355193)
(-0.0185241 -0.00922599 -0.000466292)
(-0.0199112 -0.0112917 -0.00076497)
(-0.0203822 -0.0119594 -0.000460557)
(-0.0206145 -0.0121958 -0.000267575)
(-0.0207031 -0.0122593 -8.97999e-05)
(-0.0207061 -0.0122618 7.28813e-05)
(-0.020627 -0.0122048 0.000247742)
(-0.0204092 -0.0119811 0.000434687)
(-0.0199768 -0.0113605 0.00074497)
(-0.0185988 -0.00930162 0.000460686)
(-0.0335826 0.0142576 -0.00266004)
(-0.0403175 0.0181149 -0.00350454)
(-0.0426578 0.0198881 -0.00136564)
(-0.0434998 0.0206675 -0.000550007)
(-0.04375 0.0209569 -0.000149524)
(-0.0437562 0.0209668 0.000121245)
(-0.0435257 0.0207043 0.000508005)
(-0.0427296 0.0199779 0.00127322)
(-0.0405509 0.0183099 0.00342082)
(-0.0338889 0.0145119 0.0026434)
(0.0962984 0.0132011 0.00359281)
(0.116968 0.00975434 0.00457707)
(0.119849 0.0115514 0.00182361)
(0.120662 0.0123075 0.000694511)
(0.120912 0.0125814 0.000183188)
(0.120916 0.0125818 -0.000155719)
(0.12068 0.0123095 -0.000639188)
(0.119927 0.0115345 -0.00169669)
(0.11741 0.00968813 -0.00444778)
(0.097035 0.0131446 -0.00355379)
(-0.0114127 -0.00327842 -7.70661e-05)
(-0.0116119 -0.00339499 -0.000160973)
(-0.0117594 -0.00347078 -0.000145384)
(-0.0118637 -0.00351902 -9.41884e-05)
(-0.0119179 -0.00354266 -3.19637e-05)
(-0.0119237 -0.00354591 3.13528e-05)
(-0.0118821 -0.00352924 9.05971e-05)
(-0.0117925 -0.00348773 0.000136935)
(-0.0116614 -0.00341759 0.000148767)
(-0.0114761 -0.0033014 7.04469e-05)
(-0.0143077 -0.00290071 -0.000142544)
(-0.0146907 -0.00302357 -0.000266072)
(-0.0149324 -0.00306967 -0.000209785)
(-0.0150842 -0.00309768 -0.000128827)
(-0.0151566 -0.00311064 -4.39433e-05)
(-0.0151618 -0.00311251 3.81918e-05)
(-0.0151026 -0.00310256 0.000120127)
(-0.0149662 -0.00307649 0.000197537)
(-0.0147435 -0.00302947 0.000253149)
(-0.0143738 -0.00290075 0.000136944)
(-0.0163884 -0.00346033 -0.000181672)
(-0.0168475 -0.00413867 -0.00031532)
(-0.0170865 -0.00436581 -0.000220317)
(-0.017243 -0.00444117 -0.000135458)
(-0.0173165 -0.00445918 -4.68993e-05)
(-0.0173212 -0.00446103 3.95213e-05)
(-0.0172585 -0.00444717 0.000126898)
(-0.0171142 -0.00437651 0.00021086)
(-0.0168912 -0.00416272 0.000309586)
(-0.0164392 -0.00348323 0.000180502)
(-0.0201067 0.00510173 -0.000841422)
(-0.0207243 0.00628112 -0.00115504)
(-0.0214777 0.00692751 -0.000502515)
(-0.0218297 0.00724388 -0.000216619)
(-0.0219535 0.00736982 -6.22226e-05)
(-0.021959 0.00737493 4.88591e-05)
(-0.0218506 0.00726223 0.000199474)
(-0.0215202 0.00697013 0.000472827)
(-0.020803 0.00635997 0.00113068)
(-0.0201956 0.00520196 0.000837205)
(0.0836778 0.0046615 0.00108027)
(0.0992197 0.003356 0.00144299)
(0.100939 0.00393174 0.00067614)
(0.101407 0.00418079 0.000277833)
(0.101559 0.00427498 7.65079e-05)
(0.101562 0.00427341 -6.0881e-05)
(0.101421 0.00417805 -0.000250109)
(0.100998 0.003921 -0.000626346)
(0.0995394 0.00333188 -0.0013939)
(0.0842556 0.00464229 -0.00106405)
(-0.0114786 -0.000853551 -2.06949e-05)
(-0.011622 -0.000882786 -4.35797e-05)
(-0.0117328 -0.000902997 -3.92698e-05)
(-0.0118183 -0.000918115 -2.37999e-05)
(-0.0118656 -0.00092722 -4.04818e-06)
(-0.0118721 -0.000930798 1.62114e-05)
(-0.0118385 -0.000928494 3.40795e-05)
(-0.0117684 -0.000919523 4.62806e-05)
(-0.0116747 -0.000903448 4.73625e-05)
(-0.0115487 -0.000875089 2.21007e-05)
(-0.0138949 -0.000715147 -3.53082e-05)
(-0.0141323 -0.000740854 -6.72611e-05)
(-0.014299 -0.000749558 -5.52997e-05)
(-0.0144158 -0.000757166 -3.41436e-05)
(-0.0144762 -0.000762041 -9.26691e-06)
(-0.0144823 -0.000764475 1.57345e-05)
(-0.0144353 -0.000763587 3.93862e-05)
(-0.0143339 -0.000758893 5.89304e-05)
(-0.0141846 -0.000750932 7.01101e-05)
(-0.0139624 -0.000723836 3.69348e-05)
(-0.0157101 -0.000832451 -4.24313e-05)
(-0.0159815 -0.000982729 -7.44655e-05)
(-0.016167 -0.00103404 -5.57958e-05)
(-0.0162938 -0.00105616 -3.63358e-05)
(-0.0163571 -0.0010638 -1.13731e-05)
(-0.0163624 -0.00106594 1.46772e-05)
(-0.0163108 -0.00106221 3.97056e-05)
(-0.0161965 -0.00104377 5.91124e-05)
(-0.0160241 -0.000995794 7.85955e-05)
(-0.0157592 -0.000848291 4.48775e-05)
(-0.0159433 0.00114839 -0.000189145)
(-0.0154072 0.00140091 -0.000263184)
(-0.0157745 0.00155321 -0.000125778)
(-0.0159642 0.0016304 -6.24156e-05)
(-0.0160345 0.00166145 -1.86375e-05)
(-0.0160392 0.00166269 1.69738e-05)
(-0.0159802 0.00163518 6.0172e-05)
(-0.0158034 0.00156428 0.000122553)
(-0.0154411 0.00141946 0.000260075)
(-0.0159718 0.00116864 0.000187839)
(0.0794508 0.000708663 0.000209596)
(0.0932874 0.000263366 0.000283429)
(0.0944984 0.000359124 0.000136744)
(0.0948089 0.000390648 5.42581e-05)
(0.0949149 0.000401856 1.58382e-05)
(0.0949171 0.000400535 -6.99634e-06)
(0.0948193 0.000386319 -4.20348e-05)
(0.094545 0.000349307 -0.000121099)
(0.0935549 0.000245918 -0.00027187)
(0.079969 0.000686719 -0.00020661)
(-0.0114431 0.00143432 2.24813e-05)
(-0.0115835 0.00146975 5.0626e-05)
(-0.0116911 0.00149389 5.13877e-05)
(-0.0117737 0.00150604 3.87923e-05)
(-0.01182 0.00150912 2.19503e-05)
(-0.0118274 0.0015053 4.30191e-06)
(-0.0117964 0.00149489 -1.32894e-05)
(-0.0117313 0.00147714 -2.71741e-05)
(-0.0116442 0.00144964 -2.7636e-05)
(-0.0115251 0.00141277 -1.0865e-05)
(-0.0139556 0.00137647 4.42546e-05)
(-0.0141982 0.0014373 8.81085e-05)
(-0.0143659 0.0014702 7.48309e-05)
(-0.0144815 0.00148377 4.86292e-05)
(-0.0145411 0.00148682 2.25732e-05)
(-0.0145477 0.00148365 -2.71132e-06)
(-0.014503 0.00147564 -2.84876e-05)
(-0.0144047 0.00145738 -5.40868e-05)
(-0.0142569 0.00142206 -6.78188e-05)
(-0.0140314 0.00135578 -3.41243e-05)
(-0.0159918 0.0011083 7.89747e-05)
(-0.0163124 0.00132892 0.0001399)
(-0.0165183 0.00140255 9.79834e-05)
(-0.0166511 0.00141011 5.54189e-05)
(-0.0167161 0.00140456 2.18324e-05)
(-0.0167217 0.00140141 -6.87324e-06)
(-0.0166687 0.00140105 -3.95667e-05)
(-0.0165486 0.00138902 -8.09799e-05)
(-0.0163601 0.0013153 -0.00012516)
(-0.0160445 0.00108077 -7.3396e-05)
(-0.0165883 -0.00157839 0.000260781)
(-0.0163267 -0.00186924 0.00036795)
(-0.0167627 -0.0020523 0.000151056)