/*--------------------------------*- C++ -*----------------------------------*\
| =========                 |                                                 |
| \\      /  F ield         | OpenFOAM: The Open Source CFD Toolbox           |
|  \\    /   O peration     | Version:  2.3.1                                 |
|   \\  /    A nd           | Web:      www.OpenFOAM.org                      |
|    \\/     M anipulation  |                                                 |
\*---------------------------------------------------------------------------*/
FoamFile
{
    version     2.0;
    format      ascii;
    class       volVectorField;
    location    "0.97";
    object      U;
}
// * * * * * * * * * * * * * * * * * * * * * * * * * * * * * * * * * * * * * //

dimensions      [0 1 -1 0 0 0 0];

internalField   nonuniform List<vector> 
9648
(
(0.169327 -4.76887 6.27483e-23)
(0.285654 -4.74958 -1.33077e-22)
(0.402962 -4.71807 0)
(0.523408 -4.6915 0)
(0.644821 -4.66868 1.11582e-20)
(0.767402 -4.65186 1.73898e-20)
(0.89365 -4.64469 -2.99747e-20)
(1.02591 -4.64965 -1.36466e-20)
(1.1656 -4.668 1.36127e-20)
(1.31307 -4.70176 4.07117e-20)
(1.47042 -4.75264 -4.05405e-20)
(1.6395 -4.82167 -5.78113e-20)
(1.82232 -4.90943 3.06854e-19)
(2.02089 -5.01581 7.88906e-20)
(2.23689 -5.13993 -7.39553e-19)
(2.47155 -5.28048 0)
(2.72602 -5.43568 0)
(3.00111 -5.60342 1.33198e-19)
(3.29749 -5.78107 4.28729e-19)
(3.61524 -5.96582 -1.23201e-18)
(3.95436 -6.15504 -2.11459e-20)
(4.31472 -6.34566 3.38901e-19)
(4.69555 -6.5348 3.99656e-19)
(5.09616 -6.71969 -1.8135e-18)
(5.51563 -6.89764 0)
(5.95293 -7.06606 1.0834e-18)
(6.40675 -7.22247 -1.13536e-18)
(6.87573 -7.36482 0)
(7.35844 -7.49096 0)
(7.85325 -7.59921 -6.87706e-19)
(8.35868 -7.68793 -1.51996e-18)
(8.87293 -7.75566 2.38567e-18)
(9.3944 -7.80129 0)
(9.92134 -7.82362 0)
(10.4519 -7.82197 1.82532e-18)
(10.9845 -7.7955 -1.96321e-18)
(11.5172 -7.74379 0)
(12.0486 -7.66657 4.21245e-18)
(12.5767 -7.56344 1.13562e-18)
(13.0999 -7.4343 -3.36208e-18)
(13.6162 -7.27916 6.30422e-20)
(14.1242 -7.09853 2.39094e-18)
(14.6224 -6.89227 -3.17497e-18)
(15.1087 -6.66092 6.38609e-19)
(15.5822 -6.40526 0)
(16.0415 -6.12542 0)
(16.4848 -5.8221 4.81474e-18)
(16.911 -5.49609 7.04552e-19)
(17.3195 -5.14831 -2.17681e-18)
(17.7095 -4.77878 -7.32703e-19)
(18.0789 -4.38811 -7.61924e-19)
(18.4261 -3.97866 7.57195e-19)
(18.7507 -3.55214 3.9109e-19)
(19.0518 -3.10932 -3.88974e-19)
(19.3285 -2.65191 1.98523e-18)
(19.5801 -2.18098 -1.95482e-18)
(19.8058 -1.69798 -2.16465e-20)
(20.0052 -1.20413 0)
(20.1777 -0.700869 -3.97011e-19)
(20.323 -0.189879 -5.13351e-20)
(20.4411 0.327639 -4.86791e-20)
(-0.0533993 -2.49038 6.72762e-23)
(0.00847261 -2.49118 0)
(0.0746787 -2.50542 0)
(0.148067 -2.53434 7.01366e-21)
(0.226761 -2.58246 -6.99096e-21)
(0.31482 -2.65343 -4.08615e-20)
(0.413818 -2.74565 0)
(0.525493 -2.85743 0)
(0.651663 -2.98929 -4.68731e-20)
(0.792815 -3.14139 0)
(0.950199 -3.3126 -1.10477e-19)
(1.1246 -3.50136 8.65934e-20)
(1.31692 -3.70633 -4.66964e-20)
(1.5281 -3.92581 0)
(1.75888 -4.1578 2.87872e-19)
(2.00956 -4.40019 1.69885e-19)
(2.28046 -4.65072 -1.6712e-19)
(2.57174 -4.90712 2.16121e-19)
(2.88356 -5.16688 -6.57985e-19)
(3.2157 -5.42753 5.22252e-19)
(3.56783 -5.68673 -5.77296e-19)
(3.9397 -5.94195 -3.10676e-19)
(4.33049 -6.19087 -3.18472e-19)
(4.73946 -6.43118 1.09264e-18)
(5.16569 -6.66068 3.78082e-19)
(5.60826 -6.87723 4.48531e-19)
(6.06602 -7.07884 -3.98058e-19)
(6.53772 -7.26377 0)
(7.02211 -7.43023 0)
(7.5177 -7.5769 0)
(8.02314 -7.70231 0)
(8.53681 -7.80528 0)
(9.05722 -7.88483 0)
(9.58285 -7.93996 0)
(10.1119 -7.9701 -8.17461e-19)
(10.6429 -7.97448 7.42737e-19)
(11.1742 -7.95284 8.18573e-19)
(11.7042 -7.90487 -4.1576e-18)
(12.2312 -7.83025 -8.82039e-19)
(12.7536 -7.72892 2.71208e-18)
(13.2697 -7.60102 1.90242e-18)
(13.7778 -7.44696 -1.96293e-18)
(14.2766 -7.26663 9.37566e-19)
(14.7643 -7.06071 9.89124e-19)
(15.2395 -6.82985 -1.051e-18)
(15.7009 -6.57428 1.04168e-18)
(16.1469 -6.29484 -2.23209e-18)
(16.5763 -5.99236 0)
(16.9877 -5.6678 -5.70072e-19)
(17.3804 -5.32129 1.14549e-18)
(17.7536 -4.9535 -5.75577e-19)
(18.1061 -4.56631 0)
(18.4367 -4.16109 1.18275e-18)
(18.7447 -3.73865 0)
(19.0289 -3.30045 0)
(19.2887 -2.84766 2.80273e-18)
(19.5233 -2.38157 -1.2631e-18)
(19.7321 -1.9038 -3.07263e-19)
(19.9147 -1.41522 3.24282e-19)
(20.0706 -0.917552 0)
(20.1993 -0.412033 8.15371e-20)
(0.0567148 -1.44086 -2.09037e-22)
(0.110302 -1.48294 0)
(0.170841 -1.5468 -7.70119e-22)
(0.240246 -1.63282 -3.02497e-22)
(0.318046 -1.7384 0)
(0.407501 -1.86227 3.55062e-20)
(0.509671 -2.00633 2.34068e-20)
(0.625905 -2.16956 0)
(0.757764 -2.35152 2.25877e-21)
(0.906957 -2.55076 4.77448e-20)
(1.07442 -2.76619 9.42233e-20)
(1.26078 -2.99589 -3.26052e-20)
(1.46656 -3.23806 0)
(1.69211 -3.4906 0)
(1.9377 -3.75142 2.19291e-19)
(2.20325 -4.0184 -1.38716e-19)
(2.48874 -4.2893 -1.48456e-19)
(2.79401 -4.56195 0)
(3.11881 -4.83408 5.68723e-19)
(3.46281 -5.10351 -5.89869e-19)
(3.82554 -5.36818 -4.40069e-19)
(4.20647 -5.62598 -4.83799e-19)
(4.60482 -5.87488 0)
(5.01972 -6.11293 -8.6473e-19)
(5.45025 -6.3382 -3.03773e-19)
(5.89541 -6.54886 3.60257e-19)
(6.35412 -6.7432 3.97429e-19)
(6.8252 -6.91972 0)
(7.30739 -7.07697 0)
(7.79931 -7.21371 0)
(8.29957 -7.32877 0)
(8.80669 -7.42114 0)
(9.31925 -7.48993 0)
(9.83571 -7.5344 0)
(10.3545 -7.55401 -1.79097e-18)
(10.8741 -7.54823 5.94885e-19)
(11.3929 -7.51681 -6.55723e-19)
(11.9094 -7.45951 3.29964e-18)
(12.4222 -7.37617 0)
(12.9294 -7.26686 1.40292e-18)
(13.4297 -7.13177 1.45054e-18)
(13.9214 -6.97119 7.18611e-19)
(14.4031 -6.78528 -8.2269e-19)
(14.8733 -6.57457 -1.58453e-18)
(15.3307 -6.33961 2.46821e-18)
(15.7739 -6.08092 -8.34821e-19)
(16.2016 -5.79928 -1.70261e-18)
(16.6127 -5.49547 0)
(17.0058 -5.17052 0)
(17.3799 -4.82539 -4.64503e-19)
(17.7341 -4.4612 -4.54172e-19)
(18.0674 -4.07883 -9.28836e-19)
(18.3792 -3.67938 -9.72104e-19)
(18.6684 -3.26425 0)
(18.9343 -2.83426 -9.61354e-19)
(19.176 -2.39111 -1.00174e-18)
(19.3933 -1.93556 0)
(19.5851 -1.46977 1.6227e-20)
(19.7511 -0.994057 0)
(19.8909 -0.510185 0)
(20.0045 -0.0191637 -6.20413e-20)
(0.0256417 -0.94537 4.66023e-22)
(0.084592 -1.02578 -5.04766e-22)
(0.154651 -1.1261 -5.71079e-22)
(0.23676 -1.24533 -2.30177e-21)
(0.331026 -1.38246 0)
(0.437397 -1.53717 -1.4874e-20)
(0.557235 -1.70957 -2.02045e-20)
(0.691758 -1.89906 0)
(0.84231 -2.1048 3.0975e-21)
(1.00974 -2.32559 -4.07998e-20)
(1.19489 -2.56 9.11672e-20)
(1.39807 -2.80633 1.09322e-19)
(1.61964 -3.06262 0)
(1.8598 -3.32683 -8.4791e-20)
(2.11878 -3.59695 -1.79444e-19)
(2.39633 -3.871 -9.53597e-20)
(2.69235 -4.14687 3.65083e-19)
(3.00661 -4.42249 -2.6324e-19)
(3.33875 -4.69584 2.94357e-19)
(3.68847 -4.96488 5.00067e-19)
(4.05537 -5.22782 7.22465e-19)
(4.43875 -5.48282 4.06565e-19)
(4.83798 -5.72806 1.95613e-19)
(5.25211 -5.96182 7.08777e-19)
(5.68031 -6.18232 2.32744e-19)
(6.12163 -6.38794 2.64301e-19)
(6.57505 -6.57713 3.11206e-19)
(7.03959 -6.7485 -9.31144e-19)
(7.51399 -6.90084 6.67769e-19)
(7.99698 -7.03297 7.53493e-19)
(8.48733 -7.14385 -1.53971e-18)
(8.98359 -7.23258 7.85883e-19)
(9.48443 -7.29829 -8.41229e-19)
(9.98854 -7.34034 4.19216e-19)
(10.4944 -7.35828 4.59135e-19)
(11.0005 -7.35161 5.09053e-19)
(11.5054 -7.32005 -5.02595e-19)
(12.0078 -7.26346 -5.47303e-19)
(12.5061 -7.18172 -1.64013e-18)
(12.9989 -7.0749 -1.1826e-18)
(13.4846 -6.94325 -2.39695e-18)
(13.9619 -6.78696 -3.10415e-18)
(14.4291 -6.60633 1.27236e-18)
(14.8851 -6.40175 2.86347e-20)
(15.3285 -6.17377 -7.11988e-19)
(15.758 -5.92293 -6.98402e-19)
(16.1724 -5.64989 4.22201e-18)
(16.5706 -5.35544 -7.07608e-19)
(16.9514 -5.04037 0)
(17.3139 -4.70559 0)
(17.6571 -4.35213 -7.10487e-19)
(17.98 -3.98117 3.16141e-20)
(18.2821 -3.5937 7.62071e-19)
(18.5623 -3.19085 0)
(18.8199 -2.77391 8.11356e-19)
(19.0542 -2.34419 0)
(19.2645 -1.90285 0)
(19.4503 -1.45083 6.1821e-19)
(19.6112 -0.989693 1.96634e-19)
(19.7469 -0.520879 -2.00368e-19)
(19.857 -0.0458614 1.02522e-19)
(0.112639 -0.702249 4.33693e-23)
(0.174503 -0.804402 4.41023e-22)
(0.249817 -0.923951 -2.06837e-22)
(0.339377 -1.0611 1.54532e-21)
(0.442985 -1.21555 -3.8545e-21)
(0.561204 -1.38681 6.07446e-21)
(0.694596 -1.57443 2.40376e-21)
(0.843824 -1.77744 -1.51281e-20)
(1.00989 -1.99492 4.28731e-20)
(1.19293 -2.22556 -6.16238e-20)
(1.39352 -2.46785 6.89232e-20)
(1.61144 -2.7201 -8.47659e-20)
(1.84692 -2.9803 -4.86267e-20)
(2.09982 -3.24648 0)
(2.37045 -3.51668 8.74789e-20)
(2.65824 -3.78918 8.40421e-20)
(2.96303 -4.06198 0)
(3.28461 -4.33313 2.06649e-19)
(3.62243 -4.60075 0)
(3.97634 -4.86291 -2.71995e-19)
(4.34597 -5.11808 2.96348e-19)
(4.73051 -5.36466 1.01986e-20)
(5.12945 -5.60097 -1.70023e-20)
(5.54174 -5.82556 2.89372e-20)
(5.96659 -6.03666 -8.2742e-19)
(6.40318 -6.23279 -4.74035e-19)
(6.85047 -6.41256 9.75168e-19)
(7.30769 -6.57464 1.05679e-18)
(7.77362 -6.71806 -5.71494e-19)
(8.24706 -6.84168 0)
(8.7269 -6.94455 0)
(9.21167 -7.0259 0)
(9.70022 -7.08482 7.21168e-19)
(10.1914 -7.12075 -2.97694e-18)
(10.6836 -7.13337 1.55704e-18)
(11.1755 -7.12218 -7.91587e-19)
(11.6659 -7.08685 -1.70635e-18)
(12.1534 -7.0274 1.73047e-18)
(12.6365 -6.94367 3.96405e-20)
(13.1139 -6.83577 -9.76022e-19)
(13.5843 -6.704 1.00809e-18)
(14.046 -6.54855 1.04201e-18)
(14.4978 -6.36968 0)
(14.9384 -6.16771 -1.05772e-18)
(15.3665 -5.94321 0)
(15.781 -5.69672 -1.68897e-18)
(16.1806 -5.42888 5.22194e-19)
(16.5642 -5.14041 0)
(16.931 -4.83201 -6.12183e-19)
(17.2798 -4.50468 -1.45753e-20)
(17.6098 -4.15925 1.3038e-18)
(17.9202 -3.79689 -6.19601e-19)
(18.2102 -3.41867 -3.44459e-19)
(18.4791 -3.02571 6.30937e-19)
(18.7261 -2.61934 -4.78952e-21)
(18.9503 -2.20056 3.28968e-19)
(19.1511 -1.77066 1.58924e-19)
(19.3281 -1.33056 3.35371e-19)
(19.4809 -0.881485 -8.42509e-19)
(19.6093 -0.424923 3.38388e-19)
(19.7129 0.037573 -4.32976e-20)
(0.192591 -0.574797 -2.53596e-22)
(0.268154 -0.692609 0)
(0.35821 -0.826389 8.48487e-22)
(0.463476 -0.976665 0)
(0.583086 -1.14313 1.25155e-21)
(0.717976 -1.32506 9.05945e-21)
(0.868349 -1.52189 9.69352e-21)
(1.03464 -1.73236 2.90656e-20)
(1.21777 -1.95547 3.80589e-21)
(1.41725 -2.19 5.85061e-21)
(1.63372 -2.43433 1.19628e-21)
(1.86629 -2.68695 -3.24127e-20)
(2.11536 -2.94582 4.69985e-20)
(2.38007 -3.20898 -1.43028e-19)
(2.66147 -3.4745 1.20769e-19)
(2.95852 -3.74126 -8.41032e-21)
(3.27083 -4.00699 -1.48768e-19)
(3.59854 -4.27001 -1.78397e-19)
(3.94065 -4.52862 0)
(4.29728 -4.78081 2.11407e-19)
(4.66837 -5.02538 8.30788e-21)
(5.05261 -5.26108 -5.45126e-19)
(5.45005 -5.48618 -2.30509e-20)
(5.85916 -5.69969 -2.94842e-19)
(6.27929 -5.89966 1.03791e-18)
(6.70978 -6.08475 3.50484e-20)
(7.14948 -6.25373 -3.85211e-19)
(7.59808 -6.40519 -4.06925e-20)
(8.05426 -6.5386 0)
(8.51677 -6.65278 0)
(8.98489 -6.74677 0)
(9.4569 -6.82012 0)
(9.93176 -6.87169 0)
(10.4087 -6.90096 5.66798e-20)
(10.8862 -6.90789 -6.66687e-19)
(11.3626 -6.89197 -3.85417e-20)
(11.8372 -6.85263 2.88745e-20)
(12.3085 -6.79024 6.87498e-19)
(12.7751 -6.70448 1.57012e-18)
(13.2361 -6.59549 -2.3678e-18)
(13.69 -6.46381 1.64762e-18)
(14.1352 -6.30946 -8.3135e-19)
(14.5703 -6.13281 0)
(14.9945 -5.93389 9.22894e-19)
(15.4064 -5.71338 0)
(15.8049 -5.47185 9.71169e-19)
(16.1889 -5.20973 -9.93616e-19)
(16.5571 -4.92805 4.66778e-19)
(16.9089 -4.6271 4.98489e-19)
(17.2432 -4.30791 -5.20064e-19)
(17.5594 -3.97133 3.71622e-20)
(17.8566 -3.6186 -1.05442e-20)
(18.134 -3.25046 1.05778e-18)
(18.3911 -2.86833 -1.08856e-18)
(18.6271 -2.47341 -5.37111e-19)
(18.841 -2.06701 -2.62995e-19)
(19.032 -1.6499 -8.36522e-19)
(19.1998 -1.22293 0)
(19.3445 -0.787191 5.65096e-19)
(19.4656 -0.34451 -1.45073e-19)
(19.5628 0.103838 0)
(0.293678 -0.515072 0)
(0.383995 -0.644258 0)
(0.489994 -0.788881 -5.99579e-22)
(0.613051 -0.949277 -4.59583e-22)
(0.750225 -1.12474 -2.65643e-21)
(0.90345 -1.31401 -1.42167e-20)
(1.07205 -1.51652 7.12502e-21)
(1.2558 -1.73069 -2.10259e-20)
(1.45689 -1.95573 -1.29054e-21)
(1.67262 -2.19047 5.21351e-20)
(1.9053 -2.43331 -9.41637e-20)
(2.15201 -2.68309 0)
(2.41443 -2.93745 0)
(2.68974 -3.19471 1.62869e-19)
(2.98152 -3.45243 1.0341e-19)
(3.28703 -3.71087 -2.27127e-19)
(3.60571 -3.96718 3.67383e-19)
(3.93887 -4.21979 1.52743e-19)
(4.28407 -4.46767 -3.05373e-19)
(4.64217 -4.70802 -1.84172e-19)
(5.01416 -4.94009 2.11211e-19)
(5.3968 -5.16351 -5.09337e-21)
(5.79218 -5.37574 0)
(6.19711 -5.5772 5.41829e-19)
(6.6114 -5.76507 -8.90969e-19)
(7.03507 -5.93805 2.96597e-19)
(7.46578 -6.09549 6.54822e-19)
(7.90495 -6.2352 -1.81917e-18)
(8.35055 -6.35778 3.70315e-19)
(8.80093 -6.46186 0)
(9.25666 -6.54605 0)
(9.71491 -6.61105 0)
(10.1749 -6.65484 5.05995e-19)
(10.6368 -6.67666 1.56573e-18)
(11.0987 -6.67741 -1.0585e-18)
(11.5583 -6.65669 5.83697e-19)
(12.0163 -6.61261 6.39234e-19)
(12.4704 -6.54696 -1.26781e-18)
(12.9194 -6.45886 0)
(13.3631 -6.34816 -1.3012e-18)
(13.7994 -6.21638 6.7562e-19)
(14.2272 -6.06289 3.48408e-20)
(14.6445 -5.8886 -3.12552e-20)
(15.0512 -5.69247 7.43539e-19)
(15.4461 -5.47584 3.12294e-20)
(15.8274 -5.23952 -2.37313e-18)
(16.1949 -4.98309 8.04009e-19)
(16.5467 -4.70839 -1.66965e-18)
(16.8825 -4.4148 0)
(17.2013 -4.10416 0)
(17.5028 -3.77638 1.76256e-18)
(17.7857 -3.43372 -4.21092e-19)
(18.0495 -3.07607 -9.13169e-19)
(18.2941 -2.70472 -4.38934e-19)
(18.5185 -2.32176 1.40149e-18)
(18.7213 -1.92822 7.06878e-19)
(18.9019 -1.52435 2.44309e-19)
(19.0597 -1.11133 -4.59424e-21)
(19.1953 -0.689244 -2.44483e-19)
(19.3088 -0.260539 0)
(19.3992 0.172915 0)
(0.411985 -0.498089 3.11835e-22)
(0.520144 -0.635614 0)
(0.643143 -0.788139 0)
(0.786599 -0.956354 -1.5033e-22)
(0.941732 -1.13845 0)
(1.11429 -1.33241 6.10036e-21)
(1.30137 -1.53785 6.81235e-21)
(1.50165 -1.75274 -1.39756e-20)
(1.72194 -1.97699 0)
(1.95262 -2.20941 -3.11547e-20)
(2.20254 -2.44836 3.91527e-21)
(2.46185 -2.6934 0)
(2.73846 -2.94144 0)
(3.02144 -3.1913 -6.85976e-20)
(3.32399 -3.43813 7.46888e-20)
(3.63774 -3.68701 -9.29697e-20)
(3.96096 -3.93257 -1.06504e-19)
(4.29958 -4.17321 0)
(4.64652 -4.41003 1.36421e-19)
(5.00459 -4.63729 -2.87537e-19)
(5.37825 -4.85545 -3.2132e-19)
(5.757 -5.06632 -3.75486e-19)
(6.15064 -5.26414 -3.30059e-20)
(6.55046 -5.4537 -4.74787e-19)
(6.95794 -5.62904 4.55663e-19)
(7.37494 -5.78914 5.07153e-19)
(7.79459 -5.93514 -5.76108e-19)
(8.224 -6.06173 3.12771e-20)
(8.65869 -6.17313 4.19897e-20)
(9.09504 -6.26716 -6.63127e-19)
(9.53818 -6.34056 0)
(9.98173 -6.39763 -8.05067e-19)
(10.4256 -6.43328 1.59655e-18)
(10.872 -6.44647 -4.43961e-20)
(11.3181 -6.44129 9.35196e-19)
(11.7585 -6.41697 -9.30164e-19)
(12.2 -6.36682 1.02442e-18)
(12.6359 -6.29803 1.06795e-18)
(13.0657 -6.20749 -2.11117e-18)
(13.4913 -6.09428 1.15417e-18)
(13.9086 -5.96286 1.13481e-18)
(14.3186 -5.80983 1.79175e-18)
(14.7165 -5.63828 -6.37478e-19)
(15.1047 -5.44379 0)
(15.4817 -5.23114 3.40173e-20)
(15.8442 -5.00102 6.91841e-19)
(16.1948 -4.74987 -6.72476e-19)
(16.5285 -4.48353 7.23874e-19)
(16.8476 -4.19724 0)
(17.1492 -3.89619 0)
(17.4352 -3.57709 -3.95301e-20)
(17.7028 -3.24552 7.77119e-19)
(17.9518 -2.89768 0)
(18.1832 -2.53691 3.85988e-19)
(18.3955 -2.16704 3.89317e-19)
(18.5866 -1.78743 -7.93017e-19)
(18.7562 -1.39738 -3.89009e-19)
(18.9026 -0.999408 -2.06655e-19)
(19.028 -0.590502 0)
(19.1335 -0.176815 0)
(19.2165 0.24031 2.47522e-20)
(0.547742 -0.507927 -8.94471e-22)
(0.679787 -0.650435 1.64874e-21)
(0.8192 -0.806333 -2.30562e-23)
(0.989193 -0.980388 -8.18604e-22)
(1.15855 -1.16584 6.19883e-23)
(1.35015 -1.36418 -1.32461e-22)
(1.55643 -1.56856 0)
(1.76944 -1.78018 1.45977e-21)
(2.01407 -2.00219 -1.6008e-20)
(2.25392 -2.22892 0)
(2.52683 -2.4629 6.28017e-20)
(2.79158 -2.70279 -3.87758e-20)
(3.08588 -2.94468 3.94282e-20)
(3.36918 -3.18744 4.98146e-20)
(3.68523 -3.41777 -6.45705e-20)
(4.00689 -3.6582 -7.8406e-20)
(4.33044 -3.89294 2.58043e-19)
(4.6789 -4.11818 -2.68237e-19)
(5.02107 -4.34659 0)
(5.3743 -4.56227 -9.14133e-21)
(5.75632 -4.7652 7.90349e-19)
(6.12307 -4.96623 -2.94263e-20)
(6.52266 -5.14428 -3.72445e-19)
(6.9113 -5.32498 7.13844e-19)
(7.31003 -5.49018 0)
(7.72359 -5.63738 -4.37567e-19)
(8.12575 -5.77361 -4.48038e-19)
(8.54721 -5.88552 9.91946e-19)
(8.97208 -5.98665 -6.46426e-21)
(9.39014 -6.07222 5.87418e-19)
(9.82343 -6.13196 -1.19961e-18)
(10.2483 -6.18357 1.90598e-18)
(10.6736 -6.21268 -1.36572e-18)
(11.1053 -6.21715 -1.43108e-18)
(11.5382 -6.20522 0)
(11.9547 -6.17796 8.13921e-19)
(12.3852 -6.11898 0)
(12.7992 -6.05016 -3.10354e-21)
(13.2073 -5.95915 9.62543e-19)
(13.6175 -5.84017 -1.7905e-18)
(14.0134 -5.70826 -6.7122e-21)
(14.4068 -5.55571 -1.97856e-18)
(14.7793 -5.38962 0)
(15.1482 -5.19809 -5.66122e-19)
(15.5081 -4.99071 2.17203e-18)
(15.8474 -4.76794 -5.52351e-19)
(16.1848 -4.52147 5.8468e-19)
(16.4964 -4.26466 0)
(16.8006 -3.98469 6.01518e-19)
(17.0826 -3.69239 -1.81553e-18)
(17.3541 -3.37817 -2.52362e-20)
(17.6048 -3.05782 0)
(17.836 -2.72267 6.2391e-19)
(18.0546 -2.373 -1.872e-20)
(18.2559 -2.01376 0)
(18.4323 -1.64654 3.51553e-19)
(18.5928 -1.27799 -3.19196e-19)
(18.7249 -0.897202 3.34825e-19)
(18.8384 -0.502712 3.32092e-19)
(18.9388 -0.100387 -1.66769e-19)
(19.0111 0.301023 -6.3125e-20)
(20.531 0.850765 1.51417e-19)
(20.5925 1.37779 -5.13324e-20)
(20.6258 1.90822 0)
(20.6312 2.43961 0)
(20.6087 2.97017 8.15707e-19)
(20.5588 3.49881 1.17383e-18)
(20.4814 4.02374 -1.20854e-18)
(20.3768 4.54352 -3.98296e-19)
(20.245 5.05664 3.98236e-19)
(20.0868 5.56205 7.7942e-19)
(19.9023 6.05914 -7.79876e-19)
(19.6916 6.54606 -7.583e-19)
(19.4562 7.02174 3.77154e-18)
(19.1974 7.48502 7.33578e-19)
(18.9156 7.93441 -6.47368e-18)
(18.6113 8.36842 0)
(18.2855 8.78612 0)
(17.9394 9.18657 6.73448e-19)
(17.5738 9.5692 1.98925e-18)
(17.1894 9.93268 -5.11378e-18)
(16.7878 10.2763 -7.47343e-20)
(16.3698 10.5997 1.17229e-18)
(15.9363 10.9016 1.20603e-18)
(15.4887 11.1816 -4.50068e-18)
(15.0283 11.4395 0)
(14.556 11.6754 2.11421e-18)
(14.0722 11.8886 -1.95935e-18)
(13.5789 12.0775 0)
(13.0776 12.2416 0)
(12.57 12.3807 -8.97961e-19)
(12.0573 12.4948 -1.64204e-18)
(11.5407 12.5836 2.34067e-18)
(11.0219 12.6472 0)
(10.5018 12.6858 0)
(9.98192 12.6991 1.182e-18)
(9.46343 12.6874 -1.12387e-18)
(8.94767 12.6509 0)
(8.43593 12.5901 1.77275e-18)
(7.92923 12.5051 3.69643e-19)
(7.42884 12.3963 -1.0229e-18)
(6.93598 12.2642 3.55426e-20)
(6.45205 12.1094 4.31876e-19)
(5.97784 11.9326 -4.2801e-19)
(5.51455 11.7341 7.49905e-20)
(5.06336 11.515 0)
(4.62499 11.2759 0)
(4.2005 11.0174 -1.68126e-19)
(3.7908 10.7404 -3.65286e-20)
(3.39691 10.446 2.19308e-19)
(3.01951 10.1353 9.13602e-20)
(2.65924 9.80896 1.43211e-19)
(2.31691 9.46802 -1.4508e-19)
(1.9933 9.11369 -9.73079e-20)
(1.68869 8.74717 9.86362e-20)
(1.4038 8.36937 -5.8943e-19)
(1.13905 7.98174 6.43257e-19)
(0.894839 7.58539 -1.32609e-21)
(0.671488 7.18184 0)
(0.469165 6.77212 1.63933e-19)
(0.288224 6.35735 2.22715e-20)
(0.128747 5.93875 2.35745e-20)
(20.3003 0.0997331 -8.16152e-20)
(20.3727 0.615707 0)
(20.4174 1.13331 0)
(20.4349 1.65225 9.37199e-19)
(20.4249 2.1712 -6.26661e-19)
(20.3877 2.68895 -2.20819e-18)
(20.3236 3.2038 0)
(20.2326 3.71463 0)
(20.1148 4.21989 -1.20259e-18)
(19.9705 4.71805 0)
(19.8 5.20842 -1.76221e-18)
(19.6037 5.68873 1.16921e-18)
(19.3832 6.15717 -5.80436e-19)
(19.1396 6.61347 0)
(18.873 7.05718 2.29575e-18)
(18.5837 7.48698 1.07541e-18)
(18.2727 7.9017 -1.07758e-18)
(17.9409 8.30014 1.02511e-18)
(17.5892 8.68165 -3.02937e-18)
(17.2185 9.04504 2.04002e-18)
(16.8302 9.38918 -1.98136e-18)
(16.4252 9.7136 -1.01015e-18)
(16.0045 10.0171 -9.13825e-19)
(15.5694 10.299 2.65152e-18)
(15.1211 10.5584 8.49915e-19)
(14.6603 10.7954 7.77779e-19)
(14.1882 11.0099 -7.02872e-19)
(13.7067 11.2011 0)
(13.2169 11.3684 0)
(12.7203 11.511 0)
(12.2178 11.629 0)
(11.7111 11.722 0)
(11.2015 11.7901 0)
(10.6901 11.8333 0)
(10.1785 11.8514 -4.90839e-19)
(9.66777 11.8446 4.35775e-19)
(9.15931 11.8129 3.49205e-19)
(8.65433 11.7566 -1.69523e-18)
(8.15394 11.6762 -2.64796e-19)
(7.65949 11.5719 7.90049e-19)
(7.1722 11.4441 4.35169e-19)
(6.69343 11.2933 -3.47401e-19)
(6.22406 11.1201 1.29125e-19)
(5.76544 10.925 9.48707e-20)
(5.31865 10.7087 -8.35565e-21)
(4.88453 10.472 8.44954e-21)
(4.46413 10.2154 9.1339e-20)
(4.05843 9.93985 0)
(3.66848 9.64626 8.01596e-20)
(3.29507 9.33561 -1.81962e-19)
(2.93886 9.00879 1.02093e-19)
(2.60077 8.66669 0)
(2.28164 8.31043 -3.04636e-19)
(1.98173 7.94119 0)
(1.70195 7.55989 0)
(1.44256 7.16795 -9.47428e-19)
(1.20419 6.76657 4.57103e-19)
(0.987043 6.35715 1.26393e-19)
(0.791692 5.9407 -1.32235e-19)
(0.618445 5.5185 0)
(0.467539 5.09177 -3.73108e-20)
(20.0916 0.476994 6.20857e-20)
(20.1526 0.977106 0)
(20.1869 1.47771 -2.47721e-19)
(20.1936 1.97869 -1.62975e-20)
(20.1735 2.47869 0)
(20.1273 2.97701 1.98773e-18)
(20.0551 3.47278 9.70511e-19)
(19.9566 3.96578 0)
(19.8319 4.45374 3.20047e-20)
(19.6812 4.9345 9.39738e-19)
(19.5057 5.40635 1.42755e-18)
(19.3064 5.86791 -4.69305e-19)
(19.0839 6.31755 0)
(18.8383 6.75441 0)
(18.5701 7.17803 1.72905e-18)
(18.2804 7.58754 -8.53138e-19)
(17.97 7.98192 -7.99621e-19)
(17.6398 8.3602 0)
(17.2907 8.7216 2.41528e-18)
(16.9238 9.06515 -2.31782e-18)
(16.5401 9.38993 -1.48051e-18)
(16.1407 9.69521 -1.43274e-18)
(15.7266 9.9801 0)
(15.299 10.2439 -2.04737e-18)
(14.859 10.4859 -6.68065e-19)
(14.4077 10.7056 6.10386e-19)
(13.9466 10.9024 6.0081e-19)
(13.4767 11.0762 0)
(12.9993 11.2266 0)
(12.5155 11.3533 0)
(12.0267 11.456 0)
(11.5341 11.5348 0)
(11.039 11.5894 0)
(10.5427 11.62 0)
(10.0465 11.6264 -1.05035e-18)
(9.55166 11.6087 3.36323e-19)
(9.05934 11.567 -2.68214e-19)
(8.57073 11.5017 1.27782e-18)
(8.08696 11.4131 0)
(7.60925 11.3015 3.59199e-19)
(7.13881 11.1674 2.93035e-19)
(6.67685 11.0112 1.25479e-19)
(6.2244 10.8335 -7.51004e-20)
(5.7826 10.6349 -9.45114e-20)
(5.35251 10.4159 2.99981e-20)
(4.93501 10.1772 -1.37913e-21)
(4.53097 9.91948 1.0214e-19)
(4.14138 9.64365 0)
(3.76713 9.35059 0)
(3.40908 9.04116 8.03332e-20)
(3.06797 8.71627 9.70587e-20)
(2.74447 8.37687 2.09164e-19)
(2.43935 8.02389 2.39623e-19)
(2.15304 7.65846 0)
(1.88625 7.28147 2.98326e-19)
(1.63923 6.89437 3.29189e-19)
(1.41248 6.49821 0)
(1.20638 6.09446 -1.83011e-21)
(1.02146 5.68404 0)
(0.857957 5.26824 0)
(0.71613 4.84817 2.86025e-20)
(19.9413 0.4343 -1.02578e-19)
(19.9999 0.918026 2.00668e-19)
(20.0327 1.4048 -3.95714e-19)
(20.0391 1.89263 -2.12766e-19)
(20.0194 2.37998 0)
(19.9733 2.86565 -8.24236e-19)
(19.9003 3.34897 -8.184e-19)
(19.8019 3.82836 0)
(19.679 4.30346 3.38738e-20)
(19.5319 4.77233 -7.91179e-19)
(19.3609 5.23279 1.49414e-18)
(19.1661 5.68381 1.47098e-18)
(18.9481 6.12429 0)
(18.7075 6.55303 -7.16946e-19)
(18.445 6.96879 -1.42402e-18)
(18.1615 7.37035 -7.02317e-19)
(17.8578 7.75685 2.05722e-18)
(17.5347 8.12742 -1.32193e-18)
(17.1932 8.48128 1.28636e-18)
(16.8343 8.81761 1.86758e-18)
(16.4592 9.13556 2.42504e-18)
(16.0687 9.43437 1.19887e-18)
(15.6641 9.71317 5.52012e-19)
(15.2463 9.97128 1.66847e-18)
(14.8164 10.2082 5.10849e-19)
(14.3755 10.4234 5.11385e-19)
(13.9247 10.6163 4.63426e-19)
(13.4654 10.7868 -1.34968e-18)
(12.9988 10.9343 8.36988e-19)
(12.5261 11.0586 7.81154e-19)
(12.0484 11.1595 -1.51598e-18)
(11.567 11.237 7.34752e-19)
(11.0832 11.2909 -6.3953e-19)
(10.5983 11.3213 3.00264e-19)
(10.1136 11.3281 2.90047e-19)
(9.63018 11.3114 2.35639e-19)
(9.1493 11.2713 -2.37194e-19)
(8.67203 11.208 -2.23492e-19)
(8.19948 11.1219 -5.11109e-19)
(7.73289 11.0134 -2.96422e-19)
(7.27342 10.8829 -4.63084e-19)
(6.82217 10.731 -4.30381e-19)
(6.38033 10.5581 1.2402e-19)
(5.94893 10.3648 7.18608e-21)
(5.52899 10.1516 -1.56983e-21)
(5.12143 9.91916 3.09155e-20)
(4.72695 9.66817 -2.65082e-19)
(4.34658 9.39945 5.74484e-20)
(3.98113 9.11398 0)
(3.63155 8.81251 0)
(3.29842 8.49588 1.48535e-19)
(2.98258 8.16518 7.68527e-22)
(2.68464 7.82122 -1.94831e-19)
(2.40507 7.46503 0)
(2.14448 7.09745 -2.42131e-19)
(1.90307 6.71991 0)
(1.68139 6.33356 0)
(1.47967 5.93967 -2.32956e-19)
(1.29871 5.53937 -8.29677e-20)
(1.13848 5.1338 8.62144e-20)
(0.999553 4.72415 -4.57477e-20)
(19.7914 0.504857 1.85104e-21)
(19.8447 0.975687 -1.7322e-19)
(19.8727 1.44915 5.07708e-19)
(19.8753 1.92368 3.36858e-19)
(19.8525 2.3981 -4.96251e-19)
(19.8043 2.87115 3.32443e-19)
(19.7314 3.34093 -2.3955e-21)
(19.6339 3.80517 -6.43841e-19)
(19.5116 4.26381 9.80666e-19)
(19.366 4.71599 -1.27757e-18)
(19.1971 5.16065 1.20257e-18)
(19.0054 5.59631 -1.27845e-18)
(18.7913 6.02189 -6.14322e-19)
(18.5555 6.43634 0)
(18.2986 6.8383 6.32527e-19)
(18.0214 7.22656 5.40094e-19)
(17.7246 7.60038 0)
(17.409 7.95878 1.06395e-18)
(17.0755 8.30108 0)
(16.7252 8.6265 -1.0526e-18)
(16.3592 8.93418 9.29828e-19)
(15.9786 9.22333 -4.02651e-20)
(15.5843 9.49305 -4.5119e-20)
(15.1773 9.74262 1.70139e-21)
(14.7585 9.9716 -1.75079e-18)
(14.3291 10.1795 -7.96368e-19)
(13.8902 10.3659 1.55642e-18)
(13.443 10.5306 1.43935e-18)
(12.9888 10.6731 -7.17825e-19)
(12.5287 10.7931 0)
(12.0638 10.8903 0)
(11.5953 10.9648 0)
(11.1244 11.0166 5.47446e-19)
(10.6524 11.0457 -1.91762e-18)
(10.1808 11.0518 8.9014e-19)
(9.71052 11.0351 -4.24446e-19)
(9.24266 10.9956 -6.79282e-19)
(8.77831 10.9336 6.37845e-19)
(8.31846 10.8495 2.13518e-20)
(7.86439 10.7437 -2.01079e-19)
(7.41722 10.6167 2.20716e-19)
(6.97803 10.4689 1.43514e-19)
(6.54802 10.3008 0)
(6.12821 10.113 -4.00419e-20)
(5.71959 9.90605 0)
(5.32311 9.6802 7.66631e-20)
(4.93924 9.43645 -4.00994e-20)
(4.569 9.1755 0)
(4.21306 8.89836 9.40071e-20)
(3.8727 8.6057 1.95325e-20)
(3.54821 8.29825 -2.4673e-19)
(3.24042 7.97714 1.4514e-19)
(2.95012 7.64316 9.5591e-20)
(2.67752 7.29727 -1.75211e-19)
(2.4235 6.94025 8.10018e-21)
(2.18764 6.57339 -1.06352e-19)
(1.97099 6.19792 -5.73498e-20)
(1.77344 5.81513 -1.27524e-19)
(1.59613 5.42611 3.38177e-19)
(1.43867 5.03199 -1.43862e-19)
(1.30216 4.63389 1.90496e-20)
(19.6358 0.556657 3.63775e-20)
(19.6844 1.01279 0)
(19.7084 1.4711 -5.67221e-19)
(19.708 1.93044 0)
(19.683 2.38946 2.82281e-19)
(19.6337 2.84681 8.25946e-19)
(19.5604 3.30109 5.41872e-19)
(19.4629 3.75159 1.09892e-18)
(19.3419 4.19657 9.57569e-21)
(19.1982 4.63509 -6.70039e-21)
(19.032 5.06575 -5.92187e-20)
(18.8438 5.48754 -5.22781e-19)
(18.6339 5.89943 5.04856e-19)
(18.4031 6.30047 -1.48032e-18)
(18.1521 6.68944 1.00442e-18)
(17.8816 7.06506 -4.80706e-20)
(17.592 7.42657 -9.1115e-19)
(17.2842 7.77307 -9.33454e-19)
(16.959 8.10403 0)
(16.6176 8.41886 8.36062e-19)
(16.2611 8.71657 -3.73918e-20)
(15.8906 8.99639 -1.64512e-18)
(15.5071 9.25738 -5.73046e-21)
(15.1114 9.49862 -6.83014e-19)
(14.7042 9.71995 2.07891e-18)
(14.2868 9.92087 -3.44107e-20)
(13.8602 10.101 -6.63951e-19)
(13.4255 10.2603 -6.99225e-20)
(12.9843 10.3981 0)
(12.5374 10.5142 0)
(12.0859 10.608 0)
(11.6307 10.6801 0)
(11.1733 10.7301 0)
(10.7148 10.7584 5.35752e-20)
(10.2569 10.7645 -3.45099e-19)
(9.80027 10.7483 3.89354e-20)
(9.34603 10.71 5.28506e-20)
(8.89516 10.6497 2.21683e-19)
(8.44843 10.5681 4.21496e-19)
(8.00728 10.4656 -5.24951e-19)
(7.57285 10.3425 3.08603e-19)
(7.14599 10.1994 -9.54687e-20)
(6.72815 10.0369 0)
(6.32031 9.85531 3.49315e-20)
(5.92336 9.65534 0)
(5.53848 9.43686 -3.99091e-20)
(5.16542 9.20111 7.67815e-20)
(4.80577 8.94873 -5.34347e-20)
(4.45958 8.68088 -6.74851e-20)
(4.12878 8.39794 1.01408e-19)
(3.81319 8.10056 1.91365e-20)
(3.51367 7.79005 1.53196e-20)
(3.23124 7.46692 -2.79661e-19)
(2.96579 7.1323 3.18932e-19)
(2.71851 6.78655 1.74728e-19)
(2.48829 6.43129 9.13988e-20)
(2.27685 6.06753 3.04157e-19)
(2.08314 5.69677 0)
(1.90942 5.31992 -2.32826e-19)
(1.75454 4.93822 6.18527e-20)
(1.62035 4.55251 0)
(19.4661 0.610683 0)
(19.5095 1.05146 0)
(19.5293 1.49437 2.45775e-19)
(19.5255 1.93796 -4.70905e-19)
(19.4981 2.38128 -2.43015e-19)
(19.4476 2.82304 -1.18012e-18)
(19.3739 3.26156 4.55784e-19)
(19.2768 3.69584 -9.42471e-19)
(19.157 4.12545 1.52297e-20)
(19.0154 4.54913 1.33635e-18)
(18.8524 4.96494 -1.78409e-18)
(18.668 5.37197 0)
(18.4627 5.76917 0)
(18.2372 6.15629 1.69035e-18)
(17.9925 6.53184 8.17127e-19)
(17.7293 6.89389 -1.65858e-18)
(17.4475 7.24231 2.37529e-18)
(17.1479 7.57616 7.55698e-19)
(16.8313 7.8951 -1.48163e-18)
(16.499 8.19887 -7.43698e-19)
(16.1525 8.48599 6.86331e-19)
(15.7925 8.75608 -7.01403e-20)
(15.4204 9.00803 0)
(15.0368 9.24029 1.28614e-18)
(14.6418 9.45345 -1.81488e-18)
(14.2369 9.64698 5.8478e-19)
(13.8232 9.82041 1.05264e-18)
(13.4016 9.97406 -2.55628e-18)
(12.9741 10.1068 5.00323e-19)
(12.5411 10.2189 0)
(12.1041 10.309 0)
(11.6628 10.3786 0)
(11.2199 10.4268 3.47345e-19)
(10.7754 10.4548 9.83112e-19)
(10.3325 10.461 -5.79798e-19)
(9.89035 10.4456 2.52997e-19)
(9.45067 10.4088 2.42476e-19)
(9.01442 10.3503 -4.31522e-19)
(8.58154 10.2713 0)
(8.15396 10.1723 -2.42046e-19)
(7.7331 10.0532 1.26015e-19)
(7.319 9.915 1.41462e-20)
(6.91374 9.75823 9.68899e-21)
(6.51848 9.58333 2.99797e-20)
(6.13358 9.39114 -1.04967e-20)
(5.76145 9.18033 1.50182e-19)
(5.39957 8.95333 -6.43955e-20)
(5.05137 8.70993 2.20368e-19)
(4.71499 8.4523 0)
(4.39477 8.18002 0)
(4.0886 7.89339 -3.97841e-19)
(3.79754 7.59437 1.08308e-19)
(3.52395 7.28301 2.48531e-19)
(3.26574 6.96055 1.47023e-19)
(3.02636 6.62671 -4.63274e-19)
(2.80165 6.28371 -2.59418e-19)
(2.59601 5.93222 -9.54953e-20)
(2.40578 5.57442 -2.10264e-21)
(2.23637 5.21066 1.02349e-19)
(2.08365 4.84218 0)
(1.95226 4.46966 0)
(19.2771 0.662036 -2.47834e-20)
(19.3145 1.08639 0)
(19.3296 1.51304 0)
(19.3218 1.94022 2.08553e-19)
(19.2918 2.36688 0)
(19.2399 2.79204 8.03724e-19)
(19.1665 3.21401 3.96569e-19)
(19.07 3.63116 -7.79036e-19)
(18.9508 4.0453 0)
(18.8115 4.45434 -7.91167e-19)
(18.653 4.85369 4.34097e-20)
(18.473 5.24516 0)
(18.273 5.62649 0)
(18.0528 5.9988 -7.3846e-19)
(17.8146 6.36106 6.82113e-19)
(17.56 6.70831 -7.06653e-19)
(17.2866 7.04291 -6.89156e-19)
(16.9956 7.36376 0)
(16.6883 7.66955 6.5162e-19)
(16.3654 7.96171 -1.18869e-18)
(16.0297 8.23732 -1.1488e-18)
(15.681 8.49726 -1.17997e-18)
(15.3205 8.7404 -9.43616e-21)
(14.9507 8.96244 -9.74899e-19)
(14.5682 9.16691 1.03418e-18)
(14.176 9.35294 9.32511e-19)
(13.7763 9.51863 -9.46727e-19)
(13.3679 9.66664 5.92665e-20)
(12.9551 9.79356 1.06088e-21)
(12.536 9.90249 -7.92227e-19)
(12.1151 9.98748 0)
(11.6875 10.0555 -6.32286e-19)
(11.2605 10.1009 1.21835e-18)
(10.83 10.1298 -4.60286e-20)
(10.404 10.1365 5.21956e-19)
(9.97772 10.1219 -4.25157e-19)
(9.5537 10.0871 3.61683e-19)
(9.13413 10.0299 2.59617e-19)
(8.71583 9.95372 -5.71029e-19)
(8.30237 9.85844 2.40409e-19)
(7.89673 9.74353 1.54079e-19)
(7.49524 9.61033 1.63738e-19)