/*--------------------------------*- C++ -*----------------------------------*\
| =========                 |                                                 |
| \\      /  F ield         | OpenFOAM: The Open Source CFD Toolbox           |
|  \\    /   O peration     | Version:  2.3.1                                 |
|   \\  /    A nd           | Web:      www.OpenFOAM.org                      |
|    \\/     M anipulation  |                                                 |
\*---------------------------------------------------------------------------*/
FoamFile
{
    version     2.0;
    format      ascii;
    class       volScalarField;
    location    "0.77";
    object      p;
}
// * * * * * * * * * * * * * * * * * * * * * * * * * * * * * * * * * * * * * //

dimensions      [0 2 -2 0 0 0 0];

internalField   nonuniform List<scalar> 
1000
(
-0.00231165
-0.00221232
-0.00224762
-0.00225891
-0.0022639
-0.00226521
-0.00225539
-0.00224185
-0.00223054
-0.00222659
-0.00307806
-0.00305579
-0.0030867
-0.00310758
-0.00311766
-0.00311751
-0.00310438
-0.00308551
-0.00306804
-0.00306428
-0.0048602
-0.00487094
-0.0049065
-0.00494119
-0.00495938
-0.0049581
-0.00493725
-0.0049049
-0.00486834
-0.00484814
-0.00744757
-0.00744941
-0.00746674
-0.00749513
-0.00751365
-0.00751283
-0.00749377
-0.00746428
-0.00743775
-0.0074229
-0.0139677
-0.0141553
-0.0143608
-0.0145452
-0.0146488
-0.0146541
-0.014567
-0.014391
-0.0141852
-0.014003
-0.00136526
-0.00136996
-0.0013973
-0.00141587
-0.00142358
-0.00142448
-0.00141531
-0.00140178
-0.00138979
-0.00137759
-0.00214716
-0.00215683
-0.00218391
-0.0022067
-0.00221778
-0.00221747
-0.00220493
-0.00218632
-0.00216786
-0.00215312
-0.00380781
-0.00383546
-0.0038726
-0.00390594
-0.00392388
-0.00392241
-0.00390257
-0.00387073
-0.00383301
-0.00379728
-0.00627662
-0.00632788
-0.00636457
-0.00640278
-0.00642526
-0.00642422
-0.00640239
-0.0063641
-0.00631877
-0.00625705
-0.0119826
-0.0121807
-0.0123828
-0.0125663
-0.0126668
-0.0126727
-0.012588
-0.0124113
-0.012208
-0.0120133
0.000317835
0.000306709
0.000290246
0.000272999
0.000265056
0.000264441
0.000271849
0.000283251
0.000293557
0.000306315
-0.000337507
-0.000351758
-0.000372652
-0.000392183
-0.000402156
-0.000401811
-0.000391246
-0.000375294
-0.000358898
-0.000341204
-0.00171869
-0.00175142
-0.00178531
-0.00181427
-0.0018299
-0.00182825
-0.0018112
-0.00178356
-0.00174828
-0.00170865
-0.00384124
-0.003909
-0.00395557
-0.0039982
-0.00402172
-0.00402034
-0.00399907
-0.00395506
-0.00390153
-0.00382615
-0.00824085
-0.00844222
-0.00863171
-0.00879862
-0.00888704
-0.00889426
-0.00881595
-0.00865497
-0.00846356
-0.0082605
0.00267614
0.00266972
0.00266192
0.00265257
0.00264805
0.00264796
0.00265261
0.00265937
0.00266507
0.0026732
0.00220977
0.00220212
0.00219004
0.00217871
0.00217268
0.00217354
0.0021805
0.00219055
0.00220099
0.0022123
0.00122607
0.00120414
0.00118126
0.00116285
0.00115292
0.00115474
0.0011665
0.00118552
0.00121007
0.00123864
-0.000326013
-0.000376549
-0.000416386
-0.000449716
-0.000467487
-0.000465923
-0.000448341
-0.000414542
-0.000368225
-0.000310853
-0.00323075
-0.00338869
-0.00352968
-0.0036492
-0.00371171
-0.00371354
-0.00366147
-0.00354333
-0.00340231
-0.00324248
0.00552793
0.00552688
0.00552781
0.00552784
0.00552822
0.0055289
0.00552929
0.00552905
0.00552767
0.00552909
0.00529328
0.00529214
0.00529095
0.00529034
0.00529049
0.00529155
0.00529324
0.00529453
0.00529598
0.0053002
0.00479247
0.00478513
0.00477863
0.00477496
0.00477338
0.00477561
0.00477941
0.00478508
0.0047943
0.00480656
0.00397272
0.00394911
0.00393162
0.00391974
0.00391399
0.00391587
0.00392302
0.00393767
0.00395878
0.00398557
0.00250221
0.00242342
0.00235291
0.00229935
0.00227212
0.00227197
0.00229713
0.00234854
0.00241949
0.00249872
0.00861614
0.008626
0.00863837
0.00864987
0.00865701
0.00865802
0.00865285
0.00864305
0.00863254
0.00862469
0.00864514
0.00865462
0.00866814
0.00868122
0.00868906
0.00869082
0.00868487
0.00867448
0.00866344
0.0086573
0.00868406
0.00869704
0.00871332
0.00872946
0.00873986
0.0087413
0.00873469
0.00872172
0.00870902
0.00869879
0.00867894
0.00869612
0.00871503
0.00873466
0.00874607
0.00874872
0.00874006
0.0087243
0.00870819
0.008689
0.00856989
0.00858161
0.00859719
0.00862064
0.00863324
0.00863586
0.00862632
0.0086063
0.00858843
0.00857169
0.0116585
0.011681
0.011707
0.0117316
0.0117458
0.0117474
0.0117352
0.0117143
0.011692
0.0116739
0.0119633
0.0119879
0.0120193
0.0120488
0.0120663
0.0120676
0.0120531
0.0120274
0.0120007
0.0119795
0.0125702
0.0126092
0.0126549
0.0126965
0.0127199
0.0127224
0.0127013
0.0126645
0.0126225
0.0125821
0.0134268
0.0134988
0.0135667
0.0136304
0.0136661
0.0136675
0.013639
0.0135795
0.0135117
0.0134332
0.0146078
0.0147249
0.0148408
0.0149498
0.0150071
0.0150142
0.0149627
0.0148596
0.014744
0.0146174
0.0143493
0.0143856
0.0144266
0.0144643
0.0144866
0.0144878
0.0144686
0.0144354
0.0144013
0.0143703
0.0149235
0.0149671
0.0150196
0.0150674
0.0150946
0.0150966
0.0150718
0.0150291
0.0149827
0.0149417
0.0160933
0.0161714
0.0162529
0.0163255
0.0163666
0.0163676
0.0163316
0.0162634
0.0161855
0.0161027
0.0178455
0.0179953
0.0181314
0.0182508
0.0183133
0.0183191
0.0182604
0.0181474
0.0180117
0.0178495
0.0203209
0.0205919
0.0208278
0.0210373
0.0211488
0.0211531
0.0210576
0.0208567
0.0206215
0.0203458
0.0163908
0.0164361
0.0164898
0.0165394
0.0165679
0.0165697
0.0165441
0.0165006
0.0164548
0.0164159
0.0171965
0.0172543
0.0173265
0.0173914
0.0174287
0.0174301
0.0173966
0.0173373
0.0172725
0.0172154
0.0188775
0.0189921
0.0191124
0.0192173
0.0192743
0.0192771
0.0192241
0.0191246
0.0190082
0.0188872
0.0214954
0.0217426
0.0219577
0.0221402
0.0222369
0.0222402
0.0221537
0.02198
0.0217655
0.0215076
0.025221
0.0257115
0.0260992
0.026419
0.0265784
0.0265885
0.0264419
0.0261354
0.025757
0.0252638
0.0174883
0.0175324
0.0175943
0.0176502
0.0176832
0.0176846
0.0176559
0.0176063
0.0175532
0.0175126
0.018455
0.0185188
0.0186059
0.0186826
0.018726
0.018728
0.0186886
0.0186181
0.0185377
0.0184726
0.0205363
0.0206887
0.0208451
0.0209757
0.0210465
0.0210489
0.0209844
0.0208604
0.0207084
0.0205489
0.0239609
0.0243486
0.024653
0.0248922
0.0250122
0.0250178
0.0249083
0.0246799
0.0243823
0.0239896
0.0291968
0.0301619
0.0307558
0.031185
0.0313843
0.0313911
0.0312083
0.0308011
0.0302233
0.0292609
0.0360528
0.0388188
0.0399312
0.0406447
0.0409153
0.040922
0.0406724
0.0399719
0.0389189
0.036177
0.049277
0.0537798
0.0555315
0.0566148
0.0570046
0.0570188
0.0566388
0.0555822
0.0538698
0.0493896
0.0579454
0.0723703
0.0760681
0.0777375
0.0781276
0.0781227
0.0777647
0.0760778
0.0726107
0.0582895
0.0938204
0.122986
0.132354
0.134285
0.134759
0.134764
0.134276
0.132442
0.123516
0.0944546
0.0082346
-0.00467278
-0.00584103
-0.00609342
-0.00586855
-0.00588166
-0.00608736
-0.0058157
-0.00482636
0.0080399
0.0283677
0.0294092
0.0299776
0.0304352
0.0306381
0.0306419
0.0304593
0.0300137
0.0294554
0.0284272
0.0369587
0.0383126
0.0391866
0.0399643
0.040308
0.0403236
0.0399949
0.0392195
0.0383746
0.0370406
0.032162
0.0315013
0.0317321
0.032442
0.0327011
0.0327063
0.0324601
0.0317512
0.0314852
0.0321604
0.0241227
0.0194318
0.0181383
0.018727
0.0190817
0.019098
0.0187786
0.0181825
0.0193465
0.0240385
0.00717148
-0.00381625
-0.00637582
-0.00725712
-0.00725361
-0.00725087
-0.00724196
-0.00639028
-0.00395329
0.00697698
0.0217809
0.0222955
0.0226087
0.022859
0.0229777
0.0229859
0.02287
0.0226281
0.0223298
0.0218132
0.0278287
0.0285716
0.0290049
0.0294035
0.0295991
0.0295982
0.0294251
0.0290382
0.0286089
0.0278847
0.0241728
0.0250134
0.025248
0.0255348
0.0256519
0.0256529
0.0255419
0.0252586
0.0250674
0.0242164
0.0315231
0.0315728
0.0316806
0.0321555
0.0323552
0.0323678
0.032185
0.031725
0.0316135
0.0316116
0.0166633
0.0129481
0.0121297
0.011837
0.0118483
0.0118464
0.0118431
0.0121425
0.0129396
0.0166453
0.0150091
0.0151996
0.0153293
0.0154473
0.0155031
0.0155098
0.0154534
0.0153412
0.0152156
0.0150205
0.0179773
0.0182402
0.0184171
0.0185966
0.0186923
0.0186931
0.018604
0.0184275
0.0182629
0.0180166
0.0155381
0.015737
0.0158117
0.0159175
0.0159682
0.0159693
0.0159091
0.0158075
0.0157484
0.0155593
0.0208778
0.0214706
0.0217129
0.0221291
0.0223246
0.0223265
0.022167
0.0217602
0.0215255
0.020985
0.0147217
0.0140408
0.0140277
0.0140999
0.0141781
0.0141905
0.0141143
0.0140522
0.0140685
0.0147433
0.00832634
0.00832189
0.00832035
0.00833428
0.00834343
0.00834404
0.00833772
0.00831904
0.00832087
0.00832787
0.0078832
0.00770867
0.00762361
0.00759146
0.00758128
0.007588
0.0075794
0.00761618
0.00770118
0.00788206
0.0073881
0.00713942
0.0069915
0.00694148
0.00693287
0.00691766
0.00693617
0.00697264
0.00711954
0.00740205
0.00817255
0.00678758
0.00645447
0.00642761
0.00644365
0.00647053
0.00642635
0.0064726
0.00677399
0.00819513
0.00792416
0.00767626
0.00757633
0.00762231
0.00766627
0.00766581
0.00764709
0.0075857
0.00769523
0.00795784
0.00203638
0.00187755
0.00178671
0.0017188
0.00168806
0.00169085
0.00170966
0.00177888
0.00186608
0.00202642
-0.00261396
-0.00327454
-0.00367017
-0.00393365
-0.00404483
-0.00405835
-0.0039443
-0.00369434
-0.00330798
-0.00263309
-0.000474133
-0.0011254
-0.00143686
-0.00163032
-0.00171739
-0.00170927
-0.00165174
-0.00145375
-0.00114723
-0.000494659
-0.00714418
-0.0120455
-0.0134885
-0.0140801
-0.0142117
-0.0142223
-0.0140651
-0.0135157
-0.0121629
-0.00720481
-0.000129577
-0.000114157
-0.000230943
-0.000291418
-0.000316689
-0.000303632
-0.000332639
-0.000254545
-9.79225e-05
-0.000145147
-0.00360867
-0.00386007
-0.00400539
-0.00412623
-0.00417866
-0.00418882
-0.0041341
-0.00401987
-0.00387571
-0.00361342
-0.0134201
-0.0146175
-0.0152906
-0.0157614
-0.0159952
-0.0159966
-0.0157772
-0.0153138
-0.0146756
-0.0134936
-0.00785464
-0.00881081
-0.00922996
-0.00950564
-0.0096171
-0.00963031
-0.00948695
-0.00923515
-0.00884072
-0.00788691
-0.0283059
-0.0383729
-0.0409731
-0.0423764
-0.0427872
-0.0427549
-0.042441
-0.0410561
-0.0386095
-0.0286463
-0.00703453
-0.00596158
-0.00583661
-0.00591849
-0.00596855
-0.00601948
-0.00595696
-0.00586775
-0.0059245
-0.00697419
-0.00808545
-0.00836371
-0.00849491
-0.00862677
-0.0086913
-0.0086964
-0.00863955
-0.00850679
-0.00838049
-0.00810622
-0.023896
-0.0253164
-0.0261189
-0.0267282
-0.0270303
-0.0270378
-0.0267287
-0.0261507
-0.0253991
-0.0240175
-0.0137344
-0.014414
-0.0146183
-0.0148214
-0.0149317
-0.01491
-0.0148042
-0.0146081
-0.0144339
-0.0138041
-0.0554783
-0.0657844
-0.0686818
-0.0708603
-0.0716423
-0.0716902
-0.0709324
-0.0688252
-0.0660881
-0.0559978
-0.00822666
-0.00613643
-0.00517391
-0.00467658
-0.0045327
-0.00453607
-0.0047065
-0.00516127
-0.00602464
-0.00805695
-0.0109646
-0.0111604
-0.0112257
-0.0113325
-0.0113862
-0.0113936
-0.0113512
-0.0112451
-0.0111797
-0.0109895
-0.0320839
-0.0333937
-0.0341812
-0.03485
-0.0351867
-0.0352006
-0.0348779
-0.0342288
-0.0334855
-0.03222
-0.0167623
-0.0167486
-0.0166043
-0.0167021
-0.0167614
-0.0167614
-0.0166865
-0.016593
-0.0167561
-0.0168001
-0.0780293
-0.0879049
-0.0907343
-0.0930931
-0.0939972
-0.0940127
-0.0931756
-0.0908799
-0.0881665
-0.0784541
-0.00135918
0.00837442
0.0113041
0.0125537
0.012816
0.0128156
0.0125738
0.0113461
0.00856026
-0.00112443
-0.0121609
-0.0121863
-0.0121862
-0.012254
-0.0122929
-0.012302
-0.0122742
-0.0122087
-0.0122036
-0.0121861
-0.0361874
-0.0373479
-0.038081
-0.0387263
-0.0390594
-0.0390763
-0.0387668
-0.0381377
-0.0374381
-0.0363143
-0.0175252
-0.0168726
-0.0165031
-0.0165102
-0.0165238
-0.0165256
-0.0164993
-0.0164968
-0.0168728
-0.0175413
-0.0887122
-0.0978696
-0.100612
-0.102896
-0.103816
-0.103827
-0.102963
-0.100746
-0.0981073
-0.0890574
0.00472268
0.0196053
0.0228253
0.024256
0.0245067
0.0245222
0.024286
0.0228636
0.0198155
0.0050317
)
;

boundaryField
{
    walls
    {
        type            zeroGradient;
    }
    lid
    {
        type            zeroGradient;
    }
}


// ************************************************************************* //
