/*--------------------------------*- C++ -*----------------------------------*\
| =========                 |                                                 |
| \\      /  F ield         | OpenFOAM: The Open Source CFD Toolbox           |
|  \\    /   O peration     | Version:  2.3.1                                 |
|   \\  /    A nd           | Web:      www.OpenFOAM.org                      |
|    \\/     M anipulation  |                                                 |
\*---------------------------------------------------------------------------*/
FoamFile
{
    version     2.0;
    format      ascii;
    class       surfaceScalarField;
    location    "0.77";
    object      phi;
}
// * * * * * * * * * * * * * * * * * * * * * * * * * * * * * * * * * * * * * //

dimensions      [0 3 -1 0 0 0 0];

internalField   nonuniform List<scalar> 
2700
(
3.07184e-06
4.04534e-05
-3.66028e-05
2.63149e-06
3.90094e-05
-3.85578e-05
1.35442e-06
3.94359e-05
-3.81475e-05
8.3415e-07
3.92613e-05
-3.87302e-05
2.73778e-07
3.9394e-05
-3.88245e-05
-1.92089e-07
3.93596e-05
-3.88858e-05
-4.95777e-07
3.91917e-05
-3.88815e-05
-5.55291e-07
3.89252e-05
-3.88597e-05
-3.42163e-07
3.86377e-05
-3.8847e-05
3.8433e-05
-3.87761e-05
8.56726e-07
8.23061e-05
-4.27151e-05
1.24398e-06
8.19165e-05
-4.32985e-05
1.21994e-06
8.27651e-05
-4.33092e-05
8.00025e-07
8.32136e-05
-4.3538e-05
2.20511e-07
8.35823e-05
-4.36156e-05
-3.487e-07
8.35715e-05
-4.36508e-05
-7.31791e-07
8.3195e-05
-4.36286e-05
-7.53444e-07
8.25274e-05
-4.35891e-05
-3.78937e-07
8.17645e-05
-4.35128e-05
8.09155e-05
-4.28735e-05
1.33315e-06
0.000131949
-5.10021e-05
1.86055e-06
0.0001335
-5.21372e-05
1.79466e-06
0.000135099
-5.2296e-05
1.12193e-06
0.000136338
-5.24824e-05
2.03457e-07
0.000137053
-5.25841e-05
-7.09893e-07
0.000137063
-5.26112e-05
-1.35768e-06
0.000136372
-5.25611e-05
-1.44968e-06
0.00013507
-5.24809e-05
-9.04178e-07
0.000133541
-5.23541e-05
0.000131562
-5.15756e-05
2.12752e-06
0.000195661
-6.58742e-05
2.99701e-06
0.000199351
-6.67609e-05
2.817e-06
0.000202115
-6.68783e-05
1.71173e-06
0.000204427
-6.70273e-05
2.05982e-07
0.000205653
-6.71385e-05
-1.29985e-06
0.000205687
-6.71607e-05
-2.41764e-06
0.00020454
-6.70915e-05
-2.6521e-06
0.000202266
-6.70015e-05
-1.85812e-06
0.000199617
-6.69095e-05
0.000195808
-6.61245e-05
6.72082e-06
-9.60809e-05
0.000285012
7.81649e-06
-9.80981e-05
0.000296346
6.47308e-06
-9.88684e-05
0.000302319
3.62953e-06
-9.94327e-05
0.0003067
2.75097e-07
-9.97618e-05
0.000308768
-3.0762e-06
-9.97916e-05
0.000308831
-5.92389e-06
-9.95204e-05
0.000306911
-7.32299e-06
-9.90198e-05
0.000302684
-6.37573e-06
-9.83064e-05
0.000296981
-9.63464e-05
0.0002858
6.43078e-07
3.44596e-05
-7.17024e-05
8.03294e-07
3.52494e-05
-7.39618e-05
8.64608e-07
3.57914e-05
-7.39932e-05
5.9343e-07
3.59173e-05
-7.43693e-05
1.96024e-07
3.60609e-05
-7.44817e-05
-2.05026e-07
3.60484e-05
-7.45277e-05
-4.92299e-07
3.58933e-05
-7.44832e-05
-5.98596e-07
3.56335e-05
-7.43827e-05
-4.79129e-07
3.52992e-05
-7.42634e-05
3.44871e-05
-7.37446e-05
6.0782e-07
7.20287e-05
-8.08991e-05
9.62141e-07
7.33578e-05
-8.17667e-05
1.04185e-06
7.42871e-05
-8.18897e-05
6.93291e-07
7.48765e-05
-8.21551e-05
1.82477e-07
7.52384e-05
-8.22895e-05
-3.39646e-07
7.52382e-05
-8.23268e-05
-7.12869e-07
7.48845e-05
-8.22548e-05
-8.05661e-07
7.42438e-05
-8.21144e-05
-5.61194e-07
7.3465e-05
-8.19338e-05
7.21898e-05
-8.11496e-05
1.31781e-06
0.000115802
-9.61141e-05
1.7416e-06
0.000117953
-9.71791e-05
1.64382e-06
0.00011956
-9.74952e-05
1.02547e-06
0.000120817
-9.783e-05
1.79907e-07
0.000121503
-9.80301e-05
-6.72135e-07
0.000121517
-9.80657e-05
-1.30588e-06
0.000120864
-9.79332e-05
-1.49602e-06
0.000119616
-9.76884e-05
-1.12565e-06
0.000118106
-9.73938e-05
0.000115926
-9.64583e-05
2.55461e-06
0.000168611
-0.000121269
3.10208e-06
0.000173207
-0.000122594
2.73792e-06
0.000176083
-0.000123071
1.62971e-06
0.000178401
-0.000123537
1.89677e-07
0.000179596
-0.000123825
-1.25515e-06
0.000179631
-0.000123862
-2.38592e-06
0.000178517
-0.000123644
-2.81938e-06
0.000176269
-0.000123253
-2.3644e-06
0.000173529
-0.000122819
0.000168967
-0.000121548
6.43657e-06
-0.000167453
0.000233545
7.31138e-06
-0.00016991
0.00024414
5.976e-06
-0.000171335
0.000249886
3.3309e-06
-0.000172541
0.000254157
2.51162e-07
-0.000173219
0.000256139
-2.82591e-06
-0.000173271
0.000256198
-5.47946e-06
-0.000172699
0.000254355
-6.86697e-06
-0.000171599
0.000250241
-6.14499e-06
-0.000170268
0.000244773
-0.000167884
0.000234382
9.85764e-07
2.76581e-05
-0.000100349
9.19193e-07
2.79101e-05
-0.000101806
7.65296e-07
2.82032e-05
-0.000102041
4.78124e-07
2.83311e-05
-0.000102412
1.51164e-07
2.84373e-05
-0.000102591
-1.68275e-07
2.843e-05
-0.000102638
-4.04069e-07
2.83044e-05
-0.000102552
-5.07632e-07
2.80899e-05
-0.000102369
-4.40881e-07
2.78073e-05
-0.000102139
2.70848e-05
-0.000101275
7.61743e-07
5.65138e-05
-0.000110524
9.2306e-07
5.74931e-05
-0.000111518
8.81264e-07
5.81817e-05
-0.000111833
5.67418e-07
5.86768e-05
-0.000112195
1.47163e-07
5.89643e-05
-0.000112404
-2.74913e-07
5.89643e-05
-0.000112448
-5.85661e-07
5.86743e-05
-0.000112323
-6.87771e-07
5.81449e-05
-0.000112075
-5.28542e-07
5.74847e-05
-0.000111781
5.63266e-05
-0.000110931
1.20489e-06
8.92406e-05
-0.000130063
1.49604e-06
9.11718e-05
-0.000131165
1.35398e-06
9.25057e-05
-0.000131695
8.34472e-07
9.35498e-05
-0.000132203
1.44963e-07
9.41103e-05
-0.000132506
-5.47652e-07
9.41214e-05
-0.00013255
-1.07651e-06
9.3585e-05
-0.000132333
-1.27056e-06
9.25513e-05
-0.00013192
-1.01734e-06
9.12608e-05
-0.000131444
8.92671e-05
-0.000130433
2.28976e-06
0.000127008
-0.000161342
2.68364e-06
0.000131112
-0.000162948
2.2991e-06
0.000133624
-0.000163824
1.34972e-06
0.000135563
-0.000164619
1.53003e-07
0.000136548
-0.000165085
-1.04579e-06
0.000136577
-0.000165134
-2.01143e-06
0.000135652
-0.000164763
-2.44448e-06
0.000133776
-0.00016406
-2.13138e-06
0.000131364
-0.000163256
0.000127282
-0.000161704
5.40284e-06
-0.000212141
0.000166296
5.95565e-06
-0.000215205
0.000175865
4.7893e-06
-0.00021725
0.000180719
2.6492e-06
-0.000218965
0.000184145
1.98538e-07
-0.000219909
0.000185712
-2.25126e-06
-0.000219978
0.000185753
-4.39628e-06
-0.00021917
0.000184291
-5.59919e-06
-0.000217592
0.000180987
-5.18079e-06
-0.000215671
0.000176363
-0.000212688
0.000166925
4.77248e-07
1.77816e-05
-0.000118616
4.84953e-07
1.8092e-05
-0.000119913
4.45118e-07
1.82735e-05
-0.000120281
2.91152e-07
1.83833e-05
-0.000120647
1.00676e-07
1.8454e-05
-0.00012086
-8.78347e-08
1.84496e-05
-0.000120905
-2.32219e-07
1.83677e-05
-0.000120782
-3.02558e-07
1.82281e-05
-0.000120534
-2.74029e-07
1.80484e-05
-0.000120224
1.76222e-05
-0.00011918
4.32898e-07
3.65557e-05
-0.000129742
5.5963e-07
3.72325e-05
-0.000130796
5.41793e-07
3.76789e-05
-0.000131231
3.55897e-07
3.80191e-05
-0.000131655
1.00865e-07
3.82085e-05
-0.000131915
-1.56508e-07
3.82075e-05
-0.00013196
-3.49192e-07
3.8015e-05
-0.000131789
-4.11954e-07
3.76636e-05
-0.000131459
-3.04448e-07
3.72249e-05
-0.000131079
3.64962e-05
-0.000130122
7.24189e-07
5.72245e-05
-0.000151469
9.46053e-07
5.84892e-05
-0.000152657
8.60056e-07
5.9391e-05
-0.000153335
5.33569e-07
6.00953e-05
-0.000153967
9.89763e-08
6.04686e-05
-0.000154347
-3.38405e-07
6.04745e-05
-0.000154395
-6.75837e-07
6.01137e-05
-0.000154108
-7.96465e-07
5.94197e-05
-0.000153568
-6.17463e-07
5.85422e-05
-0.000152956
5.72601e-05
-0.000151826
1.47474e-06
7.97452e-05
-0.000185348
1.77695e-06
8.24119e-05
-0.00018718
1.51686e-06
8.41594e-05
-0.000188339
8.86955e-07
8.5467e-05
-0.000189368
1.03249e-07
8.61266e-05
-0.000189964
-6.83599e-07
8.61416e-05
-0.00019002
-1.32344e-06
8.55191e-05
-0.000189531
-1.61713e-06
8.42521e-05
-0.000188606
-1.37536e-06
8.25687e-05
-0.000187531
7.99219e-05
-0.000185746
3.45393e-06
-0.000235009
9.918e-05
3.85441e-06
-0.000238416
0.000105241
3.08549e-06
-0.000240775
0.000108478
1.70144e-06
-0.000242734
0.00011065
1.28279e-07
-0.000243815
0.000111634
-1.44095e-06
-0.00024389
0.000111658
-2.83203e-06
-0.000242959
0.000110726
-3.62482e-06
-0.000241146
0.00010863
-3.31762e-06
-0.000238923
0.000105535
-0.000235588
9.9525e-05
1.48232e-07
7.12192e-06
-0.000125901
1.26096e-07
7.22848e-06
-0.000127134
1.10175e-07
7.28485e-06
-0.000127565
8.1148e-08
7.3184e-06
-0.000127951
5.49924e-08
7.3384e-06
-0.000128187
2.83809e-08
7.33441e-06
-0.000128227
1.02745e-09
7.30483e-06
-0.000128074
-2.76453e-08
7.2561e-06
-0.000127775
-4.89507e-08
7.19167e-06
-0.00012741
7.04085e-06
-0.000126282
1.23002e-07
1.47341e-05
-0.000137493
1.43698e-07
1.49795e-05
-0.000138583
1.3886e-07
1.51435e-05
-0.0001391
1.01079e-07
1.52656e-05
-0.00013958
5.47924e-08
1.53307e-05
-0.000139877
5.84766e-09
1.53265e-05
-0.00013992
-3.59973e-08
1.52518e-05
-0.00013971
-6.0509e-08
1.51184e-05
-0.000139312
-5.46802e-08
1.49479e-05
-0.000138858
1.46768e-05
-0.000137825
2.25293e-07
2.32124e-05
-0.000160184
2.82396e-07
2.37174e-05
-0.000161464
2.52178e-07
2.40948e-05
-0.000162269
1.62049e-07
2.438e-05
-0.000163004
5.0267e-08
2.45266e-05
-0.000163445
-6.35649e-08
2.45244e-05
-0.000163492
-1.59974e-07
2.4374e-05
-0.000163147
-2.0776e-07
2.40855e-05
-0.000162501
-1.73731e-07
2.37104e-05
-0.000161766
2.3197e-05
-0.000160528
5.39797e-07
3.23443e-05
-0.000195021
6.32022e-07
3.34834e-05
-0.000197038
5.20571e-07
3.42863e-05
-0.00019842
3.01787e-07
3.48604e-05
-0.00019963
4.7333e-08
3.51419e-05
-0.000200326
-2.08204e-07
3.51437e-05
-0.000200383
-4.33235e-07
3.48675e-05
-0.0001998
-5.58584e-07
3.43042e-05
-0.000198698
-4.9542e-07
3.35229e-05
-0.000197406
3.23904e-05
-0.000195431
1.38942e-06
-0.000243264
3.92265e-05
1.52011e-06
-0.000246835
4.17974e-05
1.17391e-06
-0.000249395
4.32796e-05
6.32469e-07
-0.000251522
4.42171e-05
5.29414e-08
-0.000252694
4.46322e-05
-5.27106e-07
-0.00025277
4.46317e-05
-1.06763e-06
-0.00025175
4.42325e-05
-1.42428e-06
-0.000249772
4.33151e-05
-1.33426e-06
-0.00024735
4.1886e-05
-0.000243841
3.93281e-05
-1.8427e-07
-4.02029e-06
-0.000121718
-2.74444e-07
-4.16877e-06
-0.000122897
-2.52672e-07
-4.25214e-06
-0.000123355
-1.4473e-07
-4.3241e-06
-0.000123756
1.51252e-08
-4.36719e-06
-0.000124
1.76449e-07
-4.37281e-06
-0.000124037
2.86323e-07
-4.34118e-06
-0.000123864
3.05322e-07
-4.28201e-06
-0.000123534
2.15335e-07
-4.21038e-06
-0.000123132
-4.08024e-06
-0.000122003
-2.20577e-07
-7.97548e-06
-0.000133336
-3.37538e-07
-8.20376e-06
-0.000134451
-3.16316e-07
-8.36463e-06
-0.000135029
-1.82402e-07
-8.50644e-06
-0.000135551
1.21669e-08
-8.58957e-06
-0.000135869
2.08035e-07
-8.59898e-06
-0.000135909
3.41454e-07
-8.53535e-06
-0.000135669
3.59622e-07
-8.41273e-06
-0.00013522
2.40126e-07
-8.26916e-06
-0.000134701
-8.05531e-06
-0.000133622
-3.38097e-07
-1.15431e-05
-0.00015629
-4.8822e-07
-1.18402e-05
-0.000157689
-4.51827e-07
-1.20597e-05
-0.000158622
-2.63335e-07
-1.22586e-05
-0.000159453
3.01463e-09
-1.23719e-05
-0.00015994
2.68904e-07
-1.23842e-05
-0.000159986
4.56853e-07
-1.22941e-05
-0.000159589
4.91642e-07
-1.21184e-05
-0.000158843
3.42209e-07
-1.19183e-05
-0.000157979
-1.16306e-05
-0.000156613
-5.23706e-07
-1.4293e-05
-0.000191745
-7.07692e-07
-1.46314e-05
-0.000194059
-6.43083e-07
-1.48396e-05
-0.000195701
-3.75693e-07
-1.50504e-05
-0.000197103
-9.33786e-09
-1.51712e-05
-0.000197892
3.56521e-07
-1.51846e-05
-0.000197948
6.24246e-07
-1.50888e-05
-0.000197272
6.90223e-07
-1.49014e-05
-0.000195978
5.15353e-07
-1.47121e-05
-0.000194431
-1.438e-05
-0.000192158
-7.34333e-07
-0.000240335
-1.64649e-05
-9.68014e-07
-0.000244448
-1.67634e-05
-8.82391e-07
-0.000247386
-1.69124e-05
-5.16479e-07
-0.000249782
-1.7134e-05
-2.31366e-08
-0.000251074
-1.7265e-05
4.71037e-07
-0.000251148
-1.7279e-05
8.38169e-07
-0.000250006
-1.71793e-05
9.31194e-07
-0.00024776
-1.69804e-05
7.14492e-07
-0.000244967
-1.68526e-05
-0.000240916
-1.65699e-05
-5.1761e-07
-1.52483e-05
-0.000105978
-6.99729e-07
-1.57127e-05
-0.000107029
-6.3712e-07
-1.59667e-05
-0.000107478
-3.83652e-07
-1.61713e-05
-0.000107864
-2.07399e-08
-1.62907e-05
-0.000108099
3.44094e-07
-1.62985e-05
-0.000108129
6.03583e-07
-1.61963e-05
-0.000107954
6.74268e-07
-1.60079e-05
-0.000107623
5.07267e-07
-1.57717e-05
-0.000107221
-1.53161e-05
-0.000106197
-6.13767e-07
-3.10025e-05
-0.00011699
-8.83925e-07
-3.17984e-05
-0.000118118
-8.1989e-07
-3.23513e-05
-0.00011873
-4.9195e-07
-3.28094e-05
-0.000119264
-2.67717e-08
-3.30654e-05
-0.000119581
4.39739e-07
-3.30815e-05
-0.000119615
7.73219e-07
-3.28572e-05
-0.000119364
8.46377e-07
-3.24313e-05
-0.000118893
5.94124e-07
-3.19097e-05
-0.000118333
-3.11259e-05
-0.000117228
-1.01933e-06
-4.69743e-05
-0.000139308
-1.39136e-06
-4.82424e-05
-0.000140884
-1.25482e-06
-4.918e-05
-0.000141941
-7.39504e-07
-4.99507e-05
-0.000142838
-4.28223e-08
-5.03664e-05
-0.000143349
6.55399e-07
-5.03887e-05
-0.000143389
1.17556e-06
-5.00203e-05
-0.00014296
1.32492e-06
-4.92962e-05
-0.000142139
9.8255e-07
-4.84049e-05
-0.00014115
-4.71541e-05
-0.000139602
-1.84054e-06
-6.18717e-05
-0.000175001
-2.31162e-06
-6.39689e-05
-0.000177857
-2.00128e-06
-6.53624e-05
-0.000179826
-1.15092e-06
-6.64812e-05
-0.000181423
-6.57345e-08
-6.70569e-05
-0.000182286
1.01821e-06
-6.70856e-05
-0.000182338
1.87404e-06
-6.65682e-05
-0.00018158
2.20112e-06
-6.55098e-05
-0.000180089
1.78009e-06
-6.41844e-05
-0.000178222
-6.21103e-05
-0.000175407
-3.25907e-06
-0.000225874
-7.30548e-05
-3.84145e-06
-0.000231397
-7.64227e-05
-3.20608e-06
-0.000235019
-7.83542e-05
-1.79371e-06
-0.000237809
-7.98563e-05
-9.75641e-08
-0.00023924
-8.05801e-05
1.59663e-06
-0.000239306
-8.06126e-05
3.01098e-06
-0.000238019
-7.99568e-05
3.66545e-06
-0.000235381
-7.85284e-05
3.16325e-06
-0.00023193
-7.66956e-05
-0.000226477
-7.33694e-05
-8.3967e-07
-2.60687e-05
-7.90984e-05
-1.11798e-06
-2.6949e-05
-7.98318e-05
-1.01345e-06
-2.74184e-05
-8.01946e-05
-6.13932e-07
-2.77856e-05
-8.05081e-05
-5.05525e-08
-2.79923e-05
-8.06995e-05
5.15884e-07
-2.80037e-05
-8.07213e-05
9.25759e-07
-2.782e-05
-8.05729e-05
1.04826e-06
-2.74766e-05
-8.02995e-05
8.00933e-07
-2.70321e-05
-7.99709e-05
-2.61586e-05
-7.92546e-05
-1.07815e-06
-5.36018e-05
-8.84016e-05
-1.47687e-06
-5.51241e-05
-8.95679e-05
-1.3429e-06
-5.6169e-05
-9.01376e-05
-8.04486e-07
-5.70096e-05
-9.06019e-05
-6.0698e-08
-5.7467e-05
-9.08742e-05
6.86209e-07
-5.74895e-05
-9.08993e-05
1.23427e-06
-5.70795e-05
-9.06776e-05
1.38896e-06
-5.62872e-05
-9.02613e-05
1.02835e-06
-5.52914e-05
-8.97344e-05
-5.37853e-05
-8.85827e-05
-1.89453e-06
-8.29394e-05
-0.000108084
-2.44056e-06
-8.5557e-05
-0.000109916
-2.13805e-06
-8.74295e-05
-0.000110993
-1.24655e-06
-8.89116e-05
-0.000111841
-8.32033e-08
-8.9684e-05
-0.000112307
1.08093e-06
-8.97183e-05
-0.000112338
1.98183e-06
-8.90172e-05
-0.000111937
2.30829e-06
-8.76118e-05
-0.000111153
1.82078e-06
-8.58217e-05
-0.000110139
-8.3233e-05
-0.000108327
-3.62504e-06
-0.0001126
-0.000141705
-4.28383e-06
-0.000117397
-0.000145355
-3.57618e-06
-0.000120414
-0.000147549
-2.0141e-06
-0.000122715
-0.000149185
-1.18551e-07
-0.000123847
-0.000150024
1.77569e-06
-0.000123889
-0.000150065
3.34171e-06
-0.000122853
-0.000149314
4.07473e-06
-0.000120658
-0.000147775
3.51236e-06
-0.000117779
-0.000145691
-0.000113032
-0.00014208
-6.80746e-06
-0.000194076
-0.000137574
-7.4637e-06
-0.000202183
-0.000145952
-5.95212e-06
-0.000206568
-0.000150381
-3.23181e-06
-0.000209625
-0.000153626
-1.66396e-07
-0.000211069
-0.000155089
2.88984e-06
-0.000211123
-0.000155137
5.60195e-06
-0.0002098
-0.000153786
7.12605e-06
-0.000206891
-0.000150669
6.62564e-06
-0.000202727
-0.000146469
-0.00019469
-0.000138175
-1.05367e-06
-3.54768e-05
-4.25983e-05
-1.44572e-06
-3.66308e-05
-4.28402e-05
-1.32125e-06
-3.73149e-05
-4.30357e-05
-8.02513e-07
-3.78487e-05
-4.32091e-05
-7.24882e-08
-3.8143e-05
-4.33176e-05
6.6196e-07
-3.81572e-05
-4.33289e-05
1.19356e-06
-3.78926e-05
-4.32431e-05
1.34412e-06
-3.73898e-05
-4.30908e-05
9.95427e-07
-3.67385e-05
-4.29136e-05
-3.55939e-05
-4.2682e-05
-1.41888e-06
-7.39989e-05
-4.84824e-05
-1.9781e-06
-7.61749e-05
-4.94885e-05
-1.79775e-06
-7.77662e-05
-4.98901e-05
-1.07385e-06
-7.90216e-05
-5.01773e-05
-8.53041e-08
-7.9686e-05
-5.03428e-05
9.06241e-07
-7.97152e-05
-5.03567e-05
1.64289e-06
-7.9112e-05
-5.02189e-05
1.85075e-06
-7.79228e-05
-4.99599e-05
1.34601e-06
-7.64021e-05
-4.95858e-05
-7.42504e-05
-4.85852e-05
-2.71683e-06
-0.000117562
-6.18105e-05
-3.45459e-06
-0.00012178
-6.35834e-05
-2.98116e-06
-0.000124817
-6.44279e-05
-1.7161e-06
-0.000127135
-6.50065e-05
-1.14687e-07
-0.0001283
-6.53082e-05
1.48731e-06
-0.000128344
-6.53257e-05
2.76126e-06
-0.000127276
-6.50609e-05
3.26509e-06
-0.000125068
-6.45231e-05
2.61113e-06
-0.000122163
-6.37267e-05
-0.000117995
-6.19646e-05
-5.64257e-06
-0.000166589
-8.70236e-05
-6.44031e-06
-0.000175443
-9.08985e-05
-5.22193e-06
-0.000180808
-9.27855e-05
-2.87628e-06
-0.000184684
-9.39939e-05
-1.60959e-07
-0.000186491
-9.45608e-05
2.54826e-06
-0.000186548
-9.4584e-05
4.89041e-06
-0.000184874
-9.4069e-05
6.13115e-06
-0.00018116
-9.29284e-05
5.47497e-06
-0.000176049
-9.1144e-05
-0.000167285
-8.72954e-05
-1.16509e-05
-0.000133473
-0.000215554
-1.18923e-05
-0.000143675
-0.000233715
-9.04372e-06
-0.000147942
-0.000242302
-4.72897e-06
-0.000150402
-0.000248246
-2.22481e-07
-0.000151406
-0.000250688
4.26346e-06
-0.000151433
-0.000250748
8.53937e-06
-0.0001505
-0.00024847
1.13609e-05
-0.000148156
-0.000242731
1.13718e-05
-0.000144149
-0.000234615
-0.000133996
-0.000216609
-1.05624e-06
-4.15614e-05
-1.57054e-06
-4.23461e-05
-1.47391e-06
-4.31523e-05
-9.00219e-07
-4.38029e-05
-8.28617e-08
-4.41544e-05
7.3865e-07
-4.41701e-05
1.32708e-06
-4.38511e-05
1.45246e-06
-4.32359e-05
9.88115e-07
-4.24672e-05
-4.16993e-05
-1.54315e-06
-8.8513e-05
-2.24783e-06
-9.11438e-05
-2.06676e-06
-9.32378e-05
-1.2308e-06
-9.48306e-05
-9.7389e-08
-9.56451e-05
1.03885e-06
-9.56775e-05
1.88729e-06
-9.4933e-05
2.09801e-06
-9.342e-05
1.45682e-06
-9.14208e-05
-8.88271e-05
-3.35403e-06
-0.00014697
-4.20241e-06
-0.000153886
-3.57374e-06
-0.000158303
-2.02577e-06
-0.000161396
-1.30644e-07
-0.000162859
1.76269e-06
-0.000162907
3.31505e-06
-0.000161557
3.97142e-06
-0.000158607
3.22456e-06
-0.000154401
-0.00014756
-7.92894e-06
-0.000226064
-8.44815e-06
-0.000244271
-6.55167e-06
-0.000252999
-3.49051e-06
-0.000258465
-1.81906e-07
-0.000260743
3.11193e-06
-0.000260801
6.14811e-06
-0.000258673
8.03454e-06
-0.000253431
7.71052e-06
-0.000245212
-0.000227137
-1.93986e-05
-0.00034013
-1.72472e-05
-0.000390123
-1.19496e-05
-0.000406266
-5.86733e-06
-0.000414981
-2.48615e-07
-0.0004178
5.33103e-06
-0.00041784
1.13034e-05
-0.000415178
1.64818e-05
-0.000406776
1.90032e-05
-0.000391887
-0.000342124
-5.17565e-05
-0.000517887
0.000229441
-3.72341e-05
-0.000665305
0.000260619
-2.08675e-05
-0.000693826
0.000271127
-9.10523e-06
-0.00070341
0.000276595
-2.95777e-07
-0.000705105
0.000278427
8.40372e-06
-0.000705077
0.000278459
1.98613e-05
-0.000703424
0.000276735
3.57275e-05
-0.000694205
0.000271503
5.09442e-05
-0.000668852
0.000261759
-0.000521962
0.000230756
-0.000109814
-0.000785457
0.000377339
-7.47175e-05
-0.00113859
0.0004381
-3.54133e-05
-0.00118907
0.000455849
-1.42643e-05
-0.0011883
0.000463653
-3.87664e-07
-0.00118458
0.000465495
1.33025e-05
-0.00118435
0.000465494
3.36809e-05
-0.00118761
0.000463714
7.18999e-05
-0.00118868
0.000456216
0.000108315
-0.00114518
0.000439846
-0.000793004
0.000379317
-0.000283195
-0.00111181
0.00060949
-0.000145066
-0.00203535
0.000758499
-4.04309e-05
-0.00209318
0.000799382
-1.04996e-05
-0.00203616
0.000817807
-6.96491e-08
-0.00201607
0.000820952
1.00281e-05
-0.00201548
0.000820928
3.82303e-05
-0.00203382
0.000817887
0.000139793
-0.00209048
0.000800211
0.000279783
-0.00204723
0.00076194
-0.00112773
0.000614466
-0.000318566
-0.00174804
0.000954602
-0.00013092
-0.00307762
0.000854442
-3.68487e-05
-0.00312536
0.000937905
-8.78273e-06
-0.00304554
0.000981114
-9.86729e-08
-0.00301765
0.000992698
8.35054e-06
-0.00301691
0.000992754
3.51358e-05
-0.00304256
0.000981785
0.000126593
-0.00312186
0.000939653
0.000314286
-0.00309022
0.000855205
-0.00177023
0.000956699
0.000340971
-0.00208913
0.000177728
-0.00291454
5.69396e-05
-0.00300475
1.66164e-05
-0.0030054
1.65114e-07
-0.00300137
-1.58497e-05
-0.00300107
-5.40778e-05
-0.00300454
-0.000171396
-0.00300469
-0.000336362
-0.00292539
-0.00210665
-2.39486e-05
-0.000231795
0.000269647
-2.0277e-05
-0.000266675
0.000289871
-1.37113e-05
-0.000276128
0.000298359
-6.59182e-06
-0.000282694
0.000303889
-2.59562e-07
-0.00028482
0.000306193
6.01758e-06
-0.00028486
0.000306257
1.30265e-05
-0.000282893
0.000304122
1.94678e-05
-0.000276474
0.000298818
2.35225e-05
-0.000267792
0.00029084
-0.000233057
0.000270735
-4.80212e-05
-0.000209239
0.000402681
-4.10032e-05
-0.000277762
0.000442121
-2.69472e-05
-0.000292659
0.000458265
-1.2678e-05
-0.000301961
0.000468578
-4.438e-07
-0.000304219
0.000472586
1.16921e-05
-0.000304243
0.000472674
2.57225e-05
-0.000302158
0.000468909
3.95109e-05
-0.000293066
0.000458929
4.71361e-05
-0.00027928
0.000443707
-0.000211195
0.000404533
-5.07202e-05
1.27641e-05
0.000438111
-3.58032e-05
-6.95214e-05
0.000535249
-1.48459e-05
-6.64447e-05
0.000552095
-5.4293e-06
-5.44985e-05
0.000560816
-1.43969e-07
-5.11335e-05
0.000562468
5.05631e-06
-5.10945e-05
0.000562468
1.39852e-05
-5.42373e-05
0.000560926
3.45926e-05
-6.60447e-05
0.00055251
4.99353e-05
-7.02599e-05
0.000537464
1.23052e-05
0.000440823
-0.000134323
0.000264439
0.000837098
-0.000104122
-0.000155746
0.000910348
-5.70353e-05
-0.000142076
0.000966331
-2.48397e-05
-0.000102766
0.00099706
-8.0287e-07
-8.92175e-05
0.00100662
2.30286e-05
-8.90124e-05
0.00100672
5.4789e-05
-0.000101977
0.000997636
0.000102201
-0.000141441
0.000967527
0.000132055
-0.000157794
0.000912775
0.000259534
0.000841427
0.000219113
-0.00204392
0.000121771
-0.00297304
4.30589e-05
-0.00306822
1.30626e-05
-0.00307828
1.70843e-07
-0.00307781
-1.23796e-05
-0.00307765
-4.10656e-05
-0.00307794
-0.000117953
-0.00306933
-0.000216591
-0.00298463
-0.00206376
-1.16848e-05
-0.000140181
0.000283914
-1.07281e-05
-0.000152182
0.00029515
-7.88382e-06
-0.000155687
0.000300822
-4.02661e-06
-0.000158512
0.000304918
-1.85596e-07
-0.00015958
0.000306843
3.63166e-06
-0.00015961
0.000306914
7.45768e-06
-0.000158644
0.000305158
1.02699e-05
-0.000155907
0.000301248
1.14549e-05
-0.000152667
0.000295882
-0.000140722
0.000284723
-2.41756e-05
-0.000116667
0.000403333
-2.23613e-05
-0.000134953
0.000423066
-1.63517e-05
-0.00013774
0.000434296
-8.25749e-06
-0.000140514
0.00044248
-3.48355e-07
-0.000141173
0.000446263
7.5199e-06
-0.000141199
0.000446389
1.55243e-05
-0.00014064
0.000442894
2.14734e-05
-0.000137951
0.000435048
2.36527e-05
-0.000135524
0.000424353
-0.000117402
0.000404845
-1.66251e-05
-2.07971e-06
0.000340077
-1.1179e-05
2.23477e-05
0.000372458
-5.49074e-06
2.90348e-05
0.000379589
-2.2957e-06
3.31712e-05
0.000383891
-8.49472e-08
3.40683e-05
0.000384973
2.10257e-06
3.40517e-05
0.000384982
5.16186e-06
3.31821e-05
0.000384018
1.06543e-05
2.91641e-05
0.000379844
1.63856e-05
2.27085e-05
0.000373446
-1.24164e-06
0.000341
-6.6797e-05
0.000302182
0.000599512
-5.05463e-05
0.000315386
0.000600957
-3.13289e-05
0.000351627
0.000624419
-1.49498e-05
0.000371319
0.00064242
-6.52079e-07
0.000377142
0.000649122
1.35329e-05
0.000377158
0.000649314
2.96795e-05
0.000371439
0.000643109
4.89533e-05
0.00035171
0.000625607
6.53808e-05
0.000316405
0.000602539
0.000303675
0.000601791
8.279e-05
-0.00182462
4.33112e-05
-0.00261825
1.48687e-05
-0.00268823
4.06177e-06
-0.00269623
6.49244e-08
-0.00269675
-3.79575e-06
-0.00269672
-1.40944e-05
-0.00269627
-4.20634e-05
-0.00268972
-8.19332e-05
-0.00262844
-0.00184207
-4.77145e-06
-7.32018e-05
0.000288855
-4.79445e-06
-7.7117e-05
0.000295889
-3.80401e-06
-7.83054e-05
0.000299808
-2.05168e-06
-7.94888e-05
0.00030283
-1.09697e-07
-8.00157e-05
0.000304363
1.82925e-06
-8.0038e-05
0.000304438
3.57797e-06
-7.95776e-05
0.00030306
4.57358e-06
-7.84415e-05
0.000300201
4.66226e-06
-7.73501e-05
0.000296482
-7.34709e-05
0.000289501
-1.05534e-05
-5.8763e-05
0.000399448
-1.06335e-05
-6.69714e-05
0.000413036
-8.29935e-06
-6.84856e-05
0.000422181
-4.4098e-06
-6.99143e-05
0.000429059
-2.15532e-07
-7.03637e-05
0.000432473
3.96099e-06
-7.0393e-05
0.00043261
7.83119e-06
-7.00079e-05
0.000429509
1.01644e-05
-6.86502e-05
0.000422964
1.02728e-05
-6.72959e-05
0.000414226
-5.91864e-05
0.000400837
-3.90447e-06
-4.063e-05
0.000325819
-2.86167e-06
-3.34741e-05
0.000337932
-1.92997e-06
-3.10096e-05
0.000341208
-1.02304e-06
-3.06439e-05
0.000343742
-5.83177e-08
-3.10101e-05
0.000344666
9.10548e-07
-3.10436e-05
0.000344698
1.79712e-06
-3.07507e-05
0.00034388
2.69807e-06
-3.11065e-05
0.000341427
3.81376e-06
-3.33972e-05
0.000338442
-4.07012e-05
0.00032628
-3.4136e-05
9.30062e-05
0.000499906
-2.60374e-05
8.02412e-05
0.000479095
-1.71707e-05
8.99683e-05
0.00049452
-8.42283e-06
9.50108e-05
0.00050795
-4.36027e-07
9.64885e-05
0.00051358
7.48324e-06
9.64808e-05
0.000513783
1.61315e-05
9.50159e-05
0.000508643
2.50333e-05
8.98815e-05
0.000495664
3.32702e-05
8.03423e-05
0.000480471
9.29462e-05
0.000501329
2.02693e-05
-0.00175195
9.57136e-06
-0.00252737
2.57155e-06
-0.00259133
3.08983e-07
-0.00259902
2.09747e-08
-0.00260005
-2.13308e-07
-0.00260007
-2.3142e-06
-0.00259922
-9.25926e-06
-0.00259296
-2.00741e-05
-0.00253736
-0.00176924
-7.1417e-07
-1.35947e-05
0.000286731
-8.84574e-07
-1.3004e-05
0.00029235
-8.56487e-07
-1.24638e-05
0.000295385
-5.17026e-07
-1.23901e-05
0.000297804
-3.21079e-08
-1.23986e-05
0.000299081
4.50608e-07
-1.24163e-05
0.000299152
7.99541e-07
-1.24255e-05
0.000298029
8.3609e-07
-1.25159e-05
0.000295757
6.87755e-07
-1.30519e-05
0.000292881
-1.36634e-05
0.000287311
-8.43421e-07
-1.95104e-05
0.000406246
-1.50316e-06
-1.87846e-05
0.000419556
-1.60866e-06
-1.84664e-05
0.000428381
-1.00265e-06
-1.88172e-05
0.000434987
-7.38119e-08
-1.90452e-05
0.000438283
8.66354e-07
-1.90624e-05
0.000438433
1.4797e-06
-1.88934e-05
0.000435453
1.40657e-06
-1.85779e-05
0.000429194
7.68219e-07
-1.8887e-05
0.00042079
-1.97348e-05
0.000407687
1.83707e-06
-2.19161e-05
0.00032636
1.18425e-06
-1.61538e-05
0.000336024
3.18278e-07
-1.50725e-05
0.000338758
-3.54425e-08
-1.55747e-05
0.00034092
-1.67545e-08
-1.60874e-05
0.000341779
-1.22884e-08
-1.61398e-05
0.00034182
-3.18538e-07
-1.56991e-05
0.000341072
-1.16361e-06
-1.52433e-05
0.000339014
-1.86522e-06
-1.62142e-05
0.000336493
-2.21925e-05
0.00032683
2.48679e-07
-1.48108e-05
0.000492513
-2.73793e-06
-2.10635e-05
0.00048695
-3.9816e-06
-2.24373e-05
0.000503105
-2.67514e-06
-2.41031e-05
0.000515152
-2.23728e-07
-2.48286e-05
0.000519807
2.23476e-06
-2.48313e-05
0.000519993
3.591e-06
-2.41874e-05
0.000515735
2.47841e-06
-2.26218e-05
0.000504131
-5.3843e-07
-2.13745e-05
0.000488564
-1.54668e-05
0.000493995
-1.40616e-06
-0.00176547
-2.7133e-06
-0.00254719
-2.44296e-06
-0.0026141
-1.42781e-06
-0.00262422
-9.29238e-09
-0.00262636
1.41442e-06
-0.0026264
2.45491e-06
-0.00262451
2.71718e-06
-0.00261591
1.4344e-06
-0.00255752
-0.00178335
2.27916e-06
4.88188e-05
0.000274912
2.10139e-06
5.41505e-05
0.000280242
1.47286e-06
5.66933e-05
0.000282677
7.36985e-07
5.81681e-05
0.000284678
3.98216e-08
5.87515e-05
0.000285742
-6.506e-07
5.87608e-05
0.000285813
-1.38219e-06
5.81923e-05
0.000284884
-2.00786e-06
5.67649e-05
0.000283015
-2.23043e-06
5.43396e-05
0.000280723
4.90091e-05
0.000275438
8.68627e-06
2.1517e-05
0.000424893
7.35172e-06
3.44466e-05
0.000440726
4.80245e-06
3.75173e-05
0.000450243
2.26937e-06
3.85645e-05
0.000457262
8.19883e-08
3.86618e-05
0.000460721
-2.09089e-06
3.86212e-05
0.000460878
-4.58257e-06
3.8522e-05
0.000457762
-7.07387e-06
3.74625e-05
0.000451118
-8.55833e-06
3.46242e-05
0.000442108
2.15784e-05
0.000426577
6.82117e-06
1.93136e-05
0.000321839
4.62226e-06
3.95377e-05
0.000333192
2.28844e-06
4.37046e-05
0.00033501
8.79524e-07
4.42283e-05
0.000336782
2.82284e-08
4.38929e-05
0.000337471
-8.04702e-07
4.38687e-05
0.000337517
-2.17102e-06
4.40961e-05
0.000336944
-4.45676e-06
4.36077e-05
0.000335271
-6.77078e-06
3.97994e-05
0.000333624
1.92881e-05
0.000322354
4.57793e-05
-0.000120182
0.000586066
2.50209e-05
-9.36735e-05
0.000640917
9.44614e-06
-9.98594e-05
0.000662202
3.02599e-06
-0.000108849
0.000674593
4.84647e-09
-0.000112382
0.000679079
-2.98897e-06
-0.000112459
0.000679253
-9.1157e-06
-0.000109216
0.000675169
-2.43332e-05
-0.000100491
0.000663363
-4.57643e-05
-9.40591e-05
0.00064382
-0.000121714
0.000589117
-2.11217e-05
-0.00186458
-1.54242e-05
-0.00264665
-8.07406e-06
-0.00272138
-3.46481e-06
-0.00273774
-6.42962e-08
-0.00274222
3.3417e-06
-0.00274232
7.82188e-06
-0.00273829
1.50654e-05
-0.00272368
2.10691e-05
-0.00265771
-0.00188403
4.98275e-06
0.000123977
0.000245168
4.62287e-06
0.000136116
0.000249813
3.43196e-06
0.000141142
0.000251292
1.79871e-06
0.000144342
0.000252714
1.11414e-07
0.000145683
0.000253489
-1.57472e-06
0.000145705
0.000253546
-3.20419e-06
0.000144457
0.000252888
-4.40787e-06
0.000141369
0.000251562
-4.86346e-06
0.000136612
0.000250194
0.000124554
0.00024559
2.06199e-05
8.78845e-05
0.000440516
1.73662e-05
0.000125162
0.000455063
1.17666e-05
0.000133181
0.000463966
5.7344e-06
0.000136847
0.000470969
2.39994e-07
0.000137627
0.000474426
-5.21157e-06
0.000137629
0.000474585
-1.11621e-05
0.000136844
0.000471474
-1.66512e-05
0.000133313
0.000464842
-2.02049e-05
0.000125965
0.000456409
8.86826e-05
0.000442321
1.25147e-05
0.000101794
0.000295396
8.11966e-06
0.000159096
0.000303773
4.1424e-06
0.000170082
0.000302187
1.69958e-06
0.0001735
0.000302663
8.60713e-08
0.000173988
0.000302843
-1.51916e-06
0.000173941
0.000302888
-3.8792e-06
0.000173481
0.000302799
-7.81827e-06
0.00017023
0.000302332
-1.23376e-05
0.000160225
0.000303972
0.000102935
0.000295739
0.00012442
-0.000235631
0.000799086
6.95688e-05
-6.62715e-05
0.000921061
2.85479e-05
-6.95563e-05
0.000942804
1.05012e-05
-9.17136e-05
0.000957805
2.5336e-07
-0.000100717
0.000963957
-9.84608e-06
-0.00010092
0.000964195
-2.72436e-05
-9.26661e-05
0.000958619
-6.7227e-05
-7.07282e-05
0.000944296
-0.00012313
-6.46868e-05
0.000924496
-0.000236006
0.000804884
-6.01998e-05
-0.0020401
-4.07458e-05
-0.00273245
-1.93872e-05
-0.00281238
-7.69705e-06
-0.00284123
-1.3208e-07
-0.00285057
7.32412e-06
-0.00285078
1.85821e-05
-0.00284227
3.94465e-05
-0.00281537
5.96477e-05
-0.00274265
-0.00206041
7.03978e-06
0.000214652