/*--------------------------------*- C++ -*----------------------------------*\
| =========                 |                                                 |
| \\      /  F ield         | OpenFOAM: The Open Source CFD Toolbox           |
|  \\    /   O peration     | Version:  2.3.1                                 |
|   \\  /    A nd           | Web:      www.OpenFOAM.org                      |
|    \\/     M anipulation  |                                                 |
\*---------------------------------------------------------------------------*/
FoamFile
{
    version     2.0;
    format      ascii;
    class       volVectorField;
    location    "0.77";
    object      U;
}
// * * * * * * * * * * * * * * * * * * * * * * * * * * * * * * * * * * * * * //

dimensions      [0 1 -1 0 0 0 0];

internalField   nonuniform List<vector> 
1000
(
(-0.00156309 0.00231474 0.000394947)
(-0.00190668 0.00202985 0.00032386)
(-0.00194785 0.00201783 0.000128695)
(-0.00198958 0.00199409 0.000127763)
(-0.00199843 0.00199645 4.78676e-05)
(-0.00200296 0.00199321 1.9482e-06)
(-0.00200334 0.00198445 -3.8493e-05)
(-0.00200267 0.00197169 -5.7673e-05)
(-0.00200283 0.00195814 -4.83366e-05)
(-0.00200322 0.00194881 -1.96959e-05)
(-0.00212199 0.00615976 9.72668e-05)
(-0.00223511 0.00598235 0.000103547)
(-0.00225173 0.00604085 0.000119603)
(-0.00227046 0.00604382 0.0001111)
(-0.00227707 0.0060657 4.98189e-05)
(-0.00227997 0.00606229 -8.42512e-06)
(-0.00227933 0.00603561 -5.86122e-05)
(-0.00227774 0.00599092 -8.25653e-05)
(-0.00227289 0.00594133 -5.93699e-05)
(-0.00221777 0.00589611 -2.2368e-05)
(-0.00262945 0.0104897 0.000103003)
(-0.00272979 0.0105849 0.00017965)
(-0.00274494 0.0106931 0.000188817)
(-0.00275725 0.0107685 0.000152457)
(-0.00276378 0.010817 6.69766e-05)
(-0.00276583 0.0108166 -2.75428e-05)
(-0.00276366 0.010768 -0.000109423)
(-0.00276009 0.0106806 -0.000152042)
(-0.00275221 0.010583 -0.000124249)
(-0.0026821 0.0104647 -5.40516e-05)
(-0.00346681 0.0171603 0.000131688)
(-0.00355291 0.0174992 0.000282136)
(-0.00356315 0.0178067 0.000304206)
(-0.00357183 0.0180438 0.000234815)
(-0.00357824 0.0181705 9.78161e-05)
(-0.00357979 0.0181743 -5.73747e-05)
(-0.00357644 0.0180558 -0.000194497)
(-0.00357238 0.0178226 -0.000268695)
(-0.00356589 0.0175274 -0.000247917)
(-0.00348925 0.0171663 -0.000108698)
(-0.00514665 0.0175694 0.000455003)
(-0.00530425 0.0178087 0.000787266)
(-0.00534725 0.0178821 0.000734553)
(-0.00537522 0.0179859 0.000515388)
(-0.00539191 0.0180406 0.00019709)
(-0.00539365 0.0180412 -0.000142099)
(-0.0053804 0.0179883 -0.000460437)
(-0.00535643 0.0178819 -0.000681719)
(-0.00531745 0.0178111 -0.000742915)
(-0.00516372 0.0175649 -0.000434221)
(-0.00538607 0.00179015 7.36259e-05)
(-0.00563787 0.00182533 7.16672e-05)
(-0.00563979 0.00184898 7.79255e-05)
(-0.00569121 0.00184897 8.45876e-05)
(-0.0057029 0.00185388 3.82556e-05)
(-0.00570908 0.00185229 -1.61236e-06)
(-0.00570704 0.00184422 -3.79212e-05)
(-0.00570126 0.00183144 -5.76421e-05)
(-0.00569498 0.00181345 -6.06088e-05)
(-0.00566393 0.00174882 -2.78e-05)
(-0.00620741 0.00528289 5.09964e-05)
(-0.00631821 0.00538463 8.21266e-05)
(-0.00632722 0.00545728 0.000104583)
(-0.0063543 0.00548833 9.30882e-05)
(-0.00636604 0.00551163 4.40549e-05)
(-0.00637032 0.00551034 -9.19422e-06)
(-0.00636595 0.00548549 -5.63477e-05)
(-0.00635722 0.0054423 -8.14449e-05)
(-0.0063429 0.00538879 -7.43421e-05)
(-0.00625282 0.00528113 -3.24068e-05)
(-0.00742876 0.00929787 8.75781e-05)
(-0.00756816 0.00944655 0.000167969)
(-0.00759544 0.009559 0.000176217)
(-0.0076231 0.00964309 0.00013903)
(-0.00763894 0.00969125 6.14208e-05)
(-0.00764249 0.00969163 -2.62896e-05)
(-0.00763358 0.00964469 -0.000104062)
(-0.00761755 0.00955814 -0.000147991)
(-0.00759427 0.00945691 -0.000143337)
(-0.00748371 0.00931394 -6.73281e-05)
(-0.00950081 0.0148089 0.00015641)
(-0.00964404 0.0151404 0.000316862)
(-0.00967686 0.01542 0.000301979)
(-0.00970805 0.0156402 0.000225566)
(-0.00972826 0.0157562 9.27708e-05)
(-0.00973147 0.0157598 -5.53367e-05)
(-0.00971733 0.0156518 -0.000189315)
(-0.00969378 0.0154387 -0.000270145)
(-0.00966524 0.0151724 -0.000292221)
(-0.00953174 0.0148435 -0.000142517)
(-0.0135288 0.0153412 0.000425135)
(-0.0137982 0.0158552 0.000757656)
(-0.0139138 0.0160108 0.000680105)
(-0.0140035 0.0161472 0.000474848)
(-0.0140546 0.0162131 0.000180806)
(-0.0140589 0.0162141 -0.000130444)
(-0.0140164 0.0161509 -0.000424796)
(-0.0139356 0.0160155 -0.000632063)
(-0.0138281 0.015867 -0.000719439)
(-0.013566 0.0153515 -0.000408576)
(-0.00881491 0.00142098 8.23752e-05)
(-0.00889206 0.00144272 0.00011378)
(-0.00889414 0.00145506 7.74101e-05)
(-0.00892659 0.00145874 6.60625e-05)
(-0.00894061 0.00146284 3.11837e-05)
(-0.00894523 0.00146193 -1.68441e-06)
(-0.00893879 0.00145548 -3.08099e-05)
(-0.00892457 0.00144491 -4.75949e-05)
(-0.00890676 0.0014298 -5.41107e-05)
(-0.00883301 0.00137514 -2.62547e-05)
(-0.00968756 0.00418744 5.58309e-05)
(-0.00976263 0.00424691 9.54675e-05)
(-0.00978291 0.00429341 9.24524e-05)
(-0.0098132 0.00432128 7.56664e-05)
(-0.00983042 0.00433954 3.61327e-05)
(-0.00983457 0.00433878 -7.34368e-06)
(-0.00982474 0.00431848 -4.58234e-05)
(-0.00980516 0.00428268 -6.74055e-05)
(-0.00978075 0.00423707 -6.70391e-05)
(-0.00970096 0.00413951 -3.12167e-05)
(-0.0114385 0.0072522 7.58785e-05)
(-0.01154 0.00737729 0.000149148)
(-0.0115825 0.00746989 0.000147602)
(-0.0116248 0.00754201 0.000113347)
(-0.0116503 0.00758198 4.99649e-05)
(-0.0116544 0.0075823 -2.13633e-05)
(-0.0116368 0.00754287 -8.51918e-05)
(-0.0116035 0.00746919 -0.000122911)
(-0.0115639 0.00737976 -0.000126285)
(-0.0114687 0.00724501 -6.11035e-05)
(-0.014305 0.0111517 0.000139542)
(-0.0144497 0.0114499 0.00027879)
(-0.0145195 0.011675 0.000256667)
(-0.0145838 0.0118497 0.000187815)
(-0.0146222 0.0119409 7.65483e-05)
(-0.0146266 0.0119436 -4.60973e-05)
(-0.0145967 0.0118582 -0.000158411)
(-0.0145409 0.0116891 -0.000230077)
(-0.0144767 0.0114724 -0.00025816)
(-0.0143363 0.0111748 -0.000129353)
(-0.0192385 0.0118027 0.000351151)
(-0.0195112 0.0122765 0.000630786)
(-0.0196891 0.0124471 0.000548503)
(-0.0198385 0.0125768 0.000378899)
(-0.0199212 0.0126381 0.000143704)
(-0.0199274 0.0126388 -0.000103889)
(-0.0198572 0.0125798 -0.00033936)
(-0.0197201 0.0124519 -0.000510246)
(-0.0195534 0.0122882 -0.000601259)
(-0.0192885 0.0118137 -0.000339152)
(-0.0110356 0.000909171 3.58753e-05)
(-0.0111783 0.000933268 5.59402e-05)
(-0.0112105 0.000941429 4.58936e-05)
(-0.011247 0.000945743 3.83093e-05)
(-0.0112667 0.000948657 1.97037e-05)
(-0.0112713 0.000948135 2.41918e-07)
(-0.0112608 0.000943943 -1.73194e-05)
(-0.0112391 0.000937099 -2.78501e-05)
(-0.0112118 0.000927646 -3.32035e-05)
(-0.0111118 0.000895179 -1.65387e-05)
(-0.012111 0.00270519 2.92743e-05)
(-0.0122263 0.00275564 5.55042e-05)
(-0.0122662 0.00278554 5.73951e-05)
(-0.0123057 0.0028064 4.66614e-05)
(-0.0123294 0.00281861 2.32569e-05)
(-0.0123339 0.00281814 -3.2854e-06)
(-0.012319 0.00280473 -2.69894e-05)
(-0.0122898 0.00278106 -4.04098e-05)
(-0.0122543 0.00275111 -3.93631e-05)
(-0.0121522 0.00269096 -1.75826e-05)
(-0.0141892 0.00468255 4.38278e-05)
(-0.0143185 0.00476774 9.13602e-05)
(-0.0143816 0.00483104 9.39775e-05)
(-0.0144391 0.00488099 7.2133e-05)
(-0.0144735 0.004908 3.23359e-05)
(-0.0144782 0.0049081 -1.26538e-05)
(-0.0144529 0.00488124 -5.31984e-05)
(-0.0144048 0.00483093 -7.74194e-05)
(-0.014348 0.0047689 -7.77537e-05)
(-0.0142259 0.00468055 -3.59693e-05)
(-0.0174656 0.00700872 8.78824e-05)
(-0.0176559 0.00720423 0.000180659)
(-0.0177612 0.00735179 0.000170039)
(-0.0178533 0.00746488 0.000123582)
(-0.0179069 0.00752354 5.04433e-05)
(-0.0179122 0.007525 -2.97873e-05)
(-0.017869 0.00746957 -0.000103776)
(-0.0177867 0.00735994 -0.000152174)
(-0.0176895 0.00721739 -0.000167462)
(-0.0175039 0.00702307 -8.18141e-05)
(-0.0225044 0.00756133 0.00021877)
(-0.0228523 0.00787511 0.000404577)
(-0.0230776 0.0080123 0.000354678)
(-0.023263 0.00810851 0.000243638)
(-0.023365 0.00815343 9.23474e-05)
(-0.0233723 0.00815375 -6.64818e-05)
(-0.0232848 0.00810991 -0.000217998)
(-0.0231138 0.00801531 -0.000329922)
(-0.0229018 0.00788282 -0.000386139)
(-0.0225613 0.00756896 -0.000211657)
(-0.012325 0.000363031 1.14274e-05)
(-0.0124507 0.000371764 1.63109e-05)
(-0.0124902 0.000374126 1.14042e-05)
(-0.0125272 0.000375261 9.95426e-06)
(-0.0125495 0.000375935 6.90652e-06)
(-0.0125537 0.000375568 4.20378e-06)
(-0.0125398 0.000374051 1.32575e-06)
(-0.0125124 0.000371692 -1.13116e-06)
(-0.0124784 0.000368361 -5.09928e-06)
(-0.0123656 0.000356834 -3.41374e-06)
(-0.013463 0.00108941 8.85608e-06)
(-0.0135809 0.00110713 1.53057e-05)
(-0.01363 0.00111729 1.48231e-05)
(-0.013675 0.0011243 1.25547e-05)
(-0.0137028 0.00112816 8.00436e-06)
(-0.0137072 0.00112765 3.0587e-06)
(-0.0136881 0.0011226 -1.82016e-06)
(-0.0136516 0.00111393 -5.29442e-06)
(-0.0136082 0.0011027 -6.67793e-06)
(-0.0134965 0.00108099 -3.32291e-06)
(-0.015686 0.00189783 1.38249e-05)
(-0.0158236 0.00193082 2.79449e-05)
(-0.0158995 0.00195621 2.78712e-05)
(-0.0159678 0.00197563 2.14101e-05)
(-0.0160089 0.00198573 1.08824e-05)
(-0.0160136 0.00198532 -7.25535e-07)
(-0.0159821 0.00197437 -1.17306e-05)
(-0.0159227 0.00195403 -1.93725e-05)
(-0.0158535 0.00192824 -2.13218e-05)
(-0.0157204 0.0018936 -1.01976e-05)
(-0.0191198 0.00283477 3.20549e-05)
(-0.0193278 0.00291589 6.50794e-05)
(-0.0194566 0.00297889 5.9315e-05)
(-0.0195684 0.00302554 4.20431e-05)
(-0.019633 0.00304914 1.77559e-05)
(-0.0196386 0.00304924 -8.14481e-06)
(-0.0195852 0.00302604 -3.28652e-05)
(-0.0194839 0.00297998 -5.11037e-05)
(-0.0193638 0.00291835 -5.92302e-05)
(-0.0191601 0.00283753 -2.93726e-05)
(-0.023997 0.00309053 8.69371e-05)
(-0.0243604 0.00323045 0.000160834)
(-0.0246073 0.00330322 0.000137246)
(-0.0248111 0.00335061 9.14128e-05)
(-0.0249235 0.00337206 3.44997e-05)
(-0.0249311 0.00337162 -2.37111e-05)
(-0.0248338 0.00334983 -8.07422e-05)
(-0.024645 0.00330255 -0.000126941)
(-0.0244117 0.00323151 -0.000153384)
(-0.0240548 0.00309156 -8.40926e-05)
(-0.0124771 -0.000204528 -9.29854e-06)
(-0.0126006 -0.000215362 -2.45694e-05)
(-0.012645 -0.000220029 -2.76872e-05)
(-0.0126841 -0.00022385 -2.09044e-05)
(-0.0127081 -0.000226175 -6.82338e-06)
(-0.0127119 -0.000226558 9.92752e-06)
(-0.0126954 -0.000225018 2.39737e-05)
(-0.0126639 -0.000222066 3.07718e-05)
(-0.0126252 -0.000218258 2.79676e-05)
(-0.0125081 -0.00020832 1.19072e-05)
(-0.0136425 -0.000595224 -1.13867e-05)
(-0.0137645 -0.000615722 -2.97474e-05)
(-0.0138208 -0.000628122 -3.45351e-05)
(-0.0138709 -0.000638835 -2.61918e-05)
(-0.0139016 -0.000645188 -8.90594e-06)
(-0.0139057 -0.000645993 1.14599e-05)
(-0.0138831 -0.000641303 2.85912e-05)
(-0.0138406 -0.000632326 3.68157e-05)
(-0.0137902 -0.000621536 3.19997e-05)
(-0.0136723 -0.000602671 1.31246e-05)
(-0.0159256 -0.00097403 -1.85355e-05)
(-0.0160738 -0.000998946 -4.45236e-05)
(-0.0161624 -0.00101783 -4.93546e-05)
(-0.0162406 -0.00103481 -3.73172e-05)
(-0.016287 -0.00104464 -1.34859e-05)
(-0.0162917 -0.00104578 1.415e-05)
(-0.0162545 -0.00103818 3.78082e-05)
(-0.0161849 -0.00102341 4.97843e-05)
(-0.0161032 -0.00100642 4.49e-05)
(-0.0159585 -0.000982722 1.91146e-05)
(-0.019433 -0.00130214 -3.01618e-05)
(-0.0196638 -0.00133527 -6.72888e-05)
(-0.019816 -0.00135919 -7.051e-05)
(-0.0199462 -0.00138154 -5.30145e-05)
(-0.0200202 -0.00139428 -1.98132e-05)
(-0.0200259 -0.00139562 1.80191e-05)
(-0.0199632 -0.00138537 5.11053e-05)
(-0.0198438 -0.00136548 6.86784e-05)
(-0.0197008 -0.00134356 6.59081e-05)
(-0.0194739 -0.00131123 2.98744e-05)
(-0.0242492 -0.00146286 -4.48492e-05)
(-0.0246428 -0.0014938 -9.38444e-05)
(-0.0249168 -0.00150139 -9.63458e-05)
(-0.0251415 -0.00151335 -7.27625e-05)
(-0.0252642 -0.00152054 -2.76619e-05)
(-0.0252717 -0.00152169 2.31821e-05)
(-0.0251641 -0.00151687 6.83029e-05)
(-0.0249544 -0.00150671 9.21906e-05)
(-0.0246944 -0.00150082 9.07892e-05)
(-0.0243069 -0.0014702 4.38898e-05)
(-0.0114804 -0.000776424 -2.89854e-05)
(-0.0115962 -0.00081045 -6.6137e-05)
(-0.011642 -0.000823964 -6.91611e-05)
(-0.0116814 -0.000834292 -5.30878e-05)
(-0.0117055 -0.000840375 -2.08628e-05)
(-0.0117088 -0.000840829 1.68422e-05)
(-0.0116912 -0.000835737 4.9276e-05)
(-0.0116578 -0.000826355 6.62637e-05)
(-0.0116169 -0.000813924 6.44508e-05)
(-0.0115044 -0.000780237 2.87402e-05)
(-0.012622 -0.00229904 -3.40368e-05)
(-0.012746 -0.0023655 -8.043e-05)
(-0.0128075 -0.00240548 -8.92136e-05)
(-0.0128608 -0.00243811 -6.82998e-05)
(-0.0128927 -0.00245666 -2.67853e-05)
(-0.0128964 -0.00245788 2.15407e-05)
(-0.0128716 -0.00244182 6.32337e-05)
(-0.012825 -0.00241169 8.5002e-05)
(-0.0127689 -0.00237423 7.75798e-05)
(-0.0126476 -0.00230879 3.3203e-05)
(-0.0148958 -0.00389343 -5.807e-05)
(-0.0150591 -0.00398909 -0.00013069)
(-0.015161 -0.00406214 -0.000138066)
(-0.0152481 -0.00412298 -0.00010337)
(-0.0152983 -0.00415636 -4.01724e-05)
(-0.0153026 -0.00415832 3.1773e-05)
(-0.0152609 -0.00412896 9.51457e-05)
(-0.0151819 -0.00407212 0.000130723)
(-0.0150868 -0.00400294 0.00012544)
(-0.0149264 -0.00390879 5.6231e-05)
(-0.0184585 -0.00548786 -0.000108531)
(-0.0187319 -0.00565446 -0.000228658)
(-0.0189145 -0.00577709 -0.000223229)
(-0.019065 -0.00587673 -0.000162521)
(-0.0191479 -0.00592945 -6.20516e-05)
(-0.0191533 -0.00593215 4.89935e-05)
(-0.0190813 -0.00588503 0.000149526)
(-0.0189416 -0.00579108 0.000211133)
(-0.0187688 -0.00567425 0.000219955)
(-0.0184993 -0.0055099 0.000105459)
(-0.0234136 -0.00628646 -0.00020292)
(-0.0239031 -0.00653968 -0.000393884)
(-0.0242306 -0.00665836 -0.000361983)
(-0.0244893 -0.0067506 -0.000256304)
(-0.0246256 -0.006795 -9.57257e-05)
(-0.0246326 -0.00679714 7.63446e-05)
(-0.0245111 -0.00675722 0.000236774)
(-0.0242675 -0.00666955 0.000342988)
(-0.0239556 -0.00655765 0.000379965)
(-0.0234725 -0.00630524 0.000198207)
(-0.00934785 -0.00132505 -4.75199e-05)
(-0.00944216 -0.0013877 -0.000106609)
(-0.00948364 -0.00141242 -0.000110114)
(-0.00951911 -0.00143075 -8.43886e-05)
(-0.00954073 -0.00144114 -3.42106e-05)
(-0.00954329 -0.00144176 2.42772e-05)
(-0.00952677 -0.00143261 7.49621e-05)
(-0.00949595 -0.00141557 0.000102301)
(-0.00945847 -0.00139229 0.000101179)
(-0.00936614 -0.00132977 4.55842e-05)
(-0.0103819 -0.00395544 -6.16112e-05)
(-0.0104955 -0.00407904 -0.00013797)
(-0.0105561 -0.0041531 -0.000146892)
(-0.010607 -0.00421204 -0.000111335)
(-0.0106369 -0.00424462 -4.44895e-05)
(-0.0106398 -0.00424633 3.25754e-05)
(-0.0106157 -0.00421728 9.99064e-05)
(-0.0105704 -0.00416196 0.000137021)
(-0.0105144 -0.0040916 0.000131012)
(-0.0104027 -0.0039691 5.90362e-05)
(-0.0125121 -0.006812 -0.000111157)
(-0.0126809 -0.00700119 -0.000236611)
(-0.01279 -0.00714295 -0.000237442)
(-0.012879 -0.00725733 -0.000174651)
(-0.0129287 -0.00731823 -6.79813e-05)
(-0.0129323 -0.0073211 5.14992e-05)
(-0.0128899 -0.00726618 0.000158515)
(-0.012808 -0.00715806 0.000222828)
(-0.0127054 -0.00702276 0.000226171)
(-0.0125389 -0.00683596 0.000107327)
(-0.0160142 -0.00982045 -0.000219673)
(-0.0163346 -0.0101735 -0.00043911)
(-0.016546 -0.0104215 -0.000404046)
(-0.0167105 -0.010615 -0.000286664)
(-0.0167973 -0.0107136 -0.00010818)
(-0.016802 -0.0107176 8.46258e-05)
(-0.016725 -0.0106277 0.000263048)
(-0.0165707 -0.0104437 0.000381385)
(-0.0163699 -0.0102065 0.000422823)
(-0.0160535 -0.00985781 0.000213987)
(-0.0211796 -0.0117066 -0.000435549)
(-0.0218431 -0.0123457 -0.000801363)
(-0.0222456 -0.0126446 -0.00068329)
(-0.0225415 -0.012862 -0.000467661)
(-0.0226876 -0.0129604 -0.00017081)
(-0.0226937 -0.0129635 0.000137525)
(-0.022561 -0.0128729 0.00043326)
(-0.0222802 -0.0126642 0.000648126)
(-0.0218971 -0.0123816 0.000775081)
(-0.0212404 -0.0117451 0.000426817)
(-0.00613855 -0.00179774 -5.90157e-05)
(-0.00618995 -0.00188003 -0.000135245)
(-0.00621838 -0.00191545 -0.00014355)
(-0.00624311 -0.00194182 -0.000110052)
(-0.00625832 -0.00195648 -4.50198e-05)
(-0.00625994 -0.00195723 3.079e-05)
(-0.00624795 -0.00194412 9.65078e-05)
(-0.00622623 -0.00191939 0.00013211)
(-0.00620036 -0.00188578 0.000127198)
(-0.00615023 -0.00180373 5.59845e-05)
(-0.00692587 -0.00541778 -8.088e-05)
(-0.0070574 -0.00558367 -0.000182634)
(-0.00710979 -0.00569303 -0.000197268)
(-0.00714867 -0.00577938 -0.000148629)
(-0.00717119 -0.00582605 -5.94981e-05)
(-0.00717314 -0.00582823 4.26685e-05)
(-0.00715451 -0.00578607 0.000132419)
(-0.00711947 -0.00570453 0.000183077)
(-0.00707068 -0.00560022 0.000172493)
(-0.00693996 -0.00543593 7.69817e-05)
(-0.00865033 -0.00952694 -0.000160847)
(-0.00886591 -0.00981267 -0.000336934)
(-0.00897052 -0.0100342 -0.000333551)
(-0.00904556 -0.0102084 -0.000241579)
(-0.00908557 -0.0102984 -9.3261e-05)
(-0.00908805 -0.0103021 7.05189e-05)
(-0.00905311 -0.01022 0.00021911)
(-0.00898349 -0.0100546 0.000312719)
(-0.00888476 -0.00984271 0.000321952)
(-0.00867055 -0.00956084 0.00015535)
(-0.0117834 -0.0141552 -0.00034788)
(-0.0122275 -0.0147549 -0.000673889)
(-0.0124522 -0.0151626 -0.000597081)
(-0.0126043 -0.0154674 -0.000413185)
(-0.0126784 -0.0156161 -0.000153201)
(-0.0126817 -0.0156213 0.000121113)
(-0.0126147 -0.0154843 0.000380316)
(-0.0124712 -0.0151931 0.000564239)
(-0.0122582 -0.0148036 0.000649711)
(-0.0118173 -0.0142111 0.000339528)
(-0.0172054 -0.0181283 -0.000762809)
(-0.0182801 -0.019448 -0.00134191)
(-0.0187616 -0.0200563 -0.00105755)
(-0.0190604 -0.020479 -0.000696479)
(-0.0191903 -0.0206581 -0.000247205)
(-0.0191943 -0.0206626 0.000202392)
(-0.0190743 -0.0204959 0.000648549)
(-0.0187897 -0.0200884 0.00100416)
(-0.0183353 -0.0195147 0.00130077)
(-0.017267 -0.0182028 0.000749851)
(-0.00220568 -0.0020987 -5.88945e-05)
(-0.00221352 -0.00213448 -0.000139064)
(-0.002223 -0.0021724 -0.000159839)
(-0.00223188 -0.00220356 -0.0001231)
(-0.0022375 -0.00222071 -5.06085e-05)
(-0.00223811 -0.00222152 3.42883e-05)
(-0.00223371 -0.00220602 0.000107553)
(-0.00222597 -0.00217664 0.000146632)
(-0.00221746 -0.00214055 0.000129629)
(-0.00221019 -0.00210556 5.5199e-05)
(-0.00252292 -0.00640078 -8.86484e-05)
(-0.00259825 -0.00655068 -0.000200335)
(-0.0026213 -0.00668605 -0.00022735)
(-0.00263664 -0.00679278 -0.000170378)
(-0.00264547 -0.00684906 -6.80845e-05)
(-0.00264624 -0.00685146 4.88414e-05)
(-0.00263894 -0.00680025 0.000151718)
(-0.00262518 -0.00669909 0.000210816)
(-0.00260377 -0.00656992 0.000188283)
(-0.00252851 -0.00642265 8.39502e-05)
(-0.00326825 -0.0116119 -0.00020273)
(-0.00339685 -0.0120363 -0.000409106)
(-0.00344712 -0.0123426 -0.000403799)
(-0.00347937 -0.0125679 -0.00028674)
(-0.00349597 -0.0126795 -0.000109415)
(-0.00349693 -0.0126836 8.33951e-05)
(-0.00348237 -0.0125812 0.000260673)
(-0.00345244 -0.0123668 0.000378818)
(-0.00340512 -0.0120745 0.00039068)
(-0.00327684 -0.0116555 0.000196086)
(-0.00476199 -0.0183207 -0.00050751)
(-0.00503275 -0.0194099 -0.00091419)
(-0.00515065 -0.0200275 -0.000764198)
(-0.00522135 -0.0204417 -0.000508771)
(-0.00525361 -0.0206287 -0.000184137)
(-0.00525488 -0.0206343 0.000147478)
(-0.00522548 -0.0204607 0.00046997)
(-0.00515883 -0.0200646 0.000722277)
(-0.00504748 -0.0194786 0.00088225)
(-0.00477795 -0.0183995 0.000497134)
(-0.00778084 -0.0273001 -0.0013225)
(-0.00852344 -0.030434 -0.0021212)
(-0.00881268 -0.0316241 -0.00144944)
(-0.00896645 -0.0323195 -0.000891446)
(-0.00902582 -0.0325735 -0.000302591)
(-0.00902723 -0.0325783 0.000251997)
(-0.00897181 -0.0323398 0.000833616)
(-0.00882556 -0.0316708 0.00137341)
(-0.00855454 -0.0305619 0.00206025)
(-0.00781483 -0.0274467 0.00130576)
(-0.0148056 -0.0445543 -0.0037018)
(-0.0172069 -0.0510873 -0.00532806)
(-0.0179826 -0.0531958 -0.00268413)
(-0.0183477 -0.0543203 -0.00146723)
(-0.0184591 -0.0546893 -0.000444786)
(-0.0184606 -0.0546958 0.000382896)
(-0.0183551 -0.0543474 0.00138587)
(-0.0180067 -0.0532626 0.00253165)
(-0.0172897 -0.0513156 0.00519555)
(-0.0149005 -0.0448124 0.00367392)
(-0.0262325 -0.0511496 -0.00838391)
(-0.0311446 -0.0757636 -0.0112131)
(-0.0325476 -0.079424 -0.00467956)
(-0.0330805 -0.0800806 -0.00234308)
(-0.0331684 -0.0799028 -0.000657469)
(-0.0331663 -0.0798841 0.00057651)
(-0.0330793 -0.080037 0.00222761)
(-0.0325694 -0.079411 0.00440095)
(-0.031278 -0.07625 0.0109577)
(-0.0263887 -0.0517042 0.0083412)
(-0.0465623 -0.121635 -0.023568)
(-0.0509126 -0.169168 -0.0257054)
(-0.0543102 -0.176602 -0.00630093)
(-0.0562281 -0.17583 -0.00203109)
(-0.0566251 -0.175375 -0.000325005)
(-0.0566264 -0.17535 0.000309453)
(-0.0562501 -0.175749 0.00194355)
(-0.0544027 -0.176556 0.00581001)
(-0.0510633 -0.17005 0.0251609)
(-0.0468791 -0.122661 0.0234523)
(-0.0238449 -0.0629745 -0.0299275)
(0.0198315 -0.180572 -0.0226486)
(0.0168143 -0.181233 -0.00701348)
(0.0132853 -0.17084 -0.00165367)
(0.0122451 -0.167401 -0.000370396)
(0.0122273 -0.167316 0.000347883)
(0.0131834 -0.170478 0.00157334)
(0.0166341 -0.18074 0.00669058)
(0.0202536 -0.181773 0.0221558)
(-0.0232411 -0.0647269 0.0296118)
(0.208229 -0.341547 0.0292106)
(0.273565 -0.518235 0.030888)
(0.283101 -0.531465 0.00840416)
(0.283475 -0.52587 0.00300597)
(0.28325 -0.523581 0.000578957)
(0.283222 -0.523508 -0.000544075)
(0.283392 -0.525604 -0.00288335)
(0.283097 -0.531259 -0.00779068)
(0.274613 -0.519933 -0.0302373)
(0.209743 -0.344807 -0.0289732)
(-0.0271275 -0.0285015 -0.00163232)
(-0.0301414 -0.0307943 -0.00262719)
(-0.0312197 -0.0320332 -0.00164884)
(-0.0318343 -0.0329195 -0.00101503)
(-0.0320593 -0.0332967 -0.000336069)
(-0.0320642 -0.0333072 0.000282763)
(-0.0318538 -0.0329558 0.000954353)
(-0.031265 -0.0321003 0.00156463)
(-0.0302603 -0.0309232 0.00255939)
(-0.0272647 -0.0286594 0.00161597)
(-0.0426728 -0.0113231 -0.0034801)
(-0.048469 -0.0153581 -0.00526385)
(-0.0502662 -0.0157211 -0.00324976)
(-0.0511992 -0.0159461 -0.00196276)
(-0.051484 -0.0158938 -0.000632946)
(-0.0514874 -0.0158876 0.000541862)
(-0.0512166 -0.0159387 0.00185811)
(-0.0503161 -0.0157068 0.00309906)
(-0.0486522 -0.0154178 0.00513106)
(-0.042879 -0.0113783 0.00344159)
(-0.060797 -0.0360028 -0.00408439)
(-0.0798259 -0.0463478 -0.00564047)
(-0.0831399 -0.0491514 -0.0017741)
(-0.0844345 -0.0510266 -0.000950644)
(-0.0846101 -0.0516644 -0.000212931)
(-0.084606 -0.0516815 0.000181481)
(-0.084433 -0.0510908 0.000909459)
(-0.0831962 -0.0492702 0.00164709)
(-0.080233 -0.0466228 0.0055137)
(-0.061312 -0.0363732 0.00406751)
(-0.132555 0.0392821 -0.0140101)
(-0.150213 0.0350301 -0.0144136)
(-0.159953 0.0382496 -0.00658908)
(-0.163927 0.0423798 -0.0038729)
(-0.164959 0.0436676 -0.00116471)
(-0.164955 0.0436955 0.00100066)
(-0.163957 0.0425016 0.00369341)
(-0.160074 0.0384535 0.00635297)
(-0.150634 0.0351688 0.0141412)
(-0.13333 0.039541 0.0138865)
(0.205479 0.00481407 0.017767)
(0.306076 -0.0729461 0.0203927)
(0.31634 -0.0731698 0.00635209)
(0.316924 -0.0686201 0.00238675)
(0.316642 -0.0668366 0.000478265)
(0.316616 -0.0668195 -0.000440667)
(0.316858 -0.0685689 -0.00227942)
(0.316396 -0.0732447 -0.00598224)
(0.307251 -0.0735484 -0.0200103)
(0.207523 0.00363974 -0.0176646)
(-0.0278081 -0.0184744 -0.000769416)
(-0.0293206 -0.0195294 -0.00131593)
(-0.0300292 -0.0201967 -0.000925347)
(-0.0305206 -0.0207086 -0.00060259)
(-0.0307395 -0.0209491 -0.000209543)
(-0.0307465 -0.0209577 0.000171997)
(-0.0305451 -0.0207364 0.000562531)
(-0.0300745 -0.0202462 0.000877375)
(-0.0294054 -0.0196101 0.00127933)
(-0.0279027 -0.0185735 0.000760131)
(-0.040257 -0.00515732 -0.00170352)
(-0.0429528 -0.00634477 -0.00269313)
(-0.0443259 -0.006281 -0.00192129)
(-0.0452801 -0.00622882 -0.00123772)
(-0.0456884 -0.00614354 -0.000424708)
(-0.0456996 -0.00613833 0.000354398)
(-0.0453191 -0.00621852 0.00116128)
(-0.0443989 -0.00626169 0.00183043)
(-0.0430943 -0.00634493 0.00261722)
(-0.0404242 -0.00514564 0.00167865)
(-0.0348421 -0.0230728 -0.001216)
(-0.0392975 -0.0258136 -0.00172438)
(-0.0401318 -0.0264841 -0.000651658)
(-0.0407468 -0.027201 -0.000394887)
(-0.0409046 -0.0274704 -9.82878e-05)
(-0.0409067 -0.027484 7.99613e-05)
(-0.0407649 -0.0272473 0.000373849)
(-0.0401643 -0.026561 0.000601808)
(-0.0394203 -0.0259396 0.00167895)
(-0.0349674 -0.0232566 0.00121046)
(-0.0606508 0.0242994 -0.00571481)
(-0.0646301 0.0323723 -0.00705358)
(-0.068566 0.0353388 -0.00356727)
(-0.0713274 0.0371825 -0.002301)
(-0.0723308 0.0376997 -0.000730634)
(-0.072352 0.0377105 0.000598173)
(-0.0714098 0.0372345 0.00215788)
(-0.0687101 0.0354542 0.00339334)
(-0.0648442 0.0326433 0.00687704)
(-0.0609637 0.024661 0.00564002)
(0.192672 0.0259734 0.00714823)
(0.27311 0.019557 0.00735496)
(0.280335 0.0231402 0.00217657)
(0.281028 0.0247135 0.00078254)
(0.281003 0.0252004 0.00012745)
(0.280995 0.0251876 -0.000113308)
(0.281017 0.024669 -0.000739444)
(0.280465 0.0230184 -0.00205075)
(0.274151 0.0194562 -0.00722901)
(0.194435 0.0258526 -0.00711137)
(-0.0286705 -0.00982951 -0.000302009)
(-0.029569 -0.010266 -0.000556789)
(-0.0300423 -0.0105788 -0.000435017)
(-0.0303957 -0.0108317 -0.000299356)
(-0.0305685 -0.0109581 -0.000108546)
(-0.0305758 -0.0109637 8.67789e-05)
(-0.0304193 -0.0108497 0.000277293)
(-0.0300833 -0.0106096 0.000411478)
(-0.0296347 -0.0103117 0.000539557)
(-0.0287424 -0.00988568 0.000297288)
(-0.0400857 -0.0024115 -0.000726029)
(-0.0416616 -0.00270012 -0.00120992)
(-0.0426612 -0.00258 -0.000954654)
(-0.0434097 -0.00251163 -0.000644795)
(-0.0437705 -0.0024608 -0.000230533)
(-0.0437838 -0.00245822 0.000187123)
(-0.0434532 -0.00250549 0.000599412)
(-0.0427381 -0.00256767 0.000906561)
(-0.0417837 -0.00268968 0.00117062)
(-0.0402293 -0.00239447 0.000712114)
(-0.0327298 -0.0120931 -0.000264873)
(-0.0344336 -0.0136783 -0.000418395)
(-0.0348491 -0.0141703 -0.000195882)
(-0.0351523 -0.0146061 -0.000163928)
(-0.0352462 -0.014784 -5.06169e-05)
(-0.0352484 -0.0147941 3.85417e-05)
(-0.0351656 -0.0146398 0.00015307)
(-0.034871 -0.0142278 0.000179671)
(-0.0344963 -0.0137693 0.000403507)
(-0.0327879 -0.0122181 0.00026182)
(-0.052084 0.00677021 -0.00262579)
(-0.0491888 0.00966508 -0.00360275)
(-0.0504661 0.0105913 -0.00195664)
(-0.0518355 0.0111421 -0.00128709)
(-0.0524119 0.0112866 -0.000428333)
(-0.0524326 0.0112918 0.000339149)
(-0.0519063 0.011165 0.00119176)
(-0.0505788 0.0106412 0.00184779)
(-0.0493012 0.00977598 0.00349635)
(-0.0522188 0.00690035 0.00257852)
(0.178714 0.00780421 0.00187102)
(0.257394 0.00234985 0.00172171)
(0.264105 0.00308549 0.000408191)
(0.264975 0.00333065 9.21062e-05)
(0.265084 0.00340986 -1.18763e-05)
(0.265084 0.00340167 1.66746e-05)
(0.26499 0.00329972 -7.62665e-05)
(0.264265 0.00300723 -0.000373109)
(0.258405 0.00224415 -0.00169175)
(0.180461 0.00763756 -0.00186321)
(-0.0288 -0.00199495 -4.48688e-05)
(-0.0294239 -0.00200135 -9.29362e-05)
(-0.0297659 -0.00202097 -9.03386e-05)
(-0.0300344 -0.00205853 -7.23513e-05)
(-0.0301737 -0.00208191 -2.81819e-05)
(-0.030181 -0.0020844 2.17424e-05)
(-0.0300572 -0.00206538 6.62657e-05)
(-0.0298041 -0.00203184 8.4909e-05)
(-0.0294797 -0.00201494 8.88659e-05)
(-0.0288607 -0.00201233 4.36458e-05)
(-0.040222 -0.000515245 -7.1715e-05)
(-0.0415072 -0.000429479 -0.000136266)
(-0.0423853 -0.000324677 -0.000162631)
(-0.0430501 -0.00027657 -0.000137765)
(-0.043383 -0.000254394 -5.48586e-05)
(-0.0433975 -0.000253847 4.08357e-05)
(-0.0430959 -0.000274656 0.000124633)
(-0.0424648 -0.000320248 0.000151231)
(-0.041627 -0.000421 0.000126296)
(-0.0403619 -0.000506115 6.71176e-05)
(-0.0324735 -0.00392999 0.00012634)
(-0.0334327 -0.00372374 0.000174532)
(-0.0337087 -0.00372723 7.35425e-05)
(-0.0339336 -0.00385492 7.31735e-07)
(-0.0340206 -0.00393204 -4.70223e-06)
(-0.0340242 -0.00393921 9.39803e-07)
(-0.0339481 -0.00387694 -2.61713e-06)
(-0.033732 -0.00376227 -7.18335e-05)
(-0.0334789 -0.0037586 -0.000175127)
(-0.0325182 -0.00399541 -0.000128803)
(-0.049061 0.000303618 -3.93152e-06)
(-0.0470922 0.000803307 -8.76445e-05)
(-0.0485874 0.000924592 -0.000341239)
(-0.0498447 0.00096637 -0.000363464)
(-0.0503593 0.000961389 -0.000145082)
(-0.0503792 0.000962713 0.00010122)
(-0.0499097 0.000971895 0.000321293)
(-0.0486955 0.000938898 0.000314722)
(-0.0472312 0.000828093 4.77041e-05)
(-0.0491974 0.000331073 -2.95513e-05)
(0.175413 -0.00365934 -5.83773e-05)
(0.253082 -0.00503451 -0.000276539)
(0.259526 -0.00529946 -0.000254963)
(0.260395 -0.00567927 -0.000203992)
(0.260551 -0.00583697 -7.22795e-05)
(0.260553 -0.00584294 6.97455e-05)
(0.26042 -0.00571226 0.000205315)
(0.259694 -0.00536766 0.000254546)
(0.254091 -0.00512307 0.000276139)
(0.177159 -0.00383854 6.6363e-05)
(-0.0281432 0.00607675 0.000141364)
(-0.0286955 0.00653157 0.000256695)
(-0.0289689 0.00681629 0.000179035)
(-0.0291886 0.00699838 0.00011087)
(-0.0293052 0.00707965 3.87738e-05)
(-0.0293123 0.00708088 -3.03514e-05)
(-0.0292103 0.00700334 -0.000101926)
(-0.0290045 0.00682699 -0.000169164)
(-0.0287462 0.00655333 -0.000249681)
(-0.0281984 0.00610172 -0.000139158)
(-0.0415165 0.00150044 0.000576917)
(-0.0429489 0.00192421 0.000920657)
(-0.0438562 0.00203351 0.00060505)
(-0.0445324 0.00207233 0.000351514)
(-0.0448684 0.00207518 0.000115727)
(-0.0448838 0.00207426 -9.89509e-05)
(-0.0445808 0.00207083 -0.000331539)
(-0.0439406 0.00203291 -0.000578083)
(-0.0430792 0.00193165 -0.000900112)
(-0.041672 0.00150469 -0.00057196)
(-0.0323563 0.0045538 0.000464463)
(-0.0333585 0.00746038 0.000686022)
(-0.0335875 0.0081678 0.000312935)
(-0.0337819 0.00842076 0.000149452)
(-0.0338585 0.00845262 3.99344e-05)
(-0.0338628 0.00844807 -3.39392e-05)
(-0.0337974 0.00840951 -0.00014039)
(-0.0336134 0.00815774 -0.000295112)
(-0.0334029 0.00750282 -0.000674141)
(-0.0324044 0.00456655 -0.000464975)
(-0.0526093 -0.00269147 0.00325826)
(-0.0539366 -0.00312067 0.00423043)
(-0.0557323 -0.00335613 0.00143541)
(-0.0569836 -0.00359986 0.000561643)
(-0.0574533 -0.0036972 0.000122018)
(-0.0574719 -0.00369831 -0.000122962)
(-0.0570428 -0.00360545 -0.000550349)
(-0.0558404 -0.0033628 -0.00136067)
(-0.0541376 -0.00313786 -0.0041895)
(-0.0528094 -0.0027146 -0.00327798)
(0.180182 -0.0168673 -0.00182674)
(0.259189 -0.0102916 -0.0022397)
(0.266268 -0.0108432 -0.000997468)
(0.267551 -0.0120578 -0.000552282)
(0.267871 -0.0125603 -0.000152912)
(0.267877 -0.0125725 0.000143901)
(0.267591 -0.0121195 0.000539325)
(0.266471 -0.0109444 0.000957368)
(0.260273 -0.0103152 0.00220902)
(0.182048 -0.017104 0.00184463)
(-0.0261737 0.0155113 0.000312692)
(-0.0267032 0.0165863 0.000568751)
(-0.0269068 0.0172283 0.000402123)
(-0.0270809 0.0176627 0.000264795)