/*--------------------------------*- C++ -*----------------------------------*\
| =========                 |                                                 |
| \\      /  F ield         | OpenFOAM: The Open Source CFD Toolbox           |
|  \\    /   O peration     | Version:  2.3.1                                 |
|   \\  /    A nd           | Web:      www.OpenFOAM.org                      |
|    \\/     M anipulation  |                                                 |
\*---------------------------------------------------------------------------*/
FoamFile
{
    version     2.0;
    format      ascii;
    class       volScalarField;
    location    "0.64";
    object      epsilon;
}
// * * * * * * * * * * * * * * * * * * * * * * * * * * * * * * * * * * * * * //

dimensions      [0 2 -3 0 0 0 0];

internalField   nonuniform List<scalar> 
9648
(
2407.11
2393.36
2391.53
2384.38
2372.22
2354.69
2332.36
2304.82
2271.98
2233.95
2190.94
2143.12
2091.37
2036.67
1979.87
1921.91
1863.94
1806.97
1751.7
1698.68
1648.42
1601.26
1557.34
1516.81
1479.71
1445.9
1415.3
1387.78
1363.24
1341.49
1322.4
1305.82
1291.6
1279.58
1269.69
1261.77
1255.69
1251.39
1248.81
1247.87
1248.47
1250.58
1254.18
1259.18
1265.64
1273.59
1283
1293.85
1306.21
1320.23
1335.9
1353.19
1372.33
1393.29
1416
1440.26
1465.83
1492.28
1518.87
1545.03
1570.39
598.827
589.25
579.43
568.618
559.265
553.612
550.756
549.93
550.991
554.017
558.775
564.606
571.086
577.835
584.515
590.76
596.399
601.405
605.78
609.471
612.589
615.206
617.382
619.237
620.904
622.442
623.908
625.377
626.927
628.608
630.438
632.473
634.75
637.264
640.046
643.121
646.478
650.114
654.043
658.29
662.843
667.689
672.835
678.289
684.032
690.092
696.461
703.108
710.01
717.154
724.506
732.027
739.665
747.445
755.228
762.989
770.577
778.097
785.415
792.459
799.189
239.173
241.729
245.469
251.394
259.352
269.032
280.507
293.448
307.8
323.194
339.434
356.077
372.789
389.238
405.137
420.256
434.433
447.586
459.665
470.663
480.614
489.56
497.58
504.764
511.206
516.994
522.209
526.94
531.255
535.227
538.916
542.377
545.655
548.792
551.824
554.775
557.674
560.534
563.374
566.208
569.048
571.91
574.789
577.694
580.625
583.573
586.533
589.484
592.42
595.32
598.181
600.995
603.722
606.413
608.957
611.449
613.796
616.133
618.302
620.345
622.256
135.25
145.029
155.938
168.303
182.172
197.483
214.171
232.038
250.859
270.295
290.041
309.734
329.065
347.742
365.531
382.239
397.743
411.976
424.909
436.558
446.956
456.158
464.248
471.317
477.469
482.805
487.42
491.407
494.843
497.81
500.379
502.613
504.573
506.303
507.845
509.237
510.511
511.686
512.787
513.831
514.835
515.815
516.782
517.743
518.701
519.656
520.607
521.548
522.481
523.395
524.274
525.14
525.967
526.768
527.493
528.203
528.892
529.551
530.162
530.732
531.298
99.8983
112.78
127.043
142.752
159.897
178.396
198.083
218.712
239.985
261.531
283.006
304.053
324.379
343.727
361.903
378.733
394.134
408.068
420.532
431.573
441.237
449.589
456.727
462.747
467.775
471.923
475.297
477.999
480.105
481.704
482.876
483.686
484.206
484.483
484.557
484.472
484.264
483.953
483.566
483.121
482.632
482.123
481.608
481.099
480.597
480.106
479.631
479.168
478.71
478.263
477.809
477.349
476.893
476.429
475.955
475.472
475.004
474.527
474.028
473.518
473.003
86.1973
101.139
117.718
135.864
155.444
176.305
198.192
220.789
243.735
266.613
289.066
310.721
331.328
350.647
368.554
384.867
399.536
412.576
423.995
433.892
442.332
449.369
455.14
459.724
463.286
465.957
467.842
469.065
469.684
469.799
469.502
468.846
467.926
466.79
465.462
463.999
462.45
460.816
459.134
457.418
455.678
453.944
452.234
450.562
448.922
447.32
445.759
444.25
442.78
441.335
439.915
438.508
437.117
435.74
434.368
433.031
431.72
430.412
429.092
427.772
426.437
81.4826
98.1681
116.704
136.903
158.485
181.244
204.831
228.872
252.985
276.652
299.572
321.304
341.691
360.49
377.726
393.113
406.659
418.46
428.488
436.944
443.911
449.384
453.601
456.561
458.509
459.595
459.904
459.615
458.724
457.353
455.622
453.543
451.256
448.8
446.162
443.428
440.677
437.858
435.04
432.227
429.407
426.635
423.923
421.292
418.709
416.195
413.754
411.383
409.084
406.836
404.629
402.45
400.317
398.181
396.068
394.002
391.981
390.001
388.011
385.992
383.991
81.0287
99.2965
119.59
141.593
164.852
189.113
214
239.099
263.992
288.041
311.048
332.411
352.181
370.042
386.351
400.538
412.696
423.071
431.448
438.251
443.604
447.323
449.928
451.122
451.361
450.798
449.479
447.698
445.283
442.438
439.337
435.872
432.292
428.59
424.705
420.782
416.902
412.931
409.053
405.223
401.39
397.637
394.025
390.523
387.076
383.759
380.51
377.382
374.334
371.371
368.464
365.606
362.794
359.962
357.175
354.479
351.805
349.238
346.627
343.972
341.407
82.5697
102.084
123.922
147.301
172.044
197.401
223.145
249.146
274.363
298.642
321.383
342.275
361.057
377.703
392.873
405.752
416.443
425.242
432.182
437.347
440.838
442.743
443.478
443.084
441.673
439.307
436.456
433.219
429.171
424.893
420.349
415.653
411.038
406.079
400.83
395.89
390.771
385.604
380.743
375.758
370.798
365.813
361.463
357.105
352.732
348.794
344.602
340.817
336.848
333.156
329.345
325.863
322.45
318.872
315.397
312.231
308.806
305.938
302.666
299.278
296.267
1595.05
1618.91
1641.66
1663.3
1684.01
1704.23
1724.06
1743.8
1763.18
1781.6
1798.73
1815.12
1831.02
1846.82
1862.72
1879.4
1897.42
1917.3
1939.39
1964.16
1991.33
2020.36
2050.85
2082.4
2114.67
2147.6
2181.36
2215.6
2250.3
2285.47
2321.3
2357.66
2394.56
2432.16
2470.47
2509.38
2549.01
2589.48
2630.87
2673.01
2715.94
2759.91
2804.88
2850.7
2897.69
2945.71
2994.64
3044.53
3095.58
3147.83
3201.19
3255.56
3311.48
3368.55
3427.13
3487.02
3548.96
3612.92
3678.93
3746.87
3816.86
805.586
812.06
818.351
824.385
830.188
835.878
841.604
847.221
852.904
858.345
863.746
869.047
874.362
879.706
885.076
890.519
896.053
901.722
907.517
913.41
919.363
925.313
931.24
937.122
942.946
948.692
954.29
959.709
964.947
970.028
974.966
979.738
984.361
988.857
993.221
997.453
1001.58
1005.59
1009.48
1013.26
1016.94
1020.54
1024.03
1027.42
1030.73
1033.93
1037.03
1040
1042.88
1045.66
1048.32
1050.87
1053.32
1055.8
1058.09
1060.46
1062.78
1065.3
1067.7
1070.15
1072.71
624.133
625.934
627.776
629.582
631.359
633.037
634.782
636.427
638.047
639.526
640.959
642.34
643.743
645.117
646.464
647.776
649.046
650.274
651.448
652.555
653.582
654.53
655.386
656.147
656.808
657.365
657.813
658.15
658.366
658.468
658.444
658.301
658.041
657.659
657.171
656.572
655.866
655.048
654.121
653.082
651.935
650.686
649.34
647.883
646.325
644.655
642.86
640.932
638.877
636.698
634.367
631.932
629.353
626.661
623.773
620.798
617.73
614.583
611.343
608.045
604.752
531.833
532.363
532.856
533.333
533.775
534.185
534.551
534.912
535.195
535.379
535.503
535.586
535.608
535.549
535.44
535.268
535.034
534.731
534.351
533.888
533.343
532.714
532.006
531.214
530.333
529.355
528.283
527.117
525.853
524.494
523.039
521.479
519.816
518.057
516.21
514.273
512.246
510.129
507.915
505.607
503.212
500.742
498.198
495.588
492.913
490.168
487.334
484.41
481.388
478.286
475.076
471.766
468.369
464.869
461.238
457.485
453.655
449.734
445.752
441.743
437.735
472.485
471.937
471.362
470.753
470.113
469.41
468.654
467.897
467.137
466.325
465.481
464.595
463.653
462.657
461.605
460.493
459.351
458.142
456.866
455.519
454.107
452.634
451.107
449.53
447.893
446.19
444.419
442.58
440.677
438.711
436.676
434.561
432.367
430.097
427.764
425.369
422.906
420.369
417.752
415.057
412.297
409.477
406.614
403.722
400.807
397.869
394.874
391.845
388.746
385.601
382.386
379.09
375.736
372.305
368.777
365.142
361.421
357.609
353.769
349.908
346.043
425.11
423.769
422.419
421.022
419.601
418.145
416.648
415.14
413.595
412.028
410.425
408.804
407.15
405.451
403.713
401.946
400.159
398.315
396.409
394.446
392.431
390.378
388.299
386.202
384.072
381.898
379.681
377.42
375.132
372.817
370.471
368.068
365.611
363.094
360.543
357.953
355.309
352.613
349.845
347.005
344.108
341.159
338.185
335.21
332.254
329.327
326.371
323.425
320.446
317.478
314.47
311.398
308.3
305.132
301.911
298.561
295.141
291.64
288.145
284.606
281.084
382.004
380.026
378.038
376.038
374.002
371.924
369.819
367.718
365.585
363.41
361.228
359.047
356.84
354.615
352.352
350.082
347.82
345.516
343.153
340.724
338.246
335.754
333.257
330.78
328.3
325.786
323.247
320.674
318.113
315.57
313.065
310.524
307.97
305.37
302.774
300.159
297.486
294.778
292.007
289.17
286.27
283.301
280.309
277.329
274.385
271.543
268.679
265.892
263.096
260.401
257.71
254.937
252.171
249.346
246.508
243.487
240.447
237.294
234.227
231.089
227.996
338.842
336.335
333.819
331.347
328.851
326.372
323.826
321.358
318.866
316.272
313.69
311.161
308.596
306.016
303.365
300.751
298.221
295.661
293.044
290.292
287.469
284.672
281.865
279.105
276.411
273.686
270.935
268.097
265.285
262.554
259.992
257.413
254.91
252.379
249.929
247.499
244.936
242.306
239.663
237.008
234.248
231.361
228.444
225.52
222.613
219.92
217.141
214.54
211.925
209.584
207.308
204.883
202.506
200.066
197.677
194.993
192.366
189.565
186.997
184.309
181.717
293.023
290.023
286.865
284.054
281.088
278.551
275.685
273.237
270.767
268.082
265.399
262.977
260.326
257.711
254.816
251.9
249.332
246.87
244.426
241.736
238.639
235.765
232.819
229.839
227.035
224.288
221.648
218.69
215.521
212.543
209.952
207.342
204.953
202.618
200.631
198.719
196.493
193.975
191.538
189.291
186.977
184.298
181.531
178.803
175.977
173.531
170.744
168.324
165.782
163.913
162.156
160.079
158.179
156.199
154.374
151.979
149.799
147.282
145.263
143.061
141.08
3889.99
3965.75
4043.52
4123.34
4205.64
4291.32
4379.85
4471.15
4564.93
4661.36
4760.8
4862.01
4965.43
5075.44
5213.52
5339.47
5464.88
5592.87
5723.4
5856.42
5992.28
6131.03
6272.26
6416.21
6562.62
6710.8
6860.45
7011.31
7163.21
7315.24
7467.34
7618.87
7768.98
7917.05
8062.56
8204.09
8340.48
8470.08
8584.08
8667.94
8724.88
8756.37
8762.24
8740.67
8690.05
8607.88
8490.09
8331.98
8129.22
7877.14
7569.46
7199.36
6761.62
6249.39
5610.61
4693.12
4287.8
4086.84
4008.12
3968.47
3882.92
1075.51
1078.41
1081.51
1084.66
1087.9
1091.38
1095.38
1099.78
1104.62
1109.75
1115.33
1118.66
1120.03
1122.97
1126.54
1131.55
1136.69
1141.77
1146.98
1152.44
1158.16
1164.2
1170.5
1177.07
1183.9
1190.96
1198.29
1205.9
1213.86
1222.2
1230.97
1240.24
1250.13
1260.76
1272.24
1284.8
1298.63
1314.1
1332.91
1362.58
1398.5
1437.26
1479.25
1524.62
1574.06
1627.91
1686.25
1749.36
1817.51
1890.24
1966.65
2045.13
2124.22
2202.54
2272.52
2338.78
2400.52
2489.08
2595.45
2702.31
2648.29
601.433
598.115
594.761
591.385
587.949
584.535
581.224
578.059
574.951
571.796
568.151
562.577
556.724
551.67
547.119
543.183
539.332
535.378
531.363
527.34
523.349
519.386
515.446
511.526
507.624
503.735
499.87
496.03
492.237
488.486
484.801
481.201
477.699
474.34
471.151
468.183
465.48
463.116
461.247
460.35
460.626
465.227
473.604
485.307
500.804
520.761
545.906
577.271
615.86
662.754
718.962
785.279
862.934
952.227
1052.89
1161.48
1269.84
1388.89
1535.4
1725.09
1911
433.727
429.729
425.728
421.708
417.639
413.568
409.54
405.604
401.639
397.566
392.684
386.779
381.062
375.869
371.056
366.591
362.23
357.884
353.535
349.208
344.906
340.61
336.328
332.064
327.814
323.588
319.386
315.211
311.062
306.944
302.858
298.81
294.812
290.876
287.011
283.237
279.574
276.039
272.661
269.5
266.637
264.383
263.436
264.19
266.535
270.818
277.505
287.256
300.922
319.535
344.515
377.192
419.228
471.717
535.254
607.801
685.417
769.798
869.523
998.509
1158.79
342.195
338.405
334.634
330.838
326.973
323.104
319.247
315.466
311.649
307.711
302.996
297.78
292.835
288.28
283.969
279.889
275.907
272.014
268.175
264.398
260.66
256.91
253.18
249.476
245.788
242.128
238.496
234.893
231.311
227.752
224.216
220.71
217.241
213.817
210.448
207.145
203.918
200.779
197.737
194.81
192.023
189.44
187.194
185.637
184.876
184.936
186.041
188.494
192.73
199.292
208.98
222.805
241.972
267.736
301.089
342.129
389.483
442.755
504.324
579.899
675.641
277.557
274.148
270.764
267.377
263.848
260.321
256.781
253.35
249.886
246.349
242.119
237.69
233.519
229.683
225.98
222.438
218.953
215.617
212.367
209.214
206.108
202.962
199.852
196.786
193.728
190.711
187.712
184.745
181.783
178.837
175.903
172.997
170.12
167.289
164.504
161.78
159.122
156.539
154.035
151.62
149.306
147.116
145.089
143.314
142.03
141.138
140.76
141.015
142.112
144.326
148.027
153.742
162.143
174.002
190.189
211.263
237.352
268.54
305.479
349.869
404.833
224.815
221.823
218.871
215.965
212.801
209.663
206.458
203.447
200.412
197.398
193.714
190.029
186.551
183.427
180.316
177.344
174.356
171.59
168.912
166.351
163.841
161.231
158.703
156.26
153.806
151.404
148.994
146.626
144.231
141.849
139.457
137.107
134.783
132.515
130.286
128.121
126.012
123.976
122.008
120.125
118.326
116.637
115.063
113.639
112.426
111.572
110.988
110.738
110.925
111.681
113.193
115.713
119.56
125.164
132.996
143.548
157.235
174.388
195.478
221.304
253.155
178.867
176.293
173.798
171.45
168.667
165.954
163.079
160.547
157.989
155.578
152.416
149.396
146.511
144.069
141.488
139.089
136.554
134.348
132.202
130.161
128.182
126.007
123.995
122.177
120.28
118.427
116.515
114.689
112.766
110.865
108.919
107.066
105.229
103.485
101.754
100.099
98.4724
96.9268
95.4413
94.0531
92.7384
91.5342
90.4413
89.4548
88.6058
87.9928
87.5827
87.3632
87.3994
87.7621
88.549
89.881
91.9261
94.8798
98.9896
104.539
111.826
121.186
132.989
147.741
166.107
138.525
136.301
134.286
132.581
130.176
127.912
125.319
123.355
121.311
119.54
116.846
114.4
111.965
110.185
108.021
106.211
104.034
102.4
100.724
99.0601
97.5273
95.6439
94.0983
92.9996
91.5627
90.1062
88.5464
87.223
85.6158
84.0816
82.42
81.0446
79.6131
78.3614
77.0258
75.809
74.5126
73.3576
72.2715
71.3173
70.4336
69.6548
68.9948
68.4207
67.8866
67.4637
67.2223
67.0965
67.1928
67.4379
68.0647
68.9923
70.4216
72.3181
74.8908
78.1743
82.4569
87.8339
94.6942
103.306
114.022
3737.78
3578.95
3408.68
3230.15
3052.24
2880.17
2717.29
2568
2435.96
2323.16
2229.98
2155.36
2097.69
2054.77
2023.91
2002.58
1988.64
1980.54
1976.86
1976.4
1978.48
1982.55
1988.18
1995.27
2003.79
2013.52
2024.34
2036.31
2049.47
2063.69
2078.95
2095.17
2112.24
2129.93
2148.12
2166.54
2184.84
2202.73
2220.03
2236.4
2251.37
2264.75
2276.38
2286.04
2293.85
2300.08
2304.86
2308.47
2311.5
2314.72
2318.5
2323.07
2328.95
2336.31
2344.84
2354.24
2364.21
2374.73
2384.81
2393.46
2400.2
2455.35
2251.64
2052.33
1862.54
1695.67
1541.6
1399.16
1269.33
1152.26
1048.83
959.122
882.614
818.344
764.792
721.68
688.191
662.498
642.713
627.348
615.336
605.927
598.539
592.801
588.505
585.339
583.426
582.402
582.405
583.352
585.246
588.099
591.893
596.622
602.253
608.733
615.996
623.934
632.417
641.279
650.315
659.23
667.673
675.228
681.434
685.855
688.079
687.764
684.779
679.277
671.69
662.667
653.045
643.764
635.614
628.92
623.975
620.414
617.772
614.863
610.74
605.112
1994.77
1979.07
1874.71
1700.14
1521.12
1347.67
1178.88
1026.34
889.923
769.185
665.087
577.05
503.925
444.417
397.561
361.573
333.807
311.826
294.412
280.736
269.986
261.488
254.734
249.323
245.012
241.51
238.775
236.662
235.133
234.151
233.687
233.738
234.288
235.302
236.758
238.614
240.832
243.368
246.167
249.147
252.213
255.256
258.141
260.69
262.735
264.061
264.465
263.764
261.854
258.706
254.439
249.403
244.079
239.073
234.863
231.986
230.639
230.767
231.973
233.881
236.384
1325.14
1472.2
1568.49
1583.48
1513.25
1387.4
1218.39
1049.04
892.479
748.119
622.743
517.733
431.161
361.823
307.425
265.126
232.231
206.231
185.79
169.876
157.567
148.098
140.819
135.181
130.764
127.245
124.441
122.201
120.434
119.069
118.068
117.404
117.05
116.968
117.124
117.479
117.999
118.646
119.377
120.145
120.897
121.578
122.13
122.49
122.598
122.395
121.834
120.878
119.52
117.76
115.644
113.295
110.923
108.812
107.295
106.837
107.823
110.367
114.393
119.834
126.755
792.746
928.735
1072.48
1199.89
1281.26
1299.18
1248.83
1143.12
1006.71
852.087
705.833
580.044
471.885
383.721
313.781
258.427
215.049
181.092
154.548
134.013
118.311
106.477
97.6329
90.9992
85.9632
82.074
79.0437
76.6686
74.809
73.3564
72.248
71.4474
70.9158
70.6089
70.4853
70.5071
70.6378
70.841
71.0803
71.3153
71.5032
71.6031
71.5751
71.3812
70.9878
70.3695
69.5168
68.4321
67.1229
65.6205
63.9801
62.2992
60.7439
59.5405
59.0104
59.441
61.3758
65.1452
70.9506
78.8074
88.5152
473.448
558.868
662.076
779.027
897.492
999.623
1065.16
1078.67
1038.06
951.193
835.141
708.968
581.536
470.706
379.963
305.01
245.703
198.76
161.373
132.474
110.637
94.5102
82.7599
74.1737
67.8135
63.0214
59.3766
56.5906
54.459
52.8176
51.5717
50.6665
50.05
49.6663
49.4671
49.4108
49.4583
49.5746
49.7244
49.8706
49.9748
50.0037
49.9225
49.7022
49.3133
48.7392
47.9745
47.0286
45.9084
44.6421
43.2762
41.8949
40.634
39.694
39.3754
40.0898
42.3153
46.5229
53.0443
61.9473
73.0833
292.772
342.415
404.443
480.364
569.272
666.484
762.015
841.668
891.003
899.43
864.727
794.182
699.781
595.63
493.453
396.801
317.302
252.285
198.064
155.625
123.416
99.9419
83.2146
71.2412
62.5456
56.1084
51.3056
47.7145
45.0309
42.9966
41.4668
40.3558
39.5924
39.1013
38.8225
38.7059
38.7078
38.7912
38.9203
39.0591
39.1706
39.2273
39.1954
39.0507
38.7614
38.3185
37.7143
36.9614
36.0596
35.0381
33.9331
32.8198
31.8152
31.0911
30.9249
31.7294
33.9954
38.3044
45.1514
54.7325
66.9489
189.054
217.803
253.927
299.061
354.548
420.653
495.675
574.653
649.653
709.906
744.847
748.039
719.533
663.713
589.339
504.645
419.691
339.545
264.144
203.338
155.199
120.25
95.7999
78.4963
66.0109
56.8282
50.0502
45.0869
41.471
38.7655
36.7493
35.2808
34.2625
33.5862
33.1727
32.957
32.8867
32.9197
33.0177
33.1438
33.2597
33.3451
33.3646
33.2981
33.1075
32.7917
32.3368
31.7613
31.0564
30.2525
29.3788
28.5054
27.7349
27.2184
27.2109
28.1103
30.4195
34.7977
41.8906
52.0426
65.2131
127.515
144.31
165.354
191.911
225.047
265.814
314.621
370.994
432.496
495.118
551.016
594.096
617.932
619.692
597.68
554.079
494.801
423.968
350.683
276.03
206.622
156.45
121.451
96.4617
78.0164
64.4211
54.4037
47.2075
42.0748
38.2684
35.4689
33.4157
31.9839
31.0086
30.3782
30.0007
29.8094
29.7522
29.7874
29.87
29.9656
30.0576
30.1092
30.1007
29.9906
29.7793
29.4539
29.0289
28.4947
27.8763
27.2056
26.5467
26
25.6988
25.8772
26.9185
29.3317
33.8184
41.1186
51.7332
65.6377
1.51195
211.546
188.582
2.31476
2.19293
0.203193
0.000719373
91.3317
0.000796965
0.0146423
94.4442
7.08853
0.000720356
248.208
0.166358
132.619
0.000757618
92.9088
119
0.000715
2.31292
237.045
201.78
0.000766853
0.000781619
0.208261
0.000716225
7.81672
0.000753364
0.000820474
6.48804
0.000740759
0.00875132
64.1665
4.01184
112.803
72.2704
16.0913
0.000723123
44.0978
63.4784
27.6667
0.000743399
100.662
176.395
0.716437
0.000866813
0.00864506
1.299
7.30536
368.994
351.385
0.000697522
0.00102802
0.0630428
0.0333518
0.000817623
8.85533
59.1362
279.613
138.906
0.0009068
1.50697
0.0248819
197.166
2.43994
38.7988
63.8212
0.00113081
0.000747685
9.70923
41.3275
54.5345
0.0402663
0.050816
79.1695
226.674
56.3095
0.000699455
5.52725
0.00234501
46.8472
0.0125952
109.692
0.00074994
8.76242
0.000791599
36.6189
0.0110282
0.0013692
0.228889
0.000697899
0.000935001
303.325
139.906
0.000868307
1.58647
1.85845
0.00184655
203.048
1.05931
31.7367
5.85152
0.000696538
0.000725879
0.00069351
1.38233
0.209479
0.000747942
170.222
218.422
0.00474824
239.01
26.4599
114.239
53.682
28.2463
0.000976696
0.110582
0.00110553
0.00166036
193.088
0.00312584
283.201
409.215
28.5629
0.000746085
7.28651
7.12473
0.000744005
0.0297935
0.0267365
90.4082
0.00188153
63.0302
0.000748912
0.000723693
389.811
346.095
0.00074902
0.763447
145.81
0.22654
0.908096
26.5443
120.226
0.298495
27.538
0.00525937
277.485
11.029
0.0358616
49.4576
107.379
184.928
0.000765905
0.000757838
0.514558
0.000696201
41.4973
0.112979
0.00144871
0.000740216
0.000747568
0.000758568
41.1215
70.2796
33.3169
0.000766502
287.761
305.504
403.768
166.496
0.00689499
161.417
43.6967
28.1907
0.000750512
0.0016987
192.493
68.2234
28.497
69.7334
0.000745541
0.000842901
242.945
0.029449
2.49905
0.000757822
0.000865157
0.172473
0.00079757
328.874
4.04128
0.000692476
0.683669
89.8874
141.522
0.00119686
52.8878
0.000746778
0.000750372
108.229
32.4229
302.531
0.00121373
0.000801355
0.00285161
40.6889
77.1374
9.93963
121.123
14.3031
227.614
0.78476
85.7549
80.2098
26.4502
10.888
39.0009
0.0014475
0.0293252
0.000747836
0.000724748
28.3454
0.0100034
0.0117225
0.00200119
0.006259
47.5703
199.184
0.0110886
169.243
7.65304
2.96219
0.000732523
0.524474
38.8623
7.40989
0.00106212
13.1563
35.766
0.835801
2.43824
266.737
7.29323
4.88486
120.288
0.000955168
0.000723688
0.0010281
0.00427527
28.689
0.000784557
0.00252438
0.000723576
1.74652
76.0174
75.9569
49.1246
12.0112
11.6235
320.37
0.0011385
48.3034
98.7856
0.000743979
84.3607
0.000749612
330.09
1.74345
52.4643
0.00154967
0.000748557
20.6279
7.63767
0.000759623
0.000750817
0.00075558
0.000751642
1.18774
34.6461
44.7675
0.0108239
0.000760433
0.000724386
0.000695485
103.708
1.16495
0.00119224
18.4208
0.116258
0.0957439
0.000691741
0.786318
0.000760154
0.110755
46.4493
275.48
3.14929
0.000975423
0.00185024
56.9797
0.346309
128.483
317.885
0.000838619
0.000739962
0.000734052
153.575
0.000774081
137.316
0.000749878
23.2761
12.3031
0.0240087
142.857
240.639
0.00127387
50.0078
50.0289
87.8641
90.5253
9.77927
344.056
38.4662
71.543
142.312
93.2423
54.736
0.339491
332.746
275.856
62.7816
33.334
0.000997933
271.04
127.91
225.454
0.0187903
0.000868149
0.000745838
0.000812232
0.668778
1.56837
6.4397
0.124802
0.000726183
166.667
0.000746437
26.459
23.1736
188.204
42.6651
19.0806
0.00193456
0.00110785
0.464097
85.9276
0.00437243
7.7161
262.629
36.0188
84.1839
194.235
60.9648
0.000822169
278.587
138.956
95.2075
0.00075065
189.704
148.469
0.000781893
30.3278
0.000751794
394.18
173.763
27.9707
81.053
116.039
145.629
0.000764591
144.906
0.000966021
68.2534
81.5091
28.2111
274.842
3.69458
0.492614
2.59664
0.00110158
440.183
1.45722
0.00290359
0.00180546
258.662
0.000954368
92.6572
0.00073732
0.000750201
0.00183544
30.813
0.19055
21.4734
0.00200303
82.7353
0.308256
216.319
279.945
37.7895
340.502
0.00079322
274.621
42.9274
0.000742576
78.9625
25.3783
0.00069577
0.000727391
116.539
0.00205808
27.0749
0.461703
76.291
0.0176771
3.42383
38.749
121.763
32.5591
84.2455
67.4233
0.000997499
0.0336151
28.7392
21.2252
326.209
342.154
140.967
0.0840067
120.467
119.384
3.30521
90.5491
44.5213
25.6501
0.000819943
84.5126
378.301
0.0010769
90.4954
19.4944
45.0927
0.0153302
0.0886045
270.712
0.00193739
322.358
0.00124845
1.7896
0.000738119
7.88669
166.44
0.555582
0.00132289
0.000900874
75.6849
26.7137
0.386896
5.5574
296.722
543.074
0.00138317
11.8813
27.1711
71.816
26.0384
449.003
28.7342
155.585
52.4823
3.40984
7.12152
297.667
52.6924
348.794
167.92
0.233914
177.113
59.8134
0.000791448
91.5592
28.8338
13.0535
0.00973556
96.6728
43.93
4.17021
51.6762
0.00159187
0.000747207
0.166022
28.442
107.787
73.4224
0.000750224
0.000731218
0.000744149
28.2095
0.0276451
0.000745817
0.243889
95.2622
275.669
0.00440579
0.00453487
0.000721038
0.000738847
0.00194696
28.8666
99.3076
20.7614
1.89901
293.429
381.994
0.00150918
62.87
27.8372
28.3799
75.3119
430.902
0.000821696
0.00446829
0.000751182
396.113
0.774159
0.000726907
10.6849
0.353185
297.557
0.00075933
320.431
8.87814
0.0660337
197.531
0.000748451
0.000736984
0.00102638
398.408
53.6533
126.954
319.951
10.9432
28.5875
0.000708286
0.00184824
0.465081
0.0160725
0.0163429
176.157
41.048
0.000747981
24.7564
45.2428
180.393
400.793
0.00295124
403.942
0.0018291
0.0218052
150.303
0.000739734
143.632
0.000759572
0.00079222
0.0210791
34.1513
2.94681
322.081
60.2209
0.000885669
28.4288
501.252
0.221963
2.22942
7.33352
0.000775273
0.000760013
0.00230694
133.663
5.35049
0.000782403
265.882
280.994
211.878
0.118169
60.0498
0.00108833
30.396
0.536003
0.130861
123.035
29.6985
148.517
170.047
0.000761077
0.000711132
0.00496445
72.5601
99.9479
6.0033
0.00658824
0.000770736
0.00075034
0.00344748
0.120083
0.00211734
72.8743
21.338
0.00497307
26.2073
168.51
0.000760755
38.1145
0.000742727
3.14703
0.00076249
0.0132225
38.0769
0.0116471
0.000744608
4.11094
359.026
261.319
0.000730941
0.000745947
1.5585
0.129649
0.000747776
99.3799
0.000906443
31.935
371.646
30.3193
86.6692
294.501
132.66
331.047
0.000747918
0.00250006
0.0110391
292.658
59.3283
196.405
5.50905
4.38245
99.9604
169.613
124.733
4.95353
46.1793
0.000750573
1.51132
39.7818
33.7347
310.692
25.9793
1.14323
41.238
0.201905
0.00970712
40.0142
0.000751324
176.985
0.000886523
2.6235
288.248
184.75
3.03809
0.00251206
6.92331
0.000769342
0.000736312
0.196214
0.0134934
51.1612
0.00876415
28.6463
0.000750533
0.0190496
0.000725457
93.6756
0.00180045
85.9898
300.017
0.0142696
166.055
371.931
0.000757338
97.0512
226.192
0.000785168
282.651
0.27053
0.000822706
0.000788621
280.45
0.000731651
0.00112014
0.121991
0.212278
426.715
265.882
0.000751498
0.000754663
9.17428
28.1165
0.00709897
2.30051
22.5687
0.000747723
0.000955043
0.000910394
165.022
266.338
3.31802
296.264
0.0171457
26.4317
0.000771004
0.00718959
0.0160066
0.0428731
0.0007498
298.793
0.000741956
0.0160788
0.000771903
1.36748
0.0147676
0.0421704
2.39516
5.04517
34.8073
2.07431
9.3717
27.8557
189.956
0.000816738
166.654
321.318
12.5134
74.8411
0.000761891
268.019
76.7322
0.000745793
407.093
66.3637
0.00658071
0.025771
158.925
159.213
0.230543
311.012
405.696
4.45609
425.994
259.98
127.645
50.7106
20.9876
28.4843
260.126
286.717
0.0142347
308.622
39.9708
405.285
0.000813635
1.5618
2.80268
220.682
161.176
0.0118417
444.07
191.746
7.00075
0.0545991
2.65512
28.0656
0.00154961
28.2064
434.598
0.029228
217.057
13.5149
91.4786
185.514
0.0007462
0.00167877
7.48372
5.27235
0.0132436
0.000748342
0.801489
1.7865
0.00120956
0.000758694
268.423
7.15606
50.5936
10.4948
0.00315152
0.00107678
0.431326
87.7445
0.000824556
21.5576
29.6087
1.85433
163.83
0.00100598
0.387735
0.000740678
1.76046
86.2418
0.00165087
0.185012
40.9561
167.371
0.502795
95.3957
4.9332
0.920846
0.000988151
32.4119
328.546
0.000744156
0.000754155
144.434
0.0158046
0.000758243
71.0107
2.07613
162.445
29.5551
37.1282
0.311105
17.469
203.95
160.766
246.461
0.000763485
277.338
0.000967705
37.9863
0.000795073
0.00149882
45.1484
0.00209267
255.736
0.0121726
0.0323361
44.1087
7.43508
0.560132
0.000898194
181.32
0.00088768
0.000719044
339.734
157.588
41.4137
28.5548
0.000814562
0.000684006
19.451
145.089
0.000732569
218.107
36.1252
0.00075308
166.483
0.000701676
3.338
6.49475
10.855
1.5056
74.8578
21.1054
0.000699882
265.177
327.54
0.00074471
0.0132948
28.8598
0.000708247
234.007
162.741
403.561
0.000745711
0.000727867
203.386
0.0967195
0.000837035
30.6469
79.0117
256.056
0.000720702
0.000793817
0.0157796
0.0115902
0.000746919
0.00202771
124.234
50.6625
0.000746791
12.8881
0.000747073
9.86127
0.00108978
0.000867797
27.4582
0.000745963
0.342229
0.000730552
47.3089
2.06177
19.4258
182.172
361.034
149.531
5.24747
14.8485
0.000758248
5.74544
273.304
528.784
0.156474
0.000827174
125.859
0.000746142
0.113278
0.000720452
435.452
14.8603
3.0916
192.788
50.9006
4.88031
79.5998
7.46922
219.51
113.456
0.000774204
0.00075538
0.00309507
0.000735
0.0140304
97.2072
0.000931483
246.988
0.00186956
0.306085
3.06153
154.321
0.00135742
40.586
0.0135367
55.482
30.6678
431.389
0.000793958
0.000954104
1.47191
85.05
64.3689
66.0776
1.93022
7.90844
18.9004
0.0621576
10.2245
1.72448
30.1576
0.000755335
392.946
1.44305
56.3348
0.000788684
53.425
15.8246
0.0019086
87.0733
17.578
0.0839498
0.00071452
0.000746154
205.58
48.2925
14.9327
0.000738313
0.00953602
50.6466
184.284
3.36937
0.00585365
0.000733527
144.055
126.733
35.8605
35.8217
0.000743878
102.024
429.089
0.000746922
0.000749302
17.8357
0.00129014
0.00387315
0.221467
46.0109
0.00105021
36.3347
339.513
0.00073068
0.00082122
0.000727287
0.000770622
66.2406
516.09
330.907
0.0205976
32.8891
47.2856
0.13271
43.9267
0.000821793
31.3396
0.533377
30.4052
5.17656
80.5007
102.033
0.137956
0.000759132
156.181
84.5767
281.192
5.81343
29.6626
0.518447
20.852
0.00353487
0.0013362
154.653
139.749
0.0335502
1.20637
0.000754157
0.0993785
19.9671
0.0277909
13.2426
4.39104
385.88
36.6572
1.75068
275.994
137.969
56.5019
15.8077
203.121
188.861
3.18334
38.6486
0.00379766
47.6182
45.9525
0.000743476
0.000710443
0.346015
0.000748588
0.000774747
57.4795
298.243
0.000744756
84.1215
0.000745102
0.000736867
0.000741316
0.000752255
0.00181499
29.4238
43.393
245.008
0.000718191
0.00107491
6.78668
0.000855989
0.0282273
0.000762781
0.000862918
168.257
0.000983985
0.00466646
181.923
0.0042588
0.000749471
189.619
0.000745446
0.000760753
1.4401
0.00087164
6.51367
0.00123651
0.0239245
0.000743857
0.000753621
299.132
414.964
42.1423
0.0235672
110.279
16.0206
0.00129939
27.5662
309.593
230.134
476.523
0.000699888
27.5895
55.3125
0.261823
28.5071
101.318
0.351159
31.4427
1.01827
28.4184
0.285222
7.49614
0.000757617
217.742
0.00075488
28.6677
32.2748
0.000747886
0.91887
0.00245963
0.0306989
0.000726323
3.91541
0.000894612
0.000741856
40.0891
0.0336549
0.165074
225.802
150.637
0.000818298
0.000967445
30.5175
256.772
0.000690019
0.000754158
0.194627
23.2366
144.809
0.0020949
16.0412
0.000745558
0.000818818
0.00071812
0.0278201
23.4161
0.00408041
275.427
29.5105
254.964
168.724
0.000843902
299.75
66.0707
0.000732712
0.000754065
0.00075034
0.00115954
0.000740304
124.671
0.000745406
0.000750755
351.567
1.20636
0.00268064
0.0362767
58.6346
7.53295
0.00767012
0.000824468
181.609
0.00076269
6.67713
0.000754926
0.000846258
159.529
162.64
0.00334579
0.000833193
3.89889
0.000744277
368.592
0.000753021
147.93
0.0274006
8.20875
0.125599
3.1035
1.9447
28.8067
0.000760944
0.000860766
0.00489895
57.9929
0.28427
298.864
0.000747158
0.00124006
0.00164251
252.85
61.1791
271.566
0.00225902
0.00349959
0.798597
0.000751329
19.2373
38.1339
0.00876274
271.505
176.796
41.6927
0.00154756
1.45543
169.288
221.521
27.8703
0.0105566
122.116
0.529623
130.618
0.143267
2.30605
41.0911
0.000761952
28.4307
0.00122414
0.0050958
0.00660395
0.0478005
0.000907982
11.0423
0.000746107
46.0077
0.132143
0.000864507
1.55176
0.000756578
0.764646
0.225091
40.3563
3.6513
92.239
0.797459
0.000748409
0.000732691
4.73922
0.157099
42.4389
257.979