/*--------------------------------*- C++ -*----------------------------------*\
| =========                 |                                                 |
| \\      /  F ield         | OpenFOAM: The Open Source CFD Toolbox           |
|  \\    /   O peration     | Version:  2.3.1                                 |
|   \\  /    A nd           | Web:      www.OpenFOAM.org                      |
|    \\/     M anipulation  |                                                 |
\*---------------------------------------------------------------------------*/
FoamFile
{
    version     2.0;
    format      ascii;
    class       volVectorField;
    location    "0.64";
    object      U;
}
// * * * * * * * * * * * * * * * * * * * * * * * * * * * * * * * * * * * * * //

dimensions      [0 1 -1 0 0 0 0];

internalField   nonuniform List<vector> 
9648
(
(0.152595 -4.85224 -4.32722e-22)
(0.280632 -4.80638 3.14753e-23)
(0.407324 -4.77822 0)
(0.530585 -4.75102 0)
(0.653973 -4.72986 7.68021e-21)
(0.778772 -4.71492 1.19531e-20)
(0.907586 -4.71024 -2.44912e-20)
(1.04241 -4.71735 -1.17766e-20)
(1.18447 -4.73754 1.17471e-20)
(1.33434 -4.77285 3.6904e-20)
(1.49415 -4.82496 -3.67492e-20)
(1.66574 -4.89492 -5.40116e-20)
(1.85111 -4.98335 2.87984e-19)
(2.05228 -5.0902 7.51842e-20)
(2.27095 -5.21466 -7.06362e-19)
(2.50836 -5.35545 0)
(2.76564 -5.51082 0)
(3.04362 -5.67871 1.29932e-19)
(3.34299 -5.85647 4.19269e-19)
(3.66379 -6.04129 -1.2076e-18)
(4.00603 -6.23054 -2.15202e-20)
(4.36954 -6.42111 3.33068e-19)
(4.75357 -6.61011 3.9462e-19)
(5.15739 -6.79475 -1.79524e-18)
(5.58006 -6.97232 0)
(6.02055 -7.14023 1.07622e-18)
(6.47751 -7.29596 -1.12856e-18)
(6.94955 -7.43747 0)
(7.43525 -7.56259 0)
(7.93294 -7.66966 -6.85688e-19)
(8.44113 -7.75702 -1.51719e-18)
(8.958 -7.82321 2.3826e-18)
(9.48194 -7.86714 0)
(10.0112 -7.88758 0)
(10.5438 -7.88389 1.82515e-18)
(11.0783 -7.85522 -1.96445e-18)
(11.6127 -7.80116 0)
(12.1455 -7.72146 4.21696e-18)
(12.6748 -7.61574 1.13737e-18)
(13.1989 -7.48388 -3.36696e-18)
(13.7159 -7.32594 6.377e-20)
(14.2244 -7.14243 2.39506e-18)
(14.7227 -6.93322 -3.18166e-18)
(15.209 -6.69888 6.39999e-19)
(15.6822 -6.44018 0)
(16.1409 -6.15727 0)
(16.5834 -5.85087 4.82568e-18)
(17.0087 -5.52175 7.06275e-19)
(17.4162 -5.17073 -2.18222e-18)
(17.8048 -4.79774 -7.34529e-19)
(18.1724 -4.40407 -7.63754e-19)
(18.5176 -3.99183 7.5906e-19)
(18.8401 -3.56264 3.92013e-19)
(19.139 -3.11727 -3.89916e-19)
(19.4132 -2.65744 1.98986e-18)
(19.6623 -2.18421 -1.95912e-18)
(19.8853 -1.69905 -2.18049e-20)
(20.082 -1.20316 0)
(20.2517 -0.697998 -3.97814e-19)
(20.3941 -0.185227 -5.14397e-20)
(20.5091 0.333964 -4.87618e-20)
(-0.0775573 -2.54748 3.83942e-22)
(0.000640841 -2.5591 0)
(0.0786121 -2.5772 0)
(0.155625 -2.60796 2.01074e-21)
(0.237059 -2.65933 -3.59266e-21)
(0.327764 -2.73377 -2.87259e-20)
(0.429194 -2.82833 0)
(0.543227 -2.9421 0)
(0.67162 -3.07579 -3.96245e-20)
(0.815004 -3.22938 0)
(0.974713 -3.40189 -9.96212e-20)
(1.15157 -3.59182 7.94539e-20)
(1.34648 -3.79789 -4.31799e-20)
(1.56038 -4.01839 0)
(1.79402 -4.25136 2.74776e-19)
(2.04768 -4.49467 1.63497e-19)
(2.32168 -4.74607 -1.60869e-19)
(2.61613 -5.00328 2.10341e-19)
(2.9312 -5.26376 -6.41242e-19)
(3.26664 -5.52504 5.12249e-19)
(3.6221 -5.78475 -5.68086e-19)
(3.99731 -6.04034 -3.06536e-19)
(4.39145 -6.28947 -3.14351e-19)
(4.80374 -6.52982 1.08235e-18)
(5.23325 -6.75917 3.74828e-19)
(5.67904 -6.97537 4.46101e-19)
(6.13996 -7.17643 -3.95209e-19)
(6.61473 -7.3606 0)
(7.1021 -7.5261 0)
(7.60054 -7.67159 0)
(8.10871 -7.79563 0)
(8.62496 -7.89703 0)
(9.14778 -7.9748 0)
(9.67566 -8.02796 0)
(10.2068 -8.05595 -8.19781e-19)
(10.7397 -8.05801 7.44405e-19)
(11.2726 -8.03388 8.20994e-19)
(11.804 -7.98327 -4.17133e-18)
(12.3322 -7.90587 -8.85168e-19)
(12.8555 -7.80164 2.72265e-18)
(13.3723 -7.67072 1.91047e-18)
(13.8809 -7.51356 -1.97158e-18)
(14.3799 -7.33004 9.4168e-19)
(14.8675 -7.12089 9.93438e-19)
(15.3425 -6.88675 -1.05574e-18)
(15.8033 -6.62788 1.04644e-18)
(16.2485 -6.34513 -2.24302e-18)
(16.6768 -6.03932 0)
(17.0869 -5.71129 -5.72755e-19)
(17.4783 -5.36117 1.15094e-18)
(17.85 -4.99004 -5.78334e-19)
(18.2007 -4.59959 0)
(18.5294 -4.19121 1.18843e-18)
(18.8351 -3.76568 0)
(19.1171 -3.32448 0)
(19.3744 -2.86879 2.81591e-18)
(19.6064 -2.39992 -1.26894e-18)
(19.8124 -1.91952 -3.08666e-19)
(19.9922 -1.42844 3.25757e-19)
(20.1452 -0.928411 0)
(20.2708 -0.420705 8.18927e-20)
(0.0443932 -1.49856 -5.4774e-22)
(0.108467 -1.55193 0)
(0.176986 -1.62067 6.91828e-22)
(0.250176 -1.7094 -3.39651e-22)
(0.331029 -1.81714 0)
(0.423047 -1.94333 2.30043e-20)
(0.527572 -2.08941 1.70455e-20)
(0.646212 -2.25442 0)
(0.780647 -2.43798 2.33896e-21)
(0.932523 -2.6387 4.13642e-20)
(1.10279 -2.8555 8.48676e-20)
(1.29208 -3.08651 -2.95451e-20)
(1.50094 -3.32991 0)
(1.72969 -3.58363 0)
(1.97859 -3.84555 2.08081e-19)
(2.24758 -4.11352 -1.33528e-19)
(2.53659 -4.3853 -1.43434e-19)
(2.84543 -4.65869 0)
(3.17384 -4.93142 5.56137e-19)
(3.52146 -5.20128 -5.78025e-19)
(3.88779 -5.4662 -4.3303e-19)
(4.2723 -5.72404 -4.77628e-19)
(4.67419 -5.97278 0)
(5.09256 -6.21045 -8.58136e-19)
(5.52647 -6.43511 -3.01994e-19)
(5.97492 -6.64494 3.59371e-19)
(6.43682 -6.83824 3.9705e-19)
(6.91096 -7.01348 0)
(7.39606 -7.16924 0)
(7.89075 -7.30429 0)
(8.39361 -7.41746 0)
(8.90315 -7.50775 0)
(9.41792 -7.57427 0)
(9.9364 -7.61629 0)
(10.457 -7.63329 -1.80115e-18)
(10.9781 -7.62474 5.98424e-19)
(11.4983 -7.59041 -6.60116e-19)
(12.0159 -7.53007 3.32201e-18)
(12.5295 -7.44359 0)
(13.0373 -7.33103 1.41317e-18)
(13.5379 -7.19261 1.46147e-18)
(14.0296 -7.02864 7.23984e-19)
(14.5111 -6.83928 -8.29213e-19)
(14.9808 -6.6251 -1.59721e-18)
(15.4375 -6.38664 2.48835e-18)
(15.8798 -6.12446 -8.41768e-19)
(16.3063 -5.83934 -1.71659e-18)
(16.7158 -5.53211 0)
(17.1072 -5.20382 0)
(17.4794 -4.8555 -4.6838e-19)
(17.8315 -4.48812 -4.57812e-19)
(18.1626 -4.10265 -9.36399e-19)
(18.4719 -3.70019 -9.80021e-19)
(18.7584 -3.28219 0)
(19.0215 -2.84943 -9.68967e-19)
(19.2604 -2.40366 -1.00963e-18)
(19.4746 -1.9456 0)
(19.6634 -1.47747 1.63764e-20)
(19.8261 -0.999572 0)
(19.9627 -0.513656 0)
(20.0731 -0.0207601 -6.24902e-20)
(0.0239249 -0.991504 1.07538e-21)
(0.0882829 -1.08221 -1.77547e-21)
(0.164128 -1.18926 2.07718e-21)
(0.249825 -1.313 -9.67e-22)
(0.346265 -1.45367 0)
(0.454427 -1.61141 -9.42504e-21)
(0.576062 -1.7865 -1.47099e-20)
(0.712572 -1.97843 0)
(0.865363 -2.18641 3.19438e-21)
(1.03528 -2.4093 -3.5365e-20)
(1.22314 -2.6457 8.02671e-20)
(1.42924 -2.89393 9.86721e-20)
(1.65392 -3.152 0)
(1.89733 -3.41788 -7.99254e-20)
(2.15968 -3.68953 -1.70114e-19)
(2.4407 -3.96495 -9.08985e-20)
(2.74024 -4.24202 3.53029e-19)
(3.05806 -4.51867 -2.55717e-19)
(3.39377 -4.79285 2.87548e-19)
(3.74704 -5.06253 4.91139e-19)
(4.11744 -5.3259 7.11994e-19)
(4.50426 -5.5811 4.02348e-19)
(4.90686 -5.82631 1.93508e-19)
(5.32429 -6.05983 7.0488e-19)
(5.75569 -6.27986 2.31519e-19)
(6.2001 -6.48477 2.6373e-19)
(6.65649 -6.67305 3.11527e-19)
(7.12385 -6.84329 -9.32508e-19)
(7.60095 -6.99428 6.69717e-19)
(8.08647 -7.12488 7.57096e-19)
(8.57918 -7.23403 -1.54797e-18)
(9.07763 -7.32085 7.90523e-19)
(9.58046 -7.38448 -8.46994e-19)
(10.0864 -7.42429 4.2219e-19)
(10.5938 -7.43981 4.62851e-19)
(11.1012 -7.43059 5.13649e-19)
(11.6073 -7.39635 -5.07184e-19)
(12.1106 -7.33696 -5.52791e-19)
(12.6095 -7.25232 -1.65638e-18)
(13.1027 -7.14252 -1.19505e-18)
(13.5886 -7.0078 -2.42236e-18)
(14.0658 -6.84838 -3.13765e-18)
(14.5327 -6.66458 1.2862e-18)
(14.9881 -6.45679 2.92198e-20)
(15.4306 -6.22558 -7.20159e-19)
(15.8591 -5.97151 -7.06181e-19)
(16.2722 -5.69525 4.26928e-18)
(16.6688 -5.39759 -7.15503e-19)
(17.0479 -5.07936 0)
(17.4085 -4.74153 0)
(17.7496 -4.38507 -7.18113e-19)
(18.0703 -4.01119 3.21292e-20)
(18.3699 -3.62089 7.70308e-19)
(18.6475 -3.21532 0)
(18.9024 -2.79578 8.20104e-19)
(19.1338 -2.36358 0)
(19.3411 -1.91989 0)
(19.5239 -1.46566 6.24561e-19)
(19.6817 -1.00247 1.98583e-19)
(19.8142 -0.53176 -2.02337e-19)
(19.9212 -0.0550069 1.03522e-19)
(0.119452 -0.73636 4.72836e-23)
(0.184106 -0.848143 1.55087e-21)
(0.26249 -0.974786 -3.62674e-21)
(0.354294 -1.11735 -7.99117e-22)
(0.459578 -1.27631 -2.80178e-22)
(0.579314 -1.45146 3.62888e-21)
(0.714332 -1.64255 2.34518e-21)
(0.865433 -1.84874 -1.02723e-20)
(1.03366 -2.06915 3.55968e-20)
(1.21915 -2.30255 -5.20553e-20)
(1.42245 -2.54743 5.93448e-20)
(1.64329 -2.80212 -7.57052e-20)
(1.88187 -3.06459 -4.41932e-20)
(2.13801 -3.33287 0)
(2.41198 -3.60496 8.37425e-20)
(2.70319 -3.87913 8.02319e-20)
(3.01145 -4.15338 0)
(3.33651 -4.42576 2.0018e-19)
(3.6778 -4.69438 0)
(4.03513 -4.95733 -2.67155e-19)
(4.40812 -5.21303 2.92111e-19)
(4.79596 -5.45991 1.03401e-20)
(5.1981 -5.69626 -1.73286e-20)
(5.61351 -5.92065 2.94577e-20)
(6.04138 -6.13133 -8.25434e-19)
(6.48086 -6.32681 -4.74405e-19)
(6.93092 -6.5057 9.76964e-19)
(7.39078 -6.66668 1.06062e-18)
(7.8592 -6.8088 -5.7448e-19)
(8.33497 -6.93093 0)
(8.81697 -7.03212 0)
(9.30372 -7.11161 0)
(9.79406 -7.16849 7.27907e-19)
(10.2868 -7.20224 -3.00642e-18)
(10.7804 -7.21251 1.57345e-18)
(11.2735 -7.19884 -8.00222e-19)
(11.7648 -7.16091 -1.72621e-18)
(12.2529 -7.09876 1.75108e-18)
(12.7365 -7.01224 4.03749e-20)
(13.2141 -6.90147 -9.88544e-19)
(13.6844 -6.76674 1.02133e-18)
(14.1458 -6.60827 1.05587e-18)
(14.5971 -6.42634 0)
(15.0369 -6.22128 -1.07188e-18)
(15.464 -5.99367 0)
(15.8773 -5.74407 -1.71187e-18)
(16.2754 -5.47314 5.29116e-19)
(16.6574 -5.18161 0)
(17.0223 -4.8702 -6.20505e-19)
(17.369 -4.53994 -1.47542e-20)
(17.6968 -4.19166 1.32153e-18)
(18.0048 -3.82653 -6.2785e-19)
(18.2923 -3.44563 -3.49033e-19)
(18.5585 -3.05008 6.39202e-19)
(18.8026 -2.64125 -4.82572e-21)
(19.0239 -2.22011 3.33199e-19)
(19.2216 -1.78798 1.60921e-19)
(19.3954 -1.34579 3.39548e-19)
(19.5451 -0.894772 -8.52839e-19)
(19.6703 -0.436423 3.42462e-19)
(19.7706 0.0276977 -4.38113e-20)
(0.207128 -0.598047 -4.94281e-22)
(0.283972 -0.724345 0)
(0.375418 -0.865101 4.91377e-21)
(0.481703 -1.0212 0)
(0.602148 -1.19273 -8.18748e-22)
(0.737981 -1.37918 2.67329e-21)
(0.889592 -1.58011 5.37603e-21)
(1.05748 -1.79439 2.0487e-20)
(1.2426 -2.02104 3.81029e-21)
(1.44439 -2.2589 5.80525e-21)
(1.66346 -2.50634 1.00729e-21)
(1.89886 -2.76189 -2.83901e-20)
(2.15091 -3.02346 4.31378e-20)
(2.41874 -3.28908 -1.31771e-19)
(2.70333 -3.55681 1.13844e-19)
(3.00364 -3.8255 -8.62372e-21)
(3.31924 -4.09291 -1.42581e-19)
(3.65023 -4.35733 -1.72992e-19)
(3.99561 -4.61711 0)
(4.35545 -4.87023 2.06991e-19)
(4.72964 -5.11547 8.42598e-21)
(5.11693 -5.35157 -5.39645e-19)
(5.51732 -5.57682 -2.3497e-20)
(5.9293 -5.79023 -2.92966e-19)
(6.35217 -5.98988 1.03617e-18)
(6.78528 -6.17442 3.57417e-20)
(7.22748 -6.34262 -3.8594e-19)
(7.67845 -6.4931 -4.15607e-20)
(8.13683 -6.62532 0)
(8.60141 -6.73812 0)
(9.07142 -6.83056 0)
(9.54514 -6.90217 0)
(10.0215 -6.95186 0)
(10.4998 -6.97909 5.78826e-20)
(10.9783 -6.98384 -6.75015e-19)
(11.4556 -6.96561 -3.93347e-20)
(11.9309 -6.92388 2.94882e-20)
(12.4026 -6.85898 6.96735e-19)
(12.8695 -6.77065 1.59288e-18)
(13.3305 -6.65902 -2.40249e-18)
(13.784 -6.52461 1.67234e-18)
(14.2287 -6.36748 -8.43899e-19)
(14.6631 -6.18799 0)
(15.0862 -5.98621 9.37345e-19)
(15.497 -5.76284 0)
(15.894 -5.51844 9.86518e-19)
(16.2764 -5.25348 -1.00934e-18)
(16.6428 -4.96898 4.74031e-19)
(16.9925 -4.66527 5.06306e-19)
(17.3247 -4.3434 -5.2818e-19)
(17.6385 -4.00424 3.79239e-20)
(17.9332 -3.64899 -1.06812e-20)
(18.208 -3.27842 1.07393e-18)
(18.4623 -2.89395 -1.10504e-18)
(18.6954 -2.4968 -5.45109e-19)
(18.9062 -2.08828 -2.66855e-19)
(19.0941 -1.66918 -8.48703e-19)
(19.2589 -1.24033 0)
(19.4003 -0.802869 5.73058e-19)
(19.5183 -0.358623 -1.47088e-19)
(19.6123 0.0911489 0)
(0.315046 -0.528626 0)
(0.405757 -0.665042 0)
(0.512002 -0.816152 -2.39088e-21)
(0.635128 -0.982354 3.24421e-21)
(0.772378 -1.1631 -7.4235e-22)
(0.925971 -1.35725 -4.71493e-21)
(1.09538 -1.5643 3.30482e-21)
(1.2804 -1.78273 -1.34964e-20)
(1.48319 -2.01177 -1.22835e-21)
(1.701 -2.25028 4.08805e-20)
(1.93607 -2.49664 -7.94945e-20)
(2.18541 -2.74971 0)
(2.4506 -3.00712 0)
(2.72877 -3.26715 1.4967e-19)
(3.02346 -3.52736 9.72415e-20)
(3.33195 -3.78794 -2.15623e-19)
(3.65364 -4.04611 3.5102e-19)
(3.98978 -4.3003 1.47978e-19)
(4.33796 -4.54948 -2.96296e-19)
(4.69896 -4.79092 -1.8047e-19)
(5.07371 -5.0238 2.08216e-19)
(5.45908 -5.24773 -5.27835e-21)
(5.85706 -5.46023 0)
(6.26454 -5.66169 5.39727e-19)
(6.68126 -5.84937 -8.90148e-19)
(7.10719 -6.02193 2.96545e-19)
(7.54009 -6.17871 6.56485e-19)
(7.98128 -6.31758 -1.82853e-18)
(8.42877 -6.4391 3.72561e-19)
(8.88092 -6.54195 0)
(9.33821 -6.62477 0)
(9.79786 -6.68819 0)
(10.259 -6.73028 5.12154e-19)
(10.7219 -6.75026 1.5859e-18)
(11.1847 -6.74902 -1.07265e-18)
(11.6448 -6.7262 5.92181e-19)
(12.1032 -6.67998 6.49145e-19)
(12.5574 -6.61205 -1.28769e-18)
(13.0063 -6.52163 0)
(13.4497 -6.40857 -1.32226e-18)
(13.8854 -6.27431 6.86821e-19)
(14.3124 -6.11831 3.56221e-20)
(14.7288 -5.94143 -3.19181e-20)
(15.1342 -5.74273 7.56383e-19)
(15.5276 -5.52351 3.18773e-20)
(15.9073 -5.2846 -2.41463e-18)
(16.2729 -5.02562 8.18104e-19)
(16.6227 -4.74838 -1.69897e-18)
(16.9564 -4.45231 0)
(17.2729 -4.13928 0)
(17.5719 -3.80923 1.79314e-18)
(17.8522 -3.46436 -4.28293e-19)
(18.1133 -3.10457 -9.28782e-19)
(18.3551 -2.73117 -4.46261e-19)
(18.5765 -2.34627 1.42486e-18)
(18.7763 -1.95088 7.18464e-19)
(18.9537 -1.54527 2.48256e-19)
(19.1084 -1.13061 -4.68735e-21)
(19.241 -0.707043 -2.48312e-19)
(19.3513 -0.277018 0)
(19.4386 0.157636 0)
(0.439314 -0.503139 4.98547e-22)
(0.547468 -0.646582 0)
(0.669968 -0.80484 0)
(0.812824 -0.978504 -1.76499e-21)
(0.967404 -1.16581 0)
(1.13981 -1.36474 -5.58269e-22)
(1.3273 -1.57491 3.4066e-21)
(1.52845 -1.79432 -7.26049e-21)
(1.75013 -2.02284 0)
(1.98255 -2.2593 -2.45552e-20)
(2.23458 -2.50203 4.02425e-21)
(2.4962 -2.7506 0)
(2.77526 -3.00193 0)
(3.06072 -3.25481 -6.27567e-20)
(3.36576 -3.50434 6.89866e-20)
(3.68211 -3.75552 -8.7778e-20)
(4.00795 -4.00309 -1.01703e-19)
(4.34918 -4.24544 0)
(4.69875 -4.48368 1.32525e-19)
(5.05931 -4.71218 -2.8032e-19)
(5.43529 -4.9313 -3.15139e-19)
(5.81637 -5.14279 -3.70937e-19)
(6.21221 -5.34101 -3.375e-20)
(6.61424 -5.53067 -4.73156e-19)
(7.02374 -5.70599 4.54083e-19)
(7.4426 -5.86582 5.07102e-19)
(7.86406 -6.0113 -5.78136e-19)
(8.29508 -6.13723 3.20529e-20)
(8.7313 -6.2477 4.29951e-20)
(9.16908 -6.34067 -6.68473e-19)
(9.61344 -6.4129 0)
(10.058 -6.46861 -8.14669e-19)
(10.5027 -6.50281 1.61626e-18)
(10.9497 -6.51439 -4.54676e-20)
(11.3962 -6.50743 9.49121e-19)
(11.8369 -6.48127 -9.44409e-19)
(12.2783 -6.42927 1.04121e-18)
(12.714 -6.35841 1.08616e-18)
(13.1434 -6.26583 -2.14749e-18)
(13.5683 -6.15059 1.17491e-18)
(13.9847 -6.01691 1.15534e-18)
(14.3936 -5.86167 1.82488e-18)
(14.7902 -5.68785 -6.49519e-19)
(15.177 -5.49112 0)
(15.5522 -5.27623 3.47967e-20)
(15.9129 -5.04384 7.05182e-19)
(16.2613 -4.79051 -6.85344e-19)
(16.5928 -4.52194 7.37845e-19)
(16.9095 -4.23353 0)
(17.2088 -3.93039 0)
(17.4922 -3.60944 -4.03664e-20)
(17.7571 -3.27603 7.91792e-19)
(18.0033 -2.92641 0)
(18.2317 -2.5639 3.9311e-19)
(18.4411 -2.19246 3.96389e-19)
(18.6292 -1.81134 -8.07189e-19)
(18.7958 -1.41985 -3.95819e-19)
(18.9391 -1.02051 -2.10226e-19)
(19.0615 -0.610404 0)
(19.1641 -0.195712 0)
(19.2441 0.222343 2.51504e-20)
(0.580082 -0.505565 -1.37887e-21)
(0.712253 -0.652746 3.00829e-21)
(0.850653 -0.813506 -2.48652e-24)
(1.01974 -0.992371 -3.66577e-21)
(1.188 -1.18266 5.79997e-21)
(1.37901 -1.38584 -2.97749e-21)
(1.5854 -1.5948 0)
(1.79882 -1.81098 1.47382e-21)
(2.04458 -2.03734 -1.0162e-20)
(2.28567 -2.26813 0)
(2.5604 -2.50597 5.14034e-20)
(2.82696 -2.74945 -3.3193e-20)
(3.12331 -2.99475 3.40017e-20)
(3.40855 -3.24065 4.45026e-20)
(3.72659 -3.47387 -5.96551e-20)
(4.05039 -3.71669 -7.38135e-20)
(4.37603 -3.95348 2.4503e-19)
(4.72661 -4.18061 -2.56113e-19)
(5.07085 -4.4106 0)
(5.42611 -4.62759 -9.23849e-21)
(5.80998 -4.83178 7.74243e-19)
(6.1786 -5.03336 -2.99664e-20)
(6.57983 -5.21215 -3.70434e-19)
(6.97016 -5.39319 7.0945e-19)
(7.37045 -5.55849 0)
(7.78548 -5.70573 -4.38213e-19)
(8.18906 -5.84155 -4.49202e-19)
(8.61164 -5.953 9.9755e-19)
(9.03761 -6.05338 -6.64265e-21)
(9.45669 -6.13799 5.93236e-19)
(9.89073 -6.19708 -1.21376e-18)
(10.3162 -6.24774 1.93052e-18)
(10.7419 -6.27565 -1.38454e-18)
(11.1739 -6.27861 -1.45312e-18)
(11.6068 -6.26533 0)
(12.0232 -6.23649 8.28123e-19)
(12.4532 -6.17606 0)
(12.8666 -6.10542 -3.13857e-21)
(13.274 -6.01247 9.81869e-19)
(13.6829 -5.8919 -1.82715e-18)
(14.0776 -5.75797 -6.85825e-21)
(14.4694 -5.60374 -2.02096e-18)
(14.8403 -5.43577 0)
(15.2073 -5.24222 -5.78206e-19)
(15.5652 -5.03315 2.21941e-18)
(15.9024 -4.80846 -5.64178e-19)
(16.2374 -4.56029 5.9757e-19)
(16.5466 -4.30145 0)
(16.8481 -4.01969 6.1461e-19)
(17.1277 -3.72547 -1.85419e-18)
(17.3965 -3.41001 -2.57985e-20)
(17.6445 -3.08824 0)
(17.8727 -2.75155 6.36716e-19)
(18.0884 -2.40037 -1.9117e-20)
(18.287 -2.04015 0)
(18.4605 -1.67187 3.585e-19)
(18.6179 -1.30222 -3.25493e-19)
(18.7473 -0.920234 3.41164e-19)
(18.8579 -0.524714 3.38269e-19)
(18.9556 -0.121811 -1.69842e-19)
(19.0253 0.280331 -6.42349e-20)
(20.596 0.858686 1.51699e-19)
(20.6544 1.38723 -5.14333e-20)
(20.6848 1.91887 0)
(20.6871 2.45129 0)
(20.6618 2.98277 8.1713e-19)
(20.609 3.51218 1.1757e-18)
(20.5287 4.03765 -1.21049e-18)
(20.4212 4.55783 -3.98872e-19)
(20.2866 5.07129 3.98831e-19)
(20.1256 5.57697 7.8044e-19)
(19.9383 6.07422 -7.80932e-19)
(19.725 6.56121 -7.59194e-19)
(19.487 7.03688 3.77599e-18)
(19.2258 7.49998 7.34353e-19)
(18.9417 7.94911 -6.48028e-18)
(18.6352 8.38277 0)
(18.3073 8.80008 0)
(17.9592 9.20005 6.73987e-19)
(17.5916 9.58217 1.99077e-18)
(17.2053 9.94508 -5.1173e-18)
(16.802 10.2881 -7.49397e-20)
(16.3823 10.6109 1.17288e-18)
(15.9473 10.9121 1.20672e-18)
(15.4982 11.1914 -4.50257e-18)
(15.0364 11.4485 0)
(14.5629 11.6837 2.11486e-18)
(14.0779 11.8962 -1.95967e-18)
(13.5835 12.0842 0)
(13.0811 12.2475 0)
(12.5726 12.3858 -8.97973e-19)
(12.059 12.4991 -1.6418e-18)
(11.5417 12.5871 2.34011e-18)
(11.0222 12.65 0)
(10.5015 12.6877 0)
(9.98109 12.7003 1.18108e-18)
(9.46213 12.6879 -1.1229e-18)
(8.94596 12.6507 0)
(8.43387 12.5891 1.77025e-18)
(7.92688 12.5035 3.68953e-19)
(7.42625 12.3941 -1.02072e-18)
(6.9332 12.2613 3.55952e-20)
(6.44913 12.1059 4.30187e-19)
(5.97482 11.9286 -4.25832e-19)
(5.51147 11.7296 7.45438e-20)
(5.06026 11.51 0)
(4.62191 11.2704 0)
(4.19745 11.0114 -1.71765e-19)
(3.78782 10.7341 -3.70569e-20)
(3.39402 10.4392 2.20957e-19)
(3.01673 10.1281 9.19234e-20)
(2.65659 9.80145 1.43798e-19)
(2.31441 9.46016 -1.45675e-19)
(1.99095 9.1055 -9.76157e-20)
(1.68652 8.73868 9.89491e-20)
(1.40182 8.36061 -5.9103e-19)
(1.13726 7.97273 6.44893e-19)
(0.89326 7.57619 -1.33019e-21)
(0.670124 7.17247 0)
(0.468021 6.76263 1.64272e-19)
(0.287304 6.34777 2.23136e-20)
(0.128051 5.92912 2.36173e-20)
(20.3685 0.0929178 -8.19633e-20)
(20.4379 0.610369 0)
(20.4796 1.12955 0)
(20.4941 1.65003 9.40863e-19)
(20.481 2.17041 -6.29045e-19)
(20.4409 2.68939 -2.21664e-18)
(20.3739 3.20513 0)
(20.2798 3.71693 0)
(20.1591 4.22289 -1.20656e-18)
(20.0118 4.72176 0)
(19.8384 5.21266 -1.76761e-18)
(19.6393 5.6933 1.17267e-18)
(19.4162 6.16193 -5.82129e-19)
(19.1701 6.61844 0)
(18.901 7.06229 2.30204e-18)
(18.6093 7.49212 1.07811e-18)
(18.296 7.90677 -1.08028e-18)
(17.962 8.30506 1.02747e-18)
(17.6082 8.68634 -3.03627e-18)
(17.2355 9.04943 2.04454e-18)
(16.8453 9.3932 -1.98555e-18)
(16.4384 9.7172 -1.0123e-18)
(16.0161 10.0202 -9.15543e-19)
(15.5794 10.3016 2.65632e-18)
(15.1296 10.5605 8.51329e-19)
(14.6674 10.7968 7.78908e-19)
(14.194 11.0108 -7.03808e-19)
(13.7114 11.2014 0)
(13.2205 11.368 0)
(12.7228 11.5099 0)
(12.2195 11.6272 0)
(11.7119 11.7196 0)
(11.2016 11.787 0)
(10.6895 11.8296 0)
(10.1773 11.847 -4.90942e-19)
(9.66609 11.8396 4.35777e-19)
(9.1572 11.8072 3.49017e-19)
(8.65186 11.7504 -1.6942e-18)
(8.15118 11.6695 -2.64427e-19)
(7.6565 11.5646 7.88916e-19)
(7.16903 11.4363 4.34245e-19)
(6.69015 11.285 -3.46318e-19)
(6.22071 11.1114 1.28543e-19)
(5.76206 10.9159 9.41849e-20)
(5.31529 10.6992 -7.55177e-21)
(4.88122 10.4621 7.63647e-21)
(4.46091 10.2052 9.30847e-20)
(4.05533 9.92933 0)
(3.66553 9.63546 8.06648e-20)
(3.2923 9.32456 -1.82998e-19)
(2.93629 8.99751 1.02625e-19)
(2.59841 8.65519 0)
(2.2795 8.29873 -3.05768e-19)
(1.97984 7.9293 0)
(1.70031 7.54785 0)
(1.44117 7.15577 -9.50222e-19)
(1.20305 6.75429 4.58383e-19)
(0.986174 6.34481 1.26709e-19)
(0.791097 5.92833 -1.32566e-19)
(0.618128 5.50613 0)
(0.467503 5.07945 -3.73961e-20)
(20.157 0.476936 6.25276e-20)
(20.2147 0.978143 0)
(20.2455 1.47983 -2.49403e-19)
(20.2488 1.98179 -1.64287e-20)
(20.2255 2.48261 0)
(20.1764 2.98178 2.00041e-18)
(20.101 3.47864 9.76513e-19)
(19.9991 3.97242 0)
(19.8712 4.46098 3.22102e-20)
(19.7175 4.94197 9.4488e-19)
(19.5391 5.41396 1.43516e-18)
(19.337 5.87551 -4.71773e-19)
(19.1117 6.32495 0)
(18.8634 6.7616 0)
(18.5927 7.18498 1.73704e-18)
(18.3006 7.59417 -8.56945e-19)
(17.9879 7.98815 -8.02952e-19)
(17.6555 8.36596 0)
(17.3044 8.72683 2.42484e-18)
(16.9354 9.06978 -2.32664e-18)
(16.5499 9.39391 -1.48584e-18)
(16.1488 9.69851 -1.43765e-18)
(15.7331 9.98268 0)
(15.3041 10.2457 -2.05369e-18)
(14.8627 10.487 -6.70066e-19)
(14.4102 10.7059 6.1204e-19)
(13.9479 10.9018 6.02286e-19)
(13.477 11.0748 0)
(12.9986 11.2244 0)
(12.514 11.3502 0)
(12.0244 11.4522 0)
(11.5311 11.5301 0)
(11.0354 11.584 0)
(10.5386 11.6138 0)
(10.0421 11.6194 -1.05111e-18)
(9.54687 11.6011 3.36522e-19)
(9.0543 11.5588 -2.68208e-19)
(8.5655 11.4929 1.27748e-18)
(8.08161 11.4037 0)
(7.60384 11.2915 3.58695e-19)
(7.13339 11.1569 2.92374e-19)
(6.67148 11.0003 1.25118e-19)
(6.21911 10.8222 -7.45642e-20)
(5.77745 10.6231 -9.34756e-20)
(5.34752 10.4038 2.82632e-20)
(4.93023 10.1648 -7.6826e-22)
(4.52642 9.90685 1.03416e-19)
(4.13709 9.6308 0)
(3.76313 9.33757 0)
(3.40539 9.028 8.07006e-20)
(3.06459 8.70299 9.73966e-20)
(2.74142 8.3635 2.0987e-19)
(2.43664 8.01045 2.40387e-19)
(2.15066 7.64498 0)
(1.88421 7.26797 2.9902e-19)
(1.63751 6.88088 3.29935e-19)
(1.41108 6.48476 0)
(1.2053 6.08109 -1.86065e-21)
(1.0207 5.67078 0)
(0.857502 5.25514 0)
(0.715987 4.83525 2.86399e-20)
(20.0023 0.426775 -1.03561e-19)
(20.0577 0.912065 2.02533e-19)
(20.0871 1.40014 -3.99277e-19)
(20.0904 1.88907 -2.14706e-19)
(20.0674 2.37734 0)
(20.0178 2.86386 -8.31338e-19)
(19.9414 3.34823 -8.25135e-19)
(19.84 3.82844 0)
(19.7142 4.30432 3.42111e-20)
(19.5643 4.77359 -7.97051e-19)
(19.3904 5.23429 1.50473e-18)
(19.1928 5.68547 1.48105e-18)
(18.9721 6.12603 0)
(18.7289 6.5547 -7.2149e-19)
(18.464 6.97028 -1.43285e-18)
(18.1781 7.3716 -7.06495e-19)
(17.8722 7.75778 2.06892e-18)
(17.547 8.12796 -1.32909e-18)
(17.2035 8.48137 1.29301e-18)
(16.8428 8.81719 1.8768e-18)
(16.4659 9.13459 2.43643e-18)
(16.0738 9.43279 1.20423e-18)
(15.6677 9.71095 5.54332e-19)
(15.2486 9.9684 1.67509e-18)
(14.8174 10.2046 5.12743e-19)
(14.3753 10.4191 5.13151e-19)
(13.9235 10.6113 4.6486e-19)
(13.4633 10.781 -1.3536e-18)
(12.9958 10.9278 8.39179e-19)
(12.5224 11.0515 7.82927e-19)
(12.044 11.1517 -1.51908e-18)
(11.5621 11.2284 7.36088e-19)
(11.0778 11.2817 -6.40466e-19)
(10.5925 11.3115 3.00641e-19)
(10.1074 11.3177 2.90298e-19)
(9.62379 11.3004 2.35703e-19)
(9.14276 11.2597 -2.3722e-19)
(8.66539 11.1959 -2.23421e-19)
(8.19282 11.1093 -5.10629e-19)
(7.72625 11.0004 -2.95905e-19)
(7.26686 10.8696 -4.61863e-19)
(6.81574 10.7173 -4.28584e-19)
(6.37406 10.5442 1.23219e-19)
(5.94287 10.3506 7.14726e-21)
(5.52317 10.1372 -1.07132e-21)
(5.11589 9.90457 3.13784e-20)
(4.72172 9.65346 -2.67834e-19)
(4.34167 9.38466 5.79059e-20)
(3.97657 9.09915 0)
(3.62735 8.79768 0)
(3.2946 8.48108 1.48803e-19)
(2.97915 8.15044 6.92773e-22)
(2.6816 7.80655 -1.95089e-19)
(2.40241 7.45047 0)
(2.14219 7.08301 -2.42369e-19)
(1.90113 6.70562 0)
(1.67979 6.31945 0)
(1.47839 5.92577 -2.32993e-19)
(1.29774 5.52571 -8.29326e-20)
(1.13782 5.12041 8.61796e-20)
(0.999191 4.71107 -4.57271e-20)
(19.8458 0.496478 1.87585e-21)
(19.8959 0.968715 -1.75194e-19)
(19.9205 1.44342 5.13359e-19)
(19.9199 1.91905 3.40525e-19)
(19.8938 2.39446 -5.01519e-19)
(19.8424 2.8683 3.35868e-19)
(19.7665 3.33847 -2.45607e-21)
(19.6659 3.80301 -6.49914e-19)
(19.5407 4.26193 9.89598e-19)
(19.3922 4.71438 -1.28886e-18)
(19.2206 5.15918 1.21277e-18)
(19.0262 5.59487 -1.28905e-18)
(18.8096 6.02039 -6.19211e-19)
(18.5713 6.43466 0)
(18.312 6.83636 6.37142e-19)
(18.0327 7.22429 5.43809e-19)
(17.7338 7.59772 0)
(17.4163 7.95567 1.07066e-18)
(17.081 8.29747 0)
(16.729 8.62235 -1.05858e-18)
(16.3614 8.92945 9.34744e-19)
(15.9793 9.21798 -4.05067e-20)
(15.5837 9.48707 -4.53291e-20)
(15.1756 9.73597 1.6613e-21)
(14.7557 9.96428 -1.75789e-18)
(14.3254 10.1715 -7.99277e-19)
(13.8856 10.3573 1.56166e-18)
(13.4377 10.5213 1.44371e-18)
(12.9828 10.6631 -7.19745e-19)
(12.5221 10.7824 0)
(12.0568 10.879 0)
(11.5878 10.9529 0)
(11.1166 11.0041 5.48118e-19)
(10.6444 11.0326 -1.9193e-18)
(10.1726 11.0382 8.90558e-19)
(9.70224 11.021 -4.24505e-19)
(9.23436 10.9811 -6.78979e-19)
(8.77005 10.9187 6.37326e-19)
(8.31029 10.8343 2.12555e-20)
(7.85638 10.7282 -2.00548e-19)
(7.40939 10.6009 2.20019e-19)
(6.97043 10.4529 1.42821e-19)
(6.54068 10.2847 0)
(6.12118 10.0968 -3.94523e-20)
(5.71289 9.88974 0)
(5.31677 9.66386 7.74889e-20)
(4.93327 9.42011 -4.02305e-20)
(4.56343 9.15922 0)
(4.20789 8.88217 9.41832e-20)
(3.86795 8.58963 1.94927e-20)
(3.54389 8.28235 -2.47057e-19)
(3.23654 7.96144 1.45104e-19)
(2.94669 7.62767 9.55613e-20)
(2.67451 7.28202 -1.75036e-19)
(2.42089 6.92525 8.0748e-21)
(2.1854 6.55866 -1.06204e-19)
(1.9691 6.18348 -5.72297e-20)
(1.77187 5.80101 -1.27274e-19)
(1.59487 5.41234 3.37439e-19)
(1.4377 5.0186 -1.43516e-19)
(1.30148 4.62089 1.90033e-20)
(19.682 0.545259 3.68629e-20)
(19.7274 1.00256 0)
(19.7483 1.46189 -5.74429e-19)
(19.7446 1.92212 0)
(19.7165 2.38191 2.85706e-19)
(19.6642 2.83989 8.35639e-19)
(19.5878 3.29463 5.47851e-19)
(19.4875 3.74551 1.11059e-18)
(19.3637 4.19071 9.65964e-21)
(19.2173 4.62939 -6.81648e-21)
(19.0485 5.06011 -5.98801e-20)
(18.8578 5.48187 -5.2758e-19)
(18.6456 5.89364 5.0925e-19)
(18.4125 6.29446 -1.49272e-18)
(18.1594 6.68315 1.01245e-18)
(17.8869 7.05843 -4.84507e-20)
(17.5955 7.41954 -9.177e-19)
(17.286 7.7656 -9.39801e-19)
(16.9592 8.09609 0)
(16.6163 8.41041 8.41083e-19)
(16.2585 8.70758 -3.76322e-20)
(15.8867 8.98684 -1.65364e-18)
(15.5022 9.24724 -5.71895e-21)
(15.1055 9.4879 -6.86073e-19)
(14.6975 9.70864 2.08724e-18)
(14.2794 9.90898 -3.45892e-20)
(13.8521 10.0886 -6.661e-19)
(13.417 10.2473 -6.99966e-20)
(12.9753 10.3845 0)
(12.528 10.5 0)
(12.0763 10.5933 0)
(11.6208 10.6649 0)
(11.1633 10.7145 0)
(10.7047 10.7424 5.34235e-20)
(10.2468 10.7481 -3.45032e-19)
(9.79023 10.7316 3.89735e-20)
(9.33612 10.693 5.26778e-20)
(8.88542 10.6325 2.21477e-19)
(8.43892 10.5507 4.20475e-19)
(7.99803 10.4481 -5.23457e-19)
(7.5639 10.3248 3.07417e-19)
(7.13736 10.1817 -9.50129e-20)
(6.71988 10.0191 0)
(6.31242 9.83756 3.43732e-20)
(5.91587 9.63766 0)
(5.53144 9.41928 -4.03153e-20)
(5.1588 9.18367 7.70815e-20)
(4.7996 8.93146 -5.34012e-20)
(4.45385 8.66384 -6.74837e-20)
(4.12352 8.38115 1.01268e-19)
(3.8084 8.08406 1.88765e-20)
(3.50935 7.77387 1.52552e-20)
(3.22741 7.45109 -2.78861e-19)
(2.96241 7.11682 3.17937e-19)
(2.71557 6.77143 1.74077e-19)
(2.48572 6.41655 9.10107e-20)
(2.27464 6.05317 3.02943e-19)
(2.08124 5.68282 0)
(1.90783 5.30641 -2.31782e-19)
(1.75322 4.92515 6.15746e-20)
(1.6193 4.5399 0)
(19.5025 0.596478 0)
(19.5428 1.03822 0)
(19.5595 1.48195 2.49207e-19)
(19.5527 1.92624 -4.77265e-19)
(19.5225 2.37014 -2.462e-19)
(19.469 2.81236 -1.19515e-18)
(19.3926 3.2512 4.61184e-19)
(19.2928 3.68573 -9.53295e-19)
(19.1704 4.11549 1.54283e-20)
(19.0264 4.53925 1.35048e-18)
(18.8611 4.95503 -1.80213e-18)
(18.6745 5.36197 0)
(18.4671 5.759 0)
(18.2396 6.14588 1.7051e-18)
(17.9931 6.52114 8.23835e-19)
(17.7282 6.88284 -1.67147e-18)
(17.4448 7.23088 2.39271e-18)
(17.1438 7.56434 7.60845e-19)
(16.8259 7.88285 -1.49113e-18)
(16.4923 8.18618 -7.48074e-19)
(16.1448 8.47283 6.90034e-19)
(15.784 8.74245 -7.04261e-20)
(15.4111 8.99392 0)
(15.0268 9.2257 1.29126e-18)
(14.6312 9.43839 -1.82126e-18)
(14.2259 9.63147 5.86612e-19)
(13.8118 9.80445 1.05551e-18)
(13.39 9.95768 -2.56187e-18)
(12.9623 10.09 5.01205e-19)
(12.5292 10.2017 0)
(12.0921 10.2914 0)
(11.6508 10.3608 0)
(11.2078 10.4086 3.47309e-19)
(10.7635 10.4364 9.82629e-19)
(10.3207 10.4424 -5.79379e-19)
(9.87883 10.4269 2.52621e-19)
(9.43942 10.39 2.41877e-19)
(9.00347 10.3313 -4.30357e-19)
(8.57093 10.2523 0)
(8.14374 10.1533 -2.41348e-19)
(7.72328 10.0343 1.25492e-19)
(7.30957 9.89618 1.39416e-20)
(6.90474 9.73955 9.7456e-21)
(6.50994 9.56481 2.96612e-20)
(6.1255 9.37284 -1.05482e-20)
(5.75387 9.16227 1.50113e-19)
(5.39245 8.93554 -6.43264e-20)
(5.04474 8.69244 2.19753e-19)
(4.70882 8.43514 0)
(4.38909 8.16322 0)
(4.08341 7.87698 -3.96037e-19)
(3.79282 7.57839 1.07678e-19)
(3.51972 7.26748 2.47264e-19)
(3.26199 6.94549 1.46084e-19)
(3.02307 6.61209 -4.60558e-19)
(2.79873 6.26955 -2.57788e-19)
(2.59345 5.91852 -9.48953e-20)
(2.4035 5.56119 -2.05986e-21)
(2.23439 5.19791 1.01663e-19)
(2.08192 4.82992 0)
(1.95078 4.45788 0)
(19.3018 0.644871 -2.51718e-20)
(19.3364 1.06997 0)
(19.3487 1.49721 0)
(19.3382 1.92492 2.11556e-19)
(19.3056 2.35198 0)
(19.2512 2.77745 8.14524e-19)
(19.1754 3.19961 4.01477e-19)
(19.0765 3.61689 -7.88331e-19)
(18.9551 4.03112 0)
(18.8138 4.44017 -7.99762e-19)
(18.6533 4.83944 4.38532e-20)
(18.4714 5.2308 0)
(18.2697 5.61194 0)
(18.048 5.98402 -7.44842e-19)
(17.8083 6.34602 6.87659e-19)
(17.5524 6.69297 -7.11979e-19)
(17.2777 7.02727 -6.93979e-19)
(16.9857 7.34781 0)
(16.6774 7.65326 6.55475e-19)
(16.3537 7.94509 -1.19519e-18)
(16.0173 8.22038 -1.15446e-18)
(15.668 8.47999 -1.18499e-18)
(15.3071 8.7228 -9.35033e-21)
(14.9369 8.94451 -9.78111e-19)
(14.5541 9.14869 1.03703e-18)
(14.1618 9.33446 9.34706e-19)
(13.762 9.49989 -9.48257e-19)
(13.3536 9.64767 5.91038e-20)
(12.9409 9.77436 9.1069e-22)
(12.522 9.88311 -7.92413e-19)
(12.1012 9.96792 0)
(11.6739 10.0358 -6.31808e-19)
(11.2471 10.0812 1.21709e-18)
(10.8168 10.11 -4.56638e-20)
(10.3912 10.1167 5.20771e-19)
(9.96523 10.1022 -4.24283e-19)
(9.54158 10.0674 3.60635e-19)
(9.12243 10.0103 2.58901e-19)
(8.70456 9.93432 -5.69085e-19)
(8.29159 9.83922 2.39251e-19)
(7.88644 9.7245 1.5353e-19)
(7.48539 9.59154 1.62992e-19)