/*--------------------------------*- C++ -*----------------------------------*\
| =========                 |                                                 |
| \\      /  F ield         | OpenFOAM: The Open Source CFD Toolbox           |
|  \\    /   O peration     | Version:  2.3.1                                 |
|   \\  /    A nd           | Web:      www.OpenFOAM.org                      |
|    \\/     M anipulation  |                                                 |
\*---------------------------------------------------------------------------*/
FoamFile
{
    version     2.0;
    format      ascii;
    class       volScalarField;
    location    "0.36";
    object      epsilon;
}
// * * * * * * * * * * * * * * * * * * * * * * * * * * * * * * * * * * * * * //

dimensions      [0 2 -3 0 0 0 0];

internalField   nonuniform List<scalar> 
9648
(
2409.56
2416.79
2414.99
2409.51
2399.57
2384.41
2364.32
2339.08
2308.6
2272.98
2232.42
2187.07
2137.77
2085.49
2031.02
1975.28
1919.36
1864.25
1810.6
1758.95
1709.83
1663.58
1620.38
1580.42
1543.75
1510.27
1479.83
1452.3
1427.57
1405.44
1385.85
1368.68
1353.85
1341.22
1330.69
1322.13
1315.35
1310.33
1307.05
1305.39
1305.27
1306.67
1309.52
1313.78
1319.48
1326.63
1335.22
1345.2
1356.69
1369.84
1384.64
1401.05
1419.31
1439.37
1461.24
1484.71
1509.61
1535.55
1561.78
1587.68
1612.82
595.366
589.336
581.391
572.518
564.583
560.111
558.704
559.371
561.863
566.265
572.339
579.425
587.111
595.026
602.84
610.184
616.882
622.895
628.213
632.769
636.668
639.977
642.757
645.141
647.266
649.2
650.99
652.707
654.426
656.195
658.046
660.046
662.248
664.659
667.307
670.226
673.406
676.831
680.533
684.521
688.787
693.353
698.208
703.39
708.865
714.65
720.744
727.106
733.728
740.614
747.707
754.982
762.386
769.955
777.546
785.137
792.571
799.957
807.15
814.073
820.679
234.292
237.6
242.456
249.454
258.537
269.384
282.112
296.342
311.989
328.67
346.175
364.053
381.963
399.568
416.58
432.761
447.944
462.04
474.993
486.791
497.462
507.044
515.621
523.285
530.14
536.274
541.769
546.715
551.183
555.251
558.986
562.457
565.72
568.81
571.776
574.628
577.391
580.093
582.722
585.337
587.967
590.629
593.352
596.095
598.854
601.618
604.383
607.157
609.932
612.683
615.397
618.07
620.663
623.231
625.657
628.04
630.283
632.523
634.595
636.544
638.36
130.823
140.622
152.005
165.08
179.796
196.065
213.814
232.821
252.835
273.495
294.475
315.391
335.921
355.759
374.66
392.419
408.908
424.052
437.819
450.22
461.284
471.066
479.653
487.141
493.641
499.258
504.091
508.237
511.776
514.79
517.359
519.549
521.432
523.08
524.52
525.816
526.987
528.005
528.94
529.758
530.525
531.305
532.064
532.848
533.619
534.378
535.155
535.935
536.727
537.508
538.252
538.987
539.688
540.371
540.986
541.593
542.188
542.76
543.289
543.782
544.278
95.9042
108.619
123.063
139.203
156.962
176.235
196.836
218.495
240.885
263.607
286.288
308.544
330.062
350.565
369.841
387.705
404.063
418.874
432.127
443.869
454.144
463.014
470.586
476.958
482.265
486.626
490.155
492.956
495.108
496.706
497.818
498.523
498.911
499.029
498.971
498.761
498.421
497.996
497.404
496.735
496.017
495.259
494.559
493.848
493.136
492.445
491.77
491.15
490.561
489.995
489.425
488.849
488.28
487.713
487.145
486.578
486.038
485.499
484.946
484.389
483.836
82.7642
97.3723
113.912
132.274
152.286
173.775
196.462
220.004
244.008
268.023
291.656
314.505
336.292
356.751
375.743
393.067
408.663
422.542
434.707
445.256
454.254
461.752
467.898
472.775
476.555
479.379
481.359
482.627
483.245
483.302
482.905
482.102
480.996
479.684
478.158
476.52
474.826
472.974
471.115
469.161
467.167
465.268
463.345
461.494
459.648
457.803
456.043
454.353
452.751
451.205
449.688
448.188
446.707
445.248
443.804
442.408
441.05
439.707
438.362
437.026
435.684
78.595
94.8171
113.146
133.391
155.257
178.52
202.808
227.718
252.833
277.597
301.669
324.572
346.118
366.037
384.337
400.707
415.147
427.748
438.477
447.538
455.014
460.898
465.439
468.637
470.751
471.935
472.289
472.001
471.056
469.596
467.723
465.461
462.987
460.312
457.473
454.54
451.534
448.535
445.432
442.346
439.328
436.33
433.501
430.72
427.932
425.237
422.573
420.018
417.577
415.229
412.951
410.707
408.514
406.325
404.17
402.073
400.032
398.045
396.058
394.05
392.067
78.6621
96.3713
116.327
138.235
161.65
186.299
211.79
237.679
263.512
288.608
312.732
335.229
356.127
375.073
392.419
407.561
420.577
431.715
440.749
448.112
453.934
458.02
460.911
462.298
462.654
462.148
460.833
459.018
456.528
453.552
450.29
446.629
442.833
438.938
434.856
430.708
426.631
422.361
418.225
414.117
409.986
406.077
402.304
398.684
395.119
391.666
388.269
384.94
381.735
378.684
375.727
372.834
369.99
367.137
364.337
361.637
358.968
356.417
353.831
351.205
348.673
80.7222
99.6085
121.007
144.166
168.946
194.575
220.815
247.512
273.593
298.852
322.661
344.633
364.49
382.158
398.326
412.143
423.657
433.179
440.729
446.408
450.346
452.591
453.588
453.339
451.996
449.659
446.791
443.512
439.378
434.974
430.267
425.353
420.526
415.383
409.937
404.813
399.5
394.127
389.067
383.817
378.608
373.384
368.805
364.305
359.861
355.913
351.691
347.735
343.582
339.809
335.978
332.477
329.057
325.48
322.015
318.866
315.461
312.621
309.387
306.029
303.05
1637.3
1660.95
1683.49
1704.87
1725.29
1745.17
1764.63
1783.97
1803.15
1821.34
1838.21
1854.31
1869.91
1885.38
1900.94
1917.28
1934.96
1954.5
1976.26
2000.68
2027.47
2056.11
2086.2
2117.34
2149.19
2181.7
2215.04
2248.85
2283.12
2317.86
2353.25
2389.17
2425.63
2462.79
2500.65
2539.12
2578.31
2618.34
2659.29
2701
2743.51
2787.05
2831.61
2877.01
2923.6
2971.23
3019.78
3069.31
3120.02
3171.94
3225.01
3279.11
3334.78
3391.64
3450.03
3509.76
3571.56
3635.4
3701.31
3769.15
3839.07
826.942
833.276
839.435
845.338
851.007
856.567
862.164
867.645
873.229
878.56
883.85
889.034
894.227
899.452
904.701
910.02
915.427
920.963
926.619
932.367
938.168
943.961
949.726
955.44
961.092
966.662
972.08
977.316
982.365
987.251
991.992
996.56
1000.98
1005.26
1009.41
1013.43
1017.33
1021.11
1024.78
1028.33
1031.78
1035.15
1038.41
1041.57
1044.64
1047.61
1050.48
1053.22
1055.87
1058.43
1060.88
1063.22
1065.45
1067.74
1069.83
1072.01
1074.14
1076.48
1078.7
1080.98
1083.37
640.145
641.847
643.598
645.318
647.01
648.603
650.274
651.85
653.414
654.832
656.2
657.515
658.848
660.153
661.431
662.671
663.868
665.018
666.11
667.132
668.07
668.924
669.682
670.34
670.894
671.341
671.673
671.889
671.98
671.953
671.796
671.515
671.112
670.585
669.947
669.195
668.331
667.353
666.263
665.057
663.742
662.321
660.802
659.17
657.436
655.589
653.616
651.51
649.278
646.922
644.415
641.806
639.055
636.194
633.14
630.002
626.774
623.469
620.075
616.626
613.184
544.749
545.221
545.664
546.095
546.494
546.864
547.201
547.52
547.78
547.94
548.039
548.096
548.092
548.006
547.867
547.661
547.392
547.049
546.627
546.117
545.521
544.836
544.068
543.21
542.258
541.205
540.051
538.798
537.442
535.985
534.427
532.76
530.985
529.109
527.14
525.077
522.919
520.668
518.315
515.867
513.328
510.71
508.017
505.257
502.428
499.529
496.539
493.458
490.279
487.02
483.653
480.187
476.636
472.984
469.203
465.303
461.329
457.268
453.147
449.005
444.866
483.288
482.718
482.126
481.506
480.861
480.156
479.398
478.637
477.874
477.062
476.218
475.332
474.387
473.386
472.326
471.201
470.043
468.814
467.514
466.138
464.69
463.177
461.605
459.975
458.28
456.514
454.673
452.758
450.774
448.72
446.592
444.379
442.082
439.704
437.258
434.744
432.159
429.495
426.748
423.92
421.024
418.066
415.063
412.029
408.972
405.889
402.748
399.574
396.33
393.038
389.677
386.236
382.738
379.166
375.499
371.73
367.877
363.937
359.972
355.99
352.009
434.357
433.023
431.686
430.306
428.905
427.473
426.001
424.513
422.986
421.437
419.851
418.243
416.599
414.905
413.168
411.396
409.599
407.739
405.813
403.821
401.772
399.678
397.552
395.401
393.21
390.968
388.678
386.337
383.964
381.559
379.116
376.612
374.048
371.419
368.751
366.039
363.27
360.444
357.543
354.567
351.532
348.444
345.33
342.215
339.118
336.05
332.954
329.867
326.748
323.641
320.493
317.282
314.048
310.747
307.396
303.919
300.378
296.76
293.152
289.504
285.878
390.106
388.159
386.207
384.246
382.25
380.212
378.145
376.078
373.976
371.826
369.664
367.499
365.301
363.079
360.812
358.53
356.25
353.921
351.524
349.054
346.527
343.98
341.419
338.872
336.315
333.718
331.088
328.419
325.758
323.111
320.497
317.844
315.174
312.451
309.728
306.982
304.174
301.329
298.419
295.439
292.394
289.28
286.145
283.022
279.937
276.955
273.953
271.031
268.1
265.273
262.449
259.544
256.649
253.697
250.737
247.601
244.451
241.192
238.025
234.789
231.604
346.146
343.68
341.208
338.78
336.329
333.895
331.388
328.953
326.488
323.911
321.34
318.813
316.242
313.648
310.975
308.331
305.764
303.156
300.481
297.661
294.762
291.882
288.985
286.129
283.333
280.499
277.632
274.671
271.734
268.876
266.19
263.487
260.858
258.197
255.612
253.042
250.335
247.562
244.776
241.975
239.066
236.027
232.962
229.895
226.847
224.017
221.106
218.377
215.637
213.175
210.778
208.231
205.736
203.178
200.677
197.889
195.167
192.276
189.623
186.853
184.182
299.837
296.867
293.735
290.948
288.002
285.484
282.629
280.198
277.738
275.047
272.346
269.905
267.216
264.553
261.601
258.623
255.997
253.467
250.939
248.152
244.942
241.949
238.874
235.764
232.838
229.962
227.183
224.068
220.736
217.596
214.856
212.116
209.601
207.141
205.027
202.98
200.605
197.941
195.366
192.986
190.535
187.697
184.782
181.918
178.955
176.375
173.464
170.933
168.279
166.312
164.455
162.267
160.271
158.185
156.256
153.775
151.519
148.93
146.847
144.582
142.536
3912.13
3987.84
4065.58
4145.37
4227.67
4313.37
4401.93
4493.29
4587.17
4683.77
4783.52
4885.24
4989.25
5099.81
5238.93
5365.06
5490.93
5619.35
5750.27
5883.63
6019.78
6158.76
6300.17
6444.23
6590.69
6738.85
6888.43
7039.17
7190.86
7342.64
7494.41
7645.57
7795.24
7942.82
8087.81
8228.78
8364.6
8494.13
8609.65
8694.91
8753.25
8786.37
8794.14
8774.8
8726.82
8647.76
8533.62
8379.77
8181.92
7935.47
7634.15
7271.1
6841.06
6335.47
5760.39
4770.98
4330.92
4107.11
4017.76
3978.41
3903.89
1086.01
1088.75
1091.7
1094.71
1097.82
1101.18
1105.08
1109.38
1114.16
1119.25
1124.84
1128.22
1129.7
1132.79
1136.49
1141.67
1146.96
1152.18
1157.54
1163.15
1169.03
1175.22
1181.67
1188.39
1195.37
1202.58
1210.06
1217.81
1225.91
1234.38
1243.27
1252.64
1262.62
1273.32
1284.84
1297.42
1311.22
1326.62
1344.46
1373.68
1408.97
1447.47
1489.09
1533.96
1582.79
1635.92
1693.43
1755.6
1822.75
1894.45
1969.85
2047.38
2125.25
2202.91
2273.48
2339.73
2396.73
2482.16
2584.79
2695.57
2673.08
609.721
606.262
602.77
599.261
595.699
592.165
588.744
585.479
582.281
579.054
575.343
569.732
563.895
558.871
554.361
550.481
546.681
542.775
538.807
534.831
530.887
526.972
523.081
519.212
515.361
511.525
507.712
503.925
500.185
496.487
492.853
489.304
485.85
482.537
479.391
476.461
473.793
471.457
469.569
468.652
468.886
473.167
481.298
492.708
507.841
527.336
551.9
582.545
620.267
666.148
721.21
786.248
862.429
950.218
1049.77
1158.16
1265.19
1381.33
1522.49
1704.89
1900.76
440.732
436.61
432.488
428.352
424.172
419.994
415.867
411.841
407.792
403.648
398.685
392.726
386.995
381.802
377.002
372.559
368.219
363.891
359.556
355.244
350.956
346.675
342.409
338.161
333.926
329.716
325.53
321.369
317.235
313.131
309.058
305.022
301.035
297.107
293.25
289.482
285.824
282.291
278.911
275.745
272.873
270.584
269.523
270.188
272.42
276.553
283.038
292.512
305.801
323.909
348.231
380.081
421.125
472.551
535.205
607.333
684.499
767.708
864.76
989.079
1147.2
348.049
344.152
340.277
336.38
332.417
328.457
324.515
320.657
316.769
312.77
307.982
302.716
297.752
293.193
288.889
284.824
280.855
276.975
273.145
269.378
265.65
261.911
258.191
254.498
250.82
247.171
243.548
239.954
236.38
232.827
229.296
225.795
222.327
218.904
215.533
212.227
208.995
205.851
202.801
199.864
197.066
194.467
192.193
190.578
189.776
189.783
190.817
193.173
197.274
203.644
213.063
226.518
245.194
270.366
303.119
343.692
390.69
443.49
504.107
577.836
671.403
282.252
278.749
275.275
271.801
268.189
264.584
260.972
257.479
253.96
250.377
246.09
241.622
237.439
233.605
229.914
226.389
222.923
219.602
216.368
213.231
210.142
207.014
203.921
200.872
197.833
194.834
191.851
188.901
185.954
183.021
180.098
177.202
174.333
171.506
168.725
166.002
163.343
160.759
158.25
155.829
153.507
151.308
149.269
147.474
146.163
145.246
144.837
145.053
146.098
148.24
151.84
157.412
165.616
177.216
193.101
213.871
239.678
270.57
307.099
350.802
404.769
228.337
225.266
222.237
219.259
216.024
212.822
209.559
206.501
203.427
200.384
196.659
192.95
189.471
186.359
183.27
180.323
177.362
174.62
171.966
169.431
166.948
164.366
161.866
159.453
157.03
154.659
152.279
149.94
147.572
145.217
142.849
140.52
138.214
135.963
133.748
131.595
129.496
127.469
125.507
123.627
121.83
120.14
118.564
117.134
115.907
115.044
114.448
114.183
114.349
115.077
116.552
119.019
122.794
128.301
136.012
146.425
159.962
176.947
197.829
223.356
254.777
181.26
178.62
176.064
173.659
170.821
168.056
165.136
162.572
159.994
157.569
154.384
151.353
148.475
146.055
143.506
141.142
138.641
136.468
134.355
132.346
130.402
128.264
126.291
124.516
122.664
120.857
118.987
117.203
115.321
113.459
111.548
109.729
107.923
106.208
104.504
102.877
101.273
99.7483
98.2805
96.908
95.6074
94.4156
93.3334
92.3551
91.5103
90.8931
90.4857
90.2646
90.2953
90.6489
91.4231
92.7377
94.76
97.6835
101.755
107.258
114.489
123.781
135.496
150.122
168.305
139.926
137.652
135.59
133.841
131.398
129.098
126.47
124.489
122.445
120.672
117.972
115.52
113.098
111.345
109.222
107.451
105.315
103.722
102.083
100.45
98.9587
97.1148
95.6153
94.5746
93.1973
91.7953
90.2792
89.0081
87.4519
85.9668
84.3449
83.012
81.6196
80.4089
79.1145
77.9393
76.6751
75.5493
74.4901
73.5629
72.7089
71.9565
71.3226
70.773
70.2591
69.8501
69.6167
69.4943
69.5934
69.8366
70.463
71.3881
72.817
74.7105
77.2804
80.5582
84.8339
90.1979
97.0386
105.615
116.269
3760.42
3602.22
3432.58
3253.55
3074.61
2901.4
2737.33
2586.61
2452.99
2338.55
2243.7
2167.45
2108.23
2063.88
2031.75
2009.33
1994.47
1985.61
1981.3
1980.35
1982.03
1985.81
1991.2
1998.12
2006.46
2016.05
2026.79
2038.68
2051.78
2065.97
2081.2
2097.43
2114.53
2132.28
2150.57
2169.12
2187.58
2205.72
2223.3
2240.01
2255.4
2269.24
2281.37
2291.6
2300
2306.85
2312.24
2316.42
2319.95
2323.57
2327.64
2332.36
2338.29
2345.6
2354.01
2363.26
2373.05
2383.3
2392.98
2401.04
2406.75
2483.45
2278.63
2078.56
1884.47
1715.31
1559.17
1415.2
1283.89
1165.55
1060.88
970.004
892.382
827.084
772.49
728.274
693.677
667.027
646.422
630.339
617.689
607.715
599.823
593.651
588.937
585.479
583.131
581.792
581.445
582.048
583.594
586.09
589.517
593.871
599.118
605.208
612.066
619.571
627.613
636.034
644.634
653.149
661.264
668.554
674.564
678.882
681.107
680.89
678.079
672.782
665.377
656.45
646.785
637.298
628.793
621.651
616.242
612.327
609.627
607.282
604.609
600.767
1995.37
1989.63
1895.2
1722.8
1542.6
1367.74
1197.91
1043.14
905.176
782.986
677.406
588.048
513.649
452.933
404.886
367.839
339.307
316.623
298.571
284.328
273.08
264.146
257.009
251.274
246.639
242.888
239.877
237.517
235.746
234.525
233.822
233.631
233.931
234.686
235.871
237.445
239.369
241.599
244.075
246.721
249.44
252.126
254.652
256.856
258.577
259.618
259.787
258.913
256.899
253.709
249.446
244.424
239.086
234
229.639
226.554
224.981
224.985
226.331
228.68
231.571
1313.51
1463.46
1565.88
1590.37
1526.78
1404.84
1239.16
1067.81
909.921
764.388
636.945
530.242
442.083
371.218
315.526
272.167
238.399
211.675
190.587
174.122
161.342
151.465
143.836
137.897
133.213
129.469
126.456
124.028
122.086
120.556
119.396
118.579
118.074
117.843
117.847
118.05
118.413
118.899
119.464
120.059
120.63
121.123
121.477
121.633
121.533
121.122
120.355
119.204
117.665
115.746
113.497
111.039
108.569
106.356
104.711
104.053
104.738
106.939
110.665
115.819
122.482
786.199
920.298
1063.57
1193.61
1279.78
1303.71
1259.3
1157.67
1023.19
870.206
721.689
594.282
484.623
394.534
323.081
266.479
222.001
187.141
159.843
138.679
122.436
110.145
100.922
93.9752
88.6766
84.5674
81.3462
78.8038
76.7956
75.2081
73.9759
73.061
72.4229
72.0155
71.7958
71.7248
71.765
71.8789
72.029
72.1735
72.2684
72.2715
72.1419
71.841
71.3351
70.5995
69.6256
68.4178
66.9861
65.3653
63.6143
61.8328
60.1838
58.8781
58.2049
58.4642
60.07
63.3595
68.5274
75.7755
84.9274
472.03
555.769
657.218
773.047
891.557
995.443
1064.51
1082.64
1046.52
963.35
849.157
723.439
596.173
483.033
390.705
314.433
253.728
205.712
167.42
137.704
115.169
98.4628
86.2491
77.2941
70.6368
65.6012
61.7533
58.7964
56.5185
54.7494
53.3907
52.386
51.6815
51.219
50.9486
50.8273
50.8148
50.875
50.9713
51.0653
51.1171
51.0919
50.9535
50.6719
50.2168
49.5718
48.7318
47.7074
46.507
45.161
43.7183
42.2652
40.9345
39.914
39.4795
39.9928
41.9104
45.6524
51.5484
59.7504
70.1891
293.781
342.578
403.517
478.223
565.991
662.507
758.246
839.349
891.344
903.221
871.946
804.105
711.418
607.58
504.959
407.841
326.582
260.454
205.183
161.7
128.594
104.353
87.0236
74.5822
65.5191
58.7872
53.7451
49.9582
47.1136
44.9433
43.2973
42.0877
41.2414
40.68
40.3412
40.1729
40.1301
40.1746
40.2691
40.3761
40.4566
40.4818
40.4162
40.2342
39.9029
39.4132
38.7577
37.9499
36.9904
35.91
34.7465
33.5767
32.5158
31.7262
31.4632
32.1115
34.1288
38.0418
44.3212
53.2034
64.6749
190.984
219.353
254.957
299.423
354.113
419.372
493.676
572.332
647.685
709.164
746.147
751.852
725.801
671.877
598.649
514.44
429.269
348.816
272.608
210.53
161.346
125.346
100.103
82.203
69.2542
59.7013
52.6226
47.4175
43.6094
40.7456
38.5979
37.0204
35.9149
35.1674
34.6965
34.4342
34.3264
34.3289
34.403
34.5087
34.6066
34.6739
34.6742
34.5848
34.3669
34.0188
33.5273
32.9112
32.1625
31.3126
30.3919
29.4725
28.6561
28.0876
28.0081
28.7855
30.9016
34.9599
41.5605
51.0634
63.4952
129.666
146.305
167.121
193.371
226.107
266.388
314.653
370.514
431.672
494.281
550.692
594.838
620.187
623.637
603.248
560.995
502.65
432.378
359.201
284.143
214.111
162.392
126.4
100.701
81.6793
67.6183
57.2145
49.7125
44.3416
40.34
37.3812
35.1951
33.6626
32.6065
31.9148
31.4884
31.2617
31.1754
31.1927
31.2607
31.3465
31.4281
31.4713
31.4491
31.3222
31.0876
30.7367
30.2806
29.7139
29.0587
28.3508
27.6548
27.0716
26.7311
26.8571
27.81
30.0764
34.3162
41.2027
51.2455
64.4503
1.49138
213.869
191.395
2.27148
2.14109
0.204276
0.000722305
88.7411
0.000792619
0.0145842
96.5544
6.972
0.000722971
246.86
0.167158
136.88
0.000756034
89.9835
121.203
0.000721192
2.27341
235.839
201.977
0.000767355
0.000777808
0.210087
0.000721671
7.762
0.000751891
0.000818886
6.10317
0.000775669
0.00870432
65.8562
3.9705
115.205
74.9404
15.7769
0.000724303
45.1469
65.3573
28.7141
0.000742803
104.237
173.464
0.719323
0.000876617
0.00855782
1.36749
7.17887
370.187
358.934
0.000707141
0.00103447
0.0625424
0.0770325
0.000815701
9.05387
61.4019
285.949
139.723
0.000900314
1.63253
0.0250609
202.846
1.38369
40.6871
62.156
0.0011293
0.000747696
9.59593
41.0723
56.0342
0.0126787
0.0508972
82.101
231.256
55.7864
0.000706468
5.44403
0.00232886
47.8465
0.0136745
111.346
0.000750002
8.61773
0.000787586
38.4262
0.0111128
0.00136166
0.232264
0.000705205
0.000930131
309.856
145.043
0.000864119
1.58509
1.71368
0.00183617
208.841
0.490879
31.2289
5.94368
0.000704372
0.000726718
0.000705161
1.4222
0.209968
0.000748394
175.804
224.362
0.0047975
236.884
27.7338
113.287
55.9644
29.7035
0.000976226
0.111108
0.00110049
0.0012008
190.284
0.00285576
289.657
417.407
27.5093
0.000745677
7.19801
7.02813
0.000743531
0.0297293
0.0269458
91.123
0.00181668
65.5451
0.000748431
0.000724826
398.418
353.154
0.000747305
0.695614
151.124
0.23
0.908545
27.7805
120.414
0.317627
28.8318
0.00521793
277.459
11.3664
0.0684465
49.3362
108.902
190.657
0.000766774
0.000754747
0.517365
0.000754711
43.6033
0.123253
0.00144126
0.000742343
0.000746935
0.000758662
40.6316
69.4661
34.5298
0.000774875
286.634
305.404
403.65
167.382
0.0068522
160.69
44.8008
29.6192
0.000747434
0.00168182
193.66
70.1483
29.5056
73.3314
0.000743938
0.000839944
241.122
0.0296702
2.48699
0.00075806
0.000876277
0.172896
0.000798075
334.523
4.05574
0.000759585
0.686498
90.4452
142.705
0.00119408
55.6201
0.00074545
0.000749015
108.18
33.3989
303.136
0.00121099
0.000796776
0.00285709
42.5856
80.7156
9.88315
123.865
13.8055
233.77
0.809714
87.367
83.6786
27.0148
10.6613
40.8878
0.0014127
0.0292421
0.000746402
0.000761795
29.7955
0.0100169
0.0117501
0.00185745
0.00621778
47.3407
198.557
0.0110409
171.923
7.54819
2.60271
0.000732202
0.522305
38.873
7.32329
0.0010612
12.2836
34.7407
0.851546
2.67014
273.171
7.58968
4.98592
124.13
0.000952744
0.000727376
0.00101943
0.00424891
30.0844
0.000785229
0.00233201
0.000724451
1.7552
75.2157
78.6012
50.8413
12.2271
11.3895
327.377
0.00113716
50.6062
99.6683
0.000743536
82.9982
0.000749663
337.993
1.75518
52.4054
0.00153514
0.000748091
20.2015
7.56933
0.000759702
0.00074864
0.000753805
0.000750716
1.18705
35.9324
45.2154
0.0108629
0.000760502
0.000724948
0.000703677
105.637
1.10254
0.0011809
19.4708
0.116516
0.0949383
0.000703818
0.785224
0.000760203
0.0993022
47.4875
273.843
3.22624
0.00098555
0.00184338
56.5511
0.353833
129.313
324.822
0.00083476
0.000739667
0.000733633
158.061
0.000770427
135.859
0.000749683
24.7997
12.3698
0.0240022
140.734
245.638
0.00126169
51.7201
50.7025
89.1069
91.1805
8.71926
350.774
40.16
70.7724
145.035
96.2661
56.2391
0.341566
340.005
282.073
64.5997
35.0001
0.00101054
270.682
126.11
231.866
0.0187161
0.000862529
0.000745325
0.000807669
0.690189
1.56447
6.0325
0.125407
0.000727306
172.226
0.000746056
27.686
24.0422
193.936
41.2259
18.9479
0.00190913
0.00110251
0.460088
87.2535
0.00434716
8.07258
260.794
37.6509
84.5882
194.098
61.3346
0.000819559
284.9
144.037
96.7354
0.000749307
195.153
153.853
0.000778314
31.8786
0.00075028
397.302
172.854
29.406
82.4465
114.246
150.843
0.000764958
149.982
0.000957993
70.591
81.7444
29.6376
281.188
3.66399
0.493949
2.57185
0.00109743
443.436
1.59117
0.00288106
0.00191017
256.614
0.000946665
93.2673
0.00074005
0.000748689
0.00182564
32.0147
0.193546
22.2084
0.00184535
84.6152
0.310781
220.56
282.219
39.046
340.184
0.000794903
281.144
42.4545
0.000740185
79.1077
26.1812
0.000705968
0.000728042
119.214
0.00204663
26.1688
0.454291
77.3057
0.0176014
3.50229
40.4304
120.085
33.4629
82.5799
70.4939
0.00101163
0.0342655
30.2144
21.4501
332.996
341.872
141.864
0.084956
125.184
124.091
3.40772
91.3262
46.7583
26.4996
0.000829037
84.8553
385.9
0.00106873
91.4543
19.0606
47.3998
0.0152879
0.0895942
269.19
0.00190991
328.904
0.00124098
1.8056
0.000737653
7.77785
167.351
0.557344
0.00131693
0.000903876
77.3117
27.9879
0.193281
5.41031
295.179
545.019
0.00143078
11.6474
28.4702
74.3665
27.2422
452.044
30.1663
155.389
52.1174
3.90137
7.04891
304.137
54.4907
356.255
173.323
0.279637
174.577
62.1422
0.000792904
92.1377
30.2065
13.1657
0.00967663
97.3555
44.9275
4.19247
53.4481
0.00158341
0.000747005
0.0536679
27.8291
106.891
76.073
0.000750233
0.000731944
0.000741828
29.5548
0.0275817
0.000745094
0.247842
94.5265
273.823
0.0043977
0.00452697
0.000725074
0.000738233
0.0019175
29.9593
100.847
21.0862
1.8886
299.369
385.811
0.00150261
61.6763
29.2594
29.8152
76.6945
440.301
0.000821548
0.00443944
0.000748793
397.988
0.785501
0.000727145
10.469
0.355426
304.03
0.000759438
326.072
8.78905
0.0644416
203.298
0.000745685
0.000734063
0.00103158
406.572
53.2832
131.676
320.313
10.1511
30.0746
0.000712557
0.00183923
0.464838
0.0100727
0.0162657
177.414
42.8084
0.000746853
25.5771
47.6658
186.088
409.046
0.00292174
412.505
0.00182248
0.0217233
149.93
0.000736976
147.766
0.000759868
0.000787927
0.0210087
35.8552
2.92739
322.127
61.9979
0.000888867
29.8269
507.477
0.104265
2.22253
7.76796
0.00077154
0.000757001
0.00229105
136.916
5.50073
0.000785449
272.082
279.447
217.753
0.0421385
63.0379
0.00108817
30.296
0.530071
0.131913
127.851
31.266
149.505
175.48
0.000760947
0.000714898
0.0048557
73.6993
104.436
5.92392
0.00657757
0.000775188
0.000747352
0.00341942
0.401356
0.00210288
76.3034
21.4668
0.00494362
27.457
174.046
0.000759105
39.6862
0.000741964
3.3297
0.000762523
0.0131551
37.3841
0.0115802
0.000744548
4.07271
365.484
263.957
0.000731892
0.000750484
1.56479
0.357777
0.000747491
98.8648
0.000900685
33.6664
378.942
29.7407
87.3206
294.563
134.942
338.008
0.000745334
0.00248296
0.0111761
297.415
60.1756
201.904
4.71791
4.29067
102.205
168.138
127.948
3.79155
46.3853
0.000750379
1.5433
41.0181
33.1234
318.33
26.6786
1.06973
41.1164
0.203735
0.0106002
41.3599
0.000748723
175.581
0.00089042
2.73183
294.73
185.713
3.05929
0.00248989
7.19298
0.00076563
0.00073579
0.199332
0.0135008
52.1205
0.0086597
30.0232
0.000750519
0.0190178
0.000725868
96.7485
0.00189165
88.2616
300.205
0.0142932
167.25
374.859
0.000754594
98.6129
224.123
0.000786535
289.152
0.273379
0.000830086
0.000796338
282.49
0.000731531
0.00111652
0.122918
0.215078
433.773
272.02
0.000751562
0.000755035
8.14568
28.0435
0.00709204
2.58805
22.0838
0.000747298
0.000947503
0.000919284
170.337
272.888
3.43929
296.48
0.0171992
27.7449
0.000774318
0.00714246
0.0160445
0.0430234
0.000748725
297.924
0.000741783
0.0160126
0.000772185
0.793236
0.0147824
0.0140489
2.52555
5.13349
36.4453
2.17707
9.28009
29.2777
189.685
0.000813478
167.037
328.297
12.8414
76.4766
0.000761163
271.783
80.4324
0.000744345
412.278
69.2669
0.00379404
0.00814818
163.388
162.457
0.139052
317.74
410.6
4.40012
433.267
265.686
129.101
53.3464
20.8961
27.2896
266.469
292.608
0.0142746
310.28
41.7936
412.958
0.000811779
1.58958
2.4366
226.985
166.663
0.0117704
447.45
197.418
6.81227
0.0543611
2.768
29.5
0.00153521
29.6366
442.834
0.0291761
223.319
14.3982
94.7466
191.113
0.000745056
0.0016694
7.38496
5.34122
0.0131828
0.000748056
0.826557
1.80857
0.00120074
0.000758741
270.35
7.09699
53.4722
10.7694
0.00312452
0.00107218
0.257161
89.7616
0.000819662
22.0984
31.0434
1.85
164.762
0.000998812
0.393532
0.000740088
2.24772
87.9682
0.00119378
0.185451
42.7723
167.34
0.50483
95.8729
5.16376
0.730734
0.000983276
33.7075
333.982
0.000743408
0.000757382
149.491
0.0157234
0.000758321
74.0455
2.44516
163.802
30.9951
38.2529
0.31567
17.0825
209.712
164.361
244.235
0.000761347
275.656
0.000974461
36.7087
0.000800804
0.00128807
47.2021
0.00208121
261.551
0.0121202
0.0323127
45.7323
7.77939
0.593424
0.000891199
187.122
0.000881052
0.000720688
346.482
162.955
40.8285
30.0146
0.000809727
0.000705504
19.0275
150.179
0.000732335
219.966
37.5031
0.000751499
171.119
0.000709046
3.35576
6.39065
10.632
1.54089
76.1476
21.27
0.000708154
271.387
328.935
0.000742857
0.0132576
30.2963
0.000712821
240.531
162.36
408.539
0.000744114
0.000728012
200.61
0.0964913
0.000835003
31.7206
80.5378
254.274
0.000722582
0.000793956
0.0157152
0.0115419
0.000745984
0.00201624
127.124
52.4711
0.000745676
13.5576
0.000746865
10.0587
0.00108854
0.000861803
27.4155
0.000750961
0.334441
0.000730478
50.124
2.24906
20.583
187.516
366.362
149.41
5.21125
14.9517
0.000758284
5.67209
279.489
530.778
0.157426
0.000822639
130.532
0.000745629
0.123202
0.000721814
444.093
14.9815
3.13822
198.421
52.8911
4.97364
81.2513
7.80543
225.799
114.272
0.000770748
0.000758078
0.00306414
0.000754231
0.0140832
99.8984
0.000931087
252.422
0.00186256
0.231162
3.06412
155.182
0.001354
42.398
0.0135413
56.0983
30.6722
439.218
0.000800336
0.000953927
0.905683
85.5642
63.3169
65.9728
1.96811
7.99039
20.1337
0.062378
10.1793
2.1587
31.767
0.000758041
400.435
1.44759
56.0113
0.000786381
53.0542
16.2773
0.00132252
88.3267
17.2027
0.0848613
0.000718125
0.000744853
204.906
48.06
14.9545
0.000736278
0.00954616
53.2196
189.742
3.93057
0.00585096
0.000736784
148.898
131.734
37.4553
36.1048
0.000741726
103.871
438.277
0.000746928
0.00074932
18.6546
0.00108995
0.00383545
0.276497
47.7593
0.0010507
37.8709
346.943
0.00073569
0.000821678
0.000728977
0.000767209
67.1784
522.216
337.37
0.020533
34.4448
49.3157
0.132954
45.2941
0.000829746
33.0326
0.533965
31.8857
5.27878
81.9072
103.213
0.322548
0.000759344
161.246
85.9994
279.804
5.74428
31.1489
0.527784
19.9376
0.00350478
0.00132519
153.509
144.774
0.0344927
1.31385
0.000752686
0.100041
19.6755
0.0277331
13.8568
3.28678
387.454
38.4333
1.74293
275.051
141.142
58.2842
15.6471
201.413
193.648
3.17306
38.0647
0.00220191
47.3188
45.3477
0.000743367
0.000714313
0.334677
0.000747349
0.000776765
59.2728
300.734
0.000743611
86.1245
0.000743581
0.000736375
0.000738983
0.000754409
0.00180079
30.9356
45.2626
251.303
0.000721461
0.00100206
6.72408
0.000850172
0.0281733
0.000762836
0.000874451
168.482
0.000976644
0.00466041
183.04
0.00422338
0.000749364
187.91
0.000744838
0.00075884
2.10899
0.000867804
6.423
0.0012358
0.0240004
0.000743791
0.000753068
306.041
423.625
44.6595
0.0235551
110.793
16.2967
0.00129748
28.947
315.555
236.576
482.281
0.000726015
26.8121
56.9268
0.263684
29.9129
103.002
0.352221
33.0325
1.78687
29.8439
0.307297
7.37348
0.000757739
223.222
0.000771676
30.1444
32.4457
0.00074783
0.920824
0.00243635
0.0189459
0.000727659
3.87315
0.000887957
0.000742185
41.8519
0.149779
0.166043
232.203
152.03
0.000820022
0.000966879
30.5713
262.524
0.000713197
0.000752503
0.193651
24.2077
148.127
0.00208238
15.8943
0.000744482
0.000813986
0.000721306
0.0279987
23.7128
0.00405211
274.11
31.0019
261.013
174.308
0.000838326
300.922
67.0751
0.00073296
0.000754108
0.000750341
0.00116166
0.000739573
125.95
0.000745354
0.000747883
351.788
1.21944
0.00265596
0.0242637
59.632
7.51675
0.00849684
0.000820363
187.196
0.00076274
7.22444
0.00075515
0.00084089
164.924
166.155
0.0033284
0.000838872
3.97675
0.000744165
369.781
0.000753064
152.58
0.0253476
8.52925
0.0494172
3.15945
2.35137
29.9563
0.000761144
0.000854679
0.00486732
60.7024
0.283903
305.273
0.000746192
0.00124012
0.00163636
258.844
62.5067
272.09
0.00224507
0.00347642
0.825562
0.000751323
20.3932
37.7478
0.00875005
269.961
181.773
42.1563
0.00153526
1.45445
170.393
227.536
29.2851
0.0105038
122.23
0.559075
135.267
0.145074
2.2954
43.1317
0.000761983
29.8203
0.00122529
0.00505065
0.00355613
0.0478007
0.000900804
10.8148
0.000744976
46.8674
0.13234
0.000874134
1.98538
0.000756584
0.768334
0.228721
41.9512
3.81125
94.5682
0.814266
0.000748357
0.000730827
3.65945