/*--------------------------------*- C++ -*----------------------------------*\
| =========                 |                                                 |
| \\      /  F ield         | OpenFOAM: The Open Source CFD Toolbox           |
|  \\    /   O peration     | Version:  2.3.1                                 |
|   \\  /    A nd           | Web:      www.OpenFOAM.org                      |
|    \\/     M anipulation  |                                                 |
\*---------------------------------------------------------------------------*/
FoamFile
{
    version     2.0;
    format      ascii;
    class       volVectorField;
    location    "0.36";
    object      U;
}
// * * * * * * * * * * * * * * * * * * * * * * * * * * * * * * * * * * * * * //

dimensions      [0 1 -1 0 0 0 0];

internalField   nonuniform List<vector> 
9648
(
(0.162586 -4.77644 -8.82717e-23)
(0.282419 -4.74944 -8.13309e-23)
(0.402187 -4.71878 0)
(0.523063 -4.69218 0)
(0.64465 -4.67019 9.79011e-21)
(0.76755 -4.65438 1.51905e-20)
(0.894333 -4.64861 -2.75568e-20)
(1.02717 -4.65488 -1.27624e-20)
(1.16727 -4.67442 1.27303e-20)
(1.31515 -4.70925 3.87227e-20)
(1.47291 -4.76099 -3.85597e-20)
(1.64239 -4.83064 -5.56207e-20)
(1.82559 -4.91879 2.9576e-19)
(2.02452 -5.02535 7.65284e-20)
(2.24089 -5.14951 -7.18077e-19)
(2.47592 -5.29002 0)
(2.73079 -5.44514 0)
(3.0063 -5.61281 1.30632e-19)
(3.30316 -5.79041 4.21023e-19)
(3.6214 -5.97516 -1.21147e-18)
(3.96105 -6.16441 -2.11853e-20)
(4.32196 -6.35509 3.3381e-19)
(4.70338 -6.54431 3.94678e-19)
(5.10464 -6.72929 -1.79378e-18)
(5.52481 -6.90737 0)
(5.96293 -7.07596 1.07378e-18)
(6.41772 -7.23263 -1.12576e-18)
(6.88786 -7.37538 0)
(7.37189 -7.50201 0)
(7.86808 -7.61081 -6.83157e-19)
(8.37484 -7.7 -1.51077e-18)
(8.89015 -7.768 2.37193e-18)
(9.41241 -7.81363 0)
(9.93983 -7.83565 0)
(10.4707 -7.83342 1.81761e-18)
(11.0036 -7.80625 -1.95721e-18)
(11.5367 -7.75376 0)
(12.0689 -7.67597 4.20647e-18)
(12.5986 -7.57254 1.13497e-18)
(13.1237 -7.44344 -3.36073e-18)
(13.642 -7.28864 6.29585e-20)
(14.1518 -7.10825 2.39003e-18)
(14.6511 -6.90191 -3.17279e-18)
(15.1383 -6.67014 6.38093e-19)
(15.6123 -6.41383 0)
(16.0721 -6.13338 0)
(16.516 -5.82954 4.81189e-18)
(16.9428 -5.50294 7.04251e-19)
(17.3517 -5.15443 -2.17629e-18)
(17.7422 -4.78404 -7.32545e-19)
(18.112 -4.39248 -7.61745e-19)
(18.4593 -3.98215 7.57029e-19)
(18.7839 -3.55479 3.91007e-19)
(19.085 -3.11113 -3.88894e-19)
(19.3614 -2.6529 1.98494e-18)
(19.6128 -2.18115 -1.95447e-18)
(19.8381 -1.69733 -2.17178e-20)
(20.0371 -1.20267 0)
(20.2092 -0.698629 -3.96991e-19)
(20.354 -0.186868 -5.13395e-20)
(20.4715 0.331403 -4.86759e-20)
(-0.0606241 -2.48457 1.62518e-22)
(0.00579573 -2.48805 0)
(0.0750441 -2.5033 0)
(0.149075 -2.5327 5.18207e-21)
(0.228193 -2.58191 -5.68846e-21)
(0.316659 -2.65427 -3.58817e-20)
(0.415976 -2.74752 0)
(0.527924 -2.86023 0)
(0.654202 -2.99304 -4.3442e-20)
(0.79538 -3.14591 0)
(0.952773 -3.31779 -1.04763e-19)
(1.12721 -3.50715 8.26766e-20)
(1.31961 -3.7127 -4.47196e-20)
(1.53094 -3.93272 0)
(1.76197 -4.16527 2.79378e-19)
(2.013 -4.40824 1.65486e-19)
(2.28436 -4.65937 -1.62809e-19)
(2.57617 -4.9164 2.11682e-19)
(2.88858 -5.17681 -6.44874e-19)
(3.22136 -5.43815 5.13596e-19)
(3.57418 -5.69806 -5.68777e-19)
(3.94679 -5.954 -3.0653e-19)
(4.33838 -6.20365 -3.14366e-19)
(4.74823 -6.44468 1.08068e-18)
(5.17543 -6.67489 3.7415e-19)
(5.61906 -6.89212 4.44686e-19)
(6.07798 -7.0944 -3.94205e-19)
(6.55087 -7.28 0)
(7.03648 -7.44712 0)
(7.53331 -7.59438 0)
(8.04006 -7.72031 0)
(8.55512 -7.82376 0)
(9.07699 -7.9038 0)
(9.60392 -7.95947 0)
(10.1339 -7.99017 -8.15221e-19)
(10.6651 -7.99483 7.40498e-19)
(11.1961 -7.97295 8.177e-19)
(11.7259 -7.92399 -4.15412e-18)
(12.2532 -7.84782 -8.82332e-19)
(12.7769 -7.74504 2.71346e-18)
(13.2952 -7.61621 1.90377e-18)
(13.806 -7.46195 -1.96408e-18)
(14.3075 -7.28203 9.38488e-19)
(14.7973 -7.07667 9.89269e-19)
(15.2739 -6.84632 -1.05114e-18)
(15.736 -6.59115 1.0418e-18)
(16.1822 -6.31184 -2.23346e-18)
(16.6117 -6.00903 0)
(17.0232 -5.68363 -5.70501e-19)
(17.4161 -5.33599 1.14639e-18)
(17.7896 -4.96701 -5.76043e-19)
(18.1423 -4.57872 0)
(18.4731 -4.17253 1.1838e-18)
(18.7811 -3.74917 0)
(19.0653 -3.31006 0)
(19.3249 -2.85634 2.80575e-18)
(19.5593 -2.3893 -1.26452e-18)
(19.7678 -1.91057 -3.07629e-19)
(19.95 -1.42103 3.24699e-19)
(20.1053 -0.922405 0)
(20.2334 -0.415954 8.1648e-20)
(0.0524911 -1.42655 -3.09261e-22)
(0.107884 -1.47212 0)
(0.169946 -1.53753 -2.72253e-22)
(0.239833 -1.62476 -3.12019e-22)
(0.318015 -1.73151 0)
(0.407686 -1.8567 3.04377e-20)
(0.509953 -2.00199 2.06965e-20)
(0.626253 -2.16636 0)
(0.758242 -2.34938 2.27431e-21)
(0.907578 -2.54963 4.45795e-20)
(1.07522 -2.76601 8.9258e-20)
(1.26181 -2.99665 -3.09521e-20)
(1.46791 -3.23976 0)
(1.69387 -3.49325 0)
(1.93998 -3.75502 2.12081e-19)
(2.20616 -4.02296 -1.35036e-19)
(2.49238 -4.29482 -1.44767e-19)
(2.79844 -4.56841 0)
(3.12409 -4.84148 5.5801e-19)
(3.46898 -5.11185 -5.79373e-19)
(3.83265 -5.37744 -4.33225e-19)
(4.21456 -5.63615 -4.77161e-19)
(4.61397 -5.88592 0)
(5.03002 -6.12477 -8.55475e-19)
(5.46176 -6.35077 -3.00798e-19)
(5.90818 -6.56212 3.57441e-19)
(6.36811 -6.75713 3.94733e-19)
(6.84034 -6.93432 0)
(7.32363 -7.09216 0)
(7.81677 -7.22928 0)
(8.3185 -7.34432 0)
(8.82738 -7.43632 0)
(9.34189 -7.50468 0)
(9.86009 -7.54917 0)
(10.3799 -7.5697 -1.78778e-18)
(10.8999 -7.56563 5.94042e-19)
(11.4185 -7.53591 -6.55512e-19)
(11.935 -7.47935 3.29874e-18)
(12.4485 -7.39517 0)
(12.957 -7.28374 1.40337e-18)
(13.4591 -7.14595 1.45229e-18)
(13.9527 -6.9829 7.19659e-19)
(14.436 -6.79532 -8.2398e-19)
(14.908 -6.58382 -1.58805e-18)
(15.3667 -6.34905 2.47385e-18)
(15.811 -6.09137 -8.36655e-19)
(16.2393 -5.81078 -1.70675e-18)
(16.6504 -5.50745 0)
(17.0433 -5.18205 0)
(17.4172 -4.83577 -4.65606e-19)
(17.7713 -4.47018 -4.55139e-19)
(18.1047 -4.08648 -9.31053e-19)
(18.4165 -3.68587 -9.74587e-19)
(18.7055 -3.26976 0)
(18.9711 -2.83885 -9.63882e-19)
(19.2125 -2.39483 -1.00447e-18)
(19.4293 -1.93839 0)
(19.6207 -1.47172 1.63021e-20)
(19.786 -0.995141 0)
(19.9252 -0.510406 0)
(20.0381 -0.0185443 -6.22232e-20)
(0.0242672 -0.918856 6.46166e-22)
(0.0842196 -1.00299 -9.05598e-22)
(0.155527 -1.10617 3.2748e-22)
(0.238237 -1.22773 -1.80068e-21)
(0.332544 -1.36689 0)
(0.438727 -1.52346 -1.26692e-20)
(0.558285 -1.69758 -1.78591e-20)
(0.692532 -1.8887 0)
(0.842874 -2.09597 3.09667e-21)
(1.01018 -2.31823 -3.80872e-20)
(1.19532 -2.55408 8.55426e-20)
(1.39862 -2.80184 1.03531e-19)
(1.62044 -3.05954 0)
(1.861 -3.32516 -8.17247e-20)
(2.12052 -3.59667 -1.73373e-19)
(2.39873 -3.87206 -9.23653e-20)
(2.6955 -4.14924 3.55976e-19)
(3.01059 -4.42614 -2.57255e-19)
(3.34361 -4.70073 2.88476e-19)
(3.69424 -4.97098 4.91431e-19)
(4.06211 -5.2351 7.11314e-19)
(4.4465 -5.49121 4.01238e-19)
(4.84682 -5.73748 1.93e-19)
(5.26213 -5.97217 7.01466e-19)
(5.69156 -6.1935 2.30439e-19)
(6.13408 -6.39991 2.62104e-19)
(6.58867 -6.58995 3.09207e-19)
(7.05431 -6.76221 -9.25388e-19)
(7.5299 -6.91541 6.64048e-19)
(8.01419 -7.04806 7.50085e-19)
(8.50591 -7.15892 -1.53353e-18)
(9.00361 -7.24704 7.83108e-19)
(9.50571 -7.31179 -8.39935e-19)
(10.011 -7.35338 4.19145e-19)
(10.5182 -7.37187 4.59147e-19)
(11.0257 -7.36683 5.0913e-19)
(11.5327 -7.33768 -5.02728e-19)
(12.0369 -7.283 -5.47985e-19)
(12.5362 -7.20253 -1.63976e-18)
(13.0294 -7.09613 -1.18464e-18)
(13.5142 -6.96346 -2.40075e-18)
(13.9908 -6.80526 -3.11102e-18)
(14.4585 -6.62164 1.27618e-18)
(14.9158 -6.41374 2.85954e-20)
(15.3619 -6.1837 -7.14411e-19)
(15.7937 -5.93258 -7.01191e-19)
(16.2094 -5.66077 4.23928e-18)
(16.6078 -5.36772 -7.10358e-19)
(16.9881 -5.05318 0)
(17.35 -4.71796 0)
(17.6929 -4.36343 -7.12662e-19)
(18.0157 -3.99126 3.19243e-20)
(18.3177 -3.60267 7.64926e-19)
(18.5978 -3.19886 0)
(18.8552 -2.78106 8.14673e-19)
(19.0891 -2.35054 0)
(19.299 -1.90841 0)
(19.4844 -1.45562 6.20836e-19)
(19.6447 -0.993732 1.97457e-19)
(19.7798 -0.524184 -2.01219e-19)
(19.8892 -0.0484569 1.02969e-19)
(0.114431 -0.666784 4.34753e-23)
(0.176281 -0.77272 7.91484e-22)
(0.251819 -0.895441 -1.33289e-21)
(0.341402 -1.03533 7.15204e-22)
(0.444789 -1.19224 -2.53808e-21)
(0.562642 -1.36576 5.08208e-21)
(0.695621 -1.55548 2.32717e-21)
(0.844469 -1.7605 -1.30694e-20)
(1.01024 -1.97989 3.93968e-20)
(1.19312 -2.21241 -5.69494e-20)
(1.39368 -2.45654 6.40868e-20)
(1.61171 -2.7106 -7.99265e-20)
(1.84746 -2.97258 -4.61478e-20)
(2.10078 -3.24052 0)
(2.37197 -3.51241 8.48505e-20)
(2.66044 -3.78656 8.14079e-20)
(2.96599 -4.06093 0)
(3.2884 -4.3336 2.01549e-19)
(3.6271 -4.60269 0)
(3.98193 -4.86625 -2.67145e-19)
(4.35253 -5.12273 2.91585e-19)
(4.7381 -5.37053 1.02043e-20)
(5.13814 -5.60793 -1.70249e-20)
(5.55157 -5.83349 2.90023e-20)
(5.97758 -6.04551 -8.19953e-19)
(6.41532 -6.24255 -4.70742e-19)
(6.86379 -6.42323 9.68905e-19)
(7.32235 -6.58622 1.05099e-18)
(7.78975 -6.73035 -5.6867e-19)
(8.26467 -6.85447 0)
(8.74573 -6.9576 0)
(9.23104 -7.03893 0)
(9.71981 -7.09782 7.20559e-19)
(10.2114 -7.13352 -2.97895e-18)
(10.705 -7.14556 1.55969e-18)
(11.2002 -7.13367 -7.93247e-19)
(11.6946 -7.09743 -1.70986e-18)
(12.1859 -7.03847 1.73456e-18)
(12.6714 -6.95746 3.77359e-20)
(13.1477 -6.85403 -9.76723e-19)
(13.6154 -6.72697 1.01053e-18)
(14.0737 -6.57331 1.04433e-18)
(14.5231 -6.39212 0)
(14.9646 -6.18453 -1.05813e-18)
(15.3954 -5.95422 0)
(15.8137 -5.70463 -1.69893e-18)
(16.2162 -5.43661 5.26749e-19)
(16.6007 -5.1496 0)
(16.967 -4.84242 -6.14998e-19)
(17.3147 -4.51537 -1.45214e-20)
(17.644 -4.16946 1.30988e-18)
(17.954 -3.80622 -6.22396e-19)
(18.2438 -3.42707 -3.4626e-19)
(18.5125 -3.03319 6.34008e-19)
(18.7592 -2.62596 -4.83254e-21)
(18.9831 -2.20637 3.30673e-19)
(19.1834 -1.7757 1.59743e-19)
(19.3597 -1.33486 3.37161e-19)
(19.512 -0.885084 -8.47052e-19)
(19.6397 -0.427856 3.4023e-19)
(19.7425 0.0352746 -4.35369e-20)
(0.197237 -0.53325 -3.2386e-22)
(0.272445 -0.654335 0)
(0.362217 -0.791126 2.17207e-21)
(0.467037 -0.944164 0)
(0.586035 -1.1132 5.18555e-22)
(0.720253 -1.29756 6.63363e-21)
(0.86998 -1.4967 7.95392e-21)
(1.03571 -1.70942 2.53709e-20)
(1.21844 -1.93472 3.72998e-21)
(1.41766 -2.17141 5.72406e-21)
(1.63405 -2.41788 1.09324e-21)
(1.8667 -2.67261 -3.03174e-20)
(2.11601 -2.93355 4.47494e-20)
(2.38111 -3.19872 -1.36392e-19)
(2.66304 -3.46618 1.16281e-19)
(2.96073 -3.7348 -8.40875e-21)
(3.27376 -4.00233 -1.44304e-19)
(3.60225 -4.26705 -1.73997e-19)
(3.9452 -4.52728 0)
(4.30272 -4.781 2.07144e-19)
(4.67473 -5.02696 8.31001e-21)
(5.05993 -5.26393 -5.37373e-19)
(5.45838 -5.49018 -2.31148e-20)
(5.86854 -5.70477 -2.91563e-19)
(6.28974 -5.9058 1.02898e-18)
(6.72131 -6.09195 3.51896e-20)
(7.16219 -6.26192 -3.82647e-19)
(7.61212 -6.41408 -4.06378e-20)
(8.06988 -6.54794 0)
(8.53406 -6.66238 0)
(9.00342 -6.75691 0)
(9.47608 -6.83148 0)
(9.95063 -6.8845 0)
(10.4271 -6.91481 5.89147e-20)
(10.9052 -6.92098 -6.68055e-19)
(11.3834 -6.90153 -3.96791e-20)
(11.8624 -6.85791 2.71813e-20)
(12.339 -6.79228 6.96827e-19)
(12.8095 -6.70822 1.57694e-18)
(13.2729 -6.60643 -2.37931e-18)
(13.724 -6.48342 1.6504e-18)
(14.1642 -6.33609 -8.2795e-19)
(14.5947 -6.1599 0)
(15.0157 -5.95529 9.24045e-19)
(15.4296 -5.72773 0)
(15.8322 -5.48053 9.77602e-19)
(16.2205 -5.21651 -1.00104e-18)
(16.5914 -4.93537 4.71221e-19)
(16.9429 -4.63545 5.02012e-19)
(17.2762 -4.31693 -5.22892e-19)
(17.5912 -3.98039 3.73979e-20)
(17.8875 -3.6273 -1.06598e-20)
(18.1646 -3.25858 1.06364e-18)
(18.4214 -2.87576 -1.0949e-18)
(18.657 -2.48012 -5.4027e-19)
(18.8704 -2.07301 -2.64549e-19)
(19.0609 -1.65522 -8.41681e-19)
(19.2281 -1.2276 0)
(19.3721 -0.791273 5.68671e-19)
(19.4925 -0.348053 -1.46005e-19)
(19.5889 0.100797 0)
(0.300659 -0.469516 0)
(0.390562 -0.601216 0)
(0.496018 -0.748398 -1.17443e-21)
(0.618337 -0.911312 7.83562e-22)
(0.754612 -1.08923 -1.92854e-21)
(0.906921 -1.28092 -1.05956e-20)
(1.07468 -1.48581 5.62987e-21)
(1.25772 -1.70233 -1.78841e-20)
(1.45828 -1.92973 -1.24199e-21)
(1.67366 -2.16681 4.69715e-20)
(1.90619 -2.41198 -8.6915e-20)
(2.15291 -2.66406 0)
(2.41553 -2.92068 0)
(2.69114 -3.18013 1.55107e-19)
(2.98337 -3.43996 9.94304e-20)
(3.28942 -3.70044 -2.19284e-19)
(3.60873 -3.95869 3.55716e-19)
(3.94258 -4.21314 1.48818e-19)
(4.28855 -4.46274 -2.97737e-19)
(4.64745 -4.70467 -1.80443e-19)
(5.02024 -4.9382 2.07645e-19)
(5.40371 -5.16296 -5.04012e-21)
(5.79995 -5.37644 0)
(6.20582 -5.57912 5.36051e-19)
(6.62112 -5.76821 -8.83237e-19)
(7.04583 -5.94242 2.94178e-19)
(7.47754 -6.1009 6.50309e-19)
(7.91779 -6.24139 -1.80905e-18)
(8.36456 -6.36417 3.68522e-19)
(8.81643 -6.46826 0)
(9.27407 -6.55295 0)
(9.73378 -6.61922 0)
(10.1946 -6.6656 5.05283e-19)
(10.6562 -6.68992 1.56395e-18)
(11.1162 -6.69113 -1.05509e-18)
(11.5747 -6.66837 5.85497e-19)
(12.0327 -6.6185 6.43598e-19)
(12.4904 -6.54732 -1.2786e-18)
(12.9479 -6.45752 0)
(13.3979 -6.34966 -1.32119e-18)
(13.8379 -6.2268 6.81096e-19)
(14.2629 -6.0818 3.4142e-20)
(14.6719 -5.91099 -3.19985e-20)
(15.0723 -5.71332 7.37353e-19)
(15.4635 -5.49158 3.55739e-20)
(15.8472 -5.25064 -2.38391e-18)
(16.2205 -4.99145 8.10062e-19)
(16.5761 -4.71563 -1.68488e-18)
(16.9135 -4.42204 0)
(17.2313 -4.11156 0)
(17.5313 -3.78396 1.7738e-18)
(17.8131 -3.44128 -4.23756e-19)
(18.0762 -3.0834 -9.18951e-19)
(18.3204 -2.71168 -4.4174e-19)
(18.5442 -2.32825 1.41084e-18)
(18.7465 -1.93419 7.11716e-19)
(18.9264 -1.52979 2.4603e-19)
(19.0836 -1.11626 -4.63036e-21)
(19.2184 -0.693708 -2.46225e-19)
(19.3312 -0.264594 0)
(19.4207 0.169233 0)
(0.420658 -0.450072 3.5881e-22)
(0.528622 -0.589285 0)
(0.651041 -0.743778 0)
(0.79363 -0.91409 -6.77907e-22)
(0.947691 -1.09839 0)
(1.11917 -1.29461 3.70733e-21)
(1.30529 -1.50235 5.47403e-21)
(1.50473 -1.71958 -1.13265e-20)
(1.72442 -1.94622 0)
(1.95462 -2.18104 -2.81094e-20)
(2.20435 -2.42238 3.85376e-21)
(2.46355 -2.66982 0)
(2.74027 -2.9202 0)
(3.02342 -3.17237 -6.51922e-20)
(3.32632 -3.42141 7.12857e-20)
(3.64047 -3.67244 -8.95182e-20)
(3.96417 -3.92004 -1.03051e-19)
(4.30337 -4.16257 0)
(4.65093 -4.40114 1.33024e-19)
(5.00965 -4.63003 -2.80952e-19)
(5.38396 -4.84974 -3.14989e-19)
(5.76334 -5.06209 -3.69456e-19)
(6.15769 -5.26129 -3.32148e-20)
(6.55836 -5.45218 -4.69749e-19)
(6.96675 -5.62889 4.50832e-19)
(7.38472 -5.7903 5.02651e-19)
(7.8054 -5.93752 -5.72127e-19)
(8.23555 -6.06501 3.17502e-20)
(8.67079 -6.17686 4.30199e-20)
(9.10797 -6.27092 -6.60492e-19)
(9.5526 -6.34426 0)
(9.99861 -6.40236 -8.05609e-19)
(10.445 -6.43995 1.5984e-18)
(10.8929 -6.45571 -4.35963e-20)
(11.338 -6.45355 9.32632e-19)
(11.7736 -6.43009 -9.23836e-19)
(12.2098 -6.37866 1.0293e-18)
(12.6444 -6.30538 1.08107e-18)
(13.0798 -6.2076 -2.14159e-18)
(13.5191 -6.09194 1.17211e-18)
(13.9467 -5.96265 1.15591e-18)
(14.3596 -5.81444 1.79916e-18)
(14.7521 -5.64826 -6.32016e-19)
(15.128 -5.45612 0)
(15.4956 -5.24649 3.65899e-20)
(15.8557 -5.01608 6.94978e-19)
(16.2114 -4.76078 -6.76411e-19)
(16.5521 -4.49104 7.31136e-19)
(16.8738 -4.20331 0)
(17.1752 -3.90241 0)
(17.4596 -3.58363 -3.9528e-20)
(17.7258 -3.25201 7.82556e-19)
(17.9739 -2.90402 0)
(18.2045 -2.54311 3.88757e-19)
(18.4162 -2.1731 3.92129e-19)
(18.6066 -1.79324 -7.98898e-19)
(18.7755 -1.40289 -3.91915e-19)
(18.9211 -1.0046 -2.08242e-19)
(19.0457 -0.595392 0)
(19.1504 -0.181462 0)
(19.2325 0.235885 2.49441e-20)
(0.557517 -0.458622 -1.00807e-21)
(0.689879 -0.602036 2.01595e-21)
(0.828802 -0.759339 -2.36893e-23)
(0.998006 -0.934917 -1.69975e-21)
(1.1662 -1.12225 1.8971e-21)
(1.35661 -1.32263 -1.00843e-21)
(1.56191 -1.52902 0)
(1.77398 -1.74292 1.40236e-21)
(2.018 -1.9672 -1.3682e-20)
(2.25719 -2.19625 0)
(2.52993 -2.43252 5.7374e-20)
(2.79439 -2.6748 -3.59621e-20)
(3.08873 -2.91899 3.66623e-20)
(3.37196 -3.16411 4.69094e-20)
(3.68825 -3.39664 -6.15964e-20)
(4.01012 -3.63926 -7.53653e-20)
(4.33395 -3.87608 2.48949e-19)
(4.68287 -4.10316 -2.59419e-19)
(5.02544 -4.33333 0)
(5.37913 -4.55071 -9.18326e-21)
(5.76164 -4.75536 7.73875e-19)
(6.12872 -4.95802 -2.95622e-20)
(6.52887 -5.13757 -3.67603e-19)
(6.91826 -5.3197 7.04355e-19)
(7.31777 -5.48635 0)
(7.73205 -5.63492 -4.33677e-19)
(8.1353 -5.77214 -4.43974e-19)
(8.55807 -5.88494 9.84803e-19)
(8.98335 -5.98695 -6.36347e-21)
(9.40094 -6.07328 5.85368e-19)
(9.83421 -6.13407 -1.19779e-18)
(10.26 -6.18676 1.906e-18)
(10.688 -6.21647 -1.36799e-18)
(11.1239 -6.22126 -1.43075e-18)
(11.5606 -6.20986 0)
(11.9764 -6.18562 8.08964e-19)
(12.4 -6.13092 0)
(12.8021 -6.06502 -2.08508e-21)
(13.2057 -5.97188 9.89251e-19)
(13.6246 -5.84692 -1.82149e-18)
(14.0356 -5.70876 -6.40503e-21)
(14.442 -5.55082 -2.00568e-18)
(14.8177 -5.38328 0)
(15.1792 -5.19753 -5.57011e-19)
(15.5247 -5.00505 2.15976e-18)
(15.8525 -4.78794 -5.49286e-19)
(16.1905 -4.53544 5.88734e-19)
(16.5117 -4.26979 0)
(16.8212 -3.98844 6.07964e-19)
(17.1033 -3.69852 -1.83389e-18)
(17.373 -3.38506 -2.49015e-20)
(17.6221 -3.06403 0)
(17.8522 -2.72815 6.29011e-19)
(18.07 -2.37841 -1.8814e-20)
(18.2706 -2.01945 0)
(18.4461 -1.65235 3.54496e-19)
(18.6057 -1.28372 -3.21928e-19)
(18.737 -0.902775 3.37636e-19)
(18.8496 -0.508121 3.34946e-19)
(18.9492 -0.105795 -1.68232e-19)
(19.0206 0.2957 -6.36689e-20)
(20.5608 0.855273 1.51429e-19)
(20.6215 1.38302 -5.13402e-20)
(20.6541 1.91412 0)
(20.6586 2.4461 0)
(20.6353 2.97723 8.15883e-19)
(20.5846 3.50638 1.17399e-18)
(20.5063 4.03175 -1.20883e-18)
(20.4008 4.5519 -3.98382e-19)
(20.268 5.06538 3.98328e-19)
(20.1088 5.5711 7.79583e-19)
(19.9232 6.06845 -7.80053e-19)
(19.7115 6.55559 -7.58448e-19)
(19.4751 7.03145 3.7723e-18)
(19.2153 7.49484 7.33705e-19)
(18.9325 7.9443 -6.47463e-18)
(18.6272 8.37832 0)
(18.3005 8.79601 0)
(17.9534 9.19639 6.73514e-19)
(17.5868 9.57893 1.98942e-18)
(17.2015 9.94226 -5.11397e-18)
(16.799 10.2857 -7.4903e-20)
(16.38 10.6089 1.17217e-18)
(15.9457 10.9106 1.20604e-18)
(15.4973 11.1903 -4.50026e-18)
(15.0361 11.4479 0)
(14.5631 11.6835 2.11391e-18)
(14.0786 11.8964 -1.95883e-18)
(13.5845 12.0848 0)
(13.0825 12.2486 0)
(12.5743 12.3872 -8.97658e-19)
(12.0609 12.5009 -1.64128e-18)
(11.5438 12.5893 2.33942e-18)
(11.0244 12.6525 0)
(10.5038 12.6905 0)
(9.98353 12.7033 1.18077e-18)
(9.46461 12.6912 -1.12265e-18)
(8.94846 12.6542 0)
(8.43636 12.5929 1.76984e-18)
(7.92933 12.5074 3.68869e-19)
(7.42865 12.3982 -1.02045e-18)
(6.93552 12.2655 3.56204e-20)
(6.45136 12.1103 4.30018e-19)
(5.97696 11.933 -4.25656e-19)
(5.5135 11.7341 7.45082e-20)
(5.06216 11.5145 0)
(4.62368 11.2749 0)
(4.1991 11.0159 -1.72094e-19)
(3.78934 10.7385 -3.7103e-20)
(3.3954 10.4436 2.21115e-19)
(3.01798 10.1324 9.19805e-20)
(2.65771 9.80569 1.43867e-19)
(2.31541 9.46429 -1.45746e-19)
(1.99184 9.10951 -9.76582e-20)
(1.6873 8.74254 9.89927e-20)
(1.4025 8.3643 -5.91282e-19)
(1.13785 7.97623 6.45177e-19)
(0.893768 7.57946 -1.33468e-21)
(0.670563 7.17549 0)
(0.468406 6.76537 1.64347e-19)
(0.287651 6.3502 2.23239e-20)
(0.128376 5.93121 2.36289e-20)
(20.3337 0.0966685 -8.17285e-20)
(20.4055 0.613397 0)
(20.4495 1.13176 0)
(20.4662 1.65147 9.38497e-19)
(20.4553 2.17117 -6.27532e-19)
(20.4173 2.68961 -2.21145e-18)
(20.3523 3.20505 0)
(20.2603 3.71648 0)
(20.1415 4.22226 -1.20425e-18)
(19.9962 4.72093 0)
(19.8245 5.21174 -1.7646e-18)
(19.6272 5.69242 1.17077e-18)
(19.4057 6.16118 -5.81215e-19)
(19.161 6.61777 0)
(18.8933 7.06174 2.29889e-18)
(18.603 7.49174 1.07676e-18)
(18.2909 7.90661 -1.07894e-18)
(17.9581 8.30515 1.02633e-18)
(17.6053 8.68673 -3.03297e-18)
(17.2336 9.05013 2.04252e-18)
(16.8443 9.39423 -1.98372e-18)
(16.4383 9.71859 -1.01141e-18)
(16.0167 10.022 -9.14789e-19)
(15.5807 10.3037 2.6543e-18)
(15.1314 10.563 8.50733e-19)
(14.6698 10.7997 7.78435e-19)
(14.1969 11.014 -7.0332e-19)
(13.7146 11.205 0)
(13.224 11.3719 0)
(12.7266 11.5142 0)
(12.2235 11.6318 0)
(11.7162 11.7246 0)
(11.2059 11.7923 0)
(10.694 11.8351 0)
(10.1818 11.8527 -4.90934e-19)
(9.67053 11.8455 4.35706e-19)
(9.16159 11.8134 3.48968e-19)
(8.65617 11.7567 -1.69397e-18)
(8.15538 11.6759 -2.64394e-19)
(7.66056 11.5711 7.88864e-19)
(7.17294 11.4428 4.34218e-19)
(6.69388 11.2916 -3.46281e-19)
(6.22425 11.118 1.28444e-19)
(5.76539 10.9224 9.41366e-20)
(5.31842 10.7057 -7.47005e-21)
(4.88412 10.4685 7.55405e-21)
(4.46359 10.2115 9.32838e-20)
(4.05778 9.93546 0)
(3.66776 9.64142 8.07568e-20)
(3.29431 9.33034 -1.83202e-19)
(2.93808 9.00307 1.02737e-19)
(2.59999 8.66051 0)
(2.28088 8.30381 -3.06115e-19)
(1.98103 7.93411 0)
(1.70133 7.55236 0)
(1.44203 7.15997 -9.51219e-19)
(1.20378 6.75815 4.58851e-19)
(0.986781 6.3483 1.26858e-19)
(0.791602 5.93143 -1.32704e-19)
(0.618554 5.5088 0)
(0.46787 5.08167 -3.74357e-20)
(20.1245 0.478372 6.22703e-20)
(20.1846 0.979119 0)
(20.218 1.48032 -2.48467e-19)
(20.2237 1.98186 -1.6377e-20)
(20.2026 2.48238 0)
(20.1555 2.98124 1.99386e-18)
(20.0823 3.47764 9.73474e-19)
(19.9826 3.97113 0)
(19.8567 4.45953 3.21574e-20)
(19.7049 4.94062 9.42506e-19)
(19.5283 5.41275 1.43181e-18)
(19.3279 5.87453 -4.70705e-19)
(19.1041 6.32431 0)
(18.8574 6.76127 0)
(18.5881 7.18496 1.73389e-18)
(18.2973 7.5945 -8.55536e-19)
(17.9858 7.98885 -8.01715e-19)
(17.6545 8.36706 0)
(17.3043 8.72835 2.42175e-18)
(16.9363 9.07174 -2.32384e-18)
(16.5516 9.39631 -1.48422e-18)
(16.1512 9.70137 -1.43624e-18)
(15.7362 9.98599 0)
(15.3077 10.2495 -2.05218e-18)
(14.8669 10.4912 -6.69633e-19)
(14.4148 10.7105 6.11729e-19)
(13.9528 10.9069 6.02089e-19)
(13.4822 11.0803 0)
(13.004 11.2303 0)
(12.5196 11.3565 0)
(12.0302 11.4588 0)
(11.537 11.5371 0)
(11.0413 11.5912 0)
(10.5445 11.6213 0)
(10.0479 11.6271 -1.05145e-18)
(9.55255 11.609 3.36638e-19)
(9.05983 11.5668 -2.68309e-19)
(8.57087 11.501 1.27801e-18)
(8.08678 11.4119 0)
(7.6088 11.2998 3.58771e-19)
(7.13811 11.1652 2.92401e-19)
(6.67595 11.0085 1.25077e-19)
(6.22333 10.8303 -7.45984e-20)
(5.7814 10.6312 -9.32874e-20)
(5.3512 10.4117 2.78621e-20)
(4.93363 10.1725 -6.4808e-22)
(4.52955 9.9144 1.03916e-19)
(4.13994 9.63811 0)
(3.76571 9.34462 0)
(3.40771 9.03475 8.09141e-20)
(3.06666 8.70944 9.76946e-20)
(2.74325 8.3696 2.10465e-19)
(2.43825 8.0162 2.40981e-19)
(2.15206 7.65036 0)
(1.88543 7.27295 2.99848e-19)
(1.63857 6.88544 3.30767e-19)
(1.41201 6.48889 0)
(1.20612 6.08476 -1.82468e-21)
(1.02143 5.67396 0)
(0.858169 5.2578 0)
(0.716615 4.83738 2.87205e-20)
(19.9727 0.432398 -1.03029e-19)
(20.0305 0.916813 2.01544e-19)
(20.0624 1.40422 -3.9743e-19)
(20.0679 1.89263 -2.13748e-19)
(20.0472 2.3805 0)
(20 2.86669 -8.27971e-19)
(19.9259 3.35061 -8.22065e-19)
(19.8264 3.83043 0)
(19.7025 4.30599 3.41121e-20)
(19.5543 4.77522 -7.94635e-19)
(19.3821 5.23598 1.50044e-18)
(19.1862 5.68726 1.47712e-18)
(18.9671 6.12795 0)
(18.7254 6.55685 -7.19886e-19)
(18.4618 6.97271 -1.42988e-18)
(18.1772 7.37433 -7.05142e-19)
(17.8724 7.76084 2.06544e-18)
(17.5482 8.13137 -1.32706e-18)
(17.2057 8.48516 1.29126e-18)
(16.8458 8.82136 1.87458e-18)
(16.4697 9.13916 2.43395e-18)
(16.0783 9.43777 1.20324e-18)
(15.6728 9.71634 5.53896e-19)
(15.2542 9.97419 1.67423e-18)
(14.8234 10.2108 5.12492e-19)
(14.3816 10.4257 5.13027e-19)
(13.9302 10.6183 4.64826e-19)
(13.4702 10.7884 -1.35362e-18)
(13.0029 10.9355 8.39289e-19)
(12.5295 11.0595 7.83192e-19)
(12.0512 11.1599 -1.51979e-18)
(11.5693 11.237 7.36522e-19)
(11.085 11.2905 -6.40852e-19)
(10.5996 11.3204 3.0082e-19)
(10.1144 11.3268 2.90566e-19)
(9.63061 11.3096 2.35929e-19)
(9.14938 11.269 -2.37477e-19)
(8.67178 11.2052 -2.23747e-19)
(8.19896 11.1187 -5.11114e-19)
(7.73213 11.0098 -2.9629e-19)
(7.27245 10.8789 -4.62267e-19)
(6.82103 10.7265 -4.28795e-19)
(6.37905 10.5532 1.232e-19)
(5.94754 10.3595 7.24008e-21)
(5.52754 10.1459 -9.79039e-22)
(5.11994 9.91304 3.16424e-20)
(4.72545 9.66166 -2.69699e-19)
(4.3451 9.39257 5.82642e-20)
(3.97969 9.10672 0)
(3.63018 8.80489 0)
(3.29715 8.48791 1.49638e-19)
(2.98143 8.15685 7.84393e-22)
(2.68364 7.81254 -1.96043e-19)
(2.40422 7.45602 0)
(2.14381 7.08809 -2.43454e-19)
(1.90258 6.71023 0)
(1.6811 6.32356 0)
(1.47959 5.92936 -2.34071e-19)
(1.29887 5.52875 -8.33516e-20)
(1.13889 5.1229 8.66047e-20)
(1.00024 4.71297 -4.59475e-20)
(19.8201 0.503171 1.86479e-21)
(19.8726 0.974603 -1.74189e-19)
(19.8996 1.44863 5.10537e-19)
(19.9012 1.9237 3.38742e-19)
(19.8774 2.39862 -4.99014e-19)
(19.8281 2.87208 3.34307e-19)
(19.7543 3.34215 -2.41143e-21)
(19.6557 3.80671 -6.47319e-19)
(19.5323 4.26561 9.85978e-19)
(19.3855 4.71802 -1.28441e-18)
(19.2156 5.16287 1.20885e-18)
(19.0227 5.59867 -1.28522e-18)
(18.8075 6.02434 -6.17513e-19)
(18.5706 6.43884 0)
(18.3126 6.84081 6.35802e-19)
(18.0344 7.22903 5.42711e-19)
(17.7366 7.60278 0)
(17.42 7.96107 1.06899e-18)
(17.0855 8.30322 0)
(16.7343 8.62846 -1.05747e-18)
(16.3674 8.93593 9.33866e-19)
(15.9859 9.22483 -4.05117e-20)
(15.5907 9.49428 -4.54036e-20)
(15.183 9.74355 1.71983e-21)
(14.7635 9.97221 -1.75786e-18)
(14.3334 10.1798 -7.99402e-19)
(13.8938 10.3659 1.56219e-18)
(13.446 10.5302 1.4444e-18)
(12.9912 10.6723 -7.20305e-19)
(12.5305 10.7918 0)
(12.0652 10.8886 0)
(11.5961 10.9628 0)
(11.1248 11.0141 5.48905e-19)
(10.6525 11.0427 -1.92197e-18)
(10.1805 11.0485 8.91931e-19)
(9.70989 11.0313 -4.25215e-19)
(9.24175 10.9914 -6.80017e-19)
(8.77716 10.929 6.3835e-19)
(8.3171 10.8445 2.14576e-20)
(7.86288 10.7383 -2.00806e-19)
(7.41557 10.6109 2.20514e-19)
(6.97627 10.4627 1.42996e-19)
(6.5462 10.2943 0)
(6.12635 10.1061 -3.9104e-20)
(5.71772 9.89881 0)
(5.32126 9.67263 7.85624e-20)
(4.93744 9.42855 -4.07924e-20)
(4.56727 9.16729 0)
(4.21142 8.88985 9.48603e-20)
(3.87118 8.5969 1.95897e-20)
(3.54684 8.28917 -2.48599e-19)
(3.23922 7.96779 1.46137e-19)
(2.94911 7.63354 9.61449e-20)
(2.6767 7.28739 -1.76274e-19)
(2.42289 6.93011 8.11989e-21)
(2.18724 6.56299 -1.06928e-19)
(1.9708 6.18727 -5.76443e-20)
(1.77349 5.80425 -1.28143e-19)
(1.59642 5.41502 3.39755e-19)
(1.43924 5.02069 -1.44506e-19)
(1.30302 4.62238 1.91319e-20)
(19.661 0.554089 3.66137e-20)
(19.7087 1.01067 0)
(19.7318 1.46941 -5.70897e-19)
(19.7303 1.92913 0)
(19.7044 2.38851 2.84112e-19)
(19.6541 2.84614 8.31257e-19)
(19.5796 3.30062 5.45287e-19)
(19.4811 3.75143 1.1058e-18)
(19.359 4.19661 9.65148e-21)
(19.2142 4.63529 -6.75113e-21)
(19.047 5.06606 -5.96831e-20)
(18.8577 5.48791 -5.25918e-19)
(18.6467 5.89983 5.07829e-19)
(18.4149 6.30085 -1.48889e-18)
(18.1629 6.68976 1.01021e-18)
(17.8914 7.06529 -4.84259e-20)
(17.6009 7.42667 -9.16126e-19)
(17.2922 7.77302 -9.38527e-19)
(16.9661 8.1038 0)
(16.6238 8.41841 8.4032e-19)
(16.2665 8.71588 -3.76466e-20)
(15.8952 8.99543 -1.65318e-18)
(15.511 9.25613 -5.77539e-21)
(15.1146 9.49708 -6.86022e-19)
(14.7068 9.71809 2.08795e-18)
(14.2888 9.91868 -3.46112e-20)
(13.8616 10.0985 -6.66664e-19)
(13.4265 10.2574 -7.03181e-20)
(12.9848 10.3948 0)
(12.5374 10.5105 0)
(12.0856 10.604 0)
(11.63 10.6756 0)
(11.1722 10.7253 0)
(10.7135 10.7533 5.38284e-20)
(10.2553 10.7589 -3.45756e-19)
(9.79847 10.7424 3.91123e-20)
(9.34405 10.7037 5.30698e-20)
(8.89303 10.6431 2.21712e-19)
(8.44618 10.5612 4.21383e-19)
(8.00494 10.4583 -5.24281e-19)
(7.57045 10.3349 3.07944e-19)
(7.14357 10.1915 -9.49075e-20)
(6.72573 10.0286 0)
(6.31792 9.8468 3.41137e-20)
(5.92102 9.64656 0)
(5.53623 9.42782 -4.09958e-20)
(5.16327 9.19183 7.79893e-20)
(4.80375 8.9392 -5.40677e-20)
(4.4577 8.67114 -6.81744e-20)
(4.12707 8.38799 1.0219e-19)
(3.81167 8.09041 1.91627e-20)
(3.51237 7.77972 1.53584e-20)
(3.23017 7.45641 -2.81381e-19)
(2.96495 7.1216 3.20736e-19)
(2.71792 6.77567 1.7565e-19)
(2.48793 6.42024 9.18598e-20)
(2.27674 6.05632 3.05618e-19)
(2.08328 5.6854 0)
(1.90982 5.30841 -2.33837e-19)
(1.75522 4.92658 6.21115e-20)
(1.62132 4.54074 0)
(19.4868 0.60734 0)
(19.5293 1.04843 0)
(19.5481 1.49162 2.47552e-19)
(19.5433 1.93546 -4.74272e-19)
(19.515 2.37901 -2.44766e-19)
(19.4634 2.82096 -1.18853e-18)
(19.3887 3.25963 4.58923e-19)
(19.2906 3.69398 -9.48958e-19)
(19.1697 4.12366 1.53577e-20)
(19.0271 4.54739 1.34527e-18)
(18.8631 4.9632 -1.79588e-18)
(18.6778 5.37021 0)
(18.4715 5.76735 0)
(18.245 6.15437 1.70095e-18)
(17.9994 6.5298 8.22127e-19)
(17.7353 6.8917 -1.6686e-18)
(17.4527 7.23994 2.38925e-18)
(17.1523 7.57359 7.60006e-19)
(16.835 7.89231 -1.48988e-18)
(16.5019 8.19583 -7.47755e-19)
(16.1547 8.48268 6.8991e-19)
(15.7942 8.75249 -7.05858e-20)
(15.4214 9.00414 0)
(15.0373 9.23611 1.29225e-18)
(14.6418 9.44896 -1.8231e-18)
(14.2364 9.64218 5.87324e-19)
(13.8223 9.81529 1.05693e-18)
(13.4003 9.96862 -2.5662e-18)
(12.9725 10.101 5.02176e-19)
(12.5392 10.2128 0)
(12.1019 10.3025 0)
(11.6604 10.3719 0)
(11.2172 10.4197 3.48193e-19)
(10.7726 10.4474 9.85269e-19)
(10.3295 10.4533 -5.80832e-19)
(9.8873 10.4376 2.53294e-19)
(9.44754 10.4005 2.42677e-19)
(9.01124 10.3417 -4.31656e-19)
(8.57833 10.2624 0)
(8.15075 10.1631 -2.41413e-19)
(7.72991 10.0438 1.25671e-19)
(7.31587 9.90538 1.41604e-20)
(6.91068 9.7484 9.74462e-21)
(6.51553 9.5733 2.92657e-20)
(6.13076 9.38092 -1.05537e-20)
(5.75877 9.16995 1.53056e-19)
(5.39705 8.94278 -6.54033e-20)
(5.04902 8.69923 2.22611e-19)
(4.71284 8.44146 0)
(4.39284 8.16905 0)
(4.08691 7.88231 -4.00455e-19)
(3.79609 7.58318 1.08946e-19)
(3.52277 7.27174 2.49926e-19)
(3.26485 6.94919 1.47724e-19)
(3.02574 6.61525 -4.65475e-19)
(2.8013 6.27216 -2.60539e-19)
(2.59593 5.92059 -9.58841e-20)
(2.40595 5.56272 -2.09675e-21)
(2.23683 5.19889 1.02737e-19)
(2.08439 4.83035 0)
(1.9533 4.45776 0)
(19.2922 0.65779 -2.49757e-20)
(19.3288 1.08231 0)
(19.3429 1.50907 0)
(19.3342 1.93635 2.10169e-19)
(19.3032 2.36308 0)
(19.2504 2.78828 8.09849e-19)
(19.1761 3.21025 3.99491e-19)
(19.0786 3.62736 -7.84697e-19)
(18.9585 4.04146 0)
(18.8183 4.45045 -7.96779e-19)
(18.6589 4.8497 4.37612e-20)
(18.478 5.24106 0)
(18.2772 5.62225 0)
(18.0562 5.9944 -7.43272e-19)
(17.8173 6.35648 6.86406e-19)
(17.5619 6.70354 -7.11028e-19)
(17.2878 7.03793 -6.93306e-19)
(16.9961 7.35855 0)
(16.6882 7.66408 6.55311e-19)
(16.3647 7.95597 -1.19513e-18)
(16.0285 8.23131 -1.1548e-18)
(15.6793 8.49096 -1.18593e-18)
(15.3184 8.7338 -9.46545e-21)
(14.9482 8.95557 -9.79292e-19)
(14.5653 9.15977 1.03873e-18)
(14.1728 9.34553 9.36364e-19)
(13.7728 9.51093 -9.50447e-19)
(13.3642 9.65867 5.95131e-20)
(12.9513 9.78531 1.01351e-21)
(12.5321 9.89397 -7.94728e-19)
(12.111 9.97868 0)
(11.6834 10.0464 -6.33792e-19)
(11.2563 10.0916 1.22102e-18)
(10.8258 10.1203 -4.61313e-20)
(10.3997 10.1267 5.22688e-19)
(9.97347 10.112 -4.25522e-19)
(9.54947 10.0769 3.61686e-19)
(9.12995 10.0195 2.59259e-19)
(8.71172 9.94315 -5.70343e-19)
(8.29836 9.8477 2.39796e-19)
(7.89282 9.73264 1.53271e-19)
(7.49146 9.5993 1.62231e-19)