/*--------------------------------*- C++ -*----------------------------------*\
| =========                 |                                                 |
| \\      /  F ield         | OpenFOAM: The Open Source CFD Toolbox           |
|  \\    /   O peration     | Version:  2.3.1                                 |
|   \\  /    A nd           | Web:      www.OpenFOAM.org                      |
|    \\/     M anipulation  |                                                 |
\*---------------------------------------------------------------------------*/
FoamFile
{
    version     2.0;
    format      ascii;
    class       volScalarField;
    location    "0.45";
    object      k;
}
// * * * * * * * * * * * * * * * * * * * * * * * * * * * * * * * * * * * * * //

dimensions      [0 2 -2 0 0 0 0];

internalField   nonuniform List<scalar> 
9648
(
2.71049
2.70243
2.70235
2.69856
2.69112
2.67948
2.66401
2.64469
2.62137
2.59395
2.56248
2.52714
2.48835
2.44668
2.40279
2.35746
2.31144
2.26544
2.2201
2.17597
2.13352
2.09313
2.05503
2.01945
1.98646
1.95613
1.92842
1.90328
1.88058
1.8602
1.84211
1.82615
1.81232
1.80048
1.79057
1.78247
1.7761
1.77138
1.76822
1.76658
1.76639
1.76762
1.77021
1.77414
1.77939
1.78594
1.79381
1.80303
1.81361
1.82557
1.83897
1.85385
1.87025
1.88818
1.90763
1.92848
1.95044
1.97302
1.99577
2.01828
2.04021
1.75975
1.75784
1.75485
1.75068
1.74797
1.74864
1.75487
1.76806
1.78839
1.8161
1.85117
1.89316
1.9413
1.99469
2.05235
2.11333
2.17672
2.24164
2.30729
2.37309
2.43857
2.50343
2.56748
2.6306
2.69265
2.75359
2.81353
2.87233
2.93012
2.98674
3.04241
3.09718
3.15112
3.20453
3.25739
3.30974
3.36171
3.41333
3.46465
3.51558
3.56622
3.61667
3.6669
3.71689
3.76672
3.81625
3.86549
3.91456
3.96349
4.01214
4.06042
4.10823
4.15564
4.20227
4.24839
4.29374
4.33852
4.38203
4.42452
4.46603
4.50661
1.44729
1.49735
1.54789
1.60214
1.66284
1.73077
1.80555
1.88722
1.97543
2.06998
2.16993
2.27462
2.3831
2.49432
2.60725
2.72086
2.83424
2.94644
3.05667
3.16429
3.26886
3.37018
3.46811
3.56269
3.65391
3.74189
3.82665
3.90842
3.98706
4.06284
4.13595
4.20658
4.27525
4.34194
4.40685
4.4701
4.53177
4.59209
4.65107
4.70887
4.76554
4.82113
4.87578
4.92952
4.98234
5.03423
5.08517
5.13523
5.18425
5.23227
5.27924
5.32521
5.37039
5.41409
5.45724
5.49882
5.53957
5.57843
5.61659
5.65366
5.68967
1.35981
1.45776
1.56033
1.6688
1.78389
1.90566
2.0338
2.16766
2.30641
2.44924
2.59499
2.74268
2.89113
3.03938
3.18628
3.33085
3.47228
3.60974
3.74251
3.87011
3.99223
4.10879
4.22001
4.32602
4.42697
4.52295
4.61437
4.70119
4.78399
4.86271
4.93779
5.00987
5.07901
5.14591
5.21041
5.27276
5.33315
5.39177
5.44884
5.50442
5.55865
5.61171
5.66364
5.71463
5.76462
5.81369
5.86185
5.90912
5.95543
6.00077
6.04528
6.0886
6.13096
6.17216
6.21271
6.25206
6.29024
6.32725
6.36317
6.39801
6.43159
1.38516
1.52366
1.67077
1.82553
1.98719
2.15518
2.32855
2.50607
2.68657
2.86868
3.05109
3.23246
3.41177
3.58792
3.7599
3.92668
4.08754
4.24187
4.38908
4.52884
4.66104
4.78591
4.90378
5.01481
5.11925
5.21753
5.30976
5.39699
5.4789
5.55627
5.6295
5.69861
5.76483
5.82797
5.88845
5.94651
6.00238
6.05635
6.10852
6.15903
6.208
6.2556
6.30209
6.34754
6.39201
6.43553
6.47812
6.5198
6.56064
6.60042
6.6393
6.67715
6.71384
6.7494
6.78399
6.8177
6.85024
6.88169
6.91196
6.94093
6.96864
1.46281
1.63716
1.82378
2.01993
2.22335
2.43258
2.64599
2.86192
3.07859
3.29418
3.50723
3.71611
3.91993
4.11754
4.30834
4.49115
4.66534
4.83068
4.98635
5.13259
5.26953
5.39744
5.517
5.62813
5.73121
5.82667
5.91567
5.99827
6.07609
6.1485
6.21608
6.27957
6.33863
6.39491
6.44796
6.49836
6.54681
6.59324
6.63804
6.68092
6.72205
6.76182
6.80042
6.83812
6.87482
6.91068
6.94578
6.97988
7.01322
7.04564
7.07707
7.10748
7.13683
7.16496
7.1921
7.21822
7.24339
7.26753
7.29036
7.31167
7.33183
1.57179
1.77874
2.00156
2.23551
2.47671
2.72304
2.97211
3.22179
3.47007
3.71415
3.95291
4.184
4.40702
4.62055
4.82532
5.0192
5.20181
5.37336
5.53274
5.68076
5.81831
5.94507
6.06256
6.16935
6.2667
6.35578
6.43685
6.5134
6.58309
6.64779
6.70748
6.76067
6.81062
6.85672
6.89952
6.9399
6.97841
7.0151
7.05009
7.08321
7.11425
7.14393
7.17263
7.20058
7.22742
7.25347
7.2789
7.30351
7.32752
7.35059
7.37275
7.39385
7.41394
7.43271
7.45024
7.46701
7.483
7.498
7.5115
7.52329
7.53392
1.69979
1.93643
2.19254
2.46106
2.73646
3.01553
3.29602
3.5755
3.85118
4.11953
4.37993
4.62856
4.86593
5.09011
5.30463
5.50544
5.69245
5.86676
6.0254
6.17127
6.30593
6.42767
6.53981
6.63843
6.72625
6.80506
6.87675
6.94284
7.00303
7.05668
7.10431
7.14524
7.18127
7.21502
7.24551
7.27318
7.29941
7.32337
7.34635
7.36727
7.38572
7.40279
7.41911
7.43498
7.4495
7.46361
7.47682
7.48946
7.50158
7.51305
7.52354
7.53301
7.54176
7.54878
7.55456
7.55982
7.56394
7.56812
7.57025
7.5701
7.56938
1.83788
2.09884
2.38517
2.68228
2.98963
3.29629
3.60277
3.91003
4.20699
4.49728
4.77442
5.03934
5.28635
5.51688
5.73557
5.94012
6.12851
6.30215
6.46157
6.6021
6.72902
6.84292
6.94544
7.0365
7.11143
7.17718
7.2357
7.29018
7.33685
7.37696
7.41043
7.43626
7.45665
7.4748
7.49
7.50356
7.51335
7.52151
7.52958
7.53493
7.538
7.53849
7.5409
7.54191
7.54138
7.5422
7.53921
7.53731
7.53321
7.52917
7.52332
7.51741
7.51203
7.50469
7.49628
7.48783
7.47611
7.46879
7.45685
7.44135
7.42727
2.06126
2.08133
2.10053
2.11884
2.13632
2.1531
2.16944
2.18567
2.2018
2.21704
2.23108
2.24456
2.25757
2.27034
2.28316
2.29663
2.31113
2.32696
2.34446
2.36407
2.38548
2.40827
2.43215
2.45673
2.4817
2.50708
2.533
2.55919
2.58555
2.61216
2.63911
2.66632
2.69377
2.72163
2.74983
2.77835
2.80728
2.83671
2.86659
2.89683
2.92755
2.95884
2.99067
3.023
3.05595
3.08934
3.1232
3.15766
3.19275
3.22835
3.26452
3.30132
3.33886
3.37692
3.41584
3.45554
3.49631
3.53787
3.58057
3.62453
3.66983
4.54633
4.58401
4.62078
4.65678
4.69174
4.72523
4.7568
4.7871
4.81515
4.84245
4.86802
4.89259
4.91607
4.93852
4.95986
4.97993
4.99887
5.01662
5.03322
5.04865
5.06297
5.0762
5.08822
5.0991
5.10884
5.11742
5.12471
5.13047
5.13477
5.13761
5.13897
5.1389
5.13746
5.13461
5.13039
5.12488
5.11803
5.10995
5.1006
5.08999
5.0782
5.06525
5.05123
5.03609
5.0198
5.00231
4.98351
4.96345
4.94204
4.91934
4.89527
4.86979
4.84304
4.81456
4.78508
4.75398
4.72191
4.68839
4.65447
4.62002
4.58518
5.72405
5.75735
5.78908
5.81992
5.84972
5.87892
5.90624
5.93226
5.95608
5.97862
5.99953
6.01921
6.03749
6.05473
6.0707
6.08533
6.09863
6.1106
6.12121
6.13045
6.1384
6.14501
6.15031
6.15429
6.15694
6.15824
6.15822
6.15683
6.15404
6.14978
6.14409
6.13691
6.12825
6.11817
6.10665
6.09373
6.07938
6.06364
6.0465
6.02801
6.00822
5.98724
5.9651
5.94185
5.91745
5.89183
5.86485
5.83646
5.8066
5.77526
5.74241
5.70781
5.67154
5.63346
5.59377
5.55217
5.50889
5.46419
5.41853
5.37201
5.32474
6.46415
6.49543
6.52543
6.55389
6.58114
6.60719
6.6318
6.6548
6.67615
6.69587
6.714
6.73056
6.74559
6.75915
6.77112
6.78168
6.79077
6.79835
6.8044
6.80893
6.81198
6.81364
6.81389
6.81279
6.81026
6.80627
6.8008
6.7939
6.78557
6.77579
6.76451
6.75165
6.73723
6.72127
6.70383
6.6849
6.66445
6.64244
6.61887
6.59381
6.56737
6.53966
6.51086
6.48105
6.45028
6.41849
6.38546
6.35114
6.31546
6.27842
6.23988
6.19969
6.15783
6.11417
6.06866
6.02112
5.97173
5.9208
5.86881
5.81581
5.76221
6.99505
7.02028
7.04408
7.0663
7.08685
7.10583
7.12325
7.13906
7.15352
7.16664
7.17825
7.18837
7.19703
7.20412
7.20969
7.21386
7.21646
7.21751
7.21691
7.21469
7.21094
7.20581
7.19937
7.19167
7.18261
7.17215
7.1603
7.1471
7.13264
7.11692
7.09989
7.08136
7.06132
7.03978
7.01687
6.99253
6.96665
6.93921
6.91008
6.87934
6.84713
6.8136
6.77905
6.7437
6.70768
6.67104
6.63338
6.59472
6.55496
6.51423
6.47216
6.42852
6.38342
6.33655
6.28784
6.23678
6.18386
6.1292
6.07351
6.01673
5.95944
7.35064
7.36815
7.38408
7.39856
7.41132
7.42239
7.43189
7.43963
7.44578
7.45043
7.45374
7.45567
7.45616
7.45511
7.45253
7.4486
7.44325
7.4363
7.42757
7.41703
7.40489
7.39139
7.37669
7.36094
7.34395
7.32558
7.30589
7.28494
7.26304
7.24027
7.21663
7.1917
7.1655
7.13792
7.10927
7.07935
7.04793
7.01501
6.98033
6.94393
6.90594
6.86643
6.82587
6.78471
6.74325
6.70181
6.65956
6.61692
6.57349
6.52985
6.48519
6.43899
6.39174
6.34284
6.29235
6.2391
6.18401
6.12688
6.06919
6.01021
5.9508
7.54334
7.55146
7.55804
7.56305
7.56635
7.5679
7.56769
7.56597
7.56264
7.55751
7.55105
7.54348
7.53453
7.52404
7.51193
7.49873
7.48453
7.46872
7.45097
7.43102
7.40927
7.38623
7.36207
7.3372
7.31134
7.28403
7.25538
7.2253
7.19457
7.16356
7.13269
7.10081
7.0683
7.03462
7.00057
6.96559
6.92888
6.89079
6.85106
6.80961
6.76637
6.72116
6.67466
6.62758
6.58042
6.53434
6.4873
6.44088
6.39391
6.3483
6.30229
6.25439
6.20606
6.15621
6.10545
6.05088
5.995
5.93645
5.87854
5.81884
5.75913
7.56727
7.56424
7.55956
7.55372
7.54619
7.53726
7.52625
7.51471
7.50173
7.48617
7.4693
7.45199
7.43322
7.41305
7.3905
7.36715
7.34412
7.31982
7.29361
7.26413
7.23203
7.19916
7.16502
7.1303
7.09549
7.05918
7.02144
6.98106
6.93975
6.89881
6.86019
6.82076
6.78223
6.74286
6.70478
6.66674
6.62572
6.58261
6.53861
6.49394
6.44701
6.39721
6.34563
6.29304
6.24015
6.19021
6.13802
6.08812
6.03737
5.99107
5.94567
5.897
5.84877
5.7992
5.75004
5.69492
5.63973
5.5805
5.52449
5.46585
5.40824
7.41018
7.39363
7.37399
7.35524
7.33377
7.31454
7.29119
7.27028
7.24924
7.22555
7.19993
7.17468
7.14719
7.11966
7.0867
7.0513
7.0194
6.98869
6.95844
6.92343
6.88008
6.83916
6.7966
6.75147
6.7077
6.66364
6.62067
6.5718
6.51715
6.46376
6.41654
6.36815
6.32326
6.27838
6.24001
6.2038
6.16169
6.11309
6.06513
6.02013
5.97384
5.92197
5.86643
5.81035
5.7528
5.70086
5.64259
5.58941
5.53351
5.48908
5.44704
5.39807
5.3517
5.30474
5.25981
5.20464
5.15167
5.09192
5.03995
4.98451
4.93222
3.7165
3.76415
3.81307
3.86326
3.91474
3.96767
4.02195
4.07773
4.13474
4.19293
4.25239
4.31277
4.37396
4.43837
4.51763
4.59102
4.66287
4.73548
4.80889
4.88323
4.95853
5.03485
5.11205
5.19008
5.26873
5.34779
5.42712
5.50654
5.58585
5.66472
5.74306
5.82056
5.8968
5.97159
6.04456
6.11517
6.18295
6.24745
6.30486
6.3471
6.37617
6.39289
6.39724
6.38859
6.36593
6.32787
6.27258
6.19776
6.10075
5.97843
5.8271
5.64236
5.4193
5.15082
4.84392
4.26922
3.99893
3.85633
3.79809
3.7733
3.72903
4.54967
4.51378
4.47709
4.43968
4.40159
4.3635
4.32518
4.28738
4.24961
4.21225
4.17593
4.13464
4.08935
4.04654
3.99876
3.95246
3.90621
3.85987
3.81391
3.76861
3.72398
3.67973
3.63576
3.59202
3.54844
3.50502
3.46178
3.41882
3.37616
3.33386
3.29204
3.25082
3.21033
3.17079
3.13244
3.09559
3.06063
3.02816
2.99864
2.97419
2.95197
2.93211
2.91491
2.90093
2.89111
2.88636
2.88768
2.89639
2.91394
2.9416
2.98061
3.03208
3.0971
3.17891
3.26445
3.39588
3.56268
3.82273
4.19045
4.67401
5.06485
5.27694
5.2286
5.17943
5.12913
5.07768
5.02559
4.97318
4.92092
4.86842
4.81558
4.75983
4.69578
4.63179
4.57111
4.51055
4.45064
4.39004
4.32874
4.2671
4.20554
4.14411
4.08255
4.02081
3.95888
3.89664
3.83411
3.77127
3.70813
3.64462
3.58077
3.51653
3.45194
3.38705
3.32187
3.25651
3.19104
3.12559
3.06027
2.99522
2.9307
2.86665
2.80276
2.73941
2.67755
2.61746
2.5597
2.5051
2.45486
2.41057
2.37433
2.34887
2.33764
2.34524
2.37736
2.43653
2.53452
2.67309
2.88142
3.20153
3.68268
4.30894
5.70815
5.65399
5.59912
5.54318
5.48578
5.42771
5.36931
5.31123
5.25289
5.19365
5.12813
5.05621
4.98634
4.91992
4.85462
4.7901
4.72521
4.66009
4.59485
4.52981
4.46487
4.39956
4.33403
4.26832
4.20229
4.13601
4.06943
4.00253
3.93522
3.86745
3.7992
3.7305
3.66137
3.59188
3.52209
3.45207
3.38189
3.31162
3.24125
3.17082
3.10028
3.02958
2.95819
2.8858
2.81318
2.74041
2.66774
2.59556
2.52455
2.45572
2.39047
2.33088
2.27981
2.24103
2.21814
2.2171
2.24537
2.31954
2.46736
2.72972
3.14374
5.90165
5.84417
5.78621
5.7273
5.66642
5.60481
5.54277
5.48143
5.41968
5.35677
5.28609
5.21128
5.13928
5.07079
5.00337
4.93676
4.86998
4.80378
4.73794
4.67269
4.6076
4.54184
4.47593
4.40995
4.34363
4.27715
4.21035
4.14326
4.07565
4.00754
3.93888
3.86981
3.80037
3.73069
3.66085
3.59095
3.52109
3.45133
3.38166
3.31211
3.24268
3.17338
3.10411
3.0344
2.96387
2.89271
2.82099
2.74876
2.67616
2.60353
2.53124
2.45988
2.39039
2.324
2.26219
2.20766
2.166
2.14736
2.16771
2.25086
2.42785
5.89052
5.83132
5.77194
5.71186
5.64885
5.58508
5.52051
5.45734
5.39388
5.32962
5.25683
5.18198
5.11021
5.04234
4.97496
4.90836
4.84147
4.77623
4.71184
4.64855
4.5855
4.52123
4.45711
4.39328
4.32902
4.26473
4.20001
4.13505
4.06932
4.00304
3.93611
3.86892
3.80149
3.7341
3.66673
3.59961
3.53277
3.46634
3.4003
3.33473
3.26961
3.20503
3.14098
3.07733
3.01368
2.94948
2.88473
2.81947
2.75377
2.68771
2.6214
2.55488
2.48817
2.42127
2.35403
2.28693
2.2221
2.1645
2.12259
2.10916
2.14262
5.69722
5.63768
5.57835
5.51918
5.45505
5.39041
5.32413
5.26077
5.19728
5.13426
5.06128
4.98837
4.91842
4.85362
4.78806
4.72361
4.65806
4.5957
4.53445
4.47483
4.41547
4.35376
4.29314
4.23368
4.17334
4.11319
4.05215
3.9911
3.92871
3.86579
3.802
3.73845
3.67484
3.61179
3.54891
3.48669
3.42495
3.36407
3.30387
3.24464
3.18622
3.12885
3.07247
3.01703
2.96234
2.90807
2.85336
2.79823
2.74282
2.68727
2.63166
2.57598
2.52008
2.46356
2.4058
2.34618
2.28466
2.22276
2.16397
2.11435
2.08344
5.34538
5.28648
5.22877
5.17311
5.10914
5.04524
4.97801
4.9164
4.85487
4.79588
4.72399
4.65434
4.58717
4.52762
4.46505
4.40473
4.3415
4.28379
4.22705
4.1721
4.11745
4.05852
4.00257
3.94994
3.89499
3.84007
3.78333
3.72749
3.66891
3.6101
3.54995
3.49148
3.43296
3.37608
3.31914
3.26349
3.20813
3.15437
3.10163
3.05069
3.0008
2.95263
2.90596
2.86047
2.81607
2.77276
2.72958
2.68593
2.64227
2.59888
2.55605
2.51376
2.47189
2.42993
2.3872
2.34277
2.29585
2.24618
2.19452
2.14298
2.09567
4.8693
4.8107
4.75668
4.70744
4.6452
4.5835
4.51575
4.4586
4.40152
4.34915
4.27945
4.2136
4.14912
4.09695
4.03767
3.98349
3.92293
3.87175
3.82047
3.76967
3.71983
3.6628
3.61259
3.57089
3.52173
3.47086
3.41772
3.36821
3.31235
3.25731
3.19983
3.14836
3.09551
3.04656
2.99589
2.94778
2.89818
2.85238
2.8081
2.76709
2.72702
2.68926
2.65348
2.61892
2.5845
2.5508
2.5176
2.48378
2.45162
2.42001
2.39132
2.36382
2.3382
2.31293
2.28786
2.26161
2.23358
2.20275
2.16904
2.13196
2.0929
3.638
3.53584
3.42502
3.30592
3.18426
3.06351
2.94636
2.83621
2.73634
2.64898
2.57524
2.51523
2.46816
2.43264
2.40687
2.38903
2.37733
2.37041
2.36717
2.36667
2.36826
2.37152
2.37609
2.38182
2.3887
2.3964
2.40512
2.4147
2.42518
2.43652
2.44864
2.46152
2.47504
2.48906
2.50343
2.51799
2.53248
2.54669
2.56039
2.57333
2.58527
2.59594
2.60524
2.61306
2.61936
2.62429
2.62803
2.63087
2.63316
2.6354
2.63798
2.64125
2.64545
2.65082
2.65726
2.66465
2.67268
2.68114
2.68955
2.69731
2.70399
5.06862
5.00183
4.88915
4.72057
4.53168
4.3252
4.09966
3.85999
3.61481
3.37212
3.13832
2.92012
2.72176
2.54496
2.3902
2.25904
2.15125
2.06437
1.99507
1.94056
1.89825
1.86572
1.84121
1.82261
1.80992
1.80093
1.79605
1.79447
1.79599
1.80034
1.80734
1.81674
1.82831
1.84173
1.85669
1.87284
1.8897
1.90684
1.92368
1.93965
1.95402
1.96596
1.97455
1.97884
1.97797
1.97123
1.95813
1.93871
1.91363
1.88427
1.85258
1.82102
1.7922
1.76839
1.75098
1.74079
1.73732
1.73939
1.74461
1.75052
1.75561
4.8279
5.20507
5.42435
5.46298
5.34077
5.15324
4.90415
4.61263
4.29836
3.97293
3.64804
3.33584
3.04406
2.77839
2.54237
2.33778
2.16359
2.01599
1.89224
1.79163
1.71175
1.64964
1.60207
1.5665
1.53955
1.52056
1.50706
1.49869
1.49444
1.49374
1.49612
1.50115
1.50834
1.51717
1.52714
1.53774
1.54846
1.55877
1.5681
1.57584
1.58134
1.58403
1.58331
1.5786
1.56934
1.55508
1.53547
1.51037
1.48
1.44506
1.40696
1.36804
1.33141
1.30055
1.27865
1.26854
1.2715
1.2876
1.31533
1.35259
1.3975
3.66941
4.25762
4.8312
5.29448
5.54201
5.60674
5.50665
5.27148
4.96441
4.60942
4.23082
3.8556
3.49612
3.16384
2.86507
2.60038
2.3674
2.1645
1.99076
1.84569
1.72745
1.63382
1.5616
1.50701
1.4664
1.43684
1.41616
1.40265
1.39498
1.39209
1.39321
1.39769
1.40483
1.41386
1.42407
1.43474
1.4452
1.45472
1.46259
1.46804
1.47031
1.46872
1.46263
1.45147
1.4348
1.41238
1.38418
1.35039
1.31139
1.26792
1.22121
1.17329
1.12714
1.08676
1.05699
1.04318
1.04885
1.07552
1.12252
1.18771
1.26829
2.71928
3.13681
3.66953
4.2667
4.82723
5.26951
5.53743
5.60165
5.49108
5.23844
4.8848
4.49571
4.09274
3.70031
3.33717
3.00652
2.71015
2.44665
2.21757
2.02341
1.86231
1.73283
1.6318
1.55472
1.49676
1.45392
1.42328
1.40252
1.38977
1.38339
1.38236
1.38586
1.39298
1.40277
1.4143
1.42673
1.43918
1.45083
1.46079
1.46816
1.47201
1.47155
1.46598
1.45464
1.43693
1.4126
1.38155
1.34403
1.30034
1.25123
1.19778
1.14189
1.08637
1.03526
0.994594
0.971764
0.972647
1.00198
1.06126
1.14839
1.25851
2.24449
2.4385
2.74483
3.17036
3.69013
4.25155
4.77956
5.19087
5.43127
5.48406
5.35977
5.09958
4.74032
4.33196
3.92748
3.53688
3.17638
2.84956
2.5547
2.29787
2.08253
1.90833
1.77182
1.66695
1.58724
1.52724
1.48322
1.45233
1.43206
1.42011
1.41511
1.41606
1.42192
1.43149
1.44367
1.45744
1.4718
1.48578
1.49838
1.50856
1.51527
1.51762
1.5147
1.50574
1.48996
1.46704
1.43676
1.39935
1.35494
1.30419
1.24805
1.18829
1.12755
1.06967
1.02069
0.988776
0.981778
1.00774
1.07166
1.17295
1.30606
2.08458
2.13518
2.25572
2.4667
2.78094
3.19669
3.68886
4.20591
4.68022
5.0444
5.24931
5.28005
5.15183
4.89506
4.55482
4.1598
3.75976
3.37733
3.00913
2.67672
2.39135
2.15803
1.97482
1.83303
1.72412
1.64067
1.57804
1.53281
1.50176
1.48148
1.4701
1.4664
1.46918
1.47696
1.48843
1.50239
1.51766
1.53316
1.54774
1.56024
1.5695
1.57461
1.57452
1.56844
1.55535
1.53492
1.5068
1.47123
1.42817
1.3783
1.32242
1.26228
1.20038
1.14021
1.08748
1.05018
1.03733
1.05938
1.12488
1.23616
1.38835
2.05927
2.04363
2.06212
2.13136
2.26914
2.49069
2.80337
3.19895
3.65085
4.1117
4.52226
4.82864
4.99849
5.01735
4.89774
4.66244
4.34786
3.98277
3.56984
3.16591
2.79787
2.48942
2.24689
2.05779
1.91054
1.79545
1.7069
1.64121
1.595
1.56284
1.5422
1.53129
1.52884
1.53298
1.54214
1.55487
1.56982
1.58571
1.60125
1.61514
1.62618
1.63344
1.63577
1.63245
1.62212
1.6045
1.57911
1.54619
1.50557
1.45793
1.40402
1.34556
1.28484
1.2251
1.17208
1.13298
1.1173
1.13719
1.20411
1.32369
1.4924
2.05443
2.02088
1.99974
2.00085
2.03704
2.12298
2.27307
2.4976
2.79762
3.16275
3.5607
3.95596
4.305
4.57096
4.72171
4.74689
4.64727
4.42824
4.12303
3.72802
3.29265
2.90916
2.60365
2.35969
2.16138
2.00244
1.8771
1.78341
1.71625
1.66715
1.63348
1.61195
1.6014
1.5997
1.60463
1.61452
1.62773
1.64277
1.65814
1.67219
1.68415
1.69265
1.69687
1.69583
1.68823
1.67339
1.65125
1.6212
1.58376
1.539
1.4883
1.43285
1.375
1.31813
1.26699
1.22852
1.21262
1.23269
1.30137
1.42797
1.60945
0.296918
6.60521
6.28011
0.224035
0.364185
0.127489
0.00315916
2.43483
0.00338604
0.023341
3.34905
1.08834
0.00316087
6.10731
0.111781
5.41917
0.00326266
2.54097
3.65433
0.00315565
0.223956
5.93649
6.43934
0.00329495
0.00333929
0.105777
0.00315768
0.513533
0.00324896
0.0034606
0.761667
0.00324371
0.0162633
2.48897
0.794805
3.4254
2.55373
1.594
0.0031631
2.56139
1.87288
2.02121
0.00321046
4.69624
3.17661
0.282892
0.00360804
0.0154004
0.133973
1.11197
6.61242
7.70312
0.00310861
0.0040538
0.03712
0.00839426
0.00345176
0.672982
2.42292
7.39894
2.46173
0.00370758
0.146083
0.0321612
6.45575
0.455784
1.98226
1.74803
0.00430629
0.00321322
1.21812
2.58082
1.70131
0.0146593
0.0391115
4.02742
6.84141
3.29869
0.00310932
0.94557
0.00714
2.56079
0.0106575
4.82983
0.00321802
1.08649
0.00336883
2.20134
0.0148194
0.00492846
0.121004
0.00310567
0.00378905
7.56883
5.44474
0.00359912
0.441398
0.323565
0.00602622
6.55785
0.215284
2.51764
0.749007
0.00310258
0.00316381
0.00309939
0.305951
0.125215
0.00323807
6.06819
6.75058
0.00929017
4.57789
1.50519
2.57152
2.71208
1.7806
0.00389569
0.0860861
0.00418089
0.00433791
3.43407
0.00731329
7.33084
7.65044
1.00227
0.00321545
1.03902
1.04458
0.00321115
0.034008
0.0337317
1.68578
0.00568197
3.03109
0.00322097
0.00315893
7.60464
7.76735
0.00323235
0.175679
5.59512
0.104688
0.303717
1.56242
4.8047
0.0387835
1.65066
0.0121264
7.13382
1.21926
0.0087252
2.83048
4.76902
6.2649
0.00330334
0.00327038
0.218364
0.00312236
1.95406
0.0305011
0.00509885
0.00319636
0.00322054
0.00323678
2.85798
1.78423
1.55175
0.00331539
6.83693
4.76845
3.11016
4.91983
0.0139046
3.67905
1.65283
1.89306
0.00324431
0.00570743
2.8611
3.09089
2.07258
3.687
0.0032174
0.00352499
4.89919
0.0363209
0.570777
0.00323843
0.00360446
0.105183
0.00338564
7.73651
0.691788
0.00311409
0.257651
1.78969
5.42094
0.00447537
1.93734
0.00321971
0.00323565
5.03912
2.41451
7.32826
0.00451944
0.00340113
0.00763607
2.72886
2.22715
1.10056
4.99664
1.57821
6.87245
0.185411
4.34394
4.08204
1.97139
1.37623
2.30396
0.00488486
0.0370887
0.00322728
0.00319984
1.81838
0.0183069
0.0203371
0.00571705
0.0130529
2.78917
4.66668
0.0188346
5.94848
1.09165
0.412505
0.00318321
0.162806
2.80372
1.04649
0.00412632
1.25786
1.16042
0.176146
0.253761
7.22534
0.781833
0.476887
5.15195
0.00383212
0.00315974
0.00404838
0.0104435
1.74817
0.00335894
0.00652052
0.00316305
0.389433
4.14693
3.96923
2.75287
1.2706
1.45098
7.55866
0.00432775
2.08605
4.51789
0.0032108
1.95807
0.00321747
4.07392
0.387617
1.52555
0.00535787
0.00322106
1.91077
0.507284
0.003239
0.00323975
0.00325404
0.00324534
0.361922
1.5905
3.01305
0.0147205
0.00324065
0.00316301
0.00310065
4.75857
0.235897
0.0044867
1.65386
0.0882081
0.0409791
0.00309481
0.266252
0.00323975
0.0534907
1.44628
4.69504
0.303728
0.00391225
0.00599137
3.28625
0.142098
1.90844
7.50915
0.00350607
0.00319797
0.0031873
5.81264
0.00331672
4.81696
0.00322227
1.87313
1.21345
0.0269082
2.91712
3.97715
0.00469597
2.73632
2.64578
1.62382
4.73961
1.11375
7.77516
2.45127
4.02238
3.63993
4.50467
1.69254
0.159636
7.67524
7.28685
3.0248
2.12529
0.0039366
7.04105
2.72256
6.83545
0.0276304
0.0035963
0.00321545
0.00343136
0.172259
0.424535
0.767174
0.0929505
0.00317228
5.99719
0.00321606
1.45385
1.945
6.36231
2.7423
1.85523
0.0059945
0.00426457
0.0893115
2.77806
0.0104237
0.726106
5.2099
2.0546
4.1804
6.31403
3.26667
0.00346433
7.29844
5.42347
1.72405
0.00323723
6.32654
5.64909
0.0033388
1.97184
0.00324115
6.79498
5.73152
1.87006
4.20323
2.49737
5.63398
0.00328777
5.63554
0.00387645
3.63791
4.03797
1.90664
7.27528
0.7277
0.214366
0.5547
0.00424703
4.25767
0.143592
0.00814348
0.00504829
4.47632
0.00384369
4.39716
0.00318996
0.00323774
0.00598167
1.80557
0.106361
1.85
0.00571392
4.25748
0.164778
6.69418
4.34521
2.65434
6.24972
0.00337756
7.28423
2.93161
0.00321413
3.96626
2.06756
0.0031041
0.00316714
3.40151
0.0064649
2.02986
0.0885377
2.32565
0.026898
0.612925
2.65299
5.08146
2.424
4.13969
3.67638
0.00393572
0.0217948
1.68262
1.69451
7.51699
6.49584
5.42846
0.0662305
5.08035
5.05391
0.498359
1.70204
2.84572
2.08104
0.0034706
4.1672
7.77659
0.00417088
4.41968
1.90088
2.86925
0.0243725
0.0686183
6.26643
0.00599891
7.51092
0.00462937
0.254119
0.0032036
1.00169
2.26097
0.231847
0.00481049
0.00369222
2.68832
1.60932
0.0870166
0.417776
5.90628
4.0427
0.00447139
1.46443
1.6519
3.2327
1.50468
4.15657
1.95336
5.51884
3.27323
0.471289
0.983769
7.41057
1.90315
7.60951
6.0533
0.0310871
3.38191
2.84899
0.00337114
1.78368
1.59563
1.33962
0.017262
4.87463
1.44081
0.704676
1.90601
0.00543944
0.00321589
0.0439654
2.34437
4.68991
2.61036
0.00322191
0.00318701
0.00321839
1.71516
0.0274959
0.00321709
0.125856
4.64646
4.97885
0.0106034
0.0108249
0.00315409
0.00320524
0.00601766
1.75028
1.72407
1.65562
0.460365
7.52857
5.8389
0.00524667
3.474
1.83419
1.938
4.04394
7.36558
0.0034559
0.0105798
0.00324196
3.80589
0.246882
0.0031684
1.38171
0.16406
7.42228
0.00323866
7.69358
1.15636
0.0484856
6.49438
0.00323571
0.0031983
0.0040475
7.70413
3.28454
5.26147
5.00243
1.09411
1.75832
0.00312624
0.00605255
0.0895608
0.0136241
0.0252653
1.94166
2.15129
0.00322703
1.26314
1.83855
6.19728
7.69679
0.0082891
7.65845
0.00594416
0.0305342
3.54885
0.00320483
5.61799
0.0032415
0.00337324
0.0221119
2.12381
0.630235
2.51446
1.8723
0.00365765
1.76401
4.62378
0.0546079
0.219728
0.819871
0.00332082
0.00327202
0.00692214
5.4078
0.524662
0.00335172
7.26971
6.00082
6.66502
0.0330869
2.0466
0.00419745
2.42148
0.164739
0.0921036
2.69355
1.6647
1.87344
6.09086
0.00327604
0.00313206
0.0106159
4.11656
4.53736
0.984175
0.0139669
0.00333177
0.00324309
0.00890301
0.0240688
0.00664072
2.19886
1.76099
0.0115184
1.56353
6.00197
0.00327277
2.38668
0.00321764
0.534257
0.00324486
0.0222489
2.49559
0.020196
0.00320644
0.773103
7.81925
7.18647
0.00318703
0.00326272
0.393924
0.0253127
0.00321749
4.46958
0.00370863
1.67177
7.78866
2.40075
1.67094
2.40683
3.70804
7.53082
0.00323299
0.00741935
0.0148071
4.24564
1.41643
6.43803
0.697905
0.367001
4.32137
3.6032
5.09074
0.755839
2.78106
0.00322355
0.364215
1.64667
2.54893
3.99263
1.93931
0.235071
2.54711
0.102563
0.00923722
1.71867
0.0032435
5.88633
0.00366184
0.371774
7.35945
2.69055
0.572028
0.00743158
0.759551
0.00330388
0.00319243
0.108252
0.0226835
1.7628
0.0155495
1.74308
0.00322204
0.0282119
0.00316531
4.51641
0.00504777
4.12241
2.46837
0.0222032
1.89782
7.57244
0.00326274
1.69752
4.42749
0.00335217
7.32927
0.0620793
0.00347563
0.00339399
7.32102
0.00317849
0.0042963
0.0878473
0.100719
7.10272
7.20652
0.00322128
0.00326776
1.13933
2.32641
0.0146978
0.242997
2.04297
0.00321909
0.00384616
0.00372333
6.01641
7.22787
0.49187
7.24463
0.0263137
1.59643
0.00331865
0.0148968
0.0251024
0.036018
0.0032325
6.93268
0.00320146
0.0252127
0.00331957
0.253314
0.0227401
0.0151132
0.443969
0.685574
2.28081
0.401681
1.08052
1.82079
5.07403
0.00344206
4.9079
7.62613
1.13637
4.02813
0.00327702
4.35028
3.87782
0.00321828
7.42704
2.3336
0.00815872
0.0107268
5.87939
5.70509
0.0606396
7.51923
7.35506
0.80256
7.29479
7.23247
4.96243
1.93796
1.70006
1.02413
7.18658
7.46419
0.0221588
7.4608
2.56943
4.39049
0.00343154
0.340907
0.397183
6.7759
5.8626
0.020358
4.23588
6.40732
0.477118
0.0334712
0.375284
1.81199
0.00537491
1.84867
6.90525
0.0337563
6.7327
1.35464
4.44528
6.31662
0.0032244
0.00564409
1.07047
0.707808
0.0181303
0.00321956
0.186915
0.254243
0.004519
0.00323653
4.19065
1.00622
3.06314
1.01725
0.00868334
0.00417971
0.0951374
3.40226
0.00346843
1.87481
1.66873
0.48117
2.26639
0.00398128
0.115247
0.00320334
0.343242
4.34275
0.00432431
0.118903
2.11095
5.88842
0.225983
4.01837
0.588052
0.171078
0.00392722
2.38939
7.72951
0.00321312
0.00327978
5.63006
0.0246918
0.0032357
3.80455
0.225044
1.91048
2.00491
1.45619
0.147367
1.74636
3.54123
5.8047
4.39369
0.00327928
5.61427
0.0038907
2.64762
0.00339414
0.00452474
2.11921
0.00654418
3.91252
0.0206959
0.040051
1.83037
0.713446
0.0627001
0.00368521
6.2151
0.00365442
0.00315123
7.75134
5.83314
2.84962
1.92492
0.00344097
0.00307964
1.89043
5.61962
0.00319769
6.68256
1.66851
0.00324575
5.98593
0.00311698
0.351097
0.922174
1.3726
0.363538
1.57204
1.9576
0.00311341
7.22001
7.48153
0.00321828
0.0167479
1.924
0.00313002
6.93698
5.56457
4.39692
0.0032204
0.00317026
3.50412
0.0412026
0.00349986
1.83531
1.70089
4.16416
0.00315227
0.00337371
0.0244934
0.0194117
0.00321899
0.00639699
5.204
2.88477
0.00322456
1.34283
0.00321571
0.698383
0.00420021
0.00359623
2.28246
0.00326578
0.123391
0.00317608
2.93032
0.178516
1.71476
6.25223
4.387
3.64195
0.828769
1.24324
0.00323552
0.943676
7.26646
4.03423
0.107642
0.00347481
5.2396
0.00321616
0.0307126
0.00315417
7.13206
0.773287
0.361474
6.37748
2.20647
0.475544
4.17389
0.706217
6.75832
4.55918
0.00331601
0.00326948
0.00826681
0.00322938
0.022956
4.40825
0.00376977
7.08826
0.00603603
0.0776475
0.590874
4.74226
0.00486111
2.73369
0.0168953
3.14318
2.44461
6.92112
0.00339242
0.00383373
0.263199
3.68599
1.69109
3.70491
0.428204
1.03902
1.62936
0.0505082
1.04169
0.245476
1.68107
0.00328031
4.36661
0.419036
3.15459
0.00336571
3.06435
0.968905
0.00458452
1.6158
1.81105
0.0661645
0.00314675
0.00322044
4.88239
2.82616
1.39671
0.00320867
0.0177167
2.00399
6.29319
0.433073
0.0127056
0.00322307
5.50896
5.22985
2.08195
2.66215
0.00321613
3.50871
7.39248
0.00321135
0.00321825
1.23147
0.00410005
0.00993089
0.0299151
1.92659
0.00409604
2.21398
7.59423
0.00320137
0.00345517
0.00316665
0.00330951
3.76342
4.63993
7.72715
0.0291975
2.3818
2.20834
0.0872873
2.91735
0.00347411
1.68623
0.222866
2.07384
0.692473
1.63209
3.07808
0.0264115
0.00323932
5.86687
4.46566
4.65481
0.919299
1.76469
0.175435
1.72247
0.00929996
0.00485319
3.3993
5.50736
0.0217671
0.127354
0.00324813
0.0787802
1.92488
0.0275383
1.02509
0.713687
3.75672
2.13421
0.438859
6.90227
5.46066
2.96254
1.6617
4.19776
3.57398
0.569962
2.68471
0.00611317
2.81849
2.96977
0.00320446
0.00313457
0.124289
0.00322922
0.00332433
3.02629
4.34744
0.00322153
3.25909
0.00321717
0.0031931
0.00321764
0.00325778
0.00594079
1.93094
2.71091
7.04041
0.00315694
0.00390461
0.973806
0.00356302
0.0329555
0.00324577
0.00360949
4.37611
0.00392086
0.0110246
2.77174
0.0105136
0.00322057
3.92593
0.00321574
0.00327013
0.251422
0.00360904
0.938027
0.00456141
0.0304604
0.0032046
0.00325231
7.438
7.58644
2.71292
0.0266056
2.91022
1.58034
0.00471713
1.76597
4.19854
6.88825
4.57874
0.00312768
2.02831
2.5487
0.147664
1.73654
4.49404
0.174144
2.047
0.207437
1.71353
0.0379086
1.02998
0.00323503
6.72892
0.00328676
1.7921
2.49779
0.00321582
0.315074
0.00735166
0.0197288
0.00317357
0.772748
0.00367428
0.00321888
2.52058
0.00874176
0.11134
6.83761
1.89542
0.0034511
0.00386859
2.42243
7.12976
0.00309715
0.00324948
0.0712071
1.34875
5.56288
0.00656917
1.6685
0.00322004
0.00345141
0.00314693
0.0351341
0.985192
0.0101117
6.58149
1.79967
7.11997
6.01339
0.00352759
7.38812
3.75275
0.00317893
0.00322635
0.00321818
0.0044027
0.00320388
3.78052
0.00320844
0.00324353
6.76746
0.329245
0.00780161
0.0221818
1.93926
0.929486
0.00814095
0.00346543
6.26406
0.00324549
0.773461
0.00325865
0.00353287
5.87279
5.84991
0.00877628
0.00350441
0.336369
0.00320703
6.81174
0.00325224
5.58228
0.0257415
0.715772
0.0343678
0.36302
0.362438
1.49508
0.00324303
0.00357607
0.011649
3.2531
0.121155
7.42135
0.00322152
0.00457255
0.00557715
7.0968
2.80961
3.01452
0.0069197
0.00896619
0.210483
0.00322433
1.24869
2.50089
0.0171073
5.9562
6.15591
1.94665
0.00535021
0.39176
2.81631
6.77888
1.79818
0.0187855
3.06235
0.0611916
5.22686
0.0925336
0.526587
2.62128
0.00324368
1.76166
0.0045594
0.0119424
0.00809638
0.0505417
0.00371324
1.29861
0.00322753
3.05246
0.0959949
0.0036111
0.231296
0.00323207
0.286207
0.119053
2.31286
0.455304
4.65302
0.246078
0.00321773
0.00319181
0.744947
0.0928733
2.86145
7.13807
0.00322497
3.84135
2.70938
0.023378
2.0031
0.575224
2.34911
2.14902
0.0336736
0.0059108
7.11788
1.51841
5.86375
0.00321139
1.64472
0.00321684