# Forces     
# CofR       : (0.000000e+00 0.000000e+00 0.000000e+00)
# Time       forces(pressure viscous porous) moment(pressure viscous porous)
1.000169e+00	((1.598060e+02 4.057083e+02 4.245693e+00) (4.615283e+00 -7.342062e-01 9.959804e-04) (0.000000e+00 0.000000e+00 0.000000e+00)) ((-2.115601e+02 8.533242e+01 1.932293e+02) (3.675589e-01 2.405660e+00 1.126646e+00) (0.000000e+00 0.000000e+00 0.000000e+00))
1.000322e+00	((1.215944e+02 3.377563e+02 3.305070e+00) (4.445495e+00 -7.114381e-01 8.797569e-04) (0.000000e+00 0.000000e+00 0.000000e+00)) ((-1.752645e+02 6.505687e+01 1.543547e+02) (3.596496e-01 2.581205e+00 1.086064e+00) (0.000000e+00 0.000000e+00 0.000000e+00))
1.000519e+00	((1.085153e+02 3.183883e+02 2.990636e+00) (4.221067e+00 -6.605606e-01 8.769807e-04) (0.000000e+00 0.000000e+00 0.000000e+00)) ((-1.649587e+02 5.819460e+01 1.420527e+02) (3.347360e-01 2.468821e+00 1.034679e+00) (0.000000e+00 0.000000e+00 0.000000e+00))
1.000721e+00	((1.033101e+02 3.115818e+02 2.991111e+00) (4.138155e+00 -6.317834e-01 9.445190e-04) (0.000000e+00 0.000000e+00 0.000000e+00)) ((-1.613985e+02 5.547649e+01 1.370657e+02) (3.208267e-01 2.427092e+00 1.019501e+00) (0.000000e+00 0.000000e+00 0.000000e+00))
1.000918e+00	((1.001123e+02 3.069319e+02 2.877786e+00) (4.097245e+00 -6.198765e-01 1.056655e-03) (0.000000e+00 0.000000e+00 0.000000e+00)) ((-1.588582e+02 5.382253e+01 1.338560e+02) (3.152751e-01 2.406356e+00 1.011301e+00) (0.000000e+00 0.000000e+00 0.000000e+00))
1.001114e+00	((9.746608e+01 3.023765e+02 2.759702e+00) (4.076801e+00 -6.189857e-01 1.192322e-03) (0.000000e+00 0.000000e+00 0.000000e+00)) ((-1.564520e+02 5.248344e+01 1.310476e+02) (3.151737e-01 2.395821e+00 1.005067e+00) (0.000000e+00 0.000000e+00 0.000000e+00))
1.001309e+00	((9.560220e+01 2.986928e+02 2.695128e+00) (4.067479e+00 -6.245185e-01 1.339174e-03) (0.000000e+00 0.000000e+00 0.000000e+00)) ((-1.544581e+02 5.151621e+01 1.288175e+02) (3.182577e-01 2.390851e+00 9.995529e-01) (0.000000e+00 0.000000e+00 0.000000e+00))
1.001505e+00	((9.400984e+01 2.951593e+02 2.662623e+00) (4.065508e+00 -6.342160e-01 1.494877e-03) (0.000000e+00 0.000000e+00 0.000000e+00)) ((-1.526242e+02 5.071024e+01 1.267456e+02) (3.234030e-01 2.389530e+00 9.945479e-01) (0.000000e+00 0.000000e+00 0.000000e+00))
1.001703e+00	((9.254942e+01 2.915542e+02 2.671380e+00) (4.069181e+00 -6.469324e-01 1.655736e-03) (0.000000e+00 0.000000e+00 0.000000e+00)) ((-1.507260e+02 4.993307e+01 1.247120e+02) (3.300454e-01 2.391025e+00 9.900041e-01) (0.000000e+00 0.000000e+00 0.000000e+00))
1.001903e+00	((9.131863e+01 2.882359e+02 2.643441e+00) (4.077213e+00 -6.616083e-01 1.821601e-03) (0.000000e+00 0.000000e+00 0.000000e+00)) ((-1.490118e+02 4.931526e+01 1.229046e+02) (3.376540e-01 2.394679e+00 9.859813e-01) (0.000000e+00 0.000000e+00 0.000000e+00))
1.002105e+00	((9.009695e+01 2.848052e+02 2.601998e+00) (4.088304e+00 -6.778475e-01 1.992820e-03) (0.000000e+00 0.000000e+00 0.000000e+00)) ((-1.471961e+02 4.868793e+01 1.210752e+02) (3.460366e-01 2.399863e+00 9.822254e-01) (0.000000e+00 0.000000e+00 0.000000e+00))
1.002310e+00	((8.889680e+01 2.813243e+02 2.603864e+00) (4.101346e+00 -6.952300e-01 2.170296e-03) (0.000000e+00 0.000000e+00 0.000000e+00)) ((-1.453991e+02 4.806599e+01 1.192300e+02) (3.549815e-01 2.406008e+00 9.785739e-01) (0.000000e+00 0.000000e+00 0.000000e+00))
1.002518e+00	((8.772008e+01 2.779320e+02 2.595823e+00) (4.115483e+00 -7.133322e-01 2.354845e-03) (0.000000e+00 0.000000e+00 0.000000e+00)) ((-1.436300e+02 4.745886e+01 1.174200e+02) (3.642800e-01 2.412703e+00 9.749535e-01) (0.000000e+00 0.000000e+00 0.000000e+00))
1.002729e+00	((8.651551e+01 2.745067e+02 2.586063e+00) (4.130153e+00 -7.318221e-01 2.547724e-03) (0.000000e+00 0.000000e+00 0.000000e+00)) ((-1.418543e+02 4.684207e+01 1.155847e+02) (3.737640e-01 2.419651e+00 9.713211e-01) (0.000000e+00 0.000000e+00 0.000000e+00))
1.002944e+00	((8.532883e+01 2.711424e+02 2.603423e+00) (4.144893e+00 -7.504651e-01 2.762971e-03) (0.000000e+00 0.000000e+00 0.000000e+00)) ((-1.401140e+02 4.621630e+01 1.137560e+02) (3.833094e-01 2.426627e+00 9.676075e-01) (0.000000e+00 0.000000e+00 0.000000e+00))
1.003161e+00	((8.416113e+01 2.678495e+02 2.576990e+00) (4.159363e+00 -7.691497e-01 2.987008e-03) (0.000000e+00 0.000000e+00 0.000000e+00)) ((-1.384083e+02 4.562366e+01 1.119881e+02) (3.928677e-01 2.433463e+00 9.637302e-01) (0.000000e+00 0.000000e+00 0.000000e+00))
1.003382e+00	((8.307834e+01 2.647190e+02 2.575090e+00) (4.173235e+00 -7.877442e-01 3.216903e-03) (0.000000e+00 0.000000e+00 0.000000e+00)) ((-1.367767e+02 4.506052e+01 1.103184e+02) (4.023788e-01 2.440004e+00 9.596182e-01) (0.000000e+00 0.000000e+00 0.000000e+00))
1.003606e+00	((8.216899e+01 2.619036e+02 2.533034e+00) (4.186213e+00 -8.060717e-01 3.453516e-03) (0.000000e+00 0.000000e+00 0.000000e+00)) ((-1.353147e+02 4.461408e+01 1.088726e+02) (4.117530e-01 2.446094e+00 9.552563e-01) (0.000000e+00 0.000000e+00 0.000000e+00))
1.003834e+00	((8.141654e+01 2.594077e+02 2.531715e+00) (4.198002e+00 -8.238457e-01 3.699329e-03) (0.000000e+00 0.000000e+00 0.000000e+00)) ((-1.340167e+02 4.422830e+01 1.076102e+02) (4.208478e-01 2.451597e+00 9.506732e-01) (0.000000e+00 0.000000e+00 0.000000e+00))
1.004064e+00	((8.077687e+01 2.571296e+02 2.512600e+00) (4.208345e+00 -8.406903e-01 3.953629e-03) (0.000000e+00 0.000000e+00 0.000000e+00)) ((-1.328269e+02 4.391288e+01 1.065050e+02) (4.294758e-01 2.456376e+00 9.459630e-01) (0.000000e+00 0.000000e+00 0.000000e+00))
1.004298e+00	((8.012937e+01 2.548915e+02 2.535920e+00) (4.217046e+00 -8.562961e-01 4.214788e-03) (0.000000e+00 0.000000e+00 0.000000e+00)) ((-1.316765e+02 4.357989e+01 1.053920e+02) (4.374827e-01 2.460343e+00 9.412058e-01) (0.000000e+00 0.000000e+00 0.000000e+00))
1.004535e+00	((7.950550e+01 2.528098e+02 2.490806e+00) (4.224086e+00 -8.705232e-01 4.481342e-03) (0.000000e+00 0.000000e+00 0.000000e+00)) ((-1.305914e+02 4.329369e+01 1.043576e+02) (4.447968e-01 2.463480e+00 9.364673e-01) (0.000000e+00 0.000000e+00 0.000000e+00))
1.004775e+00	((7.874801e+01 2.505598e+02 2.485819e+00) (4.229483e+00 -8.833725e-01 4.753397e-03) (0.000000e+00 0.000000e+00 0.000000e+00)) ((-1.294208e+02 4.291426e+01 1.031919e+02) (4.514200e-01 2.465808e+00 9.317550e-01) (0.000000e+00 0.000000e+00 0.000000e+00))
1.005018e+00	((7.789817e+01 2.481772e+02 2.452766e+00) (4.233255e+00 -8.948984e-01 5.030515e-03) (0.000000e+00 0.000000e+00 0.000000e+00)) ((-1.281939e+02 4.249721e+01 1.019465e+02) (4.573788e-01 2.467328e+00 9.270349e-01) (0.000000e+00 0.000000e+00 0.000000e+00))
1.005264e+00	((7.703520e+01 2.459458e+02 2.463341e+00) (4.235460e+00 -9.050949e-01 5.313570e-03) (0.000000e+00 0.000000e+00 0.000000e+00)) ((-1.270465e+02 4.206478e+01 1.007174e+02) (4.626728e-01 2.468071e+00 9.223287e-01) (0.000000e+00 0.000000e+00 0.000000e+00))
1.005513e+00	((7.613819e+01 2.437132e+02 2.417885e+00) (4.235909e+00 -9.138653e-01 5.602494e-03) (0.000000e+00 0.000000e+00 0.000000e+00)) ((-1.258815e+02 4.162198e+01 9.949254e+01) (4.672557e-01 2.467947e+00 9.176197e-01) (0.000000e+00 0.000000e+00 0.000000e+00))
1.005765e+00	((7.532607e+01 2.417115e+02 2.423048e+00) (4.234349e+00 -9.210332e-01 5.897490e-03) (0.000000e+00 0.000000e+00 0.000000e+00)) ((-1.248560e+02 4.121749e+01 9.835520e+01) (4.710404e-01 2.466836e+00 9.128862e-01) (0.000000e+00 0.000000e+00 0.000000e+00))
1.006020e+00	((7.447973e+01 2.396835e+02 2.408407e+00) (4.230520e+00 -9.263784e-01 6.196725e-03) (0.000000e+00 0.000000e+00 0.000000e+00)) ((-1.238201e+02 4.080485e+01 9.722021e+01) (4.739196e-01 2.464600e+00 9.081308e-01) (0.000000e+00 0.000000e+00 0.000000e+00))
1.006277e+00	((7.360363e+01 2.376406e+02 2.401394e+00) (4.224235e+00 -9.297428e-01 6.498602e-03) (0.000000e+00 0.000000e+00 0.000000e+00)) ((-1.227731e+02 4.036830e+01 9.607145e+01) (4.758162e-01 2.461150e+00 9.033516e-01) (0.000000e+00 0.000000e+00 0.000000e+00))
1.006537e+00	((7.270287e+01 2.356193e+02 2.385277e+00) (4.215430e+00 -9.310763e-01 6.802452e-03) (0.000000e+00 0.000000e+00 0.000000e+00)) ((-1.217199e+02 3.991961e+01 9.491872e+01) (4.767058e-01 2.456464e+00 8.985516e-01) (0.000000e+00 0.000000e+00 0.000000e+00))
1.006799e+00	((7.174042e+01 2.335476e+02 2.346861e+00) (4.204242e+00 -9.304570e-01 7.107681e-03) (0.000000e+00 0.000000e+00 0.000000e+00)) ((-1.206544e+02 3.945175e+01 9.372585e+01) (4.766241e-01 2.450605e+00 8.937484e-01) (0.000000e+00 0.000000e+00 0.000000e+00))
1.007062e+00	((7.070452e+01 2.313871e+02 2.330402e+00) (4.190923e+00 -9.280449e-01 7.413394e-03) (0.000000e+00 0.000000e+00 0.000000e+00)) ((-1.195602e+02 3.894412e+01 9.247240e+01) (4.756516e-01 2.443690e+00 8.889762e-01) (0.000000e+00 0.000000e+00 0.000000e+00))
1.007327e+00	((6.970019e+01 2.293437e+02 2.298053e+00) (4.175748e+00 -9.240473e-01 7.719562e-03) (0.000000e+00 0.000000e+00 0.000000e+00)) ((-1.185022e+02 3.844810e+01 9.126530e+01) (4.738924e-01 2.435861e+00 8.842465e-01) (0.000000e+00 0.000000e+00 0.000000e+00))
1.007592e+00	((6.867423e+01 2.272753e+02 2.270800e+00) (4.158970e+00 -9.186921e-01 8.026763e-03) (0.000000e+00 0.000000e+00 0.000000e+00)) ((-1.174294e+02 3.793323e+01 9.006739e+01) (4.714582e-01 2.427255e+00 8.795510e-01) (0.000000e+00 0.000000e+00 0.000000e+00))
1.007859e+00	((6.773947e+01 2.254162e+02 2.247133e+00) (4.140890e+00 -9.122105e-01 8.332643e-03) (0.000000e+00 0.000000e+00 0.000000e+00)) ((-1.164872e+02 3.747424e+01 8.896877e+01) (4.684649e-01 2.418009e+00 8.748968e-01) (0.000000e+00 0.000000e+00 0.000000e+00))
1.008127e+00	((6.690341e+01 2.237821e+02 2.252555e+00) (4.121726e+00 -9.048109e-01 8.636621e-03) (0.000000e+00 0.000000e+00 0.000000e+00)) ((-1.156618e+02 3.705273e+01 8.798606e+01) (4.650176e-01 2.408234e+00 8.702714e-01) (0.000000e+00 0.000000e+00 0.000000e+00))
1.008395e+00	((6.613575e+01 2.222738e+02 2.251297e+00) (4.101663e+00 -8.966871e-01 8.938601e-03) (0.000000e+00 0.000000e+00 0.000000e+00)) ((-1.148936e+02 3.666529e+01 8.708261e+01) (4.612127e-01 2.398023e+00 8.656555e-01) (0.000000e+00 0.000000e+00 0.000000e+00))
1.008665e+00	((6.544928e+01 2.209354e+02 2.254041e+00) (4.080878e+00 -8.880122e-01 9.237469e-03) (0.000000e+00 0.000000e+00 0.000000e+00)) ((-1.142237e+02 3.632343e+01 8.627140e+01) (4.571360e-01 2.387469e+00 8.610381e-01) (0.000000e+00 0.000000e+00 0.000000e+00))
1.008936e+00	((6.478454e+01 2.196305e+02 2.271210e+00) (4.059592e+00 -8.789616e-01 9.533952e-03) (0.000000e+00 0.000000e+00 0.000000e+00)) ((-1.135800e+02 3.598852e+01 8.548401e+01) (4.528729e-01 2.376671e+00 8.564197e-01) (0.000000e+00 0.000000e+00 0.000000e+00))
1.009207e+00	((6.419035e+01 2.184866e+02 2.287950e+00) (4.038036e+00 -8.697133e-01 9.828362e-03) (0.000000e+00 0.000000e+00 0.000000e+00)) ((-1.130134e+02 3.568804e+01 8.478217e+01) (4.485119e-01 2.365743e+00 8.518076e-01) (0.000000e+00 0.000000e+00 0.000000e+00))
1.009479e+00	((6.360866e+01 2.173735e+02 2.310143e+00) (4.016430e+00 -8.604281e-01 1.012042e-02) (0.000000e+00 0.000000e+00 0.000000e+00)) ((-1.124657e+02 3.539229e+01 8.409487e+01) (4.441316e-01 2.354797e+00 8.472145e-01) (0.000000e+00 0.000000e+00 0.000000e+00))
1.009752e+00	((6.306401e+01 2.163442e+02 2.319610e+00) (3.995004e+00 -8.512581e-01 1.041069e-02) (0.000000e+00 0.000000e+00 0.000000e+00)) ((-1.119571e+02 3.511873e+01 8.345341e+01) (4.398062e-01 2.343950e+00 8.426546e-01) (0.000000e+00 0.000000e+00 0.000000e+00))
1.010026e+00	((6.252060e+01 2.153382e+02 2.345964e+00) (3.973964e+00 -8.423180e-01 1.069827e-02) (0.000000e+00 0.000000e+00 0.000000e+00)) ((-1.114703e+02 3.484004e+01 8.281621e+01) (4.355923e-01 2.333294e+00 8.381510e-01) (0.000000e+00 0.000000e+00 0.000000e+00))
1.010300e+00	((6.200930e+01 2.144080e+02 2.382200e+00) (3.953474e+00 -8.336845e-01 1.098321e-02) (0.000000e+00 0.000000e+00 0.000000e+00)) ((-1.110296e+02 3.457470e+01 8.221689e+01) (4.315293e-01 2.322918e+00 8.337267e-01) (0.000000e+00 0.000000e+00 0.000000e+00))
1.010576e+00	((6.151717e+01 2.135378e+02 2.409760e+00) (3.933632e+00 -8.253948e-01 1.126620e-02) (0.000000e+00 0.000000e+00 0.000000e+00)) ((-1.106103e+02 3.431822e+01 8.164839e+01) (4.276338e-01 2.312871e+00 8.293954e-01) (0.000000e+00 0.000000e+00 0.000000e+00))
1.010851e+00	((6.107171e+01 2.127687e+02 2.441254e+00) (3.914509e+00 -8.174641e-01 1.154610e-02) (0.000000e+00 0.000000e+00 0.000000e+00)) ((-1.102364e+02 3.408427e+01 8.112824e+01) (4.239140e-01 2.303186e+00 8.251741e-01) (0.000000e+00 0.000000e+00 0.000000e+00))
1.011127e+00	((6.063857e+01 2.120313e+02 2.494144e+00) (3.896145e+00 -8.098838e-01 1.182312e-02) (0.000000e+00 0.000000e+00 0.000000e+00)) ((-1.099135e+02 3.385343e+01 8.061635e+01) (4.203649e-01 2.293881e+00 8.210745e-01) (0.000000e+00 0.000000e+00 0.000000e+00))
1.011404e+00	((6.023804e+01 2.113710e+02 2.541381e+00) (3.878570e+00 -8.026382e-01 1.209681e-02) (0.000000e+00 0.000000e+00 0.000000e+00)) ((-1.096089e+02 3.363560e+01 8.015024e+01) (4.169783e-01 2.284977e+00 8.171137e-01) (0.000000e+00 0.000000e+00 0.000000e+00))
1.011681e+00	((5.984700e+01 2.107411e+02 2.586268e+00) (3.861777e+00 -7.957064e-01 1.236761e-02) (0.000000e+00 0.000000e+00 0.000000e+00)) ((-1.093202e+02 3.342345e+01 7.969752e+01) (4.137429e-01 2.276465e+00 8.132966e-01) (0.000000e+00 0.000000e+00 0.000000e+00))
1.011959e+00	((5.947944e+01 2.101603e+02 2.639319e+00) (3.845759e+00 -7.890738e-01 1.263447e-02) (0.000000e+00 0.000000e+00 0.000000e+00)) ((-1.090646e+02 3.322307e+01 7.927175e+01) (4.106524e-01 2.268345e+00 8.096275e-01) (0.000000e+00 0.000000e+00 0.000000e+00))
1.012237e+00	((5.912998e+01 2.096198e+02 2.690446e+00) (3.830505e+00 -7.827304e-01 1.289852e-02) (0.000000e+00 0.000000e+00 0.000000e+00)) ((-1.088306e+02 3.303248e+01 7.886775e+01) (4.077007e-01 2.260609e+00 8.061051e-01) (0.000000e+00 0.000000e+00 0.000000e+00))
1.012516e+00	((5.879480e+01 2.091136e+02 2.756075e+00) (3.815997e+00 -7.766663e-01 1.315969e-02) (0.000000e+00 0.000000e+00 0.000000e+00)) ((-1.086087e+02 3.284027e+01 7.848116e+01) (4.048827e-01 2.253249e+00 8.027270e-01) (0.000000e+00 0.000000e+00 0.000000e+00))
1.012795e+00	((5.846888e+01 2.086287e+02 2.819014e+00) (3.802216e+00 -7.708769e-01 1.341742e-02) (0.000000e+00 0.000000e+00 0.000000e+00)) ((-1.084089e+02 3.265696e+01 7.810421e+01) (4.021956e-01 2.246253e+00 7.994875e-01) (0.000000e+00 0.000000e+00 0.000000e+00))
1.013074e+00	((5.815400e+01 2.081751e+02 2.876933e+00) (3.789140e+00 -7.653554e-01 1.367306e-02) (0.000000e+00 0.000000e+00 0.000000e+00)) ((-1.082189e+02 3.248273e+01 7.774847e+01) (3.996355e-01 2.239612e+00 7.963825e-01) (0.000000e+00 0.000000e+00 0.000000e+00))
1.013354e+00	((5.783876e+01 2.077243e+02 2.928176e+00) (3.776751e+00 -7.600965e-01 1.392639e-02) (0.000000e+00 0.000000e+00 0.000000e+00)) ((-1.080294e+02 3.230767e+01 7.739292e+01) (3.971990e-01 2.233316e+00 7.934090e-01) (0.000000e+00 0.000000e+00 0.000000e+00))
1.013634e+00	((5.753378e+01 2.072959e+02 2.992344e+00) (3.765015e+00 -7.550959e-01 1.417601e-02) (0.000000e+00 0.000000e+00 0.000000e+00)) ((-1.078515e+02 3.213415e+01 7.705072e+01) (3.948843e-01 2.227348e+00 7.905569e-01) (0.000000e+00 0.000000e+00 0.000000e+00))
1.013914e+00	((5.723232e+01 2.068776e+02 3.060858e+00) (3.753893e+00 -7.503438e-01 1.442319e-02) (0.000000e+00 0.000000e+00 0.000000e+00)) ((-1.076874e+02 3.196189e+01 7.671358e+01) (3.926865e-01 2.221687e+00 7.878174e-01) (0.000000e+00 0.000000e+00 0.000000e+00))
1.014194e+00	((5.694562e+01 2.064952e+02 3.125018e+00) (3.743333e+00 -7.458218e-01 1.466823e-02) (0.000000e+00 0.000000e+00 0.000000e+00)) ((-1.075312e+02 3.179800e+01 7.639493e+01) (3.905964e-01 2.216312e+00 7.851795e-01) (0.000000e+00 0.000000e+00 0.000000e+00))
1.014475e+00	((5.665724e+01 2.061097e+02 3.181912e+00) (3.733305e+00 -7.415131e-01 1.491083e-02) (0.000000e+00 0.000000e+00 0.000000e+00)) ((-1.073759e+02 3.163660e+01 7.607826e+01) (3.886057e-01 2.211202e+00 7.826396e-01) (0.000000e+00 0.000000e+00 0.000000e+00))
1.014756e+00	((5.637409e+01 2.057360e+02 3.237881e+00) (3.723752e+00 -7.373919e-01 1.515124e-02) (0.000000e+00 0.000000e+00 0.000000e+00)) ((-1.072245e+02 3.147851e+01 7.577013e+01) (3.867025e-01 2.206334e+00 7.801902e-01) (0.000000e+00 0.000000e+00 0.000000e+00))
1.015037e+00	((5.610639e+01 2.053972e+02 3.294827e+00) (3.714635e+00 -7.334388e-01 1.538973e-02) (0.000000e+00 0.000000e+00 0.000000e+00)) ((-1.070898e+02 3.132871e+01 7.547885e+01) (3.848766e-01 2.201686e+00 7.778255e-01) (0.000000e+00 0.000000e+00 0.000000e+00))
1.015318e+00	((5.584616e+01 2.050718e+02 3.344017e+00) (3.705905e+00 -7.296303e-01 1.562606e-02) (0.000000e+00 0.000000e+00 0.000000e+00)) ((-1.069581e+02 3.118545e+01 7.519949e+01) (3.831174e-01 2.197235e+00 7.755392e-01) (0.000000e+00 0.000000e+00 0.000000e+00))
1.015600e+00	((5.559739e+01 2.047705e+02 3.393439e+00) (3.697522e+00 -7.259442e-01 1.586130e-02) (0.000000e+00 0.000000e+00 0.000000e+00)) ((-1.068410e+02 3.104926e+01 7.493284e+01) (3.814138e-01 2.192959e+00 7.733254e-01) (0.000000e+00 0.000000e+00 0.000000e+00))
1.015881e+00	((5.535814e+01 2.044885e+02 3.450392e+00) (3.689458e+00 -7.223701e-01 1.609514e-02) (0.000000e+00 0.000000e+00 0.000000e+00)) ((-1.067325e+02 3.091303e+01 7.467840e+01) (3.797611e-01 2.188846e+00 7.711808e-01) (0.000000e+00 0.000000e+00 0.000000e+00))
1.016163e+00	((5.511773e+01 2.041998e+02 3.510237e+00) (3.681679e+00 -7.188994e-01 1.632746e-02) (0.000000e+00 0.000000e+00 0.000000e+00)) ((-1.066236e+02 3.077820e+01 7.441887e+01) (3.781556e-01 2.184877e+00 7.690978e-01) (0.000000e+00 0.000000e+00 0.000000e+00))
1.016445e+00	((5.489434e+01 2.039497e+02 3.559407e+00) (3.674168e+00 -7.155202e-01 1.655900e-02) (0.000000e+00 0.000000e+00 0.000000e+00)) ((-1.065300e+02 3.065383e+01 7.418454e+01) (3.765912e-01 2.181044e+00 7.670740e-01) (0.000000e+00 0.000000e+00 0.000000e+00))
1.016727e+00	((5.468155e+01 2.037209e+02 3.605066e+00) (3.666915e+00 -7.122325e-01 1.678891e-02) (0.000000e+00 0.000000e+00 0.000000e+00)) ((-1.064442e+02 3.053622e+01 7.396137e+01) (3.750681e-01 2.177340e+00 7.651069e-01) (0.000000e+00 0.000000e+00 0.000000e+00))
1.017009e+00	((5.447126e+01 2.034956e+02 3.665014e+00) (3.659906e+00 -7.090358e-01 1.701767e-02) (0.000000e+00 0.000000e+00 0.000000e+00)) ((-1.063660e+02 3.041563e+01 7.373869e+01) (3.735865e-01 2.173760e+00 7.631913e-01) (0.000000e+00 0.000000e+00 0.000000e+00))
1.017291e+00	((5.427225e+01 2.032902e+02 3.715874e+00) (3.653135e+00 -7.059310e-01 1.724597e-02) (0.000000e+00 0.000000e+00 0.000000e+00)) ((-1.062946e+02 3.030384e+01 7.352867e+01) (3.721465e-01 2.170300e+00 7.613249e-01) (0.000000e+00 0.000000e+00 0.000000e+00))
1.017573e+00	((5.407601e+01 2.030939e+02 3.766705e+00) (3.646593e+00 -7.029179e-01 1.747347e-02) (0.000000e+00 0.000000e+00 0.000000e+00)) ((-1.062250e+02 3.019394e+01 7.332370e+01) (3.707485e-01 2.166956e+00 7.595043e-01) (0.000000e+00 0.000000e+00 0.000000e+00))
1.017855e+00	((5.388116e+01 2.028972e+02 3.823845e+00) (3.640276e+00 -6.999988e-01 1.770018e-02) (0.000000e+00 0.000000e+00 0.000000e+00)) ((-1.061597e+02 3.008182e+01 7.311839e+01) (3.693934e-01 2.163724e+00 7.577263e-01) (0.000000e+00 0.000000e+00 0.000000e+00))
1.018137e+00	((5.369911e+01 2.027258e+02 3.878967e+00) (3.634179e+00 -6.971745e-01 1.792630e-02) (0.000000e+00 0.000000e+00 0.000000e+00)) ((-1.061065e+02 2.997719e+01 7.292774e+01) (3.680814e-01 2.160602e+00 7.559900e-01) (0.000000e+00 0.000000e+00 0.000000e+00))
1.018419e+00	((5.352418e+01 2.025677e+02 3.930528e+00) (3.628293e+00 -6.944432e-01 1.815208e-02) (0.000000e+00 0.000000e+00 0.000000e+00)) ((-1.060555e+02 2.987621e+01 7.274603e+01) (3.668115e-01 2.157587e+00 7.542923e-01) (0.000000e+00 0.000000e+00 0.000000e+00))
1.018700e+00	((5.335445e+01 2.024214e+02 3.988309e+00) (3.622616e+00 -6.918019e-01 1.837674e-02) (0.000000e+00 0.000000e+00 0.000000e+00)) ((-1.060155e+02 2.977613e+01 7.256854e+01) (3.655825e-01 2.154676e+00 7.526332e-01) (0.000000e+00 0.000000e+00 0.000000e+00))
1.018982e+00	((5.318317e+01 2.022674e+02 4.048753e+00) (3.617133e+00 -6.892499e-01 1.860077e-02) (0.000000e+00 0.000000e+00 0.000000e+00)) ((-1.059708e+02 2.967410e+01 7.238887e+01) (3.643937e-01 2.151861e+00 7.510085e-01) (0.000000e+00 0.000000e+00 0.000000e+00))
1.019264e+00	((5.302321e+01 2.021382e+02 4.099461e+00) (3.611841e+00 -6.867826e-01 1.882477e-02) (0.000000e+00 0.000000e+00 0.000000e+00)) ((-1.059346e+02 2.958146e+01 7.222335e+01) (3.632423e-01 2.149143e+00 7.494183e-01) (0.000000e+00 0.000000e+00 0.000000e+00))
1.019546e+00	((5.286277e+01 2.020088e+02 4.164742e+00) (3.606732e+00 -6.843949e-01 1.904759e-02) (0.000000e+00 0.000000e+00 0.000000e+00)) ((-1.059019e+02 2.948261e+01 7.205604e+01) (3.621261e-01 2.146516e+00 7.478620e-01) (0.000000e+00 0.000000e+00 0.000000e+00))
1.019828e+00	((5.270968e+01 2.018906e+02 4.220917e+00) (3.601797e+00 -6.820841e-01 1.926983e-02) (0.000000e+00 0.000000e+00 0.000000e+00)) ((-1.058730e+02 2.939119e+01 7.189797e+01) (3.610435e-01 2.143976e+00 7.463384e-01) (0.000000e+00 0.000000e+00 0.000000e+00))
1.020110e+00	((5.256459e+01 2.017864e+02 4.284554e+00) (3.597027e+00 -6.798452e-01 1.949138e-02) (0.000000e+00 0.000000e+00 0.000000e+00)) ((-1.058515e+02 2.929940e+01 7.174768e+01) (3.599917e-01 2.141519e+00 7.448468e-01) (0.000000e+00 0.000000e+00 0.000000e+00))
1.020392e+00	((5.241337e+01 2.016675e+02 4.351445e+00) (3.592408e+00 -6.776738e-01 1.971259e-02) (0.000000e+00 0.000000e+00 0.000000e+00)) ((-1.058231e+02 2.920444e+01 7.158856e+01) (3.589686e-01 2.139137e+00 7.433834e-01) (0.000000e+00 0.000000e+00 0.000000e+00))
1.020674e+00	((5.227074e+01 2.015680e+02 4.414787e+00) (3.587934e+00 -6.755656e-01 1.993379e-02) (0.000000e+00 0.000000e+00 0.000000e+00)) ((-1.058051e+02 2.911442e+01 7.144137e+01) (3.579718e-01 2.136828e+00 7.419485e-01) (0.000000e+00 0.000000e+00 0.000000e+00))
1.020956e+00	((5.213105e+01 2.014719e+02 4.477491e+00) (3.583600e+00 -6.735153e-01 2.015415e-02) (0.000000e+00 0.000000e+00 0.000000e+00)) ((-1.057901e+02 2.902638e+01 7.129691e+01) (3.569986e-01 2.134589e+00 7.405426e-01) (0.000000e+00 0.000000e+00 0.000000e+00))
1.021238e+00	((5.199808e+01 2.013894e+02 4.543722e+00) (3.579398e+00 -6.715164e-01 2.037374e-02) (0.000000e+00 0.000000e+00 0.000000e+00)) ((-1.057800e+02 2.894102e+01 7.115817e+01) (3.560453e-01 2.132416e+00 7.391631e-01) (0.000000e+00 0.000000e+00 0.000000e+00))
1.021520e+00	((5.186914e+01 2.013164e+02 4.609060e+00) (3.575323e+00 -6.695660e-01 2.059273e-02) (0.000000e+00 0.000000e+00 0.000000e+00)) ((-1.057735e+02 2.885743e+01 7.102588e+01) (3.551108e-01 2.130307e+00 7.378121e-01) (0.000000e+00 0.000000e+00 0.000000e+00))
1.021802e+00	((5.174069e+01 2.012405e+02 4.667961e+00) (3.571366e+00 -6.676608e-01 2.081103e-02) (0.000000e+00 0.000000e+00 0.000000e+00)) ((-1.057634e+02 2.877646e+01 7.089424e+01) (3.541936e-01 2.128256e+00 7.364876e-01) (0.000000e+00 0.000000e+00 0.000000e+00))
1.022084e+00	((5.161455e+01 2.011697e+02 4.738702e+00) (3.567523e+00 -6.657985e-01 2.102858e-02) (0.000000e+00 0.000000e+00 0.000000e+00)) ((-1.057590e+02 2.869083e+01 7.076476e+01) (3.532923e-01 2.126263e+00 7.351895e-01) (0.000000e+00 0.000000e+00 0.000000e+00))
1.022366e+00	((5.149157e+01 2.011038e+02 4.804345e+00) (3.563787e+00 -6.639763e-01 2.124534e-02) (0.000000e+00 0.000000e+00 0.000000e+00)) ((-1.057551e+02 2.860957e+01 7.063915e+01) (3.524059e-01 2.124323e+00 7.339166e-01) (0.000000e+00 0.000000e+00 0.000000e+00))
1.022648e+00	((5.137445e+01 2.010480e+02 4.865792e+00) (3.560154e+00 -6.621921e-01 2.146111e-02) (0.000000e+00 0.000000e+00 0.000000e+00)) ((-1.057552e+02 2.853335e+01 7.052101e+01) (3.515332e-01 2.122435e+00 7.326690e-01) (0.000000e+00 0.000000e+00 0.000000e+00))
1.022930e+00	((5.125959e+01 2.009945e+02 4.925525e+00) (3.556624e+00 -6.604465e-01 2.167548e-02) (0.000000e+00 0.000000e+00 0.000000e+00)) ((-1.057550e+02 2.845798e+01 7.040507e+01) (3.506750e-01 2.120598e+00 7.314475e-01) (0.000000e+00 0.000000e+00 0.000000e+00))
1.023211e+00	((5.114409e+01 2.009412e+02 4.979553e+00) (3.553190e+00 -6.587347e-01 2.188895e-02) (0.000000e+00 0.000000e+00 0.000000e+00)) ((-1.057494e+02 2.838390e+01 7.028934e+01) (3.498289e-01 2.118809e+00 7.302501e-01) (0.000000e+00 0.000000e+00 0.000000e+00))
1.023492e+00	((5.103536e+01 2.009015e+02 5.069480e+00) (3.549845e+00 -6.570530e-01 2.210075e-02) (0.000000e+00 0.000000e+00 0.000000e+00)) ((-1.057711e+02 2.829852e+01 7.017840e+01) (3.489931e-01 2.117065e+00 7.290750e-01) (0.000000e+00 0.000000e+00 0.000000e+00))
1.023774e+00	((5.092602e+01 2.008584e+02 5.136554e+00) (3.546581e+00 -6.553990e-01 2.231229e-02) (0.000000e+00 0.000000e+00 0.000000e+00)) ((-1.057787e+02 2.822240e+01 7.006763e+01) (3.481662e-01 2.115360e+00 7.279193e-01) (0.000000e+00 0.000000e+00 0.000000e+00))
1.024055e+00	((5.081956e+01 2.008195e+02 5.201388e+00) (3.543399e+00 -6.537728e-01 2.252296e-02) (0.000000e+00 0.000000e+00 0.000000e+00)) ((-1.057864e+02 2.814843e+01 6.996087e+01) (3.473485e-01 2.113697e+00 7.267849e-01) (0.000000e+00 0.000000e+00 0.000000e+00))
1.024337e+00	((5.071485e+01 2.007847e+02 5.266164e+00) (3.540294e+00 -6.521734e-01 2.273261e-02) (0.000000e+00 0.000000e+00 0.000000e+00)) ((-1.057965e+02 2.807492e+01 6.985647e+01) (3.465398e-01 2.112071e+00 7.256708e-01) (0.000000e+00 0.000000e+00 0.000000e+00))
1.024618e+00	((5.061063e+01 2.007498e+02 5.333039e+00) (3.537263e+00 -6.505999e-01 2.294124e-02) (0.000000e+00 0.000000e+00 0.000000e+00)) ((-1.058073e+02 2.800127e+01 6.975151e+01) (3.457396e-01 2.110483e+00 7.245761e-01) (0.000000e+00 0.000000e+00 0.000000e+00))
1.024899e+00	((5.051031e+01 2.007191e+02 5.403445e+00) (3.534306e+00 -6.490531e-01 2.314824e-02) (0.000000e+00 0.000000e+00 0.000000e+00)) ((-1.058218e+02 2.792735e+01 6.965175e+01) (3.449483e-01 2.108930e+00 7.235014e-01) (0.000000e+00 0.000000e+00 0.000000e+00))
1.025180e+00	((5.041074e+01 2.006905e+02 5.474025e+00) (3.531418e+00 -6.475315e-01 2.335383e-02) (0.000000e+00 0.000000e+00 0.000000e+00)) ((-1.058354e+02 2.785365e+01 6.955216e+01) (3.441652e-01 2.107412e+00 7.224458e-01) (0.000000e+00 0.000000e+00 0.000000e+00))
1.025461e+00	((5.031456e+01 2.006678e+02 5.537714e+00) (3.528594e+00 -6.460325e-01 2.355848e-02) (0.000000e+00 0.000000e+00 0.000000e+00)) ((-1.058513e+02 2.778396e+01 6.945708e+01) (3.433889e-01 2.105926e+00 7.214079e-01) (0.000000e+00 0.000000e+00 0.000000e+00))
1.025741e+00	((5.021848e+01 2.006420e+02 5.607096e+00) (3.525831e+00 -6.445552e-01 2.376220e-02) (0.000000e+00 0.000000e+00 0.000000e+00)) ((-1.058670e+02 2.771241e+01 6.936129e+01) (3.426191e-01 2.104469e+00 7.203866e-01) (0.000000e+00 0.000000e+00 0.000000e+00))
1.026022e+00	((5.012453e+01 2.006203e+02 5.674269e+00) (3.523128e+00 -6.430985e-01 2.396479e-02) (0.000000e+00 0.000000e+00 0.000000e+00)) ((-1.058831e+02 2.764204e+01 6.926821e+01) (3.418553e-01 2.103042e+00 7.193823e-01) (0.000000e+00 0.000000e+00 0.000000e+00))
1.026303e+00	((5.003273e+01 2.006030e+02 5.738557e+00) (3.520481e+00 -6.416618e-01 2.416605e-02) (0.000000e+00 0.000000e+00 0.000000e+00)) ((-1.059000e+02 2.757411e+01 6.917800e+01) (3.410975e-01 2.101642e+00 7.183946e-01) (0.000000e+00 0.000000e+00 0.000000e+00))
1.026584e+00	((4.993878e+01 2.005775e+02 5.812549e+00) (3.517884e+00 -6.402438e-01 2.436630e-02) (0.000000e+00 0.000000e+00 0.000000e+00)) ((-1.059201e+02 2.750167e+01 6.908311e+01) (3.403449e-01 2.100266e+00 7.174211e-01) (0.000000e+00 0.000000e+00 0.000000e+00))
1.026864e+00	((4.984971e+01 2.005626e+02 5.881932e+00) (3.515341e+00 -6.388454e-01 2.456477e-02) (0.000000e+00 0.000000e+00 0.000000e+00)) ((-1.059429e+02 2.743406e+01 6.899450e+01) (3.395982e-01 2.098918e+00 7.164633e-01) (0.000000e+00 0.000000e+00 0.000000e+00))
1.027144e+00	((4.976187e+01 2.005488e+02 5.948326e+00) (3.512848e+00 -6.374644e-01 2.476220e-02) (0.000000e+00 0.000000e+00 0.000000e+00)) ((-1.059628e+02 2.736655e+01 6.890796e+01) (3.388560e-01 2.097593e+00 7.155205e-01) (0.000000e+00 0.000000e+00 0.000000e+00))
1.027424e+00	((4.967614e+01 2.005370e+02 6.011596e+00) (3.510404e+00 -6.360996e-01 2.495851e-02) (0.000000e+00 0.000000e+00 0.000000e+00)) ((-1.059842e+02 2.730234e+01 6.882366e+01) (3.381179e-01 2.096292e+00 7.145926e-01) (0.000000e+00 0.000000e+00 0.000000e+00))
1.027704e+00	((4.959083e+01 2.005246e+02 6.075541e+00) (3.508008e+00 -6.347526e-01 2.515324e-02) (0.000000e+00 0.000000e+00 0.000000e+00)) ((-1.060064e+02 2.723938e+01 6.873947e+01) (3.373848e-01 2.095014e+00 7.136798e-01) (0.000000e+00 0.000000e+00 0.000000e+00))
1.027983e+00	((4.950636e+01 2.005144e+02 6.137067e+00) (3.505656e+00 -6.334207e-01 2.534694e-02) (0.000000e+00 0.000000e+00 0.000000e+00)) ((-1.060271e+02 2.717533e+01 6.865603e+01) (3.366553e-01 2.093758e+00 7.127815e-01) (0.000000e+00 0.000000e+00 0.000000e+00))
1.028262e+00	((4.942432e+01 2.005070e+02 6.194792e+00) (3.503345e+00 -6.321027e-01 2.553989e-02) (0.000000e+00 0.000000e+00 0.000000e+00)) ((-1.060481e+02 2.711511e+01 6.857599e+01) (3.359288e-01 2.092522e+00 7.118971e-01) (0.000000e+00 0.000000e+00 0.000000e+00))
1.028541e+00	((4.934157e+01 2.004953e+02 6.260405e+00) (3.501079e+00 -6.308013e-01 2.573098e-02) (0.000000e+00 0.000000e+00 0.000000e+00)) ((-1.060716e+02 2.705244e+01 6.849418e+01) (3.352072e-01 2.091307e+00 7.110279e-01) (0.000000e+00 0.000000e+00 0.000000e+00))
1.028820e+00	((4.926100e+01 2.004878e+02 6.319725e+00) (3.498848e+00 -6.295124e-01 2.592166e-02) (0.000000e+00 0.000000e+00 0.000000e+00)) ((-1.060934e+02 2.699206e+01 6.841474e+01) (3.344878e-01 2.090110e+00 7.101712e-01) (0.000000e+00 0.000000e+00 0.000000e+00))
1.029098e+00	((4.918262e+01 2.004848e+02 6.376065e+00) (3.496655e+00 -6.282355e-01 2.611162e-02) (0.000000e+00 0.000000e+00 0.000000e+00)) ((-1.061164e+02 2.693424e+01 6.833857e+01) (3.337705e-01 2.088931e+00 7.093274e-01) (0.000000e+00 0.000000e+00 0.000000e+00))
1.029376e+00	((4.910471e+01 2.004803e+02 6.435596e+00) (3.494501e+00 -6.269728e-01 2.629990e-02) (0.000000e+00 0.000000e+00 0.000000e+00)) ((-1.061418e+02 2.687672e+01 6.826230e+01) (3.330571e-01 2.087771e+00 7.084978e-01) (0.000000e+00 0.000000e+00 0.000000e+00))