/*--------------------------------*- C++ -*----------------------------------*\
| =========                 |                                                 |
| \\      /  F ield         | OpenFOAM: The Open Source CFD Toolbox           |
|  \\    /   O peration     | Version:  2.3.1                                 |
|   \\  /    A nd           | Web:      www.OpenFOAM.org                      |
|    \\/     M anipulation  |                                                 |
\*---------------------------------------------------------------------------*/
FoamFile
{
    version     2.0;
    format      ascii;
    class       surfaceScalarField;
    location    "0.01";
    object      phi;
}
// * * * * * * * * * * * * * * * * * * * * * * * * * * * * * * * * * * * * * //

dimensions      [0 3 -1 0 0 0 0];

internalField   nonuniform List<scalar> 
119835
(
0.152984
0.441842
0.406394
-0.0219105
-0.0220172
-0.200072
0.475616
0.899449
0.890079
-0.12553
-0.0896016
-0.59014
-0.282176
1.51251
-2.70847
-1.50427
5.01228
-2.25216
-13.1443
-2.61392
-7.23112
-17.3334
-34.0736
-3.1518
-0.835806
3.81935
2.9085
0.0781606
0.0986255
-1.8563
1.37838
-0.284203
0.608637
0.638586
-0.0171772
-1.79298
-1.54176
0.0256597
-15.8601
2441.48
-35.9425
-10.5073
-2.78858e+06
-2748.91
-6302.09
-1.72549e+06
1.1283e+06
-2.21783e+06
1651.99
3909.74
1238.68
-2.68282
-7.68668
-3.00488
-2.09585
3.66302
0.71449
-0.2532
0.336963
-0.385908
-1.86947
-0.38822
1.10166
4.25566
3.11228
-0.503496
-9.34221
-4.1496
1.93826
-31.1824
-0.38873
12.4471
10.255
-32.6068
0.296424
-11.1871
-29.5162
-67.1851
9.94147
-100.547
70.404
105.248
-70.679
-0.346755
5.09172
16.367
-0.116502
-1.62423
-0.929499
-0.0201935
8.44482
0.177089
-0.0634519
2.24011
2.69099
-39.7173
0.0511075
0.0384804
60.5398
-440.442
430.21
712.659
-0.0405206
639.949
-2343.68
-292.965
-371.129
-18.4411
-5.73378
-15.876
-4.82936
-4.31533
-4.46756
-2.17102
-3.17015
-5.12395
-3.98008
0.634379
9.21293
3.6349
5.89978
-13.5075
5.33777
-35.2348
146.591
7.64259
-9.40041
25.0048
33.438
45.0417
0.296269
-0.633851
-4.39962
-0.37317
92.7394
-1.42903
-26.4137
-2.30834
-2.45954
22.7022
19.3154
144.542
-2.50531
-1.01412
-4.55682
13.0138
-2.19362
34.305
3.03921
-12.5663
264.154
-1.31359
-0.660287
464.436
-30.2559
-9.43877
-21.934
128.423
310841
2284.14
-3.16465
-182.091
35.9052
0.231007
6.58692
5.0681
-1.64718
7.56573
-44.395
-2.28506
80.0717
-1.48742
-9.43656
-26.7453
-27.7076
486.105
-39.5012
15.7157
-26.1676
12.6672
-18.8093
-23.6981
-266.9
3.73659
-247.026
415.178
-0.169904
-2.67357
67.3381
96.1825
-0.0767783
0.114405
-50.4967
-90.1945
73.5644
3.34068
384.353
-96.5352
0.147803
0.962473
2.96733
-1.77439
-1.95206
-3.42413
-0.183201
-2.90751
222.315
0.24309
-192.46
-82.0843
-4.51271
11.9604
3.99656
310162
2077.97
65.004
-319121
-296527
-303268
199.102
284.36
4555.79
4.22557
-675.097
-236.865
24.6044
-3169.44
146.534
-120.032
-171.829
-19.4386
519.671
277.903
183.97
-52407.6
-960.04
5.49128
24.7565
-52.6951
-226.72
97.5436
11.0798
242.508
219.179
292.846
1.62332
-26.1756
15.8637
-0.176248
-4.90135
-2.07982
526.685
-19.4046
-0.00225963
-664.392
-637.034
-971.016
-3.6962
10.7047
-27.278
-5.2267
-17.2892
-48.3518
-219.334
-197.491
-28.6384
873.762
4751.23
6537.55
991.46
-90.1415
303.615
-4297.18
-5581.64
-1639.16
490.235
4204.32
6655.07
-901.302
-1664.77
-2069.41
-580.997
17012.2
112646
3871.52
106390
4492.59
303.214
-2224.85
262.833
-104294
-100.525
-270.832
-79222.9
-76438.6
28.0276
-1.94855
-4.22858
-77.245
-21.1849
-2.08199
-16.4104
11.8782
-7.45602
20.0148
34955.8
265.504
0.431796
-46.633
30.5718
187.988
37.9622
24.1379
-32.2755
-1202.08
3637.14
-111.699
-2162.58
127.583
-319.909
127.557
-127.451
4992.59
128.159
2047.62
-7981.29
-4420.39
-709.657
-7464.53
351.936
-34824.9
5379.32
4403
-38288.6
-6009.16
-2318.45
-14165.2
-6664.92
632.748
3625.32
-47152.8
84696.7
28154
-99876
209944
-88101.4
1436.59
2959.48
1932.02
-383.766
-9.39878
-65.1154
321.289
567.308
-0.846133
1.08028
11.574
7.19918
-1.75415
0.590758
-49990.3
-3.6445
-15.4347
-52055.8
40315.2
-3793.85
157.09
36.2525
142.797
-725.453
-4.70926
-19.4831
2239.63
828.599
15121
1977.74
3239.27
-4157.98
-320.596
-45.4
-198.452
-105.533
69.6424
-1100.11
1151.47
234.341
925.257
578.335
-1102.67
43.311
-716.953
-2571.66
-4792.63
-10345.2
-3784.98
2902.48
-25324.3
2580.5
10372.7
15470.2
8955.64
14598.6
552.084
313.284
3037.37
646.328
947.482
2941.76
1.75345
6.02074
-240.727
2399.11
-22.2904
2.45898
3.67673
3.67726
1.33641
-1.38209
3.13472
3.25661
-7.20284
6.55765
-1.26825
-3.43822
-8.5522
7.7946
0.357195
15.2184
27.642
-89.4787
-40.4131
139.527
-287.897
6.55379
-198.077
-213.106
-112.947
5.67708
50.045
0.00377528
-7.28317
-2.89827
-26.8989
-92.6078
5.77734
-20.7067
311.263
94.3912
130.418
-225.591
-166.419
1820.25
42.2912
126.613
84.0044
-942.199
195.47
190.599
832.978
639.662
609.198
-16.3073
-19.4453
429.153
-18.918
844.061
-155.755
2680.8
-640.71
-15.5988
-3.5706e+06
-99288.5
-6.74204
0.509641
3.76499
-3.28671
2.05337
-1.65207
-5.238
-1.17733
0.946326
1.26733
-82.6311
0.884508
-18.3668
-0.595487
54.2048
597.109
5.41231
-567.975
70.1478
141.415
379.017
89.8613
149.177
448.475
-53.6855
-158.248
2.48487
44.3096
-6.83192
-31.7629
5.15702
11.6474
-1.25155
-14.8156
-113.725
3.04248
0.746708
-3.31751
4.69594
27.6043
-58.7202
72.9271
85.3467
-34.5304
-15.8333
-20.8394
-111.061
-48.5479
-1.82415
0.479564
0.0136971
291.825
450.149
-0.824142
-1242.27
353522
-92.5587
564787
1315.82
596.248
-532673
-2.46973e+06
3.14423
-0.712321
0.0292943
-2.53617
151.693
-1.46808
-59.8058
-28.6182
0.867979
68.1122
47.2888
29.9431
0.151467
1.49066
0.649532
1.17781
0.170089
-8.88884
8.98948
-10.7062
12.008
-237.895
-22.0025
-124.519
-42.2878
-21.7776
66.4364
1.82354
-82.5691
192.275
-114.821
-0.430824
-24.349
1.09845
0.453144
0.678609
55.5906
43.9955
-3690.55
1474.64
19.7298
58.3039
48.8729
-5525.83
9.50982
101.954
85.9432
323.275
55.9832
-163.164
43.7648
64.8688
-183.333
31.8795
2724.35
-113.276
-48.427
350733
-3013.25
2158.81
-340943
-324847
-342122
-3275.07
-9304.44
-39.1078
-283.664
-1247.5
-141.125
3138.76
636.712
868.909
339.151
446.786
96.3522
14.8246
-14.3318
18.3827
-137.427
-150.417
37.7069
61.486
25.5123
-0.193518
-1.26956
-2.47716
1.34173
1.30327
-1.21526
53.074
31.3961
-1.54063
5.44687
-58.2364
30.6353
-75.7644
-30.7791
-10.349
-215.817
1.21362
-15.775
26.9392
-192.81
633.897
-17.0055
23.4428
-143.19
-11.457
12.3595
6.2223
-11.1332
5599.52
-37.0473
-11.5797
51.9846
1057.56
14.1599
2564.28
-262.359
148.664
72.6928
71.9332
-180.225
29.9868
239.18
98.5238
91.7073
79.0641
93.5143
99.3832
160.666
45.8804
46.9724
39.0907
36.221
39.9639
142.873
20.1754
6.32854
9.94412
12.314
6.98815
3961.99
-92.3786
-17.1051
-13.6677
-24.7271
-12.718
-10223.3
-15646.9
-610.374
-623.371
-740.491
-4136.38
-510.765
-150.907
-102.931
-124.038
-131.659
-119.536
-196.67
-152.226
-133.969
3.0959
-32.2861
6.75092
7.29818
2.89044
4.55834
4.12678
3.06278
41.1539
-0.242972
-4.28459
35.6171
-23.7083
-44.5674
-4.89766
-0.730062
-47.5632
2.90774
-2.23537
-2.52798
45.7521
9.21151
14.0286
-34.4428
-7.60876
-82.145
-1.88807
-10.6651
-0.687172
-1.20212
6.88772
0.487116
-7.69268
2.06824
1.16738
-0.475519
8.52855
741.239
-1.26098
15.9067
-1188.83
9.19569
-40.7762
-2.88517
57.7661
-2081.92
-270.941
-17450
-393.436
-1157.23
-229.841
-1286.33
-714.313
-653.325
-199.507
-227.907
-305.15
-2137.34
-284.524
-430.135
-404.775
-12.0107
-176.496
163.41
-293.535
48.0565
3.93971
12.779
21.278
4.86905
21.4971
43.55
37.3463
9.75692
9.22446
12.7295
9.69714
-5.51169
3.46761
0.928995
0.835925
1.31442
3.49459
655.415
12.8883
5.07829
1.8168
-17.641
2.07137
-206.317
-150.613
-138.254
-157.063
-184.701
-164.897
-163.121
-141.918
-177.888
-166.691
-140.334
-96.4305
4.31837
8.81524
3.73144
-5.78628
4.27784
-8.61944
2.68416
-0.895192
-7.96374
-5.04137
3.51809
12.5022
-0.519788
2.94225
-7.44003
1.65313
10.4164
1.10285
7.50816
-0.173856
89.469
-5.50772
-18.9984
-237.308
-162.239
16.2205
98.543
71.1755
-3.22113
-494.051
-8.80993
1.31275
10.1151
0.918953
-8.13418
69.3212
21.0749
-7.75259
-14.3273
-3.81858
-11.8428
-64.1329
-43.5484
-7.75589
-90.7743
-33.7392
-50.6644
-1091.16
56.3894
88.9092
18.3072
9.88808
33.9974
71.1046
26.9606
-4.36991
36.7471
36.51
71.6181
48.4961
18.5637
15.2891
72.9289
20.7589
12.9003
-38.0313
1.76365
2.51967
-348.173
-1.53188
4.66689
-67.2849
1.67505
1.25387
0.456775
-9.659
-3.71648
-58.0152
0.325172
-0.219085
-2.29976
-46.1293
0.342423
0.693423
0.177208
-1.6535
3.92414
-0.238738
-0.501992
-0.239995
-4.04262
5.37969
13.7113
17.3289
-7.04415
22.8764
-10.9169
3.40836
3.07807
4.24417
-3.99733
14.6749
-0.359245
-1.17507
-2.8135
-3.15105
-4.09643
5.32251
5.34416
5.89147
54.7804
71.8958
0.201139
-299.961
-193.406
-69.0966
303.339
1740.19
856.279
116.96
-413.167
1731.18
496.848
443.516
-248.183
23.7371
-14.9484
-13.5797
-6900.28
-100.041
86.1313
437.509
1302.64
1083.66
369.549
177099
1255.78
-2522
11710.9
-5733.19
-3866.38
1.02854e+06
284.815
188.11
-27.0277
-12904.5
-92.5732
116.597
-26.7847
-8.12954
-4.56935
2258.87
21.8125
44.1751
437.245
-1.83537
1.61108
-0.785881
-9.75888
3.7943
-0.836149
-16.6988
18.0477
5.54134
-5.28258
-9.20359
-62.2076
17.455
60.9487
-2.24001
-82.6842
-19.7662
-291.011
42.7471
131.665
-53.2947
182.537
1.99617
-8.23225
-10.2733
85.6356
-67.807
14.6513
22.9005
19.043
9.78002
22.9087
17.0445
-2.40091
-2.56512
-4.46058
-0.201742
-47.4605
0.0513634
-248.094
0.258148
-1.32023
5.01486
-16.498
0.719239
0.32635
0.269562
-16.1063
-4.7806
-5.62257
4.28239
6.66656
4.72266
71.2574
0.0856126
-0.00320781
-204.957
-82.6467
-67.082
3241.89
128.367
2840.53
-4887.8
-1959.31
-2.90288e+06
142.565
1173.09
2421.77
-10.5927
71.7674
-235.105
-0.790266
-16.3202
38.0266
2.57002
-5.5298
0.706679
-1.35952
-1.56034
5.27335
-0.206191
-0.0853779
5.86394
139.586
1.25871
0.722782
0.943692
10.7306
13.4579
5.83297
8.82452
-10.6766
1.05008
337.536
1.54544
3.06629
1.50309
-22.891
0.814683
2.30466
0.842679
19.264
23.3117
-1264.49
77.5974
46.1186
1.65633
10.993
1.13671
9.67695
-1.35778
-19.0641
-4.10464
-9.45084
26.5783
-17.7238
-3.73839
-9.90745
-15.281
0.143269
-0.124641
-4.31152
13.6524
-0.392066
-0.434758
-1.18522
-1.40753
-4.03471
-0.0145238
-0.527039
-0.0342132
-0.197891
-0.716604
-0.138062
0.0678041
-0.182395
0.11076
1.19256
3.97263
-0.344428
-0.587643
0.0344374
17.6397
-32.971
-3.54565
-292.839
-70.1323
-50.6848
1591.1
333.343
-5903.84
-793.53
-326.948
-273.125
-254.729
-334.359
400.128
46.6101
66.7165
-41.0954
12.0472
-20.8411
-14.212
10.229
0.759755
-0.221469
-4.05078
-5.32111
-87.6722
-1.8104
6.74235
5.92831
1.65515
-2.22865
10.8837
-2.16542
-13.4049
0.479281
0.526899
10.8326
-0.138762
-0.127308
-0.163149
1.33546
-5.87965
-0.244886
-1.54877
0.0440093
-0.272646
0.0887472
-0.240317
3.75292
0.29461
-0.337018
-0.664893
0.431641
0.998702
-1.59133
13.7927
-0.27542
-0.461433
1.2946
-0.0525947
-7.49721
-235.857
-5.27349
-0.324636
41.0657
-29.8239
24.185
-1.24491
-6.58754
7.6537
4.87734
5.38873
56.5998
15.3535
11.425
-47.7761
-56.9306
-65.9792
-10.3231
-19.2487
-23.8912
146.132
316.459
0.574572
1.3435
-0.00447479
-1.96265
-40.3831
-1.47817
-40.0194
-10.8946
-0.940009
84.3053
-34.6274
14.3404
-43.3655
50.7132
14.9327
537.649
20.6098
-194.787
-581.627
-1851.68
50.0974
141.937
49.8225
81.684
-118.732
-8.2125
-124.744
58.711
7197.36
92.5483
28.4923
21.975
2.19188
-51.3291
-14.6192
-35.6237
8.42
13.7931
-93.7666
2.35771
16.5594
1.39009
-8.16175
5.86476
8.78271
2.73492
0.145489
-0.13666
0.50939
1.89777
-0.213168
18.4406
-0.137355
3.44333
-204.001
-9.57834
-0.597628
-16.1227
-1.01049
-1.63753
-0.181144
-1.93805
0.0909222
-1.8308
-999.276
194.459
48.3692
67.3599
42.1464
-0.485655
-568.232
505.04
505.677
124.388
110.516
252.17
247.312
-417.035
-465.233
-20.7933
181.913
39.2339
41.2464
1388.76
-640.217
800.375
1275.72
1071.19
410.742
124.358
295.924
-1699.33
-48.0165
46.7937
-12.5628
-0.553294
79.1233
-259.081
-57.8791
8.31391
-5.90024
58.1326
-227.944
22.6018
-7.87276
-16395.5
-5.15154
1160.35
33.2315
-0.548402
-997.155
-2079.49
-298.718
-15.1883
96.9621
-42.7758
2456.69
-5.27927
2.49254
-1383.33
-2554.69
-2040.73
-9.56235
-223.157
-11.6097
-2.40021
-78.5889
-0.392972
-22.2477
-23.1151
3.99277
-0.0712393
-31.5071
-43.1331
1.46634
0.593836
0.164036
0.387404
-0.620284
0.0521119
-5.24547
0.260672
0.00881948
-0.194571
0.033139
7.76857
-1.47796
-0.767516
-0.143634
0.582625
-1.0909
-0.188151
-1.09956
-1.63259
-0.723718
-0.167982
-0.283487
-1.56687
-31.4981
-3.55624
-5.32847
-5.62424
-2.97541
-3.10572
4.80942
31.1877
42.077
3.19486
-3.7618
4.31669
26.0419
-7.35283
0.491584
-12.3733
-39.3716
-15.2565
7.82507
-5.34825
-58.9271
-34.9571
-427.709
-123.709
-10.6759
60.2174
-1.88744
-25.634
-34.3821
-0.703893
550470
421679
15.0203
137690
419726
-39550.1
-32.5975
-59.8144
-31.9052
186.091
3.30394
8.99762
118.797
-116.997
-120.111
6.08594
8.27805
16.8944
-195.841
-48.3769
21.9017
-86.4233
69.8108
-72.1623
33.9509
82.1071
223.934
10.907
181.632
206.996
0.20319
-55.7622
-4.88973
0.532028
1.84018
0.0927456
-0.0762704
0.0475398
0.0148941
0.105856
-1.00023
1.09654
-0.200612
-0.068621
-0.110199
-0.103096
-0.342219
7.26759
1.00126
-2.18351
-1.7681
-2.75379
-1.43882
-2.36424
-0.780987
-2.46953
-0.49346
-1.90794
-4.38575
-17.6027
-3.37738
-20.8511
-2.7423
-0.962175
-1.90587
1.92215
-16.5086
1.02555
0.134432
17.4521
2.74854
1.23568
605.802
537.366
-133.259
-804.968
-11373.1
67.8687
560213
-102862
-155.554
-273.604
-0.293308
-0.72289
0.405297
-0.101402
-11.5654
-0.531225
-24.8576
-2.41147
-11.5403
-51.858
18.3686
119.48
96.6841
-126.864
-315.519
-682.833
15.3516
46.7554
-8.71066
44.0072
55.58
-0.0254278
0.672921
1.03857
-0.314246
0.164807
-1.17582
1.73976
-0.575163
0.792581
-0.0843669
0.0949957
0.171885
6.28668
-103.86
-1.45722
0.221582
-0.716619
-0.208194
-0.927387
-98.6054
5.72141
-32.3482
1.85308
-0.755645
0.652301
3.04939
-9.89046
-4.82862
-5.56217
-2.0619
-5.03463
-0.416439
-0.460439
-1.00149
0.679455
2.52281
-4.50597
0.6266
-2.95797
-6.94233
-1.02413
0.176213
0.384924
-5.58491
-12.1165
0.924829
4.11438
-23.7375
-0.501959
23.3508
-100.671
-11.83
-6.10996
338.276
-12.2823
-0.482421
13.7763
2.93401
0.92307
1.68835
-172.043
0.104038
0.342189
9.13769
-3.71002
1.5344
-7.07544
108.329
1.47813
-571.798
95.5276
312.063
-126.225
-8083.35
518.653
105.712
4953.91
4247.52
7367.36
-2.65626
-14.3879
-3.18992
-0.238864
1.28552
0.0380106
0.174996
1.05718
0.490355
0.854741
0.467266
4.89026
3.93956
8.20994
-6.10807
-31.4832
0.178879
1.71425
-14.6
-2.26135
-12.8943
1.23117
-1.85792
-104.488
22.0738
4.93702
-121.102
-29.5561
-63.801
-90.5344
111.383
121.561
-98.7793
662.846
-55.3338
-16.6402
-52.1286
-15.3282
0.291401
26.2875
5.75818
0.943047
273.961
14.6608
-0.649585
467.277
5.42609
3.82753
-10.6152
5.34672
-839.558
-1173.91
-9.54245
-1981.85
-166.637
-1267.43
307.474
52.2395
-61516.4
3.44983
-117.974
-1177.12
-0.821763
-1.37147
-0.864867
2.20156
-26.3739
-0.596532
-51.0199
-4.61199
-30.2239
3.80897
-2.27694
-30.1947
-282.522
18.405
22.8832
440.017
92.5216
0.588971
93.06
95.7467
0.610434
-0.548037
0.675926
15.2258
35.4482
-22.8072
235.629
3.81209
-0.0437065
-149.386
-256.097
-146.671
67.1663
27.1152
138.45
101.744
301.626
3132.22
511.39
-776.456
241.184
-2221.93
6.41386
-6184.95
4606.22
91.3111
4443.04
126.022
-2249.97
-2764.71
-13.7027
-8124.95
-106.475
-53.8246
-141.281
-57.2803
78.1019
329.588
1073.85
-22.4054
40.433
-71.2604
-21.5468
203.043
36.7928
-108.579
-90.4118
-305.161
-17.4648
-4.7383
-141.323
322.836
-1075.58
47.2844
-420.6
19190.1
-19.0105
-166.194
-45501
-1.13461
-0.505784
13.4308
275.977
0.00392808
-234.335
247.104
527.84
-303.294
-5.18291
-23.936
-167.452
205.385
-96.5993
122.51
-694.302
-426.548
3643.3
245.141
5521.39
3167.86
30.2415
592.468
636.23
-546.818
1306.7
-66.2479
2801.85
6605.77
609.172
-5347.59
-13312.4
17413.1
722.339
159970
4512.36
-178.12
-1478.9
5012.81
23.5243
90.1743
464.221
-448.69
-137.918
1629.18
-496.353
942.886
32.1515
37.7864
-40.955
-2.90951
-0.759847
-11.3403
8.85242
-26.2124
328.92
-22.1942
-20.205
223.227
0.00633185
39.5592
112.147
0.00108873
0.00172499
0.00518658
-36.8251
4625.65
-50.4496
-31.5956
140.518
-105.466
138.627
193.486
-198.085
4595.68
1167.86
714.46
-2834.98
-4178.88
-20385
-73.5153
-7431.82
-24796.8
23607.4
-84696.4
-5728.76
-1756.26
10211.4
25040.3
136901
4198.2
14494.7
-163311
-120591
-309911
1326
-3362.4
7537.36
-182.813
-740.166
2255.96
-222.187
-127.258
297.561
288.861
823.092
5.94736
55.7711
59.8479
-20.6466
-1.83932
-23.6777
113.783
20.9861
22.8962
-59.2492
-28.3138
-12.9706
12.0825
45.3092
73.1311
4071.42
-11.4076
1.00286
-5322.7
8015.39
-4639.06
-244.054
-5330.19
-304.983
1241.33
22.579
772.079
3330.56
-6289.61
4102.46
-23017.3
-3038.3
-63881.7
93822.3
4153.76
-49338
18.4446
6803.92
-146779
10013.5
12216.8
-23101.9
-9021.24
3222.05
400.84
-3239.07
2092.86
12845.6
2187.13
-3710.69
6224.25
257.848
2014.82
461.364
145.924
-119.827
15.4431
-90.1274
-97.9623
-8.48431
-11.6218
1432.28
1.46476
1.26381
4.61797
-15.1473
-0.453173
-29.2129
15.2192
-11.7252
33.6904
-38.2006
34.7752
-3.48376
9665.92
-57.7863
266.238
-23190
-9724.31
-15020.9
909.343
3489.83
3255.09
-1171.77
0.00349528
-93.2587
4927.91
1191.43
2870.59
47.3551
-337.517
7506.21
-1565.22
-580.892
-2686.03
2857.28
5175.28
-9507.1
-2829.67
-1062.48
-17881
-7969.85
-3542.16
-2329.3
2612.41
996.007
3094.85
-8968.02
-11721.2
22030.6
-2092.29
-1440.74
5163.56
243.249
82.9799
987.941
-949.432
25.1127
1.98049
-3.67233
32.7526
9.94277
-2.38063
0.495396
6.84213
-7.71481
285.842
22.7495
2.2888
6.29231
-78.9933
45.3083
-35.3848
28.6246
206.697
179.856
-4.11872
-11.873
615.94
0.00263432
117.526
-1.40827
0.00336696
0.00827476
-0.00173688
4.24883
31.9347
-25.5236
40.3813
23.1152
41.5149
1618.62
-4.55147
1608.22
-2.92049
-29.2498
-1.44703
-1316.73
-1521.61
-281.26
-176.059
-580.472
-783.076
-13.9171
-55.5122
412.324
-32.8307
-35.2813
1262.79
365.51
-0.00268364
837.769
-673.873
-360.461
-6122.79
69.0527
40.4988
-341.838
-92.1046
6.42364
-2220.61
-68407.2
527.805
0.551476
1.04453
-0.226115
0.367744
0.909236
-0.255876
4.22037
-1.51177
-15.5266
50.2724
0.491468
-4.15266
370.578
-56.3757
-53.3057
-309.136
1023.76
-321.005
16.4365
-3.58308
80.3523
-149.92
-446.464
-16.0113
-50.444
-25.5623
-13.9035
24.9346
423.13
-15.8336
2.92062
-30.9941
-108.716
-8.11943
-16.6073
3.47315
-1.15745
-4.27178
-26.9923
-53.2446
-454.118
-24.7505
-7.62258
-1.88933
-10.1907
-24.6315
-49.6403
-24.3858
-37.6113
0.23574
22.4251
126.501
31.1726
0.616496
4.15481
-0.0084706
86.4477
48.4465
2.15584
6.09967
25.902
-0.00473762
-0.00527349
0.00244322
-0.0102857
0.0023954
0.00433833
2.07762
-33.9361
0.554476
-12.2212
-1.98957
-3.81334
-6.56534
21.7961
16.709
-40.8619
-9.61517
-64.8522
-3507.83
-0.493847
-4.751
0.569204
-6.33283
-1.86844
-6.67512
-2.44325
-0.3339
2080.96
1717.05
3131.38
711.964
12163.9
2044.09
1951.04
9035.48
0.997094
-12.2801
-7.18809
-2.32086
8.50816
-0.487479
3.61957
-4.81788
2.36353
-0.348501
-4.4246
-0.555091
-40.9932
-0.992481
-0.740836
328.106
91.6469
77.0109
-96.7669
-15.7839
-159.668
24.8168
25.047
104.122
-215.408
-41.3817
-5.54957
-1072.43
218.543
46.9429
-2929.37
0.00336513
43.3291
-4440.49
2.7026
2.12712
0.0034855
57.9689
0.00145178
2782.03
2245.93
-573.3
2819.8
134.974
-46.0502
42.6163
63.9625
234.891
17.3688
18.1189
-17.2944
-32.1125
35.406
55.5716
41.1777
43.0838
38.6671
-2.06283
8.7607
-0.365387
3.15477
2.69371
6.55362
4.4517
6.05232
-60.5291
-3.68327
-17.6625
-3.86231
-4.36691
-5.55038
-33.808
-4.33271
-0.142367
-46.8008
1.51722
8.54678
4.9411
9.59039
-149.771
28.0311
16.781
5.93531
-2007.54
2.80599
156.811
5.63797
1.59447
4.50075
-173.537
-5.58217
42.2177
-8.08827
-211.324
-11.4623
-1204.33
-196.96
-912.204
-208.682
-118.162
-235.037
-2427.53
-157.24
151.682
-19.757
99.9214
-22.7416
-6.83178
4.83519
0.257555
0.384898
-1.01806
-8.42523
361.499
-28.4171
-11.8412
-44.7706
1.76454
24.8184
9.35292
1.16222
-2.77395
-1.46516
1.62887
13.0948
-2.58491
54.6956
-7.40328
0.239748
-13.8199
-43.8675
-5.71218
-6.59253
-3.87653
-39.2883
17.0193
4.73862
32.7257
-3.52379
1119.69
24.783
302.441
2.85329
1369.74
-46.4386
0.00225673
481.073
47.2632
1.9537
-4601.86
-0.000555766
-59.9152
-0.804248
110.211
-105.986
38.0809
-119.851
7.57418
-63.5972
2.36228
0.790883
9.57361
-5.89454
-0.519279
-0.320153
-0.922365
0.328451
0.746597
-0.288098
1.29379
2.861
-0.0954012
-0.486151
1.50718
0.190116
-15.0815
-3.33387
1.28014
149.333
-59.7416
-77.6631
-48.8379
-69.0338
4.91861
201.558
7.58542
-9.83186
-2.60622
-13.863
-16.3149
-67.7343
-14.1498
-2.21693
-6.68034
-45.5915
35.3457
153.125
10.0477
2.87459
7.59726
-46.0864
-16.3706
-18.5229
7.95721
-413.858
18.6212
0.13206
38.9588
-0.623133
2.31726
-2.43927
0.471826
465.678
1.97757
10.8012
26390.8
-436.291
-2325.23
1.18377e+06
-3235.39
-5317.8
-42755.1
-65290.7
-40457.4
4.49198e+06
-53544
4105.7
-63900.9
-599.817
2343.11
6746.84
14519.8
16921.2
2202.82
1094.39
2212.61
198.644
6241.52
2037.7
2037.87
3986.22
79165.5
17613.6
-93744.2
-853831
-26873.2
-235.745
-173.626
195.755
-376.791
1.92823
-66.7445
0.740779
-2.81912
5.81906
0.211402
-1.9243
-0.0193967
0.104713
-0.127355
-0.336626
0.0903491
-0.197611
0.0108397
0.0594308
0.648048
8.56408
5.61579
-5.1651
5.27751
-1.1537
1.25456
-1.9002
-0.0726691
2.01875
-3.37568
-39.2838
-1.06069
26.0964
4.68508
4.79473
4.57046
4.84497
9.03935
4.58095
4.55564
5.57681
-1.55165
1.7416
1.06308
1.27618
4.72849
0.394827
0.45536
7.216
243.086
2.03365
9.21362
1.76043
0.984698
-0.11685
153.831
-11.3906
-0.380287
36.926
-451.775
-129.657
37.3269
224.157
805.051
169.276
-49.5474
1686.25
-92.5304
7.53727
120.087
51.814
8.89699
-3.47769
26.1622
-131.461
15.662
-819.297
-24.8067
-29.8556
-29.4753
798.843
-636999
328.453
553.339
262.729
36064.9
40681.7
40222.4
-22945.1
343269
347.87
151.19
-30.4812
43.1404
345.504
-7.34241
-38.6342
-0.456251
-4.86104
1.33024
0.670791
0.41749
0.6095
-341.53
-308.498
-0.585271
-0.0491182
-0.207802
-0.622149
-3.64591
6.45579
-0.21783
0.00242085
0.257886
-0.263121
6.41847
6.66195
-1.53423
-83.4057
4.76532
-74.022
0.304598
-0.0828208
8.44601
-2.26741
0.18927
2.49094
0.0529346
8.15627
-1.13365
0.510277
0.00853477
-1.55665
3.50898
4.10079
4.02245
2.25027
-16.262
-6.15432
5.50988
2.82188
2.25542
0.376062
-2.7019
3.05166
7.20856
0.481074
-5.42939
-15.3563
-5.49855
-10.1785
-6.7982
-4.81296
-18.8419
-0.865419
0.366245
2.19361
0.261162
0.435726
-0.121073
413.395
30.3455
67.2093
2422.8
-1.29745e+06
-641.012
-2079.16
11667.9
957.061
-116.647
-1041.61
3081.62
46.5135
31.2715
26.358
-469.026
-43.1484
23.3407
-5.98759
-171.17
-1.51521
698.73
369270
427.744
1773.68
-1957.78
19006.6
684154
2355.91
1902.63
2758.93
34.3127
159.341
-10.8164
25.6598
172.685
7.68564
-5.71714
-13.4809
-18.9997
-39.2946
-566.23
-1.55003
-111.043
-21.7998
1804.74
87.2477
-398.706
469.049
60.0944
430.528
97.2027
399.433
97.8492
126.488
2.83161
43.1139
-18.8138
-20.1246
-22.348
15.1066
31.2767
-15.9362
-16.8235
-59.0517
-72.132
-2.10359
-1.86565
-1.7844
-2.01713
-1.64947
-53.5177
-1.3354
0.229259
5.56288
-12.4848
1.44794
5.97129
4.45084
219.122
10.4513
2.14322
2.31468
-0.488368
-0.524491
-5.9636
-0.00223284
2.66408
0.591945
-0.725069
0.0511206
-0.100365
24.8765
-1.50418
-6.46652
-2.34063e+06
-166.484
-27.0367
-535805
-1.11149e+06
-4.89041e+06
-2670.54
-5796.72
-3876.87
289.309
1220.84
-20531.8
-41.6207
-72.4974
924.741
16.3726
-2.66367
41.0683
5.71829
-3.42858
-24.9221
-0.597979
-4.16697
-0.092888
-0.52237
30.7606
26.0315
-3.29589
-10.3217
-3.68476
2.34431
-26.7505
29.8851
0.0830215
1.52575
963.64
4.45743
-11.9296
-6.36694
67.2604
25.1405
1159.49
-337.273
-22.5649
-6.46777
-1523.6
-301.867
-39.2081
-103.957
-169.89
-423.907
15097.2
-28.1698
-267.948
-80.0345
-45.6205
-65.7055
-72.83
-87.4441
-215.303
-46.7254
-50.508
160.814
177.969
427.531
212.925
-221.473
-152.953
-45043.2
280.102
229.422
259.691
-98.6764
208.242
324.941
138.758
-266.504
500.333
-3.7668
1.52429
-0.267875
-12.5793
5.40105
0.657084
-2.84732
-10.331
-1.12878
7.13889
-2.65997
-0.570005
1.28124
-3.24488
0.994572
12.3291
-39.5714
13.6026
8.46459
-15.1725
1.66216
4.08801
18.8441
1.70617
0.328498
0.200588
0.609595
-7.29336
79.077
6.16464
2.76739
0.0225777
-7.15201
5.22028
-4.04878
-1.9312
6.16927
-2.5091
1.68392
-8.19829
-12.2103
-5.98754
-6033.77
102.144
46.926
9452.7
6165.88
6477.22
61.3516
70.605
-101.541
-265.309
-219.178
684.316
28.727
-1295.81
966.562
2.77606
17.0158
95.3792
-25.4009
0.19018
-1.56046
140.966
90.3415
2.76129
-13.5238
-8.80361
-1.11989
10757.9
13.7292
-49.4412
-12.7183
37.5044
-50.0361
285.859
63.6648
-56.3953
-8.83769
-25.8125
-1.38444
-121.918
-9.9624
7.03953
-4.41639
3.5961
0.518461
-3.74333
-1.21622
-0.265403
1.32334
-5.8322
3.75144
1.96196
29.1596
2.48116
23.6176
-193.89
-101.518
-177.311
327.707
-95.4432
299.181
76.655
360.476
87.2937
3675.06
5993.98
108.71
-9.29056
50.0633
19.509
-2062.15
-1956.18
-1312.02
-385.509
-32270.9
-5962.72
-0.128333
-0.816569
-0.660385
-0.488555
-91.5763
36.9284
-3.15459
10.2725
3.02572
-11.0071
61.0767
31.3172
-208.543
-3.0203
-15.6715
930.293
106.012
311.709
-329.999
-304.965
-124.525
189.084
-76.7544
371.004
159.052
148.31
-428.723
-4.22169
1.49878
54.7549
-6.88987
1.61999
-2.81916
-100.389
18.7758
-13.5182
-138.564
99.133
230.17
4.05251
3.88652
-0.0798245
-160.548
24.7745
4.34477
44.1604
-84.456
94.2618
-85.546
-88.0233
-84.5243
8.70424
1.51271
0.132121
-12.1024
-6.94317
-43.6292
-0.395374
-10.5283
-0.789098
0.388387
-23.2704
-3.21336
-1.55949
3.47038
-0.279206
-2.83379
2.04767
23.9698
-50.4276
14.876
41.0242
7135.35
6707.77
840.459
-822.658
333.078
-650.303
-42468.5
-40922.2
-13653.5
-19641.3
-28890
1.02634e+06
-82.677
-5.07624
-283.848
43.6746
100.957
25.9466
-42.5774
9.32065
74.6859
-9.67156
-3.27253
-2.53975
-0.454936
5.45072
47.8089
44.6753
1.4324
0.571467
-137.316
-56.3178
-192.225
72.3141
19.2645
41.0877
2.33367
-23.8593
203.612
-6.43242
14.7206
-15.7729
-8.77253
-48.2804
12.1232
0.496826
72.4292
10.6719
-15.977
82.2384
-37.8321
14.7476
-8.49922
-81.5736
1.56766
1.17335
1.93376
9.94692
26.4989
-9.02556
-1.35053
20.4953
29.0606
1.33791
-55.2091
34.1977
2.18754
5.49216
0.595131
0.295143
-0.943366
1.1137
-0.458604
4.73285
-0.32813
-1.14619
-0.191685
-20.2032
-3.52152
-1.57934
-0.0514864
-4.77314
-486.901
-19.0963
-7.19206
-6.53221
-10.1405
-11.9482
-81.2841
47.1997
5.20062
-3.85154
3.02517
-12.7044
-3.85502
7194.06
-9.93999
-81.5728
536.024
-4095.41
-4380.3
563.537
586.151
-1657.41
33.0307
311.128
-605.112
-1.91499
-290.818
-1160.41
-0.793526
6.37832
9.9533
6.17397
-265.049
-3.10455
-6.79282
-17.8293
-4.80577
-0.694459
1.19364
8.31293
-0.0851475
-0.904338
-1.5113
5.16264
0.242375
-0.143956
39.1922
-0.383185
930.33
-60.9596
-59.5985
-49.9904
127.721
167.125
11.1321
46.2031
-1025.98
82.7324
-179.901
-629.711
-636.605
5.68092
-4.29326
239.48
4.44875
6.99784
7.67916
4.49799
-17.3985
4.15429
-2.32395
1.07118
1.96325
0.910617
1.51354
-1.27346
-2.45026
262.155
1.82852
-1.12776
6.16304
0.771254
-2.2427
24.8315
-78.9657
30.8515
4.5902
2.16124
0.219582
0.452125
29.6049
15.406
11.8121
-44.5844
-65.5109
-47.5063
-12.3135
60.2813
-1.15982
-7.57634
-4.08782
-0.00329465
1.47832
-0.4648
-636.095
-1553.81
694.827
-237.709
-363.331
-5.6405
342.563
283.809
3.02003
5.09794
-0.0954578
32.264
-0.240983
-0.606501
0.0147307
-0.861938
-18.1503
1.44371
160.218
61.0614
-731.915
-74.931
-1918.15
113.57
240.272
104.752
7.28203
-36.0344
9.73162
4.81236
3.79954
2.66974
-5.69236
10.3906
7.18294
-2.19996
-14.5323
-440.924
12.4826
54.1356
94.547
99.1417
35.879
-405.268
28.1571
43.2752
8.49269
9.03867
17.1687
28.9512
123.08
95.2647
45.5591
43.1398
31.9453
32.6956
122.249
24.6616
58.9235
15.84
52.9428
8.77008
22.3926
17.0549
5.13444
0.0746614
-0.993431
-0.516529
-1.00306
-6.02217
8.93416
-50.6035
-20.1268
10.0049
-47.5645
3.75045
2.0837
-54.233
-0.914493
0.199288
-9.66121
-3.73806
-1.57257
-8.62625
6.55627
-11.9762
-16.2695
-0.204466
-6.10287
-3.53452
-1.00287
52.64
-145.409
-158.032
3.55193
-0.275755
239.174
454.799
207.513
-95.8329
43.248
1005.73
-657.853
20.3005
-173.329
670.837
-2812.33
-2859.6
404.543
5.36626
1261.3
-758.259
-369.766
-890.788
162.89
-59197.5
301.355
0.167675
-862.955
-4.40317
-0.0129137
0.0172347
-0.0480034
0.0112815
0.278716
-1.23707
-2.93138
0.521843
0.455668
-7.46819
25.9485
-3.2559
-1.45809
-13.7185
-0.501127
25.6133
45.8815
1.10091
-15.4868
-0.892481
-8.71484
-0.570498
-6.79393
29.6179
-61.2167
-19.017
84.9162
0.706722
1.00549
-43.737
-136.531
-249.375
3.27491
-35.1209
-30.5622
-7.5467
2978.46
3.97211
15.2615
208.046
136.835
16.7055
-679.438
-897.525
-16.0148
-7211.64
-6507.97
-9.3258
-43.2275
54.1021
-53461.8
-870.058
-11347.6
60893.2
63575.1
52011
867.521
3139.05
1416.21
0.154939
-17.6404
-0.35875
-1.91735
4.53756
-4.71567
-89.5783
-17.9955
0.0844253
-6.86714
-6.91918
41.54
40.7571
168.284
-3.12556
15671
-2667.27
-1.28971
-43927.3
922.51
0.302674
6.35221
3.15112
-0.157405
-10.7335
36.8712
-11.4845
-6.51923
-0.0180229
107.1
-253.132
46.8891
4122.65
724.748
-85.3863
-2679.28
9455.41
1120.5
-4047.34
5242.43
-12299
19612.1
2543.19
-1456.2
-1208.83
2541.44
-11469.8
-1984.66
104.07
-143.223
1450.07
-1159.09
-8013.57
1584.73
3873.68
68.4075
-1043.93
9573.93
365.451
64.1055
378.202
-3.1336
-86.9028
994.154
332.851
649.657
67.7929
27.6062
-78.0394
-121.771
13824
-66.9918
-30.2109
-443989
-13645.6
-69630.8
44439.8
47880.9
1.26624e+07
805.279
-424.256
4572.25
223.432
329.218
-9.37038
-198.999
44.9055
31.306
-781.726
-29.6028
225.348
4717.47
-290.679
294.317
22969.4
-3077.08
-27759.5
-918.028
-10727.1
-13015.9
-788.079
-23453.5
-63201.9
37.0714
-254.387
-139.054
-0.00336031
-10997.4
0.00263787
1032.3
3654.16
0.00150843
9726.09
29270.7
-11939.7
3486.87
-12741.3
-2680.93
6.05139
-1907.44
2698.04
-1454.03
-504.143
-3881.35
262.044
2701.51
3.81496
-55.1636
-21.1417
151.893
1.47343
1.41216
-66.82
-614.544
-102.777
-377.781
-107.063
3315.7
-206.193
-136.556
-378.421
80.4096
30.9215
-2019.61
-162.71
94.2783
74.8452
615.074
-80.3706
432.288
630.226
4.52047
317.216
-10003.6
3251.68
-9786.23
-5512.8
2972.69
57989
17471.2
30971.4
179264
-6500.74
-11046
-12478.5
36208.8
-8587.8
22627.5
26788
-2579.92
12275.3
-31860.6
-24598
-102770
3384.28
2811.59
-14999
-1236.81
-1393.98
-544.213
-102.637
-321.756
-1939.45
-600.171
21.3356
-93.3728
1381.35
3364.66
23.9769
31.0372
-142.025
15.9965
-19.0264
-14.9343