/*--------------------------------*- C++ -*----------------------------------*\
| =========                 |                                                 |
| \\      /  F ield         | OpenFOAM: The Open Source CFD Toolbox           |
|  \\    /   O peration     | Version:  2.3.1                                 |
|   \\  /    A nd           | Web:      www.OpenFOAM.org                      |
|    \\/     M anipulation  |                                                 |
\*---------------------------------------------------------------------------*/
FoamFile
{
    version     2.0;
    format      ascii;
    class       surfaceVectorField;
    location    "0.01";
    object      Uf;
}
// * * * * * * * * * * * * * * * * * * * * * * * * * * * * * * * * * * * * * //

dimensions      [0 1 -1 0 0 0 0];

internalField   nonuniform List<vector> 
119835
(
(6119.37 2711.15 800.8)
(-3050 17673.7 502.602)
(-3926.48 1182.97 16255.8)
(-876.419 10691.7 14634.1)
(11363.7 -880.688 32597.1)
(6379.18 13763.9 -8002.87)
(19024.6 10068.1 5013.62)
(6847.27 35978 -26753.9)
(5089.88 -1080.94 35603.2)
(-5021.19 5746.82 -20075.9)
(12833 -3584.07 -18733.9)
(46444.9 4017.9 -23605.6)
(-11287 11877 -7550.03)
(172668 60500.4 -58887.4)
(-130963 -57087.2 -108339)
(-60170.7 -24110.1 17819.7)
(-186097 200491 -264991)
(241409 -317077 -90086.4)
(-525774 1.70338e+06 -456910)
(126914 -104557 -605349)
(244458 1.09032e+06 -289245)
(-693338 1.7238e+06 -481997)
(-473414 -1.36294e+06 605242)
(-668128 1.66717e+06 -126072)
(-33432.3 -26226.4 -26379.1)
(46028.7 152774 217815)
(-74169.1 144705 116340)
(3126.43 -28293.1 -21227)
(-10566.2 3945.02 -41886.1)
(13602.4 20654 -74251.8)
(55135.3 -20560.8 -81981.8)
(26413.3 -11368.1 1025.93)
(18816.5 -3215.35 24345.5)
(25543.5 -10192.1 -373785)
(1280.53 -687.086 -46329.3)
(-45775.5 6148.79 -71719.2)
(-61670.5 -85683.6 -325727)
(-11008.2 1026.39 -292811)
(-7934.09 24838.2 -634405)
(9.76592e+07 -2.32173e+07 -2.30632e+07)
(2.58828e+07 -1.4377e+06 8.50299e+06)
(2.88728e+07 6.08883e+06 -420292)
(-1.11543e+11 2.25513e+10 -4.42243e+10)
(1.30991e+07 -1.09956e+08 -2.23522e+07)
(-8.19569e+07 -2.18222e+07 -2.52083e+08)
(-6.90196e+10 2.25831e+10 -4.41925e+10)
(-9.02496e+10 4.51319e+10 -4.42027e+10)
(-9.02501e+10 2.26491e+10 -8.87133e+10)
(6.60796e+07 8.68039e+06 8.66748e+06)
(-4.56871e+07 1.5639e+08 8.78578e+06)
(2.06197e+07 8.67597e+06 4.95473e+07)
(-107313 -36216.9 -46683.2)
(2.40408e+07 -307467 -108978)
(2.42671e+07 -35117 -120195)
(-83834.1 -6431.07 7396.45)
(-90999.7 146521 -34392.8)
(-5617.52 15727 28579.6)
(-48447.9 -10128 6193.92)
(-47841.5 -8092.72 13478.5)
(-15436.3 36912.3 32298.9)
(139362 -74779 95224.6)
(78702.7 47340.4 -15528.8)
(44066.3 -55527 -8790.85)
(-95659.7 170226 -116178)
(-25064.9 -47015.7 124491)
(-20139.8 -101944 -50501.4)
(-46831.2 -373688 -143585)
(-26996.6 -305554 -165984)
(77530.4 -12178.1 -57545.3)
(3.46009e+06 -1.2473e+06 914988)
(21134.3 -5502.08 -15549.2)
(497885 -31736.9 -316328)
(102405 410199 -160772)
(-2.01663e+06 258171 -1.30427e+06)
(11856.9 -1468.74 -888159)
(-185807 -447483 -260346)
(-1.01669e+06 3095.25 -1.18065e+06)
(-2.6874e+06 -421900 456803)
(-131437 397659 -659717)
(-335458 -443577 -4.02188e+06)
(2.81616e+06 -273454 1.30505e+06)
(239197 4.20994e+06 552216)
(-5.14891e+06 1.59308e+07 -2.82716e+06)
(-13870.2 165479 202308)
(140215 203669 116834)
(100460 110184 654681)
(-4660.09 6320.44 -19633.2)
(47237.3 -64969.2 186792)
(-137744 31056.2 -37179.9)
(-807.74 55159.3 36678.4)
(233210 337793 465976)
(14535 56539.7 7083.57)
(-2538.08 39161.2 34644.9)
(-9525.09 89604.3 80796.7)
(-5352.64 100948 107639)
(-1.58869e+06 -8.99442e+06 8.53591e+06)
(-137963 2044.3 -260360)
(3910.5 -28527.2 1539.22)
(2.42159e+06 -4.08459e+07 9.21396e+06)
(265904 -1.76177e+07 9.12812e+06)
(280725 -8.97496e+06 1.72084e+07)
(2.85064e+07 -3.18549e+07 -822995)
(1.50641e+07 -1620.83 1.18204e+06)
(-4.26113e+07 -2.60435e+07 2.55979e+07)
(-9.37471e+07 6.93803e+07 -1.43044e+06)
(-11815 -1.17186e+07 -1.45133e+06)
(-257087 1.07382e+07 -1.48452e+07)
(-737642 6.92042e+07 9321.22)
(-4.56821e+07 -229351 -163237)
(-3.99619e+07 6.73946e+07 -635038)
(-193175 -139812 -96687.3)
(-285303 -172613 -76780.4)
(-231405 -171037 -178703)
(-86840.8 36522.1 -35595.3)
(-217408 -126806 -280549)
(-50907.6 -174037 -204958)
(-86262.9 -159203 -233637)
(7854.97 -224378 25375.2)
(368517 94207.6 -53252.7)
(315171 145396 349971)
(25363.8 109524 235991)
(-540298 55438.8 -250973)
(-194646 213511 1.01374e+06)
(-1.10741e+06 2.43257e+06 -1.40939e+06)
(5.86365e+06 8609.08 821904)
(-145776 305704 1.46722e+06)
(21973.1 745726 -376016)
(1.00019e+06 255226 811762)
(3.47274e+06 1.33752e+06 1.99323e+06)
(3.75546e+06 1.64925e+06 1.80167e+06)
(11850.8 59767.7 -104789)
(-108822 -25354 -106951)
(-69061.6 205241 -175985)
(-14926.8 -41753.3 -31903.5)
(841959 3.70958e+06 1.47552e+06)
(327862 -228491 -57161.2)
(-1.05655e+06 1.49404e+06 -564304)
(-65885.6 -92333.6 -23394.3)
(-513664 322643 -98381.5)
(908087 1.37607e+06 -636004)
(53562.7 772617 -524385)
(1.69865e+06 -283271 5.78167e+06)
(-100212 -39888.8 101318)
(74940.6 -40564.9 -137439)
(873814 -279191 -182273)
(520554 -123191 672401)
(25634.6 -87744.8 1.28809e+06)
(1.19055e+06 3.59743e+06 1.3722e+06)
(121568 -85962.2 510094)
(236218 -502651 429561)
(6.91099e+06 -6.80473e+06 1.05662e+07)
(-52543.8 -114388 -214208)
(-23511 -26411.5 59525.3)
(-3.88654e+07 9.42387e+06 1.85774e+07)
(-1.21023e+06 1.26074e+06 331844)
(71621.9 -377551 -19381.9)
(-175859 62608.4 -877361)
(5.13691e+06 -884417 1.09619e+06)
(-1.74757e+08 1.24337e+10 -6.05339e+09)
(9.44101e+07 -6.35543e+07 9.13657e+07)
(-126586 -6.7163e+06 553706)
(-1.25922e+06 -7.28363e+06 1.10853e+06)
(1.91058e+06 -3.07492e+06 1.43621e+06)
(9240.28 -4.40728e+06 -184127)
(2.61729e+06 263477 -2.71365e+06)
(-321316 -4.73812e+06 202724)
(-65887.1 622530 -249338)
(90398.1 302629 155119)
(-261337 1.22964e+06 -1.7758e+06)
(-91402.5 245671 -260642)
(-939888 3.20287e+06 -274937)
(756263 988637 -59496.7)
(-377462 1.68605e+06 -478590)
(955780 -1.06981e+06 764703)
(-604534 864422 -1.1083e+06)
(8.14537e+06 1.94442e+07 -1.00692e+07)
(-353304 345493 -1.58005e+06)
(628628 -448221 1.41696e+06)
(244549 -1.0467e+06 -603024)
(195134 -253027 506688)
(-752374 -617491 2.73192e+06)
(-493432 -947926 1.30456e+06)
(-1.18896e+07 -1.80378e+06 -1.0676e+07)
(149463 -406380 2.63854e+06)
(299556 -9.88106e+06 6.66785e+06)
(3.66093e+06 1.0811e+06 1.66071e+07)
(-6796.16 -8723.62 1.07452e+06)
(406905 -106943 1.16177e+06)
(-214582 3036.71 2.69352e+06)
(3.8473e+06 109654 1.47336e+06)
(-27273.9 -3071.13 -39866.1)
(-162686 -10620.2 4576.19)
(-2.01987e+06 -56167.7 1.48403e+06)
(846608 -3.60778e+06 1.47125e+06)
(846668 109758 2.94257e+06)
(133627 -83375 16525.3)
(-2.64914e+06 1.53741e+07 -1.94094e+07)
(1.06156e+07 1.04622e+07 -3.86141e+06)
(5912.1 66703.2 -25820.6)
(35582.9 38498.9 -46734.4)
(-51407.7 290623 118693)
(-70975.6 -50726.7 1.04934e+06)
(-104162 -78082.4 42726.1)
(548513 63964.6 -136965)
(-7328.05 -102016 1.04525e+06)
(-837191 -116300 871577)
(-551106 -857270 8.8926e+06)
(9723.61 -29583.3 -21007.9)
(1.35833e+07 -7.69842e+06 5.33261e+07)
(-5.0523e+06 3.1652e+07 -3.28337e+06)
(-180508 435521 254351)
(503453 478418 151509)
(215827 306525 159862)
(1.24065e+10 3.11314e+08 -6.05375e+09)
(-2.01529e+07 8.31188e+07 -9.29413e+06)
(-346398 2.39814e+06 2.60016e+06)
(-1.27648e+10 3.10964e+08 -6.05338e+09)
(-2.14202e+08 -1.18611e+10 -6.0659e+09)
(-1.83736e+08 3.02696e+08 -1.21307e+10)
(7.96408e+06 -6.84401e+06 -2.15883e+06)
(-1.15471e+07 1.13744e+07 -6.70739e+06)
(-5.42004e+07 -4.0532e+08 1.82231e+08)
(169023 -1.11426e+07 -2.37441e+06)
(-5.27936e+06 -2.70039e+07 -1.2159e+07)
(4.26711e+06 -1.92099e+07 -9.47459e+06)
(984174 -5.16268e+06 129521)
(4.58302e+07 -1.26778e+08 4.4964e+07)
(9.5964e+06 -8.92829e+06 5.86136e+06)
(-4.80129e+06 3.08758e+06 750408)
(2.51492e+07 -6.87318e+06 1.94464e+06)
(-1.99449e+06 29957.1 -777542)
(2.07869e+07 3.78867e+06 -8.82589e+06)
(1.26736e+06 1.11161e+07 -226009)
(-2.31514e+06 4.59114e+06 7.3588e+06)
(-2.07823e+09 -2.0963e+09 -1.54044e+09)
(3.0399e+06 -1.05731e+07 -3.84016e+07)
(219651 -56309.3 -715426)
(106354 990259 -876509)
(357263 -81340.7 -2.1078e+06)
(-9.06878e+06 -181036 5.24048e+06)
(-1.3689e+06 3.90174e+06 105061)
(-64628.9 -527011 443193)
(9.70033e+06 -520077 5.19107e+06)
(153717 8.76714e+06 5.12183e+06)
(435155 -2.40488e+06 1.17139e+07)
(64932.8 -425575 47381.7)
(363375 -1.04702e+06 275309)
(38917.6 -3.53156e+06 634548)
(-7049.93 -32411.6 -41972.6)
(276366 -196054 11438.2)
(5766.12 -32427.1 -83192.9)
(2.10674e+07 -9.36017e+06 -1.94222e+07)
(1.08779e+06 -776183 482685)
(2.58831 8.86301 -90.3853)
(-2.65757e+07 -9.33967e+06 -1.94727e+07)
(-598065 -2.54814e+07 -3.60752e+07)
(-2.80925e+06 -9.35994e+06 -3.88406e+07)
(-147848 -57428.1 21812.3)
(-1.70045e+06 428188 1.65832e+06)
(-67838.5 827611 -1.09112e+06)
(-209068 -706114 -135033)
(-3.82262e+06 -691569 -1.80256e+06)
(2.02646e+06 2.75847e+06 -1.93407e+06)
(-8.77335e+06 3.369e+07 5.31524e+07)
(3.99661e+07 -7.89964e+06 2.13867e+07)
(1.68985e+07 475591 -1.14553e+06)
(3.49505e+07 3.45129e+07 5.34986e+07)
(3.76479e+07 1.90049e+08 4.87551e+07)
(4.79965e+07 8.30722e+07 2.61502e+08)
(3.96584e+07 -154261 -9.39697e+06)
(-2.40286e+08 -3.60566e+06 -6.27591e+08)
(-1.72883e+07 -6.18494e+07 1.21446e+07)
(-1.71887e+08 1.38134e+07 -2.14469e+07)
(5.4288e+06 -2.23266e+08 -5.63583e+07)
(-1.20841e+08 -1.19894e+08 -6.55662e+07)
(1.96094e+07 8.37389e+06 -1.92238e+07)
(-5.25105e+07 1.68173e+08 -9.13447e+07)
(4.88788e+08 4.14768e+08 2.66203e+08)
(-3.60521e+07 -1.16987e+07 -1.67076e+07)
(-7.09726e+07 -6.65909e+07 2.45261e+07)
(-9.66765e+07 2.29522e+07 -8.27764e+07)
(-2.32399e+07 -5.38471e+07 3.51794e+07)
(-4.12271e+08 6.80487e+08 5.34573e+08)
(-5.45568e+08 5.71205e+08 4.50584e+09)
(1.54861e+08 -7.067e+07 4.67791e+07)
(-2.61843e+09 4.25559e+09 -1.71223e+09)
(1.69141e+08 -1.114e+08 1.79703e+08)
(1.21286e+07 -2.26296e+07 968222)
(4.57967e+07 -8.89939e+07 2.13949e+07)
(3.30636e+07 -2.96781e+07 1.05133e+07)
(-4.17177e+09 -2.61815e+09 -1.53184e+09)
(4.07417e+06 -4.021e+06 -1.56142e+06)
(-4.78556e+06 -2.29334e+06 -1.08333e+07)
(-2.09346e+09 -3.16892e+09 -1.52419e+09)
(-2.08755e+09 -2.61809e+09 -3.05754e+09)
(1.1211e+06 1.64115e+06 -56022.9)
(37666.4 -77942 107516)
(103367 1.7216e+06 -169143)
(-3.0898e+06 1.71202e+06 -13595.4)
(-872150 -847396 -3061.03)
(-1.07133e+06 1.40134e+06 -83279.4)
(-656418 298688 206063)
(-244014 475129 -7841.74)
(-245719 388434 -298241)
(800591 -471422 239366)
(-2.04029e+09 1.39823e+09 -6.47255e+07)
(1.32693e+06 -785392 1.06202e+07)
(17271.9 -464528 536096)
(220857 -1.86532e+06 684806)
(1471.17 946089 1.22287e+06)
(7.51954e+06 -5.21971e+06 -1.61703e+07)
(1.08828e+06 1.51849e+06 280979)
(1.08803e+06 38555.1 965515)
(-1.29102e+06 -6.92665e+06 -1.49442e+07)
(-3.1724e+06 -4.8083e+07 2.13805e+07)
(-2.67725e+07 -8.82163e+07 1.45486e+08)
(-4.46798e+06 -1.36615e+06 -166048)
(7.36359e+07 -8.65031e+07 -4.36306e+07)
(-1.45837e+06 -2.88466e+06 5.10333e+06)
(-1.27963e+07 -1.04319e+06 1.97192e+07)
(-7.17895e+06 5.10229e+06 -5.84362e+06)
(1.69786e+06 -193204 -5.09805e+06)
(1.99704e+08 -241572 1.69894e+07)
(3.96759e+07 5.12637e+06 2.02823e+07)
(7.59236e+07 -5.83012e+06 8.19047e+07)
(-3.19251e+08 5.84405e+06 -6.32334e+08)
(3.75775e+07 -1.76816e+08 9.59491e+06)
(-3.05858e+08 -1.1189e+08 -2.83863e+07)
(-2.98581e+08 -1.51808e+07 -6.74552e+08)
(-2.3006e+08 1.40774e+07 -6.2704e+08)
(-2.81019e+08 201469 -1.393e+09)
(2.15173e+08 1.09843e+07 -1.26256e+08)
(3.06025e+07 1.7612e+08 -1.13277e+08)
(1.86203e+09 -1.4355e+09 -1.53154e+09)
(-2.40366e+08 1.17179e+07 -4.75949e+07)
(-1.36331e+08 -9.27379e+07 -2.6422e+07)
(1.18184e+08 1.93585e+08 -5.66607e+08)
(-2.66597e+08 2.76324e+09 5.75806e+08)
(-1.30667e+08 2.53099e+07 1.26586e+08)
(-3.05993e+07 3.50828e+07 1.45013e+08)
(-1.88611e+09 9.09594e+09 -1.21283e+09)
(-6.26272e+08 3.38787e+09 8.46558e+08)
(-6.01538e+08 3.03519e+09 1.12616e+09)
(-3.99504e+09 6.30836e+09 -1.73761e+09)
(-2.6644e+09 8.39776e+09 -1.75803e+09)
(-2.65043e+09 6.29972e+09 -3.52406e+09)
(5.74635e+07 -6.06699e+06 1.88653e+07)
(4.21078e+07 1.18379e+08 4.54315e+07)
(4.19686e+07 -1.096e+06 7.72809e+07)
(-1.53506e+07 -1.24702e+06 6.09503e+06)
(4.54814e+06 -375951 -550471)
(6.56086e+06 -2.3143e+06 -2.60461e+06)
(-6.98069e+06 1.28515e+07 6.3914e+06)
(-4.88734e+06 3.70731e+06 2.26923e+07)
(-33845.3 -86839.8 160477)
(36352.4 43211.2 209096)
(-98601.9 5809.84 462960)
(287967 -80803.5 2692.65)
(122133 -70166 86487.6)
(34240.8 -70643.9 23630.3)
(-1.99961e+09 1.5052e+09 -6.49394e+07)
(41053.1 -145780 -30029.2)
(-78558.9 -22563.6 -617388)
(-2.08223e+09 1.50527e+09 -6.428e+07)
(-2.04028e+09 1.61261e+09 -6.49549e+07)
(-2.04037e+09 1.50491e+09 -1.51754e+08)
(6.28361e+06 328143 429689)
(123916 1.4501e+06 642370)
(-206425 826083 5.71186e+06)
(-2.90181e+07 -653191 3.78318e+07)
(121321 -188370 -499461)
(4.96914e+06 -688172 -779324)
(8.95853e+07 1.58778e+07 -7.30588e+06)
(-4.23008e+06 3.3144e+07 3.74506e+07)
(-9.02912e+07 1.46514e+08 6.04839e+08)
(7.91095e+07 1.7833e+07 -4.93081e+07)
(7.34645e+07 1.29571e+08 -4.75989e+07)
(-9.74033e+07 -1.7237e+07 -1.66319e+08)
(-1.28239e+07 2.10971e+06 -5.28055e+06)
(-3.44934e+06 -1.816e+06 -3.96853e+06)
(-3.44931e+06 1.04172e+06 -7.93806e+06)
(-4.22132e+06 -2.86737e+07 1.28878e+07)
(-1.05799e+06 2.7857e+06 -1.84994e+06)
(6.90965e+07 -7.89894e+07 -4.40044e+07)
(4.60589e+07 -3.62532e+07 1.48894e+07)
(1.27664e+07 9.37363e+06 1.39037e+07)
(1.90898e+07 -3.80815e+07 3.70103e+07)
(2.31334e+07 4.17856e+06 -6.57644e+07)
(1.22344e+07 -4.41069e+07 2.26363e+06)
(6.20964e+06 4.30727e+06 1.73244e+06)
(-2.86781e+07 -9.44344e+07 -1.34427e+07)
(4.53809e+06 -1.02867e+08 -5.24841e+07)
(1.49824e+07 3.78652e+07 -1.91705e+08)
(-4.13808e+08 -6.021e+07 1.47759e+08)
(-1.23807e+08 -1.51399e+08 5.36815e+07)
(-1.07702e+08 -9.37875e+07 1.16099e+08)
(-1.01297e+09 -5.19801e+08 3.97338e+08)
(-7.53638e+07 1.0322e+08 9.74509e+07)
(-2.1894e+08 2.58041e+07 4.14909e+08)
(6.18809e+08 -5.60227e+08 3.01364e+08)
(-2.19023e+08 3.58226e+08 3.14774e+08)
(-2.93284e+08 -5.34965e+08 5.83944e+08)
(2.20834e+07 6.00255e+07 2.50146e+07)
(2.69745e+06 1.25313e+07 971268)
(-1.76823e+08 -3.37213e+08 1.21495e+08)
(2.58531e+07 5.55255e+07 2.60157e+07)
(2.18161e+07 3.78993e+07 2.43753e+07)
(6.03755e+07 6.30385e+07 1.17671e+08)
(70137.9 1.04043e+07 -254096)
(1.6486e+07 240830 -442759)
(-1.42761e+07 -320272 -9.62909e+06)
(3.77468e+07 9.59645e+07 -3.83133e+07)
(485986 7.86676e+06 -891615)
(98359.2 -11859.9 135106)
(-139048 147069 176096)
(72371.3 -147688 147090)
(53456.4 -53918.3 53765.8)
(22799.6 -55283.7 27966.4)
(31568.2 -2156.33 125389)
(130265 -60324.3 -45522.2)
(-100191 -288114 3415.25)
(414265 100454 262306)
(-50729.9 157336 -32468.2)
(1462.37 -137529 -41892.1)
(20666 -4208.63 -342088)
(311784 -1.55698e+06 -286780)
(-86072.9 14287.8 120720)
(32313.8 688165 608736)
(1.10568e+06 362828 -880669)
(109899 -3.57915e+06 -231536)
(-495075 -2.38234e+06 -1.61652e+06)
(5.58107e+06 5.33964e+06 -2.84242e+06)
(1.39633e+07 -1.15159e+07 8.38316e+06)
(1.21498e+06 -4.29488e+06 262152)
(-7.92308e+06 3.25418e+06 -2.25926e+06)
(-500320 -8.52424e+06 -544240)
(-1.89944e+06 3.25413e+06 -4.51788e+06)
(227083 843979 -537913)
(93082.7 2.0018e+06 49811.2)
(17.7532 326.977 151.011)
(-291327 2.66183e+06 -834042)
(-327153 -115931 -764583)
(43294 843851 -1.07595e+06)
(-3.70431e+06 -1.2069e+07 1.27794e+06)
(363445 231094 -315781)
(-444824 -1.23747e+06 -828267)
(1.24505e+07 -4.05209e+07 1.55439e+07)
(1.2583e+06 3.77565e+06 1.70132e+06)
(9.72077e+06 -2.40687e+07 5.21673e+06)
(-9.02364e+06 -3.067e+07 1.464e+07)
(-251308 -6.65678e+06 1.46855e+07)
(1.87816e+06 2.90088e+07 7.28102e+07)
(1.69165e+06 1.3254e+07 3.37344e+06)
(778336 5.06454e+06 410477)
(-4.42086e+06 -1.50757e+07 3.36018e+06)
(-3.7688e+07 2.50729e+07 1.48873e+07)
(-7.04017e+06 7.8188e+06 1.73235e+06)
(-8.22284e+06 7.60627e+06 7.62397e+06)
(3.33191e+07 1.13429e+07 1.43817e+07)
(2.88724e+06 2.55865e+07 1.21841e+07)
(2.88724e+06 7.78275e+06 2.43679e+07)
(-652291 2.30444e+07 332017)
(6.83411e+06 -777814 2.18163e+06)
(906879 1.93239e+07 1.71661e+07)
(-756719 1.69965e+07 -2.08312e+06)
(-2.3402e+06 3.37624e+07 -3.48482e+06)
(-3.32186e+06 1.35313e+07 -6.23021e+06)
(1.07232e+08 -2.4905e+06 -3.8502e+07)
(4.81451e+06 -2.56284e+07 1.03503e+07)
(1.5849e+07 -2.32104e+06 -623951)
(1.13298e+10 -1.42824e+11 -4.93623e+10)
(3.6057e+07 -1.32291e+09 -3.97154e+09)
(-269682 118539 68956)
(-137302 20385.6 97074.2)
(-161118 57830.1 150600)
(-131468 -153532 -22384.2)
(-24153.6 82134.7 -44123.8)
(-6928.44 -30365.6 -66082.8)
(-209520 -174215 7045.38)
(-130037 -47093.3 8461.49)
(-51576.7 -405337 37853)
(50693.2 -23427 111296)
(167067 -3.30524e+06 464771)
(79499.8 7943.01 35380.3)
(-734674 -6457.68 175963)
(-265909 -23819.5 111876)
(-956290 -404580 2.16819e+06)
(2.38844e+07 -1.8979e+06 9.0323e+06)
(-5587.2 216492 35839.2)
(2.8385e+06 2.49584e+07 -2.2719e+07)
(2.80591e+06 -1.6651e+06 1.06813e+07)
(1.28314e+07 5.65659e+06 8.97204e+06)
(1.28245e+07 -1.89186e+06 1.51607e+07)
(3.59445e+06 451449 1.76484e+06)
(-143959 5.96707e+06 74340.5)
(-1.27209e+06 -5.00176e+06 1.7939e+07)
(-2.14742e+06 77937.6 -176859)
(-3.76403e+06 -6.32992e+06 1.15977e+06)
(93256.1 217383 99394.8)
(1.77238e+06 235165 -246322)
(-387569 -273277 -197527)
(-1.07178e+06 914060 -1.27051e+06)
(206281 88552.4 107603)
(84489.9 465894 -506541)
(1.14813e+06 97609.4 -50061.8)
(-592623 -1.84998e+06 842896)
(-946504 -4.54901e+06 2.72906e+06)
(-122884 -1.07952e+06 486797)
(-54109.6 -111260 119473)
(-425402 1.98233e+06 -530802)
(-133485 -188258 751351)
(1.10417e+06 282561 455979)
(1.27558e+06 -2.34881e+06 1.33921e+06)
(-79977.6 -9.18526e+06 2.91708e+06)
(3.41387e+06 3.03599e+06 -1.23061e+06)
(3.10575e+06 -1.38121e+06 110033)
(958943 1.36729e+06 -633334)
(-833574 1.18902e+06 -970784)
(1.71931e+06 -4.44242e+06 -785692)
(357086 1.18916e+06 -1.94192e+06)
(-72965.9 3.68656e+06 -15980.5)
(5.00089e+07 19182.5 -967867)
(-247.03 -325.524 547.884)
(1.1673e+07 -4.98636e+06 -1.63521e+06)
(-2.03844e+07 1.80059e+07 -5.14923e+06)
(3.898e+06 3.68674e+06 -32965.7)
(-4.96906e+07 164784 8.94861e+06)
(2.01441e+08 1.41409e+10 -6.84611e+09)
(-1.79244e+06 -8.42353e+06 -3.70235e+06)
(2.25915e+10 -8.19886e+10 -4.93134e+10)
(3.94232e+06 5.2633e+07 6.1704e+06)
(-1.67284e+07 8.64349e+06 2.38499e+07)
(1.12336e+10 -2.13069e+10 -4.92832e+10)
(1.12275e+10 -8.19746e+10 -9.87894e+10)
(125769 -88227.6 -16005.5)
(-25836.3 -28492.8 39638.1)
(40827.8 16657.2 1171.77)
(-101447 -89319.2 -13278.1)
(2.47105e+06 6.06773e+06 -3.67765e+06)
(-17117.9 -45320.9 -58723.2)
(-2.39223e+06 -717686 466187)
(622676 -1.14473e+06 418072)
(40792.3 -61353.7 34719.2)
(2.72449e+06 -708581 465351)
(166908 1.89155e+06 460616)
(172047 -698916 1.19772e+06)
(6058.69 18824.8 -28248)
(14547.4 59626.5 -9471.8)
(-690719 -168541 25981.3)
(47112.4 46816.8 -24416)
(21884 6803.57 -32447.7)
(31715.8 43731.5 -355554)
(359579 1.56381e+06 -1.63496e+06)
(1.14772e+06 -428250 400824)
(5.49381e+06 -188501 480318)
(-9.51582e+06 -1.16488e+06 -530723)
(-2.15259e+06 -880101 -1.82063e+06)
(-2.31993e+06 641502 -4.98074e+06)
(-1.69151e+06 -2.73838e+06 1.1391e+06)
(-4.9395e+06 -871104 855362)
(-3.8716e+06 -3.88094e+06 2.65745e+06)
(72941.6 -9906.57 -457747)
(-6.4876e+06 -3.30276e+06 1.26307e+07)
(-2.5505e+07 1.23072e+07 7.691e+06)
(-4.59283e+06 204909 2.11491e+06)
(-2.91261e+06 -68931.9 224165)
(-1.02309e+06 28219.9 -973959)
(-320607 175752 -328336)
(-2.46913e+06 72503 4.86934e+06)
(-681805 108577 -324786)
(2.22363e+06 -289928 3.22537e+06)
(-3.39854e+06 7.03929e+06 829402)
(1.132e+07 -3.241e+08 -5.90488e+08)
(3.82527e+08 2.35943e+08 -5.78586e+08)
(-205935 3.15677e+06 1.19612e+06)
(-989838 9.32862e+06 2.6224e+06)
(-9.37574e+06 -63892.2 7.81967e+06)
(3.17971e+08 4.5534e+08 -8.84133e+08)
(9.92697e+07 7.21683e+07 1.52157e+06)
(4.07818e+06 -1.66683e+06 993261)
(6.42786e+06 3.43773e+06 -917495)
(5.22893e+06 -9.96861e+06 1.2931e+07)
(2.23933e+06 -3.76749e+06 554952)
(4.04793e+06 -6.52655e+06 4.79443e+06)
(2.58325e+06 -749336 1.75059e+06)
(2.59475e+06 -3.47025e+06 -782774)
(6.26997e+06 -7.33332e+06 3.90923e+06)
(740878 -1.25738e+06 1.27518e+06)
(1.08974e+08 -832866 -6.10112e+06)
(5.28637e+07 -4.53105e+06 -351357)
(5.00088e+07 -902752 -1.93708e+06)
(1.40293e+10 3.19738e+08 -6.84963e+09)
(1.93647e+07 -1.2053e+08 -6.4517e+06)
(-6.56769e+07 296214 8.63524e+07)
(-1.36377e+10 3.23664e+08 -6.84889e+09)
(2.03969e+08 -1.29939e+10 -6.89535e+09)
(2.03151e+08 3.19502e+08 -1.36849e+10)
(-1.31003e+08 4.13271e+06 3.63457e+07)
(-1.62234e+08 -3.72178e+08 -1.91895e+07)
(9.52753e+06 2.68744e+06 -6.25724e+06)
(8.5135e+06 830341 -4.53863e+07)
(-1.14369e+08 8.47419e+06 -1.996e+08)
(8.99655e+06 2.20149e+06 -2.258e+07)
(-5.98974e+07 1.2555e+08 4.10979e+07)
(-3.86818e+07 1.09652e+08 1.01874e+08)
(-3.86734e+07 1.93361e+08 1.39025e+08)
(-3.9003e+07 90490.3 5.42641e+07)
(-3.89927e+07 23796.2 7.14857e+07)
(3.85409e+06 -1.6521e+06 -3.62201e+06)
(-71377.8 592985 5206.79)
(-120082 -455343 -573272)
(735309 -1.10714e+06 -3.2463e+06)
(4.04227e+06 -5.4971e+06 -4.39691e+06)
(2.1028e+06 -1.76941e+06 -6.01669e+06)
(1.50828e+06 615751 412501)
(589438 2.45944e+06 398705)
(487060 634821 1.02049e+06)
(-7740.71 24707.1 -14206.6)
(-50071 -50782.2 -39854.3)
(38746.3 -152565 -99086.5)
(53669.2 47798.9 -13671.4)
(205992 52130.8 164133)
(50825.8 154947 -48610.4)
(2.12296e+06 -1.2505e+06 392793)
(159863 1.25584e+06 -949181)
(244772 1.67417e+06 -61625.3)
(217875 -1.9532e+06 215158)
(1.03172e+06 -2.32946e+06 383172)
(1.5817e+06 -2.29167e+06 1.22541e+06)
(-3.03058e+06 -786849 -434543)
(-623803 -1.23116e+06 -171449)
(-387473 -711984 -413962)
(-8.63268e+06 -5.56712e+06 1.2347e+07)
(-1.20083e+06 48545 -238746)
(-1.12846e+06 -165776 -631002)
(4.31026e+06 -1.45331e+06 8.9498e+06)
(-8.41041e+06 -7.71242e+06 1.99751e+07)
(-6.108e+06 9.65002e+06 2.53559e+07)
(-2.72089e+06 -5.12781e+06 6.38063e+06)
(3.75085e+06 1.47258e+06 1.3595e+07)
(-2.29104e+07 -1.38737e+06 1.4186e+07)
(-1.83312e+06 1.68461e+06 408640)
(-400703 1.97752e+06 -1.10387e+06)
(-3.01356e+06 5.48665e+06 995568)
(1.78131e+06 239388 -681657)
(8.95923e+08 7.3928e+07 -4.35919e+08)
(-5.71645e+06 -5.92756e+06 -1.3547e+06)
(-1.98794e+06 221752 -1.85275e+06)
(2.07938e+06 1.65739e+07 2.88367e+06)
(-2.52205e+07 4.23024e+07 -3.63775e+06)
(9.7474e+06 5.55716e+06 2.26558e+06)
(-4.10285e+08 1.10075e+08 -5.81348e+08)
(4.19775e+07 8.66142e+07 1.54614e+07)
(-2.37862e+07 1.2759e+07 -139504)
(-1.16309e+07 8.80155e+07 9.19832e+07)
(1.00493e+07 9.9258e+06 1.15093e+07)
(-2.92497e+07 2.00146e+07 -2.88361e+07)
(6.98213e+06 1.0034e+07 4.79789e+06)
(9.56721e+06 -2.97831e+06 8.14871e+06)
(-1.62413e+06 3.94095e+06 5.56241e+06)
(4.92935e+06 -801011 1.46732e+07)
(1.99045e+06 -1.10178e+06 1.26502e+07)
(5.58523e+06 -876738 1.49623e+07)
(2.19471e+06 -822932 1.59013e+07)
(6.42665e+06 -2.93773e+06 4.34065e+06)
(5.91762e+06 1.83522e+06 4.54896e+06)
(3.49693e+06 -1.3856e+06 7.51558e+06)
(3.23014e+06 -1.33398e+06 6.25452e+06)
(3.42989e+06 -1.28476e+06 5.79537e+06)
(3.22959e+06 -1.28101e+06 6.39422e+06)
(5.71493e+06 -5.72923e+07 -701943)
(3.14592e+06 807017 679524)
(1.9101e+06 -578547 1.01257e+06)
(1.76882e+06 -369410 1.59106e+06)
(1.82326e+06 -690408 1.97025e+06)
(1.81648e+06 -738892 1.1181e+06)
(1.5848e+08 1.71916e+08 -5.21788e+07)
(4.48006e+07 -3.69514e+06 -1.166e+06)
(2.89805e+07 -3.78971e+07 -2.73681e+06)
(2.90866e+07 -3.76473e+07 -2.18684e+06)
(2.90088e+07 -3.75505e+07 -3.95634e+06)
(2.90255e+07 -3.74836e+07 -2.03487e+06)
(-4.08931e+08 3.29159e+07 -6.56524e+07)
(-5.55545e+06 -6.25877e+08 -6.73699e+07)
(-350149 1.35349e+08 -9.76598e+07)
(666621 1.36396e+08 -9.97394e+07)
(257936 1.51995e+08 -1.18479e+08)
(-9.57719e+06 1.64001e+08 -6.6182e+08)
(-2.04306e+07 -1.62466e+08 -1.44373e+07)
(-1.21042e+08 -2.41452e+07 -9.62697e+06)
(-1.19881e+08 -1.4576e+08 -1.6469e+07)
(-1.17601e+08 -1.98461e+07 -9.79456e+06)
(-1.20129e+08 -2.10654e+07 -9.60078e+06)
(-1.17635e+08 -1.91258e+07 -9.03044e+06)
(-1.18237e+08 -1.28169e+08 -3.14672e+07)
(-1.18186e+08 -1.30348e+08 -2.43562e+07)
(-1.15893e+08 -1.26497e+08 -2.1435e+07)
(-429086 495345 327179)
(-2.25541e+07 2.02791e+07 -5.16578e+06)
(-718562 1.08015e+06 130385)
(-217680 1.16771e+06 742734)
(-925233 462470 234911)
(-1.01413e+06 2.1812e+07 729335)
(-866176 2.18357e+07 660285)
(-943971 2.1862e+07 490045)
(1.64615e+06 1.84907e+06 -769691)
(-25218.9 -9718.89 -52954.6)
(-189850 53520.6 -171384)
(1.42468e+06 1.66339e+06 -751900)
(1.54913e+06 -948331 -736685)
(1.43577e+06 1.56088e+06 -1.7827e+06)
(-195906 -33053.4 -53650.7)
(123144 -29202.5 -258.581)
(-1.18626e+06 1.15158e+06 -1.90253e+06)
(116310 92350.6 138485)
(45145.2 -89414.7 100883)
(-26294.9 -16842.1 -101119)
(1.83008e+06 630932 -771377)
(273551 368461 163480)
(218177 235502 561143)
(-1.37771e+06 249871 -958802)
(-111161 -304350 -2.46107e+06)
(-498069 -6.32687e+06 -3.2858e+06)
(-75522.6 -211439 -3435.06)
(16283.3 -426606 601991)
(-88775.6 -179171 -27486.9)
(-48084.8 68892.7 24347.7)
(15976.7 275509 -83193.1)
(-15201.6 12616.3 19484.6)
(-307707 117680 7.38943e+06)
(-120891 82729.8 29254.3)
(1.85629e+06 82393.2 46695)
(-76083 -564022 9.41607e+06)
(-2.04216e+06 341142 7.47013e+06)
(67891.3 221447 2.96495e+07)
(-201757 531752 -6.76044e+07)
(2.54508e+06 -4.47565e+07 2.04357e+08)
(-1.90213e+08 -4.48409e+06 -1.66505e+06)
(-415041 -1.47131e+06 1.85995e+06)
(-6.52419e+06 -1.76721e+06 3.18401e+06)
(-2.96403e+06 -461627 -5.10147e+07)
(-1.82042e+06 -3.40662e+07 9.24257e+06)
(-8.32768e+07 -557494 -1.36824e+08)
(7.09265e+06 -4.33506e+07 -1.01122e+08)
(3.48695e+07 -5.89623e+07 -6.97999e+08)
(1.24531e+06 6.29498e+07 -9.07194e+07)
(9148.74 1.85157e+08 -7.33294e+07)
(5.80843e+06 3.67745e+07 -8.98668e+07)
(1.00393e+07 2.05813e+08 3.19248e+06)
(1.1429e+08 -2.22612e+06 -9.00733e+07)
(1.04532e+08 -2.87771e+06 -8.95934e+07)
(3.19212e+07 -488127 -8.9701e+07)
(3.64652e+07 -1.75897e+06 -1.00101e+08)
(3.95226e+06 -4.8824e+07 -8.76922e+07)
(9.70351e+07 -3.41975e+08 1.00187e+09)
(1.82453e+07 -4.55238e+07 -8.64629e+07)
(-1.72054e+07 862305 -959015)
(-3.25088e+07 -1.6191e+07 -975527)
(1.32803e+08 1.65875e+07 -1.92172e+06)
(-2.53347e+07 -55342 -2.82393e+07)
(2.8311e+08 -7.97116e+06 2.61456e+07)
(-8.67191e+07 1.06064e+07 -4.69656e+07)
(1.92226e+06 1.35579e+06 1.96266e+06)
(-2.37922e+06 157588 2.47582e+06)
(-1.68511e+06 296300 2.04464e+06)
(-2.38793e+06 651505 3.40448e+06)
(-2.28805e+06 515941 779048)
(-1.76332e+06 595497 3.43953e+06)
(1.742e+06 776384 887837)
(1.67072e+06 1.49385e+06 -5.81855e+06)
(729948 434576 1.56111e+06)
(674653 438113 1.47591e+06)
(743772 405952 2.03672e+06)
(666187 449913 1.55154e+06)
(-220468 -486911 215467)
(531471 138705 -109509)
(171360 80619.2 148639)
(123101 106258 133748)
(227969 109054 210307)
(162707 155331 559134)
(2.62166e+07 -2.94334e+08 -1.63571e+07)
(638916 515534 185761)
(478962 407366 812527)
(703319 -356081 290689)
(993066 -2.52045e+06 -2.82255e+06)
(733030 -387381 331420)
(-3.30107e+07 -1.98572e+08 -1.0772e+07)
(-4.43461e+06 -2.40981e+07 -1.10267e+07)
(-4.25371e+06 -1.9581e+08 -2.21207e+07)
(-2.513e+07 -1.95535e+08 -1.09505e+07)
(-2.95522e+07 -1.97698e+08 -1.07458e+07)
(-2.63836e+07 -1.94809e+08 -1.03832e+07)
(-4.28161e+06 -2.60994e+07 -1.11463e+07)
(-4.27918e+06 -2.27069e+07 -1.09432e+07)
(-3.66521e+06 -2.8462e+07 -4.67123e+06)
(-4.33778e+06 -1.95653e+08 -2.66706e+07)
(-4.20128e+06 -1.95787e+08 -2.24535e+07)
(-4.77308e+06 -2.03082e+08 -1.54289e+07)
(690939 -3.19701e+06 226192)
(-2.99558e+06 1.41044e+06 218014)
(-3.68622e+06 -3.469e+06 597030)
(925805 -1.37803e+06 118105)
(684454 -233125 -11890.1)
(414615 -1.37911e+06 519325)
(907997 105999 429466)
(-35807.7 -10283 -19947.9)
(-165194 -318550 -41721)
(-8130.71 -27244.8 -201655)
(140724 -49289.2 14956.5)
(494833 500089 -61403.7)
(27952.1 -6526.42 -20791.5)
(117690 -42598.5 154275)
(132667 -297601 120929)
(172119 -45573.5 66125.1)
(416656 875357 125878)
(142990 44113.8 139371)
(103528 17449.4 300326)
(-6954.22 -1.83089e+06 -1.52622e+06)
(-1.73238e+06 3.57876e+06 -1.37243e+06)
(-7.46102e+06 -2.00145e+06 -220309)
(-759936 -1.99632e+06 -900282)
(-290688 -9.49233e+06 3.53149e+06)
(867630 1.88166e+06 -6.48957e+06)
(648819 928335 522233)
(2.92785e+06 3.94172e+06 1.50524e+07)
(928875 1.45733e+07 2.84702e+06)
(-128845 234245 -78286.5)
(1.32026e+07 -1.97621e+07 -5.74996e+06)
(13947 491925 -352397)
(52510.2 160989 109960)
(-664814 404605 -301119)
(7714.19 10063.1 36758.1)
(-1.30147e+06 -3.37834e+06 -298336)
(-1.15906e+08 2.77285e+06 1.53913e+06)
(-28604.1 -1.27589e+06 842994)
(-1.24041e+06 -1.14522e+07 612774)
(-2.29237e+06 1.06146e+08 -7.17441e+07)
(-610972 -8.05899e+07 2.89277e+06)
(-4.57006e+06 1.89484e+06 -5.46621e+07)
(-1.02613e+07 3.04394e+07 -1.08464e+07)
(1.44327e+06 -6.96775e+06 139149)
(-2.42495e+07 7.69272e+07 -1.24094e+06)
(1.45239e+07 2.46082e+07 -1.90519e+07)
(-5.39827e+06 -1.41666e+07 -6.88308e+06)
(-8.14082e+06 -8.1063e+06 -6.67164e+06)
(6.91774e+07 -3.51991e+07 -1.74586e+08)
(2.25557e+06 -1.34442e+06 2.45931e+06)
(-3.03629e+06 3.55637e+06 1.13216e+06)
(-1.28756e+07 -1.31522e+07 2.92916e+06)
(-1.58209e+06 -8.95013e+06 2.87336e+06)
(-5.43959e+06 -791636 142008)
(-1.13767e+07 -1.32713e+07 4.10271e+06)
(-4.31369e+06 -4.27169e+06 5.20387e+06)
(-235891 40100.6 -699186)
(-5.09777e+06 -793127 5.87954e+06)
(-3.75978e+06 2.0355e+06 5.84159e+06)
(2.86473e+06 594449 -5.30539e+06)
(1.00581e+06 1.93985e+06 371895)
(2.50156e+06 949773 2.9702e+06)
(977174 415910 2.44626e+06)
(2.0611e+06 -751679 1.16686e+07)
(-3.69357e+07 -631345 3.32142e+06)
(516012 -659585 -6.8159e+06)
(598666 -1.52125e+06 -1.34936e+07)
(445274 -2.13159e+07 282184)
(473287 -318892 403147)
(292449 -390926 -5.57077e+07)
(4.85472e+06 -951402 -245101)
(186676 -759019 -139215)
(737268 -2.6914e+06 -230649)
(153472 -438920 268009)
(166639 -953587 200619)
(81351.4 -909500 73084.1)
(198274 -330692 -1.54544e+06)
(-594637 -976812 1827.47)
(1.27261e+06 -2.32061e+06 371455)
(-335473 -46738.5 52027.5)
(-35053.6 54037.1 -1.78602e+06)
(-367961 -982804 85393.3)
(-7.38068e+06 252930 -269774)
(-364336 -92703.7 54787.6)
(-280597 -191850 110948)
(-494752 -206518 28353.3)
(-264559 -1.70062e+06 -119930)
(-254112 627862 -1.37117e+06)
(-252468 -1.33888e+06 -38198.1)
(-1.00559e+06 80318.7 584442)
(38399.2 -970359 437579)