/*--------------------------------*- C++ -*----------------------------------*\
| =========                 |                                                 |
| \\      /  F ield         | OpenFOAM: The Open Source CFD Toolbox           |
|  \\    /   O peration     | Version:  2.3.1                                 |
|   \\  /    A nd           | Web:      www.OpenFOAM.org                      |
|    \\/     M anipulation  |                                                 |
\*---------------------------------------------------------------------------*/
FoamFile
{
    version     2.0;
    format      ascii;
    class       surfaceScalarField;
    location    "0.2";
    object      phi;
}
// * * * * * * * * * * * * * * * * * * * * * * * * * * * * * * * * * * * * * //

dimensions      [0 3 -1 0 0 0 0];

internalField   nonuniform List<scalar> 
5856
(
3.98618e-07
-3.98618e-07
6.53867e-07
-2.55249e-07
6.50857e-07
3.01021e-09
4.07781e-07
2.43076e-07
-6.3771e-08
4.71552e-07
-7.35124e-07
6.71353e-07
-1.55396e-06
8.18836e-07
-2.4369e-06
8.82937e-07
-3.29182e-06
8.54919e-07
-4.04092e-06
7.49107e-07
-4.63241e-06
5.91483e-07
4.0809e-07
-5.0405e-06
-1.50953e-07
-2.47666e-07
-6.12939e-07
2.06737e-07
-1.31512e-06
7.05192e-07
-2.18316e-06
1.11112e-06
-3.11255e-06
1.40094e-06
-3.99485e-06
1.55366e-06
-4.73788e-06
1.56186e-06
-5.28968e-06
1.43473e-06
-5.63735e-06
1.20259e-06
-5.79517e-06
9.06923e-07
-5.79292e-06
5.89237e-07
2.82617e-07
-5.66745e-06
-6.91069e-07
4.43404e-07
-1.59397e-06
1.10963e-06
-2.52054e-06
1.63177e-06
-3.36797e-06
1.95855e-06
-4.04837e-06
2.08133e-06
-4.51759e-06
2.02288e-06
-4.78188e-06
1.82615e-06
-4.88625e-06
1.53911e-06
-4.88864e-06
1.20498e-06
-4.83674e-06
8.55017e-07
-4.75475e-06
5.0725e-07
1.72207e-07
-4.64434e-06
-8.71788e-07
1.31519e-06
-1.81822e-06
2.05607e-06
-2.62761e-06
2.44116e-06
-3.22911e-06
2.56005e-06
-3.62345e-06
2.47567e-06
-3.86636e-06
2.26579e-06
-4.02948e-06
1.98927e-06
-4.16197e-06
1.67159e-06
-4.271e-06
1.31401e-06
-4.32982e-06
9.13841e-07
-4.30481e-06
4.82237e-07
3.71883e-08
-4.16979e-06
-7.61442e-07
2.07663e-06
-1.54753e-06
2.84215e-06
-2.14317e-06
3.0368e-06
-2.53665e-06
2.95353e-06
-2.80078e-06
2.7398e-06
-3.02473e-06
2.48975e-06
-3.2607e-06
2.22524e-06
-3.50648e-06
1.91737e-06
-3.72009e-06
1.52762e-06
-3.84795e-06
1.0417e-06
-3.84938e-06
4.83673e-07
-8.08093e-08
-3.73138e-06
-5.10392e-07
2.58703e-06
-1.07349e-06
3.40525e-06
-1.47134e-06
3.43465e-06
-1.73927e-06
3.22145e-06
-1.9795e-06
2.98003e-06
-2.26855e-06
2.77879e-06
-2.62519e-06
2.58188e-06
-3.01516e-06
2.30733e-06
-3.36791e-06
1.88037e-06
-3.59936e-06
1.27315e-06
-3.6447e-06
5.29013e-07
-2.60278e-07
-3.46523e-06
-1.95011e-07
2.78204e-06
-5.43384e-07
3.75362e-06
-7.79664e-07
3.67093e-06
-9.70888e-07
3.41268e-06
-1.21626e-06
3.22541e-06
-1.57454e-06
3.13707e-06
-2.05358e-06
3.06092e-06
-2.60674e-06
2.86049e-06
-3.13125e-06
2.40489e-06
-3.49468e-06
1.63658e-06
-3.58798e-06
6.22315e-07
-4.75176e-07
-3.37308e-06
1.51548e-07
2.63049e-06
6.70826e-09
3.89846e-06
-9.70565e-08
3.7747e-06
-2.2587e-07
3.54149e-06
-4.59353e-07
3.45889e-06
-8.59709e-07
3.53743e-06
-1.44246e-06
3.64368e-06
-2.14728e-06
3.56531e-06
-2.82575e-06
3.08335e-06
-3.29125e-06
2.10208e-06
-3.40195e-06
7.33017e-07
-7.39399e-07
-3.13773e-06
5.00813e-07
2.12968e-06
5.76636e-07
3.82264e-06
5.84104e-07
3.76723e-06
5.32747e-07
3.59285e-06
3.4892e-07
3.64272e-06
-3.31192e-08
3.91947e-06
-6.36734e-07
4.24729e-06
-1.38824e-06
4.31682e-06
-2.10479e-06
3.79989e-06
-2.57926e-06
2.57656e-06
-2.66017e-06
8.13927e-07
-1.03328e-06
-2.36629e-06
7.42369e-07
1.38731e-06
1.10845e-06
3.45656e-06
1.27603e-06
3.59965e-06
1.33791e-06
3.53097e-06
1.25366e-06
3.72697e-06
9.7751e-07
4.19562e-06
4.91632e-07
4.73317e-06
-1.34057e-07
4.94251e-06
-7.33657e-07
4.39949e-06
-1.12065e-06
2.96355e-06
-1.17312e-06
8.66397e-07
-1.32947e-06
-8.76934e-07
8.28193e-07
5.59115e-07
1.56825e-06
2.7165e-06
2.00117e-06
3.16673e-06
2.20514e-06
3.327e-06
2.25815e-06
3.67395e-06
2.17038e-06
4.28339e-06
1.92634e-06
4.97721e-06
1.5767e-06
5.29215e-06
1.2403e-06
4.7359e-06
1.03317e-06
3.17067e-06
1.02006e-06
8.79513e-07
-1.58884e-06
1.27942e-06
1.83789e-07
3.75325e-07
1.54382e-06
1.35647e-06
2.5493e-06
2.16125e-06
3.08328e-06
2.79302e-06
3.35215e-06
3.40509e-06
3.49152e-06
4.14402e-06
3.55125e-06
4.91748e-06
3.5525e-06
5.2909e-06
3.53584e-06
4.75255e-06
3.54753e-06
3.15898e-06
3.61028e-06
8.16768e-07
3.77503e-06
-1.75359e-06
-5.26313e-06
2.22633e-07
-5.32383e-06
6.07027e-08
-5.23985e-06
-8.398e-08
-4.99027e-06
-2.49581e-07
-4.58869e-06
-4.01578e-07
-4.04927e-06
-5.39422e-07
-3.37227e-06
-6.77005e-07
-2.56136e-06
-8.10908e-07
-1.65043e-06
-9.10924e-07
-7.54896e-07
-8.95537e-07
-1.14182e-07
-6.40714e-07
-1.14182e-07
-5.43163e-06
-1.31858e-08
-5.13591e-06
-2.35017e-07
-4.80426e-06
-4.15627e-07
-4.46206e-06
-5.91783e-07
-4.09786e-06
-7.65775e-07
-3.69306e-06
-9.44227e-07
-3.2311e-06
-1.13896e-06
-2.68453e-06
-1.35748e-06
-2.01635e-06
-1.5791e-06
-1.21559e-06
-1.6963e-06
-4.12304e-07
-1.444e-06
-5.26486e-07
-4.52648e-06
-1.31041e-07
-4.31263e-06
-4.48871e-07
-4.02364e-06
-7.04614e-07
-3.69146e-06
-9.23963e-07
-3.34021e-06
-1.11702e-06
-2.98635e-06
-1.29809e-06
-2.63913e-06
-1.48618e-06
-2.29211e-06
-1.70451e-06
-1.90182e-06
-1.96939e-06
-1.36856e-06
-2.22957e-06
-6.25309e-07
-2.18725e-06
-1.15179e-06
-3.93689e-06
-3.63937e-07
-3.65886e-06
-7.26905e-07
-3.33384e-06
-1.02963e-06
-2.98558e-06
-1.27222e-06
-2.63463e-06
-1.46798e-06
-2.29665e-06
-1.63607e-06
-1.98476e-06
-1.79807e-06
-1.71105e-06
-1.97822e-06
-1.47397e-06
-2.20647e-06
-1.19908e-06
-2.50445e-06
-6.87479e-07
-2.69885e-06
-1.83927e-06
-3.45921e-06
-6.36111e-07
-3.10214e-06
-1.08397e-06
-2.70695e-06
-1.42483e-06
-2.31365e-06
-1.66552e-06
-1.94975e-06
-1.83187e-06
-1.62913e-06
-1.95669e-06
-1.35596e-06
-2.07124e-06
-1.13142e-06
-2.20276e-06
-9.62412e-07
-2.37547e-06
-8.39321e-07
-2.62754e-06
-5.96063e-07
-2.94211e-06
-2.43534e-06
-3.11233e-06
-9.89012e-07
-2.63638e-06
-1.55992e-06
-2.12208e-06
-1.93912e-06
-1.6403e-06
-2.1473e-06
-1.23368e-06
-2.2385e-06
-9.17236e-07
-2.27313e-06
-6.87782e-07
-2.30069e-06
-5.33086e-07
-2.35746e-06
-4.4074e-07
-2.46782e-06
-4.09083e-07
-2.6592e-06
-3.8289e-07
-2.9683e-06
-2.81823e-06
-2.89485e-06
-1.46724e-06
-2.25501e-06
-2.19977e-06
-1.57709e-06
-2.61704e-06
-9.65743e-07
-2.75865e-06
-4.84355e-07
-2.71989e-06
-1.52856e-07
-2.60463e-06
3.99195e-08
-2.49347e-06
1.18858e-07
-2.4364e-06
1.09463e-07
-2.45842e-06
3.42049e-08
-2.58394e-06
-9.88129e-08
-2.83528e-06
-2.91704e-06
-2.55189e-06
-2.05308e-06
-1.77664e-06
-2.97501e-06
-9.63867e-07
-3.42981e-06
-2.4166e-07
-3.48086e-06
3.09581e-07
-3.27113e-06
6.61039e-07
-2.95609e-06
8.25051e-07
-2.65748e-06
8.32992e-07
-2.44434e-06
7.17344e-07
-2.34277e-06
5.00662e-07
-2.36726e-06
2.04694e-07
-2.53932e-06
-2.71235e-06
-1.7417e-06
-2.67767e-06
-9.30753e-07
-3.78596e-06
-9.22341e-08
-4.26833e-06
6.42758e-07
-4.21585e-06
1.19409e-06
-3.82246e-06
1.53147e-06
-3.29347e-06
1.66083e-06
-2.78684e-06
1.60633e-06
-2.38984e-06
1.39508e-06
-2.13152e-06
1.03919e-06
-2.01138e-06
5.49071e-07
-2.0492e-06
-2.16327e-06
-2.98929e-07
-3.25568e-06
4.21838e-07
-4.50673e-06
1.14404e-06
-4.99053e-06
1.76154e-06
-4.83335e-06
2.21175e-06
-4.27267e-06
2.47145e-06
-3.55317e-06
2.54185e-06
-2.85724e-06
2.43187e-06
-2.27986e-06
2.14925e-06
-1.8489e-06
1.67799e-06
-1.54011e-06
9.80967e-07
-1.35217e-06
-1.18231e-06
1.70829e-06
-3.68454e-06
2.21135e-06
-5.00979e-06
2.6937e-06
-5.47287e-06
3.08484e-06
-5.22449e-06
3.34761e-06
-4.53544e-06
3.4718e-06
-3.67735e-06
3.4578e-06
-2.84325e-06
3.30008e-06
-2.12214e-06
2.97973e-06
-1.52856e-06
2.44682e-06
-1.0072e-06
1.58846e-06
-4.93811e-07
4.06152e-07
3.99221e-06
-3.90173e-06
4.21305e-06
-5.23063e-06
4.39076e-06
-5.65059e-06
4.49833e-06
-5.33206e-06
4.52958e-06
-4.56669e-06
4.48992e-06
-3.63769e-06
4.38204e-06
-2.73536e-06
4.19449e-06
-1.93459e-06
3.88723e-06
-1.2213e-06
3.35442e-06
-4.74385e-07
2.38911e-06
4.715e-07
2.79526e-06
3.99045e-07
-3.99045e-07
6.54675e-07
-2.5563e-07
6.51885e-07
2.7904e-09
4.08899e-07
2.42986e-07
-6.2717e-08
4.71616e-07
-7.34268e-07
6.71551e-07
-1.55334e-06
8.19074e-07
-2.4365e-06
8.83154e-07
-3.29157e-06
8.55076e-07
-4.04078e-06
7.49205e-07
-4.6323e-06
5.91527e-07
4.08104e-07
-5.04041e-06
-1.50811e-07
-2.48234e-07
-6.12871e-07
2.0643e-07
-1.31519e-06
7.05107e-07
-2.1834e-06
1.1112e-06
-3.11292e-06
1.40113e-06
-3.99527e-06
1.55391e-06
-4.7383e-06
1.5621e-06
-5.29007e-06
1.43492e-06
-5.6377e-06
1.20271e-06
-5.79547e-06
9.06971e-07
-5.79317e-06
5.89233e-07
2.82587e-07
-5.66766e-06
-6.91345e-07
4.43111e-07
-1.5945e-06
1.10958e-06
-2.52127e-06
1.63188e-06
-3.36882e-06
1.95875e-06
-4.04924e-06
2.08156e-06
-4.51843e-06
2.02309e-06
-4.78264e-06
1.82631e-06
-4.88692e-06
1.5392e-06
-4.88921e-06
1.205e-06
-4.8372e-06
8.54962e-07
-4.75511e-06
5.07143e-07
1.72084e-07
-4.64461e-06
-8.72144e-07
1.31526e-06
-1.8188e-06
2.05624e-06
-2.62831e-06
2.44139e-06
-3.22987e-06
2.5603e-06
-3.62421e-06
2.4759e-06
-3.86709e-06
2.26597e-06
-4.03015e-06
1.98937e-06
-4.16255e-06
1.67161e-06
-4.27148e-06
1.31393e-06
-4.33021e-06
9.13687e-07
-4.3051e-06
4.82033e-07
3.69422e-08
-4.16996e-06
-7.61684e-07
2.07694e-06
-1.5479e-06
2.84246e-06
-2.14362e-06
3.03712e-06
-2.53717e-06
2.95384e-06
-2.80133e-06
2.74007e-06
-3.02531e-06
2.48995e-06
-3.26128e-06
2.22534e-06
-3.50702e-06
1.91735e-06
-3.72057e-06
1.52748e-06
-3.84832e-06
1.04144e-06
-3.84964e-06
4.83353e-07
-8.1167e-08
-3.73153e-06
-5.10484e-07
2.58742e-06
-1.07365e-06
3.40562e-06
-1.4716e-06
3.43507e-06
-1.73963e-06
3.22187e-06
-1.97996e-06
2.9804e-06
-2.26909e-06
2.77908e-06
-2.6258e-06
2.58205e-06
-3.0158e-06
2.30735e-06
-3.36852e-06
1.88019e-06
-3.59987e-06
1.27279e-06
-3.64507e-06
5.28547e-07
-2.60772e-07
-3.46546e-06
-1.94945e-07
2.78237e-06
-5.4342e-07
3.7541e-06
-7.798e-07
3.67145e-06
-9.7115e-07
3.41322e-06
-1.21666e-06
3.22591e-06
-1.57511e-06
3.13753e-06
-2.05432e-06
3.06127e-06
-2.60757e-06
2.8606e-06
-3.13205e-06
2.40467e-06
-3.49536e-06
1.6361e-06
-3.5885e-06
6.21692e-07
-4.75804e-07
-3.37347e-06
1.51785e-07
2.63058e-06
6.79003e-09
3.89909e-06
-9.71053e-08
3.77535e-06
-2.2605e-07
3.54216e-06
-4.59701e-07
3.45956e-06
-8.6029e-07
3.53812e-06
-1.44326e-06
3.64423e-06
-2.14815e-06
3.56549e-06
-2.82652e-06
3.08304e-06
-3.29187e-06
2.10146e-06
-3.40243e-06
7.32252e-07
-7.40069e-07
-3.13817e-06
5.01141e-07
2.12944e-06
5.76874e-07
3.82336e-06
5.84192e-07
3.76803e-06
5.32718e-07
3.59364e-06
3.48713e-07
3.64357e-06
-3.35554e-08
3.92039e-06
-6.37342e-07
4.24802e-06
-1.38885e-06
4.317e-06
-2.10529e-06
3.79948e-06
-2.57965e-06
2.57582e-06
-2.66053e-06
8.13125e-07
-1.03387e-06
-2.36672e-06
7.42722e-07
1.38672e-06
1.10872e-06
3.45736e-06
1.27629e-06
3.60046e-06
1.33811e-06
3.53182e-06
1.25372e-06
3.72796e-06
9.77409e-07
4.1967e-06
4.91433e-07
4.734e-06
-1.3428e-07
4.94271e-06
-7.33898e-07
4.3991e-06
-1.12095e-06
2.96287e-06
-1.17351e-06
8.6569e-07
-1.3299e-06
-8.77488e-07
8.28496e-07
5.58225e-07
1.5683e-06
2.71756e-06
2.0017e-06
3.16706e-06
2.2057e-06
3.32782e-06
2.25855e-06
3.6751e-06
2.17068e-06
4.28456e-06
1.92662e-06
4.97806e-06
1.57689e-06
5.29244e-06
1.24027e-06
4.73572e-06
1.03287e-06
3.17027e-06
1.01948e-06
8.79076e-07
-1.58903e-06
1.27862e-06
1.82627e-07
3.75598e-07
1.54282e-06
1.35736e-06
2.54942e-06
2.16046e-06
3.08402e-06
2.79322e-06
3.35302e-06
3.40611e-06
3.49232e-06
4.14526e-06
3.55198e-06
4.91841e-06
3.55306e-06
5.29135e-06
3.53608e-06
4.7527e-06
3.54734e-06
3.15901e-06
3.60969e-06
8.16727e-07
3.77417e-06
-1.75351e-06
-5.26305e-06
2.22642e-07
-5.32378e-06
6.07266e-08
-5.23981e-06
-8.39694e-08
-4.99025e-06
-2.49552e-07
-4.58871e-06
-4.01547e-07
-4.04932e-06
-5.39385e-07
-3.37236e-06
-6.76967e-07
-2.56147e-06
-8.10885e-07
-1.65054e-06
-9.10931e-07
-7.54959e-07
-8.9558e-07
-1.14189e-07
-6.4077e-07
-1.14189e-07
-5.43177e-06
-1.32431e-08
-5.136e-06
-2.35048e-07
-4.80432e-06
-4.15648e-07
-4.46209e-06
-5.9178e-07
-4.09788e-06
-7.65753e-07
-3.69308e-06
-9.44192e-07
-3.23113e-06
-1.13891e-06
-2.68458e-06
-1.35743e-06
-2.01644e-06
-1.57907e-06
-1.2157e-06
-1.69633e-06
-4.1237e-07
-1.4441e-06
-5.26559e-07
-4.52664e-06
-1.31212e-07
-4.31273e-06
-4.4896e-07
-4.0237e-06
-7.04675e-07
-3.69148e-06
-9.24001e-07
-3.34019e-06
-1.11704e-06
-2.9863e-06
-1.29808e-06
-2.63906e-06
-1.48615e-06
-2.29204e-06
-1.70446e-06
-1.9018e-06
-1.96931e-06
-1.36861e-06
-2.22951e-06
-6.25404e-07
-2.1873e-06
-1.15196e-06
-3.93703e-06
-3.6414e-07
-3.65892e-06
-7.2707e-07
-3.33384e-06
-1.02975e-06
-2.98553e-06
-1.27231e-06
-2.63454e-06
-1.46803e-06
-2.29653e-06
-1.63609e-06
-1.98462e-06
-1.79807e-06
-1.71089e-06
-1.97818e-06
-1.47382e-06
-2.20638e-06
-1.19901e-06
-2.50433e-06
-6.87504e-07
-2.69881e-06
-1.83947e-06
-3.45925e-06
-6.36425e-07
-3.1021e-06
-1.08422e-06
-2.70684e-06
-1.42501e-06
-2.31351e-06
-1.66564e-06
-1.94959e-06
-1.83194e-06
-1.62896e-06
-1.95673e-06
-1.35579e-06
-2.07124e-06
-1.13124e-06
-2.20273e-06
-9.62227e-07
-2.37539e-06
-8.39158e-07
-2.6274e-06
-5.96004e-07
-2.94196e-06
-2.43547e-06
-3.11244e-06
-9.89451e-07
-2.63637e-06
-1.56028e-06
-2.122e-06
-1.93938e-06
-1.64017e-06
-2.14748e-06
-1.23351e-06
-2.2386e-06
-9.17054e-07
-2.27318e-06
-6.87605e-07
-2.30069e-06
-5.32919e-07
-2.35741e-06
-4.40584e-07
-2.46773e-06
-4.08931e-07
-2.65905e-06
-3.82791e-07
-2.9681e-06
-2.81826e-06
-2.89514e-06
-1.46778e-06
-2.25522e-06
-2.2002e-06
-1.5772e-06
-2.61741e-06
-9.65719e-07
-2.75896e-06
-4.84208e-07
-2.72011e-06
-1.5262e-07
-2.60477e-06
4.01844e-08
-2.4935e-06
1.19099e-07
-2.43633e-06
1.09655e-07
-2.45828e-06
3.43611e-08
-2.58376e-06
-9.86901e-08
-2.83505e-06
-2.91695e-06
-2.55235e-06
-2.0536e-06
-1.77712e-06
-2.97543e-06
-9.64288e-07
-3.43023e-06
-2.41905e-07
-3.48134e-06
3.09609e-07
-3.27163e-06
6.61322e-07
-2.95648e-06
8.25481e-07
-2.65765e-06
8.33437e-07
-2.44429e-06
7.17702e-07
-2.34255e-06
5.00882e-07
-2.36694e-06
2.04819e-07
-2.53899e-06
-2.71213e-06
-1.74228e-06
-2.67804e-06
-9.31482e-07
-3.78623e-06
-9.29956e-08
-4.26872e-06
6.42155e-07
-4.21649e-06
1.19383e-06
-3.8233e-06
1.53163e-06
-3.29429e-06
1.66134e-06
-2.78737e-06
1.60697e-06
-2.38991e-06
1.39562e-06
-2.13119e-06
1.03956e-06
-2.01088e-06
5.49233e-07
-2.04866e-06
-2.1629e-06
-2.99696e-07
-3.25583e-06
4.20892e-07
-4.50682e-06
1.14302e-06
-4.99085e-06
1.76062e-06
-4.83409e-06
2.21116e-06
-4.27384e-06
2.47138e-06
-3.55451e-06
2.54233e-06
-2.85832e-06
2.43268e-06
-2.28027e-06
2.15005e-06
-1.84856e-06
1.6785e-06
-1.53934e-06
9.81165e-07
-1.35132e-06
-1.18173e-06
1.7073e-06
-3.68452e-06
2.21025e-06
-5.00977e-06
2.69256e-06
-5.47316e-06
3.08378e-06
-5.22531e-06
3.3468e-06
-4.53686e-06
3.47149e-06
-3.67919e-06
3.45817e-06
-2.845e-06
3.30098e-06
-2.12307e-06
2.98071e-06
-1.52829e-06
2.44756e-06
-1.00619e-06
1.58874e-06
-4.92496e-07
4.07004e-07
3.99118e-06
-3.90154e-06
4.21196e-06
-5.23055e-06
4.38971e-06
-5.65091e-06
4.49734e-06
-5.33294e-06
4.52874e-06
-4.56825e-06
4.48948e-06
-3.63993e-06
4.38233e-06
-2.73785e-06
4.19549e-06
-1.93623e-06
3.88839e-06
-1.2212e-06
3.35533e-06
-4.73124e-07
2.38979e-06
4.73043e-07
2.79679e-06
3.98982e-07
-3.98982e-07
6.54531e-07
-2.55549e-07
6.5166e-07
2.87069e-09
4.08567e-07
2.43094e-07
-6.31787e-08
4.71745e-07
-7.34874e-07
6.71695e-07
-1.55409e-06
8.19219e-07
-2.43736e-06
8.83268e-07
-3.2925e-06
8.5514e-07
-4.04171e-06
7.49213e-07
-4.6332e-06
5.91488e-07
4.08021e-07
-5.04122e-06
-1.50812e-07
-2.4817e-07
-6.12905e-07
2.06544e-07
-1.31532e-06
7.05289e-07
-2.18367e-06
1.11144e-06
-3.11332e-06
1.4014e-06
-3.9958e-06
1.55417e-06
-4.73889e-06
1.56231e-06
-5.29068e-06
1.43506e-06
-5.63831e-06
1.20277e-06
-5.79606e-06
9.06958e-07
-5.79373e-06
5.89161e-07
2.82467e-07
-5.66817e-06
-6.91325e-07
4.43155e-07
-1.59452e-06
1.10974e-06
-2.52139e-06
1.63216e-06
-3.36904e-06
1.95909e-06
-4.04954e-06
2.0819e-06
-4.51878e-06
2.0234e-06
-4.78303e-06
1.82656e-06
-4.88736e-06
1.53939e-06
-4.88973e-06
1.20514e-06
-4.83781e-06
8.55038e-07
-4.75579e-06
5.07145e-07
1.72005e-07
-4.64533e-06
-8.72173e-07
1.31533e-06
-1.81891e-06
2.05648e-06
-2.62851e-06
2.44176e-06
-3.23013e-06
2.56071e-06
-3.62452e-06
2.4763e-06
-3.86746e-06
2.26634e-06
-4.03061e-06
1.98972e-06
-4.16315e-06
1.67193e-06
-4.27221e-06
1.3142e-06
-4.33103e-06
9.13863e-07
-4.30597e-06
4.8208e-07
3.68327e-08
-4.1708e-06
-7.61769e-07
2.0771e-06
-1.54809e-06
2.8428e-06
-2.14389e-06
3.03756e-06
-2.53747e-06
2.95429e-06
-2.80168e-06
2.74051e-06
-3.02575e-06
2.49041e-06
-3.26186e-06
2.22583e-06
-3.50778e-06
1.91785e-06
-3.72151e-06
1.52793e-06
-3.8494e-06
1.04176e-06
-3.85079e-06
4.83464e-07
-8.12909e-08
-3.73266e-06
-5.10613e-07
2.58771e-06
-1.07388e-06
3.40606e-06
-1.47188e-06
3.43556e-06
-1.73993e-06
3.22234e-06
-1.98031e-06
2.98089e-06
-2.26956e-06
2.77966e-06
-2.62647e-06
2.58274e-06
-3.0167e-06
2.30809e-06
-3.36967e-06
1.8809e-06
-3.60123e-06
1.27332e-06
-3.64654e-06
5.2877e-07
-2.60925e-07
-3.46691e-06
-1.9511e-07
2.78282e-06
-5.43636e-07
3.75459e-06
-7.80039e-07
3.67196e-06
-9.71405e-07
3.41371e-06
-1.21698e-06
3.22647e-06
-1.57557e-06
3.13824e-06
-2.055e-06
3.06216e-06
-2.60854e-06
2.86163e-06
-3.13334e-06
2.4057e-06
-3.49691e-06
1.6369e-06
-3.59021e-06
6.22063e-07
-4.75965e-07
-3.37517e-06
1.51608e-07
2.63121e-06
6.60323e-09
3.89959e-06
-9.72761e-08
3.77584e-06
-2.26226e-07
3.54266e-06
-4.59931e-07
3.46018e-06
-8.60635e-07
3.53895e-06
-1.44379e-06
3.64532e-06
-2.14894e-06
3.56678e-06
-2.8276e-06
3.08435e-06
-3.2932e-06
2.1025e-06
-3.40393e-06
7.32787e-07
-7.402e-07
-3.13969e-06
5.01012e-07
2.1302e-06
5.76709e-07
3.82389e-06
5.84072e-07
3.76848e-06
5.32617e-07
3.59411e-06
3.48614e-07
3.64418e-06
-3.36756e-08
3.92124e-06
-6.37526e-07
4.24917e-06
-1.38916e-06
4.31841e-06
-2.10574e-06
3.80094e-06
-2.58026e-06
2.57702e-06
-2.66128e-06
8.13806e-07
-1.03391e-06
-2.36757e-06
7.42672e-07
1.38753e-06
1.10863e-06
3.45793e-06
1.2762e-06
3.6009e-06
1.33806e-06
3.53225e-06
1.25375e-06
3.72849e-06
9.77557e-07
4.19744e-06
4.91703e-07
4.73502e-06
-1.33901e-07
4.94401e-06
-7.33461e-07
4.4005e-06
-1.12054e-06
2.9641e-06
-1.17325e-06
8.66513e-07
-1.32977e-06
-8.77388e-07
8.28552e-07
5.58978e-07
1.56839e-06
2.7181e-06
2.00161e-06
3.16768e-06
2.20565e-06
3.32822e-06
2.25868e-06
3.67546e-06
2.17105e-06
4.28506e-06
1.92725e-06
4.97882e-06
1.57781e-06
5.29346e-06
1.24143e-06
4.73688e-06
1.03415e-06
3.17138e-06
1.02071e-06
8.79956e-07
-1.5887e-06
1.27963e-06
1.83037e-07
3.75941e-07
1.54331e-06
1.35783e-06
2.54955e-06
2.16144e-06
3.084e-06
2.79377e-06
3.35312e-06
3.40634e-06
3.49273e-06
4.14545e-06
3.55277e-06
4.91878e-06
3.55425e-06
5.29199e-06
3.53759e-06
4.75354e-06
3.54904e-06
3.15993e-06
3.61143e-06
8.17567e-07
3.77574e-06
-1.75301e-06
-5.26375e-06
2.2253e-07
-5.32436e-06
6.06098e-08
-5.24026e-06
-8.40993e-08
-4.99056e-06
-2.49699e-07
-4.58891e-06
-4.01655e-07
-4.04944e-06
-5.39467e-07
-3.37242e-06
-6.7702e-07
-2.56152e-06
-8.10904e-07
-1.6506e-06
-9.10918e-07
-7.55044e-07
-8.95555e-07
-1.14267e-07
-6.40777e-07
-1.14267e-07
-5.4322e-06
-1.34439e-08
-5.13639e-06
-2.352e-07
-4.80466e-06
-4.15825e-07
-4.46239e-06
-5.91978e-07
-4.0981e-06
-7.65944e-07
-3.69321e-06
-9.44357e-07
-3.23119e-06
-1.13904e-06
-2.68459e-06
-1.35751e-06
-2.01642e-06
-1.57909e-06
-1.21568e-06
-1.6963e-06
-4.12374e-07
-1.44408e-06
-5.26642e-07
-4.52734e-06
-1.31435e-07
-4.31333e-06
-4.49205e-07
-4.0242e-06
-7.04961e-07
-3.69188e-06
-9.24298e-07
-3.3405e-06
-1.11732e-06
-2.98653e-06
-1.29833e-06
-2.63921e-06
-1.48636e-06
-2.29211e-06
-1.7046e-06
-1.9018e-06
-1.9694e-06
-1.36857e-06
-2.22953e-06
-6.25368e-07
-2.18728e-06
-1.15201e-06
-3.93785e-06
-3.64385e-07
-3.65963e-06
-7.27423e-07
-3.33443e-06
-1.03016e-06
-2.986e-06
-1.27273e-06
-2.6349e-06
-1.46842e-06
-2.2968e-06
-1.63643e-06
-1.98481e-06
-1.79835e-06
-1.71102e-06
-1.97839e-06
-1.47389e-06
-2.20653e-06
-1.19901e-06
-2.50441e-06
-6.87479e-07
-2.69881e-06
-1.83949e-06
-3.46026e-06
-6.36787e-07
-3.10294e-06
-1.08474e-06
-2.70749e-06
-1.42562e-06
-2.31397e-06
-1.66625e-06
-1.9499e-06
-1.83249e-06
-1.62916e-06
-1.95718e-06
-1.35591e-06
-2.0716e-06
-1.13131e-06
-2.20299e-06
-9.62267e-07
-2.37557e-06
-8.39172e-07
-2.6275e-06
-5.95995e-07
-2.94199e-06
-2.43548e-06
-3.11372e-06
-9.89974e-07
-2.6374e-06
-1.56107e-06
-2.12271e-06
-1.9403e-06
-1.64058e-06
-2.14837e-06
-1.23369e-06
-2.23938e-06
-9.17085e-07
-2.27378e-06
-6.87554e-07
-2.30113e-06
-5.32838e-07
-2.3577e-06
-4.40508e-07
-2.4679e-06
-4.08871e-07
-2.65914e-06
-3.82757e-07
-2.96811e-06
-2.81824e-06
-2.89666e-06
-1.46848e-06
-2.25641e-06
-2.20132e-06
-1.578e-06
-2.61872e-06
-9.66125e-07
-2.76025e-06
-4.84297e-07
-2.7212e-06
-1.52508e-07
-2.60557e-06
4.03923e-08
-2.49403e-06
1.19329e-07
-2.43664e-06
1.09858e-07
-2.45843e-06
3.45004e-08
-2.58378e-06
-9.86174e-08
-2.83499e-06
-2.91686e-06
-2.55375e-06
-2.05442e-06
-1.77826e-06
-2.97681e-06
-9.65061e-07
-3.43192e-06
-2.42284e-07
-3.48302e-06
3.09565e-07
-3.27305e-06
6.6151e-07
-2.95752e-06
8.25785e-07
-2.6583e-06
8.33756e-07
-2.44461e-06
7.17977e-07
-2.34265e-06
5.01096e-07
-2.3669e-06
2.04946e-07
-2.53884e-06
-2.71191e-06
-1.74313e-06
-2.67886e-06
-9.32213e-07
-3.78773e-06
-9.34997e-08
-4.27063e-06
6.41934e-07
-4.21846e-06
1.19388e-06
-3.825e-06
1.53188e-06
-3.29552e-06
1.66169e-06
-2.78811e-06
1.60734e-06
-2.39026e-06
1.39595e-06
-2.13126e-06
1.0398e-06
-2.01075e-06
5.49381e-07
-2.04842e-06
-2.16253e-06
-2.99728e-07
-3.25652e-06
4.20804e-07
-4.50826e-06
1.14297e-06
-4.9928e-06
1.76069e-06
-4.83617e-06
2.21136e-06
-4.27566e-06
2.47168e-06
-3.55585e-06
2.54269e-06
-2.85912e-06
2.43304e-06
-2.2806e-06
2.15035e-06
-1.84857e-06
1.67875e-06
-1.53916e-06
9.8132e-07
-1.35098e-06
-1.18121e-06
1.70808e-06
-3.68496e-06
2.21083e-06
-5.01101e-06
2.693e-06
-5.47498e-06
3.08416e-06
-5.22732e-06
3.34716e-06
-4.53867e-06
3.47183e-06
-3.68053e-06
3.45851e-06
-2.84579e-06
3.30129e-06
-2.12339e-06
2.98098e-06
-1.52826e-06
2.44777e-06
-1.00594e-06
1.58886e-06
-4.9208e-07
4.07653e-07
3.99251e-06
-3.90174e-06
4.21303e-06
-5.23153e-06
4.39055e-06
-5.65249e-06
4.49798e-06
-5.33476e-06
4.52921e-06
-4.56989e-06
4.48981e-06
-3.64113e-06
4.38258e-06
-2.73856e-06
4.19568e-06
-1.93649e-06
3.88854e-06
-1.22112e-06
3.35547e-06
-4.72871e-07
2.38995e-06
4.7344e-07
2.7976e-06
3.98765e-07
-3.98765e-07
6.54097e-07
-2.55332e-07
6.51098e-07
2.99922e-09
4.07973e-07
2.43125e-07
-6.36764e-08
4.71649e-07
-7.35128e-07
6.71452e-07
-1.55399e-06
8.1886e-07
-2.43687e-06
8.82881e-07
-3.29167e-06
8.54804e-07
-4.04065e-06
7.48976e-07
-4.63201e-06
5.9136e-07
4.07995e-07
-5.04e-06
-1.51021e-07
-2.47744e-07
-6.13181e-07
2.06828e-07
-1.31554e-06
7.05354e-07
-2.18366e-06
1.11125e-06
-3.11298e-06
1.40097e-06
-3.9951e-06
1.55358e-06
-4.73791e-06
1.56167e-06
-5.28951e-06
1.43447e-06
-5.63702e-06
1.20232e-06
-5.79471e-06
9.06671e-07
-5.79238e-06
5.89033e-07
2.82472e-07
-5.66686e-06
-6.9129e-07
4.43546e-07
-1.59436e-06
1.1099e-06
-2.52099e-06
1.63198e-06
-3.36833e-06
1.95858e-06
-4.04853e-06
2.08117e-06
-4.51754e-06
2.02258e-06
-4.78164e-06
1.82578e-06
-4.88589e-06
1.53872e-06
-4.8882e-06
1.20462e-06
-4.83623e-06
8.54701e-07
-4.75419e-06
5.06992e-07
1.72029e-07
-4.64374e-06
-8.7197e-07
1.31552e-06
-1.81848e-06
2.05642e-06
-2.62782e-06
2.44131e-06
-3.22918e-06
2.55995e-06
-3.62338e-06
2.47538e-06
-3.8662e-06
2.2654e-06
-4.02926e-06
1.98884e-06
-4.1617e-06
1.67116e-06
-4.27067e-06
1.31359e-06
-4.32941e-06
9.13447e-07
-4.30433e-06
4.81905e-07
3.69279e-08
-4.16923e-06
-7.61537e-07
2.07705e-06
-1.54763e-06
2.84251e-06
-2.1432e-06
3.03688e-06
-2.5366e-06
2.95334e-06
-2.80068e-06
2.73946e-06
-3.02464e-06
2.48935e-06
-3.2606e-06
2.22481e-06
-3.50633e-06
1.91689e-06
-3.71985e-06
1.5271e-06
-3.84757e-06
1.04117e-06
-3.84889e-06
4.83227e-07
-8.11335e-08
-3.73083e-06
-5.10419e-07
2.58747e-06
-1.07351e-06
3.4056e-06
-1.47133e-06
3.4347e-06
-1.73924e-06
3.22125e-06
-1.9795e-06
2.97973e-06
-2.2686e-06
2.77845e-06
-2.62527e-06
2.58147e-06
-3.01519e-06
2.30681e-06
-3.3678e-06
1.87972e-06
-3.59906e-06
1.27244e-06
-3.64422e-06
5.28379e-07
-2.6071e-07
-3.46464e-06
-1.94973e-07
2.78245e-06
-5.43368e-07
3.75399e-06
-7.79655e-07
3.67099e-06
-9.70913e-07
3.41251e-06
-1.21637e-06
3.22519e-06
-1.57476e-06
3.13684e-06
-2.05388e-06
3.06059e-06
-2.60701e-06
2.85993e-06
-3.13135e-06
2.40406e-06
-3.49453e-06
1.63562e-06
-3.58759e-06
6.21444e-07
-4.75757e-07
-3.37255e-06
1.51655e-07
2.63079e-06
6.75469e-09
3.89889e-06
-9.70622e-08
3.77481e-06
-2.25949e-07
3.5414e-06
-4.5956e-07
3.4588e-06
-8.60098e-07
3.53738e-06
-1.443e-06
3.6435e-06
-2.14782e-06
3.56476e-06
-2.82611e-06
3.08235e-06
-3.29136e-06
2.10087e-06
-3.40181e-06
7.31892e-07
-7.4011e-07
-3.13745e-06
5.00968e-07
2.12982e-06
5.76729e-07
3.82313e-06
5.841e-07
3.76744e-06
5.32647e-07
3.59285e-06
3.48669e-07
3.64277e-06
-3.3598e-08
3.91965e-06
-6.37423e-07
4.24732e-06
-1.38899e-06
4.31633e-06
-2.10543e-06
3.79879e-06
-2.57971e-06
2.57514e-06
-2.66045e-06
8.12632e-07
-1.03408e-06
-2.36648e-06
7.42546e-07
1.38728e-06
1.10855e-06
3.45712e-06
1.27606e-06
3.59993e-06
1.33784e-06
3.53107e-06
1.25344e-06
3.72718e-06
9.77069e-07
4.19601e-06
4.90962e-07
4.73343e-06
-1.34893e-07
4.94218e-06
-7.34551e-07
4.39845e-06
-1.12152e-06
2.96211e-06
-1.17393e-06
8.65042e-07
-1.33028e-06
-8.77726e-07
8.28364e-07
5.58913e-07
1.56828e-06
2.71721e-06
2.00129e-06
3.16692e-06
2.20518e-06
3.32719e-06
2.25803e-06
3.67432e-06
2.17009e-06
4.28396e-06
1.92583e-06
4.97768e-06
1.57595e-06
5.29206e-06
1.2393e-06
4.7351e-06
1.03197e-06
3.16944e-06
1.01871e-06
8.78303e-07
-1.58956e-06
1.27798e-06
1.83236e-07
3.75677e-07
1.54346e-06
1.35698e-06
2.54932e-06
2.16107e-06
3.08342e-06
2.79308e-06
3.35223e-06
3.40551e-06
3.49148e-06
4.14472e-06
3.55101e-06
4.91815e-06
3.55196e-06
5.29111e-06
3.53494e-06
4.75212e-06
3.54626e-06
3.15812e-06
3.60869e-06
8.15876e-07
3.77327e-06
-1.75413e-06
-5.26258e-06
2.22574e-07
-5.32326e-06
6.06825e-08
-5.23928e-06
-8.3982e-08
-4.98973e-06
-2.49548e-07
-4.58821e-06
-4.01519e-07
-4.04888e-06
-5.39335e-07
-3.37199e-06
-6.76885e-07
-2.56123e-06
-8.1076e-07
-1.65047e-06
-9.10767e-07
-7.55043e-07
-8.95424e-07
-1.14322e-07
-6.40721e-07
-1.14322e-07
-5.43099e-06
-1.33011e-08
-5.13526e-06
-2.35047e-07
-4.80362e-06
-4.15618e-07
-4.46143e-06
-5.91734e-07
-4.09726e-06
-7.65688e-07
-3.6925e-06
-9.441e-07
-3.2306e-06
-1.13878e-06
-2.68412e-06
-1.35724e-06
-2.01609e-06
-1.5788e-06
-1.2155e-06
-1.69601e-06
-4.12342e-07
-1.44388e-06
-5.26664e-07
-4.52586e-06
-1.31187e-07
-4.312e-06
-4.48898e-07
-4.02305e-06
-7.04577e-07
-3.6909e-06
-9.23878e-07
-3.33969e-06
-1.1169e-06
-2.98585e-06
-1.29793e-06
-2.63865e-06
-1.48598e-06
-2.29164e-06
-1.70425e-06
-1.90141e-06
-1.96903e-06
-1.36828e-06
-2.22914e-06
-6.25243e-07
-2.18692e-06
-1.15191e-06
-3.93635e-06
-3.64063e-07
-3.65833e-06
-7.26918e-07
-3.33336e-06
-1.02955e-06
-2.98515e-06
-1.27208e-06
-2.63425e-06
-1.4678e-06
-2.29632e-06
-1.63587e-06
-1.98445e-06
-1.79785e-06
-1.71074e-06
-1.97796e-06
-1.47364e-06
-2.20613e-06
-1.19878e-06
-2.504e-06
-6.87319e-07
-2.69838e-06
-1.83923e-06
-3.45864e-06
-6.36253e-07
-3.10163e-06
-1.08393e-06
-2.70651e-06
-1.42467e-06
-2.31332e-06
-1.66528e-06
-1.94951e-06
-1.8316e-06
-1.62895e-06
-1.95643e-06
-1.35583e-06
-2.07098e-06
-1.1313e-06
-2.20249e-06
-9.62266e-07
-2.37516e-06
-8.3913e-07
-2.62714e-06
-5.95904e-07
-2.94161e-06
-2.43513e-06
-3.11173e-06
-9.89164e-07
-2.63586e-06
-1.55981e-06
-2.12171e-06
-1.93881e-06
-1.64008e-06
-2.14691e-06
-1.23358e-06
-2.2381e-06
-9.17228e-07
-2.27278e-06
-6.87818e-07
-2.30039e-06
-5.33125e-07
-2.35718e-06
-4.40759e-07
-2.46753e-06
-4.09051e-07
-2.65885e-06
-3.82809e-07
-2.96785e-06
-2.81794e-06
-2.89431e-06
-1.46741e-06
-2.25458e-06
-2.19954e-06
-1.57682e-06
-2.61656e-06
-9.65637e-07
-2.7581e-06
-4.84371e-07
-2.71937e-06
-1.52933e-07
-2.60422e-06
3.98235e-08
-2.49314e-06
1.18762e-07
-2.43612e-06
1.09379e-07
-2.45814e-06
3.41685e-08
-2.58364e-06
-9.8786e-08
-2.8349e-06
-2.91672e-06
-2.55162e-06
-2.05323e-06
-1.7765e-06
-2.97466e-06
-9.63894e-07
-3.42917e-06
-2.41799e-07
-3.48019e-06
3.09434e-07
-3.2706e-06
6.60942e-07
-2.95573e-06
8.25014e-07
-2.65721e-06
8.32992e-07
-2.4441e-06
7.17348e-07
-2.3425e-06
5.00646e-07
-2.36694e-06
2.04699e-07
-2.53895e-06
-2.71202e-06
-1.74194e-06
-2.67778e-06
-9.31132e-07
-3.78546e-06
-9.27526e-08
-4.26755e-06
6.42195e-07
-4.21514e-06
1.19362e-06
-3.82203e-06
1.53121e-06
-3.29332e-06
1.6608e-06
-2.7868e-06
1.60643e-06
-2.38972e-06
1.39517e-06
-2.13124e-06
1.03926e-06
-2.01103e-06
5.49113e-07
-2.0488e-06
-2.16291e-06
-2.99792e-07
-3.25572e-06
4.20865e-07
-4.50612e-06
1.14297e-06
-4.98966e-06
1.76047e-06
-4.83264e-06
2.21086e-06
-4.27241e-06
2.47091e-06
-3.55337e-06
2.54173e-06
-2.85763e-06
2.43205e-06
-2.28004e-06
2.1495e-06
-1.84869e-06
1.67812e-06
-1.53965e-06
9.81012e-07
-1.35169e-06
-1.1819e-06
1.7068e-06
-3.68453e-06
2.20984e-06
-5.00916e-06
2.6922e-06
-5.47202e-06
3.08341e-06
-5.22385e-06
3.34638e-06
-4.53538e-06
3.47098e-06
-3.67797e-06
3.45757e-06
-2.84421e-06
3.30031e-06
-2.12279e-06
2.98006e-06
-1.52844e-06
2.44705e-06
-1.00665e-06
1.58857e-06
-4.93203e-07
4.06667e-07
3.99039e-06
-3.90165e-06
4.21126e-06
-5.23004e-06
4.38909e-06
-5.64984e-06
4.49677e-06
-5.33154e-06
4.52821e-06
-4.56682e-06
4.48896e-06
-3.63872e-06
4.38177e-06
-2.73702e-06
4.19485e-06
-1.93587e-06
3.8877e-06
-1.22129e-06
3.35469e-06
-4.73634e-07
2.38934e-06
4.72142e-07
2.79601e-06
3.32942e-06
1.90233e-06
-4.85642e-06
2.96811e-06
1.71777e-06
3.23025e-06
1.89911e-06
3.77942e-06
2.24385e-06
4.325e-06
2.85951e-06
4.78006e-06
3.68897e-06
5.17757e-06
4.51996e-06
5.53487e-06
4.9336e-06
5.82959e-06
4.45784e-06
6.04201e-06
2.94656e-06
6.15169e-06
7.07092e-07
-1.81596e-06
6.21406e-06
5.99399e-06
2.15303e-06
-6.24469e-06
5.49073e-06
2.22103e-06
5.06721e-06
2.32264e-06
4.95169e-06
2.35936e-06
5.2421e-06
2.5691e-06
5.81636e-06
3.1147e-06
6.51049e-06
3.82583e-06
7.20005e-06
4.24404e-06
7.7776e-06
3.88029e-06
8.16723e-06
2.55694e-06
8.33307e-06
5.41249e-07
-1.78241e-06
8.29952e-06
7.209e-06
1.89812e-06
-6.9541e-06
7.24613e-06
2.1839e-06
7.09347e-06
2.4753e-06
6.82988e-06
2.62295e-06
6.71603e-06
2.68295e-06
6.96425e-06
2.86648e-06
7.57398e-06
3.2161e-06
8.35966e-06
3.45836e-06
9.10751e-06
3.13244e-06
9.61407e-06
2.05038e-06
9.80106e-06
3.54259e-07
-1.76084e-06
9.77949e-06
7.80156e-06
-7.54176e-06
8.055e-06
8.27744e-06
8.37759e-06
8.39857e-06
8.50521e-06
8.85457e-06
9.44309e-06
1.01183e-05