/*--------------------------------*- C++ -*----------------------------------*\
| =========                 |                                                 |
| \\      /  F ield         | OpenFOAM: The Open Source CFD Toolbox           |
|  \\    /   O peration     | Version:  2.3.1                                 |
|   \\  /    A nd           | Web:      www.OpenFOAM.org                      |
|    \\/     M anipulation  |                                                 |
\*---------------------------------------------------------------------------*/
FoamFile
{
    version     2.0;
    format      ascii;
    class       volVectorField;
    location    "0.2";
    object      U;
}
// * * * * * * * * * * * * * * * * * * * * * * * * * * * * * * * * * * * * * //

dimensions      [0 1 -1 0 0 0 0];

internalField   nonuniform List<vector> 
3072
(
(-0.126523 0.0273639 4.48919e-19)
(-0.11288 0.02418 9.93406e-21)
(-0.102326 0.0317319 -7.63056e-19)
(-0.0989443 0.0492808 3.02963e-19)
(-0.099482 0.0752001 1.60058e-19)
(-0.101586 0.109881 0)
(-0.10371 0.15143 -6.03432e-19)
(-0.10532 0.195345 5.67268e-19)
(-0.105996 0.236937 -2.51679e-19)
(-0.105182 0.272836 5.22724e-19)
(-0.102461 0.301216 -6.094e-19)
(-0.0976767 0.321578 -3.75187e-19)
(-0.155679 0.0234551 -9.03859e-19)
(-0.153664 0.0586568 2.6784e-19)
(-0.155939 0.105556 2.38156e-19)
(-0.162473 0.153782 -2.09073e-20)
(-0.170472 0.201973 0)
(-0.177528 0.246079 2.14722e-19)
(-0.182895 0.282261 -1.91839e-19)
(-0.186684 0.308292 -3.73127e-19)
(-0.188983 0.324297 1.9528e-19)
(-0.189382 0.33228 -1.81195e-19)
(-0.187021 0.334802 1.99408e-19)
(-0.180951 0.333814 2.5877e-19)
(-0.16316 0.0646797 2.19058e-19)
(-0.177575 0.122064 -1.84159e-19)
(-0.186822 0.178792 -1.95303e-19)
(-0.193802 0.229236 -1.84421e-19)
(-0.196652 0.269541 1.55783e-19)
(-0.195402 0.297707 -1.50342e-19)
(-0.190924 0.314224 7.99247e-19)
(-0.184372 0.32166 -3.16509e-19)
(-0.176629 0.323545 0)
(-0.168162 0.322956 -3.32828e-19)
(-0.15926 0.321702 3.26339e-19)
(-0.150348 0.320441 0)
(-0.162743 0.108322 1.75877e-19)
(-0.182755 0.173627 0)
(-0.190426 0.223874 0)
(-0.193389 0.260905 -2.76092e-19)
(-0.191612 0.284231 1.25339e-19)
(-0.187303 0.296873 0)
(-0.182483 0.30305 0)
(-0.178618 0.306393 -2.76737e-19)
(-0.176174 0.308753 5.52606e-22)
(-0.174615 0.310177 1.34698e-19)
(-0.172697 0.309872 -4.15495e-19)
(-0.169058 0.307325 2.84856e-19)
(-0.158209 0.145822 1.3472e-19)
(-0.177452 0.209702 -2.50213e-19)
(-0.179903 0.245851 2.39223e-19)
(-0.179712 0.267289 0)
(-0.176471 0.278348 0)
(-0.172652 0.28524 2.23631e-19)
(-0.169604 0.291833 2.41019e-19)
(-0.167977 0.299024 -2.41762e-19)
(-0.167647 0.305519 -2.48848e-19)
(-0.167966 0.30943 6.00787e-21)
(-0.16812 0.309599 -3.68087e-19)
(-0.167384 0.306051 5.03997e-19)
(-0.154895 0.170902 -8.68009e-21)
(-0.170679 0.231096 0)
(-0.167012 0.253091 0)
(-0.164816 0.263452 -2.01276e-19)
(-0.160996 0.269532 3.91575e-19)
(-0.157796 0.277424 -2.15658e-19)
(-0.1563 0.288147 1.24927e-20)
(-0.157513 0.299817 -4.11821e-21)
(-0.161695 0.309493 0)
(-0.168006 0.314642 4.58534e-19)
(-0.174489 0.313975 -2.23585e-19)
(-0.178591 0.307509 -4.44946e-19)
(-0.155271 0.181056 8.99267e-20)
(-0.166799 0.239816 -1.88122e-19)
(-0.156582 0.251393 1.05212e-20)
(-0.15246 0.256039 -1.72929e-19)
(-0.147187 0.261876 -2.17979e-20)
(-0.14322 0.273294 0)
(-0.141957 0.289136 1.903e-19)
(-0.14515 0.306321 -1.96081e-19)
(-0.153427 0.320747 -3.98699e-19)
(-0.16569 0.3283 2.042e-19)
(-0.179156 0.326629 2.15859e-19)
(-0.190234 0.316215 2.10974e-19)
(-0.1605 0.176784 -7.19017e-20)
(-0.165788 0.239524 0)
(-0.148896 0.243628 1.56275e-19)
(-0.142382 0.246873 0)
(-0.134058 0.254436 -2.91647e-19)
(-0.127372 0.270073 1.4001e-19)
(-0.124377 0.291662 3.12801e-19)
(-0.128102 0.315002 -1.60696e-19)
(-0.140208 0.333498 -4.82304e-21)
(-0.159675 0.340826 3.96047e-19)
(-0.18234 0.334658 1.20372e-20)
(-0.202395 0.317778 2.09365e-19)
(-0.173817 0.160971 2.17831e-19)
(-0.164794 0.231276 -1.01876e-19)
(-0.143993 0.233085 9.98208e-20)
(-0.13306 0.235646 2.16333e-19)
(-0.120713 0.245318 1.18041e-20)
(-0.109105 0.264613 -1.81986e-20)
(-0.101721 0.290988 -1.42711e-19)
(-0.10345 0.318002 0)
(-0.117428 0.336191 0)
(-0.142833 0.338129 -1.95945e-19)
(-0.174316 0.323416 -2.14025e-19)
(-0.204692 0.298591 -2.06822e-19)
(-0.197583 0.138103 0)
(-0.168051 0.2148 9.64537e-20)
(-0.141928 0.220248 -2.28384e-20)
(-0.124176 0.221748 -3.25016e-20)
(-0.106665 0.232748 8.63844e-20)
(-0.088499 0.253737 -2.09204e-19)
(-0.0740095 0.281308 1.04138e-19)
(-0.0702143 0.307175 4.26247e-19)
(-0.0826073 0.319286 -1.57849e-19)
(-0.111115 0.310695 2.2279e-19)
(-0.149946 0.285192 2.7588e-19)
(-0.191156 0.252951 0)
(-0.228136 0.12232 1.45247e-19)
(-0.177636 0.192626 -7.52885e-20)
(-0.14227 0.203145 -9.58278e-21)
(-0.115876 0.204041 2.70289e-20)
(-0.0926322 0.214977 -1.33395e-19)
(-0.0675161 0.235393 6.96053e-20)
(-0.0438262 0.259992 -1.04234e-19)
(-0.0312867 0.27925 -2.29989e-19)
(-0.0383064 0.281003 -1.41865e-19)
(-0.0663625 0.25983 0)
(-0.110573 0.223722 -7.41009e-19)
(-0.161091 0.186103 2.45677e-19)
(-0.289006 0.0892181 -7.02084e-20)
(-0.220121 0.16515 -6.67323e-20)
(-0.158294 0.183046 1.32174e-20)
(-0.111208 0.184925 1.47087e-20)
(-0.0780173 0.193057 9.45118e-20)
(-0.0473466 0.209424 5.17759e-20)
(-0.0158947 0.22752 8.67503e-20)
(0.00639555 0.236747 2.01777e-21)
(0.00734085 0.226501 -3.9793e-20)
(-0.0174462 0.194763 1.6906e-19)
(-0.0637519 0.151103 0)
(-0.120592 0.109889 -2.03972e-19)
(-0.0908085 0.334471 6.00335e-19)
(-0.0818013 0.340819 -4.6983e-19)
(-0.0706434 0.34096 4.58281e-19)
(-0.0575676 0.3352 -1.54746e-19)
(-0.043998 0.323333 2.11625e-19)
(-0.0316044 0.305486 0)
(-0.0212932 0.281739 1.10604e-20)
(-0.0131014 0.252349 -6.32543e-21)
(-0.00561042 0.218719 0)
(0.00484478 0.183731 0)
(0.022676 0.150827 0)
(0.0449143 0.124995 -4.87665e-20)
(-0.170764 0.330434 -3.46646e-19)
(-0.157022 0.325635 2.53846e-19)
(-0.141346 0.320326 0)
(-0.124947 0.31399 -7.93639e-20)
(-0.109195 0.306257 1.57354e-19)
(-0.0953122 0.296556 -3.51984e-20)
(-0.0843976 0.284431 0)
(-0.0768293 0.2694 -3.87326e-20)
(-0.0706803 0.250665 3.49889e-20)
(-0.0590943 0.226999 1.43821e-19)
(-0.0299116 0.196116 -7.85333e-20)
(0.0231669 0.155549 -8.3737e-20)
(-0.141858 0.318838 0)
(-0.133239 0.315258 2.98772e-19)
(-0.123361 0.308952 -3.67872e-19)
(-0.113298 0.300854 -1.37973e-19)
(-0.103463 0.291796 6.44468e-20)
(-0.0946072 0.282445 -6.14398e-20)
(-0.0878511 0.273407 0)
(-0.0844291 0.265133 0)
(-0.084426 0.257058 8.57579e-20)
(-0.0825438 0.246564 -1.14918e-19)
(-0.0611104 0.228192 -1.25291e-19)
(0.0054606 0.189586 -1.43708e-19)
(-0.162744 0.302744 -2.64023e-19)
(-0.154049 0.297091 2.62945e-19)
(-0.143798 0.290632 -5.09355e-20)
(-0.132525 0.283393 6.1999e-20)
(-0.121043 0.275825 0)
(-0.110154 0.26834 3.53416e-21)
(-0.100728 0.261472 0)
(-0.0938882 0.256014 -1.89044e-20)
(-0.0912076 0.252518 -5.03505e-20)
(-0.0924841 0.25006 1.46653e-19)
(-0.0835174 0.245925 1.02084e-19)
(-0.0189315 0.224563 0)
(-0.164571 0.299052 1.0263e-19)
(-0.158846 0.289723 -4.46392e-19)
(-0.150398 0.279948 4.27365e-19)
(-0.139958 0.270709 -1.0154e-19)
(-0.128531 0.262629 -4.47297e-20)
(-0.117135 0.255983 1.11397e-19)
(-0.106683 0.250889 -4.30515e-20)
(-0.09793 0.247564 1.478e-20)
(-0.0918182 0.246348 -2.02963e-20)
(-0.0905052 0.247032 1.71721e-21)
(-0.0896363 0.250568 -1.63962e-19)
(-0.0379387 0.252359 0)
(-0.178441 0.296662 1.07709e-19)
(-0.173642 0.283348 1.86099e-19)
(-0.164277 0.269727 -2.72582e-19)
(-0.151688 0.257714 8.64151e-20)
(-0.137569 0.248383 -3.66881e-20)
(-0.123412 0.242057 4.44116e-21)
(-0.110328 0.238599 0)
(-0.0991198 0.237744 0)
(-0.0902179 0.239374 0)
(-0.0847108 0.243269 6.30222e-20)
(-0.0844639 0.248617 9.29438e-20)
(-0.0483718 0.270174 7.35117e-20)
(-0.195589 0.299369 0)
(-0.192768 0.279847 0)
(-0.182089 0.260905 1.47764e-19)
(-0.165845 0.244945 -7.40416e-20)
(-0.147083 0.233336 -2.95867e-20)
(-0.128407 0.226495 6.15299e-20)
(-0.111402 0.224133 0)
(-0.0968323 0.225587 2.6506e-21)
(-0.0849696 0.230209 -1.98069e-20)
(-0.0760984 0.238252 -2.66962e-20)
(-0.0720596 0.24554 -5.46482e-20)
(-0.0482161 0.278178 -9.01604e-21)
(-0.214688 0.294704 -1.72476e-19)
(-0.21512 0.270081 1.71539e-19)
(-0.203575 0.247522 -7.06035e-20)
(-0.183144 0.229219 5.58943e-20)
(-0.158375 0.216285 -2.29204e-20)
(-0.133492 0.209131 -4.20675e-20)
(-0.111091 0.207586 7.92397e-21)
(-0.0921294 0.210983 -1.02272e-20)
(-0.0764975 0.218535 4.06292e-20)
(-0.0641543 0.230041 -4.31572e-20)
(-0.0558474 0.243228 2.86003e-20)
(-0.036716 0.277875 -4.17062e-20)
(-0.226056 0.270588 1.80334e-21)
(-0.23204 0.2441 0)
(-0.221755 0.222071 1.2567e-19)
(-0.198734 0.205542 -9.93852e-20)
(-0.168939 0.19462 4.17595e-20)
(-0.137968 0.18921 1.71586e-20)
(-0.109699 0.189173 -5.87124e-21)
(-0.085661 0.194247 5.31278e-22)
(-0.0656228 0.204065 0)
(-0.0487785 0.218491 0)
(-0.0351029 0.237105 0)
(-0.0160122 0.271877 1.33038e-20)
(-0.222836 0.222513 1.93777e-19)
(-0.236514 0.198229 -1.37994e-19)
(-0.230079 0.181459 6.77004e-20)
(-0.20728 0.171381 -5.96664e-21)
(-0.174886 0.166553 0)
(-0.139779 0.165869 0)
(-0.106816 0.168889 2.95343e-21)
(-0.0780799 0.175803 -2.61947e-21)
(-0.0534403 0.187021 0)
(-0.03136 0.203175 0)
(-0.0110577 0.225048 0)
(0.0131849 0.258879 0)
(-0.203248 0.15591 1.98436e-19)
(-0.225951 0.137149 1.24698e-19)
(-0.225576 0.129219 -1.633e-19)
(-0.205653 0.129104 4.18656e-20)
(-0.173572 0.133366 -8.90139e-21)
(-0.137051 0.139651 9.06212e-21)
(-0.10164 0.147067 -3.09218e-21)
(-0.069742 0.156103 1.15336e-21)
(-0.0412171 0.167762 0)
(-0.013539 0.183962 -9.82411e-21)
(0.0143581 0.205208 1.0178e-20)
(0.0509699 0.23854 0)
(-0.17144 0.0821041 1.53014e-20)
(-0.202522 0.0707771 0)
(-0.20899 0.0733241 0)
(-0.193866 0.0844676 0)
(-0.16461 0.0987987 -9.42364e-21)
(-0.129362 0.112741 -6.80576e-21)
(-0.0940201 0.124929 0)
(-0.0611217 0.135926 1.78714e-22)
(-0.0304033 0.146842 0)
(0.00230655 0.161139 0)
(0.041682 0.17629 -3.43736e-20)
(0.120199 0.209389 -3.83761e-20)
(0.0273417 0.126523 6.03158e-19)
(0.0241465 0.11287 -7.50643e-19)
(0.0316883 0.102304 -4.27301e-21)
(0.0492379 0.0989178 0)
(0.0751642 0.099449 0)
(0.109862 0.101555 -3.03828e-19)
(0.15142 0.103682 -7.54201e-19)
(0.195342 0.105299 -1.47623e-19)
(0.236934 0.10598 2.89487e-19)
(0.272837 0.105171 0)
(0.301216 0.102451 2.72733e-19)
(0.321579 0.0976681 -4.92274e-19)
(0.0234221 0.15569 0)
(0.0586334 0.153669 -2.46508e-19)
(0.105551 0.155942 -1.29731e-19)
(0.153793 0.162474 2.23828e-19)
(0.201996 0.170471 0)
(0.246109 0.177526 2.16668e-19)
(0.282291 0.182891 1.99969e-19)
(0.30832 0.186679 -9.18337e-19)
(0.324321 0.188979 9.13692e-19)
(0.332299 0.189379 -5.27501e-19)
(0.334815 0.187018 -1.56136e-19)
(0.333824 0.18095 3.57649e-19)
(0.0646587 0.163175 -4.1712e-19)
(0.122063 0.177593 6.02114e-19)
(0.178809 0.186843 0)
(0.229264 0.193823 -1.84494e-19)
(0.269574 0.196672 -3.30634e-19)
(0.297741 0.19542 1.77919e-22)
(0.314255 0.190939 7.99676e-19)
(0.321686 0.184387 3.15476e-19)
(0.323565 0.176643 -7.90151e-19)
(0.322971 0.168177 3.36259e-19)
(0.321712 0.159275 0)
(0.320449 0.150361 3.2044e-19)
(0.108319 0.162753 -1.61381e-19)
(0.173638 0.182772 3.06161e-19)
(0.223894 0.190445 -2.86387e-19)
(0.260929 0.19341 4.06763e-19)
(0.284256 0.191632 -2.69738e-19)
(0.296898 0.187322 0)
(0.303072 0.1825 -2.73893e-19)
(0.306411 0.178635 1.3011e-19)
(0.308767 0.17619 1.22253e-20)
(0.310188 0.174631 -1.3176e-19)
(0.309878 0.172711 1.47814e-19)
(0.307329 0.16907 2.75403e-19)
(0.145833 0.15821 1.44148e-19)
(0.209717 0.177459 0)
(0.24587 0.179913 0)
(0.267309 0.179724 -1.23218e-19)
(0.278369 0.176484 2.33828e-19)
(0.285261 0.172665 -4.57416e-19)
(0.291852 0.169619 2.28675e-19)
(0.299039 0.167994 2.34732e-19)
(0.30553 0.167665 -1.19671e-19)
(0.309437 0.167986 4.98016e-19)
(0.309602 0.168139 1.31475e-19)
(0.306051 0.167401 2.46519e-19)
(0.170916 0.154889 3.51298e-19)
(0.231112 0.170677 -4.22766e-19)
(0.253108 0.167012 0)
(0.263472 0.164819 0)
(0.269552 0.161002 0)
(0.277445 0.157806 2.15762e-19)
(0.288166 0.156314 -7.08855e-21)
(0.299835 0.157531 -4.35089e-19)
(0.309508 0.161717 -2.1611e-19)
(0.314651 0.16803 -2.31075e-19)
(0.313981 0.174513 -6.85799e-19)
(0.30751 0.178613 -2.27869e-19)
(0.181069 0.155257 -1.02164e-19)
(0.23983 0.166792 1.9121e-19)
(0.251413 0.156576 0)
(0.256061 0.152457 0)
(0.261898 0.147187 1.62155e-19)
(0.273318 0.143226 0)
(0.289161 0.14197 0)
(0.306347 0.145171 -1.94259e-19)
(0.320767 0.153454 5.93446e-19)
(0.328315 0.165722 1.9864e-21)
(0.326636 0.179188 4.22886e-19)
(0.31622 0.190265 2.1177e-19)
(0.176788 0.160485 -5.35505e-21)
(0.23954 0.165771 1.55844e-19)
(0.243648 0.148886 0)
(0.246895 0.142374 -1.32753e-19)
(0.25446 0.134052 -1.56607e-19)
(0.270102 0.127373 0)
(0.291695 0.124386 1.49099e-19)
(0.31503 0.128122 -1.63765e-19)
(0.333517 0.140237 -1.36908e-21)
(0.340834 0.15971 2.87099e-21)
(0.334661 0.182377 4.28246e-19)
(0.31778 0.202429 2.22888e-19)
(0.160963 0.173809 4.79874e-20)
(0.231292 0.164766 -1.21281e-19)
(0.233106 0.143978 0)
(0.235668 0.133045 1.23673e-19)
(0.245343 0.1207 0)
(0.264645 0.109097 -2.45768e-19)
(0.291021 0.101722 -1.38768e-20)
(0.318025 0.103463 -8.46428e-21)
(0.336197 0.117453 -1.89316e-19)
(0.338126 0.142864 2.20263e-19)
(0.323412 0.174348 -4.31345e-19)
(0.298593 0.204721 -4.155e-19)
(0.138082 0.197584 -5.36975e-20)
(0.214809 0.168023 1.57591e-19)
(0.220269 0.141908 2.58476e-22)
(0.221768 0.124154 -1.69962e-19)
(0.232771 0.106641 1.79427e-19)
(0.253766 0.0884778 1.25283e-20)
(0.281333 0.0739969 0)
(0.307185 0.0702165 4.26491e-19)
(0.319281 0.0826244 3.67992e-19)
(0.310687 0.111141 -6.46446e-19)
(0.28519 0.149976 0)
(0.25296 0.191183 0)
(0.122303 0.22813 -7.15977e-20)
(0.192652 0.177614 -1.22885e-20)
(0.203164 0.142246 -1.47457e-19)
(0.204056 0.115843 0)
(0.214993 0.0925953 1.88177e-19)
(0.235413 0.0674831 -6.96377e-20)
(0.260006 0.0437997 -1.04292e-19)
(0.279247 0.0312733 -1.39072e-19)
(0.280991 0.0383102 -1.40422e-19)
(0.259822 0.0663816 1.78967e-20)
(0.223726 0.110601 -7.5645e-19)
(0.186122 0.161115 0)
(0.0892074 0.289061 7.01708e-20)
(0.165201 0.220139 3.77537e-20)
(0.183062 0.158313 5.20776e-20)
(0.184943 0.111178 0)
(0.19307 0.0779604 -2.47948e-19)
(0.209434 0.0472942 -1.36686e-20)
(0.22752 0.0158546 6.38958e-20)
(0.236734 -0.0064228 0)
(0.226485 -0.00735291 0)
(0.194757 0.0174503 3.77757e-19)
(0.151113 0.0637688 4.5129e-19)
(0.109915 0.120609 0)
(0.33447 0.0907984 7.00928e-19)
(0.34082 0.0817909 -4.71313e-19)
(0.34096 0.0706336 1.00977e-19)
(0.3352 0.0575596 -1.54862e-19)
(0.323333 0.0439906 2.62991e-19)
(0.305488 0.0315984 -1.17407e-19)
(0.281741 0.0212885 1.07282e-19)
(0.252354 0.0130987 -6.3296e-21)
(0.218724 0.00561002 -2.09543e-20)
(0.183735 -0.00484317 -1.36744e-19)
(0.15083 -0.0226744 1.9469e-19)
(0.124995 -0.0449152 2.55472e-19)
(0.330441 0.170765 -9.88602e-20)
(0.32564 0.157024 0)
(0.320327 0.141347 -9.45051e-20)
(0.313992 0.124947 0)
(0.306258 0.109194 -7.49067e-20)
(0.296557 0.0953106 7.58367e-20)
(0.284432 0.0843957 0)
(0.269401 0.0768282 -4.63136e-21)
(0.250668 0.0706811 1.80996e-20)
(0.227004 0.059098 1.43947e-19)
(0.196122 0.0299173 -2.28924e-19)
(0.155552 -0.0231659 0)
(0.318842 0.141867 -3.24792e-19)
(0.315261 0.133246 1.547e-19)
(0.308954 0.123364 -2.3087e-19)
(0.300855 0.1133 6.52757e-20)
(0.291796 0.103464 6.45048e-20)
(0.282443 0.0946063 -3.29401e-20)
(0.273404 0.0878491 -5.49555e-20)
(0.26513 0.0844263 -5.43026e-22)
(0.257055 0.0844234 -8.58462e-20)
(0.246564 0.0825439 1.78398e-19)
(0.228198 0.0611159 -5.92677e-20)
(0.189595 -0.00545401 0)
(0.302746 0.162753 -1.1688e-20)
(0.297093 0.154057 -1.25799e-19)
(0.290631 0.143803 -6.53041e-20)
(0.28339 0.132528 -2.29592e-19)
(0.275821 0.121045 5.97713e-20)
(0.268336 0.110155 8.25351e-20)
(0.261467 0.100727 6.29062e-21)
(0.256007 0.0938858 -1.87554e-20)
(0.252511 0.0912033 2.60224e-20)
(0.250054 0.0924798 5.37071e-20)
(0.245924 0.0835184 -1.0119e-19)
(0.224571 0.0189405 -1.18277e-19)
(0.299049 0.164585 -1.1579e-19)
(0.289719 0.158856 0)
(0.279943 0.150404 1.00936e-19)
(0.270703 0.139962 -4.96026e-20)
(0.262623 0.128533 0)
(0.255975 0.117136 -8.34293e-20)
(0.250882 0.106682 4.31086e-20)
(0.247557 0.0979281 5.52646e-21)
(0.24634 0.0918143 -4.04673e-20)
(0.247023 0.0904984 4.68386e-20)
(0.250561 0.0896323 3.79294e-20)
(0.252364 0.0379458 -9.51042e-20)
(0.296662 0.178459 3.1198e-19)
(0.283345 0.173655 -2.02296e-19)
(0.269722 0.164285 -8.54962e-20)
(0.257708 0.151693 8.65207e-20)
(0.248376 0.13757 7.23021e-20)
(0.242049 0.123413 1.63653e-21)
(0.238592 0.110328 0)
(0.237737 0.0991181 -3.63495e-21)
(0.239367 0.0902147 -3.18718e-20)
(0.243262 0.084705 3.88428e-20)
(0.248609 0.0844568 3.26791e-20)
(0.270175 0.0483751 -6.98864e-20)
(0.299372 0.195614 -1.94185e-19)
(0.279852 0.192789 0)
(0.260907 0.182104 7.27326e-20)
(0.244944 0.165855 -1.39945e-19)
(0.233331 0.147088 -4.24134e-21)
(0.226486 0.128408 -3.02136e-20)
(0.224122 0.111401 0)
(0.225576 0.09683 3.4815e-21)
(0.230199 0.0849661 0)
(0.238244 0.0760932 2.67486e-20)
(0.245532 0.0720511 5.0285e-20)
(0.278175 0.0482154 -5.91474e-21)
(0.294711 0.214717 1.64022e-19)
(0.270092 0.215145 -3.19464e-19)
(0.247535 0.203598 2.84991e-19)
(0.22923 0.183163 6.22421e-20)
(0.216287 0.158389 -2.29844e-20)
(0.209123 0.1335 -2.31885e-20)
(0.20757 0.111092 -7.95322e-21)
(0.210964 0.0921265 0)
(0.218518 0.0764914 -1.19063e-20)
(0.230028 0.0641459 2.15523e-20)
(0.24322 0.0558391 0)
(0.277868 0.0367099 -1.81467e-20)
(0.270599 0.226081 3.81984e-19)
(0.24412 0.232064 -1.60624e-19)
(0.222096 0.221781 -2.71057e-21)
(0.205564 0.198763 0)
(0.194634 0.168967 6.77772e-21)
(0.189209 0.13799 0)
(0.189157 0.109709 5.89116e-21)
(0.19422 0.0856601 5.87669e-21)
(0.204038 0.0656143 6.50638e-21)
(0.218471 0.0487662 -2.01717e-20)
(0.237089 0.0350886 -7.79206e-21)
(0.27187 0.0160028 -9.85382e-21)
(0.222533 0.222856 -1.82892e-19)
(0.19826 0.236533 3.08466e-19)
(0.181493 0.230103 -2.00274e-19)
(0.171414 0.207315 -4.85262e-20)
(0.166578 0.174928 3.17151e-20)
(0.165879 0.139819 0)
(0.168878 0.106843 0)
(0.175774 0.0780875 0)
(0.186984 0.0534306 -1.03676e-21)
(0.203143 0.031342 0)
(0.22503 0.0110371 -4.57341e-21)
(0.258867 -0.0131989 -2.2848e-20)
(0.155941 0.203266 0)
(0.137187 0.225967 1.43092e-19)
(0.129259 0.225599 -4.2254e-20)
(0.129141 0.205689 -2.27528e-20)
(0.133398 0.173622 -2.93359e-20)
(0.13967 0.137107 9.11899e-21)
(0.147063 0.101687 0)
(0.156073 0.0697644 0)
(0.167719 0.0412104 9.71706e-22)
(0.183922 0.0135159 9.74524e-21)
(0.205181 -0.0143847 -1.00966e-20)
(0.238525 -0.050994 8.57984e-20)
(0.0821403 0.171454 0)
(0.0708175 0.202536 0)
(0.0733616 0.20901 0)
(0.0845011 0.193902 5.91662e-20)
(0.0988291 0.164663 1.21051e-20)
(0.112763 0.129428 1.03291e-20)
(0.124929 0.0940853 -3.68023e-21)
(0.135896 0.0611617 -4.37092e-23)
(0.146792 0.030402 0)
(0.161091 -0.00233533 0)
(0.176253 -0.0417158 0)
(0.209362 -0.120222 -3.46766e-21)
(0.126523 -0.027345 7.53324e-19)
(0.112872 -0.0241507 -7.51133e-19)
(0.102309 -0.031695 0)
(0.0989245 -0.049248 0)
(0.0994581 -0.0751793 -6.43985e-19)
(0.101564 -0.109882 9.34911e-19)
(0.103692 -0.151448 0)
(0.105311 -0.195375 0)
(0.105995 -0.23697 9.33971e-19)
(0.105188 -0.272871 -9.13647e-19)
(0.10247 -0.301248 5.05142e-19)
(0.0976879 -0.321608 -1.22761e-19)
(0.155689 -0.0234261 0)
(0.153667 -0.0586394 5.24217e-19)
(0.155941 -0.10556 -4.99428e-19)
(0.162476 -0.153805 0)
(0.170476 -0.202012 4.42073e-19)
(0.177534 -0.246129 -4.17713e-19)
(0.182903 -0.282312 -2.0664e-19)
(0.186695 -0.308339 -3.67367e-19)
(0.188998 -0.324337 5.23107e-19)
(0.1894 -0.332314 -1.74729e-19)
(0.18704 -0.334829 -7.08192e-19)
(0.180971 -0.333837 8.80062e-19)
(0.163174 -0.0646615 6.15604e-19)
(0.17759 -0.12207 -3.93467e-19)
(0.186839 -0.178822 0)
(0.19382 -0.229282 1.63035e-19)
(0.196671 -0.269595 0)
(0.195421 -0.297761 4.9137e-19)
(0.190942 -0.314274 -1.67126e-19)
(0.184392 -0.321704 -6.33243e-19)
(0.176651 -0.323584 3.1979e-19)
(0.168187 -0.322991 5.87019e-22)
(0.159288 -0.321735 1.60296e-19)
(0.150378 -0.320472 -1.61742e-19)
(0.162753 -0.108322 -3.43334e-19)
(0.18277 -0.173649 0)
(0.190443 -0.223913 0)
(0.193407 -0.260952 -2.7799e-19)
(0.19163 -0.28428 0)
(0.187321 -0.296921 -2.71776e-19)
(0.182501 -0.303095 2.72185e-19)
(0.178639 -0.306436 0)
(0.176199 -0.308795 0)
(0.174644 -0.310217 -1.48287e-19)
(0.172729 -0.309908 -1.48729e-19)
(0.169091 -0.307356 1.36528e-19)
(0.158211 -0.145838 1.34741e-19)
(0.177458 -0.209733 -2.55723e-19)
(0.179912 -0.245892 0)
(0.179722 -0.267334 -9.81103e-20)
(0.176482 -0.278393 -2.34045e-19)
(0.172665 -0.285286 2.47061e-19)
(0.16962 -0.29188 3.84038e-21)
(0.167998 -0.299073 -7.15603e-21)
(0.167674 -0.305568 0)
(0.168 -0.309478 0)
(0.16816 -0.309643 0)
(0.167427 -0.306089 -6.25326e-19)
(0.15489 -0.170927 3.46818e-19)
(0.170678 -0.231131 -2.1155e-19)
(0.167012 -0.253132 -2.06325e-19)
(0.164818 -0.263496 2.12342e-19)
(0.161 -0.269577 -3.94308e-19)
(0.157803 -0.277472 2.24845e-19)
(0.156312 -0.288201 4.12316e-19)
(0.157533 -0.299876 -4.35502e-19)
(0.161724 -0.309557 2.22862e-19)
(0.168046 -0.314704 -2.2525e-19)
(0.174537 -0.314033 0)
(0.178647 -0.307559 2.28234e-19)
(0.155258 -0.181085 9.00599e-20)
(0.166791 -0.239853 -1.75516e-19)
(0.156575 -0.251436 1.76624e-19)
(0.152455 -0.256083 0)
(0.147183 -0.261922 3.59487e-19)
(0.14322 -0.273348 1.92349e-19)
(0.141964 -0.289201 -3.68513e-19)
(0.145166 -0.306396 1.83645e-19)
(0.153456 -0.320826 1.96768e-19)
(0.165734 -0.328377 2.09719e-19)
(0.179214 -0.3267 0)
(0.190304 -0.316277 -3.13203e-21)
(0.160483 -0.176811 -1.62483e-19)
(0.165772 -0.239562 3.02513e-19)
(0.148883 -0.243669 -1.47234e-19)
(0.14237 -0.246915 1.45327e-19)
(0.134045 -0.254484 -1.45058e-19)
(0.127361 -0.270133 0)
(0.124372 -0.291735 1.49287e-19)
(0.128107 -0.315082 -1.61133e-19)
(0.140227 -0.333576 -7.33684e-19)
(0.159711 -0.340896 1.99071e-19)
(0.182394 -0.334718 0)
(0.202465 -0.31783 2.02672e-19)
(0.1738 -0.160989 6.84815e-20)
(0.164768 -0.231314 -1.1299e-19)
(0.143973 -0.233123 1.13194e-19)
(0.133039 -0.235686 0)
(0.120689 -0.245364 -1.35261e-20)
(0.109079 -0.264672 1.20633e-19)
(0.101697 -0.291056 -2.5452e-19)
(0.103434 -0.318067 1.78617e-19)
(0.117425 -0.336243 1.8952e-19)
(0.142845 -0.338169 -1.96266e-19)
(0.174346 -0.323446 0)
(0.204742 -0.298618 0)
(0.197569 -0.138109 9.53195e-20)
(0.168022 -0.214832 0)
(0.141903 -0.220284 0)
(0.124147 -0.221783 -1.49184e-19)
(0.106629 -0.232788 -9.82337e-20)
(0.0884565 -0.253786 1.78106e-19)
(0.0739635 -0.281356 1.12386e-19)
(0.0701725 -0.307211 1.26042e-19)
(0.0825761 -0.319303 1.79877e-19)
(0.111098 -0.3107 0)
(0.149946 -0.285191 5.13797e-19)
(0.191178 -0.252952 -2.26701e-19)
(0.228118 -0.122321 -6.17863e-20)
(0.177606 -0.192668 0)
(0.14224 -0.203177 0)
(0.115839 -0.204068 1.39487e-19)
(0.0925862 -0.215006 0)
(0.0674618 -0.235424 -1.63473e-19)
(0.0437637 -0.260015 0)
(0.0312227 -0.279253 0)
(0.0382499 -0.280989 -5.03334e-19)
(0.0663195 -0.25981 -3.16831e-20)
(0.110547 -0.2237 -7.62502e-19)
(0.161085 -0.186087 -2.28729e-19)
(0.289042 -0.0892209 -1.13665e-19)
(0.220117 -0.165208 0)
(0.15829 -0.183075 0)
(0.111171 -0.184951 0)
(0.0779582 -0.193076 -5.32231e-20)
(0.0472808 -0.209436 5.18859e-20)
(0.0158239 -0.227517 0)
(-0.00647026 -0.236725 0)
(-0.00741306 -0.226465 0)
(0.0173843 -0.194726 -5.7148e-19)
(0.0637043 -0.151072 6.67737e-19)
(0.120562 -0.109863 0)
(0.0908187 -0.334495 0)
(0.0818094 -0.340841 0)
(0.0706489 -0.340977 0)
(0.0575705 -0.335213 0)
(0.0439984 -0.323342 9.74646e-20)
(0.0316034 -0.305494 4.43298e-20)
(0.0212911 -0.281745 1.15266e-20)
(0.013099 -0.252356 -4.29657e-20)
(0.00560854 -0.218726 4.53078e-20)
(-0.00484522 -0.183737 0)
(-0.0226748 -0.150833 0)
(-0.0449126 -0.124998 9.995e-20)
(0.170783 -0.330452 -3.58515e-19)
(0.15704 -0.325651 0)
(0.141361 -0.32034 0)
(0.124959 -0.314002 0)
(0.109204 -0.306266 -4.3272e-20)
(0.0953185 -0.296563 -7.62743e-20)
(0.0844009 -0.284435 8.71859e-21)
(0.0768302 -0.269402 -8.88057e-21)
(0.0706801 -0.250667 0)
(0.0590957 -0.227002 0)
(0.0299172 -0.196121 7.51998e-20)
(-0.0231605 -0.155555 -8.80326e-20)
(0.141887 -0.318866 1.04704e-20)
(0.133266 -0.315281 6.12037e-19)
(0.123385 -0.308971 -4.41839e-19)
(0.113319 -0.300869 2.12877e-19)
(0.10348 -0.291807 -1.98566e-19)
(0.0946197 -0.282452 9.53512e-20)
(0.087859 -0.273412 -6.2481e-20)
(0.0844324 -0.265135 0)
(0.0844256 -0.257057 -3.055e-20)
(0.0825428 -0.246563 -1.16362e-19)
(0.0611144 -0.228194 1.19394e-19)
(-0.00545027 -0.189594 -1.43911e-19)
(0.162777 -0.302772 -2.64418e-19)
(0.154081 -0.297116 3.86875e-19)
(0.143827 -0.29065 0)
(0.13255 -0.283407 -1.05551e-19)
(0.121064 -0.275834 1.1895e-19)
(0.110171 -0.268346 1.06081e-19)
(0.10074 -0.261475 -4.58895e-20)
(0.0938955 -0.256014 -3.10718e-20)
(0.0912096 -0.252516 -1.27637e-21)
(0.0924823 -0.250056 1.51533e-19)
(0.0835181 -0.245922 -1.55411e-19)
(0.0189424 -0.224569 1.18325e-19)
(0.164616 -0.299082 1.28999e-19)
(0.158889 -0.289746 -1.16889e-19)
(0.150435 -0.279964 1.01006e-19)
(0.139991 -0.270719 -4.96406e-20)
(0.128557 -0.262634 0)
(0.117156 -0.255984 -8.34846e-20)
(0.106698 -0.250887 3.79575e-20)
(0.0979399 -0.247561 -1.51378e-20)
(0.0918226 -0.246343 -2.01525e-20)
(0.0905037 -0.247026 1.22213e-19)
(0.0896336 -0.250561 -8.16979e-20)
(0.0379474 -0.252361 0)
(0.178499 -0.296704 -1.07889e-19)
(0.173698 -0.283378 0)
(0.164327 -0.269745 8.61055e-20)
(0.15173 -0.257721 7.80397e-20)
(0.137601 -0.248383 3.67709e-20)
(0.123436 -0.24205 1.63548e-21)
(0.110345 -0.238591 0)
(0.0991305 -0.237734 -1.6088e-20)
(0.0902231 -0.239365 -1.58153e-20)
(0.0847099 -0.24326 3.16617e-20)
(0.0844583 -0.248607 6.86201e-20)
(0.0483761 -0.270172 -6.99153e-20)
(0.195666 -0.29942 0)
(0.192846 -0.279887 -1.6322e-19)
(0.182161 -0.260931 8.83117e-21)
(0.165905 -0.244956 -7.37836e-20)
(0.147127 -0.233333 -5.80011e-20)
(0.128437 -0.226482 0)
(0.11142 -0.224114 0)
(0.0968427 -0.225568 2.65996e-21)
(0.0849733 -0.230191 0)
(0.0760965 -0.238238 0)
(0.0720508 -0.245528 -3.89965e-20)
(0.0482141 -0.278171 -9.02077e-21)
(0.214771 -0.29475 0)
(0.215212 -0.270121 0)
(0.203667 -0.247553 2.0612e-19)
(0.183226 -0.229237 5.60671e-20)
(0.15844 -0.216286 7.7661e-20)
(0.133536 -0.209116 4.19246e-21)
(0.111115 -0.207558 0)
(0.0921392 -0.210951 -1.02689e-20)
(0.0764975 -0.218506 -4.05028e-21)
(0.0641473 -0.230018 -7.09169e-21)
(0.0558359 -0.243211 9.6377e-20)
(0.0367048 -0.277862 -7.27936e-20)
(0.226126 -0.270615 1.97794e-19)
(0.232127 -0.244129 -1.60791e-19)
(0.221854 -0.222098 -1.28728e-19)
(0.198835 -0.205562 -4.74278e-21)
(0.169026 -0.194627 -4.19148e-20)
(0.138032 -0.189198 1.72318e-20)
(0.109735 -0.189143 5.07792e-21)
(0.0856732 -0.194206 0)
(0.0656186 -0.204025 1.10589e-20)
(0.0487649 -0.218459 -1.25704e-20)
(0.0350838 -0.237081 -1.74287e-20)
(0.0159942 -0.271861 -6.52122e-22)
(0.222879 -0.222519 2.31407e-19)
(0.236583 -0.198241 1.54294e-19)
(0.23017 -0.181475 0)
(0.207385 -0.171396 3.55145e-20)
(0.17499 -0.166562 -1.23696e-20)
(0.139864 -0.165864 3.05581e-20)
(0.10687 -0.168863 -4.67194e-21)
(0.0780999 -0.17576 -8.63659e-22)
(0.0534335 -0.186971 0)
(0.0313388 -0.203132 -7.17176e-21)
(0.011029 -0.225018 -3.35926e-21)
(-0.0132132 -0.25886 0)
(0.203266 -0.1559 -1.78113e-19)
(0.225998 -0.137145 0)
(0.225653 -0.12922 -4.23045e-20)
(0.205753 -0.12911 -2.84495e-20)
(0.173681 -0.133373 0)
(0.137151 -0.139652 -1.66309e-20)
(0.101713 -0.147048 0)
(0.0697759 -0.15606 8.05023e-22)
(0.0412112 -0.167707 0)
(0.0135107 -0.183911 0)
(-0.0143947 -0.205173 7.59034e-21)
(-0.0510147 -0.238515 -2.7528e-20)
(0.171436 -0.0820829 1.75603e-19)
(0.202549 -0.0707589 1.10083e-19)
(0.20905 -0.0733084 -1.08212e-19)
(0.193953 -0.0844578 0)
(0.164714 -0.0987986 -6.70666e-21)
(0.129467 -0.112744 6.87572e-21)
(0.0941091 -0.124918 0)
(0.0611712 -0.135887 -1.62063e-22)
(0.030401 -0.146785 0)
(-0.00234255 -0.161084 0)
(-0.0417259 -0.176243 0)
(-0.120246 -0.209361 7.98267e-20)
(-0.0273543 -0.126524 -6.0319e-19)
(-0.0241662 -0.112879 4.48648e-19)
(-0.0317167 -0.102321 0)
(-0.0492729 -0.0989384 -9.31136e-19)
(-0.0752013 -0.0994713 6.36823e-19)
(-0.109893 -0.101578 -3.03783e-19)
(-0.15144 -0.103703 1.50278e-19)
(-0.195351 -0.105317 -1.42515e-19)
(-0.236933 -0.105994 -5.4562e-19)
(-0.272828 -0.10518 6.51283e-19)
(-0.301201 -0.102457 1.26341e-19)
(-0.321561 -0.0976713 -3.75439e-19)
(-0.0234477 -0.155684 -3.94406e-19)
(-0.0586617 -0.153668 -9.39498e-21)
(-0.105572 -0.155947 4.99103e-19)
(-0.153803 -0.162483 4.95785e-19)
(-0.201991 -0.170482 -1.07534e-21)
(-0.24609 -0.177538 -1.9899e-19)
(-0.28226 -0.182903 0)
(-0.308282 -0.186691 -1.77777e-19)
(-0.32428 -0.188987 -1.73376e-19)
(-0.33226 -0.189383 1.71511e-19)
(-0.334778 -0.187018 0)
(-0.33379 -0.180946 -2.69676e-19)
(-0.0646834 -0.163164 -1.09303e-19)
(-0.12208 -0.177582 0)
(-0.178812 -0.186832 0)
(-0.22925 -0.193814 -1.62234e-19)
(-0.269544 -0.196663 1.74436e-19)
(-0.297698 -0.195412 3.20759e-19)
(-0.314206 -0.190931 -6.33054e-19)
(-0.321638 -0.184378 4.81891e-19)
(-0.323521 -0.176633 -1.5271e-19)
(-0.322931 -0.168164 1.56659e-19)
(-0.321677 -0.15926 -3.21211e-19)
(-0.320416 -0.150345 3.42694e-19)
(-0.108335 -0.162743 1.67158e-19)
(-0.173646 -0.182758 0)
(-0.223887 -0.190431 1.36203e-19)
(-0.260905 -0.193396 -1.3061e-19)
(-0.284218 -0.19162 -2.55743e-19)
(-0.296854 -0.187312 2.69491e-19)
(-0.303028 -0.182492 2.73944e-19)
(-0.30637 -0.178628 -2.7585e-19)
(-0.30873 -0.176183 0)
(-0.310154 -0.174622 0)
(-0.309848 -0.172701 0)
(-0.307301 -0.169058 1.48458e-19)
(-0.14584 -0.158204 1.41159e-22)
(-0.20972 -0.17745 2.5557e-19)
(-0.245857 -0.179904 -1.25819e-19)
(-0.267281 -0.179716 1.23253e-19)
(-0.278332 -0.176478 5.77897e-19)
(-0.285222 -0.172662 -2.3375e-19)
(-0.291815 -0.169616 -2.28744e-19)
(-0.299006 -0.16799 -4.80317e-19)
(-0.305499 -0.167659 2.47066e-19)
(-0.309407 -0.167976 0)
(-0.309574 -0.168126 0)
(-0.306026 -0.167385 2.46565e-19)
(-0.17092 -0.154888 -2.40794e-19)
(-0.231111 -0.170675 2.19872e-19)
(-0.253093 -0.167011 0)
(-0.263443 -0.16482 -1.89797e-19)
(-0.269518 -0.161004 -2.25909e-19)
(-0.277412 -0.157808 2.03014e-19)
(-0.288135 -0.156315 4.19123e-19)
(-0.299803 -0.157531 6.48841e-19)
(-0.309476 -0.161714 -4.40782e-19)
(-0.314618 -0.168023 -8.46501e-22)
(-0.313949 -0.174501 4.57139e-19)
(-0.30748 -0.178595 -4.63124e-19)
(-0.181072 -0.155261 -1.22016e-20)
(-0.239829 -0.166793 -9.83019e-21)
(-0.251395 -0.156581 -1.76513e-19)