/*--------------------------------*- C++ -*----------------------------------*\
| =========                 |                                                 |
| \\      /  F ield         | OpenFOAM: The Open Source CFD Toolbox           |
|  \\    /   O peration     | Version:  2.3.1                                 |
|   \\  /    A nd           | Web:      www.OpenFOAM.org                      |
|    \\/     M anipulation  |                                                 |
\*---------------------------------------------------------------------------*/
FoamFile
{
    version     2.0;
    format      ascii;
    class       volScalarField;
    location    "0.63";
    object      epsilon;
}
// * * * * * * * * * * * * * * * * * * * * * * * * * * * * * * * * * * * * * //

dimensions      [0 2 -3 0 0 0 0];

internalField   nonuniform List<scalar> 
15166
(
1077.69
1003.56
1000.25
1064
1106.59
1135.6
1106.48
1023.39
922.598
805.888
688.738
589.597
1078.28
882.487
931.153
1001.45
1045.9
1069.27
1037.37
960.086
864.424
756.771
649.263
551.053
1090.36
787.876
864.754
940.361
987.172
1006.84
974.575
902.6
812.61
712.859
612.964
518.04
1106.23
716.772
805.513
883.601
931.672
948.691
917.29
850.318
766.046
673.225
579.455
486.921
1123.52
663.279
753.876
832.194
880.32
895.173
865.125
802.779
723.963
637.282
548.836
460.046
1142.27
622.158
708.606
785.726
833.071
846.118
817.586
759.476
685.761
604.516
520.741
435.224
1162.59
589.994
668.633
743.568
789.57
801.107
774.139
719.931
650.902
574.494
494.746
411.508
1184.13
564.617
633.216
705.222
749.493
759.757
734.329
683.695
618.96
546.895
470.831
390.689
1206.67
544.525
601.771
670.29
712.553
721.719
697.758
650.385
589.586
521.453
448.794
371.661
1229.9
528.605
573.776
638.396
678.479
686.673
664.089
619.698
562.484
497.938
428.516
354.778
1253.57
516.03
548.781
609.203
647.003
654.325
633.013
591.342
537.414
476.163
409.805
339.247
1277.58
506.154
526.398
582.417
617.886
624.411
604.266
565.076
514.156
455.966
392.652
325.952
1301.75
498.488
506.304
557.777
590.901
596.688
577.611
540.684
492.532
437.202
376.869
314.019
1325.96
492.64
488.22
535.062
565.854
570.952
552.842
517.988
472.378
419.711
362.076
301.395
1350.05
488.299
471.91
514.081
542.567
547.008
529.78
496.817
453.566
403.404
348.397
290.865
1374.01
485.21
457.166
494.663
520.882
524.699
508.272
477.046
435.964
388.149
335.66
280.973
1397.67
483.168
443.812
476.66
500.659
503.873
488.17
458.533
419.468
373.866
323.746
271.518
1421.06
482.002
431.698
459.944
481.77
484.397
469.348
441.184
403.993
360.466
312.576
262.645
1444.07
481.568
420.688
444.395
464.1
466.157
451.703
424.884
389.442
347.87
302.106
254.482
1466.59
481.75
410.668
429.914
447.55
449.048
435.128
409.555
375.74
336.02
292.265
246.776
1488.56
482.442
401.533
416.408
432.027
432.975
419.539
395.116
362.824
324.836
282.963
239.27
1510.04
483.569
393.195
403.796
417.449
417.858
404.857
381.498
350.626
314.271
274.146
232.093
1531.04
485.044
385.574
392.005
403.743
403.618
391.008
368.635
339.094
304.271
265.747
224.962
1551.28
486.826
378.601
380.969
390.843
390.189
377.93
356.469
328.177
294.794
257.757
218.288
1570.97
488.866
372.216
370.632
378.689
377.511
365.568
344.957
317.83
285.792
250.14
211.86
1589.95
491.092
366.361
360.937
367.226
365.53
353.868
334.043
308.01
277.238
242.887
205.864
1608.25
493.484
360.988
351.837
356.403
354.194
342.782
323.689
298.681
269.095
235.981
200.141
1625.91
496.002
356.051
343.289
346.177
343.458
332.265
313.855
289.809
261.342
229.4
194.805
1642.84
498.635
351.516
335.25
336.506
333.281
322.283
304.504
281.363
253.952
223.143
189.814
1659.12
501.376
347.343
327.686
327.351
323.625
312.797
295.609
273.315
246.905
217.162
184.878
1674.71
504.149
343.501
320.562
318.68
314.454
303.775
287.136
265.64
240.174
211.461
180.287
1689.45
506.988
339.959
313.847
310.459
305.74
295.186
279.061
258.314
233.745
206.001
175.778
1703.32
509.866
336.7
307.515
302.66
297.45
287.006
271.356
251.317
227.597
200.787
171.606
1716.76
512.744
333.692
301.539
295.257
289.562
279.207
264.001
244.629
221.717
195.794
167.509
1729.24
515.623
330.925
295.895
288.225
282.048
271.766
256.975
238.235
216.088
191.018
163.688
1740.92
518.511
328.371
290.564
281.541
274.886
264.661
250.257
232.113
210.694
186.436
159.891
1752.08
521.386
326.021
285.521
275.184
268.056
257.875
243.833
226.249
205.52
182.035
156.295
1762.32
524.243
323.857
280.751
269.135
261.536
251.385
237.68
220.628
200.559
177.821
152.97
1771.92
527.082
321.863
276.236
263.375
255.313
245.178
231.786
215.237
195.8
173.777
149.693
1780.85
529.889
320.027
271.959
257.887
249.366
239.238
226.139
210.067
191.231
169.909
146.691
1788.81
532.695
318.336
267.911
252.659
243.683
233.55
220.723
205.103
186.838
166.168
143.493
1796.14
535.604
316.79
264.075
247.676
238.248
228.101
215.527
200.333
182.614
162.541
140.271
1802.55
538.519
315.372
260.44
242.924
233.048
222.877
210.539
195.75
178.548
159.053
137.426
1808.37
541.498
314.107
256.998
238.39
228.071
217.867
205.749
191.343
174.633
155.686
134.57
1813.48
544.392
313.01
253.744
234.062
223.305
213.061
201.147
187.104
170.862
152.447
131.971
1817.77
547.108
312.054
250.676
229.93
218.738
208.446
196.723
183.023
167.228
149.315
129.271
1821.31
549.877
311.217
247.793
225.989
214.363
204.017
192.468
179.094
163.724
146.303
126.895
1824.3
552.47
310.492
245.067
222.227
210.174
199.761
188.373
175.308
160.345
143.393
124.447
1826.54
554.977
309.836
242.5
218.641
206.157
195.669
184.43
171.657
157.082
140.589
122.222
1828.05
557.411
309.297
240.078
215.221
202.306
191.735
180.632
168.135
153.931
137.87
119.914
1828.84
559.684
308.836
237.793
211.958
198.612
187.952
176.972
164.735
150.887
135.251
117.844
1829.02
562.004
308.454
235.644
208.848
195.07
184.314
173.446
161.455
147.946
132.723
115.831
1828.55
564.136
308.139
233.611
205.881
191.674
180.815
170.047
158.289
145.103
130.267
113.688
1827.33
566.221
307.889
231.704
203.052
188.415
177.447
166.77
155.231
142.356
127.894
111.765
1825.61
568.229
307.699
229.907
200.355
185.291
174.207
163.61
152.278
139.698
125.602
109.926
1823.33
570.158
307.568
228.217
197.781
182.294
171.089
160.561
149.425
137.13
123.394
108.23
1820.28
571.896
307.486
226.629
195.33
179.419
168.087
157.622
146.669
134.645
121.256
106.487
1816.69
573.691
307.458
225.145
192.994
176.662
165.2
154.786
144.007
132.244
119.193
104.881
1812.59
575.285
307.48
223.755
190.77
174.02
162.419
152.05
141.434
129.921
117.179
103.037
1807.71
576.82
307.523
222.443
188.648
171.485
159.744
149.41
138.948
127.672
115.227
101.42
1802.37
578.211
307.636
221.227
186.631
169.055
157.168
146.862
136.543
125.494
113.342
99.9485
1796.53
579.621
307.79
220.094
184.714
166.727
154.689
144.404
134.219
123.387
111.525
98.5657
1790.08
580.85
307.982
219.039
182.887
164.495
152.304
142.031
131.972
121.349
109.765
97.1309
1783
582.022
308.186
218.07
181.156
162.358
150.008
139.743
129.8
119.376
108.063
95.7853
1775.41
583.042
308.456
217.165
179.512
160.312
147.801
137.535
127.701
117.467
106.411
94.3867
1767.17
584.028
308.736
216.334
177.956
158.353
145.678
135.404
125.672
115.62
104.809
93.0889
1758.81
584.973
309.055
215.581
176.48
156.481
143.637
133.351
123.712
113.831
103.252
91.7486
1749.23
585.75
309.398
214.888
175.085
154.691
141.675
131.369
121.816
112.1
101.744
90.5361
1739.64
586.471
309.782
214.263
173.772
152.982
139.79
129.46
119.986
110.424
100.283
89.3261
1729.73
587.078
310.199
213.705
172.53
151.349
137.98
127.618
118.216
108.801
98.8702
88.2068
1718.9
587.681
310.632
213.218
171.366
149.791
136.241
125.844
116.507
107.233
97.4988
87.0463
1707.68
587.984
311.104
212.786
170.273
148.31
134.573
124.134
114.856
105.713
96.1698
85.9856
1695.93
588.439
311.57
212.399
169.247
146.899
132.975
122.488
113.261
104.245
94.8877
84.9539
1683.74
588.658
312.141
212.106
168.303
145.563
131.447
120.906
111.723
102.825
93.6442
83.9157
1671.04
588.784
312.663
211.851
167.414
144.292
129.98
119.383
110.238
101.45
92.4384
82.9338
1658.33
588.983
313.24
211.662
166.598
143.087
128.579
117.918
108.805
100.123
91.2681
81.9049
1644.7
588.949
313.826
211.525
165.852
141.951
127.242
116.512
107.426
98.839
90.1322
80.953
1630.3
588.71
314.424
211.45
165.167
140.881
125.966
115.162
106.096
97.5999
89.0318
79.991
1615.9
588.586
315.073
211.429
164.548
139.874
124.751
113.868
104.817
96.403
87.9668
79.1029
1601.3
588.297
315.735
211.47
163.99
138.93
123.595
112.627
103.586
95.2489
86.9331
78.173
1585.78
587.899
316.441
211.565
163.499
138.051
122.498
111.441
102.402
94.1341
85.9338
77.3322
1570.01
587.427
317.132
211.723
163.075
137.235
121.458
110.308
101.264
93.0579
84.9687
76.5531
1553.82
586.831
317.837
211.927
162.708
136.477
120.477
109.227
100.174
92.0231
84.0399
75.7682
1537.17
586.153
318.589
212.185
162.408
135.783
119.555
108.199
99.1298
91.0293
83.1411
74.9519
1520.12
585.404
319.359
212.501
162.173
135.149
118.686
107.222
98.1303
90.0725
82.2745
74.2173
1503.06
584.578
320.156
212.894
161.994
134.574
117.876
106.293
97.1757
89.1558
81.4384
73.4571
1485.2
583.602
320.967
213.334
161.882
134.065
117.121
105.417
96.2644
88.2744
80.6326
72.7954
1466.99
582.526
321.793
213.818
161.843
133.616
116.424
104.59
95.397
87.433
79.8606
72.0946
1448.39
581.347
322.638
214.368
161.859
133.231
115.784
103.815
94.5748
86.6291
79.118
71.4233
1429.4
580.083
323.543
214.993
161.949
132.909
115.199
103.089
93.7974
85.8627
78.3992
70.7013
1410.05
578.699
324.414
215.656
162.096
132.643
114.671
102.412
93.0611
85.131
77.717
70.1972
1390.33
577.195
325.303
216.396
162.32
132.448
114.199
101.786
92.3719
84.4428
77.0772
69.6403
1370.65
575.7
326.25
217.196
162.61
132.315
113.785
101.213
91.7266
83.7896
76.4677
69.1443
1349.88
573.925
327.198
218.054
162.97
132.254
113.432
100.691
91.1261
83.1759
75.8914
68.6381
1329.51
572.174
328.156
218.972
163.407
132.251
113.14
100.223
90.5698
82.6006
75.3486
68.1786
1308.46
570.229
329.113
219.947
163.905
132.323
112.907
99.806
90.061
82.0672
74.8386
67.6886
1287.07
568.261
330.126
221.006
164.487
132.464
112.738
99.4449
89.5987
81.5713
74.359
67.2766
1265.35
566.057
331.135
222.126
165.145
132.681
112.634
99.1368
89.1835
81.1158
73.9136
66.8508
1243.69
563.918
332.154
223.309
165.888
132.967
112.594
98.8865
88.8157
80.7016
73.5032
66.4878
1221.38
561.49
333.207
224.578
166.712
133.338
112.622
98.6972
88.5
80.3309
73.1274
66.0924
1198.77
558.999
334.256
225.908
167.615
133.781
112.721
98.5658
88.2333
80.0018
72.7838
65.7835
1175.84
556.367
335.304
227.325
168.614
134.311
112.891
98.494
88.0185
79.7158
72.4823
65.5248
1152.66
553.577
336.389
228.808
169.699
134.925
113.139
98.4903
87.861
79.4803
72.2227
65.2521
1129.21
550.7
337.463
230.357
170.883
135.633
113.464
98.5522
87.7606
79.2921
72.0015
65.011
1105.83
547.747
338.573
231.998
172.16
136.436
113.868
98.6843
87.7174
79.1514
71.8212
64.8562
1081.88
544.594
339.668
233.731
173.545
137.334
114.361
98.8875
87.7348
79.0654
71.6893
64.7034
1058
541.358
340.793
235.535
175.029
138.329
114.945
99.1686
87.8165
79.0291
71.5973
64.6273
1033.6
537.891
341.891
237.411
176.627
139.436
115.621
99.5318
87.9676
79.0531
71.5592
64.5844
1008.62
534.24
343.009
239.409
178.337
140.659
116.4
99.978
88.1892
79.1375
71.5698
64.5549
983.997
530.597
344.156
241.464
180.173
141.998
117.287
100.513
88.4863
79.2825
71.6304
64.5828
958.939
526.739
345.281
243.647
182.143
143.468
118.283
101.148
88.8656
79.4965
71.748
64.6257
933.642
522.685
346.415
245.911
184.236
145.066
119.401
101.884
89.3299
79.7844
71.9309
64.7701
908.464
518.554
347.526
248.279
186.476
146.818
120.645
102.731
89.8891
80.1533
72.1894
64.9662
882.868
514.2
348.64
250.735
188.864
148.714
122.031
103.692
90.544
80.5989
72.4998
65.1189
857.074
509.645
349.789
253.331
191.412
150.771
123.557
104.779
91.3008
81.1266
72.8764
65.3957
831.154
504.974
350.864
256.011
194.108
152.991
125.237
105.996
92.1672
81.7486
73.3383
65.7288
805.077
500.107
351.973
258.815
196.982
155.404
127.083
107.359
93.1565
82.4731
73.8789
66.1568
779.139
495.128
353.052
261.719
200.04
158.006
129.119
108.882
94.2844
83.3115
74.5215
66.6639
753.134
489.911
354.144
264.777
203.298
160.821
131.347
110.576
95.5565
84.2771
75.2762
67.3038
726.593
484.429
355.172
267.941
206.762
163.865
133.796
112.464
96.9873
85.3766
76.1477
68.0134
700.121
478.833
356.193
271.261
210.436
167.153
136.472
114.553
98.5921
86.6123
77.1146
68.7196
673.852
473.059
357.201
274.704
214.359
170.708
139.401
116.863
100.386
88.0071
78.2182
69.6289
647.605
467.058
358.184
278.301
218.535
174.553
142.613
119.429
102.397
89.5891
79.4915
70.673
620.935
460.822
359.131
282.078
222.978
178.712
146.141
122.268
104.643
91.3657
80.9112
71.8536
594.564
454.421
360.071
286.013
227.734
183.225
150.004
125.42
107.154
93.362
82.5225
73.1655
568.305
447.798
360.995
290.149
232.812
188.125
154.254
128.914
109.962
95.6042
84.3295
74.6718
541.73
440.963
361.915
294.524
238.284
193.467
158.947
132.813
113.114
98.1367
86.3864
76.3879
515.462
433.948
362.878
299.157
244.186
199.313
164.13
137.162
116.657
101.001
88.7151
78.2961
489.182
426.772
363.92
304.142
250.602
205.739
169.892
142.026
120.64
104.229
91.3428
80.4379
463.057
419.469
365.148
309.573
257.634
212.858
176.311
147.48
125.127
107.866
94.2982
82.882
436.886
412.174
366.721
315.644
265.464
220.792
183.514
153.623
130.195
111.985
97.6595
85.6512
410.803
405.182
369.044
322.687
274.342
229.746
191.641
160.569
135.922
116.639
101.446
88.7895
384.568
399.295
372.847
331.242
284.598
239.924
200.823
168.409
142.404
121.893
105.699
92.2177
358.174
397.473
380.242
342.614
296.923
251.756
211.377
177.407
149.814
127.883
110.5
96.0425
328.049
400.064
389.137
355.338
309.503
263.68
222.047
186.803
157.586
134.285
115.661
100.324
204.091
0.00127441
6.61781
4.94892
4.91205
12.0028
11.4401
81.1003
45.1605
26.4328
7.60901
0.0026974
0.0225727
574.72
12.1848
0.000851397
481.444
0.218376
0.207457
0.000828389
2.43328
5.66624
0.255376
0.0183572
209.859
6.57508
4.01593
16.2411
16.9307
48.3734
14.618
364.472
0.00108589
7.42523
0.0211522
2.32598
87.3125
12.6938
29.7372
0.00290817
0.239162
0.000794188
0.119465
23.9635
23.6685
5.45042
0.0575869
0.0148362
23.9212
2.39964
2.27283
77.6351
18.4155
0.000749082
215.544
0.00118115
0.00428365
0.00079315
12.7286
11.3111
3.50665
378.966
0.000746608
0.00894728
0.714024
0.00121407
75.9476
17.9969
321.658
18.7693
185.48
0.0485437
28.399
43.4687
0.0188438
0.000739236
41.2156
0.000696188
0.0790864
11.206
0.211304
0.000699393
75.3503
20.5113
0.00845136
70.189
75.0858
0.000739954
5.19601
25.736
19.5227
26.1257
0.000741583
0.000984349
53.6129
0.000751866
15.2008
0.00909688
0.000728964
76.83
144.546
1.15135
0.000785221
0.00114027
0.000707795
68.0711
66.1534
101.277
19.2742
0.0283857
0.52711
0.000709766
8.28738
0.000913662
0.000734491
8.35023
0.0108551
1.92842
69.2554
0.649432
120.104
0.0204745
176.397
0.99542
0.320173
53.3357
0.00104706
1333.1
0.0233484
0.000742466
123.043
0.000758846
87.3221
0.00114264
4.19362
0.00146184
28.4058
13.2093
8.7077
0.00176231
0.00877368
2.76331
14.175
0.128727
31.2678
198.492
17.2479
0.00121803
61.6784
21.7514
0.585724
8.01251
0.000693019
0.265999
0.616616
0.000716845
12.5464
0.00072704
89.0495
0.0023415
0.0178408
0.000857527
0.326195
0.00608344
2.60502
0.191017
314.81
30.1563
18.4521
0.000686872
205.682
47.3635
217.146
0.00947207
0.000680103
18.5026
0.00070594
20.4643
0.723528
34.7373
330.643
3.28964
0.083469
26.3602
0.000796767
13.4499
0.000724079
0.000721553
30.1125
0.000736009
9.21573
0.000697711
199.402
0.00130534
16.1363
14.1847
10.8616
4.5566
0.000709812
409.897
63.8319
19.751
54.8028
9.17207
20.1025
0.142262
0.181142
1.4867
39.2785
1.55949
139.737
52.6012
48.1487
34.2888
0.000722341
15.4566
0.00601982
11.2043
426.914
20.9694
20.2816
64.0566
24.5866
0.000718588
0.000731013
55.5839
70.2649
0.000758437
1485.38
0.0228413
167.473
0.297633
0.000704642
89.0428
10.2828
12.1995
11.7483
70.5079
34.7486
20.4974
0.507657
0.393863
32.6443
95.4657
196.149
132.798
82.9044
0.000837443
44.899
16.2078
17.2014
43.135
5.5433
4010.16
21.7493
1.83418
4.02937
19.1565
14.5002
24.6068
1.55314
12.6806
0.00757998
0.174997
577.553
13.1495
58.4016
48.479
8.02198
164.45
10.7474
0.0432524
174.613
87.6189
85.5333
186.19
30.0787
105.965
29.1214
27.2092
178.812
29.6739
26.8119
21.0096
25.2638
11.009
12.519
82.2573
86.0495
1.95073
26.811
170.929
99.5039
98.8978
16.1902
191.455
0.677895
85.1602
0.0705457
54.5245
6.57846
1.01921
336.84
214.352
0.569162
54.0405
32.9333
0.00073701
0.690756
0.522517
0.708808
40.7765
0.000720436
97.9486
20.014
0.0941337
93.3654
43.0653
0.000721189
442.736
0.0292789
14.5199
10.7411
9248.04
50.2902
42.65
18.4746
0.000714317
0.000717294
39.9756
13.4948
0.00068328
11.0568
0.000703652
0.000717382
0.000740062
0.000705937
0.231965
0.000725323
0.00175281
123.102
49.8672
0.000755471
19.1174
0.00381976
75.8047
147.327
90.5745
1101.6
15.0729
0.000659339
0.000744368
0.0952323
0.710614
96.1966
0.000682236
0.178218
24.5162
51.524
5.43966
27.6967
25.1727
71.276
1008.97
2.59283
4.97155
0.000883417
0.000735548
1.6104
4.12665
0.242997
28.1262
50.7703
5051.78
175.039
2.94462
22.8834
65.9972
0.000734759
8.93491
49.8429
0.00151419
0.000714546
51.8796
3771.21
81.0706
0.000685449
0.0499562
3.97402
0.0156113
0.000730484
53.1703
6.86708
17.5986
16.0692
0.000919416
920.991
0.000714644
1.66843
18.8637
0.00204591
0.00469391
92.7693
0.00319559
45.4688
313.835
85.4388
26.1228
41.2516
98.9831
0.000714963
0.000689676
0.000729242
74.8547
0.084356
315.269
5355.14
4.53366
59.7352
0.000724197
0.0435431
14.4787
0.000689968
0.000725726
97.5168
0.000679846
1.72345
55.1202
27.6808
0.000667643
0.00255823
0.259378
0.239524
10.9759
0.407618
0.000700725
809.894
54.1688
0.813657
0.00544782
33.3625
88.955
0.00234467
15.359
0.00225214
65.2091
0.000844041
12.7222
1.03224
0.000705393
77.073
11.1059
172.089
0.00351783
10.0361
2.70046
0.00146973
89.4758
51.1018
2.51826
210.769
0.0152323
0.0467358
0.00488263
117.013
31.6533
0.202608
2.45291
4.17139
171.025
0.830774
83.3539
1148.54
0.000673689
211.045
56.3858
10.4205
0.000697367
19.7027
94.4781
0.151669
84.5115
23.366
2.42128
0.326837
30.0449
120.683
0.000863279
0.0103592
55.2971
0.0328105
0.00190384
240.856
1087.32
0.0331504
22.7767
52.175
0.632012
46.2223
26.9823
52.1212
19.3117
24.4691
0.000738998
0.189249
44.957
18.593
116.655
21.7097
98.1369
175.884
991.21
75.0613
2.57852
0.000727144
216.711
91.0625
46.2587
10.3925
1.11736
0.149641
11.1615
0.000731122
17.0701
0.00073215
35.6878
10.6882
92.1675
29.3691
78.0549
111.048
119.956
29.7011
221.003
0.000734523
0.340665
58.1067
1424.36
7.72924
23.9191
0.000875363
0.0194391
6.20067
118.19
18.2097
0.000699182
0.0653803
0.000708429
0.054145
19.8447
0.0280705
66.1437
2.82843
72.0829
0.446121
0.442324
298.249
658.811
0.000740135
0.000740699
5.49785
186.019
17.5797
13.2298
3.27162
30.8999
19.4985
0.000664847
0.752103
12.2349
0.0013433
77.4913
12.8391
26.9352
17.4182
0.00564447
0.000664665
0.0148127
0.000713661
26.9407
20.3159
122.756
22.9306
0.000731615
139.394
0.123252
118.659
1.79538
194.091
0.0306625
0.508119
0.00068512
38.905
566.812
19.5396
4.60088
0.000657607
104.449
44.9289
50.5646
0.000700562
0.620888
56.772
26.8973
0.0018721
1071.13
0.000918096
59.1335
28.9791
0.000879834
2.05196
0.1412
1.09082
0.00070051
0.000741847
75.5079
36.447
19.7847
54.0703
0.00135234
1.9214
0.220836
44.7528
8.30495
0.00100864
1.57323
403.338
0.000689
0.00289092
26.2941
130.868
88.4927
0.000720255
696.119
23.8524
115.773
0.020194
2.51921
144.833
0.000735713
101.368
2.47769
18.1086
7.84878
45.3264
7.97889
94.3633
96.8899
15.9419
4967.27
0.000746673
0.000719185
142.83
47.3012
0.00130357
0.000723311
9.37574
0.000745337
51.9786
52.5762
1.13886
0.000701393
39.9153
0.405097
21.4496
66.6103
25.5949
0.267038
2.35776
118.995
0.000738987
2.36778
61.5382
21.5152
18.1861
0.00232539
10.7091
2.74469
2789.49
0.000711224
2.56627
35.7507
18.345
0.000771087
0.166368
28.7978
55.7298
77.3473
0.0607297
205.022
31.8892
0.30398
31.5698
0.000712602
0.00246721
9.09728
0.000684435
26.5395
0.000726288
115.093
0.00454597
57.1756
0.000732342
0.9245
51.9268
127.02
7.58854
31.0896
0.388085
241.806
0.00778811
0.155575
18.4021
0.000697686
0.000745103
27.9532
0.383212
94.8471
25.9061
0.000758644
90.811
105.902
81.2722
7.20535
170.468
95.8212
0.000740884
2399.22
4212.42
49.7602
0.000759723
0.00435891
273.533
54.2205
0.00070467
90.8874
0.000698266
0.111494
303.599
0.000851927
16.9051
0.00072004
0.0642319
121.432
0.000762143
0.00101787
0.000734967
0.000938576
0.0137165
1018.32
51.4731
0.309753
11.3895
0.000726474
49.2974
0.000729748
8.99185
1.82527
0.015795
4.44007
0.00628679
73.9543
0.000725041
10698.8
4.2528
30.2339
208.299
4.79193
0.000697113
26.042
180.199
1.99013
49.7092
58.3648
184.816
23.1181
0.0364552
28.6095
0.174935
0.00103708
0.292449
4116.68
155.08
1.03304
0.0292629
20.6414
0.000924331
9.40857
52.2743
174.549
64.4413
60.5228
0.0301317
0.00176371
32.5425
24.3997
0.0490956
42.76
0.000720327
120.914
218.987
0.000766955
176.408
48.8624
1.15436
0.152754
140.095
0.0155342
0.316809
13.411
3.00447
2.84591
0.000752868
27.1358
0.111473
150.17
28.1057
79.8937
6.18397
0.00223541
39.2265
0.000730491
0.000724029
10.5808
0.14955
1.72226
211.99
0.000669082
72.7593
0.148706
0.0586056
0.000791278
166.397
8.12336
0.348384
40.6883
0.0585572
309.411
3.96198
0.000716372
236.619
270.713
0.00159329
0.00318277
77.655
26.5949
0.418686
233.406
0.0277713
2.02096
0.246079
0.391637
32.0619
94.3405
0.000736747
96.201
22.0608
0.00735495
1.29293
1498.05
15.9812
0.000731446
0.000683578
35.4571
23.5295
66.9774
0.000683101
34.3286
2.8931
32.254
0.000926316
167.474
46.6535
0.00156368
16.4324
0.00074096
86.8727
32.1846
28.3427
40.2224
0.000716166
0.000718333
9.82912
110.401
5.68068
37.9989
0.000665292
0.043619
0.000734272
0.0019428
39.7945
0.088711
0.348109
0.917342
21.752
152.295
24.7978
65.6869
0.000728963
29.4239
37.8988
20.66
0.000738997
44.1354
0.00073533
0.000726962
0.158976
20.7582
0.0161937
336.767
35.1093
328.377
0.000762578
0.00132089
0.0372652
110.276
4.60573
145.81
0.000725841
0.000715973
0.0019618
0.00296932
139.77
44.8598
83.1164
0.308848
0.0360329
3.86436
3.79042
57.2956
15.298
61.2802
18.9407
0.000690188
182.591
0.00155585
1.83359
62.1387
26.2518
1.3102
0.619607
0.000943322
106.324
7.47897
20.0297
28.5107
0.000722606
67.2862
43.0431
171.596
0.00440736
59.1353
47.6226
56.6694
191.118
22.0782
55.8492
0.277517
814.123
4.28474
0.188826
121.15
0.000729539
94.0533
173.507
0.000703883
35.8354
0.00130996
102.239
102.352
1.77334
18.8105
106.396
97.4803
13.3803
0.943479
50.2275
9.34911
0.00560341
0.00069651
24.6834
0.0862129
19.5034
58.1462
4.48951
53.9312
105.074
0.000717039
15.9813
461.705
243.563
10.3981
99.7529
18.2204
208.575
97.3439
1.65226
0.0159489
0.221749
68.1244
84.0318
0.222198
53.8696
59.9041
53.0048
11.0926
2.0741
10.6434
32.994
0.000738547
238.744
88.8096
1.51878
0.000738418
26.8075
15.5617
17.1627
0.000720235
149.682
0.000728796
12.0523
0.180633
0.000733694
39.4123
81.5266
0.000701061
50.5274
27.9133
24.8525
12.7044
40.4068
15.4362
40.7529
52.8685
1.7175
0.000708693
0.00128167
33.6912
5.62511
0.126429
0.000738556
84.1895
0.00185357
0.977082
0.250787
10.8762
8.66927
0.0645085
0.523456
394.632
173.19
24.3359
1421.43
56.9484
0.000706103
51.5613
18.0422
182.305
0.000709436
5.48316
0.000737103
0.000866614
17.4579
4.00073
0.0327356
0.000802667
56.9977
3020.6
0.00246934
0.00072892
1.63797
9.51203
0.0158723
0.0871892
3169.28
0.553662
0.000795803
0.000727664
66.8462
20.7728
0.306565
0.066805
64.2433
193.172
29.5412
103.473
35.2968
0.000730545
16.6224
0.000723076
130.356
15.4917
2935.97
6.15455
0.146541
0.00095191
97.3615
0.000739878
0.000712134
0.00176183
13.7147
18.5058
61.6883
0.000719014
16.6917
0.000727254
529.709
61.7508
0.000744625
126.183
6.2758
0.000729066
0.000766879
0.0263531
139.716
5.64889
0.0173904
0.000727497
0.000709723
134.684
91.5317
20.8815
34.5878
0.474695
34.4937
0.000718457
0.00406395
6.8891
209.964
48.1357
0.00325742
0.000731396
33.2605
0.000727523
87.9405
140.606
7.23362
0.0382066
91.8398
16.61
3.15465
0.000727966
7.44177
95.0687
85.2051
0.00217338
0.0221229
31.8243
3012.28
0.0536053
4.56431
0.000703037
0.000689908
0.000740627
0.010267
31.9861
69.9634
0.0416885
99.6764
22.5754
419.997
8.16144
0.010977
0.00276806
0.00617779
2.59045
48.0764
20.1533
0.000753059
96.3228
0.000716165
0.00631938
65.6631
49.7198
0.0266897
5.3246
9.82914
0.00104964
0.740418
2.52798
0.000722277
0.000931253
146.964
0.000888902
0.000753606
110.967
25.2428
3163.54
8.83021
1375.52
0.000851904
0.000700289
3520.45
17.3002
1.17939
3.72169
0.0572907
18.5504
1.02494
986.629
47.043
66.6522
143.513
104.545
1.05629
27.1939
99.381
0.00693338
80.7342
0.000980919
37.0333
6.32224
0.736028
7.88682
6.98908
3.50008
2.03931
39.2246
61.0174
45.0638
28.7071
50.2175
36.1623
6.28136
0.00109218
0.000724307
0.236993
252.391
0.000725512
80.0885
0.000705566
0.00379308
189.952
112.721
45.0488
74.9542
979.746
77.5649
19.0903
40.2791
0.000724389
16.7221
74.4968
0.000760093
198.599
0.00253942
719.435
250.266
294.8
14.1516
84.1489
4.53414
0.501116
16.0452
94.3998
20.5338
12.2253
5.38862
77.2854
0.135771
124.336
335.526
0.00368003
34.5778
0.000739834
0.000988047
17.5249
133.35
168.945
14.6291
0.612709
0.218596
0.3203
0.000848487
22.8513
0.000847971
154.813
0.000803084
0.120894
258.612
5.55399
2.89853
192.114
157.85
0.00194696
0.000740096
0.194298
13.6204
0.166094
112.997
0.0371945
25.7625
5.13143
27.1024
56.1335
0.000867469
0.000719444
130.49
0.722733
5.57546
56.3083
29.2693
38.8186
0.00388999
164.645
56.1527
90.4929
0.000828362
1.28803
24.7622
79.1431
1.00389
14.0354
0.000737704
11.8608
0.000710647
221.849
0.0043621
34.7295
0.172583
10.1457
0.000761946
1961.4
0.000739093
142.754
0.01607
0.000727375
0.00678368
14.5696
0.000729276
0.000733365
10.3297
0.0268851
20.4681
0.0634375
0.000772376
22.4129
6.44903
39.6928
0.000782262
111.689
4.55505
351.893
37.5112
29.9435
57.4795
93.015
4.63561
299.271
249.185
98.3265
0.000753326
2.42129
25.6177
18.2158
0.00128568
0.0163379
20.6326
482.282
0.000735472
1.66519
105.139
0.000675627
57.8773
66.8394
182.226
73.3772
52.5664
12.3108
0.341809
202.368
9.27852
73.802
51.7817
52.4075
0.489101
0.000727257
34.1888
0.00182387
0.000750513
0.000711671
177.893
0.00072755
0.000913192
18.3865
9466.33
2.85516
2.58867
52.747
11.167
0.000728512
42.3179
223.837
0.0161879
4.73963
55.7999
49.0299
0.282538
0.0208535
0.000717028
0.00072621
0.0173091
0.0416931
25.2441
21.2207
88.1932
14.134
13.9378
0.000995505
197.962
28.2683
0.00074783
23.104
826.997
0.000734651
6.95877
119.794
43.7481
91.7409
0.71748
143.969
0.000856754
0.925211
0.000773862
0.0019877
0.000746828
63.3844
18.149
0.0967111
0.000739345
0.000686729
188.25
28.6448
2.73462
19.9817
6.24299
36.3337
18.4272
24.4779
26.5614
0.000732268
0.482346
0.879188
0.353957
19.0571
77.2038
49.5802
84.0749
27.8183
88.0997
161.595
95.3773
46.5644
32.1646
0.13153
56.7901
29.6187
0.020264
79.5661
53.915
10.9302
0.000699449
0.000742731
0.000873468
0.00118269
49.9009
0.000674429
109.754
50.5034
229.907
28.9523
0.00072644
12.4741
15.8881
58.0825
15.3691
29.4782
13.735
0.000754703
0.000742226
0.00345311
0.176014
0.000710774
84.5298
13.9611
1.74278
47.663
15.0693
39.0287
118.306
0.000728216
19.0925
30.9792
0.00094462
0.0907736
52.8284
168.853
20.2819
4.75173
0.00075393
33.6851
39.636
0.000959509
0.0116211
0.000722848
39.7523
0.00116595
0.517962
112.712
0.763674
0.0999106
21.8081
2877.59
0.000758172
30.2142
0.000675454
10.2402
23.0476
22.2869
17.0793
60.8668
31.7209
58.2628
189.002
45.3552
0.000732409
0.000718148
0.0475288
0.206897
53.1999
4.54808
0.000730225
164.413
2.89843
0.00301843
52.3442
0.0545835
0.0028715
0.03229
74.2084
0.00203754
0.000734265
21.3525
83.4568
25.1437
1.62662
53.9655
8.2495
0.000737462
16.8038
0.146141
0.0685533
0.000791112
34.6982
20.0477
5.51036
139.125
94.6207
16.4154
2.9003
0.000725723
25.8579
0.000726208
223.158
0.00407553
33.4123
0.157987
53.6964
0.00810726
0.00356634
4.54881
3.74155
386.585
0.000853166
1.89437
46.39
91.2243
6.40697
114.718
1.32769
0.000812304
0.000744797
58.1963
24.6038
313.174
2.24707
0.16446
54.929
21.0959
59.5245
0.0668339
0.00072599
0.000734803
1.27416
767.884
18.607
105.983
0.000842796
0.00453229
1.10958
48.9153
22.825
45.0751
57.9198
60.8546
0.000741921
0.000735549
179.034
135.889
61.5934
427.115
48.0778
0.0161028
132.995
0.000724673
226.238
0.0177353
0.0210124
0.00072721
0.0347081
0.173061
53.6968
48.4305
0.000754517
116.311
0.000719039
82.8556
148.524
0.000718105
0.470244
0.0007544
16.4691
0.324111
5.61877
0.000691774
13.1869
90.9351
13.1429
45.13
1.24021
60.6266
1.58097
62.6731
33.3869
84.034
30.8138
0.000955107
0.000736192
27.2196
0.480859
61.6532
0.000731901
123.352
0.000724324
0.00131046
0.25098
0.000720462
273.634
97.6741
0.000762186
21.8774
2.57117
0.175174
33.1995
0.00188092
0.000708279
42.9998
9.15727
0.0205804
46.5988
2371.86
108.395
1.62936
183.011
0.225344
0.000735777
0.000900531
0.0276565
1.55174
57.708
140.773
312.551
52.4276
55.0419
10.6064
1.98005
37.346
154.175
56.1193
0.0352205
0.0854651
13.0684
83.8772
0.000793217
1.00354
17.5314
192.49
0.000726907
49.0896
0.000680747
0.00644359
129.558
0.000790494
65.187
1155.57
0.000738013
175.25
0.000870222
8.89695
0.00652847
0.00103378
47.5327
16.2043
64.6362
8.46951
79.5667
350.452
105.554
5.96059
36.6802
20.3436
0.000705297
162.902
0.0565423
88.6096
4.03136
10.5362
0.0346994
0.00108869
167.198
116.644
12.6437
48.3886
18.0946
0.0103113
0.000694836
0.000744479
1.65772
75.3321
17.2544
0.00070393
1167.96
20.4524
0.00960901
0.141791
20.188
0.000664268
0.392134
0.000762217
0.000723747
21.4315
30.0438
0.054655
0.00624156
0.000708808
29.0793
1.77428
20.7294
0.0023151
0.0321786
0.00738233
61.1689
103.267
1.23314
0.000729312
160.242
0.000780826
0.0337236
0.0041622
0.00141259
34.8222
64.8528
0.000725239
49.9843
0.000748745
0.000696272
0.000880839
53.4433
15.4254
53.2224
42.4432
20.0772
61.8968
0.0442248
0.00072878
0.00706975
0.00161846
2.86903
0.000713547
61.6098
11.7277
0.0330887
101.133
0.353803
22.3099
1.8789
0.00184176
125.489
56.7827
20.1905
0.00724465
0.146528
214.859
0.000732765
8.92491
57.762
0.00072466
0.708878
0.00279793
19.5266
0.000691665
81.5044
37.2717
1.71726
0.430814
94.1657
365.9
4.71912
125.551
0.00104648