/*--------------------------------*- C++ -*----------------------------------*\
| =========                 |                                                 |
| \\      /  F ield         | OpenFOAM: The Open Source CFD Toolbox           |
|  \\    /   O peration     | Version:  2.3.1                                 |
|   \\  /    A nd           | Web:      www.OpenFOAM.org                      |
|    \\/     M anipulation  |                                                 |
\*---------------------------------------------------------------------------*/
FoamFile
{
    version     2.0;
    format      ascii;
    class       volScalarField;
    location    "0.63";
    object      p;
}
// * * * * * * * * * * * * * * * * * * * * * * * * * * * * * * * * * * * * * //

dimensions      [0 2 -2 0 0 0 0];

internalField   nonuniform List<scalar> 
15166
(
-17.3011
-22.3242
-25.0951
-27.3065
-29.1856
-30.7839
-32.2166
-33.4741
-34.5613
-35.3679
-36.1099
-36.683
-22.0152
-24.5262
-25.8881
-27.556
-29.1302
-30.5558
-31.8603
-33.0392
-34.071
-34.9004
-35.6417
-36.2349
-27.2005
-28.0893
-28.3652
-29.3012
-30.2993
-31.3147
-32.3136
-33.2456
-34.0949
-34.8206
-35.4657
-36.0031
-30.177
-30.5898
-30.585
-31.1459
-31.7375
-32.4061
-33.1103
-33.7979
-34.4484
-35.0272
-35.5465
-35.9751
-32.046
-32.3009
-32.2755
-32.6755
-33.0525
-33.5068
-34.0008
-34.4981
-34.9809
-35.4226
-35.8256
-36.1745
-33.6941
-33.8138
-33.7564
-34.0308
-34.2668
-34.5757
-34.917
-35.267
-35.6129
-35.9353
-36.2318
-36.4941
-35.2844
-35.2846
-35.1777
-35.3307
-35.448
-35.6356
-35.8501
-36.0768
-36.3051
-36.5201
-36.7154
-36.8778
-36.7573
-36.6699
-36.5253
-36.5776
-36.5975
-36.6813
-36.7876
-36.9084
-37.0345
-37.1549
-37.263
-37.3497
-38.0949
-37.9414
-37.7734
-37.7487
-37.6941
-37.6937
-37.7109
-37.7427
-37.7819
-37.8206
-37.8531
-37.8705
-39.3175
-39.1109
-38.9271
-38.8421
-38.7301
-38.6622
-38.607
-38.5653
-38.5314
-38.4998
-38.4645
-38.4173
-40.4471
-40.1971
-40.0012
-39.8667
-39.7088
-39.5856
-39.4709
-39.3678
-39.2722
-39.1809
-39.089
-38.9782
-41.5009
-41.2138
-41.0075
-40.8311
-40.6352
-40.4656
-40.3011
-40.1462
-39.9981
-39.8557
-39.7183
-39.5749
-42.4861
-42.1678
-41.953
-41.7408
-41.513
-41.3037
-41.097
-40.8979
-40.7046
-40.5167
-40.3351
-40.1604
-43.4102
-43.065
-42.8429
-42.6001
-42.3452
-42.1022
-41.8591
-41.6213
-41.3875
-41.156
-40.9182
-40.6615
-44.2796
-43.9111
-43.6826
-43.4131
-43.135
-42.8629
-42.5889
-42.3183
-42.051
-41.7894
-41.5364
-41.2733
-45.0995
-44.7105
-44.4762
-44.1837
-43.8856
-43.5885
-43.2881
-42.9895
-42.6933
-42.4013
-42.1186
-41.8422
-45.8741
-45.4675
-45.228
-44.915
-44.5995
-44.2805
-43.9569
-43.6337
-43.3118
-42.9924
-42.6786
-42.3767
-46.6083
-46.1853
-45.9406
-45.6095
-45.2785
-44.9402
-44.5964
-44.2517
-43.9078
-43.5658
-43.2273
-42.8985
-47.3039
-46.8666
-46.6173
-46.2701
-45.9255
-45.5701
-45.2084
-44.8447
-44.4812
-44.1202
-43.7634
-43.4141
-47.9643
-47.5142
-47.2603
-46.8985
-46.5416
-46.1709
-45.7933
-45.4125
-45.0314
-44.6527
-44.2795
-43.9197
-48.5917
-48.1297
-47.8717
-47.4969
-47.1288
-46.7443
-46.3522
-45.9559
-45.5583
-45.162
-44.7696
-44.3924
-49.1875
-48.7153
-48.4535
-48.0666
-47.6884
-47.2914
-46.8863
-46.4757
-46.0631
-45.6502
-45.2369
-44.8314
-49.7571
-49.2735
-49.0073
-48.6094
-48.2222
-47.8139
-47.3969
-46.9739
-46.5484
-46.1233
-45.6997
-45.2839
-50.2977
-49.804
-49.5344
-49.1267
-48.731
-48.3126
-47.8851
-47.4511
-47.0142
-46.5775
-46.1411
-45.7064
-50.8061
-50.3075
-50.0356
-49.619
-49.2159
-48.7884
-48.3516
-47.9076
-47.4603
-47.0128
-46.5665
-46.1204
-51.296
-50.7885
-50.5129
-50.0879
-49.678
-49.2422
-48.797
-48.3439
-47.8872
-47.43
-46.9734
-46.515
-51.7613
-51.2457
-50.9674
-50.5346
-50.1183
-49.6749
-49.2219
-48.7606
-48.2955
-47.8303
-47.368
-46.9034
-52.204
-51.6802
-51.3993
-50.9594
-50.5373
-50.087
-49.6267
-49.1578
-48.6847
-48.2104
-47.7379
-47.2688
-52.6199
-52.0921
-51.8098
-51.3631
-50.9357
-50.4789
-50.0121
-49.5362
-49.0556
-48.5731
-48.0898
-47.602
-53.0164
-52.4828
-52.1994
-51.7464
-51.3142
-50.8516
-50.3788
-49.8965
-49.4094
-48.9208
-48.4331
-47.9394
-53.3926
-52.8561
-52.5694
-52.1103
-51.6737
-51.2057
-50.7273
-50.2392
-49.7463
-49.2516
-48.7578
-48.2575
-53.7525
-53.2108
-52.9208
-52.4555
-52.0146
-51.5414
-51.058
-50.5647
-50.0662
-49.5658
-49.0676
-48.5661
-54.0828
-53.543
-53.2516
-52.7814
-52.3367
-51.859
-51.3711
-50.8729
-50.3693
-49.8631
-49.3573
-48.8477
-54.4024
-53.8581
-53.5634
-53.0887
-52.6408
-52.159
-51.667
-51.1645
-50.6566
-50.1463
-49.6372
-49.1274
-54.7027
-54.154
-53.8576
-53.3782
-52.9271
-52.4416
-51.946
-51.4397
-50.9282
-50.4143
-49.9012
-49.3861
-54.9802
-54.4309
-54.1337
-53.6501
-53.1962
-52.7071
-52.2079
-51.6981
-51.1832
-50.6665
-50.1528
-49.639
-55.2419
-54.6903
-54.3926
-53.9044
-53.4478
-52.9555
-52.453
-51.9396
-51.4207
-50.899
-50.3786
-49.864
-55.4915
-54.9337
-54.6348
-54.1418
-53.6827
-53.187
-52.6812
-52.1642
-51.6413
-51.1145
-50.5843
-50.0479
-55.7144
-55.1575
-54.8599
-54.362
-53.9009
-53.4023
-52.8935
-52.3733
-51.8471
-51.3173
-50.7829
-50.2236
-55.9291
-55.3658
-55.0686
-54.5654
-54.1025
-53.6014
-53.0903
-52.568
-52.0401
-51.5111
-50.9898
-50.4642
-56.1208
-55.5563
-55.2601
-54.7518
-54.288
-53.7847
-53.2716
-52.747
-52.2164
-51.6816
-51.1461
-50.6104
-56.2973
-55.7329
-55.4339
-54.9212
-54.4573
-53.9519
-53.4368
-52.9102
-52.3774
-51.8409
-51.3045
-50.7621
-56.4624
-55.8944
-55.5918
-55.0751
-54.611
-54.1036
-53.5868
-53.0583
-52.5237
-51.9857
-51.4478
-50.9004
-56.6023
-56.0379
-55.7354
-55.2122
-54.7496
-54.2402
-53.7219
-53.1917
-52.6553
-52.1157
-51.5778
-51.0369
-56.734
-56.1665
-55.8616
-55.3352
-54.874
-54.3619
-53.8419
-53.3101
-52.7721
-52.2302
-51.6886
-51.1424
-56.8433
-56.2771
-55.9704
-55.4435
-54.9845
-54.4682
-53.9468
-53.4137
-52.8744
-52.3317
-51.7918
-51.2579
-56.9389
-56.3734
-56.063
-55.5391
-55.0786
-54.5576
-54.0365
-53.5023
-52.9616
-52.4167
-51.8707
-51.3259
-57.0174
-56.4561
-56.1378
-55.621
-55.1516
-54.6341
-54.112
-53.5763
-53.0346
-52.4892
-51.9444
-51.4084
-57.0835
-56.5228
-56.1995
-55.6865
-55.2127
-54.6957
-54.1725
-53.6359
-53.0932
-52.5467
-51.9986
-51.453
-57.1333
-56.5748
-56.2466
-55.7352
-55.2599
-54.7428
-54.2184
-53.681
-53.1376
-52.5905
-52.0435
-51.5058
-57.1638
-56.6088
-56.2793
-55.7687
-55.2921
-54.7749
-54.2498
-53.7118
-53.1674
-52.6185
-52.066
-51.5128
-57.1832
-56.6288
-56.2978
-55.7878
-55.31
-54.7929
-54.2673
-53.7291
-53.1842
-52.635
-52.0821
-51.5205
-57.1864
-56.6334
-56.3014
-55.7916
-55.3133
-54.7966
-54.271
-53.7331
-53.1891
-52.6421
-52.0968
-51.5497
-57.1706
-56.6228
-56.29
-55.7809
-55.3022
-54.7858
-54.2605
-53.7231
-53.1794
-52.6321
-52.085
-51.533
-57.1436
-56.5984
-56.264
-55.7556
-55.2767
-54.7607
-54.2356
-53.6984
-53.1547
-52.6068
-52.0595
-51.5146
-57.1008
-56.5589
-56.2233
-55.7157
-55.2368
-54.7214
-54.1965
-53.6597
-53.1161
-52.568
-52.0182
-51.4663
-57.0479
-56.5041
-56.168
-55.6613
-55.1825
-54.6678
-54.1436
-53.6075
-53.0649
-52.518
-51.9709
-51.4291
-56.9706
-56.4345
-56.0981
-55.5924
-55.114
-54.6001
-54.0768
-53.5418
-53.0003
-52.4545
-51.9057
-51.348
-56.8879
-56.3501
-56.0133
-55.509
-55.0312
-54.5183
-53.996
-53.4625
-52.9228
-52.3805
-51.8436
-51.3221
-56.7841
-56.2502
-55.9138
-55.4107
-54.9337
-54.422
-53.9009
-53.3684
-52.8296
-52.2864
-51.7417
-51.2045
-56.6663
-56.1362
-55.8001
-55.2985
-54.8221
-54.3114
-53.791
-53.2592
-52.7207
-52.1776
-51.6311
-51.0865
-56.5385
-56.0101
-55.673
-55.1724
-54.6966
-54.187
-53.6676
-53.1367
-52.599
-52.0568
-51.5112
-50.9586
-56.3952
-55.8677
-55.5311
-55.0318
-54.557
-54.0487
-53.5307
-53.0014
-52.4655
-51.9257
-51.3863
-50.8514
-56.2327
-55.7098
-55.3743
-54.8771
-54.4034
-53.8967
-53.3804
-52.8529
-52.3187
-51.7801
-51.2386
-50.6928
-56.0585
-55.5379
-55.2031
-54.7078
-54.2357
-53.7308
-53.2164
-52.691
-52.1589
-51.6231
-51.0876
-50.5548
-55.8678
-55.3517
-55.018
-54.5246
-54.054
-53.5511
-53.0386
-52.5152
-51.9854
-51.4516
-50.9162
-50.3775
-55.6642
-55.1525
-54.819
-54.3275
-53.8585
-53.3574
-52.847
-52.3259
-51.7982
-51.2671
-50.7372
-50.2154
-55.4526
-54.9391
-54.6056
-54.1162
-53.6488
-53.1497
-52.6413
-52.1224
-51.5969
-51.0669
-50.5348
-50.0038
-55.2134
-54.708
-54.377
-53.8904
-53.4249
-52.9282
-52.422
-51.9055
-51.3824
-50.8554
-50.3289
-49.8175
-54.9656
-54.464
-54.1345
-53.6503
-53.187
-52.6925
-52.1889
-51.6746
-51.1541
-50.6295
-50.1022
-49.5825
-54.7057
-54.2077
-53.8784
-53.3968
-52.9352
-52.4431
-51.942
-51.4302
-50.9123
-50.3905
-49.8679
-49.3654
-54.4316
-53.9356
-53.6081
-53.1292
-52.6699
-52.1799
-51.6811
-51.172
-50.6565
-50.1365
-49.6118
-49.0923
-54.1437
-53.651
-53.3236
-52.8472
-52.3902
-51.9031
-51.407
-50.9005
-50.3876
-49.8705
-49.3495
-48.8348
-53.834
-53.3485
-53.0246
-52.5518
-52.0973
-51.6131
-51.1199
-50.6166
-50.1071
-49.5942
-49.0801
-48.5779
-53.5125
-53.0324
-52.7109
-52.2416
-51.79
-51.3091
-50.8191
-50.3192
-49.813
-49.303
-48.7894
-48.2796
-53.1852
-52.7072
-52.3855
-51.9186
-51.4693
-50.9915
-50.5048
-50.0082
-49.5057
-48.9998
-48.4936
-48.0028
-52.8383
-52.365
-52.0451
-51.5817
-51.1354
-50.6604
-50.1771
-49.6839
-49.1846
-48.6812
-48.1736
-47.6689
-52.4773
-52.0071
-51.6899
-51.2303
-50.7872
-50.3156
-49.8355
-49.346
-48.8506
-48.3518
-47.852
-47.3681
-52.1009
-51.6363
-51.3209
-50.8648
-50.4249
-49.9568
-49.4805
-48.9948
-48.5032
-48.0084
-47.51
-47.0137
-51.7062
-51.2492
-50.937
-50.4852
-50.0486
-49.5843
-49.1118
-48.6299
-48.1428
-47.6526
-47.1634
-46.6921
-51.3026
-50.8498
-50.5397
-50.0919
-49.6587
-49.1983
-48.7295
-48.2512
-47.7677
-47.2801
-46.7886
-46.3096
-50.8861
-50.4373
-50.1293
-49.6853
-49.2556
-48.7988
-48.3336
-47.8593
-47.3791
-46.8945
-46.4038
-45.9143
-50.4541
-50.01
-49.7042
-49.2646
-48.8386
-48.386
-47.9249
-47.4552
-46.98
-46.5016
-46.0211
-45.5444
-50.0065
-49.568
-49.265
-48.8301
-48.408
-47.9598
-47.5035
-47.0389
-46.5692
-46.0973
-45.627
-45.1731
-49.5438
-49.1114
-48.8116
-48.3815
-47.9636
-47.5199
-47.0683
-46.6085
-46.1432
-45.6744
-45.2022
-44.7357
-49.0657
-48.6413
-48.3448
-47.9194
-47.5056
-47.0663
-46.6192
-46.1641
-45.7037
-45.24
-44.7757
-44.3318
-48.582
-48.1595
-47.8646
-47.4441
-47.0342
-46.5994
-46.157
-45.7066
-45.251
-44.7918
-44.3277
-43.8619
-48.0784
-47.6619
-47.37
-46.9547
-46.5491
-46.1193
-45.6818
-45.2367
-44.7867
-44.3345
-43.8835
-43.4497
-47.5588
-47.149
-46.8607
-46.4507
-46.0502
-45.6255
-45.1935
-44.7539
-44.3092
-43.8628
-43.4167
-42.995
-47.0254
-46.6225
-46.3382
-45.9337
-45.5379
-45.1184
-44.6916
-44.2572
-43.8177
-43.3751
-42.9305
-42.511
-46.4792
-46.0822
-45.8013
-45.4024
-45.0116
-44.5977
-44.1763
-43.7472
-43.3129
-42.8745
-42.4278
-41.9828
-45.9195
-45.5286
-45.2514
-44.8584
-44.4726
-44.0642
-43.6489
-43.2262
-42.7996
-42.372
-41.9472
-41.5591
-45.347
-44.9629
-44.6885
-44.3011
-43.9204
-43.5178
-43.1085
-42.6922
-42.2721
-41.8502
-41.4233
-41.0079
-44.7621
-44.3818
-44.1114
-43.7301
-43.3549
-42.9582
-42.5546
-42.1444
-41.7304
-41.3138
-40.8943
-40.4978
-44.1563
-43.7861
-43.5203
-43.1453
-42.7756
-42.3849
-41.9874
-41.5837
-41.1761
-40.7662
-40.352
-39.9425
-43.5454
-43.1786
-42.9156
-42.5465
-42.1829
-41.7984
-41.4075
-41.0107
-40.6103
-40.2089
-39.8086
-39.4333
-42.919
-42.5576
-42.2979
-41.9349
-41.5769
-41.1989
-40.8147
-40.4247
-40.0308
-39.635
-39.2345
-38.836
-42.2682
-41.9178
-41.6647
-41.3091
-40.9576
-40.5864
-40.2087
-39.8259
-39.4394
-39.0517
-38.6642
-38.3002
-41.6151
-41.2695
-41.019
-40.6699
-40.3248
-39.9607
-39.5902
-39.2145
-38.8359
-38.4557
-38.0726
-37.6932
-40.9443
-40.6062
-40.3603
-40.0181
-39.6798
-39.3225
-38.9593
-38.5912
-38.2204
-37.8488
-37.48
-37.1364
-40.2628
-39.93
-39.688
-39.3527
-39.021
-38.6713
-38.3154
-37.9551
-37.5917
-37.226
-36.8561
-36.4983
-39.5622
-39.2384
-39.0019
-38.6745
-38.3498
-38.0074
-37.6593
-37.3068
-36.9515
-36.5949
-36.2347
-35.8833
-38.8501
-38.5342
-38.3029
-37.9833
-37.6657
-37.3314
-36.9917
-36.6478
-36.302
-35.9568
-35.614
-35.2867
-38.1305
-37.8192
-37.5919
-37.2797
-36.9695
-36.643
-36.3118
-35.9767
-35.6398
-35.303
-34.9674
-34.6531
-37.3937
-37.0909
-36.8684
-36.5635
-36.2608
-35.9424
-35.6194
-35.2927
-34.9642
-34.6346
-34.302
-33.9779
-36.6454
-36.3488
-36.1315
-35.8348
-35.5398
-35.2298
-34.9149
-34.5974
-34.2786
-33.9601
-33.6438
-33.3551
-35.8818
-35.5942
-35.3818
-35.0934
-34.8063
-34.505
-34.1993
-33.8909
-33.5812
-33.2714
-32.9582
-32.6497
-35.1091
-34.8275
-34.6196
-34.3396
-34.0609
-33.7685
-33.4725
-33.1739
-32.8741
-32.5746
-32.2747
-31.9889
-34.323
-34.0476
-33.8455
-33.5742
-33.304
-33.021
-32.7347
-32.4467
-32.1579
-31.8708
-31.5863
-31.3221
-33.5211
-33.2552
-33.0589
-32.7964
-32.535
-32.2622
-31.986
-31.7084
-31.4304
-31.1535
-30.8748
-30.6019
-32.7101
-32.4513
-32.261
-32.0075
-31.7554
-31.4926
-31.2271
-30.9603
-30.6938
-30.4289
-30.1669
-29.9263
-31.8857
-31.6355
-31.4514
-31.2071
-30.9642
-30.7119
-30.4575
-30.2023
-29.9481
-29.6951
-29.4407
-29.2007
-31.0552
-30.8111
-30.6318
-30.3967
-30.1631
-29.9212
-29.678
-29.435
-29.1938
-28.9563
-28.7222
-28.5225
-30.212
-29.975
-29.8006
-29.5751
-29.3513
-29.1205
-28.8883
-28.6568
-28.4277
-28.2027
-27.9801
-27.7669
-29.355
-29.1273
-28.9601
-28.744
-28.5299
-28.3097
-28.0888
-27.8683
-27.6494
-27.4317
-27.2117
-26.9915
-28.4945
-28.2708
-28.1086
-27.9022
-27.6983
-27.4894
-27.2806
-27.0726
-26.8665
-26.6635
-26.4652
-26.294
-27.6169
-27.4029
-27.248
-27.0519
-26.8587
-26.6616
-26.4656
-26.2713
-26.0795
-25.8905
-25.7014
-25.5167
-26.7338
-26.5272
-26.3781
-26.1925
-26.0107
-25.8267
-25.6443
-25.4647
-25.2879
-25.1153
-24.9472
-24.8008
-25.8415
-25.6444
-25.5018
-25.3264
-25.1558
-24.9844
-24.816
-24.6517
-24.4917
-24.3356
-24.1822
-24.0461
-24.9469
-24.7542
-24.6173
-24.4525
-24.2941
-24.1364
-23.9826
-23.8334
-23.6899
-23.5519
-23.4194
-23.3216
-24.042
-23.8564
-23.7265
-23.5723
-23.4258
-23.2819
-23.1434
-23.0098
-22.8816
-22.7591
-22.639
-22.5212
-23.1272
-22.9511
-22.8286
-22.6863
-22.5524
-22.4229
-22.2997
-22.1823
-22.0699
-21.9619
-21.8548
-21.7488
-22.2118
-22.0428
-21.9265
-21.7955
-21.6753
-21.5611
-21.4547
-21.3556
-21.263
-21.1776
-21.1026
-21.0649
-21.2938
-21.1301
-21.0208
-20.9016
-20.7953
-20.6976
-20.6091
-20.5292
-20.4566
-20.3899
-20.3252
-20.2687
-20.3681
-20.2129
-20.1114
-20.0053
-19.9138
-19.8334
-19.7642
-19.7046
-19.6529
-19.6078
-19.5676
-19.557
-19.4424
-19.2945
-19.2003
-19.107
-19.0318
-18.9704
-18.9217
-18.8844
-18.8557
-18.8331
-18.8111
-18.796
-18.5171
-18.3748
-18.289
-18.2101
-18.1522
-18.1117
-18.086
-18.073
-18.0699
-18.0741
-18.0824
-18.1048
-17.5886
-17.454
-17.3773
-17.3143
-17.276
-17.2584
-17.2584
-17.2728
-17.298
-17.3315
-17.3713
-17.4256
-16.6635
-16.5349
-16.468
-16.4229
-16.4067
-16.4152
-16.4437
-16.4874
-16.5422
-16.6049
-16.6737
-16.7615
-15.7374
-15.6171
-15.5621
-15.5377
-15.5482
-15.5866
-15.647
-15.7231
-15.8087
-15.8986
-15.9866
-16.0779
-14.8156
-14.7016
-14.6617
-14.6636
-14.7065
-14.7811
-14.8784
-14.9908
-15.1111
-15.2338
-15.3556
-15.4923
-13.8933
-13.7886
-13.7701
-13.8082
-13.8937
-14.0124
-14.1524
-14.304
-14.4604
-14.6158
-14.7641
-14.9117
-12.9669
-12.8761
-12.8945
-12.9867
-13.1287
-13.3001
-13.4875
-13.6808
-13.8732
-14.0597
-14.2345
-14.4039
-12.0292
-11.9711
-12.0585
-12.2338
-12.4492
-12.6803
-12.9145
-13.1441
-13.3692
-13.5834
-13.7755
-13.9336
-11.058
-11.1441
-11.3813
-11.6846
-11.9813
-12.2598
-12.5295
-12.7861
-13.0293
-13.2721
-13.4725
-13.6555
-1.51269
9.70867
-10.3085
-19.2166
-19.8569
-7.19873
-4.75619
32.7498
-44.7907
-39.96
-35.0471
-14.855
16.5881
-41.2454
1.38598
-6.75736
-41.2707
-30.5992
-30.0393
-6.48883
27.9829
26.3246
17.7848
-16.1201
-0.858921
-10.8525
24.3647
0.646142
-42.5139
-37.8093
-42.4766
30.9143
9.58118
-34.6556
16.7936
18.0435
33.664
-30.818
33.2342
-14.7595
2.3228
-1.99094
24.6821
-0.419855
33.4335
26.1241
19.053
19.9916
33.3648
27.9715
18.7595
32.5674
30.9378
1.49089
-36.9584
9.41819
12.9039
-2.3688
-31.5739
0.921475
24.1692
30.3288
1.53635
-3.9668
17.5255
9.71175
-13.6887
30.4922
16.3348
-39.4148
-37.0552
13.9387
33.1332
-13.2576
-15.4929
2.61652
-44.3282
-1.67792
10.0153
28.8018
2.66435
-1.93248
33.9138
32.5578
1.96512
-44.3982
-13.7144
0.919604
-39.5739
33.543
27.9868
-41.3219
-0.226457
7.82801
34.3246
-4.18769
0.516301
-1.90759
-0.6421
-13.3448
-15.8566
14.5777
5.57199
8.91216
-1.70933
33.9712
1.83123
33.2501
-13.6621
0.350443
17.9786
-2.06973
30.5196
-7.73159
1.68689
15.6669
-19.9035
-6.20091
-45.7002
-33.3359
-10.606
-21.5296
-42.0199
15.4073
-18.1223
-40.3266
-1.92276
11.6043
19.3703
1.03079
31.5958
1.40013
21.4148
8.84732
23.5181
10.78
34.0284
-39.3995
31.545
10.3895
-19.1499
28.7191
27.1225
0.538167
30.8963
-37.1297
31.6714
-10.684
-47.9226
3.35747
0.321586
16.6472
-1.6677
4.7634
22.1788
3.22721
31.8295
-1.35025
-41.7125
-14.5818
-22.091
-6.32606
-30.1839
-15.0632
24.1411
26.3772
31.5944
34.3121
10.9022
1.4867
-38.1095
-18.0677
-36.9177
-19.2509
-1.10228
-41.249
1.95424
32.3909
25.2137
-36.9812
31.0678
-32.2832
-7.56595
33.4016
6.30572
31.4885
3.49399
-1.70585
31.7776
1.62157
-40.3785
-1.74513
31.9149
-5.90093
32.0476
8.06158
26.9523
30.4
2.38177
-61.4221
-47.5672
32.4141
34.3548
31.1706
32.8671
14.1222
-7.97462
-36.2493
-13.8282
-15.9304
4.30901
-46.9816
33.4126
34.228
1.93903
31.1852
-11.1909
-13.1308
-63.5314
30.5448
32.4363
-47.8287
33.5685
-3.23902
-3.26706
-39.92
-44.8067
-2.07336
-56.4286
20.0275
33.7382
-17.1118
-2.30151
-13.011
-13.3751
27.4039
31.2409
-47.3664
-1.80744
32.8941
-33.3319
19.4549
-40.7462
-45.9343
33.0707
2.45094
19.8829
6.0182
-42.4812
31.3422
-40.1264
-13.3937
-40.3663
-71.5362
28.2591
-31.6903
0.0948601
32.6675
-42.1989
33.3999
-15.2348
27.0934
17.3272
-8.60959
-14.325
27.5832
-46.5799
32.7185
-3.6825
6.48036
0.177262
18.6136
-45.2874
33.0931
32.8854
-44.4149
21.8568
34.4525
34.2538
32.6632
32.6384
23.3642
33.6993
33.197
-25.4647
27.4651
-33.0658
33.228
-50.0973
29.5069
32.6455
-42.3224
34.956
34.9489
30.4558
32.0085
28.0429
30.7002
23.9774
34.2468
29.0809
-0.741237
-10.8255
-37.5655
22.3454
-46.5048
34.4991
1.55035
14.387
16.6654
-27.9372
34.7069
3.44691
-50.9236
32.5036
24.3753
34.904
-31.4261
2.0123
27.8125
22.0458
-41.8215
-15.3305
69.7058
34.2388
-30.7881
-26.2038
-2.3163
2.57491
34.7396
-4.08394
0.640473
-41.8267
-2.27028
2.63703
4.24881
-1.70753
14.9905
2.15796
6.52425
-0.323787
33.0152
0.121629
29.3955
12.9121
31.6235
33.6235
-42.1352
-60.7289
-12.6694
-0.170165
-4.06265
13.8573
26.011
34.7969
-1.17876
-25.3459
33.5387
-46.1391
-40.0121
30.1006
33.7027
-49.0016
-61.3683
21.2618
-21.6337
-3.18215
0.324713
-1.55282
0.707636
-29.7902
30.2465
33.9939
-33.1988
-41.7281
28.7304
33.1786
-48.2764
3.57204
-35.8021
-11.0465
-11.0819
-1.39273
33.1489
-67.0622
28.0376
-0.864869
21.7729
28.6231
19.7464
3.50472
-37.2365
-35.6885
30.7651
30.2909
-3.02423
-55.7602
-2.8058
-33.8536
-26.831
13.1527
-14.3693
-12.9854
14.1071
-43.4324
30.9285
-48.7957
-41.2342
31.315
33.3117
-2.2185
-0.821398
1.55667
-49.2653
12.7162
28.7863
-62.5226
30.404
30.6386
3.41157
0.202352
30.6394
1.69699
-3.00131
32.5316
0.583774
-21.6433
-47.3117
33.9101
0.58022
-14.0845
-11.2362
-31.4654
29.4253
-32.5512
1.96322
-41.4937
-37.3307
28.6092
-6.84187
34.5696
33.252
12.985
32.0708
8.54973
-14.4563
-6.82788
31.8915
27.0094
2.1266
-37.5273
29.7144
33.4658
10.7459
-41.83
28.3661
9.66298
34.7978
34.2328
-32.4327
28.6083
-10.4219
22.8581
-4.52618
-50.1393
-28.1419
2.28268
29.3301
22.8503
33.3538
-25.8523
33.656
19.135
0.82343
-38.0159
-46.7774
30.8412
1.99115
31.8788
-13.1583
0.115685
33.5101
33.2827
-23.2124
-20.6289
30.2076
34.174
-6.22572
-19.4048
-42.8953
-22.3528
0.944835
32.4122
-57.7266
-17.2723
30.5445
-23.7876
-1.02663
33.1336
33.9279
-40.508
31.0782
33.624
2.45375
26.2928
34.3914
22.9633
-48.3234
31.0994
-37.6737
31.7013
-49.5377
-13.7747
-36.8348
2.00606
-15.7088
31.4398
-37.647
-13.9789
21.4093
15.8631
-12.5256
1.31237
31.556
-0.69413
3.77269
-14.8048
33.6809
30.2581
-38.9824
34.9537
-15.2385
-17.4604
-37.2815
-2.15893
25.9694
-47.4006
-36.3904
30.3883
-42.5656
-7.71207
-17.8139
-21.4706
-48.2453
-43.3061
-1.82927
-26.3763
1.95673
19.6121
9.06797
13.8134
-17.3891
28.4736
33.6713
-30.3881
26.223
29.0594
-13.8708
0.00805365
-0.106154
16.6566
-13.4309
30.6453
-39.119
-31.5297
-25.952
31.7888
0.499589
16.9993
27.6794
10.8619
-49.6758
24.3566
30.0025
30.3205
12.4571
0.449909
-9.38809
-2.67425
-36.0461
-36.1242
33.0707
-43.7467
4.26546
-45.8298
25.0432
33.0042
27.5528
-43.9613
0.130066
-32.4613
1.30778
28.5275
-13.3947
32.2826
-36.7076
-0.087936
-46.091
-40.8495
33.4606
1.8386
-0.660918
-26.6584
-17.3408
11.7116
11.9934
8.30434
-12.797
-6.26479
7.62096
29.7404
-29.2459
-33.8715
-1.86126
0.820956
-44.4461
34.1615
32.6955
33.5985
10.7178
29.3627
-6.83678
-30.6973
25.6758
-1.78595
11.3484
30.242
1.56009
14.4132
33.8738
-50.3689
-50.7109
3.39483
-13.0608
29.1759
-49.7366
19.3726
25.1676
32.2122
-2.12202
31.9851
29.4066
23.5543
-22.1532
-9.39035
-0.321463
-48.233
-50.9597
32.2002
-60.8112
4.4521
2.76263
-45.9051
-31.0174
10.4446
1.96407
-41.9239
-1.12055
-36.3036
31.7155
-31.2635
2.02343
-45.9064
-0.0557268
32.8856
-37.795
33.5811
17.0764
25.4815
-48.4525
-1.14367
19.0922
-48.116
31.7542
-36.8396
-3.98172
-40.3364
-17.9674
1.34443
2.35865
24.1738
-15.0305
32.2642
4.06467
-25.4101
34.2334
34.3039
-38.7184
23.5395
-38.4751
33.8131
27.4065
33.0818
-2.17943
13.5332
-1.13188
1.50343
30.1587
2.13795
34.8892
-10.6979
-35.4059
1.45855
28.6792
34.1121
-37.1408
-5.31337
-26.7274
18.8934
-52.8002
-17.3549
-28.6038
-40.6107
-1.8653
0.845041
33.2052
20.6277
34.3397
29.6524
3.82767
34.836
34.9153
32.8925
-37.0519
-16.634
32.8878
-0.533008
4.46235
-56.5857
33.4979
1.26157
15.1419
-38.4371
6.44892
-2.37116
-41.541
2.05411
-26.6075
-57.9181
6.35005
32.1523
-1.61944
23.0339
32.7932
1.41697
-8.69815
-1.28426
7.34549
-9.47237
-52.4265
-32.0871
27.6009
29.3694
1.92136
-13.8789
-0.634735
-0.647486
-21.2373
14.8981
30.6165
16.5074
-43.6546
-2.8691
-109.941
-0.506623
-10.2911
33.0053
30.1055
-1.66014
31.6938
-17.4873
29.2845
-10.4852
-42.7103
-43.9297
31.3881
-24.7435
-15.0096
17.342
8.05718
27.3583
-58.0204
-13.3479
29.0357
0.119203
32.56
-8.11888
-39.5385
-44.9466
-16.1669
-13.9746
-43.1426
-23.866
6.08241
34.3735
29.1898
-12.4079
7.35179
-3.33206
33.8415
-37.4048
-5.30663
-42.2565
-28.3809
25.9427
24.2428
-48.3394
-11.1443
27.685
-12.2067
-38.9228
-38.7161
0.209627
-43.2186
-15.7617
34.1369
32.4844
30.567
0.113563
-10.7378
-2.82292
1.74865
2.38273
31.0466
23.1992
20.4823
-37.8733
0.665581
-43.7973
15.5696
23.5981
1.95699
-38.5734
-4.19188
26.4397
-42.696
23.7773
30.6363
28.5197
-2.1241
26.3502
-38.1641
10.2426
14.1345
31.9717
-39.9679
28.0086
16.0801
-15.3866
-13.9888
26.9791
-26.9051
-28.8909
30.875
0.417532
-50.6022
15.3059
12.614
-9.05573
-58.3945
26.8686
-0.424933
1.19819
-45.3466
29.9375
-48.6148
1.38818
-36.3582
-38.1918
33.7614
6.52052
33.5863
-29.932
6.56172
29.3278
-2.0494
-50.3314
34.0855
34.022
34.6384
3.19281
1.99479
15.4295
-41.3323
-40.5928
-32.0392
0.323049
-14.3856
3.88934
12.7772
-39.7157
25.0439
27.7163
28.0078
16.8945
33.3535
32.6236
-37.5231
0.00679043
34.2916
-32.3074
31.6937
1.15137
-41.6909
-4.33765
1.98092
4.47985
29.8314
-20.8226
-10.8188
26.372
-54.7528
-4.70326
3.80041
16.3246
23.141
-11.7448
27.9144
2.61426
-3.12746
-13.7404
13.9225
-12.984
-40.9045
33.2472
-16.574
22.2404
-35.6762
28.3164
30.4533
32.3703
-40.4893
31.8764
1.66867
32.8125
-10.5735
-2.26247
-41.3778
30.0148
21.145
25.7233
-8.22022
-44.012
-35.8611
-0.414498
34.1244
2.73918
33.1898
-31.5351
33.2041
-2.0355
-45.3647
34.2536
-35.5526
33.1186
32.9913
-15.1109
-29.5381
23.731
0.626583
15.099
34.9203
-1.3792
-48.2949
32.2823
-2.32814
-15.448
10.6852
33.2675
33.6727
-31.4991
31.4343
32.6515
-10.2929
31.5615
27.0203
30.5855
31.298
1.56159
-1.61596
-40.2615
-6.00692
-38.8827
32.9993
-0.808366
-36.8766
33.2246
-2.27763
30.064
25.2494
31.1483
31.0624
18.4356
-41.1713
-38.1734
30.802
-33.1002
-21.288
26.1202
33.8679
-45.5449
-30.704
-38.5936
-21.5084
-15.8931
28.5316
-9.88256
-18.2689
-31.1193
-0.441715
-40.5811
33.0396
12.6593
1.70922
-3.20568
-3.20672
31.5025
-2.11193
32.6852
-0.164239
31.7904
-7.40101
3.3494
-46.3815
33.7312
1.88257
31.4896
33.756
-25.0792
27.059
-17.8674
32.2715
-1.61925
30.3536
21.4523
2.9291
10.3906
34.4823
30.9575
-0.140348
2.31262
33.7327
2.32825
28.6954
-31.3624
-31.5377
31.3348
-19.2651
18.8104
-100.83
-44.9352
33.5161
-53.7448
-41.4547
2.31049
31.1341
-43.0732
-44.4743
2.46807
26.405
-1.20395
-7.25329
30.6221
-10.4831
-17.3584
6.32741
-13.8767
-62.0423
13.9522
-1.1586
25.0338
0.472807
10.4801
24.7292
-64.6493
24.657
5.48177
-3.15686
-47.6632
26.8688
4.72189
7.88327
27.875
24.5465
33.6663
34.7275
-15.0226
-1.39811
-13.6567
2.63321
39.3283
26.7186
-87.8048
29.5236
-29.8722
1.10464
-50.7338
-0.330215
2.7462
11.6267
30.7685
31.6866
-48.1346
2.642
-16.9663
-1.91352
27.2522
-48.2243
0.949423
32.9988
1.38719
1.10938
5.79047
16.4223
-13.2165
-40.6065
-22.1802
2.97835
-2.63345
31.3926
32.4263
32.1377
-44.8415
27.6004
31.3204
2.88152
11.4045
-35.2477
32.4818
-14.2192
14.1039
1.29034
34.1247
-2.04981
31.9498
32.1902
-7.64894
-12.177
33.2151
-16.4527
21.8002
1.6702
-35.9983
-40.7801
33.1616
-2.86252
-17.875
-35.3417
-20.3016
23.3231
-38.7319
1.95657
1.53399
0.316504
-19.6483
33.9726
-47.0192
0.244614
34.8608
-43.5483
29.7668
25.6961
-19.092
14.1023
1.71588
20.504
30.4623
31.2486
-1.03898
-40.5273
-2.35402
-16.8486
-17.0902
-44.2259
21.6101
-39.873
-41.5203
8.90316
14.5455
2.25791
-1.66518
6.32612
-12.6564
-7.35185
0.963859
-44.0355
33.3933
-0.583684
31.4927
-34.9019
3.53389
1.89534
-62.3631
31.4388
-35.7656
-20.8097
23.553
30.2917
-27.0114
20.2101
-40.0718
33.0506
32.6471
34.7957
25.843
33.7723
31.8039
-18.4932
33.7083
3.71739
33.3284
15.4459
28.4471
-22.9029
29.3644
-32.9959
11.3407
34.498
23.0339
34.2953
33.3731
34.5998
-28.1201
-3.82814
8.57855
2.0986
-20.3498
-39.3707
1.93387
-45.0924
2.59575
15.4197
32.8992
30.9633
-43.465
-22.718
22.8398
-46.338
-7.21138
34.5393
-2.81393
32.3631
-49.2541
0.775833
-15.9535
-4.19045
21.4192
32.2059
30.8647
25.35
31.5577
-1.80267
21.1876
30.5593
-46.7152
5.90081
14.3472
29.3261
31.4847
-19.0309
32.0482
-16.8391
-7.39601
-12.5815
1.21846
-8.95109
32.4806
-41.5757
33.3063
29.7228
-26.7536
-30.0122
25.8105
1.44958
32.8995
1.23999
1.62711
-0.748818
16.0367
32.1444
28.6413
-38.4424
33.0745
32.6655
6.3178
3.49972
26.5305
26.6297
19.8714
33.1016
-22.4575
33.5614
-0.838772
33.7139
7.68954
7.34185
1.9317
-37.5702
-19.1509
28.7867
-26.28
-42.0508
-46.0018
2.01508
-40.1614
34.5439
33.8329
-0.335558
-9.59824
28.0761
32.7309
-35.1127
31.8976
-1.74656
-37.183
3.08947
32.3479
-16.3209
31.1436
13.6594
-12.3285
-0.662314
43.5758
-0.89372
-45.0972
18.203
3.3135
16.3237
30.705
-1.39552
-0.602048
-1.89997
16.0582
32.9162
-25.9223
-3.49837
31.6104
25.0823
34.0987
1.8516
34.475
25.91
27.8123
-21.8931
33.6728
-16.0119
34.8267
-11.0359
30.828
32.2955
33.9243
-0.742652
26.0025
32.5848
31.903
7.62451
0.810878
31.3788
23.9705
1.73461
-4.78625
-50.7253
0.913493
-37.1464
-45.3316
32.9796
33.5738
-27.2279
24.6967
-31.7014
-52.1806
-25.8372
-13.3688
-35.9584
34.7804
28.4325
-1.48646
33.8315
-5.61122
-0.81634
2.92483
-0.216682
1.89895
4.17674
-25.6968
-100.279
-31.4015
8.13116
-37.8238
29.1179
-3.71376
30.9831
28.4086
-21.3936
27.1202
-43.4175
34.6847
24.725
20.2512
-2.00243
2.23405
16.4974
21.3966
33.6454
32.8214
-44.083
27.9061
30.9254
-9.00736
32.8814
33.3687
-1.13714
32.803
-42.4145
4.05537
-18.5834
14.8394
-18.3193
33.0213
-32.1606
-15.9462
7.04731
-33.0323
5.31204
-10.4806
1.19719
-18.6871
-40.3558
-25.6267
-0.642022
-1.44465
25.6427
32.481
-38.2122
31.2371
-24.4729
33.3049
32.183
2.02439
33.6203
-1.26767
-33.1772
27.9863
-31.7771
24.2363
-49.5411
-16.0642
33.5934
33.8504
-50.566
32.4903
-14.288
34.6226
-38.7948
22.8508
-31.6124
33.9218
12.0563
5.43033
-41.0617
-32.2184
1.70958
-0.122495
-6.96307
-5.5042
34.4045
-0.92019
33.0504
30.2891
31.8841
-43.2017
2.92391
-33.8315
30.4092
34.1805
32.1971
32.9077
-42.3673
-5.05124
1.62492
3.43616
-28.8578
2.90968
33.5272
31.3419
5.20268
-17.6195
-35.9836
34.0542
33.0432
1.87951
31.2074
-27.0653
8.71774
11.549
34.2538
33.5291
-9.85329
26.5603
-1.45937
2.72926
34.6398
7.32471
-19.6829
2.46178
32.5992
-9.88164
23.7488
-50.1417
16.2257
-28.063
-40.5654
6.43353
3.4394
-9.85565
0.808692
30.7837
33.4183
32.4242
-1.11686
22.8852
-27.9176
8.4025
-13.1681
-16.8211
-0.314853
2.12632
14.6182
-11.7767
0.71064
28.8855
4.03742
-46.0711
-5.95228
-7.49417
-22.5221
23.2173
13.9084
21.3904
-48.261
12.3564
-1.91945
32.4547
30.9384
-40.3041
0.021785
34.7908
31.3382
-4.36341
32.1843
-28.2123
-26.5697
5.69195
26.4893
-9.29201
30.9011
-48.0456
-40.1178
11.0583
-30.3661
-1.51731
33.5407
-1.83127
-23.4759
14.6267
31.2214
-27.8324
-38.2384
16.6817
-13.893
-0.801345
-32.9513
-10.6318
3.23249
-3.68594
34.1153
33.6551
25.1473
14.0077
29.3978
-6.3946
1.55665
2.42137
-40.4553
-15.2267
-36.2059
26.4181
33.6575
32.8129
-21.2152
17.2451
2.79973
-1.24179
29.4111
-26.6835
-38.8977
-14.5219
4.11049
-16.1145
20.4285
34.3538
33.1889
-25.6318
34.4215
-40.5935
-0.705268
4.19883
-17.5071
33.8107
-41.0058
32.8581
34.6814
8.05271
-48.8497
-2.71045
31.6802
19.7979
20.0048
-1.6202
21.504
17.7117
-37.6596
-32.9104
-1.00718
32.3833
-3.22186
33.5523
-42.9768
-1.68165
21.1549
-0.385497
29.347
-26.3672
26.8761
-1.64427
29.5019
33.7634
31.6135
-38.4749
19.8946
-36.9299
3.58815
-14.4777
34.3237
-49.8681
-12.4295
-8.48697
-4.31645
33.6313
6.55496
-13.5649
1.34118
-24.4647
1.91259
7.58914
-0.0297907
-3.16342
-16.5773
-13.2691
1.19632
-43.6827
-17.3044
-26.1681
-38.0226
-8.68091
-2.54001
34.3581
-6.49557
0.908917
-29.5448
-11.0292
-43.9478
21.8633
-12.2784
10.5229
-0.948499
-7.58361
-22.7074
20.4095
-36.0638
-12.5907
-11.2222
-26.877
33.666
-41.0269
3.47651
-0.306939
-43.1526
-11.8273
12.1332
18.4376
1.4856
-40.5265
5.66853
-30.6958
-40.4943
33.0122
-2.41884
34.447
1.24166
-14.145
31.3032
1.81772
34.498
-30.0485
1.68794
32.8311
1.57833
13.6626
15.0688
3.99181
-23.8253
29.1108
-43.8113
-27.6025
-48.2648
11.8313
32.9904
29.8038
-42.3062
-17.0619
2.04828
-58.2848
23.7716
-43.6509
13.0169
-18.5111
0.253172
-2.66253
31.2887
-14.6352
31.1361
-28.5367
31.3178
-2.60095
1.95685
4.3309
22.5606
12.0501
-23.1011
-1.87959
-30.4932
32.0927
18.3099
-16.1676
-38.4867
0.220717
27.8971
0.856325
1.87356
30.9267
-41.2346
-25.5343