/*--------------------------------*- C++ -*----------------------------------*\
| =========                 |                                                 |
| \\      /  F ield         | OpenFOAM: The Open Source CFD Toolbox           |
|  \\    /   O peration     | Version:  2.3.1                                 |
|   \\  /    A nd           | Web:      www.OpenFOAM.org                      |
|    \\/     M anipulation  |                                                 |
\*---------------------------------------------------------------------------*/
FoamFile
{
    version     2.0;
    format      ascii;
    class       volVectorField;
    location    "0.63";
    object      U;
}
// * * * * * * * * * * * * * * * * * * * * * * * * * * * * * * * * * * * * * //

dimensions      [0 1 -1 0 0 0 0];

internalField   nonuniform List<vector> 
15166
(
(5.97391 0.560065 3.1947e-19)
(7.18706 1.03434 1.59835e-18)
(8.26903 0.902214 -8.93953e-19)
(9.30106 0.95629 8.01681e-19)
(10.0961 1.02019 8.23939e-19)
(10.8727 1.07498 4.3424e-19)
(11.5267 1.17341 -8.59489e-19)
(12.0689 1.23918 8.32975e-19)
(12.4641 1.33352 -4.22534e-19)
(12.7711 1.39301 1.67143e-18)
(12.997 1.44848 -1.22763e-18)
(13.1508 1.50679 1.22174e-18)
(6.66605 1.02636 4.88972e-19)
(7.60239 1.42482 5.24282e-20)
(8.55499 1.20941 2.74584e-20)
(9.47678 1.2295 4.56087e-19)
(10.2373 1.24939 -3.9599e-19)
(10.965 1.27589 0)
(11.5823 1.33751 4.25017e-19)
(12.0879 1.38344 1.45189e-21)
(12.4665 1.44388 4.18299e-19)
(12.7601 1.48569 -8.43349e-19)
(12.9764 1.52575 1.65663e-18)
(13.1344 1.5647 -1.23423e-18)
(7.20868 1.25745 -4.6331e-19)
(8.03763 1.5682 -2.47785e-18)
(8.89937 1.37644 4.88107e-19)
(9.72196 1.41051 -9.25279e-19)
(10.4313 1.41722 -1.65982e-20)
(11.1023 1.4329 8.84005e-19)
(11.6751 1.4725 -1.26959e-18)
(12.1419 1.50342 -4.35696e-19)
(12.4973 1.54164 8.31609e-19)
(12.7724 1.56903 5.99642e-21)
(12.9766 1.59529 -1.23786e-18)
(13.1301 1.62009 1.62279e-18)
(7.51485 1.37414 0)
(8.3504 1.62661 -1.08479e-18)
(9.18107 1.47817 2.54407e-18)
(9.94676 1.52641 -1.4451e-18)
(10.6198 1.53135 9.25267e-19)
(11.2454 1.54615 1.36579e-18)
(11.7793 1.57484 -4.23942e-19)
(12.2125 1.59688 4.35704e-19)
(12.5453 1.62123 -8.51541e-19)
(12.8022 1.63802 8.41227e-19)
(12.9949 1.65297 4.17405e-19)
(13.1437 1.66614 8.27401e-19)
(7.72616 1.44766 -6.25629e-19)
(8.59199 1.66233 -5.80165e-19)
(9.40727 1.55332 -1.57526e-18)
(10.1388 1.60714 1.486e-18)
(10.7878 1.61245 -4.70716e-19)
(11.3802 1.62865 -4.56026e-19)
(11.8831 1.6515 -4.44785e-19)
(12.2893 1.66819 4.51113e-19)
(12.6024 1.68384 -4.29783e-19)
(12.8434 1.69335 -4.23424e-19)
(13.0254 1.70077 -1.26306e-18)
(13.1674 1.70718 -4.66312e-21)
(7.91383 1.49909 1.23987e-18)
(8.80885 1.68487 1.17542e-18)
(9.60758 1.6096 -1.09926e-18)
(10.3124 1.66477 2.07593e-18)
(10.9415 1.67168 -1.98436e-18)
(11.5069 1.68943 9.50189e-19)
(11.9844 1.70865 0)
(12.3682 1.72174 9.05132e-19)
(12.6643 1.73168 -1.76274e-18)
(12.8915 1.73607 8.61711e-19)
(13.0638 1.73805 0)
(13.1986 1.73921 1.2561e-18)
(8.08662 1.53345 -6.74591e-19)
(9.01 1.69517 6.20882e-19)
(9.79239 1.64855 0)
(10.4749 1.70356 0)
(11.0854 1.71328 5.19064e-19)
(11.6276 1.73265 4.97765e-19)
(12.0831 1.74964 -9.51114e-19)
(12.4478 1.76031 1.38425e-18)
(12.7291 1.76637 4.54189e-19)
(12.9442 1.7669 0)
(13.1082 1.76443 4.35629e-19)
(13.2378 1.76132 0)
(8.24119 1.55405 -1.36307e-18)
(9.19328 1.69574 1.25576e-18)
(9.96184 1.6731 5.74788e-19)
(10.6261 1.72707 5.61882e-19)
(11.2201 1.74013 -2.61908e-18)
(11.7421 1.76103 5.0964e-19)
(12.1786 1.77682 0)
(12.5268 1.78598 -4.65757e-19)
(12.7951 1.7895 4.64862e-19)
(13 1.78739 2.75892e-21)
(13.1565 1.78197 -8.70987e-19)
(13.2798 1.77625 8.59073e-19)
(8.37874 1.56382 1.40255e-18)
(9.35919 1.68907 -1.29113e-18)
(10.1164 1.68648 5.90152e-19)
(10.7659 1.73874 -1.69063e-18)
(11.3453 1.75507 2.15637e-18)
(11.85 1.77722 -2.06478e-18)
(12.2701 1.79242 9.9405e-19)
(12.6042 1.80071 0)
(12.8614 1.80265 4.72827e-19)
(13.0574 1.79884 0)
(13.2072 1.79135 9.01324e-19)
(13.3251 1.78318 -4.3703e-19)
(8.50245 1.56509 1.44221e-18)
(9.51035 1.67688 0)
(10.258 1.69107 6.23233e-19)
(10.8952 1.74123 5.88069e-19)
(11.4617 1.76048 5.58645e-19)
(11.9514 1.78351 5.34348e-19)
(12.3573 1.79846 0)
(12.6792 1.80627 0)
(12.9268 1.80724 -1.42734e-18)
(13.1152 1.80233 2.331e-18)
(13.2592 1.79356 -9.02394e-19)
(13.372 1.78521 -1.33969e-18)
(8.61503 1.55965 1.47158e-18)
(9.6493 1.66032 -2.0147e-18)
(10.3888 1.68851 1.89424e-18)
(11.0154 1.73634 -1.77351e-18)
(11.57 1.75809 -5.56667e-19)
(12.0466 1.78168 -5.33029e-19)
(12.4401 1.79653 1.03608e-18)
(12.7515 1.80408 -1.00412e-18)
(12.9908 1.80451 -1.46309e-18)
(13.1726 1.79895 -4.67495e-19)
(13.3117 1.78907 1.85648e-18)
(13.4196 1.77934 -8.9383e-19)
(8.71819 1.54866 -1.50757e-18)
(9.77771 1.64008 -2.05014e-18)
(10.5103 1.67994 -3.18138e-19)
(11.1275 1.72536 1.21229e-18)
(11.6712 1.74919 8.56864e-19)
(12.1361 1.77307 -2.20019e-18)
(12.5188 1.78788 2.11547e-18)
(12.821 1.79532 -3.85561e-21)
(13.053 1.79553 -1.49095e-18)
(13.2291 1.78986 9.65935e-19)
(13.3634 1.77982 -4.66323e-19)
(13.4667 1.76925 9.0539e-19)
(8.81305 1.53308 -1.14849e-18)
(9.89675 1.61672 -3.53607e-19)
(10.6236 1.66627 3.22592e-19)
(11.2323 1.70923 0)
(11.7661 1.73476 2.89662e-19)
(12.2205 1.75869 -2.82763e-19)
(12.5935 1.77351 0)
(12.8875 1.7809 0)
(13.113 1.78105 2.54174e-19)
(13.2838 1.77546 0)
(13.4131 1.76582 0)
(13.5104 1.75537 -9.158e-19)
(8.90062 1.51363 -3.86917e-19)
(10.0076 1.59068 3.51958e-19)
(10.7295 1.64823 0)
(11.3304 1.68876 0)
(11.8551 1.71559 1.18758e-18)
(12.3001 1.73938 -8.60616e-19)
(12.6644 1.75415 1.09231e-18)
(12.9513 1.76145 -1.0607e-18)
(13.1711 1.76141 7.67883e-19)
(13.3375 1.75535 -5.67749e-21)
(13.4632 1.74487 -1.93844e-18)
(13.5579 1.73722 1.17931e-18)
(8.98164 1.49089 -1.59005e-18)
(10.1109 1.56227 0)
(10.8288 1.6264 1.34313e-18)
(11.4226 1.66454 -1.59644e-18)
(11.9387 1.69235 0)
(12.3753 1.71587 2.91874e-19)
(12.7318 1.73056 1.10938e-18)
(13.0123 1.73782 -2.41969e-18)
(13.2272 1.73791 2.082e-18)
(13.3896 1.73221 -1.01447e-18)
(13.5123 1.72175 9.81261e-19)
(13.6039 1.70851 -1.19472e-18)
(9.05677 1.46533 3.47822e-21)
(10.2074 1.53176 7.35626e-19)
(10.9221 1.60129 0)
(11.5093 1.6371 3.19717e-19)
(12.0175 1.6656 0)
(12.4463 1.68873 8.79694e-19)
(12.7959 1.70333 -7.81656e-21)
(13.0707 1.71057 -8.23964e-19)
(13.2811 1.71079 0)
(13.44 1.70541 -2.58305e-19)
(13.5592 1.69541 2.51261e-19)
(13.648 1.68081 0)
(9.12661 1.43737 4.02388e-19)
(10.2978 1.49941 -1.1195e-18)
(11.0099 1.57328 1.03884e-18)
(11.591 1.60683 -4.57354e-21)
(12.0919 1.63578 3.09108e-19)
(12.5135 1.65843 -2.97821e-19)
(12.8567 1.67291 0)
(13.1264 1.68009 0)
(13.3329 1.68041 1.0675e-18)
(13.4885 1.67524 -7.85948e-19)
(13.6046 1.66576 -5.05975e-19)
(13.6902 1.65218 -2.45541e-19)
(9.19151 1.40725 4.11451e-19)
(10.3827 1.46531 3.72749e-19)
(11.0927 1.54269 -3.47714e-19)
(11.6681 1.57406 6.59459e-19)
(12.1621 1.60324 -1.57335e-18)
(12.5771 1.62536 3.06283e-19)
(12.9146 1.63967 0)
(13.1796 1.64683 5.58367e-19)
(13.3825 1.64727 -5.45093e-19)
(13.5353 1.64231 -7.90405e-19)
(13.649 1.63326 2.58656e-19)
(13.7322 1.62088 7.43771e-19)
(9.25193 1.37527 0)
(10.4624 1.42966 0)
(11.1709 1.50981 0)
(11.7409 1.53907 3.37061e-19)
(12.2284 1.56831 0)
(12.6374 1.58984 6.08629e-19)
(12.9695 1.60396 -8.86141e-19)
(13.2303 1.61108 0)
(13.43 1.61171 -5.47646e-19)
(13.5803 1.60708 5.32752e-19)
(13.6917 1.59847 0)
(13.7731 1.58637 0)
(9.30824 1.34165 2.12256e-18)
(10.5373 1.39258 -1.53822e-18)
(11.2448 1.47488 7.18584e-19)
(11.8097 1.5021 -1.01052e-18)
(12.2911 1.53123 1.29024e-18)
(12.6944 1.55213 -9.25305e-19)
(13.0217 1.56602 8.92913e-19)
(13.2787 1.5731 2.83129e-19)
(13.4754 1.57394 -1.11309e-18)
(13.6232 1.56972 8.11214e-19)
(13.7325 1.56172 0)
(13.8119 1.54929 0)
(9.36069 1.30656 -1.71732e-18)
(10.6077 1.35418 0)
(11.3146 1.4381 0)
(11.8747 1.46334 -6.8127e-19)
(12.3504 1.49222 6.54598e-19)
(12.7485 1.51243 -9.32877e-19)
(13.0712 1.52606 5.11611e-21)
(13.3247 1.53306 8.72413e-19)
(13.5187 1.53404 5.60487e-19)
(13.6642 1.53011 -5.48964e-19)
(13.7714 1.52262 -2.67086e-19)
(13.8486 1.50989 0)
(9.40943 1.2702 -1.29989e-18)
(10.674 1.31459 1.18165e-18)
(11.3806 1.39965 0)
(11.9363 1.42295 -6.87775e-19)
(12.4066 1.45145 9.92272e-19)
(12.7997 1.47096 0)
(13.1183 1.48427 0)
(13.3685 1.49114 2.9526e-19)
(13.56 1.49216 5.66467e-19)
(13.7036 1.48834 -5.5496e-19)
(13.8092 1.481 5.37079e-19)
(13.8853 1.47008 0)
(9.45495 1.23258 -4.25465e-21)
(10.7365 1.27374 -1.18797e-18)
(11.4432 1.35964 0)
(11.9946 1.38107 1.04427e-18)
(12.4597 1.40911 -9.98061e-19)
(12.8482 1.42788 3.20478e-19)
(13.1629 1.44086 3.08616e-19)
(13.4102 1.44759 -8.85782e-19)
(13.5996 1.44872 5.77483e-19)
(13.7415 1.44518 -2.80485e-19)
(13.8457 1.43824 2.68471e-21)
(13.9207 1.42851 0)
(9.49677 1.19377 -8.79824e-19)
(10.7951 1.23178 8.01677e-19)
(11.5023 1.31826 0)
(12.0497 1.33785 -3.49578e-19)
(12.51 1.36535 0)
(12.8942 1.38336 -3.20085e-19)
(13.2054 1.39599 3.08955e-21)
(13.45 1.40258 3.00982e-19)
(13.6372 1.40382 -2.91643e-19)
(13.7776 1.40051 -2.69176e-21)
(13.8806 1.39377 -2.5335e-21)
(13.9547 1.38524 -1.07125e-18)
(9.53554 1.15427 -4.48028e-19)
(10.8502 1.18913 -8.02055e-19)
(11.5582 1.27569 7.51769e-19)
(12.1019 1.29342 3.55948e-19)
(12.5576 1.32031 0)
(12.9378 1.33755 3.26042e-19)
(13.2456 1.34981 -6.25385e-19)
(13.4877 1.35626 -5.99005e-19)
(13.6731 1.35759 8.80371e-19)
(13.8121 1.35453 -2.57998e-21)
(13.914 1.34802 -2.47278e-21)
(13.9872 1.33994 2.68964e-19)
(9.57179 1.11385 4.42963e-19)
(10.9022 1.14547 -8.14536e-19)
(11.611 1.23194 -3.79427e-19)
(12.1513 1.2479 -3.55307e-19)
(12.6027 1.27411 -3.42388e-19)
(12.979 1.29058 3.2577e-19)
(13.2837 1.30245 -1.26446e-18)
(13.5235 1.30873 2.92166e-21)
(13.7072 1.31013 0)
(13.8449 1.30731 8.57349e-19)
(13.9461 1.30104 -2.83116e-19)
(14.0189 1.29394 -2.71762e-19)
(9.6051 1.07257 -4.54985e-19)
(10.9508 1.10091 0)
(11.661 1.18715 3.1451e-21)
(12.1979 1.20134 3.61131e-19)
(12.6452 1.22684 6.86783e-19)
(13.0179 1.24253 3.25395e-19)
(13.3198 1.25401 -1.27448e-18)
(13.5574 1.26013 3.12001e-19)
(13.7396 1.26164 8.9837e-19)
(13.8762 1.25915 0)
(13.9765 1.25326 0)
(14.0489 1.24603 0)
(9.63542 1.03044 1.82562e-18)
(10.9965 1.05549 -8.19851e-19)
(11.7082 1.14139 7.71376e-19)
(12.242 1.15384 -3.60559e-19)
(12.6854 1.17859 6.97419e-19)
(13.0547 1.1935 9.92256e-19)
(13.3538 1.20456 -9.62421e-19)
(13.5894 1.21051 5.9385e-21)
(13.7702 1.21207 1.20433e-18)
(13.9057 1.20983 -8.79747e-19)
(14.0052 1.20444 2.84965e-19)
(14.0768 1.19803 -5.44869e-19)
(9.66313 0.987824 -4.57784e-19)
(11.0392 1.00955 -4.15259e-19)
(11.7526 1.0948 -3.84063e-19)
(12.2836 1.10548 -7.25745e-19)
(12.7233 1.12945 -3.40779e-19)
(13.0893 1.14356 3.36324e-19)
(13.3859 1.15419 3.18455e-19)
(13.6197 1.15994 -9.35495e-19)
(13.7992 1.16151 3.06905e-19)
(13.9338 1.15941 5.88301e-19)
(14.0327 1.1542 -2.85074e-19)
(14.1036 1.14937 -2.7969e-19)
(9.6883 0.944631 -9.20656e-19)
(11.079 0.962998 1.66946e-18)
(11.7945 1.04745 0)
(12.3228 1.05633 0)
(12.759 1.0795 0)
(13.1219 1.0928 6.73441e-19)
(13.4162 1.10299 6.49808e-19)
(13.6483 1.10854 -3.1328e-19)
(13.8266 1.11014 3.06035e-19)
(13.9604 1.10827 2.05493e-21)
(14.0588 1.10329 -5.73549e-19)
(14.1293 1.09877 5.60802e-19)
(9.71138 0.901099 9.31167e-19)
(11.1165 0.915918 -2.07201e-19)
(11.8339 0.999281 -1.95766e-19)
(12.3598 1.00644 0)
(12.7926 1.02879 0)
(13.1526 1.04128 -3.37677e-19)
(13.4446 1.05103 3.25017e-19)
(13.6751 1.05638 -6.36138e-19)
(13.8524 1.05801 3.05076e-19)
(13.9855 1.05636 -8.97235e-19)
(14.0835 1.05166 0)
(14.1536 1.04769 -2.81513e-19)
(9.73182 0.857056 -1.86886e-18)
(11.1511 0.868137 6.36717e-19)
(11.8709 0.950302 1.95556e-19)
(12.3944 0.955823 -5.52518e-19)
(12.8241 0.977368 7.12034e-19)
(13.1813 0.98906 0)
(13.4713 0.998371 6.54903e-19)
(13.7003 1.00351 -6.40198e-19)
(13.8766 1.00518 0)
(14.0091 1.00377 0)
(14.1065 0.999427 0)
(14.1763 0.994892 5.60431e-19)
(9.74991 0.813016 0)
(11.1831 0.820212 0)
(11.9054 0.900741 -3.92728e-19)
(12.4269 0.904591 1.69406e-21)
(12.8536 0.925315 0)
(13.2082 0.936216 -6.82273e-19)
(13.4961 0.945082 1.48977e-18)
(13.7238 0.949999 -4.83396e-19)
(13.8992 0.951647 -6.18837e-19)
(14.0312 0.950377 1.57706e-19)
(14.1282 0.9463 6.05063e-21)
(14.1976 0.942057 5.77303e-19)
(9.76594 0.768583 4.71177e-19)
(11.2127 0.771643 -2.14339e-19)
(11.9376 0.850547 1.9875e-19)
(12.4572 0.85282 -1.86246e-19)
(12.8811 0.872701 8.95845e-19)
(13.2332 0.882804 -1.73407e-19)
(13.5193 0.891222 -4.97108e-19)
(13.7457 0.895925 -3.19068e-19)
(13.9204 0.897581 3.14369e-19)
(14.0519 0.896511 -3.04096e-19)
(14.1487 0.892818 1.48348e-19)
(14.2178 0.8886 -1.41534e-19)
(9.77993 0.723737 7.12103e-19)
(11.2398 0.722574 -6.42909e-19)
(11.9676 0.799822 -1.98607e-19)
(12.4855 0.800506 1.88625e-19)
(12.9066 0.81956 -5.37681e-19)
(13.2563 0.828878 5.19836e-19)
(13.5407 0.836852 -3.22581e-21)
(13.766 0.841359 -1.64032e-19)
(13.94 0.843049 -3.12976e-19)
(14.0712 0.842172 4.59951e-19)
(14.1678 0.838816 1.47666e-19)
(14.2369 0.835132 -4.38255e-19)
(9.79137 0.678756 2.39689e-19)
(11.2644 0.673271 0)
(11.9954 0.748662 -2.00514e-19)
(12.5117 0.74772 9.26749e-22)
(12.9303 0.765928 0)
(13.2778 0.774464 1.74357e-19)
(13.5605 0.782006 0)
(13.7847 0.786338 0)
(13.958 0.788099 0)
(14.0889 0.787533 0)
(14.1853 0.784684 -2.97735e-19)
(14.2546 0.780817 5.80751e-19)
(9.80125 0.633574 -4.80335e-19)
(11.2869 0.623667 0)
(12.021 0.697086 4.0172e-19)
(12.536 0.694456 -1.8931e-19)
(12.9521 0.711843 -3.61333e-19)
(13.2974 0.719601 1.76736e-19)
(13.5786 0.726701 -3.36015e-19)
(13.8018 0.730823 3.28835e-19)
(13.9745 0.732596 -3.16166e-19)
(14.1049 0.732246 3.16348e-21)
(14.201 0.730008 1.53788e-19)
(14.2701 0.727332 2.91537e-19)
(9.80891 0.5879 0)
(11.307 0.573502 -2.16945e-19)
(12.0446 0.645039 -2.0123e-19)
(12.5582 0.640724 0)
(12.9721 0.657322 -3.62771e-19)
(13.3153 0.66429 7.01594e-19)
(13.595 0.670938 -3.40726e-19)
(13.8173 0.67482 0)
(13.9894 0.676528 0)
(14.1195 0.676176 -1.55532e-19)
(14.2154 0.673971 -1.50782e-19)
(14.2837 0.673979 0)
(9.81446 0.542255 4.81895e-19)
(11.3249 0.523352 -4.21828e-21)
(12.066 0.592685 -2.93468e-21)
(12.5786 0.586579 -3.37258e-21)
(12.9903 0.602418 -5.50579e-19)
(13.3316 0.608596 0)
(13.6099 0.614772 0)
(13.8313 0.618405 0)
(14.0031 0.620041 0)
(14.1331 0.619657 1.5561e-19)
(14.2294 0.616902 -1.49788e-19)
(14.2987 0.618763 2.94508e-21)
(9.81822 0.496157 -6.05492e-19)
(11.3406 0.472726 6.56e-19)
(12.0854 0.539948 4.04407e-19)
(12.5971 0.532031 -3.85396e-19)
(13.0068 0.54718 9.12529e-20)
(13.3462 0.552577 0)
(13.6232 0.558319 3.40022e-19)
(13.8439 0.561748 -3.30989e-21)
(14.0153 0.56348 -3.23536e-19)
(14.1452 0.563611 0)
(14.2415 0.561618 -2.28528e-19)
(14.3105 0.55824 0)
(9.82002 0.449958 2.05224e-21)
(11.3541 0.421986 4.3974e-19)
(12.1027 0.486892 1.02049e-19)
(12.6136 0.477156 2.86852e-19)
(13.0215 0.491673 -2.77863e-19)
(13.3591 0.496275 0)
(13.6349 0.501569 3.41211e-19)
(13.8549 0.504763 -3.32602e-21)
(14.0259 0.506424 -2.43853e-19)
(14.1557 0.506605 0)
(14.2518 0.504993 1.53046e-19)
(14.3212 0.505127 0)
(9.8205 0.403783 1.21353e-21)
(11.3655 0.370968 3.30418e-19)
(12.1179 0.433371 -1.02037e-19)
(12.6283 0.422033 1.92963e-19)
(13.0345 0.435949 0)
(13.3705 0.43971 0)
(13.6451 0.444555 -8.61207e-20)
(13.8644 0.447504 -8.35343e-20)
(14.0352 0.449121 -8.09367e-20)
(14.165 0.449432 -7.89873e-20)
(14.2613 0.448052 -1.52579e-19)
(14.331 0.448541 1.4892e-19)
(9.8191 0.357356 -1.2254e-19)
(11.3747 0.319431 -1.09856e-19)
(12.1313 0.379397 2.04011e-19)
(12.6411 0.366677 -4.83665e-19)
(13.0458 0.380008 1.85915e-19)
(13.3802 0.382912 0)
(13.6538 0.387307 8.61348e-20)
(13.8725 0.390013 8.35574e-20)
(14.0431 0.391604 -1.61806e-19)
(14.1729 0.392037 2.38137e-19)
(14.2694 0.390805 1.53536e-19)
(14.3392 0.391372 -1.51191e-19)
(9.81599 0.311195 0)
(11.3816 0.268036 0)
(12.1427 0.325086 1.02872e-19)
(12.6522 0.311061 0)
(13.0555 0.323925 -9.29015e-20)
(13.3884 0.325898 8.94934e-20)
(13.6609 0.329849 1.72126e-19)
(13.8791 0.332315 -2.52664e-19)
(14.0495 0.333885 0)
(14.1794 0.334502 -7.94817e-20)
(14.276 0.333648 7.66134e-20)
(14.3461 0.333489 -2.25084e-19)
(9.8113 0.264838 6.17453e-20)
(11.3864 0.216249 2.20472e-19)
(12.1518 0.270487 -3.09401e-19)
(12.6617 0.255345 0)
(13.0636 0.267657 4.63486e-20)
(13.395 0.268654 8.88501e-20)
(13.6665 0.272193 -3.46807e-19)
(13.8843 0.274415 4.2055e-19)
(14.0546 0.275938 -1.64417e-19)
(14.1846 0.276635 1.19377e-19)
(14.2814 0.275996 0)
(14.3518 0.27566 7.57729e-20)
(9.80481 0.218595 -6.17655e-20)
(11.3894 0.164399 0)
(12.1589 0.215815 -5.10651e-20)
(12.6693 0.1997 9.7863e-20)
(13.0701 0.211194 1.39311e-19)
(13.4 0.211137 -9.02201e-20)
(13.6707 0.214364 -4.34817e-20)
(13.888 0.216366 4.21997e-20)
(14.0582 0.217876 8.15701e-20)
(14.1883 0.218793 -1.20118e-19)
(14.2854 0.218793 -3.8911e-20)
(14.3564 0.217496 -3.75875e-20)
(9.79671 0.172419 -9.22901e-20)
(11.3904 0.112345 1.39275e-19)
(12.1641 0.161156 -7.7491e-20)
(12.6752 0.144069 1.21563e-19)
(13.0746 0.154376 -2.10039e-19)
(13.4035 0.153438 1.79918e-19)
(13.6733 0.156445 -6.57712e-20)
(13.8903 0.158164 4.18632e-20)
(14.0604 0.159604 -1.64351e-19)
(14.1907 0.160527 6.04128e-20)
(14.2881 0.160718 3.89403e-20)
(14.3591 0.159576 3.81129e-20)
(9.78712 0.126581 -9.27755e-20)
(11.3897 0.0601017 2.8082e-20)
(12.1674 0.106485 2.58582e-20)
(12.6794 0.0882804 -2.44051e-20)
(13.0775 0.0972969 -2.31642e-20)
(13.4054 0.0958505 4.52477e-20)
(13.6745 0.0983806 2.17819e-20)
(13.8911 0.0998333 0)
(14.0613 0.10125 0)
(14.1918 0.102325 2.00238e-20)
(14.2895 0.103053 0)
(14.3611 0.102135 0)
(9.77607 0.0808093 -1.55434e-20)
(11.3871 0.00763694 1.38725e-20)
(12.1692 0.0517786 7.13602e-22)
(12.6818 0.0324127 -1.2664e-20)
(13.079 0.040075 0)
(13.4058 0.038197 0)
(13.6742 0.0402111 1.15367e-20)
(13.8905 0.0413993 -2.11781e-20)
(14.0607 0.0427751 1.03526e-20)
(14.1915 0.043902 6.27126e-22)
(14.2896 0.04479 0)
(14.3614 0.0444171 0)
(9.7632 0.0352206 4.67022e-20)
(11.3824 -0.044914 2.77745e-20)
(12.1691 -0.00307738 -1.38505e-20)
(12.6823 -0.023496 3.82243e-22)
(13.0789 -0.0171669 -1.17062e-20)
(13.4047 -0.0195464 1.12792e-20)
(13.6724 -0.0180523 -1.16022e-20)
(13.8885 -0.0170982 -3.16882e-20)
(14.0587 -0.0157615 -1.00991e-20)
(14.1898 -0.0144771 9.51259e-21)
(14.2882 -0.0130889 -9.78209e-21)
(14.3607 -0.0128884 0)
(9.74882 -0.0100894 4.64537e-20)
(11.376 -0.0972462 -8.37583e-20)
(12.1672 -0.0579011 1.31309e-20)
(12.6813 -0.0794707 -2.42776e-20)
(13.0772 -0.0744267 3.55512e-20)
(13.4021 -0.0773312 3.40612e-20)
(13.6692 -0.0763713 1.09188e-20)
(13.8851 -0.075677 1.06003e-20)
(14.0554 -0.0744444 1.03114e-20)
(14.1867 -0.0732132 3.013e-20)
(14.2854 -0.0718857 -9.79003e-21)
(14.3575 -0.0707931 5.72814e-20)
(9.73303 -0.055331 -6.17929e-20)
(11.3676 -0.149558 -8.28392e-20)
(12.1636 -0.11271 1.30182e-19)
(12.6785 -0.135486 -2.44985e-20)
(13.0739 -0.131683 -1.16694e-19)
(13.398 -0.13514 1.80539e-19)
(13.6646 -0.1347 -4.41208e-20)
(13.8803 -0.134275 0)
(14.0508 -0.133165 4.12737e-20)
(14.1826 -0.131977 -2.0092e-20)
(14.282 -0.130923 1.95766e-20)
(14.3552 -0.128455 -1.91327e-20)
(9.71546 -0.100412 -1.25501e-19)
(11.3574 -0.201743 -5.53081e-22)
(12.1582 -0.167489 0)
(12.6741 -0.191512 -9.76278e-20)
(13.0692 -0.188883 9.41372e-20)
(13.3924 -0.192904 0)
(13.6585 -0.192972 -2.74411e-24)
(13.8741 -0.192773 0)
(14.0449 -0.191685 -4.12761e-20)
(14.1772 -0.190233 0)
(14.2773 -0.188826 0)
(14.3518 -0.186011 -7.50504e-20)
(9.69638 -0.14506 6.24925e-20)
(11.3455 -0.253566 5.52287e-20)
(12.151 -0.222177 -4.15616e-19)
(12.668 -0.247499 3.92299e-19)
(13.0628 -0.246024 -1.88258e-19)
(13.3854 -0.250618 0)
(13.651 -0.251169 -4.37001e-20)
(13.8665 -0.251199 0)
(14.0376 -0.250172 0)
(14.1703 -0.248606 0)
(14.2709 -0.247061 0)
(14.3457 -0.244405 -1.50768e-19)
(9.67595 -0.18946 1.24973e-19)
(11.3317 -0.305242 2.2349e-19)
(12.142 -0.276812 0)
(12.6603 -0.303425 2.93301e-19)
(13.0549 -0.303076 -9.4543e-20)
(13.3768 -0.308267 0)
(13.6421 -0.3093 -8.6529e-20)
(13.8575 -0.30958 8.65017e-20)
(14.0288 -0.308645 1.6589e-19)
(14.162 -0.306977 2.40265e-19)
(14.2631 -0.305048 -1.57454e-19)
(14.3384 -0.302832 7.54017e-20)
(9.65421 -0.233582 -5.00163e-19)
(11.3161 -0.356702 -1.1179e-19)
(12.1312 -0.331351 1.03934e-19)
(12.651 -0.359268 -8.29755e-23)
(13.0455 -0.360021 -9.36956e-20)
(13.3668 -0.365827 9.01487e-20)
(13.6317 -0.36735 8.64126e-20)
(13.8472 -0.367895 -2.55207e-19)
(14.0188 -0.367085 0)
(14.1524 -0.36545 -2.40173e-19)
(14.2541 -0.363444 3.13076e-19)
(14.3297 -0.361259 -3.06049e-19)
(9.63073 -0.277743 2.50089e-19)
(11.2988 -0.408197 2.22798e-19)
(12.1187 -0.38575 -2.08635e-19)
(12.64 -0.415001 -9.80423e-20)
(13.0344 -0.416846 1.86334e-19)
(13.3553 -0.423268 -9.18816e-20)
(13.6199 -0.425265 -8.81427e-20)
(13.8354 -0.426067 8.46586e-20)
(14.0074 -0.42536 0)
(14.1416 -0.423644 0)
(14.2439 -0.421253 0)
(14.3202 -0.418859 7.76246e-22)
(9.60574 -0.321279 -2.50025e-19)
(11.2795 -0.459125 0)
(12.1044 -0.439962 -1.43216e-22)
(12.6273 -0.470592 0)
(13.0219 -0.473516 9.3455e-20)
(13.3424 -0.480544 -3.58456e-19)
(13.6067 -0.483012 2.63105e-19)
(13.8223 -0.484072 -8.46826e-20)
(13.9947 -0.483482 0)
(14.1296 -0.481853 -3.19138e-19)
(14.2328 -0.479803 3.14245e-19)
(14.3099 -0.477554 -7.67014e-20)
(9.5794 -0.364846 -3.74843e-19)
(11.2585 -0.510055 2.23021e-19)
(12.0884 -0.493968 -3.11375e-19)
(12.613 -0.525996 1.95523e-19)
(13.0078 -0.530004 -2.8017e-19)
(13.3279 -0.537653 0)
(13.5921 -0.540558 0)
(13.8078 -0.541828 3.36407e-19)
(13.9806 -0.541222 -4.94984e-19)
(14.1161 -0.539207 -1.58723e-19)
(14.2203 -0.536237 1.57926e-19)
(14.2997 -0.534607 0)
(9.55127 -0.408011 0)
(11.2358 -0.56059 -1.30483e-21)
(12.0706 -0.547736 -2.08541e-19)
(12.5971 -0.58121 -1.65783e-21)
(12.9922 -0.586283 -1.8809e-19)
(13.312 -0.594549 5.3699e-19)
(13.5759 -0.597907 -3.49392e-19)
(13.7918 -0.599416 1.67278e-19)
(13.965 -0.598903 -1.65776e-19)
(14.1011 -0.596879 1.5818e-19)
(14.2057 -0.593648 -1.57381e-19)
(14.2855 -0.590163 2.99415e-19)
(9.52197 -0.450804 7.48449e-19)
(11.2114 -0.610756 2.23012e-19)
(12.0511 -0.601247 0)
(12.5795 -0.636211 3.90497e-19)
(12.975 -0.64237 3.70999e-19)
(13.2946 -0.651271 -1.82949e-19)
(13.5584 -0.655099 -3.48831e-19)
(13.7744 -0.65688 3.66597e-22)
(13.948 -0.656501 0)
(14.0846 -0.654553 0)
(14.19 -0.651244 0)
(14.2699 -0.647028 0)
(9.49137 -0.493371 -7.48277e-19)
(11.1852 -0.660739 -2.22239e-19)
(12.0298 -0.654591 0)
(12.5603 -0.691013 -1.95217e-19)
(12.9562 -0.698253 -1.85818e-19)
(13.2757 -0.707801 -1.77544e-19)
(13.5394 -0.712103 3.3904e-21)
(13.7556 -0.714177 8.41192e-19)
(13.9297 -0.713953 -3.29013e-19)
(14.0671 -0.712092 0)
(14.1733 -0.709069 3.09e-19)
(14.2538 -0.705073 -3.04354e-19)
(9.45899 -0.535723 -2.4941e-19)
(11.1572 -0.710477 1.3074e-21)
(12.0067 -0.707651 2.08187e-19)
(12.5394 -0.745582 0)
(12.936 -0.753888 1.70579e-21)
(13.2554 -0.764079 3.58569e-19)
(13.5191 -0.768854 -3.44084e-19)
(13.7355 -0.771205 5.05005e-19)
(13.9101 -0.771087 0)
(14.0483 -0.769121 0)
(14.1554 -0.765719 0)
(14.2371 -0.761927 4.47317e-19)
(9.42504 -0.577599 -9.94686e-19)
(11.1273 -0.759708 -6.645e-19)
(11.9819 -0.760336 6.20433e-19)
(12.5168 -0.799842 0)
(12.9142 -0.80924 -3.70693e-19)
(13.2336 -0.82008 -1.78542e-19)
(13.4974 -0.825317 0)
(13.714 -0.827952 3.32769e-19)
(13.8893 -0.827985 -3.27567e-19)
(14.0282 -0.826104 0)
(14.1362 -0.822853 0)
(14.2185 -0.818429 -1.50998e-19)
(9.38968 -0.619151 9.90735e-19)
(11.0959 -0.808588 -2.2388e-19)
(11.9553 -0.812685 -2.04398e-19)
(12.4927 -0.853777 1.95997e-19)
(12.8908 -0.864271 1.85241e-19)
(13.2104 -0.875759 -5.31589e-19)
(13.4742 -0.88146 3.45827e-19)
(13.6912 -0.884367 -3.34054e-19)
(13.867 -0.884515 -3.23388e-19)
(14.0068 -0.882536 3.18279e-19)
(14.1158 -0.878997 0)
(14.1995 -0.874483 -1.48597e-19)
(9.35285 -0.660205 4.92422e-19)
(11.0626 -0.856957 -6.65406e-19)
(11.927 -0.864658 -2.05798e-19)
(12.4669 -0.907373 1.15759e-18)
(12.8659 -0.91897 -7.41199e-19)
(13.1857 -0.931107 1.77711e-19)
(13.4496 -0.937269 6.83053e-19)
(13.667 -0.940453 -5.02766e-19)
(13.8434 -0.940723 1.61795e-19)
(13.984 -0.938763 0)
(14.094 -0.935276 0)
(14.1786 -0.930955 1.49795e-19)
(9.31501 -0.700846 -9.22297e-22)
(11.0276 -0.90486 0)
(11.897 -0.91629 6.11616e-19)
(12.4393 -0.96063 -9.69001e-19)
(12.8394 -0.973309 -7.32678e-19)
(13.1594 -0.986116 7.1097e-19)
(13.4235 -0.992723 5.10269e-19)
(13.6413 -0.996156 -8.33542e-19)
(13.8184 -0.996554 -1.61879e-19)
(13.9599 -0.994473 -7.83353e-19)
(14.0708 -0.990498 4.6373e-19)
(14.1569 -0.986755 0)
(9.27511 -0.741388 -2.47247e-19)
(10.9908 -0.952694 0)
(11.8651 -0.96758 1.01902e-18)
(12.4102 -1.01353 -1.54008e-18)
(12.8114 -1.02731 3.70915e-19)
(13.1317 -1.04075 -3.5204e-19)
(13.3961 -1.04782 1.70905e-19)
(13.6143 -1.05153 4.94333e-19)
(13.7921 -1.05209 -6.47526e-19)
(13.9343 -1.05014 1.57179e-19)
(14.0463 -1.04621 4.56271e-19)
(14.133 -1.04327 -5.97606e-19)
(9.2335 -0.781049 4.91144e-19)
(10.9522 -0.999634 4.37764e-19)
(11.8314 -1.01831 8.12031e-19)
(12.3793 -1.06596 -1.536e-18)
(12.7817 -1.08089 1.1016e-18)
(13.1025 -1.095 -3.47513e-19)
(13.3672 -1.10253 3.44021e-19)
(13.5858 -1.10652 3.30647e-19)
(13.7643 -1.10719 0)
(13.9076 -1.10517 0)
(14.0206 -1.10066 -3.0099e-19)
(14.1087 -1.09789 6.31106e-21)
(9.19097 -0.820294 -2.26749e-21)
(10.912 -1.04606 -2.00878e-21)
(11.796 -1.06858 0)
(12.3468 -1.11798 -3.80302e-19)
(12.7505 -1.13406 1.09616e-18)
(13.0718 -1.14883 -3.49589e-19)
(13.3368 -1.15683 -6.72553e-19)
(13.556 -1.16112 3.32821e-19)
(13.7352 -1.16192 3.17218e-19)
(13.8793 -1.16003 -9.36948e-19)
(13.9934 -1.15546 0)
(14.082 -1.15352 -2.95297e-19)
(9.14695 -0.859118 -2.38855e-21)
(10.8698 -1.09203 4.32279e-19)
(11.7588 -1.11845 -4.08691e-19)
(12.3126 -1.16955 -1.14202e-18)
(12.7177 -1.18681 -3.57687e-19)
(13.0396 -1.20227 1.3995e-18)
(13.305 -1.21071 1.64923e-21)
(13.5247 -1.21528 1.59974e-21)
(13.7046 -1.2162 3.19269e-19)
(13.8498 -1.21426 3.11024e-19)
(13.9649 -1.20914 0)
(14.0554 -1.20595 8.74276e-19)
(9.10147 -0.897582 -4.89075e-19)
(10.8263 -1.1376 -4.33353e-19)
(11.7198 -1.16778 -4.04896e-19)
(12.2767 -1.22065 -3.77831e-19)
(12.6833 -1.23909 7.27147e-19)
(13.0059 -1.25527 -1.04073e-18)
(13.2717 -1.26418 3.43457e-19)
(13.492 -1.26906 6.57079e-19)
(13.6727 -1.27014 0)
(13.8187 -1.26839 3.06517e-19)
(13.9349 -1.26355 -1.20381e-18)
(14.0255 -1.26055 5.91442e-19)
(9.05414 -0.935472 4.8346e-19)
(10.7805 -1.18263 -4.35824e-19)
(11.6791 -1.2167 -1.20218e-18)
(12.2391 -1.27131 3.4632e-21)
(12.6474 -1.29091 0)
(12.9707 -1.30778 -3.4535e-19)
(13.2371 -1.31718 -3.33719e-19)
(13.4579 -1.32238 3.25541e-19)
(13.6395 -1.32367 0)
(13.7866 -1.32201 3.08382e-19)
(13.904 -1.31732 5.96379e-19)
(13.9962 -1.31392 -6.40323e-21)
(9.00507 -0.972553 4.85975e-19)
(10.7331 -1.22673 0)
(11.6364 -1.26485 8.00467e-19)
(12.1997 -1.32133 -3.79601e-19)
(12.6098 -1.34217 -3.58108e-19)
(12.9339 -1.35975 1.03221e-18)
(13.2009 -1.36966 -9.98441e-19)
(13.4225 -1.37517 9.71832e-19)
(13.6049 -1.37661 0)
(13.7531 -1.37492 -3.03828e-19)
(13.8718 -1.36999 8.96995e-19)
(13.9654 -1.3663 2.88685e-19)
(8.95514 -1.00905 -9.65053e-19)
(10.6841 -1.2702 4.28193e-19)
(11.592 -1.31243 -3.56492e-21)
(12.1587 -1.37083 -7.54239e-19)
(12.5706 -1.39293 7.14869e-19)
(12.8957 -1.4112 0)
(13.1633 -1.42161 -3.30466e-19)
(13.3856 -1.42744 -3.22475e-19)
(13.569 -1.42909 0)
(13.7183 -1.42753 3.00429e-19)
(13.8382 -1.42284 -8.94041e-19)
(13.9331 -1.41931 -2.9003e-19)
(8.90394 -1.04517 0)
(10.6332 -1.31323 2.70789e-21)
(11.5459 -1.35952 1.18987e-18)
(12.116 -1.41978 -6.59787e-21)
(12.5298 -1.44314 -1.78007e-18)
(12.856 -1.46212 1.3659e-18)
(13.1243 -1.47301 -1.31732e-18)
(13.3473 -1.47915 6.42985e-19)
(13.5316 -1.48095 0)
(13.682 -1.47934 0)
(13.8033 -1.47425 -2.93199e-19)
(13.9004 -1.47052 5.72127e-19)
(8.8508 -1.08067 0)
(10.5805 -1.35558 2.84688e-21)
(11.4979 -1.40599 -1.18141e-18)
(12.0715 -1.46812 7.47614e-19)
(12.4874 -1.49273 0)
(12.8147 -1.51247 6.76329e-19)
(13.0838 -1.52385 -3.30166e-19)
(13.3076 -1.53029 0)
(13.4929 -1.53232 -6.15592e-19)
(13.6444 -1.53092 6.05621e-19)
(13.767 -1.52621 -2.94519e-19)
(13.8649 -1.52286 0)
(8.796 -1.11558 9.52989e-19)
(10.5262 -1.39734 4.25173e-19)
(11.448 -1.45173 7.86999e-19)
(12.0252 -1.51583 0)
(12.4433 -1.54171 7.01209e-19)
(12.7718 -1.56221 -3.43176e-19)
(13.0418 -1.57408 -6.55757e-19)
(13.2664 -1.58086 0)
(13.4528 -1.58306 3.06471e-19)
(13.6056 -1.58162 0)
(13.7296 -1.57659 0)
(13.8297 -1.57272 0)
(8.73953 -1.14965 4.71877e-19)
(10.4697 -1.43825 -8.47186e-19)
(11.3962 -1.49679 -3.92932e-19)
(11.9772 -1.56286 0)
(12.3975 -1.59005 6.97488e-19)
(12.7273 -1.61132 -3.38005e-19)
(12.9982 -1.62369 -6.45519e-19)
(13.2238 -1.63079 9.45431e-19)
(13.4112 -1.63319 -9.15083e-19)
(13.5653 -1.63192 8.95033e-19)
(13.6907 -1.62724 -8.66159e-19)
(13.7918 -1.62389 6.33335e-21)
(8.68171 -1.18288 1.88315e-18)
(10.4115 -1.47816 -4.24761e-19)
(11.3426 -1.54106 0)
(11.9273 -1.60916 1.09416e-18)
(12.3501 -1.63773 -6.27057e-21)
(12.6813 -1.65975 -6.71366e-19)
(12.9532 -1.67263 -3.21124e-19)
(13.1798 -1.68007 -2.38955e-21)
(13.3682 -1.68258 6.04476e-19)
(13.5236 -1.68124 -5.96887e-19)
(13.6506 -1.67606 1.14962e-18)
(13.7542 -1.67255 -1.11418e-18)
(8.62261 -1.21557 -9.38477e-19)
(10.3517 -1.51738 -4.18742e-19)
(11.287 -1.5846 -3.85546e-19)
(11.8757 -1.65474 -2.90758e-21)
(12.301 -1.6847 -3.44955e-19)
(12.6337 -1.70751 -6.61006e-19)
(12.9067 -1.72092 6.46297e-19)
(13.1342 -1.72872 -2.47955e-21)
(13.3238 -1.73146 0)
(13.4803 -1.73028 -8.79529e-19)
(13.6085 -1.72507 5.73238e-19)
(13.7129 -1.72082 0)
(8.56193 -1.24757 4.72716e-19)
(10.29 -1.55591 8.32987e-19)
(11.2297 -1.62738 1.15268e-18)
(11.8222 -1.69958 -1.09079e-18)
(12.2502 -1.73095 -3.39631e-19)
(12.5844 -1.75459 9.91258e-19)
(12.8586 -1.76858 3.19489e-19)
(13.0872 -1.77675 -3.09643e-19)
(13.2779 -1.77981 -1.19271e-18)
(13.4358 -1.77897 1.1729e-18)
(13.5654 -1.77433 -2.8533e-19)
(13.6707 -1.77011 -1.10781e-18)
(8.49953 -1.27882 -9.23907e-19)
(10.2264 -1.59363 1.6496e-18)
(11.1705 -1.6694 -3.86455e-19)
(11.767 -1.74367 3.58013e-19)
(12.1977 -1.77647 3.40396e-19)
(12.5337 -1.80092 -2.84083e-21)
(12.8091 -1.81549 9.43396e-19)
(13.0388 -1.82402 -1.23091e-18)
(13.2308 -1.82733 0)
(13.3902 -1.82662 2.88371e-19)
(13.5217 -1.82223 0)
(13.6293 -1.81835 2.74549e-19)
(8.43543 -1.30923 -1.83652e-18)
(10.1609 -1.63041 1.64514e-18)
(11.1092 -1.71053 -3.8161e-19)