/*--------------------------------*- C++ -*----------------------------------*\
| =========                 |                                                 |
| \\      /  F ield         | OpenFOAM: The Open Source CFD Toolbox           |
|  \\    /   O peration     | Version:  2.3.1                                 |
|   \\  /    A nd           | Web:      www.OpenFOAM.org                      |
|    \\/     M anipulation  |                                                 |
\*---------------------------------------------------------------------------*/
FoamFile
{
    version     2.0;
    format      ascii;
    class       volScalarField;
    location    "200";
    object      nuTilda;
}
// * * * * * * * * * * * * * * * * * * * * * * * * * * * * * * * * * * * * * //

dimensions      [0 2 -1 0 0 0 0];

internalField   nonuniform List<scalar> 
10720
(
0.0966949
0.101363
0.106682
0.112519
0.119178
0.12667
0.135131
0.144365
0.154329
0.164584
0.17464
0.183585
0.190832
0.196199
0.199681
0.201484
0.20182
0.200976
0.199071
0.196295
0.192623
0.188137
0.182873
0.177075
0.171171
0.165438
0.159851
0.154257
0.148551
0.142728
0.136782
0.130679
0.12438
0.117833
0.110845
0.103293
0.0940279
0.0837152
0.0603186
0.0922552
0.0875491
0.0824869
0.0764285
0.0694361
0.0609605
0.0502316
0.037749
0.0346314
0.032495
0.0394953
0.0460816
0.0513458
0.0558784
0.0601456
0.0643572
0.0685617
0.0727286
0.0768043
0.080757
0.0845784
0.0882759
0.0918648
0.0953369
0.0985085
0.101163
0.103271
0.104881
0.106045
0.106797
0.107183
0.10729
0.10718
0.106819
0.106115
0.105047
0.10317
0.100991
0.0918695
0.100348
0.0999633
0.0993052
0.0984021
0.0974406
0.0963608
0.0952558
0.0942316
0.0942557
0.0953151
0.0970837
0.0999375
0.103873
0.108728
0.11452
0.120966
0.127946
0.135195
0.142561
0.149685
0.156433
0.162395
0.167238
0.170531
0.171839
0.171245
0.169147
0.165879
0.161791
0.157167
0.152223
0.147113
0.141947
0.136824
0.131851
0.127125
0.122867
0.119031
0.113784
0.10074
0.100822
0.101036
0.100782
0.100273
0.0994575
0.0981725
0.0962384
0.0932984
0.0899213
0.0858158
0.0815446
0.0773561
0.0732911
0.0694572
0.0659091
0.0627191
0.0599125
0.0575104
0.0555028
0.0538836
0.0526332
0.0517284
0.051127
0.0508023
0.0507216
0.0508242
0.0510448
0.0513274
0.051683
0.052773
0.0551761
0.0584132
0.0617996
0.0649002
0.067683
0.0700419
0.0741396
0.0778114
0.121902
0.121729
0.121348
0.120759
0.120077
0.119195
0.118111
0.116889
0.115463
0.114041
0.112815
0.111882
0.111212
0.110783
0.110447
0.110253
0.110283
0.110593
0.110897
0.11048
0.110608
0.111469
0.112907
0.117741
0.124826
0.132238
0.139044
0.144817
0.149377
0.152666
0.154751
0.15579
0.155989
0.155552
0.154679
0.153414
0.152158
0.149467
0.149765
0.122074
0.122023
0.12203
0.121771
0.121322
0.120647
0.119667
0.118345
0.116706
0.114697
0.112323
0.109648
0.106725
0.103566
0.100263
0.0968555
0.0934097
0.0899719
0.0865958
0.0832958
0.0801007
0.0770077
0.0740215
0.0710519
0.0680492
0.0650765
0.0621744
0.0593848
0.0567387
0.0542718
0.0519804
0.0503797
0.0502717
0.0512795
0.0529624
0.0551257
0.0576969
0.0606024
0.0656384
0.129042
0.128935
0.128726
0.128413
0.128035
0.127549
0.12695
0.126259
0.125443
0.124511
0.123465
0.122307
0.121109
0.119976
0.118819
0.117285
0.11547
0.113498
0.111395
0.109135
0.106843
0.104674
0.10268
0.101357
0.101117
0.102057
0.104113
0.109909
0.117334
0.125253
0.133114
0.140528
0.147246
0.153174
0.15837
0.162863
0.167083
0.169472
0.172986
0.129124
0.129122
0.129109
0.128976
0.128743
0.128384
0.127861
0.127152
0.126244
0.125118
0.123765
0.1222
0.120432
0.118452
0.11629
0.113959
0.111487
0.1089
0.106234
0.103506
0.100743
0.0979527
0.0951337
0.0922025
0.0890944
0.0858556
0.0825158
0.0791114
0.0756749
0.0722386
0.0688306
0.0654871
0.0623154
0.0594706
0.0569171
0.0556418
0.0559812
0.0567446
0.0594495
0.132651
0.132577
0.132436
0.132234
0.131992
0.131679
0.131298
0.130855
0.130333
0.129735
0.129058
0.12829
0.127427
0.126464
0.125394
0.124201
0.122842
0.121286
0.119495
0.11746
0.115156
0.112619
0.109864
0.107128
0.104986
0.103334
0.101909
0.100544
0.100418
0.101748
0.107197
0.114881
0.12395
0.133841
0.144132
0.15455
0.165207
0.175467
0.1851
0.132706
0.132702
0.132695
0.132605
0.132457
0.132223
0.131888
0.131441
0.130874
0.130179
0.12935
0.128391
0.1273
0.126064
0.124696
0.12319
0.121554
0.119795
0.117928
0.115957
0.113895
0.111744
0.109496
0.107084
0.10445
0.101619
0.0986037
0.0954261
0.0921071
0.0886698
0.0851382
0.0815392
0.077895
0.0742441
0.0706027
0.0670418
0.0638645
0.0606022
0.0591656
0.134713
0.134659
0.134566
0.134429
0.134262
0.134048
0.133787
0.133484
0.133127
0.132718
0.132254
0.131726
0.13113
0.13046
0.129703
0.128851
0.127883
0.126779
0.125505
0.124037
0.122331
0.12036
0.118089
0.115553
0.112921
0.110314
0.107703
0.105351
0.103433
0.101595
0.100253
0.100341
0.104394
0.111717
0.12186
0.134601
0.149711
0.16777
0.186386
0.134748
0.134746
0.13474
0.134679
0.134579
0.134417
0.134184
0.133877
0.133493
0.133028
0.132477
0.131844
0.131126
0.130314
0.129412
0.128414
0.12732
0.126129
0.124847
0.12347
0.122002
0.120438
0.118766
0.116934
0.11489
0.112639
0.11018
0.107519
0.104661
0.101618
0.0983995
0.0950245
0.0915079
0.0878656
0.0841111
0.0802038
0.0761582
0.0716611
0.0648281
0.136029
0.13599
0.135921
0.135821
0.1357
0.135546
0.135357
0.135139
0.134883
0.134589
0.134256
0.133876
0.133448
0.132966
0.132419
0.131802
0.1311
0.1303
0.129379
0.128318
0.127086
0.125658
0.123999
0.122092
0.119966
0.117652
0.11515
0.112525
0.109881
0.107152
0.104747
0.102612
0.100843
0.100657
0.104959
0.113899
0.127926
0.149681
0.177426
0.136054
0.136052
0.136046
0.136001
0.13593
0.135811
0.135639
0.135414
0.135138
0.134807
0.134418
0.133975
0.133475
0.132914
0.13229
0.1316
0.130841
0.130012
0.129113
0.12814
0.127092
0.125962
0.124737
0.123379
0.121843
0.120124
0.118213
0.116105
0.113793
0.111274
0.108547
0.105617
0.102487
0.0991635
0.0956467
0.0919011
0.0878221
0.0834108
0.0746113
0.136933
0.136903
0.136852
0.136778
0.136687
0.136571
0.136429
0.136265
0.136073
0.135852
0.135603
0.135319
0.134999
0.134637
0.134226
0.133762
0.133234
0.132632
0.131941
0.131146
0.130227
0.129167
0.127943
0.126538
0.124958
0.123193
0.121214
0.119002
0.116561
0.1139
0.111121
0.108267
0.105466
0.102998
0.101248
0.102089
0.109501
0.127728
0.160496
0.136951
0.136948
0.136942
0.136907
0.136854
0.136764
0.136631
0.13646
0.136251
0.136004
0.135717
0.135392
0.135029
0.134624
0.134175
0.133679
0.133134
0.132537
0.131888
0.131182
0.130417
0.129587
0.128681
0.127669
0.126516
0.125215
0.123755
0.122123
0.120308
0.118298
0.116083
0.113655
0.111009
0.108138
0.105029
0.101651
0.0978416
0.0938042
0.0849568
0.137588
0.137565
0.137526
0.137468
0.137397
0.137306
0.137195
0.137068
0.136919
0.136749
0.136557
0.136339
0.136093
0.135816
0.135502
0.135147
0.134743
0.134283
0.133755
0.133148
0.132445
0.131634
0.130698
0.129629
0.128428
0.127085
0.125567
0.123849
0.121901
0.119696
0.117217
0.114473
0.111519
0.10839
0.105376
0.102605
0.101625
0.110087
0.140265
0.137601
0.137597
0.137591
0.137562
0.137522
0.137451
0.137346
0.13721
0.137047
0.136856
0.136636
0.13639
0.136116
0.135813
0.135479
0.135111
0.134708
0.134267
0.133785
0.13326
0.132689
0.132066
0.131382
0.130615
0.129739
0.128747
0.127627
0.126367
0.124954
0.123372
0.121607
0.119647
0.117478
0.115083
0.11244
0.109517
0.106127
0.102545
0.0943887
0.138082
0.138064
0.138033
0.137987
0.137929
0.137857
0.137769
0.137667
0.137548
0.137413
0.137261
0.137088
0.136894
0.136676
0.136428
0.136148
0.135829
0.135466
0.135052
0.134577
0.134029
0.133398
0.132672
0.131842
0.13091
0.129868
0.128689
0.127351
0.125824
0.12408
0.122081
0.119788
0.117174
0.114203
0.11096
0.107308
0.103938
0.101855
0.122494
0.138091
0.138087
0.13808
0.138055
0.138023
0.137967
0.137882
0.137772
0.137641
0.137489
0.137316
0.137123
0.136911
0.136677
0.136422
0.136142
0.135836
0.135501
0.135135
0.134736
0.134301
0.133824
0.133299
0.132707
0.132032
0.131264
0.130394
0.129413
0.128307
0.127063
0.125665
0.124097
0.122344
0.120385
0.118192
0.115732
0.112814
0.109721
0.102522
0.138467
0.138452
0.138427
0.138389
0.138342
0.138282
0.138209
0.138126
0.138029
0.137919
0.137796
0.137657
0.137501
0.137325
0.137127
0.136904
0.13665
0.136362
0.136032
0.135654
0.135217
0.134716
0.134139
0.133482
0.132745
0.13192
0.130987
0.129929
0.128721
0.127337
0.125741
0.123896
0.121754
0.119245
0.116321
0.11279
0.108945
0.102992
0.11176
0.138474
0.138468
0.13846
0.138439
0.138413
0.138367
0.138296
0.138206
0.138099
0.137975
0.137835
0.137681
0.137512
0.137328
0.137128
0.136911
0.136673
0.136413
0.13613
0.135821
0.135483
0.135111
0.134701
0.134238
0.133708
0.133105
0.132421
0.131648
0.130774
0.129787
0.128675
0.127422
0.12601
0.12442
0.122622
0.120586
0.118126
0.115516
0.109342
0.138774
0.138762
0.13874
0.138708
0.138669
0.138618
0.138557
0.138488
0.138407
0.138316
0.138214
0.1381
0.137972
0.137828
0.137666
0.137484
0.137278
0.137043
0.136775
0.13647
0.136118
0.135715
0.135252
0.134725
0.134133
0.133471
0.132722
0.131872
0.130903
0.129792
0.128511
0.127025
0.125287
0.123237
0.120803
0.117745
0.114199
0.108084
0.107973
0.138779
0.138773
0.138764
0.138744
0.138723
0.138685
0.138626
0.13855
0.13846
0.138358
0.138243
0.138117
0.137981
0.137833
0.137673
0.1375
0.137312
0.137108
0.136884
0.136641
0.136374
0.13608
0.135755
0.135387
0.134965
0.134485
0.133941
0.133324
0.132626
0.131836
0.130943
0.129935
0.128795
0.127505
0.126037
0.124362
0.122315
0.120143
0.114962
0.139023
0.139013
0.138995
0.138968
0.138933
0.13889
0.138838
0.138778
0.13871
0.138633
0.138548
0.138452
0.138346
0.138227
0.138093
0.137942
0.137772
0.137579
0.137359
0.137108
0.13682
0.136491
0.136113
0.135685
0.135205
0.134668
0.13406
0.133369
0.132582
0.131679
0.130638
0.129431
0.128019
0.126346
0.124347
0.12181
0.118794
0.113502
0.108666
0.139028
0.139021
0.139011
0.138993
0.138975
0.138943
0.138893
0.138828
0.138753
0.138667
0.13857
0.138466
0.138354
0.138233
0.138104
0.137964
0.137813
0.137649
0.137471
0.137276
0.137062
0.136827
0.136565
0.136269
0.135929
0.135543
0.135104
0.134607
0.134043
0.133405
0.132682
0.131864
0.130937
0.129886
0.128684
0.127308
0.125613
0.123816
0.119533
0.13923
0.139222
0.139205
0.139181
0.139151
0.139112
0.139067
0.139016
0.138957
0.138892
0.138819
0.138738
0.138648
0.138548
0.138436
0.13831
0.138168
0.138007
0.137824
0.137615
0.137377
0.137105
0.136794
0.136442
0.136048
0.135607
0.135109
0.134542
0.133896
0.133154
0.1323
0.13131
0.130153
0.12878
0.127138
0.125053
0.122511
0.118381
0.111862
0.139234
0.139227
0.139216
0.139199
0.139184
0.139157
0.139114
0.139058
0.138993
0.13892
0.138838
0.138751
0.138657
0.138557
0.13845
0.138336
0.138213
0.13808
0.137935
0.137777
0.137604
0.137414
0.137201
0.136959
0.136683
0.136368
0.136011
0.135606
0.135147
0.134626
0.134036
0.133367
0.132608
0.131745
0.130757
0.129623
0.128219
0.126731
0.123224
0.139404
0.139396
0.139381
0.139359
0.139331
0.139297
0.139257
0.139212
0.139162
0.139105
0.139043
0.138974
0.138897
0.138812
0.138717
0.13861
0.13849
0.138355
0.138201
0.138026
0.137827
0.137599
0.13734
0.137048
0.136721
0.136356
0.135943
0.135474
0.134939
0.134326
0.133619
0.132799
0.131842
0.130708
0.12935
0.127639
0.125476
0.122367
0.115868
0.139407
0.1394
0.139389
0.139372
0.139359
0.139336
0.139298
0.13925
0.139194
0.139131
0.139061
0.138986
0.138907
0.138823
0.138734
0.13864
0.138538
0.138429
0.13831
0.138181
0.138039
0.137883
0.137708
0.13751
0.137282
0.137024
0.13673
0.136397
0.136019
0.135591
0.135106
0.134555
0.133928
0.133216
0.132398
0.131458
0.130293
0.129055
0.126197
0.139551
0.139544
0.139529
0.139508
0.139483
0.139453
0.139417
0.139378
0.139333
0.139284
0.13923
0.139171
0.139105
0.139032
0.138951
0.13886
0.138758
0.138642
0.138512
0.138364
0.138195
0.138003
0.137786
0.137541
0.137268
0.136962
0.136618
0.136226
0.13578
0.135268
0.134679
0.133996
0.133197
0.132253
0.13112
0.129711
0.12787
0.125497
0.119754
0.139554
0.139547
0.139536
0.139518
0.139507
0.139487
0.139455
0.139412
0.139364
0.139309
0.139248
0.139184
0.139117
0.139045
0.13897
0.138891
0.138806
0.138715
0.138617
0.13851
0.138393
0.138264
0.138119
0.137954
0.137766
0.137552
0.137308
0.137032
0.13672
0.136365
0.135962
0.135505
0.134985
0.134393
0.133712
0.132929
0.131958
0.130923
0.128594
0.139678
0.13967
0.139655
0.139636
0.139613
0.139585
0.139553
0.139518
0.139479
0.139436
0.139389
0.139338
0.139281
0.139218
0.139148
0.13907
0.138982
0.138883
0.138772
0.138645
0.138502
0.138339
0.138154
0.137947
0.137717
0.13746
0.13717
0.13684
0.136465
0.136036
0.135541
0.134967
0.134298
0.133506
0.132555
0.131384
0.129823
0.127946
0.123144
0.13968
0.139674
0.139662
0.139645
0.139635
0.139617
0.139589
0.139551
0.139509
0.13946
0.139408
0.139352
0.139294
0.139233
0.139169
0.139102
0.13903
0.138954
0.138872
0.138782
0.138685
0.138577
0.138456
0.138319
0.138161
0.137982
0.137779
0.137549
0.137288
0.136992
0.136656
0.136275
0.13584
0.135346
0.134776
0.13412
0.133307
0.132437
0.130536
0.139787
0.139779
0.139764
0.139745
0.139724
0.139699
0.13967
0.139639
0.139604
0.139567
0.139526
0.139481
0.139431
0.139377
0.139316
0.139249
0.139173
0.139088
0.138992
0.138883
0.13876
0.13862
0.138463
0.138287
0.138091
0.137873
0.137627
0.137348
0.13703
0.136667
0.136249
0.135765
0.1352
0.134532
0.13373
0.132749
0.131428
0.129894
0.125969
0.139789
0.139783
0.139771
0.139754
0.139745
0.139729
0.139704
0.139672
0.139634
0.139591
0.139544
0.139496
0.139445
0.139392
0.139337
0.13928
0.139219
0.139155
0.139085
0.13901
0.138928
0.138838
0.138736
0.138621
0.138488
0.138338
0.138167
0.137974
0.137755
0.137507
0.137225
0.136904
0.13654
0.136124
0.135645
0.135093
0.13441
0.133674
0.132118
0.139881
0.139873
0.139858
0.13984
0.13982
0.139797
0.139771
0.139743
0.139713
0.13968
0.139644
0.139605
0.139562
0.139515
0.139462
0.139404
0.139338
0.139264
0.139181
0.139087
0.138981
0.13886
0.138725
0.138574
0.138406
0.13822
0.13801
0.137772
0.137502
0.137193
0.136837
0.136426
0.135947
0.135381
0.134701
0.133873
0.132756
0.131475
0.128283
0.139884
0.139879
0.139866
0.139849
0.139841
0.139827
0.139805
0.139776
0.139742
0.139704
0.139663
0.13962
0.139575
0.139529
0.139482
0.139432
0.13938
0.139325
0.139266
0.139203
0.139133
0.139057
0.138971
0.138873
0.138762
0.138634
0.13849
0.138327
0.138143
0.137933
0.137695
0.137425
0.137117
0.136766
0.136361
0.135895
0.135318
0.134693
0.133416
0.139964
0.139954
0.139939
0.139922
0.139904
0.139883
0.13986
0.139835
0.139808
0.13978
0.139748
0.139714
0.139677
0.139636
0.13959
0.139539
0.139482
0.139418
0.139346
0.139264
0.139172
0.139067
0.13895
0.138819
0.138675
0.138515
0.138335
0.138131
0.137899
0.137635
0.137331
0.13698
0.136571
0.136089
0.13551
0.134806
0.133862
0.132777
0.130176
0.139967
0.139963
0.13995
0.139933
0.139925
0.139913
0.139894
0.139868
0.139837
0.139803
0.139766
0.139728
0.139688
0.139648
0.139606
0.139564
0.139519
0.139472
0.139422
0.139367
0.139308
0.139243
0.13917
0.139087
0.138992
0.138884
0.138762
0.138624
0.138467
0.138289
0.138088
0.137858
0.137598
0.1373
0.136957
0.136561
0.136072
0.13554
0.134488
0.140036
0.140026
0.140011
0.139995
0.139978
0.139958
0.139938
0.139916
0.139893
0.139868
0.139841
0.139812
0.13978
0.139744
0.139704
0.13966
0.13961
0.139554
0.13949
0.139419
0.139338
0.139247
0.139145
0.139032
0.138907
0.138769
0.138613
0.138437
0.138238
0.13801
0.137749
0.137447
0.137096
0.136684
0.136189
0.135589
0.134788
0.133863
0.131731
0.140041
0.140037
0.140024
0.140007
0.14
0.139989
0.139972
0.139948
0.139921
0.13989
0.139856
0.139822
0.139787
0.139751
0.139715
0.139678
0.139639
0.139598
0.139555
0.139509
0.139459
0.139403
0.139341
0.13927
0.139189
0.139097
0.138993
0.138875
0.138741
0.13859
0.138418
0.138223
0.138001
0.137748
0.137456
0.137118
0.136703
0.136248
0.135377
0.140099
0.140089
0.140074
0.140059
0.140043
0.140026
0.140008
0.139989
0.139969
0.139948
0.139925
0.1399
0.139872
0.139841
0.139806
0.139767
0.139723
0.139674
0.139618
0.139556
0.139485
0.139405
0.139316
0.139217
0.139109
0.138989
0.138854
0.138701
0.138528
0.138331
0.138106
0.137845
0.137543
0.137188
0.136763
0.136249
0.135567
0.134775
0.133031
0.140105
0.140103
0.14009
0.140072
0.140066
0.140057
0.140041
0.14002
0.139994
0.139966
0.139936
0.139905
0.139874
0.139842
0.13981
0.139778
0.139744
0.139709
0.139672
0.139632
0.139589
0.139541
0.139488
0.139427
0.139358
0.139279
0.13919
0.139089
0.138975
0.138846
0.138699
0.138532
0.138343
0.138126
0.137877
0.137588
0.137235
0.136843
0.136121
0.140156
0.140144
0.14013
0.140115
0.140101
0.140086
0.140071
0.140055
0.140039
0.140021
0.140001
0.139979
0.139955
0.139928
0.139897
0.139863
0.139824
0.139781
0.139731
0.139676
0.139614
0.139544
0.139466
0.13938
0.139285
0.13918
0.139063
0.13893
0.13878
0.138609
0.138413
0.138188
0.137926
0.137619
0.137253
0.13681
0.136228
0.135543
0.134143
0.140163
0.140161
0.140149
0.140131
0.140125
0.140117
0.140103
0.140083
0.14006
0.140034
0.140006
0.139978
0.13995
0.139922
0.139894
0.139866
0.139836
0.139806
0.139774
0.13974
0.139702
0.139662
0.139616
0.139564
0.139504
0.139436
0.13936
0.139273
0.139176
0.139065
0.138939
0.138796
0.138634
0.138448
0.138234
0.137987
0.137685
0.137347
0.136745
0.140205
0.140193
0.140179
0.140166
0.140153
0.140141
0.140128
0.140116
0.140103
0.140088
0.140071
0.140052
0.14003
0.140006
0.139979
0.139948
0.139914
0.139876
0.139832
0.139784
0.139729
0.139667
0.139598
0.139523
0.13944
0.139348
0.139246
0.13913
0.138999
0.13885
0.138679
0.138483
0.138256
0.13799
0.137673
0.13729
0.136793
0.136195
0.135079
0.140214
0.140213
0.140202
0.140183
0.140177
0.140171
0.140158
0.14014
0.140118
0.140094
0.140069
0.140043
0.140018
0.139993
0.139969
0.139944
0.139918
0.139892
0.139864
0.139835
0.139802
0.139767
0.139728
0.139683
0.139631
0.139573
0.139507
0.139433
0.139349
0.139253
0.139145
0.139023
0.138883
0.138723
0.13854
0.138327
0.138068
0.137777
0.137273
0.140249
0.140237
0.140224
0.140212
0.140201
0.140191
0.140182
0.140172
0.140161
0.140148
0.140134
0.140117
0.140098
0.140077
0.140053
0.140026
0.139995
0.139961
0.139923
0.13988
0.139831
0.139776
0.139716
0.139649
0.139577
0.139496
0.139406
0.139305
0.13919
0.13906
0.138911
0.13874
0.138543
0.138311
0.138036
0.137704
0.137278
0.136752
0.135858
0.140259
0.14026
0.140249
0.14023
0.140225
0.140219
0.140208
0.14019
0.14017
0.140147
0.140124
0.140101
0.140079
0.140057
0.140035
0.140014
0.139991
0.139968
0.139944
0.139919
0.139891
0.139861
0.139827
0.139788
0.139743
0.139693
0.139636
0.139572
0.139499
0.139417
0.139324
0.139218
0.139098
0.138961
0.138802
0.138619
0.138397
0.138146
0.137721
0.140289
0.140277
0.140264
0.140253
0.140245
0.140238
0.140231
0.140224
0.140215
0.140204
0.140191
0.140176
0.14016
0.140141
0.14012
0.140096
0.140069
0.140039
0.140005
0.139967
0.139923
0.139875
0.139821
0.139762
0.139698
0.139628
0.139548
0.139459
0.139359
0.139244
0.139114
0.138965
0.138792
0.138591
0.138351
0.138062
0.137696
0.137235
0.136508
0.140299
0.140302
0.140292
0.140272
0.140268
0.140263
0.140252
0.140236
0.140216
0.140195
0.140174
0.140154
0.140134
0.140115
0.140095
0.140076
0.140057
0.140037
0.140016
0.139994
0.13997
0.139944
0.139914
0.139881
0.139842
0.139798
0.139749
0.139694
0.139631
0.13956
0.13948
0.139389
0.139285
0.139166
0.13903
0.138872
0.13868
0.138463
0.138105
0.140324
0.140312
0.1403
0.140291
0.140286
0.140282
0.140277
0.140272
0.140264
0.140254
0.140243
0.140231
0.140216
0.1402
0.140181
0.14016
0.140137
0.14011
0.14008
0.140046
0.140007
0.139964
0.139917
0.139865
0.139808
0.139745
0.139675
0.139597
0.139508
0.139408
0.139293
0.139162
0.139011
0.138835
0.138626
0.138374
0.138064
0.137657
0.137057
0.140335
0.14034
0.14033
0.14031
0.140307
0.140303
0.140292
0.140276
0.140258
0.140238
0.140219
0.140201
0.140184
0.140167
0.14015
0.140133
0.140116
0.140099
0.140081
0.140062
0.140041
0.140018
0.139993
0.139963
0.13993
0.139892
0.13985
0.139802
0.139748
0.139687
0.139618
0.139539
0.13945
0.139347
0.139229
0.139092
0.138927
0.138739
0.138436
0.140355
0.140344
0.140333
0.140327
0.140324
0.140323
0.14032
0.140315
0.140309
0.140301
0.140292
0.140281
0.140269
0.140255
0.140239
0.14022
0.140199
0.140176
0.140149
0.140119
0.140084
0.140046
0.140004
0.139957
0.139907
0.139852
0.13979
0.13972
0.139642
0.139553
0.139452
0.139337
0.139204
0.139049
0.138867
0.138645
0.138393
0.138033
0.137529
0.140367
0.140374
0.140365
0.140345
0.140342
0.140339
0.140328
0.140312
0.140295
0.140277
0.14026
0.140244
0.140229
0.140214
0.140199
0.140185
0.14017
0.140155
0.140139
0.140123
0.140105
0.140085
0.140063
0.140038
0.14001
0.139977
0.139941
0.1399
0.139854
0.139802
0.139743
0.139675
0.139598
0.13951
0.139408
0.139289
0.139146
0.138982
0.138723
0.140384
0.140373
0.140363
0.14036
0.140361
0.140361
0.140358
0.140355
0.14035
0.140344
0.140337
0.140328
0.140318
0.140306
0.140292
0.140276
0.140257
0.140236
0.140212
0.140185
0.140155
0.140121
0.140083
0.140042
0.139997
0.139948
0.139893
0.139831
0.139762
0.139683
0.139594
0.139492
0.139375
0.139239
0.139084
0.138889
0.138686
0.138371
0.137942
0.140395
0.140405
0.140396
0.140376
0.140374
0.140371
0.140361
0.140345
0.140328
0.140313
0.140298
0.140284
0.14027
0.140257
0.140245
0.140232
0.140219
0.140206
0.140193
0.140178
0.140163
0.140147
0.140128
0.140107
0.140083
0.140057
0.140027
0.139993
0.139955
0.139912
0.139862
0.139804
0.139738
0.139662
0.139573
0.13947
0.139345
0.139202
0.138978
0.14041
0.1404
0.140391
0.140392
0.140395
0.140395
0.140394
0.140392
0.140389
0.140385
0.140379
0.140372
0.140364
0.140353
0.140341
0.140327
0.140311
0.140293
0.140271
0.140247
0.14022
0.14019
0.140156
0.140119
0.140079
0.140036
0.139987
0.139932
0.13987
0.1398
0.139722
0.139632
0.139531
0.139416
0.139287
0.139123
0.138952
0.138674
0.138307
0.140421
0.140432
0.140424
0.140404
0.140403
0.140401
0.14039
0.140374
0.140359
0.140345
0.140332
0.14032
0.140309
0.140297
0.140286
0.140275
0.140264
0.140253
0.140242
0.14023
0.140218
0.140205
0.14019
0.140174
0.140156
0.140136
0.140114
0.140087
0.140057
0.140021
0.139979
0.139931
0.139874
0.139809
0.139732
0.139641
0.139532
0.139405
0.139211
0.140434
0.140424
0.140417
0.140423
0.140426
0.140426
0.140427
0.140426
0.140425
0.140423
0.140419
0.140413
0.140406
0.140398
0.140388
0.140376
0.140362
0.140346
0.140327
0.140306
0.140282
0.140255
0.140224
0.140191
0.140156
0.140117
0.140073
0.140024
0.139969
0.139907
0.139839
0.139763
0.13968
0.139584
0.139477
0.139341
0.139195
0.138949
0.138632
0.140443
0.140455
0.140449
0.140429
0.140429
0.140427
0.140415
0.1404
0.140387
0.140375
0.140364
0.140354
0.140344
0.140334
0.140325
0.140316
0.140307
0.140298
0.14029
0.140281
0.140272
0.140262
0.140253
0.140244
0.140234
0.140221
0.140204
0.140185
0.140161
0.140133
0.140099
0.140058
0.14001
0.139954
0.139887
0.139808
0.139711
0.1396
0.139427
0.140455
0.140445
0.140441
0.140451
0.140453
0.140453
0.140456
0.140457
0.140457
0.140456
0.140454
0.14045
0.140445
0.140439
0.140431
0.140422
0.14041
0.140397
0.140382
0.140364
0.140343
0.140319
0.140292
0.140262
0.14023
0.140194
0.140155
0.140111
0.140063
0.140011
0.139954
0.139892
0.139822
0.139742
0.139652
0.139538
0.139414
0.139205
0.138927
0.140462
0.140471
0.140467
0.140451
0.140451
0.140449
0.140438
0.140424
0.140412
0.140403
0.140394
0.140385
0.140377
0.140369
0.140362
0.140355
0.140349
0.140342
0.140337
0.140331
0.140326
0.140323
0.140321
0.140319
0.140314
0.140306
0.140295
0.140281
0.140265
0.140244
0.140218
0.140186
0.140146
0.140098
0.14004
0.139971
0.139886
0.139786
0.139641
0.140472
0.140464
0.140463
0.140472
0.140474
0.140475
0.140478
0.140479
0.14048
0.140481
0.14048
0.140479
0.140476
0.140473
0.140469
0.140463
0.140456
0.140447
0.140437
0.140424
0.140409
0.140392
0.140371
0.140347
0.14032
0.140288
0.140253
0.140215
0.140172
0.140126
0.140075
0.14002
0.139959
0.13989
0.139812
0.139715
0.139608
0.139437
0.139197
0.140476
0.140481
0.140478
0.140468
0.140467
0.140465
0.140456
0.140444
0.140435
0.140428
0.14042
0.140413
0.140407
0.140402
0.140397
0.140393
0.140389
0.140386
0.140383
0.140381
0.14038
0.140381
0.140381
0.140382
0.140379
0.140375
0.140368
0.14036
0.14035
0.140338
0.140322
0.140301
0.140274
0.140239
0.140193
0.140133
0.14006
0.139967
0.139855
0.140483
0.140479
0.140479
0.140485
0.140486
0.140488
0.14049
0.140492
0.140494
0.140495
0.140495
0.140496
0.140495
0.140494
0.140492
0.14049
0.140487
0.140483
0.140478
0.140471
0.140463
0.140454
0.140442
0.140427
0.140409
0.140388
0.140361
0.14033
0.140294
0.140253
0.140206
0.140155
0.140097
0.140033
0.139961
0.139876
0.139782
0.139642
0.13944
0.140485
0.140487
0.140485
0.140478
0.140476
0.140473
0.140468
0.14046
0.140454
0.140449
0.140443
0.140438
0.140434
0.140431
0.140429
0.140426
0.140425
0.140423
0.140422
0.140421
0.140421
0.140421
0.140421
0.140421
0.140419
0.140416
0.140412
0.140407
0.140401
0.140394
0.140385
0.140374
0.14036
0.14034
0.140314
0.140275
0.140222
0.14014
0.140054
0.140489
0.140487
0.140488
0.140492
0.140494
0.140496
0.140498
0.140501
0.140503
0.140504
0.140506
0.140507
0.140507
0.140508
0.140507
0.140507
0.140505
0.140504
0.140501
0.140498
0.140494
0.140489
0.140483
0.140475
0.140466
0.140454
0.140439
0.14042
0.140397
0.140367
0.14033
0.140287
0.140235
0.140176
0.140108
0.140029
0.139942
0.139822
0.139654
0.14049
0.140491
0.140489
0.140483
0.140481
0.140478
0.140474
0.140468
0.140464
0.140461
0.140457
0.140454
0.140452
0.14045
0.140449
0.140447
0.140446
0.140445
0.140445
0.140444
0.140443
0.140443
0.140443
0.140443
0.140442
0.14044
0.140438
0.140435
0.140432
0.140428
0.140424
0.140417
0.140409
0.140399
0.140385
0.140364
0.140338
0.14028
0.14022
0.140493
0.140492
0.140493
0.140496
0.140498
0.140501
0.140504
0.140506
0.140509
0.140511
0.140513
0.140515
0.140516
0.140517
0.140518
0.140518
0.140518
0.140518
0.140517
0.140515
0.140513
0.140511
0.140507
0.140503
0.140498
0.140492
0.140484
0.140475
0.140462
0.140445
0.140423
0.140394
0.140356
0.140308
0.140249
0.140177
0.140095
0.139988
0.139843
0.140493
0.140493
0.140491
0.140487
0.140484
0.140481
0.140477
0.140473
0.140469
0.140467
0.140465
0.140463
0.140462
0.14046
0.14046
0.140459
0.140458
0.140458
0.140457
0.140457
0.140457
0.140457
0.140457
0.140457
0.140457
0.140456
0.140455
0.140454
0.140453
0.140451
0.140448
0.140445
0.140441
0.140435
0.140428
0.140416
0.140403
0.140373
0.140339
0.140495
0.140495
0.140496
0.140499
0.140502
0.140504
0.140508
0.14051
0.140513
0.140516
0.140518
0.14052
0.140522
0.140524
0.140525
0.140527
0.140527
0.140528
0.140528
0.140528
0.140527
0.140526
0.140525
0.140523
0.14052
0.140516
0.140512
0.140506
0.1405
0.140491
0.14048
0.140464
0.140442
0.140411
0.140369
0.140312
0.140241
0.140144
0.140017
0.140494
0.140494
0.140492
0.140488
0.140485
0.140482
0.140479
0.140475
0.140472
0.14047
0.140469
0.140468
0.140467
0.140466
0.140466
0.140466
0.140465
0.140465
0.140465
0.140465
0.140465
0.140466
0.140466
0.140467
0.140467
0.140467
0.140467
0.140467
0.140466
0.140466
0.140465
0.140464
0.140462
0.140459
0.140455
0.140449
0.140442
0.140427
0.140411
0.140495
0.140496
0.140497
0.140501
0.140504
0.140507
0.14051
0.140513
0.140516
0.140519
0.140522
0.140525
0.140527
0.140529
0.140531
0.140533
0.140535
0.140536
0.140537
0.140538
0.140538
0.140538
0.140538
0.140537
0.140536
0.140534
0.140531
0.140528
0.140524
0.140519
0.140513
0.140505
0.140494
0.140478
0.140454
0.140417
0.140365
0.140286
0.140177
0.140495
0.140494
0.140492
0.140488
0.140485
0.140482
0.140479
0.140476
0.140473
0.140472
0.140471
0.14047
0.14047
0.14047
0.14047
0.14047
0.14047
0.14047
0.14047
0.140471
0.140471
0.140472
0.140472
0.140473
0.140474
0.140474
0.140475
0.140476
0.140476
0.140476
0.140477
0.140477
0.140476
0.140476
0.140474
0.140471
0.140468
0.14046
0.140453
0.140495
0.140496
0.140498
0.140501
0.140505
0.140508
0.140512
0.140515
0.140519
0.140522
0.140525
0.140528
0.140531
0.140533
0.140536
0.140538
0.14054
0.140542
0.140544
0.140545
0.140547
0.140548
0.140548
0.140548
0.140548
0.140547
0.140546
0.140545
0.140542
0.14054
0.140536
0.140531
0.140526
0.140518
0.140506
0.140487
0.140457
0.140402
0.140319
0.140494
0.140494
0.140492
0.140488
0.140485
0.140481
0.140478
0.140475
0.140473
0.140472
0.140472
0.140471
0.140471
0.140471
0.140472
0.140472
0.140472
0.140473
0.140473
0.140474
0.140474
0.140475
0.140476
0.140477
0.140478
0.140479
0.14048
0.140481
0.140482
0.140484
0.140485
0.140486
0.140486
0.140487
0.140487
0.140487
0.140486
0.140482
0.14048
0.140495
0.140496
0.140498
0.140501
0.140505
0.140508
0.140512
0.140516
0.14052
0.140524
0.140527
0.14053
0.140534
0.140537
0.140539
0.140542
0.140545
0.140547
0.14055
0.140552
0.140553
0.140555
0.140556
0.140557
0.140558
0.140558
0.140558
0.140558
0.140557
0.140556
0.140554
0.140551
0.140548
0.140544
0.140538
0.140529
0.140516
0.140485
0.140431
0.140493
0.140492
0.14049
0.140487
0.140483
0.14048
0.140477
0.140474
0.140472
0.140471
0.140471
0.140471
0.140471
0.140472
0.140472
0.140473
0.140473
0.140474
0.140475
0.140475
0.140476
0.140477
0.140478
0.14048
0.140481
0.140482
0.140484
0.140485
0.140487
0.140488
0.14049
0.140492
0.140493
0.140495
0.140496
0.140498
0.140499
0.140497
0.140499
0.140493
0.140495
0.140497
0.140501
0.140504
0.140508
0.140513
0.140517
0.140521
0.140525
0.140528
0.140532
0.140536
0.140539
0.140542
0.140545
0.140548
0.140551
0.140554
0.140557
0.140559
0.140561
0.140563
0.140565
0.140566
0.140567
0.140568
0.140569
0.140569
0.140569
0.140568
0.140567
0.140565
0.140563
0.14056
0.140556
0.140551
0.140535
0.14051
0.140492
0.14049
0.140488
0.140485
0.140481
0.140478
0.140474
0.140472
0.14047
0.14047
0.14047
0.14047
0.140471
0.140471
0.140472
0.140473
0.140473
0.140474
0.140475
0.140476
0.140477
0.140478
0.140479
0.14048
0.140482
0.140484
0.140485
0.140487
0.140489
0.140491
0.140493
0.140495
0.140498
0.1405
0.140503
0.140505
0.140507
0.140508
0.140512
0.140491
0.140493
0.140496
0.1405
0.140503
0.140508
0.140512
0.140517
0.140521
0.140525
0.140529
0.140533
0.140537
0.140541
0.140544
0.140548
0.140551
0.140554
0.140557
0.140561
0.140563
0.140566
0.140569
0.140571
0.140573
0.140575
0.140576
0.140578
0.140579
0.14058
0.14058
0.14058
0.14058
0.140579
0.140578
0.140576
0.140574
0.140566
0.140561
0.140489
0.140488
0.140486
0.140482
0.140478
0.140475
0.140471
0.140469
0.140468
0.140468
0.140468
0.140468
0.140469
0.14047
0.140471
0.140471
0.140472
0.140473
0.140474
0.140475
0.140476