/*--------------------------------*- C++ -*----------------------------------*\
| =========                 |                                                 |
| \\      /  F ield         | OpenFOAM: The Open Source CFD Toolbox           |
|  \\    /   O peration     | Version:  2.3.1                                 |
|   \\  /    A nd           | Web:      www.OpenFOAM.org                      |
|    \\/     M anipulation  |                                                 |
\*---------------------------------------------------------------------------*/
FoamFile
{
    version     2.0;
    format      ascii;
    class       surfaceScalarField;
    location    "200";
    object      phi;
}
// * * * * * * * * * * * * * * * * * * * * * * * * * * * * * * * * * * * * * //

dimensions      [0 3 -1 0 0 0 0];

internalField   nonuniform List<scalar> 
21254
(
-0.268462
0.287388
-0.018926
0.308861
-0.021472
0.326705
-0.0178449
0.342313
-0.0156077
0.356918
-0.014605
0.368066
-0.0111484
0.376417
-0.00835104
0.382856
-0.00643885
0.386427
-0.00357114
0.38829
-0.00186335
0.388563
-0.000273031
0.386887
0.00167666
0.383873
0.00301356
0.379748
0.00412477
0.374475
0.00527347
0.368402
0.00607267
0.361328
0.00707466
0.353342
0.00798516
0.34426
0.00908229
0.334274
0.00998618
0.323006
0.011268
0.311005
0.0120009
0.298514
0.0124914
0.286843
0.011671
0.277205
0.00963741
0.268893
0.00831281
0.260748
0.00814491
0.25245
0.00829744
0.243667
0.00878357
0.234309
0.00935736
0.224349
0.00995985
0.213769
0.0105803
0.202485
0.0112845
0.190229
0.0122553
0.176429
0.0138008
0.159962
0.0164673
0.138433
0.0215294
0.106951
0.0314823
0.0903106
0.0166557
-0.245547
-0.0229153
-0.221982
-0.0235643
-0.1925
-0.0294825
-0.159817
-0.0326828
-0.125114
-0.0347025
-0.0888853
-0.036229
-0.0526575
-0.0362277
-0.0183986
-0.0342589
0.0126574
-0.0310558
0.0402806
-0.0276231
0.0641336
-0.023853
0.0845295
-0.0203958
0.101899
-0.0173692
0.116547
-0.0146479
0.129124
-0.0125773
0.139985
-0.0108612
0.14962
-0.00963541
0.158287
-0.00866674
0.166306
-0.00801841
0.173818
-0.00751186
0.181005
-0.00718781
0.187877
-0.00687186
0.194379
-0.00650187
0.199913
-0.00553351
0.204293
-0.00438098
0.20779
-0.00349684
0.210402
-0.00261167
0.21224
-0.00183839
0.213339
-0.00109886
0.213723
-0.000383732
0.213269
0.000453807
0.211993
0.00127585
0.210013
0.00198
0.207424
0.00258937
0.204128
0.00329601
0.19975
0.0043777
0.19321
0.00653958
0.179424
0.0137859
0.158999
0.0204254
-0.245656
0.267261
-0.0405309
0.289267
-0.0434782
0.312097
-0.0406742
0.333268
-0.0367794
0.353826
-0.0351623
0.372702
-0.0300252
0.389542
-0.0251902
0.404621
-0.0215184
0.417532
-0.0164816
0.42834
-0.0126721
0.43729
-0.00922238
0.444651
-0.00568435
0.45043
-0.00276592
0.454493
6.17614e-05
0.456711
0.00305614
0.456786
0.00599707
0.454712
0.00914849
0.450674
0.0120232
0.44422
0.0155365
0.435721
0.0184856
0.424829
0.02216
0.411909
0.0249206
0.39701
0.027391
0.380833
0.0278478
0.364688
0.0257826
0.349007
0.023993
0.333848
0.0233043
0.319386
0.0227593
0.305398
0.0227713
0.291704
0.0230515
0.278071
0.0235938
0.264317
0.0243338
0.250174
0.0254273
0.235398
0.0270313
0.219545
0.029654
0.201517
0.0344956
0.179915
0.0431323
0.145728
0.0656699
0.103761
0.0586329
-0.223486
-0.0450845
-0.199739
-0.0473118
-0.171885
-0.0573365
-0.142294
-0.0622733
-0.110715
-0.0662814
-0.0775947
-0.0693496
-0.0444793
-0.0693431
-0.01278
-0.0659581
0.0168093
-0.060645
0.0435402
-0.054354
0.0669771
-0.0472899
0.0874013
-0.04082
0.105253
-0.0352205
0.120806
-0.030201
0.134485
-0.0262564
0.146588
-0.0229647
0.15741
-0.0204572
0.167258
-0.0185149
0.176391
-0.0171513
0.184933
-0.016053
0.193047
-0.0153022
0.200813
-0.014638
0.208169
-0.0138577
0.214677
-0.0120413
0.220068
-0.00977267
0.22454
-0.00796843
0.228088
-0.00615969
0.230766
-0.00451623
0.232602
-0.00293491
0.233674
-0.00145581
0.234122
6.10779e-06
0.234005
0.00139211
0.233204
0.00278101
0.231651
0.00414279
0.229272
0.00567464
0.225825
0.00782469
0.221351
0.0110137
0.21139
0.0237464
0.192323
0.039492
-0.238185
0.259774
-0.0621194
0.281412
-0.065116
0.304687
-0.063949
0.325858
-0.0579507
0.345837
-0.0551416
0.364849
-0.0490368
0.381596
-0.0419376
0.396509
-0.0364313
0.409139
-0.029111
0.419821
-0.0233549
0.428535
-0.0179364
0.43551
-0.012659
0.440636
-0.00789204
0.444442
-0.00374436
0.446789
0.000709399
0.448345
0.00444155
0.448711
0.0087822
0.448188
0.0125463
0.446388
0.0173367
0.443205
0.0216685
0.438488
0.0268773
0.432037
0.0313714
0.423819
0.0356087
0.413952
0.037715
0.403008
0.036727
0.391099
0.0359019
0.378164
0.0362394
0.364394
0.0365291
0.349993
0.0371725
0.335069
0.0379747
0.319764
0.0388988
0.304087
0.0400114
0.287947
0.0415671
0.271128
0.0438504
0.253185
0.0475966
0.233028
0.0546532
0.209386
0.0667745
0.174357
0.1007
0.125281
0.107714
-0.21639
-0.0668795
-0.192335
-0.0713668
-0.163444
-0.0862266
-0.133252
-0.0924656
-0.101569
-0.0979643
-0.0685196
-0.102399
-0.0357369
-0.102126
-0.00498924
-0.0967057
0.0235169
-0.0891511
0.0494878
-0.0803249
0.0726081
-0.0704101
0.0930383
-0.0612502
0.111068
-0.0532498
0.126964
-0.046097
0.141042
-0.0403346
0.153621
-0.0355441
0.164964
-0.0317996
0.175334
-0.0288851
0.184944
-0.0267617
0.193963
-0.0250719
0.202578
-0.0239175
0.210814
-0.0228738
0.218592
-0.0216356
0.225624
-0.0190728
0.23163
-0.0157792
0.236708
-0.0130468
0.240917
-0.010368
0.244288
-0.00788742
0.246887
-0.00553425
0.248706
-0.00327428
0.249808
-0.00109631
0.250199
0.0010009
0.249915
0.00306563
0.248896
0.00516118
0.247057
0.00751346
0.244037
0.0108452
0.239454
0.0155961
0.229753
0.0334477
0.211359
0.0578859
-0.229581
0.2523
-0.0848385
0.274985
-0.0878006
0.299848
-0.0888115
0.32247
-0.080573
0.344283
-0.0769547
0.365072
-0.0698262
0.384069
-0.0609338
0.401044
-0.0534072
0.416246
-0.0443127
0.42946
-0.036569
0.440796
-0.0292724
0.450278
-0.0221411
0.457957
-0.0155707
0.463876
-0.00966273
0.468294
-0.00370931
0.470814
0.00192205
0.471632
0.00796381
0.470538
0.0136406
0.467909
0.0199661
0.463637
0.0259401
0.457881
0.0326327
0.450882
0.0383705
0.442737
0.0437543
0.433911
0.0465409
0.424784
0.0458536
0.415374
0.0453119
0.405281
0.0463328
0.394344
0.0474659
0.382392
0.0491249
0.369274
0.0510925
0.355026
0.0531468
0.339673
0.0553641
0.323237
0.0580037
0.305585
0.0615026
0.286423
0.0667591
0.264713
0.0763624
0.239128
0.0923607
0.202624
0.137204
0.151752
0.158592
-0.207138
-0.0893221
-0.18298
-0.0955253
-0.15361
-0.115596
-0.123351
-0.122724
-0.091685
-0.12963
-0.0586281
-0.135456
-0.0260755
-0.134678
0.0042195
-0.127001
0.0320609
-0.116993
0.057465
-0.105729
0.0801145
-0.0930596
0.100228
-0.0813636
0.118167
-0.0711892
0.134154
-0.0620834
0.148502
-0.0546825
0.16144
-0.0484829
0.173237
-0.0435964
0.184074
-0.0397214
0.194177
-0.0368647
0.20369
-0.034585
0.212727
-0.0329546
0.22136
-0.0315065
0.229538
-0.0298136
0.236956
-0.0264913
0.243377
-0.0222001
0.248857
-0.018527
0.253441
-0.0149515
0.257176
-0.0116229
0.260097
-0.0084552
0.26226
-0.00543756
0.263696
-0.00253248
0.264432
0.000264881
0.264478
0.00302018
0.263824
0.00581491
0.262367
0.00896995
0.259758
0.0134547
0.255456
0.0198975
0.246294
0.0426094
0.228127
0.0760535
-0.224972
0.248479
-0.108345
0.272026
-0.111347
0.298309
-0.115095
0.32169
-0.103953
0.344549
-0.0998138
0.366471
-0.0917482
0.386396
-0.0808587
0.404394
-0.0714053
0.420799
-0.0607176
0.434934
-0.0507038
0.447203
-0.0415415
0.45755
-0.0324881
0.466281
-0.0243018
0.473048
-0.01643
0.478014
-0.0086755
0.481248
-0.00131122
0.482915
0.00629675
0.483039
0.0135165
0.481362
0.0216429
0.478162
0.0291396
0.4733
0.0374955
0.46693
0.0447406
0.459304
0.0513796
0.450825
0.0550197
0.442057
0.054622
0.433183
0.0541859
0.424027
0.0554889
0.414485
0.0570079
0.404367
0.0592431
0.393458
0.0620017
0.381473
0.0651316
0.36817
0.0686673
0.353341
0.072832
0.336719
0.0781253
0.317899
0.0855791
0.29596
0.0983016
0.269412
0.118909
0.231833
0.174783
0.180339
0.210089
-0.201475
-0.11282
-0.176604
-0.120396
-0.145973
-0.146227
-0.114895
-0.153802
-0.0825385
-0.161986
-0.0489101
-0.169085
-0.0159624
-0.167626
0.0143261
-0.157289
0.0418687
-0.144535
0.0669151
-0.130775
0.0891654
-0.11531
0.108929
-0.101127
0.126686
-0.0889462
0.142633
-0.0780302
0.157074
-0.0691237
0.170268
-0.0616766
0.182383
-0.055712
0.193597
-0.0509351
0.204096
-0.0473638
0.214018
-0.0445068
0.223459
-0.0423954
0.232461
-0.0405089
0.240997
-0.0383495
0.248802
-0.0342963
0.25562
-0.029018
0.261478
-0.0243853
0.266409
-0.0198825
0.270465
-0.015679
0.273675
-0.0116652
0.276072
-0.00783514
0.277701
-0.00416128
0.278614
-0.000647929
0.278816
0.00281814
0.278276
0.00635535
0.276954
0.0102919
0.274486
0.0159218
0.270315
0.0240683
0.261688
0.051237
0.244115
0.0936266
-0.22118
0.245713
-0.132878
0.270639
-0.136273
0.298325
-0.142781
0.322967
-0.128595
0.346885
-0.123732
0.370254
-0.115118
0.391208
-0.101813
0.410582
-0.0907786
0.428049
-0.0781853
0.443515
-0.0661692
0.457201
-0.055228
0.468916
-0.0442028
0.478904
-0.0342894
0.48714
-0.0246662
0.493476
-0.0150111
0.498243
-0.00607836
0.501037
0.00350217
0.501954
0.0125998
0.501128
0.0224695
0.498391
0.0318763
0.493812
0.0420739
0.487634
0.0509187
0.480022
0.0589921
0.471411
0.0636311
0.462321
0.0637112
0.453017
0.0634906
0.443447
0.0650586
0.433617
0.0668383
0.423507
0.0693527
0.413009
0.0724993
0.401997
0.0761437
0.390167
0.0804977
0.37717
0.0858292
0.362505
0.0927908
0.345497
0.102587
0.324903
0.118896
0.299037
0.144776
0.261597
0.212223
0.210155
0.261536
-0.196714
-0.137285
-0.171039
-0.146071
-0.139116
-0.178151
-0.106908
-0.18601
-0.0735789
-0.195316
-0.0390709
-0.203593
-0.00544257
-0.201254
0.0251383
-0.18787
0.0526921
-0.172089
0.0775856
-0.155669
0.0995636
-0.137288
0.119013
-0.120577
0.136527
-0.10646
0.152347
-0.0938498
0.166777
-0.0835541
0.180073
-0.0749723
0.192388
-0.0680273
0.203901
-0.0624478
0.214737
-0.0581995
0.225018
-0.0547877
0.234834
-0.0522112
0.244209
-0.0498844
0.253096
-0.0472363
0.261313
-0.0425132
0.268537
-0.0362426
0.274756
-0.0306043
0.280052
-0.0251782
0.284421
-0.0200482
0.287911
-0.0151554
0.290553
-0.010477
0.292388
-0.00599592
0.293442
-0.00170247
0.293732
0.00252857
0.293279
0.00680806
0.291948
0.0116228
0.289472
0.0183981
0.285201
0.0283386
0.276843
0.0595951
0.259914
0.110555
-0.218889
0.244766
-0.158755
0.270715
-0.162222
0.299984
-0.172051
0.325925
-0.154535
0.351128
-0.148936
0.375589
-0.139579
0.397759
-0.123983
0.41801
-0.11103
0.436579
-0.0967538
0.453032
-0.0826221
0.467592
-0.0697886
0.480414
-0.0570246
0.491358
-0.0452337
0.500489
-0.0337973
0.507876
-0.0223976
0.51332
-0.0115226
0.517009
-0.000186903
0.518853
0.0107565
0.518873
0.0224488
0.517011
0.0337387
0.513314
0.0457711
0.507849
0.0563829
0.500955
0.0658867
0.492819
0.0717673
0.483959
0.0725706
0.474617
0.0728333
0.464803
0.0748721
0.45456
0.0770816
0.443976
0.0799369
0.433014
0.0834611
0.421667
0.0874906
0.409857
0.0923075
0.39739
0.0982968
0.383826
0.106354
0.36851
0.117903
0.350047
0.137359
0.326357
0.168466
0.290907
0.247673
0.240597
0.311848
-0.193206
-0.162968
-0.166418
-0.172859
-0.133053
-0.211515
-0.0995447
-0.219518
-0.0650328
-0.229828
-0.0292962
-0.239329
0.00526749
-0.235818
0.0364597
-0.219062
0.064322
-0.199951
0.08932
-0.180667
0.111151
-0.159118
0.130371
-0.139797
0.147656
-0.123745
0.163293
-0.109487
0.177621
-0.0978822
0.190929
-0.0882806
0.20337
-0.0804683
0.215083
-0.0741604
0.226193
-0.0693093
0.236788
-0.065383
0.246934
-0.0623574
0.256647
-0.059597
0.265903
-0.0564927
0.274465
-0.0510749
0.282099
-0.0438769
0.288728
-0.0372328
0.294369
-0.0308202
0.299074
-0.0247525
0.302843
-0.0189252
0.30574
-0.0133736
0.307767
-0.00802263
0.308983
-0.00291857
0.309402
0.00210969
0.308981
0.00722883
0.307678
0.0129254
0.305139
0.0209377
0.300715
0.0327621
0.292441
0.0678693
0.276097
0.126899
-0.217404
0.244621
-0.185972
0.272024
-0.189624
0.30299
-0.203017
0.330137
-0.181682
0.35665
-0.175449
0.382386
-0.165314
0.405599
-0.147195
0.427113
-0.132544
0.446524
-0.116165
0.463961
-0.100059
0.479633
-0.085461
0.493368
-0.0707596
0.505248
-0.057113
0.515391
-0.0439407
0.523728
-0.0307344
0.530214
-0.0180087
0.534877
-0.00484999
0.537668
0.00796565
0.538476
0.0216405
0.537326
0.0348887
0.534319
0.0487786
0.529463
0.0612392
0.52301
0.0723392
0.515323
0.0794546
0.506725
0.0811685
0.497472
0.0820863
0.487623
0.0847213
0.477185
0.0875193
0.46621
0.0909122
0.454767
0.0949042
0.442811
0.0994459
0.430393
0.104726
0.417406
0.111284
0.403711
0.120049
0.388819
0.132796
0.371686
0.154492
0.350392
0.18976
0.318397
0.279669
0.270727
0.359522
-0.190494
-0.189878
-0.162554
-0.200799
-0.12747
-0.2466
-0.0924421
-0.254546
-0.0565118
-0.265758
-0.0194188
-0.276422
0.0163352
-0.271572
0.0483625
-0.251089
0.0767361
-0.228324
0.10198
-0.20591
0.123841
-0.18098
0.142918
-0.158874
0.160007
-0.140834
0.175449
-0.124929
0.189637
-0.11207
0.202906
-0.10155
0.215375
-0.092937
0.227214
-0.0859996
0.238517
-0.0806125
0.249369
-0.076235
0.259797
-0.072785
0.269839
-0.0696392
0.279435
-0.0660889
0.288379
-0.0600184
0.2964
-0.0518984
0.303414
-0.0442465
0.30943
-0.0368363
0.314477
-0.0297991
0.318548
-0.0229964
0.321687
-0.0165128
0.323942
-0.0102771
0.325319
-0.0042955
0.325852
0.00157648
0.325508
0.00757221
0.324188
0.0142457
0.321588
0.0235372
0.317028
0.037322
0.30877
0.0761269
0.293014
0.142656
-0.216879
0.245459
-0.214552
0.274314
-0.21848
0.306981
-0.235684
0.335527
-0.210228
0.363532
-0.203454
0.390642
-0.192424
0.415099
-0.171652
0.437507
-0.154952
0.458072
-0.136729
0.476372
-0.118359
0.49278
-0.101869
0.50737
-0.0853501
0.520157
-0.0699001
0.531141
-0.054924
0.540324
-0.0399176
0.547732
-0.0254169
0.55322
-0.0103382
0.55677
0.00441582
0.558359
0.0200518
0.557954
0.0352938
0.555646
0.0510866
0.551483
0.0654018
0.545643
0.0781793
0.538449
0.0866486
0.530229
0.0893882
0.521187
0.0911287
0.511375
0.0945334
0.500868
0.0980254
0.489731
0.10205
0.477954
0.10668
0.465554
0.111846
0.45254
0.11774
0.438864
0.12496
0.424415
0.134498
0.40896
0.148251
0.391793
0.171658
0.371773
0.20978
0.343412
0.308031
0.299365
0.40357
-0.188465
-0.218293
-0.159167
-0.230097
-0.12231
-0.283457
-0.0857383
-0.291118
-0.0481586
-0.303338
-0.00948856
-0.315092
0.0277329
-0.308793
0.0607749
-0.284131
0.0898516
-0.257401
0.115539
-0.231597
0.137555
-0.202996
0.156612
-0.17793
0.173574
-0.157796
0.188844
-0.140199
0.202871
-0.126097
0.21602
-0.1147
0.228469
-0.105386
0.240361
-0.0978919
0.251791
-0.0920424
0.262843
-0.0872863
0.273543
-0.0834856
0.283859
-0.0799547
0.293769
-0.0759989
0.303078
-0.0693273
0.311504
-0.0603246
0.318889
-0.0516311
0.325281
-0.0432284
0.330651
-0.0351695
0.335046
-0.0273911
0.338462
-0.0199295
0.340932
-0.0127465
0.342495
-0.00585859
0.343141
0.000929916
0.342871
0.00784237
0.341581
0.0155362
0.338939
0.026179
0.334226
0.0420349
0.326009
0.0843435
0.310841
0.157824
-0.216856
0.247061
-0.244757
0.277469
-0.248888
0.312039
-0.270254
0.342043
-0.240232
0.371329
-0.23274
0.399928
-0.221023
0.425569
-0.197293
0.449138
-0.178522
0.470709
-0.1583
0.489913
-0.137563
0.507208
-0.119164
0.522715
-0.100857
0.536239
-0.0834247
0.547974
-0.0666585
0.558063
-0.0500063
0.566208
-0.0335622
0.572516
-0.0166457
0.576838
9.32662e-05
0.579256
0.0176338
0.579659
0.0348913
0.577971
0.0527743
0.574465
0.0689078
0.569206
0.0834378
0.562515
0.0933402
0.554644
0.0972591
0.545762
0.10001
0.536047
0.104249
0.525544
0.108528
0.514248
0.113346
0.502266
0.118663
0.489547
0.124565
0.476067
0.13122
0.461793
0.139234
0.446613
0.149678
0.430323
0.164542
0.412324
0.189657
0.392143
0.229961
0.366262
0.333914
0.325834
0.444
-0.187083
-0.248065
-0.156317
-0.260862
-0.117495
-0.322279
-0.0790556
-0.329557
-0.0398104
-0.342583
0.000704738
-0.355608
0.0394451
-0.347534
0.0737177
-0.318404
0.103671
-0.287354
0.129982
-0.257909
0.152292
-0.225307
0.171406
-0.197043
0.188317
-0.174707
0.203454
-0.155336
0.21732
-0.139963
0.230338
-0.127717
0.242711
-0.117759
0.254588
-0.109769
0.26611
-0.103564
0.277305
-0.0984814
0.288179
-0.0943599
0.298766
-0.0905414
0.308986
-0.0862189
0.318636
-0.0789776
0.327424
-0.0691125
0.335208
-0.0594148
0.341951
-0.0499717
0.347685
-0.0409038
0.352387
-0.0320924
0.35608
-0.0236233
0.358802
-0.0154677
0.360536
-0.00759337
0.361331
0.000135257
0.361148
0.0080254
0.35987
0.0168139
0.357174
0.0288753
0.352374
0.0468342
0.344223
0.0924944
0.329621
0.172427
-0.217536
0.249306
-0.276526
0.281289
-0.280871
0.317787
-0.306752
0.349487
-0.271931
0.380399
-0.263653
0.410474
-0.251097
0.437255
-0.224075
0.462071
-0.203338
0.484693
-0.180922
0.504859
-0.15773
0.522964
-0.137269
0.539122
-0.117015
0.553477
-0.0977798
0.566092
-0.0792738
0.576792
-0.0607064
0.585745
-0.0425151
0.5928
-0.0237004
0.597935
-0.00504197
0.601034
0.0145347
0.602125
0.0338007
0.601173
0.0537256
0.598255
0.0718264
0.593583
0.0881096
0.587405
0.0995186
0.579932
0.104732
0.571348
0.108594
0.56174
0.113857
0.551193
0.119076
0.539833
0.124706
0.527616
0.130879
0.514604
0.137577
0.500766
0.145058
0.486017
0.153983
0.47022
0.165475
0.453137
0.181625
0.434216
0.208578
0.413024
0.251153
0.388157
0.358781
0.350426
0.481732
-0.186077
-0.279525
-0.153809
-0.29313
-0.112908
-0.36318
-0.0725367
-0.369928
-0.0313138
-0.383806
0.011054
-0.397975
0.0515512
-0.388031
0.087215
-0.354068
0.118233
-0.318372
0.145236
-0.284912
0.167994
-0.248065
0.187295
-0.216344
0.204243
-0.191655
0.219278
-0.170371
0.233002
-0.153686
0.24588
-0.140596
0.258142
-0.130021
0.269985
-0.121612
0.281503
-0.115082
0.292785
-0.109763
0.303844
-0.105419
0.314646
-0.101344
0.325127
-0.0966994
0.335113
-0.0889633
0.344264
-0.0782636
0.352414
-0.0675649
0.359541
-0.057099
0.365618
-0.0469805
0.370656
-0.0371308
0.374636
-0.0276029
0.377583
-0.0184152
0.37954
-0.00954997
0.380472
-0.000796277
0.380384
0.00811286
0.37913
0.0180684
0.376418
0.0315875
0.371517
0.0517349
0.363447
0.100564
0.349473
0.186401
-0.218581
0.252159
-0.310105
0.285905
-0.314617
0.324442
-0.345289
0.357734
-0.305224
0.390259
-0.296178
0.421921
-0.282759
0.450226
-0.25238
0.476177
-0.229289
0.49988
-0.204624
0.52096
-0.178811
0.539984
-0.156292
0.55703
-0.134061
0.572017
-0.112767
0.585273
-0.0925302
0.596777
-0.0722097
0.606442
-0.05218
0.614179
-0.0314376
0.61997
-0.0108337
0.623773
0.0107321
0.625572
0.0320017
0.625312
0.0539857
0.623068
0.0740702
0.618986
0.0921924
0.613307
0.105197
0.606221
0.111818
0.597904
0.11691
0.588437
0.123325
0.577946
0.129566
0.566473
0.136179
0.55409
0.143263
0.540797
0.150869
0.526582
0.159273
0.511408
0.169157
0.495067
0.181816
0.477316
0.199376
0.457597
0.228297
0.435233
0.273518
0.410233
0.383781
0.374175
0.517792
-0.185488
-0.312617
-0.151483
-0.327135
-0.108453
-0.40621
-0.0659834
-0.412398
-0.0227163
-0.427073
0.0216963
-0.442388
0.0641391
-0.430474
0.101299
-0.391227
0.133483
-0.350556
0.161386
-0.312814
0.18471
-0.271389
0.204303
-0.235937
0.221318
-0.20867
0.236335
-0.185387
0.249948
-0.167299
0.262688
-0.153336
0.274817
-0.142149
0.286568
-0.133364
0.29808
-0.126593
0.309397
-0.12108
0.320556
-0.116579
0.331531
-0.112318
0.342282
-0.10745
0.352574
-0.0992552
0.362072
-0.0877618
0.370587
-0.0760801
0.378069
-0.0645808
0.38451
-0.0534222
0.389854
-0.0424746
0.39414
-0.0318891
0.397349
-0.0216244
0.399502
-0.0117027
0.400608
-0.00190237
0.400604
0.00811706
0.399399
0.0192736
0.39666
0.0343255
0.391687
0.0567077
0.383767
0.108485
0.370441
0.199726
-0.220191
0.255465
-0.345379
0.291074
-0.350226
0.331768
-0.385983
0.366921
-0.340376
0.401199
-0.330457
0.434497
-0.316057
0.464223
-0.282105
0.491516
-0.256582
0.516278
-0.229386
0.538353
-0.200886
0.55822
-0.176159
0.576014
-0.151855
0.591844
-0.128597
0.605826
-0.106512
0.617963
-0.0843466
0.628242
-0.0624591
0.636674
-0.0398692
0.643179
-0.0173386
0.647659
0.00625235
0.650043
0.0296172
0.650428
0.0536007
0.648778
0.0757207
0.645268
0.0957024
0.640144
0.110321
0.633553
0.118409
0.625529
0.124934
0.616257
0.132597
0.605805
0.140018
0.594268
0.147716
0.581725
0.155805
0.568182
0.164413
0.553613
0.173842
0.53797
0.1848
0.521094
0.198692
0.502723
0.217747
0.482312
0.248708
0.458985
0.296845
0.433338
0.409428
0.398202
0.552928
-0.185163
-0.347645
-0.149511
-0.362788
-0.104105
-0.451615
-0.0594504
-0.457053
-0.013923
-0.4726
0.0327673
-0.489078
0.0771635
-0.47487
0.116034
-0.430097
0.149517
-0.38404
0.178423
-0.34172
0.202407
-0.295372
0.222383
-0.255914
0.239613
-0.2259
0.254655
-0.20043
0.268198
-0.180842
0.280818
-0.165957
0.292812
-0.154143
0.304447
-0.144999
0.315883
-0.138029
0.327209
-0.132406
0.338433
-0.127803
0.349561
-0.123447
0.360514
-0.118403
0.3711
-0.109841
0.380921
-0.0975833
0.389785
-0.0849439
0.397623
-0.0724191
0.404392
-0.0601904
0.410079
-0.0481624
0.414666
-0.0364756
0.418146
-0.0251043
0.420532
-0.0140884
0.421798
-0.00316922
0.421916
0.00799962
0.420749
0.0204403
0.418026
0.0370488
0.41301
0.0617235
0.405201
0.116294
0.392578
0.212349
-0.222079
0.2593
-0.3826
0.296875
-0.387801
0.339868
-0.428976
0.376909
-0.377416
0.412964
-0.366512
0.448017
-0.35111
0.479291
-0.313379
0.507892
-0.285182
0.533892
-0.255386
0.556965
-0.223959
0.577808
-0.197002
0.596396
-0.170443
0.612949
-0.145149
0.627619
-0.121183
0.640311
-0.0970384
0.651294
-0.0734423
0.660366
-0.0489413
0.667486
-0.0244585
0.672629
0.00110948
0.6757
0.0265468
0.676681
0.0526189
0.675656
0.0767465
0.672731
0.0986273
0.668119
0.114932
0.66195
0.124578
0.654252
0.132633
0.645206
0.141642
0.634864
0.150361
0.623299
0.159281
0.61061
0.168494
0.596806
0.178217
0.581898
0.18875
0.565792
0.200905
0.548402
0.216083
0.529411
0.236738
0.508341
0.269778
0.48417
0.321016
0.457838
0.435761
0.423277
0.587491
-0.185284
-0.384439
-0.147567
-0.400506
-0.0997884
-0.499394
-0.0527478
-0.504094
-0.00491028
-0.520438
0.0441166
-0.538105
0.0907903
-0.521544
0.131445
-0.470752
0.16641
-0.419005
0.196421
-0.371731
0.221188
-0.320139
0.241631
-0.276357
0.259121
-0.24339
0.27425
-0.21556
0.287748
-0.194339
0.300278
-0.178487
0.312153
-0.166018
0.32365
-0.156496
0.334996
-0.149375
0.346288
-0.143699
0.357546
-0.139061
0.368767
-0.134668
0.379916
-0.129553
0.390754
-0.120679
0.400876
-0.107705
0.410068
-0.0941366
0.41825
-0.0806011
0.425374
-0.0673146
0.431393
-0.0541811
0.436285
-0.0413676
0.440033
-0.0288519
0.442637
-0.0166928
0.444092
-0.00462387
0.444331
0.00775969
0.443229
0.0215424
0.440516
0.0397622
0.43549
0.0667486
0.427881
0.123903
0.415946
0.224284
-0.224323
0.263658
-0.421935
0.303252
-0.427395
0.348657
-0.474382
0.387646
-0.416405
0.425628
-0.404494
0.462639
-0.388121
0.495428
-0.346168
0.525473
-0.315228
0.552836
-0.282748
0.577012
-0.248136
0.598741
-0.218731
0.618185
-0.189887
0.635368
-0.162333
0.650728
-0.136542
0.664192
-0.110503
0.675754
-0.0850042
0.685446
-0.0586326
0.693155
-0.0321677
0.698794
-0.00452975
0.702451
0.0228898
0.704064
0.0510062
0.703571
0.0772391
0.701213
0.100985
0.697135
0.119011
0.691441
0.130271
0.684149
0.139925
0.675308
0.150483
0.665093
0.160576
0.65357
0.170804
0.640768
0.181296
0.62675
0.192235
0.611494
0.204006
0.594989
0.21741
0.577056
0.234015
0.55742
0.256375
0.535684
0.291514
0.510824
0.345875
0.483821
0.462764
0.449788
0.621524
-0.185525
-0.423238
-0.145944
-0.440087
-0.0954912
-0.549846
-0.0459648
-0.55362
0.00437187
-0.570775
0.0559788
-0.589712
0.104945
-0.570511
0.147598
-0.513405
0.184084
-0.455491
0.215367
-0.403014
0.240986
-0.345758
0.26203
-0.297401
0.279869
-0.261229
0.295152
-0.230843
0.308683
-0.20787
0.321128
-0.190932
0.332878
-0.177768
0.344266
-0.167884
0.355498
-0.160607
0.366714
-0.154915
0.377963
-0.150309
0.389268
-0.145973
0.400568
-0.140853
0.41163
-0.13174
0.422045
-0.11812
0.431545
-0.103636
0.440055
-0.0891111
0.447502
-0.0747611
0.453849
-0.0605281
0.459036
-0.0465552
0.463069
-0.0328846
0.465927
-0.0195514
0.467556
-0.00625248
0.467945
0.0073705
0.466926
0.0225617
0.464241
0.0424477
0.459236
0.0717536
0.451797
0.131341
0.440606
0.235475
-0.226984
0.268478
-0.46343
0.310197
-0.469113
0.358109
-0.522294
0.399158
-0.457453
0.43926
-0.444597
0.478217
-0.427078
0.512707
-0.380658
0.544305
-0.346826
0.572955
-0.311398
0.598223
-0.273403
0.620944
-0.241452
0.641266
-0.210209
0.659335
-0.180402
0.675326
-0.152534
0.689386
-0.124563
0.701541
-0.0971596
0.711795
-0.0688858
0.720073
-0.0404461
0.726382
-0.0108387
0.73057
0.0187013
0.732689
0.0488873
0.732797
0.0771314
0.730948
0.102834
0.727377
0.122583
0.722128
0.135521
0.71521
0.146842
0.706673
0.15902
0.696618
0.170632
0.685121
0.182301
0.67224
0.194176
0.65804
0.206436
0.642498
0.219548
0.625552
0.234356
0.607096
0.252471
0.586856
0.276616
0.564468
0.313902
0.538919
0.371424
0.511341
0.490343
0.477845
0.655021
-0.186014
-0.464207
-0.144281
-0.48182
-0.091128
-0.602999
-0.0389638
-0.605784
0.0140221
-0.623761
0.0683247
-0.644015
0.119803
-0.621989
0.164537
-0.558138
0.202738
-0.493692
0.235353
-0.435629
0.261971
-0.372376
0.283659
-0.319089
0.301899
-0.279469
0.317417
-0.24636
0.331002
-0.221455
0.34343
-0.20336
0.355071
-0.18941
0.366331
-0.179144
0.377443
-0.171719
0.388576
-0.166048
0.399788
-0.161521
0.411118
-0.157303
0.422544
-0.152279
0.433825
-0.143022
0.444486
-0.128781
0.454267
-0.113417
0.463086
-0.09793
0.470854
-0.0825295
0.477523
-0.0671967
0.483029
-0.0520616
0.487342
-0.0371975
0.490426
-0.0226348
0.492278
-0.00810507
0.492805
0.00684318
0.491884
0.0234825
0.489252
0.0450803
0.484285
0.0767202
0.47708
0.138546
0.466664
0.245891
-0.229887
0.273595
-0.507138
0.317645
-0.513163
0.368239
-0.572888
0.411516
-0.50073
0.453776
-0.486856
0.494753
-0.468055
0.531096
-0.417001
0.564299
-0.380029
0.594317
-0.341416
0.620813
-0.299899
0.644671
-0.26531
0.665842
-0.23138
0.684674
-0.199234
0.7014
-0.169259
0.71606
-0.139223
0.728824
-0.109923
0.739624
-0.0796855
0.748477
-0.0492998
0.755263
-0.017625
0.760026
0.0139391
0.76266
0.0462531
0.763248
0.0765433
0.761944
0.104138
0.75886
0.125667
0.7541
0.14028
0.747555
0.153388
0.739306
0.167269
0.72944
0.180498
0.718003
0.193737
0.705098
0.207082
0.690732
0.220801
0.674917
0.235363
0.657591
0.251682
0.638634
0.271428
0.617813
0.297437
0.594726
0.336989
0.568553
0.397597
0.540461
0.518435
0.507486
0.687996
-0.186695
-0.507399
-0.142753
-0.525763
-0.0867278
-0.659024
-0.0317187
-0.660793
0.0240449
-0.679524
0.0811631
-0.701133
0.135368
-0.676194
0.182294
-0.605064
0.222345
-0.533742
0.256407
-0.469691
0.28408
-0.400049
0.306505
-0.341514
0.325267
-0.298231
0.341055
-0.262148
0.354767
-0.235167
0.367206
-0.215798
0.378786
-0.20099
0.38993
-0.190288
0.400919
-0.182708
0.411938
-0.177067
0.423097
-0.172681
0.434433
-0.168639
0.445952
-0.163797
0.457397
-0.154467
0.468278
-0.139661
0.478335
-0.123475
0.48744
-0.107035
0.495527
-0.0906163
0.502496
-0.0741652
0.508307
-0.0578727
0.5129
-0.0417912
0.516254
-0.0259883
0.518303
-0.0101545
0.518984
0.00616302
0.518183
0.0242831
0.515614
0.0476492
0.510749
0.0815858
0.503769
0.145525
0.494108
0.255552
-0.233159
0.279268
-0.553247
0.32576
-0.559655
0.379023
-0.626152
0.424772
-0.546478
0.469179
-0.531263
0.512426
-0.511302
0.550602
-0.455177
0.585511
-0.414938
0.617064
-0.372969
0.644862
-0.327697
0.669686
-0.290134
0.691893
-0.253588
0.711481
-0.218822
0.728922
-0.1867
0.744321
-0.154622
0.757624
-0.123226
0.769009
-0.091071
0.778372
-0.0586626
0.785723
-0.024976
0.790945
0.00871716
0.794062
0.0431363
0.795186
0.0754192
0.794309
0.105015
0.791699
0.128277
0.787361
0.144618
0.781205
0.159544
0.77328
0.175194
0.76363
0.190148
0.752338
0.20503
0.739408
0.220012
0.724913
0.235297
0.708842
0.251433
0.691151
0.269374
0.671736
0.290842
0.650302
0.318871
0.626604
0.360688
0.5998
0.424401
0.571183
0.547051
0.538759
0.72042
-0.187626
-0.552932
-0.141298
-0.57209
-0.0821829
-0.718139
-0.0242631
-0.718713
0.0345072
-0.738295
0.0946466
-0.761272
0.1516
-0.733148
0.200978
-0.654443
0.242945
-0.575709
0.278613
-0.505359
0.307456
-0.428892
0.330717
-0.364775
0.350035
-0.317549
0.36617
-0.278283
0.380058
-0.249056
0.39253
-0.22827
0.404087
-0.212547
0.415119
-0.20132
0.425984
-0.193573
0.436891
-0.187974
0.447971
-0.183761
0.459288
-0.179956
0.470877
-0.175386
0.482469
-0.166059
0.493555
-0.150747
0.503839
-0.133759
0.513206
-0.116402
0.521568
-0.0989781
0.528849
-0.0814458
0.534946
-0.0639701
0.539834
-0.0466789
0.543425
-0.0295797
0.545708
-0.0124376
0.546581
0.00529021
0.54588
0.0249843
0.543439
0.0500895
0.538668
0.0863569
0.531991
0.152202
0.523103
0.26444
-0.236694
0.285331
-0.601884
0.334284
-0.608608
0.390621
-0.682489
0.438659
-0.594516
0.485591
-0.578195
0.531087
-0.556798
0.571368
-0.495459
0.607988
-0.451558
0.641112
-0.406093
0.670228
-0.356813
0.696327
-0.316234
0.719449
-0.276709
0.739977
-0.23935
0.758166
-0.204889
0.77419
-0.170646
0.788114
-0.13715
0.800017
-0.102974
0.809865
-0.068511
0.817656
-0.0327663
0.823364
0.00300875
0.826988
0.0395123
0.828493
0.0739144
0.828076
0.105432
0.825932
0.13042
0.822021
0.148528
0.816293
0.165273
0.808688
0.182799
0.799258
0.199577
0.788072
0.216216
0.775188
0.232896
0.760599
0.249885
0.74431
0.267723
0.726287
0.287397
0.706418
0.310711
0.684463
0.340826
0.660142
0.385008
0.632746
0.451797
0.603652
0.576145
0.571736
0.752337
-0.188695
-0.600932
-0.139861
-0.620924
-0.0775232
-0.780477
-0.0165336
-0.779703
0.0453891
-0.800217
0.10873
-0.824613
0.168708
-0.793125
0.220573
-0.706308
0.26463
-0.619766
0.301966
-0.542695
0.332089
-0.459015
0.35627
-0.388956
0.376221
-0.3375
0.392778
-0.29484
0.406898
-0.263176
0.419469
-0.240841
0.431004
-0.224082
0.441969
-0.212285
0.452718
-0.204322
0.463527
-0.198783
0.474502
-0.194736
0.485798
-0.191252
0.497419
-0.187007
0.509128
-0.177768
0.520391
-0.162011
0.530871
-0.144238
0.540497
-0.126028
0.549125
-0.107606
0.556666
-0.0889869
0.563076
-0.0703809
0.568231
-0.0518334
0.572089
-0.0334382
0.574576
-0.0149241
0.575632
0.00423436
0.575103
0.0255135
0.572766
0.0524262
0.568168
0.0909544
0.561768
0.158602
0.553669
0.272539
-0.240559
0.291808
-0.653133
0.343429
-0.66023
0.402808
-0.741868
0.453569
-0.645277
0.502926
-0.627552
0.550946
-0.604818
0.593222
-0.537735
0.631786
-0.490122
0.666592
-0.440899
0.697182
-0.387403
0.724441
-0.343492
0.748708
-0.300976
0.770104
-0.260746
0.78908
-0.223865
0.805737
-0.187303
0.820299
-0.151711
0.832708
-0.115384
0.843044
-0.078847
0.851348
-0.0410696
0.857467
-0.00311046
0.861483
0.0354966
0.863426
0.0719708
0.86342
0.105439
0.861686
0.132154
0.858203
0.152011
0.852833
0.170643
0.845551
0.190082
0.836412
0.208716