/*--------------------------------*- C++ -*----------------------------------*\
| =========                 |                                                 |
| \\      /  F ield         | OpenFOAM: The Open Source CFD Toolbox           |
|  \\    /   O peration     | Version:  2.3.1                                 |
|   \\  /    A nd           | Web:      www.OpenFOAM.org                      |
|    \\/     M anipulation  |                                                 |
\*---------------------------------------------------------------------------*/
FoamFile
{
    version     2.0;
    format      ascii;
    class       surfaceScalarField;
    location    "0.93";
    object      phi;
}
// * * * * * * * * * * * * * * * * * * * * * * * * * * * * * * * * * * * * * //

dimensions      [0 3 -1 0 0 0 0];

internalField   nonuniform List<scalar> 
2700
(
2.38048e-06
5.42825e-05
-5.20233e-05
2.18125e-06
5.35008e-05
-5.33066e-05
1.35057e-06
5.39069e-05
-5.30765e-05
8.61332e-07
5.39789e-05
-5.34966e-05
2.11614e-07
5.4206e-05
-5.35541e-05
-3.61357e-07
5.4179e-05
-5.36125e-05
-7.35909e-07
5.39676e-05
-5.35932e-05
-7.85087e-07
5.36095e-05
-5.35709e-05
-4.70079e-07
5.32431e-05
-5.35655e-05
5.29937e-05
-5.34709e-05
7.94611e-07
0.000112139
-5.8651e-05
1.37022e-06
0.000112442
-5.95168e-05
1.40874e-06
0.000113478
-5.96134e-05
9.22453e-07
0.000114258
-5.97864e-05
1.81171e-07
0.000114798
-5.9854e-05
-5.51985e-07
0.000114804
-5.98847e-05
-1.03783e-06
0.000114303
-5.98539e-05
-1.01221e-06
0.000113397
-5.98127e-05
-4.64644e-07
0.000112399
-5.97086e-05
0.000111252
-5.87208e-05
1.54808e-06
0.000179787
-6.91933e-05
2.35901e-06
0.00018236
-7.07209e-05
2.28833e-06
0.00018448
-7.09164e-05
1.41574e-06
0.000186239
-7.11025e-05
1.91229e-07
0.000187242
-7.12029e-05
-1.03681e-06
0.000187267
-7.12311e-05
-1.89111e-06
0.00018634
-7.11698e-05
-1.95229e-06
0.000184556
-7.10894e-05
-1.15199e-06
0.000182536
-7.09224e-05
0.000179789
-6.96761e-05
2.08795e-06
0.000263079
-8.5344e-05
3.24116e-06
0.000267529
-8.62869e-05
3.20572e-06
0.000270744
-8.61955e-05
1.97488e-06
0.000273712
-8.62031e-05
1.97618e-07
0.000275304
-8.62547e-05
-1.58581e-06
0.000275361
-8.6273e-05
-2.84764e-06
0.000273891
-8.62558e-05
-2.94621e-06
0.000270993
-8.6294e-05
-1.89824e-06
0.000267922
-8.6391e-05
0.000263438
-8.55001e-05
8.59788e-06
-0.000125637
0.000380207
1.02763e-05
-0.000128319
0.000394255
8.74748e-06
-0.000129111
0.00040147
4.9509e-06
-0.000129652
0.000407246
3.19844e-07
-0.000129984
0.000410009
-4.31082e-06
-0.000130014
0.000410097
-8.11989e-06
-0.000129739
0.000407538
-9.71403e-06
-0.000129263
0.000401943
-8.19739e-06
-0.000128523
0.000395035
-0.000125882
0.00038121
7.43787e-07
4.79078e-05
-0.000100677
1.00861e-06
4.91676e-05
-0.000102744
1.00291e-06
4.97849e-05
-0.000102862
6.64051e-07
5.00667e-05
-0.000103224
1.51406e-07
5.02898e-05
-0.000103337
-3.66446e-07
5.02867e-05
-0.000103379
-7.41118e-07
5.00789e-05
-0.000103305
-8.72195e-07
4.9719e-05
-0.000103164
-7.00486e-07
4.92535e-05
-0.000103002
4.80315e-05
-0.000102207
7.7802e-07
0.000100162
-0.00011169
1.26823e-06
0.000102107
-0.000112947
1.2959e-06
0.000103313
-0.000113165
8.33943e-07
0.000104196
-0.000113456
1.5517e-07
0.000104728
-0.000113605
-5.41483e-07
0.000104739
-0.000113642
-1.03102e-06
0.000104256
-0.000113537
-1.13183e-06
0.000103358
-0.000113356
-7.66505e-07
0.00010229
-0.00011311
0.000100441
-0.000111896
1.70092e-06
0.000160625
-0.000131346
2.31481e-06
0.000163638
-0.000132854
2.16861e-06
0.000165798
-0.000133248
1.32878e-06
0.000167589
-0.000133637
1.68774e-07
0.000168562
-0.000133872
-9.96548e-07
0.000168596
-0.000133906
-1.85736e-06
0.00016769
-0.000133737
-2.07527e-06
0.000165939
-0.000133436
-1.52044e-06
0.000163896
-0.000133071
0.000160938
-0.000131676
3.16497e-06
0.00023287
-0.00016072
3.74672e-06
0.000239272
-0.000162469
3.3367e-06
0.00024288
-0.000162827
1.9792e-06
0.000246001
-0.000163225
1.87562e-07
0.000247625
-0.000163482
-1.61716e-06
0.000247679
-0.000163519
-3.00132e-06
0.000246186
-0.000163322
-3.48852e-06
0.000243165
-0.000162995
-3.00259e-06
0.00023973
-0.000162665
0.000233418
-0.000160936
8.42632e-06
-0.000225575
0.00032447
9.85606e-06
-0.000228221
0.000337827
8.27189e-06
-0.000229656
0.000345093
4.65077e-06
-0.000230959
0.000351021
2.95501e-07
-0.000231716
0.000353802
-4.05723e-06
-0.000231773
0.000353889
-7.69387e-06
-0.000231129
0.000351306
-9.33718e-06
-0.000229935
0.000345574
-8.06701e-06
-0.000228591
0.000338635
-0.000226017
0.00032557
1.10431e-06
3.87929e-05
-0.000140586
1.11292e-06
3.95856e-05
-0.000142344
9.13259e-07
4.00212e-05
-0.000142687
5.51994e-07
4.02675e-05
-0.000143136
1.24658e-07
4.04444e-05
-0.000143354
-3.01585e-07
4.04418e-05
-0.0001434
-6.1617e-07
4.02667e-05
-0.000143257
-7.57397e-07
3.99517e-05
-0.000142985
-6.64604e-07
3.95367e-05
-0.000142637
3.84079e-05
-0.000141285
9.55797e-07
8.00576e-05
-0.000153909
1.21271e-06
8.17068e-05
-0.000155325
1.12404e-06
8.27143e-05
-0.000155773
7.00983e-07
8.34805e-05
-0.000156239
1.26637e-07
8.39198e-05
-0.000156509
-4.47073e-07
8.39324e-05
-0.000156551
-8.71669e-07
8.35126e-05
-0.000156363
-1.00228e-06
8.27347e-05
-0.000156005
-7.6606e-07
8.17699e-05
-0.000155584
7.99994e-05
-0.000154251
1.64284e-06
0.000126898
-0.000179825
2.06408e-06
0.000129856
-0.000181415
1.85352e-06
0.000131807
-0.000182111
1.11233e-06
0.000133375
-0.000182783
1.3908e-07
0.000134219
-0.000183176
-8.43243e-07
0.000134241
-0.000183227
-1.58771e-06
0.000133458
-0.000182918
-1.84811e-06
0.000131918
-0.000182352
-1.46741e-06
0.000130043
-0.000181708
0.000127066
-0.000180197
3.11548e-06
0.000182159
-0.000219055
3.51999e-06
0.000188313
-0.000221292
3.00104e-06
0.000191779
-0.000222251
1.74341e-06
0.000194612
-0.000223156
1.51849e-07
0.000196055
-0.000223693
-1.43898e-06
0.000196106
-0.000223742
-2.71917e-06
0.000194763
-0.000223309
-3.28539e-06
0.000192028
-0.000222494
-2.96308e-06
0.000188705
-0.000221605
0.000182618
-0.000219407
7.63105e-06
-0.000293541
0.000242571
8.58841e-06
-0.000297009
0.000256223
7.04664e-06
-0.000299382
0.00026314
3.91051e-06
-0.000301543
0.000268422
2.39409e-07
-0.00030275
0.000270863
-3.4295e-06
-0.000302833
0.000270933
-6.57188e-06
-0.000301786
0.000268658
-8.15226e-06
-0.000299781
0.00026355
-7.33492e-06
-0.000297544
0.000256944
-0.000294184
0.000243528
5.55833e-07
2.58381e-05
-0.000166984
5.85989e-07
2.64618e-05
-0.000168845
5.18548e-07
2.67584e-05
-0.000169385
3.21222e-07
2.6956e-05
-0.000169899
7.61845e-08
2.70775e-05
-0.000170192
-1.67139e-07
2.70794e-05
-0.000170236
-3.58582e-07
2.69556e-05
-0.000170031
-4.54155e-07
2.67407e-05
-0.000169636
-4.20152e-07
2.64581e-05
-0.000169141
2.57664e-05
-0.000167475
5.41058e-07
5.35748e-05
-0.000182197
7.2797e-07
5.47476e-05
-0.0001838
6.87716e-07
5.54676e-05
-0.00018444
4.29257e-07
5.60226e-05
-0.000185051
8.30541e-08
5.63355e-05
-0.000185415
-2.6933e-07
5.63402e-05
-0.000185465
-5.30375e-07
5.60461e-05
-0.000185189
-6.141e-07
5.54907e-05
-0.00018468
-4.52675e-07
5.48028e-05
-0.000184089
5.3613e-05
-0.000182554
1.03908e-06
8.46097e-05
-0.000211884
1.34924e-06
8.67541e-05
-0.00021372
1.20715e-06
8.82049e-05
-0.000214702
7.25021e-07
8.93595e-05
-0.000215618
8.72771e-08
8.99639e-05
-0.000216164
-5.46696e-07
8.99845e-05
-0.000216215
-1.04373e-06
8.94093e-05
-0.00021578
-1.21487e-06
8.82924e-05
-0.000214964
-9.46284e-07
8.68883e-05
-0.000214056
8.47566e-05
-0.000212272
2.17873e-06
0.000120468
-0.000257069
2.52107e-06
0.000124988
-0.000259836
2.12603e-06
0.000127762
-0.000261367
1.21528e-06
0.000129909
-0.000262763
1.0236e-07
0.000131
-0.000263562
-1.01877e-06
0.000131029
-0.00026363
-1.93398e-06
0.000130018
-0.000262949
-2.36589e-06
0.000127938
-0.000261675
-2.07961e-06
0.000125278
-0.000260232
0.000120814
-0.000257511
5.44987e-06
-0.000331839
0.000153385
6.11104e-06
-0.000336496
0.000163903
4.93408e-06
-0.000339743
0.000169384
2.70736e-06
-0.000342585
0.000173282
1.55291e-07
-0.000344161
0.000175056
-2.38852e-06
-0.000344256
0.000175104
-4.62048e-06
-0.000342877
0.000173435
-5.81659e-06
-0.000340217
0.000169665
-5.2566e-06
-0.000337138
0.000164419
-0.000332596
0.000154028
1.27858e-07
1.1302e-05
-0.000178433
8.44578e-08
1.1537e-05
-0.000180346
5.44658e-08
1.16513e-05
-0.000181016
3.51354e-08
1.1723e-05
-0.000181611
3.17586e-08
1.17688e-05
-0.000181963
2.84076e-08
1.17653e-05
-0.000182009
1.50571e-08
1.17192e-05
-0.000181742
-2.75579e-08
1.16336e-05
-0.000181244
-6.26305e-08
1.15201e-05
-0.000180634
1.12556e-05
-0.000178804
1.16179e-07
2.37326e-05
-0.000194744
1.28055e-07
2.42118e-05
-0.000196495
1.13245e-07
2.45262e-05
-0.000197309
7.40857e-08
2.47647e-05
-0.000198054
3.24235e-08
2.48914e-05
-0.000198506
-6.16579e-09
2.4894e-05
-0.000198553
-4.90731e-08
2.47624e-05
-0.000198202
-7.6486e-08
2.4525e-05
-0.000197546
-7.29555e-08
2.42141e-05
-0.0001968
2.37233e-05
-0.000195096
3.27317e-07
3.81627e-05
-0.000226652
3.95712e-07
3.91683e-05
-0.00022874
3.34775e-07
3.99021e-05
-0.000230006
1.92938e-07
4.04548e-05
-0.000231165
3.58902e-08
4.07453e-05
-0.000231843
-1.28699e-07
4.07454e-05
-0.000231905
-2.66815e-07
4.04737e-05
-0.000231334
-3.45445e-07
3.99248e-05
-0.000230289
-2.88479e-07
3.92162e-05
-0.000229101
3.82161e-05
-0.000227056
8.96798e-07
5.53365e-05
-0.000275118
9.96018e-07
5.76706e-05
-0.000278403
7.85027e-07
5.92646e-05
-0.000280492
4.32641e-07
6.04291e-05
-0.000282337
3.35851e-08
6.09975e-05
-0.00028339
-3.56094e-07
6.10143e-05
-0.000283456
-7.16975e-07
6.04672e-05
-0.000282553
-9.31564e-07
5.93463e-05
-0.000280834
-8.57185e-07
5.78051e-05
-0.000278861
5.54956e-05
-0.000275629
2.63081e-06
-0.00034837
6.92882e-05
2.85112e-06
-0.000353977
7.50048e-05
2.1866e-06
-0.000357954
7.82363e-05
1.15106e-06
-0.000361366
8.03225e-05
6.19692e-08
-0.000363231
8.12553e-05
-1.03223e-06
-0.000363334
8.12685e-05
-2.05745e-06
-0.000361678
8.03883e-05
-2.72342e-06
-0.000358469
7.83589e-05
-2.5521e-06
-0.000354681
7.52497e-05
-0.000349179
6.95803e-05
-3.68922e-07
-4.33943e-06
-0.000173727
-5.4034e-07
-4.55741e-06
-0.000175635
-5.06133e-07
-4.67299e-06
-0.000176392
-3.07238e-07
-4.77463e-06
-0.000177046
-1.36903e-08
-4.83516e-06
-0.000177438
2.86588e-07
-4.83832e-06
-0.000177478
4.89053e-07
-4.79284e-06
-0.000177173
5.30795e-07
-4.70066e-06
-0.000176597
3.75015e-07
-4.59695e-06
-0.000175904
-4.39294e-06
-0.000174042
-4.19565e-07
-8.19897e-06
-0.000190491
-6.25371e-07
-8.51369e-06
-0.000192343
-5.94356e-07
-8.71551e-06
-0.000193308
-3.61139e-07
-8.90441e-06
-0.000194173
-1.39618e-08
-9.00849e-06
-0.000194685
3.30866e-07
-9.02074e-06
-0.000194735
5.73438e-07
-8.92843e-06
-0.000194313
6.06456e-07
-8.76428e-06
-0.000193541
4.16343e-07
-8.57196e-06
-0.000192641
-8.26659e-06
-0.000190824
-5.68434e-07
-1.08101e-05
-0.00022347
-8.18204e-07
-1.11565e-05
-0.000225853
-7.72799e-07
-1.13641e-05
-0.000227412
-4.62949e-07
-1.15779e-05
-0.000228794
-2.60471e-08
-1.17068e-05
-0.000229594
4.20934e-07
-1.17123e-05
-0.000229647
7.27876e-07
-1.16149e-05
-0.000228972
7.88417e-07
-1.14119e-05
-0.000227691
5.53506e-07
-1.12246e-05
-0.000226228
-1.08861e-05
-0.000223886
-7.76604e-07
-1.07668e-05
-0.000274399
-1.05054e-06
-1.09196e-05
-0.000278351
-9.81116e-07
-1.08334e-05
-0.000281059
-5.93112e-07
-1.08996e-05
-0.000283393
-3.08064e-08
-1.09476e-05
-0.000284675
5.19272e-07
-1.09585e-05
-0.000284755
9.23933e-07
-1.09239e-05
-0.000283612
9.99543e-07
-1.08742e-05
-0.000281432
7.50364e-07
-1.09616e-05
-0.000278851
-1.08111e-05
-0.000274959
-7.3913e-07
-0.000346905
-1.14548e-05
-1.06185e-06
-0.000353734
-1.07797e-05
-1.09509e-06
-0.000358634
-1.00756e-05
-6.78297e-07
-0.000362696
-9.91623e-06
-5.54372e-08
-0.000364862
-9.89558e-06
5.89887e-07
-0.000364964
-9.90645e-06
1.01697e-06
-0.000363015
-9.95433e-06
1.00882e-06
-0.00035916
-1.01101e-05
7.04021e-07
-0.000354486
-1.08082e-05
-0.000347762
-1.14971e-05
-9.16535e-07
-2.04983e-05
-0.000152344
-1.23751e-06
-2.12477e-05
-0.000154083
-1.1327e-06
-2.16561e-05
-0.000154859
-6.90645e-07
-2.19882e-05
-0.000155523
-5.3672e-08
-2.21739e-05
-0.000155914
5.81619e-07
-2.21871e-05
-0.000155955
1.04268e-06
-2.2016e-05
-0.000155631
1.1635e-06
-2.17108e-05
-0.000155041
8.81689e-07
-2.13195e-05
-0.000154317
-2.05776e-05
-0.000152606
-1.07397e-06
-4.13808e-05
-0.000168541
-1.53192e-06
-4.26792e-05
-0.00017048
-1.42545e-06
-4.35447e-05
-0.000171552
-8.5953e-07
-4.42679e-05
-0.000172475
-6.50089e-08
-4.4669e-05
-0.000173015
7.40806e-07
-4.46837e-05
-0.000173053
1.31216e-06
-4.43313e-05
-0.000172607
1.44718e-06
-4.36407e-05
-0.000171759
1.02905e-06
-4.28193e-05
-0.000170758
-4.1536e-05
-0.000168848
-1.73412e-06
-6.18219e-05
-0.00020134
-2.32865e-06
-6.38396e-05
-0.000204116
-2.10267e-06
-6.52275e-05
-0.000205967
-1.24598e-06
-6.64062e-05
-0.00020754
-7.88609e-08
-6.70222e-05
-0.000208408
1.07835e-06
-6.70555e-05
-0.000208469
1.95818e-06
-6.64846e-05
-0.000207697
2.20336e-06
-6.53717e-05
-0.00020624
1.66736e-06
-6.40364e-05
-0.000204478
-6.20427e-05
-0.000201743
-3.01132e-06
-7.94129e-05
-0.0002538
-3.71868e-06
-8.26091e-05
-0.000258886
-3.23274e-06
-8.44729e-05
-0.000262318
-1.85516e-06
-8.60587e-05
-0.00026511
-1.13864e-07
-8.68682e-05
-0.000266598
1.64264e-06
-8.68926e-05
-0.000266662
3.01899e-06
-8.61662e-05
-0.000265338
3.54508e-06
-8.46341e-05
-0.000262683
2.91148e-06
-8.28659e-05
-0.000259417
-7.97009e-05
-0.000254396
-4.97446e-06
-0.000329019
-9.23475e-05
-5.88654e-06
-0.000338591
-9.68386e-05
-5.00229e-06
-0.000344804
-9.91607e-05
-2.82115e-06
-0.000349691
-0.000101253
-1.47261e-07
-0.000352148
-0.000102235
2.5131e-06
-0.000352251
-0.000102276
4.71466e-06
-0.000349992
-0.000101369
5.62183e-06
-0.000345337
-9.93601e-05
4.8217e-06
-0.000339388
-9.71548e-05
-0.000329925
-9.27214e-05
-1.46882e-06
-3.6402e-05
-0.000114484
-1.9601e-06
-3.78766e-05
-0.000115745
-1.77981e-06
-3.86679e-05
-0.000116403
-1.07539e-06
-3.92864e-05
-0.000116963
-9.477e-08
-3.96324e-05
-0.0001173
9.00303e-07
-3.96432e-05
-0.000117324
1.61537e-06
-3.93381e-05
-0.000117051
1.837e-06
-3.87461e-05
-0.000116538
1.40281e-06
-3.79949e-05
-0.000115929
-3.65298e-05
-0.00011469
-1.89216e-06
-7.46397e-05
-0.000128462
-2.56444e-06
-7.71998e-05
-0.000130515
-2.3269e-06
-7.89233e-05
-0.000131563
-1.39354e-06
-8.0329e-05
-0.000132408
-1.03676e-07
-8.10721e-05
-0.000132884
1.18064e-06
-8.11088e-05
-0.000132923
2.14073e-06
-8.04188e-05
-0.000132505
2.41009e-06
-7.90893e-05
-0.000131734
1.80898e-06
-7.74301e-05
-0.000130741
-7.4896e-05
-0.000128709
-3.2805e-06
-0.000114646
-0.000158068
-4.16754e-06
-0.000119035
-0.000161436
-3.64489e-06
-0.000122029
-0.000163429
-2.1101e-06
-0.000124446
-0.000164979
-1.4096e-07
-0.00012569
-0.000165817
1.84597e-06
-0.000125727
-0.000165853
3.38228e-06
-0.000124595
-0.000165121
3.95775e-06
-0.000122267
-0.000163651
3.16047e-06
-0.000119403
-0.000161764
-0.000115063
-0.00015843
-6.17341e-06
-0.000153504
-0.000208837
-7.16865e-06
-0.000161299
-0.00021567
-5.97082e-06
-0.000165856
-0.000219719
-3.349e-06
-0.000169503
-0.000222737
-1.78934e-07
-0.000171245
-0.000224234
2.97105e-06
-0.000171309
-0.000224303
5.61754e-06
-0.000169676
-0.000222918
6.83763e-06
-0.000166176
-0.000220059
5.99314e-06
-0.000161814
-0.000216184
-0.000154089
-0.000209412
-1.10287e-05
-0.00028674
-0.000184788
-1.21097e-05
-0.000301728
-0.000197127
-9.75217e-06
-0.00030972
-0.000203362
-5.28937e-06
-0.000315329
-0.000208363
-2.54798e-07
-0.000317922
-0.00021058
4.78327e-06
-0.000317993
-0.000210633
9.2237e-06
-0.000315598
-0.000208581
1.15997e-05
-0.000310199
-0.000203722
1.07435e-05
-0.000302592
-0.000197805
-0.000287703
-0.000185591
-1.87188e-06
-5.05525e-05
-6.21015e-05
-2.55571e-06
-5.25159e-05
-6.25792e-05
-2.3288e-06
-5.36985e-05
-6.2963e-05
-1.40997e-06
-5.46309e-05
-6.32936e-05
-1.18901e-07
-5.51287e-05
-6.34885e-05
1.1696e-06
-5.51537e-05
-6.35074e-05
2.11863e-06
-5.46902e-05
-6.3337e-05
2.38557e-06
-5.38108e-05
-6.3041e-05
1.78007e-06
-5.2673e-05
-6.26796e-05
-5.07254e-05
-6.22176e-05
-2.53318e-06
-0.000105313
-7.11915e-05
-3.48063e-06
-0.000109107
-7.30221e-05
-3.15143e-06
-0.000111827
-7.38136e-05
-1.86645e-06
-0.000113991
-7.43644e-05
-1.42451e-07
-0.00011512
-7.46744e-05
1.59609e-06
-0.000115155
-7.46894e-05
2.89266e-06
-0.000114127
-7.44264e-05
3.27681e-06
-0.000112046
-7.39089e-05
2.41644e-06
-0.000109443
-7.31654e-05
-0.000105693
-7.1346e-05
-4.84207e-06
-0.000166685
-9.19258e-05
-6.03866e-06
-0.000174054
-9.53449e-05
-5.17477e-06
-0.000179135
-9.70266e-05
-2.95819e-06
-0.000183095
-9.81615e-05
-1.76667e-07
-0.00018503
-9.87209e-05
2.5872e-06
-0.0001851
-9.87538e-05
4.83422e-06
-0.000183286
-9.82338e-05
5.73264e-06
-0.000179494
-9.71725e-05
4.67177e-06
-0.000174612
-9.55658e-05
-0.000167325
-9.21657e-05
-9.95274e-06
-0.000234209
-0.000131395
-1.1142e-05
-0.000249404
-0.000139203
-8.9805e-06
-0.000258078
-0.000143029
-4.8926e-06
-0.000264581
-0.000145396
-2.53292e-07
-0.000267539
-0.000146472
4.3998e-06
-0.000267605
-0.000146494
8.46248e-06
-0.000264857
-0.000145518
1.06566e-05
-0.000258553
-0.000143244
9.68452e-06
-0.000250298
-0.000139616
-0.000235232
-0.000131847
-1.98797e-05
-0.000203444
-0.000297738
-2.02129e-05
-0.000225167
-0.000325724
-1.53342e-05
-0.000234012
-0.000338753
-7.97575e-06
-0.000238868
-0.000348529
-3.27858e-07
-0.00024071
-0.000352477
7.26774e-06
-0.000240757
-0.000352566
1.45815e-05
-0.000239001
-0.000348842
1.93944e-05
-0.00023435
-0.000339334
1.94465e-05
-0.000226003
-0.000326986
-0.000204328
-0.000299211
-1.94042e-06
-6.01811e-05
-2.81917e-06
-6.17267e-05
-2.62516e-06
-6.31868e-05
-1.58655e-06
-6.43547e-05
-1.36725e-07
-6.49718e-05
1.32453e-06
-6.49913e-05
2.38266e-06
-6.4429e-05
2.6293e-06
-6.33095e-05
1.83194e-06
-6.19144e-05
-6.03982e-05
-2.89691e-06
-0.000128514
-4.05924e-06
-0.00013362
-3.67989e-06
-0.000137408
-2.16736e-06
-0.000140272
-1.55368e-07
-0.000141683
1.85329e-06
-0.000141734
3.39257e-06
-0.000140417
3.81491e-06
-0.000137679
2.75755e-06
-0.000134047
-0.000129005
-6.35322e-06
-0.000214114
-7.64207e-06
-0.000227718
-6.3726e-06
-0.000235757
-3.54989e-06
-0.00024129
-2.08629e-07
-0.000243808
3.14121e-06
-0.000243867
5.95772e-06
-0.000241527
7.2695e-06
-0.000236196
6.14173e-06
-0.000228536
-0.000215044
-1.51336e-05
-0.00033044
-1.54851e-05
-0.000366634
-1.16792e-05
-0.00038265
-6.09432e-06
-0.000392359
-2.73288e-07
-0.00039615
5.50517e-06
-0.000396231
1.10507e-05
-0.000392638
1.47913e-05
-0.000383266
1.47824e-05
-0.000368183
-0.000332131
-3.76883e-05
-0.000496235
-3.24352e-05
-0.000597141
-2.13307e-05
-0.000627877
-1.01945e-05
-0.000642439
-3.75965e-07
-0.0006468
9.39477e-06
-0.000646819
2.03044e-05
-0.000642673
3.11852e-05
-0.000628557
3.7062e-05
-0.000600133
-0.000499412
-9.68542e-05
-0.00075075
0.000351224
-7.08672e-05
-0.00103403
0.000410773
-3.73451e-05
-0.00109246
0.000430934
-1.59796e-05
-0.00110468
0.0004407
-4.28902e-07
-0.00110624
0.000443777
1.49211e-05
-0.00110615
0.000443801
3.57254e-05
-0.00110448
0.000440897
6.83854e-05
-0.00109285
0.000431486
9.55864e-05
-0.00104003
0.000412639
-0.0007572
0.000353322
-0.000206386
-0.00111187
0.000567353
-0.000138549
-0.00177398
0.000672028
-5.96871e-05
-0.00187935
0.000707906
-2.25519e-05
-0.00186698
0.000725082
-4.82362e-07
-0.00185783
0.000729386
2.12919e-05
-0.00185741
0.000729391
5.70711e-05
-0.00186561
0.000725237
0.000134169
-0.00187862
0.000708622
0.000204115
-0.00178468
0.000674695
-0.00112379
0.000570606
-0.000426296
-0.00156256
0.000877015
-0.000231171
-0.00295908
0.0009899
-7.26886e-05
-0.00309805
0.00106025
-2.04918e-05
-0.00302076
0.00110155
-1.89479e-07
-0.00299009
0.00111193
1.96209e-05
-0.00298925
0.00111202
6.94081e-05
-0.00301761
0.00110216
0.000224477
-0.00309557
0.00106202
0.000421343
-0.00297475
0.000993098
-0.00158519
0.000882754
-0.000390258
-0.00218309
0.00101063
-0.000156731
-0.00387581
0.000683129
-4.28968e-05
-0.00398412
0.00077214
-8.66481e-06
-0.00390138
0.000846289
-8.46717e-08
-0.00386916
0.000870408
8.22149e-06
-0.00386837
0.000870697
4.13106e-05
-0.0038985
0.000847764
0.000152853
-0.00398179
0.000774547
0.000385573
-0.00388941
0.000681974
-0.00221032
0.00101063
0.000344869
-0.00252806
0.000178837
-0.0037099
5.52361e-05
-0.00386067
1.49177e-05
-0.00386122
9.08712e-08
-0.00385448
-1.43242e-05
-0.00385413
-5.27556e-05
-0.00386021
-0.000173485
-0.00386117
-0.000340314
-0.00372268
-0.00255068
-3.99103e-05
-0.000306975
0.000400303
-3.51387e-05
-0.00035591
0.000436124
-2.3927e-05
-0.000370344
0.000451244
-1.15288e-05
-0.000381592
0.00046131
-3.90813e-07
-0.00038531
0.000465394
1.06651e-05
-0.000385368
0.00046549
2.28729e-05
-0.000381888
0.000461664
3.39069e-05
-0.00037084
0.000451939
3.92365e-05
-0.000357377
0.000437654
-0.000308706
0.000402013
-6.77996e-05
-0.00024473
0.00057281
-6.09338e-05
-0.000325168
0.000634371
-4.05114e-05
-0.000342185
0.000659306
-1.91613e-05
-0.000353904
0.000675987
-6.0027e-07
-0.000356832
0.000682301
1.78263e-05
-0.000356875
0.000682413
3.88437e-05
-0.000354134
0.00067645
5.90352e-05
-0.000342646
0.000660226
6.65519e-05
-0.000326829
0.00063659
-0.000247041
0.000575458
-5.14358e-05
2.95262e-05
0.00065404
-5.72358e-05
-0.000102155
0.000772701
-3.24819e-05
-0.000110933
0.000804207
-1.42572e-05
-9.48168e-05
0.000824214
-3.49167e-07
-8.87361e-05
0.000829887
1.34291e-05
-8.86311e-05
0.000829961
3.12411e-05
-9.43613e-05
0.000824594
5.60822e-05
-0.000110616
0.000805112
5.01577e-05
-0.000103337
0.000775547
2.77552e-05
0.000658018
-5.61785e-05
0.000141759
0.000954484
-5.76909e-05
-0.000347717
0.000930198
-4.23835e-05
-0.000345027
0.000990919
-2.2233e-05
-0.000301947
0.00103325
-9.21173e-07
-0.000286913
0.00104725
2.04055e-05
-0.000286705
0.00104744
4.09942e-05
-0.000301259
0.00103405
5.74945e-05
-0.000344764
0.000992249
5.50343e-05
-0.000350259
0.000931309
0.000135386
0.000957948
0.00024502
-0.00263138
0.000137095
-0.00394976
4.65007e-05
-0.00411518
1.30505e-05
-0.00412979
9.77957e-08
-0.00412851
-1.24834e-05
-0.00412832
-4.45182e-05
-0.0041295
-0.000133314
-0.00411718
-0.000242248
-0.00396408
-0.00265759
-1.92697e-05
-0.000177285
0.000412021
-1.8048e-05
-0.000194161
0.000431943
-1.33401e-05
-0.00019875
0.000441957
-6.79521e-06
-0.000203005
0.00044941
-2.71989e-07
-0.000204534
0.00045285
6.21164e-06
-0.000204579
0.000452958
1.27073e-05
-0.000203166
0.000449775
1.7369e-05
-0.000199014
0.000442603
1.88994e-05
-0.00019474
0.000433088
-0.000177978
0.000413294
-3.34957e-05
-0.00014327
0.000572287
-3.13429e-05
-0.000165016
0.000603133
-2.32245e-05
-0.000167697
0.000620177
-1.17831e-05
-0.000171406
0.000633018
-4.64282e-07
-0.000172289
0.000638788
1.08042e-05
-0.000172324
0.000638953
2.21525e-05
-0.000171574
0.000633581
3.02306e-05
-0.000167963
0.000621182
3.28015e-05
-0.000165579
0.000604904
-0.000144101
0.000574367
-2.52992e-05
2.15881e-05
0.000514428
-2.01319e-05
3.72776e-05
0.000565273
-1.21086e-05
4.90592e-05
0.000579471
-5.70687e-06
5.64154e-05
0.000590036
-1.75035e-07
5.8545e-05
0.000593566
5.32768e-06
5.85394e-05
0.000593639
1.15454e-05
5.64933e-05
0.000590366
1.9414e-05
4.92555e-05
0.000580091
2.47107e-05
3.78063e-05
0.000566839
2.23259e-05
0.000516256
-6.56353e-05
0.000315825
0.000725817
-5.12301e-05
0.000289549
0.000663463
-3.42522e-05
0.000331808
0.000691159
-1.74071e-05
0.000355053
0.000717732
-7.94657e-07
0.000361482
0.00072765
1.57676e-05
0.000361468
0.000727912
3.25665e-05
0.000355065
0.000718648
4.97379e-05
0.00033174
0.000692558
6.41082e-05
0.000290238
0.000664413
0.000316856
0.00072743
8.37561e-05
-0.00239939
4.47444e-05
-0.00362125
1.36385e-05
-0.00375233
3.03493e-06
-0.00376418
1.88144e-08
-0.00376406
-2.86018e-06
-0.00376401
-1.29818e-05
-0.00376434
-4.3627e-05
-0.00375485
-8.27944e-05
-0.00363475
-0.00242357
-7.43932e-06
-8.36734e-05
0.000410841
-7.47964e-06
-8.82722e-05
0.000423504
-6.01497e-06
-8.89588e-05
0.000430357
-3.24013e-06
-9.02696e-05
0.000435749
-1.59084e-07
-9.08248e-05
0.000438437
2.91686e-06
-9.08499e-05
0.000438543
5.69545e-06
-9.03648e-05
0.000436094
7.17147e-06
-8.90848e-05
0.000430941
7.26994e-06
-8.84905e-05
0.000424403
-8.39368e-05
0.000411826
-1.27757e-05
-6.97149e-05
0.000571117
-1.31663e-05
-7.8028e-05
0.00059339
-1.08679e-05
-7.88466e-05
0.000607896
-5.90332e-06
-8.10342e-05
0.000618948
-2.9198e-07
-8.17857e-05
0.000624272
5.31516e-06
-8.18212e-05
0.000624459
1.0286e-05
-8.1165e-05
0.000619548
1.26185e-05
-7.90538e-05
0.000608946
1.24172e-05
-7.83394e-05
0.000595065
-7.02105e-05
0.00057309
-5.34496e-06
-2.9048e-05
0.000479119
-4.42655e-06
-1.42778e-05
0.000500667
-3.65e-06
-7.78421e-06
0.000507742
-2.0793e-06
-6.37944e-06
0.000513915
-8.79159e-08
-6.54556e-06
0.000516442
1.89814e-06
-6.58405e-06
0.000516524
3.45939e-06
-6.49179e-06
0.00051422
4.20764e-06
-7.83046e-06
0.000508221
5.15498e-06
-1.4021e-05
0.00050163
-2.89933e-05
0.000480128
-2.75795e-05
6.68563e-05
0.000657407
-2.64523e-05
4.48824e-05
0.000603143
-2.09169e-05
5.39327e-05
0.000623861
-1.11355e-05
5.72777e-05
0.000644289
-5.80318e-07
5.78671e-05
0.000652658
9.94246e-06
5.78471e-05
0.000652926
1.97456e-05
5.71749e-05
0.000645183
2.55262e-05
5.37263e-05
0.000625196
2.63891e-05
4.48452e-05
0.000604547
6.61027e-05
0.000658663
1.72836e-05
-0.00234992
6.8458e-06
-0.00356601
1.80072e-07
-0.00369178
-9.48694e-07
-0.00370583
1.94286e-09
-0.00370719
1.01003e-06
-0.00370721
-3.11925e-08
-0.00370617
-6.65697e-06
-0.00369458
-1.70773e-05
-0.00357955
-0.00237461
-3.344e-07
2.05905e-07
0.000399592
-5.50228e-07
3.47623e-06
0.000409587
-7.91572e-07
6.16108e-06
0.000414502
-5.35563e-07
7.19131e-06
0.000418518
-4.54188e-08
7.60176e-06
0.00042059
4.54186e-07
7.60009e-06
0.000420689
7.25717e-07
7.19368e-06
0.000418819
4.99622e-07
6.19264e-06
0.000415001
3.02149e-07
3.59384e-06
0.000410318
3.08854e-07
0.000400404
3.21525e-06
-1.3086e-05
0.00058127
1.74228e-06
-3.02947e-06
0.00060153
-1.50715e-07
1.90883e-06
0.000614217
-5.55318e-07
2.30785e-06
0.000624418
-9.69884e-08
2.16868e-06
0.000629442
3.72271e-07
2.12883e-06
0.000629649
1.49412e-08
2.19378e-06
0.000625082
-1.76958e-06
1.75993e-06
0.000615328
-3.27541e-06
-2.88994e-06
0.00060324
-1.32188e-05
0.00058334
5.21913e-06
-8.8999e-06
0.000469789
4.31256e-06
8.97473e-06
0.000489653
1.87472e-06
1.61824e-05
0.000496001
5.83677e-07
1.66727e-05
0.000500994
2.42317e-09
1.62533e-05
0.000503059
-5.62505e-07
1.62002e-05
0.000503129
-1.81358e-06
1.65428e-05
0.000501245
-4.192e-06
1.60575e-05
0.000496458
-5.22061e-06
9.27651e-06
0.000490421
-8.90905e-06
0.000470628
3.21155e-05
-6.06012e-05
0.000676855
1.41703e-05
-4.40883e-05
0.000674079
1.17625e-06
-4.50961e-05
0.000698104
-1.93419e-06
-5.17529e-05
0.000715771
-2.88313e-07
-5.47167e-05
0.000721953
1.41298e-06
-5.47703e-05
0.000722191
-1.31293e-06
-5.20601e-05
0.000716498
-1.40817e-05
-4.55461e-05
0.000699411
-3.25877e-05
-4.41659e-05
0.000676473
-6.18409e-05
0.000678858
-5.82411e-06
-0.00240481
-6.76279e-06
-0.00360925
-4.40331e-06
-0.00373931
-2.17312e-06
-0.00375988
-3.58779e-09
-0.00376416
2.18527e-06
-0.00376425
4.35667e-06
-0.00376051
6.65145e-06
-0.00374246
5.88067e-06
-0.0036231
-0.00243062
4.66956e-06
9.06378e-05
0.000373672
4.3665e-06
0.000102938
0.000382112
3.05614e-06
0.000108807
0.00038539
1.51262e-06
0.000112305
0.000388244
5.77761e-08
0.000113721
0.000389747
-1.39413e-06
0.000113743
0.000389832
-2.9168e-06
0.000112397
0.000388505
-4.22387e-06
0.000109005
0.000385798
-4.57903e-06
0.000103402
0.000382704
9.11463e-05
0.000374322
1.85192e-05
5.65932e-05
0.000596965
1.51176e-05
9.23235e-05
0.000615702
9.61181e-06
0.000101524
0.00062719
4.44405e-06
0.00010526
0.000636845
1.20046e-07
0.000106015
0.000641668
-4.16628e-06
0.000106
0.000641884
-9.25963e-06
0.00010524
0.000637501
-1.46206e-05
0.00010163
0.000628311
-1.82522e-05
9.29741e-05
0.000617374
5.71452e-05
0.00059918
1.65841e-05
5.75315e-05
0.00045227
1.21188e-05
0.000117884
0.000468625
6.62498e-06
0.000132122
0.000471009
2.78162e-06
0.000136175
0.000474002
8.73522e-08
0.000136634
0.000475239
-2.59337e-06
0.000136587
0.000475301
-6.32753e-06
0.000136128
0.000474236
-1.178e-05
0.00013219
0.000471329
-1.6411e-05
0.00011895
0.000469193
5.82524e-05
0.000453024
0.000119185
-0.000179098
0.000794215
6.67354e-05
-2.79349e-05
0.000872253
2.45939e-05
-2.11074e-05
0.000893329
8.0515e-06
-4.24373e-05
0.000910836
5.37566e-08
-5.12917e-05
0.000917783
-7.78706e-06
-5.14755e-05
0.000918054
-2.36839e-05
-4.32968e-05
0.000911658
-6.49861e-05
-2.2057e-05
0.000894909
-0.000118602
-2.63324e-05
0.000875081
-0.000179843
0.000798322
-3.33084e-05
-0.00255073
-2.44846e-05
-0.00364617
-1.17078e-05
-0.00377332
-4.89588e-06
-0.00380925
-3.94384e-08
-0.00382045
4.76595e-06
-0.00382071
1.13399e-05
-0.00381051
2.3771e-05
-0.00377717
3.32145e-05
-0.00365894
-0.00257733
8.32983e-06
0.000195936
0.000322928
7.83152e-06
0.000217176
0.000329482
5.81407e-06
0.000226042
0.000330909
3.01977e-06
0.000232035
0.000332453
1.4434e-07
0.000234557
0.000333292
-2.7212e-06
0.000234617
0.000333359
-5.51732e-06
0.000232245
0.00033264
-7.53479e-06
0.000226464
0.000331197
-8.14177e-06
0.000218006
0.000329871
0.000196976
0.000323337
3.36413e-05
0.000169355
0.000590055
2.81987e-05
0.000238108
0.000600379
1.91852e-05
0.000253974
0.000608462
9.2947e-06
0.000262849
0.000616108
3.35543e-07
0.000265343
0.000620039
-8.57733e-06
0.000265358
0.000620221
-1.83274e-05
0.000263018
0.000616689
-2.72063e-05
0.000254412
0.000609409
-3.29477e-05
0.000239569
0.000601743
0.000171244
0.000591996
2.42054e-05
0.000198051
0.000399421
1.73375e-05
0.000305058
0.0004086
9.838e-06
0.00032737
0.000405143
4.38117e-06
0.00033739
0.000404977
1.63911e-07
0.00033988
0.000404953
-4.01223e-06
0.000339913
0.000405004
-9.37723e-06
0.000337531
0.000405107
-1.6765e-05
0.000327962
0.000405269
-2.38165e-05
0.000307025
0.000408669
0.00020092
0.000399572
0.00020907
-0.000229416
0.00101253
0.000126964
0.000153081
0.00110614
5.61705e-05
0.000170623
0.00112068
2.14027e-05
0.000150724
0.00113207
4.83801e-07
0.000141347
0.00113708
-2.01463e-05
0.000141099
0.0011373
-5.39014e-05
0.000149983
0.00113282
-0.000123327
0.00017001
0.00112192
-0.000205936
0.000156122
0.00110851
-0.000224876
0.00101808
-7.34641e-05
-0.00270683
-5.23949e-05
-0.00351432
-2.6502e-05
-0.00362875
-1.0589e-05
-0.00367459
-1.42315e-07
-0.0036897
1.01483e-05
-0.00369004
2.55134e-05
-0.00367614
5.08388e-05
-0.0036326
7.23262e-05
-0.00352445
-0.00272995
1.02649e-05
0.000314791
0.000240588
9.58214e-06
0.00034182