/*--------------------------------*- C++ -*----------------------------------*\
| =========                 |                                                 |
| \\      /  F ield         | OpenFOAM: The Open Source CFD Toolbox           |
|  \\    /   O peration     | Version:  2.3.1                                 |
|   \\  /    A nd           | Web:      www.OpenFOAM.org                      |
|    \\/     M anipulation  |                                                 |
\*---------------------------------------------------------------------------*/
FoamFile
{
    version     2.0;
    format      ascii;
    class       volScalarField;
    location    "0.78";
    object      k;
}
// * * * * * * * * * * * * * * * * * * * * * * * * * * * * * * * * * * * * * //

dimensions      [0 2 -2 0 0 0 0];

internalField   nonuniform List<scalar> 
15166
(
1.07902
1.32432
1.70731
2.10976
2.42103
2.73159
2.95351
3.08644
3.13277
3.11036
3.02679
2.91529
1.0794
1.29572
1.71114
2.10198
2.41265
2.70205
2.90347
3.01962
3.05552
3.0282
2.94588
2.82557
1.08748
1.26416
1.69576
2.07992
2.38992
2.66268
2.84851
2.95203
2.98073
2.95003
2.86781
2.74425
1.09803
1.23884
1.67415
2.05149
2.35865
2.6173
2.79076
2.88473
2.90833
2.87524
2.79229
2.66388
1.10945
1.21977
1.65103
2.02086
2.32315
2.56917
2.73222
2.81868
2.8385
2.80375
2.72031
2.5912
1.12178
1.20526
1.62754
1.98938
2.28548
2.52001
2.67405
2.75441
2.77132
2.73535
2.65146
2.52112
1.13505
1.19423
1.60429
1.95769
2.24666
2.47072
2.61685
2.69216
2.70675
2.66983
2.58521
2.45189
1.14907
1.18602
1.5818
1.92621
2.20748
2.4219
2.561
2.63202
2.64473
2.60712
2.52222
2.38958
1.1636
1.18015
1.56044
1.89542
2.16852
2.37399
2.50674
2.57406
2.58521
2.54714
2.46228
2.33043
1.17849
1.17615
1.54031
1.86548
2.1302
2.3273
2.45424
2.51828
2.5281
2.48978
2.40548
2.27622
1.19358
1.1737
1.52145
1.83652
2.09272
2.28195
2.40354
2.46464
2.47334
2.43501
2.35178
2.22603
1.20877
1.17247
1.50381
1.80859
2.05623
2.23806
2.35467
2.41308
2.42083
2.38275
2.30136
2.18147
1.22396
1.17222
1.48736
1.78169
2.02085
2.19564
2.30759
2.36353
2.37047
2.33289
2.25379
2.13982
1.23909
1.17281
1.47202
1.75581
1.98659
2.15469
2.26226
2.31591
2.32218
2.28519
2.20789
2.09435
1.25407
1.17399
1.4577
1.73096
1.95347
2.11521
2.21863
2.27016
2.27586
2.23961
2.16447
2.05571
1.26886
1.17568
1.44432
1.7071
1.92149
2.07714
2.17664
2.22617
2.23138
2.19596
2.12308
2.0182
1.2834
1.17772
1.43177
1.68418
1.89065
2.04046
2.13623
2.18388
2.18868
2.15414
2.08346
1.98174
1.29767
1.18006
1.42002
1.66221
1.86091
2.00513
2.09733
2.14319
2.14765
2.11403
2.04546
1.94655
1.31161
1.1826
1.40897
1.64111
1.83223
1.97106
2.05986
2.10403
2.10821
2.07552
2.00909
1.91361
1.32521
1.18527
1.39857
1.62084
1.8046
1.93822
2.02377
2.06633
2.07025
2.03853
1.97422
1.882
1.33844
1.18803
1.38874
1.60137
1.77794
1.90656
1.98897
2.02999
2.0337
2.00292
1.94056
1.85044
1.35129
1.19081
1.37942
1.58268
1.75225
1.87602
1.95542
1.99497
1.99847
1.96861
1.90801
1.81973
1.36374
1.19359
1.37059
1.56468
1.72747
1.84657
1.92306
1.96119
1.96451
1.9355
1.87645
1.78941
1.37578
1.19636
1.36217
1.54738
1.70356
1.81814
1.89183
1.92859
1.93174
1.90353
1.84587
1.76016
1.38738
1.19907
1.35413
1.53073
1.68051
1.7907
1.86168
1.89712
1.90008
1.87261
1.81625
1.732
1.39854
1.20172
1.34643
1.51471
1.65826
1.7642
1.83256
1.86671
1.86949
1.84271
1.7876
1.70496
1.40928
1.20427
1.33904
1.49924
1.63677
1.73861
1.80442
1.83732
1.83991
1.81377
1.75993
1.67929
1.41958
1.20675
1.33195
1.48433
1.61602
1.71387
1.77722
1.80889
1.81129
1.78578
1.73325
1.65508
1.42941
1.20913
1.32509
1.46995
1.59597
1.68995
1.7509
1.78139
1.78358
1.75868
1.70749
1.63157
1.43882
1.2114
1.31848
1.45604
1.57659
1.66681
1.72544
1.75477
1.75675
1.73245
1.68253
1.60843
1.44776
1.21357
1.31206
1.4426
1.55784
1.64443
1.7008
1.72898
1.73076
1.70703
1.65839
1.58618
1.45625
1.21564
1.30584
1.42959
1.53971
1.62276
1.67693
1.704
1.70557
1.68239
1.63496
1.56443
1.46429
1.21761
1.29978
1.41701
1.52216
1.60178
1.65381
1.67979
1.68114
1.65849
1.61226
1.54355
1.47191
1.21948
1.29391
1.40481
1.50516
1.58146
1.6314
1.65632
1.65745
1.63531
1.59023
1.52315
1.47904
1.22124
1.28818
1.393
1.4887
1.56177
1.60968
1.63355
1.63446
1.61282
1.56886
1.50349
1.48577
1.22293
1.2826
1.38153
1.47275
1.54268
1.58862
1.61146
1.61215
1.59098
1.54812
1.4843
1.49205
1.2245
1.27716
1.3704
1.45728
1.52417
1.56817
1.59001
1.59047
1.56977
1.528
1.46604
1.49789
1.22599
1.27184
1.35958
1.44227
1.50621
1.54834
1.56918
1.56941
1.54916
1.50849
1.44844
1.50332
1.22741
1.26665
1.34908
1.4277
1.48878
1.52907
1.54895
1.54895
1.52914
1.48953
1.431
1.50833
1.22874
1.26158
1.33886
1.41357
1.47187
1.51037
1.52929
1.52907
1.50969
1.47117
1.41465
1.51288
1.23
1.25662
1.32893
1.39985
1.45544
1.4922
1.51019
1.50973
1.49076
1.45313
1.39694
1.51698
1.23117
1.25175
1.31926
1.38652
1.43949
1.47455
1.49162
1.49093
1.47232
1.43545
1.37961
1.52065
1.23224
1.247
1.30986
1.37357
1.42399
1.45739
1.47355
1.47263
1.45435
1.41824
1.36367
1.52389
1.23319
1.24235
1.30071
1.36098
1.40892
1.44071
1.45598
1.45481
1.43685
1.40147
1.34791
1.52672
1.23402
1.23779
1.29181
1.34875
1.39427
1.42448
1.43889
1.43747
1.41979
1.38515
1.33295
1.52914
1.2347
1.23335
1.28316
1.33683
1.38002
1.4087
1.42225
1.42057
1.40316
1.36922
1.31787
1.53115
1.23529
1.22901
1.27473
1.32523
1.36616
1.39335
1.40605
1.40411
1.38696
1.35373
1.30389
1.53276
1.23573
1.22475
1.26652
1.31394
1.35269
1.3784
1.39027
1.38807
1.37115
1.33863
1.28987
1.534
1.23606
1.22057
1.25851
1.30295
1.33957
1.36384
1.37489
1.37242
1.35573
1.32392
1.27658
1.53484
1.2363
1.21647
1.25071
1.29226
1.32678
1.34965
1.3599
1.35715
1.34068
1.30953
1.26311
1.53531
1.23645
1.21244
1.2431
1.28185
1.31434
1.33584
1.34529
1.34225
1.32598
1.2955
1.2503
1.53541
1.23653
1.20848
1.23566
1.27172
1.30222
1.32237
1.33104
1.32772
1.31163
1.28182
1.23784
1.53514
1.23652
1.20459
1.22841
1.26184
1.29041
1.30925
1.31714
1.31354
1.29764
1.26843
1.22517
1.5345
1.23646
1.20077
1.22132
1.25222
1.27891
1.29647
1.30359
1.29971
1.28397
1.25538
1.21337
1.53351
1.23632
1.19701
1.21441
1.24284
1.2677
1.284
1.29038
1.2862
1.27062
1.24266
1.202
1.53219
1.2361
1.19332
1.20765
1.2337
1.25678
1.27185
1.27749
1.27302
1.25759
1.23029
1.19101
1.53051
1.23579
1.18969
1.20105
1.22478
1.24613
1.26001
1.26491
1.26015
1.24488
1.2182
1.17994
1.5285
1.23545
1.18614
1.19461
1.21608
1.23575
1.24845
1.25265
1.2476
1.23247
1.20639
1.16918
1.52615
1.23502
1.18265
1.18831
1.2076
1.22562
1.23719
1.24068
1.23535
1.22035
1.19479
1.15791
1.52347
1.23455
1.17924
1.18216
1.19932
1.21575
1.22621
1.22901
1.22339
1.20851
1.18345
1.14743
1.52046
1.23401
1.17589
1.17616
1.19125
1.20612
1.21549
1.21761
1.21171
1.19694
1.17239
1.13758
1.51713
1.23342
1.1726
1.17029
1.18337
1.19672
1.20503
1.20649
1.2003
1.18563
1.16163
1.12801
1.51348
1.23276
1.16938
1.16456
1.17568
1.18756
1.19483
1.19563
1.18917
1.1746
1.1511
1.11836
1.50951
1.23207
1.16624
1.15897
1.16818
1.17862
1.18488
1.18505
1.1783
1.16382
1.14082
1.10894
1.50523
1.23133
1.16317
1.15352
1.16086
1.16991
1.17517
1.17471
1.16769
1.1533
1.13074
1.09947
1.50063
1.23056
1.16017
1.14821
1.15373
1.16141
1.1657
1.16463
1.15733
1.14302
1.12089
1.09035
1.49574
1.22971
1.15724
1.14303
1.14677
1.15311
1.15647
1.1548
1.14722
1.13297
1.11123
1.08122
1.49053
1.22884
1.15439
1.13798
1.13999
1.14503
1.14746
1.1452
1.13735
1.12315
1.10178
1.07253
1.48501
1.22795
1.15162
1.13306
1.13337
1.13715
1.13868
1.13584
1.12772
1.11356
1.09255
1.06397
1.4792
1.22698
1.14892
1.12828
1.12693
1.12946
1.13011
1.1267
1.11831
1.10419
1.08354
1.05572
1.4731
1.22599
1.14631
1.12364
1.12066
1.12196
1.12176
1.11779
1.10913
1.09504
1.07472
1.04741
1.46669
1.22494
1.14376
1.11912
1.11455
1.11466
1.11361
1.10909
1.10017
1.0861
1.06607
1.03942
1.46
1.22388
1.1413
1.11473
1.1086
1.10755
1.10567
1.10061
1.09142
1.07737
1.05765
1.03162
1.453
1.22279
1.13894
1.11049
1.10282
1.10062
1.09793
1.09234
1.08289
1.06884
1.04941
1.02392
1.44571
1.22166
1.13664
1.10638
1.09721
1.09388
1.09039
1.08428
1.07457
1.06052
1.04135
1.01643
1.43816
1.22048
1.13443
1.1024
1.09175
1.08732
1.08305
1.07643
1.06645
1.05239
1.03347
1.00888
1.43031
1.21925
1.1323
1.09856
1.08646
1.08094
1.0759
1.06878
1.05854
1.04446
1.02575
1.00152
1.42216
1.21799
1.13026
1.09486
1.08133
1.07474
1.06894
1.06132
1.05082
1.03672
1.0182
0.994253
1.41374
1.21673
1.12832
1.09129
1.07637
1.06872
1.06217
1.05407
1.04331
1.02916
1.01081
0.987217
1.40503
1.21541
1.12648
1.08787
1.07157
1.06287
1.0556
1.04701
1.03599
1.0218
1.00359
0.980205
1.39604
1.21407
1.12471
1.0846
1.06693
1.05721
1.0492
1.04013
1.02885
1.01461
0.996534
0.973523
1.38678
1.21268
1.12304
1.08147
1.06246
1.05172
1.04299
1.03345
1.0219
1.00759
0.989639
0.967037
1.37724
1.21125
1.12146
1.07848
1.05815
1.04641
1.03697
1.02696
1.01514
1.00076
0.982932
0.960623
1.36742
1.20978
1.11998
1.07564
1.05402
1.04128
1.03114
1.02066
1.00858
0.994123
0.976393
0.954259
1.35731
1.2083
1.11861
1.07295
1.05005
1.03633
1.02549
1.01455
1.0022
0.987655
0.970011
0.948171
1.34694
1.20676
1.11733
1.07043
1.04626
1.03156
1.02002
1.00862
0.996005
0.981369
0.963795
0.942086
1.3363
1.20515
1.11614
1.06805
1.04264
1.02697
1.01474
1.00287
0.989991
0.975251
0.957729
0.936344
1.32538
1.20351
1.11506
1.06583
1.0392
1.02256
1.00964
0.99732
0.984165
0.969325
0.95186
0.930633
1.31418
1.20184
1.11408
1.06378
1.03595
1.01835
1.00474
0.991956
0.978525
0.963579
0.946159
0.925121
1.30271
1.20015
1.11321
1.0619
1.03288
1.01432
1.00002
0.986778
0.973068
0.958003
0.940589
0.919444
1.29095
1.1984
1.11244
1.06019
1.03
1.01048
0.995496
0.981785
0.967792
0.952599
0.935207
0.914569
1.27893
1.1966
1.11177
1.05865
1.02731
1.00684
0.991166
0.97699
0.962721
0.947415
0.930075
0.909692
1.26665
1.19472
1.11121
1.05728
1.02482
1.0034
0.987035
0.972391
0.957836
0.942399
0.92508
0.90493
1.25408
1.19282
1.11075
1.0561
1.02253
1.00016
0.983105
0.967989
0.953143
0.93757
0.920266
0.900216
1.24125
1.19084
1.11041
1.0551
1.02044
0.997137
0.979379
0.963789
0.948645
0.932927
0.915615
0.895639
1.22815
1.18878
1.11016
1.05428
1.01857
0.994324
0.975863
0.959792
0.944349
0.928485
0.911151
0.891131
1.21478
1.18666
1.11004
1.05367
1.01692
0.991732
0.972562
0.956003
0.94025
0.924219
0.90683
0.886863
1.20111
1.18453
1.11003
1.05325
1.0155
0.98937
0.969482
0.952425
0.936356
0.920155
0.902713
0.882716
1.18719
1.18225
1.11014
1.05304
1.01431
0.987238
0.966628
0.949064
0.932671
0.916287
0.898768
0.878772
1.17299
1.17993
1.11035
1.05304
1.01336
0.985353
0.964008
0.945931
0.929204
0.912631
0.89504
0.874957
1.15851
1.17752
1.11067
1.05326
1.01266
0.983713
0.961626
0.943023
0.925946
0.909168
0.89148
0.871462
1.14374
1.17508
1.11112
1.0537
1.01223
0.982335
0.959494
0.94035
0.922916
0.905926
0.88814
0.868143
1.12869
1.17256
1.11168
1.05436
1.01206
0.981228
0.957627
0.937933
0.920133
0.90293
0.885046
0.864957
1.11338
1.16992
1.11236
1.05526
1.01216
0.980403
0.956028
0.935767
0.917591
0.900159
0.882173
0.862065
1.0978
1.16715
1.11315
1.0564
1.01255
0.979872
0.954705
0.933865
0.915294
0.897619
0.879522
0.859481
1.08193
1.16433
1.11406
1.05779
1.01324
0.979645
0.953675
0.932237
0.913259
0.895345
0.87714
0.857022
1.06579
1.16135
1.11509
1.05944
1.01425
0.979733
0.952952
0.930899
0.911489
0.893302
0.874942
0.85483
1.04936
1.15829
1.11623
1.06135
1.01558
0.98016
0.952551
0.929866
0.910011
0.891543
0.873027
0.852809
1.03264
1.15521
1.11749
1.06355
1.01725
0.980943
0.952493
0.929152
0.908833
0.89007
0.871379
0.851041
1.01564
1.15192
1.11889
1.06603
1.01929
0.982096
0.952796
0.928771
0.907964
0.888874
0.869964
0.84945
0.998343
1.14855
1.12043
1.06881
1.02171
0.983647
0.953478
0.928752
0.907434
0.887999
0.868875
0.848196
0.980761
1.1451
1.12206
1.0719
1.02451
0.985608
0.954563
0.929114
0.90726
0.887469
0.868129
0.847359
0.962909
1.14138
1.12383
1.0753
1.02773
0.988017
0.956076
0.92988
0.907477
0.887328
0.867796
0.846812
0.944761
1.13761
1.12573
1.07902
1.03138
0.990879
0.958038
0.931059
0.908069
0.887507
0.867678
0.846154
0.926321
1.13373
1.12771
1.08309
1.03549
0.994227
0.960466
0.932674
0.909052
0.888033
0.867872
0.846003
0.907606
1.1296
1.12987
1.0875
1.04007
0.998086
0.963399
0.934763
0.910478
0.888988
0.86852
0.846374
0.888581
1.12541
1.13212
1.0923
1.04515
1.00251
0.966881
0.93737
0.91238
0.890375
0.869519
0.847047
0.869266
1.12093
1.13455
1.09748
1.05078
1.00753
0.970962
0.940542
0.914817
0.892273
0.871056
0.848372
0.849655
1.1163
1.13706
1.10307
1.05699
1.01319
0.975682
0.944321
0.917822
0.894715
0.873129
0.850274
0.829776
1.11159
1.13971
1.10906
1.0638
1.01953
0.981091
0.948763
0.921439
0.897735
0.875761
0.852516
0.809597
1.10661
1.1425
1.11552
1.07125
1.0266
0.98723
0.953894
0.925683
0.901278
0.878737
0.85469
0.789108
1.1014
1.14545
1.12244
1.0794
1.03446
0.994173
0.959779
0.930626
0.905467
0.882351
0.857881
0.768333
1.09593
1.14853
1.12985
1.08828
1.04319
1.002
0.966521
0.936373
0.91043
0.886784
0.86202
0.747282
1.09042
1.15173
1.13781
1.09799
1.05286
1.0108
0.974188
0.942962
0.916135
0.891779
0.866442
0.725914
1.08452
1.15514
1.14634
1.10856
1.06356
1.02066
0.982879
0.950502
0.922702
0.897598
0.871584
0.704247
1.07836
1.15873
1.15553
1.1201
1.07541
1.03172
0.992711
0.959091
0.930198
0.904196
0.877488
0.682299
1.07215
1.16254
1.16541
1.13274
1.08855
1.04412
1.00385
0.968892
0.938801
0.911844
0.884423
0.660015
1.06553
1.16666
1.17614
1.14661
1.10316
1.05803
1.01645
0.980038
0.94863
0.920577
0.8921
0.637414
1.05874
1.17115
1.18783
1.16193
1.11942
1.07366
1.03069
0.992661
0.95976
0.930482
0.90106
0.614438
1.05171
1.17617
1.2008
1.17892
1.13763
1.09125
1.04675
1.00693
0.972303
0.941566
0.910982
0.591091
1.04468
1.18212
1.21536
1.19805
1.15812
1.1111
1.06491
1.02306
0.986487
0.954173
0.922419
0.567254
1.03781
1.18955
1.23221
1.2198
1.1813
1.13352
1.08542
1.04123
1.00241
0.968213
0.935013
0.542863
1.03237
1.19968
1.2523
1.24482
1.20758
1.15876
1.10842
1.06159
1.02014
0.983709
0.948595
0.517792
1.03187
1.21574
1.27802
1.2744
1.23781
1.18754
1.13469
1.08473
1.04017
1.00095
0.963599
0.488281
1.03317
1.23062
1.30432
1.30262
1.26673
1.21529
1.16111
1.10811
1.06114
1.01908
0.980034
1.04071
0.00468008
0.347418
0.321802
0.32074
0.288909
0.279331
0.646844
0.830969
0.77793
0.567789
0.00777927
0.0326162
3.01863
0.277066
0.00354998
2.83098
0.110619
0.107654
0.00348339
0.140585
0.176121
0.144821
0.0269067
1.05617
0.346506
0.160017
0.37505
0.60466
0.812987
0.538081
1.16683
0.00420062
0.558277
0.0311396
0.16594
0.387303
0.470852
0.39305
0.00818295
0.0704803
0.0033773
0.0716737
0.531583
0.268449
0.173095
0.0608485
0.0248532
0.271387
0.140032
0.164095
0.634587
0.262998
0.00321463
1.98788
0.00444691
0.0106635
0.00337424
0.47155
0.266433
0.155739
1.19157
0.0032091
0.0168826
0.183599
0.00453281
0.888903
0.252362
1.53223
0.689197
1.884
0.0535757
0.383405
0.729133
0.0273708
0.00323014
0.797591
0.00309478
0.0702103
0.241063
0.103478
0.00310386
0.405744
0.295304
0.0163656
1.11908
0.884549
0.00319468
0.390997
0.23779
0.353801
0.653805
0.00319826
0.00392207
0.456863
0.00326193
0.362491
0.012842
0.00317208
0.899054
1.10873
0.203696
0.00335325
0.00434061
0.00312134
0.514837
0.512241
0.689486
0.533173
0.00886251
0.0944764
0.00312705
0.202572
0.00372681
0.00318215
0.219923
0.019524
0.219992
1.09333
0.176127
1.02451
0.0293423
1.69985
0.199699
0.125668
1.29235
0.00405451
1.96535
0.0323848
0.00320012
0.231678
0.00323636
0.233189
0.00434539
0.162787
0.00514924
0.233314
0.595961
0.208028
0.0058572
0.0170209
0.145386
0.269573
0.0254535
0.174606
1.89733
0.298921
0.00454291
0.983109
0.374165
0.0640824
0.214046
0.00309227
0.114722
0.156549
0.00314728
0.248543
0.003202
1.27998
0.00708529
0.0270421
0.00356927
0.128084
0.0132884
0.149779
0.0844463
0.984659
0.291704
0.335188
0.00307307
1.88825
0.758521
1.99266
0.0179158
0.00305944
0.574585
0.00311686
0.305935
0.138027
0.7197
1.00917
0.438051
0.0629265
0.37121
0.0033904
0.262747
0.00317802
0.00315336
0.17535
0.00318555
0.487622
0.00310671
0.936803
0.0047575
0.284103
0.296508
0.271771
0.165146
0.00312702
3.17554
1.01996
0.318216
0.413987
0.217262
0.324907
0.105015
0.0915474
0.228935
0.703503
0.216979
0.288255
0.900082
0.500566
0.396575
0.00315442
0.283577
0.0129682
0.427438
3.25236
0.210309
0.294668
1.02111
0.338902
0.00315697
0.0031882
1.30873
1.1184
0.00327021
4.20619
0.0324076
0.312489
0.121387
0.00311783
0.947483
0.414201
0.253647
0.246316
1.07899
0.657001
0.322201
0.154775
0.161399
1.25518
1.68696
0.375293
0.281821
0.227989
0.00350597
1.39595
0.289876
0.650698
0.726848
0.378961
3.95177
0.236707
0.240418
0.210436
0.310505
0.578068
0.341717
0.216422
0.258169
0.0157559
0.0899671
0.683923
0.261859
0.922069
0.506963
0.361388
1.49128
0.2881
0.050288
1.63947
0.209098
0.208349
1.69586
0.242287
0.260471
0.301823
0.203603
0.866182
0.238758
0.37266
0.331606
0.614215
0.273146
0.4745
0.207983
1.12081
0.128591
0.201679
1.66874
0.226325
0.224879
0.283014
0.919841
0.119714
0.206076
0.0677741
0.480366
0.183644
0.106139
1.36668
2.05756
0.154299
0.954112
0.323524
0.00318779
0.201466
0.166119
0.211164
0.288921
0.00315766
1.18634
0.320044
0.0673977
0.225815
0.762335
0.00315194
0.638771
0.0388435
0.579578
0.422671
4.92984
0.503347
0.758446
0.539098
0.00313881
0.00316297
0.285048
0.447194
0.0030775
0.517298
0.00311578
0.0031623
0.00322465
0.00311707
0.140398
0.0031637
0.00580787
1.03856
0.5123
0.003229
0.334974
0.00987164
0.19585
0.295646
1.28833
4.14643
0.481125
0.00301096
0.00323876
0.0819583
0.134224
0.208969
0.0030643
0.0988738
0.315841
0.878571
0.377782
0.177648
0.273299
1.02609
4.08658
0.157121
0.325535
0.0036491
0.00318514
0.159083
0.258134
0.116373
0.173463
0.505849
2.744
1.69549
0.143827
0.343371
1.01421
0.00319835
0.419838
0.75365
0.00527049
0.00316292
0.520382
3.82729
0.734981
0.0030802
0.048928
0.154767
0.0256731
0.00319885
0.833391
0.382692
0.277379
0.282032
0.00374824
3.81432
0.00314286
0.235829
0.544824
0.00649071
0.0111336
0.962727
0.00879744
1.40936
0.767077
1.15119
0.653584
0.172244
0.681602
0.00313953
0.00309426
0.00317226
1.03845
0.075468
1.2625
2.7626
0.164714
0.592065
0.00317912
0.0109259
0.274334
0.00308087
0.00317183
0.703335
0.00306837
0.22793
0.91645
0.371907
0.00302994
0.00749526
0.110589
0.116054
0.237031
0.144973
0.00310504
3.34349
0.836837
0.109497
0.0123935
0.327388
0.199604
0.00711827
0.279664
0.00690466
0.846252
0.0035282
0.250307
0.133135
0.00311625
1.30278
0.238424
0.322182
0.00930171
0.471296
0.144122
0.00516828
0.217478
0.490096
0.352346
1.10893
0.0240649
0.0509005
0.0115464
1.31217
0.676434
0.0630457
0.137582
0.163218
0.33492
0.182166
0.511035
1.1034
0.00304567
2.04945
0.914981
0.22664
0.00309809
0.267647
0.963223
0.0255402
0.436741
0.348871
0.256774
0.126719
0.177137
0.25943
0.00358645
0.0189259
0.875663
0.0391546
0.00438481
0.923019
4.08773
0.0395621
0.19989
0.788982
0.090468
0.491436
0.259217
0.843753
0.321202
0.29098
0.00323008
0.0851847
0.447598
0.382345
1.33291
0.214166
1.42373
0.937612
3.75208
0.88873
0.31054
0.00316689
1.26406
0.204165
0.801709
0.416481
0.163775
0.0844169
0.426548
0.00321466
0.297439
0.00317781
0.34087
0.421634
0.213241
0.17507
1.2723
0.241275
1.04349
0.642773
1.97777
0.00321794
0.123862
0.933262
2.44932
0.196092
0.717553
0.0036172
0.028247
0.350279
1.85834
0.592229
0.00310244
0.0582265
0.00312257
0.0586924
0.351312
0.037585
0.846824
0.142975
0.589652
0.15584
0.125202
1.23016
0.709051
0.00319514
0.00319639
0.25777
1.21776
0.27564
0.598507
0.441262
0.6675
0.266634
0.00302343
0.187562
0.253729
0.00485937
1.04937
0.265187
0.176374
0.274333
0.0127532
0.00302464
0.0237202
0.00313934
0.647199
0.817789
0.709547
0.63819
0.00319306
1.47826
0.0898874
0.74295
0.135473
1.73236
0.00867553
0.154666
0.00307428
0.497146
0.716715
0.315652
0.40961
0.00300691
1.30177
0.805994
0.510931
0.00311652
0.0709163
0.813966
0.617964
0.00610456
2.17326
0.00373911
0.805253
0.614642
0.0036302
0.131745
0.0877327
0.202518
0.00310546
0.00319887
1.15776
0.431724
0.322118
0.526604
0.00488084
0.128051
0.0982816
0.768968
0.208424
0.00395862
0.209067
1.20891
0.00307799
0.00821259
0.28631
0.635134
1.11622
0.0031581
0.729488
0.221375
1.30866
0.0298752
0.151752
0.816499
0.00319986
0.199384
0.137925
0.376256
0.383362
0.72608
0.276565
1.21709
1.17702
0.282367
2.70765
0.00323658
0.00315036
1.49711
0.783649
0.00475882
0.00315674
0.473412
0.00320625
0.823773
0.540441
0.248055
0.00311694
0.808214
0.0530297
0.29141
1.21613
0.235412
0.148535
0.145234
1.34687
0.0031921
0.28556
0.981624
0.234542
0.557313
0.00673605
0.533447
0.263317
2.03174
0.00313014
0.148922
0.683754
0.305789
0.00332103
0.0952982
0.342185
0.439232
1.26976
0.0592645
1.87647
0.40635
0.09284
0.404965
0.00313422
0.00737527
0.363049
0.00306756
0.1753
0.00316529
0.244709
0.0107785
0.839631
0.00321719
0.110646
0.49397
1.61078
0.356926
0.669931
0.163594
2.44858
0.0156034
0.0934944
0.57185
0.00309936
0.00320601
0.380335
0.156046
0.248862
0.390769
0.00328419
0.216262
0.218749
0.20101
0.492365
1.14827
0.200076
0.00319667
1.88295
2.42482
0.506895
0.00323832
0.0108347
2.09391
0.260427
0.00311983
1.29445
0.00310059
0.0804684
2.74576
0.00354817
0.291541
0.00314941
0.0566214
0.751429
0.00324368
0.00401705
0.00318308
0.00379998
0.02168
3.81125
0.80514
0.0939088
0.242143
0.00316397
0.765562
0.00317339
0.248063
0.232752
0.0247987
0.159763
0.0139108
1.15107
0.00318443
4.32701
0.218273
0.629214
0.35157
0.163028
0.00309676
0.193401
1.09776
0.129338
0.752525
0.886095
1.69381
0.349813
0.0419618
0.627894
0.0840762
0.00406576
0.106701
2.4709
1.14892
0.120014
0.00846502
0.2975
0.00375591
0.443724
0.872053
1.08655
0.842958
0.896339
0.0372003
0.00583194
0.325983
0.224511
0.0483649
0.2695
0.00316116
0.261376
1.9658
0.00330254
1.69704
0.783299
0.114534
0.101939
1.45074
0.0236549
0.101415
0.457684
0.310688
0.294135
0.00322322
0.673997
0.0763063
0.27138
0.383127
0.199044
0.223023
0.00685736
0.688996
0.00317337
0.00316055
0.228472
0.104964
0.160166
1.9187
0.00303327
1.14084
0.0646102
0.0578787
0.00338881
1.72242
0.363859
0.089967
0.784612
0.0598019
1.1601
0.154624
0.00314252
1.19384
2.08943
0.00546387
0.0087634
0.203566
1.03763
0.099375
1.32474
0.0352598
0.233511
0.104148
0.156977
0.681002
0.203264
0.00318776
1.17583
0.328877
0.0151642
0.197113
4.25597
0.276463
0.00317662
0.00307079
0.764159
0.184078
1.01366
0.00306549
0.715155
0.295961
0.408496
0.00376694
0.314002
0.777356
0.00538487
0.258584
0.00321639
1.12341
0.2111
0.345392
0.262362
0.00314612
0.00314548
0.345557
1.40592
0.385971
0.732502
0.003028
0.0454084
0.0032083
0.00626191
1.15986
0.0742174
0.0971208
0.124892
0.325378
0.305709
0.356476
1.21029
0.00317283
0.304339
0.732069
0.245567
0.00319247
0.943183
0.00320555
0.00316624
0.0885919
0.211995
0.0251615
1.36394
0.203236
2.80229
0.00328522
0.0047603
0.0397767
0.903272
0.306058
0.962741
0.00316826
0.00314853
0.00629164
0.00835917
1.10577
0.805847
0.640757
0.123542
0.044895
0.315547
0.164209
0.578072
0.275874
0.879557
0.312613
0.00308098
0.33298
0.00536887
0.194634
0.889087
0.184412
0.231718
0.133299
0.00380966
1.34384
0.51635
0.489074
0.314535
0.00315936
0.588638
0.762556
0.334202
0.00825238
0.913114
0.479541
0.838575
0.328769
0.336684
0.590121
0.120063
0.861579
0.258604
0.0979667
0.236258
0.00317894
1.21453
0.862555
0.00311821
0.684684
0.00477401
0.538049
0.204622
0.237268
0.266693
0.73072
0.95319
0.262309
0.131369
0.174756
0.219549
0.0125464
0.00310407
1.02787
0.0615858
0.938021
0.549806
0.22462
0.834627
0.544979
0.00314509
0.278253
1.53429
1.06108
0.226809
0.239314
0.570711
1.89725
0.190821
0.234676
0.0249313
0.083758
0.546908
1.19626
0.111639
0.842164
0.821308
0.78595
0.23983
0.231321
0.425504
0.692698
0.00319155
1.94171
0.669912
0.205007
0.00319069
0.592505
0.474471
0.294877
0.00317438
0.591408
0.00317258
0.243212
0.0912316
0.00319457
0.823325
0.347652
0.00310567
0.531878
0.373563
0.608889
0.258809
0.519389
0.279644
0.705972
0.169206
0.157382
0.00312932
0.00470827
0.343427
0.173405
0.0243273
0.00322964
0.354899
0.00604328
0.119783
0.118557
0.445745
0.207248
0.0574971
0.0943234
0.549427
1.63707
0.329533
4.11883
0.870183
0.00311845
0.54108
0.589064
1.67752
0.00312663
0.173385
0.00318786
0.00359159
0.277284
0.289791
0.0391309
0.00340826
0.806087
3.7262
0.00739239
0.00317653
0.12932
0.263037
0.0240204
0.0740503
3.85303
0.140585
0.00339061
0.00317761
0.969208
0.262622
0.135715
0.0592919
0.651859
1.13166
0.392039
0.247355
0.679534
0.00317322
0.502305
0.00315978
0.231097
0.274221
5.38265
0.178326
0.0898069
0.00382908
1.18567
0.0031945
0.00313404
0.00585737
0.272528
0.287289
0.977129
0.00314931
0.507698
0.00317251
0.692933
0.97726
0.00320493
0.72539
0.225062
0.00317312
0.00330209
0.0319692
1.10733
0.383685
0.0264351
0.0031745
0.0031327
0.84885
0.685867
0.327467
0.753961
0.117758
0.438708
0.00314897
0.0103098
0.382898
0.810796
0.759513
0.00887598
0.00317631
0.397866
0.00319772
0.203649
0.805842
0.353952
0.043141
0.20087
0.506431
0.157238
0.00316975
0.513345
1.33288
0.648222
0.0064409
0.0306071
0.690382
3.69256
0.0548484
0.37371
0.00311028
0.00308662
0.00321468
0.0187779
0.401774
1.07556
0.0106793
0.220962
0.633969
1.23462
0.206222
0.0197128
0.0079665
0.00757999
0.158534
0.171373
0.23679
0.00322348
1.34464
0.00314333
0.0136506
0.844375
0.853029
0.0364525
0.372727
0.468145
0.00409996
0.130324
0.255673
0.0031548
0.00378137
1.12396
0.00365649
0.0032248
0.707221
0.235374
2.09315
0.209264
2.41318
0.00356025
0.00311458
3.2458
0.296052
0.225237
0.498432
0.0604032
0.232639
0.196501
1.0213
0.814683
0.588458
0.58217
0.233364
0.111226
0.321594
0.728511
0.0146491
0.351354
0.00392248
0.439656
0.366683
0.107069
0.384332
0.188558
0.413343
0.20794
0.262182
1.11065
0.459679
0.215613
0.317318
0.710836
0.326198
0.00421339
0.00315953
0.110999
2.22847
0.00316167
1.78894
0.00312465
0.00989773
0.340469
0.221509
0.82059
0.680633
0.90295
1.14003
0.522643
0.386285
0.00316723
0.290831
1.05825
0.00323919
1.24784
0.00714263
1.70952
0.940772
1.13402
0.274175
0.206241
0.283961
0.0918505
0.284533
1.23621
0.360737
0.780231
0.169826
0.203107
0.0853787
0.231787
0.95473
0.00955248
0.666493
0.00319427
0.00393389
0.300202
1.51842
0.338434
0.273872
0.164438
0.110683
0.121762
0.0034692
0.341079
0.00346722
0.706353
0.00341834
0.0580692
0.943398
0.171792
0.306302
0.334159
0.318439
0.00623957
0.00321491
0.0992458
0.266846
0.114829
0.517125
0.0424976
0.366002
0.240403
0.374547
0.791936
0.00359435
0.00314781
1.68917
0.226572
0.172015
0.811092
0.688266
0.817711
0.00987912
1.6854
0.335798
0.213181
0.00347802
0.196949
0.403712
0.205465
0.207741
0.266035
0.0032306
0.472963
0.00313414
0.628394
0.010674
0.439935
0.118067
0.409635
0.00324326
6.5457
0.00319251
1.51064
0.0256329
0.00317523
0.0145933
0.274994
0.0031708
0.00318046
0.39691
0.0328104
0.327492
0.0569865
0.00332665
0.21898
0.186482
0.445027
0.00334123
0.224019
0.189937
1.35632
0.70729
0.394665
0.415611
0.215744
0.306642
0.77872
0.832231
0.211252
0.00322413
0.145044
0.362393
0.306286
0.00471781
0.0085609
0.234324
1.57404
0.00318406
0.206294
1.2355
0.00305009
0.849726
0.935901
0.357313
0.594761
0.796964
0.259128
0.130051
2.59089
0.411582
0.88537
0.821869
0.222435
0.10751
0.0031663
0.42048
0.00587451
0.00321786
0.00313426
0.300482
0.00316628
0.00373379
0.537768
4.05842
0.406948
0.212645
0.833912
0.239593
0.00318233
0.165935
1.14395
0.0252624
0.164363
1.01908
0.313006
0.125607
0.0312132
0.00314371
0.00316818
0.0272991
0.0449183
0.302829
0.299997
1.23639
0.267413
0.268778
0.00395548
0.503371
0.213623
0.0032118
0.342804
3.37885
0.00320851
0.362731
1.0168
0.739477
0.656234
0.189876
1.1033
0.00356307
0.210226
0.00331898
0.00633661
0.00320971
0.835223
0.56857
0.0741378
0.00319328
0.00307303
1.11332
0.386833
0.289224
0.235308
0.354567
0.435311
0.306093
0.349966
0.35004
0.0031772
0.151181
0.123618
0.136324
0.385294
1.05928
0.767819
0.590835
0.363233
1.11615
0.826558
0.963151
0.416027
0.881471
0.0647118
0.825363
0.39318
0.0281191
1.01268
0.855891
0.447203
0.00311412
0.00320084
0.00361082
0.00444257
0.472238
0.00304521
0.49435
0.165092
0.996387
0.766839
0.00317142
0.474269
0.283352
0.186884
0.276007
0.390346
0.552738
0.00326542
0.00319927
0.00911221
0.100528
0.00313252
0.637535
0.267334
0.253037
0.760429
0.514619
0.441397
0.532105
0.00316787
0.319244
0.669129
0.00381457
0.0789439
0.409227
0.315015
0.537619
0.193285
0.00325607
0.375574
0.358449
0.00385279
0.0204919
0.0031579
0.178789
0.00440684
0.143966
1.28757
0.111601
0.0735153
1.00144
1.81235
0.00326947
0.628957
0.00305227
0.224976
0.346936
0.2478
0.484197
0.691018
0.676931
0.802332
1.22353
0.746829
0.00317862
0.00314518
0.0531817
0.101386
0.606591
0.172313
0.00319371
1.58822
0.253978
0.00825334
0.788517
0.0587045
0.00816873
0.0403913
0.997795
0.00646965
0.003195
0.258382
0.205953
0.640869
0.118251
0.226225
0.202942
0.00321397
0.291334
0.0902776
0.060033
0.00337582
0.202593
0.53439
0.173663
1.44932
1.33535
0.316587
0.413412
0.00316339
0.35972
0.00319511
2.73031
0.0103364
0.430729
0.0942383
0.840421
0.0163768
0.00933719
0.248377
0.307773
1.30282
0.00356466
0.212141
0.482242
0.609096
0.185545
0.999392
0.120686
0.00343511
0.00320506
0.479162
0.635621
1.06303
0.289457
0.0848849
0.530375
0.328533
0.819079
0.0460117
0.00316921
0.00318277
0.122287
0.707436
0.689924
0.99311
0.00353341
0.0109607
0.167983
0.452396
0.268484
0.759183
0.349925
0.879211
0.00319888
0.00320958
1.13665
0.275257
0.885355
2.87798
0.359999
0.0246362
1.41153
0.00318407
1.02332
0.0277215
0.0308297
0.00317113
0.0418011
0.0845684
0.83737
0.794283
0.00322673
0.758406
0.00316013
0.601094
1.56609
0.00314505
0.157375
0.00322657
0.259039
0.127541
0.174708
0.00308787
0.262057
0.211772
0.257336
1.02367
0.170226
1.22477
0.217515
0.833561
0.237363
1.11763
0.638024
0.00384252
0.00320865
0.37546
0.195128
0.823728
0.00317726
2.11179
0.00315893
0.00478217
0.0389342
0.00316026
1.14236
0.974593
0.00324379
0.66547
0.256682
0.102527
0.709357
0.0060835
0.0031292
0.422968
0.38598
0.00977409
0.776457
6.66906
1.35832
0.15534
1.19734
0.104347
0.00318524
0.00368816
0.0351783
0.13707
0.844322
1.0901
1.31562
0.795697
0.53163
0.509199
0.25783
0.652039
1.9438
0.591112
0.0430506
0.0783233
0.278801
1.50665
0.00338242
0.194294
0.655476
0.333471
0.00317286
0.42395
0.00305912
0.0138654
0.843747
0.0033876
0.298125
1.84992
0.00318984
0.35264
0.00351441
0.337265
0.0141159
0.0040673
0.767094
0.255194
0.915561
0.399759
1.12068
1.64652
0.489663
0.175872
0.752188
0.38851
0.0031157
0.577482
0.0585335