/*--------------------------------*- C++ -*----------------------------------*\
| =========                 |                                                 |
| \\      /  F ield         | OpenFOAM: The Open Source CFD Toolbox           |
|  \\    /   O peration     | Version:  2.3.1                                 |
|   \\  /    A nd           | Web:      www.OpenFOAM.org                      |
|    \\/     M anipulation  |                                                 |
\*---------------------------------------------------------------------------*/
FoamFile
{
    version     2.0;
    format      ascii;
    class       volVectorField;
    location    "2520";
    object      D;
}
// * * * * * * * * * * * * * * * * * * * * * * * * * * * * * * * * * * * * * //

dimensions      [0 1 0 0 0 0 0];

internalField   nonuniform List<vector> 
11800
(
(8.0981e-06 0.000231467 0)
(-1.02541e-05 0.000257835 0)
(5.70764e-06 7.80888e-05 0)
(-6.52188e-06 0.000106156 0)
(-9.36896e-06 0.0002574 0)
(-4.22898e-06 0.000106364 0)
(-1.56162e-06 0.000173824 0)
(-1.48733e-06 0.000134062 0)
(6.82296e-07 2.06321e-05 0)
(1.23708e-06 8.099e-05 0)
(8.99269e-06 0.00023092 0)
(-8.12995e-06 9.05181e-05 0)
(-8.03811e-09 -6.39857e-09 0)
(5.07223e-06 7.76185e-05 0)
(-5.78575e-06 0.000106603 0)
(5.60296e-06 1.26655e-05 0)
(-8.78414e-07 0.000173318 0)
(-8.51585e-07 0.000133583 0)
(3.83694e-07 2.08604e-05 0)
(7.61372e-07 8.05897e-05 0)
(-4.97523e-06 0.000105973 0)
(-7.45021e-06 9.08767e-05 0)
(-1.23427e-06 4.48088e-06 0)
(-1.31729e-06 4.66601e-06 0)
(4.99699e-06 1.44651e-05 0)
(-1.97266e-06 7.42584e-06 0)
(-7.97921e-06 5.40814e-05 0)
(1.15386e-05 0.000155832 0)
(-7.11506e-06 4.10488e-05 0)
(-6.16488e-06 2.95347e-05 0)
(1.22179e-05 0.000196912 0)
(5.02362e-08 3.48972e-06 0)
(2.56356e-06 9.54348e-06 0)
(-6.23907e-06 0.000264574 0)
(5.04182e-06 0.000263384 0)
(-1.39394e-05 0.000210261 0)
(4.69601e-06 0.000264291 0)
(2.52284e-06 9.81142e-06 0)
(-1.52699e-06 0.00018357 0)
(1.23972e-06 8.89201e-05 0)
(-7.84541e-06 5.4686e-05 0)
(-7.00284e-06 4.15883e-05 0)
(1.12721e-05 0.000154943 0)
(-6.07485e-06 3.0008e-05 0)
(1.19465e-05 0.000195977 0)
(5.34433e-06 1.27662e-05 0)
(1.41624e-06 5.30469e-06 0)
(1.57911e-06 5.22026e-06 0)
(-2.39259e-06 0.000183727 0)
(1.93521e-06 8.90448e-05 0)
(-1.32554e-05 0.000135836 0)
(-1.41528e-05 0.000175609 0)
(-1.31241e-06 0.000229001 0)
(7.08057e-08 3.31187e-06 0)
(-6.87274e-06 1.50805e-05 0)
(9.36449e-07 7.81912e-07 0)
(-1.73941e-05 0.000268194 0)
(-4.38905e-06 7.5186e-05 0)
(4.99114e-06 0.000109491 0)
(-3.19222e-06 7.2237e-05 0)
(1.86816e-06 2.4896e-06 0)
(-2.25053e-06 0.000229172 0)
(-3.81764e-06 7.50167e-05 0)
(4.35095e-06 0.000109693 0)
(4.68049e-06 1.42443e-05 0)
(-1.66061e-05 0.000237156 0)
(-1.37512e-05 0.000135244 0)
(-1.47323e-05 0.000174959 0)
(-1.65217e-05 0.000267762 0)
(-2.06992e-06 7.66658e-06 0)
(-5.56315e-06 0.000265315 0)
(-9.81185e-06 0.000263882 0)
(-1.00968e-05 0.000262947 0)
(-8.86253e-08 9.99196e-08 0)
(1.99495e-06 2.59634e-06 0)
(-1.3131e-05 0.000210849 0)
(6.1289e-06 1.99735e-05 0)
(-1.68754e-05 0.00023804 0)
(-1.34405e-05 0.000240045 0)
(-1.25578e-05 0.000240846 0)
(-6.55191e-06 1.48745e-05 0)
(9.86699e-07 9.23211e-05 0)
(9.22969e-06 0.00026182 0)
(8.2373e-06 0.000261982 0)
(-1.20438e-06 9.48736e-05 0)
(-5.92305e-06 3.32499e-05 0)
(1.10443e-05 0.000189784 0)
(-6.75798e-06 4.52825e-05 0)
(-7.52212e-06 5.88079e-05 0)
(1.03922e-05 0.000149076 0)
(-3.1264e-07 0.000224062 0)
(2.72548e-06 9.07277e-06 0)
(-8.35327e-06 0.000241589 0)
(1.72369e-05 0.000270242 0)
(2.72856e-06 0.000116927 0)
(-2.14171e-09 -1.62872e-09 0)
(5.53357e-11 -3.45702e-10 0)
(2.14006e-09 -1.62754e-09 0)
(-1.90929e-07 0.000231808 0)
(-7.7184e-06 9.25131e-05 0)
(1.48344e-05 0.000269278 0)
(8.98222e-06 0.000101612 0)
(-3.30882e-06 1.32472e-05 0)
(-7.48721e-07 1.0231e-05 0)
(-4.94652e-07 0.000256249 0)
(9.03374e-07 2.15801e-05 0)
(-1.90647e-06 0.000132108 0)
(-1.98021e-06 0.00017166 0)
(2.89814e-06 4.95785e-06 0)
(6.79974e-06 4.52621e-05 0)
(5.96102e-06 3.32315e-05 0)
(7.56812e-06 5.87848e-05 0)
(-1.12191e-05 0.000189807 0)
(-1.05593e-05 0.000149108 0)
(1.60034e-06 7.93462e-05 0)
(2.29332e-06 4.52158e-06 0)
(1.64403e-05 0.000238122 0)
(-6.74088e-06 0.00024441 0)
(2.33554e-06 4.35685e-06 0)
(-1.13655e-06 8.19939e-05 0)
(-6.83941e-07 2.00889e-05 0)
(1.49387e-06 0.000175097 0)
(1.41863e-06 0.000135204 0)
(-2.08793e-06 0.000167939 0)
(-8.40769e-06 0.000242497 0)
(-7.46802e-07 0.000231087 0)
(-5.40533e-06 0.00025635 0)
(-1.2662e-06 0.000255655 0)
(-1.86664e-05 0.000277055 0)
(-1.93331e-05 0.000276386 0)
(-5.49946e-07 2.48231e-07 0)
(-2.48617e-06 5.85936e-06 0)
(1.13309e-05 0.000184163 0)
(-6.35594e-06 3.63443e-05 0)
(1.06231e-05 0.000143795 0)
(-7.19793e-06 4.87915e-05 0)
(-7.96797e-06 6.2697e-05 0)
(1.0454e-05 0.00018433 0)
(-5.85773e-06 3.62364e-05 0)
(9.80191e-06 0.00014395 0)
(-6.63538e-06 4.86721e-05 0)
(-7.34663e-06 6.2567e-05 0)
(-1.55157e-06 1.86103e-05 0)
(3.66454e-06 0.000178439 0)
(3.42093e-06 0.000138426 0)
(-2.92701e-06 8.46586e-05 0)
(1.41402e-05 9.28942e-05 0)
(-1.40735e-05 9.08757e-05 0)
(8.83507e-06 0.000102347 0)
(-1.04781e-06 1.08554e-05 0)
(-9.2968e-06 0.000223032 0)
(-9.21654e-06 0.00022421 0)
(4.51976e-06 0.000261375 0)
(-1.03956e-05 0.000210553 0)
(4.15422e-06 0.000149002 0)
(4.5053e-06 0.000189684 0)
(-1.15817e-05 0.000167215 0)
(-1.07523e-05 0.000127971 0)
(5.48036e-06 2.37763e-05 0)
(-8.63074e-07 0.0002249 0)
(3.15086e-06 5.04566e-06 0)
(-9.5016e-06 0.00021076 0)
(6.41526e-06 2.02615e-05 0)
(-4.26483e-06 6.11997e-05 0)
(-3.84446e-06 4.74295e-05 0)
(-3.38511e-06 3.51303e-05 0)
(5.77858e-06 0.000145656 0)
(6.15639e-06 0.000186155 0)
(-2.78684e-06 3.46828e-06 0)
(-5.03591e-06 2.28759e-05 0)
(1.07849e-05 0.00016906 0)
(1.00051e-05 0.000129703 0)
(2.39853e-06 0.000171472 0)
(-1.58782e-05 0.000209286 0)
(-1.60382e-05 0.000210537 0)
(5.75454e-06 1.449e-05 0)
(5.76156e-06 1.48883e-05 0)
(6.29302e-06 4.39579e-05 0)
(7.01953e-06 5.73353e-05 0)
(5.50049e-06 3.20829e-05 0)
(-9.93146e-06 0.000151109 0)
(-1.05395e-05 0.000191948 0)
(4.22618e-06 0.000148073 0)
(4.53035e-06 0.000188728 0)
(4.60755e-06 9.05138e-05 0)
(-2.21827e-06 8.44684e-05 0)
(-1.18142e-06 1.87059e-05 0)
(2.7703e-06 0.000178202 0)
(2.58505e-06 0.000138203 0)
(-3.63286e-06 0.000219994 0)
(-1.24034e-06 3.89162e-05 0)
(-1.39734e-06 5.17067e-05 0)
(-1.36667e-05 0.000235337 0)
(-3.82867e-07 8.91318e-06 0)
(-1.32164e-05 0.000111254 0)
(1.14089e-05 7.38999e-05 0)
(1.34348e-07 1.29791e-07 0)
(-8.18575e-06 0.000264994 0)
(1.63256e-05 0.000239078 0)
(-4.79615e-07 2.88325e-07 0)
(1.07488e-05 0.000250543 0)
(1.34307e-05 0.000214234 0)
(1.44058e-05 0.000214409 0)
(-4.3596e-07 0.000257543 0)
(-1.10875e-06 0.000258366 0)
(7.6266e-06 7.21217e-05 0)
(6.73533e-06 7.24395e-05 0)
(-9.01884e-06 0.000113138 0)
(-7.94762e-06 0.000112743 0)
(5.41347e-07 2.44445e-07 0)
(-1.51506e-06 1.30167e-05 0)
(-1.70819e-06 7.26778e-06 0)
(-4.0122e-08 1.51279e-08 0)
(5.1885e-06 8.60644e-06 0)
(-1.24827e-07 3.97333e-08 0)
(6.71344e-07 7.13871e-06 0)
(-9.28265e-06 0.000256193 0)
(-4.52963e-06 3.24557e-05 0)
(-5.16517e-06 4.43951e-05 0)
(-5.75784e-06 5.78264e-05 0)
(8.51161e-06 0.000191186 0)
(8.03893e-06 0.000150408 0)
(5.3798e-07 0.000177873 0)
(4.99878e-07 0.000137893 0)
(-2.46364e-07 1.88393e-05 0)
(-4.65433e-07 8.42182e-05 0)
(-1.8321e-07 3.04766e-08 0)
(6.99489e-07 2.35356e-05 0)
(-1.41223e-06 0.000128211 0)
(-4.22296e-06 8.13598e-05 0)
(9.78288e-07 2.31914e-05 0)
(-1.98209e-06 0.000128886 0)
(-6.34922e-06 0.000242464 0)
(7.85706e-06 9.1173e-05 0)
(7.31951e-06 9.04767e-05 0)
(3.98906e-08 1.50509e-08 0)
(1.82673e-07 3.03974e-08 0)
(-1.22974e-05 0.000225728 0)
(-1.18309e-05 0.000226682 0)
(-1.1659e-05 7.72792e-05 0)
(1.30783e-05 0.00010731 0)
(1.04446e-05 0.000191866 0)
(9.83892e-06 0.000151037 0)
(-5.50674e-06 3.21303e-05 0)
(-6.30274e-06 4.40085e-05 0)
(-7.03046e-06 5.73918e-05 0)
(-3.92022e-07 0.000230165 0)
(-4.65468e-06 2.18894e-05 0)
(1.01948e-05 0.000171165 0)
(9.47193e-06 0.000131656 0)
(6.27266e-06 9.21204e-05 0)
(5.27236e-06 0.000217098 0)
(8.28805e-06 0.000270566 0)
(8.59986e-07 7.03554e-06 0)
(-3.10053e-06 7.29746e-05 0)
(-9.88783e-09 2.60894e-06 0)
(1.243e-07 3.95906e-08 0)
(2.9652e-06 7.69772e-05 0)
(2.55035e-06 7.6178e-05 0)
(-3.23499e-06 0.000107506 0)
(-2.77331e-06 0.000108296 0)
(5.73445e-06 5.78086e-05 0)
(5.14466e-06 4.43791e-05 0)
(4.50142e-06 3.24472e-05 0)
(-8.08456e-06 0.000150409 0)
(-8.58357e-06 0.00019121 0)
(-4.55334e-06 0.000265074 0)
(1.57383e-06 1.9275e-06 0)
(-1.15484e-08 0.000152738 0)
(-2.09624e-08 3.10765e-05 0)
(6.02245e-06 0.000255797 0)
(4.92584e-06 8.98623e-05 0)
(-1.91409e-05 0.000252773 0)
(5.6618e-06 9.27815e-05 0)
(2.24822e-07 1.65774e-07 0)
(1.57238e-05 0.000206708 0)
(1.58147e-05 0.000205551 0)
(-9.64674e-06 0.000131823 0)
(-1.03817e-05 0.000171338 0)
(-8.61949e-06 0.000131493 0)
(-9.27859e-06 0.000170985 0)
(4.6845e-06 2.18089e-05 0)
(4.1993e-06 2.19527e-05 0)
(4.67875e-06 0.00012114 0)
(5.56763e-06 0.000121 0)
(5.07107e-06 0.000159821 0)
(6.0368e-06 0.000159668 0)
(-2.6159e-06 2.73459e-05 0)
(-3.11469e-06 2.74344e-05 0)
(-5.52783e-07 1.2339e-05 0)
(2.77361e-06 7.88242e-06 0)
(2.59666e-06 7.61067e-06 0)
(2.65264e-06 5.76521e-06 0)
(4.50622e-06 0.000218028 0)
(-1.56231e-05 0.000207088 0)
(-1.57067e-05 0.000205887 0)
(5.9419e-06 1.61772e-05 0)
(5.82549e-06 1.57177e-05 0)
(1.24053e-05 9.29145e-05 0)
(1.2572e-05 9.39512e-05 0)
(-1.23397e-05 9.08042e-05 0)
(-1.24053e-05 8.97844e-05 0)
(5.57895e-06 0.0002612 0)
(-1.53326e-05 0.000264598 0)
(-1.47381e-05 0.000222842 0)
(3.51436e-06 3.98409e-06 0)
(-9.01088e-06 0.000261286 0)
(-8.04765e-06 0.000260392 0)
(3.80424e-06 0.000122519 0)
(-2.37723e-06 0.000110163 0)
(2.0986e-06 7.46139e-05 0)
(-1.05836e-05 9.326e-05 0)
(1.03479e-05 9.03708e-05 0)
(-5.06009e-06 1.58984e-05 0)
(-1.49461e-07 9.5275e-08 0)
(7.99572e-07 3.28034e-06 0)
(9.37889e-07 7.95964e-05 0)
(-8.91804e-06 8.01578e-05 0)
(9.56577e-06 0.000103883 0)
(-5.14161e-06 7.30039e-05 0)
(6.07817e-06 0.000112083 0)
(3.0666e-06 0.000194845 0)
(4.23605e-06 0.000194427 0)
(-1.83326e-06 4.216e-05 0)
(-2.52796e-06 4.24131e-05 0)
(-2.05198e-06 5.53415e-05 0)
(-2.82815e-06 5.56233e-05 0)
(4.83637e-07 2.1433e-05 0)
(-1.04682e-06 0.000132403 0)
(-1.05947e-06 0.000171994 0)
(-1.70827e-06 0.000251552 0)
(2.42578e-06 5.72859e-06 0)
(-4.88946e-07 0.000107349 0)
(-7.2858e-06 0.000257848 0)
(1.00919e-06 8.11051e-07 0)
(6.49503e-06 0.000153466 0)
(-3.55917e-06 3.07361e-05 0)
(-1.10234e-05 0.000108481 0)
(-1.03539e-05 0.000107942 0)
(9.63483e-06 7.61952e-05 0)
(9.08132e-06 7.6656e-05 0)
(-1.09062e-05 0.000268866 0)
(-1.10262e-05 0.000267714 0)
(-1.81953e-06 1.2416e-05 0)
(-2.15697e-06 1.23691e-05 0)
(8.75452e-07 3.43769e-06 0)
(-2.07958e-06 3.56725e-06 0)
(5.03135e-07 0.000112624 0)
(3.17633e-06 2.2205e-05 0)
(2.67e-06 2.2346e-05 0)
(-6.48809e-06 0.00013092 0)
(-5.44162e-06 0.000130612 0)
(-6.98595e-06 0.000170377 0)
(-5.86029e-06 0.000170047 0)
(-1.41421e-05 0.000215678 0)
(-1.30877e-05 0.000215764 0)
(-3.11892e-06 6.53477e-05 0)
(-2.88641e-06 5.11672e-05 0)
(-2.56013e-06 3.84381e-05 0)
(4.45742e-06 0.000201285 0)
(-7.77736e-07 0.000227935 0)
(9.3091e-06 9.02843e-05 0)
(8.81329e-06 9.10659e-05 0)
(4.11207e-06 0.000174195 0)
(3.93475e-06 0.000134419 0)
(-1.87762e-06 2.04742e-05 0)
(1.75608e-06 2.29174e-05 0)
(1.44377e-06 2.33625e-05 0)
(-3.21535e-06 0.000167906 0)
(-3.82321e-06 0.000168769 0)
(-3.5445e-06 0.000129442 0)
(-2.89084e-06 0.00012856 0)
(-3.72955e-06 2.10135e-05 0)
(7.75263e-06 0.000133389 0)
(8.33335e-06 0.000173032 0)
(-1.02326e-07 9.73982e-07 0)
(1.38379e-05 0.000102976 0)
(-1.27459e-05 8.12272e-05 0)
(-5.77659e-08 9.06287e-07 0)
(-4.17986e-06 0.000191827 0)
(-4.89998e-06 0.00019288 0)
(-3.83728e-06 0.000151075 0)
(-4.49165e-06 0.000152072 0)
(2.44798e-06 3.14836e-05 0)
(2.10755e-06 3.20349e-05 0)
(2.88895e-06 4.33393e-05 0)
(2.47809e-06 4.39674e-05 0)
(3.22595e-06 5.66561e-05 0)
(2.76404e-06 5.73568e-05 0)
(1.557e-05 0.000216094 0)
(1.58602e-05 0.000217191 0)
(-1.48328e-06 7.32712e-06 0)
(5.8393e-06 0.000154228 0)
(-3.17869e-06 3.03129e-05 0)
(5.1542e-06 2.39804e-05 0)
(-1.00661e-05 0.000127548 0)
(-1.08683e-05 0.000166734 0)
(-1.45534e-07 4.42596e-08 0)
(2.0123e-06 0.000225195 0)
(5.09042e-06 2.28803e-05 0)
(-1.02057e-05 0.000129698 0)
(-1.10108e-05 0.000169018 0)
(3.88206e-06 6.69261e-06 0)
(-7.70382e-06 0.000244058 0)
(4.88928e-06 1.82706e-05 0)
(-1.21575e-05 0.000200419 0)
(-2.62409e-06 9.83472e-06 0)
(-2.79919e-06 1.01949e-05 0)
(2.74073e-06 1.00886e-05 0)
(-1.32482e-06 0.000107183 0)
(-1.02659e-08 -7.55359e-09 0)
(-8.17988e-06 0.000267394 0)
(-1.30473e-07 5.19698e-08 0)
(1.44855e-07 4.40809e-08 0)
(-3.82797e-06 2.21655e-05 0)
(8.31692e-06 0.000170503 0)
(7.72326e-06 0.000131038 0)
(6.40221e-06 0.000225549 0)
(-1.84297e-05 0.000241971 0)
(2.35683e-06 0.00010034 0)
(-1.53182e-06 9.77225e-05 0)
(-4.23874e-07 1.02903e-05 0)
(-1.18829e-06 1.24827e-06 0)
(-7.41075e-09 -6.67239e-09 0)
(-4.61282e-06 7.3684e-05 0)
(5.44811e-06 0.0001113 0)
(4.04079e-07 1.41831e-07 0)
(-6.22051e-07 9.62867e-05 0)
(-5.87388e-07 9.53584e-05 0)
(-2.40738e-08 8.08627e-05 0)
(-1.14524e-07 2.07348e-05 0)
(1.9547e-07 0.000133842 0)
(1.74163e-07 0.000173662 0)
(-4.06442e-07 1.42623e-07 0)
(1.65683e-06 1.11292e-05 0)
(-6.36768e-06 0.000197158 0)
(3.65202e-06 4.08265e-05 0)
(4.09698e-06 5.3846e-05 0)
(4.50062e-06 6.8276e-05 0)
(1.33507e-05 0.000256673 0)
(-4.96164e-06 1.98336e-05 0)
(1.14501e-05 0.00017582 0)
(1.06737e-05 0.000135994 0)
(-7.58562e-06 0.000236784 0)
(1.11781e-06 2.86839e-06 0)
(1.02028e-05 0.000232391 0)
(-2.22047e-06 3.51351e-06 0)
(7.14593e-06 0.000257693 0)
(-5.49053e-06 0.00019718 0)
(3.14329e-06 4.08089e-05 0)
(3.5264e-06 5.38275e-05 0)
(3.87636e-06 6.82521e-05 0)
(9.76379e-07 2.71862e-06 0)
(4.70872e-06 0.000158129 0)
(-2.47214e-06 2.82208e-05 0)
(-8.41486e-07 1.10831e-05 0)
(-1.34175e-05 0.000233216 0)
(-5.01155e-06 6.14258e-05 0)
(-4.51903e-06 4.76351e-05 0)
(-3.98074e-06 3.53133e-05 0)
(6.74642e-06 0.000145418 0)
(7.18833e-06 0.0001859 0)
(1.84041e-05 0.000272015 0)
(1.07101e-05 0.000238747 0)
(1.18755e-05 0.000238337 0)
(1.51931e-07 1.06851e-07 0)
(6.67655e-06 7.3273e-05 0)
(-7.82208e-06 0.000111753 0)
(-3.41056e-06 7.4317e-05 0)
(3.963e-06 0.000110592 0)
(-1.15367e-06 0.000119104 0)
(-8.78009e-07 0.000193078 0)
(5.48714e-07 5.65101e-05 0)
(4.91489e-07 4.32061e-05 0)
(2.44786e-08 3.04374e-05 0)
(-1.98259e-07 0.000115749 0)
(-9.3912e-08 0.000153945 0)
(8.41823e-06 0.000271648 0)
(4.80388e-07 1.14147e-05 0)
(-2.11011e-07 2.64733e-06 0)
(1.607e-06 0.000163414 0)
(8.12254e-08 2.73765e-06 0)
(-1.26152e-06 8.53157e-06 0)
(3.13782e-06 3.03634e-05 0)
(-5.89818e-06 0.000154128 0)
(-1.18837e-07 1.31944e-07 0)
(-1.24283e-05 0.000233107 0)
(-1.04711e-06 2.03395e-05 0)
(2.19769e-06 0.000174586 0)
(2.18103e-06 0.00013468 0)
(2.84215e-07 6.82621e-08 0)
(-3.72567e-06 6.80287e-06 0)
(4.07886e-06 5.51762e-05 0)
(3.64404e-06 4.20152e-05 0)
(-6.26237e-06 0.000195126 0)
(1.20526e-06 7.66005e-05 0)
(-8.41162e-06 0.000263956 0)
(-1.42913e-07 2.00502e-08 0)
(-4.87233e-06 1.06315e-05 0)
(3.15834e-06 5.86186e-06 0)
(-3.18893e-06 3.51128e-06 0)
(9.37148e-06 9.19334e-05 0)
(7.11828e-06 0.000111775 0)
(-6.13621e-06 7.3248e-05 0)
(4.36761e-07 3.01274e-05 0)
(-1.02667e-06 0.000116187 0)
(-8.60451e-07 0.000154517 0)
(8.92359e-06 0.000229755 0)
(8.32411e-06 0.00010067 0)
(4.32013e-06 0.000265993 0)
(4.1615e-06 0.000266985 0)
(1.20337e-06 0.000111255 0)
(1.64837e-06 7.60282e-05 0)
(1.42485e-07 1.99981e-08 0)
(-1.20118e-05 0.000208361 0)
(4.39944e-06 1.51676e-05 0)
(1.51841e-08 2.11319e-07 0)
(2.29113e-06 0.000148929 0)
(2.99665e-06 0.000149444 0)
(4.14934e-09 1.84761e-08 0)
(-2.32017e-06 5.67225e-06 0)
(5.71275e-06 5.6097e-05 0)
(5.11141e-06 4.28436e-05 0)
(4.45836e-06 3.10547e-05 0)
(-8.18762e-06 0.000152748 0)
(-8.68016e-06 0.00019377 0)
(7.56865e-06 9.58246e-05 0)
(1.09568e-06 0.000225436 0)
(-4.89936e-06 0.000254169 0)
(-4.63917e-06 0.000255508 0)
(-4.81416e-07 0.000196199 0)
(-4.14202e-07 0.000197275 0)
(3.30261e-07 4.07175e-05 0)
(3.00638e-07 4.13181e-05 0)
(3.70259e-07 5.37285e-05 0)
(3.36627e-07 5.44011e-05 0)
(2.40297e-07 6.81455e-05 0)
(2.88756e-07 6.88638e-05 0)
(5.88507e-07 0.000111625 0)
(1.08685e-06 0.000113412 0)
(1.89211e-06 0.000172561 0)
(-4.91334e-07 0.000118813 0)
(-2.85128e-07 6.84651e-08 0)
(-3.18581e-07 2.52494e-06 0)
(4.14654e-06 0.000157292 0)
(-2.19791e-06 2.86571e-05 0)
(1.11169e-06 3.50308e-06 0)
(1.62072e-05 0.000257933 0)
(-1.24525e-06 0.000198134 0)
(7.65988e-07 4.02606e-05 0)
(8.5995e-07 5.32163e-05 0)
(8.45899e-07 6.75518e-05 0)
(-1.24022e-05 0.000216791 0)
(4.27776e-06 7.78372e-05 0)
(6.31526e-06 0.000273756 0)
(7.14296e-06 0.000273148 0)
(-1.25383e-06 8.79642e-06 0)
(-7.96781e-07 0.000151939 0)
(4.11931e-07 3.15186e-05 0)
(1.86603e-07 1.9189e-07 0)
(1.59031e-05 0.000265198 0)
(-2.21907e-07 4.45586e-06 0)
(-3.01536e-06 4.56735e-05 0)
(-3.35448e-06 5.92534e-05 0)
(-4.01246e-06 5.98736e-05 0)
(-3.61019e-06 4.62331e-05 0)
(-2.61476e-06 3.35684e-05 0)
(-3.16183e-06 3.40746e-05 0)
(5.25859e-06 0.000147469 0)
(5.59859e-06 0.000188092 0)
(2.31756e-06 3.17898e-06 0)
(-1.49549e-07 9.12371e-08 0)
(-1.37414e-05 0.000179515 0)
(-1.43139e-05 0.000264658 0)
(4.66703e-06 0.000113323 0)
(-4.07201e-07 4.55938e-06 0)
(-7.4414e-06 0.000147202 0)
(-7.9163e-06 0.000187799 0)
(4.26532e-06 3.42806e-05 0)
(4.85258e-06 4.64629e-05 0)
(5.39048e-06 6.01253e-05 0)
(6.88045e-06 0.000226296 0)
(1.56376e-05 0.000266139 0)
(-8.4515e-06 9.27568e-05 0)
(3.49492e-06 3.07278e-05 0)
(-6.53955e-06 0.00015346 0)
(4.46516e-06 0.000114202 0)
(-1.70779e-06 8.14924e-05 0)
(4.51778e-06 5.56447e-05 0)
(4.03928e-06 4.24355e-05 0)
(-6.9019e-06 0.000194425 0)
(-1.25607e-05 9.38184e-05 0)
(1.22388e-05 8.99681e-05 0)
(1.22379e-05 9.09678e-05 0)
(-1.23964e-05 9.27568e-05 0)
(-5.84619e-06 1.57091e-05 0)
(-6.01677e-06 1.61964e-05 0)
(-5.83116e-06 9.09549e-05 0)
(-3.00499e-06 3.59531e-06 0)
(-9.42911e-06 9.16499e-05 0)
(-1.38273e-06 0.000218045 0)
(-1.23044e-06 1.48147e-06 0)
(9.48493e-06 5.35643e-05 0)
(8.4516e-06 4.05935e-05 0)
(-1.33348e-05 0.000137016 0)
(2.15502e-06 5.56793e-05 0)
(1.92704e-06 4.24627e-05 0)
(-3.31774e-06 0.000194337 0)
(4.46799e-06 1.35554e-05 0)
(7.36333e-06 0.000110873 0)
(-6.3903e-06 7.40319e-05 0)
(-3.54558e-06 4.00287e-06 0)
(3.77332e-06 0.000173249 0)
(3.60817e-06 0.000133573 0)
(-1.74229e-06 2.0877e-05 0)
(1.09576e-05 0.000163628 0)
(-5.41584e-06 2.55017e-05 0)
(1.01242e-05 0.000124673 0)
(-6.1846e-06 1.55009e-05 0)
(7.71613e-06 0.000254679 0)
(8.85104e-06 0.000254308 0)
(8.52777e-06 0.000193776 0)
(8.0857e-06 0.000152764 0)
(-4.45495e-06 3.11432e-05 0)
(-5.08324e-06 4.28392e-05 0)
(-5.68194e-06 5.60922e-05 0)
(-1.29632e-06 1.28453e-06 0)
(-6.78937e-06 0.000236542 0)
(7.40013e-06 0.000151076 0)
(-4.14076e-06 3.20743e-05 0)
(-7.87985e-07 9.87362e-07 0)
(6.31863e-06 0.000257526 0)
(1.56436e-06 1.29266e-06 0)
(1.29784e-06 9.80581e-07 0)
(3.28089e-06 4.69445e-06 0)
(7.64181e-06 0.000207107 0)
(-1.29605e-05 0.000212792 0)
(1.7235e-05 0.000258261 0)
(3.32232e-06 4.9342e-06 0)
(7.57915e-06 0.000100639 0)
(1.03733e-05 0.000219561 0)
(-1.66871e-05 0.000207641 0)
(6.18533e-06 1.55348e-05 0)
(-3.8376e-06 0.000220937 0)
(1.55971e-06 5.58517e-05 0)
(1.39518e-06 4.26165e-05 0)
(-2.41191e-06 0.000194073 0)
(-5.85988e-07 2.82776e-06 0)
(4.42272e-06 0.000119544 0)
(1.29074e-07 5.14586e-08 0)
(-5.15123e-06 1.0529e-05 0)
(-9.09637e-07 9.83278e-05 0)
(-2.30272e-06 1.90796e-05 0)
(-2.67942e-06 1.92051e-05 0)
(5.02893e-06 0.000137427 0)
(5.83934e-06 0.000137173 0)
(6.25945e-06 0.000177094 0)
(5.39003e-06 0.000177368 0)
(1.51747e-07 5.71793e-07 0)
(-4.07438e-08 7.1069e-06 0)
(-9.06183e-06 0.000123518 0)
(-9.8166e-06 0.000162381 0)
(4.86687e-06 2.61024e-05 0)
(-2.87379e-06 1.55654e-05 0)
(-1.70396e-06 0.000166946 0)
(-2.60905e-06 6.68395e-06 0)
(5.28375e-06 0.000255086 0)
(-4.28307e-06 8.37952e-05 0)
(-4.96161e-06 8.35849e-05 0)
(1.48847e-07 1.519e-07 0)
(-2.83978e-06 8.66541e-05 0)
(-1.44949e-06 1.75574e-05 0)
(3.29601e-06 0.000140783 0)
(3.52454e-06 0.000180961 0)
(-3.97284e-06 0.000166973 0)
(-3.4996e-06 0.000127704 0)
(1.77034e-06 2.38065e-05 0)
(2.36499e-06 8.96304e-06 0)
(2.19665e-06 8.63837e-06 0)
(1.13152e-06 8.35514e-05 0)
(-1.48438e-06 0.000177029 0)
(-1.39249e-06 0.000137088 0)
(6.13194e-07 1.92096e-05 0)
(-1.36828e-06 3.30383e-05 0)
(-2.45689e-06 6.87011e-06 0)
(9.85021e-06 0.000261068 0)
(-9.63084e-06 0.000156339 0)
(7.42773e-06 7.37404e-05 0)
(-8.66265e-06 0.000111229 0)
(1.05002e-05 0.00022055 0)
(-9.69584e-06 6.77984e-05 0)
(-8.83802e-06 5.34065e-05 0)
(1.18146e-05 0.000118374 0)
(-7.87196e-06 4.04503e-05 0)
(-6.82001e-06 2.90328e-05 0)
(1.28902e-05 0.000156826 0)
(1.36217e-05 0.000198013 0)
(-3.54715e-06 0.000189502 0)
(-3.33933e-06 0.000148799 0)
(2.1314e-06 4.53793e-05 0)
(1.86974e-06 3.33214e-05 0)
(2.37161e-06 5.89278e-05 0)
(2.03798e-06 4.60298e-05 0)
(-3.36948e-06 0.000188442 0)
(2.26517e-06 5.96505e-05 0)
(1.79039e-06 3.38932e-05 0)
(-3.1701e-06 0.000147802 0)
(-1.8767e-06 0.000240252 0)
(-3.83106e-06 5.03543e-06 0)
(-4.1411e-06 2.35817e-05 0)
(8.71559e-06 0.000167497 0)
(8.07592e-06 0.000128249 0)
(-2.60139e-06 3.17332e-05 0)
(4.69119e-06 0.000151653 0)
(1.2931e-05 0.000187776 0)
(1.21521e-05 0.000147192 0)
(-7.04618e-06 3.4371e-05 0)
(-8.01662e-06 4.65509e-05 0)
(-8.90457e-06 6.02113e-05 0)
(1.3624e-05 0.000204901 0)
(1.48706e-05 0.000204642 0)
(3.35804e-07 6.06663e-06 0)
(-1.38409e-06 9.67238e-05 0)
(-3.70485e-06 1.02649e-05 0)
(1.89957e-07 3.56612e-07 0)
(-3.64515e-06 1.30308e-05 0)
(-5.85909e-07 0.000218479 0)
(1.50478e-07 5.80636e-06 0)
(-3.00381e-06 0.000103629 0)
(1.23591e-05 0.000137097 0)
(-5.66164e-06 1.93659e-05 0)
(1.32469e-05 0.000176998 0)
(-1.25807e-08 -8.71677e-09 0)
(8.18559e-07 0.00016357 0)
(2.38918e-07 1.00733e-07 0)
(1.63027e-07 1.20732e-07 0)
(2.18959e-06 0.000117632 0)
(-2.73072e-07 2.21791e-07 0)
(1.00668e-05 0.000263018 0)
(7.45609e-07 0.000149401 0)
(-4.08273e-07 3.29382e-05 0)
(2.21674e-06 1.3264e-05 0)
(1.38058e-06 0.000148938 0)
(-7.88892e-07 3.31784e-05 0)
(-1.34931e-07 2.94479e-06 0)
(-9.49018e-06 5.35377e-05 0)
(-8.45479e-06 4.05704e-05 0)
(-7.32608e-06 2.91453e-05 0)
(-6.09948e-06 1.94127e-05 0)
(1.33045e-05 0.000137045 0)
(1.38251e-05 0.000156655 0)
(1.42606e-05 0.000176939 0)
(1.4615e-05 0.000197833 0)
(-6.48095e-06 0.00021342 0)
(-5.75994e-06 0.000253676 0)
(-1.85965e-05 0.000209529 0)
(6.74816e-06 1.48785e-05 0)
(4.2353e-06 0.000268916 0)
(4.92783e-06 0.000267758 0)
(1.31346e-06 0.000145647 0)
(1.42428e-06 0.000186169 0)
(-1.02744e-06 6.1271e-05 0)
(-9.25979e-07 4.74903e-05 0)
(-8.15109e-07 3.51797e-05 0)
(-5.36818e-06 1.55419e-05 0)
(1.95306e-06 1.11514e-05 0)
(-7.23411e-06 6.41823e-05 0)
(9.52323e-06 0.000141768 0)
(-6.54772e-06 5.01338e-05 0)
(-5.79696e-06 3.75303e-05 0)
(1.01729e-05 0.000182003 0)
(-4.07844e-06 1.72207e-05 0)
(1.03003e-05 0.000203063 0)
(1.7314e-06 9.2652e-05 0)
(-1.08964e-06 0.000226789 0)
(1.07699e-06 5.3891e-07 0)
(-7.99545e-07 0.000199179 0)
(5.06447e-07 3.96621e-05 0)
(5.69059e-07 5.2545e-05 0)
(5.27095e-07 6.68124e-05 0)
(3.21785e-06 0.000234945 0)
(-4.46452e-07 2.8389e-07 0)
(1.63464e-05 0.000231188 0)
(-2.46802e-06 9.81872e-05 0)
(-7.5384e-08 1.62821e-07 0)
(5.84701e-06 0.000139567 0)
(-2.5993e-06 1.81187e-05 0)
(6.25658e-06 0.000179657 0)
(1.30068e-07 1.01862e-07 0)
(-3.48741e-06 2.18533e-05 0)
(7.08782e-06 0.000131648 0)
(7.62912e-06 0.000171161 0)
(1.21341e-06 1.59743e-06 0)
(-4.99627e-06 8.56415e-05 0)
(1.04837e-06 9.15568e-05 0)
(-1.13332e-05 0.000247062 0)
(1.03683e-06 0.000146439 0)
(1.10525e-06 0.000186993 0)
(-8.68643e-07 6.06823e-05 0)
(-6.86255e-07 3.47135e-05 0)
(-7.82144e-07 4.69589e-05 0)
(1.67669e-06 9.33356e-05 0)
(-2.39297e-07 9.12523e-07 0)
(-2.12289e-07 3.09888e-06 0)
(4.88865e-07 0.000218124 0)
(1.11599e-05 0.000100342 0)
(-1.0491e-05 8.35917e-05 0)
(-7.95699e-06 0.00027643 0)
(-1.80536e-05 0.000180754 0)
(-1.68902e-05 0.000140621 0)
(-1.75233e-05 0.000160353 0)
(-1.61516e-05 0.000121672 0)
(8.9061e-06 2.73078e-05 0)
(1.03393e-05 3.84272e-05 0)
(1.16537e-05 5.11163e-05 0)
(1.2855e-05 6.52419e-05 0)
(1.80039e-05 0.000180751 0)
(1.74741e-05 0.000160353 0)
(-8.93108e-06 2.73093e-05 0)
(-1.03686e-05 3.84296e-05 0)
(1.68413e-05 0.00014062 0)
(-1.1688e-05 5.11181e-05 0)
(1.61058e-05 0.000121671 0)
(-1.28932e-05 6.52439e-05 0)
(-5.1672e-06 1.51083e-05 0)
(-2.80547e-06 0.000226307 0)
(-2.00311e-06 0.000226092 0)
(-2.49039e-06 0.000256266 0)
(4.1111e-06 0.000155357 0)
(-2.22134e-06 2.96888e-05 0)
(-8.00769e-07 1.18498e-06 0)
(-3.22016e-06 0.000270826 0)
(-3.54173e-06 5.84729e-05 0)
(-4.33745e-06 5.82533e-05 0)
(-3.18007e-06 4.49715e-05 0)
(-3.89335e-06 4.47755e-05 0)
(5.20861e-06 0.000190509 0)
(6.25789e-06 0.000190598 0)
(1.37644e-05 0.000187289 0)
(1.29313e-05 0.000146736 0)
(-7.52927e-06 3.46533e-05 0)
(-8.56023e-06 4.68684e-05 0)
(-9.5035e-06 6.05611e-05 0)
(-8.35207e-06 0.000123953 0)
(-9.04443e-06 0.000162853 0)
(4.46003e-06 2.58537e-05 0)
(-2.63175e-06 0.000111041 0)
(2.22218e-06 7.38635e-05 0)
(2.70913e-06 0.000195892 0)
(-1.60345e-06 4.1478e-05 0)
(-1.79711e-06 5.45793e-05 0)
(-1.94526e-06 6.89381e-05 0)
(5.15297e-06 7.29854e-05 0)
(4.36523e-06 7.31715e-05 0)
(-6.06183e-06 0.000112056 0)
(-5.1341e-06 0.000111826 0)
(-6.09691e-06 0.0002688 0)
(4.1388e-07 1.13796e-06 0)
(1.0116e-05 0.00023144 0)
(3.64889e-06 8.10482e-05 0)
(9.92034e-06 0.000160184 0)
(-5.07893e-06 2.72201e-05 0)
(9.14113e-06 0.000121491 0)
(-8.5252e-06 9.71384e-05 0)
(2.07463e-06 2.0618e-05 0)
(-4.75552e-06 0.000173826 0)
(-4.42903e-06 0.000134125 0)
(5.84378e-07 8.43213e-05 0)
(-7.43911e-07 0.000138 0)
(-7.90412e-07 0.000178003 0)
(3.13443e-07 1.87901e-05 0)
(5.73657e-06 7.63845e-05 0)
(-6.55406e-06 0.000108133 0)
(-3.1387e-06 0.000240249 0)
(-1.45007e-05 0.000237955 0)
(2.58617e-06 0.000103163 0)
(6.50655e-06 0.000103486 0)
(-5.31253e-06 2.00382e-05 0)
(1.22003e-05 0.000175386 0)
(1.13697e-05 0.000135591 0)
(-5.91681e-07 2.51461e-06 0)
(-1.96994e-06 0.000200561 0)
(1.09099e-06 3.88675e-05 0)
(1.22834e-06 5.16521e-05 0)
(1.34397e-06 6.58389e-05 0)
(-3.00938e-06 9.77086e-05 0)
(-1.34419e-05 0.000238035 0)
(-3.89216e-06 3.89145e-05 0)
(-4.38364e-06 5.16996e-05 0)
(-4.81627e-06 6.59173e-05 0)
(6.83819e-06 0.000200491 0)
(1.26007e-08 1.65547e-08 0)
(8.42705e-06 9.63619e-05 0)
(1.06821e-07 7.57528e-06 0)
(-4.04791e-07 7.07818e-07 0)
(-8.40346e-07 3.25281e-06 0)
(-4.01461e-06 1.38952e-05 0)
(-4.1353e-07 1.52272e-07 0)
(1.66062e-06 4.39217e-05 0)
(1.45879e-06 3.20205e-05 0)
(1.85223e-06 5.73069e-05 0)
(-2.81889e-06 0.000191892 0)
(-2.67083e-06 0.000151089 0)
(-8.20959e-06 7.99852e-05 0)
(8.87322e-06 0.000104107 0)
(-8.1936e-07 4.83772e-07 0)
(1.07562e-05 0.000254766 0)
(7.75535e-06 0.000227961 0)
(-1.65502e-05 0.000214592 0)
(6.12738e-06 0.000102689 0)
(2.2033e-06 0.00011151 0)
(-4.17393e-06 0.000270704 0)
(-1.16088e-05 0.000116813 0)
(-1.10429e-05 0.000116299 0)
(1.63225e-05 0.000270624 0)
(-1.31744e-06 0.000241445 0)
(-3.68442e-06 7.35662e-05 0)
(4.40314e-06 0.000111488 0)
(1.32963e-07 7.84051e-06 0)
(2.04458e-06 2.77433e-06 0)
(4.10431e-07 1.51162e-07 0)
(3.89072e-06 0.000118766 0)
(1.43841e-05 0.000276172 0)
(-7.89771e-06 0.000191926 0)
(-7.43612e-06 0.000151084 0)
(4.11028e-06 3.20588e-05 0)
(5.25105e-06 5.732e-05 0)
(4.70739e-06 4.39391e-05 0)
(-1.50619e-07 1.05679e-07 0)
(-6.01845e-07 0.000251294 0)
(7.37908e-06 0.000103791 0)
(-6.73652e-06 8.0391e-05 0)
(-1.18286e-05 0.000245209 0)
(-1.76588e-05 0.000181677 0)
(-1.71437e-05 0.000161245 0)
(-1.65316e-05 0.000141482 0)
(-1.5814e-05 0.000122497 0)
(8.63504e-06 2.68406e-05 0)
(1.00408e-05 3.78879e-05 0)
(1.133e-05 5.05105e-05 0)
(1.25087e-05 6.45753e-05 0)
(1.76075e-05 0.000181671 0)
(1.70946e-05 0.000161244 0)
(-8.65933e-06 2.68439e-05 0)
(-1.00689e-05 3.78917e-05 0)
(1.64806e-05 0.000141479 0)
(-1.13629e-05 5.05139e-05 0)
(1.57667e-05 0.000122492 0)
(-1.25454e-05 6.45792e-05 0)
(-2.60583e-06 3.50645e-06 0)
(1.02497e-06 9.67536e-07 0)
(-1.37238e-06 2.51747e-06 0)
(6.56924e-06 0.000101844 0)
(-7.22933e-06 0.000104859 0)
(1.30716e-06 1.58019e-06 0)
(-2.03243e-07 3.39658e-08 0)
(-1.59153e-05 0.000215108 0)
(9.09435e-06 0.00027339 0)
(1.02076e-05 0.000273905 0)
(2.02705e-07 3.38904e-08 0)
(2.94212e-06 3.93314e-06 0)
(1.42497e-05 0.000248908 0)
(-5.4356e-06 0.000115888 0)
(-3.60133e-07 3.16586e-07 0)
(-8.14654e-07 1.26832e-06 0)
(-1.27368e-07 3.25857e-08 0)
(2.38353e-07 1.85995e-07 0)
(1.47594e-05 9.24288e-05 0)
(-1.47457e-05 9.13634e-05 0)
(4.52471e-06 6.97674e-05 0)
(-5.57129e-06 0.000113776 0)
(4.69792e-06 7.15528e-05 0)
(-2.46914e-07 4.19491e-06 0)
(-3.43205e-06 0.00018164 0)
(2.70468e-06 8.72246e-05 0)
(-1.9199e-06 0.000179674 0)
(-1.83807e-06 0.000139477 0)
(7.89821e-07 1.81283e-05 0)
(1.48247e-06 8.56483e-05 0)
(-6.06124e-06 0.0001153 0)
(3.13538e-06 4.16664e-06 0)
(5.06915e-06 7.02923e-05 0)
(1.87469e-06 0.00010332 0)
(1.43204e-05 0.000257036 0)
(-4.381e-06 0.00010417 0)
(-5.03569e-06 0.000104875 0)
(-4.11506e-06 8.81347e-06 0)
(-4.88348e-06 0.000108195 0)
(-4.17779e-06 0.000107447 0)
(4.33472e-06 7.62595e-05 0)
(3.8064e-06 7.70087e-05 0)
(-4.60459e-06 2.13957e-05 0)
(9.48983e-06 0.000132664 0)
(1.02061e-05 0.000172249 0)
(-1.27771e-06 1.42677e-06 0)
(-6.0726e-06 0.000114378 0)
(5.1043e-06 7.10738e-05 0)
(-3.87205e-06 0.000147045 0)
(-4.1188e-06 0.000187637 0)
(2.2093e-06 3.4336e-05 0)
(2.79061e-06 6.0207e-05 0)
(2.51269e-06 4.65318e-05 0)
(-2.03167e-06 9.51803e-06 0)
(-1.26667e-05 0.000155045 0)
(-1.20038e-05 0.000154557 0)
(6.73846e-06 2.9971e-05 0)
(6.40933e-06 3.02304e-05 0)
(8.33564e-06 0.000123159 0)
(9.16563e-06 0.000122554 0)
(-4.54312e-06 2.62851e-05 0)
(-5.02973e-06 2.6632e-05 0)
(9.03358e-06 0.000161994 0)
(9.93801e-06 0.000161337 0)
(-3.64927e-06 0.000239369 0)
(7.24924e-06 0.000218622 0)
(7.3538e-06 0.000217603 0)
(-5.40025e-06 7.15596e-05 0)
(6.30861e-06 0.000113748 0)
(-1.9062e-05 0.000266652 0)
(-5.49529e-06 0.000212812 0)
(-5.27786e-06 0.000211817 0)
(1.84496e-06 1.38182e-05 0)
(1.89647e-06 1.34672e-05 0)
(1.64332e-05 0.000215172 0)
(-7.29899e-06 9.17318e-05 0)
(-6.26756e-06 9.17637e-05 0)
(1.62578e-05 0.000242888 0)
(-1.64647e-05 0.000256025 0)
(-1.64435e-05 0.000257243 0)