/*--------------------------------*- C++ -*----------------------------------*\
| =========                 |                                                 |
| \\      /  F ield         | OpenFOAM: The Open Source CFD Toolbox           |
|  \\    /   O peration     | Version:  2.3.1                                 |
|   \\  /    A nd           | Web:      www.OpenFOAM.org                      |
|    \\/     M anipulation  |                                                 |
\*---------------------------------------------------------------------------*/
FoamFile
{
    version     2.0;
    format      ascii;
    class       volScalarField;
    location    "0.64";
    object      k;
}
// * * * * * * * * * * * * * * * * * * * * * * * * * * * * * * * * * * * * * //

dimensions      [0 2 -2 0 0 0 0];

internalField   nonuniform List<scalar> 
15166
(
1.07916
1.32431
1.70741
2.10977
2.42105
2.7316
2.95353
3.08646
3.13278
3.11037
3.0268
2.91531
1.07952
1.2957
1.71124
2.102
2.41266
2.70205
2.90349
3.01964
3.05553
3.02821
2.94589
2.82558
1.08755
1.26416
1.69583
2.07995
2.38993
2.66268
2.84852
2.95204
2.98074
2.95004
2.86782
2.74426
1.09809
1.23885
1.67422
2.05152
2.35866
2.6173
2.79076
2.88474
2.90834
2.87524
2.7923
2.66389
1.10949
1.21979
1.6511
2.02089
2.32316
2.56917
2.73222
2.81868
2.8385
2.80375
2.72032
2.59121
1.12181
1.20528
1.62761
1.98941
2.28549
2.52001
2.67404
2.75441
2.77132
2.73536
2.65147
2.52112
1.13507
1.19425
1.60437
1.95772
2.24668
2.47071
2.61684
2.69215
2.70675
2.66983
2.58521
2.45189
1.14908
1.18605
1.58189
1.92625
2.20749
2.42189
2.56099
2.63201
2.64473
2.60712
2.52223
2.38958
1.16361
1.18018
1.56053
1.89547
2.16854
2.37398
2.50673
2.57405
2.5852
2.54713
2.46228
2.33043
1.17849
1.17619
1.54041
1.86554
2.13022
2.32729
2.45422
2.51826
2.52809
2.48978
2.40548
2.27622
1.19357
1.17375
1.52157
1.83659
2.09274
2.28195
2.40353
2.46462
2.47333
2.435
2.35177
2.22604
1.20876
1.17253
1.50394
1.80867
2.05626
2.23805
2.35465
2.41306
2.42082
2.38275
2.30136
2.18147
1.22395
1.1723
1.48749
1.78177
2.02087
2.19564
2.30757
2.36351
2.37046
2.33288
2.25379
2.13982
1.23907
1.1729
1.47215
1.75589
1.98661
2.15469
2.26224
2.3159
2.32217
2.28518
2.20789
2.09435
1.25405
1.17409
1.45785
1.73105
1.9535
2.1152
2.21861
2.27014
2.27584
2.2396
2.16447
2.05571
1.26884
1.17579
1.44446
1.70718
1.92152
2.07714
2.17662
2.22615
2.23137
2.19595
2.12308
2.01819
1.28338
1.17785
1.43192
1.68427
1.89067
2.04045
2.13621
2.18386
2.18867
2.15413
2.08346
1.98174
1.29764
1.18019
1.42017
1.6623
1.86094
2.00511
2.09731
2.14317
2.14764
2.11402
2.04545
1.94655
1.31159
1.18274
1.40912
1.64119
1.83226
1.97104
2.05984
2.10401
2.10819
2.07551
2.00909
1.91361
1.32519
1.1854
1.39871
1.62092
1.80462
1.93821
2.02374
2.06631
2.07023
2.03852
1.97422
1.882
1.33842
1.18816
1.38888
1.60145
1.77796
1.90655
1.98895
2.02997
2.03368
2.00291
1.94056
1.85044
1.35127
1.19094
1.37955
1.58275
1.75227
1.87601
1.9554
1.99495
1.99846
1.9686
1.90801
1.81973
1.36372
1.19372
1.37071
1.56475
1.72748
1.84655
1.92304
1.96117
1.9645
1.9355
1.87644
1.7894
1.37576
1.19647
1.36228
1.54744
1.70358
1.81813
1.89181
1.92857
1.93172
1.90352
1.84586
1.76016
1.38736
1.19918
1.35423
1.53079
1.68052
1.79069
1.86166
1.8971
1.90007
1.8726
1.81625
1.732
1.39853
1.20181
1.34652
1.51476
1.65827
1.76419
1.83254
1.86669
1.86948
1.8427
1.78759
1.70496
1.40926
1.20435
1.33912
1.49928
1.63678
1.73859
1.8044
1.8373
1.8399
1.81377
1.75993
1.67928
1.41956
1.20682
1.33201
1.48437
1.61603
1.71385
1.7772
1.80888
1.81128
1.78577
1.73325
1.65508
1.4294
1.20918
1.32515
1.46998
1.59597
1.68994
1.75088
1.78138
1.78357
1.75868
1.70749
1.63157
1.4388
1.21144
1.31853
1.45607
1.57659
1.6668
1.72543
1.75475
1.75674
1.73244
1.68253
1.60843
1.44775
1.21361
1.31209
1.44262
1.55785
1.64442
1.70078
1.72897
1.73075
1.70702
1.65839
1.58618
1.45624
1.21566
1.30586
1.42961
1.53971
1.62275
1.67692
1.70399
1.70556
1.68238
1.63496
1.56443
1.46428
1.21762
1.2998
1.41702
1.52216
1.60178
1.6538
1.67978
1.68113
1.65849
1.61225
1.54355
1.47191
1.21949
1.29392
1.40482
1.50517
1.58146
1.6314
1.65631
1.65744
1.63531
1.59023
1.52315
1.47904
1.22124
1.28818
1.39301
1.48871
1.56177
1.60968
1.63354
1.63446
1.61282
1.56886
1.50349
1.48577
1.22291
1.2826
1.38153
1.47275
1.54268
1.58861
1.61145
1.61214
1.59098
1.54812
1.4843
1.49205
1.22448
1.27715
1.37041
1.45728
1.52417
1.56817
1.59
1.59046
1.56976
1.528
1.46604
1.4979
1.22597
1.27184
1.35959
1.44227
1.50622
1.54833
1.56917
1.56941
1.54915
1.50848
1.44844
1.50333
1.22738
1.26665
1.34908
1.42771
1.48879
1.52907
1.54894
1.54895
1.52914
1.48953
1.431
1.50834
1.22871
1.26157
1.33886
1.41358
1.47187
1.51037
1.52929
1.52907
1.50969
1.47117
1.41465
1.51288
1.22997
1.25661
1.32893
1.39986
1.45545
1.49221
1.51019
1.50973
1.49075
1.45313
1.39694
1.51699
1.23114
1.25174
1.31926
1.38653
1.4395
1.47455
1.49161
1.49092
1.47231
1.43545
1.37961
1.52066
1.23221
1.24699
1.30986
1.37358
1.424
1.4574
1.47355
1.47262
1.45435
1.41824
1.36367
1.5239
1.23316
1.24233
1.30071
1.36099
1.40893
1.44071
1.45598
1.45481
1.43684
1.40147
1.34791
1.52673
1.23399
1.23778
1.29181
1.34875
1.39428
1.42449
1.43889
1.43746
1.41979
1.38515
1.33294
1.52915
1.23468
1.23334
1.28316
1.33684
1.38002
1.40871
1.42225
1.42057
1.40316
1.36921
1.31787
1.53116
1.23526
1.22899
1.27473
1.32524
1.36617
1.39335
1.40605
1.40411
1.38695
1.35373
1.30389
1.53278
1.23571
1.22474
1.26652
1.31394
1.35269
1.3784
1.39027
1.38806
1.37115
1.33863
1.28986
1.53401
1.23604
1.22056
1.25851
1.30295
1.33957
1.36384
1.37489
1.37242
1.35573
1.32392
1.27658
1.53485
1.23628
1.21646
1.2507
1.29226
1.32678
1.34965
1.3599
1.35715
1.34067
1.30953
1.26311
1.53532
1.23643
1.21243
1.24309
1.28185
1.31434
1.33583
1.34528
1.34225
1.32598
1.2955
1.2503
1.53542
1.23652
1.20847
1.23565
1.27171
1.30222
1.32237
1.33103
1.32772
1.31163
1.28182
1.23784
1.53514
1.23651
1.20458
1.2284
1.26183
1.29041
1.30925
1.31714
1.31354
1.29763
1.26842
1.22517
1.53451
1.23645
1.20076
1.22131
1.25221
1.2789
1.29646
1.30359
1.2997
1.28396
1.25537
1.21337
1.53352
1.23631
1.197
1.21439
1.24283
1.26769
1.284
1.29037
1.2862
1.27062
1.24266
1.202
1.53219
1.23609
1.1933
1.20763
1.23368
1.25676
1.27184
1.27748
1.27301
1.25759
1.23029
1.19101
1.53052
1.23578
1.18968
1.20103
1.22476
1.24611
1.26
1.26491
1.26015
1.24488
1.2182
1.17994
1.5285
1.23544
1.18612
1.19458
1.21606
1.23573
1.24844
1.25264
1.2476
1.23247
1.20639
1.16918
1.52616
1.235
1.18263
1.18829
1.20758
1.2256
1.23718
1.24068
1.23535
1.22035
1.19479
1.15791
1.52347
1.23453
1.17921
1.18214
1.1993
1.21573
1.22619
1.229
1.22339
1.20851
1.18345
1.14743
1.52046
1.23399
1.17586
1.17613
1.19122
1.2061
1.21547
1.2176
1.2117
1.19693
1.17239
1.13757
1.51713
1.23339
1.17257
1.17026
1.18334
1.19671
1.20502
1.20648
1.2003
1.18563
1.16162
1.12801
1.51348
1.23273
1.16935
1.16453
1.17565
1.18754
1.19481
1.19563
1.18916
1.1746
1.1511
1.11836
1.50951
1.23203
1.1662
1.15894
1.16815
1.1786
1.18487
1.18504
1.17829
1.16382
1.14082
1.10894
1.50523
1.23128
1.16312
1.15349
1.16083
1.16989
1.17516
1.17471
1.16768
1.1533
1.13074
1.09947
1.50063
1.2305
1.16012
1.14817
1.1537
1.16139
1.16569
1.16462
1.15733
1.14302
1.12088
1.09035
1.49574
1.22966
1.15718
1.14298
1.14674
1.15309
1.15646
1.15479
1.14722
1.13297
1.11123
1.08122
1.49052
1.22877
1.15433
1.13793
1.13996
1.14501
1.14745
1.14519
1.13735
1.12315
1.10178
1.07253
1.485
1.22788
1.15156
1.13302
1.13334
1.13713
1.13867
1.13583
1.12771
1.11356
1.09255
1.06397
1.4792
1.22691
1.14886
1.12824
1.1269
1.12944
1.1301
1.12669
1.11831
1.10419
1.08354
1.05572
1.47309
1.22592
1.14624
1.12359
1.12063
1.12195
1.12175
1.11778
1.10913
1.09504
1.07472
1.04741
1.46668
1.22487
1.14369
1.11907
1.11452
1.11464
1.1136
1.10909
1.10017
1.0861
1.06607
1.03942
1.45999
1.2238
1.14123
1.11468
1.10857
1.10753
1.10566
1.10061
1.09142
1.07737
1.05765
1.03162
1.45299
1.22272
1.13887
1.11045
1.10279
1.10061
1.09792
1.09234
1.08289
1.06884
1.04941
1.02392
1.4457
1.22159
1.13657
1.10633
1.09718
1.09386
1.09038
1.08428
1.07457
1.06052
1.04135
1.01644
1.43814
1.22041
1.13436
1.10235
1.09172
1.0873
1.08304
1.07643
1.06645
1.05239
1.03347
1.00888
1.4303
1.21917
1.13224
1.09851
1.08643
1.08092
1.07589
1.06878
1.05854
1.04446
1.02575
1.00152
1.42215
1.21792
1.13019
1.09481
1.0813
1.07472
1.06893
1.06132
1.05082
1.03672
1.0182
0.994253
1.41372
1.21666
1.12826
1.09125
1.07634
1.0687
1.06217
1.05407
1.04331
1.02917
1.01081
0.987218
1.40502
1.21535
1.12641
1.08783
1.07154
1.06286
1.05559
1.047
1.03599
1.0218
1.00359
0.980206
1.39603
1.21401
1.12465
1.08456
1.0669
1.05719
1.0492
1.04013
1.02885
1.01461
0.996536
0.973524
1.38676
1.21262
1.12298
1.08142
1.06243
1.0517
1.04299
1.03345
1.0219
1.00759
0.989641
0.967038
1.37722
1.21119
1.1214
1.07843
1.05812
1.04639
1.03696
1.02696
1.01515
1.00076
0.982934
0.960624
1.3674
1.20973
1.11993
1.07559
1.05399
1.04126
1.03113
1.02066
1.00858
0.994125
0.976395
0.954261
1.35729
1.20825
1.11856
1.07291
1.05002
1.03631
1.02548
1.01454
1.0022
0.987657
0.970013
0.948172
1.34692
1.20671
1.11728
1.07038
1.04623
1.03154
1.02001
1.00861
0.996005
0.981371
0.963797
0.942087
1.33629
1.2051
1.11609
1.06801
1.04261
1.02695
1.01473
1.00287
0.989991
0.975252
0.957731
0.936346
1.32537
1.20346
1.11501
1.06579
1.03918
1.02254
1.00963
0.997316
0.984164
0.969327
0.951862
0.930635
1.31417
1.2018
1.11403
1.06374
1.03592
1.01833
1.00473
0.991952
0.978524
0.96358
0.94616
0.925122
1.30269
1.20011
1.11316
1.06187
1.03285
1.0143
1.00001
0.986773
0.973068
0.958004
0.94059
0.919446
1.29094
1.19835
1.11239
1.06015
1.02997
1.01046
0.995485
0.98178
0.967791
0.9526
0.935209
0.914571
1.27891
1.19656
1.11172
1.05861
1.02728
1.00682
0.991155
0.976984
0.962719
0.947416
0.930076
0.909694
1.26663
1.19468
1.11117
1.05725
1.02479
1.00338
0.987023
0.972386
0.957834
0.942399
0.925082
0.904933
1.25406
1.19279
1.11071
1.05606
1.0225
1.00014
0.983093
0.967983
0.953141
0.93757
0.920268
0.900218
1.24123
1.19081
1.11037
1.05506
1.02042
0.997117
0.979367
0.963782
0.948643
0.932927
0.915617
0.895642
1.22813
1.18874
1.11012
1.05424
1.01854
0.994304
0.975851
0.959785
0.944347
0.928485
0.911153
0.891134
1.21476
1.18663
1.11001
1.05363
1.01689
0.991713
0.97255
0.955997
0.940247
0.924219
0.906831
0.886866
1.20109
1.1845
1.11
1.05322
1.01547
0.98935
0.969469
0.952418
0.936353
0.920155
0.902715
0.882719
1.18717
1.18222
1.11011
1.05301
1.01428
0.987218
0.966615
0.949057
0.932668
0.916287
0.89877
0.878775
1.17296
1.1799
1.11032
1.05301
1.01334
0.985334
0.963995
0.945924
0.929201
0.912632
0.895042
0.87496
1.15848
1.1775
1.11065
1.05323
1.01264
0.983695
0.961614
0.943016
0.925943
0.909168
0.891482
0.871465
1.14372
1.17506
1.1111
1.05367
1.0122
0.982318
0.959482
0.940343
0.922913
0.905926
0.888142
0.868146
1.12867
1.17254
1.11166
1.05434
1.01204
0.981211
0.957615
0.937926
0.92013
0.90293
0.885048
0.86496
1.11336
1.16991
1.11233
1.05524
1.01214
0.980388
0.956017
0.935761
0.917589
0.900159
0.882176
0.862069
1.09778
1.16714
1.11313
1.05638
1.01253
0.979858
0.954695
0.933859
0.915292
0.89762
0.879524
0.859484
1.08191
1.16431
1.11405
1.05778
1.01323
0.979633
0.953666
0.932232
0.913257
0.895345
0.877142
0.857025
1.06577
1.16134
1.11508
1.05943
1.01423
0.979722
0.952944
0.930894
0.911488
0.893302
0.874944
0.854834
1.04934
1.15829
1.11622
1.06134
1.01557
0.980151
0.952544
0.929862
0.91001
0.891544
0.873029
0.852812
1.03262
1.15521
1.11749
1.06354
1.01725
0.980936
0.952488
0.929149
0.908832
0.890071
0.871382
0.851045
1.01562
1.15192
1.11889
1.06603
1.01928
0.982091
0.952793
0.928769
0.907964
0.888876
0.869967
0.849454
0.998331
1.14856
1.12043
1.06881
1.02171
0.983645
0.953477
0.928752
0.907435
0.888001
0.868878
0.8482
0.98075
1.14511
1.12207
1.0719
1.02452
0.985609
0.954564
0.929114
0.907262
0.887471
0.868132
0.847362
0.9629
1.14139
1.12384
1.0753
1.02774
0.988021
0.956078
0.929882
0.907479
0.887331
0.8678
0.846816
0.944754
1.13762
1.12574
1.07903
1.03139
0.990886
0.958043
0.931063
0.908073
0.887511
0.867682
0.846158
0.926317
1.13374
1.12773
1.08311
1.0355
0.994237
0.960474
0.93268
0.909057
0.888037
0.867876
0.846007
0.907604
1.12962
1.12989
1.08752
1.04008
0.998099
0.963409
0.934771
0.910484
0.888994
0.868525
0.846378
0.888581
1.12543
1.13215
1.09232
1.04517
1.00253
0.966894
0.93738
0.912388
0.890381
0.869524
0.847052
0.869269
1.12095
1.13458
1.09751
1.0508
1.00755
0.970977
0.940554
0.914827
0.89228
0.871062
0.848377
0.84966
1.11632
1.13709
1.10309
1.05701
1.01321
0.9757
0.944335
0.917833
0.894723
0.873136
0.850279
0.829782
1.11161
1.13974
1.1091
1.06383
1.01955
0.981113
0.94878
0.921451
0.897744
0.875768
0.852521
0.809606
1.10664
1.14253
1.11555
1.07129
1.02663
0.987254
0.953913
0.925698
0.901289
0.878745
0.854696
0.789118
1.10143
1.14548
1.12247
1.07943
1.0345
0.9942
0.959801
0.930642
0.905479
0.88236
0.857888
0.768345
1.09595
1.14856
1.12989
1.08832
1.04323
1.00203
0.966544
0.936392
0.910444
0.886794
0.862027
0.747294
1.09044
1.15177
1.13785
1.09803
1.05289
1.01083
0.974214
0.942982
0.91615
0.89179
0.866449
0.725926
1.08454
1.15517
1.14638
1.1086
1.0636
1.0207
0.982907
0.950525
0.922719
0.89761
0.871592
0.70426
1.07838
1.15876
1.15557
1.12015
1.07545
1.03176
0.992742
0.959116
0.930216
0.904209
0.877497
0.682313
1.07217
1.16257
1.16545
1.13279
1.08859
1.04416
1.00388
0.968918
0.938821
0.911858
0.884432
0.660028
1.06555
1.16669
1.17618
1.14666
1.1032
1.05807
1.01648
0.980066
0.948651
0.920592
0.892111
0.637426
1.05876
1.17118
1.18787
1.16197
1.11947
1.0737
1.03072
0.99269
0.959783
0.930498
0.901071
0.61445
1.05172
1.1762
1.20083
1.17897
1.13768
1.09129
1.04679
1.00696
0.972327
0.941583
0.910994
0.591101
1.04469
1.18214
1.21539
1.19809
1.15816
1.11114
1.06495
1.02309
0.986512
0.954192
0.922432
0.567263
1.03782
1.18957
1.23224
1.21984
1.18134
1.13356
1.08546
1.04126
1.00243
0.968232
0.935026
0.54287
1.03238
1.19969
1.25233
1.24485
1.20762
1.1588
1.10846
1.06163
1.02017
0.98373
0.948609
0.517797
1.03187
1.21575
1.27804
1.27443
1.23785
1.18758
1.13472
1.08476
1.0402
1.00097
0.963613
0.488285
1.03317
1.23063
1.30434
1.30265
1.26677
1.21533
1.16114
1.10814
1.06117
1.0191
0.980049
1.0407
0.00468008
0.34742
0.321804
0.320741
0.28891
0.279332
0.646843
0.830969
0.777931
0.567792
0.00777927
0.0326162
3.01863
0.27707
0.00354998
2.83099
0.110619
0.107655
0.00348339
0.140585
0.176122
0.144821
0.0269067
1.05615
0.346508
0.160017
0.375055
0.604659
0.812988
0.53808
1.16682
0.00420062
0.55828
0.0311396
0.165941
0.387303
0.470852
0.39305
0.00818295
0.0704799
0.0033773
0.0716736
0.531594
0.268448
0.173096
0.0608484
0.0248532
0.271386
0.140032
0.164096
0.634586
0.262997
0.00321463
1.98788
0.00444691
0.0106635
0.00337424
0.47155
0.266436
0.15574
1.19157
0.0032091
0.0168826
0.1836
0.00453281
0.888897
0.252361
1.53223
0.689197
1.88401
0.0535757
0.383405
0.72913
0.0273707
0.00323014
0.797591
0.00309478
0.0702104
0.241062
0.103478
0.00310386
0.405744
0.295303
0.0163657
1.11908
0.884543
0.00319468
0.390996
0.23779
0.353799
0.653804
0.00319826
0.00392207
0.456862
0.00326193
0.362495
0.0128421
0.00317208
0.899055
1.10873
0.203697
0.00335325
0.00434061
0.00312134
0.514837
0.512251
0.689486
0.533176
0.00886244
0.0944764
0.00312705
0.202572
0.00372681
0.00318215
0.219924
0.019524
0.219993
1.09333
0.176127
1.0245
0.0293423
1.69984
0.199701
0.125668
1.29235
0.00405453
1.96535
0.0323849
0.00320012
0.231678
0.00323636
0.233184
0.0043454
0.162788
0.00514925
0.233313
0.595962
0.208028
0.0058572
0.0170209
0.145385
0.269573
0.0254538
0.174606
1.89733
0.298921
0.00454291
0.983108
0.374165
0.0640838
0.214047
0.00309227
0.114723
0.156549
0.00314728
0.248543
0.003202
1.27998
0.00708529
0.0270421
0.00356927
0.128084
0.0132883
0.149779
0.0844462
0.984658
0.291703
0.335189
0.00307307
1.88825
0.758522
1.99267
0.0179158
0.00305944
0.574585
0.00311686
0.305934
0.138027
0.719701
1.00917
0.438053
0.0629265
0.37121
0.0033904
0.262746
0.00317802
0.00315336
0.175349
0.00318555
0.487622
0.00310671
0.936801
0.0047575
0.284102
0.296508
0.271769
0.165145
0.00312702
3.17555
1.01996
0.318216
0.413987
0.217262
0.324906
0.105015
0.0915475
0.228934
0.703502
0.21698
0.288262
0.900082
0.500565
0.396575
0.00315442
0.283577
0.0129681
0.42744
3.25237
0.210308
0.294667
1.02111
0.338901
0.00315697
0.0031882
1.30874
1.1184
0.00327022
4.2062
0.0324076
0.312489
0.121387
0.00311783
0.947487
0.414204
0.253646
0.246316
1.07899
0.656998
0.322201
0.154774
0.161399
1.25518
1.68696
0.375293
0.281825
0.227981
0.00350597
1.39595
0.289875
0.650698
0.726845
0.37896
3.95179
0.236705
0.240418
0.21044
0.310505
0.578067
0.341717
0.216423
0.258168
0.0157559
0.0899672
0.683917
0.261858
0.922069
0.506963
0.36139
1.49128
0.288104
0.050288
1.63947
0.209098
0.208349
1.69586
0.242286
0.260472
0.301822
0.203602
0.866181
0.238757
0.372659
0.331606
0.614218
0.273145
0.4745
0.207983
1.12081
0.128591
0.201678
1.66874
0.226326
0.224879
0.283013
0.919839
0.119714
0.206075
0.067774
0.480366
0.183644
0.106141
1.36669
2.05757
0.154299
0.954111
0.323524
0.00318779
0.201467
0.16612
0.211165
0.28892
0.00315766
1.18634
0.320043
0.0673976
0.225815
0.762338
0.00315194
0.638771
0.0388435
0.579577
0.422674
4.92985
0.503347
0.758449
0.5391
0.00313881
0.00316296
0.285047
0.447195
0.00307749
0.517297
0.00311578
0.0031623
0.00322465
0.00311707
0.140398
0.0031637
0.00580785
1.03855
0.5123
0.003229
0.334973
0.00987166
0.19585
0.295646
1.28833
4.14644
0.481127
0.00301095
0.00323876
0.0819585
0.134224
0.208969
0.0030643
0.0988735
0.31584
0.87857
0.377781
0.177648
0.273298
1.02609
4.08659
0.157122
0.325536
0.0036491
0.00318514
0.159085
0.258136
0.116373
0.173463
0.505848
2.744
1.69549
0.143827
0.343371
1.01421
0.00319835
0.419837
0.753644
0.00527049
0.00316291
0.520382
3.82731
0.734979
0.00308019
0.048928
0.154767
0.0256731
0.00319885
0.833394
0.382691
0.277378
0.282031
0.00374825
3.81433
0.00314286
0.235829
0.544826
0.00649071
0.0111336
0.962731
0.00879743
1.40937
0.767077
1.15119
0.653583
0.172243
0.681602
0.00313953
0.00309426
0.00317226
1.03845
0.0754682
1.2625
2.76261
0.164714
0.592063
0.00317912
0.0109257
0.274333
0.00308087
0.00317183
0.703334
0.00306836
0.227931
0.91645
0.371906
0.00302994
0.00749526
0.110589
0.116053
0.237031
0.144973
0.00310504
3.34349
0.836839
0.109497
0.0123935
0.327388
0.199604
0.00711827
0.279664
0.00690467
0.846255
0.00352821
0.250307
0.133135
0.00311625
1.30278
0.238424
0.322182
0.00930168
0.471295
0.144122
0.00516827
0.217478
0.490096
0.352348
1.10892
0.0240649
0.0509005
0.0115464
1.31217
0.676437
0.0630454
0.137582
0.163219
0.334921
0.182166
0.511035
1.1034
0.00304567
2.04946
0.91498
0.22664
0.00309809
0.267646
0.963234
0.0255402
0.436741
0.34887
0.256774
0.126719
0.177136
0.25943
0.00358645
0.0189259
0.875664
0.0391546
0.00438481
0.923018
4.08774
0.0395622
0.199889
0.788985
0.0904696
0.491435
0.259216
0.843754
0.321201
0.290979
0.00323008
0.0851846
0.447597
0.382344
1.33291
0.214165
1.42373
0.937611
3.75208
0.888734
0.31054
0.00316689
1.26405
0.204165
0.80171
0.416483
0.163776
0.0844173
0.42655
0.00321466
0.297438
0.00317781
0.340864
0.421637
0.213241
0.175069
1.2723
0.241275
1.04349
0.642776
1.97778
0.00321794
0.123862
0.933262
2.44932
0.196093
0.717553
0.0036172
0.028247
0.350281
1.85835
0.592228
0.00310244
0.0582265
0.00312257
0.0586923
0.351314
0.037585
0.84683
0.142975
0.589652
0.155841
0.125202
1.23016
0.709045
0.00319514
0.00319639
0.257769
1.21777
0.275638
0.598508
0.441264
0.667504
0.266633
0.00302342
0.187563
0.253729
0.00485937
1.04937
0.265186
0.176373
0.274332
0.0127532
0.00302463
0.0237202
0.00313934
0.647199
0.817792
0.709546
0.63819
0.00319306
1.47827
0.0898872
0.742949
0.135473
1.73236
0.00867513
0.154665
0.00307428
0.497144
0.71671
0.315651
0.40961
0.0030069
1.30177
0.805994
0.510931
0.00311652
0.0709177
0.81397
0.617967
0.00610457
2.17326
0.00373911
0.805246
0.61464
0.0036302
0.131744
0.0877326
0.202518
0.00310546
0.00319887
1.15777
0.431724
0.322117
0.526604
0.00488084
0.128051
0.0982818
0.768971
0.208425
0.00395864
0.209068
1.20891
0.00307799
0.00821259
0.286309
0.635105
1.11622
0.0031581
0.729483
0.221374
1.30866
0.0298753
0.151752
0.816499
0.00319986
0.199384
0.137925
0.376255
0.383364
0.726075
0.27657
1.21709
1.17702
0.282367
2.70766
0.00323658
0.00315036
1.49711
0.783653
0.00475882
0.00315674
0.473411
0.00320625
0.823776
0.540441
0.248056
0.00311694
0.808213
0.053031
0.291409
1.21613
0.235411
0.148536
0.145234
1.34687
0.0031921
0.285561
0.981623
0.234541
0.557312
0.00673606
0.533446
0.263318
2.03174
0.00313014
0.148923
0.683755
0.305788
0.00332103
0.0952979
0.342184
0.439232
1.26976
0.0592645
1.87648
0.40635
0.0928398
0.404965
0.00313422
0.00737528
0.363054
0.00306756
0.1753
0.00316529
0.244709
0.0107785
0.839634
0.00321719
0.110645
0.49397
1.61078
0.356927
0.669934
0.163595
2.44859
0.0156034
0.0934941
0.57185
0.00309936
0.00320601
0.380335
0.156047
0.248862
0.390768
0.00328419
0.216262
0.218749
0.20101
0.492366
1.14826
0.200076
0.00319667
1.88295
2.42481
0.506895
0.00323832
0.0108347
2.09392
0.260424
0.00311983
1.29445
0.00310059
0.0804686
2.74577
0.00354817
0.291541
0.00314941
0.0566214
0.751429
0.00324368
0.00401705
0.00318308
0.00379997
0.02168
3.81126
0.805143
0.0939086
0.242143
0.00316397
0.76556
0.0031734
0.248064
0.232752
0.0247988
0.159763
0.0139109
1.15107
0.00318443
4.32702
0.218277
0.629213
0.35157
0.163029
0.00309676
0.1934
1.09775
0.129337
0.752519
0.886096
1.69381
0.349812
0.0419617
0.627896
0.0840766
0.00406576
0.1067
2.47089
1.14893
0.120014
0.00846453
0.297499
0.00375591
0.443723
0.872052
1.08654
0.842959
0.89634
0.0372003
0.00583191
0.325982
0.22451
0.0483649
0.269496
0.00316116
0.261376
1.9658
0.00330254
1.69703
0.783303
0.114534
0.101939
1.45074
0.0236549
0.101415
0.457687
0.310687
0.294134
0.00322322
0.673997
0.0763063
0.27138
0.383127
0.199044
0.223027
0.00685736
0.688992
0.00317337
0.00316055
0.228472
0.104964
0.160167
1.9187
0.00303327
1.14084
0.0646104
0.0578787
0.00338881
1.72242
0.363861
0.0899668
0.784611
0.0598018
1.16009
0.154624
0.00314252
1.19384
2.08944
0.00546388
0.0087634
0.203566
1.03763
0.0993748
1.32474
0.0352599
0.233512
0.104148
0.156978
0.681005
0.203264
0.00318776
1.17583
0.328877
0.0151642
0.197114
4.25598
0.276462
0.00317662
0.00307079
0.764158
0.184078
1.01366
0.00306549
0.715155
0.29596
0.408496
0.00376694
0.314003
0.77736
0.00538488
0.258583
0.00321639
1.12341
0.211099
0.345391
0.262362
0.00314612
0.00314548
0.345557
1.40592
0.38597
0.732505
0.00302799
0.0454084
0.0032083
0.00626192
1.15986
0.0742172
0.0971206
0.124892
0.325377
0.305709
0.356476
1.21029
0.00317283
0.304338
0.732071
0.245566
0.00319247
0.943183
0.00320555
0.00316624
0.0885919
0.211994
0.0251616
1.36396
0.203236
2.8023
0.00328522
0.00476029
0.0397769
0.903271
0.30606
0.962739
0.00316826
0.00314854
0.00629164
0.00835916
1.10578
0.805846
0.640756
0.123543
0.0448949
0.315546
0.164208
0.57807
0.275874
0.879559
0.312612
0.00308098
0.33298
0.00536886
0.194637
0.889089
0.184411
0.231719
0.1333
0.00380966
1.34384
0.516352
0.489084
0.314534
0.00315936
0.588638
0.762559
0.334203
0.00825248
0.913113
0.479541
0.838579
0.328769
0.336684
0.590128
0.120062
0.861579
0.258607
0.0979672
0.236259
0.00317894
1.21453
0.862554
0.00311821
0.684685
0.00477401
0.538049
0.204622
0.237268
0.266692
0.730719
0.953181
0.262309
0.131369
0.174755
0.219549
0.0125464
0.00310407
1.02788
0.0615859
0.938025
0.549805
0.224623
0.834629
0.544979
0.00314509
0.278252
1.53428
1.06108
0.226809
0.239303
0.570711
1.89725
0.190821
0.234676
0.0249313
0.0837579
0.546908
1.19627
0.111639
0.842166
0.821312
0.785951
0.23983
0.231322
0.425507
0.6927
0.00319155
1.94171
0.669912
0.205009
0.00319069
0.592503
0.474471
0.294876
0.00317438
0.591407
0.00317258
0.243212
0.0912318
0.00319457
0.823324
0.347652
0.00310567
0.531878
0.373562
0.608892
0.258808
0.519384
0.279644
0.705968
0.169206
0.157383
0.00312932
0.00470827
0.343426
0.173405
0.024328
0.00322964
0.354899
0.00604329
0.119783
0.118556
0.445745
0.207248
0.057497
0.0943233
0.549422
1.63707
0.329532
4.11884
0.870184
0.00311845
0.541079
0.589063
1.67752
0.00312663
0.173385
0.00318786
0.00359159
0.277283
0.289792
0.039131
0.00340826
0.806086
3.7262
0.00739239
0.00317653
0.12932
0.263041
0.0240205
0.0740502
3.85303
0.140586
0.00339061
0.00317761
0.969208
0.262621
0.135717
0.059292
0.651857
1.13166
0.392039
0.247355
0.679534
0.00317322
0.502307
0.00315978
0.231097
0.27422
5.38266
0.178326
0.0898067
0.00382909
1.18567
0.0031945
0.00313404
0.00585737
0.272527
0.287288
0.977128
0.00314931
0.507701
0.00317251
0.692933
0.97726
0.00320493
0.725389
0.225063
0.00317312
0.00330209
0.0319694
1.10734
0.383684
0.0264351
0.0031745
0.0031327
0.848848
0.685866
0.327466
0.75396
0.117758
0.438707
0.00314897
0.0103098
0.382897
0.810795
0.759511
0.00887598
0.00317631
0.397865
0.00319772
0.203649
0.805842
0.353953
0.0431412
0.20087
0.506434
0.157239
0.00316975
0.513346
1.33288
0.648222
0.00644093
0.030607
0.690383
3.69256
0.0548484
0.37371
0.00311028
0.00308662
0.00321468
0.0187779
0.401773
1.07556
0.0106791
0.220963
0.633968
1.23462
0.206222
0.0197128
0.0079665
0.00758002
0.158535
0.171373
0.236789
0.00322348
1.34464
0.00314333
0.0136506
0.84438
0.853029
0.0364525
0.372726
0.468144
0.00409996
0.130324
0.255676
0.0031548
0.00378137
1.12398
0.00365649
0.0032248
0.707226
0.235373
2.09315
0.209265
2.41318
0.00356025
0.00311458
3.24582
0.296052
0.225237
0.498434
0.0604031
0.232638
0.1965
1.0213
0.814684
0.588457
0.58217
0.233364
0.111225
0.321593
0.72851
0.0146491
0.351355
0.00392247
0.439656
0.366684
0.107068
0.384333
0.188558
0.413345
0.207942
0.262182
1.11066
0.459678
0.215612
0.317318
0.710839
0.3262
0.00421339
0.00315953
0.110999
2.22848
0.00316167
1.78894
0.00312465
0.00989774
0.340469
0.221509
0.82059
0.68064
0.90295
1.14002
0.522644
0.386284
0.00316724
0.290831
1.05825
0.00323919
1.24783
0.00714264
1.70952
0.94077
1.13402
0.274175
0.206241
0.283964
0.0918504
0.284532
1.23621
0.360738
0.780235
0.169826
0.203107
0.0853786
0.231787
0.954719
0.00955249
0.666491
0.00319427
0.00393389
0.300202
1.51842
0.338434
0.273871
0.164438
0.110683
0.121762
0.0034692
0.341079
0.00346722
0.706375
0.00341834
0.0580694
0.943396
0.171792
0.306301
0.334159
0.318439
0.00623958
0.00321491
0.0992457
0.266845
0.114829
0.517125
0.0424977
0.366001
0.240407
0.374547
0.791936
0.00359435
0.00314781
1.68917
0.226572
0.172015
0.811095
0.688266
0.81771
0.00987915
1.6854
0.335798
0.213181
0.00347802
0.19695
0.403711
0.205465
0.207741
0.266035
0.0032306
0.472962
0.00313414
0.628393
0.010674
0.439934
0.118067
0.409637
0.00324326
6.54571
0.00319251
1.51064
0.025633
0.00317523
0.0145933
0.274993
0.0031708
0.00318046
0.396913
0.0328105
0.327491
0.0569865
0.00332665
0.218979
0.186483
0.445027
0.00334123
0.224019
0.189937
1.35632
0.707294
0.394664
0.415612
0.215745
0.306643
0.77872
0.832229
0.211253
0.00322413
0.145044
0.362393
0.306285
0.0047178
0.00856095
0.234323
1.57404
0.00318406
0.206295
1.2355
0.00305008
0.849729
0.935901
0.357313
0.594761
0.796968
0.259128
0.130051
2.5909
0.411583
0.88537
0.821871
0.222435
0.10751
0.0031663
0.42048
0.00587451
0.00321786
0.00313426
0.300483
0.00316628
0.00373378
0.53777
4.05844
0.40695
0.212647
0.833914
0.239593
0.00318234
0.165935
1.14395
0.0252624
0.164364
1.01908
0.313006
0.125607
0.0312131
0.00314371
0.00316818
0.0272991
0.0449184
0.302828
0.299996
1.23639
0.267413
0.268777
0.00395548
0.503371
0.213622
0.0032118
0.342804
3.37885
0.00320851
0.362733
1.0168
0.739479
0.656234
0.189877
1.10329
0.00356307
0.210227
0.00331898
0.0063366
0.00320971
0.835228
0.56857
0.074138
0.00319328
0.00307303
1.11331
0.386833
0.289223
0.235307
0.354568
0.435311
0.306092
0.34997
0.350039
0.0031772
0.151181
0.123618
0.136324
0.385293
1.05928
0.767819
0.590835
0.363232
1.11615
0.826558
0.963145
0.416027
0.881473
0.0647117
0.825367
0.39318
0.0281192
1.01268
0.855892
0.447203
0.00311412
0.00320084
0.00361082
0.00444257
0.472238
0.00304521
0.49435
0.165092
0.996386
0.766839
0.00317142
0.474269
0.283351
0.186884
0.276007
0.390346
0.552737
0.00326543
0.00319927
0.00911223
0.100529
0.00313252
0.637535
0.267334
0.253039
0.76043
0.514619
0.441397
0.532105
0.00316787
0.319243
0.669132
0.00381457
0.0789441
0.409227
0.315015
0.53762
0.193285
0.00325607
0.37557
0.358449
0.0038528
0.0204919
0.0031579
0.178789
0.00440684
0.143966
1.28757
0.111601
0.0735152
1.00144
1.81235
0.00326947
0.628956
0.00305227
0.224976
0.346936
0.247799
0.484201
0.691016
0.676934
0.802332
1.22354
0.74683
0.00317862
0.00314518
0.0531817
0.101387
0.606607
0.172313
0.00319371
1.58822
0.253979
0.00825333
0.78852
0.0587044
0.00816874
0.0403913
0.997795
0.00646966
0.003195
0.258381
0.205953
0.640869
0.118254
0.226225
0.202943
0.00321397
0.291333
0.0902773
0.060033
0.00337582
0.202592
0.53439
0.173663
1.44932
1.33535
0.316586
0.413414
0.00316339
0.359719
0.00319511
2.73032
0.0103364
0.430729
0.094238
0.840423
0.0163768
0.00933718
0.248379
0.307772
1.30283
0.00356466
0.212142
0.482242
0.609096
0.185545
0.999392
0.120686
0.00343511
0.00320506
0.479169
0.63562
1.06302
0.289457
0.0848848
0.530374
0.328532
0.819083
0.0460118
0.00316921
0.00318277
0.122287
0.707426
0.689925
0.993102
0.00353341
0.0109607
0.167984
0.452395
0.268483
0.759186
0.349925
0.879213
0.00319888
0.00320958
1.13663
0.275257
0.885357
2.87799
0.359999
0.0246361
1.41153
0.00318408
1.02331
0.0277215
0.0308298
0.00317113
0.0418011
0.0845688
0.837373
0.794286
0.00322673
0.758406
0.00316013
0.601094
1.56609
0.00314505
0.157375
0.00322657
0.259038
0.127541
0.174708
0.00308787
0.262057
0.211772
0.257336
1.02367
0.170227
1.22478
0.217519
0.833562
0.237363
1.11763
0.638023
0.00384252
0.00320865
0.37546
0.195129
0.823723
0.00317726
2.1118
0.00315893
0.00478216
0.0389349
0.00316026
1.14235
0.974604
0.00324379
0.665469
0.256683
0.102528
0.709357
0.00608349
0.0031292
0.422967
0.385982
0.00977418
0.77646
6.66908
1.35832
0.155341
1.19736
0.104348
0.00318524
0.00368816
0.0351784
0.13707
0.844325
1.09013
1.31564
0.7957
0.53163
0.509198
0.257833
0.652048
1.94381
0.591117
0.0430506
0.0783232
0.278804
1.50665
0.00338242
0.194294
0.655476
0.333471
0.00317286
0.423949
0.00305911
0.0138654
0.843745
0.0033876
0.298125
1.8499
0.00318984
0.35264
0.00351441
0.337265
0.0141159
0.0040673
0.767097
0.255192
0.915562
0.39976
1.12068
1.64652
0.489663
0.175872
0.752187
0.388512
0.0031157
0.577491
0.0585334
1.24006