/*--------------------------------*- C++ -*----------------------------------*\
| =========                 |                                                 |
| \\      /  F ield         | OpenFOAM: The Open Source CFD Toolbox           |
|  \\    /   O peration     | Version:  2.3.1                                 |
|   \\  /    A nd           | Web:      www.OpenFOAM.org                      |
|    \\/     M anipulation  |                                                 |
\*---------------------------------------------------------------------------*/
FoamFile
{
    version     2.0;
    format      ascii;
    class       volSymmTensorField;
    location    "80";
    object      sigma;
}
// * * * * * * * * * * * * * * * * * * * * * * * * * * * * * * * * * * * * * //

dimensions      [1 -1 -2 0 0 0 0];

internalField   nonuniform List<symmTensor> 
11800
(
(11254.3 41496.7 2.9515e-15 -1733.11 1.68382e-15 2362.4)
(-10165.3 45125 4.55992e-15 -5527.1 1.57587e-15 -3893.61)
(4609.51 26671.1 2.58214e-18 482.584 -3.69732e-15 1263.45)
(-14388.4 31186.4 0 6003.09 0 -2080.57)
(-9543.99 43159 8.57569e-16 -9770.74 -2.58911e-15 -4792.38)
(-10967.5 35562.4 3.2634e-15 3925.13 1.83243e-15 -1747.35)
(151.425 42708.2 5.91628e-15 -884.773 -1.65978e-15 -181.958)
(1672.18 35169.1 -8.72269e-16 2017.23 3.82603e-15 915.415)
(773.341 39256.2 2.0335e-15 434.073 -1.52833e-15 299.584)
(1578.02 29055.3 -3.33224e-15 2632.92 -2.97857e-15 1044.82)
(13895.4 41373.5 -2.4488e-15 -2509.8 2.25731e-15 2824.99)
(-16447 27097.4 -3.07044e-15 -1051.07 -1.49062e-15 -4341.62)
(2799.41 -4203.08 1.5402e-17 -7672.64 1.18716e-17 -1209.15)
(5431.33 27395.4 2.8638e-15 1089.25 -8.52181e-16 1617.89)
(-12451.7 32675 -2.21741e-15 6846.04 1.8568e-15 -1390.89)
(82684.5 20196.2 0 2053.97 0 21025.3)
(380.985 42623.2 1.99987e-15 -1372.05 1.95216e-16 -245.903)
(1377.43 35306.1 -1.11119e-15 -915.849 7.01641e-15 114.527)
(-2229.47 42308.3 -1.99327e-15 -2321.39 1.54922e-15 -1129.16)
(1040.6 28141.4 -4.44146e-15 2855.72 -1.51074e-15 966.757)
(-14240.3 33525.3 1.31628e-15 4682.01 1.4753e-15 -2371.62)
(-12946 29625.3 2.15676e-15 -981.356 -1.33107e-15 -3455.65)
(-66189.7 52147.7 -2.39286e-15 1510.09 1.79762e-15 -16048.3)
(-60389.9 47636 3.99103e-17 870.655 4.96327e-16 -14767.9)
(54332.3 28801.8 -4.2711e-17 137.589 3.06661e-15 13515.1)
(-62144.5 46952.9 -2.22585e-15 -1105.22 -1.31463e-16 -15693.5)
(-12120.8 22835.2 0 -1061.2 0 -3270.71)
(29304.9 28871.9 -3.38597e-15 -5530.45 -2.17734e-15 5898.92)
(-17386.9 24620.8 -1.02353e-15 517.97 -4.12158e-15 -4185.53)
(-25141.3 27553.5 1.0794e-15 -3019.31 -1.9562e-15 -6987.22)
(31005.8 34658.8 -4.34807e-15 -299.316 -8.16123e-15 7618.91)
(704.134 57192.3 -1.60523e-15 43.0752 -1.64912e-15 185.398)
(48437.5 41562.8 -2.51966e-16 280.364 -1.67085e-15 12087.9)
(-7370.65 48153.7 5.88179e-16 1704.59 -4.61701e-15 -1405.86)
(2610.38 47093 -1.50061e-15 6248.04 -6.98099e-15 2197.95)
(-31339.2 31188.6 -3.85896e-15 10053.7 -2.95681e-15 -5281.36)
(1037.68 45625.9 5.35753e-15 4083.82 -6.89367e-15 1270.75)
(51486.4 41449.6 -9.022e-16 -1068.79 -5.9717e-15 12509.6)
(-1756.13 44633.2 0 -6594.77 0 -2072.03)
(1626.68 31524.2 -1.90024e-15 -142.658 3.77046e-15 368.216)
(-13902.8 24006.5 -4.01028e-15 799.663 -1.98818e-15 -3251.14)
(-18971.3 25961.5 2.99835e-15 1862.88 -1.83061e-15 -4244.96)
(28876.9 32220.9 -1.31581e-15 -6202.44 -4.60351e-15 5626)
(-27485.1 29765.1 -8.93731e-16 -4430.65 -3.78339e-15 -7918.95)
(31569.6 36959.4 1.12158e-14 3511.71 -3.75072e-15 8704.39)
(72745.9 24301.6 0 -1086.77 0 17780.1)
(51672.9 50572.5 -1.54737e-15 -1822.93 9.45113e-16 12368.8)
(65922.3 46085.6 -2.55655e-15 -1170.02 -2.08471e-15 16066.4)
(-1487.01 44142.7 -4.40086e-15 -4470.19 -2.9582e-15 -1478.1)
(6490.77 30816.2 0 644.368 0 1770.37)
(-20532.5 21352.3 -1.88524e-16 2312.43 2.38932e-15 -4520.78)
(-20431.2 25981 7.54714e-15 7455.69 8.96566e-16 -3219.49)
(549.398 49605.8 4.23713e-15 -2917.79 2.88729e-15 -587.646)
(-1808.84 62469.5 -2.40543e-16 172.04 2.36003e-15 -406.122)
(-83515.9 12302.6 -5.00957e-16 -657.802 -4.89724e-16 -20885.2)
(192242 30787.8 4.32511e-16 -9737.87 1.32379e-15 45283)
(-8918.99 27939.1 3.83994e-15 1682 1.49033e-15 -1795.64)
(-8017.8 30229.8 2.58843e-16 601.367 -2.62099e-15 -1840.17)
(13283.3 33707.6 -2.3259e-15 449.625 3.64116e-15 3407.41)
(-11019.9 25759.7 2.0781e-15 -3236.99 -3.85073e-16 -3537.43)
(157111 37871.3 -4.30418e-15 -1007.64 -1.54603e-15 38732.4)
(-800.96 50023.4 1.78476e-15 -269.695 -3.17667e-15 -265.651)
(-7435.38 29685.7 -1.10362e-15 -2396.68 2.05786e-15 -2439.53)
(10141.4 34541 3.15437e-15 -2132 -1.92878e-15 1987.3)
(57793.6 28667.2 5.41589e-16 3133.71 -2.25099e-15 15117.3)
(-18224.3 34873.3 -5.24615e-15 3447.5 -6.77178e-15 -3666.43)
(-24231.3 21036.5 3.58474e-15 -1402.92 1.26416e-15 -6360.36)
(-24031.4 23490.1 1.0179e-16 4602.18 -6.65749e-15 -4820.79)
(-8353.36 30201.2 0 -572.642 0 -2214.72)
(-57801.7 42941.7 1.06684e-16 -859.862 6.53231e-15 -14555.1)
(-8532.74 48960.5 -1.05221e-15 1059.16 2.33769e-15 -1854.35)
(-6067.61 43467.7 -4.07369e-15 -2891.24 4.89397e-15 -2222.87)
(-6303.49 41397.6 2.85941e-15 -6602.23 -1.86617e-15 -3202.17)
(-187101 96585 -7.02582e-16 56170.6 9.34976e-16 -32486.6)
(148856 38422.2 5.63574e-17 -2344.36 -2.07474e-15 36352.5)
(-30328.7 34256.8 -3.77449e-15 11150.7 -2.90681e-15 -4758.46)
(50054.4 24152.2 -2.61916e-15 1225.65 2.37868e-15 12723.6)
(-19436.8 30744.5 3.57407e-15 2535.28 -1.21426e-14 -4193.62)
(-15092.1 41839.4 6.4743e-16 8248.93 -6.66106e-16 -1697.92)
(-19141.1 43370.7 6.47845e-15 5435.25 7.04008e-15 -3400.69)
(-90851.3 13798.3 1.53086e-15 -2102.53 4.93635e-15 -23063.7)
(3771.49 32497.5 0 1537.98 0 1317.39)
(6681.93 41219.8 -6.87441e-15 -1646.72 -2.91877e-15 1249.34)
(3848.5 43568.9 2.3765e-15 4157.71 -2.60936e-17 1986.5)
(548.211 33696.8 1.65563e-15 -607.542 4.98905e-15 -14.7213)
(-23622.4 33468.2 -9.04368e-16 -1554.69 7.00744e-15 -6246.95)
(24634.3 38772.3 5.35683e-15 -233.953 -1.78554e-15 6054.22)
(-17120 25562.6 0 1103.61 0 -3973.99)
(-15849.3 25262.9 -2.32216e-15 469.299 -2.44162e-15 -3816.1)
(23332.4 34047.2 2.42701e-15 650.162 1.55505e-16 5950.55)
(-951.604 46620.7 -8.72862e-15 -974.868 -6.08593e-15 -477.997)
(57951.1 40170.4 0 -104.322 0 14353)
(-8659.49 43553.3 -1.85941e-15 1805.45 -3.34195e-15 -1700.63)
(17207.6 28523.7 -1.14752e-15 1638.45 -1.72962e-15 4676.08)
(7506.18 30565.4 8.16846e-15 -1743.87 1.68911e-16 1429.75)
(6562.33 -5044.81 -9.87684e-17 -14006.2 -7.27794e-17 -1846.96)
(-344.444 1304.94 2.49177e-18 785.178 -1.45645e-17 109.355)
(-6510.81 -4905.29 -6.14396e-17 13670.3 4.06492e-17 1776.42)
(-948.398 47716.4 -2.73044e-15 -3320.24 -4.97271e-17 -1059.14)
(-12358 26937.6 -6.50815e-16 -1072.55 2.95426e-15 -3332.39)
(10015.8 35653.6 1.53866e-15 -833.642 -4.64765e-15 2278.28)
(16389.7 30376.6 -3.2265e-15 -1268.73 -4.84828e-15 3751.82)
(-50997.7 37567.1 4.64787e-16 3363.76 9.27626e-16 -11818.9)
(-26156.2 46961.3 -2.55716e-16 1403.98 9.47137e-16 -6141.52)
(4949.83 47066.8 -4.34923e-16 229.214 -2.30395e-15 1285.03)
(5662.65 40226.5 -1.3859e-15 1335.34 -2.69899e-15 1736.34)
(646.39 34627.2 -2.4882e-15 2580.09 5.95807e-15 800.556)
(-534.663 41741.8 -8.47273e-15 -422.428 -4.43266e-15 -237.474)
(121203 31109.6 9.26357e-16 -1518.89 2.71248e-15 29696.1)
(5165.39 28079.6 1.03147e-15 -921.643 2.04035e-16 1052.96)
(12913.1 31589.4 2.00146e-15 -366.47 3.26365e-15 3113.08)
(8172.1 24966.7 6.4849e-15 1458.8 4.05656e-15 2389.62)
(-24277.9 38267.5 2.52416e-15 -4804.19 4.26444e-15 -7215.86)
(-23245.4 32790.7 -6.5755e-15 -2431.67 2.50731e-15 -6371.02)
(86.701 27110.9 3.09763e-15 465.868 -1.72502e-15 137.103)
(112238 39294.3 1.67363e-15 -272.936 1.12057e-15 27780.8)
(27144 27428.1 -2.27218e-15 -4063.41 -8.94097e-15 5726.77)
(-2998.69 45873.1 -7.3472e-15 2606.9 7.4486e-15 -97.2104)
(104699 40608.9 -2.3127e-15 -1160.89 3.0171e-15 25689.8)
(-800.375 29829.7 -2.50619e-15 1751.07 -7.16343e-16 235.886)
(-14506.4 38485.1 -2.69871e-15 -1782.1 -1.25995e-15 -4041.5)
(5224.56 43122 5.02131e-15 -4293.57 -7.81054e-15 230.997)
(4402.94 34141.3 -3.5383e-15 215.241 2.60264e-15 1145.86)
(3785.21 38249.1 -1.04294e-15 -5726.29 -1.64501e-15 -481.62)
(-7783.9 42359.5 -6.66426e-15 3207 -5.59281e-15 -1135.62)
(-870.088 48872.2 -6.36065e-15 -2646.13 -5.22671e-15 -872.444)
(-6129.66 47115.2 -3.87655e-15 -8960.12 4.59032e-15 -3744.08)
(2146.86 44638.3 -2.54265e-15 -86.6603 -2.61165e-15 511.178)
(2823.01 41820.6 1.39757e-16 17253.8 6.19366e-15 4981.46)
(-15488.3 20962.2 -1.14583e-16 -3460.23 3.17024e-15 -4701.51)
(-252204 -26666 2.35128e-15 15489.7 -1.4365e-15 -58733.6)
(-92547 38762.6 1.26026e-15 15.7774 -1.79673e-16 -22958.9)
(30118.9 34097.4 2.81277e-15 5263.78 -2.95301e-15 8779.17)
(-21577.5 29683.5 -3.02875e-15 4418.24 2.04878e-15 -4257.55)
(25065.8 29010.2 -1.28241e-15 6702 4.08564e-15 7882.24)
(-11558.5 22203.3 1.13602e-15 4928.71 1.15071e-15 -1645)
(-12072 21252 -5.52302e-15 4256.22 4.48888e-15 -1939.24)
(24729.7 38106.4 2.80781e-15 3787.61 8.2603e-15 7075.73)
(-19780.9 31317.8 3.97973e-15 3716.92 -6.24726e-15 -3985.79)
(21887.8 32219.2 3.41397e-15 5865.51 -2.91241e-15 6886.16)
(-12465.4 23750.4 2.95138e-15 2386.05 -5.75434e-15 -2500.89)
(-12774.8 22962.8 -3.11456e-15 2775.07 -2.90039e-15 -2481.14)
(-23834.3 39326.3 3.91264e-16 -2119.07 3.64869e-15 -6439.57)
(6998.28 43178.5 -1.36351e-15 -4750.17 -9.77929e-15 557.802)
(6286.56 34311.2 -2.15888e-15 -1463.11 -6.73589e-15 1196.8)
(-1490.92 27069.3 -6.5803e-16 709.448 4.33956e-15 -193.898)
(20270.3 20525.9 -4.50872e-15 -150.071 -1.54755e-15 4992.23)
(-31702.8 17235.5 4.43001e-15 -1916.96 1.4687e-15 -8341.74)
(15345.7 29692.7 2.99746e-15 -3224.29 -2.94356e-15 3007.57)
(-26000.5 44047.6 1.33518e-16 755.568 8.47325e-16 -6263.79)
(-17784.2 42732.3 -3.59433e-15 4804.79 -3.20688e-15 -3220.46)
(-18150.5 43228.7 3.12394e-15 2934.66 -3.04748e-15 -3775.35)
(-446.598 45683.8 2.39829e-15 2969.48 4.74476e-15 625.978)
(-24168.5 37044.8 -5.35157e-15 5359.99 5.91148e-15 -4666.77)
(8163.89 35945.3 -2.69457e-15 -4006.81 -3.06924e-15 1031.45)
(2702.99 48600.2 -2.47634e-15 -1131.47 2.08933e-15 389.926)
(-22016 33955.4 4.26098e-15 3920.22 -3.07054e-15 -4489.93)
(-20098.2 31306.8 1.59459e-15 -112.894 3.64924e-15 -5014.77)
(30352.7 30983.2 1.57597e-15 -167.023 -6.57005e-17 7489.68)
(2013.16 48213.8 1.23033e-15 2090.08 -6.55615e-15 1018.1)
(132300 32671.2 -2.60289e-15 -3752.74 -1.52423e-15 31895.1)
(-20083.9 39500 -4.5954e-15 2848.5 3.40234e-15 -4276.45)
(44979.7 23663.6 0 -3222.89 0 10360.7)
(-9941.85 29200.9 1.66437e-15 3129.8 6.98357e-15 -1690.21)
(-10319.2 30612.8 -1.71126e-15 2515.12 2.21775e-15 -1936.36)
(-15153.9 36994.4 -1.31556e-16 2300.79 9.07539e-15 -3189.11)
(7738.02 37045.4 -3.29244e-15 -422.668 8.75277e-16 1815.09)
(4518.79 45861.4 -3.5207e-15 -2060.68 9.45993e-16 609.908)
(-188632 21456.2 2.24452e-15 -2914.62 -1.38499e-15 -47526.5)
(-42327.9 33637.1 -1.34091e-15 651.034 3.05429e-15 -10340.9)
(21918.7 37837.5 -3.5579e-15 2651.24 -2.23421e-15 6096.3)
(16322.2 29913.8 1.01237e-14 -1058.87 -5.7885e-15 3787.14)
(11232.6 42426 1.893e-15 -3405.8 -5.40265e-15 1941.98)
(-29355.1 27455.1 0 2173.85 0 -6744.21)
(-35439.2 25980.6 5.59051e-15 5861.07 -3.00794e-15 -7338.92)
(63924.5 22276.4 2.61433e-15 -1548.49 1.86958e-15 15476.7)
(71961.8 20040.8 2.09251e-15 1663.83 2.08014e-15 18268)
(7064.25 28096.1 -8.5559e-17 1547.72 3.62641e-15 2136.8)
(8931.86 24478.4 3.141e-16 3348.75 7.92412e-15 3047.07)
(14793.2 30806 2.1149e-15 968.529 -3.0779e-15 3910.79)
(-17948.2 31864.9 -3.21549e-15 885.8 3.08387e-15 -4233.54)
(-18866.2 39290.1 -3.20356e-15 -1477.52 3.7623e-15 -5047.68)
(8872.86 36055.1 0 652.73 0 2363.49)
(1290.5 47427.7 -1.50133e-16 1165.77 5.37744e-15 609.452)
(11287.8 30522.3 -4.08896e-15 -1187.13 3.55331e-15 2506.19)
(-2891.11 29188.5 -3.23639e-15 -1722.97 8.29507e-15 -1144.85)
(-15927.9 40764.1 -1.01276e-15 -1399.16 5.11665e-15 -4299.19)
(7287.68 44818.7 -1.11937e-14 -875.318 -3.25241e-15 1591.04)
(7394.42 35316.3 -7.78271e-15 1186.87 3.50677e-15 2129.19)
(-12118.3 43078.5 -1.55608e-15 1127.94 -1.91139e-17 -2726.94)
(-12441.2 36706.7 -1.75956e-15 -862.515 -1.19873e-15 -3300.92)
(-9158.74 31289.1 1.0475e-15 -2045.14 -1.92794e-15 -2779.91)
(-24004.8 41252.9 0 -1381.93 0 -6298.96)
(-9631.49 47156 3.55777e-17 -1017.52 -3.92727e-15 -2642.24)
(-15940 18823.9 3.85139e-15 -4230.92 -1.732e-15 -5004.83)
(16709.7 18372.2 -5.53564e-15 842.297 -4.91253e-16 4355.01)
(185075 74585.2 8.31356e-16 -64615 4.83574e-16 29888.5)
(-7401.41 45731.4 1.07316e-15 167.482 -2.60767e-15 -1794.88)
(29723 26618.6 3.79379e-15 -934.791 -9.35617e-15 7142.93)
(-246988 1492.7 2.13611e-15 32995.9 -1.95019e-15 -53095.9)
(12296.9 40667.9 1.86763e-16 3070.13 4.84324e-15 3812.87)
(24586.3 28668.5 3.09497e-15 4749.78 -3.77372e-15 7278.87)
(24877.3 28976.3 4.3426e-15 -1604.26 -1.92193e-15 5774.51)
(-294.219 47469.3 3.27942e-15 33.2647 -5.275e-16 -64.748)
(-781.543 47348.5 3.46732e-15 -397.505 3.18199e-16 -292.546)
(11809.3 23723.3 1.08379e-15 -4110.06 4.23098e-15 1910.35)
(9959.4 26706.1 1.54496e-15 -4564.69 -3.98459e-16 1338.54)
(-11684.5 28058.8 0 -2996.33 0 -3642.6)
(-11329 29991.3 -3.53426e-15 -2443.33 -2.36296e-15 -3417.2)
(244844 -26331.5 -8.89408e-16 -16216.3 -8.28969e-16 56727.2)
(-28338.3 42542.1 -3.73704e-16 -1054.79 6.81205e-15 -7293.02)
(-58576.8 44965 4.0383e-15 -2251.14 -2.71531e-15 -15092.6)
(-259933 -101790 -2.47514e-15 67709.5 1.05938e-15 -47694.6)
(121290 10679.4 0 2281.85 0 30660.8)
(-229059 -96308.9 -8.1394e-16 33824.9 2.68609e-16 -48441.5)
(13116.1 53170.8 -3.97346e-15 407.299 1.64591e-15 3355.44)
(-8387.35 42869.6 -3.47226e-16 -5101.31 5.04262e-15 -3346.81)
(-17040.4 36146 2.2746e-15 347.274 -2.80181e-15 -4141.89)
(-11751.1 29074.2 3.17575e-15 1801.05 -3.89605e-16 -2468.81)
(-10848.9 27814.1 -3.31133e-15 994.665 1.07225e-16 -2445.05)
(19356.5 43120.7 2.35832e-15 1517.58 -7.24772e-15 5179.29)
(17989 36076.2 -5.92762e-15 816.983 6.20463e-15 4666.14)
(5128.74 40815.2 -9.18753e-16 -3569.86 4.73741e-15 386.789)
(4737.48 32581.2 2.22577e-15 -2468.97 3.0405e-15 562.863)
(-10536.5 39595.1 -4.43092e-15 -1751.72 1.2914e-15 -3048.95)
(-12.251 28348.9 2.03681e-15 1241.74 -2.7814e-15 305.061)
(-148573 -60047.7 -6.4556e-16 -3855.43 1.33013e-16 -37820.5)
(130.434 38324.9 -2.2465e-15 -306.689 -9.1086e-15 -43.7326)
(-988.181 34781.9 -4.974e-15 -1840.41 -2.4517e-15 -701.83)
(-6428.76 28747.8 0 11.7127 0 -1592.2)
(662.318 37140.6 6.31357e-15 403.121 -2.83495e-15 264.357)
(-698.48 35751.6 0 455.192 0 -60.3647)
(-6274.24 42408.6 -2.48892e-15 1663.61 -4.25649e-15 -1143.99)
(10242.2 25768.8 3.71302e-15 1328.46 -4.03806e-15 2870.93)
(10948.3 26406.8 5.48334e-15 -1380.2 2.76804e-15 2374.04)
(253350 -99321.8 -9.0625e-16 -66462.2 -3.17775e-16 46370.7)
(145234 -58765 1.09137e-15 3836.56 3.00495e-16 36987.5)
(-23148.3 36435.4 7.51788e-16 -364.824 1.15539e-15 -5834.07)
(-26484.2 39503.6 -2.24937e-15 -1024.32 -5.04986e-15 -6825.43)
(-20184.5 20300.1 -2.78971e-15 -2436.28 -7.09158e-16 -5612.66)
(25258.6 25813.3 5.86541e-15 -2395.46 -1.63963e-15 5672.82)
(21944.3 41881.6 2.4253e-16 1086.61 1.10877e-14 5714.44)
(20726.6 35524.2 3.4333e-15 -514.158 4.00442e-15 5015.11)
(-23353 33359.6 3.30313e-17 -2503.45 3.47766e-15 -6415.5)
(-17693.3 27563.3 -2.88916e-15 1170.94 9.92239e-16 -4099.52)
(-15245.3 26575.4 -3.28512e-17 530.046 4.40969e-15 -3651.16)
(2204.3 48596 -5.37515e-15 -1429.17 1.68424e-15 192.327)
(-42228.1 32149.4 2.52734e-15 -1102.51 2.84384e-15 -10751.2)
(18007.8 36588.8 -3.53376e-15 794.624 1.86269e-15 4665.26)
(11840.2 30174.3 0 -1668 0 2523.94)
(9612.14 30837.1 1.37324e-15 503.037 3.62635e-15 2509.78)
(6155.57 39909 -4.52412e-15 4715.5 -1.28292e-14 2697.34)
(-2396.34 46858.5 -4.05224e-15 -4351.61 -1.62414e-15 -1674.3)
(22548.5 49418 -1.08176e-14 1974.59 2.39858e-15 6084.67)
(-10334.9 25401.1 -5.05384e-16 -711.697 -4.05862e-15 -2740.89)
(15.7262 59682.4 1.18771e-16 549.393 2.26233e-15 140.218)
(223500 -94170.2 -8.33223e-16 -33269.4 -2.16595e-16 47200.1)
(3452.41 29104.5 4.51392e-16 -2564.35 -7.69231e-15 220.345)
(5038.3 29816.2 3.367e-15 -1860.65 1.2177e-15 788.44)
(-8156.61 36345.3 0 3755.32 0 -1092.05)
(-9738.94 36376.7 1.15338e-15 1616.33 -3.47236e-15 -2015.38)
(2809.25 26283.2 0 3121.56 0 1471.55)
(2109.18 29435 2.55057e-15 657.385 2.64732e-15 686.44)
(6550.58 33661.7 -6.60067e-15 -426.044 -5.71803e-16 1519.62)
(-19156.8 33969.7 6.27793e-15 -2043.4 6.8441e-15 -5260.19)
(-21250.3 39999.4 3.62872e-16 -1690.98 -4.1934e-15 -5692.19)
(-4767.27 47275.5 3.86308e-15 4430.64 2.21856e-15 -83.5257)
(165524 39209.2 -1.29965e-15 -1462.68 -3.51818e-15 40707)
(-1679.02 37011.5 -4.00363e-15 -1972.97 1.33457e-15 -906.134)
(-2879.25 36355.9 -5.73213e-15 597.413 -3.89471e-15 -566.171)
(1648.64 47646.6 3.01011e-15 -1008.56 -7.58266e-15 158.815)
(12009.6 30647.1 3.26181e-15 -2394.02 3.70196e-15 2385.81)
(-20124.3 20986 -5.532e-15 -2285 3.14487e-16 -5560.2)
(9274.02 35506.6 0 -266.303 0 2235)
(225825 32958.3 3.891e-17 -60102.8 1.65631e-17 41119)
(33483.6 23388.7 3.15137e-15 -668.08 7.31743e-15 8142.21)
(28318.3 25769.9 1.39544e-15 -1958.21 7.9868e-16 6540.47)
(-17771.6 29512.4 4.52052e-16 1082.42 9.97072e-16 -4140.92)
(-15046 34808.1 -3.46079e-15 -1403.85 1.17572e-15 -4081.53)
(-16025.2 32289.3 -7.06991e-15 4128.59 -1.31325e-15 -2951.78)
(-12691.6 36890.2 3.55914e-16 696.392 -4.02958e-16 -2976.26)
(32283.5 32318.6 -5.09728e-16 326.397 1.50181e-15 8091.18)
(23913.4 36778.3 3.39238e-16 1566.41 -3.07745e-15 6322.06)
(9437.8 34250.2 6.25938e-16 1888.8 3.95843e-16 2810.36)
(13572.1 34683.4 1.16738e-15 1935.97 2.14748e-15 3847.87)
(7039.83 39223.3 3.22305e-15 -2880.88 2.48373e-15 1031.92)
(14260.2 37579.1 2.89881e-15 -6076.68 -4.79451e-16 2030.49)
(-20030.9 35878.2 -7.96015e-16 -1878.58 2.29214e-15 -5436.18)
(-21453.1 35598.3 -2.32982e-15 -2640.71 4.20449e-16 -5978.15)
(-12329.6 44706.7 3.22391e-15 -496.72 2.55388e-15 -3182.47)
(66177.3 37627.9 3.87723e-15 384.08 3.14324e-15 16515.2)
(74161.9 39988.9 -9.23328e-16 1364.75 5.24507e-16 18739.7)
(101897 38306.1 7.25385e-16 -3328.5 5.16798e-16 24456.8)
(8191.65 42054 -6.43706e-15 6497.62 8.45673e-15 3644.7)
(-30193.8 25131.2 -4.05865e-15 4597.53 -2.17197e-15 -6350.96)
(-24510.8 26452.9 -5.19444e-15 7826.63 3.66584e-15 -4139.67)
(64453.1 19804.7 0 5556.29 0 17370.8)
(59616.7 22571.6 0 625.23 0 14947.3)
(15644.5 23868.3 6.97055e-16 -1786.78 4.16574e-15 3438.37)
(21686.4 23950.2 2.86445e-15 1349.44 -7.89047e-15 5715.66)
(-27708.8 20395.7 0 -2512.98 0 -7498.65)
(-24036.7 20902.6 0 286.637 0 -5892.88)
(3775.05 44208.1 -9.04455e-16 4466.5 2.80149e-15 2044.89)
(-16601.8 38786.8 9.96852e-15 -3465.64 -4.50533e-15 -4979.15)
(-33159.7 28070 -2.55125e-15 -2993.51 -9.89022e-16 -8970.35)
(181047 8441.59 0 5605.24 0 46312.3)
(-7775.25 45017.5 -6.46618e-15 -9353.45 -2.08883e-16 -4249.98)
(-5133.38 48025 -9.25736e-16 -6794.85 -5.60718e-15 -2959.64)
(7700.69 33169.1 -3.19398e-15 1287.94 -2.33664e-15 2230.26)
(-5743.5 35385.2 -6.78671e-15 1964.27 3.06337e-15 -937.703)
(2976.59 29172.4 2.17326e-15 -3478.79 -2.37815e-15 -124.606)
(-22457.4 23111.6 1.40053e-15 1115.03 -3.12777e-15 -5295.47)
(14677.1 22304.5 -4.9791e-16 1195.12 -3.83699e-15 3938.23)
(-62534 27273.1 7.03137e-16 -839.629 -5.01979e-15 -15724.3)
(-255896 6663.02 9.41019e-16 87357.9 -9.70701e-16 -41817.8)
(51839.9 59005.3 -1.28662e-15 -1493.08 1.89462e-15 12492.1)
(95.1974 29065 -3.67721e-16 -670.479 2.15599e-15 -142.739)
(-14354.1 28518.8 -1.96642e-15 -4718.11 -5.41245e-15 -4732.19)
(17090.7 30239.1 -2.2759e-15 -4137.87 3.43737e-15 3213.86)
(-13238.3 24011.3 2.70968e-15 -2074.84 3.61842e-15 -3799.49)
(12256.3 28366.1 3.66344e-15 30.6511 5.95756e-17 3048.64)
(-1568.57 51810.6 9.83775e-16 -3661.01 5.23195e-17 -1297.56)
(10605.7 50136 -4.14345e-15 -2017.41 5.738e-15 2130.93)
(-6430.69 35708.8 3.81089e-15 -1069.27 -4.42769e-15 -1860.89)
(-9650.65 36703.6 1.5227e-16 -2220.85 5.57916e-15 -2945.56)
(-4614.4 32019.7 5.06537e-16 -2128.37 -4.0496e-15 -1673.02)
(-8098.65 33401.9 3.41257e-15 -3414.9 -1.31358e-15 -2856.74)
(-1587.06 39844.9 -2.96225e-15 -345.056 1.02307e-15 -479.398)
(3125.22 35880.9 -6.10448e-17 1210.86 -3.70596e-15 1075.87)
(2082.03 44075.8 4.24268e-15 80.904 3.69523e-15 536.669)
(-858.62 47567 2.29294e-15 -1380.96 -5.41718e-15 -555.685)
(86467.9 38400.9 2.9506e-15 -2655.19 4.35064e-16 20795.6)
(826.457 36241.3 -4.99166e-15 -647.816 -2.39178e-15 44.3245)
(-7741.92 46109.1 2.5131e-15 -9949.64 -9.04939e-15 -4389.63)
(203512 31889.6 -1.73845e-15 -13977 -1.67881e-15 47027.4)
(12307.7 36046.7 2.52243e-15 -3561.31 -3.4733e-15 2170.16)
(-15322.2 36157.8 2.60471e-15 -765.965 7.89812e-16 -3991.81)
(-13502.2 23291.4 -2.9445e-15 1267.55 -1.35768e-15 -3035.66)
(-16049.4 24954.3 0 2774.06 0 -3293.87)
(12656.4 22581.7 -2.77466e-15 4448.37 -1.36906e-15 4244.05)
(9137.69 25108 4.21256e-17 4201.43 3.53356e-15 3309.71)
(-7259.79 41115.7 -3.0021e-15 4042.14 2.6273e-15 -798.363)
(-5348.45 41190.6 2.21398e-15 2475.85 -1.30291e-14 -712.752)
(-32007.4 41253 -2.19939e-15 -2311.75 -9.33154e-17 -8515.28)
(-40766.2 39778.4 0 -1220.64 0 -10417.8)
(44390.6 53383.6 1.37294e-15 -829.066 4.5217e-15 10808.5)
(-131678 43953.2 5.25683e-16 3923.57 -2.50921e-15 -31698.5)
(-496.844 31019.5 0 -3594.44 0 -1015.13)
(20724.1 36798.4 -2.98578e-16 4431.08 1.70315e-15 6241.52)
(12711.4 38449.4 -1.21365e-16 5002.14 8.75326e-18 4395.09)
(-12050.5 33815.1 5.28479e-15 6130.99 -7.42733e-16 -1468.74)
(-10277.5 34000.1 -5.11724e-16 8370.07 3.99699e-15 -473.264)
(-7787.08 37252.6 8.0814e-16 2034.73 -3.34284e-15 -1427.28)
(-2163.79 36305 -4.54212e-17 3352.49 1.96768e-16 294.941)
(-30585.2 31684 1.93613e-15 4984.71 3.0716e-15 -6352.01)
(-21446.6 34788.6 -3.4555e-15 10603.8 7.72624e-16 -2690.31)
(-5970.42 26277.5 0 1758.1 0 -1045.16)
(-10007.4 31745.4 -2.10468e-15 1439.29 1.96543e-15 -2125.91)
(-13998.9 37214.5 -1.94068e-16 2763.34 -2.36744e-16 -2787.77)
(5364.85 37745.3 -8.29206e-15 1978.69 -4.42986e-15 1822.08)
(-900.367 47847.6 -1.86614e-15 -2663.2 4.04239e-15 -884.193)
(12294.5 22348.5 -1.18683e-15 1509.73 3.32288e-15 3425.11)
(11238.4 24867.6 1.60596e-15 -2039.18 -3.14042e-15 2282.52)
(10435.2 45371.1 2.8032e-16 -5854.84 -2.19574e-15 1136.47)
(6910.66 35582.2 0 -237.868 0 1655.66)
(-22907.3 41752.3 3.53322e-15 -2525.4 -4.29989e-15 -6310.37)
(4442.99 37362.1 -6.64054e-15 2017.29 -1.48239e-17 1602.92)
(4526.82 38009.8 -2.89783e-15 2574.79 -1.5764e-16 1762.05)
(-773.999 38711.4 -3.3443e-15 -5610.26 5.18703e-15 -1584.06)
(2282.11 37994.8 1.97552e-15 -3619.67 1.34836e-16 -331.875)
(-6346.42 36026.5 3.19105e-15 3644.82 1.21264e-15 -670.322)
(-7986.87 36232 0 3200.66 0 -1187.56)
(-36862.3 37157.6 1.50242e-15 465.467 -2.64422e-15 -9030.8)
(9529.73 34695.4 -1.48853e-15 2614.2 -6.54731e-15 3013.16)
(15338.3 41437.4 -7.02152e-16 622.762 -1.08348e-16 3960.26)
(-17780 75153 -1.14227e-15 673.965 -1.13762e-15 -4244.36)
(24965.5 25783 -3.36833e-15 -1607.11 -2.13859e-15 5795.69)
(-29034.9 22475.7 3.18729e-15 2410.28 2.00269e-15 -6606.12)
(-23066.2 74137.5 0 -2902.15 0 -6443.27)
(-14339.7 43409.5 1.16026e-15 3226.08 3.86701e-15 -2757.5)
(-14152.6 44153 -8.9108e-15 5023.4 -2.40448e-15 -2265.14)
(-15210.2 31931.4 3.82113e-15 757.835 3.86652e-17 -3585.93)
(-13348.7 31827.9 0 2599.94 0 -2666.98)
(873.533 30933.2 3.06971e-15 2097.18 -5.09469e-15 737.093)
(1474.25 32071.4 1.04979e-15 -1240.11 4.72015e-16 58.0962)
(-201.282 30671.1 -1.98975e-15 2961.34 2.0151e-15 684.826)
(1378.58 30284.9 1.90593e-15 972.306 6.05739e-15 583.304)
(-1295.15 26443.6 1.42355e-15 4917.94 2.61504e-15 898.888)
(-109.553 26180.4 -3.25181e-15 1996.18 1.96985e-15 468.11)
(25751.2 28334.7 1.28468e-15 2961.19 4.98789e-15 7124.12)
(25117.8 27100.5 3.74048e-15 8151.03 8.31598e-15 8254.68)
(-43405.5 47251.3 -1.42208e-15 -1341.63 2.20026e-15 -11102.7)
(13852.3 38476 -3.60799e-15 -1379.65 -9.70873e-17 3094.71)
(-17149 36197.2 0 -670.596 0 -4421.39)
(25625.3 33154.7 3.42735e-15 -1693.54 -2.30061e-15 5937.95)
(-19460.9 30810.5 3.68727e-15 -50.1351 -6.54955e-15 -4841.07)
(-23608.4 31611.9 4.48714e-15 -1024.42 -3.20269e-15 -6111.9)
(-199105 -93842.1 -7.91778e-16 39636.2 1.79632e-16 -39567.5)
(11624.4 47168.2 5.0789e-15 1497.28 -1.44645e-15 3255.76)
(32773.6 33905.9 -1.10469e-15 -1015.69 -3.12496e-17 7879.79)
(-19401 32721.6 -1.07562e-15 -841.53 -3.24833e-15 -5022.58)
(-22620.5 36102.1 6.50596e-15 -2118.68 3.44566e-15 -6138.3)
(126249 22137.8 2.42312e-15 -89.9594 1.11327e-15 31302.6)
(-7757.53 43049.7 -7.48433e-16 2113.69 3.19878e-15 -1400.35)
(41773.1 29453 3.1004e-15 407.422 -2.07453e-15 10465.8)
(-25077.8 35619.6 2.31497e-15 2006.59 -4.30288e-15 -5724.44)
(-64111 41077.7 2.7552e-15 1316.24 -3.35457e-16 -15580.7)
(-61810.9 38327.4 -1.69377e-15 -1959.46 -1.8079e-16 -15822.7)
(46957.2 39633.4 -3.32025e-15 -2810.35 2.3942e-15 10953.7)
(-5080.05 35998.7 -1.0035e-14 1605.13 -4.91654e-15 -862.199)
(-533.669 -5072.93 3.13919e-17 -7850.64 1.1079e-17 -2080.32)
(-5973.41 44701.8 0 3063.21 0 -722.08)
(-260834 -77684.8 1.27302e-15 46878.1 -3.62541e-16 -53086.9)
(194376 -91778.7 1.49087e-15 -39159.5 5.00439e-16 38512.4)
(-29827.2 37424 2.76562e-15 -2558.57 -2.99077e-15 -8035.57)
(20793.2 40226.9 7.58984e-16 -2135.35 3.10272e-15 4629.39)
(12418 32059.1 -2.44291e-15 -3255.27 5.86485e-15 2273.46)
(17294.8 43010.4 4.99593e-15 -2434.86 1.62138e-15 3687.06)
(-19205.7 26430.9 2.9992e-15 1710.84 -4.80184e-15 -4340.83)
(2583.84 32798.4 -2.43379e-15 322.74 2.37303e-15 721.183)
(365.274 34637.1 7.16375e-16 1372.23 1.17678e-15 431.109)
(-11527.8 48669.2 9.81481e-16 613.475 3.24911e-15 -2708.06)
(-174197 39731.4 -5.30769e-16 5165.82 1.98138e-15 -41940.2)
(1718.36 -2994.38 8.07396e-18 -5183.93 4.98426e-18 -859.879)
(-10997 27100.9 -8.06628e-18 -268.387 2.30425e-16 -2795.17)
(14333.5 30871.9 1.75738e-15 1356.04 5.90872e-15 3892.89)
(223679 -40461.4 1.04467e-16 -8806.87 2.25097e-16 53314.1)
(1441.9 33536.9 -4.76882e-16 1621.84 -3.9025e-15 760.174)
(-442.356 33707.5 3.7769e-16 2083 3.82385e-15 407.078)
(562.388 29065.5 -7.37658e-17 2190.47 -6.03752e-15 683.039)
(-8755.94 40832.1 -1.62938e-15 -1072.16 2.43794e-15 -2438.55)
(4828.62 35362.1 1.56016e-15 293.171 4.29846e-15 1270.82)
(4784.88 43591.6 -3.61348e-15 -1908.53 -1.28919e-15 713.681)
(-228690 -41253.9 6.11483e-16 8764.3 -1.77299e-16 -54567.9)
(21720 42586.4 -2.89689e-15 -1722.67 1.74606e-15 4961.73)
(-20909.7 43203.9 -9.81051e-15 4739.2 -2.95817e-15 -4012.23)
(-624.622 33177.7 7.5007e-15 5934.2 -1.28547e-14 1317.41)
(-920.752 28692.1 7.17009e-17 5243.99 -4.36008e-15 1072.68)
(1101.99 26294.3 -1.08745e-14 2196.49 1.85508e-15 818.42)
(6640.95 37757.2 -5.01286e-15 4705.09 -1.98905e-15 2815.18)
(-45782.8 30025.7 4.20579e-15 -1078.69 -4.58376e-15 -11627.3)
(22494.1 33550.7 5.20968e-15 265.061 6.00081e-16 5647)
(16122.2 28925.6 -2.33265e-15 524.327 -3.57564e-15 4130.34)
(-11682.3 43529.9 -8.55119e-15 -748.393 -1.54874e-15 -3084.31)
(68449.7 55379.2 1.27149e-15 -1349.19 2.37759e-15 16649)
(14163.6 39160.5 -3.46248e-15 -4168.32 2.50695e-15 2480.04)
(-150694 37318.2 -2.30446e-15 119.906 -1.05499e-15 -37360.5)
(3934.77 42914.2 -4.48908e-15 2197.01 -4.05739e-15 1521.42)
(-17575.3 43563.9 -8.69713e-15 4576.88 4.48009e-15 -3225.18)
(-1252.5 33424.9 8.91226e-15 4847.23 -1.51906e-15 891.925)
(-2275.08 29094.3 7.46153e-15 3425.16 1.85482e-15 285.357)
(285.118 26539 -5.04571e-15 1673.68 1.50986e-15 486.017)
(74701.9 52748.6 1.46871e-15 333.332 4.23208e-15 18617.8)
(5791.07 37380.8 -2.84459e-15 451.034 -6.58907e-15 1548.79)
(-16582.3 35721.6 3.04747e-15 328.118 9.28209e-17 -4033)
(-24908.4 47060.9 2.4212e-15 865.793 2.99808e-15 -5965.47)
(-19115.9 40760.1 0 -316.148 0 -4821.49)
(-11847 29083.6 -3.1284e-15 802.202 9.96356e-16 -2740.43)
(-11290.7 30350.7 -5.18256e-15 1392.6 -4.14314e-16 -2455.91)
(-16828.3 37256.8 -5.62918e-15 909.201 2.92336e-15 -3949.85)
(14894.5 36132.7 7.93169e-17 -594.992 1.08318e-15 3547.99)
(14780.5 43951.7 1.27397e-15 -1931.5 -1.73811e-15 3188.09)
(22050.4 23406.5 -4.08154e-15 311.297 1.52453e-15 5548.39)
(11393.5 35320.7 0 -2395.54 0 2232.58)
(18347.8 33394 -4.57951e-15 -3141.62 2.88993e-15 3772.95)
(251709 24346.6 -6.77823e-16 -66131.2 -3.90493e-16 46045.7)
(11928 26392.5 5.00774e-15 -3518.7 -5.35012e-15 2086.51)
(-9249.99 30590.3 0 -1807.78 0 -2743.66)
(-10143.4 28148.6 -2.39158e-15 -506.336 -1.22553e-16 -2642.42)
(10037.4 35504.8 1.17469e-15 -863.866 -1.55796e-15 2276.15)
(-836.904 30630.7 1.94784e-15 79.7074 1.69577e-15 -187.876)
(-6283.79 48598.4 5.6415e-15 1932.91 -4.86112e-15 -1079.54)
(-3092.8 27142.7 5.47356e-15 714.086 -9.29187e-16 -590.207)
(-3101.38 31372.1 -3.1194e-15 319.401 -3.12894e-15 -690.266)
(-4321.25 36919.4 -1.74381e-16 -4629.38 -1.57843e-15 -2220.83)
(4301.69 30465.3 -1.05318e-15 146.466 3.8286e-15 1103.68)
(-1852.77 35521.1 -3.91184e-15 -6661.61 3.10732e-15 -2112.59)
(-326.64 46685 3.9325e-15 -7228.28 -1.91791e-15 -1874.53)
(1409.85 43484.2 -5.32488e-16 1879.69 -3.03261e-15 816.2)
(-28936 62312.4 -1.74189e-16 672.413 -2.06645e-15 -7012.78)
(7119.13 46394.2 9.23933e-15 -2287.67 -1.96865e-15 1198.78)
(-5206.86 61377.6 9.60572e-16 -1491.83 1.73238e-15 -1662.08)
(-34581.3 46949.9 -2.10732e-15 -2429.9 -1.43587e-15 -9183.23)
(6207.25 32811.5 4.70506e-15 4910.06 4.62455e-15 2758.43)
(-15665.5 32406.4 -3.60489e-15 695.593 1.25749e-15 -3714.33)
(-169172 87279.5 -5.05937e-16 56506.5 3.89813e-16 -27954.5)
(-23328 42785.9 2.6382e-15 -2797.55 3.12363e-15 -6482.29)
(-17955.2 40773.9 0 -1818.73 0 -4906.31)
(8271.65 42890.5 4.95872e-15 -5881.2 -7.45931e-15 593.118)
(6455.49 33398.9 2.65969e-16 340.916 9.24821e-16 1686.33)
(201183 -43499.8 -1.69303e-16 6017.33 3.91982e-17 51410.7)
(-130033 26220.2 -1.61651e-15 -525.784 7.73913e-16 -32394.3)
(-1204.92 27790.3 1.89434e-15 8512.48 1.70919e-15 1813.15)
(-99.6442 32589.8 -2.39215e-15 8053.71 5.17358e-15 1973.57)
(-20316.3 44113.1 -1.19987e-14 7628.58 -4.55917e-15 -3148.09)
(730.457 32118.3 2.30963e-15 -1888.46 4.91909e-15 -287.325)
(-5447.14 43223.8 3.52414e-15 -6498.43 5.79729e-15 -2963.94)
(-115419 -75360.3 -1.39975e-16 8717.53 5.97e-17 -26474.9)
(-97702.8 25437.7 5.78473e-16 1971.64 7.16209e-16 -23752.8)
(110089 30999.9 3.26075e-15 -3737.86 -1.80222e-15 26387.8)
(-213980 10154.8 -1.0164e-15 -2839.03 -5.00778e-16 -53797.2)
(12509.1 25594.4 -1.50212e-15 1011.21 -2.54853e-15 3354.66)