/*--------------------------------*- C++ -*----------------------------------*\
| =========                 |                                                 |
| \\      /  F ield         | OpenFOAM: The Open Source CFD Toolbox           |
|  \\    /   O peration     | Version:  2.3.1                                 |
|   \\  /    A nd           | Web:      www.OpenFOAM.org                      |
|    \\/     M anipulation  |                                                 |
\*---------------------------------------------------------------------------*/
FoamFile
{
    version     2.0;
    format      ascii;
    class       volScalarField;
    location    "80";
    object      sigmaEq;
}
// * * * * * * * * * * * * * * * * * * * * * * * * * * * * * * * * * * * * * //

dimensions      [1 -1 -2 0 0 0 0];

internalField   nonuniform List<scalar> 
11800
(
72788.6
78361.6
46351.5
56869.1
74911.9
62956.7
73978.5
60922.4
67995.1
50344.6
73112
48989.9
11694.1
47627.4
59027.7
80964.1
73841.5
61184.3
73289.2
48777.5
60383.6
52465.7
108908
99231.8
69854.6
98294.9
40830.1
58708.9
45574.6
51912.8
66321.4
99061.8
84097.1
83786.3
81658.8
65053.5
79080.9
85947.8
77449
54624.3
43611.4
48642.8
63797.4
55867.1
69039.9
78650.7
99883.6
100068
76515.8
53644.9
42193
51176
85974.4
108215
77798.9
188557
49288.9
52922
59532.4
45266.1
156843
86644.8
51661.4
60797.1
70297.3
63360.4
41954.1
47898
52790.1
90454.8
85228.7
75372.3
71776.9
271034
151449
69529.3
60868.7
56708.7
75254.2
78153.5
83824.9
56336.5
71769.5
75490.9
58373.1
61366.3
70791.7
47177.2
46145.1
62449.9
80751
87069.5
75998.6
51430.9
53563.1
19928.9
2465.35
19516.6
82679.8
47789.8
62507.4
54923.4
81204.6
84997.9
81634.9
69797.4
60005
72299.4
122913
48931.8
55999.2
43700
68784.3
59936.8
46958.9
122154
54964.7
79602.8
118457
51714.3
67687.3
75143.3
59256.9
66761.3
73992.7
84667.7
81731.2
77341.8
73679.4
38072.7
243789
107130
63487.4
56292.5
53307.8
41056.3
39481.3
68824.5
58076.7
57927.8
43175.3
42066.1
70965.4
75478.3
59818.8
46924.6
40029.6
40352.1
53971.6
79987.1
76626
77164
79184.6
69234
63153.7
84244.5
63120.6
57147.4
60301.6
83515.3
134660
71372.4
59440.2
51857.2
54211.1
65914.7
64578.9
79640.8
171979
69928.1
67910
54091.2
74595.6
55261
57963.4
70360.4
72492.5
48945.9
42784.6
54828.3
57711.6
69886.8
62899.6
82149.6
54018.7
50579.5
71850.5
77966.2
61443.4
75541.7
64450.9
54616.4
74365
82060.4
34520.4
34942.6
253709
79500.8
53695
248406
70996.3
53059.9
55490.4
82219.8
82011.1
43384.5
47955.3
49317.1
52627.9
237720
77734.2
93165.1
337550
109239
286488
92812.4
74384.4
64529.3
51768.3
49317.7
76449.3
64405.6
71095.3
56779.2
69070.8
49114.7
167328
66381.8
60252.7
50130
64330.4
61931.6
73783.9
45389.2
47029.3
329424
163599
66385.2
72220.3
38794.3
51046.1
74981
64422
60885.4
50630.2
48157.5
84229.8
66995.2
65275.3
53617.9
54051
69189.9
81196.8
87647.2
44864.8
103374
279907
50679.6
51993.8
63801.2
63801.8
45549.1
51003.2
58636.3
60909.6
71555.4
82270.2
165025
64112.9
63044.8
82558.6
54582
39897
62093.1
257521
50834.7
52190.5
53825.9
61575.6
58663.5
65009.3
62983.1
66885.5
59750.3
61037.8
68485.8
67461.2
64337.6
64062.3
78176.2
88177.2
95570.9
115424
72948.3
53330.3
53862.8
63947.3
66095.9
44149.3
45438.9
42214.1
42311.5
76601.2
68324.4
55939.3
159715
78103.8
83248.4
57762.7
61658.7
50836.6
45255.7
40555.9
73081.6
300504
112867
50346.7
50325.8
55604.3
42871.6
50354.5
89766.6
87550.2
62052.2
63967.2
55527.5
58068.2
69023.4
62179.3
76363.2
82391.6
104052
62784.8
80010.3
202005
63967.3
64011.7
42433.2
46315
39986.2
43826.9
71888.5
71668.9
76429.9
77664
101012
143604
53804.1
65586.7
67078.6
60667.4
61065.9
65097.8
63064.1
63262.3
66397.5
46015.7
55912.7
66132.4
65468.6
82893.4
39971.1
44640.6
79849.7
61963.1
74715.2
64767.7
65880.9
67200.1
66008
63000.5
63510.6
72602.6
60469.4
73005.1
131217
50581.4
47979.7
129757
76761.9
78291.3
57125.5
56895.9
53593.6
55599
53199
52459.5
46125.7
45385
53389.1
49894.3
90289.1
68008.1
64455.4
62400.2
56165.7
58471.9
266046
82233.5
66099.1
59130.7
65300.5
120213
75066.1
63234.9
66258.7
92319.2
85741.6
81814.9
62625.9
11037.1
77823.8
303355
260197
69468.7
72601.5
57209.5
76522.1
49429.9
56847
60001.2
84995.2
175148
7961.91
47935
54782.7
219950
58093
58425.5
50367.4
71078.8
61388.3
75728.6
224639
76670.4
78164.7
57761
49993.9
45560.6
65481.2
65899.9
61485
52058.9
76052.8
114630
69706.6
150582
74360.8
77924.3
58141.1
50634.9
45985.2
113369
64929.4
63712.9
84729.6
72616.7
51626.5
53762
66454.8
64106.4
77557.8
45052.8
62373.1
60881
282365
47677.3
53447.1
49536.7
62259.5
53060.2
84482.2
47131.8
54423.2
63986.6
52901.9
61702.4
81103.7
75322.6
111161
80778.2
106371
86458.6
56911.3
58013
248709
76494
72163.9
75295.2
58115.7
192270
125392
48898.9
56922.4
80211
55677.6
74931.8
171223
99869.4
115403
191644
45562.9
50896.1
47050.1
63358.7
54503
63032.3
74827.4
49319.1
80976.7
79019.1
61163.6
51966.3
167418
66001.9
62886
200053
62277.1
66296.3
272102
113400
47911.2
54677.8
56550.3
59288.7
78184.8
57547.7
83715.2
78630.6
78518.6
85194.8
78794.7
58101.2
60043
48116.2
51121.2
44143.9
44992.8
57541.5
53225.3
75129.8
52032.8
196605
104955
66420.8
66511.1
114019
57690.2
78803.2
59619
49955.7
45906
65623
47500.8
87363.2
84927.5
79620.1
60857.4
62364.6
232707
52724.1
91886.6
52958
50101.3
53426.2
55852
64130.8
66770
63273.4
79100.6
153358
304796
51674.5
68419.9
53370.1
100085
59920.8
67933.6
60570.6
52731.4
47672.9
77046
54905.7
48372
57995
57791.4
54190.3
51172.9
48765.3
55811.5
78863.8
42044.4
35743.5
36716.5
41984.7
72682.9
71183.5
54357.5
172481
46841.5
76300.4
171169
34786.3
43304
41153.4
46986.8
55744.1
80847.9
75191.6
53086.5
47187.5
170272
75287.5
58664.4
72239
69158.7
65868.7
57751.4
75695.3
80231.9
75963.9
79691.5
62323.8
60266.9
56902.5
52583
192720
76491.7
67107.2
65444.9
161102
76176.5
211335
205144
137068
66766.5
70939.1
52209.2
141671
50136.7
65617.5
51098.6
68430.3
75185.8
46472.5
54754.2
81148.2
105695
57378.1
296490
106020
63369
72465.2
76445.2
63694.6
64124.3
79599.4
80031.9
154326
92294.8
53036.3
63319.4
60713.1
77442.4
73589.4
101802
84892.2
45896
44459.4
251718
56002.7
71000.9
67356.9
84458.1
65158.2
63716.5
66764.8
80283.8
87117.4
52163.1
71094.6
58609.2
69238.9
64684.9
106914
64830.3
61139.1
48655.7
52216.5
65863.5
34674.8
39349.9
47083
44081
50464.2
56281.2
64729.3
74578.1
54294.2
52698.4
59824.6
47956.6
54074.5
79626.3
49736
61357.4
58342.1
74807
165137
69809.1
76013.5
60036.6
65421.1
67428.1
59259.1
49632.6
50007.7
38282
38181.4
56434.6
56190.6
91255.3
61199.2
95009.7
190197
78810.8
77540.9
87146.6
63066.1
51072.5
64776.5
60331.9
11963.8
82740.5
273876
276512
54431.4
251367
71723.4
65427.3
64135.4
70486.7
61684
65330.1
106466
38836.7
42757.8
50964.1
65970.1
49489.8
56788.9
57946.3
65295.5
79696.5
76323.2
47733.3
73094.5
80311.4
83941.4
63574.5
78262.1
46915
49023.9
61181.4
69641.2
80003.5
39169.9
52086.6
42219.6
54987
62767.5
65867.9
63465.8
58986.7
83289.8
260708
75899.1
60800.6
50992
44453.6
71123.3
244215
63383.1
61899.7
222507
67617.9
70531.9
83460.3
273844
72103.9
60709.3
76128.4
148418
50403.6
56113.8
72253.8
62027
77462.7
47967.3
63178.1
50229.5
57654.2
129989
102143
77741
52058.4
44543.6
80082.8
49008.7
43633.4
50521.4
40701.8
36920
29500.1
26695.2
28469.4
49865
49692.2
45557
33634.6
43298.5
30348.2
41986.4
28605.8
76255.8
84515.5
80533.9
82768.8
67408.7
66263.7
156845
84734.6
53019.5
53864.3
56318.6
57277.8
83863
83209.3
54153.1
44667
47127.9
37129.5
37112.9
54639.7
60882.7
60141.6
59068.7
49177.6
85433.1
61700.2
54155.5
45920.2
48534.4
50445.6
56090.6
57973.6
82276.2
124935
73974
45776.2
65974.8
63458.3
56054.6
47820.2
67848.2
58023.9
52622.3
52033.1
58630.6
72964.3
67072.4
50512.2
57226.4
73564
75741.8
56463.2
53048.7
64040.5
61094.5
50948
109281
79698.3
63979.4
54086.6
47622.5
55713
76029.1
59467
49713.9
41506.4
65109.2
292703
57470.2
91371.2
157893
108408
80197.5
244300
53588.2
56904.3
46893.9
80085
56642.5
50655.7
55995.2
231297
68488.5
77878.7
56779.5
54064.7
59969.4
84280.3
49008.9
48650.7
58648.8
71515.1
46980.8
54990.9
83165
150705
239214
52635.1
78699
78141.6
62688.5
59319.6
47091.7
54082.6
291987
81648.9
55792.9
50745.7
77732.5
52449.4
59095.4
49289.8
48147.9
43039.3
33716.1
29079.1
29318.1
55892.8
58659.8
47292.6
35545.5
48202.7
31867.9
47542.9
30192.8
155151
172623
140906
52265.9
55052.1
162543
156075
57881.4
79095.1
75608.5
152704
151828
57338.2
55367.9
229236
152855
245891
255408
35364.2
37562.9
44911.4
54892.3
47508.5
101867
72341.6
57458.1
70680.1
59835.8
66445.3
54472.5
54361.9
144413
45350.6
60262.3
66052.5
58294.4
57409.8
109024
61566
63674.2
51364.4
48394.9
68247.8
51122.5
64063.8
168774
55060.2
45626.7
57275.2
75128
61686.7
51415.6
55518.8
87018
53991.7
51360.8
50281.9
54924.2
59110.8
56095.4
64815.9
64672.4
72129.7
65787.2
77137.4
66914.9
67142.5
44826.7
50996.6
38345.2
78063
78190.8
71600.3
74077
51324.6
51321.1
52369.6
49938.9
58644.5
60453.9
116996
141291
67186.5
240411
83229.9
56988.6
53909.3
65522.8
65282.3
65485.5
74858.7
80812.5
100208
53336.9
66021.2
52739.1
50662.9
76637.7
67591.9
70842.1
201014
75982.6
51040.8
78193.3
68579.6
71464.9
56617.6
46368.2
53545.9
58293.6
76659.4
60252.9
46894.7
120070
48627.2
69343.9
116381
73562.5
44728.5
44265.9
81168.7
74792.2
59484.9
67824.1
50863.9
72005.1
83880.7
55263.7
51567
58529.5
75517.9
80544.6
64773
66924.1
65164.2
64987.6
53682.3
51805.8
49843.7
51971.8
225765
78089.9
72842.9
80491.8
56881.8
75210.7
67651
59792.6
233411
60421.3
91246.4
71499.9
64206.2
58374.5
53453.9
54952.5
61950.3
62422
55637.8
56005.7
60381
52217.9
44321.6
40031.1
65106.8
66302.8
52249
151901
47453.4
49711.5
50636.1
61822.6
61547.3
82730.5
68781.6
97586.7
255571
57186.3
64288.1
53829.7
44966.5
51416.1
57847.3
72116.4
62439
52511.8
60492.8
73304.5
55375.3
54804.4
69869.7
53609.3
53891.7
58585.9
59856.4
48615.1
49697.8
100469
80865.1
43451.6
47762.2
52536.9
91811.2
93785.4
79628.5
250255
49415.6
53567.1
52428.1
63883.4
59355.6
79619.4
77956.6
75982.3
76388.2
99013.9
78851.8
80477.8
56713.9
48204.6
75304.6
210569
66774.7
61764.4
52225.6
52260.8
40513.3
40113.8
202238
156131
50700.8
53759.1
59854.3
89865.9
71358.2
50325.5
93560.4
35095.6
39293
43571.7
85634
86429.6
52357.3
303241
76819.7
60303.5
50366.9
73278.6
73003.9
59679.6
55867.4
60330
85410.4
215305
61558.5
63110.4
64134.5
129509
76764.4
57908.3
52715.7
62908.7
63690.4
56642
48913.3
48420.7
122796
47364.4
47064
57334.5
143213
166105
73758.1
63600
61303.4
51934
48575.4
149682
51400.4
56764.4
285132
300027
147397
92988.8
108437
71848
61632.4
57231.6
64446.8
42137.4
39303.8
48265.4
66913.6
66225.9
73632.5
50865.7
52318.5
60002.8
197689
184142
66470.4
84387
75125.3
256331
66200.4
64713.5
46486.7
50740
263056
269410
84050.8
83390
58821.5
49461.3
82474.2
64563.2
64076.5
82274.7
72532.2
81644.2
175442
63262.3
61803.3
68072.6
62037.1
71921.1
60005
54759.7
49183.9
70377.1
275795
85900.8
76947
52841.4
260689
83989.9
71068.4
54515.7
70939.3
67383.6
123594
52101.9
43854.8
75509.9
57590.2
51656.9
65880.4
50638.7
80249.5
80678.8
112065
262626
59358.3
53759.9
65227.7
191240
240236
80510.2
86884.7
56382.9
49971.1
46085.8
75197.2
60231.4
59659.8
52863
46821.1
234893
69068.6
60550.5
65024.7
58723.3
56149.2
79172.4
54942.5
80059.6
76687.5
84441
130255
59841.9
57978.7
51835.8
46257.3
71719.3
158823
55684.1
53790.7
44664.8
43909
76268.5
138874
97700.9
76481.8
174181
76770.4
42340.8
57769.7
46319.9
58461.4
70418.1
69807.1
69942.5
330740
116808
79107.6
119213
338449
297374
94095.5
82636.4
92143.1
51608
50478.5
67142.1
71116.9
74551.1
58712.6
74771.3
58212.9
95326.5
99969.3
74376.2
190387
60859.4
51860.7
78151.1
69382.7
37280.9
40379.3
59835.2
38666.5
40824.8
108777
70903
74124.6
58159.3
44598.3
56651
61713.9
83297.2
7764.27
66428.6
146990
58648.2
46008.3
34528
39642.9
46797
47389.8
53634.5
67930.5
59328.2
66754.9
245495
117996
83173.5
73774.2
73136.6
79751.9
56681.7
61986.4
91503.1
57650.2
68858.6
73109.3
71832.2
54805.2
74766.6
192977
54426.2
49963.3
63835
78499.5
329702
83970.2
238138
208961
60813
80753.5
66031.6
206793
63564.3
60309.7
151860
276766
67203.6
49818.1
71219.7
90926.4
71941.5
60944.6
59026.8
51011.5
44980.7
58450.8
83080.7
49723.9
48765.9
42276.6
38656.1
47108.7
40481.3
33606
45267.1
123728
50159.3
75531.8
116548
146993
209611
43027.7
49174.4
56490
57567.4
70313.7
66662.3
78354
231357
79885.3
59309.2
56987.8
51490.9
43508.1
81445.5
61819.4
54367.4
45879.9
104986
52295
191149
40294
61751.4
72454.7
239797
117851
56728.6
52033.2
264316
43948.8
43201.2
67351.8
49227.4
71280.6
35544.6
34139.7
70065.6
67650.8
58222.2
58701.9
264748
212813
250207
63709.7
54076.9
57624.8
81179
57032
135184
279638
64912
66758.5
65165.9
63952.6
48073.5
43561.8
52279.6
48997.2
115043
220149
59809.8
77192.6
72016.4
103107
72571.9
120748
111115
61137.7
82334.5
48435.7
70850.5
197214
81252.4
57526.4
76385.5
82475.6
187004
49548.3
73367.1
80977.4
53967.1
65132.7
60684.4
69374.4
49012.3
87629.6
120153
221721
60992.9
48768.5
49267.8
70631.7
71955.7
183003
72249
108879
73094.7
65852.3
43618.9
41895.4
106227
56086.2
74434.3
212439
55980.5
80939.4
58766.7
74983.3
83786.1
285976
116875
63117.8
52079.6
60405.3
46083.9
71541.2
70518.4
55943.5
65476.6
59463.4
54140.3
46679.2
41567
68266.5
50535.2
60951.6
202274
54618.9
216753
79448.7
52518.9
164267
350011
225108
57324.8
133334
71405
55602.4
69316.5
71556.7
84042.2
237047
72993
73199.1
150593
112453
243385
34912.5
33641.1
42508
44469.7
73050.6
58373.4
70924.9
50794.8
48799.8
49855.1
63382.6
60844.3
70742.7
76997.3
240580
73696.1
73733.8
66333.8
58476.5
43208
43284.1
81298.9
191430
260803
40295.1
49433.3
200527
214952
80495.6
143944
124100
80779
62930.5
60816.9
60495.4
84197.9
87185.8
128628
50681.8
76975.6
82218.8
65550.6
64039.8
128342
57226.2
71210.8
58754.3
53588.4
79049.1
60500.9
66444.7
67106
59056
5423.68
1561.41
57698.5
307053
61087
49436
82048.2
76513
83817.5
48175.1
54861.5
74109.9
83648.6
51895
71102.1
73150.3
83484.8
48513.2
35926.7
46808.2
290287
260247
70696.4
72991.9
67704.7
64913.9
78030.6
82699.6
228825
60593
54885.6
65070.6
49484.8
71390.2
67155.5
67587.4
84636.4
90612.8
56303.8
60537.1
48093.5
52727.3
85030.1
71328.4
52374.2
51705.3
79856.7
68020.1
244144
47108.7
198126
136047
108665
119531
76818.6
66391.4
61314.6
54771.3
50655.4
78007.9
81205.8
125559
80644.7
254664
84612.3
83507.9
62385.6
131796
54598
48620.7
87560.2
56548.8
67884.9
60655
54975.8
48838
57763
59439.2
59749.8
41978.7
38340
62068
64776.3
61657.1
51744.8
52787.2
42162.3
41898.2
49637.7
240082
75032.8
48959.2
52221.7
65702.3
68362
156381
41776.6
37103.1
38591
45016.9
39273.9
45578
57888.2
58869.2
56330.6
51230.3
79068.5
292470
81645.7
76681.8
261484
61402.3
54656.8
78188.1
111886
120504
75328.4
57637.2
47409
46235.5
70650.5
59935.6
112851
58755.1
63705.9
61121.2
76259.1
65967.7
67464.6
93946.3
72432.4
51831.3
62103.8
44080.1
52336.3
80391.2
65319
64899.5
66663.5
43455.8
37216.1
39979.6
48140.8
52325.5
75181.9
81429.1
80521.2
86562.6
118848
83219.3
321680
48077.8
56808
92944.7
308021
45435.4
51444.9
244626
109930
100622
55641.7
183227
76495.9
264906
56155
67812.6
47770.1
48092.5
49442.7
62376.5
62076.5
73519.2
133239
61609.1
61006.8
74331.1
59441
69403.9
52275.1
79785.4
85995.9
74096.4
241513
54954.8
84106.2
238835
55795.2
61865.4
54558.4
71451.8
70250.1
180889
142074
92841.8
79412.4
73144.1
138834
60525.4
59720.7
68315.5
66290.8
87715.3
188370
251903
162693
307623
73662
76695.4
47557.2
45440
40463.1
51563.5
56292.6
65404.1
118056
55361.8
52598.7
43474.4
63691.5
84332.5
113670
70799.3
57117.9
72481.5
75325.6
60599.6
194354
54994.8
68803
57041.6
50699.1
45775.6
63163.2
115611
95126.3
91599.6
78062.2
81661.7
45070.2
69827.9
49611.4
62184
67788
54712.9
321392
61933.4
269663
73207.8
83767.1
54416.6
86081.5
80918.5
73312.1
63801.3
64505.7
286667
53387.8
45988.4
58163.5
52006
63951
99302.2
44925.9
225666
59834.8
45779.9
56629.3
47803.3
67749.9
33756.9
36603.1
35783.5
30764
31836
32801.2
43638.5
33273.4
49185.2
73832.9
6267.44
67365.1
68766.9
62020.2
57608.6
62847.6
58882.8
62425.6
52606.4
44136.4
39815.2
68584.1
66065.6
54614.9
77016.9
56401.9
68277.3
68675.6
50440.1
44697.4
37735.1
42171.6
52773.9
69653.9
60355.1
56202.1
84905.4
110411
69961.3
55428.9
65255.4
54545.4
46312.8
128170
53065.1
50151.7
53302.3
133512
57507
78867.4
76466
58528.7
72682.3
53457.5
48396.6
59854.9
77134
85413.4
84678.8
78408.6
115535
240225
286967
57597.5
59435.9
65475
62077.7
83920.2
82582.1
140337
80127.1
276276
305358
199336
57082.7
58539.6
53457.4
106829
48593.5
57716.4
89989.6
68273.2
81462.5
95213.4
99317.5
74435.7
104005
238790
138302
112641
117323
300247
180739
76454.3
120070
74762.8
68303.2
67577.7
170870
90159.1
64278.7
61012.5
70342.9
67564.2
83095.4
68976.6
60031.8
49434.9
71620.8
66393.4
62709.4
50344.4
78083.6
78481.5
72171.8
88482.6
318548
58667.1
56687.4
107050
50170.3
72795.7
64464.9
81083.9
262401
1970.88
20363.9
19880.2
4070.91
54538.5
120652
47639.1
52493.9
63489.1
73452.8
150539
77811.3
74905.3
177325
185173
47526.7
64976.2
58829.1
96980
66948.3
63439.7
188383
50430.1
58252.2
48924.2
47562.8
44534.2
39324.7
32077.5
31693.5
56688.3
59756.1
52781.4
40689.1
47666.7
34608
48628.8
32281.5
57203.1
66726.4
65672.4
47505.4
43782.4
54730.1
45140.5
47052.9
70507.8
72078
52220.7
72419.6
61030.3
71918.9
79285.4
80052.9
51783.5
53691.7
42286.8
45777.3
66319.2
49111.7
56301.8
211803
116346
46508.8
40332.1
61423.2
79943.9
62088.9
46946.7
54668.1
80047.6
114638
89387.8
48296.5
47827.8
78793.7
69705.7
153661
76642.2
78863.7
80497.1
71672.7
61059.7
84582.9
103310
51724.6
46668.7
87874.4
47195.3
86073.2
66353.5
62302.4
282016
186752
34456.5
43081.8
31664.7
30749.3
118952
67691.7
81681.1
63376.3
56145.5
64786.9
55981.3
64330.6
267303
63834.6
61383.6
49543.4
47401.4
62990.6
71197
60960.3
54410.4
63303.4
274194
67856.7
81218.6
91961.4
89873
54281.7
69964.4
59019.8
66428.6
118946
135076
51680.5
56569.6
221481
88696.1
63434
53647.1
54886
42454.1
42022.8
52120.2
51946.9
74557.6
48543.6
34558.1
58337.6
39683.3
46822.3
63981.9
54948.4
213672
199359
79807.2
43143.6
47675.5
54176
75233.1
64349.3
120941
48151.4
49263.8
72727.2
70676.1
58875
61938
80333.7
76562
38684.8
40053.4
38582
35713.5
101653
240968
275229
129782
67644.5
41580.3
44627
51738
74589.6
124587
70479.7
131616
85293.9
53831
47595.4
58952
67684.5
58407
63906.7
68226.3
44903.9
66274.5
55406.7
43744.3
53201.3
64194
53975.1
52342.4
47172.3
47942.7
48533.4
47349.4
35165.7
39081.7
33974.7
38523
53550.4
58607.5
82048.1
73702.4
78124.4
59848.4
164614
45418.1
77406.3
36223.5
47749.6
31990
31440.1
75362.7
66365.5
52451.4
58520.3
42641.5
40197.5
63948.4
58148.8
76350.3
52861
63461.1
68080.9
93386.3
59510.8
46532
41032.3
53694.6
57439.6
66740.5
161283
50926
56175.2
112252
49389
43112.4
46244.9
80560.3
64717.5
55251.8
49140.7
80870.6
52749.8
87072.1
55220.9
50135.5
61268.3
56955.2
70713.2
115666
150017
75743.7
68230.7
61927.3
152248
204141
168169
53481.8
63331
58974.1
49196.2
45724.3
51702.5
55442.7
67521.4
70819.5
59004
43420.1
51951.3
72497
78299.2
62598
262192
57523.6
61720.8
49781.1
44878.6
48200.8
61211.6
57320.8
228432
43792.5
51087.1
60876.4
73692
49183.7
4499.96
1483.83
48053
87650.9
63904.6
65917.2
65842.1
108262
61786.3
56752.9
52197.7
59201
72593.1
76919.9
70279.7
59159.7
71556
56862.9
45997.5
52548.9
58211.7
58054.6
73616.6
226260
103751
70831.7
69071.7
68488.6
316302
103123
74475.9
57092.9
45898.4
55379.6
46399.3
47514.3
34589.9
39641.9
113566
85097.8
75872.5
132525
283185
121431
104824
133862
70500.8
243448
55295.3
67271.7
58697.7
69700.8
50102.7
71590.7
65511.3
72313.5
80931.7
44662
74928.5
118919
35259.1
39833.3
47629.8
65288.4
50169.7
54241.7
58239.6
62569.9
44313.1
73237.8
100977
3039.71
33963.3
33178.5
1675.52
67602.6
64107.2
63102.2
72626.9
52959.8
55569.3
83909
94124.4
268839
47482.2
50152.8
57162.1
51250.9
131590
158477
40360.6
84554.5
88402.8
83894.3
56228.7
51211.9
93481.6
179065
53313.2
51783.4
81281.3
124052
83082.2
51969.3
66051.9
58154.5
32224.2
40137.1
42876.5
109302
106831
54412.1
48750.9
83492.2
78272.1
69264.4
63017.3
49891.6
55573.8
71214.1
54176.3
50992.3
62365.4
84641.9
33605.5
41216.5
34030.3
40492.9
33842.2
41443.9
48105.6
83476.4
38161.6
45822.4
37021.8
48029.9
72587.5
68405.3
40210.1
43710.8
37387.9
43658.9
36911.3
45277.3
36270.8
46657
74746.5
311500
51015.2
47419.5
55715.1
77136.5
55232.2
79090
31419.4
2942.95
30688.9
2644.91
72777.5
63175.3
41730.9
36863.3
48931.2
54527.3
49221.2
168295
57011.9
77927.9
115618
219684
65345.8
66262.9
60757.4
240403
233780
250954
58167.6
116350
77340.8
48192
52817.4
85826.4
54827.7
49133.4
60690.5
69415.3
60162
319594
104007
245320
64116.5
77923.9
71635
57031.8
67776.2
235682
63633.9
112150
69961
86395.2
241936
51803.8
86461.1
77297.2
73629
87375.7
61223.7
55201
45546.3
55775
64467.4
73581.6
51724.3
53631
60584.8
69327
59472.6
48499
47230.7
190387
249734
280057
48134.5
52609.6
63156.3
74678.9
54982.4
48467.2
55930.6
234067
280405
100935
259418
8628.21
270744
143935
32907.2
30652.8
44913.1
33421.9
75286.5
138618
81986.4
44802.5
189044
62633
85817.6
66381.8
74468.7
63232.3
63513
66161.9
79402.8
82388.4
69248.9
71575.9
46887
49908.7
54507.3
53212.5
64601.9
66280.6
71565
76017
76389.9
78749.9
48201.2
62701.9
76450.3
50900.8
205500
193162
78458.4
70340.1
81648.3
57423.6
61587.2
50867.9
77897.2
191142
49482.7
57783.1
41958.6
73007.4
265739
148053
45288.3
255276
65960.7
62194.5
69491.6
131343
63664
153109
151800
53025.6
70961.8
78702.4
84071.2
57651.2
268477
52146.8
51704
60331.1
76708
76020.7
53030.8
65306.2
114219
56564.7
111087
69938.4
82471.2
52816.3
54440.6
83539.8
33085.9
41525.8
34327.4
45351.5
42704.6
58756.3
49060.3
45795
28619.3
27513.7
51706.7
34123
43533.1
42598.8
39380.4
45725.8
255571
77247.9
215922
54296.7
69763.8
60104.9
1074.84
8384.71
87704.9
45002.9
195601
58211.9
77409.5
56852.1
61261.7
52062.1
126023
60718.2
62758.4
61088.8
47823.6
110079
74191.6
48311.2
45638.7
60280
39729.9
35173.7
44875.9
48997.4
113644
59546.7
68305
52901
191145
62748.8
55602.6
55746.5
66290.2
114230
286277
86718.1
110091
267651
82983
113826
232922
117509
137293
97110.7
110725
66323.6
112044
44719.1
46786.6
75272.2
1906.78
20232
19749
3347.03
62332
239062
52912.9
76820.1
112671
52140.4
35580.9
33590.1
35823
33451.4
46578
43333.9
46249.3
43904.7
55089.6
54024.4
60751.4
69724.5
57039.4
48352.5
46100.6
46129.8
64453.1
53731.9
70267.9
49655.3
52630.8
76439.6
67185.5
62607.1
71418.9
59672
227355
105550
58983.1
41427.4
34568.2
49311.1
84356.9
172609
139138
89086.4
89781.6
87737.2
218174
138391
83580.1
49891.8
63278.8
53952
74138.6
63524.4
55318
45465
61621.1
309149
143341
60003.8
54709.5
60839.6
67659.5
73659.6
52048.3
62728.2
82636.7
86140.9
52591.3
48741.5
53180.6
72286
259564
219224
48887.9
89374.5
54880.4
69993.1
79446.2
63912.4
109120
213805
37590.7
40653.7
38177.1
35496.1
81076.1
50236.9
69797.5
73417.2
60081.2
55288.4
325224
249800
57995.8
66104.6
54322.2
51161.3
52893.4
44436.3
56323.7
34529.6
36305.8
143437
63523.5
53247.7
57398.7
78931.4
61286.9
194672
60022.2
107629
60610.8
224172
52493.2
52548
42941.4
317587
70795
47844.7
72750.2
45277
65777.3
61873
68412
51457.6
30285.3
41588.7
30862.9
40541.3
44558.6
55411.5
53910.8
54228.2
51487.5
49641.2
54615.5
54613.5
49220.9
39689.4
62588.6
64520.4
91347.6
107710
230501
241343
267656
106924
141028
155571
67876.5
57233.8
60079.8
120086
152862
67766.4
206599
83831.5
9043.06
50459.5
55044
36853.4
216094
79387.4
77512.1
42544.4
282252
195935
80229.6
44039.9
47128
60355.2
55864.9
56169.2
58791.5
50762.7
58422
69062.1
71817.8
73809
73435.7
49403.8
311482
121199
212936
236256
81352.4
59305.9
62917.5
40952.4
44510
51844.3
67038.6
188654
55907.2
116075
251554
90255.6
59461.1
222855
51828.7
55372
61668.5
66757.7
65373.2
62823.7
76410.1
65254.1
61488
74994.6
67728.8
50147.7
43486.4
40130.3
59515.3
304248
82791.1
57871.9
65363.5
35580
35640.6
42492.2
44553.6
44439.7
57304.8
53088.9
42536.9
34277.3
36357.9
54179.6
52386.2
54473.5
51316.7
52528.2
75741.3
86150.7
75339.1
57207.8
58224.6
46152.8
52163.4
104942
39735.1
38036.4
187398
82874.3
59737.5
77445.5
65101.6
65942.7
66043.5
67736.3
269826
72336.4
72430.8
81386
81932.8
76974.2
70434.2
101404
75947.5
80586.6
105949
150686
54854.5
52660.1
56149.8
66783.3
92777.7
231578
209382
183909
83609.3
50474
107912
83635.5
80693.4
271579
77934.6
138511
44445.1
82974.5
44567.2
65456
75625.8
188952
64029.6
54889.6
61361.8
69643.1
68092.7
59363.5
38500.5
47530.6
241409
40834.2
34355.1
74174.9
52282.9
55587.5
73167
70744.9
65467.7
63658.7
73772.7
52319.2
40318.5
3892.37
39389.2
2690.39
87281.4
115247
60353
56431.4
52544
43799.9
39812.7
64696.1
154881
146214
51772.3
66962.8
42820.1
41309
25908.6
2406.83
25302.1
2577.74
102926
128349
44661.9
56892.9
53572.1
66962
276107
53575.5
65210.9
38314.2
43182.8
77355.6
5304.96
143598
57322.6
187256
62659.3
59730.6
65223.6
50202.6
58925.3
55822
68929.2
75099.6
60434.9
71610
75846.5
70176.6
72707.4
63209.2
60041.4
66519.8
68276.3
66446.6
61712.8
65948.2
77426.5
76509.9
1857.89
7012.41
74748
47860.4
52010.2
43457.6
39679.6
64219.7
226866
274165
56461.6
77863.6
63573.1
70248
35029.8
3434.81
34222.7
2994.15
63528.9
57795.2
51252.9
257353
254045
99706.2
231247
46323.1
43824.2
48344.6
48864.8
236256
67069.3
65094.3
53854.3
56481
74289.7
56960.2
48487.2
46004.3
91058.9
104199
54372.3
41147.9
54551.8
58234.6
80904
61270.8
52530.1
61673.6
242530
67584.5
83907.5
73963.9
42947.3
45189.6
43406
46147.5
54918.5
47420.7
59160.3
49699.2
90378.1
62692.9
63476.2
35688
49762
45079
46121.5
65543.4
72107.4
82268.6
93396.7
55476.1
63989.4
1121.21
14774.7
4294.8
14518.2
55634.1
66303
71845.5
255734
4636.46
257258
66780
6124.7
1965
65245.5
51921.4
21384
2335.89
20895.2
55684
60451.1
49776.5
267994
181232
8612.11
44018.8
56671.6
52864.3
63318.4
52292.1
59051.7
85866
149344
48363.8
55622.8
53171.3
63330.6
53212.1
48054.6
59890.2
60516.7
198476
57296.6
54945.9
48219.8
46424.4
165836
83385.7
55485.3
139685
191971
141326
56246.9
54432.7
65381.9
65790.7
57595.8
83041.8
61909.7
47525.7
78955.5
56839.8
146644
187862
44739.8
46191.3
54903.5
61307.9
61868.9
53170.6
59569.8
80969.6
70875.6
126113
67864.1
57275.4
196091
159981
57012.5
61954.6
42893
55509.3
47460.1
70684.9
72583.4
51566.3
46420.7
166905
92277.9
51927.6
38955.5
10712
61085.6
67439.3
44574.8
56632.3
50148.4
73675.5
246556
238489
82921
56011.1
47276.5
44936.9
182181
67121.5
82688.6
74563.1
236122
245196
44394.4
82038.2
63092.9
55816.4
52454.4
46402
61051.9
59901
78957.8
74042.9
45497.8
251565
80482.3
41971.8
44409.5
68890.6
61923.9
60839.6
68407.9
64497.3
52554.3
55960.7
76811.2
47798.7
57624.2
60724.2
79126.3
41888.4
51749.5
192261
83936.9
48649.4
74039.5
162869
296236
68874.9
34908.1
48624
32087.1
32309.8
74984.6
77949
64650.5
74255.5
74472.4
70626.3
66053.3
57083.8
67167.6
140698
60181.8
62225
63919.8
55426.5
58608
60180.2
62672.7
33107
34473.6
75703
71659.6
82412.6
77471.2
74224.8
50797.4
55999.7
81770
56333.1
84022.1
51153.3
53787.5
247734
224698
219398
61753.6
80195.8
60934.2
56616.3
50027.9
62947.7
68495
40188.4
167875
59178.4
51463.9
47171.6
55012.2
114209
257011
57355.7
55639.5
52988.3
64758.3
213245
55167.4
88338.5
55752.6
51999.9
53591.7
49978.5
61787
57180.3
76269.7
168344
78604.1
20111
2379.98
19653.8
164488
113103
144206
259989
225832
86805.2
273352
116920
2148.75
15985.7
66049.6
82376.1
53595
55531.3
66701.9
84314.4
58597.3
62764.5
46946.7
43555.2
68279
51929.6
47372.1
61734.6
80125.1
61200.6
50520.8
137393
16343.2
126167
91342.6
39723.6
65772.7
47689.4
58353.6
51117.6
58421.8
51254.2
47795
85222.6
54116.6
92873.1
95650.2
49565.8
83170.1
48051.3
150012
70295.7
67924.4
66294.9
61835.6
78519.9
230544
61372.6
76800.6
75782.2
163640
93096.5
46218.3
51584.5
52785
59743.4
46841
61031.5
71100.5
74130
1259.19
10258.3
53457.6
49921.5
44095.2
43948.7
32868.7
36934.8
53123.7
49033.5
49901.4
37411.8
45968.7
34891.1
85316.4
52686.8
47271.5
79264.1
79581.6
71646.9
63973.8
72232
63079.1
79554.7
46225.2
67269.3
62630.6
54574.2
55004.8
56071.2
66829.4
74207.9
54802
46913.8
81818
72120.1
49797.1
79002.4
65720
62303.9
66163.4
63488.3
67056.9
65237.4
44055.3
47907.9
84564.7
58513.7
56959.3
81593.4
42311.9
46801.8
65447.8
56726.3
52566.9
73090.2
73713.3
65503.7
63618.3
42969.4
44389.7
68962.4
61850.8
52053.8
43297.8
102325
95799.2
72900.9
88135.2
223061
69681.5
67716.2
59625.8
59033.2
74155.3
58014.7
50061.4
42705.2
52478.7
46480.2
72698.4
71532.7
63940.2
62328.6
154588
62615
53452
63938.5
52809.5
50821.1
50199.8
61632.3
60802.9
178318
130168
53259.7
61894.6
81913.7
79685.1
81142.1
63655.7
54744
50492.9
84470.4
57620.8
69758
245105
48378.5
44158.3
60343.5
49109
55565.7
12550.7
46577.1
55077.1
75226.2
52792
75497.6
52835.3
62038.6
80934.8
216337
56555.9
66997.9
54954.5
174848
44914
42744.6
55587.4
66687
68987.3
65769
73379.4
62839.1
55524.1
52581.5
82203.6
52694.2
36176.7
40686
75712.7
66609
81468.1
61046.1
70093.2
57446
69547.3
65468.8
48379
54425.8
48599.3
46650.8
167488
58015.1
322838
46016.6
109608
199507
79059.7
75756.4
158294
52922.7
53566.4
139854
80370
56629.1
40685.4
34363.6
44855.3
76356.2
92576.8
45978.8
83573.6
79314.1
43541
66758.8
56042.1
56779.7
53689.8
56719.6
48931.8
54529
54542.9
59361
51667.9
60129.2
36987.1
40178.9
38342
41419.1
102168
127402
61002.5
235656
79182.7
81238.6
78362.5
243824
63776.8
55886.5
58437.9
74718.9
69235.8
87276.7
88693.5
60671.9
153455
66176.1
60087.6
64106.1
77963.9
77125.8
77746.6
86708.5
87945.9
121554
60857.3
74278.4
65062.1
62967.1
82346.7
58062.2
48679.2
46574.4
294248
86655.7
71822
58903.4
54046.5
67201.3
57144.9
52066.1
94095.4
52559.3
79047.9
82732.1
84423.6
42337.8
249728
53252.8
51039.6
77583.5
63280.8
79679.8
207680
97535.8
82603.5
57873.7
84778.6
198250
74094.6
77948.7
57746.4
84272.4
81389.1
34388.6
35266.1
165448
138086
127939
130218
174415
78740.7
47934.4
50248.4
44222.1
46423.8
137839
61120.3
76469.2
74379.9
75849.1
72722.4
66015.7
35776.3
37017
64448.6
62518.2
5752.98
780.933
61094.9
82325.5
50551.2
94430.3
52761
50198.1
55607.5
60024.5
59736.8
60119.1
61248.6
62923.6
63127.8
58436.6
77510.2
48869.8
52709
59221.6
46104
204101
165928
54481.8
42588.2
44841.8
193415
35806.4
46690.6
36428.2
48391.5
48517.2
62072.3
57013.7
53883.1
31775.7
32125.8
37819.4
55360.2
46358.8
51529.7
43192.3
51272.1
74741.2
93300.1
57107.6
139356
136148
171305
72871.5
82115.7
82644.2
75880.9
54048.2
47710.5
56952.5
146823
62711.7
59336.4
86338.5