/*--------------------------------*- C++ -*----------------------------------*\
| =========                 |                                                 |
| \\      /  F ield         | OpenFOAM: The Open Source CFD Toolbox           |
|  \\    /   O peration     | Version:  2.3.1                                 |
|   \\  /    A nd           | Web:      www.OpenFOAM.org                      |
|    \\/     M anipulation  |                                                 |
\*---------------------------------------------------------------------------*/
FoamFile
{
    version     2.0;
    format      ascii;
    class       volVectorField;
    location    "2080";
    object      D;
}
// * * * * * * * * * * * * * * * * * * * * * * * * * * * * * * * * * * * * * //

dimensions      [0 1 0 0 0 0 0];

internalField   nonuniform List<vector> 
11800
(
(7.2496e-06 0.000208234 0)
(-9.19945e-06 0.000231878 0)
(5.12587e-06 7.05856e-05 0)
(-5.86383e-06 9.5817e-05 0)
(-8.4061e-06 0.000231487 0)
(-3.80478e-06 9.60035e-05 0)
(-1.40774e-06 0.000156544 0)
(-1.34205e-06 0.000120873 0)
(6.14017e-07 1.87525e-05 0)
(1.10535e-06 7.31956e-05 0)
(8.05144e-06 0.000207743 0)
(-7.31291e-06 8.17631e-05 0)
(-7.33032e-09 -5.8346e-09 0)
(4.55462e-06 7.01625e-05 0)
(-5.2027e-06 9.62179e-05 0)
(5.07675e-06 1.15287e-05 0)
(-7.95251e-07 0.000156091 0)
(-7.71708e-07 0.000120443 0)
(3.4381e-07 1.89592e-05 0)
(6.77684e-07 7.28356e-05 0)
(-4.47495e-06 9.56524e-05 0)
(-6.70194e-06 8.20856e-05 0)
(-1.12279e-06 4.09158e-06 0)
(-1.19817e-06 4.26014e-06 0)
(4.52488e-06 1.31618e-05 0)
(-1.79228e-06 6.77096e-06 0)
(-7.19441e-06 4.89678e-05 0)
(1.03392e-05 0.000140406 0)
(-6.42396e-06 3.72118e-05 0)
(-5.57441e-06 2.68085e-05 0)
(1.09435e-05 0.000177249 0)
(4.44413e-08 3.1887e-06 0)
(2.3232e-06 8.69517e-06 0)
(-5.60073e-06 0.000237921 0)
(4.51029e-06 0.000236854 0)
(-1.25025e-05 0.00018922 0)
(4.20034e-06 0.000237667 0)
(2.28605e-06 8.93858e-06 0)
(-1.37656e-06 0.000165285 0)
(1.1071e-06 8.03269e-05 0)
(-7.07347e-06 4.95128e-05 0)
(-6.32232e-06 3.76989e-05 0)
(1.01004e-05 0.000139608 0)
(-5.49268e-06 2.72365e-05 0)
(1.07003e-05 0.000176411 0)
(4.84202e-06 1.16203e-05 0)
(1.28479e-06 4.84135e-06 0)
(1.4328e-06 4.76445e-06 0)
(-2.15252e-06 0.000165426 0)
(1.73211e-06 8.0439e-05 0)
(-1.18996e-05 0.000122464 0)
(-1.26965e-05 0.000158144 0)
(-1.1852e-06 0.000206022 0)
(6.31769e-08 3.0266e-06 0)
(-6.22998e-06 1.37194e-05 0)
(8.52407e-07 7.16104e-07 0)
(-1.56e-05 0.000241167 0)
(-3.95427e-06 6.79739e-05 0)
(4.4739e-06 9.88124e-05 0)
(-2.87827e-06 6.53203e-05 0)
(1.6984e-06 2.27598e-06 0)
(-2.02601e-06 0.000206175 0)
(-3.44037e-06 6.78216e-05 0)
(3.89907e-06 9.89939e-05 0)
(4.23828e-06 1.29617e-05 0)
(-1.48927e-05 0.000213335 0)
(-1.23446e-05 0.000121933 0)
(-1.32162e-05 0.000157562 0)
(-1.48179e-05 0.00024078 0)
(-1.88044e-06 6.98981e-06 0)
(-4.99494e-06 0.000238585 0)
(-8.8031e-06 0.0002373 0)
(-9.05847e-06 0.000236462 0)
(-8.08757e-08 9.18825e-08 0)
(1.81368e-06 2.37328e-06 0)
(-1.17779e-05 0.000189747 0)
(5.54374e-06 1.81545e-05 0)
(-1.51341e-05 0.000214127 0)
(-1.20552e-05 0.000215926 0)
(-1.12641e-05 0.000216643 0)
(-5.93938e-06 1.35328e-05 0)
(8.79518e-07 8.33844e-05 0)
(8.26388e-06 0.000235451 0)
(7.37439e-06 0.000235596 0)
(-1.08918e-06 8.56788e-05 0)
(-5.35321e-06 3.01674e-05 0)
(9.89198e-06 0.000170857 0)
(-6.0991e-06 4.1033e-05 0)
(-6.77993e-06 5.32277e-05 0)
(9.31234e-06 0.000134344 0)
(-2.89146e-07 0.000201594 0)
(2.47051e-06 8.26746e-06 0)
(-7.49574e-06 0.00021731 0)
(1.54416e-05 0.000243003 0)
(2.44173e-06 0.00010549 0)
(-1.95325e-09 -1.48522e-09 0)
(5.04368e-11 -3.15004e-10 0)
(1.95019e-09 -1.48292e-09 0)
(-1.80023e-07 0.000208539 0)
(-6.94242e-06 8.35566e-05 0)
(1.32878e-05 0.000242139 0)
(8.06023e-06 9.17342e-05 0)
(-3.00106e-06 1.20577e-05 0)
(-6.81155e-07 9.3201e-06 0)
(-4.52025e-07 0.000230455 0)
(8.13832e-07 1.9611e-05 0)
(-1.71818e-06 0.000119119 0)
(-1.78305e-06 0.000154603 0)
(2.63184e-06 4.52497e-06 0)
(6.12643e-06 4.10142e-05 0)
(5.379e-06 3.01504e-05 0)
(6.80953e-06 5.32063e-05 0)
(-1.00649e-05 0.000170878 0)
(-9.47805e-06 0.000134373 0)
(1.43214e-06 7.1717e-05 0)
(2.08252e-06 4.12804e-06 0)
(1.47271e-05 0.000214202 0)
(-6.05058e-06 0.000219839 0)
(2.1211e-06 3.97798e-06 0)
(-1.02869e-06 7.40986e-05 0)
(-6.2215e-07 1.82604e-05 0)
(1.33151e-06 0.000157686 0)
(1.265e-06 0.000121897 0)
(-1.87982e-06 0.000151266 0)
(-7.5445e-06 0.000218124 0)
(-6.78227e-07 0.000207893 0)
(-4.85344e-06 0.000230546 0)
(-1.14358e-06 0.000229923 0)
(-1.67411e-05 0.000249114 0)
(-1.73389e-05 0.000248514 0)
(-5.01553e-07 2.26966e-07 0)
(-2.25953e-06 5.34601e-06 0)
(1.01493e-05 0.000165816 0)
(-5.74203e-06 3.29634e-05 0)
(9.52045e-06 0.000129607 0)
(-6.49363e-06 4.41983e-05 0)
(-7.17932e-06 5.6731e-05 0)
(9.36315e-06 0.000165966 0)
(-5.2923e-06 3.2866e-05 0)
(8.78389e-06 0.000129746 0)
(-5.98655e-06 4.40907e-05 0)
(-6.61999e-06 5.6614e-05 0)
(-1.40749e-06 1.69208e-05 0)
(3.27735e-06 0.000160683 0)
(3.06104e-06 0.000124789 0)
(-2.63798e-06 7.64951e-05 0)
(1.26986e-05 8.38979e-05 0)
(-1.26544e-05 8.20837e-05 0)
(7.92781e-06 9.23938e-05 0)
(-9.52305e-07 9.88713e-06 0)
(-8.34118e-06 0.00020067 0)
(-8.26927e-06 0.000201726 0)
(4.04238e-06 0.000235052 0)
(-9.32604e-06 0.000189481 0)
(3.71787e-06 0.000134279 0)
(4.03044e-06 0.000170768 0)
(-1.03924e-05 0.000150616 0)
(-9.65582e-06 0.000115406 0)
(4.95284e-06 2.15985e-05 0)
(-7.82485e-07 0.000202345 0)
(2.86153e-06 4.60476e-06 0)
(-8.52471e-06 0.000189667 0)
(5.80266e-06 1.84153e-05 0)
(-3.84586e-06 5.53828e-05 0)
(-3.47108e-06 4.29704e-05 0)
(-3.06053e-06 3.18671e-05 0)
(5.17504e-06 0.000131276 0)
(5.51066e-06 0.000167603 0)
(-2.5355e-06 3.1684e-06 0)
(-4.55852e-06 2.07838e-05 0)
(9.66148e-06 0.000152271 0)
(8.96964e-06 0.00011696 0)
(2.14255e-06 0.000154434 0)
(-1.42404e-05 0.000188345 0)
(-1.43838e-05 0.000189466 0)
(5.21155e-06 1.3184e-05 0)
(5.21736e-06 1.35453e-05 0)
(5.67034e-06 3.98374e-05 0)
(6.31631e-06 5.19003e-05 0)
(4.96393e-06 2.91124e-05 0)
(-8.91462e-06 0.000136169 0)
(-9.45542e-06 0.000172798 0)
(3.78249e-06 0.000133445 0)
(4.05296e-06 0.00016991 0)
(4.13339e-06 8.17595e-05 0)
(-2.00095e-06 7.63241e-05 0)
(-1.07245e-06 1.70075e-05 0)
(2.47576e-06 0.00016047 0)
(2.31126e-06 0.000124589 0)
(-3.26488e-06 0.000197946 0)
(-1.12401e-06 3.52869e-05 0)
(-1.26473e-06 4.68278e-05 0)
(-1.2258e-05 0.000211704 0)
(-3.49349e-07 8.12302e-06 0)
(-1.18735e-05 0.000100396 0)
(1.02561e-05 6.68154e-05 0)
(1.22371e-07 1.19116e-07 0)
(-7.34555e-06 0.000238298 0)
(1.46243e-05 0.000215058 0)
(-4.37285e-07 2.64059e-07 0)
(9.62554e-06 0.000225339 0)
(1.20298e-05 0.000192781 0)
(1.29038e-05 0.000192938 0)
(-3.99406e-07 0.000231616 0)
(-1.00245e-06 0.000232354 0)
(6.85442e-06 6.52159e-05 0)
(6.05244e-06 6.5502e-05 0)
(-8.10399e-06 0.000102088 0)
(-7.14241e-06 0.000101734 0)
(4.93303e-07 2.23331e-07 0)
(-1.37549e-06 1.18489e-05 0)
(-1.55227e-06 6.6273e-06 0)
(-3.65862e-08 1.38121e-08 0)
(4.70739e-06 7.84245e-06 0)
(-1.13835e-07 3.62722e-08 0)
(6.07515e-07 6.51002e-06 0)
(-8.32873e-06 0.000230405 0)
(-4.09514e-06 2.94498e-05 0)
(-4.66306e-06 4.02325e-05 0)
(-5.19138e-06 5.23435e-05 0)
(7.62148e-06 0.000172114 0)
(7.20159e-06 0.00013554 0)
(4.74566e-07 0.000160175 0)
(4.40728e-07 0.000124311 0)
(-2.26123e-07 1.71284e-05 0)
(-4.25326e-07 7.6099e-05 0)
(-1.67122e-07 2.78069e-08 0)
(6.29027e-07 2.13816e-05 0)
(-1.27489e-06 0.000115621 0)
(-3.80359e-06 7.35282e-05 0)
(8.81237e-07 2.107e-05 0)
(-1.78618e-06 0.000116227 0)
(-5.69953e-06 0.000218094 0)
(7.05319e-06 8.23519e-05 0)
(6.57039e-06 8.1726e-05 0)
(3.63435e-08 1.37311e-08 0)
(1.66497e-07 2.77148e-08 0)
(-1.10306e-05 0.000203087 0)
(-1.06125e-05 0.000203943 0)
(-1.04919e-05 6.98562e-05 0)
(1.17364e-05 9.68522e-05 0)
(9.35422e-06 0.000172724 0)
(8.81575e-06 0.000136104 0)
(-4.97791e-06 2.91554e-05 0)
(-5.68925e-06 3.98834e-05 0)
(-6.33781e-06 5.19516e-05 0)
(-3.60251e-07 0.000207066 0)
(-4.21426e-06 1.98906e-05 0)
(9.13206e-06 0.000154159 0)
(8.49069e-06 0.000118713 0)
(5.62913e-06 8.32036e-05 0)
(4.71681e-06 0.000195349 0)
(7.41988e-06 0.000243294 0)
(7.7878e-07 6.41617e-06 0)
(-2.79568e-06 6.59841e-05 0)
(-1.00125e-08 2.38567e-06 0)
(1.13259e-07 3.61137e-08 0)
(2.6599e-06 6.95858e-05 0)
(2.28693e-06 6.88667e-05 0)
(-2.91214e-06 9.70297e-05 0)
(-2.49754e-06 9.77391e-05 0)
(5.1586e-06 5.2327e-05 0)
(4.63435e-06 4.02177e-05 0)
(4.06126e-06 2.94419e-05 0)
(-7.25835e-06 0.000135541 0)
(-7.70211e-06 0.000172136 0)
(-4.08987e-06 0.000238369 0)
(1.43124e-06 1.76309e-06 0)
(-1.8163e-08 0.00013763 0)
(-2.30772e-08 2.82034e-05 0)
(5.38924e-06 0.00023005 0)
(4.41954e-06 8.11738e-05 0)
(-1.71652e-05 0.000227338 0)
(5.08008e-06 8.3798e-05 0)
(2.04777e-07 1.51873e-07 0)
(1.40856e-05 0.000186033 0)
(1.41672e-05 0.000184996 0)
(-8.66289e-06 0.000118863 0)
(-9.31586e-06 0.000154314 0)
(-7.74129e-06 0.000118567 0)
(-8.32687e-06 0.000153998 0)
(4.23456e-06 1.98175e-05 0)
(3.79546e-06 1.99478e-05 0)
(4.19162e-06 0.000109274 0)
(4.98938e-06 0.000109148 0)
(4.53915e-06 0.000143984 0)
(5.40512e-06 0.000143847 0)
(-2.36811e-06 2.48296e-05 0)
(-2.81891e-06 2.49096e-05 0)
(-5.03474e-07 1.12339e-05 0)
(2.51531e-06 7.18562e-06 0)
(2.35492e-06 6.93864e-06 0)
(2.40765e-06 5.26e-06 0)
(4.0301e-06 0.000196183 0)
(-1.40118e-05 0.000186375 0)
(-1.40868e-05 0.000185297 0)
(5.37908e-06 1.4714e-05 0)
(5.2742e-06 1.42975e-05 0)
(1.11395e-05 8.39166e-05 0)
(1.12887e-05 8.48484e-05 0)
(-1.10961e-05 8.20197e-05 0)
(-1.11556e-05 8.11029e-05 0)
(4.99173e-06 0.000234895 0)
(-1.37519e-05 0.000237942 0)
(-1.32183e-05 0.0002005 0)
(3.19453e-06 3.63744e-06 0)
(-8.08513e-06 0.000234972 0)
(-7.22175e-06 0.000234171 0)
(3.40659e-06 0.000110511 0)
(-2.1418e-06 9.94167e-05 0)
(1.88086e-06 6.74593e-05 0)
(-9.51676e-06 8.42277e-05 0)
(9.29198e-06 8.16303e-05 0)
(-4.58606e-06 1.44619e-05 0)
(-1.36304e-07 8.7245e-08 0)
(7.25619e-07 2.99772e-06 0)
(8.36463e-07 7.19422e-05 0)
(-8.02544e-06 7.24464e-05 0)
(8.58349e-06 9.37741e-05 0)
(-4.63173e-06 6.60102e-05 0)
(5.44941e-06 0.000101141 0)
(2.74073e-06 0.000175396 0)
(3.78893e-06 0.000175021 0)
(-1.65861e-06 3.82157e-05 0)
(-2.28517e-06 3.84441e-05 0)
(-1.85416e-06 5.01045e-05 0)
(-2.55326e-06 5.03583e-05 0)
(4.34138e-07 1.94779e-05 0)
(-9.46887e-07 0.000119384 0)
(-9.57587e-07 0.000154903 0)
(-1.5398e-06 0.000226244 0)
(2.20156e-06 5.22677e-06 0)
(-4.46409e-07 9.68884e-05 0)
(-6.53892e-06 0.000231889 0)
(9.18672e-07 7.42676e-07 0)
(5.81665e-06 0.000138283 0)
(-3.21929e-06 2.78955e-05 0)
(-9.9054e-06 9.79051e-05 0)
(-9.30449e-06 9.74212e-05 0)
(8.65868e-06 6.88812e-05 0)
(8.16058e-06 6.9296e-05 0)
(-9.78413e-06 0.000241769 0)
(-9.89166e-06 0.000240737 0)
(-1.65159e-06 1.13037e-05 0)
(-1.95746e-06 1.12611e-05 0)
(7.94508e-07 3.14112e-06 0)
(-1.89174e-06 3.25899e-06 0)
(4.44224e-07 0.000101627 0)
(2.86982e-06 2.01765e-05 0)
(2.41171e-06 2.03043e-05 0)
(-5.82901e-06 0.000118053 0)
(-4.89011e-06 0.000117776 0)
(-6.27133e-06 0.000153453 0)
(-5.26206e-06 0.000153157 0)
(-1.26842e-05 0.000194077 0)
(-1.1739e-05 0.000194153 0)
(-2.81342e-06 5.91186e-05 0)
(-2.60665e-06 4.63413e-05 0)
(-2.31504e-06 3.48552e-05 0)
(3.98712e-06 0.00018117 0)
(-7.05977e-07 0.000205067 0)
(8.35848e-06 8.15527e-05 0)
(7.91255e-06 8.22554e-05 0)
(3.67874e-06 0.000156877 0)
(3.52239e-06 0.000121193 0)
(-1.70224e-06 1.86094e-05 0)
(1.58479e-06 2.08219e-05 0)
(1.30217e-06 2.12248e-05 0)
(-2.8907e-06 0.000151236 0)
(-3.43566e-06 0.00015201 0)
(-3.18804e-06 0.000116726 0)
(-2.60159e-06 0.000115935 0)
(-3.37771e-06 1.90976e-05 0)
(6.94773e-06 0.000120268 0)
(7.46304e-06 0.000155833 0)
(-9.36502e-08 8.92833e-07 0)
(1.24207e-05 9.2959e-05 0)
(-1.14667e-05 7.34076e-05 0)
(-5.30716e-08 8.30934e-07 0)
(-3.75456e-06 0.00017269 0)
(-4.40008e-06 0.000173633 0)
(-3.44918e-06 0.000136138 0)
(-4.03602e-06 0.000137033 0)
(2.20702e-06 2.85713e-05 0)
(1.89931e-06 2.90697e-05 0)
(2.60046e-06 3.92799e-05 0)
(2.22971e-06 3.98467e-05 0)
(2.89976e-06 5.1289e-05 0)
(2.48352e-06 5.19204e-05 0)
(1.39474e-05 0.000194449 0)
(1.42075e-05 0.000195432 0)
(-1.34809e-06 6.6813e-06 0)
(5.22855e-06 0.000138967 0)
(-2.87573e-06 2.75129e-05 0)
(4.65764e-06 2.17834e-05 0)
(-9.04013e-06 0.000115026 0)
(-9.75273e-06 0.000150185 0)
(-1.32723e-07 4.04027e-08 0)
(1.79465e-06 0.00020261 0)
(4.60091e-06 2.07874e-05 0)
(-9.16488e-06 0.000116956 0)
(-9.88023e-06 0.000152234 0)
(3.52361e-06 6.10313e-06 0)
(-6.91364e-06 0.000219524 0)
(4.42315e-06 1.66121e-05 0)
(-1.09055e-05 0.000180394 0)
(-2.38219e-06 8.95991e-06 0)
(-2.54083e-06 9.28704e-06 0)
(2.48348e-06 9.19032e-06 0)
(-1.19696e-06 9.67394e-05 0)
(-9.36209e-09 -6.88782e-09 0)
(-7.34037e-06 0.00024045 0)
(-1.18978e-07 4.7467e-08 0)
(1.31995e-07 4.02088e-08 0)
(-3.46616e-06 2.01408e-05 0)
(7.44855e-06 0.000153566 0)
(6.92188e-06 0.000118158 0)
(5.72944e-06 0.000202927 0)
(-1.65275e-05 0.000217653 0)
(2.10962e-06 9.05914e-05 0)
(-1.38318e-06 8.82393e-05 0)
(-3.86584e-07 9.374e-06 0)
(-1.08234e-06 1.143e-06 0)
(-6.75798e-09 -6.08422e-09 0)
(-4.15589e-06 6.66223e-05 0)
(4.88388e-06 0.000100437 0)
(3.68287e-07 1.29428e-07 0)
(-5.65996e-07 8.69489e-05 0)
(-5.3486e-07 8.61146e-05 0)
(-2.85135e-08 7.30812e-05 0)
(-1.06947e-07 1.88455e-05 0)
(1.67664e-07 0.000120676 0)
(1.48386e-07 0.000156398 0)
(-3.70741e-07 1.30252e-07 0)
(1.49982e-06 1.01356e-05 0)
(-5.71576e-06 0.00017747 0)
(3.28988e-06 3.70114e-05 0)
(3.68549e-06 4.87561e-05 0)
(4.04341e-06 6.17547e-05 0)
(1.19577e-05 0.000230836 0)
(-4.49353e-06 1.80285e-05 0)
(1.02569e-05 0.000158334 0)
(9.56772e-06 0.000122606 0)
(-6.80766e-06 0.000213001 0)
(1.01525e-06 2.62199e-06 0)
(9.13612e-06 0.000209063 0)
(-2.01995e-06 3.20995e-06 0)
(6.39619e-06 0.00023175 0)
(-4.92951e-06 0.00017749 0)
(2.83091e-06 3.69956e-05 0)
(3.17143e-06 4.87395e-05 0)
(3.48169e-06 6.17332e-05 0)
(8.8673e-07 2.48546e-06 0)
(4.21437e-06 0.000142466 0)
(-2.23795e-06 2.5621e-05 0)
(-7.65223e-07 1.00939e-05 0)
(-1.20346e-05 0.000209802 0)
(-4.5181e-06 5.55864e-05 0)
(-4.07914e-06 4.31557e-05 0)
(-3.59821e-06 3.20323e-05 0)
(6.04311e-06 0.000131063 0)
(6.43567e-06 0.000167374 0)
(1.64881e-05 0.000244594 0)
(9.59084e-06 0.000214762 0)
(1.06354e-05 0.000214394 0)
(1.38401e-07 9.78353e-08 0)
(5.9992e-06 6.62522e-05 0)
(-7.02998e-06 0.000100844 0)
(-3.07435e-06 6.7192e-05 0)
(3.55061e-06 9.98012e-05 0)
(-1.04296e-06 0.000107445 0)
(-7.94858e-07 0.000173811 0)
(4.88382e-07 5.11576e-05 0)
(4.38187e-07 3.91598e-05 0)
(1.8013e-08 2.76256e-05 0)
(-1.85446e-07 0.000104433 0)
(-9.20409e-08 0.000138713 0)
(7.53656e-06 0.000244264 0)
(4.33125e-07 1.03949e-05 0)
(-1.92885e-07 2.42071e-06 0)
(1.43295e-06 0.000147207 0)
(7.27944e-08 2.50306e-06 0)
(-1.14652e-06 7.77619e-06 0)
(2.8307e-06 2.75584e-05 0)
(-5.29728e-06 0.000138877 0)
(-1.08425e-07 1.21288e-07 0)
(-1.1148e-05 0.000209705 0)
(-9.50758e-07 1.84874e-05 0)
(1.9625e-06 0.000157228 0)
(1.949e-06 0.000121427 0)
(2.5906e-07 6.22472e-08 0)
(-3.3848e-06 6.20381e-06 0)
(3.6686e-06 4.99551e-05 0)
(3.28211e-06 3.80846e-05 0)
(-5.62134e-06 0.000175648 0)
(1.07716e-06 6.92469e-05 0)
(-7.54801e-06 0.000237367 0)
(-1.3036e-07 1.82935e-08 0)
(-4.4214e-06 9.68278e-06 0)
(2.8671e-06 5.34771e-06 0)
(-2.90163e-06 3.20731e-06 0)
(8.41376e-06 8.30352e-05 0)
(6.38331e-06 0.000100864 0)
(-5.52636e-06 6.62299e-05 0)
(3.90497e-07 2.73453e-05 0)
(-9.29057e-07 0.000104826 0)
(-7.7946e-07 0.000139226 0)
(7.98951e-06 0.000206699 0)
(7.46945e-06 9.0887e-05 0)
(3.86343e-06 0.000239193 0)
(3.72125e-06 0.000240082 0)
(1.07296e-06 0.000100397 0)
(1.47573e-06 6.8732e-05 0)
(1.29865e-07 1.82334e-08 0)
(-1.07747e-05 0.000187516 0)
(3.98256e-06 1.37992e-05 0)
(1.36945e-08 1.94458e-07 0)
(2.047e-06 0.000134213 0)
(2.67971e-06 0.000134675 0)
(3.77356e-09 1.70576e-08 0)
(-2.10885e-06 5.1758e-06 0)
(5.13995e-06 5.07847e-05 0)
(4.60528e-06 3.8832e-05 0)
(4.02327e-06 2.81831e-05 0)
(-7.3505e-06 0.000137639 0)
(-7.78862e-06 0.000174432 0)
(6.79238e-06 8.65331e-05 0)
(9.73113e-07 0.000202826 0)
(-4.39995e-06 0.00022859 0)
(-4.16674e-06 0.000229791 0)
(-4.39529e-07 0.00017661 0)
(-3.79349e-07 0.000177574 0)
(2.93046e-07 3.69134e-05 0)
(2.66252e-07 3.74557e-05 0)
(3.27911e-07 4.86505e-05 0)
(2.97545e-07 4.92569e-05 0)
(2.09837e-07 6.16376e-05 0)
(2.53386e-07 6.22842e-05 0)
(5.20914e-07 0.00010073 0)
(9.68227e-07 0.000102334 0)
(1.68855e-06 0.000155411 0)
(-4.48483e-07 0.000107184 0)
(-2.60101e-07 6.2479e-08 0)
(-2.90675e-07 2.30908e-06 0)
(3.71035e-06 0.000141715 0)
(-1.99004e-06 2.60156e-05 0)
(1.00922e-06 3.20064e-06 0)
(1.45182e-05 0.000231965 0)
(-1.1243e-06 0.000178345 0)
(6.86237e-07 3.65009e-05 0)
(7.69185e-07 4.81888e-05 0)
(7.54856e-07 6.11031e-05 0)
(-1.11246e-05 0.000195074 0)
(3.8401e-06 7.03593e-05 0)
(5.65166e-06 0.000246155 0)
(6.39352e-06 0.000245609 0)
(-1.13948e-06 8.01686e-06 0)
(-7.22351e-07 0.000136913 0)
(3.67895e-07 2.86031e-05 0)
(1.69929e-07 1.76143e-07 0)
(1.42458e-05 0.00023848 0)
(-2.02985e-07 4.06887e-06 0)
(-2.72404e-06 4.13862e-05 0)
(-3.02662e-06 5.36295e-05 0)
(-3.61896e-06 5.41882e-05 0)
(-3.26021e-06 4.1891e-05 0)
(-2.36541e-06 3.04557e-05 0)
(-2.85925e-06 3.09132e-05 0)
(4.70846e-06 0.000132903 0)
(5.01053e-06 0.00016934 0)
(2.10642e-06 2.90451e-06 0)
(-1.36381e-07 8.35201e-08 0)
(-1.23272e-05 0.000161648 0)
(-1.28387e-05 0.000237996 0)
(4.18227e-06 0.000102254 0)
(-3.71327e-07 4.16314e-06 0)
(-6.68189e-06 0.000132664 0)
(-7.10408e-06 0.000169077 0)
(3.8469e-06 3.10989e-05 0)
(4.36984e-06 4.2098e-05 0)
(4.84774e-06 5.44144e-05 0)
(6.15813e-06 0.000203597 0)
(1.40078e-05 0.000239324 0)
(-7.60109e-06 8.37756e-05 0)
(3.15311e-06 2.78878e-05 0)
(-5.87249e-06 0.000138278 0)
(4.00091e-06 0.000103043 0)
(-1.54227e-06 7.36476e-05 0)
(4.06378e-06 5.03773e-05 0)
(3.63843e-06 3.84639e-05 0)
(-6.19461e-06 0.00017502 0)
(-1.12931e-05 8.47293e-05 0)
(1.09917e-05 8.12679e-05 0)
(1.09902e-05 8.21666e-05 0)
(-1.1146e-05 8.37751e-05 0)
(-5.2986e-06 1.429e-05 0)
(-5.45263e-06 1.47317e-05 0)
(-5.24699e-06 8.2156e-05 0)
(-2.73392e-06 3.28405e-06 0)
(-8.47999e-06 8.27804e-05 0)
(-1.24806e-06 0.000196198 0)
(-1.12052e-06 1.35618e-06 0)
(8.54028e-06 4.85008e-05 0)
(7.62076e-06 3.67997e-05 0)
(-1.19705e-05 0.000123523 0)
(1.93539e-06 5.04088e-05 0)
(1.73312e-06 3.84888e-05 0)
(-2.98178e-06 0.000174941 0)
(4.04645e-06 1.23368e-05 0)
(6.60357e-06 0.000100054 0)
(-5.75466e-06 6.69352e-05 0)
(-3.22545e-06 3.65507e-06 0)
(3.37507e-06 0.000156029 0)
(3.22947e-06 0.000120434 0)
(-1.57971e-06 1.89743e-05 0)
(9.817e-06 0.000147399 0)
(-4.90026e-06 2.31604e-05 0)
(9.07778e-06 0.000112445 0)
(-5.60557e-06 1.41011e-05 0)
(6.9073e-06 0.000229047 0)
(7.92451e-06 0.000228715 0)
(7.63586e-06 0.000174437 0)
(7.24319e-06 0.000137653 0)
(-4.02836e-06 2.82633e-05 0)
(-4.58988e-06 3.88283e-05 0)
(-5.12373e-06 5.07807e-05 0)
(-1.18075e-06 1.17606e-06 0)
(-6.09399e-06 0.000212784 0)
(6.62862e-06 0.000136139 0)
(-3.74409e-06 2.91052e-05 0)
(-7.17842e-07 9.04704e-07 0)
(5.65469e-06 0.0002316 0)
(1.4239e-06 1.18282e-06 0)
(1.18158e-06 8.9752e-07 0)
(2.98042e-06 4.28485e-06 0)
(6.84116e-06 0.00018639 0)
(-1.1625e-05 0.000191489 0)
(1.54396e-05 0.00023226 0)
(3.01767e-06 4.50315e-06 0)
(6.80032e-06 9.08596e-05 0)
(9.28892e-06 0.000197558 0)
(-1.49656e-05 0.00018687 0)
(5.60058e-06 1.41314e-05 0)
(-3.44839e-06 0.000198792 0)
(1.39912e-06 5.05642e-05 0)
(1.25336e-06 3.86277e-05 0)
(-2.16983e-06 0.000174703 0)
(-5.33819e-07 2.58524e-06 0)
(3.96206e-06 0.00010784 0)
(1.17599e-07 4.69621e-08 0)
(-4.67465e-06 9.58963e-06 0)
(-8.24289e-07 8.87832e-05 0)
(-2.08726e-06 1.7346e-05 0)
(-2.42815e-06 1.74596e-05 0)
(4.50361e-06 0.000123893 0)
(5.23062e-06 0.000123664 0)
(5.60356e-06 0.000159477 0)
(4.82419e-06 0.000159723 0)
(1.37831e-07 5.24797e-07 0)
(-3.87915e-08 6.48116e-06 0)
(-8.13991e-06 0.000111408 0)
(-8.81024e-06 0.00014628 0)
(4.39604e-06 2.37039e-05 0)
(-2.60566e-06 1.41606e-05 0)
(-1.53558e-06 0.000150375 0)
(-2.37055e-06 6.09611e-06 0)
(4.72716e-06 0.000229412 0)
(-3.85713e-06 7.57185e-05 0)
(-4.46715e-06 7.55294e-05 0)
(1.35564e-07 1.3945e-07 0)
(-2.55934e-06 7.82894e-05 0)
(-1.31527e-06 1.59667e-05 0)
(2.94884e-06 0.000126904 0)
(3.15181e-06 0.000162944 0)
(-3.56994e-06 0.000150399 0)
(-3.14786e-06 0.000115166 0)
(1.59737e-06 2.16267e-05 0)
(2.14349e-06 8.16789e-06 0)
(1.99098e-06 7.87292e-06 0)
(1.01024e-06 7.54994e-05 0)
(-1.33845e-06 0.000159418 0)
(-1.25688e-06 0.000123588 0)
(5.51771e-07 1.74639e-05 0)
(-1.23988e-06 2.99768e-05 0)
(-2.23223e-06 6.26548e-06 0)
(8.82005e-06 0.000234777 0)
(-8.64434e-06 0.00014086 0)
(6.67474e-06 6.66727e-05 0)
(-7.78479e-06 0.000100373 0)
(9.40268e-06 0.000198444 0)
(-8.73164e-06 6.13241e-05 0)
(-7.96874e-06 4.83592e-05 0)
(1.05971e-05 0.00010679 0)
(-7.10743e-06 3.66712e-05 0)
(-6.16692e-06 2.63544e-05 0)
(1.15512e-05 0.000141297 0)
(1.22018e-05 0.000178236 0)
(-3.18741e-06 0.000170604 0)
(-3.00264e-06 0.000134096 0)
(1.91669e-06 4.11207e-05 0)
(1.68413e-06 3.02325e-05 0)
(2.12971e-06 5.3336e-05 0)
(1.83228e-06 4.17076e-05 0)
(-3.02814e-06 0.000169654 0)
(2.0337e-06 5.39871e-05 0)
(1.61229e-06 3.07492e-05 0)
(-2.85088e-06 0.000133202 0)
(-1.69086e-06 0.000216111 0)
(-3.48328e-06 4.5954e-06 0)
(-3.74866e-06 2.14229e-05 0)
(7.80628e-06 0.000150869 0)
(7.23893e-06 0.000115655 0)
(-2.35378e-06 2.8797e-05 0)
(4.19923e-06 0.000136657 0)
(1.15834e-05 0.000169056 0)
(1.08912e-05 0.000132654 0)
(-6.36679e-06 3.11803e-05 0)
(-7.23332e-06 4.21771e-05 0)
(-8.02414e-06 5.44917e-05 0)
(1.22034e-05 0.000184413 0)
(1.33209e-05 0.00018418 0)
(3.03228e-07 5.53492e-06 0)
(-1.25054e-06 8.73418e-05 0)
(-3.3624e-06 9.3503e-06 0)
(1.7281e-07 3.27533e-07 0)
(-3.30609e-06 1.18613e-05 0)
(-5.33897e-07 0.000196588 0)
(1.35019e-07 5.29814e-06 0)
(-2.70481e-06 9.35468e-05 0)
(1.10795e-05 0.000123596 0)
(-5.12766e-06 1.76046e-05 0)
(1.18678e-05 0.00015939 0)
(-1.14731e-08 -7.94843e-09 0)
(7.26051e-07 0.000147347 0)
(2.17685e-07 9.19693e-08 0)
(1.48505e-07 1.10595e-07 0)
(1.9579e-06 0.000106124 0)
(-2.49003e-07 2.0346e-07 0)
(9.01422e-06 0.000236525 0)
(6.60931e-07 0.000134637 0)
(-3.72956e-07 2.98863e-05 0)
(2.00621e-06 1.20731e-05 0)
(1.23039e-06 0.000134221 0)
(-7.16663e-07 3.01033e-05 0)
(-1.23762e-07 2.69196e-06 0)
(-8.55634e-06 4.84773e-05 0)
(-7.63332e-06 3.67794e-05 0)
(-6.62424e-06 2.6456e-05 0)
(-5.52407e-06 1.76468e-05 0)
(1.19277e-05 0.000123549 0)
(1.23896e-05 0.000141143 0)
(1.27767e-05 0.000159337 0)
(1.30922e-05 0.000178075 0)
(-5.81729e-06 0.000192052 0)
(-5.17129e-06 0.000228148 0)
(-1.66772e-05 0.000188563 0)
(6.11183e-06 1.35359e-05 0)
(3.7874e-06 0.000241815 0)
(4.40811e-06 0.000240776 0)
(1.17031e-06 0.000131269 0)
(1.26891e-06 0.000167616 0)
(-9.31069e-07 5.5447e-05 0)
(-8.40026e-07 4.30253e-05 0)
(-7.40284e-07 3.19118e-05 0)
(-4.86558e-06 1.41386e-05 0)
(1.7684e-06 1.01556e-05 0)
(-6.51788e-06 5.80688e-05 0)
(8.53433e-06 0.000127788 0)
(-5.90669e-06 4.5409e-05 0)
(-5.23664e-06 3.40349e-05 0)
(9.11134e-06 0.000163879 0)
(-3.69577e-06 1.5661e-05 0)
(9.2243e-06 0.000182765 0)
(1.54861e-06 8.36818e-05 0)
(-9.85545e-07 0.000204039 0)
(9.81768e-07 4.92563e-07 0)
(-7.24851e-07 0.000179283 0)
(4.52154e-07 3.59605e-05 0)
(5.07168e-07 4.75836e-05 0)
(4.68021e-07 6.04374e-05 0)
(2.87531e-06 0.000211353 0)
(-4.07041e-07 2.60075e-07 0)
(1.46429e-05 0.000207984 0)
(-2.2241e-06 8.86568e-05 0)
(-6.88303e-08 1.49858e-07 0)
(5.23718e-06 0.000125813 0)
(-2.35603e-06 1.64752e-05 0)
(5.60085e-06 0.000161776 0)
(1.18486e-07 9.33435e-08 0)
(-3.15822e-06 1.98582e-05 0)
(6.35164e-06 0.000118706 0)
(6.83186e-06 0.000154156 0)
(1.10348e-06 1.46189e-06 0)
(-4.49783e-06 7.73787e-05 0)
(9.34963e-07 8.26974e-05 0)
(-1.01667e-05 0.000222218 0)
(9.22187e-07 0.000131979 0)
(9.82921e-07 0.000168354 0)
(-7.88117e-07 5.49167e-05 0)
(-6.2396e-07 3.14906e-05 0)
(-7.10375e-07 4.25459e-05 0)
(1.49939e-06 8.42963e-05 0)
(-2.18298e-07 8.36608e-07 0)
(-1.94105e-07 2.83245e-06 0)
(4.29406e-07 0.000196269 0)
(1.00167e-05 9.05927e-05 0)
(-9.43803e-06 7.55347e-05 0)
(-7.14082e-06 0.000248553 0)
(-1.61933e-05 0.000162758 0)
(-1.5159e-05 0.000126757 0)
(-1.57213e-05 0.000144461 0)
(-1.45037e-05 0.00010975 0)
(8.04711e-06 2.47929e-05 0)
(9.32715e-06 3.48429e-05 0)
(1.04974e-05 4.62932e-05 0)
(1.15648e-05 5.9021e-05 0)
(1.61323e-05 0.000162757 0)
(1.56611e-05 0.00014446 0)
(-8.07738e-06 2.47948e-05 0)
(-9.36306e-06 3.48457e-05 0)
(1.50995e-05 0.000126757 0)
(-1.05394e-05 4.62952e-05 0)
(1.44475e-05 0.000109749 0)
(-1.16116e-05 5.90234e-05 0)
(-4.68389e-06 1.37454e-05 0)
(-2.5234e-06 0.000203607 0)
(-1.80428e-06 0.000203414 0)
(-2.24083e-06 0.00023047 0)
(3.67874e-06 0.000139979 0)
(-2.01098e-06 2.69486e-05 0)
(-7.294e-07 1.08545e-06 0)
(-2.89506e-06 0.000243527 0)
(-3.19539e-06 5.29263e-05 0)
(-3.91203e-06 5.27283e-05 0)
(-2.87272e-06 4.07529e-05 0)
(-3.51596e-06 4.05759e-05 0)
(4.66079e-06 0.000171507 0)
(5.60132e-06 0.000171587 0)
(1.23307e-05 0.000168619 0)
(1.15903e-05 0.000132245 0)
(-6.80287e-06 3.14353e-05 0)
(-7.7233e-06 4.24634e-05 0)
(-8.56328e-06 5.48067e-05 0)
(-7.50284e-06 0.000111799 0)
(-8.11779e-06 0.000146704 0)
(4.02839e-06 2.34789e-05 0)
(-2.37025e-06 0.000100205 0)
(1.99215e-06 6.6784e-05 0)
(2.42026e-06 0.000176334 0)
(-1.4514e-06 3.76e-05 0)
(-1.62466e-06 4.94174e-05 0)
(-1.75677e-06 6.23511e-05 0)
(4.62872e-06 6.59935e-05 0)
(3.92006e-06 6.61611e-05 0)
(-5.4496e-06 0.000101116 0)
(-4.61677e-06 0.00010091 0)
(-5.47345e-06 0.000241711 0)
(3.76054e-07 1.04257e-06 0)
(9.05828e-06 0.00020821 0)
(3.27377e-06 7.32478e-05 0)
(8.88741e-06 0.00014431 0)
(-4.5945e-06 2.47154e-05 0)
(8.19644e-06 0.000109589 0)
(-7.66578e-06 8.77138e-05 0)
(1.87384e-06 1.87396e-05 0)
(-4.27121e-06 0.000156546 0)
(-3.98121e-06 0.00012093 0)
(5.18348e-07 7.61917e-05 0)
(-6.75029e-07 0.000124407 0)
(-7.16299e-07 0.000160292 0)
(2.80557e-07 1.70838e-05 0)
(5.1525e-06 6.90522e-05 0)
(-5.89232e-06 9.75929e-05 0)
(-2.82197e-06 0.000216108 0)
(-1.30055e-05 0.000214051 0)
(2.31524e-06 9.3128e-05 0)
(5.83616e-06 9.34182e-05 0)
(-4.811e-06 1.82138e-05 0)
(1.09296e-05 0.000157944 0)
(1.01923e-05 0.000122244 0)
(-5.39008e-07 2.29963e-06 0)
(-1.77401e-06 0.000180521 0)
(9.79764e-07 3.5243e-05 0)
(1.1014e-06 4.67786e-05 0)
(1.20333e-06 5.95609e-05 0)
(-2.71045e-06 8.82267e-05 0)
(-1.20565e-05 0.000214123 0)
(-3.51692e-06 3.52852e-05 0)
(-3.95569e-06 4.68212e-05 0)
(-4.34096e-06 5.96313e-05 0)
(6.12114e-06 0.000180458 0)
(1.14844e-08 1.52314e-08 0)
(7.56339e-06 8.70159e-05 0)
(9.50637e-08 6.90704e-06 0)
(-3.68941e-07 6.49197e-07 0)
(-7.65033e-07 2.97274e-06 0)
(-3.64035e-06 1.26454e-05 0)
(-3.77188e-07 1.39089e-07 0)
(1.49248e-06 3.98055e-05 0)
(1.31334e-06 2.90567e-05 0)
(1.66231e-06 5.18756e-05 0)
(-2.5346e-06 0.000172748 0)
(-2.40305e-06 0.000136151 0)
(-7.3885e-06 7.22913e-05 0)
(7.96145e-06 9.39756e-05 0)
(-7.47001e-07 4.42963e-07 0)
(9.63217e-06 0.000229125 0)
(6.94237e-06 0.00020509 0)
(-1.48428e-05 0.000193102 0)
(5.49581e-06 9.27017e-05 0)
(1.97067e-06 0.000100626 0)
(-3.74992e-06 0.000243417 0)
(-1.04278e-05 0.000105387 0)
(-9.91996e-06 0.000104926 0)
(1.46219e-05 0.000243346 0)
(-1.18958e-06 0.00021718 0)
(-3.32081e-06 6.65164e-05 0)
(3.94565e-06 0.000100606 0)
(1.18743e-07 7.14815e-06 0)
(1.85857e-06 2.53564e-06 0)
(3.74057e-07 1.37967e-07 0)
(3.48468e-06 0.000107141 0)
(1.28843e-05 0.000248321 0)
(-7.08726e-06 0.000172778 0)
(-6.67674e-06 0.000136147 0)
(3.70822e-06 2.90909e-05 0)
(4.72347e-06 5.18869e-05 0)
(4.24024e-06 3.98208e-05 0)
(-1.3737e-07 9.6852e-08 0)
(-5.48103e-07 0.000226012 0)
(6.61968e-06 9.36916e-05 0)
(-6.06384e-06 7.26565e-05 0)
(-1.06107e-05 0.000220556 0)
(-1.58393e-05 0.000163587 0)
(-1.53808e-05 0.000145261 0)
(-1.4837e-05 0.000127531 0)
(-1.42002e-05 0.00011049 0)
(7.80261e-06 2.43703e-05 0)
(9.05828e-06 3.43559e-05 0)
(1.02063e-05 4.5747e-05 0)
(1.12537e-05 5.84208e-05 0)
(1.57767e-05 0.000163581 0)
(1.53206e-05 0.00014526 0)
(-7.83218e-06 2.43738e-05 0)
(-9.09304e-06 3.436e-05 0)
(1.47756e-05 0.000127528 0)
(-1.0247e-05 4.57505e-05 0)
(1.41428e-05 0.000110486 0)
(-1.12991e-05 5.84249e-05 0)
(-2.37065e-06 3.20331e-06 0)
(9.32741e-07 8.86021e-07 0)
(-1.24907e-06 2.30202e-06 0)
(5.89287e-06 9.19427e-05 0)
(-6.49943e-06 9.46516e-05 0)
(1.18889e-06 1.44604e-06 0)
(-1.85401e-07 3.09898e-08 0)
(-1.42736e-05 0.000193566 0)
(8.1426e-06 0.000245826 0)
(9.14045e-06 0.000246288 0)
(1.84761e-07 3.08993e-08 0)
(2.67358e-06 3.59152e-06 0)
(1.27636e-05 0.000223872 0)
(-4.88681e-06 0.000104558 0)
(-3.28331e-07 2.90449e-07 0)
(-7.42014e-07 1.16164e-06 0)
(-1.16163e-07 2.97384e-08 0)
(2.17086e-07 1.70462e-07 0)
(1.32554e-05 8.34794e-05 0)
(-1.32582e-05 8.25219e-05 0)
(4.06457e-06 6.30972e-05 0)
(-5.00894e-06 0.000102661 0)
(4.21983e-06 6.47042e-05 0)
(-2.25683e-07 3.83121e-06 0)
(-3.08441e-06 0.000163554 0)
(2.42387e-06 7.88024e-05 0)
(-1.72884e-06 0.00016179 0)
(-1.65651e-06 0.000125733 0)
(7.11887e-07 1.6484e-05 0)
(1.32552e-06 7.7385e-05 0)
(-5.44849e-06 0.000104029 0)
(2.84902e-06 3.80414e-06 0)
(4.55424e-06 6.35696e-05 0)
(1.67627e-06 9.32693e-05 0)
(1.28269e-05 0.000231161 0)
(-3.94154e-06 9.40321e-05 0)
(-4.5294e-06 9.4666e-05 0)
(-3.73613e-06 8.03155e-06 0)
(-4.39227e-06 9.76481e-05 0)
(-3.7587e-06 9.69768e-05 0)
(3.89176e-06 6.89399e-05 0)
(3.41641e-06 6.96141e-05 0)
(-4.16926e-06 1.94436e-05 0)
(8.50649e-06 0.000119618 0)
(9.14205e-06 0.000155131 0)
(-1.16363e-06 1.30614e-06 0)
(-5.45885e-06 0.000103202 0)
(4.58559e-06 6.4273e-05 0)
(-3.48049e-06 0.000132523 0)
(-3.69983e-06 0.000168932 0)
(1.9904e-06 3.11493e-05 0)
(2.50668e-06 5.44883e-05 0)
(2.26014e-06 4.21605e-05 0)
(-1.84492e-06 8.67236e-06 0)
(-1.1367e-05 0.000139699 0)
(-1.07726e-05 0.000139261 0)
(6.08431e-06 2.72026e-05 0)
(5.78664e-06 2.74373e-05 0)
(7.47312e-06 0.000111086 0)
(8.21815e-06 0.000110543 0)
(-4.11068e-06 2.38695e-05 0)
(-4.5504e-06 2.41833e-05 0)
(8.09203e-06 0.000145933 0)
(8.90309e-06 0.000145343 0)
(-3.27959e-06 0.000215319 0)
(6.48872e-06 0.000196715 0)
(6.58245e-06 0.000195802 0)
(-4.86481e-06 6.47104e-05 0)
(5.65594e-06 0.000102635 0)
(-1.70952e-05 0.000239785 0)
(-4.93386e-06 0.000191507 0)
(-4.73897e-06 0.000190614 0)
(1.669e-06 1.2576e-05 0)
(1.71585e-06 1.22575e-05 0)
(1.47212e-05 0.000193622 0)
(-6.56578e-06 8.28544e-05 0)
(-5.63893e-06 8.28831e-05 0)
(1.45636e-05 0.000218475 0)
(-1.47663e-05 0.000230254 0)
(-1.47473e-05 0.000231346 0)