/*--------------------------------*- C++ -*----------------------------------*\
| =========                 |                                                 |
| \\      /  F ield         | OpenFOAM: The Open Source CFD Toolbox           |
|  \\    /   O peration     | Version:  2.3.1                                 |
|   \\  /    A nd           | Web:      www.OpenFOAM.org                      |
|    \\/     M anipulation  |                                                 |
\*---------------------------------------------------------------------------*/
FoamFile
{
    version     2.0;
    format      ascii;
    class       volScalarField;
    location    "0.57";
    object      k;
}
// * * * * * * * * * * * * * * * * * * * * * * * * * * * * * * * * * * * * * //

dimensions      [0 2 -2 0 0 0 0];

internalField   nonuniform List<scalar> 
9648
(
2.71363
2.70496
2.70434
2.69995
2.69181
2.67938
2.66329
2.64333
2.61937
2.59131
2.55921
2.52329
2.48397
2.44182
2.39751
2.35181
2.30548
2.25924
2.21375
2.16956
2.12712
2.08677
2.04875
2.01324
1.98029
1.94996
1.92221
1.89701
1.87426
1.8539
1.83583
1.81993
1.80613
1.79431
1.78439
1.77627
1.76987
1.76511
1.76192
1.76024
1.76002
1.76121
1.76378
1.76769
1.77294
1.77949
1.78739
1.79665
1.8073
1.81936
1.83289
1.84794
1.86454
1.88269
1.90239
1.92347
1.94562
1.96831
1.99108
2.01354
2.03537
1.76325
1.76084
1.75717
1.75243
1.7492
1.74955
1.75585
1.7692
1.78975
1.81776
1.85316
1.89545
1.94387
1.99745
2.05521
2.11615
2.17937
2.24402
2.30943
2.37503
2.44037
2.50508
2.56894
2.63178
2.69347
2.75401
2.81341
2.8717
2.92889
2.98508
3.04039
3.09487
3.1486
3.2017
3.25422
3.30622
3.35779
3.40903
3.45994
3.51048
3.56074
3.61082
3.66069
3.7103
3.75978
3.80896
3.85786
3.90659
3.9552
4.00354
4.05149
4.09898
4.14607
4.19239
4.2382
4.28324
4.32769
4.37087
4.41302
4.4542
4.49446
1.45258
1.50342
1.55465
1.60977
1.6712
1.73964
1.81478
1.89674
1.98515
2.0798
2.17981
2.2845
2.3929
2.50397
2.61662
2.72981
2.84261
2.95417
3.06378
3.1709
3.27508
3.37605
3.4736
3.56766
3.65827
3.74548
3.82947
3.91032
3.98824
4.06343
4.13605
4.20635
4.27453
4.34071
4.40505
4.46775
4.52891
4.58869
4.64715
4.70441
4.76055
4.81562
4.86977
4.923
4.97533
5.02672
5.07717
5.12673
5.17526
5.22279
5.26929
5.31479
5.35951
5.40274
5.44543
5.48655
5.52685
5.56526
5.60298
5.63961
5.67519
1.3666
1.46686
1.57145
1.68164
1.79812
1.92095
2.04981
2.1841
2.32304
2.46586
2.61144
2.75884
2.90688
3.05459
3.20084
3.34461
3.48508
3.62151
3.75334
3.88017
4.00173
4.11779
4.22836
4.33354
4.43353
4.52855
4.61889
4.70484
4.7867
4.86476
4.9394
5.01092
5.0796
5.14572
5.20947
5.27113
5.33086
5.38886
5.44526
5.50023
5.55388
5.60636
5.65773
5.70814
5.75757
5.80606
5.85366
5.90037
5.94614
5.99094
6.03492
6.07772
6.11956
6.16025
6.2003
6.23916
6.27686
6.31339
6.34884
6.38322
6.41634
1.39342
1.53531
1.68549
1.84283
2.00655
2.17606
2.35047
2.52857
2.70929
2.89132
3.07341
3.25426
3.43285
3.60816
3.77918
3.94483
4.10441
4.25741
4.4034
4.54226
4.6738
4.79794
4.91484
5.02472
5.128
5.22512
5.31646
5.40248
5.48351
5.56001
5.63241
5.70109
5.76651
5.82895
5.88864
5.94595
6.00112
6.05428
6.10568
6.15544
6.20375
6.25075
6.29662
6.34146
6.3853
6.4282
6.47017
6.51123
6.55146
6.59065
6.62894
6.66622
6.70235
6.73735
6.77141
6.80459
6.8366
6.86753
6.89729
6.92576
6.95296
1.47285
1.65136
1.84181
2.04124
2.24728
2.45845
2.67315
2.8898
3.10673
3.3222
3.53481
3.74294
3.94581
4.1423
4.3319
4.51336
4.68595
4.84966
5.00399
5.14923
5.2854
5.41232
5.53053
5.64012
5.74189
5.8365
5.92445
6.00642
6.08262
6.15367
6.22015
6.28237
6.34105
6.39652
6.44896
6.49882
6.54653
6.59209
6.63581
6.67783
6.71823
6.75731
6.79529
6.83232
6.86836
6.90352
6.93795
6.97137
7.00406
7.03583
7.06663
7.09642
7.12517
7.1527
7.17926
7.20481
7.22941
7.253
7.27528
7.29604
7.31565
1.58395
1.7956
2.02278
2.26051
2.50475
2.75334
3.00391
3.25443
3.50301
3.74693
3.98515
4.21532
4.43712
4.64939
4.8528
5.04506
5.22581
5.39555
5.55344
5.70054
5.83713
5.96254
6.07815
6.18328
6.27954
6.36792
6.44881
6.5235
6.59163
6.65401
6.71161
6.76431
6.81337
6.85921
6.90159
6.94128
6.97912
7.01458
7.04833
7.08043
7.11069
7.13968
7.16766
7.1949
7.22099
7.24631
7.27099
7.29487
7.31816
7.34053
7.36201
7.38244
7.40187
7.42
7.43689
7.45305
7.46843
7.48282
7.49571
7.50692
7.51696
1.71438
1.95609
2.21689
2.48952
2.76822
3.04974
3.33188
3.61228
3.8883
4.15648
4.41622
4.66374
4.89981
5.12256
5.33558
5.53456
5.71944
5.89181
6.04919
6.19396
6.32739
6.4473
6.55749
6.65452
6.74147
6.82008
6.89041
6.95501
7.0119
7.06263
7.10888
7.14909
7.18573
7.21926
7.2489
7.2758
7.30109
7.32338
7.34463
7.36453
7.38224
7.39854
7.41408
7.42911
7.4428
7.45607
7.46845
7.48029
7.49163
7.50234
7.51207
7.52082
7.52886
7.53516
7.54023
7.54481
7.54827
7.55178
7.55323
7.55242
7.55106
1.85496
2.12122
2.41245
2.71379
3.0246
3.33384
3.64204
3.9503
4.24765
4.53776
4.81415
5.07786
5.32348
5.55254
5.76969
5.97215
6.15821
6.33006
6.48803
6.62743
6.75274
6.86461
6.96528
7.05499
7.12965
7.19427
7.25177
7.30351
7.34578
7.3824
7.41487
7.44175
7.46385
7.48178
7.49537
7.5078
7.51589
7.52176
7.528
7.5321
7.53425
7.53385
7.53539
7.53548
7.53396
7.53383
7.52984
7.52706
7.52203
7.51714
7.51039
7.50371
7.49756
7.48939
7.48015
7.47095
7.45851
7.45046
7.43769
7.42142
7.40664
2.05628
2.07619
2.09523
2.11338
2.13069
2.14732
2.16351
2.17962
2.19553
2.21053
2.22434
2.23757
2.25034
2.26286
2.27541
2.28861
2.30283
2.31839
2.33563
2.35501
2.37624
2.39891
2.4227
2.4472
2.47211
2.49743
2.5233
2.54943
2.57575
2.60231
2.62922
2.65638
2.6838
2.71163
2.73979
2.76828
2.79719
2.82659
2.85644
2.88667
2.91737
2.94865
2.98047
3.0128
3.04574
3.07914
3.11301
3.14747
3.18259
3.21821
3.25441
3.29124
3.32883
3.36694
3.40592
3.44568
3.48652
3.52817
3.57096
3.61501
3.66042
4.53386
4.57122
4.60769
4.64337
4.67802
4.71118
4.74243
4.77241
4.80017
4.82717
4.85246
4.87675
4.89995
4.92214
4.9432
4.963
4.98167
4.99916
5.01551
5.0307
5.04478
5.05779
5.0696
5.08027
5.08981
5.09819
5.10529
5.11084
5.11496
5.11761
5.11879
5.11855
5.11694
5.11393
5.10956
5.1039
5.09692
5.08871
5.07923
5.06851
5.0566
5.04355
5.02943
5.01419
4.99783
4.98025
4.96137
4.94125
4.91978
4.89703
4.87292
4.84741
4.82063
4.79213
4.76263
4.73154
4.69949
4.66599
4.6321
4.59768
4.5629
5.70916
5.74205
5.7734
5.80385
5.83329
5.86212
5.88906
5.91467
5.9381
5.96026
5.98082
6.00015
6.0181
6.03501
6.05065
6.06495
6.07793
6.08959
6.09989
6.10883
6.11649
6.12281
6.12783
6.13153
6.13391
6.13494
6.13466
6.13303
6.12999
6.12549
6.11957
6.11216
6.10328
6.09299
6.08127
6.06816
6.05363
6.03772
6.02042
6.00177
5.98184
5.96072
5.93846
5.91509
5.89057
5.86485
5.83777
5.80929
5.77935
5.74794
5.71503
5.68038
5.64407
5.60596
5.56625
5.52464
5.48136
5.43667
5.39104
5.34455
5.29734
6.44846
6.47929
6.50886
6.5369
6.56374
6.5894
6.61361
6.63614
6.65707
6.67638
6.69411
6.71027
6.7249
6.73807
6.74967
6.75985
6.76856
6.77579
6.78148
6.78566
6.78836
6.78967
6.78959
6.78816
6.7853
6.78098
6.7752
6.76799
6.75936
6.74929
6.73772
6.72458
6.7099
6.69367
6.67598
6.65682
6.63614
6.61392
6.59015
6.5649
6.53829
6.51041
6.48146
6.45151
6.42061
6.3887
6.35555
6.32113
6.28536
6.24824
6.20963
6.16938
6.12747
6.08377
6.03825
5.99069
5.9413
5.89039
5.83843
5.78548
5.73193
6.97888
7.00362
7.02692
7.04865
7.06871
7.0872
7.10413
7.11952
7.13354
7.14621
7.15737
7.16705
7.17526
7.18191
7.18706
7.1908
7.19298
7.1936
7.1926
7.18998
7.18584
7.18032
7.1735
7.16543
7.156
7.14518
7.13298
7.11944
7.10464
7.08861
7.07126
7.05242
7.03209
7.01027
6.98708
6.96248
6.93636
6.90869
6.87935
6.84841
6.81602
6.78233
6.74763
6.71214
6.676
6.63924
6.60148
6.56273
6.52288
6.48209
6.43996
6.39628
6.35114
6.30426
6.25554
6.20449
6.15159
6.09696
6.04132
5.98461
5.9274
7.33393
7.3509
7.36629
7.38024
7.39247
7.403
7.41198
7.4192
7.42485
7.429
7.43181
7.43326
7.43326
7.43172
7.42866
7.42425
7.41843
7.41101
7.40183
7.39085
7.37828
7.36436
7.34925
7.3331
7.31571
7.29697
7.27692
7.25562
7.23337
7.21028
7.18632
7.16108
7.13458
7.10673
7.07781
7.04764
7.01598
6.98284
6.94797
6.91139
6.87323
6.83359
6.79291
6.75165
6.7101
6.66858
6.62626
6.58356
6.54009
6.49642
6.45174
6.40553
6.35828
6.30941
6.25894
6.20574
6.1507
6.09365
6.03603
5.97715
5.91785
7.52579
7.53333
7.53932
7.54374
7.54644
7.54739
7.54658
7.54429
7.5404
7.53472
7.52771
7.51961
7.51012
7.49911
7.48648
7.47278
7.45807
7.44176
7.42352
7.4031
7.3809
7.35743
7.33285
7.30758
7.28133
7.25365
7.22466
7.19425
7.16322
7.13191
7.10076
7.06862
7.03586
7.00194
6.96767
6.93248
6.89558
6.85733
6.81745
6.77587
6.73253
6.68724
6.64069
6.59357
6.5464
6.50031
6.45327
6.40685
6.3599
6.31432
6.26835
6.2205
6.17224
6.12247
6.0718
6.01733
5.96156
5.90312
5.84534
5.78578
5.72622
7.54832
7.54466
7.53934
7.53288
7.52471
7.51512
7.50345
7.4913
7.47772
7.46156
7.44412
7.42622
7.40689
7.38616
7.36308
7.33923
7.3157
7.2909
7.26421
7.23426
7.20173
7.16845
7.13391
7.09883
7.06367
7.02704
6.98901
6.94837
6.90683
6.8657
6.8269
6.78729
6.74861
6.70909
6.67089
6.63273
6.59161
6.54843
6.50439
6.45969
6.41274
6.36295
6.31143
6.2589
6.20611
6.15625
6.10416
6.05436
6.00372
5.95754
5.91225
5.86371
5.81563
5.76621
5.71722
5.66226
5.60723
5.54818
5.49236
5.43392
5.37651
7.38881
7.3716
7.35124
7.33186
7.30975
7.28992
7.26593
7.24446
7.22286
7.19856
7.17238
7.1466
7.11857
7.09048
7.05698
7.02112
6.98881
6.9577
6.92706
6.89164
6.84792
6.80669
6.76379
6.71839
6.67437
6.63009
6.58695
6.53792
6.48317
6.42972
6.38248
6.33406
6.28918
6.2443
6.20597
6.16978
6.12769
6.07915
6.0313
5.98641
5.94022
5.88848
5.83311
5.77724
5.7199
5.66819
5.61013
5.55718
5.50147
5.45725
5.4154
5.36665
5.32051
5.27379
5.22912
5.17416
5.12142
5.0619
5.01017
4.95498
4.90295
3.70719
3.75496
3.804
3.85431
3.90593
3.95899
4.01341
4.06933
4.12647
4.18479
4.24439
4.30487
4.36618
4.43074
4.51058
4.58401
4.65612
4.72897
4.8026
4.87716
4.95268
5.0292
5.10659
5.18481
5.26365
5.34287
5.42236
5.50192
5.58136
5.66034
5.73877
5.81633
5.89261
5.96741
6.04037
6.11092
6.1786
6.24272
6.29905
6.34031
6.36844
6.38418
6.38747
6.37764
6.35367
6.31415
6.25718
6.18045
6.08126
5.95643
5.8022
5.61412
5.38721
5.11488
4.77796
4.23159
3.97785
3.84702
3.79452
3.76977
3.71948
4.52744
4.49162
4.455
4.41767
4.37966
4.34165
4.30341
4.2657
4.228
4.1907
4.15449
4.11308
4.06793
4.02531
3.97761
3.93156
3.88551
3.83937
3.7936
3.74849
3.70404
3.65998
3.61621
3.57267
3.5293
3.48611
3.44311
3.4004
3.35802
3.31601
3.27451
3.23363
3.19351
3.15437
3.11646
3.08009
3.04566
3.01378
2.98504
2.96114
2.93949
2.92023
2.90371
2.89053
2.8816
2.87786
2.88031
2.89029
2.90925
2.93846
2.97916
3.03245
3.09959
3.18265
3.27184
3.40669
3.58203
3.85169
4.23268
4.72648
5.06234
5.2496
5.20133
5.15224
5.10203
5.05066
4.99867
4.94635
4.89418
4.84175
4.78899
4.73311
4.66904
4.60531
4.54483
4.48448
4.42481
4.36443
4.30333
4.24188
4.18051
4.11927
4.0579
3.99635
3.93461
3.87258
3.81026
3.74765
3.68475
3.62149
3.5579
3.49394
3.42965
3.36506
3.3002
3.23517
3.17005
3.10496
3.04
2.97535
2.91121
2.84756
2.78406
2.72124
2.65992
2.60043
2.54335
2.48955
2.44027
2.39713
2.36233
2.33863
2.32961
2.33998
2.37517
2.43828
2.54045
2.68547
2.9034
3.23819
3.74029
4.35792
5.67795
5.62388
5.5691
5.51327
5.45597
5.398
5.33971
5.28175
5.22349
5.16434
5.09864
5.02679
4.9572
4.89102
4.82598
4.76172
4.69707
4.63217
4.56714
4.50231
4.43757
4.37247
4.30715
4.24166
4.17586
4.10983
4.0435
3.97688
3.90984
3.84238
3.77444
3.70606
3.63727
3.56813
3.49869
3.42903
3.35922
3.2893
3.2193
3.14923
3.07905
3.0087
2.93757
2.86553
2.79327
2.72088
2.64863
2.57693
2.50649
2.43837
2.37401
2.31559
2.26601
2.22907
2.20853
2.21054
2.24325
2.32401
2.48184
2.75931
3.1851
5.8697
5.81232
5.75449
5.6957
5.63495
5.57347
5.51156
5.45034
5.3887
5.32589
5.25507
5.18037
5.10865
5.04041
4.97327
4.90694
4.84041
4.77444
4.70882
4.64377
4.57888
4.51335
4.44766
4.38192
4.31585
4.24964
4.18313
4.11634
4.04905
3.98128
3.91297
3.84427
3.7752
3.70592
3.63646
3.56697
3.49751
3.42815
3.35889
3.28974
3.2207
3.1518
3.08291
3.01349
2.94329
2.87247
2.80109
2.7292
2.65697
2.58474
2.5129
2.44207
2.37321
2.30755
2.2467
2.19361
2.15427
2.13927
2.16519
2.25687
2.44441
5.85769
5.79863
5.73941
5.67949
5.61663
5.55302
5.48859
5.42557
5.36223
5.2981
5.22525
5.15052
5.07902
5.01141
4.9443
4.87797
4.81132
4.74629
4.6821
4.61901
4.55615
4.4921
4.42821
4.36462
4.30061
4.23661
4.1722
4.10756
4.04218
3.97626
3.90972
3.84293
3.77591
3.70894
3.642
3.5753
3.5089
3.44292
3.37732
3.31219
3.24751
3.18337
3.11976
3.05653
2.99327
2.92943
2.86503
2.80014
2.73482
2.66913
2.60318
2.53702
2.47064
2.40405
2.33712
2.27048
2.20651
2.15048
2.11119
2.10196
2.14148
5.66447
5.60511
5.54597
5.487
5.42306
5.3586
5.29249
5.22929
5.16595
5.10308
5.0301
4.95735
4.88766
4.82309
4.75777
4.69356
4.62822
4.56604
4.50495
4.4455
4.38631
4.32479
4.26437
4.20513
4.14505
4.08517
4.02444
3.96372
3.90167
3.83913
3.77573
3.71259
3.64939
3.58678
3.52433
3.46256
3.40128
3.34085
3.28111
3.22234
3.16439
3.1075
3.05159
2.99664
2.94243
2.88859
2.83431
2.77962
2.72465
2.66954
2.61435
2.55905
2.50349
2.44721
2.38962
2.33011
2.26878
2.20734
2.14949
2.1016
2.07352
5.31385
5.25516
5.19769
5.14226
5.07853
5.01483
4.9478
4.88636
4.82498
4.76616
4.69433
4.62486
4.55793
4.49858
4.4362
4.37605
4.31298
4.25539
4.19876
4.14391
4.08939
4.03062
3.97483
3.92238
3.86765
3.81299
3.75653
3.70099
3.64274
3.58428
3.5245
3.4664
3.40828
3.35179
3.29526
3.24004
3.18512
3.13179
3.07949
3.02899
2.97957
2.93188
2.8857
2.84073
2.79687
2.75418
2.71147
2.66833
2.62521
2.58234
2.54002
2.4982
2.45673
2.41509
2.37257
2.32824
2.28135
2.23172
2.18023
2.12919
2.08288
4.84026
4.78189
4.72814
4.67919
4.6172
4.55574
4.48821
4.43121
4.37428
4.32208
4.2525
4.18686
4.12259
4.07056
4.01137
3.95729
3.89681
3.84567
3.79443
3.74368
3.69392
3.63701
3.5869
3.54531
3.49632
3.44568
3.39277
3.34351
3.28792
3.23317
3.17599
3.12481
3.07228
3.02366
2.97333
2.92559
2.87636
2.83091
2.787
2.74636
2.70672
2.66939
2.63408
2.60004
2.56617
2.53308
2.50054
2.46739
2.43585
2.40486
2.37677
2.34983
2.32471
2.29987
2.27512
2.24908
2.22112
2.19028
2.15651
2.11944
2.08054
3.6275
3.52484
3.41344
3.29437
3.17312
3.05296
2.93655
2.82744
2.72878
2.64275
2.57032
2.51157
2.46565
2.43113
2.40621
2.38907
2.37794
2.37151
2.36867
2.36854
2.37047
2.37404
2.37891
2.3849
2.39203
2.40001
2.40898
2.41884
2.4296
2.44121
2.45361
2.46674
2.48051
2.49476
2.50934
2.52407
2.53872
2.55307
2.56685
2.57985
2.59179
2.60244
2.61168
2.61939
2.62557
2.63034
2.63392
2.63657
2.63869
2.64076
2.64318
2.64631
2.6504
2.65567
2.66201
2.66931
2.6772
2.68549
2.69367
2.70114
2.70749
5.05754
4.98682
4.86851
4.69857
4.50918
4.30225
4.07578
3.83597
3.59121
3.34942
3.11691
2.90028
2.70352
2.52823
2.3751
2.24575
2.13976
2.05432
1.98627
1.93289
1.89161
1.86003
1.83639
1.81852
1.80649
1.79817
1.79386
1.79285
1.79492
1.7998
1.80732
1.81722
1.82927
1.84316
1.85855
1.8751
1.89231
1.90977
1.92691
1.94314
1.95773
1.96984
1.97853
1.98285
1.98193
1.97506
1.96174
1.94203
1.91661
1.8869
1.8549
1.82311
1.79421
1.77048
1.75335
1.74359
1.74063
1.74319
1.74873
1.75469
1.75955
4.86361
5.22518
5.42783
5.44588
5.31787
5.12634
4.8731
4.58023
4.26541
3.94032
3.6168
3.30655
3.01716
2.75402
2.5206
2.31859
2.14674
2.00104
1.87914
1.78022
1.70191
1.64128
1.59499
1.56058
1.53471
1.51645
1.50385
1.49616
1.49259
1.49252
1.49549
1.50106
1.50874
1.51802
1.52837
1.5393
1.55029
1.56082
1.57031
1.57815
1.5837
1.5864
1.58566
1.58089
1.57155
1.55717
1.53739
1.51208
1.48143
1.44612
1.40757
1.36815
1.33102
1.29974
1.27763
1.26762
1.27108
1.28807
1.31701
1.35563
1.40189
3.7186
4.30807
4.87466
5.31645
5.54504
5.59472
5.48096
5.23824
4.92749
4.57009
4.19225
3.8188
3.46208
3.13328
2.83796
2.5764
2.34605
2.14576
1.97446
1.83157
1.71536
1.62363
1.55311
1.5001
1.46076
1.43241
1.41273
1.40013
1.39329
1.39114
1.39293
1.39802
1.40569
1.41517
1.42575
1.4367
1.44735
1.45697
1.46485
1.47023
1.47238
1.47061
1.4643
1.45292
1.43601
1.41338
1.38497
1.35098
1.31179
1.26811
1.22112
1.17281
1.12612
1.08509
1.05466
1.04039
1.04608
1.07346
1.12192
1.18932
1.27256
2.74772
3.1769
3.7181
4.31429
4.86549
5.29223
5.54193
5.58812
5.46451
5.20086
4.84361
4.45371
4.0516
3.66263
3.30314
2.97615
2.68337
2.42322
2.19738
2.00602
1.84756
1.72051
1.62166
1.54652
1.49019
1.44881
1.41942
1.39977
1.388
1.38251
1.38227
1.38647
1.39421
1.40451
1.41645
1.42917
1.44181
1.45353
1.46344
1.47065
1.47426
1.47349
1.46756
1.45585
1.43778
1.4131
1.38176
1.34398
1.30009
1.25081
1.19718
1.14103
1.0851
1.03341
0.992073
0.968626
0.969234
0.999138
1.0601
1.14993
1.26338
2.2515
2.45563
2.77322
3.20849
3.73393
4.29453
4.81421
5.21056
5.43361
5.4695
5.3313
5.06204
4.69646
4.28906
3.88682
3.49925
3.14289
2.81987
2.52864
2.27572
2.06404
1.89314
1.75946
1.65703
1.57933
1.52107
1.47856
1.44898
1.42987
1.41896
1.41489
1.41667
1.42325
1.43342
1.44609
1.46022
1.4748
1.48887
1.50141
1.5114
1.51781
1.51979
1.51642
1.507
1.49074
1.46738
1.43671
1.39897
1.3543
1.30335
1.24703
1.18706
1.12598
1.06763
1.01813
0.985639
0.978314
1.00486
1.07067
1.17505
1.31203
2.07894
2.13557
2.26402
2.48427
2.80805
3.2318
3.72812
4.24335
4.70938
5.06006
5.24875
5.26399
5.12307
4.85801
4.5137
4.11677
3.71962
3.34
2.97534
2.64781
2.36734
2.13859
1.95922
1.82053
1.71417
1.63285
1.5721
1.52844
1.49877
1.47971
1.46943
1.4667
1.47034
1.47884
1.4909
1.50531
1.52087
1.53651
1.55106
1.56339
1.57235
1.57705
1.57648
1.5699
1.55628
1.53535
1.50678
1.47083
1.42747
1.37736
1.32128
1.26092
1.19868
1.13807
1.08496
1.04721
1.03403
1.05675
1.12443
1.23928
1.39589
2.04829
2.03553
2.05829
2.13336
2.27841
2.50812
2.82876
3.23041
3.68472
4.14287
4.54529
4.83942
4.99538
5.00108
4.87086
4.62786
4.30864
3.94111
3.52768
3.12856
2.76602
2.4638
2.2265
2.04162
1.89775
1.78539
1.69905
1.63527
1.59076
1.56006
1.54071
1.53095
1.52951
1.53452
1.5444
1.55769
1.57303
1.58914
1.60471
1.61849
1.62925
1.63613
1.638
1.63417
1.6233
1.60517
1.5793
1.54597
1.50501
1.45711
1.40299
1.34428
1.28318
1.22315
1.16975
1.13021
1.11433
1.13504
1.2045
1.32821
1.5019
2.04255
2.01004
1.99072
1.9947
2.03501
2.12635
2.28289
2.51427
2.82049
3.18986
3.58858
3.98057
4.32253
4.57872
4.71841
4.73237
4.62223
4.39402
4.08218
3.68532
3.25224
2.87621
2.57696
2.33814
2.1443
1.98902
1.86673
1.77545
1.71021
1.66287
1.63074
1.61059
1.60124
1.60058
1.60638
1.61695
1.63067
1.64604
1.66154
1.67556
1.68731
1.69549
1.6993
1.69779
1.68967
1.67433
1.65172
1.62124
1.58346
1.53843
1.4875
1.43181
1.3736
1.31643
1.26491
1.22605
1.21007
1.23119
1.30277
1.43404
1.62101
0.292844
6.61959
6.29122
0.226626
0.358728
0.126557
0.00316001
2.48055
0.00338117
0.0233589
3.3292
1.08458
0.00316194
6.15042
0.110946
5.38397
0.0032617
2.59156
3.63393
0.00315431
0.226848
5.97893
6.45357
0.00329833
0.00333493
0.105649
0.00315682
0.51731
0.00324797
0.0034622
0.739898
0.00323777
0.0163031
2.48838
0.791472
3.40689
2.53839
1.58825
0.00316433
2.58059
1.86495
2.00818
0.00320938
4.66006
3.21364
0.281231
0.00361129
0.0152652
0.133071
1.10837
6.65657
7.71147
0.00310416
0.00405599
0.0375806
0.00852433
0.00345304
0.675408
2.41122
7.40464
2.48587
0.00370042
0.145945
0.0319258
6.45498
0.457783
1.97729
1.78107
0.00431954
0.00321294
1.19673
2.56598
1.69568
0.0155093
0.0394028
3.99944
6.85246
3.28201
0.00310565
0.942199
0.00712003
2.58616
0.0106937
4.79971
0.00321779
1.08219
0.00336417
2.1939
0.0149418
0.00492212
0.119638
0.00310137
0.00378745
7.57668
5.42461
0.00359823
0.439183
0.312668
0.00604445
6.53328
0.217329
2.48613
0.743517
0.00309746
0.00316444
0.00309362
0.304283
0.124729
0.00324042
6.0423
6.7272
0.00936065
4.62648
1.50339
2.60881
2.69616
1.78279
0.00390518
0.0854984
0.0041909
0.00440702
3.47366
0.00732837
7.31419
7.66998
1.02001
0.00321444
1.03178
1.03832
0.00321012
0.0340853
0.0334808
1.6983
0.00569521
3.012
0.00321985
0.00315962
7.61301
7.77923
0.00322999
0.1696
5.56809
0.104693
0.30239
1.56178
4.77155
0.0386605
1.65054
0.0121064
7.16397
1.20736
0.00879915
2.81377
4.73938
6.24677
0.00330667
0.00326904
0.216732
0.00311001
1.94772
0.0304142
0.00511092
0.00319766
0.00321923
0.00323669
2.84431
1.80987
1.54685
0.00331525
6.87557
4.81127
3.13847
4.90216
0.0139749
3.72274
1.65586
1.895
0.00324162
0.00569368
2.88449
3.06922
2.06137
3.65763
0.00321546
0.00352502
4.94957
0.0360651
0.568453
0.00323758
0.00360759
0.10488
0.00339079
7.75577
0.684306
0.00309938
0.255592
1.80656
5.42606
0.00448955
1.92704
0.00321785
0.00323346
4.91763
2.38725
7.36123
0.00453368
0.00339707
0.00767818
2.69653
2.2097
1.09396
4.99682
1.53233
6.84854
0.186221
4.31193
4.04621
1.96228
1.37216
2.29515
0.0049015
0.0370104
0.00322521
0.00319273
1.82041
0.0182037
0.0202036
0.0057469
0.0131194
2.77311
4.71556
0.0188804
5.95702
1.08518
0.388524
0.00318316
0.160686
2.78321
1.03931
0.0041383
1.19329
1.17957
0.177593
0.258079
7.20527
0.776391
0.479474
5.11642
0.00383937
0.00315993
0.00403983
0.0104925
1.75064
0.00336225
0.00654241
0.0031641
0.387242
4.02125
3.94183
2.73968
1.25241
1.44588
7.55951
0.00434077
2.0773
4.48638
0.00320973
1.97705
0.00321723
4.03497
0.385387
1.53286
0.00534596
0.00321991
1.90442
0.510883
0.00323893
0.00323703
0.00325142
0.0032459
0.360125
1.58496
2.98752
0.0148491
0.00324059
0.00316375
0.00309558
4.72717
0.230892
0.00447589
1.62961
0.0878021
0.0415591
0.00308843
0.265185
0.00323972
0.0519608
1.44371
4.74141
0.299327
0.0039166
0.00597631
3.26959
0.140222
1.92463
7.50475
0.0035041
0.00319742
0.00318718
5.7777
0.00331287
4.81177
0.0032214
1.85137
1.19009
0.0270563
2.95191
3.94647
0.00468518
2.72263
2.67518
1.62468
4.63925
1.0846
7.78982
2.44558
3.89768
3.62027
4.4689
1.68694
0.158176
7.67984
7.27289
3.00521
2.12095
0.00394495
7.07155
2.75482
6.80591
0.0275545
0.0035897
0.00321435
0.0034261
0.17287
0.422554
0.74259
0.0923128
0.00317376
5.97277
0.00321507
1.452
1.91919
6.33303
2.687
1.8403
0.00598232
0.00426161
0.0905975
2.79204
0.0103654
0.724306
5.26097
2.05139
4.15556
6.32654
3.28642
0.00346479
7.28177
5.404
1.71976
0.00323509
6.32323
5.62586
0.00333444
1.96933
0.00323885
6.83506
5.72454
1.87037
4.17234
2.52635
5.60309
0.00329098
5.60375
0.00386839
3.613
4.01487
1.90851
7.25774
0.723112
0.213385
0.552901
0.0042452
4.2684
0.143002
0.00815093
0.0050602
4.52237
0.00383566
4.37061
0.00319115
0.003236
0.00600135
1.79092
0.10512
1.82618
0.00574894
4.22445
0.163519
6.70424
4.35139
2.6235
6.29703
0.00338215
7.26469
2.9175
0.00321208
3.94378
2.04185
0.00309909
0.00316768
3.38202
0.00648775
1.99771
0.0899444
2.34318
0.0268353
0.604722
2.62087
5.04149
2.39658
4.1002
3.64131
0.00394311
0.0220126
1.68507
1.68581
7.50975
6.54307
5.43397
0.0655573
5.04944
5.02386
0.495455
1.71515
2.81326
2.05504
0.00347196
4.14255
7.7884
0.00416662
4.39133
1.89471
2.8367
0.0242233
0.0678964
6.31183
0.00598956
7.50389
0.00462476
0.256347
0.00320395
0.997395
2.28141
0.230643
0.00480537
0.00369898
2.69337
1.60878
0.0858245
0.421589
5.95701
4.06281
0.00448465
1.45859
1.65162
3.21267
1.50376
4.16967
1.95477
5.4847
3.25601
0.481823
0.977258
7.39677
1.89499
7.61036
6.02187
0.0315181
3.4215
2.83153
0.00337586
1.79989
1.59302
1.31458
0.0173648
4.77642
1.43812
0.696973
1.89782
0.00545415
0.00321515
0.0459724
2.31569
4.6792
2.59444
0.0032213
0.00318863
0.00321623
1.71585
0.0277272
0.00321574
0.124417
4.53263
5.02761
0.0105569
0.0107793
0.00315388
0.00320532
0.00601063
1.73606
1.7208
1.64626
0.458864
7.54225
5.87719
0.00526154
3.44491
1.83668
1.93939
4.01235
7.38576
0.00346111
0.0105196
0.00323913
3.82907
0.243841
0.00316888
1.3769
0.162558
7.41494
0.00323855
7.71098
1.14687
0.0477838
6.4685
0.00323301
0.00319662
0.00404908
7.71756
3.26741
5.22845
5.04554
1.03579
1.76014
0.0031247
0.00603937
0.0906791
0.0137318
0.0251859
1.94553
2.14591
0.00322514
1.26104
1.83085
6.17993
7.71129
0.00825185
7.67016
0.00592865
0.0303806
3.59091
0.0032028
5.58342
0.00324088
0.00336939
0.0223289
2.11825
0.627751
2.53391
1.86463
0.00365987
1.7663
4.61146
0.0543593
0.221963
0.828467
0.00331697
0.00326868
0.00693576
5.37365
0.526629
0.00335483
7.27352
6.05057
6.64456
0.0342455
2.03397
0.00420925
2.40377
0.162596
0.091307
2.66608
1.66577
1.88129
6.05979
0.0032785
0.00313113
0.0105333
4.10093
4.51416
0.97879
0.0138993
0.00333344
0.00324034
0.00885778
0.0254452
0.00662181
2.18243
1.73683
0.0115695
1.56266
5.98183
0.00327191
2.38113
0.00321775
0.525675
0.00324484
0.0222178
2.47428
0.0201404
0.00320615
0.768401
7.83904
7.20876
0.00318881
0.00326319
0.390141
0.026585
0.00321664
4.46115
0.00370503
1.67069
7.80148
2.39131
1.6853
2.42487
3.68926
7.52428
0.00323028
0.00744324
0.0149199
4.2225
1.42215
6.43812
0.677035
0.369866
4.27317
3.64604
5.08978
0.739213
2.77044
0.00322265
0.359214
1.64711
2.53854
3.95348
1.92861
0.229275
2.53143
0.102555
0.00926597
1.71825
0.00324061
5.88367
0.00366413
0.372116
7.3434
2.71397
0.565615
0.00742647
0.7544
0.00330098
0.00319189
0.107005
0.0225508
1.76985
0.0154107
1.74467
0.00322147
0.0280331
0.00316596
4.48072
0.00506248
4.08246
2.48846
0.0220251
1.90133
7.60808
0.00325945
1.69526
4.4757
0.00335653
7.31165
0.0628066
0.00347816
0.00339452
7.34675
0.00317847
0.00429511
0.0870884
0.10077
7.13361
7.19181
0.0032211
0.003271
1.09612
2.30824
0.0146278
0.250016
2.03585
0.00321803
0.00383878
0.00372795
5.98393
7.20688
0.489366
7.27783
0.0261429
1.59504
0.00332124
0.0148196
0.0249405
0.0362418
0.00323056
6.97204
0.00320102
0.0250895
0.00332274
0.250136
0.0225574
0.0157961
0.437115
0.68047
2.27737
0.395662
1.07453
1.82334
5.07714
0.00344061
4.92899
7.62888
1.12676
3.99551
0.00327864
4.33396
3.85539
0.00321644
7.46105
2.31887
0.00829474
0.0114736
5.84482
5.6715
0.0599181
7.51816
7.39078
0.799842
7.32331
7.2421
4.93302
1.92819
1.68986
1.04484
7.18472
7.47551
0.0219877
7.49213
2.55364
4.35899
0.00343336
0.338923
0.375996
6.74654
5.84385
0.020274
4.24608
6.37455
0.482212
0.0338964
0.375456
1.81438
0.00536122
1.85085
6.93272
0.0338047
6.70269
1.3341
4.40942
6.28983
0.00322283
0.00565974
1.06356
0.703028
0.0182945
0.00321861
0.187765
0.256435
0.00451698
0.00323648
4.20321
0.997735
3.03134
1.00917
0.00864609
0.00417761
0.0929925
3.37781
0.0034629
1.85216
1.66561
0.478788
2.28779
0.00397616
0.116169
0.00320244
0.350742
4.31117
0.00439847
0.118423
2.10532
5.89549
0.224739
3.99432
0.585772
0.165516
0.00392935
2.35986
7.75024
0.00321188
0.00328206
5.59754
0.0245757
0.00323563
3.7701
0.236287
1.90751
2.00564
1.45276
0.145686
1.74082
3.50353
5.80833
4.44025
0.0032766
5.66575
0.00389308
2.54466
0.00339646
0.00455794
2.11181
0.00656679
3.87752
0.020721
0.0398281
1.82274
0.711517
0.0624498
0.00367856
6.1994
0.00364766
0.00315223
7.76357
5.80691
2.83676
1.92493
0.00343748
0.00306981
1.88419
5.58818
0.00319978
6.6993
1.66212
0.00324335
5.95193
0.00311391
0.353971
0.919004
1.36843
0.358593
1.57026
1.92079
0.00310974
7.20828
7.516
0.0032162
0.0169038
1.92548
0.0031291
6.90881
5.54457
4.38707
0.00321837
0.00317056
3.54381
0.0417396
0.00350249
1.82003
1.69546
4.20679
0.00315288
0.00337844
0.0243799
0.0194542
0.00321752
0.00642053
5.1709
2.87034
0.00322297
1.32209
0.00321494
0.701019
0.00421282
0.00358985
2.26448
0.00326566
0.121629
0.00317613
2.90178
0.17784
1.68942
6.21903
4.36814
3.68408
0.821803
1.22267
0.00323549
0.938453
7.25163
4.05483
0.106877
0.0034695
5.20597
0.00321503
0.0307098
0.00315517
7.15704
0.776551
0.363966
6.37167
2.19192
0.478172
4.14119
0.704942
6.7275
4.53229
0.00331196
0.00327196
0.00822767
0.00322529
0.0228127
4.40311
0.00377805
7.09664
0.0060211
0.0757002
0.585009
4.75306
0.00487897
2.70052
0.0170454
3.13571
2.4246
6.95014
0.00339423
0.00384282
0.257388
3.66284
1.71707
3.68396
0.422319
1.03219
1.60941
0.05061
1.03271
0.251422
1.68147
0.00328306
4.33459
0.416079
3.13774
0.00336677
3.04823
0.969742
0.0046599
1.61709
1.805
0.0654707
0.00314691
0.00321859
4.93139
2.81038
1.36593
0.00320841
0.0176154
1.99418
6.26017
0.449137
0.0126405
0.00322355
5.49851
5.20139
2.07897
2.63843
0.00321406
3.50881
7.41349
0.00321111
0.00321784
1.22484
0.00413201
0.00989708
0.0305638
1.91766
0.0041072
2.21011
7.59337
0.0032014
0.00346124
0.00316734
0.00330807
3.73429
4.62927
7.74178
0.0290597
2.35132
2.19999
0.0871439
2.88647
0.00347623
1.68555
0.221908
2.07372
0.68726
1.62906
3.09933
0.0273835
0.003239
5.83326
4.43742
4.70007
0.913578
1.76136
0.174925
1.68269
0.00929518
0.00484297
3.4403
5.47597
0.0219577
0.127615
0.00324596
0.0781428
1.91351
0.0277626
1.02033
0.708405
3.78129
2.12674
0.437353
6.93769
5.42693
2.9447
1.64944
4.24528
3.54118
0.566772
2.67292
0.0062441
2.80293
2.95593
0.00320408
0.00313423
0.122361
0.00322725
0.00332795
3.00766
4.35253
0.00322052
3.23888
0.00321534
0.00319252
0.00321697
0.00326043
0.00594884
1.92916
2.69571
7.01817
0.00315752
0.00392172
0.965761
0.00355821
0.033005
0.00324573
0.00361114
4.41757
0.00391426
0.0109796
2.79445
0.0104984
0.00321986
3.97164
0.00321456
0.00326758
0.259832
0.00360852
0.934273
0.00457837
0.0301785
0.00320431
0.00325374
7.43172
7.60476
2.68591
0.0267554
2.94167
1.56187
0.00473544
1.76656
4.16611
6.85916
4.56717
0.00312046
2.00203
2.52837
0.146589
1.73958
4.45431
0.173405
2.04399
0.210321
1.71663
0.0377959
1.02626
0.00323491
6.73224
0.00328387
1.79376
2.47624
0.00321529
0.313437
0.00732456
0.0198171
0.0031752
0.769599
0.00366749
0.00322076
2.51382
0.0090677
0.110482
6.80766
1.89091
0.0034568
0.00387814
2.40282
7.1177
0.00308912
0.00324732
0.0720873
1.34369
5.52922
0.00659065
1.6561
0.0032185
0.00344598
0.00314678
0.0348813
0.987836
0.0101481
6.62314
1.79646
7.1057
5.98738
0.00352255
7.41904
3.72379
0.00317918
0.00322627
0.00321814
0.00440147
0.00320291
3.8
0.0032081
0.00324067
6.81272
0.32538
0.00777252
0.0221731
1.94935
0.923538
0.00815969
0.00346168
6.23582
0.00324545
0.791282
0.00326123
0.00352688
5.84582
5.85535
0.00873337
0.00350826
0.331875
0.00320656
6.85578
0.00325453
5.57603
0.0252675
0.715887
0.0350739
0.365451
0.371239
1.48948
0.00324278
0.00356981
0.0115936
3.23484
0.119673
7.41275
0.00321989
0.00458912
0.00556799
7.08159
2.78788
3.04541
0.0069402
0.00900618
0.21005
0.00322367
1.25663
2.48783
0.0170193
6.00547
6.122
1.98511
0.00534731
0.388714
2.84177
6.7676
1.80089
0.018815
3.09764
0.0609381
5.21341
0.0915786
0.522942
2.60304
0.00324365
1.76354
0.00455709
0.0118907
0.0082756
0.0501769
0.00370638
1.29426
0.0032269
3.0553
0.0956334
0.00361305
0.234532
0.00323206
0.284075
0.117663
2.30695
0.455329
4.61396
0.242773
0.00321713
0.00319163
0.73498
0.0918089
2.83111
7.12528
0.00322426
3.88336
2.68524
0.0232535
1.99338
0.589096
2.34498
2.14056
0.0340514
0.0058976
7.14125
1.51831
5.82967
0.00321091
1.64293
0.00321573