/*--------------------------------*- C++ -*----------------------------------*\
| =========                 |                                                 |
| \\      /  F ield         | OpenFOAM: The Open Source CFD Toolbox           |
|  \\    /   O peration     | Version:  2.3.1                                 |
|   \\  /    A nd           | Web:      www.OpenFOAM.org                      |
|    \\/     M anipulation  |                                                 |
\*---------------------------------------------------------------------------*/
FoamFile
{
    version     2.0;
    format      ascii;
    class       volScalarField;
    location    "0.57";
    object      nut;
}
// * * * * * * * * * * * * * * * * * * * * * * * * * * * * * * * * * * * * * //

dimensions      [0 2 -1 0 0 0 0];

internalField   nonuniform List<scalar> 
9648
(
0.000273053
0.000272559
0.000272517
0.000272314
0.000271929
0.00027129
0.00027046
0.000269445
0.000268228
0.000266788
0.000265119
0.000263259
0.000261205
0.000258968
0.000256601
0.00025415
0.000251642
0.000249101
0.000246571
0.000244098
0.000241698
0.000239393
0.00023721
0.000235149
0.000233214
0.00023142
0.000229773
0.000228268
0.000226897
0.000225666
0.000224566
0.000223593
0.000222743
0.000222016
0.000221399
0.000220894
0.000220499
0.00022021
0.00022001
0.000219901
0.000219891
0.000219969
0.000220131
0.000220384
0.000220716
0.000221118
0.000221603
0.000222184
0.00022285
0.000223589
0.000224413
0.000225342
0.000226351
0.000227444
0.000228629
0.000229904
0.000231231
0.000232552
0.000233876
0.0002352
0.000236508
0.000461719
0.00046645
0.000471214
0.00047662
0.000482065
0.000486676
0.000492439
0.000500584
0.000511289
0.000524619
0.000540718
0.00055994
0.000582281
0.000607634
0.000635852
0.000666857
0.000700419
0.000736197
0.00077388
0.000813292
0.000854083
0.000895995
0.000938832
0.000982321
0.00102618
0.00107027
0.00111448
0.00115866
0.00120262
0.00124628
0.00128963
0.00133253
0.00137488
0.00141674
0.00145801
0.00149859
0.00153855
0.00157791
0.00161659
0.00165442
0.00169146
0.00172779
0.00176332
0.00179796
0.00183181
0.00186462
0.0018964
0.0019273
0.00195741
0.00198658
0.00201481
0.0020421
0.00206865
0.00209401
0.00211882
0.00214289
0.00216683
0.00218966
0.00221202
0.00223415
0.00225624
0.000793321
0.000837224
0.000877984
0.000915657
0.000953567
0.000993644
0.00103528
0.00107975
0.00112677
0.00117735
0.00123108
0.00128871
0.00135027
0.00141575
0.00148496
0.00155763
0.00163344
0.00171185
0.00179239
0.00187465
0.00195812
0.00204248
0.00212725
0.00221211
0.00229675
0.00238093
0.00246451
0.0025472
0.00262895
0.00270963
0.00278913
0.00286746
0.00294462
0.00302047
0.00309501
0.0031683
0.00324027
0.00331102
0.00338048
0.00344866
0.00351558
0.00358114
0.00364554
0.00370872
0.00377061
0.00383121
0.00389047
0.00394862
0.00400543
0.00406107
0.00411552
0.00416885
0.00422165
0.00427246
0.00432352
0.00437257
0.00442142
0.00446742
0.00451361
0.00455903
0.00460383
0.00127017
0.00135597
0.00143714
0.00151461
0.00159045
0.00166626
0.00174264
0.00182057
0.00190063
0.00198403
0.00207094
0.0021621
0.00225746
0.00235718
0.00246089
0.00256817
0.00267856
0.00279142
0.00290622
0.00302238
0.00313944
0.00325682
0.00337415
0.00349108
0.00360732
0.00372259
0.00383673
0.00394955
0.00406097
0.00417086
0.0042793
0.00438622
0.00449159
0.00459549
0.00469782
0.00479868
0.00489803
0.00499598
0.0050925
0.00518765
0.00528143
0.00537388
0.00546496
0.00555483
0.00564337
0.00573062
0.0058166
0.00590137
0.00598475
0.00606679
0.00614794
0.00622717
0.00630522
0.00638152
0.00645769
0.00653187
0.00660416
0.00667461
0.00674362
0.00681114
0.00687624
0.00182616
0.00194651
0.00206245
0.0021738
0.0022818
0.0023884
0.00249505
0.00260287
0.00271321
0.00282719
0.00294532
0.00306806
0.00319558
0.00332785
0.00346432
0.00360434
0.00374721
0.00389236
0.00403909
0.00418687
0.00433508
0.00448321
0.00463079
0.00477748
0.00492302
0.00506725
0.00520989
0.00535087
0.00549008
0.00562748
0.00576306
0.00589684
0.0060289
0.00615919
0.00628769
0.00641455
0.00653978
0.00666333
0.00678528
0.00690564
0.00702448
0.00714176
0.0072576
0.00737197
0.00748485
0.00759621
0.00770599
0.00781423
0.00792112
0.00802603
0.00812957
0.00823136
0.00833087
0.00842831
0.00852411
0.00861843
0.00871004
0.00879953
0.00888692
0.00897165
0.00905364
0.00239586
0.00254164
0.00268655
0.00282838
0.00296721
0.00310451
0.00324203
0.00338133
0.00352353
0.00366969
0.00382035
0.00397563
0.00413584
0.00430064
0.00446973
0.00464223
0.00481702
0.00499376
0.00517148
0.00534972
0.00552794
0.00570543
0.00588187
0.00605673
0.0062299
0.00640125
0.00657066
0.00673804
0.00690318
0.00706609
0.00722683
0.0073853
0.00754174
0.00769614
0.00784844
0.00799876
0.00814725
0.0082938
0.00843844
0.00858114
0.00872184
0.00886068
0.00899772
0.00913298
0.00926638
0.00939799
0.00952802
0.0096554
0.00978106
0.00990471
0.0100261
0.0101454
0.0102622
0.0103762
0.0104881
0.0105971
0.0107035
0.0108076
0.0109089
0.0110064
0.0111015
0.00294801
0.00311436
0.00328746
0.0034608
0.00363264
0.0038035
0.003975
0.00414867
0.00432556
0.00450619
0.00469129
0.00488052
0.00507407
0.00527171
0.00547372
0.00567864
0.00588523
0.00609322
0.00630131
0.00650915
0.00671653
0.00692236
0.00712657
0.00732806
0.00752705
0.00772375
0.00791794
0.00810992
0.00829898
0.00848517
0.00866874
0.00884923
0.00902719
0.00920293
0.00937599
0.00954657
0.00971518
0.00988131
0.0100452
0.0102067
0.0103655
0.0105218
0.0106758
0.0108276
0.0109767
0.0111235
0.0112683
0.0114104
0.0115502
0.0116873
0.0118219
0.0119537
0.0120823
0.0122081
0.0123303
0.0124501
0.012567
0.0126805
0.0127903
0.0128965
0.0129993
0.00347473
0.00365973
0.00386205
0.00406896
0.00427699
0.00448371
0.00469165
0.00490242
0.00511578
0.00533311
0.00555432
0.00577903
0.00600648
0.00623645
0.00647064
0.00670791
0.00694638
0.00718587
0.00742423
0.00766047
0.00789602
0.00812926
0.0083608
0.00858798
0.00881056
0.00903038
0.00924702
0.0094615
0.00967231
0.00987942
0.0100836
0.010283
0.0104788
0.0106724
0.010863
0.0110502
0.0112351
0.0114169
0.0115964
0.0117736
0.0119471
0.012117
0.012283
0.0124466
0.0126068
0.0127639
0.0129181
0.0130687
0.0132169
0.0133621
0.0135039
0.0136424
0.0137784
0.0139108
0.0140389
0.0141635
0.0142847
0.0144037
0.0145183
0.0146278
0.014733
0.00398185
0.00418205
0.00441432
0.0046524
0.00489976
0.00514172
0.00538533
0.00563582
0.00588309
0.00613881
0.00639495
0.00665926
0.0069206
0.00718259
0.00744369
0.00771205
0.00798169
0.0082527
0.00852579
0.00878752
0.0090484
0.00930932
0.00956818
0.00982549
0.010068
0.0103083
0.0105447
0.0107785
0.01101
0.011236
0.0114615
0.0116793
0.0118849
0.0120921
0.0122994
0.0124987
0.0126941
0.0128887
0.0130792
0.0132711
0.0134599
0.0136452
0.0138183
0.0139898
0.01416
0.0143215
0.0144822
0.0146338
0.0147876
0.014933
0.0150793
0.0152137
0.0153497
0.0154885
0.0156208
0.0157406
0.0158622
0.0159771
0.0160954
0.0162074
0.016308
0.000237721
0.000238834
0.00023992
0.000240977
0.000241989
0.000242926
0.000243831
0.000244741
0.000245641
0.000246483
0.000247243
0.000247987
0.000248701
0.000249385
0.000250071
0.000250804
0.000251593
0.000252438
0.000253368
0.000254418
0.000255562
0.000256777
0.000258055
0.00025936
0.000260672
0.000262002
0.000263359
0.000264725
0.000266088
0.00026746
0.00026884
0.000270225
0.000271612
0.000273017
0.000274425
0.000275844
0.000277283
0.000278742
0.000280206
0.000281677
0.000283173
0.000284688
0.000286219
0.000287776
0.000289349
0.000290921
0.000292506
0.000294128
0.000295773
0.000297415
0.000299072
0.000300771
0.000302479
0.000304195
0.000305947
0.00030774
0.000309565
0.000311375
0.000313231
0.000315166
0.000317187
0.00227841
0.00229835
0.00231788
0.00233734
0.0023564
0.00237429
0.00239015
0.00240507
0.00241749
0.00242985
0.00244061
0.00245067
0.00245962
0.00246748
0.00247415
0.00247938
0.00248326
0.00248562
0.00248655
0.00248609
0.00248442
0.00248176
0.00247804
0.0024734
0.00246789
0.00246155
0.00245444
0.00244639
0.00243752
0.00242775
0.00241705
0.00240552
0.00239317
0.00237994
0.00236588
0.00235106
0.0023354
0.00231902
0.00230188
0.00228403
0.00226547
0.00224621
0.00222639
0.00220597
0.0021849
0.00216317
0.0021407
0.0021176
0.00209372
0.00206914
0.00204385
0.00201782
0.00199117
0.00196325
0.00193514
0.00190584
0.00187614
0.00184524
0.00181457
0.00178372
0.00175273
0.00464634
0.00468779
0.00472648
0.00476399
0.00480011
0.00483604
0.00486837
0.00489927
0.00492675
0.00495323
0.00497747
0.0050001
0.0050203
0.005039
0.0050558
0.00507065
0.00508363
0.00509473
0.005104
0.00511152
0.00511751
0.00512191
0.00512485
0.00512634
0.0051264
0.00512503
0.00512233
0.00511822
0.00511273
0.00510569
0.00509725
0.00508727
0.00507574
0.00506281
0.00504832
0.00503238
0.00501492
0.00499603
0.00497566
0.00495393
0.0049309
0.00490668
0.00488132
0.00485497
0.00482751
0.0047989
0.00476899
0.00473779
0.00470513
0.004671
0.00463554
0.00459801
0.00455886
0.00451761
0.00447521
0.00443039
0.00438358
0.00433514
0.00428587
0.0042357
0.00418441
0.00693978
0.00700083
0.00705979
0.00711583
0.00716988
0.00722195
0.00727156
0.00731779
0.00736153
0.00740319
0.00744232
0.00747866
0.00751256
0.00754441
0.00757358
0.00760055
0.00762521
0.00764757
0.00766765
0.00768559
0.00770145
0.00771542
0.00772745
0.00773768
0.00774603
0.00775253
0.0077571
0.00775984
0.00776082
0.00775992
0.00775704
0.00775215
0.00774523
0.00773621
0.00772515
0.00771203
0.00769675
0.00767925
0.00765962
0.00763793
0.00761438
0.00758903
0.00756224
0.0075341
0.00750471
0.00747397
0.00744168
0.00740773
0.00737205
0.00733438
0.00729482
0.00725287
0.00720828
0.00716101
0.00711135
0.00705872
0.00700287
0.00694474
0.00688504
0.0068233
0.00676011
0.00913274
0.00920974
0.00928389
0.00935492
0.00942248
0.00948745
0.00954973
0.0096083
0.00966357
0.00971651
0.00976631
0.00981323
0.00985763
0.00989915
0.00993801
0.00997457
0.0100077
0.0100382
0.0100659
0.0100908
0.0101132
0.0101332
0.010151
0.0101666
0.0101799
0.0101909
0.0101998
0.0102065
0.0102112
0.0102141
0.0102148
0.0102133
0.0102095
0.0102032
0.0101946
0.0101834
0.0101695
0.0101529
0.0101334
0.0101111
0.0100862
0.0100589
0.0100297
0.00999894
0.0099668
0.00993339
0.00989844
0.00986135
0.00982272
0.00978239
0.00973977
0.00969449
0.00964624
0.00959459
0.0095398
0.00948057
0.00941786
0.00935214
0.00928396
0.00921295
0.00914042
0.0111931
0.0112818
0.0113666
0.0114488
0.011527
0.0116015
0.011673
0.0117399
0.0118035
0.0118637
0.0119211
0.0119753
0.0120263
0.0120742
0.012119
0.0121607
0.0121989
0.0122341
0.0122659
0.0122939
0.0123187
0.0123406
0.0123598
0.0123764
0.0123904
0.0124016
0.01241
0.0124159
0.0124198
0.012422
0.0124225
0.0124208
0.0124168
0.0124104
0.0124017
0.0123902
0.0123756
0.0123578
0.0123365
0.0123118
0.0122837
0.0122523
0.0122181
0.0121819
0.0121442
0.0121056
0.0120652
0.0120232
0.0119795
0.0119349
0.011888
0.0118381
0.0117852
0.0117289
0.0116687
0.0116033
0.0115337
0.0114596
0.0113832
0.0113036
0.0112218
0.0130985
0.0131941
0.0132856
0.0133731
0.0134569
0.0135371
0.013613
0.0136844
0.0137523
0.0138163
0.0138767
0.0139339
0.013988
0.0140381
0.0140844
0.014128
0.0141682
0.014205
0.0142376
0.0142654
0.014289
0.0143091
0.0143258
0.0143396
0.0143503
0.0143575
0.0143611
0.0143611
0.0143586
0.0143545
0.0143498
0.0143432
0.0143351
0.0143249
0.0143135
0.0142996
0.0142818
0.0142604
0.0142355
0.0142072
0.0141748
0.0141379
0.0140969
0.0140533
0.0140077
0.0139617
0.013913
0.013863
0.0138115
0.0137607
0.0137081
0.0136517
0.0135932
0.0135313
0.0134661
0.0133939
0.0133171
0.0132346
0.0131503
0.013062
0.0129712
0.0148345
0.0149315
0.015024
0.0151115
0.0151949
0.0152734
0.0153481
0.0154187
0.0154862
0.0155495
0.0156083
0.0156641
0.0157171
0.0157662
0.0158102
0.0158502
0.0158885
0.0159242
0.0159561
0.0159822
0.0160019
0.0160179
0.0160299
0.0160377
0.0160424
0.0160431
0.0160398
0.0160306
0.0160162
0.0159994
0.0159836
0.0159654
0.0159475
0.0159279
0.0159103
0.0158922
0.0158689
0.0158404
0.015809
0.0157757
0.0157391
0.0156975
0.0156498
0.0155979
0.0155438
0.01549
0.015431
0.0153714
0.0153086
0.0152491
0.0151896
0.0151245
0.0150583
0.01499
0.01492
0.0148411
0.0147575
0.0146663
0.0145742
0.0144777
0.0143793
0.0164107
0.0165049
0.0165968
0.016675
0.0167523
0.0168166
0.0168839
0.0169385
0.0169958
0.0170566
0.0171102
0.0171504
0.0171972
0.0172436
0.0172835
0.0173145
0.01734
0.017366
0.0173955
0.0174202
0.017434
0.0174461
0.0174567
0.0174579
0.0174534
0.0174446
0.0174353
0.0174216
0.0173955
0.0173618
0.0173304
0.0172934
0.017258
0.0172185
0.0171866
0.0171608
0.0171303
0.0170894
0.0170456
0.0170019
0.0169576
0.0169167
0.0168633
0.0168036
0.0167455
0.0166852
0.0166204
0.0165506
0.016477
0.0164054
0.0163371
0.01626
0.0161803
0.0161058
0.0160278
0.0159456
0.0158546
0.0157577
0.0156562
0.0155531
0.0154462
0.000319206
0.000321206
0.000323285
0.000325441
0.000327646
0.000329855
0.000332098
0.000334406
0.000336755
0.000339129
0.000341522
0.000343956
0.000346405
0.000348944
0.000352065
0.000354928
0.00035772
0.0003605
0.000363283
0.000366091
0.000368912
0.000371747
0.000374605
0.000377466
0.000380317
0.000383164
0.000386008
0.000388837
0.000391633
0.000394398
0.000397121
0.000399793
0.000402401
0.000404947
0.000407405
0.000409771
0.000412037
0.000414177
0.000416036
0.000417385
0.000418313
0.000418832
0.000418939
0.00041863
0.00041785
0.000416533
0.000414637
0.000412097
0.00040879
0.000404563
0.000399277
0.000392768
0.000384744
0.000374881
0.000362324
0.000340989
0.000330614
0.000325096
0.000322843
0.000321799
0.000319695
0.00172119
0.0016896
0.00165746
0.00162512
0.00159256
0.00156008
0.00152712
0.00149445
0.00146167
0.00142928
0.00139753
0.00136546
0.00133389
0.00130257
0.00126771
0.00123294
0.00119861
0.00116495
0.00113203
0.00109988
0.0010685
0.00103768
0.0010074
0.00097766
0.000948422
0.000919729
0.000891554
0.000863949
0.000836892
0.000810389
0.000784477
0.00075918
0.00073449
0.000710453
0.000687127
0.000664531
0.000642763
0.000621899
0.000601587
0.000579111
0.000556054
0.000533968
0.000512955
0.000493199
0.000474795
0.000457942
0.000442911
0.000429962
0.000419359
0.000411431
0.000406538
0.000405105
0.000407555
0.000414437
0.000424433
0.000447039
0.000481891
0.000537632
0.000623105
0.00074584
0.00086822
0.00413254
0.0040799
0.00402631
0.00397122
0.00391481
0.00385738
0.00379886
0.00373972
0.00367993
0.00362004
0.00355837
0.00349655
0.00343743
0.00337819
0.00331617
0.00325169
0.0031858
0.00311971
0.00305376
0.00298827
0.00292309
0.00285785
0.00279258
0.00272726
0.0026618
0.00259626
0.00253059
0.00246481
0.00239879
0.00233259
0.00226611
0.00219934
0.00213234
0.00206502
0.00199743
0.00192956
0.00186148
0.00179314
0.00172434
0.00165376
0.00158108
0.00149664
0.00140469
0.00130992
0.00121351
0.00111667
0.00102105
0.000928181
0.000840025
0.000758564
0.000685748
0.000623406
0.000572737
0.000535051
0.000510087
0.000501871
0.000513061
0.000548707
0.000618276
0.000735471
0.000898703
0.0066958
0.00663108
0.00656471
0.00649605
0.00642463
0.00635157
0.00627694
0.0062015
0.00612563
0.00604909
0.00596884
0.00588995
0.00581378
0.00573735
0.00565769
0.00557457
0.00548882
0.00540221
0.00531536
0.00522863
0.00514178
0.00505402
0.00496559
0.00487654
0.00478664
0.00469593
0.00460427
0.00451168
0.00441789
0.00432284
0.00422646
0.00412878
0.00402973
0.00392936
0.00382768
0.00372471
0.00362037
0.0035147
0.00340746
0.00329809
0.00318578
0.00306723
0.00293439
0.00278425
0.00262251
0.00244946
0.00226589
0.00207309
0.00187351
0.00167126
0.00147091
0.00127971
0.00110399
0.000950479
0.000822909
0.000726179
0.000663255
0.000634188
0.000641088
0.000691385
0.000794053
0.00906589
0.00899073
0.00891362
0.00883416
0.00875036
0.0086642
0.0085762
0.00848802
0.00839917
0.00830956
0.00821525
0.00812271
0.00803237
0.00794191
0.00784815
0.00775045
0.00764928
0.00754726
0.00744477
0.00734229
0.00723919
0.00713431
0.00702835
0.00692146
0.00681308
0.0067034
0.00659204
0.00647899
0.00636383
0.00624654
0.00612702
0.00600548
0.00588198
0.00575667
0.00562955
0.00550073
0.00537024
0.00523803
0.00510394
0.00496769
0.00482875
0.00468582
0.00453573
0.00436945
0.00418482
0.00398437
0.00376657
0.00352999
0.00327349
0.00299792
0.0027048
0.00239894
0.00208921
0.00178799
0.00150937
0.00126764
0.00107473
0.000932963
0.000839873
0.000794769
0.00080127
0.0111369
0.0110514
0.0109642
0.0108745
0.0107792
0.0106808
0.0105797
0.0104791
0.0103782
0.010277
0.0101703
0.0100651
0.00996165
0.00985887
0.00975225
0.00964169
0.00952726
0.00941269
0.00929757
0.00918244
0.00906611
0.00894671
0.00882631
0.00870513
0.0085818
0.00845668
0.00832909
0.00819915
0.00806604
0.0079301
0.00779122
0.00765012
0.00750693
0.00736205
0.00721535
0.00706713
0.00691735
0.00676614
0.00661335
0.00645888
0.00630228
0.00614304
0.00597972
0.00580862
0.00561921
0.0054147
0.00519232
0.00495058
0.00468635
0.00439684
0.00407999
0.00373444
0.0033621
0.00297079
0.00257298
0.00218966
0.00184338
0.00154961
0.0013146
0.00113942
0.00102363
0.0128754
0.0127796
0.0126827
0.0125838
0.0124773
0.0123668
0.0122525
0.0121398
0.0120275
0.0119158
0.0117971
0.01168
0.0115646
0.0114509
0.0113329
0.0112113
0.0110852
0.0109602
0.0108347
0.0107093
0.0105819
0.0104496
0.0103173
0.0101849
0.010049
0.00991078
0.00976883
0.0096242
0.00947493
0.00932234
0.00916634
0.00900889
0.00884963
0.00868955
0.00852792
0.00836546
0.00820187
0.0080378
0.00787297
0.00770762
0.00754108
0.00737315
0.00720312
0.00702904
0.00684678
0.00664585
0.00642954
0.00619585
0.00594212
0.00566545
0.00536201
0.0050279
0.0046605
0.00425841
0.00382636
0.00337598
0.00292689
0.00250223
0.00212039
0.00179353
0.00152894
0.0142732
0.0141665
0.01406
0.0139528
0.0138361
0.0137141
0.0135873
0.0134622
0.0133393
0.013218
0.0130884
0.0129603
0.0128345
0.012712
0.0125844
0.0124533
0.0123179
0.0121841
0.0120502
0.0119169
0.0117797
0.0116357
0.0114939
0.011353
0.0112061
0.0110553
0.0108997
0.0107414
0.0105764
0.010408
0.0102364
0.0100659
0.0098938
0.00972268
0.00955004
0.00937787
0.009205
0.00903399
0.00886364
0.00869493
0.00852587
0.00835699
0.00818711
0.00801511
0.00783814
0.0076487
0.00744319
0.00722227
0.00698467
0.0067284
0.00645091
0.00614815
0.00581523
0.00544799
0.00504395
0.0046047
0.00413884
0.00366073
0.00318939
0.0027433
0.00233969
0.0153352
0.015215
0.0151008
0.0149824
0.0148601
0.0147255
0.0145904
0.0144499
0.0143188
0.0141865
0.0140502
0.013911
0.0137794
0.0136481
0.0135159
0.0133744
0.0132361
0.0130919
0.0129524
0.0128149
0.0126666
0.012515
0.0123655
0.0122152
0.0120579
0.0118921
0.011725
0.0115513
0.0113711
0.0111871
0.0110037
0.0108237
0.010642
0.0104632
0.0102834
0.0101056
0.00992859
0.0097593
0.00959174
0.00942935
0.0092641
0.00910158
0.00893767
0.00877174
0.00860278
0.00842661
0.00823357
0.00802525
0.00780462
0.00757529
0.00732815
0.00706498
0.00677394
0.00645723
0.00610454
0.00571897
0.00529319
0.00483827
0.00435726
0.00386481
0.00338104
0.000315717
0.00031117
0.000306204
0.000300841
0.000295284
0.000289633
0.000284046
0.000278721
0.000273826
0.000269477
0.000265749
0.000262703
0.000260297
0.00025846
0.000257125
0.000256215
0.000255627
0.000255276
0.000255114
0.000255107
0.000255209
0.0002554
0.000255669
0.00025599
0.000256377
0.000256795
0.000257279
0.00025781
0.000258382
0.000259
0.000259658
0.000260351
0.000261073
0.000261821
0.000262579
0.000263345
0.00026411
0.000264859
0.000265569
0.000266233
0.000266849
0.000267397
0.00026787
0.000268273
0.000268592
0.000268826
0.000268999
0.000269141
0.000269258
0.000269356
0.000269471
0.000269641
0.000269847
0.000270107
0.000270427
0.00027081
0.000271217
0.000271607
0.000271998
0.000272382
0.000272743
0.000933538
0.000989056
0.00103314
0.00106014
0.00107182
0.00107267
0.00106025
0.00103512
0.000999613
0.000955861
0.000906029
0.000853496
0.000800965
0.00075061
0.000703026
0.000659952
0.000623002
0.00059238
0.000567668
0.000548269
0.000533375
0.000522125
0.000513804
0.000507628
0.000503434
0.000500537
0.000498933
0.000498338
0.000498625
0.000499661
0.000501325
0.000503499
0.000506049
0.000508828
0.000511706
0.000514544
0.000517186
0.000519495
0.000521309
0.000522479
0.000522851
0.000522268
0.000520585
0.000517668
0.000513418
0.000507788
0.000500809
0.000492631
0.000483519
0.000473901
0.000464335
0.000455467
0.000447926
0.000442224
0.000438743
0.000437575
0.000438596
0.000441442
0.000445656
0.00045068
0.00045615
0.00106955
0.00124122
0.00140943
0.00156172
0.0016626
0.00174194
0.00179713
0.00182295
0.00182275
0.0017998
0.00175487
0.00169225
0.00161594
0.00152954
0.0014353
0.00133817
0.00124491
0.00115981
0.00108481
0.00102217
0.000972211
0.00093405
0.000905892
0.000886028
0.000872398
0.00086397
0.00085956
0.000858426
0.000859901
0.000863422
0.000868545
0.000874764
0.000881567
0.000888453
0.000894905
0.000900471
0.00090469
0.000907135
0.000907378
0.000905054
0.000899863
0.000891623
0.000880225
0.000865698
0.000848112
0.000827716
0.000804823
0.000779881
0.000753422
0.000726246
0.000699451
0.000674436
0.000652991
0.000636909
0.000627985
0.000627438
0.00063586
0.0006532
0.000678837
0.000711696
0.000750361
0.000945977
0.0011413
0.00136859
0.00160718
0.00182458
0.00202123
0.00220217
0.00233472
0.00242617
0.00248733
0.00251505
0.00251135
0.00248094
0.00242551
0.00234662
0.00224762
0.00213267
0.00201359
0.00189655
0.00178816
0.00169348
0.00161599
0.00155635
0.00151323
0.00148404
0.00146668
0.00145908
0.00145958
0.00146664
0.00147889
0.00149527
0.00151465
0.00153581
0.00155748
0.00157849
0.00159768
0.00161393
0.00162612
0.00163318
0.00163413
0.00162808
0.00161438
0.00159256
0.00156246
0.00152409
0.00147794
0.00142473
0.00136548
0.00130123
0.00123357
0.0011645
0.00109677
0.00103401
0.000981014
0.000943536
0.000926908
0.000933728
0.000965038
0.00101949
0.00109363
0.00118039
0.000863744
0.000985979
0.00116903
0.00140445
0.00166899
0.00194228
0.00220961
0.00244836
0.00265327
0.00283161
0.0029649
0.00304933
0.00310109
0.0031197
0.0031068
0.00306733
0.00300299
0.00291501
0.00281572
0.00271293
0.00261255
0.00252209
0.00244704
0.00238996
0.00235056
0.00232789
0.0023205
0.00232682
0.00234472
0.00237216
0.00240751
0.002449
0.00249458
0.0025421
0.00258951
0.00263482
0.00267601
0.00271116
0.00273825
0.0027554
0.00276084
0.00275322
0.00273125
0.00269413
0.00264113
0.00257251
0.00248861
0.00239046
0.00227927
0.00215691
0.00202585
0.00189001
0.00175462
0.00162766
0.00152079
0.00144995
0.00141991
0.00143615
0.00149666
0.00158984
0.00170425
0.000968951
0.000977715
0.00105351
0.00119855
0.001408
0.00166982
0.0019653
0.00226806
0.0025569
0.00282074
0.00304675
0.00323066
0.00338248
0.00348796
0.00354946
0.00358506
0.00359565
0.00358418
0.00355741
0.00351905
0.00347567
0.00343173
0.0033923
0.0033625
0.00334467
0.00334053
0.00335128
0.00337732
0.0034174
0.00346954
0.00353226
0.00360351
0.0036808
0.00376129
0.00384226
0.0039209
0.00399451
0.00406026
0.00411528
0.00415683
0.00418226
0.00418954
0.00417657
0.00414181
0.00408352
0.00400155
0.00389538
0.0037656
0.00361269
0.00343835
0.00324458
0.00303537
0.00281637
0.00259658
0.00239131
0.00222089
0.00210008
0.00204507
0.00206124
0.0021381
0.00225648
0.0013313
0.0012032
0.00114664
0.0011637
0.00125536
0.00142026
0.00165189
0.00193501
0.00224757
0.00256539
0.00286532
0.00313204
0.00336065
0.00354581
0.00369102
0.00381163
0.00389595
0.00395283
0.00399985
0.00403979
0.00408257
0.0041268
0.00417162
0.00421714
0.00426591
0.00431983
0.00438211
0.00445505
0.00453894
0.00463261
0.00473547
0.00484586
0.00496156
0.00507976
0.00519762
0.00531211
0.00542002
0.00551794
0.00560228
0.00566965
0.0057168
0.00574113
0.00574006
0.00571155
0.0056529
0.00556327
0.00544134
0.00528709
0.00510049
0.00488245
0.00463429
0.00435932
0.00406203
0.00375037
0.00344007
0.00315086
0.002908
0.0027416
0.00267296
0.0027009
0.00280238
0.00199207
0.00171114
0.00150366
0.00137395
0.00132374
0.00135338
0.00146166
0.00164409
0.00189093
0.00218514
0.00250333
0.00282116
0.00311993
0.00338493
0.00361118
0.00380176
0.0039585
0.00408795
0.00420834
0.00430504
0.00441546
0.00453569
0.00466431
0.00480004
0.00494349
0.00509159
0.00524179
0.00539371
0.00555
0.00570946
0.00587202
0.00603605
0.0062
0.00636231
0.00652071
0.00667283
0.00681569
0.00694557
0.00705825
0.00714989
0.00721768
0.00725789
0.00726814
0.0072463
0.00718898
0.00709399
0.00696024
0.00678576
0.00657121
0.00631629
0.00602216
0.00569053
0.00532398
0.00492999
0.0045226
0.00411916
0.00375349
0.00346305
0.0032923
0.00325497
0.00332822
0.00292021
0.00250452
0.00214892
0.00186306
0.00165695
0.00153419
0.00149602
0.00154022
0.00166322
0.0018581
0.00211188
0.00240784
0.00272672
0.00304721
0.00335108
0.00363172
0.00387497
0.00408113
0.00425303
0.0043987
0.00457016
0.00473777
0.00491439
0.00510812
0.00532605
0.00556274
0.00581236
0.00606697
0.00631972
0.00656938
0.0068147
0.00705169
0.00727695
0.00749379
0.00769879
0.00789266
0.00807325
0.00823691
0.00837833
0.00849282
0.00858173
0.00863566
0.00865693
0.00864108
0.00858711
0.00848793
0.00834708
0.00815377
0.00791683
0.00762976
0.00729871
0.00691985
0.00649453
0.00603313
0.00554287
0.00503946
0.00456321
0.00416357
0.0038966
0.00379451
0.00383523
0.00482595
0.0180578
0.0182338
0.00202418
0.00502552
0.00705852
0.00125042
0.00606737
0.00128989
0.00334359
0.0105898
0.0150812
0.0012502
0.013768
0.0066247
0.0193295
0.00126349
0.00651965
0.00999103
0.00125319
0.00203284
0.0136514
0.0181694
0.0012778
0.00127964
0.00479023
0.0012532
0.00299757
0.00125996
0.00131613
0.0075495
0.00127135
0.00272818
0.00882823
0.0141235
0.00926867
0.00805514
0.0143624
0.00124682
0.0133868
0.00481521
0.0122771
0.00124678
0.0190516
0.00540195
0.00991145
0.00135117
0.00240613
0.00129122
0.0152887
0.0106273
0.0148061
0.00124234
0.00144335
0.00198757
0.000195532
0.00131349
0.00443872
0.00889193
0.017084
0.00397886
0.00135706
0.00128357
0.00364402
0.0183174
0.00767854
0.00913635
0.00444963
0.00148703
0.00124255
0.0131931
0.0145966
0.00462196
0.000562032
0.00270006
0.0181693
0.0179818
0.0175238
0.00124045
0.0145674
0.00193904
0.0126629
0.000843672
0.0189545
0.00124256
0.012227
0.00128567
0.0117989
0.00182232
0.00159006
0.00553638
0.00123941
0.00138019
0.01651
0.018204
0.00134173
0.0109379
0.0046998
0.00178041
0.0184124
0.0039931
0.0175017
0.00856163
0.0012382
0.00124181
0.00124041
0.00596683
0.00667074
0.00126428
0.0187228
0.0181616
0.00166768
0.0081561
0.00763268
0.00533454
0.0122436
0.0101698
0.00140723
0.00592148
0.00142682
0.00109967
0.00573729
0.00152843
0.0165979
0.012567
0.00326528
0.00124624
0.0133689
0.0138184
0.00124636
0.00349267
0.00372751
0.00282936
0.00154403
0.013037
0.00124569
0.00124183
0.0130279
0.015272
0.00125314
0.00336598
0.0184699
0.00429804
0.00906877
0.00823984
0.0171654
0.000468921
0.00889375
0.00250081
0.0163647
0.0120152
0.000193854
0.0146469
0.0188923
0.0183732
0.00128748
0.00126891
0.0081986
0.00124568
0.00829515
0.000757551
0.00162266
0.00124367
0.00124744
0.00124292
0.0180269
0.00415839
0.00625281
0.00129136
0.0146688
0.00675457
0.00220233
0.0130553
0.00254153
0.00793328
0.00578338
0.0114896
0.00125954
0.00171245
0.00388049
0.0125029
0.0125708
0.0164859
0.00124775
0.00132704
0.00918223
0.00393265
0.0116655
0.00124468
0.00135085
0.00571664
0.00129873
0.0159612
0.0105296
0.00124296
0.00859571
0.00322519
0.0181181
0.00151721
0.0063722
0.00124756
0.00125359
0.0204622
0.0157356
0.0158153
0.00152566
0.00129502
0.00186487
0.0157077
0.00572225
0.011022
0.0177552
0.0148054
0.0180818
0.00381406
0.0195175
0.0178724
0.0123327
0.0157692
0.0121353
0.00148868
0.00418672
0.00125146
0.0012632
0.0105627
0.00295858
0.00310628
0.00147541
0.00246776
0.0148007
0.0102102
0.00288343
0.0181905
0.0140594
0.00455039
0.0012449
0.00420892
0.0181913
0.0133403
0.00145324
0.00987256
0.00347253
0.00324551
0.00255905
0.0171009
0.00732313
0.00404786
0.0192731
0.00138957
0.00124205
0.00142605
0.00231578
0.00963606
0.0012995
0.00151123
0.00124571
0.00778371
0.0194321
0.0183859
0.0138031
0.0119223
0.0164244
0.0156273
0.00149152
0.00809868
0.0184023
0.0012461
0.00441075
0.00124266
0.00441643
0.00771659
0.0042445
0.00165532
0.00124633
0.0161141
0.00299751
0.00124292
0.0012555
0.00125871
0.00126154
0.00982851
0.00632059
0.0180993
0.00183094
0.00124287
0.00124387
0.00123873
0.0193869
0.00399115
0.00150884
0.012535
0.00594989
0.00161436
0.00123914
0.00807216
0.00124266
0.00217149
0.00392775
0.00734772
0.00267996
0.00141477
0.00173791
0.0171764
0.00493101
0.00256671
0.0155449
0.00131684
0.00124336
0.00124541
0.0192881
0.00127517
0.0153016
0.00124534
0.0124716
0.010598
0.0027147
0.0056922
0.00581054
0.00154725
0.0134083
0.012719
0.00265973
0.0215359
0.0106305
0.0154008
0.0139735
0.0193471
0.00828936
0.0190068
0.00455747
0.00660731
0.0154959
0.0168277
0.0130183
0.0121063
0.00140773
0.0163627
0.00556348
0.0181115
0.00362535
0.00133415
0.00124657
0.00129939
0.00386851
0.0102511
0.00769701
0.00611626
0.00124903
0.0186571
0.00124615
0.00712567
0.0141386
0.0187189
0.0153718
0.0162739
0.00166351
0.00147456
0.00160151
0.0083473
0.00220157
0.00587586
0.00955345
0.0105783
0.0186534
0.0181756
0.0157886
0.00131464
0.0167198
0.0181816
0.00275473
0.00125438
0.0182743
0.0185135
0.00127883
0.01147
0.00125537
0.0104359
0.0171819
0.0112397
0.0193618
0.00517407
0.0188282
0.00127577
0.0189708
0.00139175
0.0172136
0.0180129
0.0116404
0.0168346
0.0128474
0.00830306
0.0106653
0.00147225
0.00372678
0.00127235
0.00205613
0.00129401
0.00715029
0.00138508
0.0187232
0.00124349
0.00125587
0.00176615
0.00924066
0.0051021
0.0138562
0.00147753
0.0193574
0.00777218
0.0180321
0.00609213
0.0162545
0.0103725
0.00129973
0.0168919
0.0181649
0.00125006
0.0179507
0.0146939
0.00124113
0.00124171
0.00882913
0.00184045
0.0131488
0.00158226
0.00667991
0.00365017
0.00955817
0.0156456
0.0189851
0.0158239
0.0179938
0.0172018
0.00140708
0.00130777
0.00893888
0.0113879
0.0151878
0.0111385
0.0182829
0.00453225
0.0184351
0.0184053
0.00663396
0.00288012
0.0155135
0.0147074
0.00132449
0.0184735
0.0140172
0.00144887
0.0191991
0.0168676
0.0155517
0.00342654
0.00460036
0.0132536
0.00166487
0.0153422
0.00153991
0.00317008
0.00125172
0.0115426
0.00279723
0.0085959
0.00156937
0.00136944
0.00879994
0.00869306
0.0016891
0.00285475
0.0107621
0.00274062
0.00132283
0.0163556
0.00901935
0.0130591
0.00777446
0.00348686
0.0119851
0.0176819
0.0184795
0.00611487
0.0119328
0.0161526
0.00597378
0.0145607
0.018964
0.000403045
0.00610968
0.0121538
0.00129772
0.00314609
0.00788316
0.0121252
0.00277824
0.021416
0.00411759
0.0105766