/*--------------------------------*- C++ -*----------------------------------*\
| =========                 |                                                 |
| \\      /  F ield         | OpenFOAM: The Open Source CFD Toolbox           |
|  \\    /   O peration     | Version:  2.3.1                                 |
|   \\  /    A nd           | Web:      www.OpenFOAM.org                      |
|    \\/     M anipulation  |                                                 |
\*---------------------------------------------------------------------------*/
FoamFile
{
    version     2.0;
    format      ascii;
    class       volScalarField;
    location    "0.57";
    object      p;
}
// * * * * * * * * * * * * * * * * * * * * * * * * * * * * * * * * * * * * * //

dimensions      [0 2 -2 0 0 0 0];

internalField   nonuniform List<scalar> 
9648
(
0.175908
-0.0440832
-0.314702
-0.663695
-1.09262
-1.60976
-2.22617
-2.95042
-3.7905
-4.76429
-5.88315
-7.16017
-8.60815
-10.2379
-12.0591
-14.0818
-16.3142
-18.7649
-21.4373
-24.3359
-27.4657
-30.8234
-34.4087
-38.2168
-42.243
-46.4779
-50.9106
-55.5325
-60.326
-65.2821
-70.3804
-75.6058
-80.9429
-86.3668
-91.8657
-97.4115
-102.99
-108.582
-114.162
-119.71
-125.201
-130.63
-135.955
-141.168
-146.258
-151.192
-155.959
-160.54
-164.941
-169.129
-173.068
-176.762
-180.214
-183.393
-186.301
-188.924
-191.248
-193.28
-194.996
-196.41
-197.508
0.769181
0.540378
0.259423
-0.0872624
-0.509177
-1.00909
-1.5993
-2.29397
-3.10501
-4.04175
-5.11552
-6.33832
-7.7214
-9.27529
-11.01
-12.9347
-15.0572
-17.3843
-19.9207
-22.6706
-25.6371
-28.8198
-32.217
-35.8248
-39.6375
-43.6471
-47.8443
-52.2187
-56.7572
-61.4474
-66.2729
-71.2183
-76.2679
-81.4018
-86.6032
-91.8516
-97.1298
-102.418
-107.696
-112.942
-118.139
-123.267
-128.303
-133.232
-138.035
-142.692
-147.186
-151.5
-155.621
-159.544
-163.258
-166.744
-169.992
-172.99
-175.724
-178.19
-180.368
-182.272
-183.876
-185.184
-186.18
0.600002
0.382734
0.123844
-0.193006
-0.574731
-1.03864
-1.59165
-2.24538
-3.01031
-3.89984
-4.92463
-6.09677
-7.42708
-8.9257
-10.6026
-12.4664
-14.5247
-16.7836
-19.2476
-21.921
-24.8062
-27.9036
-31.2117
-34.726
-38.4407
-42.348
-46.4391
-50.7036
-55.1295
-59.7039
-64.4114
-69.2369
-74.1641
-79.1753
-84.2523
-89.3765
-94.5302
-99.6945
-104.85
-109.976
-115.056
-120.068
-124.993
-129.814
-134.514
-139.073
-143.476
-147.707
-151.749
-155.591
-159.221
-162.629
-165.809
-168.736
-171.415
-173.826
-175.977
-177.836
-179.411
-180.701
-181.71
0.839288
0.619767
0.35648
0.0407301
-0.336176
-0.785181
-1.317
-1.94305
-2.6749
-3.52506
-4.50553
-5.62785
-6.90276
-8.34034
-9.95101
-11.7428
-13.7228
-15.8967
-18.2684
-20.8422
-23.6211
-26.605
-29.7925
-33.1787
-36.757
-40.5201
-44.4594
-48.5657
-52.8267
-57.2296
-61.7605
-66.4035
-71.1433
-75.9636
-80.8461
-85.773
-90.7277
-95.6912
-100.645
-105.572
-110.452
-115.267
-119.996
-124.624
-129.133
-133.505
-137.726
-141.78
-145.654
-149.334
-152.81
-156.071
-159.109
-161.909
-164.463
-166.762
-168.8
-170.564
-172.054
-173.264
-174.193
0.904123
0.717018
0.485257
0.199625
-0.147249
-0.564662
-1.06243
-1.65117
-2.34315
-3.14949
-4.08292
-5.1536
-6.37249
-7.74885
-9.29393
-11.0143
-12.9169
-15.0068
-17.2867
-19.7621
-22.4363
-25.3084
-28.3778
-31.637
-35.0804
-38.701
-42.4902
-46.4405
-50.539
-54.7733
-59.1302
-63.5929
-68.1479
-72.7806
-77.4725
-82.2061
-86.9671
-91.7352
-96.4942
-101.228
-105.916
-110.54
-115.081
-119.525
-123.853
-128.048
-132.098
-135.986
-139.7
-143.227
-146.558
-149.683
-152.593
-155.279
-157.727
-159.929
-161.874
-163.56
-164.986
-166.143
-167.029
0.999045
0.82788
0.61619
0.353867
0.0341474
-0.353368
-0.817982
-1.37023
-2.0231
-2.78634
-3.67396
-4.69418
-5.85897
-7.1747
-8.65578
-10.3061
-12.1315
-14.1379
-16.3254
-18.7015
-21.2712
-24.0302
-26.9807
-30.111
-33.4164
-36.8911
-40.5257
-44.3168
-48.2483
-52.3078
-56.4849
-60.7591
-65.1209
-69.5589
-74.0527
-78.5846
-83.1437
-87.7069
-92.2605
-96.7909
-101.277
-105.702
-110.044
-114.292
-118.428
-122.436
-126.304
-130.013
-133.555
-136.918
-140.094
-143.07
-145.843
-148.404
-150.737
-152.831
-154.676
-156.271
-157.62
-158.713
-159.546
1.09401
0.939902
0.747621
0.506991
0.212902
-0.146428
-0.579641
-1.09624
-1.71138
-2.43225
-3.27585
-4.24739
-5.36013
-6.61532
-8.03389
-9.61405
-11.3619
-13.2853
-15.3795
-17.6547
-20.1199
-22.7625
-25.5941
-28.5933
-31.7576
-35.085
-38.5598
-42.1886
-45.9491
-49.8257
-53.8192
-57.9012
-62.0607
-66.3006
-70.594
-74.9158
-79.2673
-83.618
-87.9556
-92.2771
-96.5563
-100.777
-104.91
-108.955
-112.894
-116.706
-120.385
-123.908
-127.271
-130.462
-133.477
-136.297
-138.924
-141.356
-143.573
-145.556
-147.294
-148.789
-150.055
-151.086
-151.863
1.18306
1.04721
0.876723
0.656777
0.38898
0.0565287
-0.347641
-0.826404
-1.40668
-2.08306
-2.88696
-3.8094
-4.87899
-6.06565
-7.42434
-8.93659
-10.602
-12.4496
-14.4507
-16.6147
-18.9843
-21.4979
-24.2162
-27.0866
-30.1012
-33.2901
-36.5888
-40.0543
-43.6431
-47.3198
-51.1415
-55.0307
-58.9686
-63.0119
-67.1216
-71.2061
-75.3488
-79.481
-83.5818
-87.6994
-91.7618
-95.7875
-99.6904
-103.522
-107.274
-110.875
-114.374
-117.69
-120.877
-123.875
-126.737
-129.379
-131.844
-134.153
-136.265
-138.12
-139.752
-141.122
-142.308
-143.29
-144.001
1.27288
1.14571
1.01291
0.797862
0.567572
0.250883
-0.130662
-0.543991
-1.12125
-1.71839
-2.51897
-3.36107
-4.44192
-5.4935
-6.83352
-8.29517
-9.83633
-11.6534
-13.5407
-15.5612
-17.9148
-20.2138
-22.8826
-25.5999
-28.444
-31.571
-34.6127
-37.9459
-41.3993
-44.7992
-48.5214
-52.1979
-55.8787
-59.7768
-63.7466
-67.4165
-71.4513
-75.3611
-79.1698
-83.1426
-86.9165
-90.8217
-94.4137
-98.1032
-101.721
-104.998
-108.42
-111.424
-114.498
-117.193
-119.967
-122.331
-124.656
-126.92
-128.91
-130.574
-132.196
-133.344
-134.522
-135.458
-136.036
-198.268
-198.705
-198.824
-198.614
-198.098
-197.263
-196.113
-194.648
-192.859
-190.772
-188.365
-185.652
-182.669
-179.42
-175.896
-172.111
-168.072
-163.806
-159.306
-154.584
-149.675
-144.565
-139.278
-133.826
-128.236
-122.516
-116.649
-110.674
-104.595
-98.4462
-92.2274
-85.9593
-79.6634
-73.3399
-67.0171
-60.697
-54.4029
-48.1468
-41.937
-35.7901
-29.7179
-23.7437
-17.8646
-12.1012
-6.4675
-0.965786
4.38809
9.5859
14.6126
19.4613
24.1273
28.5997
32.8674
36.9292
40.7745
44.3983
47.7955
50.9607
53.8934
56.5892
59.0478
-186.866
-187.222
-187.306
-187.085
-186.565
-185.753
-184.641
-183.233
-181.517
-179.505
-177.195
-174.598
-171.752
-168.659
-165.308
-161.704
-157.859
-153.787
-149.494
-144.992
-140.301
-135.424
-130.376
-125.168
-119.814
-114.326
-108.735
-103.043
-97.2578
-91.3966
-85.472
-79.4993
-73.4937
-67.467
-61.4356
-55.4087
-49.4024
-43.4305
-37.5045
-31.6369
-25.8412
-20.1331
-14.5199
-9.01513
-3.63105
1.62535
6.74278
11.7106
16.5173
21.1553
25.6182
29.8967
33.9816
37.8699
41.5521
45.0238
48.2779
51.3122
54.1236
56.7092
59.0677
-182.422
-182.86
-182.957
-182.748
-182.251
-181.477
-180.381
-178.989
-177.275
-175.266
-172.992
-170.45
-167.63
-164.541
-161.203
-157.628
-153.823
-149.801
-145.57
-141.142
-136.53
-131.742
-126.791
-121.688
-116.443
-111.066
-105.579
-99.9926
-94.3197
-88.5738
-82.7684
-76.9187
-71.0382
-65.1405
-59.2388
-53.3447
-47.4712
-41.6314
-35.8379
-30.1034
-24.4409
-18.8636
-13.3812
-8.00588
-2.74784
2.38434
7.37993
12.2286
16.9202
21.4475
25.8019
29.9765
33.9633
37.7579
41.3521
44.7408
47.9187
50.882
53.6279
56.1534
58.4585
-174.837
-175.203
-175.272
-175.048
-174.525
-173.686
-172.567
-171.221
-169.618
-167.745
-165.588
-163.169
-160.484
-157.543
-154.357
-150.935
-147.286
-143.421
-139.351
-135.091
-130.651
-126.041
-121.273
-116.355
-111.301
-106.122
-100.832
-95.4451
-89.9744
-84.4321
-78.8308
-73.1859
-67.5109
-61.8199
-56.1237
-50.4344
-44.7639
-39.1241
-33.5285
-27.9892
-22.5188
-17.1299
-11.8329
-6.63876
-1.55714
3.40417
8.23379
12.9224
17.459
21.8384
26.051
30.0898
33.9491
37.6227
41.1053
44.389
47.4709
50.3448
53.0095
55.4611
57.7006
-167.64
-167.979
-168.038
-167.821
-167.322
-166.543
-165.514
-164.153
-162.547
-160.695
-158.586
-156.225
-153.616
-150.768
-147.687
-144.378
-140.851
-137.115
-133.182
-129.067
-124.78
-120.332
-115.732
-110.986
-106.109
-101.112
-96.0086
-90.8131
-85.5367
-80.1916
-74.7881
-69.3435
-63.8704
-58.3844
-52.8931
-47.4085
-41.941
-36.502
-31.1058
-25.7635
-20.4872
-15.2901
-10.1817
-5.17282
-0.27271
4.51398
9.1718
13.6958
18.0716
22.2972
26.3622
30.2592
33.9844
37.5303
40.8949
44.0678
47.0484
49.8264
52.4047
54.7766
56.9454
-160.115
-160.419
-160.454
-160.222
-159.721
-158.958
-157.93
-156.639
-155.09
-153.294
-151.254
-148.971
-146.449
-143.701
-140.732
-137.543
-134.143
-130.54
-126.747
-122.783
-118.655
-114.376
-109.951
-105.385
-100.692
-95.8818
-90.9692
-85.9718
-80.8966
-75.7556
-70.5547
-65.3169
-60.0509
-54.7784
-49.4994
-44.2272
-38.97
-33.7383
-28.5485
-23.4097
-18.3337
-13.3353
-8.42143
-3.60465
1.10667
5.71449
10.1958
14.5514
18.7595
22.8268
26.7386
30.4877
34.0744
37.4861
40.7301
43.7869
46.6632
49.3408
51.8307
54.1178
56.2136
-152.387
-152.653
-152.664
-152.416
-151.916
-151.168
-150.162
-148.9
-147.397
-145.662
-143.694
-141.492
-139.059
-136.415
-133.563
-130.499
-127.229
-123.757
-120.106
-116.296
-112.333
-108.23
-103.989
-99.6058
-95.1017
-90.4816
-85.7651
-80.9718
-76.1041
-71.1717
-66.176
-61.1477
-56.0929
-51.0422
-45.982
-40.931
-35.8925
-30.8737
-25.896
-20.9685
-16.0986
-11.3037
-6.58981
-1.97136
2.54506
6.97037
11.2714
15.4567
19.4921
23.3953
27.1484
30.745
34.1875
37.4596
40.5807
43.5184
46.2905
48.8639
51.2616
53.4588
55.4797
-144.48
-144.697
-144.686
-144.411
-143.917
-143.184
-142.206
-140.953
-139.482
-137.825
-135.937
-133.81
-131.466
-128.929
-126.208
-123.27
-120.133
-116.786
-113.285
-109.636
-105.837
-101.918
-97.8764
-93.6745
-89.3628
-84.9366
-80.4235
-75.8393
-71.1743
-66.4555
-61.6589
-56.8458
-51.9993
-47.1844
-42.3468
-37.537
-32.7377
-27.923
-23.1586
-18.4616
-13.7925
-9.20107
-4.70053
-0.278098
4.02888
8.2772
12.3899
16.4113
20.2594
23.9963
27.5815
31.0128
34.3163
37.4395
40.447
43.2596
45.9346
48.3888
50.6949
52.7906
54.7407
-136.471
-136.611
-136.587
-136.283
-135.799
-135.049
-134.116
-132.8
-131.406
-129.935
-128.054
-126.006
-123.715
-121.27
-118.779
-115.897
-112.887
-109.733
-106.356
-102.882
-99.167
-95.4126
-91.6705
-87.5536
-83.4466
-79.2914
-74.9185
-70.5792
-66.0105
-61.6226
-56.9012
-52.4271
-47.6763
-43.1978
-38.544
-34.0047
-29.5055
-24.777
-20.2331
-15.8146
-11.2638
-6.92613
-2.67689
1.62999
5.58107
9.79466
13.5813
17.5576
21.08
24.726
28.1605
31.3289
34.6114
37.4697
40.5018
43.0612
45.7472
47.9321
50.2742
52.1679
54.1565
61.2705
63.2559
65.0044
66.517
67.7928
68.836
69.6508
70.2419
70.6139
70.7728
70.7406
70.5604
70.2255
69.6952
68.9949
68.1315
67.0684
65.8151
64.3935
62.8197
61.1056
59.2614
57.2997
55.2313
53.0685
50.8243
48.5119
46.1455
43.7376
41.3037
38.8571
36.4129
33.9864
31.5911
29.2439
26.9578
24.7476
22.6278
20.6212
18.7426
17.0176
15.4507
14.0553
12.8512
11.8528
11.0696
10.5108
10.1781
10.066
10.1563
10.4155
10.7905
11.2039
11.5547
11.7223
11.0368
9.53941
8.02605
6.7873
5.86204
5.04857
61.1996
63.1055
64.7854
66.2397
67.4685
68.474
69.2595
69.829
70.1868
70.335
70.2877
70.1035
69.7835
69.2767
68.5957
67.7464
66.7092
65.491
64.1097
62.5798
60.9129
59.1194
57.2114
55.2011
53.1003
50.9212
48.676
46.3777
44.0389
41.6735
39.2947
36.9166
34.5536
32.2193
29.9288
27.6963
25.5361
23.4599
21.4739
19.6057
17.8633
16.2814
14.8695
13.6405
12.6063
11.7771
11.1613
10.7612
10.5714
10.576
10.7445
11.0279
11.3519
11.6186
11.6548
11.0079
9.69033
8.3478
7.29035
6.49198
5.67112
60.5421
62.4061
64.0498
65.4748
66.6805
67.6697
68.4456
69.0123
69.3721
69.5222
69.485
69.325
69.0283
68.5437
67.888
67.0693
66.0747
64.9093
63.5863
62.1185
60.517
58.7923
56.9562
55.02
52.9947
50.8925
48.725
46.5047
44.2438
41.9556
39.6532
37.35
35.0596
32.7956
30.5718
28.402
26.2994
24.2761
22.3441
20.5251
18.8367
17.292
15.9032
14.6813
13.6376
12.7816
12.1201
11.6542
11.3784
11.2777
11.323
11.469
11.6422
11.7427
11.5975
10.941
9.78701
8.56533
7.54378
6.70753
5.87597
59.7258
61.5392
63.1396
64.5297
65.7076
66.6772
67.4394
67.9997
68.3566
68.5055
68.4838
68.3531
68.081
67.625
66.9992
66.2134
65.2616
64.1499
62.8868
61.4841
59.9519
58.2996
56.54
54.6833
52.7396
50.7218
48.6405
46.5081
44.3358
42.1371
39.9239
37.7096
35.5069
33.329
31.1888
29.0999
27.0746
25.1253
23.2652
21.5101
19.875
18.3722
17.0123
15.8034
14.7558
13.8775
13.1724
12.6397
12.2722
12.0552
11.9603
11.9449
11.9423
11.8609
11.5666
10.9091
9.90416
8.80206
7.80694
6.94224
6.12016
58.906
60.6651
62.2179
63.57
64.7159
65.6629
66.4074
66.9579
67.3079
67.4566
67.4522
67.3509
67.1013
66.6751
66.0802
65.3294
64.4193
63.3606
62.1563
60.8186
59.3565
57.777
56.0954
54.3202
52.4599
50.5293
48.5366
46.495
44.4137
42.3071
40.1855
38.0627
35.9494
33.8596
31.8043
29.7976
27.8504
25.9753
24.1835
22.489
20.9041
19.4411
18.1095
16.9164
15.8679
14.9696
14.2238
13.6275
13.1719
12.8415
12.6098
12.4374
12.2681
12.0286
11.628
10.9815
10.0978
9.11252
8.16189
7.28906
6.46243
58.105
59.8082
61.31
62.6239
63.7349
64.6588
65.3837
65.9242
66.2666
66.4201
66.4322
66.3582
66.1292
65.733
65.1686
64.4548
63.5858
62.5801
61.4336
60.1609
58.7697
57.2622
55.6595
53.9673
52.1904
50.349
48.4456
46.4967
44.5069
42.4939
40.4645
38.4341
36.4104
34.409
32.4384
30.5137
28.6441
26.8421
25.116
23.4797
21.9427
20.5174
19.2111
18.03
16.978
16.0569
15.2689
14.6092
14.068
13.6308
13.2729
12.9601
12.647
12.2796
11.7981
11.1548
10.3527
9.46241
8.56645
7.70676
6.87917
57.2984
58.9444
60.3924
61.6677
62.7424
63.6446
64.3501
64.8807
65.2164
65.3788
65.4069
65.358
65.1495
64.7827
64.2486
63.5729
62.7453
61.7935
60.7033
59.4965
58.1781
56.743
55.2206
53.6117
51.9183
50.1682
48.3558
46.5011
44.6035
42.686
40.75
38.8131
36.879
34.9662
33.0795
31.237
29.4447
27.715
26.0524
24.4722
22.9804
21.5907
20.3079
19.1365
18.0784
17.1344
16.3055
15.5849
14.9627
14.4279
13.9572
13.5232
13.0898
12.6189
12.0714
11.4199
10.6637
9.83929
8.99435
8.15936
7.34195
56.4748
58.0691
59.4552
60.6974
61.7282
62.614
63.2965
63.821
64.1484
64.3281
64.3661
64.344
64.1526
63.8176
63.3109
62.6761
61.8855
60.9965
59.9538
58.816
57.5757
56.2069
54.7748
53.2493
51.6313
49.9803
48.2567
46.5023
44.6924
42.8757
41.031
39.1921
37.3447
35.523
33.715
31.9565
30.2401
28.585
26.9815
25.4572
24.0041
22.6496
21.3876
20.2278
19.1627
18.1946
17.3307
16.5551
15.8581
15.2388
14.6695
14.1344
13.6006
13.0463
12.4418
11.7747
11.0387
10.2559
9.44716
8.63732
7.83675
55.6732
57.3275
58.5502
59.868
60.7428
61.6922
62.2436
62.8581
63.0952
63.3923
63.3385
63.423
63.1681
62.955
62.3978
61.8778
61.0212
60.2994
59.2535
58.1926
57.0659
55.6562
54.3858
52.976
51.3453
49.8688
48.1634
46.578
44.783
43.1278
41.3111
39.623
37.8146
36.1333
34.3489
32.7134
31.0294
29.4867
27.9034
26.4701
25.0138
23.7216
22.4588
21.3213
20.2519
19.2432
18.3611
17.5343
16.7617
16.0875
15.4218
14.8162
14.1877
13.5748
12.9106
12.2332
11.4936
10.7462
9.95259
9.15476
8.37447
4.25064
3.52691
2.84865
2.16284
1.47572
0.827918
0.232372
-0.301683
-0.753037
-1.11395
-1.38077
-1.55928
-1.6518
-1.65307
-1.59234
-1.4928
-1.36842
-1.23916
-1.11942
-1.0175
-0.937264
-0.875252
-0.827213
-0.782697
-0.751797
-0.708983
-0.663674
-0.609974
-0.543879
-0.465404
-0.372011
-0.263166
-0.1392
0.000302413
0.151913
0.314806
0.485121
0.658411
0.830879
0.996948
1.15155
1.29053
1.41191
1.51098
1.58454
1.6327
1.65446
1.65109
1.62344
1.57464
1.50868
1.42891
1.33827
1.24247
1.14293
1.04256
0.940163
0.833539
0.721217
0.599866
0.440133
4.83542
4.14916
3.53104
2.89195
2.23452
1.61787
1.05165
0.538735
0.105219
-0.237545
-0.485016
-0.634441
-0.686221
-0.655467
-0.57541
-0.467021
-0.341882
-0.216511
-0.103237
-0.00943168
0.0628066
0.115848
0.150978
0.186553
0.203561
0.234555
0.265018
0.304402
0.354484
0.416997
0.493514
0.58511
0.692231
0.814416
0.949884
1.09604
1.24931
1.4064
1.56321
1.71581
1.85973
1.9895
2.10155
2.19269
2.26012
2.30264
2.31984
2.31195
2.28013
2.22676
2.15486
2.06779
1.96841
1.86263
1.75145
1.63923
1.52449
1.40854
1.28643
1.15084
0.983411
5.07616
4.39488
3.76473
3.07729
2.36835
1.73344
1.14625
0.597097
0.125994
-0.255633
-0.547045
-0.747343
-0.859207
-0.898813
-0.866417
-0.784792
-0.65853
-0.518135
-0.392258
-0.289352
-0.210564
-0.153272
-0.105755
-0.0770445
-0.0378453
-0.00805177
0.0306702
0.0767389
0.133513
0.202217
0.284279
0.380724
0.491775
0.616628
0.753629
0.900355
1.05368
1.20982
1.36467
1.5138
1.65282
1.77759
1.88436
1.96976
2.03126
2.06763
2.07853
2.06494
2.02855
1.97224
1.89939
1.81424
1.72071
1.62248
1.52258
1.42352
1.32361
1.21939
1.10505
0.970442
0.801141
5.34404
4.65158
3.99082
3.28504
2.57739
1.9433
1.3394
0.766054
0.290558
-0.0843029
-0.374396
-0.569595
-0.665738
-0.677633
-0.611172
-0.48277
-0.338045
-0.219923
-0.104033
-0.00104649
0.0810486
0.142162
0.18688
0.216217
0.246021
0.268259
0.294482
0.326867
0.368111
0.420185
0.484858
0.563819
0.65759
0.765485
0.886009
1.01694
1.15526
1.29767
1.44028
1.57904
1.70965
1.82828
1.93126
2.01566
2.07899
2.12016
2.13867
2.13535
2.1115
2.06976
2.01239
1.94288
1.86382
1.77804
1.68601
1.58943
1.49058
1.38993
1.28203
1.15812
1.01601
5.68218
4.96031
4.26601
3.55057
2.84115
2.18144
1.55042
0.970614
0.494245
0.105466
-0.210789
-0.421917
-0.527595
-0.556666
-0.515881
-0.423962
-0.312289
-0.181067
-0.0637869
0.0364364
0.113232
0.170944
0.21405
0.24662
0.276033
0.302085
0.330106
0.363886
0.405218
0.455245
0.516433
0.590382
0.677739
0.777759
0.889436
1.01047
1.13843
1.27014
1.40217
1.53083
1.6521
1.76264
1.85872
1.93799
1.99763
2.03684
2.05449
2.05159
2.02855
1.98795
1.93169
1.86331
1.78604
1.70244
1.61472
1.53462
1.45502
1.37122
1.28043
1.17937
1.05582
6.08526
5.32984
4.60188
3.87494
3.15926
2.47829
1.83111
1.23853
0.734174
0.314112
-0.0169828
-0.23288
-0.357276
-0.409496
-0.377579
-0.283556
-0.16491
-0.0418567
0.0707629
0.158834
0.22338
0.271874
0.307424
0.336022
0.358743
0.380008
0.401555
0.428987
0.46263
0.503662
0.554946
0.618575
0.694908
0.783299
0.882723
0.991342
1.10641
1.22542
1.34494
1.46203
1.57256
1.67408
1.76257
1.83667
1.89304
1.93174
1.95097
1.95272
1.93653
1.90554
1.86117
1.80726
1.74715
1.6853
1.62654
1.55708
1.48883
1.41879
1.34092
1.24969
1.13725
6.54467
5.77071
5.01713
4.27646
3.55198
2.85998
2.20528
1.60495
1.07642
0.629299
0.275097
0.0279763
-0.129748
-0.194881
-0.165007
-0.0826322
0.025546
0.137583
0.238946
0.315644
0.361557
0.395608
0.418057
0.438638
0.451659
0.465353
0.477928
0.497332
0.522483
0.552247
0.593029
0.645208
0.710246
0.786508
0.873759
0.969365
1.0717
1.17777
1.28486
1.39051
1.49046
1.58316
1.66409
1.73323
1.78604
1.82422
1.84474
1.85089
1.84099
1.8192
1.78558
1.74455
1.69785
1.64779
1.5963
1.54768
1.49763
1.44517
1.38466
1.31058
1.21495
7.04661
6.27073
5.50833
4.76497
4.03598
3.34575
2.69343
2.10078
1.5664
1.10766
0.735398
0.461305
0.260378
0.167723
0.16299
0.210618
0.305959
0.387223
0.458613
0.516725
0.533765
0.544374
0.544578
0.555981
0.554768
0.560602
0.558938
0.570523
0.586964
0.601957
0.630501
0.671857
0.727783
0.792423
0.868083
0.952175
1.04225
1.13666
1.23271
1.32913
1.41935
1.50492
1.5784
1.64397
1.69249
1.73041
1.75082
1.76097
1.75504
1.74058
1.71377
1.68219
1.64693
1.60794
1.56925
1.53231
1.49629
1.46122
1.41745
1.36241
1.2845
7.58306
6.82611
6.05983
5.32029
4.59331
3.92337
3.28696
2.73855
2.21341
1.77258
1.41693
1.16021
0.885218
0.761441
0.726024
0.705234
0.762823
0.693141
0.701472
0.78352
0.735863
0.722684
0.675215
0.70729
0.66698
0.678962
0.637023
0.646883
0.66695
0.656368
0.65946
0.699419
0.752853
0.802134
0.868572
0.942426
1.0196
1.10653
1.1931
1.28975
1.3642
1.45431
1.5099
1.5845
1.61726
1.66467
1.66991
1.69827
1.68236
1.68242
1.65
1.62066
1.59754
1.56837
1.54229
1.51457
1.48929
1.47215
1.44133
1.41214
1.34518
4.90745
-4.20046
-5.5299
14.8623
5.7805
19.3943
18.005
10.9118
11.5426
29.0934
1.64058
23.7077
18.1145
2.79624
21.6912
-102.368
20.5579
12.2366
1.44527
17.4465
15.0933
3.1463
1.01288
20.1353
11.4484
17.1066
17.5096
9.52568
20.3076
6.8624
10.4748
16.6687
28.4289
1.68146
22.9967
0.852024
0.76204
57.3157
18.6564
17.5472
7.67778
-2.83956
18.0328
-88.3064
0.681124
31.6208
11.6183
3.04839
16.1754
25.3413
-3.18862
-45.471
17.0786
9.54327
13.978
16.2148
6.96885
7.5129
0.942682
-30.9903
3.88043
15.5076
17.1103
-8.15582
-25.507
14.8865
0.819271
8.83227
18.8719
18.0929
15.385
59.5221
6.53134
13.4417
13.3656
6.26774
-12.2988
44.363
17.1311
28.0867
-0.757386
16.5222
16.7155
-36.7711
17.9839
50.2433
12.0127
1.79269
15.3603
1.60199
-13.8518
17.1155
5.14286
-31.445
-36.9226
5.64382
44.202
10.0013
25.4729
-101.563
14.513
16.1742
25.0204
16.9978
18.1147
16.9679
15.1159
39.6769
19.7632
-77.958
-109.189
15.9568
0.793653
1.54299
6.02116
2.12169
1.11475
19.5276
-7.70303
11.3329
12.9209
0.44889
11.3221
-117.918
-26.1797
10.6801
15.3145
-47.2323
-35.0255
17.8382
21.2568
-7.98755
5.51303
11.0049
2.55131
10.7823
18.0198
-52.8227
-30.4437
11.6739
9.61054
-52.862
14.8405
49.0346
1.60923
12.5122
16.6191
1.60722
31.775
-0.526899
16.2671
16.2377
59.0746
-33.6951
-59.1797
8.88697
8.28852
-27.9276
16.575
0.723553
16.6607
26.3924
17.4135
12.5228
14.9237
13.0218
7.06023
9.65228
17.1214
0.426424
-1.40678
1.52025
5.89835
17.4066
1.55441
1.56973
1.25777
8.86796
22.4167
2.0853
1.92615
-1.2873
-30.9697
9.73183
6.46947
1.03912
-10.4878
52.1185
9.83579
11.9176
25.4314
20.2355
-16.5253
-39.2343
16.5797
-31.7379
4.28825
0.415221
21.315
0.766487
9.86013
14.9924
13.4136
-58.8359
-1.50122
20.8466
8.49304
16.105
-45.5357
0.86779
41.2156
-5.66295
16.383
-117.464
11.0363
-77.8023
-65.3433
1.71923
33.2869
1.85061
11.4045
40.1296
12.0041
16.6993
1.11886
-7.70927
-9.26292
11.7574
16.9973
59.6987
1.48465
21.4199
-5.10943
-37.7731
13.667
19.2816
3.16688
-57.3778
-46.7556
19.3023
13.384
8.81402
10.9263
15.9372
-123.678
16.6397
8.31567
-98.7382
23.9222
17.2656
8.84253
23.7424
1.43474
8.45881
11.3745
18.6569
25.3167
15.2922
6.59724
2.01431
15.6518
9.42327
-64.3948
18.5594
0.696845
12.8233
17.5314
1.35181
17.5559
1.02265
24.0083
1.44936
22.803
11.4075
52.8201
10.0077
14.2991
10.7756
15.9823
20.7118
50.2952
9.69108
-72.0964
15.3289
14.8907
18.6273
17.0258
-61.9085
7.99224
7.92326
-26.0736
40.5059
14.4649
16.9588
35.0941
17.4022
9.55882
4.89515
-0.411947
16.3498
10.981
5.49501
48.4869
-3.75914
5.17242
-78.6846
21.8183
18.6376
19.3912
-100.746
9.77769
11.9603
11.4944
-12.4503
16.4802
14.222
1.05313
1.41044
7.04333
1.97345
16.4742
3.5543
15.3634
15.0352
-26.3539
1.96521
15.5594
1.01563
-90.6278
6.4038
-27.227
-44.1547
-101.288
2.19027
1.63918
16.8537
0.803529
1.12183
-124.274
35.0772
15.036
14.7908
12.0053
11.5538
49.7455
11.2993
-9.37969
18.7768
-70.7054
14.9678
1.54612
-45.4302
-113.938
10.6733
-61.9739
8.69578
2.74253
14.5013
1.81214
2.43357
10.198
0.71306
1.05302
-6.79018
0.991836
16.0976
6.79242
-113.975
-33.7924
3.8323
16.5942
-25.917
-49.5899
12.665
1.73955
15.7303
-5.30647
7.10647
1.64839
-73.9977
1.14076
-79.8128
20.261
-89.2987
11.2553
4.84673
20.8421
1.32134
-117.462
-27.7406
47.416
50.1755
3.27285
0.816269
17.214
30.2592
16.7412
0.0256022
12.0581
-10.3308
17.3123
18.809
21.9662
21.4074
-7.64209
-46.7346
12.0804
-83.1456
0.272492
-10.9899
2.04753
-61.9741
-1.5796
18.7777
-124.28
9.57612
9.40936
23.1809
-52.9185
17.0537
18.2091
1.52217
17.7474
9.98096
14.3874
1.37251
35.9133
-26.0942
-51.6211
9.47161
-61.126
9.09356
-54.3659
16.8346
15.7032
0.99785
3.99179
-93.3047
-1.35501
1.62563
-10.8186
-62.0625
-59.6548
18.2978
5.68154
-41.4576
-50.0777
17.0687
2.45835
-31.5551
22.8412
13.0315
36.3948
-39.8792
-0.304372
-9.62926
0.673799
9.11964
-89.9396
2.32759
10.4784
19.8678
47.0193
3.6755
44.0692
2.0818
17.4321
1.81167
1.6322
13.7585
12.4363
0.493999
1.30568
16.8016
2.33739
1.6102
2.64764
1.60807
2.06571
1.47794
8.05416
4.72746
15.8199
15.6838
-110.974
9.99447
-67.587
-107.083
16.2052
0.82669
2.33726
19.1166
3.93839
1.5318
16.3334
17.0226
15.1879
5.27116
-37.5428
10.4588
26.5576
13.6445
13.9822
15.5894
5.43062
0.795429
13.5044
19.2294
9.59539
1.56479
13.9124
13.5851
-12.692
12.6848
0.0315647
-3.3698
-4.24921
17.1854
19.9993
9.45436
22.4509
3.40753
2.80193
48.719
-21.6191
-4.90718
21.9413
8.22128
1.30985
1.56003
-80.3937
-26.8445
20.9592
3.19961
10.379
0.836394
-21.0734
18.6833
12.0125
-27.3488
-82.3905
12.7197
-17.3405
-54.2112
4.64752
-105.486
9.3407
9.48239
9.1414
-31.7455
13.8339
-80.9371
-1.90775
13.089
1.02222
17.2749
-0.296191
14.9732
12.837
31.7599
2.87632
0.972997
14.86
7.10006
0.767479
-46.4303
-30.1275
8.08421
-33.6716
4.79163
28.6753
1.75266
9.4411
-95.7932
9.94794
8.55583
14.4504
1.54242
52.1563
1.66837
8.11328
8.57201
1.46998
1.1809
13.6376
15.6674
15.9701
9.55886
10.2592
29.2616
-76.4225
8.23141
17.8389
-31.6866
0.869197
-87.0873
13.686
0.779361
17.7082
-55.3877
4.3125
-21.0535
0.94383
0.875072
2.83596
-106.196
20.5557
17.3359
6.60264
16.1066
-26.7842
-22.4807
-6.40169
10.0651
9.10873
5.0343
16.2986
-0.24087
0.751609
16.2226
23.2468
1.58808
-58.3056
20.9311
1.69734
20.5252
-8.27724
17.2496
36.3631
6.71451
29.5345
18.5062
-30.2043
-21.0271
-4.35966
19.0732
10.6414
-32.4448
16.1113
12.5406
4.53696
5.61829
0.796212
-30.4245
40.4548
4.24105
2.05494
1.05192
-89.4738
9.58645
23.3696
15.7251
1.13689
5.46024
-22.7199
14.4997
12.4453
6.17015
1.52907
-6.88821
15.2543
2.12951
10.9841
-21.0191
1.55305
38.9965
0.952731
0.151202
8.36744
57.2549
17.0508
16.7189
1.46081
10.2507
6.94443
8.89066
10.0844
-115.963
2.47693
-34.9
30.5595
17.5215
8.51498
19.3411
-6.20417
-10.9008
1.52626
3.97817
1.5394
12.91
-2.60321
18.5795
-88.7317
16.7662
6.74756
2.08332
-3.45651
2.87427
-6.6607
10.6529
3.32978
1.06491
19.249
-120.965
15.4218
17.1008
10.8475
-4.0071
18.9093
3.87206
-21.3701
15.5938
-13.4896
-97.5268
17.4909
8.93916
14.6073
-63.3689
-6.48742
15.7958
42.7705
12.6076
9.0992
11.629
-111.176
-126.263
16.5196
-1.1461
-11.9371
1.60866
17.8042
6.92719
-11.4412
13.7954
15.3603
0.269472
18.5386
19.5993
8.57231
14.8909
-3.01175
13.3923
-5.52566
23.1382
1.80181
-4.39968
42.6543
1.21915
6.83259
21.9185
4.16981
-44.9362
24.4757
-83.9314
20.8938
1.40826
-19.5419
10.1686
-9.30524
0.817397
12.9418
13.1785
-93.77
-40.1891
13.5385
-64.8692
-8.56829
53.6506
-15.713
-19.8787
21.3683
0.773854
5.9573
11.974
-55.3601
-22.5696
-4.69472
-3.95971
-6.55072
0.977581
22.6282
19.0807
13.4122
-121.841
-44.2593
27.5133
2.33422
-112.322
11.2668
14.4741
10.2908
1.20875
4.79815
1.27826
-14.4999
21.4057
-121.43
-17.196
-85.9218
-98.5013
18.8429
25.3646
-43.7573
26.1695
14.5829
12.2825
11.0442
10.3641
26.0715
17.9324
2.36022
-51.6659
-30.1837
24.5612
2.24046
3.54291
13.8391
1.47263
12.9239
-53.5539
1.46156
49.2226
5.22877
22.287
11.5846
18.5993
15.7355
-76.9964
13.1959
44.7551
0.987903
0.908779
32.2642
61.1107
12.6312
13.2932
25.0736
-50.6184
-15.2302
17.2842
10.0914
-91.6038
27.4666
17.4103
-63.1346
15.7574
3.61943
1.47603
6.18964
-16.2905
53.7451
0.769196
-8.44174
-0.00866136
17.8159
0.607427
9.59075
14.9257
17.3006
12.2826
0.991013
17.3221
0.696104
30.2322
0.112142
11.3151
10.2951
16.6616
8.45926
-49.7313
9.79339
18.1449
-29.1753
-70.7826
33.9988
1.66664
7.53458
16.7396
34.3082
-84.7079
9.53853
-2.79256
11.095
16.3331
-88.473
17.2171
9.78599
49.981
29.8404
-19.5102
4.3155
15.8575
17.1569
-66.5597
-4.15251
10.174
14.9212
1.33298
17.5267
-127.987
7.27533
0.933433
10.5816
18.7688
0.340872
14.7608
23.009
24.8637
4.54188
-0.287638
17.7818
20.6913
17.4694
20.3471
10.8228
18.1854
-70.652
2.54838
18.1108
-25.6181
14.1193
7.22991
19.6545
11.6612
-62.3163
10.8465
5.11724
18.8894
-20.6827
16.7283
-24.6881
-104.355
1.79117
1.39615
-47.7479
16.178
18.4243
-21.5089
-104.659
1.21452
-14.2795
15.9069
-82.7324
13.4078
16.6141
18.2615
-17.9566
7.02984
9.54425
-28.5382
17.3813
8.57102
-85.1173
10.4387
-119.517
47.0999
11.6872
18.2494
6.41783
16.8143
-9.16691
-6.20255
20.1257
-18.1219
5.78976
12.905
-38.166
4.62761
17.5786
-49.2939
14.917
1.87694
-67.5992
-13.5246
17.2214
19.3383
14.7876
62.1532
8.78207
-2.45961
-23.8385
15.6438
-11.6984
15.4366
5.37115
15.5408
0.838275
9.92681
0.700058
-14.0325
58.8804
7.37818
59.2463
6.69619
12.8586
4.03171
20.0377
-9.41838
17.8339
11.1522
1.62331
59.7654
16.8422
9.17569
-8.51794
0.665721
-109.097
15.8843
-5.65423
10.6065
-21.6528
-61.8216
1.0692
-73.6243
9.57646
2.85581
-25.2517
18.3603
15.77
14.0913
12.3883
21.4242
16.2228
12.7169
17.6608
1.27866
-68.0546
17.6357
20.2703
17.7078
7.99014
-73.2301
1.29873
-24.1047
15.7188
-43.4102
0.924897
25.0273
-67.4373
17.0459
0.788874
40.1558
1.52527
22.7814
4.09119
1.83881
16.0141
10.505
-107.557
13.7733
-0.837342
-39.3012
1.56837
15.85
11.0248
30.9365
2.78863
1.53214
-79.2238
15.9233
16.4727
17.0183
-20.0956
-36.0746
14.0261
12.7114
15.1337
1.32077
1.73418
49.3155
0.644125
-65.8766
2.20998
-59.1864
0.82909
0.810055
32.3108
50.9247
13.0648
60.0479
45.4103
18.3657
17.619
6.31452
14.5274
18.5793
2.33774
2.02587
19.701
1.76725
10.3026
19.1955
9.06114
18.5356
28.802
1.65225
-5.48118
-120.939
17.8752
12.1554
-50.7212
7.7132
22.4492
14.0592
11.013
2.33054
17.3761
-2.22322
1.8894
30.3992
12.835
1.08462
16.7866
17.4589
15.6552
5.78561
15.5322
17.0305
-3.56745
18.5355
20.6402
-76.3893
-28.377
-18.5062
14.7402
1.68414
-50.7221
17.1002
1.64971
1.21693
-126.257
0.729043
16.7457
8.68692
31.4196
-1.13592
1.30173
9.25295
46.4048
1.72587
16.1462
1.15112
16.6231
53.907
14.2263
-20.7477
16.8264
1.01585
-69.6847
15.7115
42.3638
4.14075
13.0975
18.7724
29.4844
10.9933
19.7472
2.05297
16.1898
10.6499
-123.414
4.36175
18.6677
19.994
-65.2051
-82.3564
16.7821
18.1686
12.585
11.3499
-59.7071
24.6454
-58.9539
17.8524
11.3362
17.3519
-12.0809
5.79531
17.4855
0.838165
1.58469
-89.4306
-62.2745
8.24867
-2.45659
-74.8814
18.3002
18.431
18.4836
7.51521
18.9556
2.31576
18.2405
9.58179
-1.36154
-25.1739
2.41236
12.7795
1.61703
36.3369
16.7263
19.6452
-104.251
15.5997
15.5541
20.1214
12.4899
-73.6721
-6.83449
1.65928
17.2381
17.0397
17.7195
-3.69894
20.2733
-17.629
8.41877
8.26681
13.5808
9.46262
15.6307
10.9555
10.6692
9.78843
-1.70886
-10.3865
2.79076
-86.7372
11.9076
16.8087
0.952836
-91.3401
41.2425
2.7429
23.7373
16.0136
13.0908
11.8769
16.6813
60.7909
-8.28734
1.2139
-95.0278
16.8841
27.9192
-37.2112
3.68262
-51.5398
1.36317
30.9805
1.66585
16.6925
-22.7324
-13.2798
-38.2381
-8.48266
17.8304
1.54272
7.77757
22.5008
13.3071
19.5277
8.86281
56.7326
20.5064
16.6961
43.9404
10.8149
15.6874
18.4809
20.3853
-10.6223
1.32578
9.74089
11.6814
-16.6042
13.9326