/*--------------------------------*- C++ -*----------------------------------*\
| =========                 |                                                 |
| \\      /  F ield         | OpenFOAM: The Open Source CFD Toolbox           |
|  \\    /   O peration     | Version:  2.3.1                                 |
|   \\  /    A nd           | Web:      www.OpenFOAM.org                      |
|    \\/     M anipulation  |                                                 |
\*---------------------------------------------------------------------------*/
FoamFile
{
    version     2.0;
    format      ascii;
    class       surfaceScalarField;
    location    "0.57";
    object      phi;
}
// * * * * * * * * * * * * * * * * * * * * * * * * * * * * * * * * * * * * * //

dimensions      [0 3 -1 0 0 0 0];

internalField   nonuniform List<scalar> 
15416
(
-0.00070715
-7.85779e-06
0.000710026
-0.00070242
-4.72223e-06
-0.000699762
-2.65375e-06
-0.000698402
-1.35394e-06
-0.000698338
-5.88377e-08
-0.000699851
1.51807e-06
-0.000703646
3.80018e-06
-0.000709954
6.31474e-06
-0.000718962
9.01376e-06
-0.000730999
1.20431e-05
-0.000746475
1.54833e-05
-0.000765611
1.91422e-05
-0.000788545
2.294e-05
-0.000815363
2.68249e-05
-0.000846165
3.081e-05
-0.000880879
3.47242e-05
-0.000919324
3.84571e-05
-0.000961298
4.19863e-05
-0.00100666
4.53749e-05
-0.00105509
4.84375e-05
-0.00110631
5.12374e-05
-0.00116009
5.37862e-05
-0.00121606
5.59774e-05
-0.00127386
5.78048e-05
-0.00133323
5.93868e-05
-0.00139395
6.07264e-05
-0.00145571
6.17674e-05
-0.00151819
6.24887e-05
-0.00158117
6.29898e-05
-0.00164447
6.33122e-05
-0.00170779
6.33448e-05
-0.00177095
6.31703e-05
-0.00183383
6.29019e-05
-0.00189621
6.23928e-05
-0.00195789
6.16891e-05
-0.00201882
6.09336e-05
-0.00207888
6.00687e-05
-0.0021379
5.90228e-05
-0.00219564
5.77512e-05
-0.0022521
5.64634e-05
-0.00230725
5.51608e-05
-0.00236093
5.36807e-05
-0.002413
5.20838e-05
-0.00246353
5.05323e-05
-0.00251222
4.87023e-05
-0.00255906
4.68471e-05
-0.00260416
4.51012e-05
-0.00264752
4.33601e-05
-0.00268893
4.1419e-05
-0.00272836
3.94344e-05
-0.00276577
3.74042e-05
-0.00280132
3.55482e-05
-0.00283451
3.31961e-05
-0.00286582
3.13029e-05
-0.00289502
2.92014e-05
-0.00292248
2.74624e-05
-0.00294726
2.47739e-05
-0.00296977
2.25094e-05
-0.00299038
2.06029e-05
-0.00300924
1.88587e-05
1.71493e-05
-0.0030264
-0.000405484
-6.36711e-06
0.000404003
-0.000407465
-2.74779e-06
-0.000411603
1.47961e-06
-0.000418796
5.83503e-06
-0.000430429
1.15693e-05
-0.00044579
1.68728e-05
-0.000465031
2.3036e-05
-0.000487974
2.92508e-05
-0.000515282
3.63166e-05
-0.000546506
4.32624e-05
-0.000581841
5.08128e-05
-0.000621154
5.8449e-05
-0.000664349
6.61288e-05
-0.000711308
7.378e-05
-0.000761743
8.12427e-05
-0.000815522
8.8503e-05
-0.000872389
9.53239e-05
-0.000932132
0.00010173
-0.000994398
0.00010764
-0.00105898
0.000113021
-0.00112567
0.000117923
-0.00119403
0.000122135
-0.00126385
0.000125801
-0.00133493
0.000128883
-0.00140696
0.000131407
-0.00147968
0.000133447
-0.00155277
0.000134852
-0.00162616
0.000135883
-0.00169956
0.000136387
-0.00177264
0.000136388
-0.0018454
0.000136114
-0.0019177
0.000135465
-0.00198912
0.00013433
-0.00205966
0.000132925
-0.00212929
0.000131323
-0.00219765
0.00012928
-0.00226474
0.000127158
-0.00233044
0.000124717
-0.00239474
0.000122044
-0.00245742
0.000119146
-0.0025182
0.00011593
-0.00257734
0.000112819
-0.00263465
0.000109396
-0.00268987
0.000105753
-0.00274317
0.000102005
-0.00279437
9.80408e-05
-0.00284352
9.42589e-05
-0.00289021
9.00504e-05
-0.00293482
8.60236e-05
-0.00297726
8.18846e-05
-0.00301757
7.77111e-05
-0.00305603
7.4018e-05
-0.00309103
6.81957e-05
-0.00312533
6.56077e-05
-0.00315581
5.96842e-05
-0.00318474
5.63955e-05
-0.00320931
4.9348e-05
-0.00323371
4.69111e-05
-0.00325583
4.27175e-05
-0.00327577
3.87989e-05
3.27381e-05
-0.00329135
-0.000260438
2.33328e-06
0.000251725
-0.000271734
8.54922e-06
-0.0002866
1.63475e-05
-0.000305756
2.49918e-05
-0.00032848
3.42944e-05
-0.000355679
4.40715e-05
-0.000386903
5.42606e-05
-0.000422444
6.4793e-05
-0.000462224
7.60976e-05
-0.000506354
8.73938e-05
-0.000554572
9.90306e-05
-0.000606509
0.000110385
-0.000662297
0.000121917
-0.000721562
0.000133047
-0.00078411
0.000143794
-0.000849662
0.000154061
-0.000918
0.000163666
-0.000988848
0.000172578
-0.00106188
0.000180674
-0.00113695
0.000188081
-0.00121357
0.000194551
-0.00129169
0.000200257
-0.00137099
0.000205108
-0.00145122
0.000209113
-0.00153207
0.000212259
-0.00161331
0.000214679
-0.00169476
0.000216303
-0.00177616
0.000217281
-0.00185721
0.000217448
-0.00193803
0.000217216
-0.00201815
0.000216234
-0.00209735
0.000214668
-0.00217584
0.00021281
-0.00225312
0.000210204
-0.00232912
0.000207311
-0.00240378
0.000203942
-0.00247694
0.000200318
-0.00254845
0.000196224
-0.00261826
0.000191855
-0.00268627
0.000187155
-0.00275252
0.000182182
-0.00281646
0.000176753
-0.00287845
0.000171391
-0.00293825
0.000165557
-0.00299586
0.00015961
-0.00305128
0.000153468
-0.00310428
0.000147259
-0.00315497
0.00014074
-0.00320308
0.000134144
-0.0032494
0.000128198
-0.003292
0.000120314
-0.00333199
0.000114018
-0.00337036
0.00010656
-0.00340641
0.000101662
-0.00344031
9.35809e-05
-0.00346991
8.59986e-05
-0.00349936
7.87956e-05
-0.00352447
7.20272e-05
-0.00354735
6.5598e-05
-0.00356596
5.74056e-05
5.12365e-05
-0.00358446
-0.000188631
1.81865e-05
0.000172774
-0.000208598
2.85152e-05
-0.000232508
4.02573e-05
-0.000260469
5.29511e-05
-0.000292633
6.64564e-05
-0.000329168
8.06038e-05
-0.000370007
9.5097e-05
-0.000415524
0.000110308
-0.000465304
0.000125874
-0.000519459
0.000141547
-0.000577569
0.000157135
-0.000639825
0.000172637
-0.000705808
0.000187897
-0.0007751
0.000202342
-0.000847645
0.000216345
-0.000923095
0.000229512
-0.00100116
0.000241731
-0.00108155
0.000252953
-0.00116403
0.000263141
-0.00124818
0.000272231
-0.00133399
0.000280367
-0.00142095
0.000287234
-0.00150899
0.00029315
-0.00159776
0.00029788
-0.00168708
0.000301569
-0.00177651
0.00030411
-0.00186597
0.000305758
-0.00195525
0.000306562
-0.00204421
0.000306419
-0.00213239
0.000305394
-0.00221985
0.000303698
-0.00230648
0.000301286
-0.00239173
0.000298045
-0.00247582
0.000294274
-0.00255853
0.000290011
-0.0026397
0.000285108
-0.00271901
0.000279625
-0.00279663
0.000273841
-0.00287232
0.000267553
-0.00294613
0.000260966
-0.00301762
0.000253675
-0.00308718
0.000246315
-0.00315416
0.000238365
-0.00321891
0.000230303
-0.00328114
0.000221845
-0.00334086
0.000213186
-0.003398
0.000204409
-0.00345288
0.000195621
-0.00350439
0.000185653
-0.00355334
0.000177156
-0.00360088
0.000167851
-0.0036443
0.000157443
-0.00368549
0.000147754
-0.00372254
0.000138718
-0.00375923
0.000130272
-0.00379176
0.000118539
-0.00382203
0.000109066
-0.00385005
0.000100049
-0.00387386
8.94144e-05
-0.00389542
7.89687e-05
6.85984e-05
-0.00391277
-0.000154564
4.10484e-05
0.000131702
-0.000181271
5.52212e-05
-0.000212305
7.1291e-05
-0.000247838
8.84838e-05
-0.000287926
0.000106543
-0.000332789
0.000125465
-0.000382619
0.000144926
-0.000436909
0.000164597
-0.000495916
0.000184879
-0.000559274
0.000204901
-0.000627032
0.00022489
-0.000698888
0.00024449
-0.000774312
0.000263322
-0.000853342
0.000281377
-0.000935777
0.000298783
-0.00102061
0.000314343
-0.00110815
0.000329256
-0.00119794
0.000342733
-0.00128961
0.000354807
-0.00138301
0.000365633
-0.00147778
0.000375151
-0.00157381
0.000383288
-0.00167072
0.00039005
-0.00176821
0.000395365
-0.0018659
0.000399256
-0.00196387
0.000402074
-0.00206161
0.000403501
-0.00215896
0.000403928
-0.00225576
0.000403218
-0.00235188
0.000401508
-0.00244699
0.000398806
-0.00254087
0.000395147
-0.00263353
0.000390682
-0.00272477
0.000385511
-0.00281428
0.000379513
-0.00290198
0.000372826
-0.00298808
0.000365729
-0.00307201
0.000357783
-0.00315382
0.000349367
-0.00323329
0.000340436
-0.0033107
0.000331085
-0.00338554
0.000321151
-0.00345797
0.000310795
-0.00352774
0.000300072
-0.00359483
0.000288934
-0.00365986
0.000278219
-0.00372011
0.00026466
-0.00377829
0.000253797
-0.00383479
0.000242148
-0.0038873
0.000229672
-0.0039375
0.000218055
-0.00398549
0.000205432
-0.00402948
0.000191752
-0.00407121
0.000180445
-0.00410692
0.00016599
-0.00414218
0.000153796
-0.00417519
0.000142081
-0.004204
0.000128867
-0.00422865
0.000114066
-0.00425303
0.000103352
8.88002e-05
-0.00427323
-0.000139186
7.01638e-05
0.000110071
-0.00017273
8.87642e-05
-0.00021081
0.000109371
-0.000254058
0.000131731
-0.000302414
0.000154897
-0.000355734
0.000178784
-0.00041406
0.00020325
-0.000477571
0.000228106
-0.000545773
0.000253078
-0.000618905
0.00027803
-0.000696466
0.000302447
-0.000777995
0.000326019
-0.000863514
0.000348843
-0.000952225
0.000370096
-0.00104394
0.0003905
-0.0011387
0.000409084
-0.00123598
0.000426518
-0.0013356
0.00044234
-0.00143688
0.000456087
-0.00153968
0.000468463
-0.00164396
0.000479455
-0.00174914
0.000488464
-0.00185523
0.000496132
-0.00196183
0.000501932
-0.00206865
0.000506069
-0.00217529
0.000508723
-0.0022817
0.000509933
-0.00238755
0.000509769
-0.0024927
0.000508358
-0.00259697
0.000505746
-0.00270011
0.000501907
-0.00280177
0.000496814
-0.00290203
0.000490951
-0.00300067
0.000484187
-0.00309737
0.000476256
-0.00319222
0.000467714
-0.00328489
0.00045843
-0.00337539
0.000448298
-0.00346369
0.000437664
-0.00354968
0.000426427
-0.00363288
0.000414277
-0.00371356
0.000401834
-0.00379138
0.000388611
-0.00386593
0.000374623
-0.00393791
0.000360923
-0.00400723
0.000347531
-0.00407447
0.000331907
-0.00413766
0.000316989
-0.00419686
0.000301349
-0.00425378
0.000286591
-0.0043067
0.000270972
-0.00435551
0.000254251
-0.00440386
0.0002401
-0.00444638
0.000222973
-0.00448848
0.000208087
-0.00452644
0.000191757
-0.00455824
0.000173881
-0.00458774
0.000158369
-0.00461702
0.000143351
-0.00464024
0.000126569
0.000109808
-0.00466125
-0.000137121
0.000105385
0.000101898
-0.000177589
0.000129232
-0.000223343
0.000155123
-0.000274764
0.00018315
-0.000331448
0.00021158
-0.000393834
0.000241168
-0.000461585
0.000270999
-0.00053446
0.00030098
-0.000612727
0.000331341
-0.00069549
0.000360788
-0.00078316
0.000390114
-0.000875126
0.000417983
-0.000970665
0.00044439
-0.00106953
0.000468966
-0.00117203
0.000492991
-0.00127726
0.000514291
-0.00138464
0.000533873
-0.00149434
0.000552024
-0.00160564
0.000567418
-0.00171859
0.000581449
-0.00183276
0.000593633
-0.00194783
0.00060352
-0.00206379
0.00061203
-0.00218004
0.000618157
-0.00229625
0.000622288
-0.00241229
0.000624787
-0.00252763
0.000625273
-0.00264256
0.000624684
-0.00275665
0.000622377
-0.00286939
0.00061843
-0.00298099
0.000613494
-0.003091
0.000606853
-0.00319899
0.000599028
-0.00330534
0.000590614
-0.00340981
0.000580803
-0.00351185
0.000569815
-0.00361178
0.000558381
-0.00370919
0.000545692
-0.00380401
0.00053247
-0.00389622
0.000518619
-0.00398583
0.000503887
-0.00407183
0.000487838
-0.00415553
0.000472318
-0.00423604
0.000455146
-0.00431378
0.000438667
-0.00438749
0.000421251
-0.00445729
0.000401705
-0.00452465
0.000384355
-0.00458969
0.000366396
-0.00464896
0.000345868
-0.00470597
0.000327979
-0.00476068
0.000308965
-0.0048096
0.000289021
-0.00485641
0.000269782
-0.00489917
0.000250847
-0.00493769
0.000230275
-0.0049757
0.000211893
-0.0050076
0.000190266
-0.00503552
0.00017127
-0.00505945
0.000150502
0.000131507
-0.00508116
-0.000145787
0.000146878
0.000104292
-0.000193532
0.000176975
-0.000247197
0.000208787
-0.000307595
0.000243546
-0.000373676
0.000277659
-0.000445505
0.000312995
-0.00052322
0.000348711
-0.000605886
0.000383643
-0.000694588
0.000420039
-0.000787922
0.000454118
-0.000886836
0.000489022
-0.000989392
0.000520542
-0.00109662
0.000551617
-0.00120617
0.000578516
-0.00131916
0.000605973
-0.00143571
0.000630815
-0.00155419
0.000652333
-0.00167473
0.000672572
-0.00179734
0.000690072
-0.0019203
0.000704444
-0.00204531
0.000718636
-0.00217057
0.000728712
-0.00229728
0.00073868
-0.00242409
0.000744947
-0.00255028
0.000748503
-0.00267653
0.000751052
-0.00280132
0.000750045
-0.00292571
0.000748978
-0.00304928
0.000745887
-0.00317071
0.000739861
-0.0032914
0.000734282
-0.00341025
0.000725879
-0.00352644
0.000715368
-0.00364102
0.000705315
-0.00375379
0.000693611
-0.0038632
0.000679167
-0.00397056
0.00066563
-0.00407519
0.000650237
-0.00417635
0.000633593
-0.00427518
0.000617445
-0.00437154
0.000600246
-0.004465
0.000581308
-0.00455278
0.000560111
-0.0046398
0.000542176
-0.00472177
0.000520644
-0.00479931
0.000498804
-0.0048765
0.000478907
-0.00494736
0.000455228
-0.00501463
0.00043368
-0.00507903
0.000410284
-0.0051383
0.000387256
-0.00519488
0.000365549
-0.00524747
0.000341611
-0.00529831
0.000320625
-0.00534354
0.000296074
-0.00538599
0.000272731
-0.00542245
0.000248354
-0.00545422
0.000222031
-0.00548429
0.000201336
-0.00551082
0.000177038
0.000153608
-0.00553293
-0.000162981
0.000116003
0.000193858
-0.000219236
0.000233234
-0.000280104
0.000269658
-0.000350957
0.0003144
-0.000426344
0.000353046
-0.000508622
0.000395272
-0.000597121
0.000437208
-0.000689019
0.000475537
-0.000790613
0.000521628
-0.000893388
0.000556886
-0.00100594
0.000601571
-0.00111855
0.000633152
-0.00124078
0.000673857
-0.00135906
0.000696789
-0.00148485
0.000731746
-0.00161419
0.000760131
-0.00174244
0.000780564
-0.00187646
0.000806608
-0.00201045
0.000824128
-0.00214374
0.000837753
-0.00228357
0.000858442
-0.00241751
0.000862579
-0.00255673
0.000877857
-0.00269517
0.000883411
-0.00283156
0.000884962
-0.00297047
0.000889977
-0.00310382
0.000883286
-0.00323881
0.0008838
-0.00337354
0.000880573
-0.00350287
0.000869359
-0.00363404
0.000865735
-0.00376201
0.000854128
-0.00388645
0.000839908
-0.00400975
0.000828598
-0.00413302
0.000816735
-0.00424798
0.000793903
-0.00436454
0.000781915
-0.0044765
0.000762045
-0.00458358
0.000740642
-0.00469115
0.000725023
-0.00479071
0.00069982
-0.004891
0.000681618
-0.00498524
0.000654348
-0.00507611
0.000633051
-0.00516602
0.000610551
-0.00524838
0.00058118
-0.00532951
0.000560049
-0.00540354
0.00052927
-0.00547554
0.000505694
-0.00554134
0.000476097
-0.00560709
0.000453012
-0.00566577
0.000424232
-0.00572128
0.000397125
-0.00577291
0.000372259
-0.00582221
0.000345376
-0.00586357
0.000314091
-0.0059034
0.000288185
-0.0059367
0.000255344
-0.0059674
0.000232038
-0.00599464
0.000204273
-0.00601618
0.000175159
-0.00303996
1.35616e-05
-0.00305171
1.17456e-05
-0.00306177
1.00548e-05
-0.00306995
8.17678e-06
-0.00307588
5.92206e-06
-0.00307918
3.30555e-06
-0.00308074
1.5566e-06
-0.00308021
-5.3577e-07
-0.00307769
-2.52522e-06
-0.00307273
-4.95459e-06
-0.00306589
-6.84308e-06
-0.00305701
-8.88041e-06
-0.00304607
-1.09423e-05
-0.00303306
-1.30076e-05
-0.0030183
-1.47659e-05
-0.00300169
-1.66086e-05
-0.00298306
-1.8632e-05
-0.00296239
-2.06774e-05
-0.00294001
-2.23787e-05
-0.00291575
-2.42569e-05
-0.00288971
-2.60487e-05
-0.00286203
-2.76714e-05
-0.00283262
-2.94155e-05
-0.00280137
-3.12481e-05
-0.00276848
-3.28862e-05
-0.00273421
-3.42699e-05
-0.00269827
-3.59364e-05
-0.00266067
-3.76033e-05
-0.00262152
-3.9143e-05
-0.002581
-4.05235e-05
-0.00253898
-4.2014e-05
-0.00249552
-4.34602e-05
-0.00245081
-4.47072e-05
-0.00240479
-4.60216e-05
-0.00235744
-4.73506e-05
-0.00230893
-4.8511e-05
-0.00225932
-4.96046e-05
-0.00220859
-5.07313e-05
-0.00215666
-5.19318e-05
-0.00210369
-5.29679e-05
-0.00204983
-5.38632e-05
-0.00199503
-5.47981e-05
-0.00193931
-5.57196e-05
-0.00188284
-5.64727e-05
-0.00182547
-5.7372e-05
-0.00176728
-5.81848e-05
-0.00170846
-5.88183e-05
-0.0016491
-5.9367e-05
-0.00158906
-6.0037e-05
-0.00152845
-6.06066e-05
-0.0014674
-6.10571e-05
-0.001406
-6.13933e-05
-0.00134409
-6.19141e-05
-0.00128195
-6.21386e-05
-0.00121958
-6.23779e-05
-0.00115717
-6.24053e-05
-0.00109447
-6.26992e-05
-0.00103172
-6.2756e-05
-0.000969088
-6.26329e-05
-0.000906656
-6.24337e-05
-6.21959e-05
-0.000844461
-0.0033068
2.90052e-05
-0.00331765
2.26061e-05
-0.00332651
1.89088e-05
-0.00333313
1.48091e-05
-0.00333964
1.24257e-05
-0.00334195
5.62044e-06
-0.0033427
2.31397e-06
-0.00333966
-3.57063e-06
-0.00333598
-6.20779e-06
-0.0033287
-1.2225e-05
-0.0033196
-1.59467e-05
-0.00330818
-2.02885e-05
-0.00329472
-2.43994e-05
-0.00327939
-2.83347e-05
-0.0032616
-3.25565e-05
-0.00324176
-3.64432e-05
-0.00321979
-4.05978e-05
-0.00319587
-4.45941e-05
-0.00316972
-4.85246e-05
-0.00314164
-5.23373e-05
-0.00311179
-5.58977e-05
-0.00307973
-5.97247e-05
-0.00304575
-6.33869e-05
-0.00301003
-6.69705e-05
-0.00297247
-7.04453e-05
-0.00293305
-7.368e-05
-0.00289184
-7.71493e-05
-0.00284912
-8.03119e-05
-0.00280474
-8.35257e-05
-0.00275852
-8.67367e-05
-0.00271087
-8.96589e-05
-0.00266184
-9.24945e-05
-0.00261112
-9.54172e-05
-0.00255898
-9.81624e-05
-0.00250561
-0.000100719
-0.00245075
-0.000103372
-0.0023946
-0.000105753
-0.00233719
-0.000108135
-0.00227868
-0.000110438
-0.002219
-0.000112647
-0.00215802
-0.000114838
-0.00209614
-0.000116682
-0.00203329
-0.000118567
-0.00196937
-0.000120391
-0.00190462
-0.000122119
-0.00183899
-0.000123811
-0.0017726
-0.000125205
-0.00170529
-0.000126678
-0.0016374
-0.000127926
-0.00156891
-0.000129093
-0.00149985
-0.000130118
-0.00143043
-0.000130811
-0.00136003
-0.000132311
-0.00128988
-0.000132287
-0.0012188
-0.000133462
-0.00114773
-0.000133471
-0.00107586
-0.000134576
-0.0010046
-0.000134014
-0.000933286
-0.000133943
-0.00086199
-0.000133729
-0.000133925
-0.00079026
-0.00359861
4.31578e-05
-0.00361287
3.68663e-05
-0.00362267
2.87044e-05
-0.0036302
2.23298e-05
-0.00363343
1.56578e-05
-0.0036368
8.98297e-06
-0.00363575
1.25855e-06
-0.00363265
-6.66872e-06
-0.00362725
-1.16157e-05
-0.00362015
-1.93225e-05
-0.00361059
-2.55158e-05
-0.00359728
-3.35984e-05
-0.00358226
-3.94267e-05
-0.00356461
-4.59853e-05
-0.00354465
-5.25182e-05
-0.00352229
-5.8814e-05
-0.00349775
-6.51388e-05
-0.003471
-7.13426e-05
-0.003442
-7.7535e-05
-0.00341103
-8.33116e-05
-0.00337755
-8.93741e-05
-0.00334217
-9.51105e-05
-0.00330475
-0.00010081
-0.00326533
-0.000106395
-0.00322386
-0.000111923
-0.00318037
-0.00011717
-0.00313507
-0.000122459
-0.00308786
-0.000127524
-0.00303869
-0.000132696
-0.00298809
-0.000137341
-0.00293561
-0.000142144
-0.00288133
-0.000146777
-0.00282575
-0.000150995
-0.00276848
-0.000155438
-0.00270965
-0.000159548
-0.00264942
-0.000163611
-0.00258772
-0.000167448
-0.00252461
-0.000171251
-0.00246021
-0.000174838
-0.00239458
-0.000178284
-0.00232787
-0.000181547
-0.00225977
-0.000184791
-0.00219071
-0.00018762
-0.00212058
-0.000190525
-0.0020495
-0.000193207
-0.00197753
-0.00019578
-0.00190463
-0.000198105
-0.00183093
-0.000200381
-0.0017564
-0.000202456
-0.00168152
-0.000203979
-0.00160535
-0.000206291
-0.00152859
-0.000207571
-0.00145169
-0.000209203
-0.00137444
-0.000209546
-0.0012969
-0.000211001
-0.00121844
-0.000211925
-0.00114059
-0.000212433
-0.00106203
-0.000212569
-0.000983511
-0.000212465
-0.000904574
-0.000212667
-0.000212208
-0.000826292
-0.00392987
6.02523e-05
-0.00394285
4.98544e-05
-0.00395355
3.94104e-05
-0.00395999
2.87723e-05
-0.00396425
1.99132e-05
-0.00396606
1.07965e-05
-0.0039635
-1.29938e-06
-0.00396102
-9.15273e-06
-0.00395449
-1.81374e-05
-0.00394593
-2.78842e-05
-0.00393311
-3.83389e-05
-0.00391909
-4.76155e-05
-0.00390256
-5.596e-05
-0.0038826
-6.59409e-05
-0.00386045
-7.46678e-05
-0.00383575
-8.35082e-05
-0.00380856
-9.23346e-05
-0.00377883
-0.00010107
-0.00374687
-0.000109489
-0.00371224
-0.000117945
-0.00367566
-0.00012595
-0.00363656
-0.000134207
-0.00359538
-0.000141993
-0.00355197
-0.0001498
-0.00350655
-0.000157352
-0.00345874
-0.000164977
-0.00340891
-0.00017229
-0.00335714
-0.000179294
-0.00330356
-0.000186269
-0.00324774
-0.000193162
-0.00319023
-0.000199651
-0.00313108
-0.000205932
-0.00306989
-0.000212181
-0.00300718
-0.000218145
-0.00294288
-0.000223852
-0.00287701
-0.000229476
-0.0028094
-0.000235059
-0.00274041
-0.00024024
-0.00267
-0.000245251
-0.00259833
-0.000249955
-0.00252517
-0.000254704
-0.00245104
-0.000258923
-0.00237551
-0.000263146
-0.00229899
-0.000267053
-0.00222134
-0.000270853
-0.00214265
-0.000274467
-0.00206301
-0.000277749
-0.00198265
-0.000280742
-0.00190111
-0.000283995
-0.00181885
-0.000286237
-0.00173654
-0.0002886
-0.00165292
-0.000291193
-0.00156894
-0.000293185
-0.00148389
-0.000294593
-0.00139933
-0.000295561
-0.00131396
-0.000297296
-0.00122849
-0.000297896
-0.00114307
-0.000297988
-0.00105715
-0.000298392
-0.000971409
-0.000298404
-0.00029823
-0.000885386
-0.0042892
7.62303e-05
-0.004301
6.16499e-05
-0.00431254
5.09604e-05
-0.0043199
3.61332e-05
-0.00432306
2.30706e-05
-0.0043239
1.16419e-05
-0.0043249
-3.0223e-07
-0.00431933
-1.47228e-05
-0.00431167
-2.57996e-05
-0.00430009
-3.94625e-05
-0.00428643
-5.19966e-05
-0.00427059
-6.34574e-05
-0.00425073
-7.58252e-05
-0.00422939
-8.72736e-05
-0.00420621
-9.78573e-05
-0.004178
-0.000111712
-0.00414788
-0.00012246
-0.00411508
-0.000133866
-0.00407959
-0.000144973
-0.00404176
-0.000155783
-0.00400127
-0.000166438
-0.00395867
-0.0001768
-0.00391349
-0.00018718
-0.00386587
-0.000197417
-0.00381569
-0.000207537
-0.00376353
-0.000217137
-0.00370908
-0.00022674
-0.00365231
-0.000236062
-0.00359346
-0.000245118
-0.00353268
-0.000253944
-0.00346976
-0.000262573
-0.00340482
-0.000270872
-0.00333814
-0.000278863
-0.00326969
-0.000286589
-0.00319936
-0.00029418
-0.00312723
-0.000301613
-0.0030537
-0.000308589
-0.00297833
-0.000315607
-0.00290142
-0.000322164
-0.00282291
-0.000328456
-0.00274325
-0.000334365
-0.00266216
-0.000340011
-0.00257994
-0.000345368
-0.00249646
-0.000350534
-0.00241184
-0.00035547
-0.00232649
-0.000359816
-0.00223894
-0.000365306
-0.00215092
-0.000368763
-0.00206268
-0.000372232
-0.00197303
-0.00037588
-0.00188291
-0.000378721
-0.00179244
-0.000381665
-0.00170086
-0.000384757
-0.00160899
-0.000386469
-0.00151547
-0.000389075
-0.00142257
-0.000390195
-0.00132963
-0.000390832
-0.00123622
-0.000391404
-0.00114239
-0.000392221
-0.00104935
-0.000391442
-0.000391556
-0.000956022
-0.00467807
9.30547e-05
-0.0046927
7.62804e-05
-0.00470116
5.94234e-05
-0.00470941
4.43874e-05
-0.00471546
2.91252e-05
-0.00471538
1.15623e-05
-0.0047112
-4.47998e-06
-0.00470677
-1.91479e-05
-0.00469637
-3.62011e-05
-0.00468578
-5.00506e-05
-0.00467116
-6.6624e-05
-0.00465252
-8.20904e-05
-0.00463178
-9.65691e-05
-0.0046071
-0.000111952
-0.00457841
-0.000126549
-0.00454782
-0.000142307
-0.00451463
-0.000155646
-0.00447896
-0.000169539
-0.00443995
-0.00018398
-0.00439818
-0.000197551
-0.00435394
-0.000210683
-0.00430677
-0.000223961
-0.00425711
-0.000236848
-0.00420494
-0.000249585
-0.00415031
-0.000262168
-0.00409297
-0.000274475
-0.00403343
-0.000286281
-0.00397141
-0.000298087
-0.00390708
-0.000309446
-0.00384069
-0.000320335
-0.00377194
-0.000331317
-0.00370106
-0.000341762
-0.00362825
-0.000351666
-0.00355361
-0.000361232
-0.00347683
-0.000370958
-0.00339838
-0.000380064
-0.00331789
-0.000389084
-0.00323566
-0.000397835
-0.00315186
-0.000405958
-0.00306655
-0.000413771
-0.00297949
-0.000421427
-0.00289119
-0.000428311
-0.00280151
-0.000435041
-0.0027103
-0.000441747
-0.00261817
-0.000447599
-0.0025249
-0.000453088
-0.00243113
-0.000459073
-0.00233567
-0.000464222
-0.00223894
-0.000468962
-0.00214171
-0.000473109
-0.00204326
-0.000477172
-0.00194377
-0.000481156
-0.00184464
-0.000483878
-0.00174392
-0.000487192
-0.00164354
-0.000489456
-0.00154251
-0.000491216
-0.00144019
-0.000493155
-0.00133823
-0.000493361
-0.00123694
-0.00049351
-0.00113502
-0.000493364
-0.000493211
-0.00103336
-0.00509872
0.000110615
-0.00511407
9.16317e-05
-0.00512533
7.06781e-05
-0.00513244
5.15025e-05
-0.0051335
3.018e-05
-0.00513443
1.24997e-05
-0.00513121
-7.70341e-06
-0.00512388
-2.64772e-05
-0.00511447
-4.56102e-05
-0.00509926
-6.52517e-05
-0.00508203
-8.38602e-05
-0.00506258
-0.000101535
-0.00503725
-0.000121894
-0.00500991
-0.000139295
-0.00498059
-0.000155868
-0.0049473
-0.000175599
-0.00490998
-0.000192969
-0.00486983
-0.000209694
-0.0048265
-0.00022731
-0.00478129
-0.000242763
-0.00473238
-0.000259582
-0.00468096
-0.00027538
-0.00462665
-0.000291158
-0.00456943
-0.000306808
-0.00450942
-0.000322179
-0.00444676
-0.000337133
-0.00438141
-0.000351639
-0.00431378
-0.000365715
-0.00424378
-0.000379441
-0.00417121
-0.000392912
-0.00409618
-0.000406347
-0.00401901
-0.000418931
-0.00393946
-0.000431213
-0.0038581
-0.000442595
-0.00377473
-0.00045433
-0.00368922
-0.000465571
-0.00360171
-0.000476597
-0.00351213
-0.000487412
-0.00342074
-0.00049735
-0.00332757
-0.000506943
-0.00323287
-0.000516123
-0.00313621
-0.000524978
-0.00303874
-0.000532504
-0.00293998
-0.000540508
-0.00284021
-0.000547369
-0.00273845
-0.000554853
-0.00263531
-0.000562205
-0.00253153
-0.000568003
-0.00242751
-0.000572983
-0.00232126
-0.000579358
-0.00221457
-0.000583865
-0.0021077
-0.000588025
-0.00199896
-0.000592612
-0.00189013
-0.000596027
-0.00178017
-0.000599414
-0.00166974
-0.00060164
-0.0015598
-0.00060309
-0.0014492
-0.000603964
-0.00133818
-0.000604528
-0.00122729
-0.000604246
-0.000603858
-0.00111665
-0.00555109
0.00012878
-0.00556491
0.000105447
-0.00557493
8.06946e-05
-0.00558259
5.91668e-05
-0.00558648
3.40626e-05
-0.00558453
1.05507e-05
-0.00558057
-1.16596e-05
-0.00557023
-3.682e-05
-0.00555787
-5.79722e-05
-0.00554212
-8.0997e-05
-0.00552427
-0.000101707
-0.00550049
-0.000125317
-0.00547435
-0.000148028
-0.00544452
-0.000169132
-0.00540934
-0.000191043
-0.00537353
-0.000211409
-0.00533382
-0.00023268
-0.00528813
-0.000255393
-0.00524198
-0.000273461
-0.00519089
-0.000293852
-0.00513659
-0.000313878
-0.00508032
-0.000331656
-0.00502126
-0.000350218
-0.0049585
-0.000369563
-0.00489283
-0.000387849
-0.0048242
-0.00040577
-0.00475282
-0.000423015
-0.00467882
-0.000439722
-0.00460227
-0.00045599
-0.00452322
-0.000471964
-0.00444129
-0.000488282
-0.00435734
-0.000502878
-0.00427074
-0.000517813
-0.00418276
-0.000530578
-0.00409209
-0.000544999
-0.00399921
-0.000558455
-0.00390421
-0.000571594
-0.00380667
-0.000584956
-0.00370689
-0.000597135
-0.00360562
-0.000608209
-0.00350274
-0.000618998
-0.00339806
-0.000629665
-0.00329119
-0.000639376
-0.00318448
-0.000647217
-0.00307556
-0.000656286
-0.00296444
-0.00066597
-0.00285405
-0.000672598
-0.00274085
-0.0006812
-0.00262741
-0.000686424
-0.00251304
-0.000693727
-0.00239661
-0.000700294
-0.0022804
-0.000704237
-0.00216286
-0.000710144
-0.00204544
-0.000713447
-0.00192559
-0.000719263
-0.00180636
-0.000720869
-0.0016855
-0.000723951
-0.00156535
-0.000724107
-0.00144497
-0.000724907
-0.00132512
-0.000724094
-0.000724412
-0.00120457
-0.00603492
0.000147518
-0.00604844
0.000118969
-0.0060589
9.11559e-05
-0.0060626
6.28627e-05
-0.00606511
3.65698e-05
-0.00606382
9.26428e-06
-0.0060581
-1.7385e-05
-0.00604759
-4.73375e-05
-0.00603187
-7.36901e-05
-0.00601552
-9.73464e-05
-0.00599316
-0.000124069
-0.0059672
-0.000151275
-0.00593887
-0.000176349
-0.00590369
-0.000204314
-0.00586927
-0.000225457
-0.00582763
-0.000253053
-0.00578164
-0.000278669
-0.00573431
-0.000302717
-0.00568037
-0.0003274
-0.00562546
-0.000348766
-0.00556796
-0.000371377
-0.00550468
-0.000394938
-0.00544143
-0.000413475
-0.00537244
-0.000438546
-0.00529989
-0.000460402
-0.00522576
-0.000479896
-0.00514683
-0.000501954
-0.00506691
-0.00051964
-0.00498152
-0.000541382
-0.00489749
-0.000555987
-0.00480611
-0.000579672
-0.0047163
-0.000592684
-0.00462038
-0.000613733
-0.00452672
-0.000624244
-0.00442867
-0.000643048
-0.00432755
-0.000659577
-0.00422573
-0.000673414
-0.00411891
-0.000691771
-0.00401002
-0.000706028
-0.00390165
-0.000716578
-0.00378789
-0.000732763
-0.00367272
-0.000744832
-0.00355884
-0.000753254
-0.00344012
-0.000765937
-0.00332544
-0.000770963
-0.00320296
-0.000788452
-0.00308423
-0.000791328
-0.00295951
-0.000805914
-0.00283896
-0.000806979
-0.00271509
-0.000817596
-0.00258834
-0.000827048
-0.00246471
-0.000827866
-0.00233575
-0.000839096
-0.00221012
-0.000839082
-0.00207752
-0.000851856
-0.00194994
-0.000848447
-0.00181596
-0.000857925
-0.0016897
-0.000850371
-0.00155634
-0.000858267
-0.00142878
-0.000851648
-0.00129465
-0.000858543
-0.000782068
-6.23943e-05
-0.000720031
-6.20383e-05
-0.000658368
-6.16643e-05
-0.000597115
-6.12539e-05
-0.000536329
-6.07869e-05
-0.00047606
-6.02704e-05
-0.000416559
-5.95015e-05
-0.000357872
-5.86875e-05
-0.000300204
-5.76688e-05
-0.000243686
-5.65188e-05
-0.00018823
-5.54557e-05
-0.000132031
-5.61996e-05
-7.40751e-05
-5.79557e-05
-1.49397e-05
-5.91352e-05
4.32033e-05
-5.81429e-05
9.87696e-05
-5.55663e-05
0.000152011
-5.32416e-05
0.000203461
-5.14492e-05
0.000253322
-4.98618e-05
0.000301615
-4.82933e-05
0.000348359
-4.67441e-05
0.000393497
-4.51382e-05
0.000436963
-4.34657e-05
0.000478624
-4.1662e-05
0.000518422
-3.97982e-05
0.000556293
-3.78709e-05
0.000592117
-3.58247e-05
0.000625763
-3.36462e-05
0.000657114
-3.13522e-05
0.00068608
-2.89664e-05
0.000712462
-2.63821e-05
0.000736101
-2.36391e-05
0.000756873
-2.0773e-05
0.000774533
-1.76611e-05
0.000788865
-1.43318e-05
0.000799673
-1.08087e-05
0.000806702
-7.03016e-06
0.000809667
-2.96574e-06
0.000809219
4.46689e-07
0.00080524
3.97951e-06
0.000797831
7.40801e-06
0.000786323
1.15069e-05
0.000770204
1.61174e-05
0.000749049
2.11543e-05
0.000722222
2.68256e-05
0.000689097
3.31228e-05
0.000649056
4.00395e-05
0.000601361
4.76939e-05
0.000545155
5.62037e-05
0.000479676
6.5478e-05
0.000404199
7.54751e-05
0.000318163
8.60344e-05
0.000220995
9.71663e-05
0.000111884
0.00010911
-1.5174e-05
0.000127056
-0.000154861
0.000139685
-0.000284156
0.000129294
-0.000391465
0.000107309
-0.000472853
8.13883e-05
-0.000533635
6.07822e-05
5.08488e-05
-0.000584483
-0.000719153
-0.000133501
-0.000647738
-0.000133453
-0.00057654
-0.000132862
-0.000505599
-0.000132195
-0.000435278
-0.000131107
-0.000365072
-0.000130477
-0.000295402
-0.000129172
-0.000226119
-0.00012797
-0.000157554
-0.000126233
-8.95349e-05
-0.000124537
-2.11922e-05
-0.000123798
4.75907e-05
-0.000124982
0.000115378
-0.000125743
0.000181871
-0.000125628
0.000247608
-0.000123879
0.000312716
-0.000120673
0.000376765
-0.00011729
0.000439506
-0.00011419
0.000500846
-0.000111202
0.000560805
-0.000108251
0.000619387
-0.000105325
0.000676453
-0.000102204
0.000731977
-9.89888e-05
0.000785952
-9.56367e-05
0.000838276
-9.21215e-05
0.000888889
-8.84821e-05
0.000937657
-8.45924e-05
0.000984601
-8.05887e-05
0.00102957
-7.63217e-05
0.00107239
-7.17874e-05
0.00111309