/*--------------------------------*- C++ -*----------------------------------*\
| =========                 |                                                 |
| \\      /  F ield         | OpenFOAM: The Open Source CFD Toolbox           |
|  \\    /   O peration     | Version:  2.3.1                                 |
|   \\  /    A nd           | Web:      www.OpenFOAM.org                      |
|    \\/     M anipulation  |                                                 |
\*---------------------------------------------------------------------------*/
FoamFile
{
    version     2.0;
    format      ascii;
    class       volVectorField;
    location    "0.57";
    object      U;
}
// * * * * * * * * * * * * * * * * * * * * * * * * * * * * * * * * * * * * * //

dimensions      [0 1 -1 0 0 0 0];

internalField   nonuniform List<vector> 
9648
(
(0.151715 -4.8156 -4.14733e-22)
(0.278494 -4.77171 2.78799e-23)
(0.403905 -4.74347 0)
(0.52621 -4.71661 0)
(0.648667 -4.69574 7.40858e-21)
(0.772511 -4.68102 1.14543e-20)
(0.900315 -4.67642 -2.36533e-20)
(1.03401 -4.68334 -1.13909e-20)
(1.17478 -4.70303 1.13627e-20)
(1.32321 -4.73746 3.57797e-20)
(1.48139 -4.78829 -3.56318e-20)
(1.65117 -4.85662 -5.24997e-20)
(1.83453 -4.94314 2.80074e-19)
(2.03351 -5.04787 7.32688e-20)
(2.24983 -5.17011 -6.88652e-19)
(2.48476 -5.30867 0)
(2.73948 -5.46192 0)
(3.01485 -5.62786 1.27242e-19)
(3.3116 -5.8039 4.10883e-19)
(3.6298 -5.98731 -1.18445e-18)
(3.9695 -6.17545 -2.12157e-20)
(4.33058 -6.36525 3.27095e-19)
(4.71229 -6.55383 3.88054e-19)
(5.11397 -6.7384 -1.76759e-18)
(5.53465 -6.91623 0)
(5.97334 -7.08469 1.06138e-18)
(6.42869 -7.24126 -1.11374e-18)
(6.89933 -7.38387 0)
(7.38384 -7.5103 0)
(7.88054 -7.61889 -6.77791e-19)
(8.38797 -7.70794 -1.50113e-18)
(8.90427 -7.77596 2.35843e-18)
(9.42787 -7.82185 0)
(9.95699 -7.84438 0)
(10.4898 -7.84286 1.80949e-18)
(11.0246 -7.81643 -1.94855e-18)
(11.5595 -7.76465 0)
(12.093 -7.68725 4.18629e-18)
(12.6233 -7.58383 1.12981e-18)
(13.1485 -7.45427 -3.34474e-18)
(13.6668 -7.29859 6.34533e-20)
(14.1767 -7.1173 2.38103e-18)
(14.6766 -6.91025 -3.16423e-18)
(15.1646 -6.67801 6.36546e-19)
(15.6397 -6.42134 0)
(16.1003 -6.14037 0)
(16.5449 -5.83583 4.80426e-18)
(16.9722 -5.50849 7.03231e-19)
(17.3816 -5.15925 -2.17353e-18)
(17.7724 -4.78808 -7.31713e-19)
(18.1424 -4.39586 -7.61217e-19)
(18.4899 -3.98486 7.56494e-19)
(18.8147 -3.55679 3.90867e-19)
(19.1159 -3.11239 -3.88754e-19)
(19.3924 -2.65342 1.98458e-18)
(19.6438 -2.18092 -1.95411e-18)
(19.869 -1.69637 -2.17875e-20)
(20.0678 -1.20099 0)
(20.2397 -0.696231 -3.96994e-19)
(20.3841 -0.183764 -5.13482e-20)
(20.5012 0.335208 -4.86783e-20)
(-0.0763303 -2.49646 3.70484e-22)
(1.57972e-05 -2.50687 0)
(0.0761567 -2.52419 0)
(0.151763 -2.5543 1.8473e-21)
(0.231761 -2.60509 -3.39425e-21)
(0.320925 -2.67903 -2.75615e-20)
(0.42065 -2.77298 0)
(0.532774 -2.88593 0)
(0.659052 -3.01858 -3.82242e-20)
(0.800163 -3.17089 0)
(0.957482 -3.34194 -9.65176e-20)
(1.13187 -3.53031 7.71075e-20)
(1.32425 -3.73477 -4.1939e-20)
(1.53562 -3.9537 0)
(1.76673 -4.18519 2.68007e-19)
(2.01791 -4.42719 1.59726e-19)
(2.28948 -4.67748 -1.57167e-19)
(2.58157 -4.93383 2.06001e-19)
(2.89436 -5.19373 -6.2819e-19)
(3.22761 -5.4547 5.02587e-19)
(3.58101 -5.71438 -5.57923e-19)
(3.9543 -5.97023 -3.01221e-19)
(4.34666 -6.21992 -3.09119e-19)
(4.75733 -6.4611 1.06555e-18)
(5.18539 -6.69155 3.6921e-19)
(5.6299 -6.9091 4.40088e-19)
(6.08971 -7.11172 -3.89704e-19)
(6.56354 -7.29765 0)
(7.05016 -7.46509 0)
(7.54804 -7.61267 0)
(8.05582 -7.73891 0)
(8.57188 -7.84262 0)
(9.0947 -7.92282 0)
(9.62277 -7.9785 0)
(10.1543 -8.00907 -8.12918e-19)
(10.6878 -8.01376 7.38002e-19)
(11.2214 -7.99227 8.14688e-19)
(11.7538 -7.94431 -4.13977e-18)
(12.2831 -7.86953 -8.79053e-19)
(12.8077 -7.76791 2.70412e-18)
(13.326 -7.63956 1.8983e-18)
(13.8362 -7.4849 -1.95969e-18)
(14.3369 -7.30382 9.35994e-19)
(14.8264 -7.09703 9.87862e-19)
(15.3033 -6.86516 -1.0505e-18)
(15.7662 -6.60845 1.04119e-18)
(16.2135 -6.32776 -2.23285e-18)
(16.6441 -6.02391 0)
(17.0565 -5.69781 -5.7052e-19)
(17.45 -5.3496 1.14655e-18)
(17.824 -4.98011 -5.76186e-19)
(18.177 -4.59114 0)
(18.508 -4.1841 1.18467e-18)
(18.8161 -3.75978 0)
(19.1004 -3.31967 0)
(19.36 -2.86493 2.80889e-18)
(19.5943 -2.39688 -1.26602e-18)
(19.8026 -1.91717 -3.08018e-19)
(19.9845 -1.42665 3.25133e-19)
(20.1396 -0.927066 0)
(20.2673 -0.419678 8.17636e-20)
(0.0430886 -1.43278 -5.27237e-22)
(0.104733 -1.48459 0)
(0.171234 -1.55229 6.82491e-22)
(0.242667 -1.64061 -3.20024e-22)
(0.321704 -1.74819 0)
(0.411733 -1.87424 2.19773e-20)
(0.514074 -2.02009 1.63489e-20)
(0.630359 -2.18474 0)
(0.762319 -2.36778 2.2769e-21)
(0.911629 -2.56781 3.99645e-20)
(1.07929 -2.78384 8.22213e-20)
(1.26597 -3.01403 -2.86396e-20)
(1.47224 -3.25665 0)
(1.69847 -3.50964 0)
(1.94495 -3.77095 2.02746e-19)
(2.21161 -4.03848 -1.30408e-19)
(2.4984 -4.31002 -1.40207e-19)
(2.80512 -4.5834 0)
(3.13152 -4.85635 5.4493e-19)
(3.47726 -5.12667 -5.66667e-19)
(3.84186 -5.39225 -4.25002e-19)
(4.22478 -5.651 -4.69221e-19)
(4.62525 -5.90087 0)
(5.04235 -6.1399 -8.44463e-19)
(5.47515 -6.36615 -2.9733e-19)
(5.92265 -6.57776 3.54362e-19)
(6.38376 -6.77299 3.91824e-19)
(6.85728 -6.95032 0)
(7.34194 -7.1083 0)
(7.83637 -7.24567 0)
(8.33914 -7.36124 0)
(8.84877 -7.45402 0)
(9.36383 -7.5231 0)
(9.88278 -7.56775 0)
(10.404 -7.5874 -1.78475e-18)
(10.926 -7.58152 5.93021e-19)
(11.4472 -7.54985 -6.54778e-19)
(11.966 -7.49215 3.29565e-18)
(12.4809 -7.40827 0)
(12.9902 -7.29828 1.4031e-18)
(13.4924 -7.16236 1.45162e-18)
(13.986 -7.00083 7.19199e-19)
(14.4693 -6.81383 -8.24481e-19)
(14.9411 -6.60191 -1.58816e-18)
(15.3998 -6.36563 2.47525e-18)
(15.8443 -6.10551 -8.3743e-19)
(16.273 -5.82235 -1.70853e-18)
(16.6849 -5.51694 0)
(17.0787 -5.19033 0)
(17.4532 -4.84352 -4.66672e-19)
(17.8077 -4.47757 -4.5624e-19)
(18.1412 -4.09341 -9.33329e-19)
(18.4529 -3.69212 -9.77126e-19)
(18.7418 -3.27517 0)
(19.0072 -2.84332 -9.66514e-19)
(19.2484 -2.39833 -1.00738e-18)
(19.4649 -1.94094 0)
(19.6559 -1.47336 1.63827e-20)
(19.8208 -0.995897 0)
(19.9594 -0.510305 0)
(20.0717 -0.0176201 -6.24119e-20)
(0.0213823 -0.916555 1.03604e-21)
(0.0839707 -1.00562 -1.72151e-21)
(0.158216 -1.11172 2.04085e-21)
(0.242259 -1.23507 -9.13773e-22)
(0.336739 -1.37561 0)
(0.442593 -1.53329 -8.99833e-21)
(0.561631 -1.7083 -1.41036e-20)
(0.695355 -1.90011 0)
(0.845275 -2.10789 3.11619e-21)
(1.01231 -2.33052 -3.41574e-20)
(1.19734 -2.56663 7.75945e-20)
(1.40071 -2.81458 9.55733e-20)
(1.62277 -3.07242 0)
(1.86373 -3.33813 -7.7778e-20)
(2.12378 -3.60973 -1.65647e-19)
(2.40265 -3.88524 -8.85943e-20)
(2.70019 -4.16257 3.44902e-19)
(3.01614 -4.43969 -2.50071e-19)
(3.3501 -4.71452 2.81516e-19)
(3.70176 -4.98501 4.8138e-19)
(4.07071 -5.24935 6.98434e-19)
(4.45625 -5.50571 3.95105e-19)
(4.85771 -5.75229 1.90029e-19)
(5.27414 -5.98738 6.93269e-19)
(5.70467 -6.20917 2.27751e-19)
(6.14835 -6.41599 2.59697e-19)
(6.60418 -6.60629 3.07208e-19)
(7.07114 -6.77867 -9.19673e-19)
(7.548 -6.93192 6.60973e-19)
(8.03343 -7.06486 7.47952e-19)
(8.52621 -7.17646 -1.52967e-18)
(9.02489 -7.26578 7.81364e-19)
(9.52813 -7.33198 -8.37841e-19)
(10.0346 -7.37439 4.17689e-19)
(10.5428 -7.39253 4.58226e-19)
(11.0512 -7.38594 5.09033e-19)
(11.5584 -7.3543 -5.0261e-19)
(12.0629 -7.2975 -5.48096e-19)
(12.5633 -7.21542 -1.64315e-18)
(13.058 -7.10814 -1.18618e-18)
(13.5456 -6.97589 -2.4053e-18)
(14.0245 -6.81888 -3.11695e-18)
(14.4933 -6.6374 1.27818e-18)
(14.9507 -6.43185 2.90836e-20)
(15.3954 -6.2028 -7.16361e-19)
(15.826 -5.95077 -7.02675e-19)
(16.2413 -5.67646 4.24886e-18)
(16.6402 -5.38065 -7.12215e-19)
(17.0217 -5.06414 0)
(17.3846 -4.72788 0)
(17.728 -4.37288 -7.15538e-19)
(18.0511 -4.00034 3.20837e-20)
(18.353 -3.61125 7.68069e-19)
(18.6329 -3.20676 0)
(18.8901 -2.78817 8.18249e-19)
(19.1238 -2.35681 0)
(19.3334 -1.91382 0)
(19.5183 -1.46019 6.23657e-19)
(19.6782 -0.997474 1.98337e-19)
(19.8128 -0.527133 -2.02122e-19)
(19.9216 -0.0506423 1.0344e-19)
(0.115213 -0.657707 4.52927e-23)
(0.178501 -0.767679 1.50305e-21)
(0.255447 -0.893063 -3.52926e-21)
(0.345602 -1.03483 -8.06705e-22)
(0.448839 -1.19328 -2.07183e-22)
(0.566128 -1.36812 3.44728e-21)
(0.698379 -1.55903 2.26233e-21)
(0.846521 -1.7651 -9.79787e-21)
(1.01173 -1.98545 3.4262e-20)
(1.19423 -2.21883 -5.01548e-20)
(1.39465 -2.46376 5.72346e-20)
(1.61276 -2.71855 -7.32223e-20)
(1.84881 -2.98119 -4.2807e-20)
(2.1026 -3.24972 0)
(2.37443 -3.52215 8.16051e-20)
(2.66368 -3.79682 7.81954e-20)
(2.97013 -4.07173 0)
(3.29353 -4.34492 1.95544e-19)
(3.63329 -4.61449 0)
(3.98926 -4.87847 -2.61631e-19)
(4.36104 -5.13534 2.86403e-19)
(4.74783 -5.38355 1.02682e-20)
(5.14906 -5.62143 -1.70787e-20)
(5.56367 -5.84755 2.91611e-20)
(5.99085 -6.0601 -8.11811e-19)
(6.4298 -6.25755 -4.67168e-19)
(6.87947 -6.4385 9.62355e-19)
(7.33911 -6.60164 1.04558e-18)
(7.80745 -6.74603 -5.66651e-19)
(8.28327 -6.87053 0)
(8.76545 -6.97418 0)
(9.25254 -7.05618 0)
(9.74338 -7.11561 7.1965e-19)
(10.2368 -7.15191 -2.97391e-18)
(10.7312 -7.16473 1.55718e-18)
(11.2254 -7.15359 -7.92145e-19)
(11.7179 -7.1182 -1.71027e-18)
(12.2073 -7.05858 1.73533e-18)
(12.6923 -6.97457 4.01206e-20)
(13.1716 -6.86626 -9.80927e-19)
(13.6436 -6.73395 1.01358e-18)
(14.1068 -6.57783 1.04849e-18)
(14.56 -6.39816 0)
(15.0018 -6.19529 -1.0652e-18)
(15.4311 -5.96978 0)
(15.8464 -5.72218 -1.70271e-18)
(16.2468 -5.45315 5.26286e-19)
(16.6311 -5.16341 0)
(16.9982 -4.85367 -6.17959e-19)
(17.3473 -4.52496 -1.4873e-20)
(17.6774 -4.1781 1.31696e-18)
(17.9877 -3.81428 -6.25818e-19)
(18.2775 -3.43457 -3.48187e-19)
(18.5459 -3.04008 6.37483e-19)
(18.7923 -2.63219 -4.89105e-21)
(19.0157 -2.21188 3.32531e-19)
(19.2156 -1.78046 1.60634e-19)
(19.3915 -1.33887 3.39107e-19)
(19.5432 -0.888333 -8.51963e-19)
(19.6703 -0.430364 3.42212e-19)
(19.7725 0.0334805 -4.3793e-20)
(0.201002 -0.518511 -4.75757e-22)
(0.276853 -0.64262 0)
(0.367162 -0.781651 4.75846e-21)
(0.471938 -0.936445 0)
(0.590356 -1.10703 -8.14785e-22)
(0.723698 -1.29283 2.46653e-21)
(0.872468 -1.49337 5.09675e-21)
(1.03732 -1.70745 1.95686e-20)
(1.21936 -1.93408 3.68439e-21)
(1.41813 -2.17207 5.63097e-21)
(1.63435 -2.41977 9.78031e-22)
(1.86708 -2.67568 -2.73999e-20)
(2.1167 -2.93771 4.18011e-20)
(2.38232 -3.20389 -1.27753e-19)
(2.66494 -3.47228 1.10658e-19)
(2.96346 -3.74178 -8.44369e-21)
(3.27744 -4.01014 -1.3897e-19)
(3.60697 -4.27563 -1.68886e-19)
(3.95104 -4.53654 0)
(4.30973 -4.79083 2.02453e-19)
(4.68295 -5.03734 8.36862e-21)
(5.06939 -5.2749 -5.29087e-19)
(5.46906 -5.5018 -2.3218e-20)
(5.88043 -5.71704 -2.87655e-19)
(6.3028 -5.9186 1.01848e-18)
(6.73553 -6.10509 3.54473e-20)
(7.17752 -6.27531 -3.79704e-19)
(7.62842 -6.42794 -4.10387e-20)
(8.08687 -6.56244 0)
(8.55162 -6.67763 0)
(9.02193 -6.77252 0)
(9.49608 -6.84657 0)
(9.97307 -6.89869 0)
(10.4521 -6.92834 5.73931e-20)
(10.9316 -6.93552 -6.67745e-19)
(11.41 -6.91973 -3.92872e-20)
(11.8866 -6.88045 2.91032e-20)
(12.3597 -6.81804 6.9007e-19)
(12.828 -6.73217 1.57885e-18)
(13.2906 -6.62293 -2.38214e-18)
(13.7459 -6.49086 1.65887e-18)
(14.1924 -6.33599 -8.37526e-19)
(14.6287 -6.15871 0)
(15.0539 -5.95904 9.31199e-19)
(15.4667 -5.73771 0)
(15.8658 -5.49526 9.80913e-19)
(16.2504 -5.23214 -1.00403e-18)
(16.619 -4.94938 4.716e-19)
(16.971 -4.6473 5.03964e-19)
(17.3054 -4.32694 -5.261e-19)
(17.6215 -3.98917 3.7728e-20)
(17.9183 -3.63521 -1.07854e-20)
(18.1953 -3.26581 1.07069e-18)
(18.4518 -2.8824 -1.10222e-18)
(18.687 -2.4862 -5.43888e-19)
(18.8999 -2.07852 -2.66309e-19)
(19.0899 -1.66014 -8.47396e-19)
(19.2566 -1.2319 0)
(19.4 -0.794959 5.72574e-19)
(19.5197 -0.351131 -1.47017e-19)
(19.6155 0.0983158 0)
(0.306655 -0.449612 0)
(0.396705 -0.58346 0)
(0.502119 -0.732416 -2.30742e-21)
(0.623973 -0.896876 3.1319e-21)
(0.759351 -1.07628 -6.81087e-22)
(0.910554 -1.26946 -4.40717e-21)
(1.0772 -1.4759 3.12959e-21)
(1.25923 -1.69402 -1.28554e-20)
(1.45902 -1.92303 -1.19157e-21)
(1.67388 -2.16174 3.92317e-20)
(1.9062 -2.40849 -7.65317e-20)
(2.15298 -2.66211 0)
(2.41588 -2.92018 0)
(2.69199 -3.18097 1.45018e-19)
(2.98488 -3.44207 9.44846e-20)
(3.29175 -3.70371 -2.09723e-19)
(3.612 -3.96304 3.41786e-19)
(3.94688 -4.21846 1.44382e-19)
(4.29395 -4.46887 -2.8914e-19)
(4.654 -4.71154 -1.76397e-19)
(5.02797 -4.9458 2.03858e-19)
(5.41266 -5.1713 -5.08278e-21)
(5.81011 -5.38556 0)
(6.21715 -5.58889 5.29666e-19)
(6.63355 -5.77844 -8.74283e-19)
(7.05929 -5.95288 2.91293e-19)
(7.49212 -6.11165 6.45553e-19)
(7.93339 -6.25268 -1.79965e-18)
(8.38106 -6.37654 3.66761e-19)
(8.83349 -6.48179 0)
(9.29119 -6.56693 0)
(9.75141 -6.63261 0)
(10.2133 -6.67692 5.05665e-19)
(10.6771 -6.69915 1.56645e-18)
(11.1409 -6.70023 -1.05999e-18)
(11.6023 -6.67977 5.85718e-19)
(12.062 -6.63597 6.42458e-19)
(12.5176 -6.57053 -1.27477e-18)
(12.968 -6.48252 0)
(13.413 -6.37177 -1.31036e-18)
(13.8504 -6.23974 6.80812e-19)
(14.2793 -6.08589 3.5399e-20)
(14.6975 -5.91113 -3.18515e-20)
(15.105 -5.71446 7.509e-19)
(15.5004 -5.49721 3.18359e-20)
(15.8822 -5.26018 -2.39983e-18)
(16.2499 -5.00298 8.13345e-19)
(16.6018 -4.72742 -1.69014e-18)
(16.9377 -4.43293 0)
(17.2563 -4.12137 0)
(17.5574 -3.79267 1.78618e-18)
(17.8398 -3.44905 -4.26717e-19)
(18.103 -3.09042 -9.25917e-19)
(18.3468 -2.71807 -4.45097e-19)
(18.5702 -2.33412 1.42169e-18)
(18.7719 -1.93957 7.17214e-19)
(18.9512 -1.53469 2.47952e-19)
(19.1078 -1.12068 -4.66927e-21)
(19.242 -0.697654 -2.48143e-19)
(19.354 -0.268088 0)
(19.4429 0.166189 0)
(0.428245 -0.425437 4.74353e-22)
(0.536094 -0.566071 0)
(0.658108 -0.721883 0)
(0.799989 -0.89348 -1.69557e-21)
(0.952951 -1.07916 0)
(1.12319 -1.27687 -5.55305e-22)
(1.30811 -1.48621 3.24487e-21)
(1.50646 -1.70518 -6.93089e-21)
(1.72533 -1.93362 0)
(1.95493 -2.17028 -2.3561e-20)
(2.20442 -2.41345 3.8567e-21)
(2.46361 -2.66268 0)
(2.74057 -2.91477 0)
(3.02412 -3.16855 -6.0755e-20)
(3.32758 -3.41909 6.69207e-20)
(3.64247 -3.67152 -8.52956e-20)
(3.96702 -3.92039 -9.89696e-20)
(4.30718 -4.16403 0)
(4.65579 -4.40355 1.29264e-19)
(5.01559 -4.63334 -2.737e-19)
(5.391 -4.85393 -3.08116e-19)
(5.77153 -5.06713 -3.63079e-19)
(6.167 -5.26714 -3.32825e-20)
(6.56877 -5.45863 -4.64182e-19)
(6.97812 -5.63573 4.45316e-19)
(7.39695 -5.79737 4.97852e-19)
(7.8185 -5.94484 -5.68099e-19)
(8.24979 -6.07299 3.15642e-20)
(8.68631 -6.18585 4.25604e-20)
(9.12446 -6.28109 -6.57895e-19)
(9.56936 -6.35537 0)
(10.0147 -6.41302 -8.03154e-19)
(10.4602 -6.44922 1.59367e-18)
(10.9083 -6.46297 -4.48713e-20)
(11.3559 -6.45833 9.37306e-19)
(11.7979 -6.43459 -9.33235e-19)
(12.2407 -6.38504 1.02978e-18)
(12.6779 -6.31667 1.07496e-18)
(13.1087 -6.22639 -2.12532e-18)
(13.5352 -6.11327 1.16361e-18)
(13.9534 -5.98167 1.14471e-18)
(14.3641 -5.82845 1.80916e-18)
(14.7626 -5.65664 -6.44305e-19)
(15.1513 -5.46187 0)
(15.5285 -5.24884 3.46006e-20)
(15.8912 -5.01826 7.00608e-19)
(16.2417 -4.76662 -6.81193e-19)
(16.5751 -4.49967 7.33793e-19)
(16.8939 -4.21276 0)
(17.1951 -3.91106 0)
(17.4806 -3.5914 -4.0262e-20)
(17.7474 -3.25922 7.88952e-19)
(17.9955 -2.91075 0)
(18.2258 -2.54929 3.91996e-19)
(18.437 -2.17877 3.95438e-19)
(18.6268 -1.7985 -8.05693e-19)
(18.795 -1.40775 -3.95233e-19)
(18.9399 -1.0091 -2.1002e-19)
(19.0639 -0.599575 0)
(19.1679 -0.18539 0)
(19.2492 0.232213 2.51528e-20)
(0.566084 -0.429814 -1.30695e-21)
(0.698314 -0.574104 2.8522e-21)
(0.836608 -0.73236 -1.39241e-23)
(1.00507 -0.908891 -3.4687e-21)
(1.17209 -1.09742 5.48077e-21)
(1.36118 -1.29925 -2.76895e-21)
(1.56533 -1.50713 0)
(1.77625 -1.72282 1.38127e-21)
(2.01945 -1.94894 -9.84225e-21)
(2.25794 -2.17988 0)
(2.53045 -2.41805 4.94575e-20)
(2.79476 -2.66225 -3.1994e-20)
(3.08925 -2.90826 3.2798e-20)
(3.37269 -3.15517 4.30238e-20)
(3.68943 -3.38937 -5.78156e-20)
(4.01189 -3.63352 -7.17028e-20)
(4.33639 -3.87173 2.3825e-19)
(4.68613 -4.10006 -2.49186e-19)
(5.02957 -4.33129 0)
(5.38422 -4.54965 -9.20587e-21)
(5.76776 -4.75535 7.56206e-19)
(6.13585 -4.95887 -2.95273e-20)
(6.53689 -5.13926 -3.62771e-19)
(6.92717 -5.32199 6.94632e-19)
(7.32749 -5.48903 0)
(7.74258 -5.63798 -4.29784e-19)
(8.14636 -5.7759 -4.40861e-19)
(8.56942 -5.88961 9.79872e-19)
(8.99586 -5.99227 -6.58848e-21)
(9.41546 -6.07885 5.83446e-19)
(9.85024 -6.13943 -1.19401e-18)
(10.2766 -6.19175 1.90067e-18)
(10.7034 -6.22173 -1.36402e-18)
(11.1365 -6.22704 -1.43298e-18)
(11.5704 -6.21627 0)
(11.988 -6.19005 8.17665e-19)
(12.4195 -6.132 0)
(12.8344 -6.06372 -2.98623e-21)
(13.2432 -5.97284 9.71462e-19)
(13.6539 -5.8541 -1.80763e-18)
(14.0503 -5.72212 -6.62384e-21)
(14.444 -5.56976 -2.002e-18)
(14.8167 -5.40378 0)
(15.1857 -5.2121 -5.73768e-19)
(15.5455 -5.00476 2.20262e-18)
(15.8846 -4.78184 -5.60152e-19)
(16.2214 -4.53523 5.93764e-19)
(16.5325 -4.278 0)
(16.8359 -3.99765 6.11436e-19)
(17.1173 -3.70487 -1.84526e-18)
(17.3879 -3.39064 -2.58037e-20)
(17.6376 -3.0701 0)
(17.8675 -2.73453 6.34604e-19)
(18.0848 -2.38437 -1.90966e-20)
(18.2849 -2.02509 0)
(18.46 -1.65774 3.57947e-19)
(18.6187 -1.2888 -3.25077e-19)
(18.7494 -0.907544 3.40839e-19)
(18.8613 -0.512617 3.38153e-19)
(18.9601 -0.110301 -1.69855e-19)
(19.0309 0.29129 -6.42649e-20)
(20.5901 0.859777 1.51458e-19)
(20.6503 1.38823 -5.13537e-20)
(20.6824 1.91995 0)
(20.6864 2.45253 0)
(20.6626 2.98423 8.1621e-19)
(20.6112 3.51393 1.17439e-18)
(20.5323 4.03979 -1.2094e-18)
(20.4261 4.56041 -3.9858e-19)
(20.2927 5.07432 3.98528e-19)
(20.1328 5.58045 7.80009e-19)
(19.9465 6.07818 -7.80482e-19)
(19.7341 6.56568 -7.58899e-19)
(19.497 7.04186 3.77458e-18)
(19.2365 7.50554 7.34175e-19)
(18.9529 7.95527 -6.47871e-18)
(18.647 8.38954 0)
(18.3195 8.80744 0)
(17.9718 9.20802 6.74016e-19)
(17.6045 9.59073 1.99094e-18)
(17.2185 9.95422 -5.11787e-18)
(16.8153 10.2978 -7.50886e-20)
(16.3957 10.6211 1.17303e-18)
(15.9608 10.9229 1.20709e-18)
(15.5117 11.2027 -4.5043e-18)
(15.0499 11.4603 0)
(14.5763 11.6959 2.11603e-18)
(14.0913 11.9089 -1.9608e-18)
(13.5967 12.0974 0)
(13.0941 12.2611 0)
(12.5853 12.3998 -8.98731e-19)
(12.0715 12.5135 -1.64341e-18)
(11.5538 12.6019 2.34261e-18)
(11.034 12.665 0)
(10.5129 12.7031 0)
(9.99212 12.7159 1.18274e-18)
(9.47276 12.7038 -1.12474e-18)
(8.95617 12.6668 0)
(8.44365 12.6054 1.77386e-18)
(7.93621 12.5199 3.69892e-19)
(7.43513 12.4106 -1.02341e-18)
(6.94162 12.278 3.57349e-20)
(6.45708 12.1227 4.31931e-19)
(5.98231 11.9455 -4.28163e-19)
(5.51849 11.7465 7.50112e-20)
(5.0668 11.5269 0)
(4.62797 11.2873 0)
(4.20305 11.0283 -1.68792e-19)
(3.79295 10.7509 -3.6618e-20)
(3.39868 10.456 2.19688e-19)
(3.02094 10.1448 9.15071e-20)
(2.66034 9.81803 1.43414e-19)
(2.31771 9.47661 -1.45287e-19)
(1.99382 9.1218 -9.74397e-20)
(1.68895 8.75481 9.87709e-20)
(1.40384 8.37655 -5.90218e-19)
(1.13886 7.98846 6.44164e-19)
(0.894466 7.59168 -1.35255e-21)
(0.670943 7.18771 0)
(0.468468 6.77761 1.6416e-19)
(0.287391 6.36245 2.23005e-20)
(0.127792 5.94349 2.36081e-20)
(20.3671 0.0938156 -8.1847e-20)
(20.4383 0.611336 0)
(20.4817 1.13054 0)
(20.4979 1.65109 9.39872e-19)
(20.4864 2.17161 -6.28456e-19)
(20.4477 2.69082 -2.21489e-18)
(20.382 3.20695 0)
(20.2893 3.71909 0)
(20.1698 4.22552 -1.20607e-18)
(20.0236 4.72483 0)
(19.8512 5.21623 -1.76729e-18)
(19.6531 5.69747 1.17256e-18)
(19.4307 6.16674 -5.82097e-19)
(19.1852 6.62381 0)
(18.9167 7.06823 2.30257e-18)
(18.6256 7.49865 1.07843e-18)
(18.3127 7.9139 -1.08059e-18)
(17.9791 8.3128 1.02794e-18)
(17.6256 8.69471 -3.03768e-18)
(17.2531 9.05841 2.04584e-18)
(16.863 9.40279 -1.98697e-18)
(16.4562 9.72739 -1.01312e-18)
(16.0339 10.031 -9.16244e-19)
(15.5972 10.3129 2.65869e-18)
(15.1472 10.5724 8.52118e-19)
(14.6849 10.8093 7.79754e-19)
(14.2113 11.0237 -7.04403e-19)
(13.7284 11.2148 0)
(13.2372 11.3818 0)
(12.7392 11.5242 0)
(12.2355 11.6419 0)
(11.7276 11.7347 0)
(11.2168 11.8025 0)
(10.7043 11.8453 0)
(10.1916 11.863 -4.92111e-19)
(9.67982 11.8559 4.36699e-19)
(9.17041 11.8238 3.49896e-19)
(8.66452 11.7671 -1.69865e-18)
(8.16329 11.6863 -2.6526e-19)
(7.66804 11.5816 7.91563e-19)
(7.18001 11.4534 4.35986e-19)
(6.70054 11.3022 -3.47991e-19)
(6.23052 11.1286 1.29199e-19)
(5.77129 10.9331 9.48986e-20)
(5.32395 10.7164 -8.17587e-21)
(4.8893 10.4793 8.26766e-21)
(4.46842 10.2223 9.18394e-20)
(4.06228 9.94636 0)
(3.67192 9.65237 8.04499e-20)
(3.29814 9.34133 -1.82594e-19)
(2.94158 9.01411 1.02436e-19)
(2.60317 8.6716 0)
(2.28375 8.31493 -3.05584e-19)
(1.98357 7.94526 0)
(1.70355 7.56355 0)
(1.44393 7.17121 -9.50137e-19)
(1.20536 6.76943 4.58385e-19)
(0.988039 6.35964 1.2676e-19)
(0.792539 5.94283 -1.32596e-19)
(0.619166 5.52027 0)
(0.468156 5.09321 -3.74119e-20)
(20.1575 0.480039 6.24605e-20)
(20.217 0.981423 0)
(20.2496 1.48326 -2.49228e-19)
(20.2545 1.98543 -1.64594e-20)
(20.2327 2.48653 0)
(20.1849 2.98598 2.00004e-18)
(20.1108 3.48303 9.76446e-19)
(20.0102 3.9771 0)
(19.8835 4.46603 3.23153e-20)
(19.7308 4.94757 9.4529e-19)
(19.5532 5.42012 1.43611e-18)
(19.3519 5.88227 -4.72099e-19)
(19.1273 6.33237 0)
(18.8796 6.76963 0)
(18.6095 7.19359 1.73878e-18)
(18.3178 7.60335 -8.57992e-19)
(18.0054 7.9979 -8.0389e-19)
(17.6733 8.37629 0)
(17.3224 8.73773 2.42848e-18)
(16.9536 9.08125 -2.33013e-18)
(16.5681 9.40593 -1.48818e-18)
(16.167 9.71107 -1.44005e-18)
(15.7512 9.99576 0)
(15.322 10.2593 -2.05757e-18)
(14.8804 10.501 -6.71398e-19)
(14.4277 10.7204 6.13361e-19)
(13.9651 10.9168 6.03698e-19)
(13.4939 11.0902 0)
(13.0151 11.2401 0)
(12.5301 11.3663 0)
(12.0401 11.4686 0)
(11.5464 11.5468 0)
(11.0502 11.6009 0)
(10.553 11.631 0)
(10.0559 11.6368 -1.0545e-18)
(9.56012 11.6186 3.37613e-19)
(9.06699 11.5764 -2.6918e-19)
(8.57763 11.5106 1.2822e-18)
(8.09318 11.4215 0)
(7.61484 11.3094 3.60191e-19)
(7.14381 11.1747 2.93738e-19)
(6.68132 11.0181 1.25698e-19)
(6.22837 10.84 -7.52314e-20)
(5.78614 10.6409 -9.44098e-20)
(5.35565 10.4214 2.94612e-20)
(4.93779 10.1823 -1.18957e-21)
(4.53344 9.92421 1.02955e-19)
(4.14356 9.64799 0)
(3.76907 9.35456 0)
(3.4108 9.04477 8.07038e-20)
(3.0695 8.71953 9.75042e-20)
(2.74583 8.37977 2.10072e-19)
(2.44056 8.02645 2.40582e-19)
(2.15411 7.66068 0)
(1.8872 7.28336 2.9949e-19)
(1.64007 6.89594 3.30406e-19)
(1.41322 6.49949 0)
(1.20705 6.09547 -1.81937e-21)
(1.02207 5.68479 0)
(0.858518 5.26876 0)
(0.716665 4.84847 2.87016e-20)
(20.0046 0.430957 -1.03502e-19)
(20.0617 0.916115 2.02454e-19)
(20.0928 1.40421 -3.99207e-19)
(20.0976 1.89326 -2.14758e-19)
(20.0762 2.38173 0)
(20.028 2.86851 -8.31765e-19)
(19.953 3.35309 -8.25779e-19)
(19.8527 3.83348 0)
(19.7279 4.30961 3.43516e-20)
(19.5789 4.77934 -7.98104e-19)
(19.4058 5.24055 1.50675e-18)
(19.209 5.69225 1.48325e-18)
(18.989 6.13333 0)
(18.7464 6.56257 -7.22831e-19)
(18.4819 6.97874 -1.43569e-18)
(18.1964 7.38064 -7.0793e-19)
(17.8908 7.76739 2.07362e-18)
(17.5658 8.13814 -1.33217e-18)
(17.2225 8.49211 1.29615e-18)
(16.8618 8.82847 1.88163e-18)
(16.4849 9.14641 2.44293e-18)
(16.0928 9.44513 1.20768e-18)
(15.6866 9.7238 5.55815e-19)
(15.2672 9.98172 1.68016e-18)
(14.8358 10.2184 5.14213e-19)
(14.3934 10.4333 5.14765e-19)
(13.9413 10.626 4.66402e-19)
(13.4808 10.7961 -1.35807e-18)
(13.0129 10.9432 8.42015e-19)
(12.539 11.0672 7.8577e-19)
(12.0602 11.1677 -1.52471e-18)
(11.5778 11.2447 7.38866e-19)
(11.093 11.2982 -6.42894e-19)
(10.6072 11.3282 3.01755e-19)
(10.1216 11.3345 2.915e-19)
(9.63738 11.3174 2.36742e-19)
(9.15577 11.2768 -2.38273e-19)
(8.67782 11.213 -2.24555e-19)
(8.20466 11.1266 -5.1305e-19)
(7.7375 11.0177 -2.97562e-19)
(7.27752 10.8868 -4.64511e-19)
(6.82581 10.7345 -4.31369e-19)
(6.38355 10.5613 1.24157e-19)
(5.95178 10.3677 7.28519e-21)
(5.53152 10.1542 -1.42343e-21)
(5.12367 9.92139 3.1262e-20)
(4.72894 9.67013 -2.67441e-19)
(4.34835 9.40116 5.78938e-20)
(3.98271 9.11545 0)
(3.63298 8.81375 0)
(3.29972 8.4969 1.49324e-19)
(2.98377 8.166 7.97489e-22)
(2.68575 7.82184 -1.95712e-19)
(2.40609 7.46546 0)
(2.14543 7.09768 -2.43107e-19)
(1.90394 6.71998 0)
(1.68218 6.33347 0)
(1.4804 5.93945 -2.33798e-19)
(1.29939 5.53903 -8.32584e-20)
(1.13912 5.13337 8.65081e-20)
(1.00017 4.72364 -4.5898e-20)
(19.8494 0.502068 1.87943e-21)
(19.9011 0.974174 -1.75212e-19)
(19.9274 1.44884 5.13501e-19)
(19.9282 1.92451 3.40706e-19)
(19.9036 2.4 -5.01874e-19)
(19.8534 2.87399 3.36229e-19)
(19.7787 3.34447 -2.41593e-21)
(19.6792 3.80941 -6.50867e-19)
(19.5549 4.26869 9.91413e-19)
(19.4072 4.72146 -1.29135e-18)
(19.2364 5.16663 1.21518e-18)
(19.0427 5.60273 -1.29201e-18)
(18.8266 6.02867 -6.20697e-19)
(18.5888 6.44341 0)
(18.33 6.84558 6.39085e-19)
(18.051 7.23399 5.45333e-19)
(17.7523 7.60789 0)
(17.4349 7.96633 1.07399e-18)
(17.0997 8.30859 0)
(16.7477 8.63393 -1.06232e-18)
(16.3801 8.94147 9.37943e-19)
(15.9979 9.23044 -4.07091e-20)
(15.6022 9.49993 -4.56752e-20)
(15.1938 9.74924 1.77703e-21)
(14.7737 9.97793 -1.76504e-18)
(14.343 10.1855 -8.02606e-19)
(13.9029 10.3716 1.56828e-18)
(13.4546 10.5359 1.44992e-18)
(12.9994 10.678 -7.23037e-19)
(12.5383 10.7976 0)
(12.0725 10.8944 0)
(11.603 10.9685 0)
(11.1313 11.0199 5.50868e-19)
(10.6586 11.0486 -1.92875e-18)
(10.1863 11.0543 8.95065e-19)
(9.71535 11.0372 -4.26686e-19)
(9.24692 10.9973 -6.82519e-19)
(8.78205 10.935 6.407e-19)
(8.32173 10.8505 2.15452e-20)
(7.86725 10.7445 -2.01743e-19)
(7.41971 10.6171 2.21503e-19)
(6.98018 10.4691 1.43847e-19)
(6.54989 10.3008 0)
(6.12984 10.1128 -3.97859e-20)
(5.72102 9.9056 0)
(5.32436 9.67958 7.76403e-20)
(4.94035 9.43567 -4.0509e-20)
(4.57 9.1746 0)
(4.21396 8.89736 9.45681e-20)
(3.87355 8.60461 1.95992e-20)
(3.54902 8.29709 -2.47974e-19)
(3.24121 7.97592 1.4582e-19)
(2.9509 7.6419 9.59787e-20)
(2.6783 7.29597 -1.75915e-19)
(2.42426 6.9389 8.12165e-21)
(2.18837 6.57202 -1.06732e-19)
(1.97168 6.19653 -5.75373e-20)
(1.77409 5.81375 -1.27925e-19)
(1.59675 5.42477 3.39175e-19)
(1.43928 5.03069 -1.44261e-19)
(1.30276 4.63265 1.91001e-20)
(19.6868 0.552184 3.68675e-20)
(19.7337 1.00931 0)
(19.7561 1.46856 -5.74798e-19)
(19.7538 1.92876 0)
(19.727 2.38858 2.86026e-19)
(19.6758 2.84661 8.36785e-19)
(19.6004 3.30145 5.4883e-19)
(19.501 3.75261 1.11291e-18)
(19.3781 4.19811 9.7427e-21)
(19.2324 4.63708 -6.77992e-21)
(19.0643 5.0681 -6.01376e-20)
(18.8741 5.49018 -5.29083e-19)
(18.6624 5.9023 5.10841e-19)
(18.4297 6.30349 -1.49749e-18)
(18.1769 6.69255 1.016e-18)
(17.9047 7.06822 -4.87797e-20)
(17.6134 7.42971 -9.21074e-19)
(17.304 7.77614 -9.43558e-19)
(16.9772 8.107 0)
(16.6343 8.42168 8.44537e-19)
(16.2764 8.71919 -3.78584e-20)
(15.9045 8.99878 -1.66116e-18)
(15.5197 9.25951 -5.85206e-21)
(15.1228 9.50048 -6.89051e-19)
(14.7145 9.72152 2.09712e-18)
(14.296 9.92214 -3.47272e-20)
(13.8684 10.102 -6.69417e-19)
(13.4329 10.2609 -7.06772e-20)
(12.9908 10.3984 0)
(12.5432 10.5141 0)
(12.091 10.6075 0)
(11.6351 10.6793 0)
(11.177 10.729 0)
(10.718 10.757 5.40391e-20)
(10.2596 10.7627 -3.46994e-19)
(9.80252 10.7463 3.91848e-20)
(9.34789 10.7077 5.32054e-20)
(8.89667 10.6472 2.22554e-19)
(8.44964 10.5654 4.23068e-19)
(8.00823 10.4627 -5.26546e-19)
(7.57358 10.3394 3.0938e-19)
(7.14655 10.1962 -9.55403e-20)
(6.72856 10.0335 0)
(6.32061 9.85192 3.46984e-20)
(5.92358 9.65191 0)
(5.53866 9.4334 -4.04434e-20)
(5.16556 9.19765 7.74367e-20)
(4.8059 8.94528 -5.37774e-20)
(4.45971 8.67749 -6.78831e-20)
(4.12895 8.39461 1.01882e-19)
(3.81341 8.09732 1.91411e-20)
(3.51395 7.78691 1.53541e-20)
(3.23161 7.4639 -2.80617e-19)
(2.96622 7.12939 3.19913e-19)
(2.719 6.78376 1.752e-19)
(2.48878 6.42862 9.16138e-20)
(2.27735 6.065 3.04855e-19)
(2.08363 5.69439 0)
(1.90991 5.31771 -2.33254e-19)
(1.75502 4.93619 6.19586e-20)
(1.62083 4.55066 0)
(19.5082 0.604734 0)
(19.5499 1.04625 0)
(19.5679 1.48982 2.49454e-19)
(19.5623 1.93402 -4.77857e-19)
(19.5331 2.3779 -2.46623e-19)
(19.4807 2.82014 -1.19737e-18)
(19.4051 3.25905 4.62206e-19)
(19.3062 3.69362 -9.55705e-19)
(19.1845 4.12351 1.54827e-20)
(19.041 4.54744 1.35443e-18)
(18.8762 4.96341 -1.80792e-18)
(18.6901 5.37056 0)
(18.4831 5.76782 0)
(18.2558 6.15494 1.7116e-18)
(18.0095 6.53045 8.27154e-19)
(17.7448 6.89242 -1.67858e-18)
(17.4615 7.24072 2.40307e-18)
(17.1605 7.57443 7.64287e-19)
(16.8425 7.89319 -1.49797e-18)
(16.5089 8.19675 -7.51734e-19)
(16.1613 8.48363 6.93447e-19)
(15.8002 8.75345 -7.09756e-20)
(15.4271 9.00512 0)
(15.0425 9.23712 1.29823e-18)
(14.6467 9.45001 -1.83123e-18)
(14.241 9.64327 5.89818e-19)
(13.8265 9.81643 1.06127e-18)
(13.4043 9.96981 -2.57639e-18)
(12.9763 10.1023 5.04071e-19)
(12.5428 10.2141 0)
(12.1053 10.3039 0)
(11.6636 10.3733 0)
(11.2203 10.4213 3.49377e-19)
(10.7755 10.4491 9.88539e-19)
(10.3323 10.4551 -5.82737e-19)
(9.88992 10.4396 2.5414e-19)
(9.45003 10.4026 2.43484e-19)
(9.01363 10.344 -4.33094e-19)
(8.58062 10.265 0)
(8.15296 10.1659 -2.42554e-19)
(7.73204 10.0468 1.26219e-19)
(7.31791 9.90863 1.41567e-20)
(6.91264 9.75193 9.75741e-21)
(6.51741 9.57711 2.97602e-20)
(6.13257 9.38504 -1.05676e-20)
(5.76051 9.17437 1.51469e-19)
(5.3987 8.94752 -6.48593e-20)
(5.0506 8.70431 2.21419e-19)
(4.71431 8.44688 0)
(4.39422 8.17482 0)
(4.08817 7.88843 -3.98922e-19)
(3.79724 7.58967 1.08509e-19)
(3.5238 7.27859 2.4903e-19)
(3.26574 6.95641 1.47193e-19)
(3.02648 6.62284 -4.63857e-19)
(2.80182 6.28011 -2.5964e-19)
(2.59623 5.92889 -9.55645e-20)
(2.40599 5.57138 -2.08488e-21)
(2.23661 5.20791 1.02379e-19)
(2.0839 4.83973 0)
(1.95252 4.46749 0)
(19.3081 0.654375 -2.51835e-20)
(19.3439 1.07917 0)
(19.3572 1.50617 0)
(19.3478 1.93367 2.11897e-19)
(19.3161 2.36061 0)
(19.2625 2.78597 8.16301e-19)
(19.1874 3.20807 4.0257e-19)
(19.0892 3.62529 -7.90592e-19)
(18.9683 4.0395 0)
(18.8274 4.44859 -8.02554e-19)
(18.6673 4.84792 4.41271e-20)
(18.4857 5.23934 0)
(18.2843 5.62058 0)
(18.0627 5.99277 -7.48094e-19)
(17.8231 6.35488 6.90674e-19)
(17.5673 6.70196 -7.15354e-19)
(17.2926 7.03638 -6.97384e-19)
(17.0005 7.35703 0)
(16.6921 7.66259 6.58896e-19)
(16.3683 7.95452 -1.20135e-18)
(16.0317 8.22989 -1.16057e-18)
(15.6822 8.48956 -1.19165e-18)
(15.321 8.73244 -9.54028e-21)
(14.9505 8.95426 -9.83621e-19)
(14.5674 9.15853 1.04303e-18)
(14.1747 9.34438 9.40089e-19)
(13.7746 9.50988 -9.54044e-19)
(13.3659 9.65773 5.97112e-20)
(12.9529 9.78449 1.02118e-21)
(12.5336 9.89327 -7.97254e-19)
(12.1125 9.97812 0)
(11.6848 10.0461 -6.35691e-19)
(11.2577 10.0914 1.22448e-18)
(10.8271 10.1203 -4.6182e-20)
(10.4011 10.127 5.24077e-19)
(9.97477 10.1124 -4.26738e-19)
(9.55075 10.0776 3.62761e-19)
(9.13122 10.0205 2.60258e-19)
(8.71297 9.94443 -5.72214e-19)
(8.29961 9.84928 2.40657e-19)
(7.89406 9.73453 1.54163e-19)
(7.49266 9.60152 1.63553e-19)
(7.10018 9.45076 -3.53135e-20)