/*--------------------------------*- C++ -*----------------------------------*\
| =========                 |                                                 |
| \\      /  F ield         | OpenFOAM: The Open Source CFD Toolbox           |
|  \\    /   O peration     | Version:  2.3.1                                 |
|   \\  /    A nd           | Web:      www.OpenFOAM.org                      |
|    \\/     M anipulation  |                                                 |
\*---------------------------------------------------------------------------*/
FoamFile
{
    version     2.0;
    format      ascii;
    class       volSymmTensorField;
    location    "5020";
    object      sigma;
}
// * * * * * * * * * * * * * * * * * * * * * * * * * * * * * * * * * * * * * //

dimensions      [1 -1 -2 0 0 0 0];

internalField   nonuniform List<symmTensor> 
11800
(
(160674 77907.4 7.72795e-14 -2875.56 4.09255e-14 39153)
(-79225 68018 1.18634e-13 -25.3881 3.76096e-14 -19663.6)
(730970 100843 -1.98147e-15 1556.82 -8.55781e-14 181755)
(-634001 50472.9 0 -2068.52 0 -157822)
(-82181.9 65679.2 2.21336e-14 -4670.88 -6.25192e-14 -21549.9)
(-396461 103870 8.57079e-14 2104.44 4.49469e-14 -97847.8)
(-73673.2 99546.7 1.62335e-13 -632.233 -4.22045e-14 -18436.7)
(-103937 103898 -2.41621e-14 812.396 9.71822e-14 -25587.2)
(223974 50576.4 3.20368e-14 479.77 -2.18646e-14 55691.6)
(153964 109305 -8.30569e-14 620.093 -6.99432e-14 38355.5)
(185437 63714.7 -6.44666e-14 2125.75 5.51705e-14 46538.1)
(-919630 36059.8 -7.69024e-14 -6745.25 -3.48811e-14 -229852)
(25420.1 -36922.1 1.37824e-16 -68506.4 1.07106e-16 -10690.6)
(676990 50943.1 6.96963e-14 4071.46 -1.90633e-14 168985)
(-540544 97378.3 -5.82135e-14 6463.85 4.52429e-14 -132516)
(2.48482e+06 -10177.4 0 -8384.85 0 614454)
(-48087.4 77277.2 5.49355e-14 4673.69 4.8427e-15 -10771.8)
(-74292.6 71314.2 -3.09835e-14 9117.31 1.77883e-13 -16171.3)
(155237 121952 -3.14304e-14 -20105.1 2.23284e-14 33528.9)
(117374 64743.7 -1.10534e-13 -13079.6 -3.57463e-14 25877.7)
(-497773 57412.7 3.44641e-14 -2162.56 3.61124e-14 -124044)
(-804576 91515.4 5.51173e-14 4166.54 -3.20415e-14 -198598)
(-1.04243e+06 115626 -2.76086e-14 12878.2 1.77353e-14 -255452)
(-956527 65333.5 2.76777e-16 274.068 4.7914e-15 -237266)
(2.02931e+06 86904.6 3.49914e-15 -8960.4 4.00215e-14 501290)
(-1.24578e+06 115563 -2.71222e-14 8903.98 -7.67954e-16 -306894)
(-1.3294e+06 61018.3 0 11770.1 0 -326931)
(656921 45204.9 -9.15294e-14 -5541.62 -5.52653e-14 161621)
(-1.44602e+06 62184.8 -1.56881e-14 12804.4 -7.55468e-14 -355609)
(-1.56245e+06 62530.2 2.09425e-14 15142.4 -3.25303e-14 -383918)
(429982 47372 -1.13464e-13 -2195.93 -2.03298e-13 106142)
(86134.1 60395.2 -1.80703e-14 2885.56 -1.49109e-14 22087.6)
(1.2733e+06 111661 -4.44223e-15 14706.8 -1.937e-14 319581)
(-31002.9 81348.6 1.48379e-14 -2261.95 -1.1108e-13 -8253.68)
(21945.8 86402.3 -3.92467e-14 1920.76 -1.68412e-13 5921.78)
(-419264 35134.2 -1.03024e-13 -1923.42 -7.48307e-14 -104505)
(24296.5 87746.6 1.39385e-13 1477.77 -1.65718e-13 6395.11)
(1.36488e+06 62875.5 -1.63195e-14 7326.61 -6.95805e-14 340472)
(-49814.2 85420.2 0 -1255.12 0 -12671.3)
(112016 80650.4 -4.79625e-14 6571.55 8.93283e-14 29424.1)
(-1.39676e+06 44619 -8.5027e-14 -7134.4 -3.9504e-14 -348334)
(-1.51928e+06 43895.6 6.08865e-14 -7626.51 -3.49264e-14 -378856)
(690637 61124.5 -3.53129e-14 -452.522 -1.17478e-13 171249)
(-1.64153e+06 44025.5 -1.15428e-14 -5689.16 -6.16984e-14 -408708)
(452083 59922.9 3.0157e-13 908.091 -9.4045e-14 112396)
(2.3242e+06 55142.9 0 -8166.06 0 574655)
(1.00101e+06 126911 -1.7447e-14 -3726.87 9.1248e-15 247446)
(1.19181e+06 43544.1 -3.08162e-14 -13052.8 -2.13789e-14 292472)
(-116886 88625.7 -1.1955e-13 873.721 -7.36347e-14 -28784.9)
(269039 85525.5 0 2586.92 0 67396)
(-955448 51264.9 -5.79662e-15 2585.97 6.12881e-14 -236424)
(-668655 47540.8 2.00411e-13 2973.28 2.34754e-14 -165169)
(-13678.5 85644.9 1.12421e-13 1374.37 6.99743e-14 -3052.9)
(49959.4 138866 -2.42001e-15 9138.45 2.10865e-14 14663.4)
(-2.67139e+06 4953.3 -3.69565e-15 -13787 -5.82333e-15 -666247)
(2.07861e+06 -96592.3 4.99029e-15 -95106.8 8.76656e-15 492148)
(-71040.1 20190.7 9.67664e-14 1918.63 3.5929e-14 -17150.5)
(-599383 102350 7.2138e-15 -6665.13 -5.97793e-14 -150373)
(481593 63519.9 -6.09794e-14 10091 8.93008e-14 121997)
(-423542 108140 4.9928e-14 -7878.8 -9.01378e-15 -107044)
(2.15364e+06 20313.3 -4.36426e-14 -16574.6 -1.51239e-14 530250)
(-58339.1 90227.9 4.75834e-14 1012.02 -7.74114e-14 -14224)
(-472078 83176.2 -2.74064e-14 -2838.94 4.70937e-14 -117837)
(378435 83375.6 8.32494e-14 3910.04 -4.74763e-14 94867.6)
(2.00295e+06 10709.6 4.7581e-15 -1202.81 -2.88577e-14 496675)
(-292549 33761.6 -1.36125e-13 1999.67 -1.64465e-13 -72091.3)
(-985147 21107.2 9.56796e-14 5236.61 3.18906e-14 -243136)
(-696841 24391.4 2.80384e-15 3924.61 -1.68052e-13 -171927)
(-73717.7 21669.8 0 -3782.49 0 -19229.4)
(-1.16135e+06 62265.2 -2.17927e-15 12137.2 7.09025e-14 -285144)
(-24259.6 86908.7 -2.72716e-14 -13.5416 5.62849e-14 -6022.66)
(-57930.3 67509.3 -1.0506e-13 -3289.34 1.17496e-13 -15189.8)
(-50746.3 66152.3 7.36829e-14 -1138.34 -4.50845e-14 -12873.6)
(-1.74594e+06 373957 -6.24019e-15 213458 5.61386e-15 -380239)
(2.1362e+06 74428.5 -1.71225e-15 -7417.25 -1.73233e-14 528195)
(-393850 54640.1 -1.0122e-13 2833.13 -7.36042e-14 -97019.3)
(2.10136e+06 11986.8 -3.67597e-14 4197.59 3.27128e-14 522432)
(-284023 19760.1 8.94883e-14 -451.064 -2.93539e-13 -70583.8)
(-210444 43914.2 1.6831e-14 -689.439 -1.60556e-14 -52386.6)
(-198378 58889.3 1.71847e-13 2084.58 1.72264e-13 -48704.4)
(-2.69085e+06 -52882.8 1.34645e-14 12084.6 6.33855e-14 -664657)
(119060 58098.9 0 9787.63 0 31969.7)
(62709.1 70238.2 -1.78643e-13 2162.73 -7.03635e-14 16096)
(43572 74995.4 6.19372e-14 887.75 -4.873e-16 11031.4)
(-93263.9 67215.8 4.22922e-14 -9618.34 1.19647e-13 -25527.2)
(-1.5233e+06 76522.6 -2.35467e-14 -8295.03 1.18413e-13 -380019)
(467311 54149.3 1.44136e-13 4902.13 -4.48148e-14 117166)
(-1.4062e+06 75002.1 0 -8134.35 0 -350924)
(-1.29029e+06 73574.6 -4.94492e-14 -7242.68 -5.06322e-14 -321945)
(694972 51413.8 6.60084e-14 6081.23 4.03653e-15 173946)
(-14492.1 85378.7 -2.32918e-13 -3189.63 -1.49329e-13 -4387.2)
(1.50617e+06 102826 0 -4795.23 0 372523)
(-124498 74391 -4.94166e-14 1896.64 -8.19032e-14 -30419.9)
(76868.7 15083.7 -2.84833e-14 5153.57 -4.13268e-14 20351.4)
(190419 76626.1 2.18334e-13 1706.35 3.91029e-15 47670.3)
(58807.1 -44343.7 -8.7719e-16 -124892 -6.50241e-16 -16396.9)
(-3117.93 12205 2.28531e-17 7331.15 -1.35962e-16 1045.39)
(-59416.1 -44105.7 -5.55615e-16 124675 3.70154e-16 16192.1)
(-14536.5 86727.2 -7.24138e-14 481.394 -1.05227e-15 -3487.35)
(-801614 56464.4 -1.77411e-14 -2998.67 7.06707e-14 -199641)
(55062.7 38820.4 3.97953e-14 -21.5112 -1.11274e-13 13656.8)
(874586 63900.8 -8.59217e-14 -7927.07 -1.18785e-13 215036)
(-1.42865e+06 117397 5.71081e-15 -815.762 1.16269e-14 -354679)
(-467151 77173.2 -3.53096e-15 7335.05 1.11315e-14 -114090)
(-2369.99 92582.4 -1.11732e-14 -926.433 -5.55736e-14 -817.91)
(373878 105863 -2.29114e-14 2681.46 -3.95716e-14 93432)
(-179444 77599.9 -6.83517e-14 -1011.74 1.50636e-13 -44774.8)
(-125621 80773.3 -2.31714e-13 -812.728 -1.11708e-13 -31370.7)
(2.12538e+06 19940 1.29079e-14 5464.49 2.68103e-14 528705)
(1.41982e+06 63276.6 2.11257e-14 5161.15 4.29843e-15 353566)
(1.53823e+06 64421.4 4.047e-14 5937.23 5.6265e-14 383140)
(1.30305e+06 62652.7 1.48365e-13 4590.94 8.78813e-14 324453)
(-472688 55987.1 6.75283e-14 -3998.09 1.0543e-13 -118275)
(-702512 55272.8 -1.7856e-13 -4850.85 6.41806e-14 -175511)
(255278 69602.8 7.599e-14 39.6644 -3.98188e-14 63349.4)
(1.91349e+06 35363.4 1.94098e-14 -166.516 1.14308e-14 474734)
(270553 31914.7 -5.56507e-14 -2978.44 -2.1876e-13 66390.8)
(-86065 80305.2 -1.93023e-13 763.433 1.80409e-13 -21165.1)
(1.79222e+06 79856.9 -2.22024e-14 1245.47 2.76518e-14 444996)
(-155193 113368 -6.23623e-14 -258.107 -1.67779e-14 -38570.6)
(-239215 43881.1 -4.26165e-14 3918.27 -1.79275e-14 -58382)
(75552.9 99535.6 1.38124e-13 -2583.78 -1.9767e-13 18105.1)
(108146 106881 -9.6189e-14 -2158.57 6.61395e-14 26297.5)
(-77473.7 81514 -2.80077e-14 4541.76 -4.13077e-14 -18095.9)
(-131349 70324.9 -1.75761e-13 -1514.36 -1.37103e-13 -32966.2)
(-3024.98 85181.7 -1.68933e-13 -2476.53 -1.27062e-13 -1365.04)
(-40126.4 84393.3 -1.01274e-13 -213.254 1.11222e-13 -10009.1)
(-9225.48 86771.3 -6.62056e-14 -2375.83 -6.30716e-14 -2878.52)
(9940.16 57900.6 3.14477e-15 41774.4 1.40868e-13 12831.4)
(-39812.4 4804.18 -4.54065e-16 -9202.84 6.6924e-14 -12161.7)
(-2.23988e+06 -362284 2.01165e-14 92070.5 -1.01385e-14 -532916)
(-1.62512e+06 77191.5 1.45602e-14 -12463.1 -2.22089e-15 -406317)
(510139 49611.6 7.62551e-14 3674.37 -7.43505e-14 127487)
(-1.51971e+06 79788.9 -5.84906e-14 598.831 3.67093e-14 -376923)
(741812 45635.3 -3.43098e-14 4197.13 1.03954e-13 185100)
(-1.40013e+06 77230.3 2.23228e-14 741.221 2.24292e-14 -347217)
(-1.28269e+06 75219 -1.28994e-13 1285.15 9.85189e-14 -317942)
(424672 70689.2 7.47068e-14 -5475.74 2.08085e-13 104011)
(-1.29927e+06 29578 7.99302e-14 8617.45 -1.09759e-13 -320238)
(621620 74665.1 9.26179e-14 -6755.65 -7.3727e-14 152560)
(-1.19778e+06 31177.1 6.62899e-14 7624.43 -1.14017e-13 -295302)
(-1.09784e+06 33270.6 -6.87236e-14 7459.83 -6.18627e-14 -270546)
(-608923 96147.1 5.11542e-15 18859.7 5.14124e-14 -146407)
(187998 81249.2 -3.7303e-14 -6106.2 -2.48282e-13 45131.1)
(269224 79342.1 -5.95803e-14 -8359.96 -1.72042e-13 64725.7)
(-392492 77541 -1.79069e-14 12425.3 1.03045e-13 -94302.3)
(1.58721e+06 49270 -1.13423e-13 2123.8 -3.82678e-14 394347)
(-1.63537e+06 -22966 1.0902e-13 -12861 3.36825e-14 -408960)
(921001 46135.5 7.67563e-14 -2698.53 -7.14809e-14 227849)
(-463322 44596.9 1.69869e-15 8317.25 1.00776e-14 -112896)
(-213407 77231.3 -9.67174e-14 2046.37 -7.98893e-14 -52442.9)
(-223699 63362.2 8.27695e-14 -3150.45 -7.48545e-14 -56286)
(23904.4 85946.3 6.29199e-14 1354.88 1.14878e-13 6267.35)
(-317995 55465.8 -1.41494e-13 -1267.89 1.46682e-13 -79215.7)
(275123 67551.6 -7.41467e-14 -4671.47 -7.83139e-14 67104.6)
(186784 76327.7 -6.79786e-14 2956.21 5.23773e-14 47078.3)
(-594209 63238.2 1.15038e-13 8178.68 -7.74123e-14 -145406)
(-832940 70461.2 4.1756e-14 3540.05 9.13859e-14 -205791)
(1.67865e+06 19509.5 2.56278e-14 1927.96 -3.34542e-16 416985)
(-7828.43 90599.6 3.30304e-14 -842.254 -1.60595e-13 -2151.37)
(2.41941e+06 86137.6 -2.97569e-14 -14601.6 -1.6206e-14 596683)
(-261739 69311.2 -1.22218e-13 921.038 8.41867e-14 -64714.3)
(2.11567e+06 55021.4 0 -21429.4 0 519623)
(-607794 70421.3 3.57946e-14 -6305.29 1.49482e-13 -152371)
(-662765 70226.4 -3.67014e-14 -7091.68 4.35079e-14 -166205)
(-717148 71070.2 -5.96416e-15 -7318.33 1.57129e-13 -179755)
(336081 78404.6 -9.05412e-14 1140.24 2.22597e-14 83671.5)
(228448 79651.2 -9.66486e-14 728.793 2.38516e-14 56863.4)
(-2.62732e+06 -22923.9 2.3575e-14 -9805.58 -1.34368e-14 -654326)
(-1.64589e+06 75790.2 -2.43812e-14 -9667.1 4.58999e-14 -410776)
(582210 53338.8 -9.64594e-14 5273.87 -5.64344e-14 145767)
(809846 50438.2 2.70706e-13 6447.29 -1.45452e-13 202539)
(90135.3 87009.7 5.3036e-14 -8632.88 -1.37075e-13 20222.4)
(-473087 38974.3 0 1675.86 0 -116967)
(-478799 20636 1.4507e-13 -3410.05 -7.37287e-14 -119646)
(2.31882e+06 60972.6 3.87351e-14 -16305.5 2.58234e-14 571301)
(2.37288e+06 -16340.3 3.21189e-14 14600.6 2.83544e-14 592384)
(1.25509e+06 23997.5 2.00466e-15 -1329.27 6.80498e-14 311084)
(1.15322e+06 26620.1 1.39999e-14 -1011.46 1.6541e-13 285886)
(1.3585e+06 21276.1 3.51087e-14 -2498.41 -5.07576e-14 336450)
(-593347 76728.3 -8.74763e-14 4951.7 7.86827e-14 -145993)
(-393200 71733.8 -8.48978e-14 3851.5 9.30835e-14 -96605.4)
(258785 102775 0 2134.14 0 64739.3)
(176888 98636 -3.52285e-15 767.084 1.34937e-13 44079.7)
(564093 76181.9 -1.03791e-13 -105.692 8.48443e-14 139937)
(-237695 71871 -8.30098e-14 3181.81 1.96718e-13 -58187.4)
(-368062 107861 -1.63632e-14 4657.54 7.22662e-14 -90168)
(114831 78650.8 -3.09281e-13 -863.158 -8.20424e-14 28277.7)
(163849 75326 -2.13782e-13 -1205.61 8.94188e-14 40355.2)
(-99607 90636.4 -4.17077e-14 2296.22 -5.83408e-16 -24144.8)
(-280382 58190.3 -3.43295e-14 6227.18 -2.14224e-14 -68023.3)
(-258233 59871.3 2.27086e-14 5519.38 -3.87527e-14 -62703.4)
(-260293 42993 0 -393.312 0 -64681.7)
(-123529 111380 4.66796e-16 -5621.95 -4.47626e-14 -32044.9)
(-1.20858e+06 1797.46 1.01216e-13 -7333.93 -4.43179e-14 -301693)
(1.51588e+06 59132.7 -1.31323e-13 -6843.84 -1.32445e-14 374422)
(1.83721e+06 185581 7.74204e-15 -313121 3.90868e-15 378157)
(-43733.8 75158.3 2.76194e-14 -3868.92 -6.25823e-14 -11811.2)
(282328 25425.4 1.00791e-13 2563.01 -2.30049e-13 70687.3)
(-2.2988e+06 -288821 1.93369e-14 186150 -1.24628e-14 -524192)
(131497 59579.8 4.31284e-15 3887.72 1.16906e-13 33591.8)
(361379 42118.4 8.13605e-14 789.422 -9.33811e-14 89861.3)
(399412 46344.8 1.13606e-13 -5742.92 -4.79215e-14 97677.3)
(-5053.45 89259.8 8.55811e-14 -111.064 -1.26877e-14 -1281.42)
(-5716.97 92445.4 9.02731e-14 -655.773 7.63104e-15 -1581.21)
(1.09727e+06 34038.1 2.88048e-14 -5379.87 9.5677e-14 270921)
(909693 98539.5 3.65672e-14 8255.35 -8.81332e-15 227762)
(-827834 81503.7 0 8274.42 0 -203349)
(-707491 42363.4 -9.31876e-14 -10862.1 -5.82736e-14 -178238)
(2.23513e+06 -366082 -8.11811e-15 -94377.3 -5.46679e-15 531164)
(-689845 125225 -7.42889e-15 19130 8.63657e-14 -166418)
(-1.1016e+06 39798.6 5.09537e-14 -2471.27 -3.00036e-14 -273944)
(-2.32931e+06 -938160 -2.1829e-14 487866 8.52924e-15 -456900)
(2.80783e+06 1831.01 0 38327.2 0 706189)
(-2.03979e+06 -868767 -7.10291e-15 229990 2.19587e-15 -449048)
(360502 124156 -4.85404e-14 -99.6267 1.70925e-14 89423.2)
(-80669.6 72199 -8.72883e-15 -770.963 1.22019e-13 -20207.1)
(-1.06519e+06 91159.9 4.32393e-14 -9026.9 -4.75195e-14 -266535)
(-975896 91588.2 6.44813e-14 -8097.32 -8.05354e-15 -244149)
(-895863 89495.6 -7.36244e-14 -7287.03 2.86469e-15 -224090)
(318432 62973.7 6.47424e-14 4183.93 -1.80592e-13 80047.5)
(479092 60286.4 -1.62443e-13 5365.44 1.57884e-13 120204)
(47215.8 78280.8 -2.55482e-14 -8227.66 1.19869e-13 9673.76)
(67522 73864.5 6.04508e-14 -11298.4 7.74177e-14 13950.2)
(-152198 118275 -6.8456e-14 25145.5 1.85114e-14 -31524.2)
(-97779.8 68633.2 5.13403e-14 16898.7 -6.56439e-14 -20068.2)
(-1.27682e+06 -513860 -5.50097e-15 -31706.9 1.14932e-15 -324673)
(241524 119468 -3.89324e-14 18354.3 -1.37816e-13 64481.1)
(-120111 70429.5 -1.34961e-13 -9475.84 -6.1676e-14 -32153)
(-564222 113304 0 126.289 0 -139964)
(241119 64307.9 1.0317e-13 1462.36 -4.20848e-14 60189.5)
(-118897 96901.6 0 -636.614 0 -29658.7)
(-88549.1 76341.9 -6.57278e-14 -1029.56 -1.04074e-13 -22226.3)
(843717 80592.2 9.17999e-14 4775.65 -9.60018e-14 210528)
(866721 49636.7 1.40593e-13 73.5278 6.71325e-14 215069)
(2.32758e+06 -937499 -8.17079e-15 -488336 -2.70107e-15 456353)
(1.27554e+06 -513848 9.54331e-15 31535.4 2.61709e-15 324313)
(-261591 55171.2 2.00359e-14 2081.29 2.85035e-14 -64389.7)
(-279117 55974.4 -6.08713e-14 -3029.2 -1.2443e-13 -70006.2)
(-1.50066e+06 -1146.7 -6.67961e-14 -5620.59 -1.52933e-14 -373738)
(1.21815e+06 54351.5 1.51433e-13 -4075.48 -3.95412e-14 301236)
(393376 72406.9 5.03882e-15 -3333.25 2.7561e-13 96777.6)
(592895 78371.9 9.36424e-14 -4035.58 1.01777e-13 146108)
(-1.35859e+06 21610.8 -2.47246e-15 -926.022 5.78088e-14 -337324)
(-1.25756e+06 26061.4 -5.88875e-14 -974.536 1.94701e-14 -312268)
(-1.15522e+06 28728.5 -3.96859e-15 -1046.56 9.15126e-14 -286894)
(-17783.3 91872.6 -1.42486e-13 -886.05 4.11982e-14 -4632.25)
(-1.4701e+06 23875.3 3.81535e-14 -2241.73 4.10199e-14 -365317)
(495026 73173.9 -9.59757e-14 -3372.16 4.70663e-14 121989)
(695461 77638.4 0 -3727.56 0 171633)
(655709 57384.5 3.65337e-14 -4900.26 8.71044e-14 161479)
(126187 76671.2 -1.20419e-13 554.306 -3.18217e-13 31447.2)
(11075.1 78377.4 -1.05518e-13 -9276.39 -3.87902e-14 446.3)
(532494 39807.1 -1.32752e-13 16541.1 2.37397e-14 136227)
(-454920 59906.2 -1.14284e-14 -1275.06 -9.25421e-14 -113191)
(72118.6 79778.4 1.54909e-15 -17012.1 1.92427e-14 13673)
(2.03746e+06 -868805 -7.39279e-15 -230993 -1.85949e-15 448222)
(324705 84995.7 9.47039e-15 -2671.42 -1.75725e-13 79903.1)
(391171 82585.2 8.18352e-14 375.946 2.78249e-14 97150.6)
(-256133 81465.2 0 -736.601 0 -63734.6)
(-304294 92035.4 3.05841e-14 -7911.72 -8.50737e-14 -77464.7)
(900043 89268.9 0 8177.91 0 225348)
(980405 91480 5.39169e-14 8970.13 5.11225e-14 245484)
(1.06004e+06 95122.5 -1.20516e-13 9363.68 -1.16584e-14 265340)
(-478797 57236.6 1.71468e-13 -6133.12 1.74132e-13 -120321)
(-321714 61920 9.01712e-15 -4443.29 -1.04255e-13 -80926.2)
(-17002.5 87347.7 1.01496e-13 -660.709 5.4016e-14 -4382.61)
(2.1024e+06 11111.4 -1.55784e-14 -33259.6 -2.83794e-14 513396)
(-13058.2 103802 -1.09607e-13 -6411.54 3.41397e-14 -4830.85)
(28159.1 49628.1 -1.04185e-13 12790.6 -6.47991e-14 10160.4)
(47390 82797.7 7.88629e-14 1448.62 -1.82948e-13 12117.9)
(509839 84152.6 8.38115e-14 570.12 8.85159e-14 126643)
(-198244 3312.51 -1.39573e-13 -3226.77 6.83518e-15 -49989)
(674406 93916.6 0 -4148.02 0 166305)
(2.20682e+06 -97045.7 3.58013e-16 -305924 1.43812e-16 471652)
(506159 21762.9 8.05842e-14 7544.73 1.83185e-13 127460)
(486728 35213.3 3.65196e-14 -7040.99 1.9895e-14 119020)
(-733369 80499.9 1.19876e-14 6716.43 2.53128e-14 -180297)
(-521400 75030 -9.35097e-14 5764.93 2.9947e-14 -127940)
(-624773 48579.8 -1.91064e-13 -3173.22 -3.34066e-14 -155806)
(-447763 53623.3 9.65199e-15 -3256.52 -1.01448e-14 -111907)
(1.54329e+06 19257.4 -6.62517e-15 -4129.8 2.18352e-14 381896)
(1.27834e+06 101230 2.71797e-15 -521.936 -4.51607e-14 317052)
(370402 92827.6 1.69109e-14 -4560.57 9.99911e-15 90772.7)
(498053 76321.9 3.17523e-14 -341.22 5.39829e-14 123492)
(273072 91645.7 8.83802e-14 -4471.21 6.2948e-14 66645.3)
(365679 76669.9 7.92471e-14 -1389.39 -1.25384e-14 90387.7)
(-697766 52501.2 -1.45202e-14 7235.06 3.639e-14 -171335)
(-918433 84806.8 -4.02547e-14 2664.88 7.23535e-15 -227221)
(-208784 135122 4.46049e-14 -762.641 3.18097e-14 -51992.8)
(1.50809e+06 59311.1 4.97835e-14 5936.93 3.56843e-14 375660)
(1.63505e+06 58855.5 -1.07764e-14 26549.8 5.34763e-15 412276)
(1.93755e+06 60431.9 8.75342e-15 -2129.11 5.50882e-15 480218)
(136079 85851.6 -1.72037e-13 -621.664 2.08825e-13 33609.8)
(-499460 22788.8 -1.06585e-13 -7126.13 -5.47866e-14 -125694)
(-483431 38304.6 -1.35251e-13 4009.72 9.04358e-14 -118954)
(2.27158e+06 -10810 0 14276.4 0 567166)
(2.27821e+06 68638.7 0 1725.62 0 565699)
(1.3702e+06 53140.4 2.08784e-14 -1838.42 9.92176e-14 339518)
(1.3582e+06 6768.82 6.64783e-14 5491.37 -1.86916e-13 338359)
(-1.41005e+06 9939.8 0 -10433.2 0 -352450)
(-1.37522e+06 53693.1 0 9327.71 0 -338907)
(39228.5 82814.2 -2.37072e-14 2352 6.78763e-14 10317)
(-95065.4 33685.9 2.53689e-13 -5310.97 -1.07337e-13 -24905.4)
(-369793 35449.8 -6.68945e-14 -3610.74 -2.46742e-14 -92649.1)
(2.95824e+06 3464.6 0 59791.5 0 748834)
(-52094.9 72088.6 -1.67302e-13 -927.01 -4.16983e-15 -13155.8)
(-62095.3 74889.2 -2.4097e-14 -4718.28 -1.33965e-13 -16577.8)
(329465 100448 -8.62162e-14 -7559.05 -5.90662e-14 79871.4)
(-259454 98224.4 -1.79571e-13 -7882.79 7.51701e-14 -66331.8)
(315230 58723.2 5.20711e-14 -8371.54 -5.3838e-14 76137.9)
(-1.20471e+06 50236.6 3.69615e-14 -11075.2 -7.51888e-14 -301660)
(1.21536e+06 55329.3 -1.53703e-14 -12474.4 -9.19301e-14 298461)
(-2.02627e+06 84002.2 1.58816e-14 -12585.8 -6.76509e-14 -505881)
(-2.38019e+06 -218501 8.33685e-15 438481 -5.97244e-15 -481777)
(835566 107464 -1.3294e-14 -17480.1 1.6488e-14 202984)
(96428.2 108792 -8.90191e-15 -5149.8 5.01053e-14 22648)
(-1.13671e+06 89020.9 -4.4561e-14 -4922.39 -1.24916e-13 -283262)
(956920 27415.4 -5.80926e-14 12427.7 8.37801e-14 240515)
(-661107 53305.2 6.40146e-14 -11370.7 8.20837e-14 -166855)
(517419 87778.4 9.63156e-14 6385.26 1.69068e-15 129966)
(97060 94041.6 2.69035e-14 5924.17 1.2584e-15 25552.5)
(165269 71668.9 -1.13776e-13 -848.919 1.42827e-13 40796.1)
(-327112 61296.9 7.77321e-14 -20817.9 -8.25068e-14 -86328.4)
(-529835 126816 1.25681e-15 9106.71 1.03907e-13 -129203)
(-300731 62711.2 1.20027e-14 -19232.7 -8.35479e-14 -79389.4)
(-486795 122855 7.59033e-14 8353.92 -2.77298e-14 -118711)
(121005 49690.9 -4.74804e-14 -3532.6 1.47381e-14 29147.4)
(-57278.8 105282 -1.2639e-15 2781.33 -9.38459e-14 -13521.9)
(-37418.6 102768 1.16509e-13 2786.02 9.34141e-14 -8593.04)
(-24966 90555.8 5.99814e-14 968.937 -1.30546e-13 -5954.15)
(1.60527e+06 40924.8 3.41546e-14 4508.44 5.29849e-15 399418)
(-16583.9 105355 -1.31625e-13 -7652.02 -5.84843e-14 -6013.42)
(-63478.2 74557.8 6.51234e-14 -4318.63 -2.17973e-13 -16821.8)
(2.22692e+06 -68545.4 -1.69161e-14 -114719 -1.23082e-14 524081)
(376794 61063 6.93776e-14 -5469.28 -8.89777e-14 92133.2)
(-867321 108337 4.61059e-14 15743.1 1.24371e-14 -211294)
(-1.00188e+06 69693.8 -7.56625e-14 2028.92 -3.30973e-14 -248084)
(-994507 29924.9 0 -12224.6 0 -249790)
(1.2512e+06 16495.2 -6.80727e-14 5868.74 -3.2363e-14 311905)
(1.19882e+06 78855.2 4.1814e-15 10130.5 8.10413e-14 299964)
(-37750.4 61588.9 -7.70299e-14 744.794 6.27639e-14 -9181.85)
(-28742.4 62075.8 5.58782e-14 1603.67 -3.12341e-13 -6733.68)
(-772808 115763 -3.03811e-14 8948.81 -7.41297e-16 -189529)
(-1.0411e+06 80968.5 0 13154.6 0 -255055)
(733630 48180.6 1.66132e-14 8106.53 4.07524e-14 184040)
(-1.89345e+06 103048 7.26929e-15 -9061.48 -2.29078e-14 -472051)
(68101.6 72257.1 0 17407.7 0 21216.6)
(1.05441e+06 41550.2 -3.60098e-15 -3183.64 2.50059e-14 260832)
(800144 112471 -1.95102e-15 6789.39 9.45762e-17 200217)
(-507375 92741.9 1.43129e-13 4632.7 -1.84032e-14 -124740)
(-393862 61828 -1.399e-14 -4007.16 1.00816e-13 -98719.3)
(-361887 88096.7 2.21604e-14 3926.63 -8.41719e-14 -88817.2)
(-283840 66242.2 -1.25257e-15 -3326.28 4.94504e-15 -71251.9)
(-401766 40870.3 5.18094e-14 -92.372 7.64922e-14 -99709.3)
(-339141 46655.5 -9.06269e-14 2573.34 1.82304e-14 -83509.3)
(-414963 113117 0 1045.86 0 -102701)
(-465405 113980 -4.54782e-14 -1124.36 3.94909e-14 -115755)
(-505575 117265 -3.70798e-15 -1300.25 -4.22575e-15 -125766)
(138719 72198.5 -2.23072e-13 1290.13 -1.11487e-13 34739.1)
(-27577.2 86108.7 -4.95148e-14 -2361.01 9.85183e-14 -7428.27)
(1.00284e+06 42845.9 -2.78215e-14 6083.63 7.93112e-14 250335)
(1.05006e+06 59144.7 3.85393e-14 -6782.22 -7.49232e-14 258857)
(173217 75768.4 8.02531e-15 1710.86 -5.55847e-14 43403)
(254548 69374.4 0 3018.93 0 63907.6)
(-545493 111872 5.6752e-14 -3224.33 -6.23198e-14 -136148)
(485512 65577.3 -1.08504e-13 5020.1 -1.38044e-15 121711)
(530178 99592 -4.74983e-14 5812.36 -2.94236e-15 132990)
(-195312 83762.8 -9.1662e-14 -429.803 1.31315e-13 -48567.6)
(-166801 87808.9 5.34749e-14 -1754.28 3.13577e-15 -41822)
(-238768 92227.7 8.66049e-14 -1332.43 3.07944e-14 -59573.8)
(-265046 78616.7 0 -3239.98 0 -66567.2)
(-1.14501e+06 43367.5 2.52861e-14 -157.002 -3.85324e-14 -284140)
(535291 81012.3 -4.19754e-14 -1185.1 -1.65804e-13 132522)
(380045 78123.8 -1.92257e-14 -1281.07 -2.74755e-15 93978.9)
(-122180 217125 -1.15249e-14 23786.4 -8.21055e-15 -24413.6)
(1.38632e+06 34856.3 -8.79487e-14 -9971.77 -5.26682e-14 341501)
(-1.61661e+06 8576.62 7.60321e-14 2286.29 4.54859e-14 -400546)
(-181958 200480 0 -7690.73 0 -47055.6)
(-190473 80881.9 3.20452e-14 2064 9.66963e-14 -46748)
(-160676 85557 -2.41034e-13 3685.62 -6.11239e-14 -38952.4)
(-278257 80522.1 1.03917e-13 1756.25 1.1614e-15 -68605.5)
(-239589 88739.7 0 3216.08 0 -58648.9)
(544631 63473.5 5.26626e-14 -4824.59 -8.47505e-14 133937)
(625207 90715.5 1.92422e-14 -3761.56 8.15173e-15 154193)
(508826 67972 -3.92257e-14 -9857.21 3.75372e-14 123804)
(593168 94021.6 4.19215e-14 -6882.52 1.15678e-13 145469)
(467321 68439.8 3.29093e-14 -9035.5 5.51727e-14 113710)
(544646 92551.8 -7.14621e-14 -6386.56 4.08189e-14 133553)
(427777 39934.2 3.27042e-14 -328.233 1.23443e-13 106059)
(412748 22346.2 9.61599e-14 1902.78 2.05809e-13 102883)
(-810818 88676.5 -1.81907e-14 817.717 2.38557e-14 -200977)
(386905 86169.6 -9.95593e-14 -4806.83 -2.42237e-15 94806.3)
(-914654 63070.3 0 7759.12 0 -225019)
(1.58221e+06 95431.1 5.3324e-14 -13376.4 -3.35294e-14 389259)
(-805076 38619.2 1.00296e-13 3051.82 -1.64682e-13 -198999)
(-585644 45011.4 1.21165e-13 1029.89 -8.14002e-14 -145055)
(-1.75751e+06 -830876 -6.76044e-15 278895 1.51234e-15 -366873)
(52221.4 80512.6 1.35386e-13 78.5011 -3.5536e-14 12976.7)
(1.67784e+06 50978 -1.78272e-14 -3905.38 -9.08314e-16 415336)
(-822391 61453.3 -2.80457e-14 3099.44 -8.13361e-14 -203283)
(-590758 59168.1 1.75521e-13 2863.71 8.63403e-14 -145868)
(2.48549e+06 -20755 2.8897e-14 -5508.81 1.28623e-14 615333)
(-112614 71417 -1.94168e-14 -1911.88 7.78584e-14 -28416.1)
(1.7258e+06 10910.9 4.42813e-14 4992.18 -2.74985e-14 429445)
(-406882 62579.2 6.07479e-14 1542.23 -1.07049e-13 -100573)
(-1.41943e+06 93422.2 3.58759e-14 14520 -4.67683e-15 -348586)
(-1.33406e+06 57927.1 -2.19136e-14 -7864.11 -1.66175e-15 -332959)
(1.29449e+06 59532.6 -4.14709e-14 2161.01 2.70908e-14 321726)
(-166334 84843 -2.64745e-13 6586.93 -1.20453e-13 -39636.5)
(-3844.11 -44609.8 2.75157e-16 -69935.4 9.7796e-17 -18306.2)
(-19842.5 76202 0 3070.89 0 -4161.39)
(-2.33274e+06 -745907 1.11054e-14 292546 -3.06234e-15 -506213)
(1.75477e+06 -830880 1.31553e-14 -281611 4.13916e-15 365521)
(-1.13886e+06 97950.6 4.64867e-14 -9307.04 -4.5041e-14 -284884)
(397967 59688.7 2.02945e-14 3930.06 7.82789e-14 99718.9)
(554227 55044.6 -6.51894e-14 5272.64 1.48393e-13 138823)
(158508 79386 1.30705e-13 -1215.48 3.89077e-14 39027.4)
(-296902 14127.3 7.57464e-14 -58.9206 -1.16444e-13 -73682.1)
(269520 105396 -6.28575e-14 -1755.58 5.75036e-14 66437.8)
(-136277 62395.9 1.85697e-14 776.613 2.84609e-14 -33620.5)
(-121289 113424 1.32098e-14 4906.2 3.82619e-14 -28876.9)
(-1.91763e+06 -1060.19 -6.10874e-15 51718.9 1.44325e-14 -462970)
(15636.1 -26548.8 7.22181e-17 -46357.3 4.48231e-17 -7622.55)
(-675758 104994 -2.80109e-16 8445.65 5.25371e-15 -165574)
(532849 56723.6 4.71916e-14 -3542.22 1.46083e-13 131332)
(1.98615e+06 -384834 1.17077e-15 -52141.7 1.5098e-15 479867)
(-60356.1 61967.5 -1.21128e-14 -10590.3 -9.41315e-14 -17603.2)
(-67561.4 107836 9.60959e-15 -4900.13 9.18963e-14 -17979.2)
(-38236.2 93762.3 -1.64414e-15 83.2301 -1.40661e-13 -9466.53)
(-98202.4 77582.9 -2.58832e-14 4002.23 3.52424e-14 -23373)
(45192.3 92397 4.21457e-14 -1709.16 1.08873e-13 10789)
(29672.9 94138.7 -9.91004e-14 -128.018 -3.23404e-14 7330.68)
(-1.98959e+06 -382389 4.97047e-15 50300 -1.53772e-15 -481178)
(707628 96044.2 -3.81665e-14 2696.49 2.06265e-14 176246)
(-248695 78081.5 -2.65312e-13 -1085.35 -7.52495e-14 -61975.6)
(840765 82034.8 1.37308e-13 5308.98 -2.32442e-13 209928)
(773201 81230.3 -1.74063e-15 4708.81 -8.92733e-14 193015)
(708511 78886.8 -2.55701e-13 2610.04 3.85413e-14 176444)
(121935 43670.9 -1.29656e-13 3930.76 -4.84913e-14 31229.9)
(-1.64082e+06 31202.8 6.8965e-14 -4117.56 -6.6852e-14 -408143)
(522428 62413.5 1.40572e-13 -2996.98 1.51667e-14 128881)
(743150 65086.4 -6.36316e-14 -2988.11 -9.09541e-14 183649)
(-141284 77471.8 -2.24712e-13 -309.303 -3.78718e-14 -35132.1)
(1.04199e+06 104914 1.45218e-14 -13774.2 2.09112e-14 255121)
(202064 59468.2 -9.0923e-14 599.117 6.15673e-14 50284.9)
(-2.08338e+06 21799.2 -2.32198e-14 -2715.74 -8.56876e-15 -517602)
(61212.9 79403.6 -1.1726e-13 1808.32 -9.86122e-14 15636.8)
(-177487 85418.9 -2.33147e-13 1229.93 1.10051e-13 -43733)
(604039 63957 1.74613e-13 814.69 -2.50981e-14 150076)
(555504 64739.1 1.6341e-13 536.706 3.97594e-14 137965)
(508473 63461.3 -1.18596e-13 -1435.32 3.26535e-14 125806)
(1.08565e+06 44633.2 1.7473e-14 24.7102 3.65681e-14 269379)
(242557 85886.2 -7.86771e-14 3464.2 -1.68525e-13 61042.8)
(-603171 69102.6 5.31839e-14 -9372.76 1.18529e-15 -151984)
(-468960 127979 3.2328e-14 4259.12 3.6004e-14 -115302)
(-264935 50910.2 0 2032.3 0 -65231.5)
(-842981 95757.6 -7.18957e-14 -9710.4 2.18824e-14 -211570)
(-919624 98130.2 -1.08004e-13 -10780.6 -7.12225e-15 -230852)
(-997820 101429 -1.0768e-13 -12144.2 5.18456e-14 -250593)
(478588 63362.6 2.23396e-15 7838.44 2.7668e-14 120692)
(326591 68377.8 3.5048e-14 5724.29 -4.38639e-14 82454.1)
(82673.7 5610.28 -1.01888e-13 4242.61 3.67462e-14 21565.7)
(167729 66276.5 0 -1764.41 0 41179.1)
(215113 53034.1 -1.19324e-13 2185.09 7.11991e-14 53916)
(2.40624e+06 -120345 -6.24945e-15 -313613 -3.00798e-15 519224)
(936395 43346.2 1.17034e-13 1746.36 -1.20089e-13 232772)
(-719600 87249.4 0 1544.05 0 -178164)
(-502494 78410.3 -5.80291e-14 9891.05 -2.54497e-15 -122225)
(404948 82695.4 3.10287e-14 -4036.56 -3.83645e-14 99474.3)
(-128902 98985.3 5.18618e-14 -2874.58 4.25357e-14 -32696.5)
(-15416 94629.5 1.53079e-13 -3417.23 -1.20572e-13 -4672.92)
(43258.2 67170.3 1.21538e-13 10455.5 -1.92206e-14 13327.5)
(47178.9 66137 -6.35113e-14 11467.6 -5.91053e-14 14551.4)
(-4070.39 121088 -3.17894e-15 -2990.93 -2.60209e-14 -1752.06)
(-11319.7 62451.3 -2.8513e-14 -1061.5 9.58549e-14 -3072.03)
(854.216 72923.8 -1.06902e-13 347.924 7.96377e-14 298.275)
(14575 75179.5 1.0218e-13 -14752.6 -4.63989e-14 -44.0725)
(178465 50911.8 -7.83231e-15 2546.42 -3.68143e-14 44912.5)
(-325549 121031 -1.83731e-15 2111.33 -1.76968e-14 -80251.6)
(106246 75743.3 2.56241e-13 1656.65 -5.03985e-14 26772.9)
(16617.9 117208 1.05425e-14 -19384.3 1.4988e-14 -686.406)
(-692704 119731 -2.63507e-14 -3069.07 -1.5801e-14 -172636)
(889594 53318.7 8.75666e-14 3786.47 7.80423e-14 221666)
(-383026 88991.5 -9.85902e-14 -470.243 3.22409e-14 -95153.1)
(-1.59229e+06 282436 -4.54459e-15 279373 2.71353e-15 -325760)
(-235852 48457.2 7.02469e-14 -1934.32 7.62508e-14 -58999.7)
(-386213 121512 0 3897.51 0 -94860.4)
(115250 76428.5 1.36749e-13 722.344 -1.88825e-13 28775)
(179674 69827 7.22939e-15 -451.86 2.34622e-14 44468.8)
(1.75027e+06 -387061 -1.40767e-15 56260.1 2.45484e-16 448238)
(-2.43385e+06 8183.2 -1.94281e-14 14508.3 8.92686e-15 -600287)
(769824 62225.7 4.30324e-14 4127 3.61355e-14 192033)
(837489 61396.8 -4.35109e-14 4466.23 9.47816e-14 208906)
(-252930 84582.4 -3.24494e-13 677.755 -1.15823e-13 -62588.9)
(178867 108295 5.6949e-14 11956.8 1.12177e-13 47347.3)
(-38667.4 72305.7 9.12981e-14 -2722.17 1.38872e-13 -10269.6)
(-991499 -644068 -1.20432e-15 74609.1 5.06913e-16 -227499)
(-2.37493e+06 78498.7 6.35879e-15 1810.3 8.2193e-15 -588818)
(2.10397e+06 37366.1 3.45361e-14 3909.79 -1.6998e-14 523009)
(-3.0378e+06 -53425.2 -8.94252e-15 -7936.02 -3.84686e-15 -755709)