/*--------------------------------*- C++ -*----------------------------------*\
| =========                 |                                                 |
| \\      /  F ield         | OpenFOAM: The Open Source CFD Toolbox           |
|  \\    /   O peration     | Version:  2.3.1                                 |
|   \\  /    A nd           | Web:      www.OpenFOAM.org                      |
|    \\/     M anipulation  |                                                 |
\*---------------------------------------------------------------------------*/
FoamFile
{
    version     2.0;
    format      ascii;
    class       volScalarField;
    location    "0.55";
    object      k;
}
// * * * * * * * * * * * * * * * * * * * * * * * * * * * * * * * * * * * * * //

dimensions      [0 2 -2 0 0 0 0];

internalField   nonuniform List<scalar> 
9648
(
2.701
2.71239
2.71134
2.70839
2.70239
2.69235
2.67842
2.66072
2.63907
2.61342
2.58381
2.55046
2.5138
2.47438
2.43284
2.3899
2.34629
2.30269
2.25971
2.21786
2.17756
2.13914
2.10284
2.0688
2.03712
2.00783
1.98093
1.95639
1.93414
1.91411
1.89624
1.88042
1.86658
1.85463
1.84448
1.83606
1.82928
1.82409
1.82042
1.8182
1.8174
1.81797
1.81988
1.82309
1.8276
1.83339
1.84049
1.84891
1.85869
1.86985
1.88246
1.89655
1.91218
1.92935
1.94808
1.96826
1.9896
2.01161
2.03383
2.05584
2.07726
1.71285
1.71701
1.71901
1.72053
1.7235
1.73078
1.74452
1.76596
1.79493
1.83138
1.87504
1.92529
1.98127
2.04199
2.10644
2.17365
2.24272
2.31281
2.38326
2.45351
2.5231
2.5917
2.65908
2.72508
2.78959
2.85263
2.91422
2.97443
3.03328
3.09088
3.14737
3.20281
3.25731
3.31099
3.36393
3.41617
3.46786
3.51909
3.56986
3.62016
3.67009
3.71975
3.76912
3.81818
3.86703
3.91552
3.96368
4.01162
4.0594
4.10686
4.15396
4.20056
4.24674
4.29214
4.33701
4.38111
4.42462
4.46685
4.50804
4.54824
4.5875
1.39573
1.44337
1.49654
1.55564
1.62265
1.69877
1.78348
1.8764
1.97663
2.08346
2.19556
2.31199
2.4316
2.55321
2.67572
2.79806
2.91934
3.0387
3.15547
3.26912
3.37922
3.48554
3.58789
3.68622
3.7806
3.87113
3.95801
4.04135
4.12141
4.19839
4.27249
4.34396
4.41304
4.47987
4.54465
4.60758
4.66879
4.72846
4.78667
4.84353
4.89915
4.9536
5.00703
5.05948
5.11094
5.16142
5.2109
5.25946
5.30696
5.35341
5.39878
5.44313
5.48667
5.5287
5.57017
5.61005
5.64909
5.68621
5.72263
5.75792
5.79216
1.31244
1.40388
1.50542
1.61645
1.737
1.86703
2.0059
2.15243
2.30507
2.46236
2.62262
2.78445
2.94638
3.10726
3.26585
3.42111
3.57221
3.71841
3.85919
3.99415
4.12306
4.24572
4.3622
4.47261
4.57718
4.67619
4.76998
4.8589
4.94324
5.02335
5.09963
5.17238
5.24197
5.30869
5.37276
5.43449
5.49408
5.55173
5.6076
5.66186
5.71465
5.76615
5.81643
5.86565
5.91381
5.96097
6.00718
6.05245
6.09673
6.14
6.18242
6.22362
6.26385
6.30291
6.3413
6.37849
6.41451
6.44936
6.48309
6.51575
6.54714
1.34531
1.4743
1.61699
1.77161
1.93704
2.11251
2.29659
2.48734
2.68281
2.88084
3.07945
3.27678
3.4714
3.66202
3.84748
4.0266
4.19865
4.36312
4.51959
4.66796
4.80809
4.93994
5.06371
5.17961
5.28815
5.38982
5.48508
5.57441
5.65821
5.73692
5.811
5.88093
5.94718
6.0101
6.06997
6.12717
6.18198
6.23453
6.28508
6.3338
6.38089
6.42653
6.47094
6.5142
6.55638
6.59753
6.63771
6.67694
6.71529
6.75256
6.78891
6.82423
6.85837
6.89138
6.92342
6.95459
6.9846
7.01353
7.04129
7.06775
7.09295
1.43162
1.59371
1.77275
1.96611
2.17142
2.38697
2.61058
2.83982
3.07204
3.30453
3.53505
3.76129
3.98196
4.1956
4.40147
4.59817
4.78491
4.96162
5.12782
5.28386
5.42981
5.5655
5.69149
5.80787
5.91554
6.01525
6.10759
6.19331
6.27254
6.34596
6.41423
6.47765
6.53714
6.59303
6.64554
6.69516
6.74231
6.787
6.82958
6.87023
6.90907
6.94644
6.98257
7.01764
7.05161
7.08464
7.11687
7.14806
7.17848
7.20797
7.23645
7.2639
7.29031
7.31549
7.3397
7.36289
7.38517
7.40644
7.42643
7.4449
7.46223
1.54911
1.74149
1.95394
2.18253
2.42359
2.6748
2.93319
3.19584
3.45984
3.72137
3.97848
4.22801
4.46906
4.70004
4.92136
5.13047
5.32687
5.51103
5.6821
5.84125
5.98881
6.12402
6.24832
6.361
6.46383
6.55791
6.64379
6.72266
6.79418
6.85914
6.91862
6.97268
7.02258
7.06888
7.11132
7.15067
7.18783
7.22218
7.25454
7.28503
7.31344
7.34041
7.3662
7.39113
7.4148
7.43761
7.45973
7.481
7.50167
7.52141
7.54024
7.558
7.57476
7.5902
7.60442
7.6179
7.63061
7.64238
7.65266
7.66126
7.66871
1.68516
1.90527
2.14847
2.40911
2.68219
2.96442
3.25303
3.54472
3.83585
4.12179
4.40099
4.66869
4.92509
5.16778
5.40014
5.61747
5.8194
6.00755
6.17936
6.33736
6.48299
6.61376
6.73363
6.83901
6.93325
7.01836
7.09428
7.16371
7.2244
7.27804
7.32659
7.36839
7.40616
7.44039
7.47021
7.49682
7.52141
7.54245
7.56216
7.58034
7.59605
7.61013
7.62324
7.63571
7.64672
7.6572
7.6667
7.6756
7.68399
7.69175
7.69854
7.70432
7.70937
7.71268
7.71476
7.71636
7.71681
7.71734
7.7158
7.71198
7.7076
1.83074
2.07341
2.34441
2.63109
2.93366
3.24149
3.55453
3.87269
4.18453
4.49184
4.788
5.07208
5.33862
5.58819
5.82595
6.04834
6.25282
6.44175
6.61527
6.76891
6.90778
7.03174
7.14329
7.24213
7.32477
7.39685
7.46083
7.5181
7.56501
7.60514
7.64063
7.66972
7.6934
7.71252
7.72659
7.73888
7.74653
7.75142
7.75624
7.75872
7.75894
7.75628
7.75529
7.7528
7.74846
7.74545
7.73842
7.73248
7.72425
7.71618
7.70614
7.69624
7.68694
7.67539
7.66272
7.65031
7.63455
7.62319
7.60694
7.58701
7.56869
2.09781
2.11733
2.13598
2.15372
2.17059
2.18675
2.20243
2.21798
2.23352
2.24815
2.26154
2.27434
2.28666
2.2987
2.31076
2.32346
2.33717
2.3522
2.36889
2.3877
2.40835
2.43042
2.45362
2.47752
2.50182
2.52654
2.5518
2.57734
2.60305
2.62901
2.65533
2.68189
2.70871
2.73594
2.76351
2.7914
2.81972
2.84854
2.87781
2.90747
2.9376
2.96831
2.99957
3.03135
3.06376
3.09662
3.12996
3.16392
3.19854
3.23368
3.26941
3.3058
3.34296
3.38066
3.41924
3.45862
3.4991
3.54039
3.58284
3.62655
3.67163
4.62587
4.66216
4.69752
4.73211
4.76566
4.79775
4.82788
4.85674
4.88333
4.90914
4.93321
4.95625
4.9782
4.9991
5.01888
5.0374
5.05476
5.07093
5.08595
5.09979
5.1125
5.12414
5.13455
5.14381
5.15193
5.15889
5.16455
5.16868
5.17136
5.17257
5.1723
5.17061
5.16754
5.16307
5.15724
5.15014
5.1417
5.13205
5.12114
5.109
5.09569
5.08123
5.06574
5.04913
5.03141
5.0125
4.99231
4.9709
4.94818
4.9242
4.89892
4.87227
4.8444
4.81486
4.78438
4.75236
4.71942
4.68507
4.65038
4.61519
4.57967
5.82474
5.85621
5.88608
5.91503
5.94294
5.97024
5.99567
6.01981
6.04173
6.06235
6.08131
6.09902
6.11532
6.13055
6.14451
6.15712
6.16839
6.17831
6.18687
6.19405
6.19992
6.20445
6.20766
6.20954
6.21008
6.20926
6.20712
6.20361
6.1987
6.19231
6.1845
6.17519
6.1644
6.1522
6.13857
6.12355
6.10713
6.08933
6.07015
6.04964
6.02787
6.00492
5.98085
5.95569
5.92941
5.90194
5.87313
5.84297
5.81137
5.77835
5.74387
5.7077
5.66994
5.63045
5.58942
5.54658
5.50213
5.45634
5.40966
5.36217
5.314
6.5775
6.60659
6.6344
6.66064
6.68566
6.70946
6.73182
6.75263
6.77174
6.78921
6.80505
6.8193
6.83201
6.84323
6.85286
6.86103
6.86773
6.87291
6.87655
6.87865
6.87926
6.87846
6.87625
6.87267
6.86765
6.86117
6.8532
6.84379
6.83297
6.82068
6.80688
6.79151
6.77459
6.75611
6.73617
6.71475
6.69183
6.66737
6.64139
6.61394
6.58515
6.55513
6.52405
6.49201
6.45903
6.42507
6.38991
6.3535
6.31578
6.27676
6.2363
6.19426
6.15062
6.10529
6.05821
6.0092
5.95845
5.90627
5.8531
5.79901
5.7444
7.11687
7.13962
7.16093
7.18067
7.19873
7.21521
7.2301
7.24332
7.2552
7.26572
7.2747
7.28218
7.28816
7.29256
7.29541
7.29684
7.29666
7.29492
7.29151
7.28646
7.27988
7.27188
7.26257
7.25199
7.24005
7.22669
7.21194
7.19585
7.1785
7.1599
7.13998
7.11857
7.09565
7.07123
7.04543
7.01822
6.98951
6.95925
6.92735
6.89387
6.85899
6.82284
6.78572
6.74785
6.70937
6.6703
6.63026
6.58929
6.54726
6.50432
6.4601
6.4144
6.36732
6.3186
6.26813
6.21548
6.16109
6.10508
6.04814
5.99022
5.93188
7.47825
7.49295
7.5061
7.51778
7.52774
7.53597
7.54259
7.54747
7.5507
7.55238
7.55268
7.55158
7.549
7.54486
7.53914
7.53204
7.52349
7.51329
7.5013
7.48746
7.47201
7.45519
7.43716
7.41806
7.39772
7.37601
7.35298
7.3287
7.30349
7.27744
7.25055
7.22237
7.19292
7.1621
7.1302
7.09705
7.06242
7.02634
6.98857
6.94911
6.90812
6.86571
6.82233
6.77842
6.73428
6.69021
6.64542
6.60029
6.55445
6.50844
6.46149
6.41308
6.36371
6.31282
6.26047
6.20555
6.14895
6.09046
6.03151
5.9714
5.91097
7.67496
7.67993
7.68337
7.68523
7.68537
7.68375
7.68033
7.67532
7.66863
7.66007
7.65014
7.63905
7.62653
7.61245
7.59672
7.57987
7.56195
7.54237
7.5208
7.49698
7.47135
7.44443
7.41639
7.38764
7.3579
7.32672
7.2942
7.26029
7.22579
7.19108
7.15658
7.12114
7.08509
7.04786
7.01025
6.9717
6.93147
6.88994
6.84683
6.80206
6.75557
6.70721
6.65769
6.6077
6.55774
6.5089
6.45925
6.41029
6.36088
6.31286
6.2645
6.21434
6.16385
6.11195
6.05929
6.00308
5.94573
5.8859
5.82682
5.76607
5.70542
7.70183
7.69517
7.68685
7.6774
7.66622
7.65363
7.63891
7.62362
7.60679
7.58723
7.5663
7.54485
7.52184
7.4974
7.47062
7.44306
7.41581
7.3872
7.35655
7.32255
7.28591
7.24848
7.2098
7.17062
7.13141
7.09069
7.0485
7.00369
6.95804
6.91294
6.87033
6.82714
6.78492
6.74187
6.70007
6.65824
6.61346
6.56672
6.51925
6.47116
6.42083
6.36773
6.31304
6.25752
6.2018
6.14908
6.09435
6.04202
5.98898
5.94042
5.89276
5.8419
5.7916
5.74002
5.68899
5.63236
5.57587
5.51558
5.45859
5.39909
5.34067
7.5471
7.52635
7.50213
7.47914
7.45322
7.42962
7.40161
7.37649
7.35123
7.32282
7.29234
7.26243
7.22977
7.1969
7.15879
7.1184
7.08198
7.04671
7.01149
6.97137
6.92277
6.87657
6.82859
6.77827
6.7298
6.68112
6.63321
6.57929
6.51961
6.46131
6.40952
6.35741
6.30893
6.26071
6.2188
6.17891
6.1329
6.08064
6.02933
5.98115
5.9317
5.87642
5.81782
5.759
5.69882
5.64408
5.58355
5.52825
5.47045
5.42414
5.38018
5.32921
5.28112
5.23228
5.1855
5.12911
5.07514
5.01472
4.96205
4.90608
4.85312
3.71808
3.76554
3.81427
3.86429
3.91563
3.96844
4.02262
4.07834
4.13531
4.19352
4.25307
4.31364
4.37505
4.43969
4.51879
4.59277
4.66487
4.73768
4.81126
4.88571
4.96109
5.03743
5.11461
5.19257
5.27112
5.35001
5.42913
5.5083
5.58729
5.6658
5.74372
5.82074
5.89644
5.97063
6.04294
6.11282
6.17981
6.24329
6.29915
6.34001
6.36782
6.38331
6.38644
6.37653
6.35256
6.31311
6.25629
6.17977
6.08083
5.95628
5.80233
5.61448
5.38766
5.11522
4.77619
4.22956
3.97587
3.8453
3.7929
3.76779
3.71624
4.5435
4.507
4.46972
4.43179
4.39325
4.35477
4.31614
4.27813
4.24024
4.20287
4.16677
4.12613
4.0815
4.03935
3.99247
3.94686
3.90143
3.85592
3.81077
3.76629
3.72249
3.67909
3.636
3.59315
3.55048
3.50799
3.46568
3.42366
3.38194
3.34058
3.2997
3.25942
3.21986
3.18123
3.14379
3.10783
3.07377
3.04218
3.01364
2.98987
2.96822
2.94884
2.93207
2.91848
2.90897
2.90444
2.90591
2.91469
2.93221
2.95975
2.99856
3.04975
3.11461
3.19517
3.28171
3.41382
3.58684
3.85475
4.23571
4.73126
5.05918
5.26535
5.2162
5.16628
5.11528
5.06322
5.01061
4.95779
4.90522
4.85254
4.79969
4.74421
4.68071
4.6174
4.55752
4.49786
4.43886
4.37924
4.31892
4.25826
4.19769
4.13727
4.07674
4.01606
3.95521
3.89408
3.83268
3.77099
3.709
3.64665
3.58395
3.52088
3.45744
3.39368
3.32964
3.26538
3.201
3.13661
3.07233
3.0083
2.94476
2.88165
2.81863
2.75622
2.69524
2.63601
2.57909
2.52533
2.47594
2.43254
2.39727
2.37286
2.36286
2.37191
2.40538
2.46621
2.56565
2.7078
2.92328
3.25671
3.75945
4.37337
5.68941
5.63437
5.57868
5.52199
5.46393
5.40532
5.3465
5.28815
5.22968
5.17051
5.10531
5.03394
4.96483
4.89936
4.8351
4.77169
4.70798
4.64405
4.58
4.51616
4.45244
4.38841
4.32418
4.2598
4.19513
4.13024
4.06506
3.99959
3.93369
3.86735
3.80052
3.73323
3.6655
3.59737
3.52892
3.4602
3.39129
3.32224
3.25305
3.18375
3.11429
3.04462
2.9741
2.90264
2.83091
2.75901
2.68719
2.61586
2.54571
2.4778
2.41353
2.35505
2.30523
2.26775
2.24626
2.24685
2.2778
2.35684
2.51344
2.79075
3.21606
5.87315
5.81479
5.75603
5.69638
5.63489
5.57278
5.51041
5.44888
5.38714
5.32443
5.25415
5.17998
5.1089
5.04152
4.97537
4.91011
4.84475
4.77998
4.71558
4.65178
4.58819
4.52401
4.4597
4.39537
4.33074
4.26599
4.20094
4.13562
4.06978
4.00345
3.93657
3.86926
3.80155
3.73358
3.6654
3.59713
3.52885
3.46061
3.39242
3.32428
3.25621
3.18821
3.12017
3.05152
2.98205
2.9119
2.84113
2.76981
2.6981
2.62632
2.55487
2.48435
2.41568
2.35006
2.289
2.2354
2.19525
2.17933
2.20449
2.29592
2.48372
5.8498
5.7898
5.72969
5.66896
5.60543
5.54127
5.47649
5.41328
5.34998
5.2861
5.21386
5.1398
5.06911
5.00257
4.9367
4.87173
4.80653
4.74296
4.68026
4.6187
4.55745
4.49508
4.43291
4.37108
4.30888
4.24671
4.18414
4.12133
4.05779
3.99369
3.92895
3.86393
3.79863
3.73333
3.66802
3.60291
3.53804
3.47351
3.40931
3.34551
3.2821
3.21917
3.15669
3.09454
3.03226
2.96933
2.90579
2.84168
2.77707
2.71203
2.64667
2.58101
2.51504
2.44874
2.38194
2.31522
2.25097
2.19452
2.15481
2.14536
2.18506
5.64276
5.58255
5.52263
5.46293
5.39845
5.33356
5.26724
5.20402
5.1409
5.07844
5.00618
4.93422
4.86554
4.80226
4.73847
4.6759
4.6123
4.55186
4.49253
4.43487
4.37758
4.31809
4.25973
4.20259
4.14472
4.08708
4.02858
3.97008
3.91029
3.84999
3.78881
3.72783
3.66676
3.60621
3.5458
3.48602
3.42667
3.36809
3.31013
3.25306
3.19675
3.14143
3.08703
3.03351
2.98065
2.92804
2.87491
2.82128
2.76728
2.71306
2.65866
2.60408
2.54912
2.49333
2.43609
2.37677
2.31547
2.2539
2.19585
2.1478
2.11973
5.27727
5.2179
5.15981
5.10379
5.0397
4.97573
4.90866
4.84738
4.78646
4.7282
4.65723
4.58865
4.5229
4.46501
4.40445
4.34617
4.28512
4.22948
4.17482
4.12196
4.06957
4.0131
3.95966
3.90964
3.85751
3.80544
3.75155
3.69859
3.64299
3.58717
3.52999
3.47441
3.41879
3.36476
3.3107
3.25792
3.20535
3.15426
3.10413
3.05573
3.00838
2.96269
2.91846
2.87536
2.83329
2.79229
2.7511
2.70935
2.66752
2.62582
2.58457
2.54371
2.5031
2.46219
2.42026
2.37637
2.32974
2.28022
2.22873
2.17761
2.13125
4.78999
4.7312
4.67703
4.62758
4.56555
4.50397
4.43658
4.37994
4.32377
4.2722
4.20364
4.13889
4.07593
4.02541
3.96833
3.91622
3.85798
3.8089
3.75973
3.71097
3.66346
3.609
3.56142
3.52251
3.47648
3.42866
3.37845
3.33197
3.27941
3.22758
3.17324
3.12479
3.07506
3.02918
2.9818
2.93694
2.89042
2.84746
2.80605
2.76786
2.73088
2.69602
2.6632
2.6316
2.60004
2.56909
2.53855
2.50721
2.47739
2.4479
2.42122
2.39555
2.37168
2.34788
2.32401
2.2987
2.27131
2.2408
2.20718
2.17016
2.13121
3.62375
3.52037
3.40796
3.28789
3.16573
3.04482
2.92797
2.81882
2.72055
2.63525
2.5638
2.50615
2.46134
2.42782
2.40376
2.38728
2.37663
2.37051
2.36785
2.36776
2.36965
2.37309
2.3778
2.38359
2.39045
2.39822
2.40692
2.41649
2.42695
2.43823
2.45028
2.46304
2.47643
2.49028
2.50445
2.51877
2.53304
2.54701
2.56048
2.57323
2.58503
2.59567
2.60502
2.61303
2.61968
2.62512
2.62951
2.63309
2.63619
2.63921
2.64246
2.64622
2.65066
2.65597
2.66204
2.66874
2.67577
2.68291
2.6897
2.69558
2.69995
5.05452
4.98386
4.86401
4.69266
4.50118
4.29152
4.0619
3.81937
3.57252
3.32955
3.09688
2.88113
2.68618
2.51338
2.36332
2.23729
2.13457
2.05205
1.98643
1.93491
1.89489
1.86411
1.84072
1.82302
1.81051
1.80178
1.79673
1.79484
1.79586
1.79954
1.8057
1.81409
1.82446
1.83651
1.84989
1.86421
1.879
1.89384
1.90818
1.9214
1.93285
1.94179
1.9474
1.94881
1.94534
1.93649
1.92196
1.90196
1.87722
1.84906
1.8192
1.7897
1.7627
1.73995
1.72247
1.71086
1.70469
1.70323
1.70506
1.70872
1.7119
4.87545
5.23383
5.43284
5.44489
5.31373
5.11849
4.86066
4.56403
4.24596
3.9184
3.59354
3.28298
2.99429
2.73273
2.50163
2.30259
2.1341
1.99195
1.87358
1.7779
1.7023
1.6437
1.59891
1.56521
1.53982
1.52141
1.50843
1.50007
1.49561
1.49447
1.49621
1.50039
1.50655
1.51416
1.52273
1.53175
1.54072
1.54909
1.5563
1.56173
1.56478
1.56486
1.56143
1.55397
1.54204
1.52528
1.50351
1.4768
1.44558
1.41075
1.37384
1.33711
1.30336
1.27546
1.25586
1.2466
1.24846
1.26139
1.28442
1.31597
1.35379
3.74852
4.33583
4.89855
5.33237
5.55353
5.59634
5.47489
5.22622
4.91078
4.54926
4.16901
3.79415
3.43701
3.10875
2.81462
2.55487
2.32691
2.12957
1.96167
1.82235
1.70957
1.62087
1.55278
1.50157
1.46341
1.43568
1.41617
1.40337
1.39601
1.39311
1.39396
1.39795
1.40437
1.4125
1.42162
1.43104
1.44007
1.44802
1.45416
1.45775
1.45807
1.45446
1.4463
1.4331
1.41446
1.39025
1.3605
1.32554
1.28589
1.24249
1.19676
1.15091
1.10795
1.07163
1.04608
1.03527
1.04151
1.06537
1.10598
1.16196
1.2315
2.78773
3.21761
3.75848
4.35111
4.89572
5.3136
5.55329
5.58942
5.45751
5.18598
4.82408
4.43096
4.02657
3.63685
3.27721
2.95063
2.65902
2.40084
2.17778
1.98979
1.83497
1.71149
1.61584
1.54332
1.489
1.44902
1.42048
1.4012
1.38941
1.38358
1.38275
1.38616
1.39294
1.40215
1.41291
1.42436
1.43568
1.44602
1.45452
1.46031
1.4625
1.46031
1.45301
1.43999
1.42071
1.395
1.36286
1.3246
1.28069
1.232
1.17986
1.12634
1.07444
1.02815
0.992866
0.974805
0.978557
1.00672
1.05966
1.13567
1.23174
2.29583
2.50133
2.82058
3.2567
3.78095
4.3372
4.84901
5.23468
5.44626
5.47115
5.32349
5.04705
4.67524
4.2651
3.86077
3.47161
3.1149
2.79232
2.50273
2.25265
2.04459
1.8776
1.74771
1.64868
1.57378
1.5177
1.47677
1.4482
1.42961
1.41882
1.41454
1.41586
1.42176
1.43109
1.44279
1.45586
1.46932
1.48222
1.49357
1.50237
1.5076
1.50842
1.50394
1.49349
1.47634
1.45226
1.42111
1.38319
1.3388
1.28871
1.23409
1.17688
1.11991
1.06701
1.02383
0.997765
0.995326
1.02213
1.08114
1.1715
1.28961
2.12553
2.18309
2.3131
2.53531
2.86087
3.28517
3.77955
4.28936
4.74654
5.08592
5.26245
5.26638
5.11581
4.84322
4.49321
4.09091
3.69113
3.30943
2.94415
2.6183
2.34091
2.11619
1.94106
1.80641
1.70365
1.62535
1.56699
1.52505
1.49652
1.47809
1.46804
1.46519
1.46844
1.47634
1.48765
1.50118
1.51581
1.53045
1.54398
1.5553
1.56325
1.567
1.56553
1.55813
1.54384
1.52242
1.49361
1.45773
1.41487
1.36583
1.31159
1.25405
1.19587
1.14059
1.09367
1.06257
1.05525
1.07995
1.14256
1.24422
1.38146
2.09675
2.08439
2.10803
2.18455
2.33154
2.56335
2.88551
3.28705
3.73856
4.19058
4.58371
4.8665
5.01062
5.00521
4.86524
4.61363
4.2869
3.91282
3.49415
3.09438
2.73314
2.43448
2.2015
2.02113
1.88158
1.77306
1.68992
1.62869
1.58603
1.55657
1.53794
1.52847
1.52696
1.53164
1.54099
1.55361
1.56818
1.58346
1.59819
1.61112
1.62106
1.62716
1.62833
1.62388
1.61256
1.59415
1.56828
1.53524
1.495
1.44834
1.39618
1.34036
1.28332
1.22839
1.18098
1.14814
1.13849
1.16236
1.22826
1.33988
1.49423
2.09318
2.06073
2.0417
2.04636
2.08783
2.18084
2.33936
2.5726
2.87979
3.2484
3.64367
4.02938
4.36251
4.60814
4.73646
4.73845
4.61642
4.37682
4.05543
3.65209
3.21528
2.8414
2.54549
2.31083
2.12168
1.97094
1.85278
1.76494
1.70229
1.65693
1.62612
1.60672
1.59771
1.59703
1.60257
1.61268
1.62585
1.64055
1.65539
1.66874
1.67987
1.68746
1.69078
1.68887
1.68052
1.66514
1.64276
1.61281
1.57597
1.53236
1.48353
1.43077
1.37654
1.32434
1.2787
1.24656
1.23695
1.26187
1.33094
1.45131
1.61911
0.305964
6.72541
6.43099
0.21523
0.372129
0.126914
0.00315943
2.42904
0.00338191
0.023433
3.2911
1.06951
0.00316139
5.96175
0.111271
5.46394
0.00326188
2.52971
3.59175
0.00315359
0.21461
5.78676
6.4369
0.00329771
0.00333556
0.105849
0.0031561
0.523964
0.00324813
0.0034625
0.704105
0.00323812
0.0163501
2.50512
0.784549
3.36774
2.51186
1.54874
0.00316403
2.6036
1.92142
2.13242
0.00320948
4.74082
3.11824
0.281619
0.0036114
0.0152522
0.129761
1.09182
6.61073
7.95539
0.00310404
0.00405635
0.0376762
0.00859283
0.00345338
0.705022
2.38783
7.65555
2.52547
0.00370176
0.143683
0.032054
6.72059
0.458806
1.96511
1.74571
0.00431816
0.00321296
1.21636
2.5081
1.75128
0.015547
0.0397977
4.05232
7.05236
3.20796
0.0031055
0.930361
0.00712748
2.6083
0.0106449
4.76975
0.00321781
1.05639
0.00336485
2.21765
0.0148668
0.00492415
0.119927
0.00310131
0.0037882
7.8217
5.66868
0.00359884
0.43857
0.299328
0.00604887
6.72615
0.218899
2.51159
0.735413
0.00309753
0.00316431
0.00309371
0.305775
0.124984
0.00323997
6.25325
6.91679
0.00931743
4.4991
1.51759
2.59692
2.73166
1.77664
0.00390385
0.0857177
0.00419253
0.0044023
3.37275
0.00734188
7.51415
7.8646
0.990301
0.00321452
1.01032
1.01971
0.00321022
0.0342372
0.0336202
1.75583
0.00570124
3.04913
0.00321994
0.00315945
7.84801
8.00666
0.00323024
0.163717
5.79692
0.105329
0.302039
1.56037
4.76886
0.0379663
1.64526
0.0121221
7.10231
1.22028
0.00890437
2.75565
4.70632
6.49311
0.00330674
0.00326951
0.216803
0.003111
1.93551
0.0302436
0.00511269
0.00319741
0.00321934
0.0032367
2.77904
1.79952
1.5986
0.00331359
6.73763
4.75335
3.20402
4.85582
0.0140187
3.63096
1.69067
1.88849
0.00324205
0.00569852
2.93852
3.04133
2.18849
3.83312
0.00321567
0.00352543
4.81117
0.0362148
0.565434
0.00323768
0.00360753
0.105029
0.00338992
7.93798
0.67188
0.00310044
0.255196
1.84663
5.50844
0.00448929
1.91251
0.00321804
0.00323369
4.82224
2.38923
7.32519
0.00453327
0.00339781
0.00765816
2.75383
2.18633
1.06997
5.17947
1.53711
7.0296
0.192756
4.2981
4.15793
2.066
1.34584
2.32196
0.00490505
0.0371196
0.00322542
0.0031933
1.81383
0.0182525
0.0202658
0.00575363
0.0131564
2.71278
4.57846
0.0189533
6.10533
1.06492
0.399546
0.00318315
0.165941
2.73414
1.01788
0.00413696
1.15955
1.15453
0.184597
0.256782
7.39181
0.785474
0.501356
5.18468
0.00383908
0.00315968
0.00404173
0.0105129
1.743
0.00336237
0.00655233
0.00316387
0.382652
3.97976
3.98837
2.73015
1.25865
1.41813
7.80917
0.00433912
2.06128
4.50495
0.00320983
1.95711
0.00321724
4.00906
0.381099
1.55463
0.00535028
0.00322
1.85732
0.515591
0.00323894
0.00323734
0.00325174
0.00324586
0.359472
1.63737
2.95146
0.0147923
0.0032406
0.00316361
0.00309561
4.71225
0.231892
0.00447854
1.66956
0.0880147
0.0412141
0.00308864
0.263703
0.00323972
0.051222
1.49667
4.64014
0.291438
0.00391726
0.00597441
3.19807
0.141617
1.99369
7.74533
0.00350471
0.00319746
0.00318718
5.8415
0.00331343
4.78164
0.00322147
1.95499
1.18256
0.0272124
2.87401
3.92045
0.00468801
2.70928
2.69396
1.68418
4.69163
1.09118
8.00669
2.45463
3.89138
3.58289
4.52011
1.74244
0.158264
7.92779
7.49167
2.98124
2.1368
0.00393989
6.98486
2.69183
6.93244
0.0276024
0.00359087
0.00321444
0.00342693
0.178113
0.421276
0.698962
0.0925499
0.00317342
6.19248
0.00321515
1.4683
1.92801
6.47537
2.5435
1.79817
0.0059855
0.00426256
0.0876198
2.78129
0.0103606
0.753163
5.1194
2.03935
4.09739
6.29292
3.31021
0.00346519
7.48335
5.64959
1.77749
0.00323533
6.58764
5.86223
0.00333505
1.97934
0.00323911
6.84431
5.46811
1.86925
4.1522
2.47187
5.78706
0.00329041
5.76535
0.00387005
3.64131
3.95185
1.90228
7.45609
0.714544
0.213662
0.546621
0.00424576
4.30529
0.142172
0.00816002
0.0050476
4.416
0.00383728
4.31597
0.00319089
0.00323621
0.00600556
1.81159
0.105573
1.82825
0.00575556
4.22452
0.16393
6.9002
4.36072
2.63722
6.20494
0.00338091
7.45213
2.85173
0.00321236
3.87932
2.04247
0.00309906
0.00316756
3.34286
0.00649019
1.92566
0.0874893
2.35083
0.0269142
0.598103
2.66352
4.79494
2.39427
3.93321
3.74468
0.00393801
0.0216844
1.68005
1.76202
7.73692
6.45014
5.48879
0.0658692
5.22946
5.20719
0.496594
1.77252
2.89296
2.05862
0.00346955
4.08234
8.00586
0.00416819
4.41873
1.8491
2.92276
0.0242734
0.0682255
6.13711
0.00599344
7.73404
0.00462647
0.265715
0.00320389
0.974508
2.35135
0.231074
0.00480675
0.00369632
2.6972
1.60693
0.0873549
0.4107
5.81768
4.10957
0.00447529
1.43058
1.64781
3.24253
1.5056
4.21036
1.94893
5.25468
3.18851
0.486262
0.991009
7.60623
1.95024
7.85262
6.16456
0.0309171
3.3224
2.8641
0.00337471
1.84311
1.61401
1.31352
0.0174322
4.80355
1.49036
0.684498
1.95232
0.00545672
0.00321521
0.0463673
2.33425
4.61229
2.56652
0.00322134
0.00318831
0.0032165
1.70872
0.0278999
0.00321586
0.124718
4.39465
4.90927
0.0105698
0.0107977
0.00315364
0.0032053
0.00601504
1.75244
1.77954
1.73146
0.455587
7.76447
5.8988
0.00526314
3.34976
1.83012
1.93475
3.99631
7.57869
0.00346042
0.0105116
0.00323946
3.88328
0.24238
0.00316879
1.35103
0.162639
7.65443
0.00323857
7.90604
1.11965
0.0479916
6.65174
0.00323338
0.00319704
0.0040494
7.92955
3.19933
5.38072
4.99462
1.01617
1.75431
0.00312448
0.00604297
0.0872648
0.0137752
0.025231
2.00861
2.13063
0.00322533
1.3098
1.81994
6.43773
7.91986
0.00826225
7.88412
0.00592698
0.0304476
3.50851
0.00320319
5.63574
0.00324096
0.00337006
0.0223541
2.13728
0.623708
2.59965
1.92053
0.00365989
1.75881
4.61988
0.0554049
0.209912
0.838022
0.00331755
0.00326913
0.00694142
5.39198
0.55193
0.00335337
7.53107
5.89521
6.86452
0.034618
2.01609
0.00420662
2.3562
0.167881
0.0916153
2.63359
1.66136
1.94797
6.20555
0.00327813
0.0031309
0.0105241
4.14027
4.74382
0.964395
0.0139284
0.00333325
0.00324075
0.00885001
0.0248776
0.00662832
2.15997
1.70785
0.0115962
1.56406
6.21883
0.00327208
2.37673
0.00321774
0.539997
0.00324485
0.0222737
2.46377
0.0201727
0.00320617
0.758496
8.0309
7.29332
0.00318842
0.00326279
0.385592
0.0263001
0.00321671
4.43951
0.00370601
1.66603
8.01937
2.3306
1.73746
2.49045
3.64951
7.75393
0.00323063
0.00745453
0.0148307
4.20857
1.47629
6.69802
0.682522
0.362955
4.26591
3.5503
5.28918
0.751655
2.85013
0.00322273
0.356122
1.68213
2.47406
3.92616
2.03984
0.227075
2.47844
0.102853
0.00923316
1.75204
0.00324097
5.62807
0.00366414
0.387771
7.54562
2.76807
0.556724
0.00743355
0.761397
0.00330154
0.00319193
0.107534
0.0226081
1.79953
0.0153912
1.73682
0.00322151
0.0280948
0.00316583
4.53469
0.00505015
4.09528
2.55665
0.0220809
1.96379
7.6409
0.00325987
1.75484
4.34926
0.00335548
7.50633
0.0605491
0.00347572
0.0033944
7.39683
0.00317846
0.00429546
0.0873813
0.101265
7.24887
7.41199
0.00322112
0.00327113
1.10401
2.26183
0.0146595
0.249762
1.98569
0.00321811
0.00384033
0.00372832
6.11277
7.38812
0.493663
7.22089
0.0262234
1.60241
0.00331983
0.0148441
0.0250139
0.0365611
0.00323076
6.85138
0.00320105
0.0251377
0.00332288
0.254713
0.0226093
0.0158744
0.452168
0.673904
2.28757
0.40996
1.04929
1.81678
5.02739
0.00344111
4.7642
7.88016
1.12261
3.99074
0.00327848
4.31722
4.06429
0.00321663
7.54375
2.29601
0.00832023
0.011483
5.89897
5.67002
0.0599252
7.76875
7.46183
0.790369
7.45398
7.47419
4.88779
1.91411
1.73163
1.00648
7.4462
7.70671
0.0220501
7.5051
2.7094
4.34437
0.00343332
0.337231
0.390094
6.8727
6.09515
0.0203123
4.2829
6.46999
0.473221
0.0337852
0.390862
1.80786
0.00536526
1.84408
7.06717
0.0339508
6.82411
1.38154
4.48025
6.47304
0.00322301
0.00566308
1.04256
0.694404
0.0183168
0.00321869
0.194689
0.266614
0.00451912
0.00323649
4.22119
0.975261
3.1701
1.00513
0.00865799
0.00417832
0.0929759
3.34131
0.00346381
1.84122
1.68658
0.477656
2.35676
0.00397761
0.119817
0.00320252
0.346703
4.30086
0.00439275
0.11876
2.09056
5.88123
0.225174
3.93414
0.601354
0.170507
0.00393006
2.3846
7.92147
0.00321199
0.00328179
5.75448
0.0246255
0.00323564
3.86038
0.237192
1.96461
1.99994
1.50653
0.145796
1.69812
3.46865
6.00861
4.32684
0.00327697
5.5214
0.0038934
2.5419
0.00339446
0.00456052
2.09571
0.0065689
3.8494
0.0207789
0.0399154
1.8758
0.738306
0.0624836
0.00367987
6.45627
0.00364893
0.00315193
7.9905
6.0155
2.76853
1.9256
0.00343824
0.00307059
1.83999
5.7579
0.00319999
6.77281
1.71303
0.00324363
6.00462
0.00311362
0.36554
0.89973
1.34291
0.35591
1.62692
1.90079
0.00310952
7.46144
7.51093
0.00321643
0.0168866
1.91848
0.00312868
7.04979
5.30789
4.39829
0.00321858
0.0031705
3.44497
0.0412122
0.00350244
1.8316
1.75183
4.11873
0.00315266
0.00337776
0.0244267
0.0195301
0.00321765
0.00642358
5.17906
2.8706
0.00322314
1.34119
0.003215
0.731082
0.0042117
0.00359101
2.22036
0.0032653
0.124403
0.00317611
3.05765
0.181047
1.73864
6.30024
4.3674
3.5988
0.805175
1.19906
0.00323549
0.925431
7.468
4.10227
0.107147
0.00347037
5.35212
0.00321512
0.0303168
0.00315491
7.31135
0.800514
0.379231
6.63865
2.233
0.499456
4.13383
0.733213
6.83968
4.47417
0.00331252
0.00327083
0.0082221
0.00322487
0.0228901
4.5936
0.00377698
7.32646
0.00601913
0.0773075
0.575279
4.611
0.00487674
2.75123
0.0170063
3.23731
2.37933
7.07641
0.00339225
0.00384135
0.262528
3.60825
1.70026
3.61828
0.417851
1.04804
1.6999
0.0508765
1.07701
0.253952
1.6768
0.00328288
4.31946
0.415146
3.06977
0.00336716
2.98019
1.01126
0.00465641
1.67687
1.7643
0.0657843
0.00314637
0.00321877
4.78381
2.74901
1.34633
0.00320874
0.0176625
1.97934
6.34814
0.453296
0.0126668
0.0032232
5.75286
5.39945
2.06685
2.60119
0.00321431
3.47613
7.60296
0.00321112
0.00321786
1.25707
0.00413159
0.00991051
0.0301228
1.96973
0.00410433
2.19876
7.83742
0.00320039
0.00346022
0.00316716
0.00330859
3.70533
4.63954
7.96041
0.0291174
2.39578
2.18192
0.0873326
2.89882
0.0034738
1.68071
0.221708
2.07279
0.681668
1.68625
3.06746
0.0273552
0.00323904
5.94772
4.48013
4.60998
0.89831
1.77834
0.175193
1.59291
0.00930508
0.00484593
3.35731
5.6486
0.0216082
0.125008
0.00324621
0.0783979
1.86995
0.0279145
1.05081
0.714866
3.83587
2.15134
0.434756
6.811
5.437
2.93055
1.6102
4.12403
3.50863
0.556858
2.60637
0.00624889
2.74006
2.88456
0.0032041
0.0031338
0.124549
0.00322745
0.00332678
2.99571
4.36656
0.00322064
3.20354
0.00321553
0.00319257
0.00321731
0.00325946
0.00595225
1.93644
2.85905
7.20199
0.00315693
0.00392189
0.944319
0.00355923
0.033147
0.00324574
0.0036113
4.29535
0.00391573
0.0109911
2.84568
0.0105106
0.00321991
3.86023
0.00321467
0.00326792
0.259557
0.00360908
0.944854
0.00457413
0.0302682
0.00320433
0.00325356
7.67714
7.80371
2.83042
0.0269094
2.90622
1.54242
0.00473157
1.76189
4.1465
6.98883
4.57802
0.00312096
1.95786
2.53627
0.146956
1.73268
4.46076
0.173782
2.05541
0.206639
1.71062
0.0368878
1.00691
0.00323492
6.9838
0.00328286
1.78742
2.43686
0.00321533
0.313648
0.00733291
0.0198989
0.0031748
0.762807
0.00366879
0.00322041
2.52696
0.00887812
0.110802
6.92888
1.94713
0.00345525
0.00387697
2.3604
7.35296
0.0030897
0.00324759
0.0732564
1.3874
5.53895
0.0065975
1.61769
0.00321866
0.00344686
0.00314656
0.0350145
1.02105
0.0101698
6.46322
1.81109
7.3336
6.21995
0.00352355
7.41556
3.69721
0.00317913
0.00322628
0.00321814
0.00440142
0.003203
3.72875
0.00320812
0.00324106
6.73679
0.322088
0.00778176
0.0223187
1.97403
0.905215
0.00813303
0.0034624
6.40338
0.00324546
0.801427
0.00326078
0.00352793
6.05098
6.04556
0.00873261
0.00350581
0.324987
0.0032066
6.81149
0.00325416
5.82538
0.0251987
0.748501
0.0356315
0.381543
0.368466
1.53739
0.00324282
0.00357093
0.0116124
3.42419
0.12194
7.64768
0.00322004
0.00458454
0.00556977
7.30641
2.77759
3.11636
0.00694861
0.00901146
0.213321
0.00322372
1.2682
2.42762
0.017058
5.84114
6.18485
1.98571
0.00535081
0.385537
2.88642
7.03113
1.79416
0.0188631
3.04894
0.0603556
5.46183
0.0919616
0.517625
2.76328
0.00324366
1.75598
0.00455737
0.0119101
0.0082963
0.0503144
0.00370773
1.26469
0.00322698
3.06387
0.0959174
0.00361323
0.237226
0.00323206
0.284639
0.118023
2.29263
0.475073
4.66204
0.241706
0.00321718
0.00319197
0.74458
0.0923571
2.8363
7.35776
0.00322431
3.83496
2.65062
0.0233013
2.04542
0.566581
2.35281
2.16771
0.0334169
0.00590136
7.30451
1.57448
5.86633
0.00321094
1.6529
0.00321582
1.26835
2.40375
7.82478
1.64866
1.88839