/*--------------------------------*- C++ -*----------------------------------*\
| =========                 |                                                 |
| \\      /  F ield         | OpenFOAM: The Open Source CFD Toolbox           |
|  \\    /   O peration     | Version:  2.3.1                                 |
|   \\  /    A nd           | Web:      www.OpenFOAM.org                      |
|    \\/     M anipulation  |                                                 |
\*---------------------------------------------------------------------------*/
FoamFile
{
    version     2.0;
    format      ascii;
    class       volScalarField;
    location    "0.55";
    object      nut;
}
// * * * * * * * * * * * * * * * * * * * * * * * * * * * * * * * * * * * * * //

dimensions      [0 2 -1 0 0 0 0];

internalField   nonuniform List<scalar> 
9648
(
0.000272457
0.000272979
0.000272919
0.000272793
0.00027252
0.000272006
0.00027129
0.000270394
0.000269301
0.000267991
0.000266459
0.000264742
0.00026284
0.000260761
0.000258556
0.000256271
0.000253929
0.000251553
0.000249183
0.000246863
0.000244606
0.000242433
0.000240371
0.000238417
0.000236576
0.000234863
0.000233284
0.000231835
0.000230508
0.00022931
0.000228234
0.000227276
0.000226432
0.000225703
0.000225077
0.000224557
0.000224141
0.000223825
0.000223594
0.000223449
0.0002234
0.000223434
0.000223549
0.000223753
0.000224031
0.000224377
0.000224802
0.000225321
0.000225923
0.000226594
0.000227349
0.000228207
0.000229143
0.000230163
0.000231276
0.000232482
0.000233745
0.000235011
0.000236286
0.000237569
0.00023884
0.000446387
0.000452077
0.000458529
0.000465634
0.000473128
0.000480434
0.000488569
0.000499213
0.000512658
0.00052877
0.00054764
0.000569576
0.000594536
0.000622391
0.000652977
0.000686218
0.000721879
0.000759614
0.000799114
0.000840202
0.000882529
0.000925843
0.00096995
0.00101458
0.00105946
0.00110447
0.00114949
0.0011944
0.00123899
0.00128321
0.00132703
0.00137031
0.001413
0.00145512
0.00149658
0.00153731
0.00157736
0.00161677
0.00165544
0.00169323
0.0017302
0.00176643
0.00180183
0.00183631
0.00186998
0.00190258
0.0019341
0.00196473
0.00199452
0.0020233
0.00205118
0.00207804
0.00210413
0.00212896
0.0021532
0.00217663
0.00219989
0.00222198
0.00224357
0.00226491
0.00228619
0.000762933
0.000804212
0.000846295
0.000887134
0.000928776
0.000974128
0.00102206
0.00107372
0.00112855
0.00118714
0.00124878
0.00131402
0.00138277
0.00145496
0.0015304
0.00160883
0.00168995
0.00177326
0.00185832
0.00194472
0.002032
0.00211984
0.00220781
0.00229558
0.00238286
0.00246945
0.00255523
0.0026399
0.00272344
0.00280573
0.00288664
0.00296619
0.00304438
0.00312111
0.00319635
0.00327021
0.00334259
0.0034136
0.0034832
0.00355139
0.00361818
0.00368351
0.00374755
0.00381026
0.00387157
0.00393148
0.00398993
0.00404716
0.00410294
0.00415742
0.00421061
0.00426259
0.00431392
0.00436316
0.00441259
0.00445989
0.00450693
0.00455101
0.00459525
0.00463867
0.00468143
0.00122185
0.00130236
0.00138385
0.00146504
0.00154742
0.00163263
0.00172069
0.00181193
0.00190617
0.00200389
0.00210475
0.00220914
0.00231685
0.00242799
0.00254218
0.0026591
0.00277835
0.00289938
0.0030217
0.00314477
0.0032682
0.00339147
0.00351422
0.00363614
0.00375695
0.00387641
0.00399439
0.00411075
0.00422537
0.00433813
0.00444911
0.00455824
0.00466554
0.00477105
0.00487472
0.00497665
0.00507681
0.00517532
0.00527215
0.00536735
0.00546096
0.00555302
0.0056435
0.00573255
0.00582006
0.00590607
0.00599062
0.00607377
0.00615533
0.00623537
0.00631436
0.00639124
0.00646678
0.0065404
0.00661379
0.00668502
0.00675423
0.00682146
0.00688712
0.00695117
0.00701266
0.00176065
0.00187101
0.00198484
0.00210038
0.00221801
0.00233882
0.00246311
0.00259075
0.00272191
0.00285672
0.00299502
0.00313681
0.00328206
0.00343067
0.00358218
0.00373602
0.00389161
0.0040485
0.00420605
0.00436385
0.00452135
0.00467811
0.00483371
0.00498779
0.00514016
0.0052907
0.00543922
0.00558558
0.00572976
0.00587162
0.00601113
0.00614844
0.00628353
0.00641649
0.00654725
0.00667597
0.00680269
0.00692732
0.00704996
0.00717064
0.00728945
0.00740637
0.00752152
0.00763487
0.00774641
0.00785614
0.00796397
0.00806997
0.00817434
0.00827645
0.00837692
0.00847538
0.00857128
0.00866484
0.00875653
0.0088465
0.00893352
0.00901818
0.00910051
0.00917994
0.00925641
0.00231061
0.00244177
0.00258246
0.00272927
0.0028809
0.00303718
0.00319809
0.00336346
0.0035329
0.00370627
0.00388324
0.00406342
0.00424687
0.00443319
0.00462216
0.00481303
0.00500477
0.0051972
0.00538946
0.00558121
0.00577209
0.00596145
0.00614891
0.00633402
0.0065167
0.00669694
0.00687466
0.00704993
0.00722215
0.00739151
0.00755808
0.00772159
0.0078827
0.00804114
0.00819699
0.00835041
0.00850139
0.00864985
0.00879584
0.00893936
0.0090804
0.00921907
0.00935549
0.00948964
0.00962147
0.00975106
0.00987863
0.0100031
0.0101254
0.0102454
0.0103626
0.0104773
0.0105891
0.0106977
0.0108038
0.0109066
0.0110064
0.0111036
0.0111975
0.0112873
0.0113744
0.00284243
0.00299038
0.00315736
0.00333617
0.00352334
0.0037172
0.0039171
0.00412239
0.00433238
0.00454615
0.00476346
0.00498332
0.00520563
0.0054301
0.00565713
0.00588529
0.00611344
0.00634147
0.00656821
0.00679358
0.00701753
0.00723891
0.00745774
0.00767278
0.00788447
0.00809319
0.00829894
0.00850155
0.00870059
0.00889571
0.00908722
0.00927516
0.00945961
0.00964139
0.0098199
0.00999504
0.0101675
0.0103367
0.0105028
0.010666
0.0108257
0.0109822
0.0111357
0.0112864
0.0114337
0.011578
0.0117196
0.0118579
0.0119934
0.0121254
0.0122544
0.0123799
0.0125017
0.01262
0.0127342
0.0128452
0.0129529
0.0130566
0.0131562
0.0132515
0.013343
0.00335098
0.00351389
0.0037077
0.00391965
0.00414433
0.00437698
0.00461728
0.00486426
0.00511585
0.00537161
0.00563055
0.0058913
0.00615293
0.00641504
0.00667957
0.00694534
0.00721036
0.00747468
0.00773635
0.00799459
0.00825118
0.00850435
0.00875463
0.00899935
0.00923844
0.00947423
0.00970601
0.00993497
0.010159
0.0103781
0.0105935
0.010803
0.0110082
0.0112105
0.0114086
0.0116024
0.011793
0.0119792
0.0121621
0.012342
0.0125174
0.0126881
0.0128539
0.0130163
0.0131742
0.0133281
0.0134782
0.0136237
0.013766
0.0139045
0.0140385
0.0141685
0.0142951
0.0144172
0.0145341
0.0146468
0.0147553
0.0148606
0.0149608
0.0150552
0.0151448
0.00384274
0.00401642
0.00423653
0.00447804
0.00474162
0.00501121
0.00529024
0.00558023
0.00587031
0.00616871
0.00646794
0.00677314
0.00707381
0.00737291
0.00766996
0.0079726
0.00827426
0.00857551
0.00887713
0.0091657
0.00945273
0.00973867
0.0100215
0.0103012
0.0105647
0.0108257
0.0110819
0.0113344
0.0115835
0.0118254
0.0120665
0.0122988
0.0125172
0.0127362
0.0129541
0.0131625
0.0133654
0.0135662
0.0137611
0.0139568
0.0141487
0.014336
0.0145093
0.0146798
0.0148471
0.0150046
0.0151594
0.0153041
0.0154496
0.0155859
0.0157214
0.0158447
0.0159683
0.0160922
0.0162086
0.0163127
0.0164175
0.0165142
0.0166121
0.0167029
0.0167824
0.000240018
0.000241095
0.000242146
0.000243169
0.000244146
0.000245046
0.000245912
0.000246781
0.000247652
0.000248463
0.000249192
0.000249905
0.000250587
0.000251237
0.000251889
0.000252587
0.000253339
0.000254148
0.000255039
0.00025605
0.000257154
0.000258328
0.000259565
0.000260829
0.000262101
0.000263391
0.000264708
0.000266036
0.00026736
0.000268694
0.000270037
0.000271384
0.000272735
0.000274103
0.000275475
0.000276859
0.000278263
0.000279688
0.000281119
0.000282557
0.00028402
0.000285503
0.000287003
0.00028853
0.000290074
0.000291616
0.000293174
0.000294768
0.000296387
0.000298005
0.000299638
0.000301313
0.000303
0.000304695
0.000306427
0.000308202
0.00031001
0.000311802
0.000313642
0.000315561
0.000317566
0.00230755
0.00232667
0.00234535
0.00236397
0.0023822
0.00239928
0.00241431
0.00242841
0.00243989
0.00245133
0.00246116
0.00247028
0.00247832
0.00248524
0.002491
0.00249534
0.00249834
0.00249985
0.00249993
0.00249865
0.00249617
0.00249272
0.00248822
0.00248281
0.00247656
0.00246948
0.00246164
0.00245288
0.00244331
0.00243287
0.0024215
0.00240933
0.00239636
0.00238251
0.00236786
0.00235247
0.00233626
0.00231935
0.00230171
0.00228337
0.00226435
0.00224465
0.00222441
0.00220359
0.00218214
0.00216005
0.00213725
0.00211384
0.00208967
0.00206484
0.00203933
0.0020131
0.00198629
0.00195825
0.00193006
0.00190071
0.001871
0.00184011
0.00180947
0.00177867
0.00174776
0.00472185
0.00476117
0.00479761
0.00483281
0.00486658
0.00490013
0.00493002
0.00495852
0.00498344
0.00500738
0.005029
0.00504901
0.00506656
0.00508258
0.00509671
0.00510889
0.00511922
0.00512767
0.00513431
0.00513921
0.00514261
0.00514444
0.00514483
0.00514381
0.00514139
0.00513758
0.00513246
0.00512599
0.00511816
0.00510883
0.00509814
0.00508596
0.00507228
0.00505724
0.0050407
0.00502276
0.00500337
0.00498261
0.00496045
0.00493699
0.00491231
0.00488651
0.00485962
0.00483183
0.00480297
0.00477304
0.00474188
0.0047095
0.00467574
0.00464059
0.0046042
0.00456584
0.00452596
0.00448411
0.00444122
0.00439605
0.004349
0.00430041
0.00425107
0.00420092
0.00414971
0.00707248
0.00712968
0.00718465
0.00723654
0.0072863
0.00733393
0.00737887
0.0074209
0.00745994
0.00749684
0.00753112
0.00756254
0.00759146
0.00761829
0.0076424
0.00766429
0.00768384
0.0077011
0.00771608
0.00772893
0.00773972
0.00774866
0.0077557
0.00776099
0.00776445
0.00776611
0.00776592
0.00776397
0.00776032
0.00775488
0.00774752
0.00773823
0.00772699
0.00771374
0.00769853
0.00768136
0.00766216
0.00764086
0.00761755
0.00759232
0.00756537
0.00753674
0.00750682
0.00747567
0.00744339
0.00740987
0.00737494
0.00733847
0.00730041
0.00726049
0.00721884
0.00717497
0.00712866
0.00707988
0.00702892
0.00697524
0.00691855
0.00685978
0.0067996
0.00673754
0.00667418
0.00932974
0.00940078
0.00946875
0.0095334
0.00959439
0.00965264
0.00970807
0.00975915
0.00980699
0.00985237
0.0098945
0.00993363
0.00997015
0.0100037
0.0100345
0.010063
0.010088
0.0101104
0.0101299
0.0101467
0.010161
0.0101729
0.0101828
0.0101905
0.010196
0.0101993
0.0102005
0.0101998
0.0101972
0.0101928
0.0101865
0.010178
0.0101673
0.0101544
0.0101391
0.0101216
0.0101014
0.0100788
0.0100534
0.0100255
0.00999514
0.00996267
0.00992847
0.00989292
0.0098562
0.0098184
0.00977925
0.00973818
0.00969573
0.00965179
0.00960575
0.00955731
0.00950618
0.00945196
0.00939491
0.00933382
0.00926956
0.0092026
0.00913343
0.00906167
0.00898862
0.0114577
0.0115376
0.0116134
0.0116862
0.0117548
0.0118194
0.0118805
0.0119373
0.0119902
0.0120394
0.0120856
0.0121285
0.0121681
0.0122045
0.0122376
0.0122677
0.0122942
0.0123177
0.0123376
0.0123539
0.012367
0.0123774
0.0123851
0.0123905
0.0123933
0.0123934
0.0123911
0.0123864
0.01238
0.0123721
0.0123628
0.0123514
0.012338
0.0123223
0.0123045
0.0122841
0.0122608
0.0122346
0.0122052
0.0121727
0.0121372
0.0120986
0.0120576
0.0120149
0.011971
0.0119265
0.0118805
0.0118331
0.0117844
0.0117348
0.0116834
0.0116291
0.0115722
0.0115124
0.0114491
0.0113811
0.0113094
0.0112336
0.0111558
0.0110752
0.0109926
0.0134304
0.0135137
0.0135926
0.0136671
0.0137375
0.0138039
0.0138657
0.0139227
0.0139757
0.0140245
0.0140694
0.0141111
0.0141494
0.0141837
0.0142143
0.014242
0.0142665
0.0142874
0.0143041
0.0143159
0.0143238
0.0143283
0.0143297
0.0143284
0.0143243
0.0143169
0.0143062
0.0142922
0.0142761
0.014259
0.0142418
0.0142229
0.014203
0.0141811
0.0141582
0.014133
0.0141043
0.0140724
0.0140374
0.0139993
0.0139576
0.0139117
0.0138623
0.0138107
0.0137575
0.0137044
0.0136489
0.0135927
0.0135352
0.0134786
0.0134205
0.0133591
0.0132958
0.0132296
0.0131606
0.0130854
0.0130061
0.0129217
0.0128359
0.0127466
0.012655
0.01523
0.0153102
0.0153854
0.0154552
0.0155204
0.0155803
0.015636
0.0156874
0.0157351
0.0157781
0.0158163
0.0158514
0.0158833
0.0159115
0.0159348
0.0159544
0.0159726
0.0159881
0.0159995
0.0160051
0.0160045
0.0160004
0.0159927
0.0159815
0.0159677
0.0159502
0.0159289
0.0159019
0.0158705
0.0158375
0.0158063
0.015774
0.0157424
0.0157096
0.0156786
0.0156474
0.0156113
0.0155705
0.0155275
0.0154831
0.0154357
0.0153839
0.0153265
0.0152657
0.0152031
0.0151411
0.0150749
0.0150084
0.0149395
0.014874
0.0148088
0.0147383
0.0146672
0.0145943
0.0145202
0.0144381
0.0143522
0.0142594
0.0141661
0.0140689
0.01397
0.0168623
0.0169344
0.0170021
0.0170573
0.0171103
0.0171503
0.0171917
0.0172221
0.0172551
0.0172895
0.0173163
0.0173308
0.0173498
0.017368
0.0173809
0.0173859
0.0173877
0.0173903
0.0173949
0.0173948
0.0173834
0.0173704
0.0173562
0.0173335
0.0173077
0.0172783
0.0172475
0.0172125
0.0171652
0.0171114
0.0170611
0.0170088
0.0169586
0.0169059
0.0168602
0.0168208
0.0167763
0.0167219
0.0166657
0.0166108
0.0165557
0.0165037
0.0164403
0.0163715
0.0163049
0.0162357
0.0161636
0.0160869
0.0160079
0.015931
0.0158577
0.0157758
0.0156918
0.0156131
0.0155312
0.0154462
0.0153533
0.0152557
0.0151539
0.015051
0.0149443
0.000319571
0.000321556
0.000323622
0.000325765
0.000327958
0.000330156
0.00033239
0.000334688
0.000337032
0.000339401
0.000341791
0.00034423
0.000346682
0.000349224
0.000352315
0.000355201
0.000357993
0.000360773
0.000363553
0.000366358
0.000369174
0.000372003
0.000374854
0.000377706
0.000380547
0.000383383
0.000386215
0.00038903
0.000391811
0.000394561
0.000397268
0.000399923
0.000402512
0.000405038
0.000407476
0.000409821
0.000412065
0.000414185
0.000416029
0.000417366
0.000418283
0.000418794
0.000418896
0.000418585
0.000417804
0.000416489
0.000414598
0.000412064
0.000408765
0.000404546
0.00039927
0.000392768
0.000384749
0.000374883
0.000362245
0.000340904
0.000330531
0.000325024
0.000322776
0.000321716
0.000319558
0.00171629
0.00168479
0.00165275
0.00162054
0.00158812
0.00155581
0.00152306
0.00149063
0.00145812
0.00142604
0.00139463
0.00136305
0.00133191
0.00130102
0.0012668
0.00123248
0.00119863
0.00116541
0.00113292
0.00110121
0.00107025
0.00103985
0.00100999
0.000980652
0.000951807
0.000923493
0.000895681
0.000868421
0.000841687
0.000815487
0.000789856
0.000764816
0.000740358
0.000716526
0.00069338
0.000670936
0.000649292
0.000628523
0.000608341
0.000585906
0.000562834
0.000540677
0.000519544
0.000499618
0.000480995
0.000463874
0.000448529
0.000435223
0.000424225
0.00041587
0.000410525
0.000408627
0.000410604
0.000416998
0.000426526
0.000448763
0.000483371
0.00053905
0.000624825
0.000748429
0.000869581
0.00409798
0.00404553
0.00399219
0.00393741
0.00388141
0.00382449
0.00376659
0.00370819
0.00364923
0.0035903
0.00352982
0.00346907
0.00341111
0.00335318
0.00329264
0.00322969
0.00316532
0.00310074
0.0030363
0.00297231
0.00290862
0.00284491
0.00278117
0.00271738
0.00265345
0.00258943
0.00252526
0.00246097
0.00239639
0.00233161
0.00226652
0.00220109
0.00213538
0.00206929
0.00200289
0.00193615
0.00186913
0.00180179
0.00173396
0.00166427
0.00159242
0.00150879
0.00141765
0.00132357
0.0012277
0.00113123
0.00103576
0.000942785
0.000854265
0.000772182
0.000698514
0.00063514
0.000583315
0.000544415
0.000518225
0.000508916
0.000519252
0.000554358
0.000623806
0.000741516
0.000904698
0.00660983
0.00654516
0.00647896
0.00641062
0.00633971
0.00626735
0.00619365
0.00611933
0.00604479
0.00596978
0.00589135
0.00581417
0.00573995
0.00566573
0.00558855
0.00550813
0.00542517
0.00534137
0.00525735
0.00517348
0.00508954
0.00500478
0.00491939
0.00483342
0.00474665
0.00465908
0.00457059
0.00448116
0.00439053
0.00429862
0.00420536
0.00411074
0.00401471
0.00391728
0.00381848
0.00371829
0.00361665
0.00351357
0.00340883
0.00330187
0.00319184
0.00307548
0.00294468
0.00279672
0.00263711
0.00246606
0.00228433
0.00209311
0.00189477
0.00169327
0.00149311
0.00130144
0.00112463
0.000969491
0.000839963
0.000741241
0.000676565
0.000646133
0.000652146
0.000702163
0.000804913
0.00891381
0.00883852
0.00876147
0.00868227
0.00859903
0.00851374
0.00842692
0.00834022
0.00825314
0.00816557
0.00807363
0.00798351
0.00789594
0.00780866
0.00771849
0.00762471
0.0075277
0.00742991
0.00733173
0.00723364
0.00713507
0.00703489
0.00693375
0.00683178
0.00672845
0.00662391
0.00651776
0.00640998
0.00630012
0.00618815
0.00607396
0.00595772
0.00583946
0.00571933
0.0055973
0.00547349
0.00534788
0.00522042
0.00509094
0.00495914
0.00482448
0.00468566
0.00453945
0.00437674
0.00419579
0.00399885
0.00378434
0.00355082
0.00329709
0.0030239
0.00273266
0.00242803
0.0021187
0.00181695
0.00153689
0.00129305
0.00109775
0.000953694
0.00085864
0.000812106
0.000817826
0.0109072
0.0108215
0.0107344
0.010645
0.0105504
0.0104531
0.0103535
0.0102548
0.0101562
0.0100575
0.00995379
0.00985177
0.00975195
0.00965333
0.00955146
0.00944611
0.00933723
0.00922833
0.00911903
0.00900989
0.00889979
0.00878693
0.00867327
0.00855902
0.00844289
0.00832513
0.00820505
0.00808274
0.00795739
0.00782929
0.00769831
0.00756509
0.00742976
0.00729268
0.00715371
0.00701313
0.00687089
0.00672706
0.00658147
0.006434
0.0062842
0.00613153
0.00597452
0.00580941
0.00562567
0.00542655
0.00520924
0.00497215
0.00471214
0.00442632
0.00411259
0.00376949
0.00339885
0.00300836
0.0026104
0.00222596
0.00187774
0.0015815
0.0013438
0.00116607
0.00104818
0.012559
0.0124632
0.0123665
0.0122681
0.0121627
0.0120536
0.0119413
0.011831
0.0117215
0.011613
0.0114979
0.0113846
0.0112736
0.0111651
0.0110529
0.0109377
0.0108185
0.0107005
0.0105822
0.0104643
0.0103448
0.0102209
0.0100972
0.00997371
0.0098473
0.00971872
0.00958668
0.00945215
0.00931326
0.00917121
0.00902586
0.00887905
0.00873044
0.008581
0.00843003
0.0082782
0.00812513
0.0079714
0.00781673
0.00766133
0.00750456
0.00734619
0.00718543
0.0070203
0.00684634
0.0066536
0.00644496
0.00621835
0.00597102
0.00569998
0.0054013
0.00507101
0.00470643
0.00430612
0.0038748
0.00342412
0.0029738
0.00254709
0.00216253
0.00183254
0.00156478
0.0138641
0.0137579
0.0136522
0.0135461
0.013431
0.013311
0.0131866
0.0130646
0.0129452
0.0128277
0.0127023
0.0125787
0.0124581
0.0123415
0.0122206
0.0120968
0.0119693
0.0118436
0.011718
0.0115933
0.0114654
0.0113314
0.0111999
0.0110698
0.0109344
0.0107955
0.010652
0.0105062
0.0103541
0.0101989
0.0100406
0.0098833
0.00972466
0.00956701
0.00940814
0.00924977
0.00909062
0.00893302
0.00877595
0.00862038
0.00846453
0.00830869
0.0081517
0.00799234
0.00782757
0.00764957
0.0074552
0.00724469
0.00701668
0.00676896
0.00649888
0.00620227
0.00587417
0.00551028
0.00510809
0.00466928
0.0042026
0.00372255
0.00324834
0.00279867
0.00239103
0.0148341
0.0147154
0.0146029
0.0144866
0.0143665
0.0142348
0.0141026
0.013966
0.0138389
0.0137113
0.0135795
0.0134455
0.0133193
0.0131945
0.0130694
0.0129357
0.0128055
0.01267
0.0125393
0.0124111
0.0122731
0.0121324
0.0119945
0.0118565
0.0117125
0.0115602
0.0114069
0.0112474
0.0110825
0.0109136
0.0107456
0.0105809
0.0104151
0.0102523
0.0100896
0.00992865
0.00976837
0.00961497
0.00946382
0.00931776
0.00917025
0.00902473
0.00887822
0.00872968
0.00857767
0.0084177
0.00824009
0.00804635
0.00783966
0.00762268
0.00738678
0.00713325
0.00685082
0.00654044
0.00619205
0.00580885
0.00538338
0.00492669
0.00444208
0.00394507
0.00345574
0.000315557
0.000310977
0.000305963
0.00030055
0.000294946
0.000289252
0.000283635
0.000278301
0.000273416
0.000269098
0.000265414
0.000262421
0.00026007
0.000258284
0.000256994
0.000256119
0.000255556
0.000255223
0.000255072
0.000255068
0.000255171
0.000255351
0.000255614
0.000255928
0.000256287
0.000256704
0.000257174
0.000257691
0.000258248
0.000258852
0.000259493
0.000260167
0.000260871
0.0002616
0.000262339
0.000263085
0.000263832
0.000264565
0.000265261
0.000265914
0.000266526
0.000267076
0.000267557
0.000267977
0.000268322
0.000268591
0.000268807
0.000268996
0.000269162
0.000269308
0.000269464
0.000269665
0.000269887
0.000270148
0.000270454
0.000270806
0.00027117
0.000271504
0.000271827
0.000272135
0.000272399
0.000935014
0.000990554
0.00103429
0.00106069
0.00107177
0.00107174
0.00105816
0.00103182
0.000995178
0.000950471
0.000900002
0.000847236
0.000794903
0.000745074
0.000698323
0.000656269
0.000620475
0.000590938
0.00056716
0.000548497
0.000534122
0.000523235
0.000515035
0.000509014
0.000504669
0.00050169
0.000499874
0.000499024
0.000499005
0.000499687
0.000500956
0.000502693
0.000504768
0.000507035
0.000509363
0.00051161
0.000513623
0.00051527
0.000516392
0.000516844
0.000516483
0.000515177
0.000512807
0.000509263
0.000504487
0.000498477
0.000491306
0.000483156
0.000474295
0.000465122
0.000456123
0.000447827
0.00044073
0.000435208
0.00043154
0.000429766
0.000429796
0.000431366
0.000434211
0.000437908
0.000442017
0.00107559
0.00124739
0.00141588
0.0015663
0.00166622
0.00174426
0.00179756
0.00182102
0.00181846
0.00179305
0.00174575
0.00168106
0.00160308
0.00151556
0.00142088
0.00132414
0.00123215
0.0011489
0.00107611
0.00101573
0.000967824
0.000931297
0.000904389
0.000885299
0.000872157
0.000863831
0.000859335
0.000857907
0.000858943
0.000861908
0.000866384
0.000871886
0.000877921
0.000884006
0.00088964
0.000894386
0.000897794
0.000899437
0.000898899
0.000895819
0.000889895
0.000880938
0.000868842
0.000853655
0.000835475
0.000814585
0.000791358
0.00076633
0.000740141
0.000713697
0.000688157
0.000664877
0.000645447
0.000631297
0.000623735
0.000623456
0.000630694
0.000645157
0.000666277
0.000693247
0.000725328
0.000957181
0.00115295
0.0013806
0.00161833
0.00183466
0.00202995
0.00220921
0.00233817
0.0024266
0.00248447
0.00250842
0.00250112
0.00246715
0.00240827
0.00232632
0.00222492
0.00210856
0.00198928
0.00187332
0.00176708
0.00167523
0.00160075
0.00154386
0.00150299
0.00147546
0.00145916
0.00145206
0.00145262
0.00145936
0.00147102
0.00148657
0.00150497
0.00152505
0.0015456
0.00156547
0.00158358
0.0015988
0.00161006
0.00161632
0.00161659
0.00161
0.00159589
0.00157381
0.00154356
0.00150516
0.00145912
0.00140617
0.0013474
0.00128398
0.00121769
0.00115083
0.00108635
0.00102801
0.000980217
0.000947741
0.000934321
0.000941323
0.00096814
0.00101294
0.00107325
0.00114515
0.000880179
0.00100285
0.00118661
0.00142229
0.00168643
0.00195862
0.00222424
0.0024601
0.00266187
0.00283698
0.00296508
0.00304515
0.00309256
0.00310631
0.00308872
0.00304468
0.00297601
0.00288454
0.00278301
0.00267944
0.0025798
0.00249132
0.00241903
0.00236487
0.00232813
0.00230756
0.0023016
0.00230864
0.00232665
0.00235366
0.00238815
0.00242844
0.0024726
0.00251854
0.00256434
0.00260805
0.00264774
0.00268153
0.00270745
0.00272366
0.00272841
0.00272038
0.00269826
0.00266128
0.00260872
0.00254083
0.00245797
0.00236121
0.0022519
0.00213209
0.00200462
0.00187379
0.00174516
0.00162654
0.00152845
0.00146304
0.00143613
0.00144782
0.00149481
0.00156751
0.00165808
0.000992098
0.00100027
0.00107627
0.00122195
0.001432
0.00169387
0.00198847
0.00228913
0.00257501
0.00283531
0.00305678
0.00323606
0.00338338
0.0034826
0.00353864
0.0035688
0.00357344
0.00355645
0.00352484
0.00348261
0.00343677
0.00339183
0.00335291
0.00332478
0.00330908
0.0033071
0.00331969
0.00334696
0.00338754
0.0034395
0.00350139
0.0035713
0.00364684
0.00372529
0.00380406
0.00388044
0.00395184
0.00401552
0.00406869
0.00410868
0.00413289
0.00413932
0.00412592
0.00409118
0.00403341
0.00395248
0.00384792
0.00372034
0.00357035
0.0033998
0.00321099
0.00300824
0.00279743
0.00258736
0.00239204
0.00223119
0.00211568
0.00205675
0.00205668
0.00210725
0.00219597
0.00136428
0.00123397
0.0011761
0.00119279
0.00128482
0.0014504
0.00168246
0.0019651
0.00227595
0.00259083
0.00288668
0.00314867
0.00337223
0.00355166
0.00369104
0.00380573
0.0038822
0.00393209
0.0039727
0.00400693
0.00404522
0.00408604
0.00412885
0.00417365
0.00422281
0.00427777
0.00434143
0.00441538
0.00449981
0.00459335
0.00469539
0.00480429
0.00491797
0.00503372
0.00514886
0.00526045
0.00536547
0.0054606
0.00554239
0.00560753
0.00565288
0.00567591
0.0056741
0.0056455
0.00558748
0.00549928
0.00537962
0.00522852
0.00504599
0.00483304
0.00459116
0.00432379
0.00403542
0.00373342
0.0034314
0.00314958
0.00291116
0.0027417
0.00265726
0.00265712
0.00272563
0.00203925
0.0017544
0.00154364
0.0014116
0.00136014
0.0013895
0.00149818
0.00168111
0.00192793
0.00222103
0.0025367
0.0028507
0.00314467
0.00340413
0.00362428
0.00380805
0.00395679
0.00407779
0.00418987
0.00427813
0.00438254
0.00449734
0.00462236
0.00475624
0.00489896
0.00504694
0.00519716
0.00534931
0.00550578
0.0056649
0.00582645
0.00598878
0.00615046
0.00631002
0.0064653
0.00661407
0.00675354
0.00688011
0.00698977
0.00707879
0.00714451
0.00718326
0.00719283
0.00717118
0.00711506
0.00702234
0.00689198
0.00672203
0.0065131
0.00626486
0.00597849
0.00565557
0.00529855
0.0049128
0.00451058
0.00411059
0.00374333
0.00344952
0.0032641
0.0031987
0.00323685
0.0029889
0.00256724
0.00220592
0.00191505
0.00170498
0.00157956
0.00154
0.00158382
0.00170699
0.00190203
0.00215529
0.00244961
0.00276553
0.00308169
0.00338
0.00365351
0.00388799
0.00408394
0.00424519
0.00438086
0.0045445
0.00470278
0.00487371
0.00506471
0.00528166
0.00551792
0.00576753
0.00602201
0.00627421
0.00652314
0.00676715
0.00700209
0.00722481
0.00743862
0.00764029
0.00783052
0.00800753
0.00816769
0.00830598
0.00841787
0.0085049
0.00855777
0.00857889
0.00856415
0.00851249
0.00841714
0.00828134
0.00809456
0.00786516
0.00758661
0.00726485
0.0068956
0.00647961
0.00602501
0.00553677
0.00503265
0.0045501
0.00414361
0.00386079
0.00372977
0.00373269
0.00535546
0.0189779
0.0193249
0.00187128
0.00554687
0.00708216
0.0012502
0.00593267
0.00129016
0.00335778
0.01049
0.0149202
0.00125004
0.0132716
0.00664694
0.0193319
0.00126358
0.0063422
0.00990653
0.00125242
0.00186009
0.0130993
0.0185786
0.00127786
0.00127986
0.00475565
0.00125252
0.00316481
0.00126004
0.00131715
0.00703005
0.00127049
0.00273874
0.0087652
0.0140588
0.00918808
0.00799501
0.0139471
0.00124682
0.0135656
0.00497432
0.0137576
0.00124679
0.0190934
0.00521606
0.00993667
0.00135034
0.00240561
0.00123288
0.0151144
0.0107404
0.0157025
0.00124159
0.00144354
0.00204469
0.000199047
0.00131448
0.00482825
0.00882358
0.0182344
0.0040819
0.00135757
0.0012345
0.00366508
0.0197239
0.00775528
0.00907671
0.00437775
0.00148766
0.00124255
0.013558
0.0140292
0.00481141
0.000583404
0.00276317
0.0184408
0.0191675
0.0168606
0.00123981
0.0144469
0.00194184
0.0127981
0.00084091
0.0183789
0.00124256
0.0118817
0.0012859
0.011937
0.00182379
0.00159168
0.00552692
0.00123876
0.00138111
0.0175791
0.0195204
0.00134255
0.0109465
0.00437574
0.00178314
0.0191794
0.0040913
0.0178351
0.00825831
0.00123755
0.00124179
0.00123968
0.00585094
0.0066898
0.00126434
0.019657
0.0188889
0.00166349
0.00791019
0.00766098
0.00533642
0.0123708
0.0100988
0.00140758
0.00593757
0.00142738
0.0011196
0.00555533
0.00153057
0.0173124
0.0132155
0.00318105
0.00124624
0.0130096
0.013544
0.00124637
0.00351288
0.00375017
0.00297497
0.00154588
0.0131584
0.00124569
0.0012418
0.0137559
0.0161786
0.00125318
0.00315537
0.0196049
0.00427257
0.0090798
0.00822167
0.0170694
0.00045936
0.00885465
0.00250512
0.0165312
0.0121879
0.000199094
0.0140744
0.0183066
0.0195627
0.00128838
0.00126941
0.00820499
0.00124428
0.00824319
0.000751923
0.00162424
0.00124361
0.00124744
0.00124292
0.0173635
0.00417015
0.00649663
0.00128975
0.0145043
0.00676855
0.00226209
0.0128763
0.00255579
0.00759443
0.0057579
0.0114238
0.00125977
0.00171421
0.00398755
0.012388
0.0141268
0.0175015
0.00124778
0.00132788
0.00888018
0.00395424
0.0116372
0.0012447
0.00135001
0.00572159
0.00129881
0.0168344
0.0101466
0.00124116
0.00858658
0.00334724
0.0190809
0.00151826
0.00632733
0.00124758
0.00125363
0.0195612
0.0152879
0.0160646
0.00152674
0.00129541
0.00186103
0.0157177
0.00567689
0.0106288
0.0192184
0.0148165
0.0187276
0.00398633
0.0189772
0.0182024
0.0138204
0.0154965
0.0122839
0.00149068
0.00420259
0.00125149
0.00126241
0.0104908
0.00296948
0.00311891
0.00148
0.00248113
0.0142263
0.00976339
0.00289892
0.0193656
0.013759
0.00470628
0.00124491
0.00449836
0.0174875
0.0129738
0.00145374
0.00916114
0.00342538
0.00350631
0.00252156
0.0177477
0.00721486
0.00443318
0.0192089
0.00139001
0.00124182
0.00142687
0.00232357
0.00956026
0.0013005
0.00151406
0.00124573
0.00758096
0.0187941
0.0186385
0.0137668
0.0119683
0.016116
0.0165771
0.00149206
0.00804624
0.0184341
0.0012461
0.00425972
0.00124266
0.00440803
0.00751227
0.00417687
0.00165687
0.00124633
0.0156478
0.00314872
0.00124292
0.00125557
0.00125878
0.00126162
0.00983438
0.00655133
0.0174296
0.00183771
0.00124287
0.00124388
0.00123807
0.0188543
0.00413657
0.00150994
0.012548
0.00596738
0.00163353
0.00123845
0.0080243
0.00124266
0.00209735
0.00413604
0.00724462
0.00255772
0.00141425
0.00173812
0.0165169
0.00494303
0.00269258
0.0164385
0.00131716
0.00124336
0.00124542
0.0191725
0.0012754
0.0150869
0.00124534
0.0133145
0.0104363
0.00273965
0.00545695
0.00578922
0.00154845
0.0133425
0.0128055
0.00278715
0.021778
0.0107084
0.0162992
0.014059
0.0189984
0.00822111
0.0188487
0.00474567
0.00660938
0.0164591
0.0176789
0.0129166
0.0122205
0.00140495
0.0164185
0.00533488
0.0183631
0.00363356
0.00133458
0.00124657
0.00129969
0.00399674
0.0102439
0.00698709
0.00613284
0.00124903
0.0196647
0.00124615
0.00714585
0.0137709
0.0191253
0.0140958
0.0156329
0.00166356
0.00147578
0.00153827
0.00815813
0.00220226
0.00612804
0.00928266
0.010503
0.0179818
0.0185028
0.0159232
0.00131552
0.0174576
0.0195244
0.00286857
0.00125443
0.0196937
0.0196963
0.00127902
0.0115478
0.00125542
0.010667
0.0160235
0.0112379
0.0187893
0.004964
0.0195939
0.00127585
0.0195706
0.00139245
0.0173899
0.0173411
0.0115796
0.0175539
0.0127296
0.00832681
0.0105714
0.00147348
0.00377868
0.00124754
0.0020597
0.00128839
0.00701711
0.00138573
0.0180746
0.00124341
0.00125593
0.00176919
0.00913777
0.00510414
0.0134355
0.00148356
0.018882
0.00779606
0.0192418
0.00612139
0.0158944
0.0103541
0.00129961
0.017532
0.0174937
0.00125018
0.0172776
0.0142519
0.00124039
0.00124169
0.00875697
0.00184367
0.0126692
0.00154305
0.00653855
0.00366345
0.0091889
0.0155309
0.0176112
0.0153504
0.0170902
0.0175131
0.00140413
0.00128687
0.00887235
0.0126955
0.0159851
0.0111266
0.0190976
0.00455497
0.0192424
0.0192438
0.00645992
0.00302617
0.0157289
0.0142888
0.00132246
0.0178041
0.014807
0.00144962
0.0193059
0.0164152
0.0158256
0.00343435
0.00462544
0.0128818
0.00166516
0.0161683
0.00154131
0.00346982
0.00125176
0.0112069
0.00291553
0.00861943
0.00157093
0.00136849
0.00866463
0.00867506
0.0017602
0.00281957
0.0105538
0.00278647
0.00131983
0.0160364
0.0089905
0.0131202
0.0077669
0.00353999
0.0119325
0.0164731
0.0177838
0.00621494
0.0122421
0.0169029
0.00614904
0.0154042
0.0193875
0.000386952
0.00587955
0.0122406
0.00129766
0.00327094
0.00792711
0.0120502
0.00279575
0.0214532
0.00433741