/*--------------------------------*- C++ -*----------------------------------*\
| =========                 |                                                 |
| \\      /  F ield         | OpenFOAM: The Open Source CFD Toolbox           |
|  \\    /   O peration     | Version:  2.3.1                                 |
|   \\  /    A nd           | Web:      www.OpenFOAM.org                      |
|    \\/     M anipulation  |                                                 |
\*---------------------------------------------------------------------------*/
FoamFile
{
    version     2.0;
    format      ascii;
    class       volScalarField;
    location    "0.55";
    object      p;
}
// * * * * * * * * * * * * * * * * * * * * * * * * * * * * * * * * * * * * * //

dimensions      [0 2 -2 0 0 0 0];

internalField   nonuniform List<scalar> 
9648
(
-0.154115
-0.423921
-0.743438
-1.10911
-1.54831
-2.07391
-2.69756
-3.42841
-4.27291
-5.24919
-6.36855
-7.64378
-9.08736
-10.71
-12.5214
-14.5321
-16.7504
-19.1846
-21.838
-24.715
-27.821
-31.1531
-34.7114
-38.4904
-42.485
-46.6854
-51.081
-55.6647
-60.4198
-65.3382
-70.3987
-75.5869
-80.8874
-86.2759
-91.7401
-97.2528
-102.8
-108.363
-113.915
-119.437
-124.905
-130.312
-135.618
-140.815
-145.89
-150.812
-155.568
-160.14
-164.533
-168.721
-172.66
-176.356
-179.812
-182.996
-185.912
-188.545
-190.88
-192.924
-194.654
-196.082
-197.198
0.37595
0.118573
-0.186956
-0.54584
-0.979992
-1.48973
-2.08743
-2.78794
-3.60389
-4.54376
-5.61859
-6.84007
-8.21923
-9.76647
-11.4921
-13.4057
-15.5152
-17.8269
-20.3454
-23.0748
-26.0187
-29.1775
-32.5495
-36.1302
-39.9131
-43.89
-48.0522
-52.3909
-56.8932
-61.548
-66.3378
-71.2478
-76.2628
-81.3625
-86.5309
-91.7476
-96.9959
-102.256
-107.507
-112.729
-117.903
-123.011
-128.029
-132.941
-137.731
-142.375
-146.86
-151.167
-155.283
-159.199
-162.91
-166.396
-169.647
-172.649
-175.389
-177.863
-180.051
-181.965
-183.582
-184.904
-185.917
0.190409
-0.0445601
-0.324796
-0.658319
-1.05014
-1.52253
-2.08272
-2.74226
-3.51149
-4.40355
-5.42883
-6.59909
-7.92478
-9.41612
-11.0835
-12.9359
-14.981
-17.224
-19.6691
-22.3206
-25.1821
-28.2548
-31.5375
-35.0244
-38.7089
-42.5828
-46.6387
-50.8671
-55.2572
-59.7958
-64.4675
-69.2572
-74.1487
-79.1245
-84.1675
-89.2596
-94.3836
-99.5203
-104.649
-109.752
-114.808
-119.799
-124.706
-129.511
-134.197
-138.744
-143.136
-147.359
-151.397
-155.234
-158.863
-162.271
-165.452
-168.384
-171.069
-173.488
-175.648
-177.517
-179.104
-180.406
-181.428
0.413541
0.177643
-0.100792
-0.429577
-0.817829
-1.27653
-1.81641
-2.44894
-3.18556
-4.03854
-5.0196
-6.13987
-7.40989
-8.84004
-10.4416
-12.2228
-14.1902
-16.3482
-18.7002
-21.2512
-24.0066
-26.9675
-30.1314
-33.4916
-37.0399
-40.77
-44.6755
-48.7481
-52.9752
-57.344
-61.8393
-66.4456
-71.1496
-75.9344
-80.7843
-85.682
-90.6104
-95.5495
-100.479
-105.383
-110.241
-115.036
-119.748
-124.361
-128.856
-133.218
-137.429
-141.475
-145.344
-149.02
-152.495
-155.756
-158.796
-161.6
-164.16
-166.465
-168.512
-170.287
-171.787
-173.009
-173.951
0.46751
0.264021
0.0174828
-0.280599
-0.63847
-1.06549
-1.57134
-2.16663
-2.86346
-3.67264
-4.60647
-5.6747
-6.88823
-8.25721
-9.79384
-11.5044
-13.3945
-15.4675
-17.7258
-20.1777
-22.8295
-25.6803
-28.7281
-31.9609
-35.373
-38.9603
-42.7174
-46.6367
-50.7039
-54.9029
-59.2196
-63.6415
-68.1565
-72.7544
-77.4175
-82.1275
-86.8683
-91.6156
-96.3509
-101.06
-105.725
-110.328
-114.853
-119.282
-123.597
-127.782
-131.822
-135.702
-139.41
-142.934
-146.262
-149.387
-152.299
-154.987
-157.441
-159.649
-161.602
-163.296
-164.732
-165.9
-166.798
0.554957
0.367368
0.1407
-0.134715
-0.466044
-0.863695
-1.33688
-1.8961
-2.55411
-3.32034
-4.20825
-5.22561
-6.38492
-7.69353
-9.16712
-10.8084
-12.6206
-14.6081
-16.7721
-19.1246
-21.6745
-24.4158
-27.3451
-30.4475
-33.7186
-37.1601
-40.7663
-44.5327
-48.4323
-52.4518
-56.58
-60.8023
-65.1232
-69.5294
-74.0053
-78.526
-83.0737
-87.6205
-92.148
-96.65
-101.11
-105.512
-109.837
-114.072
-118.196
-122.194
-126.053
-129.754
-133.29
-136.649
-139.822
-142.798
-145.572
-148.135
-150.473
-152.573
-154.424
-156.027
-157.385
-158.488
-159.331
0.64548
0.474555
0.26675
0.0121129
-0.2947
-0.665227
-1.10801
-1.63251
-2.25352
-2.97783
-3.82188
-4.79056
-5.89776
-7.14692
-8.55895
-10.1299
-11.8633
-13.7655
-15.8347
-18.0891
-20.5382
-23.165
-25.9755
-28.9417
-32.0699
-35.3673
-38.8214
-42.4249
-46.1524
-49.9738
-53.9031
-57.9328
-62.0536
-66.2813
-70.5744
-74.8956
-79.2454
-83.5766
-87.8767
-92.1617
-96.4096
-100.607
-104.725
-108.757
-112.685
-116.488
-120.159
-123.674
-127.03
-130.216
-133.228
-136.048
-138.675
-141.109
-143.33
-145.318
-147.061
-148.563
-149.837
-150.877
-151.664
0.733914
0.580421
0.393411
0.15831
-0.123669
-0.468778
-0.883845
-1.37189
-1.95909
-2.63987
-3.44468
-4.36425
-5.42933
-6.61055
-7.96352
-9.46619
-11.1147
-12.9398
-14.9182
-17.064
-19.4209
-21.9191
-24.6108
-27.4453
-30.4248
-33.5913
-36.8716
-40.3134
-43.8456
-47.4468
-51.1996
-55.042
-58.9775
-63.0369
-67.1633
-71.258
-75.3978
-79.4839
-83.5226
-87.5932
-91.6245
-95.6325
-99.5243
-103.345
-107.087
-110.678
-114.17
-117.478
-120.658
-123.65
-126.509
-129.15
-131.615
-133.925
-136.041
-137.9
-139.538
-140.914
-142.105
-143.095
-143.816
0.826839
0.681594
0.530239
0.2996
0.052879
-0.278067
-0.671568
-1.09674
-1.68175
-2.28531
-3.08685
-3.92674
-5.00343
-6.05087
-7.38797
-8.83777
-10.3603
-12.1567
-14.0216
-16.0286
-18.3719
-20.6489
-23.2873
-25.9637
-28.7784
-31.8881
-34.9122
-38.2124
-41.5811
-44.8866
-48.5542
-52.2315
-55.9592
-59.9009
-63.8772
-67.5228
-71.5378
-75.3584
-79.0852
-83.0183
-86.7708
-90.6735
-94.2599
-97.9432
-101.552
-104.815
-108.232
-111.226
-114.296
-116.981
-119.754
-122.115
-124.443
-126.708
-128.7
-130.367
-131.997
-133.149
-134.334
-135.277
-135.86
-197.977
-198.433
-198.57
-198.378
-197.88
-197.063
-195.933
-194.488
-192.72
-190.655
-188.268
-185.575
-182.61
-179.379
-175.872
-172.105
-168.082
-163.832
-159.346
-154.639
-149.743
-144.644
-139.369
-133.927
-128.347
-122.635
-116.778
-110.81
-104.738
-98.5949
-92.3813
-86.1177
-79.8255
-73.505
-67.1845
-60.866
-54.573
-48.3175
-42.1076
-35.9602
-29.887
-23.9113
-18.0304
-12.2648
-6.62849
-1.12383
4.23332
9.43467
14.4651
19.3179
23.9881
28.4649
32.7372
36.8039
40.6542
44.2832
47.6858
50.8566
53.7951
56.4968
58.9614
-186.62
-186.99
-187.087
-186.883
-186.378
-185.582
-184.487
-183.097
-181.402
-179.408
-177.117
-174.537
-171.705
-168.629
-165.294
-161.705
-157.875
-153.817
-149.537
-145.049
-140.369
-135.504
-130.466
-125.267
-119.922
-114.442
-108.858
-103.173
-97.394
-91.5383
-85.6184
-79.6498
-73.6475
-67.6235
-61.5941
-55.5686
-49.5633
-43.5918
-37.6657
-31.7975
-26.0008
-20.2913
-14.6763
-9.16937
-3.7828
1.47641
6.59694
11.5682
16.3784
21.0203
25.4871
29.7698
33.8591
37.7518
41.4388
44.9153
48.1745
51.2141
54.0309
56.6219
58.9861
-182.153
-182.61
-182.727
-182.534
-182.051
-181.29
-180.218
-178.845
-177.155
-175.163
-172.905
-170.381
-167.58
-164.507
-161.185
-157.625
-153.834
-149.826
-145.607
-141.192
-136.591
-131.814
-126.873
-121.779
-116.543
-111.174
-105.694
-100.114
-94.4471
-88.7064
-82.9056
-77.0598
-71.1823
-65.2872
-59.3873
-53.4945
-47.6218
-41.7822
-35.9885
-30.2533
-24.5897
-19.0108
-13.5266
-8.14896
-2.88835
2.24669
7.24544
12.0975
16.7927
21.3238
25.6822
29.861
33.8521
37.6511
41.2498
44.6434
47.8261
50.7944
53.5455
56.0763
58.3868
-174.607
-174.989
-175.073
-174.866
-174.362
-173.545
-172.433
-171.1
-169.508
-167.653
-165.514
-163.11
-160.441
-157.516
-154.344
-150.935
-147.3
-143.447
-139.39
-135.14
-130.71
-126.11
-121.35
-116.441
-111.394
-106.222
-100.938
-95.5573
-90.0917
-84.5538
-78.9564
-73.3147
-67.6422
-61.9531
-56.2582
-50.5697
-44.8994
-39.2595
-33.6632
-28.1229
-22.6511
-17.2604
-11.9613
-6.76466
-1.68027
3.28404
8.11695
12.8091
17.3494
21.7327
25.9493
29.9922
33.8558
37.5338
41.0209
44.3092
47.3958
50.2746
52.9442
55.4007
57.6454
-167.421
-167.773
-167.846
-167.643
-167.159
-166.396
-165.378
-164.039
-162.446
-160.609
-158.514
-156.168
-153.574
-150.74
-147.672
-144.377
-140.862
-137.138
-133.216
-129.111
-124.833
-120.393
-115.801
-111.063
-106.193
-101.201
-96.1034
-90.9129
-85.6409
-80.2996
-74.8994
-69.4575
-63.9863
-58.5016
-53.011
-47.5268
-42.0591
-36.6194
-31.2221
-25.8784
-20.6003
-15.4011
-10.2903
-5.27862
-0.375459
4.41444
9.07574
13.6034
17.983
22.2127
26.2818
30.1831
33.9126
37.463
40.832
44.0094
46.9946
49.7773
52.3603
54.737
56.9106
-159.912
-160.228
-160.276
-160.057
-159.57
-158.821
-157.812
-156.532
-154.995
-153.213
-151.186
-148.917
-146.408
-143.673
-140.715
-137.539
-134.15
-130.557
-126.774
-122.818
-118.699
-114.428
-110.009
-105.449
-100.762
-95.9574
-91.0494
-86.0562
-80.9848
-75.8469
-70.6488
-65.413
-60.1484
-54.8766
-49.5978
-44.3253
-39.0674
-33.8346
-28.6433
-23.5027
-18.4247
-13.4238
-8.50719
-3.68741
1.02722
5.63837
10.1233
14.4826
18.6948
22.7661
26.6821
30.4357
34.0267
37.4428
40.6911
43.7524
46.633
49.3153
51.8096
54.1013
56.2015
-152.198
-152.475
-152.498
-152.261
-151.773
-151.038
-150.046
-148.797
-147.306
-145.584
-143.628
-141.438
-139.017
-136.384
-133.543
-130.489
-127.23
-123.766
-120.124
-116.321
-112.365
-108.269
-104.033
-99.6559
-95.1565
-90.5405
-85.8278
-81.0377
-76.1731
-71.2432
-66.2498
-61.2229
-56.1691
-51.1184
-46.0578
-41.006
-35.9663
-30.9461
-25.9663
-21.0367
-16.1646
-11.3669
-6.65012
-2.02854
2.49149
6.92007
11.2249
15.4138
19.4534
23.3606
27.1179
30.7189
34.1656
37.4422
40.5673
43.5094
46.2856
48.8635
51.2652
53.4668
55.4917
-144.304
-144.53
-144.53
-144.266
-143.783
-143.061
-142.094
-140.854
-139.394
-137.747
-135.87
-133.754
-131.42
-128.893
-126.182
-123.253
-120.125
-116.786
-113.291
-109.649
-105.855
-101.941
-97.9048
-93.7075
-89.3996
-84.9763
-80.4661
-75.8842
-71.2215
-66.5043
-61.7098
-56.8974
-52.0518
-47.236
-42.3977
-37.5866
-32.7858
-27.9696
-23.2022
-18.503
-13.8321
-9.23724
-4.73367
-0.308367
4.00286
8.25392
12.3709
16.3953
20.2479
23.9884
27.5778
31.0136
34.3208
37.4486
40.4596
43.2768
45.9551
48.414
50.7233
52.8234
54.7768
-136.306
-136.453
-136.44
-136.144
-135.67
-134.929
-134.006
-132.701
-131.318
-129.857
-127.985
-125.946
-123.663
-121.227
-118.745
-115.871
-112.868
-109.721
-106.35
-102.881
-99.1709
-95.4198
-91.6806
-87.5678
-83.4634
-79.3096
-74.9386
-70.6002
-66.0338
-61.6457
-56.927
-52.4518
-47.7028
-43.2219
-38.5674
-34.0264
-29.5246
-24.7965
-20.2481
-15.8268
-11.2759
-6.93355
-2.68104
1.62716
5.58497
9.79856
13.5918
17.5685
21.0977
24.7449
28.1834
31.3582
34.642
37.507
40.5391
43.1055
45.7917
47.984
50.3262
52.2261
54.2151
61.1901
63.1815
64.936
66.4544
67.736
68.785
69.6056
70.2025
70.5804
70.7451
70.7182
70.5425
70.2134
69.6901
68.9951
68.1368
67.081
65.8344
64.4191
62.8513
61.1434
59.3056
57.3502
55.2884
53.1322
50.8946
48.5889
46.2292
43.828
41.4008
38.9609
36.5234
34.1035
31.7149
29.3743
27.0947
24.8911
22.7775
20.7772
18.9045
17.1853
15.6239
14.2337
13.0345
12.0406
11.2615
10.7065
10.3773
10.2684
10.3617
10.6238
11.0017
11.4177
11.7707
11.9362
11.2453
9.744
8.22931
6.99086
6.06335
5.24544
61.1237
63.0352
64.7208
66.1806
67.415
68.426
69.217
69.792
70.1554
70.3094
70.2673
70.087
69.7721
69.272
68.5964
67.7523
66.7216
65.5098
64.1345
62.6105
60.9495
59.1621
57.2601
55.256
53.1614
50.9885
48.7497
46.4577
44.1254
41.7664
39.3941
37.0225
34.6659
32.3382
30.0542
27.8281
25.6745
23.6049
21.6254
19.7634
18.0271
16.4508
15.0444
13.8206
12.7912
11.9666
11.3551
10.9589
10.7727
10.7808
10.9526
11.2391
11.5659
11.8343
11.869
11.2173
9.89622
8.55326
7.49728
6.69425
5.8678
60.4758
62.3451
63.9942
65.4245
66.6354
67.6299
68.411
68.9829
69.348
69.5039
69.4709
69.3144
69.0231
68.5445
67.8939
67.0802
66.0913
64.9317
63.6142
62.1519
60.5561
58.837
57.0065
55.0761
53.0567
50.9604
48.7988
46.5845
44.3297
42.0476
39.7513
37.4542
35.1699
32.9121
30.6944
28.5308
26.4344
24.4172
22.4912
20.678
18.9951
17.4559
16.0725
14.8557
13.8167
12.9653
12.3082
11.8464
11.5744
11.4774
11.5263
11.6756
11.8517
11.9539
11.8082
11.149
9.99283
8.77099
7.74999
6.90953
6.07429
59.6756
61.4942
63.0996
64.4948
65.6776
66.6521
67.4191
67.9843
68.3462
68.5006
68.4823
68.3547
68.0877
67.6371
67.0161
66.2349
65.2881
64.1815
62.9234
61.5256
59.9985
58.3514
56.5969
54.7453
52.8069
50.7945
48.7185
46.5914
44.4246
42.2313
40.0237
37.8149
35.6177
33.4454
31.3108
29.2275
27.2077
25.2641
23.4094
21.6597
20.0299
18.5323
17.1773
15.9731
14.9301
14.0562
13.3553
12.8267
12.4631
12.2497
12.1583
12.1461
12.1462
12.0666
11.7724
11.1137
10.1076
9.00536
8.0103
7.14316
6.3186
58.8761
60.64
62.1977
63.5545
64.7051
65.6566
66.4057
66.9606
67.3153
67.469
67.4674
67.3688
67.124
66.7025
66.1119
65.3652
64.4595
63.4051
62.2051
60.8718
59.4141
57.8391
56.162
54.3913
52.5355
50.6095
48.6214
46.5845
44.5079
42.4061
40.2893
38.1712
36.0628
33.9778
31.9275
29.9257
27.9834
26.1133
24.3264
22.6367
21.0566
19.5983
18.2712
17.0825
16.0382
15.144
14.4021
13.8096
13.3576
13.0307
12.8022
12.6328
12.4659
12.2281
11.828
11.181
10.2966
9.31119
8.36048
7.48644
6.65821
58.0977
59.8054
61.3117
62.63
63.7454
64.6734
65.4025
65.9471
66.2938
66.4516
66.4662
66.3944
66.1698
65.7776
65.217
64.5068
63.6414
62.6394
61.4965
60.2275
58.8401
57.3365
55.7375
54.049
52.276
50.4383
48.5388
46.5936
44.6078
42.5988
40.5734
38.547
36.5274
34.5301
32.5636
30.6432
28.7779
26.9801
25.2583
23.6263
22.0935
20.6723
19.3701
18.1929
17.1446
16.2273
15.4428
14.7865
14.2486
13.8145
13.4595
13.1493
12.8383
12.4725
11.9916
11.3484
10.5459
9.65535
8.75911
7.89866
7.06987
57.3149
58.965
60.4173
61.6965
62.7753
63.6811
64.3905
64.9247
65.2643
65.4303
65.4606
65.4136
65.2088
64.8454
64.3146
63.6419
62.8174
61.8684
60.7812
59.5775
58.2622
56.8305
55.311
53.705
52.0148
50.2676
48.4582
46.6065
44.7121
42.7976
40.8648
38.9311
37.0003
35.0908
33.2075
31.3685
29.5798
27.8536
26.1946
24.618
23.1299
21.7438
20.4645
19.2966
18.242
17.3011
16.4753
15.7577
15.1383
14.6062
14.138
13.7062
13.2746
12.805
12.2582
11.607
10.8506
10.0259
9.18062
8.34489
7.5265
56.5155
58.1132
59.5034
60.7487
61.7835
62.6723
63.3585
63.8858
64.2168
64.3993
64.4396
64.4188
64.2307
63.8982
63.3945
62.7619
61.9742
61.087
60.047
58.9117
57.6738
56.3082
54.8781
53.3544
51.7392
50.0902
48.369
46.6164
44.8091
42.9946
41.1525
39.3156
37.4709
35.6515
33.8465
32.0905
30.377
28.7247
27.1241
25.6028
24.1528
22.8012
21.5422
20.3853
19.3231
18.3577
17.4964
16.7234
16.0289
15.4117
14.8444
14.3112
13.7789
13.2257
12.6218
11.9549
11.2189
10.436
9.62688
8.81645
8.01478
55.7391
57.3935
58.6226
59.9399
60.8211
61.7704
62.3276
62.9418
63.1846
63.4811
63.4325
63.5154
63.2653
63.0517
62.4992
61.9791
61.1275
60.4045
59.362
58.303
57.1769
55.7726
54.5021
53.0923
51.4659
49.9892
48.2868
46.7007
44.909
43.2539
41.4402
39.7523
37.9468
36.2662
34.4847
32.8503
31.1691
29.6278
28.0473
26.6158
25.1625
23.8721
22.6118
21.4764
20.4091
19.4028
18.5225
17.698
16.9276
16.2549
15.5908
14.9865
14.3593
13.7471
13.0834
12.4059
11.6664
10.9188
10.1252
9.32693
8.54562
4.44496
3.71827
3.03479
2.34326
1.65195
1.00081
0.402142
-0.134645
-0.588328
-0.951894
-1.22228
-1.40515
-1.50216
-1.50938
-1.45615
-1.36528
-1.25073
-1.13258
-1.02454
-0.933519
-0.861696
-0.802458
-0.752396
-0.719508
-0.67367
-0.639029
-0.597979
-0.550982
-0.49331
-0.424022
-0.33942
-0.238646
-0.122514
0.00886568
0.1518
0.306156
0.466851
0.629572
0.790662
0.944822
1.08725
1.21203
1.3186
1.40269
1.46098
1.49355
1.49952
1.48023
1.4366
1.37176
1.2897
1.19374
1.08683
0.974414
0.857531
0.738747
0.617986
0.493782
0.354666
0.184131
-0.00378073
5.03152
4.34321
3.71975
3.0742
2.41259
1.79265
1.22324
0.707441
0.271772
-0.0733374
-0.323718
-0.476714
-0.533514
-0.508584
-0.436632
-0.33747
-0.222774
-0.108742
-0.00722717
0.075637
0.139998
0.187477
0.231074
0.244881
0.284872
0.302577
0.330557
0.36283
0.40433
0.457547
0.525193
0.608541
0.707688
0.821808
0.948736
1.08523
1.22832
1.37435
1.51922
1.65892
1.78901
1.90502
2.00245
2.07813
2.12954
2.15564
2.15606
2.13115
2.08214
2.01151
1.92237
1.81818
1.7019
1.57925
1.45117
1.32177
1.18979
1.05568
0.913069
0.75572
0.579728
5.27351
4.59011
3.95287
3.25805
2.54563
1.90714
1.31591
0.762989
0.289604
-0.0945557
-0.38908
-0.592804
-0.709178
-0.754528
-0.728225
-0.654445
-0.537812
-0.408189
-0.293617
-0.201126
-0.130564
-0.0752399
-0.0398369
0.00874459
0.0264852
0.0629205
0.0949432
0.134424
0.18265
0.242264
0.315599
0.403837
0.506855
0.623538
0.751979
0.889558
1.03285
1.17807
1.32117
1.45774
1.58334
1.69394
1.78593
1.8562
1.90224
1.92298
1.91817
1.88885
1.8367
1.76457
1.67574
1.57429
1.46399
1.34849
1.23034
1.11151
0.991278
0.866519
0.730652
0.57407
0.390855
5.54097
4.84571
4.17809
3.46575
2.75424
2.11661
1.50774
0.930377
0.453468
0.0760777
-0.217336
-0.415553
-0.515794
-0.533147
-0.47301
-0.352488
-0.216932
-0.108952
-0.00386899
0.089306
0.163474
0.2194
0.258268
0.294624
0.312977
0.335343
0.356256
0.381688
0.414624
0.457964
0.514366
0.585392
0.671366
0.771222
0.883319
1.00509
1.13349
1.26502
1.39591
1.52213
1.63941
1.74396
1.8322
1.90129
1.94885
1.97388
1.97595
1.95593
1.91512
1.85613
1.78115
1.69359
1.59597
1.49115
1.38008
1.26485
1.14703
1.02722
0.902457
0.762489
0.605424
5.8764
5.15169
4.45185
3.73067
3.0169
2.35312
1.71721
1.13407
0.656094
0.263772
-0.056245
-0.269959
-0.380317
-0.415643
-0.38149
-0.297587
-0.194985
-0.0736345
0.0341775
0.125406
0.195047
0.247645
0.286643
0.319818
0.343856
0.367115
0.389903
0.416711
0.449799
0.491585
0.544771
0.611108
0.690802
0.782981
0.886265
0.998326
1.1164
1.23742
1.35793
1.4743
1.58248
1.67919
1.7608
1.82502
1.86918
1.89255
1.89415
1.87506
1.83579
1.77893
1.70645
1.62181
1.52822
1.42854
1.32482
1.2208
1.11804
1.01103
0.895497
0.772974
0.633722
6.27459
5.51684
4.78485
4.05326
3.33325
2.64802
1.99636
1.40038
0.893627
0.469925
0.135693
-0.0833785
-0.213408
-0.272161
-0.246235
-0.160358
-0.0513568
0.0625951
0.165937
0.246251
0.303611
0.347032
0.378628
0.40506
0.424434
0.441936
0.45812
0.478402
0.504469
0.537664
0.581762
0.638166
0.707333
0.788067
0.879407
0.979031
1.08445
1.19291
1.30127
1.4064
1.50419
1.59221
1.66655
1.72592
1.7671
1.79023
1.79364
1.77936
1.747
1.6997
1.63878
1.56788
1.48984
1.40776
1.32448
1.23828
1.14801
1.05452
0.953485
0.840831
0.709868
6.7278
5.95188
5.1954
4.45114
3.72313
3.02737
2.36865
1.76481
1.23311
0.782543
0.424551
0.173548
0.0102065
-0.0605403
-0.0373675
0.0356863
0.134101
0.237852
0.331188
0.398868
0.438813
0.467453
0.486289
0.504026
0.514106
0.523889
0.530669
0.543844
0.561553
0.584644
0.618459
0.664158
0.722315
0.791258
0.870408
0.957442
1.05004
1.14584
1.24207
1.33616
1.42368
1.50317
1.57026
1.62493
1.66288
1.68575
1.69072
1.68099
1.65505
1.61691
1.56666
1.50838
1.44363
1.37431
1.30326
1.23139
1.15745
1.08052
0.996298
0.90005
0.784516
7.22325
6.44553
5.68056
4.93456
4.20275
3.50956
2.85403
2.25795
1.72028
1.25762
0.881049
0.602387
0.395861
0.296188
0.283578
0.321977
0.409312
0.482974
0.544241
0.594895
0.605723
0.612264
0.609503
0.618186
0.613851
0.615447
0.609442
0.615145
0.625506
0.633891
0.656285
0.690741
0.740009
0.797674
0.865917
0.941326
1.0221
1.10624
1.19155
1.27645
1.35447
1.42705
1.48688
1.53823
1.57211
1.59503
1.60008
1.59454
1.57271
1.54202
1.49865
1.44985
1.39647
1.33826
1.27927
1.22001
1.16027
1.09953
1.03159
0.953443
0.854614
7.75277
6.99416
6.22521
5.48374
4.75433
4.08217
3.44314
2.89227
2.36361
1.91949
1.55818
1.29584
1.01258
0.88133
0.835237
0.804747
0.854192
0.777324
0.776843
0.851717
0.80134
0.784791
0.737017
0.766804
0.72233
0.730776
0.686373
0.691155
0.705905
0.68999
0.686815
0.719083
0.766064
0.809093
0.868632
0.934379
1.00226
1.07879
1.15452
1.23922
1.30187
1.37888
1.42126
1.48132
1.49991
1.53233
1.52283
1.53516
1.50395
1.48762
1.43913
1.39251
1.3514
1.30356
1.25713
1.20815
1.15985
1.11728
1.06177
1.00845
0.919985
4.96939
-4.47365
-5.78778
14.8708
5.84486
19.4143
18.0525
10.8187
11.5805
29.1732
1.66917
23.7219
18.1627
2.58034
21.7123
-102.258
20.6085
12.1573
1.47972
17.4904
15.0999
2.96891
0.893999
20.1835
11.4861
17.2091
17.5546
9.50685
20.3582
6.8913
10.5427
16.7124
28.5076
1.48105
23.0065
0.873356
0.767344
57.4184
18.7071
17.5388
7.83241
-2.80793
18.0811
-88.189
0.169287
31.6392
11.643
3.08554
16.2177
25.3632
-3.76221
-45.8771
17.1305
9.5727
13.9967
16.2514
6.99764
7.62974
0.960286
-31.3089
3.8318
15.5496
17.1087
-8.12664
-25.766
14.925
0.841122
8.77237
18.9194
18.1434
15.4112
59.6432
6.66204
13.4735
13.4068
6.31952
-12.6553
44.4596
17.1866
28.114
-0.724387
16.519
16.7322
-36.7263
18.0341
50.3553
12.0512
1.63757
15.3758
1.63418
-13.8321
17.172
5.17431
-31.8291
-36.9159
5.67462
44.2299
10.0563
25.5405
-101.401
14.5542
16.192
25.1632
17.0562
18.1716
17.0211
15.2344
39.7127
19.812
-77.8568
-109.023
15.974
0.298545
1.28428
5.94769
2.02505
1.09369
19.5754
-7.67785
11.3612
12.945
-0.0651355
11.3536
-117.71
-26.5265
10.6298
15.3574
-47.2013
-34.9964
17.8864
21.3448
-7.95875
3.62116
11.0353
2.48295
10.8132
18.0771
-53.0287
-30.7318
11.7097
9.66166
-52.995
14.9491
49.0954
1.40249
12.5174
16.6526
1.43321
31.8219
-0.847521
16.3076
16.2763
59.2264
-33.6507
-59.53
8.91242
8.31653
-27.8972
16.6229
0.75717
16.6733
26.4551
17.4796
12.5596
14.9657
13.0754
6.98071
9.78844
17.1571
0.0878607
-1.98016
1.616
5.85461
17.4728
1.16655
1.23905
1.20315
8.89747
22.4601
1.81217
1.9407
-1.25803
-30.9572
9.75788
6.49905
0.577767
-10.4591
52.1707
9.86081
11.9416
25.5338
20.2834
-16.8998
-39.2198
16.6293
-31.7081
4.24641
0.355759
21.3723
0.811288
9.88698
15.0347
13.5608
-58.7917
-1.89622
20.9022
8.52683
16.1255
-45.5137
0.915689
41.3444
-5.79869
16.4108
-117.298
11.1554
-77.7464
-65.2622
1.79123
33.3209
1.71136
11.4334
40.1931
12.0405
16.745
1.09422
-7.67786
-9.23211
11.7868
17.058
59.8412
1.20313
21.5041
-5.30907
-37.7413
13.7058
19.334
3.21511
-57.3443
-46.7289
19.3506
13.4209
8.76633
11.0001
15.984
-123.487
16.7796
8.39302
-98.6332
23.9777
17.3287
8.8793
23.8172
1.34973
8.48548
11.4054
18.7083
25.4402
15.3495
6.62741
2.00003
15.6923
9.46136
-64.2478
18.6048
0.729181
12.835
17.579
0.911875
17.6047
1.08085
24.1345
1.05394
22.8476
11.4407
52.9106
9.986
14.3396
10.8096
16.0261
20.7632
50.3574
9.82898
-72.0355
15.3479
14.9326
18.68
17.0823
-61.8657
8.05079
7.9596
-26.1068
40.5437
14.4768
17.0135
35.1947
17.451
9.60094
5.08451
-0.968603
16.3934
11.0086
5.52838
48.5801
-3.72945
3.18639
-78.6187
21.8682
18.6887
19.4435
-100.69
9.81231
11.9481
11.5275
-12.4726
16.5276
14.2837
0.583483
1.30288
7.07921
1.96554
16.468
3.6148
15.3818
15.0651
-26.6763
1.89383
15.5865
1.01905
-90.5234
6.53492
-27.1949
-44.5203
-101.116
2.19184
1.49253
16.8804
0.519559
0.670159
-124.183
35.1216
15.0777
14.8327
12.044
11.6742
49.8127
11.365
-9.35328
18.827
-70.6154
15.0101
1.27766
-45.427
-113.798
10.8069
-61.9018
8.72923
2.77419
14.5025
1.58116
2.46969
10.3601
0.239409
1.06098
-6.725
0.895569
16.0829
6.82162
-113.767
-33.7793
3.97412
16.6392
-26.1451
-49.8451
12.7042
1.57359
15.7738
-5.87594
7.29234
1.50001
-73.9304
0.691447
-79.7013
20.3099
-89.1544
11.2938
4.853
20.9267
1.25815
-117.265
-27.7166
47.4794
50.2566
3.30434
0.784867
17.2096
30.321
16.7691
-0.518296
12.097
-10.2705
17.3797
18.8576
22.0306
21.5624
-7.61696
-46.7235
12.1097
-83.0686
0.290294
-11.3125
2.01195
-61.9176
-2.13398
18.8201
-124.079
9.64853
9.43474
23.2657
-52.8927
17.1071
18.2659
1.53061
17.7965
10.1038
14.3925
1.06408
35.9799
-26.106
-51.5968
9.70342
-61.0755
9.28423
-54.3182
16.8613
15.7177
0.985402
4.08717
-93.153
-1.89365
1.57827
-10.7917
-62.0037
-59.5863
18.4296
4.09757
-41.467
-50.0695
17.1024
2.51003
-31.7123
22.8895
13.046
36.4577
-39.9045
-0.273867
-9.60488
0.36152
9.15221
-89.8205
2.35983
10.5238
19.9192
47.137
1.77462
44.1049
2.11362
17.4652
1.61125
1.43403
13.79
12.4153
0.0131798
1.41317
16.827
2.35648
1.42848
2.60335
1.38266
2.05046
1.40809
8.29671
4.77864
15.8636
15.7113
-110.754
10.1538
-67.3301
-106.929
16.2463
0.332942
2.25701
19.1604
3.86663
1.27417
16.3817
17.0919
15.2348
5.46717
-37.5345
10.6173
26.6228
13.6836
14.0151
15.6122
5.55302
0.805969
13.5431
19.2792
9.62261
1.42259
13.9542
13.6243
-12.6744
12.8444
-0.506946
-3.33819
-4.21729
17.2488
20.0509
9.4877
22.6052
3.54369
2.88815
48.7959
-22.0181
-5.47283
22.003
8.38676
1.25231
1.46869
-80.3247
-27.1896
21.0094
3.23643
10.4123
0.778447
-21.0646
18.737
12.0513
-27.3146
-82.3077
12.756
-17.6991
-54.1747
4.69073
-105.333
9.36993
9.49981
9.17122
-31.9251
13.8829
-80.8003
-2.47944
13.1356
1.01188
17.3335
-0.264141
14.9785
12.8669
31.8002
3.01257
0.98994
14.9021
7.26046
0.806736
-46.268
-30.3597
8.11909
-33.8454
4.825
28.7098
1.39027
9.45874
-95.73
9.97359
8.58922
14.474
1.38708
52.2051
1.79915
8.26369
8.60046
1.37812
1.24211
13.6717
15.6744
16.0063
9.59295
10.2933
29.3235
-76.393
8.42216
17.8765
-31.9617
0.460508
-86.962
13.7176
0.827747
17.7469
-55.3517
4.36324
-21.0242
1.00102
0.878867
2.89876
-106.031
20.6061
17.3953
6.64003
16.1028
-26.8978
-22.4563
-6.36981
10.0897
9.13848
5.06991
16.3288
-0.207725
0.800668
16.2525
23.3237
1.37189
-58.6536
20.9822
1.65615
20.5766
-8.27118
17.2978
36.428
6.83271
29.5752
18.558
-30.1795
-21.3971
-4.72329
19.1228
10.6637
-32.4281
16.1423
12.577
4.64002
5.65103
0.81124
-30.6459
40.559
3.78685
2.18159
1.0688
-89.3322
9.61634
23.4408
15.7417
1.04466
5.25209
-23.0167
14.5315
12.4283
6.16974
1.08563
-7.03933
15.282
2.19753
11.0155
-21.0238
1.2413
39.0947
1.01181
0.210027
8.42217
57.3924
17.1493
16.7392
1.16965
10.2834
7.12538
8.91906
10.3118
-115.749
2.01041
-34.8877
30.6109
17.6614
8.54578
19.3929
-6.17793
-10.8689
1.19064
4.01684
1.42545
12.9471
-2.57338
18.6332
-88.6196
16.793
6.74844
2.2022
-3.42403
3.01054
-7.19224
10.6877
3.44732
0.58351
19.2934
-120.757
15.4312
17.133
10.8719
-4.39576
18.9629
3.90331
-21.3404
15.6984
-14.0188
-97.3617
17.5397
8.96416
14.6349
-63.3157
-6.45567
15.8434
42.8236
12.6445
9.13609
11.6551
-111.048
-126.07
16.6447
-1.51348
-11.907
1.38314
17.8426
6.95954
-11.4106
13.8604
15.4032
-0.100319
18.5898
19.6313
8.59839
14.9279
-2.97877
13.4232
-5.51035
23.2822
1.70995
-4.37585
42.7879
1.17091
6.7823
21.969
4.18099
-45.1345
24.6235
-83.8628
20.9451
1.37304
-19.6
10.1977
-9.84263
0.830596
12.9713
13.2066
-93.7391
-40.1905
13.5682
-64.8443
-9.11185
53.7048
-16.2446
-20.2335
21.4139
0.8141
6.06039
11.9318
-55.6295
-22.9314
-4.66315
-4.40102
-6.56078
1.03941
22.6807
19.2072
13.4484
-121.741
-44.24
27.552
2.3116
-112.263
11.2349
14.4888
10.5207
1.1736
4.83319
1.23658
-14.9847
21.4955
-121.344
-17.2253
-85.8074
-98.3475
18.8918
25.4302
-43.723
26.3095
14.6127
12.3182
11.1383
10.4227
26.1235
17.983
2.32347
-51.6329
-30.1786
24.7056
2.27476
3.57437
13.8714
1.51491
12.9638
-53.5218
1.21529
49.2623
2.74378
22.3347
11.657
18.649
15.7687
-76.9411
13.2212
44.8189
1.00516
0.834345
32.2852
61.2208
12.7531
13.3265
25.1277
-50.6013
-15.6591
17.3309
10.1152
-91.4647
27.5025
17.459
-63.0625
15.8009
3.75578
1.41205
6.33748
-16.2744
53.8318
0.850894
-8.65894
-0.532169
17.8622
0.153375
9.61959
14.9441
17.334
12.3104
1.01264
17.371
0.764805
30.3115
0.139427
11.4708
10.4241
16.6873
8.49508
-49.5425
9.83053
18.1976
-29.5326
-70.7071
34.0898
1.52381
7.56713
16.7947
34.3571
-84.5733
9.55964
-3.04442
11.2408
16.3774
-88.4472
17.2694
9.81521
50.084
29.8751
-19.5186
4.42806
15.8862
17.2085
-66.4982
-4.62033
10.2041
14.9447
1.28592
17.5783
-127.866
7.49793
0.909877
10.6135
18.8224
-0.186829
14.7711
23.0619
25.0144
4.68697
-0.844388
17.84
20.7409
17.5009
20.4278
10.8542
18.2378
-70.6172
2.51994
18.1586
-25.6428
14.1596
7.20628
19.7053
11.6999
-62.2743
10.8689
5.16479
18.943
-20.7292
16.7384
-24.7279
-104.304
1.69651
1.06999
-47.7186
16.1938
18.4774
-21.495
-104.495
1.30832
-14.2535
15.9498
-82.5944
13.4465
16.6267
18.3144
-18.4156
7.03789
9.60734
-28.7583
17.5442
8.64687
-85.0427
10.6115
-119.452
47.181
11.7248
18.2902
6.45457
16.8573
-9.13758
-6.31441
20.1748
-18.4616
5.82451
12.9371
-38.1463
4.65329
17.6201
-49.2711
14.9356
1.94344
-67.545
-14.0299
17.255
19.3845
14.8224
62.2736
8.69457
-2.42116
-23.8415
15.6705
-11.7241
15.5245
5.4541
15.58
0.846501
9.95033
0.760072
-14.0166
59.0084
7.40625
59.377
7.2421
12.8841
4.08687
20.0691
-9.39122
17.8825
11.1858
1.35322
59.9117
16.8715
9.19818
-8.48613
0.701116
-109.038
15.9287
-5.6225
10.628
-21.8272
-61.6968
1.07491
-73.5355
9.60264
2.76412
-25.6284
18.4118
15.8141
14.2384
12.4145
21.4625
16.2649
12.8758
17.6979
1.27124
-67.758
17.6776
20.3186
17.7685
8.01904
-73.1704
1.37113
-24.4464
15.7484
-43.3972
0.944243
25.1277
-67.3597
17.0783
0.80245
40.2455
1.43382
22.9201
4.21284
1.61606
16.0491
10.5338
-107.434
13.7991
-1.39492
-39.27
1.34748
15.9612
11.1243
30.9868
2.8223
1.11178
-79.1122
15.9381
16.5152
17.0639
-20.0652
-36.0358
14.062
12.8459
15.1692
1.22941
1.56996
49.3865
0.351816
-65.8582
2.20364
-59.1275
0.396175
0.746034
32.4326
51.0041
13.0939
60.1892
45.4866
18.4168
17.6697
6.36622
14.5688
18.6211
2.3286
2.02613
19.7516
1.79625
10.3326
19.2472
9.08439
18.5784
28.8608
1.48623
-5.4975
-120.782
17.9233
12.1807
-50.6917
7.74742
22.5383
14.0991
11.0388
2.11593
17.4194
-2.19138
1.70441
30.4475
12.872
0.645763
16.8324
17.5047
15.6881
5.81621
15.566
17.0633
-3.53499
18.5877
20.6913
-76.3975
-28.7259
-18.552
14.8033
1.35958
-50.6992
17.1357
1.49797
1.2009
-126.158
0.766029
16.7934
8.79188
31.5629
-1.11627
1.24264
9.25796
46.4659
1.57235
16.1755
1.11652
16.66
53.994
14.2665
-21.0273
16.8678
1.00424
-69.6101
15.7554
42.3906
4.17502
13.1273
18.8216
29.5069
11.0316
19.7965
1.98492
16.2227
10.6668
-123.333
4.50734
18.7092
20.0436
-65.1475
-82.2108
16.834
18.2159
12.6049
11.4858
-59.6993
24.7137
-58.8932
17.8998
11.3743
17.4125
-12.0512
5.7625
17.5455
0.533441
1.37599
-89.2387
-62.4712
8.28342
-2.85337
-74.8154
18.357
18.484
18.5392
7.54694
19.0055
2.24132
18.2912
9.61297
-1.90995
-25.1713
2.44611
12.8108
1.2788
36.4691
16.7523
19.6919
-104.089
15.6435
15.5978
20.1706
12.5293
-73.5847
-7.0401
1.69322
17.2704
17.0629
17.7683
-4.26998
20.3231
-17.8248
8.4579
8.63915
13.6106
9.53316
15.6667
11.0972
10.6987
9.82526
-1.67658
-10.447
2.83841
-86.6154
11.9429
16.8391
0.984866
-91.16
41.3806
2.00955
23.8051
16.0555
13.2332
11.9111
16.658
60.8886
-8.25556
0.846253
-95.0014
16.902
27.9716
-37.1818
3.67139
-51.4739
1.29769
31.057
1.31533
16.7191
-22.8907
-13.258
-38.2062
-8.52245
17.8806
1.43578
7.80958
22.538
13.3352
19.5544
8.89925
56.8214
20.5578
16.6824
44.0018
10.8417
15.7245
18.5364
20.4012
-10.6008
1.32912
9.98713