/*--------------------------------*- C++ -*----------------------------------*\
| =========                 |                                                 |
| \\      /  F ield         | OpenFOAM: The Open Source CFD Toolbox           |
|  \\    /   O peration     | Version:  2.3.1                                 |
|   \\  /    A nd           | Web:      www.OpenFOAM.org                      |
|    \\/     M anipulation  |                                                 |
\*---------------------------------------------------------------------------*/
FoamFile
{
    version     2.0;
    format      ascii;
    class       surfaceScalarField;
    location    "0.55";
    object      phi;
}
// * * * * * * * * * * * * * * * * * * * * * * * * * * * * * * * * * * * * * //

dimensions      [0 3 -1 0 0 0 0];

internalField   nonuniform List<scalar> 
15416
(
-0.000697046
-1.47762e-06
0.000702864
-0.000694641
-2.40879e-06
-0.000692007
-2.63774e-06
-0.000690293
-1.71845e-06
-0.00068984
-4.57054e-07
-0.000690946
1.10086e-06
-0.000694318
3.36595e-06
-0.00070031
5.98634e-06
-0.000709059
8.74244e-06
-0.000720906
1.18411e-05
-0.000736257
1.53441e-05
-0.000755319
1.90532e-05
-0.000778216
2.28874e-05
-0.000805021
2.67944e-05
-0.00083582
3.07891e-05
-0.000870531
3.4705e-05
-0.000908969
3.84342e-05
-0.000950926
4.19548e-05
-0.00099626
4.53317e-05
-0.00104464
4.83802e-05
-0.00109582
5.11667e-05
-0.00114953
5.37064e-05
-0.00120542
5.58898e-05
-0.00126314
5.77135e-05
-0.00132244
5.92913e-05
-0.00138309
6.06283e-05
-0.00144477
6.16742e-05
-0.00150717
6.24081e-05
-0.00157008
6.29219e-05
-0.00163333
6.32583e-05
-0.00169662
6.33042e-05
-0.00175975
6.31402e-05
-0.00182261
6.28854e-05
-0.00188499
6.23836e-05
-0.00194668
6.1693e-05
-0.00200764
6.09526e-05
-0.00206774
6.01064e-05
-0.00212682
5.90827e-05
-0.00218466
5.78326e-05
-0.00224122
5.65657e-05
-0.0022965
5.52847e-05
-0.00235032
5.38255e-05
-0.00240257
5.22506e-05
-0.00245327
5.07191e-05
-0.00250217
4.8908e-05
-0.00254923
4.70695e-05
-0.00259456
4.5339e-05
-0.00263815
4.36099e-05
-0.00267979
4.16518e-05
-0.00271952
3.97512e-05
-0.00275721
3.77068e-05
-0.00279305
3.58544e-05
-0.00282655
3.35111e-05
-0.00285816
3.1623e-05
-0.00288767
2.95273e-05
-0.00291545
2.77904e-05
-0.00294055
2.5108e-05
-0.00296338
2.28443e-05
-0.00298431
2.09374e-05
-0.00300349
1.91906e-05
1.74834e-05
-0.00302097
-0.000396598
-2.62701e-06
0.000397744
-0.000397692
-1.3177e-06
-0.00040141
1.07662e-06
-0.000407844
4.71148e-06
-0.000418803
1.04983e-05
-0.000433611
1.59032e-05
-0.000452476
2.22259e-05
-0.000475122
2.86269e-05
-0.000502231
3.58448e-05
-0.000533325
4.29292e-05
-0.000568568
5.05797e-05
-0.000607812
5.8288e-05
-0.000650948
6.60126e-05
-0.000697849
7.36852e-05
-0.00074822
8.1154e-05
-0.000801927
8.84073e-05
-0.000858714
9.52168e-05
-0.00091837
0.000101607
-0.000980545
0.000107499
-0.00104503
0.000112862
-0.00111162
0.000117748
-0.00117988
0.000121951
-0.00124961
0.000125615
-0.00132061
0.000128699
-0.00139255
0.000131229
-0.00146521
0.000133278
-0.00153824
0.000134705
-0.0016116
0.000135761
-0.00168497
0.000136301
-0.00175805
0.000136336
-0.00183084
0.000136092
-0.00190316
0.000135473
-0.00197464
0.000134359
-0.00204524
0.000132976
-0.00211496
0.000131396
-0.00218342
0.000129386
-0.00225064
0.000127306
-0.00231648
0.000124911
-0.00238095
0.000122286
-0.00244383
0.000119435
-0.00250482
0.000116265
-0.0025642
0.000113198
-0.00262177
0.000109817
-0.00267727
0.000106215
-0.00273087
0.000102505
-0.00278238
9.8578e-05
-0.00283186
9.48283e-05
-0.0028789
9.06463e-05
-0.00292388
8.66346e-05
-0.00296667
8.25388e-05
-0.00300734
7.83847e-05
-0.00304619
7.47054e-05
-0.00308158
6.89058e-05
-0.00311628
6.63217e-05
-0.00314716
6.04158e-05
-0.0031765
5.71268e-05
-0.00320148
5.00974e-05
-0.00322629
4.76531e-05
-0.00324881
4.34612e-05
-0.00326915
3.95377e-05
3.3488e-05
-0.00328516
-0.000250672
3.54115e-06
0.0002445
-0.000260565
8.5721e-06
-0.000274693
1.5201e-05
-0.00029338
2.33952e-05
-0.000315561
3.2675e-05
-0.000342303
4.26407e-05
-0.000373176
5.30929e-05
-0.000408438
6.38834e-05
-0.000447997
7.53974e-05
-0.000491943
8.68691e-05
-0.000540002
9.86305e-05
-0.000591798
0.000110074
-0.000647447
0.000121651
-0.000706573
0.000132802
-0.000768977
0.000143554
-0.000834384
0.000153815
-0.000902577
0.000163408
-0.000973283
0.000172305
-0.00104618
0.000180383
-0.0011211
0.000187771
-0.0011976
0.000194234
-0.0012756
0.000199945
-0.00135479
0.00020481
-0.00143493
0.000208833
-0.00151571
0.000212
-0.00159689
0.000214446
-0.0016783
0.000216111
-0.00175968
0.000217146
-0.00184074
0.00021737
-0.00192159
0.000217192
-0.00200176
0.000216252
-0.00208103
0.000214715
-0.0021596
0.000212888
-0.00223698
0.000210317
-0.0023131
0.000207474
-0.00238791
0.000204173
-0.00246124
0.000200629
-0.00253294
0.000196617
-0.00260298
0.00019232
-0.00267124
0.000187689
-0.00273776
0.000182782
-0.00280198
0.000177418
-0.00286429
0.00017212
-0.00292443
0.000166349
-0.00298238
0.00016046
-0.00303818
0.000154372
-0.00309156
0.000148211
-0.00314264
0.000141734
-0.00319118
0.000135176
-0.00323791
0.00012927
-0.00328095
0.000121424
-0.0033214
0.000115155
-0.00336021
0.000107723
-0.00339672
0.000102838
-0.00343108
9.47753e-05
-0.00346115
8.72037e-05
-0.00349106
8.00084e-05
-0.00351664
7.32401e-05
-0.00353999
6.68085e-05
-0.00355906
5.86129e-05
5.24421e-05
-0.00357801
-0.000180057
1.7483e-05
0.000166112
-0.000198412
2.69238e-05
-0.000221188
3.79743e-05
-0.000248291
5.04949e-05
-0.000279757
6.41373e-05
-0.000315706
7.85854e-05
-0.000356056
9.34378e-05
-0.000401151
0.000108974
-0.000450571
0.000124812
-0.000504404
0.000140697
-0.000562225
0.000156442
-0.000624206
0.000172045
-0.000689925
0.000187361
-0.000758965
0.000201841
-0.000831266
0.00021586
-0.000906483
0.000229033
-0.000984332
0.000241251
-0.00106451
0.000252466
-0.00114679
0.00026264
-0.00123076
0.000271728
-0.0013164
0.000279876
-0.00140322
0.000286772
-0.00149113
0.000292728
-0.00157981
0.000297494
-0.00166905
0.000301222
-0.00175843
0.000303816
-0.00184785
0.000305537
-0.00193712
0.000306425
-0.0020261
0.00030637
-0.00211432
0.000305409
-0.00220186
0.000303751
-0.00228857
0.00030137
-0.00237393
0.000298162
-0.00245814
0.000294458
-0.002541
0.000290288
-0.00262235
0.000285507
-0.00270186
0.000280158
-0.00277972
0.000274494
-0.00285569
0.000268307
-0.00292979
0.000261807
-0.00300161
0.000254597
-0.00307151
0.00024732
-0.00313885
0.000239454
-0.00320398
0.000231476
-0.00326663
0.000223098
-0.00332677
0.000214513
-0.00338436
0.000205803
-0.0034397
0.000197072
-0.00349168
0.000187161
-0.00354112
0.000178713
-0.00358915
0.000169454
-0.00363308
0.000159087
-0.00367479
0.000149431
-0.00371236
0.000140418
-0.00374957
0.000131988
-0.00378264
0.000120272
-0.00381343
0.000110804
-0.00384198
0.000101786
-0.00386632
9.11489e-05
-0.0038884
8.06974e-05
7.03198e-05
-0.00390628
-0.000147552
3.82835e-05
0.000126748
-0.000172571
5.19408e-05
-0.000202274
6.76747e-05
-0.000236698
8.49159e-05
-0.000275849
0.000103284
-0.000319903
0.000122635
-0.000369018
0.000142549
-0.000422684
0.000162636
-0.000481131
0.000183254
-0.000543983
0.000203543
-0.000611275
0.000223725
-0.000682693
0.000243453
-0.000757711
0.000262377
-0.000836355
0.000280491
-0.000918427
0.000297938
-0.00100294
0.00031354
-0.00109018
0.00032847
-0.0011797
0.000341958
-0.00127112
0.00035404
-0.00136427
0.000364888
-0.00145883
0.000374456
-0.0015547
0.000382656
-0.00165146
0.000389486
-0.00174885
0.000394863
-0.00184647
0.000398816
-0.00194437
0.000401719
-0.00204207
0.000403257
-0.00213943
0.000403818
-0.00223627
0.000403205
-0.00233246
0.000401556
-0.00242767
0.000398889
-0.00252165
0.000395246
-0.00261442
0.000390854
-0.00270581
0.000385795
-0.00279548
0.000379963
-0.0028834
0.000373471
-0.00296975
0.000366562
-0.00305398
0.000358772
-0.00313612
0.000350469
-0.00321593
0.000341635
-0.00329371
0.000332381
-0.00336894
0.00032255
-0.00344179
0.000312303
-0.00351201
0.000301688
-0.00357957
0.000290654
-0.00364509
0.000280031
-0.00370585
0.000266567
-0.00376455
0.000255776
-0.00382158
0.000244195
-0.00387465
0.000231783
-0.00392542
0.000220223
-0.00397398
0.00020765
-0.00401855
0.000194012
-0.00406087
0.000182734
-0.00409718
0.000168306
-0.00413303
0.000156125
-0.00416664
0.000144412
-0.00419604
0.000131196
-0.00422128
0.000116391
-0.00424624
0.000105662
9.10971e-05
-0.00426702
-0.000134006
6.54208e-05
0.000106866
-0.000165802
8.37342e-05
-0.000202402
0.000104272
-0.000244349
0.00012686
-0.000291548
0.000150481
-0.000343837
0.000174921
-0.00040123
0.000199939
-0.000463886
0.000225289
-0.000531312
0.000250676
-0.000603723
0.000275948
-0.00068062
0.000300612
-0.000761535
0.000324364
-0.000846481
0.000347325
-0.000934668
0.000368691
-0.00102591
0.000389191
-0.00112024
0.000407852
-0.00121715
0.000425335
-0.00131642
0.000441201
-0.00141738
0.00045499
-0.0015199
0.000467438
-0.00162393
0.000478528
-0.00172892
0.000487636
-0.00183486
0.000495409
-0.00194134
0.00050129
-0.00204806
0.000505526
-0.00215463
0.000508316
-0.002261
0.000509691
-0.00236688
0.000509665
-0.00247211
0.00050837
-0.00257649
0.000505787
-0.00267974
0.00050197
-0.00278151
0.000496972
-0.00288189
0.000491239
-0.00298067
0.000484707
-0.00307757
0.000477026
-0.00317269
0.000468719
-0.00326568
0.000459667
-0.00335656
0.000449679
-0.00344523
0.000439137
-0.00353162
0.000428004
-0.00361523
0.000415972
-0.00369636
0.000403673
-0.00377465
0.000390592
-0.00384971
0.000376748
-0.00392224
0.000363177
-0.00399211
0.000349898
-0.00405993
0.000334386
-0.00412372
0.000319559
-0.00418353
0.000304006
-0.00424107
0.000289322
-0.00429462
0.000273777
-0.00434409
0.00025712
-0.00439309
0.000243014
-0.00443627
0.000225926
-0.00447903
0.000211066
-0.00451766
0.000194752
-0.00455012
0.00017688
-0.00458028
0.000161357
-0.00461021
0.000146324
-0.00463407
0.000129526
0.00011274
-0.00465571
-0.000133954
9.87789e-05
0.000100593
-0.00017267
0.000122448
-0.000216838
0.000148437
-0.000266806
0.000176826
-0.000322158
0.00020583
-0.000383301
0.000236063
-0.000449892
0.000266528
-0.00052169
0.000297086
-0.000598952
0.000327934
-0.000680789
0.000357778
-0.000767598
0.000387414
-0.000858761
0.000415521
-0.000953565
0.000442143
-0.00105176
0.000466895
-0.00115366
0.000491083
-0.00125836
0.000512522
-0.00136528
0.000532205
-0.00147456
0.000550451
-0.00158548
0.000565947
-0.00169808
0.000580099
-0.00181198
0.000592446
-0.00192684
0.000602474
-0.00204264
0.000611115
-0.00215875
0.000617363
-0.00227484
0.00062164
-0.00239079
0.000624334
-0.00250613
0.000625
-0.00262112
0.000624602
-0.00273535
0.000622337
-0.00284822
0.000618405
-0.0029599
0.000613571
-0.00307002
0.000607099
-0.00317812
0.000599612
-0.00328465
0.00059153
-0.0033894
0.000582012
-0.00349176
0.0005713
-0.00359212
0.000560082
-0.00368998
0.000547455
-0.00378523
0.000534287
-0.00387787
0.000520565
-0.00396794
0.000506006
-0.00405445
0.000490167
-0.0041387
0.000474839
-0.0042198
0.000457843
-0.00429815
0.000441523
-0.0043725
0.000424243
-0.00444296
0.000404836
-0.00451099
0.000387586
-0.00457672
0.000369726
-0.00463669
0.000349287
-0.0046944
0.000331491
-0.00474983
0.000312553
-0.00479949
0.000292666
-0.00484703
0.000273466
-0.00489052
0.000254563
-0.00492978
0.00023401
-0.00496852
0.00021562
-0.00500113
0.000193974
-0.00502976
0.000174952
-0.00505439
0.000154161
0.000135129
-0.00507678
-0.000144786
0.000138547
0.000105015
-0.00019082
0.000168479
-0.000242853
0.00020047
-0.000301689
0.000235659
-0.000366281
0.000270419
-0.000436691
0.000306471
-0.000513042
0.000342878
-0.000594424
0.000378467
-0.000681913
0.00041542
-0.000774119
0.000449978
-0.000871978
0.000485262
-0.000973555
0.000517103
-0.00107987
0.000548466
-0.0011886
0.000575633
-0.00130088
0.000603361
-0.00141681
0.0006284
-0.00153474
0.000650094
-0.00165478
0.000670514
-0.00177694
0.000688154
-0.00189951
0.000702738
-0.00202423
0.000717162
-0.00214926
0.000727411
-0.00227578
0.000737561
-0.00240242
0.000743982
-0.00252846
0.000747748
-0.00265464
0.000750527
-0.00277945
0.000749739
-0.00290401
0.000748851
-0.00302774
0.000745795
-0.00314926
0.000739818
-0.00327002
0.000734459
-0.00338889
0.000726466
-0.00350525
0.000716432
-0.00362013
0.000706777
-0.00373325
0.000695313
-0.00384307
0.000681007
-0.00395102
0.00066762
-0.00405618
0.000652228
-0.00415779
0.000635697
-0.00425709
0.000619797
-0.00435396
0.000602861
-0.00444799
0.000584222
-0.00453642
0.000563259
-0.00462412
0.000545529
-0.00470679
0.000524185
-0.00478506
0.000502502
-0.004863
0.000482762
-0.00493462
0.0004592
-0.00500266
0.000437757
-0.00506784
0.000414455
-0.00512789
0.000391542
-0.00518527
0.000369934
-0.00523867
0.00034606
-0.00529031
0.0003251
-0.00533633
0.000300582
-0.00537959
0.000277271
-0.00541684
0.000252875
-0.00544938
0.00022651
-0.00548019
0.000205765
-0.00550746
0.000181434
0.000157954
-0.00553028
-0.000164288
0.000118866
0.000183968
-0.000218865
0.000223057
-0.000278119
0.000259723
-0.00034734
0.000304882
-0.000421132
0.000344214
-0.000501872
0.000387213
-0.000588833
0.000429843
-0.00067929
0.000468926
-0.000779477
0.000515607
-0.000880983
0.000551479
-0.000992302
0.00059658
-0.0011038
0.000628602
-0.00122496
0.000669644
-0.00134227
0.000692962
-0.00146726
0.000728331
-0.00159587
0.000756972
-0.00172349
0.000777691
-0.00185694
0.000803988
-0.00199039
0.000821719
-0.00212326
0.000835654
-0.00226276
0.000856651
-0.00239645
0.000861017
-0.00253545
0.000876506
-0.00267366
0.000882242
-0.00280994
0.000884132
-0.00294877
0.000889405
-0.00308216
0.000882863
-0.00321745
0.000883601
-0.00335233
0.000880354
-0.00348167
0.000869411
-0.00361277
0.000866238
-0.00374074
0.000855199
-0.0038655
0.000841496
-0.00398934
0.000830512
-0.00411304
0.000818634
-0.00422841
0.000795751
-0.00434573
0.000783944
-0.00445823
0.000764021
-0.00456578
0.000743021
-0.0046739
0.000727926
-0.00477408
0.000703104
-0.00487507
0.000685254
-0.00497008
0.000658265
-0.00506175
0.000637174
-0.00515245
0.000614862
-0.00523564
0.000585679
-0.00531764
0.000564754
-0.00539254
0.000534092
-0.00546542
0.000510638
-0.00553206
0.000481086
-0.00559865
0.000458138
-0.0056582
0.000429478
-0.00571464
0.000402493
-0.00576711
0.000377576
-0.00581722
0.000350692
-0.00585944
0.000319487
-0.00590011
0.00029354
-0.00593422
0.000260628
-0.00596569
0.000237229
-0.00599367
0.000209422
-0.00601595
0.000180224
-0.00303487
1.39057e-05
-0.00304694
1.20698e-05
-0.0030573
1.03629e-05
-0.00306578
8.48192e-06
-0.00307199
6.21852e-06
-0.00307559
3.59197e-06
-0.00307743
1.84721e-06
-0.00307718
-2.5227e-07
-0.00307495
-2.24071e-06
-0.00307027
-4.68338e-06
-0.00306369
-6.58118e-06
-0.00305507
-8.62337e-06
-0.00304437
-1.07079e-05
-0.0030316
-1.27783e-05
-0.00301706
-1.45425e-05
-0.00300067
-1.63929e-05
-0.00298225
-1.84249e-05
-0.00296178
-2.04794e-05
-0.0029396
-2.21903e-05
-0.00291553
-2.40779e-05
-0.00288965
-2.58788e-05
-0.00286215
-2.75105e-05
-0.0028329
-2.9263e-05
-0.0028018
-3.11036e-05
-0.00276906
-3.27493e-05
-0.00273492
-3.41459e-05
-0.00269912
-3.58047e-05
-0.00266164
-3.7484e-05
-0.00262261
-3.90313e-05
-0.0025822
-4.04186e-05
-0.00254029
-4.19161e-05
-0.00249692
-4.33693e-05
-0.0024523
-4.46231e-05
-0.00240636
-4.59442e-05
-0.00235909
-4.72794e-05
-0.00231065
-4.84456e-05
-0.00226111
-4.95446e-05
-0.00221043
-5.06767e-05
-0.00215856
-5.18824e-05
-0.00210564
-5.29232e-05
-0.00205182
-5.3823e-05
-0.00199706
-5.47623e-05
-0.00194137
-5.5688e-05
-0.00188493
-5.64447e-05
-0.00182758
-5.73475e-05
-0.00176942
-5.81633e-05
-0.00171062
-5.87995e-05
-0.00165128
-5.93506e-05
-0.00159125
-6.00232e-05
-0.00153066
-6.05949e-05
-0.00146962
-6.10473e-05
-0.00140823
-6.13852e-05
-0.00134633
-6.19082e-05
-0.00128419
-6.21346e-05
-0.00122182
-6.23763e-05
-0.00115941
-6.24065e-05
-0.00109671
-6.27041e-05
-0.00103395
-6.27645e-05
-0.000971304
-6.26444e-05
-0.000908857
-6.2448e-05
-6.22123e-05
-0.000846646
-0.00330103
2.97801e-05
-0.00331228
2.33247e-05
-0.00332151
1.95903e-05
-0.00332852
1.54948e-05
-0.00333539
1.30905e-05
-0.00333805
6.2503e-06
-0.00333916
2.96228e-06
-0.00333647
-2.94159e-06
-0.00333314
-5.56786e-06
-0.00332621
-1.16181e-05
-0.00331743
-1.53628e-05
-0.00330635
-1.97076e-05
-0.00329317
-2.38875e-05
-0.00327812
-2.78231e-05
-0.00326061
-3.20584e-05
-0.00324104
-3.59635e-05
-0.00321933
-4.01376e-05
-0.00319565
-4.41543e-05
-0.00316974
-4.81055e-05
-0.00314188
-5.19389e-05
-0.00311224
-5.55196e-05
-0.00308038
-5.93663e-05
-0.0030466
-6.30475e-05
-0.00301106
-6.66492e-05
-0.00297367
-7.01419e-05
-0.00293442
-7.33949e-05
-0.00289335
-7.68763e-05
-0.00285078
-8.0055e-05
-0.00280653
-8.32849e-05
-0.00276043
-8.6512e-05
-0.0027129
-8.94504e-05
-0.00266397
-9.23023e-05
-0.00261335
-9.52412e-05
-0.0025613
-9.80022e-05
-0.002508
-0.000100574
-0.00245321
-0.000103241
-0.00239712
-0.000105635
-0.00233977
-0.00010803
-0.00228131
-0.000110345
-0.00222167
-0.000112566
-0.00216073
-0.000114767
-0.00209887
-0.000116622
-0.00203604
-0.000118516
-0.00197214
-0.000120351
-0.0019074
-0.000122087
-0.00184178
-0.000123787
-0.00177539
-0.000125187
-0.00170808
-0.000126668
-0.00164018
-0.000127922
-0.00157168
-0.000129094
-0.00150261
-0.000130123
-0.00143318
-0.00013082
-0.00136276
-0.000132324
-0.0012926
-0.000132303
-0.00122149
-0.000133484
-0.0011504
-0.000133498
-0.0010785
-0.000134612
-0.00100721
-0.000134056
-0.000935862
-0.00013399
-0.00086453
-0.000133783
-0.000133985
-0.000792759
-0.0035926
4.43661e-05
-0.00360732
3.80449e-05
-0.00361758
2.98526e-05
-0.00362554
2.34592e-05
-0.00362921
1.67587e-05
-0.00363292
9.97011e-06
-0.00363231
2.35539e-06
-0.00362959
-5.65961e-06
-0.00362462
-1.05369e-05
-0.0036179
-1.83406e-05
-0.0036087
-2.45662e-05
-0.00359573
-3.26761e-05
-0.00358106
-3.85518e-05
-0.00356374
-4.51408e-05
-0.0035441
-5.17037e-05
-0.00352203
-5.80313e-05
-0.00349778
-6.43889e-05
-0.00347131
-7.06261e-05
-0.00344256
-7.68522e-05
-0.00341183
-8.26622e-05
-0.0033786
-8.8758e-05
-0.00334343
-9.45268e-05
-0.00330622
-0.000100258
-0.003267
-0.000105873
-0.00322571
-0.000111431
-0.0031824
-0.000116706
-0.00313725
-0.000122021
-0.00309019
-0.000127113
-0.00304117
-0.000132311
-0.0029907
-0.000136983
-0.00293833
-0.000141813
-0.00288416
-0.000146474
-0.00282868
-0.000150719
-0.0027715
-0.000155189
-0.00271275
-0.000159324
-0.00265257
-0.000163411
-0.00259094
-0.000167271
-0.00252787
-0.000171096
-0.00246352
-0.000174703
-0.00239791
-0.000178169
-0.00233123
-0.000181451
-0.00226314
-0.000184714
-0.00219409
-0.000187561
-0.00212396
-0.000190481
-0.00205287
-0.000193178
-0.0019809
-0.000195765
-0.00190798
-0.000198102
-0.00183426
-0.00020039
-0.00175971
-0.000202477
-0.00168479
-0.000204008
-0.00160859
-0.00020633
-0.00153179
-0.000207617
-0.00145486
-0.000209256
-0.00137756
-0.000209604
-0.00129998
-0.000211067
-0.00122148
-0.000212001
-0.00114357
-0.000212519
-0.00106497
-0.000212665
-0.000986387
-0.00021257
-0.000907388
-0.000212783
-0.000212333
-0.000829042
-0.00392387
6.19576e-05
-0.00393736
5.15351e-05
-0.00394856
4.10622e-05
-0.0039555
3.03967e-05
-0.00396024
2.14964e-05
-0.0039626
1.23361e-05
-0.00396046
2.1526e-07
-0.00395842
-7.70416e-06
-0.00395228
-1.6672e-05
-0.00394414
-2.64778e-05
-0.00393172
-3.69837e-05
-0.00391809
-4.63097e-05
-0.00390193
-5.4707e-05
-0.00388234
-6.47367e-05
-0.00386053
-7.35117e-05
-0.00383616
-8.24009e-05
-0.00380927
-9.12769e-05
-0.00377983
-0.000100062
-0.00374816
-0.00010853
-0.00371378
-0.000117036
-0.00367745
-0.000125088
-0.00363859
-0.000133392
-0.00359762
-0.000141224
-0.00355442
-0.000149075
-0.00350918
-0.00015667
-0.00346155
-0.000164336
-0.00341188
-0.000171689
-0.00336026
-0.000178732
-0.00330682
-0.000185745
-0.00325113
-0.000192677
-0.00319374
-0.000199206
-0.00313468
-0.000205527
-0.00307358
-0.000211817
-0.00301095
-0.00021782
-0.00294672
-0.000223563
-0.0028809
-0.000229223
-0.00281334
-0.000234838
-0.00274438
-0.000240051
-0.00267399
-0.000245093
-0.00260234
-0.000249825
-0.00252919
-0.000254602
-0.00245505
-0.000258848
-0.00237952
-0.000263097
-0.00230297
-0.000267027
-0.0022253
-0.000270849
-0.00214659
-0.000274482
-0.00206691
-0.000277784
-0.0019865
-0.000280794
-0.00190492
-0.000284064
-0.00182261
-0.00028632
-0.00174024
-0.000288695
-0.00165656
-0.0002913
-0.00157252
-0.000293301
-0.0014874
-0.000294717
-0.00140278
-0.000295693
-0.00131734
-0.000297442
-0.00123181
-0.000298054
-0.00114631
-0.00029816
-0.00106031
-0.000298578
-0.000974486
-0.000298604
-0.000298443
-0.000888376
-0.00428356
7.85034e-05
-0.00429592
6.38927e-05
-0.00430802
5.3164e-05
-0.00431592
3.82967e-05
-0.0043196
2.51855e-05
-0.00432099
1.37276e-05
-0.00432243
1.64975e-06
-0.00431739
-1.2739e-05
-0.00431018
-2.38794e-05
-0.00429905
-3.76061e-05
-0.00428583
-5.02063e-05
-0.0042704
-6.17345e-05
-0.00425094
-7.41704e-05
-0.00422998
-8.56859e-05
-0.00420716
-9.63364e-05
-0.0041793
-0.00011026
-0.0041495
-0.000121077
-0.004117
-0.000132553
-0.0040818
-0.000143729
-0.00404423
-0.000154606
-0.00400399
-0.000165327
-0.00396163
-0.000175753
-0.00391666
-0.000186194
-0.00386924
-0.000196491
-0.00381924
-0.00020667
-0.00376725
-0.000216327
-0.00371295
-0.000225983
-0.00365632
-0.000235358
-0.0035976
-0.000244466
-0.00353693
-0.000253344
-0.00347411
-0.000262026
-0.00340926
-0.00027038
-0.00334265
-0.000278424
-0.00327427
-0.000286204
-0.00320398
-0.000293845
-0.00313188
-0.000301323
-0.00305838
-0.000308343
-0.00298302
-0.000315404
-0.00290611
-0.000322003
-0.00282761
-0.000328332
-0.00274793
-0.000334277
-0.00266682
-0.00033996
-0.00258457
-0.000345351
-0.00250105
-0.000350549
-0.00241638
-0.000355514
-0.00233098
-0.000359884
-0.00224336
-0.000365402
-0.00215528
-0.000368881
-0.00206697
-0.000372373
-0.00197725
-0.000376041
-0.00188705
-0.000378899
-0.00179649
-0.000381858
-0.00170483
-0.000384961
-0.00161287
-0.000386683
-0.00151926
-0.0003893
-0.00142627
-0.000390434
-0.00133324
-0.000391083
-0.00123973
-0.000391673
-0.0011458
-0.000392507
-0.00105266
-0.000391743
-0.000391874
-0.000959232
-0.00467316
9.59531e-05
-0.0046884
7.91356e-05
-0.00469746
6.22297e-05
-0.0047063
4.7137e-05
-0.00471293
3.18138e-05
-0.00471339
1.41894e-05
-0.00470979
-1.94737e-06
-0.00470586
-1.6665e-05
-0.00469595
-3.37926e-05
-0.00468583
-4.77241e-05
-0.00467165
-6.43817e-05
-0.00465345
-7.9935e-05
-0.00463312
-9.45016e-05
-0.00460883
-0.000109972
-0.00458051
-0.000124657
-0.00455026
-0.000140505
-0.0045174
-0.000153936
-0.00448203
-0.000167922
-0.0044433
-0.000182455
-0.00440179
-0.000196115
-0.00435778
-0.000209335
-0.00431083
-0.000222697
-0.00426136
-0.000235663
-0.00420937
-0.000248477
-0.00415491
-0.000261136
-0.00409771
-0.000273517
-0.0040383
-0.000285392
-0.00397639
-0.000297265
-0.00391217
-0.00030869
-0.00384587
-0.000319643
-0.0037772
-0.000330691
-0.00370637
-0.000341206
-0.00363362
-0.000351178
-0.00355901
-0.000360814
-0.00348225
-0.000370603
-0.0034038
-0.000379767
-0.0033233
-0.000388843
-0.00324106
-0.000397647
-0.00315724
-0.000405823
-0.00307189
-0.000413681
-0.00298479
-0.000421381
-0.00289644
-0.000428311
-0.0028067
-0.000435084
-0.00271542
-0.000441829
-0.00262322
-0.000447719
-0.00252987
-0.000453235
-0.00243602
-0.000459254
-0.00234047
-0.000464429
-0.00224364
-0.000469201
-0.00214631
-0.000473371
-0.00204776
-0.000477457
-0.00194815
-0.000481462
-0.00184892
-0.000484195
-0.00174808
-0.000487523
-0.00164759
-0.000489791
-0.00154646
-0.000491568
-0.00144402
-0.00049352
-0.00134195
-0.000493747
-0.00124055
-0.00049391
-0.00113851
-0.000493785
-0.000493649
-0.00103673
-0.00509501
0.000114187
-0.00511101
9.51434e-05
-0.0051229
7.41241e-05
-0.00513064
5.48749e-05
-0.00513229
3.34714e-05
-0.0051338
1.57023e-05
-0.00513115
-4.59571e-06
-0.00512435
-2.34616e-05
-0.00511545
-4.26974e-05
-0.00510072
-6.24467e-05
-0.00508394
-8.1163e-05
-0.00506492
-9.89484e-05
-0.00504
-0.000119421
-0.00501304
-0.000136934
-0.00498408
-0.000153616
-0.00495112
-0.000173462
-0.00491411
-0.000190948
-0.00487423
-0.000207792
-0.00483116
-0.000225526
-0.00478618
-0.000241094
-0.00473748
-0.000258026
-0.00468624
-0.000273932
-0.0046321
-0.00028981
-0.00457502
-0.000305554
-0.00451513
-0.000321019
-0.00445258
-0.000336068
-0.00438731
-0.000350658
-0.00431976
-0.000364817
-0.00424982
-0.000378621
-0.0041773
-0.000392171
-0.00410231
-0.00040568
-0.00402516
-0.00041835
-0.00394563
-0.000430713
-0.00386426
-0.000442184
-0.00378086
-0.000453994
-0.00369533
-0.000465303
-0.00360777
-0.000476396
-0.00351815
-0.000487275
-0.00342669
-0.000497279
-0.00333345
-0.000506923
-0.00323868
-0.000516149
-0.00314193
-0.000525063
-0.00304437
-0.000532638
-0.00294551
-0.000540687
-0.00284564
-0.000547595
-0.00274377
-0.000555106
-0.00264052
-0.0005625
-0.00253663
-0.000568322
-0.00243249
-0.000573343
-0.00232611
-0.000579744
-0.00221929
-0.000584278
-0.00211229
-0.000588465
-0.00200342
-0.000593064
-0.00189445
-0.000596495
-0.00178436
-0.00059988
-0.0016738
-0.000602126
-0.00156374
-0.00060358
-0.00145301
-0.000604481
-0.00134187
-0.000605055
-0.00123086
-0.000604797
-0.000604422
-0.00112008
-0.00554915
0.000133054
-0.00556364
0.000109637
-0.0055743
8.4792e-05
-0.0055826
6.317e-05
-0.00558708
3.79556e-05
-0.00558571
1.4332e-05
-0.0055823
-7.99991e-06
-0.00557248
-3.32773e-05
-0.00556061
-5.4568e-05
-0.00554531
-7.77354e-05
-0.0055279
-9.85782e-05
-0.00550451
-0.000122327
-0.00547875
-0.00014518
-0.00544926
-0.000166423
-0.0054144
-0.000188476
-0.00537888
-0.000208979
-0.00533944
-0.00023039
-0.00529398
-0.000253253
-0.00524804
-0.000271462
-0.00519713
-0.000292
-0.00514298
-0.000312169
-0.00508683
-0.000330082
-0.00502787
-0.00034877
-0.0049652
-0.000368223
-0.00489959
-0.00038662
-0.004831
-0.00040466
-0.00475966
-0.000422
-0.00468566
-0.000438811
-0.00460912
-0.000455163
-0.00453005
-0.000471235
-0.00444811
-0.000487623
-0.00436413
-0.000502327
-0.0042775
-0.000517341
-0.00418946
-0.00053022
-0.00409873
-0.000544726
-0.00400578
-0.000558258
-0.0039107
-0.000571475
-0.00381306
-0.000584908
-0.00371316
-0.000597182
-0.00361178
-0.000608303
-0.00350881
-0.000619125
-0.003404
-0.00062987
-0.003297
-0.000639636
-0.00319017
-0.00064752
-0.00308111
-0.000656658
-0.00296986
-0.000666349
-0.00285933
-0.000673036
-0.00274601
-0.000681646
-0.00263242
-0.000686926
-0.00251792
-0.00069425
-0.00240134
-0.000700851
-0.00228498
-0.000704831
-0.0021673
-0.000710745
-0.00204972
-0.000714073
-0.00192973
-0.000719869
-0.00181035
-0.000721505
-0.00168936
-0.000724571
-0.00156908
-0.000724762
-0.00144858
-0.000725559
-0.0013286
-0.000724777
-0.000725096
-0.00120792
-0.00603541
0.000152514
-0.00604959
0.000123817
-0.00606069
9.58903e-05
-0.00606497
6.74567e-05
-0.00606803
4.1016e-05
-0.00606726
1.35581e-05
-0.00606202
-1.32348e-05
-0.00605196
-4.33344e-05
-0.00603667
-6.98553e-05
-0.00602071
-9.36998e-05
-0.00599871
-0.000120578
-0.00597307
-0.000147967
-0.00594505
-0.000173192
-0.00591014
-0.000201328
-0.00587596
-0.000222651
-0.00583453
-0.000250412
-0.00578872
-0.000276196
-0.00574155
-0.000300419
-0.00568775
-0.000325264
-0.00563294
-0.00034681
-0.00557552
-0.000369589
-0.00551227
-0.000393327
-0.00544902
-0.000412021
-0.00538003
-0.000437211
-0.00530746
-0.00045919
-0.00523329
-0.000478822
-0.0051543
-0.000500993
-0.00507431
-0.0005188
-0.00498884
-0.000540632
-0.00490472
-0.000555354
-0.00481325
-0.000579095
-0.00472334
-0.000592235
-0.00462734
-0.000613341
-0.00453357
-0.00062398
-0.00443542
-0.00064288
-0.00433419
-0.000659487
-0.00423225
-0.000673413
-0.00412532
-0.000691839
-0.00401625
-0.000706253
-0.00390772
-0.000716833
-0.00379382
-0.000733025
-0.0036785
-0.000745188
-0.00356447
-0.000753665
-0.00344559
-0.000766399
-0.00333074
-0.000771508
-0.00320811
-0.000788976
-0.00308921
-0.000791937
-0.00296436
-0.000806495
-0.00284367
-0.000807616
-0.00271967
-0.000818254
-0.00259277
-0.000827755
-0.00246899
-0.000828607
-0.00233988
-0.000839858
-0.00221408
-0.000839875
-0.00208134
-0.000852609
-0.0019536
-0.000849238
-0.0018195
-0.00085867
-0.00169313
-0.000851133
-0.00155965
-0.00085904
-0.00143198
-0.00085245
-0.00129773
-0.000859341
-0.000784234
-6.24136e-05
-0.000722178
-6.20577e-05
-0.000660497
-6.16827e-05
-0.000599227
-6.12708e-05
-0.000538427
-6.08022e-05
-0.000478143
-6.02858e-05
-0.000418627
-5.95171e-05
-0.000359924
-5.87043e-05
-0.000302237
-5.76886e-05
-0.000245695
-5.65442e-05
-0.000190238
-5.54581e-05
-0.000134083
-5.61572e-05
-7.61656e-05
-5.79189e-05
-1.70662e-05
-5.91012e-05
4.11091e-05
-5.8177e-05
9.67622e-05
-5.56548e-05
0.000150054
-5.3293e-05
0.000201526
-5.14745e-05
0.000251399
-4.98746e-05
0.000299696
-4.82994e-05
0.00034644
-4.67457e-05
0.000391574
-4.51361e-05
0.000435036
-4.34636e-05
0.000476697
-4.16629e-05
0.000516495
-3.98003e-05
0.000554368
-3.78746e-05
0.000590196
-3.58303e-05
0.000623848
-3.36542e-05
0.000655209
-3.1363e-05
0.000684187
-2.89806e-05
0.000710586
-2.64006e-05
0.000734247
-2.36625e-05
0.000755047
-2.08021e-05
0.000772743
-1.76972e-05
0.000787118
-1.43761e-05
0.000797979
-1.08626e-05
0.000805076
-7.09737e-06
0.000808096
-3.02104e-06
0.00080771
3.85907e-07
0.000803789
3.9208e-06
0.000796451
7.338e-06
0.000785019
1.14327e-05
0.000768981
1.60388e-05
0.000747911
2.10715e-05
0.000721173
2.67393e-05
0.00068814
3.30346e-05
0.000648191
3.99518e-05
0.000600583
4.76102e-05
0.000544457
5.61288e-05
0.000479041
6.54185e-05
0.000403605
7.54392e-05
0.000317574
8.60333e-05
0.000220358
9.72195e-05
0.000111098
0.000109263
-1.62026e-05
0.000127303
-0.000156057
0.000139856
-0.000285376
0.00012932
-0.000392558
0.000107183
-0.000473765
8.1206e-05
-0.00053448
6.07137e-05
5.09097e-05
-0.000585392
-0.00072161
-0.000133564
-0.000650151
-0.000133519
-0.00057891
-0.000132925
-0.000507928
-0.000132254
-0.00043757
-0.000131162
-0.000367329
-0.000130529
-0.000297628
-0.00012922
-0.000228316
-0.000128018
-0.000159725
-0.000126281
-9.16831e-05
-0.000124588
-2.3367e-05
-0.000123776
4.54198e-05
-0.000124946
0.000113273
-0.000125773
0.000179815
-0.000125645
0.000245571
-0.000123935
0.00031068
-0.000120764
0.000374738
-0.000117353
0.000437484
-0.000114222
0.000498819
-0.000111211
0.000558761
-0.000108243
0.000617317
-0.000105303
0.000674352
-0.000102172
0.000729838
-9.89509e-05
0.000783768
-9.55943e-05
0.000836041
-9.2075e-05
0.000886597
-8.8432e-05
0.000935305
-8.45395e-05
0.000982183
-8.05333e-05
0.00102708
-7.62645e-05
0.00106983
-7.17293e-05
0.00111045
-6.70171e-05
0.00114882