/*--------------------------------*- C++ -*----------------------------------*\
| =========                 |                                                 |
| \\      /  F ield         | OpenFOAM: The Open Source CFD Toolbox           |
|  \\    /   O peration     | Version:  2.3.1                                 |
|   \\  /    A nd           | Web:      www.OpenFOAM.org                      |
|    \\/     M anipulation  |                                                 |
\*---------------------------------------------------------------------------*/
FoamFile
{
    version     2.0;
    format      ascii;
    class       volVectorField;
    location    "0.55";
    object      U;
}
// * * * * * * * * * * * * * * * * * * * * * * * * * * * * * * * * * * * * * //

dimensions      [0 1 -1 0 0 0 0];

internalField   nonuniform List<vector> 
9648
(
(0.167243 -4.74232 3.97284e-23)
(0.283024 -4.72225 -1.22604e-22)
(0.399681 -4.69 0)
(0.519327 -4.66294 0)
(0.639974 -4.63988 1.05216e-20)
(0.761728 -4.62298 1.63052e-20)
(0.887106 -4.61575 -2.85217e-20)
(1.01847 -4.62064 -1.30454e-20)
(1.15718 -4.63883 1.30131e-20)
(1.30359 -4.67227 3.91339e-20)
(1.45978 -4.72263 -3.89706e-20)
(1.6276 -4.79093 -5.58335e-20)
(1.80906 -4.87778 2.96608e-19)
(2.00616 -4.9831 7.65042e-20)
(2.22064 -5.10609 -7.17551e-19)
(2.45372 -5.24551 0)
(2.7066 -5.39966 0)
(2.98012 -5.56651 1.30084e-19)
(3.27499 -5.74346 4.19111e-19)
(3.59129 -5.92774 -1.20564e-18)
(3.92906 -6.11674 -2.09465e-20)
(4.28821 -6.30738 3.32113e-19)
(4.66798 -6.49681 3.92461e-19)
(5.06772 -6.68225 -1.78367e-18)
(5.4865 -6.861 0)
(5.92329 -7.03042 1.06779e-18)
(6.37679 -7.188 -1.1197e-18)
(6.84563 -7.33167 0)
(7.3284 -7.45924 0)
(7.82345 -7.56906 -6.79608e-19)
(8.32932 -7.65943 -1.50372e-18)
(8.84418 -7.72888 2.36142e-18)
(9.36644 -7.77627 0)
(9.89433 -7.80038 0)
(10.426 -7.80052 1.80993e-18)
(10.9599 -7.77581 -1.94799e-18)
(11.494 -7.72583 0)
(12.0269 -7.65029 4.18366e-18)
(12.5567 -7.54881 1.12873e-18)
(13.0816 -7.42124 -3.34171e-18)
(13.5998 -7.2676 6.29832e-20)
(14.1098 -7.08837 2.3784e-18)
(14.6101 -6.88343 -3.15996e-18)
(15.0985 -6.6533 6.35655e-19)
(15.5742 -6.39875 0)
(16.0356 -6.1199 0)
(16.4812 -5.81747 4.79726e-18)
(16.9095 -5.49224 7.02128e-19)
(17.3201 -5.14519 -2.17007e-18)
(17.7122 -4.77634 -7.30545e-19)
(18.0838 -4.38609 -7.60057e-19)
(18.433 -3.9769 7.55308e-19)
(18.7597 -3.55052 3.90288e-19)
(19.0628 -3.10772 -3.88161e-19)
(19.3413 -2.65023 1.9817e-18)
(19.5947 -2.17912 -1.95144e-18)
(19.8221 -1.69585 -2.16964e-20)
(20.0231 -1.20165 0)
(20.1971 -0.697955 -3.9651e-19)
(20.3438 -0.18646 -5.12869e-20)
(20.4632 0.331624 -4.86301e-20)
(-0.0545004 -2.44935 7.93942e-23)
(0.00675841 -2.44911 0)
(0.0721508 -2.46214 0)
(0.144635 -2.48936 6.3467e-21)
(0.222154 -2.5361 -6.43804e-21)
(0.308983 -2.60608 -3.83754e-20)
(0.406716 -2.6977 0)
(0.517039 -2.809 0)
(0.641718 -2.94043 -4.46033e-20)
(0.781264 -3.09209 0)
(0.936968 -3.26286 -1.05999e-19)
(1.10966 -3.45118 8.33306e-20)
(1.30026 -3.65576 -4.49959e-20)
(1.50974 -3.8749 0)
(1.7389 -4.10666 2.79255e-19)
(1.98805 -4.34895 1.65173e-19)
(2.25754 -4.59956 -1.62492e-19)
(2.54752 -4.85624 2.10893e-19)
(2.85815 -5.11651 -6.42293e-19)
(3.18923 -5.37788 5.11021e-19)
(3.54044 -5.63799 -5.65661e-19)
(3.91153 -5.89433 -3.04712e-19)
(4.30173 -6.14456 -3.12562e-19)
(4.71028 -6.38639 1.07414e-18)
(5.13626 -6.61759 3.71931e-19)
(5.57873 -6.83599 4.42083e-19)
(6.03658 -7.03955 -3.91958e-19)
(6.50853 -7.22651 0)
(6.99337 -7.39511 0)
(7.48955 -7.54398 0)
(7.99577 -7.67166 0)
(8.51036 -7.77693 0)
(9.03181 -7.8588 0)
(9.55862 -7.91625 0)
(10.089 -7.94869 -8.11197e-19)
(10.6215 -7.95531 7.36699e-19)
(11.1543 -7.93583 8.12829e-19)
(11.686 -7.88996 -4.12938e-18)
(12.2149 -7.81736 -8.76717e-19)
(12.7392 -7.71798 2.69637e-18)
(13.2574 -7.59193 1.89246e-18)
(13.7677 -7.43962 -1.95347e-18)
(14.2686 -7.26092 9.33004e-19)
(14.7586 -7.05652 9.84789e-19)
(15.2361 -6.82705 -1.04716e-18)
(15.6998 -6.57274 1.03786e-18)
(16.1482 -6.29443 -2.22529e-18)
(16.5799 -5.99295 0)
(16.9936 -5.6693 -5.68682e-19)
(17.3884 -5.32361 1.14284e-18)
(17.7638 -4.95644 -5.7432e-19)
(18.1185 -4.5697 0)
(18.4513 -4.16481 1.18088e-18)
(18.7613 -3.74256 0)
(19.0475 -3.30443 0)
(19.3092 -2.85158 2.80034e-18)
(19.5456 -2.38533 -1.26227e-18)
(19.7562 -1.90729 -3.07123e-19)
(19.9404 -1.41833 3.24209e-19)
(20.0977 -0.920191 0)
(20.2278 -0.414122 8.15462e-20)
(0.0534661 -1.38429 -2.20056e-22)
(0.105294 -1.42525 0)
(0.164452 -1.4876 -6.40077e-22)
(0.232665 -1.57281 -2.87521e-22)
(0.30908 -1.67804 0)
(0.397109 -1.80162 3.31146e-20)
(0.497772 -1.94561 2.19813e-20)
(0.61238 -2.10888 0)
(0.742543 -2.29094 2.22106e-21)
(0.88999 -2.49035 4.55192e-20)
(1.05571 -2.70599 9.03302e-20)
(1.24034 -2.93596 -3.12787e-20)
(1.44446 -3.17848 0)
(1.66845 -3.43147 0)
(1.91261 -3.69285 2.12131e-19)
(2.17689 -3.96051 -1.34713e-19)
(2.46127 -4.23226 -1.44337e-19)
(2.76556 -4.50594 0)
(3.08951 -4.77929 5.55164e-19)
(3.43279 -5.05009 -5.76152e-19)
(3.79496 -5.31625 -4.30533e-19)
(4.1755 -5.57565 -4.74015e-19)
(4.57365 -5.8263 0)
(4.98851 -6.06625 -8.49538e-19)
(5.41915 -6.29357 -2.98671e-19)
(5.86458 -6.50636 3.5492e-19)
(6.32373 -6.70288 3.91988e-19)
(6.79542 -6.88161 0)
(7.27838 -7.0411 0)
(7.77122 -7.18013 0)
(8.27253 -7.29751 0)
(8.78081 -7.39222 0)
(9.29464 -7.46334 0)
(9.81249 -7.5101 0)
(10.3328 -7.53192 -1.77634e-18)
(10.854 -7.52825 5.90126e-19)
(11.3746 -7.49883 -6.51261e-19)
(11.8931 -7.44346 3.27798e-18)
(12.4079 -7.36198 0)
(12.9173 -7.25444 1.39519e-18)
(13.4197 -7.12101 1.44328e-18)
(13.9137 -6.96199 7.15117e-19)
(14.3976 -6.7775 -8.19658e-19)
(14.8702 -6.5681 -1.57879e-18)
(15.3299 -6.33433 2.46052e-18)
(15.7754 -6.07668 -8.32404e-19)
(16.2055 -5.79595 -1.69847e-18)
(16.6188 -5.49292 0)
(17.0142 -5.16861 0)
(17.3906 -4.82397 -4.6396e-19)
(17.7469 -4.46016 -4.53701e-19)
(18.0824 -4.07806 -9.28109e-19)
(18.3962 -3.67875 -9.71727e-19)
(18.6873 -3.26366 0)
(18.9551 -2.83358 -9.61395e-19)
(19.1986 -2.39024 -1.00214e-18)
(19.4175 -1.9344 0)
(19.6109 -1.46823 1.62936e-20)
(19.7783 -0.992057 0)
(19.9195 -0.507645 0)
(20.0343 -0.0160145 -6.21287e-20)
(0.021884 -0.877842 4.83736e-22)
(0.0789349 -0.957253 -5.68804e-22)
(0.147675 -1.05694 -3.49546e-22)
(0.228645 -1.17585 -2.11579e-21)
(0.321734 -1.31285 0)
(0.426687 -1.46755 -1.38494e-20)
(0.544881 -1.64011 -1.89667e-20)
(0.677576 -1.82989 0)
(0.826204 -2.03603 3.0342e-21)
(0.991682 -2.25733 -3.8875e-20)
(1.17491 -2.49237 8.69727e-20)
(1.37628 -2.73945 1.0465e-19)
(1.59616 -2.99658 0)
(1.8348 -3.26174 -8.18205e-20)
(2.09245 -3.53291 -1.73357e-19)
(2.36887 -3.80813 -9.22619e-20)
(2.66393 -4.08532 3.54662e-19)
(2.97739 -4.36245 -2.56091e-19)
(3.30885 -4.63742 2.86867e-19)
(3.65804 -4.90817 4.88192e-19)
(4.02458 -5.17286 7.06265e-19)
(4.40778 -5.4297 3.98186e-19)
(4.80701 -5.67691 1.91566e-19)
(5.2213 -5.91281 6.95903e-19)
(5.64977 -6.13557 2.28551e-19)
(6.09149 -6.34346 2.59963e-19)
(6.54549 -6.53492 3.06692e-19)
(7.01076 -6.70856 -9.17858e-19)
(7.48607 -6.86322 6.58926e-19)
(7.97005 -6.99774 7.44547e-19)
(8.46147 -7.11108 -1.52209e-18)
(8.95889 -7.20228 7.77204e-19)
(9.46097 -7.27042 -8.32659e-19)
(9.96646 -7.31481 4.14997e-19)
(10.4738 -7.33493 4.55073e-19)
(10.9816 -7.33033 5.0523e-19)
(11.4884 -7.30074 -4.98862e-19)
(11.9928 -7.2461 -5.43745e-19)
(12.4932 -7.16628 -1.63032e-18)
(12.9881 -7.06131 -1.17652e-18)
(13.4759 -6.93141 -2.38572e-18)
(13.9554 -6.77675 -3.09139e-18)
(14.4249 -6.59763 1.26772e-18)
(14.8831 -6.39443 2.86816e-20)
(15.3288 -6.16771 -7.10344e-19)
(15.7606 -5.91801 -6.96965e-19)
(16.1773 -5.64599 4.21446e-18)
(16.5777 -5.35244 -7.06513e-19)
(16.9607 -5.03814 0)
(17.3254 -4.70399 0)
(17.6707 -4.35104 -7.10126e-19)
(17.9957 -3.98046 3.17478e-20)
(18.2997 -3.59326 7.62345e-19)
(18.5818 -3.19058 0)
(18.8413 -2.77368 8.12297e-19)
(19.0773 -2.3439 0)
(19.2892 -1.90239 0)
(19.4766 -1.45013 6.19454e-19)
(19.6389 -0.988654 1.97055e-19)
(19.7759 -0.519428 -2.00842e-19)
(19.8872 -0.0439297 1.02799e-19)
(0.108586 -0.629969 4.02299e-23)
(0.168444 -0.731161 4.96959e-22)
(0.242194 -0.850015 -4.34824e-22)
(0.330414 -0.986664 1.30297e-21)
(0.432659 -1.14079 -3.41029e-21)
(0.549357 -1.3119 5.61873e-21)
(0.681038 -1.49957 2.30331e-21)
(0.828395 -1.70284 -1.40782e-20)
(0.992508 -1.92077 4.05926e-20)
(1.17359 -2.15206 -5.84359e-20)
(1.37229 -2.3952 6.54467e-20)
(1.58843 -2.64846 -8.09573e-20)
(1.82231 -2.90981 -4.65438e-20)
(2.0738 -3.17726 0)
(2.34324 -3.44882 8.46469e-20)
(2.63005 -3.72283 8.12863e-20)
(2.93404 -3.9973 0)
(3.25495 -4.27026 2.00641e-19)
(3.59223 -4.53977 0)
(3.94576 -4.80382 -2.65228e-19)
(4.31521 -5.06088 2.89388e-19)
(4.69976 -5.30945 1.0146e-20)
(5.09887 -5.5479 -1.68025e-20)
(5.51144 -5.77478 2.86886e-20)
(5.93665 -5.98824 -8.12564e-19)
(6.37374 -6.18669 -4.66323e-19)
(6.82171 -6.36871 9.59873e-19)
(7.27982 -6.53306 1.04151e-18)
(7.74673 -6.67885 -5.6376e-19)
(8.22121 -6.80498 0)
(8.7021 -6.91044 0)
(9.18794 -6.99435 0)
(9.67771 -7.05568 7.13723e-19)
(10.1702 -7.09384 -2.9478e-18)
(10.664 -7.10848 1.5431e-18)
(11.1578 -7.09919 -7.84871e-19)
(11.6502 -7.06573 -1.69411e-18)
(12.1396 -7.00821 1.71884e-18)
(12.6248 -6.92643 3.95348e-20)
(13.1043 -6.82042 -9.71127e-19)
(13.5767 -6.69041 1.00336e-18)
(14.0406 -6.53658 1.03786e-18)
(14.4946 -6.3592 0)
(14.9374 -6.15859 -1.0545e-18)
(15.3677 -5.93534 0)
(15.7844 -5.68997 -1.68574e-18)
(16.1862 -5.42314 5.2116e-19)
(16.5721 -5.13556 0)
(16.9409 -4.82793 -6.11949e-19)
(17.2918 -4.50124 -1.47466e-20)
(17.6239 -4.15634 1.30439e-18)
(17.9363 -3.79439 -6.19988e-19)
(18.2282 -3.41647 -3.44999e-19)
(18.4989 -3.02369 6.31735e-19)
(18.7475 -2.6174 -4.8684e-21)
(18.9734 -2.1986 3.29643e-19)
(19.1757 -1.76858 1.59278e-19)
(19.354 -1.32827 3.3631e-19)
(19.5082 -0.878907 -8.45114e-19)
(19.6378 -0.421985 3.3954e-19)
(19.7425 0.040938 -4.34605e-20)
(0.187244 -0.500904 -2.56746e-22)
(0.261076 -0.617387 0)
(0.349714 -0.750117 1.08149e-21)
(0.453688 -0.899551 0)
(0.571929 -1.06538 1.04405e-21)
(0.705289 -1.24688 8.16193e-21)
(0.853953 -1.44355 8.9221e-21)
(1.01838 -1.65413 2.71135e-20)
(1.19961 -1.87763 3.66457e-21)
(1.39718 -2.11284 5.64435e-21)
(1.61184 -2.35809 1.11832e-21)
(1.84272 -2.61187 -3.08257e-20)
(2.0903 -2.87206 4.50119e-20)
(2.35372 -3.13666 -1.37077e-19)
(2.63407 -3.40375 1.16314e-19)
(2.93026 -3.67226 -8.24325e-21)
(3.24188 -3.9399 -1.43927e-19)
(3.56904 -4.20493 -1.73107e-19)
(3.91073 -4.46556 0)
(4.26712 -4.7197 2.05654e-19)
(4.63817 -4.96623 8.26446e-21)
(5.02256 -5.20402 -5.32739e-19)
(5.42028 -5.43141 -2.28326e-20)
(5.82975 -5.64733 -2.88757e-19)
(6.2503 -5.84968 1.01837e-18)
(6.68134 -6.03701 3.48176e-20)
(7.12182 -6.20816 -3.7863e-19)
(7.57137 -6.3619 -4.02654e-20)
(8.02861 -6.49784 0)
(8.49211 -6.61472 0)
(8.9612 -6.71142 0)
(9.43427 -6.78726 0)
(9.91029 -6.84103 0)
(10.3887 -6.87225 5.67654e-20)
(10.8678 -6.88096 -6.60604e-19)
(11.3461 -6.86682 -3.87972e-20)
(11.8227 -6.82933 2.8346e-20)
(12.2961 -6.76896 6.82939e-19)
(12.7647 -6.6853 1.56094e-18)
(13.2277 -6.57827 -2.35503e-18)
(13.6834 -6.44837 1.63968e-18)
(14.1307 -6.29563 -8.27806e-19)
(14.5679 -6.12044 0)
(14.9942 -5.92286 9.20284e-19)
(15.4083 -5.70361 0)
(15.8089 -5.46322 9.69528e-19)
(16.195 -5.20213 -9.92467e-19)
(16.5653 -4.92138 4.66283e-19)
(16.919 -4.62123 4.98294e-19)
(17.2554 -4.30274 -5.20259e-19)
(17.5734 -3.96675 3.72167e-20)
(17.8724 -3.6145 -1.06899e-20)
(18.1516 -3.24673 1.05933e-18)
(18.4104 -2.86486 -1.09072e-18)
(18.6479 -2.47011 -5.38346e-19)
(18.8632 -2.06378 -2.63652e-19)
(19.0556 -1.64666 -8.39115e-19)
(19.2247 -1.21958 0)
(19.3705 -0.783669 5.67266e-19)
(19.4927 -0.340753 -1.4569e-19)
(19.5909 0.107892 0)
(0.28672 -0.44124 0)
(0.375572 -0.568594 0)
(0.480332 -0.711727 -6.87329e-22)
(0.602218 -0.8709 -2.01425e-22)
(0.738113 -1.04539 -2.38856e-21)
(0.889906 -1.23395 -1.2869e-20)
(1.0569 -1.43606 6.51976e-21)
(1.23892 -1.65016 -1.9494e-20)
(1.43824 -1.87548 -1.2396e-21)
(1.6522 -2.11085 4.90194e-20)
(1.88322 -2.35462 -8.91363e-20)
(2.12837 -2.60559 0)
(2.38946 -2.86132 0)
(2.6636 -3.1201 1.5595e-19)
(2.95446 -3.37951 9.95311e-20)
(3.25922 -3.63986 -2.19044e-19)
(3.5773 -3.89822 3.54912e-19)
(3.91 -4.15294 1.48005e-19)
(4.25489 -4.40284 -2.9598e-19)
(4.61287 -4.64514 -1.79052e-19)
(4.98494 -4.87923 2.05949e-19)
(5.3678 -5.10488 -4.86352e-21)
(5.76351 -5.3195 0)
(6.16883 -5.52341 5.30614e-19)
(6.58359 -5.71355 -8.73533e-19)
(7.00787 -5.88861 2.90875e-19)
(7.4394 -6.04819 6.43412e-19)
(7.87961 -6.19034 -1.7902e-18)
(8.32615 -6.31571 3.64593e-19)
(8.77744 -6.42272 0)
(9.23408 -6.5095 0)
(9.69336 -6.5766 0)
(10.1547 -6.62212 4.99864e-19)
(10.6182 -6.64548 1.54845e-18)
(11.0819 -6.64789 -1.04807e-18)
(11.5434 -6.62896 5.7887e-19)
(12.0034 -6.58689 6.34557e-19)
(12.4594 -6.52365 -1.25919e-18)
(12.9102 -6.43788 0)
(13.3556 -6.32917 -1.29375e-18)
(13.7937 -6.19907 6.72109e-19)
(14.2235 -6.04707 3.48736e-20)
(14.6428 -5.87416 -3.13835e-20)
(15.0515 -5.67936 7.41137e-19)
(15.4484 -5.46399 3.13751e-20)
(15.8317 -5.22884 -2.36891e-18)
(16.2011 -4.97347 8.02934e-19)
(16.5548 -4.69974 -1.66867e-18)
(16.8925 -4.40699 0)
(17.2131 -4.09709 0)
(17.5163 -3.76996 1.76429e-18)
(17.8008 -3.42785 -4.21587e-19)
(18.0662 -3.07065 -9.14917e-19)
(18.3123 -2.69966 -4.39959e-19)
(18.5381 -2.31697 1.4055e-18)
(18.7421 -1.92359 7.09253e-19)
(18.9239 -1.51982 2.45269e-19)
(19.0828 -1.10681 -4.60849e-21)
(19.2194 -0.684671 -2.45589e-19)
(19.3337 -0.255866 0)
(19.4249 0.177741 0)
(0.402857 -0.425287 3.03055e-22)
(0.509939 -0.560528 0)
(0.631984 -0.71117 0)
(0.774469 -0.877802 -2.40831e-22)
(0.928506 -1.05863 0)
(1.09982 -1.25164 5.39319e-21)
(1.2855 -1.45644 6.26428e-21)
(1.48427 -1.67106 -1.28761e-20)
(1.70303 -1.89545 0)
(1.93212 -2.12837 -2.92973e-20)
(2.18062 -2.36817 3.7412e-21)
(2.43852 -2.61436 0)
(2.71398 -2.86371 0)
(2.99591 -3.11511 -6.5604e-20)
(3.29773 -3.36363 7.1651e-20)
(3.6108 -3.61451 -8.95301e-20)
(3.93348 -3.86217 -1.02809e-19)
(4.27175 -4.10486 0)
(4.61845 -4.34366 1.32162e-19)
(4.97649 -4.57285 -2.79022e-19)
(5.35035 -4.79311 -3.12651e-19)
(5.72929 -5.00635 -3.66246e-19)
(6.12325 -5.20658 -3.25852e-20)
(6.5235 -5.39848 -4.64453e-19)
(6.93146 -5.57594 4.45797e-19)
(7.34909 -5.73804 4.97045e-19)
(7.76962 -5.88627 -5.65733e-19)
(8.20011 -6.01553 3.09721e-20)
(8.63569 -6.13009 4.16533e-20)
(9.07276 -6.22693 -6.52373e-19)
(9.51677 -6.30234 0)
(9.96154 -6.3608 -7.93455e-19)
(10.4069 -6.39755 1.57468e-18)
(10.8551 -6.41226 -4.33574e-20)
(11.3029 -6.40901 9.25635e-19)
(11.7451 -6.38686 -9.22437e-19)
(12.1886 -6.3392 1.01701e-18)
(12.6262 -6.27325 1.06054e-18)
(13.0575 -6.18505 -2.09691e-18)
(13.4846 -6.07357 1.14735e-18)
(13.9036 -5.94354 1.12835e-18)
(14.3154 -5.7918 1.78329e-18)
(14.7152 -5.62158 -6.35068e-19)
(15.1054 -5.42844 0)
(15.4842 -5.21707 3.40474e-20)
(15.8486 -4.98816 6.90678e-19)
(16.2009 -4.73811 -6.71665e-19)
(16.5363 -4.47277 7.23565e-19)
(16.857 -4.18736 0)
(17.1603 -3.8871 0)
(17.4478 -3.56871 -3.969e-20)
(17.7168 -3.23779 7.78533e-19)
(17.9671 -2.8905 0)
(18.1997 -2.53019 3.87013e-19)
(18.4131 -2.1607 3.90531e-19)
(18.6053 -1.78139 -7.95951e-19)
(18.7758 -1.39155 -3.90591e-19)
(18.923 -0.993731 -2.07616e-19)
(19.0492 -0.584917 0)
(19.1554 -0.1713 0)
(19.239 0.245792 2.48931e-20)
(0.535973 -0.436897 -8.61073e-22)
(0.66744 -0.576761 1.614e-21)
(0.806297 -0.730542 -3.26529e-23)
(0.975611 -0.90263 -9.02988e-22)
(1.14418 -1.08662 3.2189e-22)
(1.33472 -1.28384 -2.08913e-22)
(1.53992 -1.48728 0)
(1.75173 -1.6985 1.35751e-21)
(1.99515 -1.92044 -1.50091e-20)
(2.23362 -2.1475 0)
(2.50548 -2.38209 5.92819e-20)
(2.769 -2.62303 -3.67581e-20)
(3.06239 -2.86605 3.74039e-20)
(3.34473 -3.11032 4.74894e-20)
(3.66026 -3.3422 -6.18878e-20)
(3.98128 -3.5846 -7.54175e-20)
(4.3043 -3.82144 2.48581e-19)
(4.65258 -4.04848 -2.58659e-19)
(4.99459 -4.27871 0)
(5.34783 -4.49634 -9.18435e-21)
(5.73019 -4.70143 7.68073e-19)
(6.09692 -4.90505 -2.903e-20)
(6.49679 -5.08526 -3.63594e-19)
(6.8859 -5.26806 6.96776e-19)
(7.28517 -5.43535 0)
(7.69929 -5.58457 -4.28472e-19)
(8.10213 -5.72331 -4.39043e-19)
(8.52468 -5.83819 9.73562e-19)
(8.95044 -5.94244 -5.77328e-21)
(9.36936 -6.0301 5.77128e-19)
(9.80368 -6.09069 -1.17839e-18)
(10.23 -6.14294 1.87656e-18)
(10.6568 -6.17341 -1.34645e-18)
(11.0904 -6.18003 -1.41552e-18)
(11.5247 -6.17102 0)
(11.9422 -6.14685 8.06782e-19)
(12.3743 -6.09071 0)
(12.7898 -6.02471 -3.43332e-21)
(13.1995 -5.9354 9.55676e-19)
(13.6112 -5.81748 -1.77755e-18)
(14.0088 -5.68659 -6.58727e-21)
(14.4041 -5.53522 -1.96875e-18)
(14.7784 -5.37064 0)
(15.149 -5.18052 -5.646e-19)
(15.5106 -4.97449 2.16693e-18)
(15.8514 -4.753 -5.51313e-19)
(16.1904 -4.50767 5.84238e-19)
(16.5035 -4.25191 0)
(16.809 -3.97284 6.019e-19)
(17.0923 -3.68139 -1.81729e-18)
(17.365 -3.368 -2.54163e-20)
(17.6169 -3.04842 0)
(17.8491 -2.71388 6.25554e-19)
(18.0686 -2.36473 -1.88298e-20)
(18.2708 -2.00607 0)
(18.448 -1.63941 3.53191e-19)
(18.609 -1.27116 -3.20793e-19)
(18.7418 -0.890646 3.36573e-19)
(18.8557 -0.496333 3.34047e-19)
(18.9566 -0.0943227 -1.67838e-19)
(19.0291 0.306861 -6.35458e-20)
(20.5544 0.855371 1.51297e-19)
(20.6169 1.38306 -5.12965e-20)
(20.6513 1.9142 0)
(20.6575 2.44636 0)
(20.6358 2.97774 8.15474e-19)
(20.5865 3.50721 1.17344e-18)
(20.5097 4.033 -1.20847e-18)
(20.4055 4.55366 -3.98331e-19)
(20.2742 5.06766 3.98266e-19)
(20.1162 5.57391 7.79631e-19)
(19.9319 6.07184 -7.8008e-19)
(19.7213 6.5596 -7.58635e-19)
(19.4859 7.03609 3.7733e-18)
(19.227 7.50021 7.34019e-19)
(18.9449 7.95042 -6.47751e-18)
(18.6405 8.38523 0)
(18.3144 8.8037 0)
(17.9679 9.20489 6.74069e-19)
(17.6019 9.58823 1.99119e-18)
(17.217 9.95238 -5.11887e-18)
(16.8149 10.2967 -7.50651e-20)
(16.3963 10.6207 1.17342e-18)
(15.9623 10.9231 1.20755e-18)
(15.514 11.2037 -4.5067e-18)
(15.053 11.462 0)
(14.5801 11.6983 2.11754e-18)
(14.0956 11.9119 -1.96245e-18)
(13.6016 12.1012 0)
(13.0995 12.2657 0)
(12.5911 12.4051 -8.99744e-19)
(12.0775 12.5195 -1.64563e-18)
(11.5602 12.6085 2.34608e-18)
(11.0405 12.6724 0)
(10.5196 12.7111 0)
(9.9989 12.7245 1.18532e-18)
(9.47958 12.713 -1.12746e-18)
(8.96299 12.6765 0)
(8.45042 12.6157 1.77955e-18)
(7.9429 12.5307 3.71372e-19)
(7.4417 12.4219 -1.02784e-18)
(6.94803 12.2897 3.58083e-20)
(6.46331 12.1348 4.34959e-19)
(5.98832 11.958 -4.32092e-19)
(5.52427 11.7594 7.58054e-20)
(5.07232 11.5401 0)
(4.63321 11.3008 0)
(4.20799 11.0421 -1.63193e-19)
(3.79758 10.7649 -3.58013e-20)
(3.40298 10.4702 2.17241e-19)
(3.02491 10.1592 9.0688e-20)
(2.66397 9.83263 1.42609e-19)
(2.32099 9.49135 -1.4447e-19)
(1.99674 9.13667 -9.70414e-20)
(1.69152 8.76979 9.83667e-20)
(1.40604 8.3916 -5.88241e-19)
(1.14071 8.00357 6.42235e-19)
(0.895944 7.60681 -1.36951e-21)
(0.67206 7.20283 0)
(0.469225 6.79268 1.63795e-19)
(0.287792 6.37745 2.22558e-20)
(0.127842 5.95839 2.35663e-20)
(20.3301 0.0982758 -8.16375e-20)
(20.4038 0.614974 0)
(20.4495 1.1334 0)
(20.4679 1.65316 9.37767e-19)
(20.4587 2.17296 -6.27112e-19)
(20.4222 2.69159 -2.21024e-18)
(20.3587 3.20737 0)
(20.2681 3.71914 0)
(20.1508 4.2254 -1.2041e-18)
(20.0068 4.72451 0)
(19.8364 5.21586 -1.76481e-18)
(19.6402 5.6972 1.17104e-18)
(19.4197 6.16667 -5.81374e-19)
(19.1759 6.62389 0)
(18.9091 7.06852 2.30026e-18)
(18.6197 7.49922 1.07755e-18)
(18.3083 7.91482 -1.07973e-18)
(17.9761 8.31412 1.02733e-18)
(17.624 8.69647 -3.03603e-18)
(17.2528 9.06067 2.04498e-18)
(16.8639 9.40558 -1.98637e-18)
(16.4582 9.73075 -1.01288e-18)
(16.0369 10.035 -9.16169e-19)
(15.601 10.3175 2.65884e-18)
(15.152 10.5776 8.5227e-19)
(14.6904 10.8151 7.80089e-19)
(14.2175 11.0302 -7.04717e-19)
(13.7352 11.2219 0)
(13.2445 11.3896 0)
(12.7469 11.5326 0)
(12.2436 11.651 0)
(11.736 11.7445 0)
(11.2254 11.8128 0)
(10.713 11.8563 0)
(10.2004 11.8746 -4.93235e-19)
(9.68873 11.8679 4.37727e-19)
(9.17929 11.8364 3.50991e-19)
(8.67333 11.7802 -1.70425e-18)
(8.17198 11.6999 -2.6642e-19)
(7.67657 11.5956 7.95174e-19)
(7.18832 11.4678 4.38463e-19)
(6.70861 11.3169 -3.50501e-19)
(6.23832 11.1437 1.3035e-19)
(5.77878 10.9484 9.61383e-20)
(5.3311 10.732 -9.40062e-21)
(4.89609 10.4951 9.50643e-21)
(4.47483 10.2383 8.93244e-20)
(4.06828 9.9625 0)
(3.67751 9.66863 7.98655e-20)
(3.3033 9.35769 -1.81432e-19)
(2.94631 9.03053 1.01859e-19)
(2.60746 8.68805 0)
(2.28759 8.33139 -3.04561e-19)
(1.98697 7.96172 0)
(1.70651 7.57998 0)
(1.44645 7.18756 -9.48011e-19)
(1.20745 6.78569 4.57459e-19)
(0.989697 6.37577 1.26575e-19)
(0.793774 5.95879 -1.32384e-19)
(0.619988 5.53604 0)
(0.468572 5.10875 -3.73658e-20)
(20.1225 0.480812 6.21853e-20)
(20.1845 0.981663 0)
(20.2197 1.48309 -2.48211e-19)
(20.2271 1.98488 -1.63891e-20)
(20.2077 2.4857 0)
(20.1621 2.98485 1.99279e-18)
(20.0903 3.48142 9.73073e-19)
(19.992 3.97526 0)
(19.8676 4.46409 3.2228e-20)
(19.7171 4.9458 9.42655e-19)
(19.5416 5.41859 1.43236e-18)
(19.3422 5.88108 -4.70912e-19)
(19.1194 6.33166 0)
(18.8736 6.76938 0)
(18.6051 7.1938 1.73545e-18)
(18.315 7.60408 -8.56529e-19)
(18.0042 7.9992 -8.02683e-19)
(17.6735 8.37819 0)
(17.3238 8.74027 2.4256e-18)
(16.9562 9.08446 -2.3277e-18)
(16.5718 9.40984 -1.48692e-18)
(16.1717 9.7157 -1.43909e-18)
(15.7569 10.0011 0)
(15.3285 10.2654 -2.05699e-18)
(14.8877 10.5079 -6.71306e-19)
(14.4355 10.728 6.13472e-19)
(13.9735 10.9252 6.03964e-19)
(13.5027 11.0993 0)
(13.0244 11.25 0)
(12.5397 11.3769 0)
(12.05 11.4799 0)
(11.5565 11.5588 0)
(11.0604 11.6136 0)
(10.5632 11.6442 0)
(10.0661 11.6506 -1.05719e-18)
(9.57028 11.6329 3.38527e-19)
(9.07703 11.5913 -2.7013e-19)
(8.58749 11.5259 1.28708e-18)
(8.10281 11.4372 0)
(7.62421 11.3255 3.62101e-19)
(7.15289 11.1912 2.95645e-19)
(6.69007 11.0348 1.26606e-19)
(6.23676 10.857 -7.62743e-20)
(5.79414 10.6581 -9.6214e-20)
(5.36324 10.4388 3.21031e-20)
(4.94495 10.1998 -2.10168e-21)
(4.54015 9.94183 1.01389e-19)
(4.14982 9.66567 0)
(3.77486 9.37226 0)
(3.41612 9.06245 8.03878e-20)
(3.07433 8.73717 9.72843e-20)
(2.75018 8.39733 2.09614e-19)
(2.44444 8.0439 2.40101e-19)
(2.15752 7.67801 0)
(1.89015 7.30053 2.99281e-19)
(1.64257 6.91293 3.30184e-19)
(1.41529 6.51626 0)
(1.20869 6.112 -1.77031e-21)
(1.0233 5.70104 0)
(0.859352 5.28471 0)
(0.717112 4.86408 2.87226e-20)
(19.9726 0.436776 -1.02879e-19)
(20.0322 0.921099 2.01285e-19)
(20.0658 1.4085 -3.97007e-19)
(20.073 1.89704 -2.13589e-19)
(20.054 2.38513 0)
(20.0084 2.87156 -8.27612e-19)
(19.9358 3.35564 -8.2192e-19)
(19.8376 3.8358 0)
(19.7149 4.31166 3.41903e-20)
(19.5679 4.7814 -7.95011e-19)
(19.3968 5.24274 1.5013e-18)
(19.2019 5.69464 1.47823e-18)
(18.9838 6.13595 0)
(18.7429 6.56554 -7.20765e-19)
(18.4801 6.98212 -1.43184e-18)
(18.1962 7.38448 -7.06184e-19)
(17.8919 7.77175 2.06911e-18)
(17.5683 8.14304 -1.32959e-18)
(17.2262 8.4976 1.29396e-18)
(16.8667 8.83457 1.87892e-18)
(16.4909 9.15314 2.43999e-18)
(16.0997 9.45252 1.20654e-18)
(15.6943 9.73186 5.55382e-19)
(15.2757 9.99047 1.67941e-18)
(14.845 10.2278 5.1407e-19)
(14.4032 10.4434 5.14783e-19)
(13.9516 10.6368 4.66596e-19)
(13.4914 10.8076 -1.35888e-18)
(13.0239 10.9554 8.42759e-19)
(12.5502 11.08 7.86785e-19)
(12.0716 11.1811 -1.52703e-18)
(11.5893 11.2588 7.40169e-19)
(11.1046 11.3128 -6.44265e-19)
(10.6187 11.3433 3.02454e-19)
(10.1331 11.3502 2.92325e-19)
(9.64874 11.3335 2.37585e-19)
(9.16694 11.2933 -2.39159e-19)
(8.68876 11.23 -2.25551e-19)
(8.21532 11.1439 -5.15619e-19)
(7.74785 11.0353 -2.99411e-19)
(7.28751 10.9047 -4.6792e-19)
(6.83542 10.7526 -4.3545e-19)
(6.39274 10.5796 1.25721e-19)
(5.96053 10.3861 7.39531e-21)
(5.53981 10.1727 -2.17336e-21)
(5.13148 9.93997 3.06923e-20)
(4.73626 9.68873 -2.64259e-19)
(4.35517 9.41974 5.74046e-20)
(3.98903 9.13396 0)
(3.63878 8.83217 0)
(3.30501 8.51519 1.49343e-19)
(2.98855 8.18412 9.12092e-22)
(2.69001 7.83977 -1.95838e-19)
(2.40986 7.48317 0)
(2.1487 7.11516 -2.43358e-19)
(1.90675 6.73719 0)
(1.68455 6.35039 0)
(1.48234 5.95605 -2.34291e-19)
(1.30092 5.55528 -8.34975e-20)
(1.14026 5.14925 8.6753e-20)
(1.00094 4.73912 -4.60298e-20)
(19.8219 0.508711 1.86469e-21)
(19.8761 0.980083 -1.73965e-19)
(19.9048 1.45412 5.09972e-19)
(19.908 1.92928 3.38451e-19)
(19.8857 2.40437 -4.9868e-19)
(19.8379 2.87812 3.34191e-19)
(19.7654 3.34864 -2.37165e-21)
(19.668 3.81357 -6.47416e-19)
(19.5459 4.2729 9.86503e-19)
(19.4002 4.72572 -1.28529e-18)
(19.2312 5.17105 1.20983e-18)
(19.0394 5.6074 -1.28664e-18)
(18.825 6.03364 -6.18303e-19)
(18.5889 6.44876 0)
(18.3316 6.85137 6.37076e-19)
(18.054 7.24026 5.43763e-19)
(17.7567 7.6147 0)
(17.4405 7.97368 1.07152e-18)
(17.1064 8.31653 0)
(16.7555 8.64247 -1.06055e-18)
(16.3888 8.95064 9.36665e-19)
(16.0074 9.24024 -4.06484e-20)
(15.6123 9.51038 -4.56912e-20)
(15.2045 9.76034 1.84709e-21)
(14.785 9.98968 -1.76483e-18)
(14.3548 10.1979 -8.02821e-19)
(13.915 10.3847 1.56913e-18)
(13.467 10.5496 1.45119e-18)
(13.012 10.6923 -7.23948e-19)
(12.551 10.8125 0)
(12.0853 10.9098 0)
(11.6159 10.9845 0)
(11.1441 11.0363 5.52381e-19)
(10.6713 11.0654 -1.9347e-18)
(10.1989 11.0716 8.98216e-19)
(9.7277 11.0549 -4.28333e-19)
(9.259 11.0153 -6.85625e-19)
(8.79382 10.9533 6.43873e-19)
(8.33315 10.8691 2.17641e-20)
(7.87829 10.7633 -2.03211e-19)
(7.43034 10.6361 2.2325e-19)
(6.99038 10.4882 1.45316e-19)
(6.55963 10.32 0)
(6.1391 10.132 -4.07649e-20)
(5.72978 9.92485 0)
(5.33261 9.69881 7.66535e-20)
(4.94808 9.45484 -4.04104e-20)
(4.57721 9.19367 0)
(4.22065 8.91628 9.4543e-20)
(3.8797 8.62336 1.97012e-20)
(3.55464 8.31563 -2.48076e-19)
(3.24631 7.99422 1.46171e-19)
(2.95548 7.65992 9.62174e-20)
(2.68236 7.3137 -1.76487e-19)
(2.42783 6.95633 8.17367e-21)
(2.19148 6.58911 -1.0713e-19)
(1.97434 6.21327 -5.77991e-20)
(1.77635 5.83012 -1.28491e-19)
(1.59861 5.44074 3.40759e-19)
(1.44076 5.04625 -1.44971e-19)
(1.30389 4.64776 1.91946e-20)
(19.6647 0.561065 3.65551e-20)
(19.714 1.0176 0)
(19.7387 1.47635 -5.70274e-19)
(19.7387 1.93616 0)
(19.7142 2.39569 2.83939e-19)
(19.6652 2.85356 8.30978e-19)
(19.592 3.30839 5.45325e-19)
(19.4947 3.75945 1.10629e-18)
(19.3737 4.205 9.71142e-21)
(19.2298 4.64409 -6.7004e-21)
(19.0635 5.07531 -5.98028e-20)
(18.875 5.49765 -5.26645e-19)
(18.6648 5.91009 5.08711e-19)
(18.4336 6.31166 -1.49169e-18)
(18.1822 6.70114 1.01247e-18)
(17.9113 7.07727 -4.86565e-20)
(17.6212 7.43925 -9.18509e-19)
(17.3128 7.7862 -9.41312e-19)
(16.987 8.1176 0)
(16.6449 8.43282 8.43105e-19)
(16.2877 8.7309 -3.78012e-20)
(15.9165 9.01105 -1.65968e-18)
(15.5323 9.27236 -5.91032e-21)
(15.1358 9.51391 -6.88816e-19)
(14.7279 9.73551 2.09745e-18)
(14.3097 9.93668 -3.46841e-20)
(13.8823 10.1171 -6.70006e-19)
(13.4469 10.2765 -7.09416e-20)
(13.0049 10.4145 0)
(12.5573 10.5307 0)
(12.105 10.6246 0)
(11.6491 10.6967 0)
(11.1909 10.7468 0)
(10.7317 10.7752 5.44449e-20)
(10.273 10.7812 -3.48481e-19)
(9.81563 10.765 3.92843e-20)
(9.36066 10.7267 5.36007e-20)
(8.90906 10.6664 2.23685e-19)
(8.46163 10.5847 4.25946e-19)
(8.01977 10.4822 -5.3041e-19)
(7.58466 10.3589 3.12024e-19)
(7.15715 10.2158 -9.65101e-20)
(6.73867 10.0531 0)
(6.33021 9.87145 3.55979e-20)
(5.93266 9.67135 0)
(5.5472 9.45273 -3.99329e-20)
(5.17357 9.21684 7.71457e-20)
(4.81338 8.9643 -5.38738e-20)
(4.46667 8.69629 -6.79828e-20)
(4.13537 8.41317 1.02222e-19)
(3.8193 8.11561 1.94798e-20)
(3.51932 7.80489 1.54664e-20)
(3.23645 7.48155 -2.82026e-19)
(2.97055 7.14668 3.2162e-19)
(2.72284 6.80068 1.76254e-19)
(2.49218 6.44517 9.22142e-20)
(2.28031 6.08116 3.06785e-19)
(2.0862 5.71014 0)
(1.91209 5.33304 -2.34858e-19)
(1.75686 4.95109 6.23859e-20)
(1.62234 4.56511 0)
(19.4926 0.615715 0)
(19.5365 1.05675 0)
(19.5568 1.49994 2.47302e-19)
(19.5533 1.94384 -4.73923e-19)
(19.5262 2.3875 -2.44695e-19)
(19.4758 2.82961 -1.1884e-18)
(19.4022 3.26848 4.59066e-19)
(19.3052 3.70313 -9.49586e-19)
(19.1852 4.13313 1.53742e-20)
(19.0434 4.55721 1.34684e-18)
(18.8802 4.9734 -1.79858e-18)
(18.6955 5.38082 0)
(18.4899 5.7784 0)
(18.2639 6.16588 1.70491e-18)
(18.0187 6.54179 8.24299e-19)
(17.755 6.90419 -1.67346e-18)
(17.4727 7.25292 2.39666e-18)
(17.1725 7.58707 7.62608e-19)
(16.8554 7.9063 -1.4952e-18)
(16.5224 8.21032 -7.50721e-19)
(16.1753 8.49766 6.92803e-19)
(15.8147 8.76795 -7.10227e-20)
(15.4418 9.02009 0)
(15.0576 9.25255 1.29869e-18)
(14.6619 9.46589 -1.83263e-18)
(14.2563 9.65958 5.90456e-19)
(13.8419 9.83315 1.0628e-18)
(13.4197 9.98693 -2.58144e-18)
(12.9916 10.1198 5.05242e-19)
(12.5579 10.232 0)
(12.1203 10.3221 0)
(11.6784 10.3918 0)
(11.2348 10.44 3.50814e-19)
(10.7898 10.468 9.9299e-19)
(10.3462 10.4742 -5.85496e-19)
(9.90344 10.4588 2.55544e-19)
(9.46314 10.422 2.45082e-19)
(9.0263 10.3634 -4.36039e-19)
(8.59284 10.2844 0)
(8.16468 10.1853 -2.4436e-19)
(7.74326 10.0662 1.27311e-19)
(7.32864 9.92794 1.44112e-20)
(6.92286 9.77113 9.7329e-21)
(6.52711 9.59619 3.03435e-20)
(6.14174 9.40394 -1.0551e-20)
(5.76913 9.19309 1.51444e-19)
(5.40681 8.96602 -6.49367e-20)
(5.05816 8.72257 2.22292e-19)
(4.72138 8.46488 0)
(4.40077 8.19252 0)
(4.09422 7.90581 -4.01434e-19)
(3.8028 7.6067 1.09331e-19)
(3.52885 7.29525 2.50769e-19)
(3.27031 6.97267 1.48426e-19)
(3.03056 6.6387 -4.67499e-19)
(2.80548 6.29557 -2.61798e-19)
(2.59947 5.94395 -9.63638e-20)
(2.40887 5.58603 -2.13179e-21)
(2.23913 5.22215 1.03278e-19)
(2.08611 4.85354 0)
(1.95443 4.48088 0)
(19.3 0.667538 -2.49335e-20)
(19.3378 1.09196 0)
(19.3531 1.5187 0)
(19.3456 1.94601 2.10054e-19)
(19.3157 2.37282 0)
(19.2639 2.79812 8.09911e-19)
(19.1905 3.22023 3.99766e-19)
(19.0938 3.63753 -7.85398e-19)
(18.9745 4.05185 0)
(18.835 4.4611 -7.98064e-19)
(18.6761 4.86063 4.39303e-20)
(18.4957 5.2523 0)
(18.2953 5.63382 0)
(18.0747 6.00632 -7.45366e-19)
(17.8361 6.36876 6.88443e-19)
(17.581 6.71619 -7.13437e-19)
(17.307 7.05095 -6.95843e-19)
(17.0155 7.37194 0)
(16.7076 7.67785 6.58064e-19)
(16.3842 7.9701 -1.20027e-18)
(16.0479 8.2458 -1.16007e-18)
(15.6986 8.50578 -1.19185e-18)
(15.3375 8.74897 -9.66773e-21)
(14.9671 8.97111 -9.8461e-19)
(14.584 9.17566 1.04454e-18)
(14.1912 9.36177 9.41789e-19)
(13.7909 9.52752 -9.56407e-19)
(13.382 9.67559 6.01023e-20)
(12.9687 9.80256 1.16445e-21)
(12.5492 9.91152 -8.00174e-19)
(12.1277 9.99655 0)
(11.6997 10.0646 -6.38613e-19)
(11.2723 10.1101 1.23041e-18)
(10.8414 10.139 -4.66863e-20)
(10.4149 10.1457 5.2724e-19)
(9.98819 10.1311 -4.29265e-19)
(9.56373 10.0963 3.65224e-19)
(9.14373 10.0391 2.6208e-19)
(8.72501 9.96293 -5.76467e-19)
(8.31111 9.86766 2.42811e-19)
(7.90503 9.75279 1.5548e-19)
(7.50316 9.61961 1.65243e-19)
(7.11017 9.46866 -3.58565e-20)
(6.72814 9.30071 0)