/*--------------------------------*- C++ -*----------------------------------*\
| =========                 |                                                 |
| \\      /  F ield         | OpenFOAM: The Open Source CFD Toolbox           |
|  \\    /   O peration     | Version:  2.3.1                                 |
|   \\  /    A nd           | Web:      www.OpenFOAM.org                      |
|    \\/     M anipulation  |                                                 |
\*---------------------------------------------------------------------------*/
FoamFile
{
    version     2.0;
    format      ascii;
    class       surfaceScalarField;
    location    "0.1";
    object      phi;
}
// * * * * * * * * * * * * * * * * * * * * * * * * * * * * * * * * * * * * * //

dimensions      [0 3 -1 0 0 0 0];

internalField   nonuniform List<scalar> 
1460
(
-2.0114e-07
-2.64896e-06
-2.87073e-07
-5.71301e-07
-2.32258e-06
-8.16101e-07
-1.90642e-06
-9.71639e-07
-1.48785e-06
-1.07719e-06
-1.0969e-06
-1.15619e-06
-7.31538e-07
-1.21999e-06
-3.73233e-07
-1.23083e-06
2.16488e-09
-1.26572e-06
3.36883e-07
-1.31423e-06
6.93257e-07
-1.35093e-06
1.07292e-06
1.33685e-06
-1.26661e-06
-7.64696e-08
-2.24267e-06
-3.29828e-07
-3.98099e-07
-2.00095e-06
-6.27026e-07
-1.67749e-06
-7.87293e-07
-1.32758e-06
-9.00574e-07
-9.83623e-07
-9.82215e-07
-6.49897e-07
-1.03994e-06
-3.15504e-07
-1.06617e-06
2.83935e-08
-1.10142e-06
3.72131e-07
-1.15173e-06
7.43563e-07
-1.2097e-06
1.13089e-06
1.27803e-06
-1.15089e-06
-3.58648e-09
-1.89954e-06
-3.39541e-07
-2.81693e-07
-1.72284e-06
-4.92157e-07
-1.46703e-06
-6.45037e-07
-1.1747e-06
-7.54458e-07
-8.74201e-07
-8.32392e-07
-5.71963e-07
-8.83136e-07
-2.6476e-07
-9.10056e-07
5.5314e-08
-9.41327e-07
4.03402e-07
-1.00329e-06
8.05526e-07
-1.09555e-06
1.22316e-06
1.28067e-06
-1.09819e-06
4.39866e-08
-3.34497e-07
-1.60903e-06
-1.97434e-07
-1.48142e-06
-3.87727e-07
-1.27673e-06
-5.30015e-07
-1.03241e-06
-6.33347e-07
-7.7087e-07
-7.05805e-07
-4.99504e-07
-7.50674e-07
-2.19891e-07
-7.70228e-07
7.48676e-08
-7.87295e-07
4.20469e-07
-8.56532e-07
8.74764e-07
-9.59771e-07
1.3264e-06
-9.80912e-07
1.30181e-06
-9.72032e-07
1.52456e-06
-5.98789e-07
2.0009e-06
-6.45142e-08
2.44157e-06
5.9382e-07
2.74482e-06
1.37184e-06
2.81818e-06
2.21211e-06
2.54026e-06
2.8279e-06
1.64874e-06
2.69235e-06
1.51154e-07
2.24055e-06
-1.14057e-06
1.58591e-06
-2.1217e-06
8.9596e-07
-2.66921e-06
-2.80997e-06
2.90004e-07
-7.82925e-07
1.1566e-06
-4.18094e-07
1.63607e-06
2.28672e-08
2.00061e-06
5.3515e-07
2.23254e-06
1.11522e-06
2.2381e-06
1.70854e-06
1.94695e-06
2.10661e-06
1.25067e-06
2.06849e-06
1.89277e-07
1.78019e-06
-8.52277e-07
1.32704e-06
-1.66855e-06
8.16001e-07
-2.15817e-06
-2.32522e-06
3.31249e-07
-6.4912e-07
7.07527e-07
-2.84552e-07
1.2715e-06
8.60034e-08
1.63005e-06
5.02568e-07
1.81597e-06
9.4262e-07
1.79805e-06
1.35794e-06
1.53163e-06
1.63572e-06
9.72888e-07
1.66002e-06
1.6498e-07
1.47431e-06
-6.66569e-07
1.13716e-06
-1.3314e-06
7.34759e-07
-1.75577e-06
-1.93081e-06
3.40348e-07
-5.11288e-07
2.37903e-07
-1.71407e-07
9.31622e-07
1.3477e-07
1.32388e-06
4.72188e-07
1.47855e-06
8.17301e-07
1.45294e-06
1.12982e-06
1.21911e-06
1.33932e-06
7.63389e-07
1.3717e-06
1.32594e-07
1.23273e-06
-5.27601e-07
9.73454e-07
-1.07212e-06
6.56104e-07
-1.43842e-06
3.34918e-07
-1.60962e-06
-2.03019e-07
-2.65747e-06
-5.73055e-07
-2.3235e-06
-8.17468e-07
-1.90776e-06
-9.7301e-07
-1.48862e-06
-1.07848e-06
-1.0973e-06
-1.15737e-06
-7.31543e-07
-1.22102e-06
-3.72947e-07
-1.23168e-06
2.64768e-09
-1.26656e-06
3.37398e-07
-1.31508e-06
6.93882e-07
-1.35182e-06
1.0736e-06
1.3372e-06
-7.81622e-08
-2.24806e-06
-3.99104e-07
-2.00256e-06
-6.28062e-07
-1.6788e-06
-7.88358e-07
-1.32833e-06
-9.01652e-07
-9.84009e-07
-9.83254e-07
-6.49941e-07
-1.04094e-06
-3.15261e-07
-1.06715e-06
2.88568e-08
-1.1025e-06
3.72745e-07
-1.15299e-06
7.4438e-07
-1.21121e-06
1.13181e-06
1.27847e-06
-4.46177e-09
-1.90325e-06
-2.82529e-07
-1.72449e-06
-4.93139e-07
-1.46819e-06
-6.46042e-07
-1.17543e-06
-7.55424e-07
-8.74626e-07
-8.33336e-07
-5.7203e-07
-8.84048e-07
-2.64549e-07
-9.10966e-07
5.57753e-08
-9.42345e-07
4.04123e-07
-1.00455e-06
8.06587e-07
-1.09719e-06
1.22445e-06
1.28148e-06
4.33371e-08
-1.61167e-06
-1.98164e-07
-1.48299e-06
-3.88584e-07
-1.27777e-06
-5.30784e-07
-1.03323e-06
-6.34185e-07
-7.71225e-07
-7.06658e-07
-4.99557e-07
-7.51509e-07
-2.19697e-07
-7.71056e-07
7.53221e-08
-7.88196e-07
4.21263e-07
-8.57687e-07
8.76079e-07
-9.6129e-07
1.32805e-06
1.30321e-06
-9.7292e-07
1.52384e-06
-5.99533e-07
2.00026e-06
-6.5099e-08
2.44107e-06
5.9339e-07
2.74451e-06
1.37153e-06
2.81803e-06
2.21183e-06
2.54006e-06
2.82735e-06
1.64853e-06
2.69141e-06
1.51145e-07
2.2393e-06
-1.14017e-06
1.58442e-06
-2.12083e-06
8.94101e-07
-2.66786e-06
-2.80825e-06
-7.83978e-07
1.15558e-06
-4.19003e-07
1.63528e-06
2.2059e-08
2.00001e-06
5.3441e-07
2.23216e-06
1.11459e-06
2.23785e-06
1.70786e-06
1.94678e-06
2.10578e-06
1.25061e-06
2.06748e-06
1.89446e-07
1.77907e-06
-8.51755e-07
1.32589e-06
-1.66766e-06
8.14836e-07
-2.15681e-06
-2.32325e-06
-6.50189e-07
7.05956e-07
-2.85415e-07
1.27051e-06
8.52144e-08
1.62938e-06
5.01843e-07
1.81553e-06
9.41892e-07
1.7978e-06
1.3572e-06
1.53148e-06
1.6349e-06
9.72903e-07
1.65914e-06
1.65215e-07
1.4734e-06
-6.66022e-07
1.13627e-06
-1.33052e-06
7.33903e-07
-1.75444e-06
-1.92888e-06
-5.12285e-07
2.35382e-07
-1.7218e-07
9.30403e-07
1.34057e-07
1.32314e-06
4.71506e-07
1.47808e-06
8.16633e-07
1.45267e-06
1.12912e-06
1.219e-06
1.33859e-06
7.63431e-07
1.37096e-06
1.32841e-07
1.23197e-06
-5.27032e-07
9.72724e-07
-1.07127e-06
6.55475e-07
-1.43719e-06
-1.60791e-06
7.56632e-08
-1.36272e-06
-3.21969e-07
-1.35446e-07
-1.27031e-06
-3.05978e-07
-1.1062e-06
-4.36901e-07
-9.01487e-07
-5.33088e-07
-6.74682e-07
-5.99028e-07
-4.33565e-07
-6.37072e-07
-1.81847e-07
-6.47556e-07
8.53514e-08
-6.23067e-07
3.9598e-07
-5.55048e-07
8.06745e-07
-4.37746e-07
1.20909e-06
8.64068e-07
9.59838e-08
-1.15231e-06
-3.06398e-07
-8.82898e-08
-1.08604e-06
-2.41686e-07
-9.52804e-07
-3.61768e-07
-7.81405e-07
-4.50532e-07
-5.85918e-07
-5.09869e-07
-3.74229e-07
-5.40965e-07
-1.5075e-07
-5.42898e-07
8.72839e-08
-5.00088e-07
3.5317e-07
-3.66452e-07
6.73109e-07
-1.41903e-07
9.84544e-07
7.22165e-07
1.08525e-07
-9.70995e-07
-2.8984e-07
-5.40299e-08
-9.23485e-07
-1.92139e-07
-8.14695e-07
-3.01203e-07
-6.72342e-07
-3.82527e-07
-5.04594e-07
-4.36011e-07
-3.20744e-07
-4.61888e-07
-1.24873e-07
-4.57304e-07
8.26995e-08
-4.11898e-07
3.07764e-07
-2.92964e-07
5.54175e-07
-8.90419e-08
7.80622e-07
6.33123e-07
1.15859e-07
-8.13186e-07
-2.73668e-07
-2.84635e-08
-7.79163e-07
-1.5245e-07
-6.90709e-07
-2.52889e-07
-5.71902e-07
-3.27139e-07
-4.30344e-07
-3.75611e-07
-2.72272e-07
-3.97258e-07
-1.03226e-07
-3.89346e-07
7.47872e-08
-3.44706e-07
2.63124e-07
-2.46843e-07
4.56312e-07
-8.89127e-08
6.22692e-07
5.4421e-07
1.19688e-07
-6.74296e-07
-2.58579e-07
-9.3819e-09
-6.50093e-07
-1.21964e-07
-5.78127e-07
-2.13564e-07
-4.80303e-07
-2.82439e-07
-3.61469e-07
-3.26459e-07
-2.28251e-07
-3.45057e-07
-8.46283e-08
-3.35563e-07
6.52934e-08
-2.93312e-07
2.20873e-07
-2.1032e-07
3.7332e-07
-8.54709e-08
4.97843e-07
4.58739e-07
1.21162e-07
-5.50525e-07
-2.44933e-07
3.79265e-09
-5.32723e-07
-9.83106e-08
-4.76023e-07
-1.82612e-07
-3.96001e-07
-2.46042e-07
-2.98039e-07
-2.86864e-07
-1.87429e-07
-3.03103e-07
-6.83894e-08
-2.9323e-07
5.54199e-08
-2.54042e-07
1.81686e-07
-1.82251e-07
3.01529e-07
-7.99075e-08
3.95499e-07
3.78832e-07
1.21224e-07
-4.38877e-07
-2.32871e-07
1.42218e-08
-4.25721e-07
-7.99676e-08
-3.81834e-07
-1.58478e-07
-3.17491e-07
-2.17497e-07
-2.3902e-07
-2.55155e-07
-1.49771e-07
-2.69706e-07
-5.38381e-08
-2.60059e-07
4.57735e-08
-2.23968e-07
1.45595e-07
-1.60871e-07
2.38432e-07
-7.44158e-08
3.09044e-07
3.04416e-07
1.20357e-07
-3.36836e-07
-2.22398e-07
2.17074e-08
-3.27071e-07
-6.5944e-08
-2.94182e-07
-1.39345e-07
-2.4409e-07
-1.94925e-07
-1.83439e-07
-2.30084e-07
-1.14612e-07
-2.43574e-07
-4.03485e-08
-2.34287e-07
3.64864e-08
-2.01026e-07
1.12334e-07
-1.44638e-07
1.82043e-07
-6.94853e-08
2.33892e-07
2.34931e-07
1.18949e-07
-2.42295e-07
-2.1349e-07
2.683e-08
-2.34952e-07
-5.62631e-08
-2.11089e-07
-1.24813e-07
-1.75541e-07
-1.77498e-07
-1.30753e-07
-2.10778e-07
-8.13329e-08
-2.23488e-07
-2.76378e-08
-2.14588e-07
2.75858e-08
-1.83731e-07
8.14777e-08
-1.32418e-07
1.3073e-07
-6.52767e-08
1.66751e-07
1.69654e-07
1.17263e-07
-1.53509e-07
-2.06049e-07
3.01609e-08
-1.4785e-07
-4.81274e-08
-1.32801e-07
-1.14575e-07
-1.09093e-07
-1.64353e-07
-8.09758e-08
-1.96424e-07
-4.92619e-08
-2.08366e-07
-1.56956e-08
-1.99843e-07
1.90629e-08
-1.70936e-07
5.2571e-08
-1.23382e-07
8.31751e-08
-6.18439e-08
1.05213e-07
1.0781e-07
1.10846e-07
-6.94236e-08
-1.94932e-07
2.80954e-08
-6.50994e-08
-4.61068e-08
-5.85986e-08
-1.09134e-07
-4.60659e-08
-1.56332e-07
-3.37775e-08
-1.86066e-07
-1.95279e-08
-1.96975e-07
-4.78651e-09
-1.88384e-07
1.04723e-08
-1.60919e-07
2.51056e-08
-1.16197e-07
3.84533e-08
-5.88e-08
4.78157e-08
4.90099e-08
5.69989e-08
-1.26422e-07
-8.10047e-09
-6.6699e-08
-1.12765e-07
-1.46542e-07
-1.6607e-07
-1.70857e-07
-1.60384e-07
-1.35279e-07
-9.68256e-08
-4.90099e-08
-1.35535e-07
3.73438e-07
-3.80074e-08
8.34094e-07
1.84173e-07
1.1017e-06
4.45941e-07
1.21679e-06
7.17021e-07
1.18186e-06
9.57743e-07
9.78392e-07
1.11605e-06
6.05081e-07
1.14388e-06
1.04763e-07
1.04006e-06
-4.23783e-07
8.39937e-07
-8.71992e-07
5.8681e-07
-1.18529e-06
-1.34502e-06
3.22204e-07
-6.50445e-08
4.38483e-07
2.97585e-08
7.39291e-07
2.09847e-07
9.21608e-07
4.20728e-07
1.0059e-06
6.36375e-07
9.66209e-07
8.24319e-07
7.90448e-07
9.45697e-07
4.83702e-07
9.68924e-07
8.15365e-08
8.90179e-07
-3.45038e-07
7.32119e-07
-7.13932e-07
5.26857e-07
-9.80033e-07
-1.12469e-06
3.06535e-07
-1.08413e-08
4.49324e-07
7.67831e-08
6.51666e-07
2.22563e-07
7.75828e-07
3.94999e-07
8.33468e-07
5.69823e-07
7.91386e-07
7.19661e-07
6.4061e-07
8.15062e-07
3.88302e-07
8.3398e-07
6.26178e-08
7.71975e-07
-2.83033e-07
6.44585e-07
-5.86542e-07
4.75566e-07
-8.11013e-07
-9.39057e-07
2.89929e-07
2.05922e-08
4.28732e-07
1.04059e-07
5.68199e-07
2.27422e-07
6.52466e-07
3.7142e-07
6.8947e-07
5.15501e-07
6.47304e-07
6.36826e-07
5.19285e-07
7.13383e-07
3.11745e-07
7.28536e-07
4.74648e-08
6.78338e-07
-2.32834e-07
5.73587e-07
-4.81792e-07
4.32145e-07
-6.6957e-07
-7.80637e-07
2.73724e-07
3.82376e-08
3.90494e-07
1.18935e-07
4.87502e-07
2.26927e-07
5.44473e-07
3.49886e-07
5.66511e-07
4.70631e-07
5.26559e-07
5.70926e-07
4.1899e-07
6.3357e-07
2.49101e-07
6.4568e-07
3.53546e-08
6.03956e-07
-1.91111e-07
5.16045e-07
-3.9388e-07
3.95676e-07
-5.49202e-07
-6.43578e-07
2.58618e-07
4.85028e-08
3.41991e-07
1.26673e-07
4.09332e-07
2.23311e-07
4.47836e-07
3.30172e-07
4.5965e-07
4.33701e-07
4.2303e-07
5.18252e-07
3.3444e-07
5.70563e-07
1.96789e-07
5.80325e-07
2.55923e-08
5.44736e-07
-1.55521e-07
4.69477e-07
-3.18621e-07
3.65263e-07
-4.44988e-07
-5.23273e-07
2.44958e-07
5.44425e-08
2.87549e-07
1.29764e-07
3.3401e-07
2.18224e-07
3.59376e-07
3.12897e-07
3.64977e-07
4.03117e-07
3.3281e-07
4.76091e-07
2.61465e-07
5.20707e-07
1.52174e-07
5.28725e-07
1.75741e-08
4.97596e-07
-1.24392e-07
4.31911e-07
-2.52936e-07
3.40088e-07
-3.53165e-07
-4.16072e-07
2.32887e-07
5.76487e-08
2.299e-07
1.30405e-07
2.61254e-07
2.12034e-07
2.77747e-07
2.97842e-07
2.79169e-07
3.78e-07
2.52652e-07
4.42372e-07
1.97093e-07
4.81295e-07
1.13251e-07
4.87975e-07
1.08939e-08
4.60295e-07
-9.67117e-08
4.01781e-07
-1.94422e-07
3.19426e-07
-2.70809e-07
-3.19055e-07
2.22408e-07
5.9069e-08
1.70831e-07
1.29212e-07
1.91111e-07
2.05858e-07
2.01101e-07
2.84765e-07
2.00262e-07
3.5752e-07
1.79898e-07
4.15537e-07
1.39076e-07
4.50318e-07
7.84699e-08
4.56046e-07
5.16575e-09
4.30965e-07
-7.16312e-08
3.77846e-07
-1.41303e-07
3.02679e-07
-1.95642e-07
-2.29873e-07
2.13497e-07
5.92717e-08
1.11559e-07
1.27138e-07
1.23244e-07
1.99852e-07
1.28387e-07
2.73543e-07
1.26571e-07
3.40906e-07
1.12534e-07
3.94295e-07
8.56873e-08
4.26117e-07
4.66481e-08
4.31182e-07
1.00496e-10
4.08069e-07
-4.85179e-08
3.58992e-07
-9.22268e-08
2.89268e-07
-1.25918e-07
-1.46659e-07
2.06055e-07
5.85156e-08
5.30438e-08
1.24127e-07
5.76329e-08
1.93405e-07
5.91096e-08
2.6286e-07
5.71148e-08
3.25832e-07
4.95629e-08
3.75266e-07
3.62533e-08
4.04344e-07
1.75703e-08
4.08298e-07
-3.85375e-09
3.86097e-07
-2.63174e-08
3.39604e-07
-4.57335e-08
2.73663e-07
-5.9977e-08
-6.79371e-08
1.94941e-07
5.30438e-08
1.10677e-07
1.69786e-07
2.26901e-07
2.76464e-07
3.12717e-07
3.30288e-07
3.26434e-07
3.00116e-07
2.54383e-07
1.94406e-07
1.26469e-07
7.5225e-08
-1.36469e-06
-1.36128e-07
-1.27164e-06
-3.06712e-07
-1.10719e-06
-4.3767e-07
-9.02267e-07
-5.33839e-07
-6.75056e-07
-5.99801e-07
-4.33596e-07
-6.3783e-07
-1.81668e-07
-6.48302e-07
8.57944e-08
-6.2378e-07
3.96741e-07
-5.55745e-07
8.08044e-07
-4.3838e-07
1.21068e-06
8.64826e-07
9.56816e-08
-1.15384e-06
-8.87975e-08
-1.08716e-06
-2.42135e-07
-9.53853e-07
-3.6243e-07
-7.81972e-07
-4.51226e-07
-5.86261e-07
-5.10571e-07
-3.74251e-07
-5.41641e-07
-1.50598e-07
-5.43537e-07
8.76901e-08
-5.00655e-07
3.53858e-07
-3.6681e-07
6.74199e-07
-1.42026e-07
9.85899e-07
7.228e-07
1.08309e-07
-9.7222e-07
-5.4342e-08
-9.24509e-07
-1.92686e-07
-8.15508e-07
-3.018e-07
-6.72858e-07
-3.8317e-07
-5.04891e-07
-4.36644e-07
-3.20777e-07
-4.62494e-07
-1.24748e-07
-4.57872e-07
8.30676e-08
-4.12374e-07
3.08361e-07
-2.93241e-07
5.55066e-07
-8.90537e-08
7.81712e-07
6.33747e-07
1.15688e-07
-8.14183e-07
-2.87832e-08
-7.80037e-07
-1.52905e-07
-6.91386e-07
-2.53413e-07
-5.7235e-07
-3.27786e-07
-4.30518e-07
-3.76179e-07
-2.72383e-07
-3.97803e-07
-1.03124e-07
-3.89846e-07
7.51101e-08
-3.4512e-07
2.63636e-07
-2.471e-07
4.57045e-07
-8.8955e-08
6.23568e-07
5.44792e-07
1.19547e-07
-6.75112e-07
-9.61404e-09
-6.50876e-07
-1.22366e-07
-5.78635e-07
-2.14047e-07
-4.80668e-07
-2.8293e-07
-3.61636e-07
-3.26976e-07
-2.28337e-07
-3.4555e-07
-8.45499e-08
-3.36003e-07
6.55635e-08
-2.9368e-07
2.21313e-07
-2.10556e-07
3.7392e-07
-8.55358e-08
4.98548e-07
4.59256e-07
1.21031e-07
-5.51185e-07
3.50459e-09
-5.3335e-07
-9.86658e-08
-4.76464e-07
-1.8306e-07
-3.96274e-07
-2.46499e-07
-2.98197e-07
-2.87321e-07
-1.87515e-07
-3.03552e-07
-6.83188e-08
-2.93627e-07
5.56377e-08
-2.54374e-07
1.8206e-07
-1.82464e-07
3.0201e-07
-7.99798e-08
3.96064e-07
3.79276e-07
1.21101e-07
-4.39399e-07
1.39646e-08
-4.26214e-07
-8.03036e-08
-3.82196e-07
-1.58827e-07
-3.17751e-07
-2.17902e-07
-2.39123e-07
-2.55526e-07
-1.4989e-07
-2.70106e-07
-5.37392e-08
-2.60422e-07
4.5954e-08
-2.24269e-07
1.45907e-07
-1.61068e-07
2.38809e-07
-7.44919e-08
3.09488e-07
3.04784e-07
1.20243e-07
-3.37234e-07
2.14741e-08
-3.27445e-07
-6.62523e-08
-2.9447e-07
-1.39672e-07
-2.44331e-07
-1.95322e-07
-1.83473e-07
-2.30499e-07
-1.14714e-07
-2.4398e-07
-4.0258e-08
-2.34626e-07
3.66002e-08
-2.01305e-07
1.12586e-07
-1.44821e-07
1.82325e-07
-6.9563e-08
2.3423e-07
2.35221e-07
1.18842e-07
-2.42579e-07
2.66131e-08
-2.35216e-07
-5.65532e-08
-2.11303e-07
-1.25171e-07
-1.75713e-07
-1.77841e-07
-1.30802e-07
-2.11141e-07
-8.14143e-08
-2.23843e-07
-2.75561e-08
-2.1491e-07
2.76676e-08
-1.83989e-07
8.16649e-08
-1.32595e-07
1.30932e-07
-6.53557e-08
1.6699e-07
1.69865e-07
1.17163e-07
-1.53687e-07
2.99547e-08
-1.48008e-07
-4.83979e-08
-1.32951e-07
-1.14887e-07
-1.09224e-07
-1.64719e-07
-8.09708e-08
-1.96807e-07
-4.93262e-08
-2.08693e-07
-1.56702e-08
-2.00153e-07
1.91275e-08
-1.71181e-07
5.26934e-08
-1.23551e-07
8.33012e-08
-6.19221e-08
1.05362e-07
1.07943e-07
1.10756e-07
-6.95018e-08
2.78977e-08
-6.515e-08
-4.63609e-08
-5.86921e-08
-1.09467e-07
-4.61173e-08
-1.56639e-07
-3.37992e-08
-1.86386e-07
-1.95788e-08
-1.9733e-07
-4.72631e-09
-1.88687e-07
1.04843e-08
-1.6115e-07
2.51568e-08
-1.16358e-07
3.85084e-08
-5.88756e-08
4.78797e-08
4.90676e-08
5.69671e-08
-8.1829e-09
-6.6875e-08
-1.12992e-07
-1.46792e-07
-1.6637e-07
-1.71097e-07
-1.60613e-07
-1.35456e-07
-9.69473e-08
-4.90676e-08
-1.36081e-07
3.71463e-07
-3.86327e-08
8.32955e-07
1.83541e-07
1.10097e-06
4.45298e-07
1.21633e-06
7.16384e-07
1.18159e-06
9.57095e-07
9.78284e-07
1.11538e-06
6.05142e-07
1.1432e-06
1.05023e-07
1.03941e-06
-4.23238e-07
8.3934e-07
-8.71203e-07
5.86336e-07
-1.18419e-06
-1.34354e-06
-6.54729e-08
4.36936e-07
2.91941e-08
7.38288e-07
2.09255e-07
9.20909e-07
4.20141e-07
1.00544e-06
6.35783e-07
9.65944e-07
8.23719e-07
7.90348e-07
9.45088e-07
4.83773e-07
9.68321e-07
8.17907e-08
8.89614e-07
-3.44531e-07
7.31627e-07
-7.13216e-07
5.26497e-07
-9.7906e-07
-1.12344e-06
-1.11387e-08
4.48074e-07
7.63556e-08
6.50794e-07
2.22069e-07
7.75196e-07
3.94465e-07
8.33044e-07
5.69279e-07
7.9113e-07
7.19107e-07
6.40521e-07
8.14507e-07
3.88373e-07
8.33442e-07
6.28563e-08
7.71482e-07
-2.82571e-07
6.44173e-07
-5.85907e-07
4.75281e-07
-8.10168e-07
-9.38e-07
2.0313e-08
4.27761e-07
1.03689e-07
5.67417e-07
2.26982e-07
6.51903e-07
3.70952e-07
6.89074e-07
5.15002e-07
6.4708e-07
6.36318e-07
5.19205e-07
7.1288e-07
3.11811e-07
7.28056e-07
4.76803e-08
6.77906e-07
-2.32422e-07
5.73239e-07
-4.81239e-07
4.31917e-07
-6.68847e-07
-7.7975e-07
3.80442e-08
3.89717e-07
1.18609e-07
4.86853e-07
2.26545e-07
5.43967e-07
3.49453e-07
5.66166e-07
4.70176e-07
5.26357e-07
5.70457e-07
4.18924e-07
6.33108e-07
2.4916e-07
6.45245e-07
3.55432e-08
6.03573e-07
-1.9075e-07
5.15743e-07
-3.93409e-07
3.95487e-07
-5.48591e-07
-6.42842e-07
4.83424e-08
3.41375e-07
1.26436e-07
4.08758e-07
2.22972e-07
4.47432e-07
3.2978e-07
4.59358e-07
4.33279e-07
4.22858e-07
5.17819e-07
3.34383e-07
5.70138e-07
1.96841e-07
5.79923e-07
2.57583e-08
5.444e-07
-1.55227e-07
4.69213e-07
-3.18222e-07
3.65105e-07
-4.44483e-07
-5.2267e-07
5.43187e-08
2.87056e-07
1.29523e-07
3.33555e-07
2.17911e-07
3.59044e-07
3.12533e-07
3.64736e-07
4.02723e-07
3.32668e-07
4.75689e-07
2.61418e-07
5.20312e-07
1.52218e-07
5.28356e-07
1.77142e-08
4.97288e-07
-1.24159e-07
4.31674e-07
-2.52608e-07
3.3995e-07
-3.52758e-07
-4.15592e-07
5.75341e-08
2.29522e-07
1.30185e-07
2.60904e-07
2.11747e-07
2.77482e-07
2.97506e-07
2.78978e-07
3.77631e-07
2.52543e-07
4.41995e-07
1.97054e-07
4.80927e-07
1.13286e-07
4.87637e-07
1.10039e-08
4.60009e-07
-9.65308e-08
4.01566e-07
-1.94165e-07
3.19304e-07
-2.70496e-07
-3.18686e-07
5.89648e-08
1.70557e-07
1.29015e-07
1.90854e-07
2.05591e-07
2.00905e-07
2.84449e-07
2.00119e-07
3.57172e-07
1.79821e-07
4.1518e-07
1.39045e-07
4.4997e-07
7.84952e-08
4.55728e-07
5.2461e-09
4.30699e-07
-7.15015e-08
3.77646e-07
-1.41112e-07
3.02568e-07
-1.95419e-07
-2.29608e-07
5.9174e-08
1.11383e-07
1.26949e-07
1.23079e-07
1.99593e-07
1.28262e-07
2.7324e-07
1.26473e-07
3.40575e-07
1.12485e-07
3.93954e-07
8.56659e-08
4.25786e-07
4.66634e-08
4.3088e-07
1.52341e-10
4.07813e-07
-4.84346e-08
3.58808e-07
-9.2107e-08
2.89165e-07
-1.25776e-07
-1.46492e-07
5.84232e-08
5.29602e-08
1.23948e-07
5.75543e-08
1.93163e-07
5.90469e-08
2.62567e-07
5.70686e-08
3.25513e-07
4.95391e-08
3.74937e-07
3.62418e-08
4.04025e-07
1.75756e-08
4.08006e-07
-3.82904e-09
3.85852e-07
-2.62801e-08
3.39424e-07
-4.56795e-08
2.73562e-07
-5.9913e-08
-6.78623e-08
5.29602e-08
1.10515e-07
1.69561e-07
2.2663e-07
2.76169e-07
3.12411e-07
3.29986e-07
3.26157e-07
2.99877e-07
2.54198e-07
1.94285e-07
)
;

boundaryField
{
    rotor
    {
        type            calculated;
        value           nonuniform 0();
    }
    stator
    {
        type            calculated;
        value           nonuniform List<scalar> 
96
(
-1.41059e-37
0
-4.5139e-35
0
3.00927e-36
1.3531e-53
-4.17619e-53
-2.40741e-35
7.22224e-35
0
-1.44724e-34
2.40741e-35
-1.4021e-34
2.40741e-35
3.61112e-35
0
0
2.40741e-35
0
-3.00927e-36
6.01853e-36
0
-6.57579e-35
5.32734e-35
1.72974e-34
0
-7.53014e-35
3.00927e-36
0
-6.29777e-36
7.22224e-35
-2.79235e-37
5.99061e-35
0
9.62965e-35
7.19431e-35
2.40741e-35
1.44724e-34
0
1.71528e-34
-2.40741e-35
-9.78011e-35
5.73157e-35
2.63311e-35
0
-7.29747e-35
0
-1.41059e-37
0
-6.01853e-36
-1.20371e-35
0
6.01853e-36
-9.0278e-36
0
3.00927e-35
0
0
0
0
-1.20371e-35
6.01853e-36
1.20371e-35
0
-6.01853e-36
0
0
-3.00927e-35
-1.80556e-35
0
0
0
0
-9.0278e-36
3.00927e-36
-9.0278e-36
0
0
6.01853e-36
0
0
0
0
1.20371e-35
0
6.01853e-36
1.20371e-35
0
-6.01853e-36
9.0278e-36
0
-3.00927e-35
0
0
0
0
)
;
    }
    AMI1
    {
        type            cyclicAMI;
        value           nonuniform 0();
    }
    AMI2
    {
        type            cyclicAMI;
        value           nonuniform List<scalar> 
48
(
3.15048e-06
2.69274e-06
2.15122e-06
1.64338e-06
1.20246e-06
8.10541e-07
4.37027e-07
8.67634e-09
-3.01988e-07
-6.4475e-07
-1.03622e-06
-1.42117e-06
-1.81914e-06
-2.37415e-06
-2.97584e-06
-3.40315e-06
-3.5962e-06
-3.38053e-06
-2.26453e-06
-1.56133e-08
1.59238e-06
2.77634e-06
3.35915e-06
3.41593e-06
3.1505e-06
2.69354e-06
2.15218e-06
1.64417e-06
1.20277e-06
8.1043e-07
4.36597e-07
8.01451e-09
-3.02517e-07
-6.45365e-07
-1.03686e-06
-1.42162e-06
-1.8186e-06
-2.37364e-06
-2.97551e-06
-3.403e-06
-3.59617e-06
-3.38036e-06
-2.26404e-06
-1.52079e-08
1.59228e-06
2.7757e-06
3.35819e-06
3.41528e-06
)
;
    }
    front
    {
        type            empty;
        value           nonuniform 0();
    }
    back
    {
        type            empty;
        value           nonuniform 0();
    }
    procBoundary0to1
    {
        type            processor;
        value           nonuniform List<scalar> 8(-1.2674e-06 -1.15249e-06 -1.10019e-06 -9.83016e-07 1.26768e-06 1.15224e-06 1.09981e-06 9.82859e-07);
    }
}


// ************************************************************************* //
