/*--------------------------------*- C++ -*----------------------------------*\
| =========                 |                                                 |
| \\      /  F ield         | OpenFOAM: The Open Source CFD Toolbox           |
|  \\    /   O peration     | Version:  2.3.1                                 |
|   \\  /    A nd           | Web:      www.OpenFOAM.org                      |
|    \\/     M anipulation  |                                                 |
\*---------------------------------------------------------------------------*/
FoamFile
{
    version     2.0;
    format      ascii;
    class       volScalarField;
    location    "3060";
    object      sigmaEq;
}
// * * * * * * * * * * * * * * * * * * * * * * * * * * * * * * * * * * * * * //

dimensions      [1 -1 -2 0 0 0 0];

internalField   nonuniform List<scalar> 
11800
(
173743
125621
563659
479454
121490
337990
162990
176564
188603
201337
172411
684127
89037.2
507552
434665
1.88954e+06
127956
127653
230134
139612
382492
618442
826379
740128
1.54759e+06
972721
1.00616e+06
499824
1.09754e+06
1.19007e+06
333389
120650
973084
132559
138189
321264
139910
1.0369e+06
138770
148610
1.04288e+06
1.13764e+06
525207
1.23429e+06
351619
1.76917e+06
790336
920247
163585
238679
717378
506955
136582
220662
2.01608e+06
1.66454e+06
67089.4
470445
366433
352520
1.66009e+06
149503
373861
308111
1.51755e+06
229444
737601
524638
67054.2
899336
140115
117039
113098
1.59568e+06
1.64386e+06
312479
1.58449e+06
217305
176059
180474
2.04995e+06
124808
121759
124192
124773
1.14699e+06
357480
1.05569e+06
967146
520377
135109
1.15841e+06
152244
64066.1
184297
151852
19678.7
151776
137643
602141
78754.3
663361
1.09975e+06
382978
145997
325313
179767
157109
1.61908e+06
1.06303e+06
1.15514e+06
973833
362443
528131
218354
1.46214e+06
214160
143578
1.37319e+06
207955
200228
164518
181668
139984
149452
135328
137548
137047
99342.9
29300.4
1.86682e+06
1.23931e+06
387409
1.14977e+06
553942
1.05594e+06
966268
339592
984195
480660
903938
827453
497907
192756
239340
323572
1.18142e+06
1.21119e+06
691036
367556
203760
196206
137251
255630
233639
183420
460196
632249
1.26443e+06
142832
1.86017e+06
226611
1.61322e+06
465071
505767
548060
277351
211215
2.00606e+06
1.24349e+06
438995
603311
154601
362282
361002
1.76855e+06
1.78784e+06
940553
862070
1.02241e+06
461119
317485
247098
201437
436574
211996
329685
151559
169911
161086
236932
220805
209827
198307
893582
1.1369e+06
1.65079e+06
124985
217127
1.94225e+06
136908
278766
312449
141460
146019
823343
689559
633000
524165
1.8643e+06
571131
841977
2.53946e+06
2.11111e+06
2.15384e+06
335998
130408
809002
740836
679990
256680
366382
129529
128562
227474
137147
1.22964e+06
251545
138824
454715
208548
173018
138130
636174
649515
2.53508e+06
1.2276e+06
218019
228200
1.1154e+06
913102
317804
460614
1.0229e+06
944228
865265
145286
1.11127e+06
388146
532497
499109
152319
126957
400287
352730
146827
2.15053e+06
276842
318264
230414
264736
679354
740640
803049
365327
258648
139515
1.63301e+06
158483
85739.6
136676
401418
148748
524563
1.90928e+06
377191
373856
564291
409096
470867
343035
1.16738e+06
976632
312457
389231
249969
299168
539039
707604
263558
1.14728e+06
1.23082e+06
1.48184e+06
168161
373231
371004
1.70956e+06
1.72566e+06
1.02338e+06
1.00711e+06
1.04476e+06
1.03427e+06
134217
91749.6
282994
2.22166e+06
122436
128652
292639
242179
258026
894752
915529
1.53317e+06
2.15601e+06
671509
181732
854763
706111
494369
403745
163281
170216
254262
448694
236591
415025
125907
166642
161358
144412
1.22302e+06
162069
128024
1.7885e+06
300465
684497
754263
734730
927824
893314
104805
103767
620274
810264
561010
1.45334e+06
119806
799678
622870
407421
308488
304244
233894
310693
268966
355688
390575
421882
152596
137599
744885
790499
176690
216846
447590
377193
424619
194189
182467
227813
231743
870011
417148
309501
352413
1.03917e+06
1.20802e+06
338620
193093
182921
243719
227011
423519
492102
400857
470661
369028
433431
327240
309970
635575
320495
701903
1.20955e+06
605081
444103
1.97407e+06
134175
1.2704e+06
621988
452665
1.89763e+06
141887
1.30117e+06
322369
1.09999e+06
1.01508e+06
986284
184982
83816.6
123591
2.28032e+06
1.97167e+06
868560
310551
418386
174260
225592
257468
143419
203769
1.50807e+06
60854.4
534613
408805
1.66595e+06
106982
171938
147325
148383
146308
147959
1.66786e+06
555728
224442
637769
586527
539116
115093
1.24008e+06
403859
563247
162689
822206
179866
1.59473e+06
133678
190586
462057
425707
391778
833679
221988
463661
412339
217951
641702
699370
759851
365476
264265
64171.5
165019
182564
2.07114e+06
700706
552458
401095
330102
177712
148672
109788
110503
187919
99004.4
114004
123457
158598
317186
144271
188217
558737
670570
316795
1.48144e+06
194996
351416
148603
172836
1.43317e+06
1.86636e+06
578492
630103
233501
208136
119280
1.2553e+06
1.81128e+06
1.60289e+06
2.32242e+06
745604
520932
685163
119644
178216
164291
182315
678707
142366
140416
121493
172892
1.25347e+06
278140
1.25943e+06
760376
163764
209232
1.04454e+06
1.30564e+06
674531
735582
795835
361612
257187
614282
139861
140831
137558
157029
125784
183292
96131
176393
95263.9
173421
84928.9
169145
155135
161760
112203
1.43551e+06
224603
236105
526739
839949
117231
148084
128341
125177
111660
275669
396581
128300
127300
547919
118314
176460
1.55872e+06
79010.7
158939
484977
446022
467812
507489
520926
550293
256563
194323
1.7967e+06
2.23044e+06
457880
85500.4
326301
323193
349189
249401
745627
688268
631381
165575
82696.4
718762
674181
300719
333206
170071
574359
625033
220058
1.01111e+06
1.02354e+06
1.03557e+06
1.02683e+06
1.75666e+06
1.71886e+06
537420
2.1117e+06
754990
135021
1.47712e+06
1.28115e+06
1.3969e+06
710575
288771
312963
178660
1.49782e+06
490602
620312
2.23436e+06
201003
244926
490146
471567
1.24146e+06
640412
1.85587e+06
133904
130869
255218
362267
805314
738911
677925
1.71e+06
146680
369594
795212
1.21794e+06
131206
2.00456e+06
1.87541e+06
1.93693e+06
224868
304922
117462
1.98047e+06
562504
229826
388088
1.85076e+06
142744
232674
247602
138865
457906
278244
2.27849e+06
1.98276e+06
195261
561503
717785
274493
322912
242765
215246
610804
188351
552821
409644
1.05291e+06
924432
163992
1.21246e+06
138689
378625
464552
1.62871e+06
306925
416531
233747
194524
177948
207630
394492
920399
1.01444e+06
137460
133163
133726
177856
330018
1.22957e+06
112962
419976
756861
588727
213989
1.00381e+06
1.11304e+06
719910
1.21399e+06
1.3186e+06
543427
357687
155390
182404
341195
364148
316558
348795
185217
321458
376227
222594
138327
2.30592e+06
983767
368917
496730
460448
224228
396595
577351
1.2496e+06
1.14907e+06
1.05173e+06
324457
382843
195041
206035
1.43546e+06
1.0658e+06
1.2219e+06
148634
193815
270570
631506
1.41057e+06
448454
90438.5
150291
2.10401e+06
1.97827e+06
235846
1.81198e+06
111627
156831
119604
683587
125278
217185
242381
1.26149e+06
1.37586e+06
1.49352e+06
1.61578e+06
723931
616816
513119
405751
186077
132551
398194
1.97988e+06
141437
138552
149588
143486
148866
154963
161127
1.53387e+06
775756
786299
461598
858521
935062
327661
1.09789e+06
263152
220238
147297
2.07987e+06
138484
164144
157639
163882
138079
1.89305e+06
264677
263009
1.02616e+06
330826
698397
251355
1.92817e+06
837983
416063
312496
1.29995e+06
461673
181719
153414
136868
133275
227063
251569
239702
172741
472150
155547
135310
811818
907687
119226
576430
827442
702598
951562
1.79002e+06
1.65179e+06
1.51566e+06
1.38135e+06
576029
701586
1.79424e+06
1.65554e+06
826398
1.51947e+06
951250
1.38461e+06
1.60812e+06
153810
133370
145717
234970
509878
1.12655e+06
139949
423656
576892
458886
628372
188980
241644
418119
609285
1.31102e+06
1.20543e+06
1.10304e+06
523150
389281
983467
202169
254581
164320
328855
304948
276954
561711
439976
451971
336457
132197
687422
190200
343844
424027
1.05465e+06
568546
664615
543836
198852
256484
182196
160876
153666
175504
591359
500986
141063
208086
225480
459913
1.3817e+06
449840
628980
484906
157068
216564
203545
187398
254167
185575
611811
562316
512934
203058
1.51101e+06
691826
215742
925899
622177
1.32775e+06
1.82148e+06
224798
250875
211001
147042
154390
733979
625180
1.89543e+06
129985
181199
345670
508115
223045
140710
740888
732829
61779.4
136558
358659
291358
92402.3
1.65371e+06
1.82006e+06
296090
122296
269960
376964
803861
677137
738733
2.07941e+06
135591
581315
654243
163442
598835
731241
862181
991031
1.87465e+06
1.73035e+06
1.58801e+06
1.44802e+06
598334
730047
1.87759e+06
1.73269e+06
859903
1.59066e+06
990008
1.45001e+06
1.76443e+06
1.52096e+06
1.1475e+06
477936
545485
1.51986e+06
1.13569e+06
332261
121343
116326
1.13395e+06
2.00248e+06
152365
410986
1.65945e+06
1.13198e+06
1.82211e+06
1.85804e+06
1.17159e+06
1.17541e+06
538797
428691
559070
246992
179487
299304
156622
187626
225908
193307
408719
1.9395e+06
558533
193976
118433
360064
386630
1.76006e+06
365792
330565
416426
442401
1.1385e+06
532883
386396
1.47645e+06
413670
536448
196821
165245
375310
323386
349697
871498
558861
541915
1.31814e+06
1.26108e+06
535738
564759
996126
1.07035e+06
400595
418978
137068
181693
190178
545332
424245
75174.2
163016
186255
640205
610534
328196
635716
492429
197230
122855
123452
513386
1.22741e+06
124418
1.81954e+06
262124
725545
665617
208705
260262
434176
148340
128966
1.54164e+06
385985
995913
917536
841372
309715
447779
163667
1.40777e+06
1.83728e+06
173018
145438
1.00901e+06
367008
499062
862469
940583
1.03263e+06
313952
452040
62204.6
743413
381810
1.82949e+06
316492
1.05551e+06
865477
970456
141089
142905
144522
155462
154505
136858
1.52284e+06
467562
177806
207844
228476
257254
317319
352295
723359
701095
666814
644025
591930
611877
1.07669e+06
164978
138853
135921
180169
207329
148304
165495
1.27748e+06
261081
474794
399324
1.03093e+06
538817
191549
200281
444240
344984
611239
500589
1.23705e+06
1.08181e+06
995726
911763
507360
1.42732e+06
698899
1.43426e+06
252658
211695
272477
266574
186976
172537
184561
1.45073e+06
1.90143e+06
334281
115852
248893
559430
433360
124614
151784
249804
235677
240784
225000
294345
277320
210765
474179
526433
512735
569435
433987
482724
541370
132130
1.16517e+06
921830
490211
1.18566e+06
1.11446e+06
650271
1.90003e+06
356308
338507
384166
412735
190237
159247
172427
361675
144751
1.57815e+06
210085
142069
776622
59510.5
118267
1.58058e+06
181769
402473
1.28391e+06
587755
1.1813e+06
1.08147e+06
1.42547e+06
947892
154870
592056
473862
204186
1.33514e+06
605762
209538
1.10542e+06
1.0063e+06
1.20484e+06
137267
139712
156327
2.2962e+06
273962
422736
515646
237208
140552
138478
408626
442305
176811
1.58274e+06
411510
1.5806e+06
242087
788493
138347
621733
744435
993708
397321
532981
638994
262267
2.2355e+06
164572
117913
141618
1.91355e+06
1.26111e+06
313404
458715
1.04376e+06
965015
884739
1.96982e+06
593459
481459
1.98182e+06
2.23584e+06
1.53571e+06
87016.6
528894
1.29768e+06
970692
526282
393276
968061
863458
400215
1.32673e+06
320396
267829
495468
435431
334053
1.55394e+06
2.35316e+06
125437
138368
163794
2.25487e+06
158008
182437
685967
525348
2.0002e+06
2.0949e+06
137566
592618
209542
198519
490374
212547
129012
529931
128804
146200
2.36411e+06
1.02011e+06
564392
423104
380898
274835
773319
712728
652672
209302
2.11895e+06
417327
376152
421500
1.7761e+06
719076
1.05159e+06
147328
230106
173466
794981
478430
637220
126137
274499
372956
793680
280390
183671
158274
310124
1.97603e+06
283463
381036
786254
1.27827e+06
1.80578e+06
1.20845e+06
829502
645044
763230
82094.6
228916
314369
670346
617320
566990
1.80419e+06
144495
184608
198047
197687
198121
193978
281420
138169
138756
644810
1.62583e+06
454629
1.00932e+06
929024
851877
314427
1.83845e+06
580506
660453
789525
680465
1.12157e+06
1.79704e+06
543670
147195
706997
118840
834988
500726
911985
993511
357571
1.15973e+06
286919
2.44692e+06
835907
140326
1.67285e+06
2.45287e+06
2.11192e+06
496380
136293
939746
164920
153449
118007
268707
148899
151641
132262
136665
1.51637e+06
1.59167e+06
138837
1.05552e+06
173043
163869
137501
222338
1.07576e+06
1.08223e+06
249405
1.09505e+06
1.09857e+06
1.43377e+06
472760
179114
220850
299584
600072
652506
224283
59569.7
158040
724488
337979
821063
924148
1.01131e+06
1.10137e+06
564617
399771
299512
168536
146856
1.83269e+06
1.00741e+06
130255
210837
892726
695844
376800
408755
192094
169126
312969
276514
116207
211133
148462
1.53526e+06
588215
1.43437e+06
139600
132946
2.45433e+06
135118
1.90215e+06
1.874e+06
138705
867125
433969
1.5074e+06
152154
815355
943897
2.05743e+06
228703
147910
127256
466051
220889
298062
599246
548141
502925
151055
127591
171703
163119
1.05185e+06
1.15941e+06
792335
1.3578e+06
1.24529e+06
1.44557e+06
2.0781e+06
259504
662851
1.97925e+06
591794
1.86957e+06
875318
954651
1.03805e+06
458709
313608
389462
459885
1.73305e+06
161512
185766
270171
255787
238090
178628
354821
326872
306136
759197
770781
2.30478e+06
251661
123558
172142
1.82932e+06
525209
281333
271197
1.78656e+06
910053
628421
107734
194417
127168
896169
1.14389e+06
293273
1.30383e+06
180667
175594
2.37929e+06
1.56234e+06
1.91256e+06
367037
484267
853107
273771
667698
1.97622e+06
2.1037e+06
178233
204905
342267
281243
972882
1.08624e+06
741519
835368
2.19229e+06
2.03378e+06
260863
176873
107357
1.44476e+06
123173
1.90493e+06
385556
286615
1.02204e+06
324778
138795
1.77693e+06
205137
261698
108285
128055
1.32626e+06
449335
142924
715790
338858
190255
144710
130526
653008
131059
1.808e+06
1.63851e+06
296627
797071
453378
140779
156071
1.40524e+06
172435
941883
242398
517222
1.07226e+06
1.22599e+06
1.72522e+06
187760
299444
1.89191e+06
237942
153303
140891
166320
131911
1.94504e+06
1.50667e+06
343928
470289
821781
815469
1.07757e+06
377394
515994
374695
541526
1.15816e+06
1.06568e+06
975488
1.54082e+06
717462
513642
1.50431e+06
517324
1.63627e+06
607667
665376
1.79934e+06
2.4518e+06
2.09201e+06
404757
405672
1.1153e+06
526103
383754
134918
340470
1.73707e+06
149711
172733
2.20329e+06
1.64458e+06
1.90658e+06
863655
1.07121e+06
1.08113e+06
932734
125585
117617
177499
120465
671641
731545
796514
369338
261402
577358
1.93238e+06
149238
199911
168077
155626
976505
882861
186420
1.71685e+06
1.94832e+06
1.12926e+06
920781
1.56406e+06
1.80162e+06
122605
864665
550728
1.19107e+06
161131
253104
270961
1.52726e+06
1.52139e+06
708964
351676
116568
138649
223480
468547
1.60368e+06
214474
1.22672e+06
149287
353663
243671
319953
550301
284021
439249
42656.9
12329.6
438468
2.29357e+06
198616
165734
168701
134080
125262
179727
186520
136630
139625
504160
134961
146835
179206
941102
1.16168e+06
834331
1.61066e+06
2.03976e+06
145555
198603
368959
164731
1.44411e+06
210744
2.13514e+06
228769
295557
571216
421057
227129
233265
541697
131394
153253
190505
124638
182538
121613
1.88122e+06
109398
154542
273931
124508
95315.6
1.81952e+06
201505
1.57193e+06
1.66557e+06
605590
396324
313898
453708
1.02281e+06
952063
872905
133483
1.13539e+06
595893
131029
1.94373e+06
138182
144021
356391
1.06524e+06
837741
930845
1.29249e+06
187943
145150
398283
588009
1.28953e+06
683221
1.39767e+06
493346
1.18604e+06
1.08598e+06
393307
1.38862e+06
486831
1.27617e+06
577577
1.17447e+06
1.07527e+06
672876
1.41919e+06
180439
579195
450206
148730
186738
1.5799e+06
968896
1.31452e+06
1.22221e+06
1.06656e+06
1.32242e+06
973456
371957
408112
603150
1.46059e+06
147479
2.19269e+06
179282
146530
1.65693e+06
194813
305329
605274
603547
1.78731e+06
114416
1.12652e+06
1.03805e+06
950857
347248
507600
2.19007e+06
365614
281682
652555
173646
682653
314894
338738
125147
198039
207031
178753
517913
124827
638965
343469
261654
864426
1.15281e+06
1.15907e+06
864012
425198
2.06177e+06
137345
138214
1.84575e+06
1.67306e+06
1.01384e+06
2.44091e+06
1.0757e+06
926646
970733
2.17056e+06
1.06403e+06
849091
1.92651e+06
415569
434850
636041
1.69387e+06
112275
1.4522e+06
173782
254554
388887
651327
710552
772484
377791
271824
444745
76384.7
81662.9
147166
155042
211580
174891
141687
194486
1.07017e+06
1.97247e+06
235187
177843
1.81792e+06
1.3023e+06
512726
694088
146474
153922
1.57827e+06
1.04764e+06
227832
828883
776607
1.0458e+06
130910
146582
154690
133654
1.22706e+06
1.99549e+06
1.9553e+06
1.3245e+06
2.12068e+06
268100
123564
343181
1.04059e+06
953275
1.13096e+06
513223
349897
2.21716e+06
483319
607310
794439
260717
224029
928242
331085
170473
700388
267313
343893
2.06463e+06
352398
312183
1.09448e+06
1.00912e+06
925373
465715
1.40566e+06
1.32219e+06
1.73259e+06
540592
560253
707028
1.47251e+06
693386
498393
1.30849e+06
253106
2.45053e+06
166109
1.87131e+06
496885
568845
135596
604262
1.15554e+06
144256
168931
163992
2.1642e+06
627908
574265
679841
335409
243980
312431
608152
1.41694e+06
614257
1.19936e+06
1.42042e+06
1.30921e+06
411088
1.3251e+06
1.00493e+06
1.06474e+06
1.26059e+06
1.32643e+06
1.00582e+06
1.07432e+06
1.26946e+06
734061
621194
48175.9
299391
185298
421557
620198
517036
718681
1.456e+06
1.34514e+06
1.23693e+06
1.13231e+06
417055
1.16458e+06
571698
164046
114675
120505
205302
110349
495162
1.16978e+06
1.19749e+06
427900
1.99602e+06
169268
150593
1.55869e+06
1.93522e+06
100312
1.22625e+06
483584
653179
911799
519436
327303
150477
484149
701277
69031.5
140327
2.02178e+06
268325
203899
486847
447171
528032
342449
138420
143716
349724
1.222e+06
1.90011e+06
2.2001e+06
334868
371899
1.56855e+06
1.41401e+06
1.8452e+06
119887
1.03466e+06
1.79576e+06
2.21262e+06
2.28365e+06
2.22497e+06
572927
998808
429550
2.08847e+06
1.56828e+06
640155
1.36109e+06
154266
139712
1.62022e+06
1.62203e+06
140818
439309
2.02698e+06
1.69571e+06
1.61022e+06
1.66635e+06
2.29283e+06
1.55406e+06
2.00223e+06
1.73749e+06
155790
275317
1.27445e+06
619300
1.04776e+06
221450
147442
186625
172342
160380
208272
186127
431786
2.00617e+06
1.21894e+06
425385
586427
1.30554e+06
174190
606360
425924
2.34708e+06
324644
313416
583939
330686
540749
238776
188925
1.91004e+06
15675.5
153174
152867
31514.1
465839
509393
183147
200709
214166
151184
546459
530041
134686
2.0317e+06
1.73681e+06
613828
1.30105e+06
442494
130946
1.51844e+06
335650
2.01978e+06
551240
673832
795700
916783
1.74909e+06
1.616e+06
1.48317e+06
1.35462e+06
550399
671830
1.75039e+06
1.61628e+06
792796
1.48391e+06
914330
1.35436e+06
305276
235733
572119
616214
542867
258716
214086
184073
149763
140709
157338
135315
141154
237544
939400
1.00909e+06
894305
501280
974504
1.07409e+06
1.67681e+06
705293
568036
1.80014e+06
601551
206807
127659
177405
148480
284654
260987
265207
145893
386636
303757
386922
790790
145078
210157
954713
155528
116589
143702
123090
1.41156e+06
171290
204751
660536
526957
263735
661095
218963
131388
119772
2.1392e+06
2.19537e+06
1.3131e+06
1.07413e+06
1.04685e+06
1.3347e+06
2.1459e+06
1.10681e+06
134445
714018
395322
303850
436843
210924
2.04837e+06
223171
1.19358e+06
1.10121e+06
1.00905e+06
530107
360721
627048
364966
279534
2.07002e+06
237338
134567
679208
678008
306420
194770
235539
394878
816167
1.54613e+06
640364
510150
967636
1.25546e+06
339933
493443
1.07728e+06
990886
907647
510986
550811
899043
733532
1.03236e+06
548387
1.13601e+06
1.23866e+06
359595
1.34508e+06
2.43013e+06
1.71714e+06
119845
812447
887704
966578
299330
206035
1.47239e+06
254649
334396
418184
457010
195338
248524
202974
161359
1.38926e+06
1.0648e+06
1.11776e+06
1.33927e+06
316586
1.7204e+06
2.13277e+06
786885
141480
797931
870826
948580
896746
1.04714e+06
291844
1.67143e+06
732320
672259
614950
729570
265249
366602
213993
199615
458350
541817
498259
571552
623889
678409
413588
410020
587946
590824
1.20114e+06
1.1949e+06
1.00915e+06
1.10328e+06
1.00356e+06
1.0974e+06
598551
651963
235385
150530
169757
199351
1.21386e+06
764500
141212
1.21574e+06
1.00793e+06
965152
1.25178e+06
203237
437607
1.57539e+06
661904
1.45079e+06
1.32968e+06
111895
261892
1.09144e+06
639849
454133
1.4456e+06
510510
73578.1
1.10074e+06
1.00882e+06
1.19697e+06
534697
362946
1.49293e+06
569193
460951
1.97707e+06
571161
806588
195238
147374
332598
310506
283847
1.68208e+06
414921
283158
474786
436111
512555
258146
198571
1.11595e+06
1.25522e+06
203124
713158
153421
965189
1.93183e+06
1.21576e+06
586009
440028
1.05256e+06
535344
477922
394490
260184
165309
401086
198726
484800
197456
336405
143963
159572
2.0255e+06
404228
1.7123e+06
974482
1.05064e+06
567081
425015
1.01536e+06
1.8446e+06
122598
149063
153004
143775
366090
35417.1
11719.4
365438
765541
143253
805756
357698
253365
169430
533919
744842
1.56729e+06
132356
106650
169686
195840
421191
271035
1.05446e+06
939670
231483
152416
124401
2.05141e+06
765841
133583
300463
148552
2.34692e+06
1.89875e+06
299731
223233
823637
398630
563830
1.11429e+06
935256
1.02308e+06
2.1967e+06
1.74659e+06
147976
1.64204e+06
2.22126e+06
1.72837e+06
1.91892e+06
833674
173466
1.12614e+06
273166
172258
210273
410001
443699
326795
324788
740711
242913
168128
128728
1.08135e+06
1.31031e+06
1.42891e+06
1.55097e+06
1.6633e+06
739071
631148
521408
411248
260326
125006
516521
23984.4
253588
253123
13028
554842
278096
219155
92927
347581
394819
140064
359649
1.08471e+06
829356
572361
405884
463627
2.02376e+06
1.5515e+06
205630
664647
139178
149015
563354
664118
693028
1.37946e+06
397479
434657
144809
1.82863e+06
153175
319169
372625
347310
1.31562e+06
1.43419e+06
742314
806632
805230
562331
723371
1.3637e+06
1.29806e+06
1.29407e+06
443906
613853
116321
128827
120605
276976
133112
602546
1.24887e+06
1.10911e+06
1.35929e+06
991545
1.36963e+06
990290
674908
455826
1.19827e+06
877195
1.20044e+06
880172
292058
1.33144e+06
1.11008e+06
972377
1.26668e+06
1.12145e+06
1.3831e+06
1.0052e+06
1.38362e+06
1.00438e+06
1.26311e+06
2.34988e+06
506137
709490
1.51099e+06
557778
141018
151666
235652
23312.2
235211
20618.5
139350
428952
1.32913e+06
1.21767e+06
1.44463e+06
639005
443367
2.07615e+06
73175
133721
266274
906630
294855
813599
399445
2.11453e+06
2.13325e+06
1.28289e+06
153499
283683
1.43466e+06
756386
606594
418003
752464
688848
816691
286723
399488
2.17599e+06
511091
1.93429e+06
141030
138792
135166
140236
96624.3
1.90972e+06
156726
1.39991e+06
94477.1
1.02239e+06
1.31114e+06
156549
142647
200621
585651
210583
491645
451527
332592
360283
390468
169234
357193
481659
595732
401428
1.35844e+06
1.25244e+06
1.14733e+06
1.42965e+06
1.91276e+06
2.11138e+06
128771
127120
129092
139126
277968
164318
299969
2.11755e+06
2.16281e+06
2.15434e+06
1.65895e+06
65492.7
1.14996e+06
1.97065e+06
1.33004e+06
1.04769e+06
1.07032e+06
1.31263e+06
650666
583193
1.16509e+06
761368
1.38472e+06
106276
250030
316892
610594
251606
247510
282835
192231
221603
162557
188970
426002
429512
466405
463676
503214
504345
591726
584992
144177
142598
552285
358753
113185
210140
830379
1.38749e+06
144688
826162
1.78694e+06
548862
1.69743e+06
772049
217993
1.59165e+06
833077
700486
1.10979e+06
1.9032e+06
2.28504e+06
898089
377455
1.92564e+06
274875
203059
174384
431344
97004.4
812078
1.41357e+06
363762
552804
224766
139511
239484
2.07072e+06
367459
427688
413156
306765
878298
275911
219319
876004
192997
1.87269e+06
151734
1.10722e+06
407733
442602
1.73539e+06
1.46495e+06
884052
1.5997e+06
1.73852e+06
757657
1.87903e+06
633189
505885
1.46407e+06
1.59812e+06
1.88038e+06
1.73719e+06
507586
760787
887449
635199
1.91436e+06
191412
1.50308e+06
165725
118797
146731
8628.72
65669.5
818992
89359
1.44556e+06
295860
222833
555082
600241
509829
435198
280564
1.2479e+06
279221
299621
1.1333e+06
101619
440483
407553
404278
1.27738e+06
1.1706e+06
1.38793e+06
606612
524683
221134
375849
731813
1.44322e+06
75370.8
364491
218486
142193
476778
1.53082e+06
857518
738248
1.61076e+06
187332
878426
1.87901e+06
947819
1.75013e+06
159232
1.96894e+06
236636
1.31794e+06
467781
577451
142061
15168.2
152159
151819
25943.3
251842
1.35322e+06
192019
1.64414e+06
750728
270447
1.26513e+06
1.21465e+06
1.3832e+06
1.32822e+06
1.50468e+06
1.44526e+06
697264
674204
476728
461908
528981
358296
1.2e+06
1.10745e+06
1.0145e+06
321272
376587
347450
175416
1.12261e+06
979162
96321.4
194859
146741
167058
176429
1.91635e+06
1.59754e+06
414688
1.36235e+06
1.24923e+06
1.47791e+06
127109
712798
1.29569e+06
1.34602e+06
142928
134054
1.55423e+06
498092
171736
281998
328877
305310
179617
530302
488994
451856
1.77623e+06
2.34544e+06
1.72086e+06
1.21646e+06
592482
428133
184727
201151
299314
216468
141975
127647
225465
647083
515654
138940
1.42313e+06
1.64454e+06
672786
592888
176230
170336
152127
160521
460401
1.5519e+06
1.1916e+06
916962
944954
1.1268e+06
135961
149560
223502
135912
137772
296418
2.42548e+06
1.92407e+06
149339
186649
807608
696997
485515
1.50919e+06
1.63111e+06
1.26943e+06
1.38711e+06
833375
428844
366762
398137
188448
233137
1.77392e+06
468835
1.12716e+06
86761
1.64661e+06
152170
639213
741088
2.42181e+06
136773
658261
162047
616271
171108
389713
1.19424e+06
542113
1.36427e+06
883798
1.49276e+06
1.62461e+06
764815
1.75941e+06
644021
524792
645750
525300
250889
764487
864185
1.12904e+06
141773
229198
1.40281e+06
610247
2.21861e+06
1.80717e+06
2.02531e+06
366901
1.57925e+06
745888
571939
279649
214322
2.15889e+06
1.12417e+06
134804
2.349e+06
1.97395e+06
68476.8
679114
556030
86849.2
917562
729833
113665
184855
1.52873e+06
2.25669e+06
141808
785190
805758
1.62572e+06
1.57457e+06
571028
585279
571862
586174
145606
146813
146112
137823
109421
2.33152e+06
1.80473e+06
1.63579e+06
2.06319e+06
775061
411574
1.67046e+06
930069
1.01719e+06
1.10766e+06
79520.1
1.72593e+06
299167
1.29076e+06
1.85203e+06
547601
382362
2.35012e+06
620557
651583
456927
482217
1.23622e+06
1.19505e+06
212417
210017
117462
139292
401719
1.46031e+06
1.34486e+06
1.23267e+06
608802
2.32735e+06
145029
278470
128151
1.21764e+06
1.33088e+06
775165
1.44713e+06
662862
1.57957e+06
561209
1.49229e+06
1.25527e+06
1.37171e+06
1.61368e+06
450921
797836
688240
563567
136876
188662
200335
256517
476865
402622
438106
1.911e+06
877687
1.07089e+06
1.77075e+06
209558
315753
138923
497156
691770
239724
332047
1.79721e+06
191958
134390
138079
140695
135168
89115.1
215716
164056
177429
1.53649e+06
1.81806e+06
162153
140379
177208
307070
665058
1.97107e+06
1.83506e+06
823258
144363
198365
1.56204e+06
145236
146766
2.39184e+06
919513
1.79959e+06
500961
1.21753e+06
763295
751403
210923
863894
1.28305e+06
615510
443286
178142
405289
141095
106268
127243
1.94158e+06
1.12736e+06
1.14884e+06
1.90273e+06
299410
321402
169089
604573
152321
139273
151183
378563
302804
30811.5
302277
21110.8
138816
1.19711e+06
357887
517157
1.09769e+06
1.00979e+06
924096
188464
2.19478e+06
728537
415275
1.87977e+06
1.11175e+06
1.15751e+06
194488
19092
194099
20097.3
1.667e+06
418619
689259
819026
754465
156320
1.80141e+06
415894
299688
954895
733184
133948
41121
1.31775e+06
272202
1.31966e+06
332750
440856
814915
904857
759107
167333
669329
275646
353130
172798
185685
637028
663798
220947
398815
142632
143819
1.06037e+06
529063
389037
153551
569918
14750.3
55185.6
568913
701446
567014
838519
995676
119406
2.19261e+06
2.2861e+06
285311
141578
156096
238333
263358
27213.3
262908
23466.7
1.14356e+06
389859
540331
2.13022e+06
2.16163e+06
1.82604e+06
1.66624e+06
978865
867262
829665
736679
1.80575e+06
259381
511935
186985
124220
138059
367193
513698
734661
2.07874e+06
2.10011e+06
263849
136739
684819
745656
252407
1.13516e+06
463794
381152
1.67618e+06
167937
155550
206513
1.10189e+06
1.10727e+06
1.17274e+06
743682
373441
521041
96141
96833.7
1.28723e+06
135777
1.13717e+06
146542
555721
902960
791386
1.3301e+06
1.55571e+06
144046
185347
421348
1.84569e+06
8978.05
111216
32985.9
111683
297895
275600
94969.4
2.01859e+06
36012.5
1.9136e+06
498252
48238.1
15561.4
497377
322935
161899
18627.4
161687
410859
1.79066e+06
412949
1.99043e+06
2.28173e+06
66395.2
647752
768954
708498
921197
440493
321266
993238
634072
110502
244760
384734
276843
684108
906350
254977
255992
2.1943e+06
780758
905744
845631
975750
1.39221e+06
131542
139299
1.16513e+06
1.4204e+06
481733
267177
307276
160777
321135
466373
148087
247890
356684
145321
101488
1.27227e+06
1.48886e+06
285781
630042
491911
503142
1.56603e+06
707945
307995
240183
604906
506180
127363
361090
1.4222e+06
1.81121e+06
479261
335036
843333
1.00168e+06
921564
90477.6
138615
348959
250026
1.34953e+06
489428
111464
53770.5
82047.2
467939
329428
815960
968907
891695
143637
1.96322e+06
2.23956e+06
157942
155722
147782
143721
1.95969e+06
386413
287877
829812
2.42272e+06
1.95064e+06
546655
194566
507208
467022
287033
267508
306120
172020
152819
152713
413614
1.91122e+06
116924
1.04232e+06
1.12902e+06
1.79619e+06
1.29374e+06
1.26253e+06
481351
474467
646551
656809
306127
338209
292803
137395
136434
761620
248078
1.77337e+06
1.2222e+06
308701
135101
762898
2.27128e+06
133195
1.19431e+06
993266
942608
1.23365e+06
854278
365743
507169
1.13274e+06
200540
826942
357379
398923
206555
428527
253997
329716
905963
447864
193868
168460
222021
1.15398e+06
947653
210165
200255
189701
216772
141004
610875
469499
127444
445268
144896
255723
412111
2.07649e+06
1.82847e+06
1.24636e+06
358538
256628
801907
741034
680097
324386
325650
155513
1.12532e+06
156712
624827
816021
241569
217063
1.85504e+06
107297
364447
339486
165820
1.95273e+06
104239
139838
542690
640417
196683
186117
207145
150416
144591
1.24343e+06
116757
153054
19016.1
152805
1.24132e+06
1.17598e+06
2.2249e+06
1.34271e+06
1.68377e+06
144863
1.7408e+06
1.18321e+06
17202.3
124852
291887
222813
496801
540244
584166
767095
427729
1.78951e+06
1.0421e+06
1.13318e+06
183317
124350
120827
139957
153555
159444
244286
1.03568e+06
125016
2.23355e+06
549504
220488
1.15194e+06
750611
382276
532000
247235
214125
304413
460300
296063
613083
559222
221324
145603
783426
1.10388e+06
99534.4
107203
194802
115237
119588
1.68555e+06
439271
324153
940927
1.62924e+06
445552
318442
789181
672691
729706
616633
356990
258392
147218
10118.8
80073
754974
621887
885734
1.85488e+06
1.56869e+06
1.71017e+06
622057
753128
1.86003e+06
1.71411e+06
884453
1.57244e+06
206656
415946
345737
345137
132782
231741
205117
607969
292739
227464
277025
487739
1.3562e+06
670204
147882
243200
136626
149583
261239
404641
132019
135958
141152
981649
363381
483198
325749
426326
883861
751880
910057
729180
1.23628e+06
373357
213091
303707
784892
592602
279769
381575
545046
146910
307795
185460
179049
633842
636324
224678
799191
241717
260591
1.41671e+06
1.18512e+06
133505
155634
1.87862e+06
110790
189733
118946
238154
294539
963895
884378