/*--------------------------------*- C++ -*----------------------------------*\
| =========                 |                                                 |
| \\      /  F ield         | OpenFOAM: The Open Source CFD Toolbox           |
|  \\    /   O peration     | Version:  2.3.1                                 |
|   \\  /    A nd           | Web:      www.OpenFOAM.org                      |
|    \\/     M anipulation  |                                                 |
\*---------------------------------------------------------------------------*/
FoamFile
{
    version     2.0;
    format      ascii;
    class       surfaceScalarField;
    location    "0.95";
    object      phi;
}
// * * * * * * * * * * * * * * * * * * * * * * * * * * * * * * * * * * * * * //

dimensions      [0 3 -1 0 0 0 0];

internalField   nonuniform List<scalar> 
2700
(
2.2956e-06
5.61268e-05
-5.40779e-05
2.14008e-06
5.54305e-05
-5.52697e-05
1.35254e-06
5.5836e-05
-5.50518e-05
8.70319e-07
5.5939e-05
-5.54491e-05
2.00224e-07
5.61699e-05
-5.55067e-05
-3.83213e-07
5.61493e-05
-5.55601e-05
-7.73861e-07
5.59288e-05
-5.55439e-05
-8.13925e-07
5.55669e-05
-5.55194e-05
-4.84321e-07
5.51924e-05
-5.55189e-05
5.4943e-05
-5.54199e-05
7.82712e-07
0.000116103
-6.0757e-05
1.38307e-06
0.000116487
-6.16567e-05
1.43708e-06
0.000117547
-6.17576e-05
9.36984e-07
0.000118358
-6.19256e-05
1.78964e-07
0.000118921
-6.19866e-05
-5.81993e-07
0.000118923
-6.20209e-05
-1.07524e-06
0.000118415
-6.19868e-05
-1.04215e-06
0.000117484
-6.19508e-05
-4.66245e-07
0.000116468
-6.18427e-05
0.000115288
-6.08082e-05
1.56881e-06
0.000186102
-7.15539e-05
2.41863e-06
0.000188785
-7.31388e-05
2.34885e-06
0.000190956
-7.33403e-05
1.45606e-06
0.000192779
-7.35183e-05
1.86168e-07
0.000193809
-7.36218e-05
-1.07577e-06
0.000193843
-7.36455e-05
-1.95731e-06
0.000192887
-7.35883e-05
-2.00689e-06
0.000191054
-7.35086e-05
-1.17282e-06
0.000188981
-7.33403e-05
0.000186148
-7.2025e-05
2.08599e-06
0.000271835
-8.77959e-05
3.27336e-06
0.000276372
-8.87531e-05
3.25687e-06
0.000279636
-8.8634e-05
2.00524e-06
0.000282676
-8.86238e-05
1.98668e-07
0.000284314
-8.86628e-05
-1.61933e-06
0.000284373
-8.86835e-05
-2.89578e-06
0.00028287
-8.86726e-05
-2.97833e-06
0.000279897
-8.87328e-05
-1.89805e-06
0.000276783
-8.88516e-05
0.00027221
-8.79432e-05
8.76668e-06
-0.000129093
0.000392222
1.05157e-05
-0.000131849
0.00040654
8.9815e-06
-0.00013263
0.000413873
5.09008e-06
-0.000133152
0.0004198
3.26389e-07
-0.000133478
0.000422638
-4.43617e-06
-0.000133508
0.000422728
-8.34307e-06
-0.000133241
0.000420098
-9.94131e-06
-0.000132781
0.00041436
-8.36655e-06
-0.00013205
0.000407327
-0.000129334
0.000393226
7.53849e-07
4.97159e-05
-0.00010455
1.03436e-06
5.10457e-05
-0.000106595
1.02674e-06
5.16785e-05
-0.000106718
6.74649e-07
5.1976e-05
-0.000107078
1.48141e-07
5.22117e-05
-0.000107188
-3.93169e-07
5.22057e-05
-0.000107233
-7.7765e-07
5.19954e-05
-0.000107152
-9.11795e-07
5.16226e-05
-0.00010701
-7.26438e-07
5.11447e-05
-0.000106842
4.98658e-05
-0.00010601
7.98238e-07
0.00010395
-0.000115782
1.30776e-06
0.000105975
-0.000117093
1.32976e-06
0.000107214
-0.000117321
8.56206e-07
0.000108137
-0.000117608
1.49028e-07
0.000108684
-0.000117761
-5.68595e-07
0.000108701
-0.000117794
-1.07616e-06
0.0001082
-0.00011769
-1.17155e-06
0.000107277
-0.000117504
-7.88616e-07
0.000106175
-0.000117255
0.000104253
-0.00011598
1.74532e-06
0.000166628
-0.000135972
2.38629e-06
0.000169736
-0.000137538
2.24118e-06
0.000171964
-0.000137933
1.36649e-06
0.000173818
-0.000138329
1.6954e-07
0.000174833
-0.00013856
-1.04141e-06
0.000174864
-0.000138598
-1.9258e-06
0.000173934
-0.000138424
-2.14589e-06
0.000172118
-0.000138126
-1.56109e-06
0.000170016
-0.000137754
0.000166971
-0.0001363
3.24728e-06
0.000241344
-0.000165734
3.83795e-06
0.000247966
-0.000167546
3.41619e-06
0.000251661
-0.000167888
2.02705e-06
0.000254882
-0.000168265
1.86152e-07
0.000256553
-0.000168519
-1.66066e-06
0.000256616
-0.000168552
-3.08192e-06
0.000255073
-0.000168365
-3.57282e-06
0.000251963
-0.000168051
-3.08398e-06
0.000248444
-0.00016774
0.000241904
-0.000165946
8.62766e-06
-0.000232609
0.000336289
1.01227e-05
-0.000235247
0.000349933
8.52258e-06
-0.000236649
0.000357355
4.79535e-06
-0.000237939
0.000363467
3.02899e-07
-0.000238691
0.000366339
-4.19058e-06
-0.00023875
0.000366426
-7.93036e-06
-0.000238112
0.000363764
-9.58929e-06
-0.000236929
0.000357854
-8.26991e-06
-0.000235616
0.000350753
-0.000233049
0.000337397
1.12556e-06
4.03346e-05
-0.000146004
1.14305e-06
4.11987e-05
-0.000147813
9.37132e-07
4.16529e-05
-0.00014817
5.66809e-07
4.19189e-05
-0.000148626
1.19253e-07
4.21008e-05
-0.000148851
-3.22334e-07
4.21027e-05
-0.000148894
-6.53019e-07
4.19174e-05
-0.000148749
-7.93377e-07
4.15941e-05
-0.000148461
-6.95562e-07
4.11593e-05
-0.000148102
3.99757e-05
-0.000146679
9.83518e-07
8.33e-05
-0.000159734
1.25405e-06
8.50411e-05
-0.000161208
1.16372e-06
8.60957e-05
-0.000161668
7.19386e-07
8.68954e-05
-0.000162149
1.26116e-07
8.736e-05
-0.000162422
-4.76486e-07
8.73694e-05
-0.000162469
-9.12557e-07
8.69382e-05
-0.000162269
-1.04727e-06
8.61244e-05
-0.000161904
-7.9411e-07
8.51229e-05
-0.000161465
8.32689e-05
-0.000160068
1.70175e-06
0.000132078
-0.00018644
2.14576e-06
0.000135162
-0.000188093
1.92316e-06
0.000137191
-0.000188807
1.15545e-06
0.00013884
-0.000189489
1.34706e-07
0.000139715
-0.000189897
-8.82281e-07
0.000139748
-0.000189942
-1.66224e-06
0.000138925
-0.00018963
-1.92266e-06
0.000137321
-0.000189045
-1.52358e-06
0.000135368
-0.000188391
0.000132269
-0.000186817
3.2319e-06
0.000189647
-0.000226515
3.63961e-06
0.000196067
-0.000228835
3.10575e-06
0.000199665
-0.000229791
1.79609e-06
0.000202608
-0.000230707
1.55916e-07
0.000204117
-0.000231242
-1.49494e-06
0.000204164
-0.000231297
-2.8161e-06
0.000202771
-0.000230856
-3.40025e-06
0.000199925
-0.00023004
-3.07788e-06
0.000196482
-0.000229148
0.000190126
-0.000226866
7.89059e-06
-0.000303787
0.000252993
8.90211e-06
-0.000307242
0.000267115
7.31728e-06
-0.000309613
0.000274277
4.06402e-06
-0.000311796
0.00027979
2.44674e-07
-0.000313023
0.000282333
-3.57117e-06
-0.000313106
0.000282405
-6.82778e-06
-0.000312046
0.000280037
-8.44974e-06
-0.000310019
0.00027471
-7.59417e-06
-0.000307785
0.000267859
-0.000304442
0.000253964
5.70112e-07
2.69883e-05
-0.000173575
6.06309e-07
2.7661e-05
-0.000175514
5.35808e-07
2.7976e-05
-0.000176079
3.27894e-07
2.81849e-05
-0.000176614
7.41793e-08
2.83168e-05
-0.000176917
-1.85326e-07
2.83153e-05
-0.000176965
-3.81611e-07
2.81904e-05
-0.000176744
-4.8117e-07
2.79608e-05
-0.000176333
-4.39632e-07
2.76665e-05
-0.000175809
2.69322e-05
-0.000174057
5.62765e-07
5.60142e-05
-0.000189317
7.59269e-07
5.72571e-05
-0.000191003
7.13344e-07
5.80163e-05
-0.00019167
4.452e-07
5.86095e-05
-0.000192302
7.75964e-08
5.89359e-05
-0.000192685
-2.87255e-07
5.89478e-05
-0.000192731
-5.64965e-07
5.86341e-05
-0.000192445
-6.44247e-07
5.80532e-05
-0.000191909
-4.75548e-07
5.73244e-05
-0.000191296
5.60695e-05
-0.000189677
1.08795e-06
8.85292e-05
-0.000220045
1.41384e-06
9.08047e-05
-0.000221961
1.26966e-06
9.23459e-05
-0.000222975
7.53304e-07
9.35624e-05
-0.00022393
9.02205e-08
9.42111e-05
-0.00022449
-5.84081e-07
9.42258e-05
-0.00022455
-1.10054e-06
9.36271e-05
-0.000224089
-1.28154e-06
9.24384e-05
-0.000223247
-9.92135e-07
9.0961e-05
-0.0002223
8.87012e-05
-0.000220439
2.29355e-06
0.000126299
-0.000266547
2.64353e-06
0.000131082
-0.000269433
2.22093e-06
0.000134
-0.000271006
1.27055e-06
0.000136275
-0.000272437
9.92692e-08
0.000137417
-0.000273267
-1.06704e-06
0.000137455
-0.000273331
-2.03267e-06
0.000136382
-0.000272633
-2.47781e-06
0.000134194
-0.000271314
-2.19329e-06
0.00013139
-0.000269841
0.000126659
-0.000267002
5.73297e-06
-0.000344498
0.000161335
6.4205e-06
-0.000349247
0.000172452
5.18995e-06
-0.00035256
0.000178242
2.84266e-06
-0.0003555
0.000182371
1.61096e-07
-0.000357124
0.000184257
-2.51844e-06
-0.000357225
0.000184302
-4.86104e-06
-0.000355798
0.000182535
-6.11205e-06
-0.000353051
0.000178545
-5.5399e-06
-0.000349914
0.000172989
-0.000345278
0.000162004
1.33345e-07
1.19548e-05
-0.000185662
8.43668e-08
1.22067e-05
-0.000187685
5.27528e-08
1.23317e-05
-0.000188392
3.30789e-08
1.24141e-05
-0.000189016
2.60628e-08
1.24613e-05
-0.000189389
2.51069e-08
1.24627e-05
-0.000189431
6.1481e-09
1.24088e-05
-0.000189154
-2.87876e-08
1.23215e-05
-0.00018862
-6.9137e-08
1.21936e-05
-0.000187979
1.19124e-05
-0.000186041
1.20146e-07
2.51282e-05
-0.000202627
1.34547e-07
2.56557e-05
-0.00020447
1.20478e-07
2.60025e-05
-0.000205326
7.24665e-08
2.62595e-05
-0.000206113
3.16729e-08
2.64036e-05
-0.000206583
-1.78868e-08
2.64015e-05
-0.000206636
-5.72752e-08
2.62674e-05
-0.000206259
-8.83511e-08
2.60042e-05
-0.000205572
-7.77011e-08
2.56709e-05
-0.000204779
2.51335e-05
-0.000202983
3.60297e-07
4.051e-05
-0.000235771
4.31328e-07
4.1607e-05
-0.000237978
3.59142e-07
4.24044e-05
-0.00023931
2.08328e-07
4.30133e-05
-0.000240523
2.90032e-08
4.33206e-05
-0.000241242
-1.40256e-07
4.33303e-05
-0.000241296
-3.00177e-07
4.30279e-05
-0.000240704
-3.76278e-07
4.24424e-05
-0.000239593
-3.21545e-07
4.16633e-05
-0.000238352
4.0574e-05
-0.000236192
9.81962e-07
5.89853e-05
-0.000285986
1.07667e-06
6.15318e-05
-0.000289441
8.48851e-07
6.32664e-05
-0.000291615
4.58646e-07
6.4512e-05
-0.000293556
4.47225e-08
6.51353e-05
-0.000294652
-3.89604e-07
6.51464e-05
-0.000294726
-7.72904e-07
6.45629e-05
-0.000293771
-1.01381e-06
6.33486e-05
-0.000291975
-9.40052e-07
6.16774e-05
-0.000289913
5.916e-05
-0.000286513
2.8726e-06
-0.00036256
7.42226e-05
3.08775e-06
-0.000368361
8.04759e-05
2.35105e-06
-0.000372499
8.39636e-05
1.23926e-06
-0.00037607
8.62291e-05
5.94418e-08
-0.000378028
8.72363e-05
-1.11588e-06
-0.000378132
8.72568e-05
-2.22003e-06
-0.000376395
8.62971e-05
-2.95417e-06
-0.000373033
8.41024e-05
-2.78954e-06
-0.000369097
8.07463e-05
-0.000363405
7.45239e-05
-3.97294e-07
-4.30714e-06
-0.00018099
-5.72853e-07
-4.52307e-06
-0.000183
-5.35814e-07
-4.63851e-06
-0.000183804
-3.29953e-07
-4.74353e-06
-0.000184501
-1.53519e-08
-4.80004e-06
-0.000184911
2.92785e-07
-4.80873e-06
-0.00018496
5.14481e-07
-4.75417e-06
-0.000184625
5.55336e-07
-4.66721e-06
-0.000184019
3.99162e-07
-4.55583e-06
-0.000183272
-4.35261e-06
-0.000181307
-4.37494e-07
-8.02946e-06
-0.000198465
-6.57051e-07
-8.34872e-06
-0.000200439
-6.2681e-07
-8.54488e-06
-0.000201466
-3.79767e-07
-8.72663e-06
-0.000202381
-2.17348e-08
-8.83698e-06
-0.000202929
3.464e-07
-8.84003e-06
-0.000202973
5.92789e-07
-8.75598e-06
-0.000202531
6.37766e-07
-8.58133e-06
-0.000201699
4.3098e-07
-8.40431e-06
-0.000200747
-8.09393e-06
-0.000198811
-5.83897e-07
-1.03685e-05
-0.000232867
-8.45675e-07
-1.06751e-05
-0.000235397
-7.9849e-07
-1.08475e-05
-0.000237051
-4.88021e-07
-1.10614e-05
-0.000238527
-2.34099e-08
-1.11768e-05
-0.000239365
4.2897e-07
-1.11923e-05
-0.000239433
7.57802e-07
-1.10853e-05
-0.0002387
8.06273e-07
-1.09027e-05
-0.000237347
5.67022e-07
-1.07365e-05
-0.000235778
-1.04351e-05
-0.000233292
-7.59985e-07
-9.65993e-06
-0.000285917
-1.05499e-06
-9.68092e-06
-0.000290139
-1.00952e-06
-9.51532e-06
-0.000293021
-6.07492e-07
-9.53856e-06
-0.000295489
-4.76349e-08
-9.57441e-06
-0.000296858
5.36757e-07
-9.58067e-06
-0.00029693
9.37856e-07
-9.56753e-06
-0.000295729
1.00537e-06
-9.55112e-06
-0.000293399
7.33693e-07
-9.72719e-06
-0.000290664
-9.7048e-06
-0.000286504
-5.84291e-07
-0.000361794
-9.83829e-06
-9.90245e-07
-0.000369093
-8.53845e-06
-1.07582e-06
-0.000374292
-7.627e-06
-6.82197e-07
-0.000378611
-7.41476e-06
-4.64579e-08
-0.000380899
-7.3397e-06
5.85152e-07
-0.000381011
-7.35482e-06
9.96947e-07
-0.000378938
-7.43958e-06
9.2873e-07
-0.000374844
-7.66743e-06
5.53866e-07
-0.000369873
-8.55465e-06
-0.000362685
-9.86482e-06
-9.68792e-07
-2.11491e-05
-0.000158879
-1.31375e-06
-2.19459e-05
-0.000160735
-1.20406e-06
-2.23744e-05
-0.000161567
-7.30443e-07
-2.27174e-05
-0.000162272
-6.3941e-08
-2.29182e-05
-0.000162696
6.17672e-07
-2.29224e-05
-0.000162728
1.09567e-06
-2.27523e-05
-0.000162391
1.23841e-06
-2.24197e-05
-0.000161746
9.29837e-07
-2.20183e-05
-0.00016098
-2.12308e-05
-0.000159155
-1.14266e-06
-4.26619e-05
-0.000175851
-1.62157e-06
-4.40145e-05
-0.00017791
-1.50507e-06
-4.49138e-05
-0.000179056
-9.139e-07
-4.56769e-05
-0.000180048
-6.57921e-08
-4.60871e-05
-0.000180616
7.74222e-07
-4.61135e-05
-0.000180667
1.3913e-06
-4.57294e-05
-0.000180175
1.52495e-06
-4.50164e-05
-0.000179275
1.09193e-06
-4.41489e-05
-0.000178192
-4.28102e-05
-0.000176162
-1.81876e-06
-6.35486e-05
-0.000210158
-2.44933e-06
-6.56647e-05
-0.000213141
-2.2192e-06
-6.71069e-05
-0.000215128
-1.30805e-06
-6.83288e-05
-0.000216803
-9.33773e-08
-6.89839e-05
-0.000217744
1.14375e-06
-6.9003e-05
-0.000217791
2.05445e-06
-6.84218e-05
-0.000216981
2.32575e-06
-6.72438e-05
-0.0002154
1.74684e-06
-6.58734e-05
-0.000213524
-6.37795e-05
-0.000210583
-3.15556e-06
-8.12679e-05
-0.000265085
-3.89763e-06
-8.4569e-05
-0.000270529
-3.38762e-06
-8.6467e-05
-0.000274198
-1.95709e-06
-8.8126e-05
-0.000277198
-1.10526e-07
-8.8948e-05
-0.000278771
1.71694e-06
-8.89882e-05
-0.000278855
3.1788e-06
-8.82202e-05
-0.000277419
3.70577e-06
-8.66451e-05
-0.000274593
3.05425e-06
-8.48287e-05
-0.000271076
-8.15564e-05
-0.0002657
-5.14238e-06
-0.000343815
-9.4115e-05
-6.11371e-06
-0.000354063
-9.86574e-05
-5.23073e-06
-0.000360707
-0.000100999
-2.94494e-06
-0.000365914
-0.000103146
-1.60408e-07
-0.000368544
-0.000104162
2.63272e-06
-0.000368638
-0.000104193
4.91812e-06
-0.000366241
-0.000103266
5.84093e-06
-0.000361253
-0.000101187
4.98663e-06
-0.0003549
-9.89778e-05
-0.000344768
-9.44999e-05
-1.5705e-06
-3.78123e-05
-0.000119543
-2.0882e-06
-3.93649e-05
-0.000120881
-1.88996e-06
-4.01999e-05
-0.000121586
-1.1488e-06
-4.08611e-05
-0.000122194
-9.58755e-08
-4.12172e-05
-0.000122546
9.48695e-07
-4.12399e-05
-0.000122582
1.72368e-06
-4.09026e-05
-0.000122274
1.94964e-06
-4.0285e-05
-0.000121731
1.49725e-06
-3.9478e-05
-0.000121064
-3.79342e-05
-0.000119749
-2.00878e-06
-7.74591e-05
-0.000134205
-2.7251e-06
-8.01806e-05
-0.000136413
-2.47492e-06
-8.20045e-05
-0.000137545
-1.47502e-06
-8.34838e-05
-0.000138447
-1.17728e-07
-8.42812e-05
-0.000138969
1.26046e-06
-8.43043e-05
-0.000138997
2.26825e-06
-8.35887e-05
-0.000138558
2.56814e-06
-8.21634e-05
-0.000137712
1.91835e-06
-8.04218e-05
-0.000136651
-7.77257e-05
-0.000134466
-3.49229e-06
-0.000118854
-0.000165334
-4.42301e-06
-0.000123487
-0.000168949
-3.85925e-06
-0.000126636
-0.000171096
-2.24522e-06
-0.000129203
-0.000172778
-1.3895e-07
-0.000130498
-0.000173662
1.94838e-06
-0.000130554
-0.000173718
3.60145e-06
-0.00012934
-0.000172908
4.19198e-06
-0.000126896
-0.000171341
3.36668e-06
-0.000123863
-0.000169286
-0.000119277
-0.000165704
-6.53635e-06
-0.000158742
-0.000218683
-7.58678e-06
-0.000166957
-0.000226075
-6.3285e-06
-0.000171732
-0.000230454
-3.53607e-06
-0.00017556
-0.000233692
-1.98962e-07
-0.000177406
-0.000235316
3.15787e-06
-0.000177451
-0.000235366
5.93965e-06
-0.000175757
-0.000233902
7.24994e-06
-0.000172048
-0.000230797
6.34938e-06
-0.000167498
-0.000226627
-0.00015936
-0.000219299
-1.16248e-05
-0.000300525
-0.000190507
-1.27668e-05
-0.000316689
-0.000203273
-1.02836e-05
-0.000325295
-0.000209701
-5.58693e-06
-0.000331345
-0.000214948
-2.56117e-07
-0.000334111
-0.000217247
5.04156e-06
-0.000334201
-0.000217316
9.74521e-06
-0.000331613
-0.000215158
1.22262e-05
-0.000325809
-0.000210076
1.13287e-05
-0.000317594
-0.000203959
-0.000301533
-0.000191322
-1.99715e-06
-5.26586e-05
-6.49073e-05
-2.72643e-06
-5.47539e-05
-6.54306e-05
-2.48697e-06
-5.60165e-05
-6.58508e-05
-1.49806e-06
-5.7003e-05
-6.62036e-05
-1.32458e-07
-5.75421e-05
-6.64213e-05
1.25342e-06
-5.75564e-05
-6.64322e-05
2.25565e-06
-5.70736e-05
-6.62551e-05
2.55139e-06
-5.61225e-05
-6.59249e-05
1.89762e-06
-5.49185e-05
-6.5537e-05
-5.28388e-05
-6.50284e-05
-2.71375e-06
-0.000109703
-7.4503e-05
-3.71502e-06
-0.000113742
-7.64654e-05
-3.35496e-06
-0.000116633
-7.73234e-05
-1.99356e-06
-0.000118949
-7.79281e-05
-1.44658e-07
-0.000120135
-7.8254e-05
1.69592e-06
-0.000120186
-7.82793e-05
3.09421e-06
-0.000119075
-7.79828e-05
3.49234e-06
-0.000116871
-7.743e-05
2.58988e-06
-0.000114086
-7.66118e-05
-0.000110089
-7.4659e-05
-5.17126e-06
-0.000173513
-9.63755e-05
-6.43857e-06
-0.000181391
-0.000100094
-5.51976e-06
-0.000186799
-0.000101935
-3.14029e-06
-0.000191001
-0.000103157
-1.9763e-07
-0.00019307
-0.000103776
2.76928e-06
-0.000193121
-0.000103792
5.14479e-06
-0.000191219
-0.000103248
6.12729e-06
-0.000187161
-0.000102078
4.99373e-06
-0.000181985
-0.000100337
-0.000174192
-9.66378e-05
-1.06444e-05
-0.000243543
-0.00013812
-1.18829e-05
-0.000259686
-0.00014664
-9.55333e-06
-0.000268859
-0.000150812
-5.21127e-06
-0.000275781
-0.000153396
-2.49011e-07
-0.000278889
-0.000154536
4.67095e-06
-0.000278981
-0.000154583
9.02907e-06
-0.000276046
-0.000153503
1.13608e-05
-0.000269368
-0.000151057
1.0367e-05
-0.000260609
-0.00014707
-0.000244602
-0.000138591
-2.11781e-05
-0.000214293
-0.000308689
-2.15066e-05
-0.000238124
-0.000338036
-1.63004e-05
-0.000247813
-0.000351693
-8.45425e-06
-0.000253061
-0.000362024
-3.54568e-07
-0.000255066
-0.000366207
7.72897e-06
-0.000255088
-0.000366288
1.54932e-05
-0.000253227
-0.000362362
2.06601e-05
-0.000248151
-0.000352283
2.07202e-05
-0.000239031
-0.000339345
-0.000215253
-0.000310227
-2.0854e-06
-6.28499e-05
-3.01883e-06
-6.45233e-05
-2.80318e-06
-6.60878e-05
-1.69687e-06
-6.73444e-05
-1.41799e-07
-6.79964e-05
1.41352e-06
-6.80239e-05
2.5528e-06
-6.74141e-05
2.81349e-06
-6.62194e-05
1.97103e-06
-6.47154e-05
-6.30715e-05
-3.1196e-06
-0.000134252
-4.34926e-06
-0.000139791
-3.93791e-06
-0.000143867
-2.31046e-06
-0.000146929
-1.68217e-07
-0.000148444
1.98763e-06
-0.000148486
3.6284e-06
-0.00014709
4.09544e-06
-0.000144145
2.97348e-06
-0.000140246
-0.000134771
-6.86553e-06
-0.000223819
-8.20993e-06
-0.000238598
-6.81505e-06
-0.000247246
-3.796e-06
-0.000253184
-2.10719e-07
-0.000255848
3.35305e-06
-0.000255926
6.38825e-06
-0.000253416
7.80899e-06
-0.000247717
6.64679e-06
-0.000239458
-0.000224794
-1.63788e-05
-0.000345607
-1.66607e-05
-0.000385033
-1.25112e-05
-0.000402308
-6.49486e-06
-0.000412665
-2.97212e-07
-0.000416698
5.89041e-06
-0.00041676
1.18311e-05
-0.000412974
1.59357e-05
-0.000402934
1.60083e-05
-0.000386682
-0.000347403
-4.09008e-05
-0.00051911
-3.50403e-05
-0.00062912
-2.28292e-05
-0.000662423
-1.08801e-05
-0.000677815
-3.77774e-07
-0.000682351
1.00165e-05
-0.000682393
2.17647e-05
-0.000678023
3.37023e-05
-0.000663143
4.02357e-05
-0.000632302
-0.000522458
-0.000104278
-0.000784973
0.000370017
-7.64128e-05
-0.00109124
0.000434124
-3.99546e-05
-0.00115496
0.000455897
-1.70268e-05
-0.00116728
0.000466391
-4.72524e-07
-0.00116877
0.000469656
1.59498e-05
-0.00116865
0.000469697
3.82235e-05
-0.00116706
0.000466577
7.3811e-05
-0.00115534
0.000456492
0.000102938
-0.00109762
0.000436091
-0.000791802
0.000372223
-0.000221438
-0.00115975
0.000596031
-0.000148757
-0.00186937
0.000705364
-6.36365e-05
-0.00198421
0.000744037
-2.38833e-05
-0.00197016
0.000763011
-4.87477e-07
-0.00196013
0.000767871
2.25623e-05
-0.00195968
0.000767869
6.09031e-05
-0.00196868
0.000763207
0.000144169
-0.00198348
0.000744818
0.000219047
-0.00188062
0.000708126
-0.00117232
0.000599477
-0.000443939
-0.00162851
0.000912745
-0.000241979
-0.00308491
0.00101353
-7.7151e-05
-0.00323586
0.00108686
-2.19012e-05
-0.00315728
0.00113189
-2.094e-07
-0.00312545
0.00114365
2.09784e-05
-0.00312459
0.00114376
7.37697e-05
-0.00315407
0.00113261
0.000235178
-0.0032335
0.00108878
0.000438787
-0.00310094
0.00101664
-0.00165201
0.000918497
-0.000399535
-0.0022446
0.0010155
-0.00016085
-0.003975
0.000651357
-4.43313e-05
-0.00409087
0.00073845
-8.98284e-06
-0.00400917
0.000816502
-9.39266e-08
-0.00397674
0.000842362
8.51976e-06
-0.00397596
0.000842694
4.27336e-05
-0.00400636
0.000818085
0.000157012
-0.00408875
0.000740908
0.000394796
-0.00398861
0.000649941
-0.00227244
0.00101519
0.000341453
-0.00258615
0.000176393
-0.00381006
5.44213e-05
-0.00396905
1.46276e-05
-0.00396952
8.4779e-08
-0.00396233
-1.40574e-05
-0.00396198
-5.20208e-05
-0.00396851
-0.000171244
-0.00396964
-0.000336941
-0.003823
-0.00260942
-4.22e-05
-0.000316493
0.000419911
-3.73846e-05
-0.000366913
0.000458099
-2.54913e-05
-0.00038206
0.000474296
-1.22966e-05
-0.00039403
0.000485089
-4.10717e-07
-0.000398008
0.000489473
1.13883e-05
-0.000398074
0.000489571
2.43872e-05
-0.000394332
0.000485467
3.60979e-05
-0.000382584
0.000475025
4.14844e-05
-0.000368418
0.000459707
-0.000318287
0.000421718
-6.98544e-05
-0.000248347
0.000597666
-6.37125e-05
-0.000329702
0.000661966
-4.2515e-05
-0.000347525
0.000688263
-2.01377e-05
-0.000359479
0.000706039
-6.24268e-07
-0.000362468
0.000712765
1.87575e-05
-0.00036251
0.000712888
4.07922e-05
-0.000359702
0.000706526
6.17846e-05
-0.000348004
0.000689235
6.85457e-05
-0.000331359
0.000664259
-0.00025072
0.000600422
-4.96957e-05
2.94669e-05
0.000684456
-5.9096e-05
-0.000109778
0.000803047
-3.48475e-05
-0.000121525
0.000836622
-1.561e-05
-0.000105177
0.000858376
-3.80783e-07
-9.8774e-05
0.000864748
1.47208e-05
-9.86673e-05
0.000864835
3.35782e-05
-0.000104699
0.000858805
5.79644e-05
-0.000121231
0.000837615
4.83901e-05
-0.000111034
0.000805938
2.74488e-05
0.000688629
-4.39918e-05
0.000121481
0.00096744
-4.80105e-05
-0.000378804
0.000924419
-3.90716e-05
-0.000377564
0.000985586
-2.14252e-05
-0.000335293
0.00102903
-9.26152e-07
-0.00032041
0.00104354
1.96238e-05
-0.000320202
0.00104375
3.78336e-05
-0.00033463
0.00102985
4.8006e-05
-0.000377341
0.000986936
4.30378e-05
-0.00038147
0.000925339
0.000114893
0.000970736
0.000247747
-0.00271247
0.000138494
-0.00407964
4.7154e-05
-0.00425529
1.32133e-05
-0.00427089
9.27414e-08
-0.00426965
-1.26507e-05
-0.00426945
-4.51896e-05
-0.00427062
-0.000134732
-0.00425743
-0.000244945
-0.00409429
-0.00273951
-2.02567e-05
-0.000181102
0.000430731
-1.90648e-05
-0.000198339
0.000451963
-1.41333e-05
-0.000203015
0.000462638
-7.1988e-06
-0.000207431
0.000470619
-2.87449e-07
-0.000209021
0.000474297
6.59187e-06
-0.000209057
0.000474412
1.34679e-05
-0.000207596
0.000471008
1.83596e-05
-0.000203269
0.000463319
1.98675e-05
-0.000198921
0.00045316
-0.000181818
0.000432067
-3.45112e-05
-0.000145063
0.00059605
-3.24705e-05
-0.000167047
0.000628698
-2.41136e-05
-0.00016973
0.000646682
-1.22443e-05
-0.000173448
0.000660251
-4.77477e-07
-0.000174291
0.000666339
1.12396e-05
-0.000174332
0.000666514
2.30175e-05
-0.00017361
0.00066084
3.13306e-05
-0.000170003
0.000647724
3.37879e-05
-0.000167595
0.000630542
-0.000145881
0.000598226
-2.5584e-05
2.53308e-05
0.000539684
-2.10824e-05
3.96897e-05
0.00059185
-1.29359e-05
5.15852e-05
0.000607243
-6.17218e-06
5.93117e-05
0.000618954
-1.85293e-07
6.16206e-05
0.000622949
5.77301e-06
6.16264e-05
0.000623028
1.23567e-05
5.93918e-05
0.00061932
2.03618e-05
5.18026e-05
0.00060792
2.49741e-05
4.02165e-05
0.000593484
2.60859e-05
0.000541601
-6.41043e-05
0.000316114
0.000740658
-5.03159e-05
0.000283846
0.000666472
-3.40005e-05
0.000326324
0.000694525
-1.74264e-05
0.000349651
0.000722159
-8.00729e-07
0.000356095
0.000732479
1.57859e-05
0.000356079
0.000732748
3.23282e-05
0.000349652
0.000723108
4.8848e-05
0.000326236
0.00069597
6.25261e-05
0.00028451
0.000667314
0.000317094
0.000742191
8.32494e-05
-0.00247965
4.46525e-05
-0.0037572
1.35562e-05
-0.00389781
2.98751e-06
-0.00391067
2.10894e-08
-0.00391057
-2.8087e-06
-0.00391053
-1.29183e-05
-0.00391087
-4.35463e-05
-0.00390053
-8.22484e-05
-0.00377107
-0.0025047
-7.68332e-06
-8.37686e-05
0.000428047
-7.80163e-06
-8.81768e-05
0.000441643
-6.29867e-06
-8.86786e-05
0.00044886
-3.39477e-06
-8.99652e-05
0.000454568
-1.617e-07
-9.04798e-05
0.000457422
3.06396e-06
-9.05058e-05
0.000457539
5.96401e-06
-9.00474e-05
0.000454929
7.4763e-06
-8.87979e-05
0.000449469
7.50783e-06
-8.83687e-05
0.000442588
-8.4e-05
0.000429083
-1.26452e-05
-6.96368e-05
0.000594656
-1.32965e-05
-7.73591e-05
0.00061862
-1.1094e-05
-7.76676e-05
0.000633598
-6.03727e-06
-7.97641e-05
0.000645136
-2.952e-07
-8.05055e-05
0.000650766
5.43806e-06
-8.05463e-05
0.000650964
1.04971e-05
-7.99117e-05
0.000645785
1.27482e-05
-7.78647e-05
0.000634697
1.22809e-05
-7.76359e-05
0.000620344
-7.01597e-05
0.000596678
-4.99641e-06
-2.56147e-05
0.000500589
-4.19343e-06
-9.18748e-06
0.000523008
-3.64422e-06
-1.76274e-06
0.000530861
-2.13926e-06
1.19737e-07
0.000537773
-9.44196e-08
2.76025e-08
0.000540542
1.96249e-06
-3.11204e-08
0.000540621
3.46088e-06
3.28588e-08
0.000538096
3.99357e-06
-1.78328e-06
0.00053138
4.77754e-06
-8.89194e-06
0.000523993
-2.5467e-05
0.000501654
-2.39194e-05
6.2099e-05
0.000676828
-2.50434e-05
4.05085e-05
0.000617843
-2.07474e-05
4.93124e-05
0.000639316
-1.12951e-05
5.21164e-05
0.000660705
-5.91606e-07
5.25439e-05
0.000669316
1.00973e-05
5.25318e-05
0.000669605
1.95988e-05
5.19857e-05
0.000661596
2.41661e-05
4.90559e-05
0.000640636
2.27459e-05
4.05179e-05
0.000619316
6.12857e-05
0.000678077
1.68127e-05
-0.00243444
6.5947e-06
-0.00370639
1.95756e-08
-0.003842
-1.01065e-06
-0.00385749
1.93463e-08
-0.00385907
1.06526e-06
-0.00385912
1.34106e-07
-0.0038579
-6.34681e-06
-0.00384498
-1.65921e-05
-0.00372033
-0.00246005
-1.91676e-07
3.24274e-06
0.000415242
-5.35624e-07
7.80378e-06
0.000425722
-7.72522e-07
1.06126e-05
0.000430946
-5.21034e-07
1.17834e-05
0.000435215
-3.99372e-08
1.22924e-05
0.000437407
4.36707e-07
1.22934e-05
0.000437503
7.00744e-07
1.18086e-05
0.00043553
4.83164e-07
1.0665e-05
0.000431464
1.64978e-07
7.95464e-06
0.000426489
3.34452e-06
0.000416078
4.55587e-06
-1.10288e-05
0.000604379
2.1601e-06
3.93473e-06
0.000625055
2.2349e-07
7.79293e-06
0.000638458
-3.70957e-07
8.47146e-06
0.000649285
-8.96342e-08
8.47912e-06
0.0006545
2.18781e-07
8.45111e-06
0.00065471
-2.99735e-07
8.41259e-06
0.000649948
-2.19023e-06
7.77296e-06
0.00063961
-4.63313e-06
4.03277e-06
0.000626812
-1.11122e-05
0.000606533
6.11038e-06
-5.88828e-06
0.000489425
5.44332e-06
1.69131e-05
0.000510665
2.52199e-06
2.48619e-05
0.000517014
7.75572e-07
2.57272e-05
0.000522377
-4.07635e-09
2.5377e-05
0.000524635
-7.30842e-07
2.53529e-05
0.000524735
-2.42611e-06
2.5599e-05
0.000522659
-5.3219e-06
2.47232e-05
0.000517488
-6.08958e-06
1.73375e-05
0.000511491
-5.93637e-06
0.000490322
3.95508e-05
-6.84172e-05
0.000699559
1.85583e-05
-4.29378e-05
0.000698917
2.49683e-06
-4.33883e-05
0.000723525
-1.66736e-06
-5.13789e-05
0.00074211
-2.73771e-07
-5.47631e-05
0.000748121
1.11555e-06
-5.48742e-05
0.000748315
-2.60811e-06
-5.17483e-05
0.000742804
-1.82882e-05
-4.38645e-05
0.000724901
-4.00479e-05
-4.2918e-05
0.000701309
-6.96323e-05
0.000701621
-6.88936e-06
-0.00249584
-7.3414e-06
-0.00374902
-4.73682e-06
-0.00388803
-2.1949e-06
-0.00391148
-1.28628e-08
-0.00391611
2.21598e-06
-0.00391619
4.69498e-06
-0.00391218
7.2687e-06
-0.00389146
7.00994e-06
-0.00376309
-0.00252268
5.10383e-06
9.7609e-05
0.000386815
4.73195e-06
0.000111082
0.000395598
3.30616e-06
0.000117458
0.000398973
1.6459e-06
0.000121313
0.000401934
5.98599e-08
0.000122875
0.000403484
-1.51427e-06
0.000122903
0.000403575
-3.16353e-06
0.000121429
0.000402196
-4.57835e-06
0.000117707
0.000399401
-5.02293e-06
0.000111564
0.000396205
9.81642e-05
0.000387482
2.02415e-05
6.33328e-05
0.000618535
1.63799e-05
0.00010305
0.000637018
1.04338e-05
0.000113514
0.000648573
4.81963e-06
0.000117942
0.000658454
1.29893e-07
0.00011889
0.000663416
-4.51617e-06
0.00011889
0.000663629
-1.00492e-05
0.000117962
0.000659132
-1.58929e-05
0.000113614
0.000649705
-1.99509e-05
0.000103829
0.000638727
6.39626e-05
0.000620805
1.81703e-05
6.54017e-05
0.000468974
1.34191e-05
0.00013272
0.00048596
7.64154e-06
0.000148031
0.00048829
3.1857e-06
0.000153796
0.00049121
1.0739e-07
0.000154364
0.000492433
-2.96738e-06
0.000154307
0.000492495
-7.32502e-06
0.000153717
0.000491439
-1.30417e-05
0.000148228
0.000488629
-1.79897e-05
0.000133755
0.000486547
6.64207e-05
0.000469797
0.000132222
-0.000185171
0.000818167
7.39169e-05
-4.85286e-06
0.000894607
2.82761e-05
2.35383e-06
0.000914966
8.76362e-06
-1.61135e-05
0.000931498
4.57346e-08
-2.74958e-05
0.000938592
-8.47447e-06
-2.77468e-05
0.000938887
-2.71623e-05
-1.724e-05
0.000932328
-7.21236e-05
1.62503e-06
0.000916505
-0.00013135
-3.2695e-06
0.000897419
-0.00018566
0.000822346
-3.58816e-05
-0.00264534
-2.53384e-05
-0.00376442
-1.30698e-05
-0.0038981
-4.78835e-06
-0.00393605
-4.2111e-08
-0.00394846
4.64949e-06
-0.00394876
1.26114e-05
-0.00393743
2.47856e-05
-0.00390213
3.5691e-05
-0.00377732
-0.00267272
8.80911e-06
0.000206528
0.000332899
8.29979e-06
0.000228986
0.000339684
6.15896e-06
0.000238384
0.000341081
3.20002e-06
0.000244777
0.000342621
1.52382e-07
0.000247476
0.000343458
-2.89407e-06
0.000247536
0.000343522
-5.8374e-06
0.00024503
0.000342818
-8.00036e-06
0.000238835
0.000341371
-8.62451e-06
0.000229865
0.000340082
0.000207617
0.000333307
3.53398e-05
0.000182282
0.00060743
2.96811e-05
0.000254876
0.00061693
2.02232e-05
0.000271816
0.00062475
9.81428e-06
0.000281489
0.000632357
3.43072e-07
0.000284281
0.000636273
-9.04557e-06
0.000284338
0.000636466
-1.93398e-05
0.000281675
0.000632932
-2.86646e-05
0.000272323
0.000625695
-3.46235e-05
0.000256383
0.000618293
0.000184434
0.000609382
2.59956e-05
0.000214024
0.000411484
1.87095e-05
0.000327437
0.000420638
1.0785e-05
0.000351344
0.000416832
4.80027e-06
0.000362351
0.000416429
1.87141e-07
0.000365135
0.000416332
-4.40901e-06
0.00036513
0.000416371
-1.02782e-05
0.000362494
0.000416554
-1.81124e-05
0.00035192
0.000416955
-2.55245e-05
0.000329555
0.000420693
0.000217122
0.000411628
0.000219237
-0.000219214
0.00103187
0.000134414
0.000186591
0.00112033
5.98753e-05
0.000207181
0.00113353
2.27432e-05
0.000186418
0.00114444
4.98463e-07
0.000176365
0.00114943
-2.14316e-05
0.000176115
0.00114966
-5.74407e-05
0.000185507
0.0011452
-0.00013058
0.000206686
0.00113468
-0.00021586
0.000189759
0.00112251
-0.000213856
0.00103738
-7.51847e-05
-0.00278941
-5.36896e-05
-0.00359948
-2.69982e-05
-0.00371775
-1.05071e-05
-0.0037663
-1.43089e-07
-0.00378264
1.00574e-05
-0.00378301
2.59466e-05
-0.00376795
5.21476e-05
-0.00372167
7.39672e-05
-0.00360952
-0.00281269
1.0689e-05
0.000328268
0.000247001
1.00104e-05
0.000356333
0.000251268
7.60197e-06
0.000366982