/*--------------------------------*- C++ -*----------------------------------*\
| =========                 |                                                 |
| \\      /  F ield         | OpenFOAM: The Open Source CFD Toolbox           |
|  \\    /   O peration     | Version:  2.3.1                                 |
|   \\  /    A nd           | Web:      www.OpenFOAM.org                      |
|    \\/     M anipulation  |                                                 |
\*---------------------------------------------------------------------------*/
FoamFile
{
    version     2.0;
    format      ascii;
    class       volVectorField;
    location    "0.95";
    object      U;
}
// * * * * * * * * * * * * * * * * * * * * * * * * * * * * * * * * * * * * * //

dimensions      [0 1 -1 0 0 0 0];

internalField   nonuniform List<vector> 
1000
(
(-0.00253832 0.00305684 0.00029539)
(-0.00279179 0.00285983 0.000234553)
(-0.00283092 0.00285318 0.000141852)
(-0.00286453 0.00284197 0.00012843)
(-0.00287149 0.00284987 4.72929e-05)
(-0.00287572 0.0028473 -1.0302e-05)
(-0.00287557 0.00283618 -6.31511e-05)
(-0.00287496 0.00281928 -8.63666e-05)
(-0.00287631 0.00280216 -6.94611e-05)
(-0.00287787 0.00279163 -2.78409e-05)
(-0.00308499 0.00855275 7.99761e-05)
(-0.00321921 0.00849522 0.000101006)
(-0.00324022 0.00856912 0.000149936)
(-0.00325615 0.00860468 0.000130329)
(-0.00326179 0.00864236 5.53823e-05)
(-0.00326466 0.00864043 -2.21817e-05)
(-0.00326345 0.00860461 -8.93157e-05)
(-0.00326213 0.00854211 -0.000118166)
(-0.00325428 0.00847558 -7.73018e-05)
(-0.00316244 0.008414 -2.63358e-05)
(-0.00371308 0.0143703 0.0001195)
(-0.00386117 0.0145055 0.000213378)
(-0.00388018 0.014609 0.000250264)
(-0.00389198 0.0146991 0.000201207)
(-0.00389844 0.0147566 8.36844e-05)
(-0.00390034 0.0147574 -4.74493e-05)
(-0.00389794 0.0147039 -0.000160977)
(-0.00389475 0.0146065 -0.000215657)
(-0.00388287 0.0145099 -0.000166317)
(-0.00376179 0.0143677 -7.63675e-05)
(-0.00466038 0.0253729 0.000119776)
(-0.00477421 0.0258443 0.000299724)
(-0.00477409 0.0262613 0.000346284)
(-0.00477433 0.0266026 0.00027807)
(-0.00477699 0.0267874 0.00011358)
(-0.00477848 0.0267944 -7.48855e-05)
(-0.00477822 0.0266249 -0.000240209)
(-0.00478228 0.0262929 -0.000314638)
(-0.00478487 0.0258935 -0.000273146)
(-0.00467793 0.0254113 -0.000101292)
(-0.00693936 0.0235774 0.000626049)
(-0.00719068 0.0239011 0.00104017)
(-0.00724076 0.0239934 0.00100994)
(-0.00726608 0.0241517 0.000725006)
(-0.00728238 0.0242353 0.000274602)
(-0.00728415 0.0242379 -0.000209436)
(-0.00727136 0.0241605 -0.00066052)
(-0.00725008 0.0240021 -0.000948636)
(-0.00720387 0.0239148 -0.000988193)
(-0.0069552 0.0235903 -0.000601347)
(-0.00797295 0.00255854 7.27765e-05)
(-0.00814191 0.00264268 8.97693e-05)
(-0.00814799 0.00267494 0.000103018)
(-0.00818848 0.00268312 9.71566e-05)
(-0.00819752 0.002693 4.03188e-05)
(-0.00820308 0.00269184 -1.31097e-05)
(-0.00819864 0.00268115 -6.2541e-05)
(-0.00819089 0.00266306 -8.835e-05)
(-0.00818306 0.00263662 -9.23093e-05)
(-0.00813447 0.00253219 -4.24373e-05)
(-0.00889795 0.00761052 5.85116e-05)
(-0.00904618 0.00778311 0.000109329)
(-0.00906459 0.00787733 0.000139858)
(-0.00908874 0.00793359 0.000117594)
(-0.0091 0.00797107 5.11301e-05)
(-0.00910385 0.00797112 -2.25274e-05)
(-0.00909736 0.0079365 -8.76227e-05)
(-0.00908676 0.00787415 -0.000120057)
(-0.00906645 0.00779725 -0.000106529)
(-0.00892129 0.00763028 -4.57709e-05)
(-0.0104934 0.0130362 0.000115549)
(-0.0106932 0.0132576 0.000222558)
(-0.0107272 0.0133867 0.000242423)
(-0.0107567 0.0134926 0.000189506)
(-0.0107737 0.0135534 7.87483e-05)
(-0.0107771 0.0135549 -4.59309e-05)
(-0.0107659 0.0134987 -0.00015647)
(-0.0107476 0.0133928 -0.000215259)
(-0.010717 0.0132741 -0.000201194)
(-0.0105396 0.013061 -9.77591e-05)
(-0.0128633 0.0224215 0.000195954)
(-0.0130515 0.022819 0.000407123)
(-0.0130665 0.0231992 0.000375882)
(-0.013084 0.0235234 0.00028432)
(-0.0130981 0.023697 0.000113555)
(-0.013101 0.0237036 -7.66804e-05)
(-0.013092 0.0235446 -0.000248993)
(-0.0130808 0.0232326 -0.000345445)
(-0.0130679 0.0228704 -0.000385704)
(-0.012884 0.0224837 -0.000184295)
(-0.018565 0.0211792 0.000598294)
(-0.0188919 0.0220901 0.00102815)
(-0.0190062 0.0223404 0.000960577)
(-0.019096 0.0225655 0.00068617)
(-0.0191495 0.0226739 0.000258261)
(-0.019154 0.0226772 -0.000197717)
(-0.0191094 0.0225763 -0.000626447)
(-0.0190285 0.022356 -0.000903316)
(-0.0189214 0.0221172 -0.000980932)
(-0.0186005 0.0212064 -0.000577072)
(-0.0127645 0.00206772 8.77694e-05)
(-0.0128792 0.00213108 0.000131194)
(-0.0128942 0.00215322 9.93915e-05)
(-0.0129301 0.00216318 8.07209e-05)
(-0.0129461 0.00217106 3.40905e-05)
(-0.0129503 0.00217067 -1.10802e-05)
(-0.012939 0.00216138 -5.16362e-05)
(-0.0129175 0.00214567 -7.48399e-05)
(-0.0128907 0.00212195 -8.53253e-05)
(-0.0127711 0.00203071 -4.18659e-05)
(-0.0139502 0.00614304 6.77219e-05)
(-0.0140708 0.00627363 0.000123302)
(-0.0141035 0.00634691 0.000124873)
(-0.0141407 0.00639614 9.91854e-05)
(-0.0141618 0.0064269 4.2986e-05)
(-0.0141658 0.00642714 -1.87645e-05)
(-0.0141506 0.0063972 -7.35068e-05)
(-0.0141229 0.00634252 -0.000103064)
(-0.0140881 0.00627254 -0.000101605)
(-0.0139605 0.00611366 -4.76825e-05)
(-0.0163243 0.0104984 0.000109295)
(-0.0164716 0.0107065 0.000211176)
(-0.0165265 0.0108303 0.000211212)
(-0.0165802 0.0109302 0.000160491)
(-0.0166121 0.0109855 6.60717e-05)
(-0.0166164 0.0109869 -3.9098e-05)
(-0.016592 0.0109347 -0.000133432)
(-0.0165476 0.010835 -0.000187305)
(-0.0164959 0.0107162 -0.000189795)
(-0.0163533 0.0105023 -9.554e-05)
(-0.0198788 0.0174581 0.00019829)
(-0.0200781 0.0178656 0.000394785)
(-0.020144 0.0182008 0.000347077)
(-0.0202093 0.0184787 0.000254145)
(-0.0202491 0.0186257 9.9753e-05)
(-0.0202536 0.0186311 -6.90695e-05)
(-0.020222 0.0184955 -0.000224554)
(-0.0201648 0.0182282 -0.000320153)
(-0.0201034 0.0179067 -0.000374545)
(-0.0199058 0.0175064 -0.000188487)
(-0.0272327 0.016972 0.000536619)
(-0.0275148 0.017844 0.000930598)
(-0.0277045 0.0181424 0.000831096)
(-0.0278809 0.0183769 0.00058422)
(-0.0279811 0.0184883 0.000217814)
(-0.0279884 0.0184912 -0.000168673)
(-0.0279025 0.0183871 -0.000535241)
(-0.0277395 0.0181583 -0.000783153)
(-0.0275611 0.0178722 -0.000891201)
(-0.0272883 0.017001 -0.000519671)
(-0.0161225 0.00137647 4.0879e-05)
(-0.0163218 0.00142607 6.70214e-05)
(-0.0163712 0.00144167 5.70231e-05)
(-0.016421 0.00145053 4.56323e-05)
(-0.0164478 0.00145641 2.02462e-05)
(-0.0164524 0.00145608 -6.01251e-06)
(-0.016434 0.00144988 -2.99318e-05)
(-0.0163989 0.00143887 -4.44301e-05)
(-0.0163541 0.00142327 -5.31992e-05)
(-0.0161885 0.00136725 -2.68649e-05)
(-0.0176165 0.00412688 3.64998e-05)
(-0.0177932 0.00422504 7.23733e-05)
(-0.0178531 0.004277 7.68392e-05)
(-0.0179094 0.00431474 6.07142e-05)
(-0.0179425 0.00433661 2.67235e-05)
(-0.0179472 0.00433699 -1.11517e-05)
(-0.0179229 0.00431573 -4.502e-05)
(-0.0178774 0.00427687 -6.37568e-05)
(-0.0178222 0.00422728 -6.15189e-05)
(-0.0176555 0.00412391 -2.78859e-05)
(-0.0205137 0.00711314 6.73406e-05)
(-0.0207127 0.00726452 0.000136631)
(-0.0208028 0.00736164 0.000139659)
(-0.0208855 0.00743942 0.000105144)
(-0.0209342 0.00748155 4.31748e-05)
(-0.0209395 0.00748258 -2.56956e-05)
(-0.0209008 0.00744272 -8.80626e-05)
(-0.0208288 0.00736625 -0.000124615)
(-0.0207454 0.00727287 -0.000124887)
(-0.0205533 0.0071213 -6.04007e-05)
(-0.024878 0.0115146 0.000138345)
(-0.0251636 0.0118278 0.000280412)
(-0.0252948 0.0120785 0.000250254)
(-0.0254134 0.0122798 0.000180233)
(-0.0254821 0.0123851 6.98332e-05)
(-0.0254882 0.0123886 -4.95752e-05)
(-0.0254309 0.0122911 -0.000160585)
(-0.0253232 0.0120974 -0.000232188)
(-0.0252005 0.0118568 -0.000266914)
(-0.0249191 0.0115496 -0.000132249)
(-0.0326812 0.011552 0.000378452)
(-0.0331259 0.0121914 0.000673564)
(-0.0334175 0.0124655 0.000593989)
(-0.0336762 0.012666 0.000410731)
(-0.0338199 0.0127611 0.000151512)
(-0.0338293 0.0127635 -0.000119275)
(-0.033704 0.0126736 -0.000378253)
(-0.033463 0.012479 -0.000561438)
(-0.0331875 0.0122151 -0.000647414)
(-0.032754 0.0115777 -0.000367789)
(-0.0181292 0.000606113 1.09315e-05)
(-0.0183285 0.000624927 1.31007e-05)
(-0.018392 0.000630838 5.59198e-06)
(-0.0184494 0.000634095 4.42608e-06)
(-0.0184832 0.000636032 2.74662e-06)
(-0.0184877 0.00063594 2.68275e-06)
(-0.0184626 0.000633359 1.69185e-06)
(-0.0184152 0.000629336 -1.22139e-07)
(-0.0183566 0.000622837 -6.46714e-06)
(-0.018166 0.000601655 -5.07187e-06)
(-0.0197709 0.00184426 8.80269e-06)
(-0.0199627 0.001883 1.43828e-05)
(-0.0200413 0.00190517 1.31267e-05)
(-0.0201123 0.00192076 1.00584e-05)
(-0.020155 0.0019297 5.27631e-06)
(-0.0201599 0.00192959 8.35677e-07)
(-0.0201267 0.00192065 -3.85522e-06)
(-0.0200653 0.00190416 -7.6229e-06)
(-0.0199925 0.00188235 -9.49021e-06)
(-0.0198049 0.00184094 -4.91585e-06)
(-0.0229717 0.00323813 2.25549e-05)
(-0.0231976 0.00330698 4.33226e-05)
(-0.0233178 0.00335548 4.07564e-05)
(-0.0234263 0.00339274 2.91286e-05)
(-0.0234903 0.00341233 1.20904e-05)
(-0.0234961 0.00341247 -5.6223e-06)
(-0.0234434 0.00339337 -2.26638e-05)
(-0.0233456 0.00335651 -3.49639e-05)
(-0.0232333 0.00330922 -3.85118e-05)
(-0.0230118 0.00324014 -1.97043e-05)
(-0.0278122 0.00528677 5.87974e-05)
(-0.0281511 0.00545019 0.000116654)
(-0.0283415 0.00558425 9.80464e-05)
(-0.02851 0.00568578 6.65706e-05)
(-0.0286064 0.0057377 2.49578e-05)
(-0.0286133 0.00573911 -1.78361e-05)
(-0.0285308 0.00569004 -5.92637e-05)
(-0.028375 0.00559197 -9.09715e-05)
(-0.0281954 0.00546244 -0.000111458)
(-0.0278613 0.00530182 -5.62639e-05)
(-0.035518 0.00552731 0.00018512)
(-0.0360685 0.00586824 0.000329589)
(-0.036444 0.00604968 0.000276352)
(-0.0367693 0.00617233 0.000181612)
(-0.0369483 0.00623072 6.50296e-05)
(-0.0369587 0.00623176 -5.29041e-05)
(-0.0368006 0.00617651 -0.000168854)
(-0.0364956 0.00605703 -0.000262763)
(-0.0361391 0.00588164 -0.000318449)
(-0.0355993 0.00554201 -0.000180646)
(-0.0184995 -0.000221078 -2.13284e-05)
(-0.0187065 -0.000237215 -5.24844e-05)
(-0.0187824 -0.000243754 -5.8118e-05)
(-0.0188486 -0.000249291 -4.53073e-05)
(-0.0188879 -0.00025233 -1.80369e-05)
(-0.0188924 -0.00025285 1.455e-05)
(-0.0188616 -0.000250133 4.23338e-05)
(-0.0188043 -0.000245712 5.60086e-05)
(-0.0187343 -0.000239659 5.18293e-05)
(-0.0185329 -0.000224237 2.24546e-05)
(-0.0202304 -0.000614659 -2.37827e-05)
(-0.0204379 -0.000644377 -5.90327e-05)
(-0.0205347 -0.000660575 -6.77581e-05)
(-0.0206201 -0.000675099 -5.28481e-05)
(-0.0206711 -0.000683548 -2.09206e-05)
(-0.020676 -0.0006842 1.70785e-05)
(-0.0206349 -0.000677194 4.94357e-05)
(-0.0205586 -0.000664094 6.50084e-05)
(-0.0204687 -0.000649128 5.77542e-05)
(-0.0202649 -0.000620551 2.41488e-05)
(-0.0236109 -0.000927143 -3.32046e-05)
(-0.0238675 -0.000959069 -7.78292e-05)
(-0.0240195 -0.000978936 -8.6659e-05)
(-0.0241539 -0.00099933 -6.75744e-05)
(-0.0242319 -0.00101097 -2.66342e-05)
(-0.024238 -0.00101188 2.12425e-05)
(-0.0241718 -0.00100214 6.25726e-05)
(-0.0240485 -0.000983646 8.26069e-05)
(-0.0239054 -0.000965184 7.49541e-05)
(-0.0236529 -0.000933933 3.26782e-05)
(-0.028766 -0.00103167 -4.60302e-05)
(-0.0291687 -0.00104914 -0.000100798)
(-0.0294229 -0.00105483 -0.00010847)
(-0.0296426 -0.00107041 -8.51614e-05)
(-0.0297656 -0.00108019 -3.34954e-05)
(-0.029773 -0.00108126 2.60904e-05)
(-0.0296654 -0.00107337 7.80863e-05)
(-0.02946 -0.00105973 0.0001024)
(-0.0292186 -0.00105506 9.68715e-05)
(-0.0288215 -0.0010379 4.48458e-05)
(-0.0363508 -0.000888597 -4.19606e-05)
(-0.0370164 -0.000886659 -9.1166e-05)
(-0.0374816 -0.000854751 -0.000110146)
(-0.0378737 -0.000846949 -9.4159e-05)
(-0.0380855 -0.000842858 -3.78647e-05)
(-0.0380963 -0.000842907 2.84334e-05)
(-0.0379065 -0.00084777 8.52849e-05)
(-0.0375361 -0.000855311 0.000102912)
(-0.0370922 -0.000887801 8.62478e-05)
(-0.0364374 -0.000889036 4.0384e-05)
(-0.0171625 -0.00107948 -5.51083e-05)
(-0.0173629 -0.0011381 -0.000124692)
(-0.0174458 -0.00116127 -0.000130669)
(-0.0175166 -0.0011786 -0.000100847)
(-0.0175587 -0.00118882 -4.10553e-05)
(-0.0175628 -0.00118909 2.89858e-05)
(-0.0175287 -0.00118054 8.96803e-05)
(-0.0174653 -0.0011639 0.00012144)
(-0.0173884 -0.00114231 0.000119)
(-0.0171914 -0.00108401 5.34886e-05)
(-0.0189025 -0.0031688 -6.47175e-05)
(-0.0191209 -0.00328289 -0.000149551)
(-0.019233 -0.00334881 -0.000163969)
(-0.0193294 -0.00340304 -0.000126336)
(-0.0193858 -0.00343314 -5.0679e-05)
(-0.0193906 -0.00343468 3.70931e-05)
(-0.0193433 -0.00340747 0.000113572)
(-0.0192555 -0.0033563 0.00015333)
(-0.0191504 -0.0032934 0.000142096)
(-0.0189351 -0.00318041 6.23089e-05)
(-0.0223565 -0.00530114 -0.00010676)
(-0.0226519 -0.00546317 -0.000233338)
(-0.0228378 -0.0055777 -0.000243822)
(-0.0229967 -0.00567562 -0.000183716)
(-0.0230863 -0.00572838 -7.20736e-05)
(-0.0230921 -0.00573068 5.4624e-05)
(-0.0230143 -0.00568297 0.000167224)
(-0.0228664 -0.00558978 0.000229209)
(-0.0226903 -0.00548038 0.000223327)
(-0.022399 -0.00532019 0.000103165)
(-0.027766 -0.00744676 -0.000191766)
(-0.0282668 -0.00769709 -0.000393153)
(-0.0285971 -0.00787655 -0.000377162)
(-0.0288714 -0.00803221 -0.000277303)
(-0.0290194 -0.00811379 -0.000105724)
(-0.0290273 -0.00811708 8.26174e-05)
(-0.0288947 -0.00804288 0.000254843)
(-0.0286359 -0.00789426 0.00035664)
(-0.0283206 -0.00772274 0.00037813)
(-0.0278262 -0.00747602 0.000186616)
(-0.0354543 -0.00795913 -0.0003337)
(-0.0363284 -0.00839627 -0.00062975)
(-0.0369162 -0.00857579 -0.00058429)
(-0.0373904 -0.00872887 -0.000422882)
(-0.0376363 -0.00879937 -0.000157435)
(-0.0376467 -0.00880172 0.000126024)
(-0.0374232 -0.00873586 0.000391871)
(-0.0369714 -0.00858812 0.000554376)
(-0.0364087 -0.00841815 0.000607507)
(-0.035546 -0.00798181 0.000325868)
(-0.0140901 -0.00192534 -8.98474e-05)
(-0.0142582 -0.00203577 -0.000200088)
(-0.014337 -0.00208037 -0.000206146)
(-0.014404 -0.00211343 -0.000158034)
(-0.0144436 -0.00213138 -6.41888e-05)
(-0.014447 -0.00213255 4.4556e-05)
(-0.014414 -0.00211569 0.000139591)
(-0.0143532 -0.00208491 0.000190779)
(-0.0142797 -0.002042 0.000189445)
(-0.014114 -0.00193169 8.62442e-05)
(-0.0157023 -0.00571745 -0.00011687)
(-0.0159116 -0.0059378 -0.000257345)
(-0.0160281 -0.00606804 -0.00027121)
(-0.0161249 -0.00617218 -0.000205511)
(-0.0161805 -0.00622865 -8.20387e-05)
(-0.0161845 -0.00623094 5.95448e-05)
(-0.0161369 -0.0061795 0.000184354)
(-0.0160476 -0.00608021 0.000252813)
(-0.0159378 -0.00595545 0.000244764)
(-0.015731 -0.0057367 0.00011227)
(-0.0190215 -0.00979502 -0.000210093)
(-0.0193445 -0.0101333 -0.000435167)
(-0.0195546 -0.0103745 -0.000429549)
(-0.0197258 -0.0105733 -0.000316273)
(-0.019819 -0.0106768 -0.000122091)
(-0.0198242 -0.0106807 9.33042e-05)
(-0.0197414 -0.0105855 0.000288478)
(-0.0195807 -0.0103955 0.000404586)
(-0.0193808 -0.0101639 0.000416948)
(-0.0190617 -0.00982943 0.000203639)
(-0.0244819 -0.0141218 -0.000406943)
(-0.0251044 -0.0147013 -0.000792163)
(-0.0255097 -0.0151041 -0.000714628)
(-0.0258267 -0.0154329 -0.00050827)
(-0.0259898 -0.0155981 -0.000189466)
(-0.0259967 -0.0156038 0.000150946)
(-0.0258485 -0.015451 0.000470107)
(-0.0255472 -0.0151354 0.00067762)
(-0.0251597 -0.0147489 0.000765527)
(-0.0245439 -0.0141769 0.000397631)
(-0.0324676 -0.0162027 -0.000766953)
(-0.0337341 -0.0173362 -0.00137751)
(-0.0344933 -0.0178512 -0.00117416)
(-0.0350596 -0.0182529 -0.000813561)
(-0.0353333 -0.0184311 -0.000293599)
(-0.0353426 -0.0184351 0.0002411)
(-0.0350898 -0.0182687 0.000759914)
(-0.0345468 -0.0178782 0.00111899)
(-0.0338209 -0.0173895 0.00133463)
(-0.0325653 -0.0162609 0.000752429)
(-0.00932738 -0.00267172 -0.000113207)
(-0.00942534 -0.00281855 -0.000256867)
(-0.00948334 -0.00288449 -0.000271131)
(-0.00953256 -0.00293327 -0.000207061)
(-0.00956176 -0.00296016 -8.40045e-05)
(-0.00956409 -0.00296097 5.85139e-05)
(-0.00953914 -0.00293693 0.000183137)
(-0.00949426 -0.00289009 0.000250648)
(-0.00943987 -0.00282728 0.000242969)
(-0.00934372 -0.00268083 0.00010815)
(-0.0105953 -0.00802443 -0.000157273)
(-0.0108442 -0.00832845 -0.000347995)
(-0.0109524 -0.00852791 -0.000369598)
(-0.0110312 -0.00868669 -0.000277655)
(-0.0110753 -0.00877048 -0.000109916)
(-0.0110779 -0.00877372 8.05392e-05)
(-0.0110396 -0.00869646 0.000249629)
(-0.0109663 -0.00854494 0.000345069)
(-0.010864 -0.00835342 0.000330336)
(-0.0106165 -0.00805208 0.000150773)
(-0.0133891 -0.0140844 -0.000313506)
(-0.0138223 -0.0146197 -0.000638897)
(-0.0140412 -0.0150171 -0.000618999)
(-0.0141958 -0.0153341 -0.000446865)
(-0.014275 -0.0154942 -0.000170008)
(-0.0142787 -0.0154994 0.00013194)
(-0.0142071 -0.0153513 0.000409633)
(-0.0140613 -0.015047 0.000583945)
(-0.0138527 -0.0146656 0.000613821)
(-0.0134221 -0.0141368 0.000304441)
(-0.018489 -0.0208704 -0.0006726)
(-0.0194188 -0.0219351 -0.00126816)
(-0.019892 -0.0226427 -0.00109496)
(-0.0202061 -0.0231887 -0.0007562)
(-0.0203531 -0.0234491 -0.000275268)
(-0.0203579 -0.0234565 0.000223599)
(-0.0202225 -0.0232138 0.000703311)
(-0.0199227 -0.0226874 0.00104123)
(-0.0194715 -0.0220098 0.00122741)
(-0.0185471 -0.0209567 0.000658933)
(-0.0271557 -0.0262768 -0.0014209)
(-0.0294773 -0.0285829 -0.00244721)
(-0.0304924 -0.029662 -0.00190253)
(-0.031105 -0.0304709 -0.00125781)
(-0.0313573 -0.0308088 -0.000438285)
(-0.0313631 -0.0308162 0.000367831)
(-0.0311268 -0.0304973 0.00118303)
(-0.030537 -0.0297107 0.0018163)
(-0.029576 -0.028687 0.00237954)
(-0.0272626 -0.0263947 0.00140003)
(-0.00338539 -0.00317273 -0.000118124)
(-0.00340428 -0.0032474 -0.000272091)
(-0.00342539 -0.00332069 -0.000305931)
(-0.00344378 -0.00338062 -0.000233713)
(-0.00345522 -0.00341244 -9.47479e-05)
(-0.00345584 -0.00341382 6.63998e-05)
(-0.00344654 -0.0033842 0.000206909)
(-0.00342942 -0.00332732 0.000282975)
(-0.00340999 -0.00325693 0.000255849)
(-0.00339196 -0.00318367 0.000112084)
(-0.00391691 -0.00966777 -0.000183294)
(-0.0040609 -0.00998019 -0.000398484)
(-0.00411178 -0.0102413 -0.000435887)
(-0.00414503 -0.0104454 -0.000323339)
(-0.00416289 -0.0105496 -0.000127071)
(-0.00416424 -0.010553 9.41533e-05)
(-0.00414811 -0.0104568 0.000291671)
(-0.00411772 -0.0102613 0.000407331)
(-0.00406934 -0.0100111 0.000377941)
(-0.00392558 -0.00970322 0.000175584)
(-0.00518499 -0.0176095 -0.0004273)
(-0.0054539 -0.0184946 -0.000825743)
(-0.00556861 -0.0190881 -0.000776477)
(-0.0056398 -0.0195184 -0.000544114)
(-0.005675 -0.0197231 -0.000202986)
(-0.00567601 -0.0197292 0.000159906)
(-0.00564481 -0.0195383 0.000500787)
(-0.00557691 -0.0191253 0.00073386)
(-0.0054683 -0.018557 0.000793815)
(-0.0052001 -0.0176808 0.000416352)
(-0.00777561 -0.0278809 -0.00107914)
(-0.00839611 -0.0302012 -0.00187138)
(-0.00867418 -0.0314073 -0.00147562)
(-0.00883416 -0.0321946 -0.000963543)
(-0.00890219 -0.0325313 -0.000339106)
(-0.00890459 -0.0325388 0.000280169)
(-0.00884032 -0.0322227 0.000900403)
(-0.0086886 -0.0314629 0.00140352)
(-0.00842379 -0.0303179 0.00181625)
(-0.00780513 -0.0280114 0.00106241)
(-0.0130505 -0.0416466 -0.00285943)
(-0.0149414 -0.0480722 -0.0044529)
(-0.0156597 -0.0504108 -0.00281531)
(-0.0160144 -0.0517242 -0.00168044)
(-0.0161385 -0.0521791 -0.000549044)
(-0.0161396 -0.0521848 0.000470309)
(-0.0160232 -0.0517533 0.00158851)
(-0.0156813 -0.0504803 0.00268078)
(-0.0150073 -0.0482927 0.0043447)
(-0.0131183 -0.0418902 0.00283508)
(-0.0252286 -0.0649887 -0.00767196)
(-0.0306369 -0.0802081 -0.0109492)
(-0.0324162 -0.0845449 -0.00521614)
(-0.0331837 -0.0863627 -0.00275081)
(-0.0333901 -0.0868625 -0.000802418)
(-0.0333911 -0.0868655 0.000708521)
(-0.0331925 -0.0863838 0.00262306)
(-0.0324563 -0.0846251 0.00494897)
(-0.0307926 -0.0806204 0.0107217)
(-0.0254031 -0.0654134 0.00763481)
(-0.0438033 -0.0874137 -0.0174677)
(-0.0511457 -0.137542 -0.0226531)
(-0.0543769 -0.147196 -0.00872567)
(-0.0560446 -0.147974 -0.00397173)
(-0.0564212 -0.14768 -0.00104177)
(-0.0564199 -0.147649 0.00093937)
(-0.0560584 -0.147892 0.00380748)
(-0.0544427 -0.147187 0.0082702)
(-0.0513278 -0.138461 0.022231)
(-0.0440804 -0.0884109 0.0174171)
(-0.0641214 -0.157097 -0.0392026)
(-0.0478754 -0.250287 -0.0397241)
(-0.0523657 -0.264515 -0.012213)
(-0.0574202 -0.260528 -0.00393837)
(-0.0589068 -0.258741 -0.000819448)
(-0.0589294 -0.258683 0.000773478)
(-0.0575348 -0.260316 0.00378745)
(-0.0525794 -0.264389 0.0116115)
(-0.0477678 -0.251654 0.0389942)
(-0.0642881 -0.158642 0.0389543)
(0.00116886 -0.124743 -0.0386495)
(0.0853035 -0.297779 -0.0271522)
(0.0860119 -0.308167 -0.00887667)
(0.0800571 -0.296574 -0.00171125)
(0.0778193 -0.292169 -0.000399834)
(0.077773 -0.292063 0.000378452)
(0.0798599 -0.296169 0.00161705)
(0.0857823 -0.307792 0.00860804)
(0.0860496 -0.299308 0.0267046)
(0.00235512 -0.127438 0.0382195)
(0.264229 -0.387218 0.0306763)
(0.37402 -0.593167 0.0303131)
(0.392423 -0.612403 0.00846402)
(0.39307 -0.608013 0.00263637)
(0.392504 -0.60588 0.000423934)
(0.392465 -0.605825 -0.000408018)
(0.392955 -0.607837 -0.00253764)
(0.392486 -0.612398 -0.00797582)
(0.375423 -0.594718 -0.0297555)
(0.266406 -0.3907 -0.030378)
(-0.0429042 -0.0381073 -0.00296487)
(-0.0487739 -0.0412572 -0.00473664)
(-0.0508764 -0.0429042 -0.00302477)
(-0.0520443 -0.0442281 -0.00189819)
(-0.0524563 -0.0447732 -0.000616663)
(-0.0524631 -0.044786 0.000531909)
(-0.0520739 -0.0442752 0.00180368)
(-0.0509471 -0.0429849 0.00289044)
(-0.0489733 -0.0414162 0.00462506)
(-0.0431295 -0.0383051 0.00293756)
(-0.0650228 -0.0189858 -0.00529365)
(-0.0761789 -0.0245686 -0.00800721)
(-0.0797346 -0.0255261 -0.00499362)
(-0.0815805 -0.0264123 -0.0031224)
(-0.0821364 -0.0265929 -0.000987627)
(-0.0821405 -0.026591 0.000859381)
(-0.0816087 -0.0264195 0.00298037)
(-0.0798176 -0.0255362 0.00479033)
(-0.0764796 -0.0246716 0.00782151)
(-0.0653651 -0.0191106 0.00523772)
(-0.095538 -0.032729 -0.00518435)
(-0.12242 -0.0448595 -0.00711931)
(-0.129489 -0.0477573 -0.00371484)
(-0.132433 -0.0490029 -0.00248853)
(-0.133103 -0.0493069 -0.000679764)
(-0.133104 -0.0493204 0.000601149)
(-0.132457 -0.0490438 0.00240408)
(-0.129615 -0.0478595 0.00357474)
(-0.122972 -0.0451251 0.00693703)
(-0.0962998 -0.0330576 0.00511968)
(-0.160796 0.0359472 -0.00873773)
(-0.17032 0.0171363 -0.00376178)
(-0.183026 0.0173068 -0.00376901)
(-0.189755 0.0219919 -0.00311319)
(-0.191807 0.0236549 -0.00103729)
(-0.19182 0.0236951 0.000858968)
(-0.18983 0.0221424 0.00295244)
(-0.183188 0.0174821 0.00375145)
(-0.170674 0.0170944 0.00368825)
(-0.16164 0.0359173 0.00859801)
(0.265709 -0.0140484 0.020954)
(0.405304 -0.0940862 0.0222891)
(0.423218 -0.0938774 0.00762542)
(0.4244 -0.0899924 0.00244635)
(0.424062 -0.0886101 0.000434022)
(0.424035 -0.0886183 -0.000412453)
(0.424342 -0.0900308 -0.00234902)
(0.423367 -0.0940491 -0.00728688)
(0.406694 -0.0945151 -0.0219055)
(0.268456 -0.0152016 -0.0208009)
(-0.0426759 -0.024257 -0.00138489)
(-0.0454333 -0.025579 -0.00231594)
(-0.0467554 -0.0263757 -0.00163862)
(-0.0477183 -0.027064 -0.00108706)
(-0.0481415 -0.027374 -0.00037066)
(-0.048153 -0.0273842 0.000312514)
(-0.0477589 -0.0270967 0.00102597)
(-0.0468285 -0.0264311 0.00156368)
(-0.0455719 -0.0256711 0.00225607)
(-0.0428315 -0.0243733 0.00136909)
(-0.0592397 -0.00805468 -0.00253571)
(-0.0633311 -0.0100139 -0.00390786)
(-0.0654836 -0.0100691 -0.00278685)
(-0.0671279 -0.0101728 -0.00185138)
(-0.0678273 -0.0101369 -0.000624291)
(-0.0678439 -0.0101325 0.000527766)
(-0.0671872 -0.0101656 0.00175053)
(-0.0655894 -0.0100551 0.00266706)
(-0.0635308 -0.010023 0.00380421)
(-0.0594803 -0.00806383 0.00250065)
(-0.0549152 -0.0253806 -0.00198752)
(-0.059858 -0.0281761 -0.00291901)
(-0.0614131 -0.0287226 -0.00144374)
(-0.0631223 -0.0294535 -0.000987032)
(-0.0637222 -0.0296891 -0.000280542)
(-0.0637344 -0.0297039 0.000242406)
(-0.0631756 -0.0295021 0.000946178)
(-0.0614984 -0.0288044 0.00137124)
(-0.0600252 -0.0282995 0.00283744)
(-0.055134 -0.0255678 0.00196077)
(-0.0676228 0.0328469 -0.00622021)
(-0.0586641 0.0393525 -0.00660248)
(-0.0619366 0.0427956 -0.00374233)
(-0.0653367 0.0453692 -0.00269242)
(-0.0666004 0.0461472 -0.000862264)
(-0.0666305 0.0461639 0.000701235)
(-0.0654405 0.0454413 0.00252913)
(-0.0620896 0.0429342 0.0035863)
(-0.0586787 0.0396121 0.00642841)
(-0.0677483 0.0332408 0.00612711)
(0.257233 0.0208763 0.00742813)
(0.385225 0.00771187 0.00729366)
(0.399554 0.0119016 0.00228364)
(0.400435 0.0135095 0.000604569)
(0.400229 0.01389 5.9693e-05)
(0.400218 0.013867 -5.5257e-05)
(0.400431 0.0134275 -0.000570756)
(0.399795 0.0117286 -0.00218241)
(0.386617 0.00755083 -0.00717362)
(0.259688 0.0206128 -0.00736359)
(-0.0429816 -0.0121773 -0.000510773)
(-0.0446685 -0.0125762 -0.000911743)
(-0.0455459 -0.0128618 -0.000708106)
(-0.0462238 -0.0131569 -0.000500318)
(-0.0465503 -0.0133017 -0.000178162)
(-0.046562 -0.013308 0.000145854)
(-0.0462616 -0.0131772 0.000467957)
(-0.0456105 -0.0128941 0.00067272)
(-0.0447742 -0.0126234 0.00088476)
(-0.0430985 -0.012238 0.000503325)
(-0.0593809 -0.00264161 -0.000941373)
(-0.0619908 -0.00316243 -0.00150917)
(-0.0635926 -0.00297717 -0.0012299)
(-0.0648352 -0.00291307 -0.000885424)
(-0.0654229 -0.00285919 -0.000315365)
(-0.0654419 -0.00285613 0.000256427)
(-0.0648977 -0.00290558 0.000826979)
(-0.0636998 -0.00296115 0.00117034)
(-0.0621649 -0.00314671 0.00145902)
(-0.059587 -0.00262077 0.000922389)
(-0.050826 -0.0136634 -0.000391287)
(-0.0536781 -0.0145698 -0.000607594)
(-0.0546443 -0.0147988 -0.000323081)
(-0.0554539 -0.0153597 -0.000325769)
(-0.055761 -0.0155947 -0.000104352)
(-0.0557686 -0.0156081 8.58253e-05)
(-0.0554867 -0.0154029 0.000310514)
(-0.0546993 -0.0148667 0.000302575)
(-0.0537903 -0.0146523 0.000582319)
(-0.0509532 -0.0138045 0.000380818)
(-0.0685336 0.0102643 -0.00234486)
(-0.0603183 0.0135525 -0.00305141)
(-0.0618557 0.0148514 -0.00207663)
(-0.0638222 0.0156723 -0.0017044)
(-0.0646147 0.0159075 -0.000575379)
(-0.0646415 0.0159158 0.000456995)
(-0.0639096 0.0157046 0.00158856)
(-0.0619836 0.0149188 0.00197676)
(-0.0604084 0.0136846 0.00293104)
(-0.0686291 0.0104371 0.00227002)
(0.246007 -0.000408407 0.00164538)
(0.374221 -0.00707177 0.0012804)
(0.388089 -0.00661221 0.000162001)
(0.389652 -0.00696081 -0.000136108)
(0.389778 -0.00715182 -7.11238e-05)
(0.389779 -0.00716578 7.27664e-05)
(0.389686 -0.00702324 0.000148425)
(0.388378 -0.00673415 -0.000137966)
(0.375619 -0.00720295 -0.00125767)
(0.248566 -0.000743507 -0.00162475)
(-0.0422008 -0.000760785 -1.38648e-05)
(-0.0433826 -0.000390615 -3.97925e-05)
(-0.0439929 -0.000214951 -6.80466e-05)
(-0.0444837 -0.000165826 -7.31993e-05)
(-0.0447333 -0.000149453 -2.93386e-05)
(-0.0447439 -0.00015155 2.11404e-05)
(-0.0445174 -0.000170328 6.5658e-05)
(-0.0440492 -0.000220962 6.15659e-05)
(-0.0434672 -0.000392723 3.509e-05)
(-0.0422931 -0.000767568 1.25843e-05)
(-0.0599285 0.00119734 0.000276016)
(-0.0620859 0.00145583 0.000395466)
(-0.0634833 0.00173419 8.74536e-05)
(-0.0645906 0.00187723 -4.25076e-05)
(-0.0651309 0.00193492 -2.82103e-05)
(-0.0651515 0.00193651 1.14981e-05)
(-0.0646566 0.00188409 2.88838e-05)
(-0.0635959 0.00174863 -9.35797e-05)
(-0.0622586 0.00148045 -0.000401487)
(-0.0601357 0.00122489 -0.000281701)
(-0.0493037 -0.00288219 0.000422258)
(-0.0512886 -0.00014542 0.000666132)
(-0.0519644 0.000611153 0.000386616)
(-0.0525554 0.00063994 0.000140254)
(-0.052801 0.000576826 3.3825e-05)
(-0.0528099 0.000567923 -3.27118e-05)
(-0.0525853 0.000612254 -0.000133874)
(-0.052013 0.00057379 -0.000373876)
(-0.0513754 -0.000135593 -0.000659629)
(-0.0493985 -0.00292448 -0.000423783)
(-0.0687639 0.000847388 0.00265352)
(-0.0642382 0.00163732 0.00351378)
(-0.0664125 0.00184263 0.000747352)
(-0.0684675 0.00188743 -0.000140751)
(-0.0692233 0.00189285 -0.000116732)
(-0.0692489 0.00189453 6.25022e-05)
(-0.0685504 0.00189573 9.64053e-05)
(-0.0665476 0.00186231 -0.000719969)
(-0.0644093 0.00167237 -0.00352514)
(-0.0689145 0.000884736 -0.00270622)
(0.245703 -0.0128363 -0.000615063)
(0.372939 -0.00700596 -0.000910103)
(0.386739 -0.00692365 -0.0005372)
(0.388645 -0.00820682 -0.000356024)
(0.388935 -0.00877543 -9.68216e-05)
(0.388941 -0.00879241 9.63311e-05)
(0.388697 -0.00827784 0.000358355)
(0.387055 -0.00702296 0.000527348)
(0.374352 -0.00701102 0.000905093)
(0.248319 -0.0130973 0.000639814)
(-0.0402418 0.0112325 0.000321163)
(-0.0412163 0.0123285 0.000576005)
(-0.0416478 0.012962 0.000399101)
(-0.042008 0.0133707 0.000247933)
(-0.0421947 0.0135489 8.45923e-05)
(-0.0422041 0.0135521 -7.21694e-05)
(-0.042037 0.0133832 -0.000234312)
(-0.0416954 0.012987 -0.000383186)
(-0.0412852 0.0123773 -0.000563667)
(-0.040317 0.0112904 -0.000317209)
(-0.0611604 0.00502056 0.00138189)
(-0.0631209 0.00617005 0.00212151)
(-0.0643688 0.00657046 0.0013169)
(-0.0654032 0.00678602 0.000754992)
(-0.0659124 0.00685415 0.000241351)
(-0.0659336 0.00685611 -0.000214372)
(-0.0654708 0.00679202 -0.000721113)
(-0.0644836 0.0065848 -0.00126751)
(-0.0632949 0.00620313 -0.00207954)
(-0.0613816 0.00505286 -0.00137017)
(-0.0479064 0.0112197 0.00125965)
(-0.049796 0.0200062 0.00188828)
(-0.0502484 0.0222408 0.000976746)
(-0.0506672 0.0231803 0.000523151)
(-0.0508433 0.0233566 0.000152785)
(-0.0508515 0.0233514 -0.000132357)
(-0.0506927 0.0231758 -0.000497503)
(-0.0502898 0.0222606 -0.000935875)
(-0.0498669 0.0201609 -0.00185771)
(-0.0479917 0.0113587 -0.00125461)
(-0.0742588 -0.00316889 0.00950024)
(-0.0761839 -0.00294536 0.0124586)
(-0.0783837 -0.00316592 0.00418841)
(-0.0799056 -0.00354105 0.00165579)
(-0.0804657 -0.00365823 0.000352098)
(-0.0804884 -0.00366014 -0.000340091)
(-0.0799715 -0.00354806 -0.00160455)
(-0.0785152 -0.00317493 -0.00398902)
(-0.0764434 -0.00295086 -0.0123062)
(-0.0745071 -0.00319627 -0.00949431)
(0.256771 -0.0258658 -0.00338944)
(0.379482 0.00574802 -0.0036062)
(0.393601 0.00774841 -0.00167852)
(0.39657 0.00513271 -0.000846235)
(0.397368 0.00394199 -0.000193108)
(0.397386 0.00391238 0.00018585)
(0.39667 0.00501435 0.000823838)
(0.393984 0.00764231 0.0016175)
(0.380902 0.00606325 0.00354897)
(0.259557 -0.0258362 0.0034022)
(-0.0362917 0.0248727 0.000563494)
(-0.0371148 0.0266983 0.00101625)
(-0.0373634 0.027756 0.000714407)
(-0.0375921 0.0285165 0.000475739)
(-0.0377129 0.028863 0.000167525)
(-0.0377207 0.0288719 -0.000137154)
(-0.0376155 0.0285481 -0.000445006)
(-0.0374 0.0278136 -0.000681095)
(-0.0371663 0.0268002 -0.00099017)
(-0.0363468 0.0250057 -0.00055435)
(-0.0617208 0.00954113 0.00251566)