/*--------------------------------*- C++ -*----------------------------------*\
| =========                 |                                                 |
| \\      /  F ield         | OpenFOAM: The Open Source CFD Toolbox           |
|  \\    /   O peration     | Version:  2.3.1                                 |
|   \\  /    A nd           | Web:      www.OpenFOAM.org                      |
|    \\/     M anipulation  |                                                 |
\*---------------------------------------------------------------------------*/
FoamFile
{
    version     2.0;
    format      ascii;
    class       volVectorField;
    location    "2880";
    object      D;
}
// * * * * * * * * * * * * * * * * * * * * * * * * * * * * * * * * * * * * * //

dimensions      [0 1 0 0 0 0 0];

internalField   nonuniform List<vector> 
11800
(
(8.67629e-06 0.000247308 0)
(-1.09727e-05 0.000275533 0)
(6.10414e-06 8.32098e-05 0)
(-6.97041e-06 0.000113211 0)
(-1.00251e-05 0.000275067 0)
(-4.51812e-06 0.000113433 0)
(-1.66648e-06 0.000185609 0)
(-1.58635e-06 0.000143059 0)
(7.2884e-07 2.19168e-05 0)
(1.32682e-06 8.63094e-05 0)
(9.63407e-06 0.000246723 0)
(-8.68688e-06 9.64925e-05 0)
(-8.52068e-09 -6.783e-09 0)
(5.42499e-06 8.27072e-05 0)
(-6.18316e-06 0.000113688 0)
(5.96187e-06 1.3443e-05 0)
(-9.35083e-07 0.000185068 0)
(-9.06032e-07 0.000142547 0)
(4.10876e-07 2.21597e-05 0)
(8.18368e-07 8.58817e-05 0)
(-5.31622e-06 0.000113015 0)
(-7.96026e-06 9.68758e-05 0)
(-1.31037e-06 4.74775e-06 0)
(-1.3986e-06 4.94421e-06 0)
(5.31897e-06 1.53562e-05 0)
(-2.09574e-06 7.87422e-06 0)
(-8.51425e-06 5.75726e-05 0)
(1.23558e-05 0.000166354 0)
(-7.58627e-06 4.36692e-05 0)
(-6.56753e-06 3.13971e-05 0)
(1.30863e-05 0.000210321 0)
(5.41795e-08 3.69622e-06 0)
(2.7275e-06 1.0124e-05 0)
(-6.67404e-06 0.000282746 0)
(5.40401e-06 0.000281473 0)
(-1.49186e-05 0.00022461 0)
(5.03378e-06 0.000282444 0)
(2.68435e-06 1.04087e-05 0)
(-1.62949e-06 0.00019604 0)
(1.33007e-06 9.47842e-05 0)
(-8.37168e-06 5.82179e-05 0)
(-7.46683e-06 4.42445e-05 0)
(1.20706e-05 0.000165403 0)
(-6.47183e-06 3.19014e-05 0)
(1.27958e-05 0.00020932 0)
(5.68694e-06 1.355e-05 0)
(1.50593e-06 5.62217e-06 0)
(1.67894e-06 5.53259e-06 0)
(-2.55617e-06 0.000196208 0)
(2.07359e-06 9.49175e-05 0)
(-1.41794e-05 0.000144957 0)
(-1.51452e-05 0.000187519 0)
(-1.39909e-06 0.000244668 0)
(7.60014e-08 3.50759e-06 0)
(-7.31118e-06 1.60111e-05 0)
(9.93903e-07 8.27194e-07 0)
(-1.86167e-05 0.000286621 0)
(-4.68545e-06 8.01084e-05 0)
(5.34363e-06 0.000116776 0)
(-3.40627e-06 7.6958e-05 0)
(1.98409e-06 2.63622e-06 0)
(-2.40353e-06 0.000244852 0)
(-4.07484e-06 7.99276e-05 0)
(4.6589e-06 0.000116993 0)
(4.98208e-06 1.51214e-05 0)
(-1.77736e-05 0.000253398 0)
(-1.47098e-05 0.000144324 0)
(-1.57654e-05 0.000186824 0)
(-1.76828e-05 0.000286159 0)
(-2.19919e-06 8.12992e-06 0)
(-5.95033e-06 0.000283539 0)
(-1.04992e-05 0.000282006 0)
(-1.08043e-05 0.000281004 0)
(-9.39374e-08 1.0548e-07 0)
(2.11874e-06 2.74942e-06 0)
(-1.40531e-05 0.000225239 0)
(6.52796e-06 2.12167e-05 0)
(-1.80619e-05 0.000254344 0)
(-1.43844e-05 0.000256491 0)
(-1.34394e-05 0.000257347 0)
(-6.96972e-06 1.57919e-05 0)
(1.05972e-06 9.84194e-05 0)
(9.88781e-06 0.000279799 0)
(8.82529e-06 0.000279972 0)
(-1.28293e-06 0.000101148 0)
(-6.31159e-06 3.53554e-05 0)
(1.18296e-05 0.000202691 0)
(-7.20722e-06 4.81843e-05 0)
(-8.02811e-06 6.26175e-05 0)
(1.11281e-05 0.000159124 0)
(-3.28647e-07 0.000239383 0)
(2.89939e-06 9.6239e-06 0)
(-8.9376e-06 0.000258143 0)
(1.84602e-05 0.000288813 0)
(2.92401e-06 0.000124729 0)
(-2.27024e-09 -1.72658e-09 0)
(5.86655e-11 -3.66622e-10 0)
(2.26955e-09 -1.7262e-09 0)
(-1.98359e-07 0.000247674 0)
(-8.24734e-06 9.86249e-05 0)
(1.58882e-05 0.000287781 0)
(9.61058e-06 0.000108353 0)
(-3.51872e-06 1.40607e-05 0)
(-7.94813e-07 1.08543e-05 0)
(-5.23697e-07 0.000273835 0)
(9.64417e-07 2.29258e-05 0)
(-2.0348e-06 0.000140968 0)
(-2.11456e-06 0.000183293 0)
(3.07985e-06 5.25448e-06 0)
(7.25873e-06 4.81628e-05 0)
(6.35785e-06 3.53361e-05 0)
(8.0852e-06 6.25932e-05 0)
(-1.20057e-05 0.000202716 0)
(-1.12961e-05 0.000159158 0)
(1.71493e-06 8.45529e-05 0)
(2.43718e-06 4.79133e-06 0)
(1.76076e-05 0.000254432 0)
(-7.21125e-06 0.000261162 0)
(2.48188e-06 4.61656e-06 0)
(-1.21012e-06 8.73821e-05 0)
(-7.26093e-07 2.13385e-05 0)
(1.60451e-06 0.000186972 0)
(1.52332e-06 0.000144281 0)
(-2.22975e-06 0.000179311 0)
(-8.99588e-06 0.000259115 0)
(-7.93528e-07 0.000246901 0)
(-5.7814e-06 0.000273943 0)
(-1.34975e-06 0.000273199 0)
(-1.99783e-05 0.000296105 0)
(-2.0692e-05 0.000295389 0)
(-5.83041e-07 2.62805e-07 0)
(-2.64083e-06 6.21102e-06 0)
(1.21361e-05 0.000196675 0)
(-6.77452e-06 3.86535e-05 0)
(1.13744e-05 0.000153474 0)
(-7.67812e-06 5.19278e-05 0)
(-8.5056e-06 6.67697e-05 0)
(1.11973e-05 0.000196853 0)
(-6.24325e-06 3.85384e-05 0)
(1.04957e-05 0.000153639 0)
(-7.07774e-06 5.18003e-05 0)
(-7.84201e-06 6.66309e-05 0)
(-1.64984e-06 1.97651e-05 0)
(3.92838e-06 0.000190549 0)
(3.66618e-06 0.000147728 0)
(-3.12405e-06 9.02298e-05 0)
(1.51227e-05 9.90331e-05 0)
(-1.50408e-05 9.68754e-05 0)
(9.4534e-06 0.000109138 0)
(-1.11296e-06 1.15179e-05 0)
(-9.94796e-06 0.00023828 0)
(-9.86202e-06 0.00023954 0)
(4.84505e-06 0.000279322 0)
(-1.11245e-05 0.000224922 0)
(4.45157e-06 0.000159045 0)
(4.82888e-06 0.000202585 0)
(-1.23922e-05 0.000178535 0)
(-1.14996e-05 0.000136543 0)
(5.84007e-06 2.52645e-05 0)
(-9.17986e-07 0.000240279 0)
(3.3483e-06 5.34776e-06 0)
(-1.01673e-05 0.000225144 0)
(6.83304e-06 2.15233e-05 0)
(-4.55046e-06 6.51707e-05 0)
(-4.09904e-06 5.04744e-05 0)
(-3.60644e-06 3.73592e-05 0)
(6.18986e-06 0.000155464 0)
(6.59641e-06 0.000198807 0)
(-2.95848e-06 3.67394e-06 0)
(-5.36147e-06 2.43056e-05 0)
(1.15505e-05 0.00018051 0)
(1.07108e-05 0.000138396 0)
(2.57296e-06 0.000183091 0)
(-1.69942e-05 0.000223566 0)
(-1.71655e-05 0.000224904 0)
(6.12487e-06 1.5383e-05 0)
(6.13271e-06 1.58066e-05 0)
(6.71748e-06 4.67717e-05 0)
(7.49886e-06 6.10458e-05 0)
(5.86632e-06 3.41121e-05 0)
(-1.06244e-05 0.0001613 0)
(-1.12782e-05 0.000205007 0)
(4.52853e-06 0.00015805 0)
(4.85565e-06 0.000201561 0)
(4.9307e-06 9.64877e-05 0)
(-2.36644e-06 9.00265e-05 0)
(-1.25575e-06 1.98668e-05 0)
(2.97101e-06 0.000190294 0)
(2.77163e-06 0.00014749 0)
(-3.88361e-06 0.000235028 0)
(-1.31969e-06 4.13948e-05 0)
(-1.48778e-06 5.50378e-05 0)
(-1.46266e-05 0.000251451 0)
(-4.05736e-07 9.45397e-06 0)
(-1.41318e-05 0.000118663 0)
(1.21947e-05 7.87353e-05 0)
(1.4255e-07 1.37164e-07 0)
(-8.75827e-06 0.000283196 0)
(1.74848e-05 0.000255455 0)
(-5.08561e-07 3.05008e-07 0)
(1.15142e-05 0.000267728 0)
(1.43854e-05 0.000228863 0)
(1.54292e-05 0.00022905 0)
(-4.60867e-07 0.000275221 0)
(-1.18119e-06 0.000276101 0)
(8.15289e-06 7.68353e-05 0)
(7.20075e-06 7.71747e-05 0)
(-9.64236e-06 0.000120677 0)
(-8.49641e-06 0.000120255 0)
(5.74219e-07 2.58912e-07 0)
(-1.61026e-06 1.38155e-05 0)
(-1.81458e-06 7.70632e-06 0)
(-4.25392e-08 1.60269e-08 0)
(5.51674e-06 9.12931e-06 0)
(-1.3234e-07 4.20973e-08 0)
(7.14874e-07 7.56919e-06 0)
(-9.93266e-06 0.000273775 0)
(-4.82589e-06 3.45089e-05 0)
(-5.50752e-06 4.72376e-05 0)
(-6.14402e-06 6.15696e-05 0)
(9.11816e-06 0.000204191 0)
(8.60954e-06 0.00016055 0)
(5.81194e-07 0.000189942 0)
(5.40178e-07 0.000147158 0)
(-2.60181e-07 2.00088e-05 0)
(-4.92811e-07 8.97591e-05 0)
(-1.94204e-07 3.22942e-08 0)
(7.47522e-07 2.50075e-05 0)
(-1.50585e-06 0.0001368 0)
(-4.50884e-06 8.67046e-05 0)
(1.04445e-06 2.46411e-05 0)
(-2.11562e-06 0.000137522 0)
(-6.79193e-06 0.00025908 0)
(8.40492e-06 9.71926e-05 0)
(7.83005e-06 9.64483e-05 0)
(4.23166e-08 1.59518e-08 0)
(1.93729e-07 3.22215e-08 0)
(-1.31606e-05 0.000241165 0)
(-1.26612e-05 0.000242186 0)
(-1.24546e-05 8.23453e-05 0)
(1.39928e-05 0.000114445 0)
(1.11877e-05 0.00020492 0)
(1.05362e-05 0.000161223 0)
(-5.86733e-06 3.41624e-05 0)
(-6.72103e-06 4.68254e-05 0)
(-7.50266e-06 6.11058e-05 0)
(-4.13669e-07 0.000245915 0)
(-4.95502e-06 2.32553e-05 0)
(1.09189e-05 0.000182763 0)
(1.01406e-05 0.000140486 0)
(6.71123e-06 9.82051e-05 0)
(5.65092e-06 0.000231928 0)
(8.87963e-06 0.000289159 0)
(9.15373e-07 7.45966e-06 0)
(-3.30837e-06 7.7746e-05 0)
(-9.81144e-09 2.76221e-06 0)
(1.31849e-07 4.1963e-08 0)
(3.17325e-06 8.20219e-05 0)
(2.72985e-06 8.11681e-05 0)
(-3.45506e-06 0.000114654 0)
(-2.96128e-06 0.000115499 0)
(6.12695e-06 6.15508e-05 0)
(5.49251e-06 4.72208e-05 0)
(4.80152e-06 3.45002e-05 0)
(-8.6476e-06 0.000160551 0)
(-9.18422e-06 0.000204218 0)
(-4.86915e-06 0.000283281 0)
(1.67123e-06 2.04043e-06 0)
(-7.04444e-09 0.000163042 0)
(-1.95399e-08 3.30391e-05 0)
(6.45394e-06 0.000273351 0)
(5.27088e-06 9.57914e-05 0)
(-2.04872e-05 0.000270115 0)
(6.05824e-06 9.89118e-05 0)
(2.38541e-07 1.7535e-07 0)
(1.68401e-05 0.000220807 0)
(1.69374e-05 0.000219568 0)
(-1.03172e-05 0.000140664 0)
(-1.1108e-05 0.000182948 0)
(-9.218e-06 0.000140311 0)
(-9.92714e-06 0.000182571 0)
(4.9913e-06 2.31699e-05 0)
(4.47468e-06 2.33229e-05 0)
(5.01072e-06 0.000129236 0)
(5.96169e-06 0.000129086 0)
(5.43355e-06 0.000170623 0)
(6.46725e-06 0.000170459 0)
(-2.78488e-06 2.90651e-05 0)
(-3.31639e-06 2.91595e-05 0)
(-5.86429e-07 1.30949e-05 0)
(2.94982e-06 8.35942e-06 0)
(2.76158e-06 8.07076e-06 0)
(2.8198e-06 6.1113e-06 0)
(4.83066e-06 0.000232924 0)
(-1.67211e-05 0.000221213 0)
(-1.68105e-05 0.000219927 0)
(6.32574e-06 1.71775e-05 0)
(6.20147e-06 1.66888e-05 0)
(1.3268e-05 9.90546e-05 0)
(1.34466e-05 0.000100163 0)
(-1.31873e-05 9.67987e-05 0)
(-1.32571e-05 9.57087e-05 0)
(5.9791e-06 0.000279135 0)
(-1.64098e-05 0.000282772 0)
(-1.57737e-05 0.000238077 0)
(3.73273e-06 4.22172e-06 0)
(-9.6417e-06 0.000279226 0)
(-8.61043e-06 0.00027827 0)
(4.07523e-06 0.000130711 0)
(-2.53772e-06 0.000117496 0)
(2.24696e-06 7.94972e-05 0)
(-1.13107e-05 9.94236e-05 0)
(1.10675e-05 9.63354e-05 0)
(-5.3834e-06 1.68805e-05 0)
(-1.58464e-07 1.00793e-07 0)
(8.50044e-07 3.47425e-06 0)
(1.00697e-06 8.48203e-05 0)
(-9.52648e-06 8.54206e-05 0)
(1.02352e-05 0.00011078 0)
(-5.4892e-06 7.77773e-05 0)
(6.50667e-06 0.000119549 0)
(3.28866e-06 0.000208108 0)
(4.54072e-06 0.000207661 0)
(-1.95237e-06 4.48537e-05 0)
(-2.69352e-06 4.51237e-05 0)
(-2.18687e-06 5.8917e-05 0)
(-3.01558e-06 5.92178e-05 0)
(5.17373e-07 2.27692e-05 0)
(-1.11493e-06 0.000141284 0)
(-1.1289e-06 0.00018365 0)
(-1.82307e-06 0.000268808 0)
(2.57877e-06 6.07236e-06 0)
(-5.17965e-07 0.000114486 0)
(-7.79474e-06 0.000275547 0)
(1.07107e-06 8.5809e-07 0)
(6.95731e-06 0.000163822 0)
(-3.79092e-06 3.26767e-05 0)
(-1.17853e-05 0.000115697 0)
(-1.10692e-05 0.000115121 0)
(1.03001e-05 8.1187e-05 0)
(9.70888e-06 8.16794e-05 0)
(-1.16708e-05 0.000287339 0)
(-1.17993e-05 0.000286107 0)
(-1.93409e-06 1.31768e-05 0)
(-2.29305e-06 1.3127e-05 0)
(9.30693e-07 3.64114e-06 0)
(-2.20782e-06 3.77867e-06 0)
(5.43259e-07 0.000120127 0)
(3.38533e-06 2.35912e-05 0)
(2.84612e-06 2.37413e-05 0)
(-6.93726e-06 0.000139698 0)
(-5.81748e-06 0.000139368 0)
(-7.47292e-06 0.00018192 0)
(-6.26794e-06 0.000181567 0)
(-1.51356e-05 0.000230408 0)
(-1.40067e-05 0.0002305 0)
(-3.3272e-06 6.95999e-05 0)
(-3.07717e-06 5.44622e-05 0)
(-2.72727e-06 4.08852e-05 0)
(4.7779e-06 0.000215001 0)
(-8.26632e-07 0.000243528 0)
(9.957e-06 9.62427e-05 0)
(9.42718e-06 9.70782e-05 0)
(4.40736e-06 0.000186006 0)
(4.21575e-06 0.000143442 0)
(-1.99723e-06 2.17487e-05 0)
(1.87287e-06 2.43495e-05 0)
(1.54031e-06 2.48233e-05 0)
(-3.43659e-06 0.000179275 0)
(-4.08731e-06 0.000180199 0)
(-3.78744e-06 0.000138117 0)
(-3.08799e-06 0.000137173 0)
(-3.9695e-06 2.23229e-05 0)
(8.30115e-06 0.000142339 0)
(8.92642e-06 0.000184761 0)
(-1.08248e-07 1.02987e-06 0)
(1.48037e-05 0.000109812 0)
(-1.36178e-05 8.65638e-05 0)
(-6.09689e-08 9.58201e-07 0)
(-4.46967e-06 0.000204878 0)
(-5.24063e-06 0.000206005 0)
(-4.10176e-06 0.000161263 0)
(-4.80215e-06 0.00016233 0)
(2.61227e-06 3.34731e-05 0)
(2.24951e-06 3.40605e-05 0)
(3.08557e-06 4.61116e-05 0)
(2.64738e-06 4.67814e-05 0)
(3.44826e-06 6.03203e-05 0)
(2.95521e-06 6.10682e-05 0)
(1.66757e-05 0.000230854 0)
(1.69865e-05 0.000232027 0)
(-1.57552e-06 7.76931e-06 0)
(6.2555e-06 0.000164637 0)
(-3.38528e-06 3.22258e-05 0)
(5.4928e-06 2.54817e-05 0)
(-1.07653e-05 0.000136091 0)
(-1.16285e-05 0.000178022 0)
(-1.5429e-07 4.6893e-08 0)
(2.16061e-06 0.000240595 0)
(5.42422e-06 2.43104e-05 0)
(-1.0915e-05 0.000138391 0)
(-1.17812e-05 0.000180466 0)
(4.12662e-06 7.09625e-06 0)
(-8.24225e-06 0.000260786 0)
(5.20714e-06 1.94043e-05 0)
(-1.30106e-05 0.000214074 0)
(-2.7891e-06 1.04333e-05 0)
(-2.97543e-06 1.08161e-05 0)
(2.91619e-06 1.07033e-05 0)
(-1.41199e-06 0.000114309 0)
(-1.08822e-08 -8.00742e-09 0)
(-8.75193e-06 0.000285765 0)
(-1.38332e-07 5.50493e-08 0)
(1.53648e-07 4.67219e-08 0)
(-4.07471e-06 2.35491e-05 0)
(8.90866e-06 0.000182055 0)
(8.26938e-06 0.000139824 0)
(6.86064e-06 0.000240974 0)
(-1.9726e-05 0.000258552 0)
(2.52529e-06 0.000106992 0)
(-1.63315e-06 0.000104193 0)
(-4.49318e-07 1.09173e-05 0)
(-1.26068e-06 1.32065e-06 0)
(-7.85573e-09 -7.07323e-09 0)
(-4.92431e-06 7.85038e-05 0)
(5.83263e-06 0.000118711 0)
(4.28565e-07 1.50306e-07 0)
(-6.6029e-07 0.000102658 0)
(-6.23224e-07 0.000101666 0)
(-2.10915e-08 8.61734e-05 0)
(-1.19707e-07 2.2026e-05 0)
(2.14406e-07 0.000142824 0)
(1.91729e-07 0.000185435 0)
(-4.30856e-07 1.5108e-07 0)
(1.76391e-06 1.18091e-05 0)
(-6.81191e-06 0.000210584 0)
(3.89889e-06 4.34319e-05 0)
(4.37746e-06 5.73211e-05 0)
(4.81221e-06 7.27274e-05 0)
(1.42998e-05 0.000274289 0)
(-5.28087e-06 2.10673e-05 0)
(1.22631e-05 0.000187745 0)
(1.14274e-05 0.000145126 0)
(-8.11572e-06 0.000253 0)
(1.18783e-06 3.03749e-06 0)
(1.09297e-05 0.000248298 0)
(-2.35737e-06 3.72172e-06 0)
(7.65682e-06 0.000275381 0)
(-5.87282e-06 0.000210607 0)
(3.35623e-06 4.34131e-05 0)
(3.76834e-06 5.73013e-05 0)
(4.14533e-06 7.27018e-05 0)
(1.03758e-06 2.87866e-06 0)
(5.04559e-06 0.000168812 0)
(-2.63184e-06 2.9997e-05 0)
(-8.93513e-07 1.17599e-05 0)
(-1.43599e-05 0.000249181 0)
(-5.34796e-06 6.54122e-05 0)
(-4.81895e-06 5.06937e-05 0)
(-4.24157e-06 3.75543e-05 0)
(7.2257e-06 0.00015521 0)
(7.7012e-06 0.000198534 0)
(1.97097e-05 0.000290711 0)
(1.14729e-05 0.000255101 0)
(1.27205e-05 0.000254663 0)
(1.61192e-07 1.13055e-07 0)
(7.13819e-06 7.80651e-05 0)
(-8.36195e-06 0.000119196 0)
(-3.63977e-06 7.91801e-05 0)
(4.24402e-06 0.000117954 0)
(-1.22913e-06 0.000127058 0)
(-9.34668e-07 0.000206216 0)
(5.89792e-07 6.01643e-05 0)
(5.27779e-07 4.59694e-05 0)
(2.88663e-08 3.23582e-05 0)
(-2.07014e-07 0.000123469 0)
(-9.51907e-08 0.000164335 0)
(9.01902e-06 0.000290318 0)
(5.12607e-07 1.21124e-05 0)
(-2.23397e-07 2.8029e-06 0)
(1.72561e-06 0.000174468 0)
(8.69725e-08 2.89868e-06 0)
(-1.33997e-06 9.04861e-06 0)
(3.34722e-06 3.22796e-05 0)
(-6.30767e-06 0.00016453 0)
(-1.2597e-07 1.39314e-07 0)
(-1.33008e-05 0.000249065 0)
(-1.11282e-06 2.16053e-05 0)
(2.35796e-06 0.000186425 0)
(2.33914e-06 0.00014372 0)
(3.01418e-07 7.23612e-08 0)
(-3.95826e-06 7.21309e-06 0)
(4.35849e-06 5.87408e-05 0)
(3.89074e-06 4.46995e-05 0)
(-6.69917e-06 0.000208409 0)
(1.29253e-06 8.16194e-05 0)
(-9.00009e-06 0.000282085 0)
(-1.51489e-07 2.1245e-08 0)
(-5.17995e-06 1.12805e-05 0)
(3.35705e-06 6.21404e-06 0)
(-3.38514e-06 3.71973e-06 0)
(1.00242e-05 9.80055e-05 0)
(7.61916e-06 0.00011922 0)
(-6.55194e-06 7.80382e-05 0)
(4.68284e-07 3.2028e-05 0)
(-1.09322e-06 0.000123937 0)
(-9.15646e-07 0.000164947 0)
(9.56008e-06 0.000245476 0)
(8.90658e-06 0.000107345 0)
(4.63133e-06 0.000284265 0)
(4.46149e-06 0.000285327 0)
(1.29223e-06 0.000118663 0)
(1.76599e-06 8.10081e-05 0)
(1.51109e-07 2.11968e-08 0)
(-1.28549e-05 0.000222576 0)
(4.68373e-06 1.61032e-05 0)
(1.62031e-08 2.23006e-07 0)
(2.45749e-06 0.000158967 0)
(3.21263e-06 0.000159518 0)
(4.40727e-09 1.94627e-08 0)
(-2.46438e-06 6.01235e-06 0)
(6.10317e-06 5.97239e-05 0)
(5.45641e-06 4.55832e-05 0)
(4.755e-06 3.30163e-05 0)
(-8.75809e-06 0.000163053 0)
(-9.28768e-06 0.000206957 0)
(8.09769e-06 0.000102165 0)
(1.17919e-06 0.000240853 0)
(-5.23966e-06 0.000271609 0)
(-4.96108e-06 0.000273042 0)
(-5.09958e-07 0.000209557 0)
(-4.3795e-07 0.000210709 0)
(3.5559e-07 4.33155e-05 0)
(3.24036e-07 4.39559e-05 0)
(3.99082e-07 5.71954e-05 0)
(3.63223e-07 5.79133e-05 0)
(2.61012e-07 7.25877e-05 0)
(3.12816e-07 7.3355e-05 0)
(6.34547e-07 0.000119059 0)
(1.16767e-06 0.00012097 0)
(2.03083e-06 0.000184257 0)
(-5.20556e-07 0.000126746 0)
(-3.02237e-07 7.2548e-08 0)
(-3.37643e-07 2.67315e-06 0)
(4.44378e-06 0.000167916 0)
(-2.33967e-06 3.04617e-05 0)
(1.18163e-06 3.71054e-06 0)
(1.73581e-05 0.000275638 0)
(-1.32767e-06 0.000211628 0)
(8.20322e-07 4.28283e-05 0)
(9.21781e-07 5.66489e-05 0)
(9.07909e-07 7.19537e-05 0)
(-1.32728e-05 0.000231599 0)
(4.57603e-06 8.29408e-05 0)
(6.76745e-06 0.000292574 0)
(7.65364e-06 0.000291923 0)
(-1.33183e-06 9.32998e-06 0)
(-8.47505e-07 0.000162187 0)
(4.41935e-07 3.35102e-05 0)
(1.98019e-07 2.02765e-07 0)
(1.70324e-05 0.000283414 0)
(-2.34829e-07 4.72114e-06 0)
(-3.214e-06 4.8601e-05 0)
(-3.57801e-06 6.30928e-05 0)
(-4.28073e-06 6.37549e-05 0)
(-3.84882e-06 4.9198e-05 0)
(-2.7848e-06 3.56945e-05 0)
(-3.36814e-06 3.62341e-05 0)
(5.63347e-06 0.000157404 0)
(5.99931e-06 0.00020088 0)
(2.46172e-06 3.36725e-06 0)
(-1.58559e-07 9.65367e-08 0)
(-1.47052e-05 0.0001917 0)
(-1.53192e-05 0.000282836 0)
(4.99739e-06 0.000120875 0)
(-4.3169e-07 4.83099e-06 0)
(-7.95899e-06 0.000157119 0)
(-8.46976e-06 0.000200566 0)
(4.55059e-06 3.64539e-05 0)
(5.18164e-06 4.94435e-05 0)
(5.76041e-06 6.4024e-05 0)
(7.37266e-06 0.000241774 0)
(1.67481e-05 0.000284421 0)
(-9.03117e-06 9.88855e-05 0)
(3.72797e-06 3.26679e-05 0)
(-6.99413e-06 0.000163815 0)
(4.78153e-06 0.000121815 0)
(-1.82064e-06 8.68462e-05 0)
(4.82723e-06 5.92409e-05 0)
(4.31252e-06 4.51478e-05 0)
(-7.38387e-06 0.000207659 0)
(-1.34247e-05 0.000100021 0)
(1.30888e-05 9.59052e-05 0)
(1.30882e-05 9.69737e-05 0)
(-1.32486e-05 9.88859e-05 0)
(-6.21968e-06 1.66794e-05 0)
(-6.40155e-06 1.71977e-05 0)
(-6.22937e-06 9.69592e-05 0)
(-3.19009e-06 3.80876e-06 0)
(-1.00761e-05 9.77024e-05 0)
(-1.4745e-06 0.000232941 0)
(-1.30552e-06 1.5676e-06 0)
(1.01289e-05 5.70213e-05 0)
(9.01804e-06 4.31844e-05 0)
(-1.42646e-05 0.00014622 0)
(2.30469e-06 5.92776e-05 0)
(2.05919e-06 4.51766e-05 0)
(-3.54667e-06 0.000207565 0)
(4.75549e-06 1.43888e-05 0)
(7.88111e-06 0.000118255 0)
(-6.82362e-06 7.88757e-05 0)
(-3.76417e-06 4.2413e-06 0)
(4.0447e-06 0.000184994 0)
(3.86624e-06 0.000142536 0)
(-1.85317e-06 2.21774e-05 0)
(1.17349e-05 0.000174697 0)
(-5.76742e-06 2.71014e-05 0)
(1.08373e-05 0.000133015 0)
(-6.57955e-06 1.6458e-05 0)
(8.26729e-06 0.000272154 0)
(9.4824e-06 0.000271757 0)
(9.13554e-06 0.000206964 0)
(8.65982e-06 0.000163071 0)
(-4.74584e-06 3.31105e-05 0)
(-5.41962e-06 4.55782e-05 0)
(-6.06251e-06 5.97185e-05 0)
(-1.37528e-06 1.35911e-06 0)
(-7.26322e-06 0.000252741 0)
(7.92588e-06 0.000161264 0)
(-4.41124e-06 3.41026e-05 0)
(-8.35904e-07 1.04426e-06 0)
(6.77105e-06 0.000275202 0)
(1.66036e-06 1.36815e-06 0)
(1.37733e-06 1.03769e-06 0)
(3.48596e-06 4.97516e-06 0)
(8.18739e-06 0.000221233 0)
(-1.38705e-05 0.000227319 0)
(1.84585e-05 0.000275989 0)
(3.53022e-06 5.22956e-06 0)
(8.10995e-06 0.000107312 0)
(1.11122e-05 0.000234565 0)
(-1.78602e-05 0.000221805 0)
(6.58413e-06 1.64943e-05 0)
(-4.10282e-06 0.000236037 0)
(1.66913e-06 5.94615e-05 0)
(1.49182e-06 4.53406e-05 0)
(-2.57687e-06 0.000207281 0)
(-6.21615e-07 2.99422e-06 0)
(4.73665e-06 0.000127528 0)
(1.36923e-07 5.45308e-08 0)
(-5.47634e-06 1.11718e-05 0)
(-9.67838e-07 0.000104841 0)
(-2.44967e-06 2.02646e-05 0)
(-2.85077e-06 2.03982e-05 0)
(5.38691e-06 0.00014666 0)
(6.25417e-06 0.000146387 0)
(6.7064e-06 0.000189109 0)
(5.77561e-06 0.000189402 0)
(1.61266e-07 6.04219e-07 0)
(-4.20879e-08 7.53538e-06 0)
(-9.69014e-06 0.00013178 0)
(-1.05024e-05 0.000173362 0)
(5.18791e-06 2.77412e-05 0)
(-3.05667e-06 1.65259e-05 0)
(-1.8187e-06 0.000178248 0)
(-2.7718e-06 7.08651e-06 0)
(5.66302e-06 0.00027259 0)
(-4.57342e-06 8.93071e-05 0)
(-5.29867e-06 8.90825e-05 0)
(1.57943e-07 1.60501e-07 0)
(-3.03095e-06 9.23624e-05 0)
(-1.54103e-06 1.86449e-05 0)
(3.53258e-06 0.000150251 0)
(3.77854e-06 0.000193247 0)
(-4.24739e-06 0.000178277 0)
(-3.73933e-06 0.000136258 0)
(1.88828e-06 2.5296e-05 0)
(2.51607e-06 9.50724e-06 0)
(2.33693e-06 9.16227e-06 0)
(1.21414e-06 8.90465e-05 0)
(-1.58383e-06 0.000189039 0)
(-1.48492e-06 0.000146297 0)
(6.55064e-07 2.04029e-05 0)
(-1.45583e-06 3.51297e-05 0)
(-2.61018e-06 7.28415e-06 0)
(1.05522e-05 0.000278994 0)
(-1.03031e-05 0.000166896 0)
(7.94094e-06 7.85644e-05 0)
(-9.26097e-06 0.000118635 0)
(1.12481e-05 0.000235623 0)
(-1.03531e-05 7.22177e-05 0)
(-9.43067e-06 5.68525e-05 0)
(1.26443e-05 0.000126278 0)
(-8.39325e-06 4.30312e-05 0)
(-7.26537e-06 3.08626e-05 0)
(1.38027e-05 0.000167418 0)
(1.45892e-05 0.000211499 0)
(-3.79229e-06 0.000202389 0)
(-3.56878e-06 0.000158828 0)
(2.27774e-06 4.82873e-05 0)
(1.99628e-06 3.54314e-05 0)
(2.53645e-06 6.27453e-05 0)
(2.17816e-06 4.89813e-05 0)
(-3.60208e-06 0.000201255 0)
(2.42291e-06 6.35169e-05 0)
(1.91179e-06 3.60408e-05 0)
(-3.38763e-06 0.000157761 0)
(-2.00334e-06 0.000256713 0)
(-4.06847e-06 5.33692e-06 0)
(-4.40873e-06 2.50569e-05 0)
(9.33522e-06 0.000178837 0)
(8.64632e-06 0.00013684 0)
(-2.77023e-06 3.3739e-05 0)
(5.02644e-06 0.000161882 0)
(1.38493e-05 0.000200542 0)
(1.30114e-05 0.000157108 0)
(-7.50944e-06 3.65504e-05 0)
(-8.55068e-06 4.95375e-05 0)
(-9.5048e-06 6.41159e-05 0)
(1.45919e-05 0.000218873 0)
(1.59265e-05 0.000218594 0)
(3.58016e-07 6.43084e-06 0)
(-1.47515e-06 0.000103126 0)
(-3.93846e-06 1.08907e-05 0)
(2.0169e-07 3.76702e-07 0)
(-3.87642e-06 1.38307e-05 0)
(-6.21349e-07 0.000233406 0)
(1.61015e-07 6.15451e-06 0)
(-3.20761e-06 0.000110509 0)
(1.32311e-05 0.000146307 0)
(-6.02581e-06 2.05698e-05 0)
(1.41867e-05 0.000189006 0)
(-1.33359e-08 -9.24053e-09 0)
(8.81596e-07 0.000174635 0)
(2.53443e-07 1.06727e-07 0)
(1.72968e-07 1.27715e-07 0)
(2.34748e-06 0.000125483 0)
(-2.89537e-07 2.3443e-07 0)
(1.07841e-05 0.00028108 0)
(8.03309e-07 0.000159472 0)
(-4.32371e-07 3.5023e-05 0)
(2.36031e-06 1.40785e-05 0)
(1.48292e-06 0.000158976 0)
(-8.38156e-07 3.52789e-05 0)
(-1.42568e-07 3.1183e-06 0)
(-1.01268e-05 5.69927e-05 0)
(-9.01491e-06 4.31593e-05 0)
(-7.80468e-06 3.09826e-05 0)
(-6.49192e-06 2.06197e-05 0)
(1.42427e-05 0.000146251 0)
(1.48034e-05 0.000167234 0)
(1.52719e-05 0.000188943 0)
(1.56526e-05 0.000211307 0)
(-6.93318e-06 0.000227991 0)
(-6.16106e-06 0.000271081 0)
(-1.99044e-05 0.000223826 0)
(7.18216e-06 1.57965e-05 0)
(4.5405e-06 0.000287394 0)
(5.28197e-06 0.000286155 0)
(1.41101e-06 0.000155455 0)
(1.53016e-06 0.000198822 0)
(-1.09317e-06 6.52467e-05 0)
(-9.84615e-07 5.05392e-05 0)
(-8.66144e-07 3.74119e-05 0)
(-5.71097e-06 1.65014e-05 0)
(2.079e-06 1.18326e-05 0)
(-7.72237e-06 6.83555e-05 0)
(1.01971e-05 0.000151305 0)
(-6.98476e-06 5.33598e-05 0)
(-6.179e-06 3.99177e-05 0)
(1.08963e-05 0.000194363 0)
(-4.33942e-06 1.82869e-05 0)
(1.10335e-05 0.000216905 0)
(1.85595e-06 9.87731e-05 0)
(-1.16058e-06 0.000242301 0)
(1.14217e-06 5.70709e-07 0)
(-8.50443e-07 0.000212748 0)
(5.43426e-07 4.21902e-05 0)
(6.11208e-07 5.59324e-05 0)
(5.67313e-07 7.1164e-05 0)
(3.45127e-06 0.000251032 0)
(-4.73402e-07 3.00271e-07 0)
(1.75073e-05 0.00024701 0)
(-2.63429e-06 0.00010469 0)
(-7.98759e-08 1.7181e-07 0)
(6.26259e-06 0.000148949 0)
(-2.76521e-06 1.92422e-05 0)
(6.70341e-06 0.000191852 0)
(1.37998e-07 1.07734e-07 0)
(-3.7119e-06 2.32168e-05 0)
(7.58952e-06 0.000140477 0)
(8.1724e-06 0.000182759 0)
(1.28851e-06 1.69058e-06 0)
(-5.33604e-06 9.12803e-05 0)
(1.12562e-06 9.76025e-05 0)
(-1.2128e-05 0.000264002 0)
(1.11495e-06 0.000156302 0)
(1.1886e-06 0.000199703 0)
(-9.23579e-07 6.46182e-05 0)
(-7.28747e-07 3.69149e-05 0)
(-8.3111e-07 4.99723e-05 0)
(1.7975e-06 9.95039e-05 0)
(-2.53639e-07 9.64825e-07 0)
(-2.24714e-07 3.2817e-06 0)
(5.29383e-07 0.000233026 0)
(1.1939e-05 0.000106995 0)
(-1.12088e-05 8.90901e-05 0)
(-8.51313e-06 0.000295436 0)
(-1.93213e-05 0.000193026 0)
(-1.807e-05 0.000150077 0)
(-1.87512e-05 0.000171192 0)
(-1.72748e-05 0.000129805 0)
(9.49187e-06 2.9026e-05 0)
(1.10294e-05 4.08752e-05 0)
(1.24419e-05 5.44095e-05 0)
(1.37345e-05 6.94884e-05 0)
(1.92793e-05 0.000193024 0)
(1.87095e-05 0.000171192 0)
(-9.51328e-06 2.90273e-05 0)
(-1.10544e-05 4.08773e-05 0)
(1.80282e-05 0.000150077 0)
(-1.24711e-05 5.44111e-05 0)
(1.72359e-05 0.000129805 0)
(-1.37669e-05 6.94902e-05 0)
(-5.49685e-06 1.60402e-05 0)
(-2.99768e-06 0.000241786 0)
(-2.1386e-06 0.000241555 0)
(-2.66044e-06 0.000273853 0)
(4.40573e-06 0.000165845 0)
(-2.36479e-06 3.15607e-05 0)
(-8.49517e-07 1.25347e-06 0)
(-3.44168e-06 0.000289438 0)
(-3.77786e-06 6.22596e-05 0)
(-4.62749e-06 6.20252e-05 0)
(-3.38965e-06 4.78523e-05 0)
(-4.15066e-06 4.76433e-05 0)
(5.5819e-06 0.000203467 0)
(6.70529e-06 0.000203562 0)
(1.47414e-05 0.000200021 0)
(1.38452e-05 0.00015662 0)
(-8.02459e-06 3.68514e-05 0)
(-9.13086e-06 4.98764e-05 0)
(-1.01445e-05 6.44894e-05 0)
(-8.93084e-06 0.000132245 0)
(-9.67589e-06 0.000173867 0)
(4.75436e-06 2.74763e-05 0)
(-2.80999e-06 0.000118434 0)
(2.37892e-06 7.86955e-05 0)
(2.90598e-06 0.000209229 0)
(-1.70715e-06 4.41264e-05 0)
(-1.91471e-06 5.81035e-05 0)
(-2.07379e-06 7.34343e-05 0)
(5.51025e-06 7.77576e-05 0)
(4.66862e-06 7.79565e-05 0)
(-6.47911e-06 0.00011952 0)
(-5.48671e-06 0.000119274 0)
(-6.52174e-06 0.00028727 0)
(4.39717e-07 1.20361e-06 0)
(1.08367e-05 0.00024728 0)
(3.90452e-06 8.63717e-05 0)
(1.06242e-05 0.000171012 0)
(-5.40927e-06 2.89315e-05 0)
(9.78493e-06 0.000129612 0)
(-9.111e-06 0.000103569 0)
(2.21153e-06 2.19019e-05 0)
(-5.08554e-06 0.000185611 0)
(-4.73421e-06 0.000143127 0)
(6.29341e-07 8.98693e-05 0)
(-7.90862e-07 0.000147273 0)
(-8.40913e-07 0.000190081 0)
(3.35854e-07 1.99564e-05 0)
(6.13463e-06 8.13888e-05 0)
(-7.0051e-06 0.000115325 0)
(-3.35452e-06 0.000256708 0)
(-1.55196e-05 0.000254253 0)
(2.77078e-06 0.00011001 0)
(6.96344e-06 0.000110356 0)
(-5.65455e-06 2.12852e-05 0)
(1.30662e-05 0.00018728 0)
(1.21721e-05 0.000144695 0)
(-6.27653e-07 2.66222e-06 0)
(-2.10345e-06 0.000214226 0)
(1.16679e-06 4.1343e-05 0)
(1.31485e-06 5.49797e-05 0)
(1.4398e-06 7.01244e-05 0)
(-3.21315e-06 0.000104179 0)
(-1.43859e-05 0.000254339 0)
(-4.14803e-06 4.13932e-05 0)
(-4.67542e-06 5.50304e-05 0)
(-5.1403e-06 7.02082e-05 0)
(7.32681e-06 0.000214151 0)
(1.33669e-08 1.74718e-08 0)
(9.01566e-06 0.000102739 0)
(1.14828e-07 8.03279e-06 0)
(-4.29287e-07 7.48233e-07 0)
(-8.91773e-07 3.44496e-06 0)
(-4.26988e-06 1.47499e-05 0)
(-4.38381e-07 1.61288e-07 0)
(1.77519e-06 4.67326e-05 0)
(1.55794e-06 3.40451e-05 0)
(1.98164e-06 6.10149e-05 0)
(-3.01261e-06 0.000204948 0)
(-2.85332e-06 0.000161278 0)
(-8.76929e-06 8.52362e-05 0)
(9.49461e-06 0.00011102 0)
(-8.68842e-07 5.11819e-07 0)
(1.15221e-05 0.000272248 0)
(8.30933e-06 0.000243556 0)
(-1.77137e-05 0.000229245 0)
(6.5578e-06 0.000109504 0)
(2.36182e-06 0.000118936 0)
(-4.46286e-06 0.000289307 0)
(-1.24137e-05 0.000124608 0)
(-1.18081e-05 0.000124058 0)
(1.74813e-05 0.000289221 0)
(-1.40456e-06 0.000257989 0)
(-3.93232e-06 7.83779e-05 0)
(4.7149e-06 0.000118912 0)
(1.42651e-07 8.3145e-06 0)
(2.17159e-06 2.93812e-06 0)
(4.35315e-07 1.60182e-07 0)
(4.16743e-06 0.000126696 0)
(1.54061e-05 0.000295159 0)
(-8.44996e-06 0.000204983 0)
(-7.95362e-06 0.000161273 0)
(4.38441e-06 3.40862e-05 0)
(5.61064e-06 6.10293e-05 0)
(5.02582e-06 4.67515e-05 0)
(-1.59688e-07 1.11754e-07 0)
(-6.38464e-07 0.000268532 0)
(7.89662e-06 0.000110682 0)
(-7.19506e-06 8.56695e-05 0)
(-1.26585e-05 0.000262018 0)
(-1.88988e-05 0.000194015 0)
(-1.83451e-05 0.000172147 0)
(-1.76865e-05 0.000150999 0)
(-1.69139e-05 0.000130687 0)
(9.20269e-06 2.85284e-05 0)
(1.07106e-05 4.03001e-05 0)
(1.20961e-05 5.3763e-05 0)
(1.33642e-05 6.87765e-05 0)
(1.8855e-05 0.000194008 0)
(1.83034e-05 0.000172146 0)
(-9.22342e-06 2.85315e-05 0)
(-1.07343e-05 4.03038e-05 0)
(1.76425e-05 0.000150996 0)
(-1.21238e-05 5.37663e-05 0)
(1.68734e-05 0.000130683 0)
(-1.33951e-05 6.87802e-05 0)
(-2.76641e-06 3.71436e-06 0)
(1.088e-06 1.02361e-06 0)
(-1.45657e-06 2.66539e-06 0)
(7.0302e-06 0.000108601 0)
(-7.72682e-06 0.000111824 0)
(1.38797e-06 1.67238e-06 0)
(-2.15436e-07 3.5992e-08 0)
(-1.70339e-05 0.000229798 0)
(9.74289e-06 0.000292182 0)
(1.09347e-05 0.000292733 0)
(2.14971e-07 3.59246e-08 0)
(3.12544e-06 4.16735e-06 0)
(1.52624e-05 0.000265977 0)
(-5.80964e-06 0.000123619 0)
(-3.81879e-07 3.34612e-07 0)
(-8.64269e-07 1.34171e-06 0)
(-1.35026e-07 3.45273e-08 0)
(2.52907e-07 1.96703e-07 0)
(1.57844e-05 9.85357e-05 0)
(-1.57597e-05 9.73968e-05 0)
(4.8383e-06 7.43203e-05 0)
(-5.95458e-06 0.000121359 0)
(5.02374e-06 7.62274e-05 0)
(-2.61414e-07 4.44427e-06 0)
(-3.66895e-06 0.000193975 0)
(2.89604e-06 9.29721e-05 0)
(-2.05009e-06 0.00019187 0)
(-1.96181e-06 0.000148853 0)
(8.42953e-07 1.92522e-05 0)
(1.5894e-06 9.12874e-05 0)
(-6.47886e-06 0.000122989 0)
(3.33084e-06 4.41514e-06 0)
(5.42007e-06 7.4881e-05 0)
(2.00989e-06 0.000110179 0)
(1.53381e-05 0.000274678 0)
(-4.68054e-06 0.000111086 0)
(-5.38078e-06 0.000111841 0)
(-4.37359e-06 9.34863e-06 0)
(-5.21828e-06 0.00011539 0)
(-4.46345e-06 0.000114591 0)
(4.6366e-06 8.12552e-05 0)
(4.07217e-06 8.20557e-05 0)
(-4.90146e-06 2.27298e-05 0)
(1.016e-05 0.000141564 0)
(1.09311e-05 0.000183923 0)
(-1.35564e-06 1.50969e-06 0)
(-6.49091e-06 0.000122003 0)
(5.4578e-06 7.57157e-05 0)
(-4.13889e-06 0.000156951 0)
(-4.4043e-06 0.000200393 0)
(2.35853e-06 3.65128e-05 0)
(2.98411e-06 6.41109e-05 0)
(2.68481e-06 4.95168e-05 0)
(-2.15906e-06 1.00967e-05 0)
(-1.35523e-05 0.000165512 0)
(-1.28428e-05 0.000164989 0)
(7.18449e-06 3.18622e-05 0)
(6.8339e-06 3.21386e-05 0)
(8.92344e-06 0.000131395 0)
(9.81133e-06 0.000130749 0)
(-4.83801e-06 2.79355e-05 0)
(-5.3566e-06 2.8305e-05 0)
(9.67518e-06 0.000172948 0)
(1.06432e-05 0.000172245 0)
(-3.90118e-06 0.000255767 0)
(7.76748e-06 0.000233559 0)
(7.87941e-06 0.000232469 0)
(-5.76526e-06 7.62345e-05 0)
(6.75341e-06 0.000121329 0)
(-2.04022e-05 0.000284971 0)
(-5.87786e-06 0.00022734 0)
(-5.64507e-06 0.000226275 0)
(1.96495e-06 1.46677e-05 0)
(2.01964e-06 1.42945e-05 0)
(1.75998e-05 0.000229867 0)
(-7.79877e-06 9.77898e-05 0)
(-6.69606e-06 9.78238e-05 0)
(1.74122e-05 0.000259534 0)
(-1.7622e-05 0.000273596 0)