/*--------------------------------*- C++ -*----------------------------------*\
| =========                 |                                                 |
| \\      /  F ield         | OpenFOAM: The Open Source CFD Toolbox           |
|  \\    /   O peration     | Version:  2.3.1                                 |
|   \\  /    A nd           | Web:      www.OpenFOAM.org                      |
|    \\/     M anipulation  |                                                 |
\*---------------------------------------------------------------------------*/
FoamFile
{
    version     2.0;
    format      ascii;
    class       volScalarField;
    location    "0.3";
    object      p;
}
// * * * * * * * * * * * * * * * * * * * * * * * * * * * * * * * * * * * * * //

dimensions      [0 2 -2 0 0 0 0];

internalField   nonuniform List<scalar> 
768
(
-9.59691e-06
-0.00163135
-0.00347992
-0.00561905
-0.0081346
-0.0110831
-0.0145297
-0.0184597
-0.0229197
-0.0270566
-0.0300014
-0.027716
-0.000417989
-0.00190309
-0.00362511
-0.00561455
-0.00792868
-0.0106174
-0.0137332
-0.0172151
-0.0208201
-0.0237702
-0.0250842
-0.0240655
-0.000962294
-0.00234418
-0.00394678
-0.00578718
-0.00789761
-0.0103026
-0.0130092
-0.0159161
-0.018743
-0.0208929
-0.0217037
-0.021259
-0.00146824
-0.00275715
-0.00426318
-0.00598411
-0.00792942
-0.0100968
-0.0124601
-0.0148853
-0.0171284
-0.0187883
-0.0192734
-0.0193846
-0.0249028
-0.020304
-0.0144252
-0.00886467
-0.00407631
-0.000111579
0.00257152
0.00380556
0.00386668
0.00345159
0.00253608
0.00148767
-0.0220194
-0.0179439
-0.0127234
-0.00802224
-0.00400931
-0.000776379
0.00146845
0.00263357
0.00287532
0.00256913
0.00185858
0.000921627
-0.0200373
-0.0160966
-0.0113318
-0.00741607
-0.00413316
-0.00145203
0.000465084
0.00155406
0.00189909
0.00170584
0.00112486
0.000267771
-0.0187599
-0.0147894
-0.0104043
-0.00714204
-0.00439404
-0.0020953
-0.000403806
0.000619894
0.00101805
0.000918324
0.000439568
-0.000332771
0.000118915
-0.00149333
-0.00333987
-0.00549391
-0.00802111
-0.0109781
-0.0144312
-0.0183664
-0.02283
-0.0269675
-0.0299076
-0.0276308
-0.000295317
-0.00177062
-0.00349413
-0.00549604
-0.00781848
-0.0105139
-0.0136348
-0.0171209
-0.0207287
-0.0236793
-0.0249914
-0.0239804
-0.000854767
-0.00222227
-0.00382398
-0.00567209
-0.00778916
-0.0101998
-0.0129107
-0.015821
-0.0186502
-0.0208009
-0.0216125
-0.0211742
-0.0013691
-0.00264616
-0.00414813
-0.00587275
-0.00782283
-0.00999463
-0.0123616
-0.0147897
-0.0170347
-0.0186958
-0.0191825
-0.0192992
-0.0248674
-0.0202813
-0.0144163
-0.00887064
-0.00409765
-0.000148435
0.00252048
0.00374236
0.00379527
0.00337366
0.00245285
0.001391
-0.0219894
-0.0179261
-0.0127192
-0.00803223
-0.0040336
-0.000814539
0.00141758
0.00257137
0.00280494
0.00249359
0.00178029
0.000826607
-0.0200139
-0.0160851
-0.0113334
-0.00743057
-0.0041602
-0.00149127
0.00041434
0.00149298
0.00182956
0.00162885
0.0010441
0.000179193
-0.0187416
-0.0147834
-0.010412
-0.00716036
-0.00442309
-0.00213528
-0.00045441
0.000559625
0.000949549
0.000842303
0.00035708
-0.000422247
-0.00192726
-0.00312231
-0.00453128
-0.00614083
-0.00794261
-0.00991384
-0.0120187
-0.0141003
-0.0159599
-0.0173212
-0.0177505
-0.0178833
-0.00234097
-0.00345452
-0.00477316
-0.0062779
-0.00794882
-0.00974777
-0.0116598
-0.0134823
-0.0150827
-0.016255
-0.0167099
-0.0167754
-0.00270557
-0.00374902
-0.00498922
-0.00640212
-0.00795982
-0.00961619
-0.0113646
-0.0129891
-0.014397
-0.015426
-0.0158768
-0.0159575
-0.00302135
-0.0040039
-0.0051756
-0.00650892
-0.00797119
-0.00951731
-0.0111148
-0.0125948
-0.013859
-0.0147849
-0.0152412
-0.0153608
-0.00329012
-0.00422064
-0.00533335
-0.00659835
-0.00797996
-0.009433
-0.0109105
-0.0122805
-0.0134393
-0.0142941
-0.0147549
-0.0149096
-0.00351432
-0.00440119
-0.00546423
-0.00667179
-0.0079861
-0.00936124
-0.0107439
-0.0120327
-0.0131128
-0.0139186
-0.0143813
-0.0145631
-0.00369673
-0.00454781
-0.00556999
-0.00673037
-0.00798961
-0.00930064
-0.0106077
-0.0118415
-0.0128606
-0.0136286
-0.0140921
-0.0142917
-0.00384018
-0.0046628
-0.00565242
-0.0067752
-0.00799066
-0.00925006
-0.0104941
-0.011701
-0.0126693
-0.0134078
-0.0138707
-0.0140815
-0.00394745
-0.00474835
-0.00571319
-0.0068074
-0.00798964
-0.00920935
-0.0103938
-0.0116102
-0.0125283
-0.0132448
-0.0137061
-0.013924
-0.00402107
-0.00480646
-0.0057538
-0.00682788
-0.00798689
-0.00918056
-0.0103374
-0.0115299
-0.0124276
-0.0131306
-0.013591
-0.0138133
-0.00406316
-0.00483898
-0.00577563
-0.00683743
-0.00798236
-0.00916255
-0.0103152
-0.0114629
-0.0123622
-0.0130593
-0.0135196
-0.0137452
-0.00407937
-0.00485101
-0.00578295
-0.00683913
-0.00797723
-0.00915376
-0.0103047
-0.0114257
-0.012327
-0.0130246
-0.013486
-0.0137157
-0.0166503
-0.0136548
-0.00993842
-0.00715321
-0.00470327
-0.00266662
-0.00114513
-0.000182921
0.000241157
0.000210024
-0.00018557
-0.000877321
-0.0143295
-0.0123043
-0.00949586
-0.00716407
-0.00497205
-0.00314853
-0.00176671
-0.000863181
-0.000430054
-0.000412805
-0.000743361
-0.00136603
-0.012734
-0.0112302
-0.00911414
-0.00708966
-0.00517479
-0.00354076
-0.00228039
-0.00143334
-0.00100201
-0.000951578
-0.00123126
-0.0017958
-0.0114758
-0.0103756
-0.0087439
-0.00700234
-0.00532162
-0.00385404
-0.00270033
-0.00190657
-0.00148359
-0.00141087
-0.00165123
-0.0021675
-0.0105865
-0.00972792
-0.00841503
-0.00691052
-0.00542566
-0.00410096
-0.00304017
-0.00229525
-0.00188406
-0.00179669
-0.00200675
-0.00248352
-0.00991966
-0.00922963
-0.00813703
-0.0068229
-0.00549849
-0.0042937
-0.00331228
-0.00261057
-0.00221227
-0.00211549
-0.00230215
-0.00274692
-0.00942123
-0.00884698
-0.00791018
-0.0067459
-0.00554928
-0.00444263
-0.00352717
-0.00286221
-0.00247625
-0.00237336
-0.00254207
-0.00296122
-0.00905126
-0.00855754
-0.00773189
-0.006682
-0.0055848
-0.00455593
-0.0036933
-0.00305837
-0.00268304
-0.00257607
-0.00273105
-0.00313005
-0.00878391
-0.00834531
-0.00759783
-0.00663256
-0.00560968
-0.00463975
-0.00381764
-0.00320578
-0.00283873
-0.00272893
-0.00287333
-0.00325675
-0.00860119
-0.00819869
-0.00750377
-0.00659765
-0.00562706
-0.004699
-0.00390555
-0.00330983
-0.00294831
-0.00283721
-0.00297246
-0.00334434
-0.0084904
-0.0081089
-0.00744601
-0.00657687
-0.00563891
-0.00473685
-0.00396087
-0.0033745
-0.00301577
-0.0029017
-0.00303106
-0.00339531
-0.00844226
-0.00806805
-0.00741975
-0.00656781
-0.0056447
-0.00475417
-0.00398545
-0.00340242
-0.00304431
-0.00292813
-0.00305471
-0.00341542
-0.00182907
-0.00301651
-0.0044217
-0.00603292
-0.00783784
-0.00981243
-0.0119205
-0.0140046
-0.0158659
-0.0172285
-0.0176594
-0.0177952
-0.00224441
-0.00335192
-0.0046674
-0.00617269
-0.00784567
-0.00964747
-0.0115615
-0.0133865
-0.0149885
-0.0161621
-0.0166183
-0.0166853
-0.00261091
-0.00364911
-0.00488638
-0.00629908
-0.00785798
-0.00951581
-0.0112674
-0.0128932
-0.0143025
-0.0153327
-0.0157846
-0.0158661
-0.00292836
-0.00390617
-0.00507505
-0.00640767
-0.00787056
-0.00941783
-0.0110176
-0.0124989
-0.0137644
-0.0146912
-0.0151484
-0.0152684
-0.00319855
-0.00412466
-0.00523459
-0.00649856
-0.00788035
-0.00933426
-0.0108134
-0.0121846
-0.0133444
-0.0142001
-0.0146616
-0.0148166
-0.00342394
-0.00430662
-0.0053669
-0.00657319
-0.00788736
-0.00926309
-0.010647
-0.0119369
-0.0130179
-0.0138244
-0.0142877
-0.0144697
-0.00360732
-0.00445435
-0.00547378
-0.00663271
-0.00789157
-0.00920296
-0.010511
-0.0117457
-0.0127657
-0.0135343
-0.0139983
-0.0141981
-0.00375153
-0.00457021
-0.00555707
-0.00667828
-0.00789318
-0.00915273
-0.0103975
-0.0116053
-0.0125743
-0.0133134
-0.0137767
-0.0139877
-0.00385938
-0.0046564
-0.00561848
-0.00671103
-0.00789258
-0.0091123
-0.0102972
-0.0115147
-0.0124333
-0.0131503
-0.013612
-0.01383
-0.0039334
-0.00471497
-0.00565954
-0.0067319
-0.00789013
-0.0090837
-0.0102406
-0.0114346
-0.0123326
-0.0130361
-0.0134968
-0.0137193
-0.00397573
-0.00474777
-0.00568165
-0.00674169
-0.00788577
-0.00906585
-0.0102188
-0.0113673
-0.0122672
-0.0129647
-0.0134253
-0.0136511
-0.00399205
-0.00475992
-0.0056891
-0.00674351
-0.00788073
-0.00905715
-0.0102084
-0.0113301
-0.012232
-0.01293
-0.0133917
-0.0136216
-0.0166416
-0.0136519
-0.00995045
-0.0071735
-0.0047338
-0.00270726
-0.00119563
-0.000242594
0.000173306
0.000134576
-0.000268041
-0.000967426
-0.0143287
-0.0123092
-0.00951226
-0.00718495
-0.0050037
-0.00318976
-0.00181719
-0.000922413
-0.000497302
-0.000487586
-0.000825296
-0.00145528
-0.0127395
-0.0112398
-0.00913215
-0.00711358
-0.00520769
-0.00358256
-0.00233091
-0.00149224
-0.00106874
-0.00102572
-0.00131247
-0.00188394
-0.0114863
-0.0103893
-0.00876394
-0.0070285
-0.00535571
-0.00389638
-0.00275094
-0.00196523
-0.00154988
-0.0014844
-0.00173166
-0.00225451
-0.0106006
-0.00974471
-0.00843704
-0.00693844
-0.0054608
-0.0041438
-0.0030909
-0.00235372
-0.00194997
-0.00186967
-0.00208643
-0.00256947
-0.00993652
-0.00924886
-0.00816075
-0.00685223
-0.00553452
-0.00433702
-0.00336314
-0.00266891
-0.00227786
-0.00218798
-0.00238116
-0.00283196
-0.00944022
-0.00886811
-0.00793533
-0.00677635
-0.00558606
-0.00448636
-0.00357816
-0.00292046
-0.00254157
-0.00244544
-0.00262052
-0.00304552
-0.00907188
-0.00858013
-0.0077582
-0.00671334
-0.00562217
-0.00459999
-0.00374441
-0.00311655
-0.00274815
-0.00264781
-0.00280905
-0.00321375
-0.00880575
-0.008369
-0.00762503
-0.00666458
-0.00564752
-0.00468408
-0.00386884
-0.00326392
-0.00290368
-0.0028004
-0.00295098
-0.00334
-0.00862388
-0.00822315
-0.00753161
-0.00663016
-0.00566524
-0.00474353
-0.00395683
-0.00336794
-0.00301316
-0.00290859
-0.00304987
-0.00342726
-0.00851362
-0.00813386
-0.00747426
-0.0066097
-0.0056773
-0.00478151
-0.0040122
-0.00343261
-0.00308055
-0.00297295
-0.00310832
-0.00347803
-0.00846573
-0.00809324
-0.0074482
-0.00660078
-0.0056832
-0.00479889
-0.00403681
-0.00346052
-0.00310908
-0.00299933
-0.0031319
-0.00349805
)
;

boundaryField
{
    rotor
    {
        type            zeroGradient;
    }
    stator
    {
        type            zeroGradient;
    }
    AMI1
    {
        type            cyclicAMI;
        value           nonuniform 0();
    }
    AMI2
    {
        type            cyclicAMI;
        value           nonuniform List<scalar> 
48
(
0.000180977
-0.00153915
-0.00342076
-0.00556287
-0.00808956
-0.0111041
-0.0147457
-0.0190952
-0.0240995
-0.0287456
-0.0317398
-0.0299675
-0.0269911
-0.0220737
-0.0157132
-0.00957807
-0.00413969
0.000360946
0.00331537
0.0045019
0.00435175
0.0038001
0.0028877
0.00177511
0.000303298
-0.00139381
-0.00327323
-0.00543182
-0.00797269
-0.0109974
-0.0146465
-0.0190021
-0.0240105
-0.028657
-0.0316474
-0.029882
-0.0269528
-0.0220477
-0.0157011
-0.00958118
-0.0041585
0.000325261
0.00326347
0.00443606
0.00427576
0.00371817
0.00280242
0.00168318
)
;
    }
    front
    {
        type            empty;
    }
    back
    {
        type            empty;
    }
    procBoundary0to1
    {
        type            processor;
        value           nonuniform List<scalar> 8(-0.0248248 -0.0219431 -0.0199639 -0.0186887 -0.0276673 -0.0240186 -0.0212133 -0.0193375);
    }
}


// ************************************************************************* //
