/*--------------------------------*- C++ -*----------------------------------*\
| =========                 |                                                 |
| \\      /  F ield         | OpenFOAM: The Open Source CFD Toolbox           |
|  \\    /   O peration     | Version:  2.3.1                                 |
|   \\  /    A nd           | Web:      www.OpenFOAM.org                      |
|    \\/     M anipulation  |                                                 |
\*---------------------------------------------------------------------------*/
FoamFile
{
    version     2.0;
    format      ascii;
    class       surfaceVectorField;
    location    "1";
    object      Uf;
}
// * * * * * * * * * * * * * * * * * * * * * * * * * * * * * * * * * * * * * //

dimensions      [0 1 -1 0 0 0 0];

internalField   nonuniform List<vector> 
1460
(
(0.0231638 0.134056 -1.8736e-20)
(0.00763324 0.140741 -3.07919e-20)
(0.0298886 0.131858 -1.8736e-20)
(0.0127122 0.140399 7.36555e-20)
(0.0332858 0.125273 0)
(0.0133495 0.135819 -6.00709e-20)
(0.0379294 0.116779 -6.9332e-20)
(0.0182891 0.128867 5.882e-20)
(0.0440453 0.108746 -1.39032e-19)
(0.0271007 0.12142 5.32354e-20)
(0.0517372 0.102497 -6.97005e-20)
(0.0382015 0.114226 -7.09965e-20)
(0.0606386 0.0976422 0)
(0.0488657 0.108269 3.48191e-19)
(0.0701389 0.093999 3.9521e-19)
(0.0594409 0.103708 -2.30731e-19)
(0.079749 0.0915682 6.08289e-20)
(0.070382 0.10043 2.78145e-19)
(0.0887714 0.0899589 -5.91658e-19)
(0.0809218 0.098449 -3.39569e-19)
(0.0962273 0.0884839 6.95288e-20)
(0.0901879 0.0976842 -1.58537e-19)
(0.0973552 0.0975966 3.32385e-19)
(0.101087 0.0863383 6.36029e-19)
(0.00251973 0.150051 6.40118e-20)
(0.0088405 0.154783 -1.86959e-20)
(0.000770182 0.144178 3.40875e-20)
(0.00361007 0.153632 9.60773e-20)
(0.00382404 0.137643 -1.27461e-21)
(0.0050183 0.148354 -6.22327e-20)
(0.0125829 0.131312 1.81071e-19)
(0.0138584 0.142848 -4.22847e-20)
(0.0247972 0.125226 1.21136e-19)
(0.0273563 0.137711 2.35154e-19)
(0.0379889 0.118867 3.54788e-19)
(0.041959 0.132457 -2.18276e-19)
(0.0510193 0.112735 1.20862e-19)
(0.0562223 0.126994 4.75161e-19)
(0.0642923 0.108209 -3.5138e-19)
(0.0716814 0.120279 -4.49123e-19)
(0.0771192 0.104738 -1.16277e-19)
(0.0853657 0.114015 -1.10792e-19)
(0.0884489 0.102841 1.06534e-19)
(0.0976885 0.10886 2.97219e-19)
(0.0972361 0.103106 1.06534e-19)
(0.108129 0.105839 2.22552e-20)
(0.11686 0.105591 0)
(0.103855 0.10496 -1.09323e-19)
(0.00509705 0.16161 1.34287e-20)
(0.00438336 0.169939 1.20712e-21)
(0.00165494 0.156589 0)
(-0.00223863 0.170517 2.27208e-20)
(0.00802567 0.153029 -1.10609e-19)
(0.00488012 0.1693 4.61435e-20)
(0.0221662 0.15017 -3.2234e-21)
(0.0204881 0.168992 -1.61617e-19)
(0.0394992 0.146618 -1.13256e-19)
(0.0389576 0.168076 -3.37413e-20)
(0.0571825 0.142019 -1.10507e-19)
(0.0573248 0.165238 -3.32269e-20)
(0.0739982 0.136647 -1.01245e-19)
(0.0746608 0.160046 1.45352e-20)
(0.0888577 0.129732 -2.04255e-19)
(0.0904922 0.152319 -1.28181e-19)
(0.102067 0.122788 3.12673e-19)
(0.105069 0.142504 7.67021e-21)
(0.113629 0.116975 2.04265e-19)
(0.11834 0.132603 2.21737e-19)
(0.124097 0.113403 -9.80087e-20)
(0.130622 0.124416 -9.94978e-20)
(0.144378 0.118668 -1.34541e-19)
(0.137179 0.111673 7.98459e-20)
(-0.00192881 0.178788 1.07126e-20)
(0.00208968 0.187954 -4.28856e-20)
(0.000698214 0.179822 6.99268e-20)
(0.00171922 0.193365 4.25565e-20)
(0.0165941 0.183125 -3.4096e-21)
(0.0174551 0.198888 -3.24686e-20)
(0.0372947 0.186009 -1.96193e-19)
(0.0389456 0.205058 -1.31388e-19)
(0.0576476 0.186446 4.91702e-20)
(0.0599198 0.208617 -1.41017e-19)
(0.0760935 0.183368 9.34433e-20)
(0.0785084 0.207981 1.95426e-19)
(0.0927442 0.176396 -1.10305e-20)
(0.0947357 0.202607 -2.74159e-20)
(0.10803 0.166134 9.00952e-20)
(0.109384 0.192682 1.59972e-19)
(0.122083 0.153977 -8.75948e-20)
(0.123304 0.17895 -1.48247e-19)
(0.135511 0.141994 -8.75948e-20)
(0.137278 0.163291 -8.88142e-20)
(0.150928 0.131477 -1.36616e-19)
(0.152528 0.147546 1.17086e-19)
(0.171999 0.132536 -2.30514e-19)
(0.172065 0.122568 -7.98819e-20)
(0.00454138 0.199497 -1.30479e-20)
(0.00656628 0.205905 -5.63283e-21)
(0.0168172 0.208619 -6.28922e-20)
(0.0170327 0.21944 1.35023e-21)
(0.039086 0.218968 -1.63304e-19)
(0.0401227 0.232637 -7.83452e-20)
(0.0615805 0.226898 -7.60465e-20)
(0.0643477 0.245237 -8.26059e-20)
(0.0811661 0.230296 3.98201e-21)
(0.0849661 0.253646 7.46553e-20)
(0.097674 0.22795 7.42158e-20)
(0.10134 0.255974 -6.94192e-20)
(0.112046 0.219869 1.46307e-19)
(0.114916 0.251135 7.73646e-20)
(0.125291 0.206572 -8.10024e-20)
(0.126801 0.239181 1.79978e-19)
(0.138735 0.189537 -1.5034e-19)
(0.138862 0.220754 -2.62071e-19)
(0.154259 0.170506 1.18739e-19)
(0.152657 0.198013 1.12449e-19)
(0.174064 0.150601 2.77267e-20)
(0.169415 0.173262 -8.25892e-20)
(0.190488 0.147348 9.2949e-20)
(0.198036 0.131688 -6.98319e-20)
(0.0199856 0.223126 7.83177e-21)
(0.0201468 0.222605 1.06645e-20)
(0.0410717 0.240234 -1.41491e-20)
(0.0414035 0.245466 8.50949e-21)
(0.0669309 0.257291 3.67959e-21)
(0.0695971 0.26539 6.79368e-21)
(0.0896718 0.271096 6.62514e-20)
(0.0949218 0.284049 -4.5349e-20)
(0.107149 0.279095 6.32456e-22)
(0.113395 0.297898 6.70414e-20)
(0.120129 0.279313 -6.56189e-20)
(0.125431 0.304517 -1.60646e-19)
(0.130756 0.27089 1.10577e-19)
(0.134032 0.302065 1.82973e-19)
(0.141038 0.253652 -6.51969e-22)
(0.141046 0.290234 6.10958e-21)
(0.153112 0.229741 2.56714e-21)
(0.150153 0.268242 -2.57478e-20)
(0.168949 0.202032 -9.01125e-20)
(0.162706 0.237388 1.84107e-19)
(0.188369 0.171639 -1.24184e-20)
(0.177323 0.202281 -7.92449e-20)
(0.195205 0.165442 3.69147e-20)
(0.208656 0.141468 3.50473e-19)
(0.0435841 0.245925 1.19003e-20)
(0.0406554 0.236634 -2.63742e-20)
(0.0719583 0.268558 2.94182e-20)
(0.0703359 0.266062 3.78303e-20)
(0.100253 0.290666 -4.41392e-20)
(0.101577 0.288215 3.83501e-20)
(0.121703 0.309556 -4.58963e-20)
(0.125882 0.308978 3.55144e-20)
(0.134809 0.32252 -9.53821e-20)
(0.139451 0.324878 -3.86974e-20)
(0.141707 0.326941 8.98963e-20)
(0.143956 0.333832 -1.74101e-19)
(0.146348 0.321005 8.40649e-20)
(0.144729 0.334277 1.82097e-19)
(0.152252 0.303881 -1.39763e-20)
(0.145754 0.326104 -2.56528e-19)
(0.161378 0.275759 1.57522e-19)
(0.151185 0.307384 9.02009e-20)
(0.173905 0.238193 1.98415e-19)
(0.161034 0.276525 -1.54374e-19)
(0.189545 0.19683 -2.27724e-20)
(0.174114 0.234425 1.19431e-19)
(0.187053 0.187924 -7.829e-20)
(0.203579 0.155572 -1.56126e-19)
(0.0684131 0.262635 1.55834e-21)
(0.0610048 0.246701 -1.11688e-20)
(0.101127 0.284459 4.77651e-20)
(0.0960874 0.276088 1.88999e-20)
(0.128626 0.304932 1.18182e-19)
(0.126941 0.292589 -1.19332e-20)
(0.14483 0.32247 4.43869e-20)
(0.146583 0.307879 8.20437e-20)
(0.149702 0.335175 -1.17664e-19)
(0.151536 0.318724 -4.40915e-21)
(0.148037 0.341192 -8.11537e-20)
(0.145793 0.324493 -4.47193e-20)
(0.145841 0.339145 -1.556e-19)
(0.137798 0.325455 -4.27277e-21)
(0.147516 0.328377 -1.48724e-19)
(0.133764 0.321675 -1.51673e-19)
(0.154291 0.306774 -2.18249e-19)
(0.136488 0.311112 1.55223e-20)
(0.165028 0.272542 -2.1915e-19)
(0.145261 0.290806 -1.68603e-19)
(0.176789 0.226391 6.1455e-20)
(0.157462 0.257774 -5.25988e-20)
(0.16938 0.212404 5.99814e-20)
(0.186382 0.176047 4.69324e-20)
(0.0876119 0.270427 5.19015e-21)
(0.0728631 0.252717 1.51775e-20)
(0.120507 0.283002 -4.22509e-20)
(0.110745 0.275932 -5.40466e-21)
(0.142897 0.293325 -5.12377e-20)
(0.137676 0.279364 -1.05811e-20)
(0.150333 0.301473 3.55022e-20)
(0.149908 0.283438 2.605e-20)
(0.144927 0.307135 7.23153e-20)
(0.144903 0.284849 2.66102e-21)
(0.13428 0.309909 3.35749e-20)
(0.129638 0.28454 -6.63953e-20)
(0.125973 0.309382 1.66901e-21)
(0.11535 0.284483 7.13499e-20)
(0.124272 0.304682 9.96085e-21)
(0.108011 0.283011 5.26529e-20)
(0.130038 0.294214 5.56771e-20)
(0.109315 0.277553 8.8084e-20)
(0.141179 0.275278 -2.78482e-21)
(0.117788 0.266635 -4.14525e-20)
(0.153486 0.244247 -4.77705e-20)
(0.130256 0.248383 -3.96825e-20)
(0.142941 0.219773 4.35722e-21)
(0.162291 0.200247 -3.68485e-20)
(0.0945745 0.272143 1.78492e-21)
(0.0718913 0.257705 8.54041e-21)
(0.125141 0.270212 2.63092e-20)
(0.110967 0.269116 -1.38375e-20)
(0.141744 0.265169 7.4048e-20)
(0.132074 0.258044 5.98713e-20)
(0.141318 0.261273 -7.21043e-21)
(0.138201 0.24864 -2.64496e-20)
(0.127689 0.260412 -1.38405e-19)
(0.127134 0.240815 1.7114e-20)
(0.110543 0.261689 -2.33946e-20)
(0.106939 0.236144 -4.12135e-20)
(0.097592 0.261756 1.2353e-19)
(0.0882812 0.235723 1.20733e-19)
(0.0927462 0.258649 1.35111e-19)
(0.0779606 0.235899 -3.76828e-20)
(0.0966084 0.251751 -1.10712e-20)
(0.0778451 0.233145 8.26953e-20)
(0.107005 0.240797 -7.92429e-20)
(0.0856158 0.225995 -9.11149e-20)
(0.120427 0.224593 1.86703e-20)
(0.0976872 0.21431 9.32877e-21)
(0.110812 0.19765 7.69598e-21)
(0.132606 0.200368 1.35732e-20)
(0.090917 0.270732 -6.74337e-21)
(0.0573801 0.272034 -6.80258e-21)
(0.118577 0.253251 1.80861e-20)
(0.0983678 0.264589 0)
(0.128495 0.23518 -3.26704e-20)
(0.115446 0.239334 -1.95512e-21)
(0.123661 0.221005 6.63399e-22)
(0.117758 0.215368 -1.77512e-20)
(0.10669 0.214071 1.13356e-19)
(0.104277 0.198332 1.15314e-21)
(0.0859555 0.212869 1.12126e-19)
(0.0819865 0.18937 -2.9915e-20)
(0.0697664 0.213624 -5.1342e-20)
(0.0611053 0.187444 9.52909e-20)
(0.0630732 0.213212 -9.40343e-20)
(0.0497633 0.189098 -9.486e-20)
(0.0657476 0.209596 7.31749e-21)
(0.0493097 0.189773 0)
(0.0745265 0.201718 7.31749e-21)
(0.0561905 0.186778 3.76301e-20)
(0.0861831 0.189409 0)
(0.0666368 0.179285 1.93279e-20)
(0.0783931 0.167261 -4.49827e-21)
(0.0984973 0.173159 -2.98087e-21)
(0.0625201 0.283384 0)
(0.0382197 0.213847 -1.1072e-21)
(0.0975372 0.246428 -1.70308e-20)
(0.0670867 0.216114 -4.34481e-21)
(0.106864 0.212527 1.67164e-20)
(0.0835384 0.199276 -8.6832e-22)
(0.0997597 0.186759 -1.28787e-20)
(0.0865147 0.173504 -7.60448e-21)
(0.0808342 0.171472 -1.39839e-19)
(0.073754 0.151989 -4.70148e-20)
(0.0583874 0.165384 -4.42391e-20)
(0.052143 0.140167 -5.51932e-20)
(0.0419391 0.16543 4.50552e-20)
(0.0331248 0.138276 7.7715e-20)
(0.0360357 0.167449 0)
(0.0239895 0.142375 -6.8001e-21)
(0.0391294 0.168107 3.49401e-20)
(0.0246324 0.14676 -6.41716e-20)
(0.0473801 0.165428 5.44392e-20)
(0.0311135 0.148238 7.04731e-20)
(0.0577434 0.15835 1.40038e-20)
(0.0402441 0.145784 -1.28015e-21)
(0.068548 0.146479 1.73885e-20)
(0.0504649 0.138942 -4.57596e-21)
(0.10322 0.082997 -1.23544e-19)
(0.103028 0.0969674 1.99729e-19)
(0.104502 0.0781422 -4.28675e-19)
(0.109566 0.0939868 -5.35191e-19)
(0.106348 0.0712251 1.29166e-19)
(0.117116 0.089111 4.15775e-21)
(0.107112 0.0619514 1.16928e-20)
(0.121946 0.084348 3.16058e-19)
(0.105584 0.0516592 -5.61507e-20)
(0.123555 0.0779687 -3.33316e-19)
(0.102342 0.0414491 -1.09184e-19)
(0.123116 0.0690769 1.42229e-19)
(0.0994363 0.031154 -1.11737e-19)
(0.121756 0.0571482 2.24391e-20)
(0.0993907 0.0204475 2.14902e-21)
(0.120283 0.0415945 2.53681e-19)
(0.103836 0.00934227 -2.69296e-20)
(0.119702 0.0237854 -1.04857e-19)
(0.113052 -0.00202864 -1.37922e-20)
(0.121541 0.00603075 2.60925e-20)
(0.124824 -0.0110793 -1.13833e-20)
(0.128264 -0.00785851 -2.84798e-20)
(0.134337 -0.0120282 3.33235e-20)
(0.112275 0.105731 -2.05549e-19)
(0.127609 0.106393 -3.2641e-20)
(0.124721 0.103694 -9.62252e-20)
(0.142971 0.105286 -9.75338e-20)
(0.135663 0.100993 1.87946e-19)
(0.157476 0.104666 -1.41836e-19)
(0.141278 0.0983705 -3.89129e-20)
(0.166366 0.106391 2.60307e-19)
(0.142766 0.0929099 -1.41726e-19)
(0.171346 0.106479 -2.25111e-20)
(0.141689 0.0826369 2.73281e-19)
(0.17418 0.101974 -1.16663e-19)
(0.139645 0.0667495 3.9556e-19)
(0.174831 0.0904218 1.33481e-19)
(0.138213 0.0457859 1.5659e-19)
(0.172771 0.0703208 9.48659e-20)
(0.138173 0.022197 -5.14139e-20)
(0.167232 0.0439193 2.60764e-20)
(0.14154 -0.000110388 1.0605e-20)
(0.159469 0.0129757 -5.96627e-20)
(0.146425 -0.0129452 1.76112e-20)
(0.154753 -0.0108015 1.45784e-20)
(0.151137 -0.0158634 2.00691e-20)
(0.156078 0.110575 8.83079e-20)
(0.163973 0.114451 1.36401e-19)
(0.175267 0.110586 -1.35786e-19)
(0.185971 0.112708 -4.58292e-20)
(0.188547 0.112826 -7.49099e-20)
(0.202688 0.115445 -1.4644e-19)
(0.196954 0.115866 2.80809e-19)
(0.214221 0.121084 6.8923e-20)
(0.20271 0.116159 5.01427e-21)
(0.22334 0.125546 7.0397e-20)
(0.205357 0.109809 -2.74535e-19)
(0.229753 0.127244 -2.59303e-19)
(0.204193 0.0943506 -1.78374e-19)
(0.232847 0.121988 9.26988e-20)
(0.198508 0.0690045 -3.88991e-20)
(0.230601 0.106678 -1.09797e-19)
(0.189609 0.0368882 1.77187e-20)
(0.220841 0.0794273 2.5372e-21)
(0.179825 0.00623034 -5.41086e-20)
(0.203126 0.0411992 -6.13147e-20)
(0.170514 -0.010132 1.97192e-20)
(0.182237 0.00769311 3.48264e-20)
(0.16659 -0.00710935 -8.13375e-21)
(0.196445 0.116797 -5.59108e-21)
(0.196602 0.119714 7.2679e-20)
(0.216555 0.116584 -5.83285e-20)
(0.218704 0.113127 -5.91405e-20)
(0.230893 0.121601 0)
(0.233652 0.113856 0)
(0.242365 0.128575 -1.48004e-19)
(0.245028 0.119294 0)
(0.251669 0.133963 -1.96916e-19)
(0.255309 0.126548 -1.08533e-19)
(0.258053 0.135278 1.04191e-19)
(0.264132 0.133606 -5.29039e-21)
(0.259305 0.12917 1.59418e-19)
(0.270313 0.137465 1.89269e-19)
(0.252835 0.111809 -7.09909e-20)
(0.271581 0.134555 1.25296e-20)
(0.236715 0.0811921 -7.79497e-20)
(0.264157 0.120091 1.30197e-20)
(0.211454 0.041361 3.16501e-20)
(0.244789 0.0899857 -1.68869e-20)
(0.188357 0.00877055 6.44005e-21)
(0.214842 0.0456909 3.34144e-20)
(0.184168 0.00458904 -2.88212e-20)
(0.220323 0.117446 1.53688e-20)
(0.213215 0.12423 1.74351e-19)
(0.236092 0.111091 0)
(0.229875 0.109384 1.38651e-20)
(0.247338 0.111966 0)
(0.239164 0.103232 0)
(0.257436 0.117576 4.30494e-20)
(0.245966 0.103215 0)
(0.267144 0.126023 8.62202e-20)
(0.252638 0.107757 -1.63789e-20)
(0.275852 0.135035 7.678e-20)
(0.259808 0.116124 1.04605e-19)
(0.282072 0.141359 3.81949e-20)
(0.267926 0.126269 1.13761e-21)
(0.283118 0.140834 9.59337e-20)
(0.275256 0.134874 -1.99505e-20)
(0.274095 0.127309 7.43883e-20)
(0.278087 0.138461 6.20187e-20)
(0.250026 0.0941834 -1.5783e-20)
(0.270967 0.13039 -1.35589e-21)
(0.214851 0.0421925 -4.05798e-21)
(0.250348 0.0981286 1.00837e-20)
(0.215593 0.0302232 -5.53372e-21)
(0.224078 0.116713 1.74836e-19)
(0.212001 0.131699 1.38788e-19)
(0.232303 0.101362 1.40455e-20)
(0.221358 0.107239 -1.67891e-20)
(0.23642 0.0945708 0)
(0.22375 0.0928744 1.05379e-20)
(0.239658 0.0939099 -6.07618e-20)
(0.224096 0.0862411 4.17672e-20)
(0.24383 0.0984079 -2.2617e-22)
(0.224823 0.0853029 -1.38626e-19)
(0.250467 0.107748 2.70606e-20)
(0.227652 0.0891741 6.24075e-20)
(0.259634 0.120261 -5.95265e-20)
(0.233564 0.0976664 -5.79966e-20)
(0.269651 0.133273 -5.68941e-20)
(0.243471 0.109648 2.27851e-20)
(0.27644 0.141907 -1.63744e-20)
(0.255085 0.123516 -3.23603e-20)
(0.272213 0.13344 2.38106e-20)
(0.263645 0.135799 1.11974e-21)
(0.246663 0.0857243 8.2082e-21)
(0.265164 0.133344 8.30394e-21)
(0.252786 0.0731563 4.48712e-21)
(0.211491 0.120377 -5.15882e-20)
(0.197554 0.144373 -2.6633e-20)
(0.212771 0.095915 -3.10819e-20)
(0.201071 0.110294 -5.48999e-20)
(0.210914 0.08192 5.29364e-20)
(0.198714 0.087342 6.83757e-20)
(0.208748 0.0755885 -3.32633e-20)
(0.194854 0.0743632 -1.32798e-21)
(0.207855 0.0748281 -7.80706e-20)
(0.192021 0.0690084 -2.12825e-20)
(0.209607 0.0785157 -2.32497e-20)
(0.191866 0.0692115 0)
(0.216075 0.0866041 2.48862e-20)
(0.195288 0.0730865 -2.94221e-20)
(0.227913 0.0997951 4.87937e-20)
(0.204418 0.0810098 3.69966e-20)
(0.243652 0.118469 -1.48479e-20)
(0.21781 0.093706 0)
(0.259518 0.136752 -1.48479e-20)
(0.233586 0.111194 4.42825e-21)
(0.260174 0.120796 4.5391e-21)
(0.250487 0.13256 -5.05739e-21)
(0.272873 0.110039 1.43272e-21)
(0.189482 0.131121 -2.98261e-20)
(0.176778 0.163261 -4.91947e-20)
(0.18688 0.0979451 3.52076e-20)
(0.17716 0.120071 1.30249e-20)
(0.182152 0.0767275 1.17377e-20)
(0.172405 0.0881521 5.31068e-20)
(0.177972 0.0652062 6.81308e-21)
(0.166755 0.068081 -4.50304e-20)
(0.176076 0.060717 5.33552e-20)
(0.163159 0.0578047 5.39118e-20)
(0.177702 0.0611796 -5.98024e-21)
(0.163145 0.0543527 0)
(0.183403 0.0655218 -1.81731e-20)
(0.1673 0.0552878 6.91467e-21)
(0.193781 0.0735854 -1.24789e-20)
(0.175954 0.0597175 -1.62307e-20)
(0.209246 0.0863862 2.04047e-20)
(0.188946 0.0687438 -4.5044e-22)
(0.229504 0.109001 1.20925e-20)
(0.206528 0.0831255 1.98412e-20)
(0.250683 0.122482 -8.42242e-21)
(0.226877 0.107763 -5.96066e-21)
(0.271812 0.117747 -4.46387e-21)
(0.164914 0.1509 -6.93271e-21)
(0.151712 0.180404 -2.82164e-20)
(0.161696 0.107795 2.75736e-20)
(0.153846 0.136826 2.78442e-20)
(0.156057 0.0773596 0)
(0.149912 0.0975249 9.08216e-21)
(0.15139 0.0592258 0)
(0.143685 0.068549 0)
(0.149954 0.0503387 0)
(0.139502 0.0509321 3.05156e-21)
(0.152701 0.0473873 1.1016e-20)
(0.139674 0.0424434 0)
(0.159793 0.0483935 7.35617e-21)
(0.144827 0.0399266 1.32878e-20)
(0.171242 0.053316 -4.11499e-21)
(0.154619 0.0412818 -4.5923e-21)
(0.187998 0.0633306 -1.23963e-21)
(0.168954 0.0464449 4.23882e-22)
(0.209452 0.0802141 1.05185e-21)
(0.188704 0.057811 -7.92137e-22)
(0.238189 0.100246 -1.65794e-21)
(0.211901 0.0776829 -1.21606e-21)
(0.261325 0.0975881 -3.95129e-21)
(0.139594 0.166353 5.85799e-21)
(0.121982 0.174639 -2.48181e-21)
(0.140095 0.12621 9.17219e-21)
(0.12863 0.144824 -4.09329e-21)
(0.135919 0.0881666 9.17219e-21)
(0.129665 0.110703 -6.52097e-22)
(0.130957 0.059553 3.08181e-21)
(0.126462 0.0777965 -2.34676e-20)
(0.128801 0.0423949 3.08181e-21)
(0.122356 0.0516671 5.82894e-21)
(0.13154 0.0344352 1.49387e-21)
(0.121168 0.0348094 0)
(0.139525 0.0322267 -3.72326e-22)
(0.125223 0.0263059 8.50181e-21)
(0.15241 0.0337745 -1.45063e-21)
(0.135023 0.0236911 5.49423e-21)
(0.170513 0.039483 4.15558e-22)
(0.15029 0.0251539 1.38978e-20)
(0.196134 0.0525325 1.4978e-21)
(0.172028 0.0308829 0)
(0.230439 0.0694982 -1.61911e-21)
(0.199169 0.0449681 1.51169e-21)
(0.249434 0.0579662 -1.21602e-21)
(0.109383 0.153212 -8.59051e-21)
(0.0900285 0.151265 2.46468e-20)
(0.11658 0.128939 -1.24767e-20)
(0.100012 0.132045 6.3754e-21)
(0.118724 0.100216 -3.20322e-20)
(0.10686 0.10984 -2.87616e-20)
(0.116805 0.0700227 -1.88546e-20)
(0.109832 0.0847608 -7.35646e-21)
(0.11412 0.0440029 3.31692e-21)
(0.109559 0.0586409 3.39075e-20)
(0.114486 0.0263556 7.48296e-21)
(0.10844 0.0353583 1.13748e-20)
(0.12041 0.0172632 1.59439e-20)
(0.109803 0.0184088 -5.65377e-21)
(0.132738 0.0143135 2.17384e-20)
(0.116368 0.00856044 -8.64145e-21)
(0.151898 0.0153474 1.36045e-20)
(0.129569 0.0042804 1.47218e-21)
(0.179204 0.021371 0)
(0.15086 0.00403498 9.37068e-21)
(0.220957 0.0291642 3.0899e-21)
(0.180213 0.00787854 -1.23806e-20)
(0.237643 0.000100487 3.11815e-21)
(0.0790249 0.130683 3.19211e-20)
(0.0610908 0.127585 1.09228e-20)
(0.0887011 0.112886 -9.88683e-21)
(0.0716102 0.11265 -1.41885e-20)
(0.0966894 0.0940667 -4.66236e-21)
(0.0813449 0.0959435 -9.2169e-21)
(0.101678 0.0732823 4.66933e-20)
(0.0894654 0.078433 5.08379e-21)
(0.103254 0.0501663 4.13717e-20)
(0.0950853 0.0594811 3.2703e-20)
(0.1033 0.0275992 -1.42771e-21)
(0.0979249 0.0386606 -1.96529e-20)
(0.105297 0.00975091 -3.01596e-20)
(0.0991798 0.0181329 3.30563e-21)
(0.112645 -0.00158793 -2.92511e-20)
(0.10166 0.00100205 -1.08318e-20)
(0.127889 -0.00790308 -2.80146e-21)
(0.108617 -0.0114646 -2.58864e-20)
(0.155223 -0.0125233 -3.03655e-21)
(0.123199 -0.0214598 -9.0396e-21)
(0.206352 -0.0292862 -1.24891e-20)
(0.144861 -0.0348305 6.92268e-22)
(0.184545 -0.0794415 -3.33006e-21)
(-0.134099 0.0232365 0)
(-0.140749 0.00771452 7.51315e-24)
(-0.131933 0.0299666 0)
(-0.140474 0.0127819 6.17767e-20)
(-0.125396 0.0333487 0)
(-0.135929 0.0134514 -6.00258e-20)
(-0.116918 0.0379851 0)
(-0.129003 0.018349 1.18443e-19)
(-0.108887 0.0441052 2.76832e-19)
(-0.121564 0.0271509 -1.17769e-19)
(-0.102634 0.0518105 -3.40922e-19)
(-0.114372 0.0382606 4.83956e-20)
(-0.097774 0.0607256 -3.44822e-19)
(-0.108412 0.0489333 -2.79022e-19)
(-0.0941295 0.0702318 8.88572e-21)
(-0.103848 0.0595209 1.64598e-19)
(-0.0916992 0.0798387 -3.2272e-19)
(-0.100573 0.0704695 -3.79119e-19)
(-0.0900862 0.0888461 7.92089e-20)
(-0.098603 0.0810064 -6.0852e-20)
(-0.0885969 0.0962723 2.023e-19)
(-0.0978469 0.0902513 1.58735e-19)
(-0.0977581 0.0973887 2.79429e-19)
(-0.0864299 0.101086 -5.72711e-20)
(-0.150111 0.00265982 6.29549e-20)
(-0.154767 0.00901785 2.71785e-20)
(-0.144289 0.000896277 2.57707e-21)
(-0.153693 0.00376 3.73166e-20)
(-0.137768 0.0039071 5.95244e-20)
(-0.148448 0.0051285 -6.2186e-20)
(-0.131451 0.012641 1.71868e-21)
(-0.142948 0.0139246 2.29834e-19)
(-0.125372 0.0248497 -3.5801e-19)
(-0.137814 0.0274031 -3.38499e-19)
(-0.119014 0.0380453 1.1928e-19)
(-0.132562 0.0420045 -2.39635e-19)
(-0.112881 0.0510897 2.4202e-19)
(-0.127097 0.0562809 4.07601e-20)
(-0.108359 0.0643825 -2.27808e-19)
(-0.120376 0.0717589 1.97413e-19)
(-0.104901 0.0772178 -1.12303e-19)
(-0.114118 0.0854571 -3.2102e-19)
(-0.103031 0.0885321 5.2956e-21)
(-0.108992 0.0977817 2.96636e-19)
(-0.103328 0.0972813 2.25422e-19)
(-0.106019 0.108205 1.03326e-19)
(-0.105821 0.116931 3.9321e-20)
(-0.10518 0.103888 3.26838e-19)
(-0.161623 0.00528874 -5.71132e-23)
(-0.169908 0.00458017 2.80526e-20)
(-0.156638 0.00181503 -2.71371e-20)
(-0.170542 -0.00204532 -2.75494e-20)
(-0.153087 0.00811782 1.0895e-19)
(-0.169327 0.0049785 0)
(-0.150231 0.0222161 -1.09875e-19)
(-0.169011 0.0205279 -3.34002e-20)
(-0.146679 0.0395338 -2.18504e-19)
(-0.168095 0.0389719 -1.26683e-19)
(-0.142078 0.0572225 -3.29824e-19)
(-0.165258 0.0573412 1.02825e-19)
(-0.136705 0.0740558 -2.40324e-21)
(-0.160061 0.0746894 -4.2888e-19)
(-0.129795 0.0889328 1.27576e-19)
(-0.152323 0.0905399 6.02511e-19)
(-0.122873 0.102152 1.0373e-19)
(-0.142503 0.105137 -2.92774e-19)
(-0.117102 0.113714 3.90801e-19)
(-0.132636 0.11842 2.21339e-19)
(-0.113579 0.124195 -9.78689e-20)
(-0.124509 0.130713 9.04744e-20)
(-0.118809 0.144549 -1.88026e-19)
(-0.111866 0.13739 -1.85212e-19)
(-0.178814 -0.00172109 0)
(-0.187921 0.00232016 -3.03429e-20)
(-0.179817 0.000826301 0)
(-0.193359 0.00185805 2.01979e-20)
(-0.183102 0.0166465 -1.46228e-19)
(-0.198847 0.0175033 -3.86531e-20)
(-0.185978 0.037314 -4.95788e-20)
(-0.204997 0.0389483 -1.06873e-19)
(-0.186416 0.0576566 1.98614e-19)
(-0.208548 0.0599059 2.06176e-20)
(-0.183337 0.0761047 7.25623e-21)
(-0.207906 0.0784894 2.54679e-19)
(-0.176354 0.0927714 1.80246e-19)
(-0.202524 0.0947165 -1.42387e-20)
(-0.16608 0.108082 1.80625e-19)
(-0.192585 0.109381 5.17881e-20)
(-0.153931 0.122154 -1.77932e-19)
(-0.17884 0.12333 5.62272e-20)
(-0.141988 0.135601 -8.7384e-20)
(-0.163191 0.137335 -8.86005e-20)
(-0.131514 0.151098 0)
(-0.147485 0.15264 0)
(-0.132497 0.172244 2.09755e-19)
(-0.12264 0.172391 1.25068e-19)
(-0.199475 0.00470928 -1.13996e-20)
(-0.205865 0.00676615 -1.37888e-20)
(-0.208548 0.0168828 -1.87158e-20)
(-0.21939 0.0170961 -1.09866e-20)
(-0.218878 0.0390873 2.88984e-21)
(-0.232539 0.0401259 -4.62506e-21)
(-0.226794 0.0615566 -3.8109e-20)
(-0.245112 0.0643118 4.26293e-20)
(-0.230179 0.0811299 7.4643e-20)
(-0.253502 0.0849098 -1.39514e-19)
(-0.22782 0.0976323 2.36152e-19)
(-0.255808 0.10127 9.02119e-20)
(-0.219729 0.112012 -1.47121e-19)
(-0.250947 0.114841 -1.50522e-19)
(-0.206419 0.12528 -7.73851e-20)
(-0.238972 0.126738 -1.11461e-19)
(-0.189369 0.138756 1.50126e-19)
(-0.220534 0.138828 1.52054e-19)
(-0.170345 0.154342 0)
(-0.19778 0.15268 2.01125e-19)
(-0.15046 0.174264 2.12716e-19)
(-0.17303 0.169531 -1.97028e-19)
(-0.147119 0.190731 3.64497e-19)
(-0.131585 0.198348 1.01925e-19)
(-0.223065 0.0200982 -1.4759e-20)
(-0.222565 0.0202746 3.27163e-21)
(-0.240132 0.0410796 2.57035e-21)
(-0.24539 0.0414075 2.3213e-20)
(-0.257151 0.0668766 3.4716e-20)
(-0.265276 0.0695429 5.69079e-20)
(-0.270931 0.0895851 -5.90445e-20)
(-0.283928 0.0948499 0)
(-0.278906 0.107041 -1.24659e-19)
(-0.29778 0.113311 -4.81767e-21)
(-0.279097 0.120012 -3.01196e-19)
(-0.304386 0.125339 2.36572e-20)
(-0.270645 0.130642 -1.14529e-19)
(-0.301902 0.133936 -4.58063e-20)
(-0.253382 0.140942 1.21139e-19)
(-0.290019 0.140962 2.04113e-19)
(-0.229459 0.15307 2.03742e-19)
(-0.26796 0.150104 0)
(-0.201738 0.169003 3.06963e-22)
(-0.237049 0.162717 1.85267e-19)
(-0.171339 0.188535 -3.87125e-20)
(-0.201913 0.177424 -2.01972e-19)
(-0.165076 0.195408 7.37407e-20)
(-0.141198 0.208876 6.00409e-20)
(-0.24586 0.0436117 4.12292e-20)
(-0.236602 0.0407104 -8.32885e-21)
(-0.268454 0.0719002 7.83032e-20)
(-0.265999 0.0702925 5.60822e-20)
(-0.290563 0.100175 2.20407e-20)
(-0.288166 0.10153 -2.1581e-20)
(-0.309481 0.121629 5.18491e-20)
(-0.309004 0.125872 0)
(-0.322467 0.134736 1.4299e-19)
(-0.324986 0.139458 1.34389e-20)
(-0.326871 0.141629 2.8222e-19)
(-0.333991 0.143955 4.31975e-20)
(-0.320881 0.146272 2.73592e-19)
(-0.334429 0.14472 1.87434e-19)
(-0.303662 0.152192 8.25134e-20)
(-0.326188 0.145742 6.67986e-20)
(-0.27544 0.161363 -1.90837e-20)
(-0.307327 0.151203 -1.22097e-19)
(-0.237804 0.173959 -1.90837e-20)
(-0.276287 0.161097 -2.97713e-20)
(-0.196436 0.189686 -7.32815e-20)
(-0.234011 0.174247 -8.97512e-20)
(-0.187484 0.187211 -7.8046e-20)
(-0.155197 0.203728 -1.84819e-19)
(-0.262601 0.0684102 6.13174e-21)
(-0.246695 0.0610249 -1.14519e-20)
(-0.284442 0.101109 -4.28768e-20)
(-0.276082 0.0960662 0)
(-0.305002 0.128667 -4.28768e-20)
(-0.292658 0.127008 -4.3324e-20)
(-0.322669 0.144927 -3.94258e-20)
(-0.308097 0.146757 3.09416e-20)
(-0.335496 0.149813 -8.74851e-20)
(-0.319094 0.151747 2.72966e-20)
(-0.341574 0.148127 -5.00718e-20)
(-0.324974 0.145964 -1.91197e-19)
(-0.339503 0.14591 -1.50564e-20)
(-0.325978 0.137925 2.30388e-21)
(-0.328617 0.147589 -1.35722e-19)
(-0.322175 0.133862 5.31823e-20)
(-0.306809 0.15439 -1.24353e-19)
(-0.311504 0.136602 -1.24758e-19)
(-0.272331 0.165167 -9.67771e-20)
(-0.290989 0.145414 1.66995e-20)
(-0.225966 0.176943 -9.47547e-20)
(-0.257665 0.157649 -7.26359e-20)
(-0.212043 0.169572 -1.07281e-20)
(-0.175594 0.186523 6.11731e-20)
(-0.270452 0.0876285 -1.78336e-20)
(-0.252763 0.0729067 -9.28939e-21)
(-0.283089 0.120585 0)
(-0.275972 0.110794 1.36135e-20)
(-0.293537 0.143105 3.12678e-20)
(-0.279491 0.137888 -1.34101e-20)
(-0.301851 0.150617 9.9109e-20)
(-0.283722 0.150265 3.26365e-20)
(-0.307673 0.1452 -8.17762e-20)
(-0.285281 0.145275 -1.25089e-19)
(-0.310552 0.134496 -1.39862e-19)
(-0.285065 0.129902 -1.15855e-19)
(-0.310055 0.126142 7.70621e-20)
(-0.285079 0.115519 -5.56324e-20)
(-0.305315 0.124439 6.48383e-20)
(-0.283637 0.108139 7.28368e-20)
(-0.294728 0.13024 1.15764e-20)
(-0.27815 0.109466 7.79835e-20)
(-0.27557 0.141418 2.38873e-20)
(-0.267139 0.117991 9.54374e-20)
(-0.244218 0.153723 1.30784e-20)
(-0.248712 0.130506 1.24318e-20)
(-0.219833 0.143191 2.49609e-21)
(-0.199907 0.162471 -2.47141e-20)
(-0.272214 0.0946828 2.35153e-20)
(-0.257786 0.072 1.17281e-20)
(-0.270321 0.125345 1.73143e-21)
(-0.269152 0.11106 1.38759e-20)
(-0.265364 0.142096 -1.42794e-20)
(-0.25811 0.132375 -3.16779e-20)
(-0.261593 0.141719 -1.91164e-19)
(-0.248807 0.138648 1.71416e-20)
(-0.26086 0.128014 -1.64869e-19)
(-0.241083 0.127546 -1.42193e-19)
(-0.262237 0.110752 -2.73406e-20)
(-0.236471 0.107177 6.4785e-20)
(-0.262354 0.097722 -4.43641e-20)
(-0.236141 0.0883826 -6.35045e-20)
(-0.259246 0.0928684 8.61916e-20)
(-0.236398 0.0780168 8.92043e-20)
(-0.252313 0.0967872 1.65195e-19)
(-0.233661 0.0779462 -7.89135e-20)
(-0.241301 0.107262 8.64389e-20)
(-0.226474 0.0857985 1.21091e-20)
(-0.224978 0.120731 5.73944e-21)
(-0.214728 0.0979388 -1.97329e-20)
(-0.197973 0.111093 5.79264e-21)
(-0.200531 0.132889 4.40415e-22)
(-0.270804 0.0910454 1.45335e-21)
(-0.272008 0.0575445 4.74005e-21)
(-0.253288 0.118761 -1.81779e-20)
(-0.26455 0.0984331 0)
(-0.235211 0.128849 -1.25678e-22)
(-0.239247 0.115737 1.94092e-21)
(-0.221073 0.124058 6.74673e-20)
(-0.215316 0.118189 -7.27174e-21)
(-0.214228 0.106979 8.30968e-20)
(-0.198351 0.104658 3.62125e-20)
(-0.213149 0.0860988 2.91446e-20)
(-0.189456 0.0821889 2.94005e-20)
(-0.214008 0.0698168 8.4302e-20)
(-0.187645 0.0611603 -3.99142e-20)
(-0.213655 0.063114 -8.6948e-20)
(-0.189423 0.0497719 1.60025e-19)
(-0.210035 0.0658407 -2.51239e-19)
(-0.190162 0.0493558 -8.81542e-20)
(-0.202109 0.074692 -1.04951e-19)
(-0.187155 0.0563029 -5.57872e-20)
(-0.189746 0.0864147 -1.99175e-20)
(-0.179607 0.0668087 7.00075e-21)
(-0.167522 0.0786115 0)
(-0.173449 0.0987734 -2.95144e-21)
(-0.283332 0.0625334 5.16699e-21)
(-0.213652 0.0383307 5.77302e-21)
(-0.246307 0.0977031 1.71113e-20)
(-0.216215 0.0671263 5.70215e-21)
(-0.212352 0.107248 -2.76857e-21)
(-0.19935 0.0838425 1.7254e-20)
(-0.186569 0.100199 -3.53542e-20)
(-0.173519 0.0869596 -2.00457e-20)
(-0.171366 0.0811775 -2.00846e-20)
(-0.151982 0.0741729 -1.48754e-21)
(-0.165413 0.0585651 -4.02678e-20)
(-0.140185 0.0523802 -5.69373e-20)
(-0.165613 0.0419946 4.10954e-20)
(-0.138372 0.0332127 -3.63065e-20)
(-0.167737 0.03606 1.63099e-19)
(-0.14258 0.0240053 7.31648e-20)
(-0.168436 0.0391877 1.18542e-19)
(-0.147036 0.0246577 7.69902e-20)
(-0.16574 0.0474874 6.72604e-20)
(-0.14852 0.0311718 1.80989e-20)
(-0.158604 0.0578884 3.25473e-20)
(-0.146028 0.040331 2.18651e-20)
(-0.146664 0.0687204 6.83017e-21)
(-0.139125 0.0505759 0)
(-0.0830679 0.103184 -6.01563e-20)
(-0.0970983 0.103058 -8.6388e-21)
(-0.0782026 0.104475 -1.16622e-19)
(-0.0940629 0.109645 -3.133e-20)
(-0.0712671 0.106344 -5.34311e-20)
(-0.0891847 0.117234 -1.81537e-19)
(-0.0619667 0.10712 1.80222e-19)
(-0.0844274 0.122057 1.4047e-19)
(-0.0516705 0.105594 1.24575e-21)
(-0.0780242 0.123657 5.79439e-20)
(-0.0414742 0.102346 -1.65335e-19)
(-0.0691218 0.123214 -5.66749e-20)
(-0.0311927 0.0994451 -3.19569e-21)
(-0.0571702 0.121847 -1.11735e-19)
(-0.020494 0.0994075 1.08854e-19)
(-0.0416053 0.120363 2.09935e-19)
(-0.00939635 0.103865 -2.64329e-20)
(-0.0237822 0.119765 -9.95445e-20)
(0.00197784 0.113079 -3.96422e-20)
(-0.00604874 0.121592 -3.03199e-21)
(0.0110488 0.124836 -6.65641e-21)
(0.00782361 0.128296 -9.14907e-22)
(0.0120038 0.13434 5.5235e-21)
(-0.105888 0.112404 1.31851e-20)
(-0.1066 0.12778 1.10868e-19)
(-0.103794 0.124954 -9.5859e-20)
(-0.10544 0.143255 -2.58871e-20)
(-0.101106 0.135894 9.35432e-21)
(-0.104857 0.157783 -1.41175e-19)
(-0.0984957 0.14148 9.35432e-21)
(-0.106609 0.166652 8.21979e-20)
(-0.0930082 0.142949 0)
(-0.106685 0.171631 1.35575e-19)
(-0.0826953 0.14186 0)
(-0.102149 0.174468 1.36605e-19)
(-0.0667634 0.1398 1.00933e-19)
(-0.0905602 0.175099 -1.3663e-19)
(-0.045771 0.138345 4.51234e-21)
(-0.0704216 0.172999 6.9223e-20)