/*--------------------------------*- C++ -*----------------------------------*\
| =========                 |                                                 |
| \\      /  F ield         | OpenFOAM: The Open Source CFD Toolbox           |
|  \\    /   O peration     | Version:  2.3.1                                 |
|   \\  /    A nd           | Web:      www.OpenFOAM.org                      |
|    \\/     M anipulation  |                                                 |
\*---------------------------------------------------------------------------*/
FoamFile
{
    version     2.0;
    format      ascii;
    class       volScalarField;
    location    "0.33";
    object      nuTilda;
}
// * * * * * * * * * * * * * * * * * * * * * * * * * * * * * * * * * * * * * //

dimensions      [0 2 -1 0 0 0 0];

internalField   nonuniform List<scalar> 
56420
(
8.2579e-05
0.00022717
0.000477769
0.000669173
0.000793171
9.6295e-05
0.000246696
0.000515684
0.000717919
0.000850754
0.000104499
0.00026135
0.000547248
0.000763059
0.000907471
0.000110646
0.000272373
0.00057221
0.000801884
0.000957532
0.000115544
0.000280805
0.000591627
0.000834813
0.00100266
0.000119606
0.000287315
0.000606661
0.000862635
0.00104164
0.000123141
0.00029251
0.00061838
0.000886558
0.00107701
0.000126415
0.00029688
0.000627619
0.000906929
0.00110678
0.00012956
0.000300915
0.000635637
0.000925464
0.00113502
0.000132727
0.000305066
0.000644039
0.000944836
0.00116371
0.000135924
0.000309411
0.000653174
0.000965927
0.00119527
0.000139143
0.000313993
0.000663004
0.000988699
0.00122948
0.00014235
0.000318731
0.000673882
0.00101408
0.0012673
0.000145467
0.000323412
0.00068473
0.00104034
0.00130669
0.000148413
0.000327857
0.000695284
0.00106664
0.00134697
0.000151128
0.000332004
0.000705345
0.00109271
0.00138689
0.000153551
0.000335642
0.000714519
0.0011177
0.00142586
0.000155665
0.00033872
0.000722521
0.00114068
0.00146258
0.000157432
0.000341204
0.000729172
0.00116117
0.00149668
0.000158814
0.000342972
0.000734628
0.00117856
0.00152782
0.000159814
0.000344042
0.000738789
0.0011928
0.00155469
0.000160442
0.000344269
0.000741388
0.00120288
0.00157761
0.000160696
0.000343643
0.000742308
0.00120931
0.0015958
0.000160637
0.000342128
0.000741035
0.0012108
0.00160934
0.000160307
0.000339764
0.000737662
0.00120827
0.00161601
0.000159812
0.00033676
0.000732121
0.00120115
0.00161882
0.000159125
0.000333474
0.000724692
0.00119086
0.00161724
0.000158213
0.000329658
0.000716487
0.00117813
0.00161316
0.00015713
0.000325354
0.000707406
0.00116347
0.00160382
0.00015594
0.000320702
0.000697528
0.00114751
0.0015907
0.000154707
0.000315826
0.000687281
0.001131
0.0015775
0.000153521
0.000311051
0.000676991
0.00111462
0.0015625
0.000152408
0.000306429
0.000667012
0.0010982
0.00154826
0.000151424
0.000302159
0.00065769
0.0010828
0.00153054
0.000150615
0.000298356
0.000649174
0.00106846
0.00151692
0.000149994
0.000295092
0.000641734
0.00105605
0.00150185
0.00014958
0.000292407
0.000635359
0.00104462
0.00148798
0.000149426
0.000290352
0.00062964
0.00103469
0.0014777
0.000149518
0.000288835
0.00062478
0.00102556
0.00146606
0.000149812
0.000287896
0.000621092
0.0010182
0.0014583
0.000150285
0.000287539
0.000618626
0.00101234
0.00145051
0.000150937
0.000287749
0.000617653
0.00100864
0.00144368
0.000151723
0.000288481
0.000618196
0.00100826
0.00144414
0.000152621
0.000289564
0.000619984
0.00101053
0.00144588
0.000153611
0.000290974
0.000622616
0.00101518
0.00145451
0.000154664
0.000292602
0.000625662
0.0010206
0.00146561
0.000155742
0.000294374
0.000628851
0.00102576
0.00147411
0.000156845
0.000296378
0.000632216
0.0010307
0.00148347
0.000157976
0.000298604
0.000635836
0.00103474
0.00148835
0.000159131
0.000301218
0.00064004
0.00103889
0.00148936
0.000160263
0.000304103
0.000645228
0.0010451
0.00149356
0.000161396
0.000307313
0.000651325
0.00105372
0.00150473
0.000162482
0.0003107
0.000657863
0.00106331
0.00151662
0.000163514
0.000314283
0.000664673
0.00107362
0.00153149
0.00016448
0.000318067
0.00067157
0.00108358
0.00154539
0.000165381
0.000322121
0.000678564
0.00109294
0.00155485
0.000166213
0.000326551
0.000685826
0.00110303
0.00156828
0.00016697
0.000331474
0.000693134
0.00111282
0.00157901
0.000167535
0.000336429
0.000700934
0.00112318
0.00159131
0.000167748
0.000341098
0.000708074
0.00113369
0.00160638
0.000167471
0.000345128
0.000713661
0.00114199
0.00161835
0.000166545
0.000348222
0.000716816
0.00114658
0.00162698
0.000164715
0.000349849
0.000716624
0.00114541
0.00162614
0.000161582
0.000349528
0.00071214
0.00113756
0.00161395
0.00015635
0.000346278
0.000702107
0.00112256
0.00159217
0.000148188
0.00033868
0.000684386
0.00109915
0.00155664
0.000136308
0.000323919
0.000654866
0.00106673
0.00150818
0.000144708
0.00016383
0.000165926
0.000142085
0.000122841
0.000104075
8.8137e-05
7.39624e-05
6.75638e-05
0.000162632
0.00016406
0.000165223
0.000142113
0.000122059
0.000103273
8.72731e-05
7.3678e-05
6.73651e-05
0.000180384
0.000164916
0.000165224
0.00014256
0.000121782
0.000102845
8.6738e-05
7.35088e-05
6.72242e-05
0.000196646
0.000166416
0.00016569
0.000143313
0.000121885
0.000102714
8.64566e-05
7.34382e-05
6.71532e-05
0.000211057
0.000168498
0.00016653
0.000144326
0.000122293
0.000102825
8.63763e-05
7.34514e-05
6.71367e-05
0.000223536
0.000171071
0.000167671
0.000145564
0.000122954
0.000103147
8.64617e-05
7.35373e-05
6.71496e-05
0.000234092
0.000174045
0.00016906
0.000146998
0.00012383
0.000103645
8.66889e-05
7.36873e-05
6.72024e-05
0.00024278
0.000177329
0.000170662
0.000148598
0.000124896
0.000104302
8.70359e-05
7.38952e-05
6.72837e-05
0.000249736
0.000180838
0.000172453
0.000150348
0.000126125
0.000105096
8.74912e-05
7.41555e-05
6.73992e-05
0.000255155
0.00018452
0.000174417
0.000152233
0.000127501
0.000106018
8.80429e-05
7.44649e-05
6.75384e-05
0.000259226
0.000188337
0.000176555
0.000154243
0.000129015
0.000107057
8.8685e-05
7.48181e-05
6.76993e-05
0.000262207
0.000192189
0.000178822
0.000156352
0.000130655
0.000108199
8.94101e-05
7.52387e-05
6.78954e-05
0.000264323
0.000196016
0.0001812
0.000158547
0.000132408
0.000109447
9.02282e-05
7.57281e-05
6.81322e-05
0.000265744
0.00019978
0.000183687
0.000160825
0.000134267
0.000110799
9.11324e-05
7.62845e-05
6.84051e-05
0.000266606
0.000203433
0.000186282
0.000163179
0.000136229
0.000112243
9.21191e-05
7.69056e-05
6.87167e-05
0.000267018
0.000206956
0.000188973
0.000165614
0.000138285
0.000113783
9.31858e-05
7.75849e-05
6.90635e-05
0.000267061
0.000210328
0.000191752
0.000168128
0.000140437
0.000115416
9.43328e-05
7.8325e-05
6.94478e-05
0.000266812
0.000213534
0.000194612
0.000170722
0.00014268
0.000117135
9.55539e-05
7.91255e-05
6.98683e-05
0.000266315
0.000216573
0.000197537
0.000173392
0.00014501
0.000118946
9.68529e-05
7.99832e-05
7.03276e-05
0.000265617
0.000219443
0.000200522
0.000176139
0.000147424
0.000120841
9.82265e-05
8.0899e-05
7.08258e-05
0.000264738
0.000222144
0.000203552
0.000178961
0.000149929
0.000122825
9.96745e-05
8.18722e-05
7.13639e-05
0.000263717
0.000224677
0.000206615
0.000181859
0.000152515
0.000124892
0.0001012
8.29031e-05
7.19403e-05
0.00026257
0.000227049
0.000209705
0.000184828
0.000155186
0.000127045
0.000102798
8.39969e-05
7.25619e-05
0.000261314
0.000229268
0.00021281
0.000187869
0.000157937
0.000129284
0.000104475
8.5147e-05
7.32248e-05
0.000259961
0.000231339
0.000215921
0.000190973
0.000160771
0.000131607
0.000106226
8.63578e-05
7.39305e-05
0.00025852
0.000233269
0.000219032
0.000194145
0.000163683
0.000134016
0.000108054
8.76307e-05
7.46816e-05
0.00025701
0.000235065
0.000222134
0.000197373
0.000166675
0.000136506
0.000109961
8.89653e-05
7.54796e-05
0.000255441
0.000236736
0.000225221
0.00020066
0.000169747
0.000139085
0.000111942
9.03611e-05
7.63211e-05
0.00025382
0.000238289
0.000228287
0.000203998
0.000172895
0.000141744
0.000114004
9.18213e-05
7.72077e-05
0.000252153
0.000239735
0.000231328
0.000207383
0.000176119
0.000144494
0.000116144
9.33476e-05
7.81493e-05
0.000250444
0.000241078
0.000234339
0.000210814
0.000179417
0.000147326
0.000118368
9.49444e-05
7.91382e-05
0.000248702
0.000242326
0.000237319
0.000214282
0.000182789
0.000150243
0.000120673
9.66077e-05
8.01806e-05
0.00024693
0.000243487
0.000240263
0.000217787
0.000186231
0.000153242
0.00012306
9.83396e-05
8.1273e-05
0.000245133
0.000244567
0.00024317
0.000221324
0.000189744
0.000156331
0.00012553
0.000100144
8.24125e-05
0.000243319
0.000245573
0.000246039
0.00022489
0.000193324
0.000159503
0.000128087
0.000102023
8.36156e-05
0.000241489
0.000246511
0.000248868
0.000228478
0.000196971
0.000162762
0.000130732
0.00010398
8.48834e-05
0.000239639
0.000247385
0.000251658
0.000232086
0.000200682
0.000166104
0.000133465
0.000106017
8.62142e-05
0.000237783
0.000248202
0.000254407
0.000235713
0.000204452
0.000169531
0.000136287
0.000108128
8.76073e-05
0.000235921
0.000248966
0.000257117
0.000239351
0.00020828
0.000173045
0.0001392
0.000110325
8.90702e-05
0.000234053
0.000249684
0.000259788
0.000243003
0.000212168
0.00017664
0.000142199
0.000112604
9.05989e-05
0.000232182
0.000250357
0.000262419
0.000246661
0.000216109
0.000180317
0.000145297
0.000114968
9.21901e-05
0.000230302
0.000250986
0.000265013
0.000250326
0.000220103
0.000184081
0.000148487
0.000117425
9.38693e-05
0.000228421
0.000251583
0.000267571
0.000253995
0.000224148
0.000187932
0.000151775
0.000119979
9.56258e-05
0.00022654
0.000252144
0.000270091
0.000257667
0.000228245
0.000191865
0.000155161
0.000122623
9.74564e-05
0.00022466
0.000252678
0.000272578
0.000261338
0.000232385
0.000195879
0.000158649
0.000125369
9.93785e-05
0.00022278
0.000253181
0.00027503
0.000265008
0.000236569
0.000199974
0.000162239
0.000128212
0.00010137
0.000220894
0.000253657
0.000277449
0.000268677
0.000240797
0.000204152
0.000165927
0.000131168
0.000103472
0.000219001
0.000254107
0.000279834
0.000272341
0.000245068
0.000208418
0.000169732
0.000134234
0.00010568
0.000217103
0.000254533
0.000282189
0.000276001
0.000249376
0.000212762
0.00017364
0.000137419
0.000107997
0.000215202
0.00025494
0.000284513
0.000279654
0.000253726
0.000217192
0.000177662
0.000140721
0.000110426
0.000213293
0.000255323
0.000286811
0.000283301
0.00025811
0.000221698
0.000181793
0.00014414
0.000112952
0.000211375
0.000255689
0.000289077
0.000286941
0.000262528
0.000226287
0.000186039
0.000147692
0.000115614
0.000209444
0.000256033
0.000291313
0.000290573
0.000266981
0.000230959
0.000190403
0.000151377
0.0001184
0.0002075
0.000256359
0.000293521
0.000294196
0.000271466
0.000235712
0.000194885
0.000155203
0.000121323
0.000205544
0.000256663
0.000295703
0.000297809
0.000275983
0.000240543
0.00019949
0.000159163
0.000124385
0.000203567
0.00025695
0.000297855
0.000301413
0.000280529
0.000245457
0.000204219
0.000163278
0.000127605
0.000201576
0.000257221
0.000299978
0.000305004
0.000285105
0.000250448
0.000209069
0.000167544
0.000130985
0.00019956
0.000257469
0.000302075
0.000308585
0.000289706
0.00025552
0.000214049
0.000171962
0.000134518
0.000197516
0.000257695
0.000304143
0.000312153
0.000294335
0.000260668
0.000219159
0.000176551
0.00013823
0.000195447
0.000257906
0.000306179
0.000315707
0.000298988
0.000265895
0.0002244
0.000181308
0.000142131
0.000193344
0.000258085
0.00030818
0.000319246
0.000303666
0.000271199
0.000229776
0.000186239
0.000146218
0.000191199
0.00025824
0.000310156
0.000322769
0.000308366
0.00027658
0.00023528
0.000191346
0.000150522
0.000189012
0.000258369
0.0003121
0.000326276
0.000313085
0.000282039
0.000240922
0.000196642
0.000155038
0.000186781
0.000258474
0.000314005
0.000329765
0.000317825
0.000287568
0.000246698
0.000202118
0.000159743
0.000184504
0.000258547
0.00031588
0.000333235
0.000322582
0.000293168
0.00025261
0.000207795
0.000164714
0.000182177
0.000258594
0.000317718
0.000336682
0.000327354
0.000298841
0.000258662
0.000213672
0.000169913
0.000179795
0.000258601
0.000319512
0.000340107
0.000332142
0.000304588
0.000264853
0.000219744
0.000175326
0.000177356
0.000258583
0.000321271
0.000343507
0.000336941
0.000310402
0.000271184
0.000226032
0.000181026
0.000174851
0.000258517
0.000322983
0.000346877
0.00034175
0.000316286
0.000277652
0.000232527
0.000186977
0.000172273
0.000258417
0.00032465
0.000350221
0.000346567
0.000322233
0.000284255
0.000239241
0.000193215
0.000169622
0.000258274
0.000326273
0.000353529
0.000351389
0.000328244
0.000290999
0.000246169
0.000199754
0.000166894
0.000258089
0.000327843
0.000356804
0.000356213
0.000334314
0.000297877
0.000253317
0.000206603
0.000164079
0.000257851
0.000329356
0.000360041
0.000361036
0.000340443
0.00030489
0.000260686
0.000213766
0.000161172
0.000257568
0.000330818
0.000363239
0.000365855
0.000346625
0.000312033
0.000268279
0.000221229
0.000158169
0.000257227
0.000332216
0.00036639
0.000370667
0.000352857
0.000319304
0.000276094
0.000229012
0.000155067
0.000256834
0.000333558
0.000369493
0.000375466
0.000359136
0.000326707
0.000284138
0.000237122
0.000151859
0.000256387
0.000334829
0.000372545
0.000380249
0.000365459
0.000334232
0.000292403
0.000245598
0.000148539
0.000255878
0.000336027
0.000375541
0.000385012
0.000371819
0.000341877
0.000300888
0.000254377
0.000145091
0.000255293
0.000337152
0.000378473
0.000389749
0.000378212
0.000349635
0.000309596
0.000263545
0.000141509
0.000254651
0.000338207
0.00038134
0.000394455
0.000384632
0.000357502
0.000318519
0.000273012
0.000137786
0.000253935
0.000339171
0.00038414
0.000399125
0.000391072
0.000365473
0.000327652
0.000282754
0.000133911
0.00025315
0.00034005
0.000386862
0.000403753
0.000397527
0.000373541
0.000336988
0.000292773
0.000129871
0.000252283
0.000340838
0.000389501
0.000408331
0.00040399
0.000381698
0.000346511
0.000303128
0.000125641
0.000251331
0.000341534
0.000392059
0.000412857
0.000410452
0.000389935
0.000356218
0.000313728
0.000121208
0.000250304
0.000342129
0.000394521
0.000417321
0.000416907
0.000398241
0.00036609
0.000324628
0.000116553
0.000249193
0.000342618
0.000396891
0.000421717
0.000423345
0.000406604
0.000376109
0.000335768
0.000111639
0.000247991
0.000343002
0.000399152
0.000426034
0.000429756
0.000415017
0.000386294
0.000347187
0.000106412
0.000246684
0.000343255
0.000401293
0.000430262
0.00043613
0.000423472
0.000396618
0.000358814
0.000100807
0.000245273
0.000343388
0.000403314
0.000434391
0.000442456
0.000431952
0.000407056
0.000370689
9.47424e-05
0.000243761
0.000343379
0.0004052
0.000438415
0.000448723
0.000440442
0.00041758
0.000382715
8.80879e-05
0.000242127
0.000343225
0.00040694
0.000442315
0.000454915
0.000448924
0.000428169
0.000394854
8.06567e-05
0.000240368
0.000342916
0.000408521
0.00044608
0.000461016
0.000457378
0.000438807
0.000407225
7.22933e-05
0.000238506
0.000342453
0.000409941
0.000449704
0.000467015
0.000465797
0.000449524
0.000419914
6.34289e-05
0.000236581
0.000341848
0.000411202
0.000453185
0.000472908
0.00047417
0.000460286
0.000432468
5.61561e-05
0.000234707
0.000341136
0.000412323
0.000456522
0.000478688
0.000482481
0.000471049
0.000445455
5.20342e-05
0.000233031
0.00034039
0.000413319
0.000459721
0.000484347
0.000490709
0.000481795
0.000458456
5.0148e-05
0.000231602
0.000339674
0.000414244
0.000462806
0.000489888
0.000498851
0.000492508
0.000471426
4.92482e-05
0.000230448
0.000339079
0.000415151
0.000465806
0.000495328
0.000506907
0.00050317
0.000484545
4.87058e-05
0.000229547
0.000338646
0.000416102
0.000468765
0.00050069
0.000514879
0.000513776
0.00049762
4.82766e-05
0.000228851
0.000338355
0.0004171
0.000471702
0.000505979
0.00052276
0.000524285
0.000510666
4.76104e-05
0.000226435
0.000337754
0.00041809
0.000474496
0.000511157
0.000530401
0.000534459
0.000523369
9.34492e-05
0.00010649
0.000107341
9.87094e-05
8.6075e-05
7.73349e-05
7.10254e-05
6.69086e-05
6.42346e-05
6.26212e-05
6.20924e-05
6.18981e-05
0.000105029
0.000106598
0.000107226
9.81934e-05
8.56278e-05
7.68114e-05
7.06494e-05
6.66549e-05
6.4098e-05
6.26029e-05
6.20913e-05
6.1907e-05
0.000117843
0.000107183
0.000107354
9.79858e-05
8.53696e-05
7.64501e-05
7.03727e-05
6.64654e-05
6.3999e-05
6.25914e-05
6.20923e-05
6.19082e-05
0.000131031
0.000108268
0.00010766
9.79845e-05
8.5248e-05
7.62064e-05
7.01718e-05
6.63249e-05
6.39282e-05
6.25854e-05
6.20944e-05
6.19085e-05
0.000144178
0.000109849
0.000108121
9.81409e-05
8.52377e-05
7.60534e-05
7.00295e-05
6.6223e-05
6.38786e-05
6.25839e-05
6.20974e-05
6.19069e-05
0.000156881
0.000111904
0.000108715
9.84213e-05
8.53162e-05
7.59729e-05
6.99348e-05
6.61519e-05
6.38458e-05
6.2586e-05
6.21009e-05
6.19046e-05
0.000168744
0.0001144
0.00010943
9.87985e-05
8.54693e-05
7.5951e-05
6.98784e-05
6.61049e-05
6.38259e-05
6.2591e-05
6.21047e-05
6.19014e-05
0.000179477
0.000117284
0.000110256
9.9254e-05
8.56808e-05
7.59769e-05
6.98528e-05
6.6078e-05
6.38163e-05
6.25984e-05
6.21088e-05
6.18978e-05
0.000188939
0.000120498
0.000111193
9.9775e-05
8.59419e-05
7.60408e-05
6.9853e-05
6.60669e-05
6.3815e-05
6.26077e-05
6.2113e-05
6.18934e-05
0.000197129
0.000123975
0.000112238
0.000100353
8.62453e-05
7.61377e-05
6.9874e-05
6.60688e-05
6.38201e-05
6.26187e-05
6.21174e-05
6.1889e-05
0.00020414
0.000127655
0.000113392
0.00010098
8.65853e-05
7.62614e-05
6.99125e-05
6.60816e-05
6.38308e-05
6.26309e-05
6.21219e-05
6.18842e-05
0.000210085
0.000131471
0.000114652
0.000101658
8.69581e-05
7.64097e-05
6.99663e-05
6.61034e-05
6.38458e-05
6.26441e-05
6.21265e-05
6.18802e-05
0.000215141
0.000135377
0.00011602
0.000102377
8.73595e-05
7.65785e-05
7.0033e-05
6.6133e-05
6.38646e-05
6.26583e-05
6.21308e-05
6.1869e-05
0.000219415
0.000139332
0.000117494
0.000103138
8.77874e-05
7.67658e-05
7.01106e-05
6.61693e-05
6.38864e-05
6.26731e-05
6.21345e-05
6.18561e-05
0.000223078
0.000143293
0.000119071
0.000103944
8.82398e-05
7.69695e-05
7.0198e-05
6.62107e-05
6.39111e-05
6.26885e-05
6.21379e-05
6.18451e-05
0.000226255
0.000147234
0.000120751
0.000104789
8.87143e-05
7.71882e-05
7.02945e-05
6.62575e-05
6.39379e-05
6.27044e-05
6.21412e-05
6.1836e-05
0.000229
0.000151132
0.000122527
0.000105675
8.92117e-05
7.74216e-05
7.03988e-05
6.63086e-05
6.39666e-05
6.27207e-05
6.21436e-05
6.1811e-05
0.000231406
0.000154971
0.000124399
0.000106606
8.973e-05
7.76672e-05
7.05106e-05
6.63635e-05
6.39971e-05
6.27372e-05
6.21453e-05
6.17878e-05
0.000233538
0.000158735
0.000126362
0.000107578
9.02683e-05
7.79259e-05
7.06287e-05
6.64219e-05
6.40292e-05
6.27541e-05
6.21465e-05
6.17673e-05
0.000235443
0.000162414
0.000128409
0.000108594
9.08278e-05
7.81954e-05
7.07531e-05
6.64835e-05
6.40627e-05
6.27712e-05
6.21473e-05
6.17488e-05
0.000237191
0.000166004
0.000130542
0.000109657
9.14073e-05
7.84775e-05
7.08834e-05
6.65481e-05
6.40975e-05
6.27885e-05
6.21479e-05
6.17302e-05
0.000238739
0.000169498
0.000132748
0.000110764
9.201e-05
7.87706e-05
7.10197e-05
6.66154e-05
6.41334e-05
6.28059e-05
6.21482e-05
6.17125e-05
0.000240188
0.00017289
0.000135031
0.000111921
9.26328e-05
7.90746e-05
7.11612e-05
6.66857e-05
6.41704e-05
6.28237e-05
6.21484e-05
6.16965e-05
0.00024154
0.000176183
0.000137378
0.000113122
9.32767e-05
7.93883e-05
7.13082e-05
6.67581e-05
6.42085e-05
6.28415e-05
6.21484e-05
6.16809e-05
0.000242738
0.000179377
0.000139787
0.000114377
9.39447e-05
7.97146e-05
7.14601e-05
6.6833e-05
6.42475e-05
6.28595e-05
6.21485e-05
6.16663e-05
0.000243875
0.000182466
0.000142255
0.000115682
9.46365e-05
8.00521e-05
7.16171e-05
6.69106e-05
6.42876e-05
6.28779e-05
6.2149e-05
6.16643e-05
0.000244959
0.000185456
0.000144774
0.000117038
9.53505e-05
8.04015e-05
7.178e-05
6.69902e-05
6.43287e-05
6.28964e-05
6.21495e-05
6.1652e-05
0.000245936
0.000188354
0.000147338
0.00011845
9.60914e-05
8.07624e-05
7.19473e-05
6.70724e-05
6.43706e-05
6.29153e-05
6.21506e-05
6.16583e-05
0.000246843
0.000191157
0.000149945
0.000119911
9.68602e-05
8.11351e-05
7.21204e-05
6.7157e-05
6.44137e-05
6.29344e-05
6.21522e-05
6.16604e-05
0.000247691
0.000193861
0.000152591
0.000121432
9.76548e-05
8.1521e-05
7.2299e-05
6.72439e-05
6.44576e-05
6.2954e-05
6.21545e-05
6.16719e-05
0.00024849
0.000196478
0.000155269
0.000123007
9.84805e-05
8.19208e-05
7.24834e-05
6.73329e-05
6.45025e-05
6.29739e-05
6.21574e-05
6.16827e-05
0.000249216
0.000199011
0.000157975
0.000124637
9.93359e-05
8.23328e-05
7.2674e-05
6.74248e-05
6.45485e-05
6.29943e-05
6.21608e-05
6.16926e-05
0.000249937
0.000201463
0.000160702
0.000126324
0.000100221
8.27598e-05
7.28697e-05
6.75193e-05
6.45958e-05
6.30151e-05
6.21647e-05
6.1701e-05
0.000250566
0.000203829
0.00016345
0.000128071
0.000101143
8.32012e-05
7.30718e-05
6.76162e-05
6.4644e-05
6.30365e-05
6.21691e-05
6.17112e-05
0.000251194
0.000206125
0.000166217
0.000129872
0.0001021
8.3659e-05
7.32806e-05
6.77163e-05
6.46936e-05
6.30583e-05
6.2174e-05
6.17197e-05
0.000251744
0.000208345
0.000168995
0.000131735
0.000103091
8.4133e-05
7.34965e-05
6.78186e-05
6.47443e-05
6.30807e-05
6.21794e-05
6.17319e-05
0.000252244
0.000210498
0.000171781
0.000133651
0.000104122
8.46238e-05
7.3719e-05
6.79247e-05
6.47964e-05
6.31039e-05
6.21852e-05
6.17424e-05
0.00025271
0.000212574
0.00017457
0.000135628
0.000105194
8.5135e-05
7.39493e-05
6.80332e-05
6.48498e-05
6.31277e-05
6.21915e-05
6.1751e-05
0.000253141
0.000214597
0.000177368
0.000137658
0.000106306
8.56637e-05
7.41878e-05
6.8145e-05
6.49045e-05
6.31521e-05
6.21983e-05
6.17627e-05
0.000253533
0.000216552
0.000180168
0.000139748
0.000107463
8.62139e-05
7.4433e-05
6.82602e-05
6.4961e-05
6.31774e-05
6.22055e-05
6.17752e-05
0.000253901
0.000218443
0.000182964
0.000141893
0.000108664
8.6786e-05
7.4688e-05
6.8379e-05
6.50188e-05
6.32032e-05
6.22132e-05
6.17863e-05
0.000254192
0.000220269
0.000185766
0.000144102
0.000109912
8.73782e-05
7.49515e-05
6.85014e-05
6.50782e-05
6.323e-05
6.22215e-05
6.17991e-05
0.000254479
0.000222036
0.00018855
0.000146363
0.000111208
8.79957e-05
7.52246e-05
6.86274e-05
6.51394e-05
6.32576e-05
6.22301e-05
6.18109e-05
0.000254748
0.000223748
0.000191312
0.00014869
0.000112562
8.8637e-05
7.5507e-05
6.87578e-05
6.52018e-05
6.3286e-05
6.22391e-05
6.18255e-05
0.000254954
0.000225405
0.000194061
0.000151065
0.000113982
8.93072e-05
7.58005e-05
6.88914e-05
6.52664e-05
6.33153e-05
6.22487e-05
6.18382e-05
0.000255134
0.000227006
0.000196781
0.000153483
0.000115451
9.00127e-05
7.61046e-05
6.90302e-05
6.53328e-05
6.33455e-05
6.22589e-05
6.18541e-05
0.000255281
0.000228559
0.000199483
0.000155945
0.000116976
9.07605e-05
7.64256e-05
6.9173e-05
6.54014e-05
6.33769e-05
6.22696e-05
6.18674e-05
0.000255436
0.000230071
0.00020216
0.000158447
0.000118566
9.15391e-05
7.67659e-05
6.93255e-05
6.54721e-05
6.34091e-05
6.22808e-05
6.18835e-05
0.000255526
0.000231533
0.000204812
0.000160993
0.000120211
9.23546e-05
7.71216e-05
6.94842e-05
6.55465e-05
6.34432e-05
6.22926e-05
6.18974e-05
0.000255591
0.000232951
0.000207435
0.000163572
0.000121916
9.32087e-05
7.74946e-05
6.96499e-05
6.56245e-05
6.34793e-05
6.23056e-05
6.19161e-05
0.00025563
0.000234328
0.000210029
0.000166183
0.000123677
9.41056e-05
7.78892e-05
6.98245e-05
6.57067e-05
6.35167e-05
6.23194e-05
6.1935e-05
0.000255644
0.000235666
0.000212597
0.000168827
0.000125514
9.50436e-05
7.83002e-05
7.00055e-05
6.57928e-05
6.35566e-05
6.23347e-05
6.19513e-05
0.000255644
0.000236966
0.000215136
0.000171511
0.000127401
9.60257e-05
7.87353e-05
7.01976e-05
6.58827e-05
6.35986e-05
6.23515e-05
6.19716e-05
0.000255575
0.000238225
0.000217648
0.00017421
0.000129358
9.70578e-05
7.91927e-05
7.03989e-05
6.59755e-05
6.36425e-05
6.23695e-05
6.19887e-05
0.000255517
0.00023945
0.000220128
0.000176944
0.000131364
9.81422e-05
7.96698e-05
7.06095e-05
6.6075e-05
6.36887e-05
6.23891e-05
6.20089e-05
0.000255442
0.000240642
0.000222583
0.000179685
0.000133443
9.92733e-05
8.01799e-05
7.08304e-05
6.61778e-05
6.37377e-05
6.241e-05
6.20263e-05
0.000255303
0.000241798
0.000225008
0.000182455
0.000135579
0.000100453
8.07118e-05
7.10642e-05
6.62868e-05
6.37885e-05
6.24323e-05
6.20444e-05
0.000255141
0.000242921
0.000227399
0.000185252
0.000137787
0.000101696
8.12765e-05
7.13097e-05
6.6399e-05
6.38423e-05
6.24564e-05
6.20661e-05
0.000254962
0.000244012
0.000229764
0.00018805
0.000140042
0.000102987
8.18633e-05
7.15672e-05
6.65193e-05
6.38993e-05
6.24823e-05
6.20861e-05
0.00025476
0.000245073
0.000232102
0.00019087
0.000142367
0.00010435
8.2492e-05
7.1838e-05
6.66433e-05
6.39583e-05
6.25098e-05
6.21095e-05
0.000254537
0.000246103
0.000234411
0.000193695
0.000144753
0.000105764
8.31483e-05
7.21241e-05
6.6775e-05
6.4021e-05
6.25388e-05
6.21311e-05
0.000254265
0.0002471
0.000236689
0.00019654
0.000147186
0.000107245
8.38428e-05
7.24265e-05
6.69123e-05
6.40871e-05
6.25698e-05
6.21564e-05
0.000253977
0.000248071
0.00023894
0.000199389
0.000149684
0.000108785
8.45778e-05
7.27434e-05
6.70584e-05
6.41566e-05
6.26028e-05
6.21791e-05
0.000253666
0.000249014
0.000241164
0.000202237
0.000152243
0.000110398
8.53454e-05
7.3079e-05
6.72108e-05
6.42293e-05
6.26381e-05
6.22044e-05
0.000253335
0.000249928
0.000243361
0.000205096
0.000154853
0.000112076
8.61678e-05
7.34365e-05
6.73724e-05
6.43052e-05
6.2675e-05
6.22276e-05
0.000252985
0.000250817
0.00024553
0.000207956
0.000157505
0.000113819
8.70209e-05
7.3812e-05
6.75415e-05
6.43865e-05
6.27147e-05
6.22548e-05
0.000252617
0.000251678
0.000247673
0.000210819
0.000160223
0.000115634
8.79352e-05
7.42088e-05
6.77193e-05
6.4471e-05
6.27564e-05
6.2281e-05
0.000252189
0.000252511
0.00024979
0.00021368
0.000162992
0.000117534
8.88953e-05
7.46304e-05
6.79077e-05
6.45616e-05
6.28006e-05
6.23115e-05
0.000251751
0.000253319
0.00025188
0.000216547
0.000165805
0.000119496
8.99001e-05
7.50761e-05
6.81082e-05
6.46564e-05
6.28474e-05
6.23401e-05
0.000251298
0.000254103
0.000253943
0.000219414
0.00016866
0.00012154
9.09677e-05
7.55534e-05
6.83191e-05
6.47561e-05
6.28976e-05
6.2372e-05
0.000250814
0.000254864
0.000255983
0.000222271
0.000171576
0.000123667
9.20893e-05
7.60538e-05
6.85431e-05
6.48619e-05
6.29502e-05
6.24023e-05
0.000250307
0.000255604
0.000257999
0.00022512
0.000174512
0.000125864
9.32856e-05
7.65907e-05
6.87824e-05
6.49745e-05
6.30062e-05
6.24376e-05
0.000249781
0.000256321
0.000259988
0.000227978
0.000177514
0.000128128
9.45369e-05
7.71599e-05
6.90337e-05
6.50936e-05
6.30659e-05
6.24718e-05
0.000249236
0.000257011
0.000261954
0.000230826
0.000180544
0.000130487
9.58502e-05
7.77646e-05
6.93027e-05
6.52192e-05
6.31287e-05
6.25064e-05
0.000248638
0.000257676
0.000263894
0.000233671
0.000183616
0.000132917
9.72457e-05
7.84044e-05
6.95894e-05
6.53529e-05
6.31954e-05
6.25468e-05
0.000248026
0.00025832
0.000265814
0.0002365
0.000186733
0.000135431
9.87081e-05
7.90918e-05
6.98948e-05
6.54954e-05
6.32666e-05
6.25877e-05
0.00024739
0.000258942
0.000267711
0.000239328
0.000189869
0.000138031
0.000100249
7.98215e-05
7.02182e-05
6.56461e-05
6.33422e-05
6.26317e-05
0.000246731
0.000259539
0.000269584
0.000242148
0.000193063
0.000140692
0.000101862
8.05959e-05
7.05642e-05
6.58058e-05
6.34226e-05
6.26712e-05
0.000246013
0.000260116
0.000271434
0.000244965
0.000196272
0.000143442
0.000103573
8.1424e-05
7.09338e-05
6.59788e-05
6.35075e-05
6.27168e-05
0.000245305
0.000260675
0.000273264
0.000247775
0.000199515
0.000146285
0.000105359
8.23013e-05
7.13303e-05
6.61615e-05
6.3599e-05
6.27628e-05
0.000244571
0.000261206
0.000275068
0.000250578
0.000202793
0.0001492
0.00010725
8.32454e-05
7.1755e-05
6.63574e-05
6.36955e-05
6.2814e-05
0.000243784
0.000261713
0.000276854
0.000253368
0.000206098
0.000152191
0.000109222
8.42404e-05
7.22112e-05
6.65676e-05
6.37987e-05
6.28667e-05
0.000242948
0.000262197
0.000278616
0.000256156
0.000209419
0.000155263
0.000111285
8.53137e-05
7.26962e-05
6.67918e-05
6.39092e-05
6.29248e-05
0.000242089
0.00026266
0.000280358
0.000258928
0.000212779
0.000158411
0.00011347
8.64487e-05
7.32216e-05
6.70332e-05
6.40283e-05
6.29848e-05
0.000241205
0.000263092
0.00028207
0.000261698
0.000216167
0.000161639
0.000115737
8.76655e-05
7.37861e-05
6.72931e-05
6.4155e-05
6.30522e-05
0.00024028
0.000263513
0.000283768
0.000264453
0.000219562
0.00016494
0.000118111
8.8955e-05
7.43912e-05
6.75719e-05
6.42907e-05
6.31251e-05
0.000239366
0.000263913
0.000285447
0.000267203
0.000222993
0.00016832
0.000120588
9.03367e-05
7.50441e-05
6.78721e-05
6.44376e-05
6.31982e-05
0.000238413
0.000264297
0.000287106
0.00026994
0.000226445
0.000171771
0.000123194
9.18056e-05
7.57467e-05
6.81967e-05
6.4594e-05
6.32751e-05
0.000237427
0.000264647
0.000288733
0.000272672
0.000229917
0.000175293
0.000125891
9.33573e-05
7.65011e-05
6.85491e-05
6.47638e-05
6.33581e-05
0.000236374
0.000264967
0.000290351
0.000275396
0.000233403
0.000178884
0.000128716
9.50227e-05
7.73129e-05
6.89268e-05
6.49469e-05
6.34491e-05
0.000235269
0.000265271
0.000291939
0.000278103
0.00023691
0.000182558
0.000131654
9.67997e-05
7.81887e-05
6.93382e-05
6.51447e-05
6.35437e-05
0.000234156
0.000265556
0.000293506
0.000280807
0.000240446
0.000186306
0.000134713
9.86746e-05
7.9141e-05
6.97843e-05
6.53582e-05
6.36428e-05
0.000233012
0.000265813
0.000295056
0.0002835
0.000243981
0.000190113
0.000137883
0.000100664
8.01632e-05
7.02672e-05
6.55918e-05
6.37527e-05
0.000231821
0.000266041
0.000296588
0.000286181
0.000247547
0.000193986
0.000141185
0.000102789
8.12669e-05
7.07965e-05
6.58426e-05
6.38727e-05
0.000230575
0.000266255
0.000298099
0.000288854
0.000251127
0.000197926
0.000144593
0.000105035
8.24543e-05
7.13663e-05
6.61176e-05
6.4002e-05
0.000229296
0.000266429
0.000299579
0.000291517
0.000254736
0.000201939
0.000148139
0.00010743
8.37471e-05
7.19903e-05
6.64194e-05
6.41468e-05
0.000227955
0.000266594
0.000301039
0.000294173
0.000258341
0.000206014
0.000151825
0.000109949
8.51375e-05
7.26767e-05
6.67489e-05
6.43039e-05
0.000226589
0.000266726
0.000302482
0.000296815
0.000261975
0.00021015
0.000155633
0.00011265
8.66494e-05
7.34255e-05
6.71101e-05
6.44781e-05
0.00022517
0.00026682
0.000303892
0.000299448
0.00026563
0.00021437
0.000159565
0.000115476
8.82679e-05
7.42409e-05
6.75051e-05
6.46665e-05
0.00022369
0.000266907
0.000305281
0.00030207
0.000269299
0.000218642
0.000163617
0.000118479
9.00345e-05
7.51388e-05
6.79424e-05
6.48736e-05
0.000222184
0.000266963
0.00030665
0.000304682
0.000272979
0.000222984
0.000167817
0.000121649
9.19238e-05
7.61204e-05
6.84259e-05
6.51019e-05
0.000220624
0.000266978
0.00030799
0.000307284
0.000276671
0.000227388