/*--------------------------------*- C++ -*----------------------------------*\
| =========                 |                                                 |
| \\      /  F ield         | OpenFOAM: The Open Source CFD Toolbox           |
|  \\    /   O peration     | Version:  2.3.1                                 |
|   \\  /    A nd           | Web:      www.OpenFOAM.org                      |
|    \\/     M anipulation  |                                                 |
\*---------------------------------------------------------------------------*/
FoamFile
{
    version     2.0;
    format      ascii;
    class       surfaceScalarField;
    location    "0.33";
    object      phi;
}
// * * * * * * * * * * * * * * * * * * * * * * * * * * * * * * * * * * * * * //

dimensions      [0 3 -1 0 0 0 0];

internalField   nonuniform List<scalar> 
85893
(
6.9829e-06
-5.57715e-05
4.87886e-05
1.03004e-05
-5.30573e-05
4.97399e-05
1.2117e-05
-4.46384e-05
4.28217e-05
1.27864e-05
-3.27808e-05
3.21115e-05
-1.66607e-05
1.41122e-05
1.53348e-05
4.95786e-06
-6.07294e-05
8.26776e-06
-5.63672e-05
1.05056e-05
-4.68763e-05
1.23797e-05
-3.46549e-05
-1.88047e-05
1.45237e-05
3.68693e-06
-6.44163e-05
6.65844e-06
-5.93387e-05
8.94251e-06
-4.91603e-05
1.08562e-05
-3.65686e-05
-2.03929e-05
1.24444e-05
2.90235e-06
-6.73187e-05
5.50389e-06
-6.19403e-05
7.66301e-06
-5.13195e-05
9.59711e-06
-3.85027e-05
-2.23332e-05
1.15373e-05
2.37412e-06
-6.96928e-05
4.63873e-06
-6.42049e-05
6.6444e-06
-5.33251e-05
8.5389e-06
-4.03972e-05
-2.42948e-05
1.05005e-05
2.002e-06
-7.16948e-05
4.01855e-06
-6.62214e-05
5.86325e-06
-5.51698e-05
7.68646e-06
-4.22204e-05
-2.64669e-05
9.85856e-06
1.75553e-06
-7.34503e-05
3.55852e-06
-6.80244e-05
5.23578e-06
-5.68471e-05
6.83823e-06
-4.38229e-05
-2.79702e-05
8.34148e-06
1.6171e-06
-7.50674e-05
3.3259e-06
-6.97332e-05
4.92394e-06
-5.84451e-05
6.50671e-06
-4.54056e-05
-2.98505e-05
8.38707e-06
1.57056e-06
-7.6638e-05
3.25542e-06
-7.14181e-05
4.88373e-06
-6.00734e-05
6.4848e-06
-4.70067e-05
-3.16699e-05
8.30417e-06
1.58637e-06
-7.82243e-05
3.33445e-06
-7.31662e-05
5.06131e-06
-6.18003e-05
6.82039e-06
-4.87658e-05
-3.36753e-05
8.82584e-06
1.62805e-06
-7.98524e-05
3.45759e-06
-7.49957e-05
5.32168e-06
-6.36644e-05
7.23863e-06
-5.06828e-05
-3.58292e-05
9.39252e-06
1.67297e-06
-8.15254e-05
3.59136e-06
-7.69141e-05
5.58646e-06
-6.56595e-05
7.69776e-06
-5.27941e-05
-3.83013e-05
1.01698e-05
1.70719e-06
-8.32325e-05
3.6672e-06
-7.88741e-05
5.72717e-06
-6.77195e-05
7.88416e-06
-5.49511e-05
-4.05203e-05
1.01032e-05
1.70127e-06
-8.49338e-05
3.67024e-06
-8.08431e-05
5.76094e-06
-6.98102e-05
8.00737e-06
-5.71975e-05
-4.30725e-05
1.05595e-05
1.65964e-06
-8.65935e-05
3.58343e-06
-8.27669e-05
5.63472e-06
-7.18614e-05
7.82673e-06
-5.93895e-05
-4.54156e-05
1.01698e-05
1.57358e-06
-8.8167e-05
3.41253e-06
-8.46058e-05
5.40509e-06
-7.3854e-05
7.52643e-06
-6.15108e-05
-4.77369e-05
9.84771e-06
1.44311e-06
-8.96101e-05
3.16623e-06
-8.6329e-05
5.03804e-06
-7.57258e-05
7.04124e-06
-6.3514e-05
-4.98439e-05
9.14834e-06
1.31339e-06
-9.09235e-05
2.88338e-06
-8.78989e-05
4.61593e-06
-7.74584e-05
6.48802e-06
-6.53861e-05
-5.18389e-05
8.48297e-06
1.1363e-06
-9.20598e-05
2.54435e-06
-8.9307e-05
4.1291e-06
-7.90431e-05
5.89702e-06
-6.7154e-05
-5.38086e-05
7.86672e-06
9.53356e-07
-9.30132e-05
2.17065e-06
-9.05243e-05
3.57907e-06
-8.04515e-05
5.18615e-06
-6.87611e-05
-5.56403e-05
7.01789e-06
7.71103e-07
-9.37843e-05
1.78943e-06
-9.15426e-05
3.012e-06
-8.16741e-05
4.41964e-06
-7.01688e-05
-5.71686e-05
5.94789e-06
5.7166e-07
-9.4356e-05
1.40917e-06
-9.23801e-05
2.45538e-06
-8.27203e-05
3.73951e-06
-7.14529e-05
-5.8729e-05
5.29991e-06
3.92358e-07
-9.47483e-05
1.02802e-06
-9.30158e-05
1.87844e-06
-8.35707e-05
2.97576e-06
-7.25502e-05
-6.00441e-05
4.29089e-06
2.16486e-07
-9.49648e-05
6.56403e-07
-9.34557e-05
1.32102e-06
-8.42354e-05
2.23407e-06
-7.34633e-05
-6.12461e-05
3.43608e-06
6.62224e-08
-9.5031e-05
3.13199e-07
-9.37027e-05
8.04058e-07
-8.47262e-05
1.51384e-06
-7.4173e-05
-6.21661e-05
2.43384e-06
-6.82832e-08
-9.49627e-05
1.09459e-08
-9.37819e-05
3.91081e-07
-8.51063e-05
9.84128e-07
-7.47661e-05
-6.31283e-05
1.94633e-06
-1.79225e-07
-9.47835e-05
-1.80925e-07
-9.37802e-05
5.62354e-08
-8.53435e-05
4.81649e-07
-7.51915e-05
-6.3803e-05
1.15626e-06
-2.70689e-07
-9.45128e-05
-3.37157e-07
-9.37137e-05
-1.92636e-07
-8.5488e-05
1.39601e-07
-7.55237e-05
-6.44622e-05
7.98859e-07
-3.22314e-07
-9.41905e-05
-4.32323e-07
-9.36037e-05
-3.85831e-07
-8.55345e-05
-1.14538e-07
-7.5795e-05
-6.50163e-05
4.39519e-07
-3.57302e-07
-9.38332e-05
-5.09984e-07
-9.34511e-05
-4.90286e-07
-8.55542e-05
-2.73709e-07
-7.60116e-05
-6.54333e-05
1.43366e-07
-3.56906e-07
-9.34763e-05
-5.1323e-07
-9.32947e-05
-5.16044e-07
-8.55514e-05
-3.06823e-07
-7.62208e-05
-6.58683e-05
1.28151e-07
-3.43209e-07
-9.31331e-05
-4.89386e-07
-9.31486e-05
-4.71859e-07
-8.55689e-05
-2.57771e-07
-7.64349e-05
-6.63339e-05
2.07857e-07
-3.11762e-07
-9.28213e-05
-4.29253e-07
-9.30311e-05
-3.9286e-07
-8.56053e-05
-1.672e-07
-7.66606e-05
-6.68301e-05
3.28997e-07
-2.66363e-07
-9.2555e-05
-3.54334e-07
-9.2943e-05
-2.82274e-07
-8.56774e-05
-7.49003e-08
-7.6868e-05
-6.73067e-05
4.01599e-07
-2.07362e-07
-9.23475e-05
-2.58643e-07
-9.28918e-05
-1.5601e-07
-8.578e-05
1.00364e-07
-7.71244e-05
-6.78272e-05
6.20893e-07
-1.51582e-07
-9.21959e-05
-1.46626e-07
-9.28967e-05
7.64047e-09
-8.59349e-05
2.52893e-07
-7.73691e-05
-6.82041e-05
6.29763e-07
-6.92369e-08
-9.21267e-05
-4.58523e-08
-9.29201e-05
1.69062e-07
-8.61498e-05
4.77153e-07
-7.76772e-05
-6.86264e-05
8.99462e-07
7.33219e-09
-9.2134e-05
1.00779e-07
-9.30135e-05
3.52396e-07
-8.64014e-05
7.45771e-07
-7.80706e-05
-6.9122e-05
1.24132e-06
7.61496e-08
-9.22101e-05
2.48651e-07
-9.3186e-05
5.55955e-07
-8.67087e-05
9.8167e-07
-7.84963e-05
-6.96522e-05
1.51186e-06
1.56884e-07
-9.2367e-05
4.03318e-07
-9.34325e-05
7.96572e-07
-8.71019e-05
1.29174e-06
-7.89915e-05
-7.02494e-05
1.88897e-06
2.33012e-07
-9.26e-05
5.60109e-07
-9.37596e-05
1.01306e-06
-8.75549e-05
1.60562e-06
-7.9584e-05
-7.09934e-05
2.34965e-06
3.22584e-07
-9.29226e-05
7.19597e-07
-9.41566e-05
1.24422e-06
-8.80795e-05
1.89315e-06
-8.0233e-05
-7.17676e-05
2.66736e-06
3.76746e-07
-9.32993e-05
8.60272e-07
-9.46401e-05
1.45824e-06
-8.86775e-05
2.17327e-06
-8.0948e-05
-7.26383e-05
3.04391e-06
4.55062e-07
-9.37544e-05
9.85932e-07
-9.5171e-05
1.65212e-06
-8.93437e-05
2.40999e-06
-8.17059e-05
-7.34201e-05
3.19178e-06
5.16649e-07
-9.42711e-05
1.07823e-06
-9.57325e-05
1.78233e-06
-9.00478e-05
2.64115e-06
-8.25647e-05
-7.44589e-05
3.67999e-06
5.33236e-07
-9.48043e-05
1.12703e-06
-9.63263e-05
1.86399e-06
-9.07847e-05
2.73752e-06
-8.34382e-05
-7.54586e-05
3.73718e-06
5.49339e-07
-9.53536e-05
1.14034e-06
-9.69173e-05
1.86141e-06
-9.15058e-05
2.72851e-06
-8.43053e-05
-7.64079e-05
3.67779e-06
5.34972e-07
-9.58886e-05
1.12298e-06
-9.75054e-05
1.83896e-06
-9.22218e-05
2.69388e-06
-8.51602e-05
-7.73273e-05
3.61331e-06
5.50681e-07
-9.64393e-05
1.08019e-06
-9.80349e-05
1.76244e-06
-9.2904e-05
2.56292e-06
-8.59607e-05
-7.82463e-05
3.48197e-06
5.06389e-07
-9.69457e-05
1.02762e-06
-9.85561e-05
1.67828e-06
-9.35547e-05
2.42131e-06
-8.67038e-05
-7.91087e-05
3.28367e-06
5.05883e-07
-9.74516e-05
9.88681e-07
-9.90389e-05
1.59144e-06
-9.41574e-05
2.32988e-06
-8.74422e-05
-7.99198e-05
3.14096e-06
4.5597e-07
-9.79075e-05
9.00762e-07
-9.94837e-05
1.50368e-06
-9.47604e-05
2.24206e-06
-8.81806e-05
-8.07552e-05
3.07744e-06
4.14569e-07
-9.83221e-05
7.96e-07
-9.98651e-05
1.36193e-06
-9.53263e-05
2.05809e-06
-8.88767e-05
-8.15506e-05
2.8535e-06
3.51063e-07
-9.86732e-05
6.65979e-07
-0.00010018
1.16742e-06
-9.58277e-05
1.85017e-06
-8.95595e-05
-8.23159e-05
2.6155e-06
2.72236e-07
-9.89454e-05
4.90492e-07
-0.000100398
9.35827e-07
-9.62731e-05
1.5576e-06
-9.01813e-05
-8.31697e-05
2.41138e-06
1.8215e-07
-9.91276e-05
2.82176e-07
-0.000100498
6.26571e-07
-9.66175e-05
1.16156e-06
-9.07163e-05
-8.38828e-05
1.8747e-06
7.08988e-08
-9.91985e-05
1.86091e-08
-0.000100446
2.87475e-07
-9.68863e-05
7.4097e-07
-9.11698e-05
-8.45657e-05
1.42379e-06
-8.1699e-08
-9.91168e-05
-2.43965e-07
-0.000100284
-1.11547e-07
-9.70187e-05
2.44328e-07
-9.15256e-05
-8.51418e-05
8.20505e-07
-2.66219e-07
-9.88505e-05
-5.76209e-07
-9.99738e-05
-6.15348e-07
-9.69796e-05
-3.4592e-07
-9.17951e-05
-8.56338e-05
1.46085e-07
-5.06918e-07
-9.83436e-05
-1.01426e-06
-9.94664e-05
-1.1895e-06
-9.68044e-05
-1.02736e-06
-9.19572e-05
-8.61088e-05
-5.52412e-07
-8.13571e-07
-9.75301e-05
-1.54249e-06
-9.87375e-05
-1.92437e-06
-9.64225e-05
-1.91683e-06
-9.19647e-05
-8.64491e-05
-1.57649e-06
-1.21619e-06
-9.63139e-05
-2.25065e-06
-9.7703e-05
-2.82492e-06
-9.58482e-05
-2.97595e-06
-9.18137e-05
-8.66454e-05
-2.77973e-06
-1.72242e-06
-9.45914e-05
-3.09927e-06
-9.63262e-05
-3.94877e-06
-9.49987e-05
-4.24541e-06
-9.15171e-05
-8.68941e-05
-3.99665e-06
-2.438e-06
-9.21534e-05
-4.17484e-06
-9.45894e-05
-5.31789e-06
-9.38557e-05
-5.83033e-06
-9.10047e-05
-8.69252e-05
-5.79925e-06
-3.37232e-06
-8.87811e-05
-5.54839e-06
-9.24133e-05
-6.98471e-06
-9.24194e-05
-7.65559e-06
-9.03338e-05
-8.68907e-05
-7.69008e-06
-4.89752e-06
-8.38836e-05
-7.53809e-06
-8.97727e-05
-9.17492e-06
-9.07825e-05
-9.88248e-06
-8.96262e-05
-8.68431e-05
-9.93011e-06
-8.24079e-06
-7.56428e-05
-1.09461e-05
-8.70675e-05
-1.21061e-05
-8.96224e-05
-1.25232e-05
-8.92092e-05
-8.68642e-05
-1.2502e-05
-1.78285e-05
0.000172637
-0.000154808
-2.73633e-05
0.000193622
-0.000184087
-3.42941e-05
0.000209818
-0.000202887
-3.7451e-05
0.000239514
-0.000236358
-3.97671e-05
0.000258526
-0.00025621
-4.12268e-05
0.000279407
-0.000277947
-4.1946e-05
0.000297554
-0.000296835
-4.05794e-05
0.00031399
-0.000315356
0.000322481
-3.90006e-05
-0.00032406
-9.31492e-06
0.000181952
-1.63645e-05
0.000200671
-2.32783e-05
0.000216732
-2.76567e-05
0.000243893
-3.0677e-05
0.000261547
-3.25644e-05
0.000281294
-3.34662e-05
0.000298456
-3.3e-05
0.000313524
0.000321556
-3.20751e-05
-6.67468e-06
0.000188627
-1.18326e-05
0.000205829
-1.72794e-05
0.000222179
-2.07669e-05
0.00024738
-2.36817e-05
0.000264461
-2.55604e-05
0.000283173
-2.66221e-05
0.000299517
-2.66021e-05
0.000313503
0.000321123
-2.61691e-05
-4.72336e-06
0.00019335
-8.8456e-06
0.000209951
-1.31732e-05
0.000226506
-1.5926e-05
0.000250133
-1.83332e-05
0.000266869
-2.00031e-05
0.000284843
-2.09913e-05
0.000300506
-2.11389e-05
0.000313651
0.000320758
-2.07734e-05
-3.08658e-06
0.000196436
-6.40971e-06
0.000213274
-9.8309e-06
0.000229927
-1.21104e-05
0.000252413
-1.40697e-05
0.000268828
-1.55129e-05
0.000286286
-1.63358e-05
0.000301328
-1.65446e-05
0.00031386
0.000320535
-1.6322e-05
-2.07379e-06
0.00019851
-4.50806e-06
0.000215709
-7.19247e-06
0.000232612
-9.01296e-06
0.000254233
-1.05974e-05
0.000270412
-1.17131e-05
0.000287402
-1.24257e-05
0.000302041
-1.25866e-05
0.000314021
0.000320425
-1.24768e-05
-1.28634e-06
0.000199797
-3.11802e-06
0.00021754
-5.13067e-06
0.000234625
-6.48786e-06
0.00025559
-7.74833e-06
0.000271673
-8.60581e-06
0.000288259
-9.07989e-06
0.000302515
-9.22835e-06
0.000314169
0.000320254
-9.05707e-06
-7.10257e-07
0.000200507
-2.02447e-06
0.000218855
-3.50152e-06
0.000236102
-4.48104e-06
0.00025657
-5.34073e-06
0.000272533
-5.94496e-06
0.000288864
-6.31937e-06
0.00030289
-6.32349e-06
0.000314173
0.000320101
-6.17015e-06
-2.66717e-07
0.000200774
-1.12955e-06
0.000219717
-2.1919e-06
0.000237164
-2.80546e-06
0.000257183
-3.40583e-06
0.000273133
-3.77859e-06
0.000289236
-3.91526e-06
0.000303026
-3.85906e-06
0.000314117
0.000319831
-3.58919e-06
9.82248e-08
0.000200675
-4.38469e-07
0.000220254
-1.13167e-06
0.000237857
-1.44646e-06
0.000257498
-1.78797e-06
0.000273474
-1.88372e-06
0.000289332
-1.89502e-06
0.000303038
-1.72112e-06
0.000313943
0.000319556
-1.4461e-06
3.54345e-07
0.000200321
8.97894e-08
0.000220519
-1.6512e-07
0.000238112
-3.00576e-07
0.000257634
-3.65005e-07
0.000273539
-2.8904e-07
0.000289256
-1.33844e-07
0.000302882
1.39149e-07
0.00031367
0.000319193
5.01652e-07
5.74888e-07
0.000199746
6.62352e-07
0.000220431
5.53244e-07
0.000238221
6.97688e-07
0.000257489
8.04131e-07
0.000273432
1.02046e-06
0.00028904
1.34552e-06
0.000302557
1.70886e-06
0.000313307
0.000318795
2.1075e-06
7.56374e-07
0.00019899
1.05527e-06
0.000220132
1.21689e-06
0.00023806
1.54302e-06
0.000257163
1.82109e-06
0.000273154
2.22057e-06
0.00028864
2.62864e-06
0.000302149
3.14185e-06
0.000312794
0.000318285
3.65148e-06
9.48047e-07
0.000198042
1.41347e-06
0.000219667
1.78787e-06
0.000237685
2.24119e-06
0.00025671
2.72915e-06
0.000272666
3.2257e-06
0.000288144
3.78229e-06
0.000301593
4.36547e-06
0.00031221
0.000317766
4.88462e-06
1.07302e-06
0.000196969
1.75444e-06
0.000218986
2.22324e-06
0.000237216
2.87337e-06
0.00025606
3.42568e-06
0.000272114
4.10006e-06
0.000287469
4.79756e-06
0.000300895
5.45201e-06
0.000311556
0.000317042
6.17584e-06
1.20064e-06
0.000195768
1.99386e-06
0.000218192
2.65522e-06
0.000236555
3.39117e-06
0.000255324
4.12144e-06
0.000271384
4.86232e-06
0.000286728
5.60295e-06
0.000300155
6.36993e-06
0.000310789
0.000316422
6.99028e-06
1.30636e-06
0.000194462
2.22225e-06
0.000217276
3.00282e-06
0.000235774
3.87123e-06
0.000254455
4.70022e-06
0.000270555
5.56218e-06
0.000285866
6.38057e-06
0.000299336
7.22686e-06
0.000309943
0.00031566
7.98897e-06
1.375e-06
0.000193087
2.44717e-06
0.000216204
3.33293e-06
0.000234889
4.29047e-06
0.000253498
5.17356e-06
0.000269672
6.11414e-06
0.000284926
7.07965e-06
0.000298371
7.99304e-06
0.000309029
0.000314817
8.83587e-06
1.45187e-06
0.000191635
2.58941e-06
0.000215067
3.59269e-06
0.000233885
4.62821e-06
0.000252462
5.65148e-06
0.000268649
6.65723e-06
0.00028392
7.64583e-06
0.000297382
8.59705e-06
0.000308078
0.000313974
9.4401e-06
1.5198e-06
0.000190115
2.76288e-06
0.000213824
3.81891e-06
0.000232829
4.91854e-06
0.000251362
6.0054e-06
0.000267562
7.10048e-06
0.000282825
8.16692e-06
0.000296316
9.17762e-06
0.000307067
0.000313174
9.97707e-06
1.57625e-06
0.000188539
2.88881e-06
0.000212511
4.01387e-06
0.000231704
5.23436e-06
0.000250142
6.38071e-06
0.000266415
7.4922e-06
0.000281714
8.61125e-06
0.000295197
9.68872e-06
0.00030599
0.000312191
1.06723e-05
1.6036e-06
0.000186935
2.97132e-06
0.000211143
4.21333e-06
0.000230462
5.45447e-06
0.000248901
6.65192e-06
0.000265218
7.87777e-06
0.000280488
9.00092e-06
0.000294073
1.00925e-05
0.000304898
0.000311246
1.10377e-05
1.6446e-06
0.000185291
3.09146e-06
0.000209696
4.36033e-06
0.000229193
5.67679e-06
0.000247584
6.91905e-06
0.000263976
8.15196e-06
0.000279255
9.42477e-06
0.000292801
1.05787e-05
0.000303744
0.000310197
1.16276e-05
1.68167e-06
0.000183609
3.17141e-06
0.000208207
4.51434e-06
0.00022785
5.83965e-06
0.000246259
7.15175e-06
0.000262663
8.45211e-06
0.000277954
9.68264e-06
0.00029157
1.08808e-05
0.000302546
0.000309138
1.19393e-05
1.70993e-06
0.000181899
3.21089e-06
0.000206706
4.59266e-06
0.000226469
6.00812e-06
0.000244844
7.35117e-06
0.00026132
8.67662e-06
0.000276629
9.96172e-06
0.000290285
1.11683e-05
0.00030134
0.00030805
1.22568e-05
1.73575e-06
0.000180163
3.29316e-06
0.000205148
4.73817e-06
0.000225024
6.1235e-06
0.000243458
7.52453e-06
0.000259919
8.87191e-06
0.000275282
1.02139e-05
0.000288943
1.14396e-05
0.000300114
0.00030701
1.24792e-05
1.73382e-06
0.000178429
3.33876e-06
0.000203543
4.7847e-06
0.000223578
6.25099e-06
0.000241992
7.64393e-06
0.000258526
9.07977e-06
0.000273846
1.04136e-05
0.000287609
1.17275e-05
0.0002988
0.000305828
1.29101e-05
1.75292e-06
0.000176676
3.37723e-06
0.000201919
4.87591e-06
0.000222079
6.36102e-06
0.000240507
7.80506e-06
0.000257082
9.18774e-06
0.000272463
1.0558e-05
0.000286239
1.18372e-05
0.000297521
0.000304724
1.29404e-05
1.74853e-06
0.000174928
3.40987e-06
0.000200258
4.92649e-06
0.000220562
6.426e-06
0.000239007
7.882e-06
0.000255626
9.33957e-06
0.000271006
1.07111e-05
0.000284867
1.19807e-05
0.000296251
0.000303658
1.30467e-05
1.78095e-06
0.000173147
3.40771e-06
0.000198631
4.96817e-06
0.000219002
6.51107e-06
0.000237464
8.01253e-06
0.000254125
9.41882e-06
0.000269599
1.085e-05
0.000283436
1.22222e-05
0.000294879
0.000302454
1.3427e-05
1.74898e-06
0.000171398
3.45491e-06
0.000196925
5.0293e-06
0.000217428
6.5543e-06
0.000235939
8.06805e-06
0.000252611
9.55446e-06
0.000268113
1.09978e-05
0.000281993
1.23386e-05
0.000293538
0.000301173
1.36195e-05
1.77947e-06
0.000169618
3.46788e-06
0.000195237
5.02692e-06
0.000215869
6.6153e-06
0.000234351
8.13594e-06
0.000251091
9.62345e-06
0.000266625
1.10625e-05
0.000280554
1.24346e-05
0.000292166
0.000300119
1.34887e-05
1.76127e-06
0.000167857
3.45079e-06
0.000193547
5.07086e-06
0.000214248
6.63597e-06
0.000232786
8.1586e-06
0.000249568
9.6767e-06
0.000265107
1.11143e-05
0.000279116
1.24843e-05
0.000290796
0.000298781
1.38215e-05
1.76681e-06
0.00016609
3.48209e-06
0.000191832
5.08181e-06
0.000212649
6.67902e-06
0.000231189
8.23531e-06
0.000248012
9.72239e-06
0.00026362
1.11834e-05
0.000277655
1.25237e-05
0.000289456
0.000297738
1.35666e-05
1.74752e-06
0.000164343
3.46031e-06
0.000190119
5.11539e-06
0.000210994
6.68865e-06
0.000229616
8.24872e-06
0.000246452
9.77143e-06
0.000262097
1.12461e-05
0.000276181
1.26451e-05
0.000288057
0.000296498
1.38857e-05
1.75574e-06
0.000162587
3.46474e-06
0.00018841
5.09655e-06
0.000209362
6.72626e-06
0.000227986
8.29215e-06
0.000244886
9.82373e-06
0.000260566
1.13135e-05
0.000274691
1.27443e-05
0.000286626
0.000295141
1.41011e-05
1.75778e-06
0.000160829
3.46414e-06
0.000186704
5.0979e-06
0.000207728
6.72847e-06
0.000226355
8.29346e-06
0.000243321
9.85344e-06
0.000259006
1.1364e-05
0.00027318
1.2746e-05
0.000285244
0.000293925
1.39625e-05
1.71938e-06
0.00015911
3.46221e-06
0.000184961
5.12051e-06
0.00020607
6.72239e-06
0.000224753
8.31308e-06
0.00024173
9.86612e-06
0.000257453
1.13333e-05
0.000271713
1.27364e-05
0.000283841
0.000292677
1.39843e-05
1.73872e-06
0.000157371
3.43391e-06
0.000183266
5.0892e-06
0.000204415
6.71438e-06
0.000223128
8.33057e-06
0.000240114
9.88129e-06
0.000255902
1.13855e-05
0.000270209
1.28248e-05
0.000282402
0.000291323
1.41788e-05
1.70744e-06
0.000155664
3.43367e-06
0.000181539
5.1104e-06
0.000202738
6.73322e-06
0.000221505
8.31736e-06
0.00023853
9.86028e-06
0.000254359
1.13803e-05
0.000268689
1.27971e-05
0.000280985
0.000290158
1.39622e-05
1.71433e-06
0.000153949
3.43379e-06
0.00017982
5.08217e-06
0.000201089
6.7266e-06
0.000219861
8.30661e-06
0.00023695
9.90273e-06
0.000252763
1.13773e-05
0.000267214
1.27356e-05
0.000279626
0.000289016
1.38776e-05
1.71936e-06
0.00015223
3.41098e-06
0.000178128
5.08118e-06
0.000199419
6.72517e-06
0.000218217
8.33414e-06
0.000235341
9.90617e-06
0.000251191
1.14321e-05
0.000265688
1.29016e-05
0.000278157
0.000287649
1.42686e-05
1.68481e-06
0.000150545
3.39001e-06
0.000176423
5.08299e-06
0.000197726
6.72674e-06
0.000216573
8.36678e-06
0.000233701
9.91476e-06
0.000249643
1.14784e-05
0.000264125
1.29433e-05
0.000276692
0.000286295
1.4297e-05
1.69578e-06
0.00014885
3.41706e-06
0.000174702
5.08552e-06
0.000196058
6.75437e-06
0.000214904
8.3642e-06
0.000232091
9.93471e-06
0.000248073
1.14474e-05
0.000262612
1.2887e-05
0.000275253
0.00028509
1.40918e-05
1.66982e-06
0.00014718
3.37975e-06
0.000172992
5.06615e-06
0.000194371
6.73e-06
0.00021324
8.36218e-06
0.000230459
9.95588e-06
0.000246479
1.14999e-05
0.000261068
1.29805e-05
0.000273772
0.000283655
1.44151e-05
1.68152e-06
0.000145498
3.38928e-06
0.000171284
5.07448e-06
0.000192686
6.73825e-06
0.000211577
8.36843e-06
0.000228828
9.98816e-06
0.000244859
1.1485e-05
0.000259571
1.28872e-05
0.00027237
0.000282535
1.40076e-05
1.68072e-06
0.000143817
3.38183e-06
0.000169583
5.0902e-06
0.000190978
6.75478e-06
0.000209912
8.38792e-06
0.000227195
9.98111e-06
0.000243266
1.15837e-05
0.000257969
1.30489e-05
0.000270904
0.000281212
1.43722e-05
1.6795e-06
0.000142138
3.39972e-06
0.000167863
5.08788e-06
0.00018929
6.78232e-06
0.000208218
8.45039e-06
0.000225527
1.00864e-05
0.00024163
1.16168e-05
0.000256438
1.3148e-05
0.000269373
0.000279814
1.4546e-05
1.67963e-06
0.000140458
3.3992e-06
0.000166143
5.1133e-06
0.000187576
6.78788e-06
0.000206543
8.46021e-06
0.000223855
1.0099e-05
0.000239991
1.17172e-05
0.00025482
1.32164e-05
0.000267874
0.000278531
1.44995e-05
1.66743e-06
0.000138791
3.40427e-06
0.000164406
5.1208e-06
0.000185859
6.84895e-06
0.000204815
8.52719e-06
0.000222177
1.01694e-05
0.000238349
1.17617e-05
0.000253228
1.32864e-05
0.000266349
0.000277052
1.47646e-05
1.68883e-06
0.000137102
3.39051e-06
0.000162705
5.13277e-06
0.000184117
6.86485e-06
0.000203083
8.54559e-06
0.000220496
1.02166e-05
0.000236678
1.17964e-05
0.000251648
1.32825e-05
0.000264863
0.000275904
1.44311e-05
1.68025e-06
0.000135422
3.42263e-06
0.000160962
5.17551e-06
0.000182364
6.89394e-06
0.000201364
8.60804e-06
0.000218782
1.02931e-05
0.000234993
1.19276e-05
0.000250014
1.34866e-05
0.000263304
0.000274288
1.51022e-05
1.69853e-06
0.000133723
3.44629e-06
0.000159215
5.18079e-06
0.000180629
6.95624e-06
0.000199589
8.68696e-06
0.000217051
1.03872e-05
0.000233293
1.20372e-05
0.000248363
1.36148e-05
0.000261727
0.000272986
1.49167e-05
1.69546e-06
0.000132028
3.46955e-06
0.000157441
5.24393e-06
0.000178855
7.00459e-06
0.000197828
8.77336e-06
0.000215282
1.04799e-05
0.000231586
1.21759e-05
0.000246667
1.37313e-05
0.000260171
0.000271442
1.52756e-05
1.71805e-06
0.00013031
3.4829e-06
0.000155676
5.28237e-06
0.000177056
7.08378e-06
0.000196027
8.8408e-06
0.000213525
1.05958e-05
0.000229831
1.22607e-05
0.000245002
1.38843e-05
0.000258548
0.000270121
1.52049e-05
1.72278e-06
0.000128587
3.51671e-06
0.000153882
5.33477e-06
0.000175237
7.15206e-06
0.00019421
8.95592e-06
0.000211721
1.07202e-05
0.000228067
1.24443e-05
0.000243278
1.40743e-05
0.000256918
0.000268513
1.56825e-05
1.7307e-06
0.000126856
3.55817e-06
0.000152054
5.39376e-06
0.000173402
7.23412e-06
0.000192369
9.04782e-06
0.000209908
1.08365e-05
0.000226278
1.26063e-05
0.000241509
1.42673e-05
0.000255257
0.000266989
1.5792e-05
1.76123e-06
0.000125095
3.5865e-06
0.000150229
5.46467e-06
0.000171524
7.31629e-06
0.000190518
9.1843e-06
0.00020804
1.09914e-05
0.000224471
1.27449e-05
0.000239755
1.44246e-05
0.000253577
0.000265541
1.58724e-05
1.78172e-06
0.000123313
3.62799e-06
0.000148383
5.51821e-06
0.000169633
7.42271e-06
0.000188613
9.30454e-06
0.000206158
1.11681e-05
0.000222608
1.29872e-05
0.000237936
1.47207e-05
0.000251843
0.000263978
1.62831e-05
1.78881e-06
0.000121525
3.68584e-06
0.000146486
5.60898e-06
0.00016771
7.53532e-06
0.000186687
9.44952e-06
0.000204244
1.13379e-05
0.000220719
1.31847e-05
0.000236089
1.497e-05
0.000250058
0.000262265
1.6683e-05
1.8327e-06
0.000119692
3.7555e-06
0.000144563
5.70132e-06
0.000165765
7.65571e-06
0.000184732
9.60349e-06
0.000202296
1.15454e-05
0.000218777
1.34177e-05
0.000234217
1.51819e-05
0.000248294
0.000260753
1.66942e-05
1.85801e-06
0.000117834
3.79242e-06
0.000142629
5.7841e-06
0.000163773
7.7936e-06
0.000182723
9.76613e-06
0.000200323
1.1718e-05
0.000216825
1.3643e-05
0.000232292
1.55247e-05
0.000246412
0.000258957
1.7321e-05
1.89155e-06
0.000115942
3.8512e-06
0.000140669
5.87793e-06
0.000161746
7.91373e-06
0.000180687
9.9706e-06
0.000198267
1.19515e-05
0.000214844
1.39186e-05
0.000230325
1.57981e-05
0.000244533
0.000257203
1.75516e-05
1.91227e-06
0.00011403
3.93823e-06
0.000138643
5.99447e-06
0.00015969
8.06926e-06
0.000178612
1.01303e-05
0.000196205
1.21702e-05
0.000212805
1.41523e-05
0.000228343
1.60317e-05
0.000242653
0.000255615
1.76202e-05
1.95722e-06
0.000112073
3.99529e-06
0.000136605
6.08923e-06
0.000157596
8.21524e-06
0.000176486
1.0318e-05
0.000194103
1.24165e-05
0.000210706
1.44825e-05
0.000226277
1.64683e-05
0.000240667
0.000253676
1.8407e-05
1.98182e-06
0.000110091
4.07562e-06
0.000134511
6.22752e-06
0.000155444
8.37881e-06
0.000174335
1.0541e-05
0.000191941
1.26884e-05
0.000208559
1.47912e-05
0.000224174
1.67977e-05
0.000238661
0.000251869
1.86047e-05
2.03692e-06
0.000108054
4.17016e-06
0.000132378
6.35937e-06
0.000153255
8.56922e-06
0.000172125
1.0786e-05
0.000189724
1.29697e-05
0.000206375
1.50847e-05
0.000222059
1.7127e-05
0.000236619
0.000250009
1.8987e-05
2.06007e-06
0.000105994
4.24449e-06
0.000130193
6.48073e-06
0.000151019
8.76535e-06
0.000169841
1.10186e-05
0.00018747
1.32834e-05
0.00020411
1.54835e-05
0.000219859
1.76432e-05
0.000234459
0.00024791
1.97425e-05
2.12743e-06
0.000103867
4.34843e-06
0.000127972
6.65121e-06
0.000148716
8.96094e-06
0.000167531
1.12912e-05
0.00018514
1.35814e-05
0.00020182
1.58271e-05
0.000217613
1.79884e-05
0.000232298
0.00024604
1.98577e-05
2.16324e-06
0.000101703
4.44605e-06
0.00012569
6.77776e-06
0.000146384
9.14961e-06
0.000165159
1.15283e-05
0.000182762
1.38906e-05
0.000199458
1.62421e-05
0.000215262
1.85106e-05
0.000230029
0.000243848
2.07025e-05
2.21544e-06
9.94879e-05
4.53939e-06
0.000123366
6.95666e-06
0.000143967
9.3931e-06
0.000162723
1.1827e-05
0.000180328
1.42441e-05
0.000197041
1.66194e-05
0.000212886
1.88914e-05
0.000227757
0.00024187
2.08696e-05
2.26614e-06
9.72217e-05
4.6497e-06
0.000120982
7.12015e-06
0.000141496
9.60015e-06
0.000160243
1.2094e-05
0.000177834
1.45901e-05
0.000194545
1.70304e-05
0.000210446
1.94298e-05
0.000225358
0.000239467
2.1833e-05
2.32846e-06
9.48933e-05
4.77138e-06
0.000118539
7.28604e-06
0.000138982
9.84667e-06
0.000157682
1.24146e-05
0.000175266
1.49518e-05
0.000192007
1.74638e-05
0.000207934
1.98687e-05
0.000222953
0.000237402
2.19339e-05
2.37725e-06
9.2516e-05
4.87666e-06
0.00011604
7.45891e-06
0.000136399
1.00826e-05
0.000155058
1.27089e-05
0.00017264
1.53216e-05
0.000189395
1.79048e-05
0.000205351
2.04256e-05
0.000220432
0.000234964
2.28631e-05
2.43991e-06
9.00761e-05
5.00508e-06
0.000113475
7.64732e-06
0.000133757
1.03278e-05
0.000152378
1.30171e-05
0.00016995
1.56995e-05
0.000186712
1.8361e-05
0.000202689
2.08975e-05
0.000217895
0.000232696
2.31653e-05
2.49712e-06
8.7579e-05
5.11371e-06
0.000110858
7.83778e-06
0.000131033
1.06059e-05
0.00014961
1.33627e-05
0.000167194
1.61317e-05
0.000183943
1.88558e-05
0.000199965
2.15343e-05
0.000215217
0.00023005
2.41807e-05
2.55753e-06
8.50214e-05
5.24822e-06
0.000108167
8.03255e-06
0.000128249
1.08485e-05
0.000146794
1.37156e-05
0.000164326
1.65355e-05
0.000181123
1.93342e-05
0.000197167
2.20288e-05
0.000212522
0.00022768
2.43992e-05
2.61867e-06
8.24028e-05
5.38663e-06
0.000105399
8.22553e-06
0.00012541
1.11373e-05
0.000143882
1.40341e-05
0.00016143
1.69576e-05
0.0001782
1.98207e-05
0.000194304
2.26756e-05
0.000209667
0.000224873
2.54818e-05
2.69714e-06
7.97056e-05
5.51804e-06
0.000102578
8.43791e-06
0.00012249
1.14069e-05
0.000140913
1.44055e-05
0.000158431
1.73848e-05
0.00017522
2.03422e-05
0.000191346
2.31426e-05
0.000206867
0.0002224
2.56161e-05
2.75496e-06
7.69507e-05
5.63532e-06
9.96981e-05
8.65044e-06
0.000119475
1.16901e-05
0.000137873
1.47722e-05
0.000155349
1.78209e-05
0.000172172
2.08494e-05
0.000188318
2.38868e-05
0.00020383
0.000219444
2.68429e-05
2.82655e-06
7.41241e-05
5.78823e-06
9.67364e-05
8.84556e-06
0.000116418
1.19832e-05
0.000134736
1.5116e-05
0.000152216
1.82711e-05
0.000169017
2.13829e-05
0.000185206
2.43975e-05
0.000200815
0.000216748
2.70937e-05
2.88992e-06
7.12342e-05
5.92691e-06
9.36994e-05
9.06713e-06
0.000113277
1.2256e-05
0.000131547
1.54984e-05
0.000148974
1.87194e-05
0.000165796
2.19511e-05
0.000181974
2.50882e-05
0.000197678
0.000213606
2.82294e-05
2.96452e-06
6.82697e-05
6.06174e-06
9.06022e-05
9.28441e-06
0.000110055
1.25723e-05
0.000128259
1.58516e-05
0.000145695
1.91803e-05
0.000162467
2.24599e-05
0.000178694
2.56721e-05
0.000194466
0.000210683
2.85953e-05
3.04111e-06
6.52286e-05
6.20001e-06
8.74433e-05
9.48257e-06
0.000106772
1.28406e-05
0.000124901
1.62364e-05
0.000142299
1.96341e-05
0.000159069
2.2993e-05
0.000175336
2.63003e-05
0.000191158
0.000207428
2.95556e-05
3.10336e-06
6.21252e-05
6.33891e-06
8.42077e-05
9.70682e-06
0.000103404
1.3127e-05
0.000121481
1.659e-05
0.000138836
2.00651e-05
0.000155594
2.35115e-05
0.000171889
2.68938e-05
0.000187776
0.000204149
3.01732e-05
3.17421e-06
5.8951e-05
6.48087e-06
8.09011e-05
9.9004e-06
9.99847e-05
1.34133e-05
0.000117968
1.69525e-05
0.000135297
2.04917e-05
0.000152055
2.40062e-05
0.000168375
2.74369e-05
0.000184345
0.000201035
3.0551e-05
3.24876e-06
5.57023e-05
6.61154e-06
7.75383e-05
1.01175e-05
9.64787e-05
1.36935e-05
0.000114392
1.7323e-05
0.000131667
2.09424e-05
0.000148435
2.45712e-05
0.000164746
2.81443e-05
0.000180772
0.000197598
3.1581e-05
3.32751e-06
5.23747e-05
6.76432e-06
7.41015e-05
1.03439e-05
9.28991e-05
1.399e-05
0.000110746
1.76977e-05
0.000127959
2.14199e-05
0.000144713
2.51144e-05
0.000161051
2.86979e-05
0.000177189
0.00019421
3.20862e-05
3.40679e-06
4.8968e-05
6.89429e-06
7.0614e-05
1.05436e-05
8.92498e-05
1.42909e-05
0.000106998
1.80713e-05
0.000124179
2.18595e-05
0.000140925
2.56572e-05
0.000157254
2.94496e-05
0.000173396
0.000190346
3.33136e-05
3.47892e-06
4.5489e-05
7.04364e-06
6.70493e-05
1.07518e-05
8.55416e-05
1.4556e-05
0.000103194
1.84123e-05
0.000120323
2.23053e-05
0.000137032
2.61658e-05
0.000153393
2.99545e-05
0.000169607
0.000186781
3.35189e-05
3.56219e-06
4.19268e-05
7.18458e-06
6.34269e-05
1.09609e-05
8.17653e-05
1.48474e-05
9.93077e-05
1.87928e-05
0.000116377
2.27507e-05
0.000133074
2.67045e-05
0.000149439
3.05604e-05
0.000165752
0.000182888
3.44535e-05
3.64343e-06
3.82834e-05
7.32092e-06
5.97494e-05
1.11694e-05
7.79168e-05
1.51264e-05
9.53507e-05
1.91416e-05
0.000112362
2.31955e-05
0.00012902
2.72547e-05
0.00014538
3.12527e-05
0.000161754
0.000179119
3.50216e-05
3.71596e-06
3.45675e-05
7.44916e-06
5.60162e-05
1.1359e-05
7.40069e-05
1.53835e-05
9.13263e-05
1.94891e-05
0.000108256
2.36684e-05
0.000124841
2.787e-05
0.000141179
3.21582e-05
0.000157465
0.000174587
3.66902e-05
3.78274e-06
3.07847e-05
7.56977e-06
5.22292e-05
1.1534e-05
7.00427e-05
1.56052e-05
8.7255e-05
1.97799e-05
0.000104082
2.40021e-05
0.000120619
2.82575e-05
0.000136923
3.24371e-05
0.000153286
0.000170914
3.61098e-05
3.8397e-06
2.6945e-05
7.67685e-06
4.8392e-05
1.16726e-05
6.60469e-05
1.57993e-05
8.31283e-05
2.00164e-05
9.98646e-05
2.42618e-05
0.000116374
2.85012e-05
0.000132684
3.27279e-05
0.000149059
0.000166703
3.6939e-05
3.87217e-06
2.30728e-05
7.75766e-06
4.45065e-05
1.17982e-05
6.20065e-05
1.59651e-05
7.89614e-05
2.02139e-05
9.56158e-05
2.45445e-05
0.000112043
2.89186e-05