/*--------------------------------*- C++ -*----------------------------------*\
| =========                 |                                                 |
| \\      /  F ield         | OpenFOAM: The Open Source CFD Toolbox           |
|  \\    /   O peration     | Version:  2.3.1                                 |
|   \\  /    A nd           | Web:      www.OpenFOAM.org                      |
|    \\/     M anipulation  |                                                 |
\*---------------------------------------------------------------------------*/
FoamFile
{
    version     2.0;
    format      ascii;
    class       volSymmTensorField;
    location    "2180";
    object      sigma;
}
// * * * * * * * * * * * * * * * * * * * * * * * * * * * * * * * * * * * * * //

dimensions      [1 -1 -2 0 0 0 0];

internalField   nonuniform List<symmTensor> 
11800
(
(111640 64985.4 5.40691e-14 -2417.36 2.86663e-14 27100.4)
(-57065.8 60122.4 8.30015e-14 -1835.58 2.63528e-14 -14614.6)
(495053 77670.6 -1.3297e-15 1125.79 -6.04929e-14 123112)
(-432708 43892.2 0 61.3231 0 -107348)
(-58818 57858.9 1.54865e-14 -6262.47 -4.37954e-14 -16147.8)
(-271436 81310.8 6.02911e-14 2620.96 3.16502e-14 -66698.5)
(-50124.5 79347.5 1.13644e-13 -603.744 -2.9575e-14 -12586.7)
(-70316.6 80514.5 -1.6942e-14 1133.89 6.82346e-14 -17165.6)
(154471 48246.1 2.30306e-14 417.179 -1.57636e-14 38430.8)
(103156 84350.2 -5.86043e-14 773.254 -4.94077e-14 25787)
(129127 55338.2 -4.51064e-14 729.992 3.86448e-14 32220.1)
(-627316 33311.2 -5.42273e-14 -4989.02 -2.46315e-14 -156888)
(18679.3 -27154.7 1.01329e-16 -50382.1 7.87409e-17 -7866.1)
(459001 44141.1 4.92316e-14 3054.09 -1.34959e-14 114645)
(-369029 75968.3 -4.09297e-14 6152.92 3.18494e-14 -90037)
(1.75894e+06 -2608.92 0 -5639.96 0 435028)
(-32891.8 64380.1 3.84572e-14 2767.55 3.39527e-15 -7474.45)
(-50457.1 58692.5 -2.17237e-14 5961.99 1.24909e-13 -11040.1)
(106041 98581.7 -2.25944e-14 -13957.1 1.60942e-14 22847.9)
(78262.7 54008.3 -7.80011e-14 -8384.15 -2.52472e-14 17338.3)
(-340844 49407.3 2.42497e-14 -227.905 2.54301e-14 -84627)
(-548291 71532.5 3.88254e-14 2599.04 -2.25915e-14 -135397)
(-752109 95336.2 -2.00748e-14 9821.72 1.29664e-14 -184177)
(-690278 58868.9 2.04881e-16 643.195 3.50545e-15 -171112)
(1.43034e+06 68654.4 2.4141e-15 -6807 2.89578e-14 353206)
(-892414 94232.8 -1.96802e-14 6790.22 -5.74041e-16 -219741)
(-912645 49345.2 0 8063.79 0 -224445)
(449092 38887.7 -6.4112e-14 -5242.9 -3.8747e-14 110128)
(-999820 50754.8 -1.13047e-14 9254.91 -5.39429e-14 -245779)
(-1.08886e+06 51885 1.49423e-14 10485.2 -2.33207e-14 -267567)
(297950 41982 -7.93914e-14 -1534.08 -1.42414e-13 73546.9)
(59105 57393.8 -1.31451e-14 2159.82 -1.09324e-14 15201)
(903561 90187.2 -3.18291e-15 10213.2 -1.40753e-14 226726)
(-23438.3 70289.1 1.03862e-14 -1033.41 -7.78187e-14 -6071.94)
(15606.5 73340.4 -2.74549e-14 3299.42 -1.17977e-13 4690.94)
(-292347 32820 -7.20899e-14 1634.66 -5.2401e-14 -72131.7)
(16694.1 73811.9 9.75217e-14 2257.56 -1.16098e-13 4702.3)
(968747 56022.5 -1.1686e-14 5109.36 -5.05493e-14 241634)
(-34594.9 70370.5 0 -2659.06 0 -9243.45)
(74922.8 65250.3 -3.38202e-14 4273.69 6.30398e-14 19650.2)
(-959144 38781.3 -6.04214e-14 -4663.57 -2.81195e-14 -239140)
(-1.05059e+06 38925.6 4.33436e-14 -4855.7 -2.48984e-14 -261877)
(471594 50570.2 -2.46997e-14 -1990.28 -8.23808e-14 116518)
(-1.14402e+06 39828.7 -8.37436e-15 -4131.61 -4.42573e-14 -284879)
(312951 51123.1 2.11055e-13 1678.69 -6.59004e-14 78066)
(1.64345e+06 44305.6 0 -5978.12 0 406290)
(715469 103305 -1.2698e-14 -2944.92 6.67975e-15 176792)
(853624 43234.4 -2.23668e-14 -9212.13 -1.56029e-14 209516)
(-79595.3 72402.9 -8.36803e-14 -654.158 -5.16044e-14 -19911.5)
(182438 68391.8 0 1817.09 0 45717.4)
(-648729 40858.5 -4.0252e-15 2473.97 4.30213e-14 -160349)
(-455983 39497.4 1.4036e-13 4134.31 1.64643e-14 -112113)
(-9407.6 72574.9 7.86451e-14 10.6081 4.902e-14 -2331.58)
(32973.7 114036 -1.77363e-15 6571.39 1.54711e-14 9811.95)
(-1.88906e+06 5296.64 -2.75745e-15 -9920.33 -4.21806e-15 -471175)
(1.51352e+06 -60846.6 3.62488e-15 -69432.4 6.51647e-15 358307)
(-51283.1 22560.5 6.77358e-14 1788.9 2.51704e-14 -12280.5)
(-410014 79892.5 5.06559e-15 -4381.98 -4.22813e-14 -102820)
(327105 53470.2 -4.2906e-14 6834.69 6.28614e-14 82857.2)
(-291798 82879 3.52926e-14 -6089.61 -6.37194e-15 -73912)
(1.55648e+06 23483.6 -3.18781e-14 -11565.7 -1.10505e-14 383325)
(-39977.5 75809.8 3.32842e-14 557.206 -5.42244e-14 -9780.97)
(-323513 66833.7 -1.93435e-14 -2525.5 3.33061e-14 -80896.6)
(256710 67121.7 5.85429e-14 1885.27 -3.34212e-14 64162.9)
(1.41367e+06 15545.1 3.51301e-15 -342.037 -2.08936e-14 350676)
(-203742 33431.3 -9.52629e-14 2369.88 -1.1521e-13 -49964.5)
(-669810 20481.9 6.71442e-14 3239.07 2.24108e-14 -165390)
(-475929 23191.4 1.90566e-15 4016.83 -1.17778e-13 -117091)
(-52877.7 24236.2 0 -2817.79 0 -13819.2)
(-832181 55665.6 -1.50244e-15 8698.43 5.16438e-14 -204323)
(-19217.5 74357.7 -1.90814e-14 326.762 3.94308e-14 -4687.17)
(-41299.4 59416.1 -7.35129e-14 -3145.49 8.23166e-14 -11027.7)
(-36507.4 57834.5 5.1559e-14 -2888.12 -3.15819e-14 -9774.82)
(-1.28184e+06 287349 -4.58678e-15 163439 4.19353e-15 -277498)
(1.54192e+06 61753.1 -1.18316e-15 -5437.5 -1.27462e-14 381232)
(-274999 46881.6 -7.08232e-14 5140.29 -5.15409e-14 -66957.4)
(1.47454e+06 15172.8 -2.65478e-14 3497.78 2.36233e-14 366731)
(-198326 22719.5 6.26286e-14 483.604 -2.05634e-13 -49088.7)
(-147258 42420.6 1.17755e-14 2042.96 -1.12477e-14 -36030.7)
(-140421 53034 1.2021e-13 3030.64 1.20653e-13 -34089.3)
(-1.90615e+06 -34507.7 9.93062e-15 7655.11 4.58834e-14 -471056)
(80237.9 50213.9 0 6998.97 0 21645.2)
(44561.5 60497.8 -1.24987e-13 996.222 -4.92912e-14 11303.8)
(30676.4 64476.9 4.33324e-14 1975.59 -3.436e-16 8101.62)
(-64005.4 56667.4 2.97902e-14 -6713.5 8.43652e-14 -17546.8)
(-1.05912e+06 62761.1 -1.66429e-14 -5353.34 8.47969e-14 -264118)
(320878 47696.6 1.00889e-13 3229.26 -3.14079e-14 80417.6)
(-970422 60038.3 0 -5237.64 0 -242081)
(-885388 58627.8 -3.5136e-14 -4639.83 -3.59687e-14 -220834)
(472667 44572.5 4.62607e-14 4236.9 2.82188e-15 118330)
(-10443.3 71370 -1.62934e-13 -2414.57 -1.04593e-13 -3190.3)
(1.06982e+06 83661.4 0 -3718.21 0 264522)
(-87146.1 63517.4 -3.45672e-14 1817.37 -5.73614e-14 -21171.8)
(57801 19274.3 -1.99429e-14 4052.33 -2.89562e-14 15347.1)
(129355 61289.4 1.5338e-13 817.743 2.74142e-15 32298.5)
(43227 -32610.8 -6.45013e-16 -91850 -4.78157e-16 -12064.4)
(-2291.07 8953.53 1.67756e-17 5375.06 -9.97413e-17 765.2)
(-43573.8 -32357.8 -4.07619e-16 91477.9 2.71592e-16 11886)
(-10433.4 72785.8 -5.06569e-14 -703.457 -7.39012e-16 -2763.27)
(-546046 46917.1 -1.24529e-14 -2329.37 4.98411e-14 -136063)
(40597 37645.4 2.78453e-14 -271.45 -7.79631e-14 10005.6)
(593098 52765.7 -6.03708e-14 -5738.95 -8.36523e-14 145736)
(-1.01407e+06 93202.2 4.14281e-15 -34.9692 8.42417e-15 -251619)
(-335813 68113.7 -2.5516e-15 5345.77 8.08439e-15 -81995.5)
(-184.801 77249 -7.81906e-15 -573.273 -3.89308e-14 -188.094)
(259634 86912.6 -1.64363e-14 1901.92 -2.84997e-14 64892.3)
(-121399 62728.6 -4.79337e-14 0.69061 1.05788e-13 -30121.3)
(-85227.5 66466.6 -1.62236e-13 -598.311 -7.83023e-14 -21295.1)
(1.52552e+06 21775.1 9.32334e-15 4404.29 1.95962e-14 379605)
(973691 52515.5 1.50334e-14 3264.86 3.0519e-15 242403)
(1.06373e+06 54390 2.88244e-14 3982.13 4.02699e-14 264921)
(889105 51141 1.0509e-13 3340.82 6.23176e-14 221434)
(-325588 48739.6 4.72879e-14 -3978.88 7.38859e-14 -81772.3)
(-479499 46856.9 -1.25124e-13 -3921.12 4.49986e-14 -119946)
(171448 56991.7 5.36565e-14 -115.02 -2.81491e-14 42511.3)
(1.37414e+06 35144.4 1.41085e-14 370.176 8.34287e-15 341045)
(191142 29912.2 -3.89582e-14 -3211.89 -1.53216e-13 46629.3)
(-59404.5 68259.2 -1.35031e-13 1262.98 1.26373e-13 -14426.1)
(1.28671e+06 66538.8 -1.62652e-14 861.982 2.02762e-14 319474)
(-106669 87276.6 -4.40076e-14 158.211 -1.18531e-14 -26427.6)
(-171535 43539.4 -3.06312e-14 2982.54 -1.29253e-14 -41821.3)
(51649.6 79478.3 9.66992e-14 -2899.31 -1.38529e-13 12095.9)
(72948.2 82219 -6.74793e-14 -1422.44 4.64382e-14 17747)
(-51545.9 65903.4 -1.96186e-14 1551.73 -2.896e-14 -12404.6)
(-91483.8 60391.2 -1.22956e-13 -56.3957 -9.60211e-14 -22713)
(-2662.95 72081.4 -1.18173e-13 -2539.43 -8.90054e-14 -1290.82)
(-29246.5 71735.5 -7.08514e-14 -2995.33 7.79069e-14 -7999.84)
(-5719.32 72520.6 -4.63209e-14 -1665.55 -4.41823e-14 -1832.34)
(7668.38 52773.2 2.20603e-15 33927.9 9.87919e-14 10320.9)
(-32072 9953.06 -3.47042e-16 -7376.56 4.70076e-14 -9787.98)
(-1.64603e+06 -263144 1.48014e-14 67938.5 -7.51279e-15 -391556)
(-1.16806e+06 64883.6 1.05863e-14 -8547.96 -1.61148e-15 -291940)
(351109 43281.6 5.33914e-14 3941.42 -5.21014e-14 88095.3)
(-1.05451e+06 64285.5 -4.17184e-14 1127.71 2.62265e-14 -261366)
(504562 39301.1 -2.41067e-14 4537.81 7.29531e-14 126318)
(-963254 60705.2 1.59111e-14 1378.82 1.59798e-14 -238661)
(-877869 58643.8 -9.12782e-14 1876.62 6.9817e-14 -217351)
(292105 58639 5.22565e-14 -2621.31 1.45788e-13 71826.7)
(-902715 30267.4 5.69332e-14 6119.49 -7.84839e-14 -222464)
(422910 59758.4 6.49623e-14 -3073.61 -5.17505e-14 104170)
(-825350 29702.6 4.70015e-14 5387.8 -8.11618e-14 -203449)
(-752610 30651 -4.87566e-14 5578.89 -4.39033e-14 -185354)
(-431618 80156.3 3.70342e-15 13546.2 3.70929e-14 -103732)
(127741 67283.4 -2.60821e-14 -5378.6 -1.73968e-13 30360.6)
(181743 63745.4 -4.17416e-14 -6026.81 -1.20754e-13 43598.7)
(-267236 62218.7 -1.25926e-14 8433.36 7.27528e-14 -64214.2)
(1.07568e+06 39105.5 -7.9898e-14 1260.92 -2.69345e-14 267212)
(-1.11486e+06 -10510.4 7.69023e-14 -9249.22 2.38152e-14 -278913)
(624184 40547.1 5.4069e-14 -2471.24 -5.03717e-14 154260)
(-332822 44538.3 1.22995e-15 6114.9 7.31566e-15 -81062.7)
(-149794 64791.3 -6.76536e-14 2741.27 -5.59446e-14 -36486.7)
(-156810 55585.7 5.78995e-14 -1301.21 -5.24268e-14 -39230.7)
(15959.8 72511.8 4.40144e-14 1894.78 8.04697e-14 4430.08)
(-221952 48232.3 -9.89937e-14 730.938 1.02733e-13 -54889.4)
(186277 56125.7 -5.19433e-14 -4349.29 -5.49322e-14 45140)
(125721 65540.1 -4.75692e-14 1699.25 3.66979e-14 31615.6)
(-406438 52418.6 8.05469e-14 6557.1 -5.42584e-14 -99218.5)
(-566653 56795.2 2.9364e-14 2427.05 6.42146e-14 -139996)
(1.17225e+06 22645.7 1.8402e-14 1433.37 -2.59973e-16 291215)
(-5054.22 75398.4 2.3105e-14 40.1096 -1.12487e-13 -1244.1)
(1.73459e+06 68395 -2.16417e-14 -11252.2 -1.18093e-14 427594)
(-182849 58292.8 -8.55078e-14 1460.99 5.89643e-14 -45006.1)
(1.48244e+06 44591.6 0 -15242.8 0 364042)
(-418337 58372.6 2.54373e-14 -3458.71 1.0606e-13 -104656)
(-458468 59117.6 -2.60741e-14 -4246 3.09837e-14 -114809)
(-500294 61332.9 -4.16075e-15 -4846.65 1.1244e-13 -125336)
(227023 63751 -6.34646e-14 592.574 1.56252e-14 56476.1)
(154232 66961.8 -6.76341e-14 -37.5811 1.67149e-14 38258.8)
(-1.90075e+06 -11433.6 1.72024e-14 -7963.27 -9.82739e-15 -473591)
(-1.15606e+06 62670.8 -1.74372e-14 -6471.74 3.30245e-14 -288448)
(396738 46894.2 -6.75289e-14 4331.99 -3.95493e-14 99513.6)
(547958 43001.1 1.90068e-13 4140.24 -1.02225e-13 136987)
(63213.6 70877 3.71286e-14 -6749.41 -9.60714e-14 14009.9)
(-328003 34296.2 0 1732.74 0 -80954.4)
(-333651 21556.8 1.01525e-13 -559.99 -5.16435e-14 -82924.6)
(1.63502e+06 48235.8 2.7913e-14 -12296.9 1.86449e-14 402631)
(1.67527e+06 -6332.57 2.31139e-14 10777.5 2.048e-14 418342)
(862054 25593.6 1.32199e-15 -556.601 4.85371e-14 213755)
(787830 26559.8 9.71186e-15 -9.84655 1.1748e-13 195474)
(941171 24479.2 2.5196e-14 -1396.66 -3.63932e-14 233177)
(-404638 60986.9 -6.12796e-14 3589.33 5.518e-14 -99508.3)
(-270613 59639.2 -5.9415e-14 2237.55 6.522e-14 -66589.3)
(175483 79805.7 0 1544.68 0 43924.1)
(118631 80172.1 -2.48568e-15 903.142 9.45372e-14 29658.8)
(383074 61884.1 -7.31818e-14 -451.303 5.98711e-14 94936.6)
(-162938 58936.2 -5.85068e-14 1617.88 1.3889e-13 -40026.8)
(-261967 88557.7 -1.17568e-14 3293.46 5.21343e-14 -64182.3)
(78636.5 65987.9 -2.16447e-13 -820.459 -5.74842e-14 19307.7)
(111254 61332.3 -1.49912e-13 -613.918 6.27732e-14 27452)
(-71274.2 73792.4 -2.91759e-14 1906.16 -4.07622e-16 -17211.6)
(-197863 52674.7 -2.44801e-14 3824.67 -1.53098e-14 -48145)
(-180565 52332.6 1.61225e-14 3181 -2.75667e-14 -44012.5)
(-183561 41542.8 0 -691.844 0 -45717)
(-90698 92465.4 3.4402e-16 -3786.85 -3.25529e-14 -23443.6)
(-819011 6942.63 7.11192e-14 -5961.35 -3.11448e-14 -204692)
(1.03116e+06 45727.8 -9.28334e-14 -4736.58 -9.299e-15 254677)
(1.34119e+06 148509 5.67034e-15 -237412 2.87988e-15 273869)
(-32080.4 65345.2 1.93266e-14 -2585.98 -4.3845e-14 -8601.43)
(199869 25262.2 7.05182e-14 1466.75 -1.61113e-13 49955.5)
(-1.68663e+06 -204329 1.41976e-14 138511 -9.28017e-15 -384119)
(92684.4 52796.5 3.01898e-15 3593.05 8.18959e-14 23888.4)
(250450 36790 5.69478e-14 1950.19 -6.54095e-14 62625.6)
(276244 39752 7.9512e-14 -4312.39 -3.35673e-14 67471.7)
(-3629.12 75153.6 5.98745e-14 -49.9823 -8.88862e-15 -912.86)
(-4248.08 77315.7 6.31596e-14 -596.088 5.34631e-15 -1201.94)
(747022 31224.6 2.02564e-14 -4367.1 6.7705e-14 184268)
(618941 75884.4 2.58627e-14 4769.29 -6.24752e-15 154755)
(-561369 63721.1 0 4857.41 0 -138082)
(-480429 38029.6 -6.55209e-14 -7847.53 -4.10137e-14 -121151)
(1.63841e+06 -265685 -5.94927e-15 -69521.9 -4.05818e-15 389273)
(-491258 101076 -5.31404e-15 13616.6 6.25607e-14 -118513)
(-790561 40555.7 3.69313e-14 -1825.58 -2.18437e-14 -196607)
(-1.71147e+06 -688792 -1.60455e-14 360632 6.28551e-15 -335171)
(2.00063e+06 2691.95 0 27538.2 0 503230)
(-1.49918e+06 -638295 -5.22315e-15 169818 1.61665e-15 -329841)
(254791 102063 -3.52194e-14 -176.518 1.2472e-14 63175.1)
(-57456.8 62166.7 -6.10858e-15 -2164.87 8.54725e-14 -14793.3)
(-741681 74295.5 3.08672e-14 -6041.86 -3.40277e-14 -185525)
(-674174 72913.9 4.59048e-14 -5108.95 -5.72191e-15 -168544)
(-615359 70696.6 -5.22185e-14 -4612.34 2.01398e-15 -153827)
(219251 54926.4 4.53272e-14 3262.17 -1.26535e-13 55210)
(326152 51219.1 -1.13877e-13 3778.86 1.10768e-13 81862.5)
(32585.6 64483.8 -1.78842e-14 -6534.56 8.3997e-14 6463.79)
(45818.2 59508.9 4.23901e-14 -8314.38 5.43421e-14 9305.47)
(-110066 95666.4 -4.92453e-14 17793.8 1.33519e-14 -22894.6)
(-67545.7 56504.5 3.62085e-14 11552.1 -4.63522e-14 -13893.2)
(-939576 -378370 -4.0495e-15 -23892.8 8.44008e-16 -239056)
(166140 96203.5 -2.78801e-14 12649.2 -9.91507e-14 44361.2)
(-82033.4 58116.9 -9.47109e-14 -6907.26 -4.33305e-14 -22068)
(-385058 86671.1 0 -46.7419 0 -95552.3)
(165908 57551.4 7.40616e-14 677.592 -3.02995e-14 41333.4)
(-81180.9 76187 0 -401.533 0 -20242.3)
(-62092.6 64454 -4.59804e-14 -250.857 -7.28914e-14 -15468.7)
(571330 62968.1 6.47805e-14 3352.96 -6.77443e-14 142590)
(587372 42452.7 9.90265e-14 -345.516 4.73217e-14 145653)
(1.70619e+06 -686945 -5.99176e-15 -359104 -1.98147e-15 334238)
(936554 -377596 7.00714e-15 23944.1 1.91754e-15 238319)
(-183973 48096.4 1.40176e-14 1204.62 1.9963e-14 -45348.5)
(-196819 49573 -4.25803e-14 -2409.6 -8.71476e-14 -49432.6)
(-1.02394e+06 5424.83 -4.72074e-14 -4537.3 -1.08464e-14 -255187)
(826489 44358.7 1.06562e-13 -3441.85 -2.78865e-14 204215)
(270461 60913.4 3.48676e-15 -1907.19 1.93108e-13 66633.8)
(403387 63125.9 6.5586e-14 -2891.04 7.13807e-14 99371.2)
(-946442 25025.5 -1.68686e-15 -776.082 4.14261e-14 -235024)
(-869587 27054.1 -4.19121e-14 -594.583 1.38613e-14 -215910)
(-793916 28520.8 -2.71353e-15 -633.89 6.50022e-14 -197144)
(-11659 76482.4 -9.96797e-14 -1052.15 2.88561e-14 -3153.9)
(-1.03484e+06 26459.7 2.74745e-14 -1991.92 2.95639e-14 -257260)
(337089 59865.4 -6.72166e-14 -2041.72 3.29986e-14 83132)
(469704 61327.2 0 -2974.35 0 115805)
(444277 49013 2.56821e-14 -3230.89 6.14286e-14 109432)
(86434.8 63376.5 -8.42286e-14 1825.29 -2.22862e-13 21899.1)
(6736.88 68087.5 -7.38227e-14 -7663.16 -2.71789e-14 -229.83)
(378128 41636.9 -9.63013e-14 11765.8 1.73542e-14 96740.5)
(-313017 50062 -8.10814e-15 -1163.71 -6.54787e-14 -77954.6)
(48826.5 71445.4 1.11625e-15 -12380 1.41452e-14 9043.12)
(1.49408e+06 -637113 -5.42491e-15 -169292 -1.36211e-15 328707)
(219774 67800.3 6.75242e-15 -2687.15 -1.2426e-13 53863.6)
(265334 66444.4 5.78003e-14 -517.835 1.96705e-14 65706.3)
(-176105 66462.5 0 589.261 0 -43549.1)
(-208976 73597.2 2.14906e-14 -4880.78 -5.98848e-14 -53062.3)
(613008 70171.4 0 6071.08 0 153606)
(671659 72859.1 3.83253e-14 6069.08 3.64284e-14 168158)
(732261 76766.7 -8.61598e-14 6261.05 -8.29412e-15 183242)
(-328114 48553.7 1.20202e-13 -4676 1.22164e-13 -82572)
(-223252 53258.9 6.30511e-15 -3400.68 -7.30486e-14 -56237.2)
(-13131.7 74106.2 7.09991e-14 888.357 3.78336e-14 -3037.81)
(1.5229e+06 17514.8 -1.13058e-14 -23438.7 -2.09102e-14 372047)
(-10160.5 80700.9 -7.68036e-14 -4914.24 2.39438e-14 -3740.35)
(17037 47107.4 -7.44917e-14 8742.32 -4.64473e-14 6396.38)
(32500.9 70826.2 5.51736e-14 743.484 -1.2816e-13 8248.6)
(346709 67242.5 5.90267e-14 -320.711 6.24391e-14 85946)
(-140994 8788.64 -9.76957e-14 -2936.4 4.79766e-15 -35712.1)
(456660 75025.8 0 -2976.96 0 112568)
(1.61326e+06 -61055.5 2.62329e-16 -229331 1.05361e-16 343380)
(350293 21488.8 5.63784e-14 4851.23 1.2829e-13 88118.5)
(335675 31267.5 2.55558e-14 -5303.71 1.39322e-14 81971.8)
(-498923 63057.9 8.42402e-15 4993.36 1.77775e-14 -122554)
(-355375 60570 -6.54739e-14 3509.58 2.09795e-14 -87304.8)
(-425627 42449.8 -1.34068e-13 -978.695 -2.34815e-14 -105850)
(-305248 46783.1 6.75632e-15 -2026.94 -7.11051e-15 -76241.2)
(1.08005e+06 23343.7 -4.80319e-15 -2483.62 1.57327e-14 267367)
(892730 81560.8 2.02974e-15 -722.229 -3.25238e-14 221325)
(250748 73161.7 1.18718e-14 -2640.19 7.0263e-15 61560.5)
(337834 62190.8 2.22744e-14 253.208 3.79415e-14 83886.3)
(184628 73081.3 6.18947e-14 -3873.88 4.41335e-14 44848.8)
(249048 62527.9 5.55132e-14 -2615.57 -8.79363e-15 61144.9)
(-490178 48410.7 -1.03811e-14 4769.1 2.61296e-14 -120440)
(-643200 70647.7 -2.88364e-14 1806.58 5.18218e-15 -159143)
(-150828 108756 3.22148e-14 -409.936 2.30548e-14 -37525.1)
(1.0744e+06 51972.7 3.60525e-14 4442.82 2.59448e-14 267683)
(1.16575e+06 52365.6 -7.83265e-15 19329.3 3.90586e-15 294043)
(1.3872e+06 52654.8 6.35326e-15 -1362.66 4.01364e-15 343854)
(93742.4 70231.4 -1.20368e-13 1544.35 1.46263e-13 23642.6)
(-345861 22684 -7.4603e-14 -3472.9 -3.83721e-14 -86676.9)
(-333402 33518.5 -9.46536e-14 4956.6 6.33451e-14 -81494)
(1.60095e+06 -2498.9 0 10919.3 0 399936)
(1.60387e+06 53796.5 0 494.614 0 398074)
(927978 43016.9 1.45813e-14 -1849.9 6.99751e-14 229791)
(921880 11676.4 4.70789e-14 4136.42 -1.31858e-13 229764)
(-961610 12959.4 0 -7624.82 0 -240487)
(-936860 42568.4 0 6615.74 0 -230813)
(27649.6 69914.7 -1.65855e-14 2967.63 4.75455e-14 7596.75)
(-69996.1 35018.9 1.7755e-13 -4745.68 -7.52093e-14 -18545)
(-259905 32250.7 -4.6809e-14 -3349.71 -1.72805e-14 -65319)
(2.12804e+06 3018.85 0 43196.1 0 538728)
(-37872.3 62928.7 -1.17062e-13 -3579.7 -2.93301e-15 -10285.1)
(-43818.8 65700.7 -1.68609e-14 -5340.55 -9.3863e-14 -12197.4)
(222693 77932.5 -6.05209e-14 -4801.53 -4.15024e-14 54063.4)
(-177494 77360.2 -1.26231e-13 -4810.36 5.28971e-14 -45233.4)
(213462 50157.4 3.68099e-14 -6664.31 -3.80928e-14 51310.8)
(-821003 41379 2.59708e-14 -7294.01 -5.30149e-14 -205517)
(823664 44653.9 -1.07239e-14 -8389.46 -6.48493e-14 202286)
(-1.4322e+06 66726.5 1.1306e-14 -8595.68 -4.88897e-14 -357491)
(-1.74657e+06 -153261 6.12757e-15 330614 -4.45848e-15 -351328)
(599940 90870.3 -9.70844e-15 -12617.8 1.21114e-14 145727)
(63902.5 84011.2 -6.29209e-15 -3867.55 3.54087e-14 14895.9)
(-774621 69605.2 -3.15917e-14 -4105.88 -8.82892e-14 -193218)
(648875 28076.6 -4.09376e-14 7588.59 5.90215e-14 162882)
(-453698 44922.8 4.52885e-14 -8198.96 5.809e-14 -114606)
(350727 68119.8 6.77075e-14 4245.77 1.17593e-15 88076)
(64218.5 78372.9 1.88231e-14 3006.95 8.81573e-16 16680)
(113732 62831 -7.96109e-14 -1132.62 1.00069e-13 27938.3)
(-227995 54402.6 5.53413e-14 -14429.6 -5.88728e-14 -60150.6)
(-367927 99535.2 9.44966e-16 5724.16 7.41392e-14 -89870)
(-208028 54151.7 8.49611e-15 -13478.1 -5.93684e-14 -54960.2)
(-335932 95439 5.38459e-14 4833.32 -1.96879e-14 -82152.3)
(82242.9 47750.3 -3.41092e-14 -2297.17 1.06237e-14 19836.2)
(-38525.9 81697.4 -8.91361e-16 2286.55 -6.59025e-14 -8991.72)
(-25220.7 81941.6 8.15681e-14 1936.51 6.54719e-14 -5777.28)
(-17331.1 75867.2 4.19634e-14 281.492 -9.14531e-14 -4230.37)
(1.14945e+06 39047.8 2.48307e-14 3352.25 3.83728e-15 286034)
(-11937.5 82594.4 -9.25592e-14 -5108.18 -4.11704e-14 -4229.38)
(-45554.8 64791.3 4.55635e-14 -6057.98 -1.527e-13 -12806.2)
(1.62114e+06 -40778.3 -1.23693e-14 -84086.7 -9.10168e-15 381374)
(255834 51743.3 4.86263e-14 -4703.65 -6.24053e-14 62310.6)
(-605041 86834.1 3.30008e-14 10973.6 8.93197e-15 -147400)
(-679436 54275.1 -5.3245e-14 1952.35 -2.33152e-14 -168097)
(-675638 28138.1 0 -7645.45 0 -169536)
(850351 18592.4 -4.8052e-14 5065.45 -2.28557e-14 212246)
(813298 61717.7 2.84809e-15 7569.7 5.73044e-14 203674)
(-27999.7 54827.2 -5.39043e-14 1746.06 4.39763e-14 -6514.06)
(-21299 55154.2 3.9113e-14 1815.48 -2.18831e-13 -4834.25)
(-550416 94023.2 -2.1946e-14 6484.39 -5.45697e-16 -134960)
(-740759 69162.8 0 9399.02 0 -181465)
(526408 47863.7 1.20488e-14 5981.42 2.98886e-14 132097)
(-1.36869e+06 83639 5.25914e-15 -6043.16 -1.67948e-14 -341099)
(44736 58638.7 0 10994.8 0 13827.9)
(736385 40804.9 -2.62057e-15 -2157.66 1.80088e-14 182177)
(557131 90648.5 -1.40143e-15 4389.47 6.88392e-17 139325)
(-345624 72652.6 1.00426e-13 4703.33 -1.29155e-14 -84589.4)
(-268944 51944 -9.79458e-15 -585.585 7.08115e-14 -66875.9)
(-246147 70037.7 1.55014e-14 3106.31 -5.90009e-14 -60303.4)
(-192044 55037.5 -8.76262e-16 -1390.67 3.46647e-15 -47995.1)
(-280505 36885 3.62542e-14 1369.5 5.35717e-14 -69259.2)
(-235559 41682.4 -6.34161e-14 4782.67 1.27752e-14 -57260.4)
(-285292 86673.3 0 1121.03 0 -70508.5)
(-322567 89335.9 -3.22962e-14 -690.123 2.80912e-14 -80206.7)
(-353404 93269.7 -2.64659e-15 -901.069 -3.02042e-15 -87910.3)
(94378.5 59545.4 -1.56077e-13 1490.05 -7.80757e-14 23786.9)
(-19232.1 72310.2 -3.46392e-14 -2394.9 6.90101e-14 -5366.1)
(679569 36362.3 -1.96901e-14 4295.89 5.59625e-14 169681)
(711041 48205.7 2.72401e-14 -5253.64 -5.28645e-14 175120)
(118811 64221.2 5.6204e-15 -450.897 -3.89552e-14 29367.6)
(172054 57437.5 0 1928.26 0 43168.6)
(-386563 91192.2 4.077e-14 -1887.81 -4.49095e-14 -96382.5)
(336691 58167.7 -7.78886e-14 3338.86 -9.6566e-16 84368.3)
(367525 82082.2 -3.40914e-14 3668.21 -2.1046e-15 92100.6)
(-132054 67547.9 -6.41725e-14 -1775.33 9.2047e-14 -33205.9)
(-112014 70061 3.74506e-14 -2149.97 2.20229e-15 -28326.3)
(-163481 73037.2 6.07762e-14 36.4286 2.16322e-14 -40553.9)
(-181702 63974.7 0 -1561.49 0 -45471.4)
(-807771 41368.5 1.81348e-14 -438.128 -2.7756e-14 -200533)
(361313 64852.6 -2.93709e-14 -205.659 -1.16422e-13 89598.1)
(259085 64594.4 -1.34589e-14 -739.132 -1.92417e-15 64100.9)
(-91997.9 171754 -8.41736e-15 18478.7 -6.07154e-15 -18241.6)
(940115 31110.8 -6.18337e-14 -7185.87 -3.70638e-14 231479)
(-1.10406e+06 12318.8 5.37432e-14 1933.72 3.21775e-14 -273461)
(-135545 159840 0 -4543.97 0 -34758.9)
(-132972 67048.4 2.24254e-14 2418.1 6.77455e-14 -32393.2)
(-112923 70398 -1.68679e-13 3965.61 -4.28145e-14 -27034.6)
(-192321 63579.6 7.2827e-14 1410.47 8.17057e-16 -47368.7)
(-165805 69053 0 2901.21 0 -40419.6)
(375010 55238.2 3.77334e-14 -3157.36 -6.07535e-14 92264.2)
(430914 74477.3 1.3752e-14 -2762.13 5.83452e-15 106233)
(347552 57873.1 -2.7959e-14 -6664.57 2.67862e-14 84581)
(405901 75909.5 2.97533e-14 -4730.33 8.24781e-14 99538.6)
(316915 56694.2 2.33081e-14 -5349.39 3.91801e-14 77305.7)
(370040 73240.1 -5.0713e-14 -3965.72 2.90054e-14 90830.5)
(295682 35298.5 2.28739e-14 669.775 8.64571e-14 73530.9)
(285329 23099.6 6.7272e-14 3699.65 1.4414e-13 71713.9)
(-582081 75707.7 -1.318e-14 1054.29 1.73795e-14 -144164)
(263083 69310.7 -6.97457e-14 -3634.94 -1.69123e-15 64374.4)
(-638636 55792.9 0 5391.77 0 -157121)
(1.1033e+06 76196.9 3.83567e-14 -9879.27 -2.41565e-14 271299)
(-547841 35304.6 7.03076e-14 2078.55 -1.15689e-13 -135415)
(-401125 39496.6 8.48368e-14 367.353 -5.70486e-14 -99436.2)
(-1.2922e+06 -610855 -4.97541e-15 205776 1.11096e-15 -269563)
(38400.5 68272.6 9.47088e-14 470.98 -2.48906e-14 9644.79)
(1.17283e+06 45273.8 -1.28042e-14 -2618.32 -6.40185e-16 290354)
(-559244 51121.8 -1.97299e-14 2025.69 -5.71444e-14 -138257)
(-404226 50275 1.22948e-13 1338 6.0548e-14 -99964.7)
(1.77811e+06 -9540.56 2.09867e-14 -3362.4 9.34384e-15 440351)
(-78823.4 61365.6 -1.35841e-14 -663.243 5.45341e-14 -19722.2)
(1.21239e+06 16240.8 3.19531e-14 3790.07 -1.98852e-14 301758)
(-281846 52521.5 4.25046e-14 1687.92 -7.49863e-14 -69513)
(-1.01321e+06 77450.5 2.597e-14 10693.5 -3.37761e-15 -248744)
(-952563 51522.1 -1.58662e-14 -5628.7 -1.21814e-15 -237747)
(918167 52989.2 -3.00719e-14 1383.81 1.97089e-14 228159)
(-114760 68688.8 -1.86175e-13 4734.67 -8.48067e-14 -27299.5)
(-2844.17 -32809.5 2.02381e-16 -51436 7.19533e-17 -13468)
(-15429.1 65829.8 0 3017.95 0 -3079.45)
(-1.71411e+06 -546901 8.16647e-15 217386 -2.2518e-15 -371368)
(1.28737e+06 -609685 9.65527e-15 -206514 3.03763e-15 268181)
(-800599 79556.2 3.33432e-14 -6427.71 -3.24093e-14 -200240)
(272787 51858.4 1.41962e-14 2073.52 5.4869e-14 68198.4)
(375158 46716 -4.58045e-14 2737.79 1.04231e-13 93763.7)
(111889 66256 9.14586e-14 -1520.29 2.72592e-14 27384.8)
(-207131 17659.2 5.30127e-14 490.262 -8.15658e-14 -51271.8)
(181284 81841.2 -4.42584e-14 -1112.68 4.05207e-14 44704.3)
(-92954.8 53654.6 1.30738e-14 1018.46 2.00597e-14 -22811.3)
(-89486.9 94042 9.5477e-15 3705.6 2.77865e-14 -21284.1)
(-1.39855e+06 8370.89 -4.44867e-15 36913.5 1.06779e-14 -337850)
(11489.4 -19522.3 5.3096e-17 -34090.2 3.29552e-17 -5607.71)
(-462791 80813.6 -1.94899e-16 5762.23 3.71657e-15 -113398)
(361795 47941.4 3.31097e-14 -2121.45 1.02788e-13 89242.3)
(1.45739e+06 -282166 8.51297e-16 -38392.8 1.1197e-15 352081)
(-41545.7 53101.8 -8.53059e-15 -6842.78 -6.63579e-14 -12006.2)
(-47059.4 84025.5 6.76902e-15 -3045.75 6.47902e-14 -12432.1)
(-27186.5 73821.6 -1.15875e-15 410.75 -9.93873e-14 -6643.61)
(-71950.4 67350.6 -1.86015e-14 3043.9 2.53974e-14 -17097.1)
(30834.9 72846.6 2.95623e-14 -999.87 7.64487e-14 7402.69)
(20667.7 75988.2 -6.93763e-14 -604.526 -2.26672e-14 4978.07)
(-1.46321e+06 -280716 3.66539e-15 37212.7 -1.12979e-15 -353819)
(499616 80372.1 -2.76176e-14 1711.35 1.49827e-14 124390)
(-174179 65112 -1.85651e-13 655.128 -5.27055e-14 -43054.8)
(575964 67888.7 9.81405e-14 4075.48 -1.66026e-13 143919)
(526304 65916 -1.14474e-15 4064.73 -6.34634e-14 131595)
(480217 63175.9 -1.80931e-13 2081.44 2.73739e-14 119668)
(84627.6 41317.4 -9.07184e-14 4189.08 -3.39615e-14 22037.2)
(-1.15608e+06 30746 4.95086e-14 -3197.66 -4.81606e-14 -287640)
(356938 51729.2 9.84184e-14 -1952.83 1.06154e-14 88079)
(502907 52427.6 -4.45856e-14 -1972.83 -6.38451e-14 124292)
(-99360.4 65443 -1.57213e-13 -450.918 -2.65282e-14 -24765.2)
(749619 87994.5 1.05561e-14 -10291.9 1.53504e-14 183442)
(140482 51872.3 -6.36177e-14 -815.819 4.3122e-14 34654.1)
(-1.50748e+06 24635.7 -1.69663e-14 -2228.52 -6.31368e-15 -374590)
(42587.7 67112.9 -8.20334e-14 1925.83 -6.90704e-14 11044.7)
(-125298 70140.8 -1.63154e-13 2147.17 7.71086e-14 -30556.3)
(413142 55586.2 1.24477e-13 718.432 -1.79765e-14 102687)
(377367 54743.8 1.15978e-13 784.177 2.82221e-14 93826.9)
(344095 52812.1 -8.39192e-14 -966.368 2.31539e-14 85137.1)
(782238 44993.2 1.26805e-14 218.622 2.68648e-14 194143)
(163734 68734.3 -5.50791e-14 2418.04 -1.18158e-13 41225.6)
(-423497 60008.9 3.80864e-14 -6387.94 8.59547e-16 -106663)
(-336370 103951 2.3378e-14 3215.95 2.61289e-14 -82662.3)
(-185157 46705.7 0 1246.95 0 -45631.7)
(-578698 75455.3 -5.0927e-14 -6088.36 1.5507e-14 -145097)
(-634343 78015.4 -7.682e-14 -6772.48 -5.10302e-15 -159074)
(-693868 82166.9 -7.6851e-14 -8027.05 3.70634e-14 -174154)
(324897 53388.8 1.5568e-15 5090.8 1.94122e-14 81876.8)
(223278 58818.8 2.45319e-14 3370.39 -3.0733e-14 56236.1)
(63343.4 11236.8 -7.13325e-14 3002.46 2.5743e-14 16461.7)
(116666 55435.4 0 -1844.61 0 28489.4)
(150822 45881.2 -8.34947e-14 551.201 4.98638e-14 37558.7)
(1.76041e+06 -79538.1 -4.57839e-15 -236290 -2.21541e-15 378166)
(637716 38376.6 8.2835e-14 653.479 -8.5014e-14 158392)
(-487893 68397.5 0 741.843 0 -120872)
(-345081 63261.5 -4.10008e-14 6469.61 -1.80924e-15 -84016.4)
(274413 66919.2 2.18248e-14 -3195.96 -2.70021e-14 67294.4)
(-87947.3 76314.5 3.64326e-14 -1837.11 2.99048e-14 -22277.3)
(-12874.5 77809.1 1.07121e-13 -1672.55 -8.44805e-14 -3609.42)
(27160.3 56236.6 8.62134e-14 7240.21 -1.36583e-14 8535.46)
(29919.8 57105.2 -4.52113e-14 7740.72 -4.2159e-14 9344.33)
(-5339.97 96720.5 -2.27123e-15 -2737.84 -1.86576e-14 -2004.27)
(-7365.38 51792.4 -2.00302e-14 -642.416 6.74105e-14 -1986.9)
(-808.185 59501.6 -7.49035e-14 -1649.84 5.58482e-14 -609.885)
(9773.5 65884.1 7.14901e-14 -12280.5 -3.25032e-14 -622.051)
(123656 49088.2 -5.64175e-15 1991.13 -2.67059e-14 31175.6)
(-238545 101332 -1.33518e-15 1493.17 -1.30065e-14 -58817.3)
(72703.9 64552.6 1.79426e-13 464.47 -3.53354e-14 18154.6)
(8647.78 98481.1 7.67399e-15 -13895.3 1.10098e-14 -1302.03)
(-496424 97956.1 -1.90998e-14 -1937.39 -1.15021e-14 -123654)
(615210 48394.2 6.25569e-14 3184.35 5.59195e-14 153436)
(-262749 69407.8 -6.90723e-14 -92.5527 2.26031e-14 -65216.4)
(-1.16845e+06 220488 -3.33779e-15 211175 2.01449e-15 -237519)
(-166790 45644.5 4.914e-14 -2219.3 5.34107e-14 -41934.5)
(-274582 98001 0 3077.02 0 -67365.8)
(79251.6 63860.9 9.57346e-14 -1076.64 -1.32334e-13 19396.8)
(121597 57107.5 5.06775e-15 -293.257 1.64733e-14 30097.9)
(1.2855e+06 -284493 -1.03628e-15 41955.2 1.82372e-16 329369)
(-1.74584e+06 12177.4 -1.41076e-14 10087 6.48855e-15 -430676)
(523571 52602.1 3.05001e-14 4260.72 2.56614e-14 130966)
(573457 53447.5 -3.1108e-14 3800.48 6.76647e-14 143229)
(-176862 69720.1 -2.27079e-13 2650.79 -8.11269e-14 -43225.4)
(120108 84592.1 4.02002e-14 7316.92 7.93274e-14 31616.7)
(-28034 62597.8 6.3881e-14 -3928.13 9.72974e-14 -7930.46)
(-729759 -474183 -8.86012e-16 54157 3.7277e-16 -167631)
(-1.69088e+06 61115.2 4.63419e-15 1868.13 5.97456e-15 -419077)
(1.50641e+06 33983.9 2.51993e-14 2822.4 -1.24579e-14 374470)
(-2.19698e+06 -36021.1 -6.57071e-15 -6607.02 -2.84128e-15 -546756)
(670476 46549.7 -2.77557e-14 -4811.16 -4.32273e-14 165165)
(465589 43208.1 -4.59645e-14 -3483.72 1.69262e-13 114658)
(-602817 75067.3 0 12154.1 0 -146555)
(76714.9 43950.4 -8.26061e-14 -7068.13 3.92572e-14 17280.8)