/*--------------------------------*- C++ -*----------------------------------*\
| =========                 |                                                 |
| \\      /  F ield         | OpenFOAM: The Open Source CFD Toolbox           |
|  \\    /   O peration     | Version:  2.3.1                                 |
|   \\  /    A nd           | Web:      www.OpenFOAM.org                      |
|    \\/     M anipulation  |                                                 |
\*---------------------------------------------------------------------------*/
FoamFile
{
    version     2.0;
    format      ascii;
    class       volScalarField;
    location    "0.8";
    object      p;
}
// * * * * * * * * * * * * * * * * * * * * * * * * * * * * * * * * * * * * * //

dimensions      [0 2 -2 0 0 0 0];

internalField   nonuniform List<scalar> 
768
(
-0.0436526
-0.0435793
-0.0437637
-0.0442831
-0.044994
-0.0456669
-0.0461858
-0.0465912
-0.0469798
-0.0473978
-0.0478814
-0.048351
-0.0406207
-0.041061
-0.0418798
-0.0428959
-0.0438596
-0.0445942
-0.0450074
-0.0451679
-0.0452645
-0.0453859
-0.0453458
-0.0450649
-0.0385701
-0.0395491
-0.0411078
-0.0427075
-0.0439496
-0.0445834
-0.0446354
-0.0443404
-0.0440297
-0.043687
-0.0430248
-0.0423739
-0.0358332
-0.0375987
-0.0398001
-0.0417705
-0.043105
-0.0435868
-0.0432827
-0.0425559
-0.041819
-0.0410525
-0.0402097
-0.0399097
-0.0326999
-0.0350614
-0.0375689
-0.0396977
-0.0410265
-0.041372
-0.0407998
-0.0397022
-0.0385133
-0.0373694
-0.0367631
-0.037026
-0.0290953
-0.0315942
-0.0341155
-0.0362621
-0.0375459
-0.037781
-0.0370519
-0.0357254
-0.0341899
-0.0329229
-0.0328925
-0.0338785
-0.0250643
-0.0272979
-0.0296398
-0.0316812
-0.0328865
-0.0330314
-0.0322354
-0.0308221
-0.0291173
-0.0279088
-0.0286207
-0.0305534
-0.0207916
-0.022498
-0.0244676
-0.0262271
-0.0272669
-0.0273674
-0.0266031
-0.0252824
-0.0236257
-0.0225145
-0.0238671
-0.0269038
-0.0166065
-0.0177072
-0.0191169
-0.0203521
-0.0209784
-0.0209223
-0.0202897
-0.0192864
-0.0179382
-0.0170209
-0.0186838
-0.0227293
-0.0130342
-0.0133146
-0.0141249
-0.0147733
-0.0146686
-0.0140598
-0.0134292
-0.0129408
-0.0121501
-0.0116933
-0.0134021
-0.0179645
-0.00888581
-0.00879422
-0.0096364
-0.010187
-0.00930276
-0.00769773
-0.006556
-0.00609724
-0.00639583
-0.00674978
-0.00851185
-0.01297
-0.00643547
-0.00514228
-0.00591541
-0.00660056
-0.00526297
-0.00284789
-0.00109918
-0.000660797
-0.0013463
-0.00245856
-0.00447533
-0.00851683
-0.0487858
-0.0492812
-0.0499614
-0.0507481
-0.051401
-0.0517004
-0.051928
-0.0526856
-0.054133
-0.0557169
-0.0566029
-0.0566344
-0.0445526
-0.0442556
-0.0446705
-0.0454543
-0.0461432
-0.0470436
-0.0481721
-0.0497526
-0.0519007
-0.0540803
-0.0552891
-0.0553734
-0.0421911
-0.0425423
-0.0432427
-0.0440732
-0.044962
-0.0456872
-0.0465668
-0.0478204
-0.0496098
-0.0518306
-0.0537057
-0.0543088
-0.0401838
-0.040723
-0.0413576
-0.0420625
-0.0428362
-0.0436714
-0.0446158
-0.0457441
-0.0470969
-0.04883
-0.0511451
-0.0528538
-0.0376661
-0.0383833
-0.0391445
-0.0399604
-0.040802
-0.0416677
-0.042598
-0.0436349
-0.0446921
-0.0457269
-0.0477516
-0.0509513
-0.035014
-0.0360206
-0.0369286
-0.0378294
-0.0387443
-0.0396442
-0.0405147
-0.0413892
-0.0422105
-0.0427899
-0.0441825
-0.0484274
-0.0323867
-0.0338026
-0.0348679
-0.035826
-0.0367911
-0.0377119
-0.0384903
-0.0390894
-0.0395523
-0.0398511
-0.0406653
-0.0448719
-0.0296947
-0.0316958
-0.0329501
-0.0339186
-0.0349146
-0.0358811
-0.036575
-0.0368092
-0.0366742
-0.0364805
-0.0367465
-0.0401535
-0.0267322
-0.0295655
-0.0311313
-0.0320843
-0.033079
-0.034129
-0.0347799
-0.0345606
-0.0334959
-0.0321983
-0.0316265
-0.0341939
-0.0231371
-0.027063
-0.0292102
-0.030245
-0.0312729
-0.0324824
-0.0331366
-0.0323868
-0.0300441
-0.0268033
-0.0243491
-0.0251528
-0.0187682
-0.0237394
-0.0267755
-0.0282741
-0.0295219
-0.0309355
-0.0316249
-0.0303856
-0.0266939
-0.0210107
-0.0149644
-0.0104148
-0.014173
-0.0196972
-0.0236599
-0.0259888
-0.0277357
-0.029419
-0.0301505
-0.028556
-0.0239425
-0.0165786
-0.00702767
0.00569912
-0.0436534
-0.04358
-0.043765
-0.0442861
-0.0449995
-0.0456753
-0.0461918
-0.0465962
-0.046985
-0.047404
-0.0478893
-0.0483598
-0.0406198
-0.0410609
-0.0418807
-0.0428977
-0.0438618
-0.044597
-0.0450082
-0.0451668
-0.0452628
-0.0453848
-0.0453463
-0.0450675
-0.0385699
-0.0395501
-0.0411103
-0.0427107
-0.0439509
-0.0445789
-0.044631
-0.0443344
-0.0440226
-0.0436798
-0.0430191
-0.0423737
-0.0358341
-0.0376018
-0.0398055
-0.0417763
-0.0431088
-0.0435862
-0.0432781
-0.0425482
-0.0418094
-0.0410432
-0.0402049
-0.0399125
-0.0327024
-0.0350668
-0.0375765
-0.0397054
-0.0410321
-0.0413735
-0.0407967
-0.0396953
-0.0385045
-0.0373629
-0.0367646
-0.0370363
-0.0290994
-0.0316011
-0.034124
-0.0362703
-0.0375521
-0.037784
-0.0370518
-0.0357227
-0.0341866
-0.0329239
-0.0329035
-0.0339
-0.0250698
-0.0273055
-0.0296483
-0.031689
-0.0328924
-0.033036
-0.0322396
-0.030827
-0.0291239
-0.0279203
-0.0286419
-0.0305867
-0.0207979
-0.022506
-0.0244758
-0.0262342
-0.0272723
-0.0273728
-0.026612
-0.0252978
-0.0236442
-0.022537
-0.0238968
-0.026946
-0.0166128
-0.0177146
-0.0191233
-0.0203567
-0.0209816
-0.0209274
-0.0203031
-0.0193167
-0.0179661
-0.0170514
-0.0187187
-0.0227748
-0.01304
-0.0133193
-0.0141265
-0.0147703
-0.0146637
-0.0140586
-0.0134411
-0.0129987
-0.0121786
-0.0117246
-0.0134383
-0.0180083
-0.00888873
-0.0087959
-0.00963326
-0.0101741
-0.00928314
-0.00767975
-0.00653888
-0.00604837
-0.00639856
-0.0067723
-0.00854486
-0.0130104
-0.00644413
-0.0051475
-0.0059119
-0.00658131
-0.00523125
-0.00281499
-0.0010702
-0.000630072
-0.00134319
-0.00247306
-0.0045032
-0.00855516
-0.0487953
-0.0492916
-0.0499742
-0.0507644
-0.0514208
-0.0517223
-0.0519497
-0.0527036
-0.0541447
-0.0557224
-0.056605
-0.0566365
-0.0445569
-0.0442638
-0.0446839
-0.0454713
-0.0461623
-0.0470643
-0.0481915
-0.0497667
-0.0519059
-0.0540768
-0.0552821
-0.0553681
-0.0421975
-0.0425539
-0.0432569
-0.0440882
-0.0449769
-0.0457013
-0.0465792
-0.0478288
-0.0496108
-0.0518225
-0.0536932
-0.0542976
-0.0401924
-0.040734
-0.0413686
-0.0420723
-0.0428438
-0.043676
-0.0446175
-0.045743
-0.0470923
-0.0488199
-0.0511299
-0.0528409
-0.0376815
-0.038399
-0.0391576
-0.0399692
-0.0408057
-0.0416658
-0.0425908
-0.0436237
-0.0446793
-0.0457136
-0.0477349
-0.0509321
-0.035041
-0.0360459
-0.0369474
-0.0378399
-0.0387462
-0.0396379
-0.0405005
-0.0413691
-0.0421878
-0.0427689
-0.0441611
-0.0483992
-0.0324267
-0.0338391
-0.0348932
-0.0358389
-0.0367922
-0.037702
-0.0384704
-0.0390615
-0.03952
-0.0398185
-0.0406321
-0.0448319
-0.0297459
-0.0317426
-0.0329814
-0.0339334
-0.0349152
-0.0358698
-0.0365523
-0.0367759
-0.036634
-0.0364373
-0.0367
-0.0401029
-0.0267889
-0.0296189
-0.0311664
-0.0321001
-0.0330812
-0.0341214
-0.0347595
-0.0345257
-0.0334507
-0.0321486
-0.0315728
-0.0341427
-0.023191
-0.027115
-0.0292446
-0.0302606
-0.0312789
-0.0324823
-0.0331235
-0.0323551
-0.0299971
-0.0267506
-0.0242982
-0.0251202
-0.0188155
-0.0237847
-0.0268061
-0.0282908
-0.0295355
-0.0309474
-0.0316242
-0.0303617
-0.0266479
-0.0209572
-0.0149221
-0.0104147
-0.0142182
-0.0197412
-0.0236934
-0.0260138
-0.0277628
-0.0294481
-0.0301666
-0.0285434
-0.0239011
-0.0165268
-0.00699102
0.00567848
-0.00107012
-0.00285479
-0.00368837
-0.00384313
-0.00255984
-0.000309733
0.00168439
0.00261612
0.00210499
0.00077015
-0.00149955
-0.0052202
-0.000891105
-0.00262675
-0.00316763
-0.00272819
-0.00150581
0.000251723
0.00196474
0.003029
0.00342321
0.00254451
0.000392702
-0.00309534
-0.00144426
-0.00225181
-0.00246498
-0.00186613
-0.000762781
0.000649952
0.00205855
0.00291434
0.00327105
0.00267751
0.000954245
-0.00202334
-0.00231503
-0.00222229
-0.0021578
-0.00161305
-0.000682933
0.000462201
0.00152743
0.00205321
0.00235182
0.00196238
0.000625051
-0.00175946
-0.0103068
-0.0157371
-0.0202555
-0.0234153
-0.0257953
-0.0278044
-0.0285591
-0.0267258
-0.0217429
-0.0142579
-0.00585624
0.00112539
-0.00764108
-0.0126106
-0.017162
-0.0207869
-0.0236567
-0.0259748
-0.0267032
-0.024789
-0.0199088
-0.0129988
-0.00602257
-0.000958961
-0.00603331
-0.0105296
-0.0148327
-0.0185202
-0.0215495
-0.0240102
-0.0243976
-0.0226047
-0.0183489
-0.0123586
-0.00643839
-0.00236231
-0.00501696
-0.00891998
-0.0128929
-0.0164915
-0.0194172
-0.0222935
-0.021654
-0.019537
-0.0161724
-0.0118654
-0.00734985
-0.0038408
-0.00108145
-0.00286533
-0.00368902
-0.00382669
-0.00252919
-0.000273182
0.00171955
0.00264786
0.00211091
0.000760131
-0.00152285
-0.00525681
-0.000899384
-0.00263592
-0.00316879
-0.00271525
-0.00148102
0.000281882
0.00199321
0.00304618
0.00343219
0.00253677
0.000369721
-0.00313184
-0.00144618
-0.00225318
-0.00246037
-0.00185193
-0.000740262
0.000676643
0.00208157
0.00293388
0.00327978
0.00267008
0.000931247
-0.0020608
-0.00230886
-0.00221438
-0.0021467
-0.00159669
-0.000661498
0.00048738
0.00155055
0.00207354
0.00235853
0.00195361
0.000601303
-0.00179672
-0.0103545
-0.0157884
-0.0203017
-0.0234574
-0.0258418
-0.0278534
-0.0285928
-0.0267252
-0.0217093
-0.014214
-0.00583135
0.00110621
-0.00769067
-0.0126693
-0.0172226
-0.0208484
-0.0237244
-0.0260425
-0.0267519
-0.0247998
-0.0198853
-0.0129669
-0.00601001
-0.000977553
-0.00608432
-0.0105918
-0.014902
-0.0185965
-0.0216358
-0.0240906
-0.0244582
-0.022629
-0.0183396
-0.0123407
-0.00643669
-0.00238624
-0.00506724
-0.00898272
-0.0129657
-0.0165764
-0.0195211
-0.022383
-0.021722
-0.0195763
-0.0161877
-0.011873
-0.00736152
-0.00386733
)
;

boundaryField
{
    rotor
    {
        type            zeroGradient;
    }
    stator
    {
        type            zeroGradient;
    }
    AMI1
    {
        type            cyclicAMI;
        value           nonuniform List<scalar> 
48
(
-0.00280149
-0.00240513
-0.0021601
-0.00159788
-0.000722514
0.000348349
0.00132555
0.00169722
0.0019418
0.00154327
0.000278853
-0.00195418
-0.005016
-0.0086181
-0.0122699
-0.0156046
-0.0183857
-0.0207976
-0.0201563
-0.0181142
-0.014999
-0.0112371
-0.00741969
-0.00436122
-0.00279292
-0.00239503
-0.00214755
-0.00158143
-0.000702034
0.000372087
0.00134968
0.00172032
0.00194756
0.00153372
0.000254728
-0.00199174
-0.00506591
-0.00867912
-0.0123409
-0.0156868
-0.0184827
-0.0208893
-0.02023
-0.0181563
-0.015022
-0.0112544
-0.00743967
-0.00439051
)
;
    }
    AMI2
    {
        type            cyclicAMI;
        value           nonuniform 0();
    }
    front
    {
        type            empty;
    }
    back
    {
        type            empty;
    }
    procBoundary2to3
    {
        type            processor;
        value           nonuniform List<scalar> 8(0.00112358 -0.000959392 -0.0023645 -0.00384714 -0.00112603 -0.000935463 -0.00148639 -0.00234859);
    }
}


// ************************************************************************* //
