/*--------------------------------*- C++ -*----------------------------------*\
| =========                 |                                                 |
| \\      /  F ield         | OpenFOAM: The Open Source CFD Toolbox           |
|  \\    /   O peration     | Version:  2.3.1                                 |
|   \\  /    A nd           | Web:      www.OpenFOAM.org                      |
|    \\/     M anipulation  |                                                 |
\*---------------------------------------------------------------------------*/
FoamFile
{
    version     2.0;
    format      ascii;
    class       surfaceScalarField;
    location    "0.8";
    object      phi;
}
// * * * * * * * * * * * * * * * * * * * * * * * * * * * * * * * * * * * * * //

dimensions      [0 3 -1 0 0 0 0];

internalField   nonuniform List<scalar> 
1460
(
6.54686e-08
-6.54686e-08
3.32539e-07
-2.6707e-07
6.6525e-07
-3.32711e-07
9.54503e-07
-2.89253e-07
1.13697e-06
-1.82472e-07
1.19011e-06
-5.31351e-08
1.16017e-06
2.99447e-08
1.08394e-06
7.62293e-08
9.98783e-07
8.51531e-08
8.74694e-07
1.24089e-07
6.03801e-07
2.70892e-07
4.68441e-07
1.35361e-07
1.74201e-07
-2.39669e-07
5.28037e-07
-6.20907e-07
9.01071e-07
-7.05745e-07
1.18262e-06
-5.70807e-07
1.3265e-06
-3.2635e-07
1.35087e-06
-7.74978e-08
1.23043e-06
1.50385e-07
1.03293e-06
2.73721e-07
7.49043e-07
3.69044e-07
2.12049e-07
6.61083e-07
-6.58564e-07
1.14151e-06
1.47893e-06
-1.66906e-06
2.76327e-07
-5.15996e-07
6.85217e-07
-1.0298e-06
1.02902e-06
-1.04955e-06
1.2532e-06
-7.94993e-07
1.33803e-06
-4.11175e-07
1.24262e-06
1.79147e-08
1.01167e-06
3.81332e-07
6.79792e-07
6.05598e-07
1.66923e-07
8.81913e-07
-6.91621e-07
1.51963e-06
-1.68941e-06
2.13929e-06
2.30805e-06
-2.51852e-06
2.88881e-07
-8.04877e-07
6.11188e-07
-1.3521e-06
8.30526e-07
-1.26888e-06
9.57431e-07
-9.21898e-07
9.97162e-07
-4.50906e-07
9.28418e-07
8.66589e-08
7.2451e-07
5.85241e-07
3.78105e-07
9.52003e-07
-2.40157e-07
1.50017e-06
-1.13598e-06
2.41545e-06
-1.97843e-06
2.98174e-06
2.86612e-06
-2.5365e-06
2.1553e-07
-1.02041e-06
3.61247e-07
-1.49782e-06
4.50967e-07
-1.3586e-06
5.36628e-07
-1.00756e-06
5.98344e-07
-5.12622e-07
6.01031e-07
8.39712e-08
4.8951e-07
6.96762e-07
2.13595e-07
1.22792e-06
-3.44411e-07
2.05818e-06
-1.10145e-06
3.17249e-06
-1.75364e-06
3.63393e-06
3.26298e-06
-2.1505e-06
6.00933e-08
-1.0805e-06
1.68727e-08
-1.4546e-06
8.46558e-09
-1.3502e-06
8.02404e-08
-1.07933e-06
2.06231e-07
-6.38612e-07
3.28496e-07
-3.82938e-08
3.64211e-07
6.61046e-07
2.26427e-07
1.3657e-06
-1.49993e-07
2.4346e-06
-7.03981e-07
3.72648e-06
-1.22032e-06
4.15026e-06
3.61926e-06
-1.5766e-06
-1.32671e-07
-9.4783e-07
-3.42426e-07
-1.24484e-06
-4.43154e-07
-1.24947e-06
-3.89311e-07
-1.13318e-06
-1.90393e-07
-8.37529e-07
8.06021e-08
-3.09289e-07
3.15884e-07
4.25764e-07
3.84382e-07
1.29721e-06
2.591e-07
2.55988e-06
-5.04496e-08
4.03603e-06
-4.63527e-07
4.56334e-06
4.00426e-06
-8.48524e-07
-3.09742e-07
-6.38088e-07
-6.69481e-07
-8.85105e-07
-8.8141e-07
-1.03754e-06
-8.68636e-07
-1.14595e-06
-6.17868e-07
-1.0883e-06
-1.97019e-07
-7.30138e-07
2.59433e-07
-3.06888e-08
5.894e-07
9.67239e-07
7.62664e-07
2.38662e-06
7.47176e-07
4.05152e-06
4.84927e-07
4.82559e-06
4.4077e-06
8.14825e-08
-4.27931e-07
-2.10157e-07
-8.96591e-07
-4.16445e-07
-1.19779e-06
-7.36338e-07
-1.24485e-06
-1.0989e-06
-1.00036e-06
-1.33278e-06
-5.04317e-07
-1.22618e-06
1.15864e-07
-6.50869e-07
7.16637e-07
3.66466e-07
1.21815e-06
1.8851e-06
1.55225e-06
3.71742e-06
1.548e-06
4.82983e-06
4.72375e-06
1.23195e-06
-4.63006e-07
2.52849e-07
-8.40008e-07
-3.94434e-08
-1.08871e-06
-4.8764e-07
-1.15489e-06
-1.03271e-06
-9.88346e-07
-1.49933e-06
-5.87638e-07
-1.62689e-06
2.48754e-08
-1.26338e-06
7.3146e-07
-3.40119e-07
1.51067e-06
1.10589e-06
2.20856e-06
3.01954e-06
2.57361e-06
4.46478e-06
4.78816e-06
2.5092e-06
-8.57379e-08
3.38587e-07
-5.0224e-08
-7.49573e-08
-3.81281e-08
-4.99736e-07
-1.74857e-08
-1.05335e-06
2.67411e-08
-1.54356e-06
1.29046e-07
-1.72919e-06
3.80541e-07
-1.51488e-06
8.81687e-07
-8.41265e-07
1.66032e-06
3.27254e-07
2.60047e-06
2.07939e-06
3.35278e-06
3.71248e-06
4.46853e-06
3.67241e-06
1.36371e-06
-1.02513e-06
2.04237e-06
-7.53617e-07
2.38317e-06
-8.40535e-07
2.49849e-06
-1.16867e-06
2.34439e-06
-1.38946e-06
2.00459e-06
-1.38939e-06
1.68081e-06
-1.19109e-06
1.61712e-06
-7.77582e-07
1.97092e-06
-2.65452e-08
2.80552e-06
1.24479e-06
3.77057e-06
2.74743e-06
4.46715e-06
3.77196e-06
-5.43698e-07
6.79059e-07
-1.25465e-06
7.10947e-07
-1.80459e-06
5.49944e-07
-2.09807e-06
2.93484e-07
-2.12379e-06
2.57165e-08
-1.85704e-06
-2.66752e-07
-1.34436e-06
-5.12681e-07
-6.89999e-07
-6.54357e-07
-5.95899e-08
-6.30409e-07
3.2088e-07
-3.8047e-07
2.73647e-07
4.7233e-08
2.73647e-07
-2.50142e-06
1.51142e-06
-3.04844e-06
1.25796e-06
-3.34772e-06
8.49228e-07
-3.45442e-06
4.00185e-07
-3.34913e-06
-7.95816e-08
-3.11771e-06
-4.98165e-07
-2.69736e-06
-9.33033e-07
-2.06869e-06
-1.28302e-06
-1.28206e-06
-1.41704e-06
-5.01351e-07
-1.16118e-06
-3.21295e-09
-4.50905e-07
2.70434e-07
-3.03871e-06
2.0316e-06
-3.3241e-06
1.54336e-06
-3.49303e-06
1.01816e-06
-3.59245e-06
4.99602e-07
-3.64691e-06
-2.5121e-08
-3.56493e-06
-5.80148e-07
-3.34796e-06
-1.15e-06
-2.92511e-06
-1.70588e-06
-2.22317e-06
-2.11899e-06
-1.26139e-06
-2.12296e-06
-3.21982e-07
-1.39031e-06
-5.15479e-08
-2.82558e-06
2.32069e-06
-2.97179e-06
1.68956e-06
-3.05846e-06
1.10483e-06
-3.12162e-06
5.62763e-07
-3.17368e-06
2.69426e-08
-3.21014e-06
-5.43692e-07
-3.18646e-06
-1.17367e-06
-3.03611e-06
-1.85623e-06
-2.63292e-06
-2.52218e-06
-1.83107e-06
-2.92481e-06
-7.08991e-07
-2.51239e-06
-7.60539e-07
-2.35781e-06
2.528e-06
-2.47428e-06
1.80604e-06
-2.54741e-06
1.17796e-06
-2.60357e-06
6.18924e-07
-2.65002e-06
7.33947e-08
-2.6796e-06
-5.14118e-07
-2.6846e-06
-1.16867e-06
-2.64674e-06
-1.89409e-06
-2.49352e-06
-2.6754e-06
-2.02738e-06
-3.39095e-06
-1.03785e-06
-3.50192e-06
-1.79839e-06
-1.80786e-06
2.75926e-06
-1.95162e-06
1.9498e-06
-2.03457e-06
1.26092e-06
-2.10114e-06
6.85489e-07
-2.16257e-06
1.34824e-07
-2.19564e-06
-4.81041e-07
-2.17965e-06
-1.18467e-06
-2.11823e-06
-1.95551e-06
-2.02611e-06
-2.76752e-06
-1.81459e-06
-3.60246e-06
-1.14061e-06
-4.17591e-06
-2.939e-06
-1.14666e-06
3.05739e-06
-1.32657e-06
2.12972e-06
-1.40905e-06
1.34339e-06
-1.48358e-06
7.60026e-07
-1.57999e-06
2.31226e-07
-1.65673e-06
-4.04301e-07
-1.66659e-06
-1.1748e-06
-1.59224e-06
-2.02985e-06
-1.46722e-06
-2.89254e-06
-1.33618e-06
-3.73351e-06
-9.8928e-07
-4.52281e-06
-3.92828e-06
-2.97505e-07
3.43638e-06
-5.39516e-07
2.37173e-06
-6.40851e-07
1.44473e-06
-7.20604e-07
8.39779e-07
-8.46247e-07
3.56868e-07
-9.72072e-07
-2.78477e-07
-1.03736e-06
-1.10951e-06
-1.00339e-06
-2.06382e-06
-8.82277e-07
-3.01365e-06
-7.51566e-07
-3.86422e-06
-6.38682e-07
-4.63569e-06
-4.56696e-06
8.18445e-07
3.84989e-06
4.92492e-07
2.69768e-06
3.12041e-07
1.62518e-06
2.07173e-07
9.44647e-07
7.32245e-08
4.90817e-07
-9.68073e-08
-1.08445e-07
-2.23351e-07
-9.82971e-07
-2.56386e-07
-2.03079e-06
-2.05358e-07
-3.06468e-06
-1.31292e-07
-3.93828e-06
-1.5655e-07
-4.61043e-06
-4.72351e-06
2.18738e-06
4.1717e-06
1.8251e-06
3.05996e-06
1.53233e-06
1.91795e-06
1.33433e-06
1.14265e-06
1.16659e-06
6.58554e-07
9.84818e-07
7.33279e-08
8.2676e-07
-8.24913e-07
7.30603e-07
-1.93463e-06
6.73007e-07
-3.00708e-06
5.78849e-07
-3.84413e-06
3.78427e-07
-4.41001e-06
-4.34508e-06
3.60576e-06
4.23835e-06
3.32587e-06
3.33985e-06
2.97982e-06
2.26399e-06
2.67871e-06
1.44376e-06
2.44585e-06
8.91416e-07
2.25556e-06
2.63619e-07
2.10608e-06
-6.75435e-07
1.99285e-06
-1.8214e-06
1.85401e-06
-2.86824e-06
1.55921e-06
-3.54933e-06
1.02567e-06
-3.87647e-06
-3.31941e-06
4.75856e-06
3.94694e-06
4.70491e-06
3.3935e-06
4.43809e-06
2.53082e-06
4.11721e-06
1.76463e-06
3.85238e-06
1.15625e-06
3.66922e-06
4.4678e-07
3.55895e-06
-5.65169e-07
3.48517e-06
-1.74762e-06
3.36595e-06
-2.74903e-06
3.0401e-06
-3.22347e-06
2.12123e-06
-2.95761e-06
-1.19818e-06
6.52187e-08
-6.52188e-08
3.32386e-07
-2.67167e-07
6.65215e-07
-3.32829e-07
9.54414e-07
-2.89199e-07
1.1366e-06
-1.82188e-07
1.18903e-06
-5.2427e-08
1.15857e-06
3.04593e-08
1.08188e-06
7.66891e-08
9.9649e-07
8.53897e-08
8.72243e-07
1.24248e-07
6.00987e-07
2.71255e-07
4.68853e-07
1.32135e-07
1.74275e-07
-2.39494e-07
5.28138e-07
-6.21031e-07
9.01098e-07
-7.05789e-07
1.18233e-06
-5.70434e-07
1.3256e-06
-3.25453e-07
1.34966e-06
-7.64928e-08
1.22825e-06
1.51869e-07
1.02978e-06
2.75161e-07
7.44968e-07
3.70204e-07
2.0694e-07
6.62276e-07
-6.64556e-07
1.14275e-06
1.47935e-06
-1.67505e-06
2.76405e-07
-5.15898e-07
6.85343e-07
-1.02997e-06
1.02903e-06
-1.04948e-06
1.2529e-06
-7.94305e-07
1.33713e-06
-4.09681e-07
1.24053e-06
2.011e-08
1.00866e-06
3.83736e-07
6.75877e-07
6.07946e-07
1.62167e-07
8.83914e-07
-6.97244e-07
1.52169e-06
-1.69521e-06
2.14072e-06
2.30783e-06
-2.52369e-06
2.88955e-07
-8.04853e-07
6.11238e-07
-1.35225e-06
8.30439e-07
-1.26868e-06
9.57073e-07
-9.20939e-07
9.96351e-07
-4.48959e-07
9.26885e-07
8.95762e-08
7.21999e-07
5.88621e-07
3.74662e-07
9.55283e-07
-2.44214e-07
1.50279e-06
-1.14046e-06
2.41793e-06
-1.98305e-06
2.98331e-06
2.86575e-06
-2.54097e-06
2.15544e-07
-1.0204e-06
3.6118e-07
-1.49789e-06
4.50838e-07
-1.35834e-06
5.36368e-07
-1.00647e-06
5.97877e-07
-5.10468e-07
6.00173e-07
8.72793e-08
4.88017e-07
7.00777e-07
2.11444e-07
1.23186e-06
-3.46867e-07
2.0611e-06
-1.10426e-06
3.17532e-06
-1.75722e-06
3.63627e-06
3.26349e-06
-2.15496e-06
6.01025e-08
-1.0805e-06
1.68125e-08
-1.4546e-06
8.4789e-09
-1.35e-06
8.03218e-08
-1.07831e-06
2.0618e-07
-6.36326e-07
3.28336e-07
-3.48767e-08
3.63786e-07
6.65327e-07
2.25699e-07
1.36994e-06
-1.50794e-07
2.43759e-06
-7.05128e-07
3.72966e-06
-1.22278e-06
4.15392e-06
3.62142e-06
-1.58072e-06
-1.32571e-07
-9.47929e-07
-3.4222e-07
-1.24495e-06
-4.4267e-07
-1.24955e-06
-3.88621e-07
-1.13236e-06
-1.89601e-07
-8.35346e-07
8.12506e-08
-3.05729e-07
3.16397e-07
4.3018e-07
3.84732e-07
1.30161e-06
2.59407e-07
2.56292e-06
-5.03175e-08
4.03938e-06
-4.64515e-07
4.56812e-06
4.00816e-06
-8.51248e-07
-3.0942e-07
-6.38509e-07
-6.68673e-07
-8.85698e-07
-8.79946e-07
-1.03828e-06
-8.66648e-07
-1.14566e-06
-6.1585e-07
-1.08614e-06
-1.95319e-07
-7.26259e-07
2.60668e-07
-2.58072e-08
5.90157e-07
9.72119e-07
7.63144e-07
2.38993e-06
7.47739e-07
4.05479e-06
4.85313e-07
4.83055e-06
4.41238e-06
8.10892e-08
-4.27637e-07
-2.10872e-07
-8.95483e-07
-4.17852e-07
-1.19572e-06
-7.38039e-07
-1.24187e-06
-1.09952e-06
-9.96912e-07
-1.3311e-06
-5.01217e-07
-1.22195e-06
1.17936e-07
-6.4496e-07
7.17117e-07
3.72938e-07
1.21786e-06
1.88919e-06
1.55206e-06
3.72059e-06
1.54862e-06
4.83399e-06
4.72766e-06
1.23334e-06
-4.63145e-07
2.52273e-07
-8.39674e-07
-4.13227e-08
-1.08808e-06
-4.89633e-07
-1.15351e-06
-1.03409e-06
-9.85832e-07
-1.49878e-06
-5.84357e-07
-1.62343e-06
2.80977e-08
-1.25741e-06
7.31447e-07
-3.30412e-07
1.50943e-06
1.1112e-06
2.20677e-06
3.02326e-06
2.57281e-06
4.46794e-06
4.79026e-06
2.51021e-06
-8.59232e-08
3.38196e-07
-5.17704e-08
-7.54756e-08
-4.08226e-08
-5.00581e-07
-2.02397e-08
-1.05467e-06
2.47923e-08
-1.54381e-06
1.28564e-07
-1.7272e-06
3.81067e-07
-1.50992e-06
8.83516e-07
-8.32861e-07
1.6595e-06
3.3522e-07
2.59767e-06
2.08508e-06
3.34985e-06
3.71576e-06
4.46923e-06
3.67089e-06
1.36452e-06
-1.02632e-06
2.04167e-06
-7.52622e-07
2.38132e-06
-8.40233e-07
2.49521e-06
-1.16857e-06
2.33994e-06
-1.38853e-06
2.00028e-06
-1.38754e-06
1.67843e-06
-1.18807e-06
1.61705e-06
-7.71484e-07
1.97097e-06
-1.86949e-08
2.8035e-06
1.25255e-06
3.76688e-06
2.75238e-06
4.46315e-06
3.77296e-06
-5.47149e-07
6.79284e-07
-1.25774e-06
7.1059e-07
-1.80691e-06
5.49171e-07
-2.09959e-06
2.9268e-07
-2.12483e-06
2.52383e-08
-1.85791e-06
-2.66918e-07
-1.34561e-06
-5.12303e-07
-6.9191e-07
-6.53697e-07
-6.19812e-08
-6.29929e-07
3.18715e-07
-3.80697e-07
2.7236e-07
4.6355e-08
2.7236e-07
-2.5064e-06
1.51064e-06
-3.05197e-06
1.25615e-06
-3.34971e-06
8.46917e-07
-3.45496e-06
3.97932e-07
-3.34851e-06
-8.12144e-08
-3.11663e-06
-4.98798e-07
-2.69639e-06
-9.32548e-07
-2.06845e-06
-1.28164e-06
-1.28282e-06
-1.41556e-06
-5.0275e-07
-1.16076e-06
-4.11135e-09
-4.52284e-07
2.68249e-07
-3.04259e-06
2.02953e-06
-3.32625e-06
1.53981e-06
-3.49308e-06
1.01375e-06
-3.5903e-06
4.95149e-07
-3.64313e-06
-2.83788e-08
-3.55997e-06
-5.81955e-07
-3.34279e-06
-1.14973e-06
-2.92075e-06
-1.70368e-06
-2.22051e-06
-2.1158e-06
-1.26068e-06
-2.12059e-06
-3.22315e-07
-1.39065e-06
-5.40665e-08
-2.8294e-06
2.31796e-06
-2.97412e-06
1.68453e-06
-3.05862e-06
1.09825e-06
-3.1194e-06
5.55931e-07
-3.16909e-06
2.13146e-08
-3.20372e-06
-5.47326e-07
-3.17897e-06
-1.17448e-06
-3.02862e-06
-1.85404e-06
-2.6268e-06
-2.51762e-06
-1.8276e-06
-2.91979e-06
-7.08245e-07
-2.51001e-06
-7.62312e-07
-2.36243e-06
2.52543e-06
-2.47787e-06
1.79997e-06
-2.54906e-06
1.16944e-06
-2.60296e-06
6.09838e-07
-2.64714e-06
6.54877e-08
-2.67478e-06
-5.19683e-07
-2.67816e-06
-1.1711e-06
-2.63925e-06
-1.89294e-06
-2.4861e-06
-2.67077e-06
-2.02178e-06
-3.38411e-06
-1.03558e-06
-3.49621e-06
-1.79789e-06
-1.81269e-06
2.7574e-06
-1.9556e-06
1.94287e-06
-2.03666e-06
1.2505e-06
-2.10128e-06
6.74454e-07
-2.16098e-06
1.25192e-07
-2.19271e-06
-4.87955e-07
-2.17542e-06
-1.18839e-06
-2.11284e-06
-1.95552e-06
-2.01999e-06
-2.76363e-06
-1.8089e-06
-3.5952e-06
-1.1374e-06
-4.16771e-06
-2.93529e-06
-1.15035e-06
3.05651e-06
-1.32973e-06
2.12226e-06
-1.41078e-06
1.33155e-06
-1.48416e-06
7.47838e-07
-1.57974e-06
2.20765e-07
-1.65564e-06
-4.12052e-07
-1.66451e-06
-1.17952e-06
-1.58915e-06
-2.03088e-06
-1.46336e-06
-2.88943e-06
-1.33207e-06
-3.72649e-06
-9.86406e-07
-4.51337e-06
-3.92169e-06
-2.98789e-07
3.43639e-06
-5.41082e-07
2.36455e-06
-6.42173e-07
1.43264e-06
-7.22544e-07
8.28209e-07
-8.47579e-07
3.458e-07
-9.73592e-07
-2.86039e-07
-1.03795e-06
-1.11516e-06
-1.00261e-06
-2.06622e-06
-8.80427e-07
-3.01161e-06
-7.49268e-07
-3.85765e-06
-6.36834e-07
-4.62581e-06
-4.55853e-06
8.19923e-07
3.8498e-06
4.93436e-07
2.69104e-06
3.11872e-07
1.6142e-06
2.05746e-07
9.34335e-07
6.88707e-08
4.82675e-07
-1.01327e-07
-1.15842e-07
-2.26851e-07
-9.89636e-07
-2.58028e-07
-2.03505e-06
-2.0529e-07
-3.06435e-06
-1.30271e-07
-3.93267e-06
-1.55507e-07
-4.60057e-06
-4.71404e-06
2.18975e-06
4.17026e-06
1.82749e-06
3.05329e-06
1.5331e-06
1.90859e-06
1.33215e-06
1.13529e-06
1.16148e-06
6.53344e-07
9.78792e-07
6.68498e-08
8.21155e-07
-8.31999e-07
7.2701e-07
-1.9409e-06
6.71613e-07
-3.00895e-06
5.78907e-07
-3.83996e-06
3.78975e-07
-4.40064e-06
-4.33506e-06
3.60587e-06
4.23528e-06
3.32641e-06
3.33275e-06
2.97901e-06
2.25599e-06
2.67563e-06
1.43867e-06
2.44015e-06
8.8883e-07
2.2484e-06
2.58592e-07
2.09979e-06
-6.83385e-07
1.98854e-06
-1.82965e-06
1.85177e-06
-2.87219e-06
1.55856e-06
-3.54675e-06
1.02615e-06
-3.86822e-06
-3.30891e-06
4.75495e-06
3.94348e-06
4.70112e-06
3.38658e-06
4.43311e-06
2.524e-06
4.1108e-06
1.76097e-06
3.84546e-06
1.15417e-06
3.66255e-06
4.41509e-07
3.55387e-06
-5.74703e-07
3.48184e-06
-1.75762e-06
3.36398e-06
-2.75433e-06
3.03881e-06
-3.22158e-06
2.12007e-06
-2.94948e-06
-1.18885e-06
5.44577e-06
-1.18194e-06
5.64553e-06
-9.53378e-07
5.64665e-06
-8.41657e-07
5.37929e-06
-9.0131e-07
4.92858e-06
-9.38748e-07
4.35016e-06
-8.10971e-07
3.69255e-06
-5.33486e-07
3.12079e-06
-2.05824e-07
2.86496e-06
2.29289e-07
3.19741e-06
9.12345e-07
3.99597e-06
1.94886e-06
2.91802e-06
4.84991e-06
6.49221e-06
-1.27825e-06
6.49494e-06
-9.56111e-07
6.42667e-06
-7.73389e-07
6.22717e-06
-7.01813e-07
5.94152e-06
-6.53091e-07
5.64366e-06
-5.13113e-07
5.33043e-06
-2.20261e-07
4.92077e-06
2.03845e-07
4.49137e-06
6.58681e-07
4.28824e-06
1.11548e-06
4.551e-06
1.68609e-06
2.30496e-06
5.16406e-06
7.3856e-06
-1.21403e-06
7.28313e-06
-8.53634e-07
7.15329e-06
-6.43554e-07
6.97257e-06
-5.21093e-07
6.74709e-06
-4.27614e-07
6.53018e-06
-2.96202e-07
6.37081e-06
-6.08904e-08
6.23854e-06
3.36117e-07
6.07584e-06
8.21377e-07
5.87837e-06
1.31296e-06
5.80885e-06
1.75561e-06
2.10856e-06
6.00525e-06
8.10533e-06
7.95787e-06
7.82675e-06
7.69163e-06
7.5441e-06
7.4142e-06
7.31822e-06
7.2635e-06
7.26264e-06
7.27153e-06
7.28293e-06
7.36696e-06
5.44507e-06
3.35178e-06
5.68253e-06
3.15604e-06
5.62499e-06
2.58836e-06
5.43096e-06
1.95866e-06
5.24808e-06
1.33913e-06
5.13739e-06
5.57478e-07
5.10134e-06
-5.29123e-07
5.08797e-06
-1.73425e-06
5.01395e-06
-2.67501e-06
4.84101e-06
-3.05054e-06
4.68026e-06
-2.79685e-06
-1.80489e-06
5.28697e-06
5.81183e-06
2.70401e-06
6.26059e-06
2.70728e-06
6.46505e-06
2.38389e-06
6.52314e-06
1.90057e-06
6.54871e-06
1.31356e-06
6.5885e-06
5.17691e-07
6.65826e-06
-5.98882e-07
6.69587e-06
-1.77186e-06
6.63043e-06
-2.60957e-06
6.46747e-06
-2.88758e-06
6.28744e-06
-2.61681e-06
-1.91053e-06
6.39307e-06
6.41204e-06
2.29722e-06
6.85732e-06
2.262e-06
7.2338e-06
2.00741e-06
7.54121e-06
1.59316e-06
7.7974e-06
1.05737e-06
7.98644e-06
3.28654e-07
8.1478e-06
-7.60249e-07
8.19267e-06
-1.81672e-06
8.07901e-06
-2.49591e-06
7.84021e-06
-2.64878e-06
7.57752e-06
-2.35412e-06
-1.7804e-06
7.44738e-06
7.59472e-06
7.94278e-06
8.35817e-06
8.79697e-06
9.18054e-06
9.35319e-06
9.46506e-06
9.43309e-06
9.25044e-06
8.92788e-06
8.56949e-06
8.28945e-06
5.44337e-06
-1.18272e-06
5.64393e-06
-9.53176e-07
5.64548e-06
-8.41791e-07
5.37797e-06
-9.01058e-07
4.92664e-06
-9.372e-07
4.347e-06
-8.07897e-07
3.6883e-06
-5.29368e-07
3.11844e-06
-2.01626e-07
2.86472e-06
2.35022e-07
3.19753e-06
9.19741e-07
3.99439e-06
1.95553e-06
2.92103e-06
4.84631e-06
6.48955e-06
-1.2792e-06
6.49301e-06
-9.5664e-07
6.42522e-06
-7.73996e-07
6.22609e-06
-7.01928e-07
5.94099e-06
-6.52102e-07
5.64363e-06
-5.10538e-07
5.32986e-06
-2.15603e-07
4.91889e-06
2.09352e-07
4.48976e-06
6.64144e-07
4.2884e-06
1.1211e-06
4.55207e-06
1.69186e-06
2.30904e-06
5.16407e-06
7.38337e-06
-1.21519e-06
7.28141e-06
-8.54685e-07
7.15194e-06
-6.44519e-07
6.97148e-06
-5.21472e-07
6.74641e-06
-4.27033e-07
6.53035e-06
-2.94478e-07
6.37156e-06
-5.68171e-08
6.23956e-06
3.41355e-07
6.07648e-06
8.27222e-07
5.87927e-06
1.31831e-06
5.81109e-06
1.76004e-06
2.11155e-06
6.00858e-06
8.10419e-06
7.95703e-06
7.8261e-06
7.69115e-06
7.5439e-06
7.4147e-06
7.31899e-06
7.26507e-06
7.26477e-06
7.27403e-06
7.28626e-06
7.37185e-06
5.43982e-06
3.34997e-06
5.67563e-06
3.15077e-06
5.61668e-06
2.58295e-06
5.4225e-06
1.95515e-06
5.24103e-06
1.33564e-06
5.13258e-06
5.49955e-07
5.09884e-06
-5.4096e-07
5.0868e-06
-1.74559e-06
5.01303e-06
-2.68056e-06
4.83983e-06
-3.04838e-06
4.6792e-06
-2.78886e-06
-1.79424e-06
5.80952e-06
2.70451e-06
6.25577e-06
2.70453e-06
6.45875e-06
2.37997e-06
6.51739e-06
1.89651e-06
6.54517e-06
1.30786e-06
6.58775e-06
5.07373e-07
6.65936e-06
-6.12563e-07
6.69699e-06
-1.78322e-06
6.63042e-06
-2.61398e-06
6.46624e-06
-2.8842e-06
6.28535e-06
-2.60797e-06
-1.89913e-06
6.41506e-06
2.29804e-06
6.8591e-06
2.26048e-06
7.23484e-06
2.00422e-06
7.54283e-06
1.58853e-06
7.80021e-06
1.05048e-06
7.99092e-06
3.16665e-07
8.15215e-06
-7.73795e-07
8.19503e-06
-1.8261e-06
8.07882e-06
-2.49777e-06
7.83815e-06
-2.64353e-06
7.57463e-06
-2.34444e-06
-1.76891e-06
7.60106e-06
7.94995e-06
8.36587e-06
8.80506e-06
9.189e-06
9.3599e-06
9.47008e-06
9.43502e-06
9.24919e-06
8.92459e-06
8.56569e-06
)
;

boundaryField
{
    rotor
    {
        type            calculated;
        value           nonuniform List<scalar> 
96
(
9.58851e-23
-2.62505e-24
-1.90797e-23
1.87088e-23
2.91386e-24
-7.69845e-24
-1.72622e-23
1.03063e-23
-8.64507e-24
-5.27412e-24
4.53298e-25
-3.79962e-23
3.04594e-23
-4.41384e-23
-8.24544e-23
1.2699e-22
1.0708e-22
-1.42364e-22
-8.82879e-23
-1.41806e-22
4.64015e-23
-4.97305e-23
-8.35225e-23
4.04151e-23
3.00276e-23
5.94452e-24
3.45345e-23
-1.67992e-23
4.33971e-24
7.70884e-24
-1.91631e-23
-1.2119e-23
8.86358e-24
-2.60162e-23
5.24662e-23
-2.17424e-23
3.1366e-23
-1.12963e-22
1.33067e-23
4.27326e-23
5.34462e-23
1.91172e-22
-8.9402e-23
1.32042e-22
-4.65025e-23
2.60807e-23
1.17642e-22
-7.54986e-23
0
-4.23516e-22
-8.47033e-22
0
0
-8.47033e-22
8.47033e-22
-8.47033e-22
0
0
8.47033e-22
0
0
-8.47033e-22
0
-8.47033e-22
0
0
0
0
0
0
8.47033e-22
0
0
0
0
0
0
0
-8.47033e-22
0
-8.47033e-22
-1.69407e-21
-8.47033e-22
0
-4.23516e-22
0
0
0
0
0
-8.47033e-22
0
0
8.47033e-22
0
0
)
;
    }
    stator
    {
        type            calculated;
        value           nonuniform 0();
    }
    AMI1
    {
        type            cyclicAMI;
        value           nonuniform List<scalar> 
48
(
-1.02854e-06
-7.06172e-07
-5.12431e-07
-3.85974e-07
-2.80089e-07
-1.66299e-07
3.50867e-08
3.90842e-07
8.22236e-07
1.30407e-06
1.74421e-06
2.02452e-06
2.06946e-06
1.91393e-06
1.59203e-06
1.15436e-06
6.73803e-07
1.56006e-07
-8.7212e-07
-1.78475e-06
-2.31327e-06
-2.32622e-06
-1.99573e-06
-1.50035e-06
-1.02993e-06
-7.07528e-07
-5.13588e-07
-3.8652e-07
-2.7979e-07
-1.6528e-07
3.88945e-08
3.95283e-07
8.27516e-07
1.30905e-06
1.74781e-06
2.02596e-06
2.06883e-06
1.91159e-06
1.58831e-06
1.14934e-06
6.66545e-07
1.45759e-07
-8.83968e-07
-1.79104e-06
-2.31194e-06
-2.31893e-06
-1.98554e-06
-1.48923e-06
)
;
    }
    AMI2
    {
        type            cyclicAMI;
        value           nonuniform 0();
    }
    front
    {
        type            empty;
        value           nonuniform 0();
    }
    back
    {
        type            empty;
        value           nonuniform 0();
    }
    procBoundary2to3
    {
        type            processor;
        value           nonuniform List<scalar> 8(-5.28896e-06 -6.39589e-06 -7.44983e-06 -8.29082e-06 5.28459e-06 6.39025e-06 7.44441e-06 8.286e-06);
    }
}


// ************************************************************************* //
