/*--------------------------------*- C++ -*----------------------------------*\
| =========                 |                                                 |
| \\      /  F ield         | OpenFOAM: The Open Source CFD Toolbox           |
|  \\    /   O peration     | Version:  2.3.1                                 |
|   \\  /    A nd           | Web:      www.OpenFOAM.org                      |
|    \\/     M anipulation  |                                                 |
\*---------------------------------------------------------------------------*/
FoamFile
{
    version     2.0;
    format      ascii;
    class       surfaceScalarField;
    location    "0.12";
    object      phi;
}
// * * * * * * * * * * * * * * * * * * * * * * * * * * * * * * * * * * * * * //

dimensions      [0 3 -1 0 0 0 0];

internalField   nonuniform List<scalar> 
23326
(
-1.27228e-05
0.000114079
-0.000101356
-2.17722e-05
0.000129122
-0.000120073
-2.74404e-05
0.000142959
-0.000137291
-3.11068e-05
0.000157981
-0.000154315
-3.42264e-05
0.000170047
-0.000166928
-3.64373e-05
0.00018178
-0.000179569
-3.79689e-05
0.000191805
-0.000190274
-3.87778e-05
0.000199929
-0.00019912
-3.9218e-05
0.000206001
-0.000205561
-3.93307e-05
0.000210636
-0.000210523
-3.93088e-05
0.000214066
-0.000214088
0.00021653
-3.92163e-05
-0.000216622
-7.05014e-06
0.00012113
-1.39008e-05
0.000135973
-2.00082e-05
0.000149067
-2.45515e-05
0.000162525
-2.82643e-05
0.00017376
-3.10138e-05
0.00018453
-3.29545e-05
0.000193746
-3.42578e-05
0.000201232
-3.51e-05
0.000206843
-3.56163e-05
0.000211152
-3.5902e-05
0.000214351
0.000216683
-3.60553e-05
-5.67971e-06
0.000126809
-1.10349e-05
0.000141328
-1.60998e-05
0.000154131
-2.02619e-05
0.000166687
-2.38479e-05
0.000177346
-2.66606e-05
0.000187342
-2.87656e-05
0.000195851
-3.02818e-05
0.000202748
-3.14061e-05
0.000207967
-3.22006e-05
0.000211946
-3.27376e-05
0.000214888
0.000217116
-3.31712e-05
-4.77822e-06
0.000131588
-9.39282e-06
0.000145943
-1.3724e-05
0.000158463
-1.73867e-05
0.00017035
-2.06283e-05
0.000180588
-2.32746e-05
0.000189989
-2.53899e-05
0.000197966
-2.69898e-05
0.000204348
-2.82209e-05
0.000209198
-2.91866e-05
0.000212912
-2.99234e-05
0.000215625
0.000217742
-3.0549e-05
-3.90381e-06
0.000135491
-7.97796e-06
0.000150017
-1.18247e-05
0.000162309
-1.51402e-05
0.000173665
-1.8077e-05
0.000183525
-2.05724e-05
0.000192484
-2.25829e-05
0.000199977
-2.41841e-05
0.000205949
-2.55003e-05
0.000210514
-2.6507e-05
0.000213918
-2.73839e-05
0.000216502
0.000218454
-2.80959e-05
-3.24237e-06
0.000138734
-6.83532e-06
0.00015361
-1.02667e-05
0.000165741
-1.32835e-05
0.000176682
-1.60166e-05
0.000186258
-1.82992e-05
0.000194767
-2.02162e-05
0.000201894
-2.18123e-05
0.000207545
-2.30916e-05
0.000211794
-2.41745e-05
0.000215001
-2.50896e-05
0.000217417
0.00021925
-2.5886e-05
-2.78385e-06
0.000141518
-5.97168e-06
0.000156798
-9.0414e-06
0.000168811
-1.18022e-05
0.000179443
-1.42661e-05
0.000188722
-1.64149e-05
0.000196916
-1.82284e-05
0.000203708
-1.9734e-05
0.000209051
-2.10262e-05
0.000213086
-2.21311e-05
0.000216106
-2.31025e-05
0.000218388
0.000220121
-2.39733e-05
-2.44193e-06
0.00014396
-5.30354e-06
0.00015966
-8.06406e-06
0.000171571
-1.0544e-05
0.000181923
-1.28223e-05
0.000191
-1.48154e-05
0.000198909
-1.65275e-05
0.00020542
-1.79625e-05
0.000210486
-1.92331e-05
0.000214356
-2.03418e-05
0.000217215
-2.13089e-05
0.000219355
0.000220986
-2.21739e-05
-2.17014e-06
0.00014613
-4.76495e-06
0.000162254
-7.26796e-06
0.000174074
-9.55737e-06
0.000184212
-1.16337e-05
0.000193076
-1.34563e-05
0.000200731
-1.5062e-05
0.000207025
-1.64666e-05
0.000211891
-1.76713e-05
0.000215561
-1.87445e-05
0.000218288
-1.97086e-05
0.00022032
0.000221915
-2.06372e-05
-1.9411e-06
0.000148071
-4.30216e-06
0.000164615
-6.59181e-06
0.000176364
-8.68855e-06
0.000186309
-1.06235e-05
0.000195011
-1.23205e-05
0.000202428
-1.3805e-05
0.00020851
-1.51098e-05
0.000213195
-1.62969e-05
0.000216748
-1.73476e-05
0.000219339
-1.8306e-05
0.000221278
0.000222787
-1.91782e-05
-1.75098e-06
0.000149822
-3.92038e-06
0.000166785
-6.01955e-06
0.000178463
-7.95578e-06
0.000188245
-9.72961e-06
0.000196785
-1.1307e-05
0.000204006
-1.27055e-05
0.000209908
-1.3945e-05
0.000214435
-1.50649e-05
0.000217868
-1.60836e-05
0.000220358
-1.70562e-05
0.000222251
0.000223636
-1.79049e-05
-1.58352e-06
0.000151405
-3.57627e-06
0.000168778
-5.51095e-06
0.000180398
-7.33085e-06
0.000190065
-8.95257e-06
0.000198407
-1.04293e-05
0.000205482
-1.17417e-05
0.000211221
-1.29183e-05
0.000215612
-1.39873e-05
0.000218937
-1.49729e-05
0.000221343
-1.58526e-05
0.00022313
0.000224488
-1.67048e-05
-1.44269e-06
0.000152848
-3.27958e-06
0.000170614
-5.08054e-06
0.000182199
-6.75516e-06
0.00019174
-8.293e-06
0.000199945
-9.67295e-06
0.000206862
-1.08846e-05
0.000212432
-1.20049e-05
0.000216732
-1.30035e-05
0.000219936
-1.39417e-05
0.000222281
-1.48058e-05
0.000223994
0.000225228
-1.5546e-05
-1.32136e-06
0.000154169
-3.04366e-06
0.000172337
-4.70471e-06
0.00018386
-6.25094e-06
0.000193286
-7.68622e-06
0.00020138
-8.95745e-06
0.000208134
-1.01295e-05
0.000213605
-1.11672e-05
0.000217769
-1.21494e-05
0.000220918
-1.30761e-05
0.000223208
-1.39382e-05
0.000224857
0.000226109
-1.48189e-05
-1.20902e-06
0.000155378
-2.79644e-06
0.000173924
-4.37146e-06
0.000185435
-5.82026e-06
0.000194735
-7.1434e-06
0.000202703
-8.36414e-06
0.000209354
-9.4452e-06
0.000214686
-1.0462e-05
0.000218786
-1.135e-05
0.000221806
-1.22032e-05
0.000224061
-1.30229e-05
0.000225676
0.000226838
-1.37517e-05
-1.1114e-06
0.00015649
-2.59688e-06
0.00017541
-4.05647e-06
0.000186894
-5.41048e-06
0.000196089
-6.65694e-06
0.000203949
-7.78356e-06
0.000210481
-8.80955e-06
0.000215712
-9.74479e-06
0.000219721
-1.06487e-05
0.00022271
-1.14978e-05
0.00022491
-1.22756e-05
0.000226454
0.000227557
-1.29944e-05
-1.02444e-06
0.000157514
-2.39794e-06
0.000176783
-3.76372e-06
0.00018826
-5.04456e-06
0.000197369
-6.21524e-06
0.00020512
-7.27916e-06
0.000211545
-8.24881e-06
0.000216681
-9.17273e-06
0.000220645
-1.00066e-05
0.000223544
-1.07752e-05
0.000225679
-1.1527e-05
0.000227206
0.000228272
-1.22421e-05
-9.33829e-07
0.000158448
-2.23154e-06
0.000178081
-3.52519e-06
0.000189554
-4.73116e-06
0.000198575
-5.83672e-06
0.000206226
-6.84706e-06
0.000212555
-7.76473e-06
0.000217599
-8.56468e-06
0.000221445
-9.36885e-06
0.000224348
-1.01293e-05
0.000226439
-1.08549e-05
0.000227932
0.000228965
-1.15487e-05
-8.65596e-07
0.000159314
-2.08545e-06
0.000179301
-3.28136e-06
0.000190749
-4.42082e-06
0.000199715
-5.44111e-06
0.000207246
-6.39459e-06
0.000213509
-7.24645e-06
0.000218451
-8.08571e-06
0.000222285
-8.8249e-06
0.000225087
-9.55353e-06
0.000227168
-1.02261e-05
0.000228604
0.000229636
-1.08966e-05
-8.03498e-07
0.000160117
-1.92981e-06
0.000180427
-3.08224e-06
0.000191902
-4.1373e-06
0.00020077
-5.13029e-06
0.000208239
-6.00984e-06
0.000214388
-6.84219e-06
0.000219283
-7.59118e-06
0.000223034
-8.32354e-06
0.000225819
-8.96642e-06
0.000227811
-9.63066e-06
0.000229268
0.000230241
-1.02352e-05
-7.47008e-07
0.000160864
-1.80664e-06
0.000181487
-2.8753e-06
0.000192971
-3.87725e-06
0.000201772
-4.78815e-06
0.00020915
-5.64787e-06
0.000215248
-6.4144e-06
0.00022005
-7.13143e-06
0.000223751
-7.80578e-06
0.000226494
-8.47488e-06
0.00022848
-9.0849e-06
0.000229878
0.000230845
-9.6897e-06
-6.7004e-07
0.000161534
-1.67016e-06
0.000182487
-2.68548e-06
0.000193986
-3.65417e-06
0.000202741
-4.52164e-06
0.000210017
-5.29143e-06
0.000216018
-6.02159e-06
0.00022078
-6.7041e-06
0.000224433
-7.37887e-06
0.000227169
-8.00071e-06
0.000229102
-8.60593e-06
0.000230484
0.000231418
-9.17857e-06
-6.28548e-07
0.000162163
-1.5689e-06
0.000183427
-2.52877e-06
0.000194946
-3.40352e-06
0.000203615
-4.22957e-06
0.000210843
-4.98048e-06
0.000216769
-5.67971e-06
0.000221479
-6.32973e-06
0.000225083
-6.9507e-06
0.00022779
-7.54935e-06
0.0002297
-8.12013e-06
0.000231054
0.000231973
-8.67492e-06
-5.67563e-07
0.00016273
-1.45232e-06
0.000184312
-2.36203e-06
0.000195855
-3.19154e-06
0.000204445
-3.97394e-06
0.000211626
-4.69162e-06
0.000217486
-5.35589e-06
0.000222143
-5.98022e-06
0.000225707
-6.5507e-06
0.00022836
-7.0933e-06
0.000230243
-7.65305e-06
0.000231614
0.000232515
-8.19533e-06
-5.22945e-07
0.000163253
-1.33943e-06
0.000185128
-2.20368e-06
0.00019672
-3.01619e-06
0.000205257
-3.73557e-06
0.000212345
-4.41925e-06
0.00021817
-5.02654e-06
0.000222751
-5.59925e-06
0.00022628
-6.1671e-06
0.000228928
-6.72048e-06
0.000230796
-7.22509e-06
0.000232119
0.000233043
-7.75251e-06
-4.91102e-07
0.000163744
-1.25785e-06
0.000185895
-2.05559e-06
0.000197517
-2.82878e-06
0.00020603
-3.51249e-06
0.000213029
-4.13787e-06
0.000218795
-4.71632e-06
0.000223329
-5.28505e-06
0.000226849
-5.80754e-06
0.00022945
-6.30778e-06
0.000231297
-6.83076e-06
0.000232642
0.000233526
-7.31373e-06
-4.33963e-07
0.000164178
-1.15654e-06
0.000186617
-1.91287e-06
0.000198274
-2.62356e-06
0.000206741
-3.29865e-06
0.000213704
-3.89362e-06
0.00021939
-4.44493e-06
0.00022388
-4.96428e-06
0.000227368
-5.4607e-06
0.000229947
-5.96727e-06
0.000231803
-6.40253e-06
0.000233077
0.000233981
-6.85735e-06
-3.83887e-07
0.000164562
-1.08739e-06
0.000187321
-1.80303e-06
0.000198989
-2.4565e-06
0.000207395
-3.07161e-06
0.000214319
-3.63991e-06
0.000219959
-4.18959e-06
0.00022443
-4.65829e-06
0.000227837
-5.13346e-06
0.000230422
-5.59434e-06
0.000232264
-6.07159e-06
0.000233554
0.000234386
-6.47727e-06
-3.57145e-07
0.000164919
-9.935e-07
0.000187957
-1.6526e-06
0.000199648
-2.31774e-06
0.00020806
-2.88199e-06
0.000214883
-3.41856e-06
0.000220495
-3.89253e-06
0.000224904
-4.39591e-06
0.00022834
-4.82141e-06
0.000230847
-5.26714e-06
0.00023271
-5.67446e-06
0.000233962
0.000234849
-6.13751e-06
-3.02141e-07
0.000165221
-8.85527e-07
0.000188541
-1.55334e-06
0.000200316
-2.13945e-06
0.000208646
-2.69831e-06
0.000215442
-3.18487e-06
0.000220982
-3.66234e-06
0.000225382
-4.08525e-06
0.000228763
-4.52302e-06
0.000231285
-4.91696e-06
0.000233104
-5.35979e-06
0.000234404
0.000235231
-5.74164e-06
-2.79934e-07
0.000165501
-8.46344e-07
0.000189107
-1.41165e-06
0.000200882
-1.99251e-06
0.000209227
-2.49615e-06
0.000215946
-2.98428e-06
0.00022147
-3.41428e-06
0.000225812
-3.84604e-06
0.000229195
-4.23265e-06
0.000231672
-4.63915e-06
0.00023351
-4.98545e-06
0.000234751
0.000235624
-5.37839e-06
-2.46282e-07
0.000165748
-7.46762e-07
0.000189608
-1.32539e-06
0.00020146
-1.82628e-06
0.000209728
-2.33125e-06
0.000216451
-2.76884e-06
0.000221908
-3.19993e-06
0.000226243
-3.55683e-06
0.000229552
-3.95664e-06
0.000232072
-4.31696e-06
0.000233871
-4.69414e-06
0.000235128
0.000235938
-5.00751e-06
-2.17904e-07
0.000165965
-6.68794e-07
0.000190058
-1.19269e-06
0.000201984
-1.71611e-06
0.000210251
-2.17016e-06
0.000216905
-2.5849e-06
0.000222322
-2.94287e-06
0.000226601
-3.33574e-06
0.000229945
-3.68683e-06
0.000232423
-4.03276e-06
0.000234217
-4.37536e-06
0.00023547
0.000236277
-4.71443e-06
-1.58411e-07
0.000166124
-6.18791e-07
0.000190519
-1.11375e-06
0.000202479
-1.56035e-06
0.000210698
-1.98978e-06
0.000217334
-2.38203e-06
0.000222715
-2.74694e-06
0.000226965
-3.09204e-06
0.00023029
-3.42783e-06
0.000232759
-3.72913e-06
0.000234518
-4.05356e-06
0.000235795
0.000236625
-4.4017e-06
-1.6796e-07
0.000166292
-5.48541e-07
0.000190899
-9.8924e-07
0.00020292
-1.46001e-06
0.000211168
-1.83851e-06
0.000217713
-2.18258e-06
0.000223059
-2.5275e-06
0.00022731
-2.85722e-06
0.00023062
-3.14557e-06
0.000233047
-3.45838e-06
0.000234831
-3.77055e-06
0.000236107
0.000236909
-4.05464e-06
-1.0463e-07
0.000166396
-4.80486e-07
0.000191275
-9.16738e-07
0.000203356
-1.28606e-06
0.000211538
-1.66893e-06
0.000218096
-2.01856e-06
0.000223408
-2.34244e-06
0.000227634
-2.62413e-06
0.000230901
-2.89561e-06
0.000233318
-3.18788e-06
0.000235123
-3.44303e-06
0.000236362
0.000237196
-3.72995e-06
-8.82585e-08
0.000166485
-4.10491e-07
0.000191598
-7.98237e-07
0.000203744
-1.19301e-06
0.000211933
-1.52812e-06
0.000218431
-1.83075e-06
0.000223711
-2.10978e-06
0.000227913
-2.372e-06
0.000231164
-2.65593e-06
0.000233602
-2.93146e-06
0.000235398
-3.17565e-06
0.000236606
0.000237424
-3.40358e-06
-5.91064e-08
0.000166544
-3.49293e-07
0.000191888
-7.06984e-07
0.000204101
-1.05357e-06
0.000212279
-1.36698e-06
0.000218744
-1.67555e-06
0.000224019
-1.93833e-06
0.000228176
-2.1861e-06
0.000231411
-2.42491e-06
0.000233841
-2.6619e-06
0.000235636
-2.89716e-06
0.000236842
0.000237655
-3.12851e-06
-2.17949e-08
0.000166566
-2.85634e-07
0.000192152
-6.19609e-07
0.000204435
-9.43164e-07
0.000212603
-1.23598e-06
0.000219037
-1.47321e-06
0.000224257
-1.74346e-06
0.000228446
-1.97583e-06
0.000231644
-2.20279e-06
0.000234068
-2.40245e-06
0.000235835
-2.64495e-06
0.000237084
0.00023793
-2.91914e-06
4.03576e-09
0.000166562
-2.28584e-07
0.000192384
-5.36086e-07
0.000204743
-8.35568e-07
0.000212902
-1.10816e-06
0.00021931
-1.35392e-06
0.000224502
-1.55334e-06
0.000228646
-1.74108e-06
0.000231831
-1.94939e-06
0.000234276
-2.152e-06
0.000236038
-2.3359e-06
0.000237268
0.000238091
-2.49701e-06
1.31849e-08
0.000166548
-1.72517e-07
0.00019257
-4.52927e-07
0.000205023
-7.04986e-07
0.000213154
-9.57059e-07
0.000219562
-1.15613e-06
0.000224702
-1.36554e-06
0.000228855
-1.56487e-06
0.000232031
-1.73195e-06
0.000234443
-1.92866e-06
0.000236235
-2.10579e-06
0.000237445
0.000238303
-2.31784e-06
4.46539e-08
0.000166504
-1.10635e-07
0.000192725
-3.42774e-07
0.000205255
-6.01147e-07
0.000213413
-8.07092e-07
0.000219768
-1.01736e-06
0.000224912
-1.18211e-06
0.00022902
-1.33749e-06
0.000232186
-1.51874e-06
0.000234625
-1.6689e-06
0.000236385
-1.84705e-06
0.000237623
0.000238453
-1.99722e-06
6.78019e-08
0.000166436
-7.94742e-08
0.000192872
-2.90141e-07
0.000205466
-4.99561e-07
0.000213622
-6.87661e-07
0.000219956
-8.52075e-07
0.000225076
-1.00162e-06
0.000229169
-1.1706e-06
0.000232355
-1.30754e-06
0.000234762
-1.44521e-06
0.000236522
-1.58647e-06
0.000237765
0.000238598
-1.73151e-06
1.00716e-07
0.000166335
4.53571e-10
0.000192973
-1.84076e-07
0.000205651
-3.72587e-07
0.000213811
-5.42696e-07
0.000220126
-6.90268e-07
0.000225224
-8.23858e-07
0.000229303
-9.49741e-07
0.000232481
-1.07299e-06
0.000234885
-1.19628e-06
0.000236646
-1.31801e-06
0.000237886
0.000238716
-1.43619e-06
1.24121e-07
0.000166211
5.30178e-08
0.000193044
-1.01605e-07
0.000205805
-2.73091e-07
0.000213982
-4.26698e-07
0.000220279
-5.32056e-07
0.000225329
-6.49591e-07
0.000229421
-7.60733e-07
0.000232592
-8.70251e-07
0.000234994
-9.81265e-07
0.000236757
-1.09908e-06
0.000238004
0.00023885
-1.23244e-06
1.29186e-07
0.000166082
1.01978e-07
0.000193071
-3.12407e-08
0.000205938
-1.54226e-07
0.000214105
-2.88467e-07
0.000220414
-4.03162e-07
0.000225444
-5.05634e-07
0.000229523
-5.74044e-07
0.000232661
-6.68469e-07
0.000235089
-7.35459e-07
0.000236824
-8.26603e-07
0.000238095
0.000238901
-8.78104e-07
1.76159e-07
0.000165906
1.49325e-07
0.000193098
6.53964e-08
0.000206022
-6.54755e-08
0.000214236
-1.53472e-07
0.000220502
-2.49892e-07
0.00022554
-3.09004e-07
0.000229582
-3.90656e-07
0.000232742
-4.4391e-07
0.000235142
-5.28477e-07
0.000236908
-5.93488e-07
0.00023816
0.000239012
-7.03884e-07
1.83876e-07
0.000165722
2.00848e-07
0.000193081
1.13472e-07
0.00020611
2.38054e-08
0.000214326
-4.21349e-08
0.000220568
-9.76404e-08
0.000225596
-1.70074e-07
0.000229655
-2.09571e-07
0.000232782
-2.49099e-07
0.000235182
-2.90528e-07
0.00023695
-3.6055e-07
0.00023823
0.000239045
-3.9368e-07
2.07593e-07
0.000165514
2.23133e-07
0.000193065
2.0449e-07
0.000206128
1.43022e-07
0.000214387
6.3799e-08
0.000220647
2.39093e-08
0.000225636
2.24538e-08
0.000229656
-3.09526e-08
0.000232835
-5.69442e-08
0.000235208
-8.65423e-08
0.000236979
-1.24306e-07
0.000238268
0.0002391
-1.79519e-07
2.31968e-07
0.000165282
2.98158e-07
0.000192999
2.7483e-07
0.000206152
2.29866e-07
0.000214432
2.20789e-07
0.000220656
1.70972e-07
0.000225685
1.56803e-07
0.00022967
1.73473e-07
0.000232818
1.61481e-07
0.00023522
1.18599e-07
0.000237022
1.33413e-07
0.000238253
0.000239103
1.309e-07
2.37907e-07
0.000165045
3.4617e-07
0.000192891
3.42985e-07
0.000206155
3.16944e-07
0.000214458
2.97517e-07
0.000220675
3.16608e-07
0.000225666
3.16603e-07
0.00022967
3.18796e-07
0.000232816
3.47233e-07
0.000235191
3.70937e-07
0.000236998
3.58616e-07
0.000238266
0.000239119
3.4258e-07
2.82568e-07
0.000164762
3.92814e-07
0.000192781
4.35354e-07
0.000206112
4.29103e-07
0.000214464
4.52825e-07
0.000220652
4.60755e-07
0.000225658
5.0284e-07
0.000229628
5.18165e-07
0.000232801
5.29439e-07
0.00023518
5.33159e-07
0.000236995
5.5115e-07
0.000238248
0.000239158
5.11705e-07
2.84791e-07
0.000164477
4.39203e-07
0.000192626
4.78009e-07
0.000206074
5.1488e-07
0.000214427
5.55057e-07
0.000220611
6.05191e-07
0.000225608
6.337e-07
0.0002296
6.91047e-07
0.000232744
7.17156e-07
0.000235154
7.66948e-07
0.000236945
8.14258e-07
0.0002382
0.000239107
8.65439e-07
3.12847e-07
0.000164164
4.87372e-07
0.000192452
5.70241e-07
0.000205991
6.26063e-07
0.000214372
6.55814e-07
0.000220582
7.21236e-07
0.000225543
7.92262e-07
0.000229529
8.64097e-07
0.000232672
9.32159e-07
0.000235086
9.95249e-07
0.000236882
1.02196e-06
0.000238174
0.000239068
1.06075e-06
3.35714e-07
0.000163829
5.32845e-07
0.000192255
6.37767e-07
0.000205886
7.10853e-07
0.000214298
7.83836e-07
0.000220509
8.64766e-07
0.000225462
9.50285e-07
0.000229443
1.03509e-06
0.000232587
1.11712e-06
0.000235004
1.1918e-06
0.000236807
1.26194e-06
0.000238104
0.000238995
1.33568e-06
3.60484e-07
0.000163468
5.79889e-07
0.000192035
7.04011e-07
0.000205762
7.95706e-07
0.000214207
9.11578e-07
0.000220393
1.0068e-06
0.000225367
1.1064e-06
0.000229343
1.20499e-06
0.000232488
1.32595e-06
0.000234883
1.41133e-06
0.000236722
1.48553e-06
0.000238029
0.000238937
1.54313e-06
3.62571e-07
0.000163106
6.25059e-07
0.000191773
7.70404e-07
0.000205616
9.06308e-07
0.000214071
1.01131e-06
0.000220288
1.122e-06
0.000225256
1.26324e-06
0.000229202
1.40317e-06
0.000232348
1.4813e-06
0.000234805
1.60809e-06
0.000236595
1.70124e-06
0.000237936
0.000238806
1.83208e-06
4.08944e-07
0.000162697
6.70786e-07
0.000191511
8.61773e-07
0.000205425
9.90683e-07
0.000213942
1.11296e-06
0.000220165
1.29313e-06
0.000225076
1.42135e-06
0.000229074
1.5459e-06
0.000232224
1.69275e-06
0.000234658
1.80033e-06
0.000236488
1.94201e-06
0.000237795
0.000238772
1.97623e-06
4.11996e-07
0.000162285
7.1881e-07
0.000191204
9.29751e-07
0.000205214
1.10143e-06
0.00021377
1.26699e-06
0.00022
1.38173e-06
0.000224961
1.55091e-06
0.000228905
1.72023e-06
0.000232055
1.88184e-06
0.000234496
2.03915e-06
0.00023633
2.17038e-06
0.000237663
0.0002386
2.34204e-06
4.36786e-07
0.000161848
7.41648e-07
0.000190899
9.71606e-07
0.000204984
1.16153e-06
0.00021358
1.3428e-06
0.000219819
1.55353e-06
0.00022475
1.73895e-06
0.000228719
1.92088e-06
0.000231873
2.09942e-06
0.000234318
2.26663e-06
0.000236163
2.42175e-06
0.000237508
0.000238459
2.56361e-06
4.47847e-07
0.0001614
8.14058e-07
0.000190533
1.06494e-06
0.000204734
1.27333e-06
0.000213372
1.47265e-06
0.000219619
1.67007e-06
0.000224553
1.86921e-06
0.00022852
2.06524e-06
0.000231677
2.28132e-06
0.000234102
2.46172e-06
0.000235983
2.63311e-06
0.000237337
0.000238285
2.80643e-06
4.89696e-07
0.00016091
8.60734e-07
0.000190162
1.13339e-06
0.000204461
1.38598e-06
0.000213119
1.59906e-06
0.000219406
1.8129e-06
0.000224339
2.05349e-06
0.00022828
2.26243e-06
0.000231468
2.43521e-06
0.000233929
2.6532e-06
0.000235765
2.82559e-06
0.000237165
0.000238112
2.99927e-06
4.9458e-07
0.000160416
9.08196e-07
0.000189748
1.19954e-06
0.00020417
1.44505e-06
0.000212874
1.70182e-06
0.000219149
1.95739e-06
0.000224084
2.18293e-06
0.000228054
2.43289e-06
0.000231218
2.67478e-06
0.000233687
2.85066e-06
0.000235589
3.07688e-06
0.000236938
0.000237907
3.28153e-06
5.20174e-07
0.000159896
9.30943e-07
0.000189338
1.29504e-06
0.000203806
1.55777e-06
0.000212611
1.83155e-06
0.000218876
2.0738e-06
0.000223841
2.3441e-06
0.000227784
2.57978e-06
0.000230982
2.83228e-06
0.000233434
3.07401e-06
0.000235347
3.29712e-06
0.000236715
0.000237743
3.46145e-06
5.28657e-07
0.000159367
1.00415e-06
0.000188862
1.33823e-06
0.000203471
1.64561e-06
0.000212304
1.93588e-06
0.000218585
2.2217e-06
0.000223556
2.50501e-06
0.000227501
2.78047e-06
0.000230707
3.02241e-06
0.000233192
3.30584e-06
0.000235064
3.52788e-06
0.000236493
0.000237468
3.80273e-06
5.56798e-07
0.00015881
1.03154e-06
0.000188387
1.40812e-06
0.000203095
1.76178e-06
0.00021195
2.04074e-06
0.000218306
2.37079e-06
0.000223226
2.63947e-06
0.000227232
2.92481e-06
0.000230421
3.24833e-06
0.000232869
3.48524e-06
0.000234827
3.75898e-06
0.000236219
0.000237281
3.94604e-06
5.91565e-07
0.000158219
1.08242e-06
0.000187897
1.50054e-06
0.000202677
1.83285e-06
0.000211618
2.17663e-06
0.000217963
2.48562e-06
0.000222917
2.81288e-06
0.000226905
3.14591e-06
0.000230088
3.41975e-06
0.000232595
3.72343e-06
0.000234523
3.99867e-06
0.000235944
0.000236974
4.30567e-06
5.98373e-07
0.00015762
1.11891e-06
0.000187376
1.55904e-06
0.000202237
1.92638e-06
0.00021125
2.2869e-06
0.000217602
2.61734e-06
0.000222586
2.97034e-06
0.000226552
3.28771e-06
0.000229771
3.62214e-06
0.000232261
3.9439e-06
0.000234201
4.21715e-06
0.000235671
0.000236713
4.47854e-06
6.20604e-07
0.000157
1.17796e-06
0.000186819
1.62185e-06
0.000201793
2.05065e-06
0.000210822
2.41107e-06
0.000217242
2.78023e-06
0.000222217
3.12518e-06
0.000226207
3.50759e-06
0.000229388
3.80044e-06
0.000231968
4.13747e-06
0.000233864
4.46449e-06
0.000235344
0.000236379
4.79819e-06
6.41604e-07
0.000156358
1.22321e-06
0.000186237
1.70622e-06
0.00020131
2.1092e-06
0.000210419
2.50575e-06
0.000216845
2.92146e-06
0.000221801
3.27605e-06
0.000225852
3.65026e-06
0.000229014
4.01221e-06
0.000231606
4.36134e-06
0.000233515
4.68638e-06
0.000235019
0.000236109
4.95661e-06
6.80016e-07
0.000155678
1.26126e-06
0.000185656
1.79294e-06
0.000200778
2.2373e-06
0.000209974
2.62957e-06
0.000216453
3.03493e-06
0.000221396
3.45673e-06
0.00022543
3.84548e-06
0.000228625
4.22176e-06
0.00023123
4.58625e-06
0.000233151
4.94102e-06
0.000234664
0.000235748
5.30245e-06
6.59272e-07
0.000155019
1.32562e-06
0.000184989
1.85377e-06
0.00020025
2.31866e-06
0.000209509
2.77825e-06
0.000215993
3.17319e-06
0.000221001
3.61254e-06
0.000224991
4.0154e-06
0.000228223
4.43152e-06
0.000230814
4.78128e-06
0.000232801
5.16777e-06
0.000234278
0.000235414
5.50122e-06
7.3021e-07
0.000154289
1.33675e-06
0.000184383
1.88905e-06
0.000199698
2.39876e-06
0.000209
2.87701e-06
0.000215515
3.34045e-06
0.000220538
3.76776e-06
0.000224564
4.18408e-06
0.000227806
4.61454e-06
0.000230383
5.02779e-06
0.000232388
5.39493e-06
0.000233911
0.000235072
5.73735e-06
7.17216e-07
0.000153571
1.45347e-06
0.000183647
2.02802e-06
0.000199123
2.55911e-06
0.000208469
3.03003e-06
0.000215044
3.51018e-06
0.000220057
3.95285e-06
0.000224121
4.41123e-06
0.000227348
4.82884e-06
0.000229965
5.25936e-06
0.000231957
5.64967e-06
0.00023352
0.000234629
6.09223e-06
7.3927e-07
0.000152832
1.44682e-06
0.000182939
2.06303e-06
0.000198507
2.58736e-06
0.000207944
3.12996e-06
0.000214502
3.59968e-06
0.000219588
4.11083e-06
0.00022361
4.5565e-06
0.000226902
5.01509e-06
0.000229507
5.42892e-06
0.000231543
5.8468e-06
0.000233102
0.000234255
6.22099e-06
7.97777e-07
0.000152034
1.51482e-06
0.000182222
2.15599e-06
0.000197866
2.7261e-06
0.000207374
3.22925e-06
0.000213998
3.77252e-06
0.000219044
4.246e-06
0.000223136
4.73358e-06
0.000226415
5.2343e-06
0.000229006
5.6925e-06
0.000231085
6.16955e-06
0.000232625
0.000233834
6.59022e-06
7.95767e-07
0.000151238
1.55224e-06
0.000181466
2.21615e-06
0.000197202
2.83853e-06
0.000206752
3.38995e-06
0.000213447
3.91592e-06
0.000218518
4.46415e-06
0.000222588
4.96711e-06
0.000225912
5.42722e-06
0.000228546
5.89587e-06
0.000230617
6.34007e-06
0.000232181
0.000233408
6.76689e-06
7.89461e-07
0.000150449
1.59672e-06
0.000180658
2.30678e-06
0.000196492
2.92079e-06
0.000206138
3.51692e-06
0.000212851
4.07135e-06
0.000217964
4.59847e-06
0.000222061
5.11684e-06
0.000225393
5.65226e-06
0.000228011
6.16466e-06
0.000230104
6.63592e-06
0.00023171
0.000232934
7.10942e-06
8.52776e-07
0.000149596
1.66229e-06
0.000179849
2.37468e-06
0.000195779
3.03519e-06
0.000205477
3.62534e-06
0.000212261
4.21776e-06
0.000217372
4.76719e-06
0.000221512
5.36207e-06
0.000224799
5.84685e-06
0.000227526
6.37899e-06
0.000229572
6.87855e-06
0.00023121
0.000232513
7.29942e-06
8.63635e-07
0.000148733
1.70181e-06
0.000179011
2.46914e-06
0.000195012
3.11779e-06
0.000204829
3.76191e-06
0.000211617
4.37244e-06
0.000216761
4.93871e-06
0.000220945
5.51721e-06
0.00022422
6.11368e-06
0.000226929
6.62525e-06
0.000229061
7.13326e-06
0.000230702
0.000231946
7.70041e-06
8.80093e-07
0.000147853
1.78205e-06
0.000178109
2.5314e-06
0.000194263
3.24468e-06
0.000204115
3.90065e-06
0.000210961
4.5294e-06
0.000216132
5.13881e-06
0.000220336
5.70677e-06
0.000223652
6.31162e-06
0.000226325
6.87891e-06
0.000228493
7.41836e-06
0.000230163
0.000231481
7.88396e-06
9.10764e-07
0.000146942
1.79735e-06
0.000177222
2.63724e-06
0.000193423
3.36441e-06
0.000203388
4.06604e-06
0.000210259
4.65103e-06
0.000215547
5.31391e-06
0.000219673
5.92324e-06
0.000223043
6.51364e-06
0.000225734
7.08178e-06
0.000227925
7.62244e-06
0.000229622
0.000230909
8.19449e-06
9.29084e-07
0.000146013
1.84402e-06
0.000176307
2.69886e-06
0.000192568
3.4487e-06
0.000202638
4.14602e-06
0.000209562
4.84813e-06
0.000214845
5.49232e-06
0.000219029
6.14414e-06
0.000222391
6.72282e-06
0.000225156
7.33328e-06
0.000227315
7.89147e-06
0.000229064
0.00023039
8.40993e-06
9.54571e-07
0.000145058
1.91437e-06
0.000175347
2.7728e-06
0.00019171
3.57048e-06
0.000201841
4.30259e-06
0.00020883
5.01308e-06
0.000214135
5.70164e-06
0.00021834
6.34521e-06
0.000221747
6.99634e-06
0.000224504
7.57483e-06
0.000226736
8.23171e-06
0.000228407
0.000229802
8.82029e-06
9.82617e-07
0.000144076
1.96516e-06
0.000174365
2.84882e-06
0.000190826
3.70874e-06
0.000200981
4.43593e-06
0.000208102
5.14122e-06
0.000213429
5.88795e-06
0.000217594
6.54876e-06
0.000221087
7.18923e-06
0.000223864
7.86062e-06
0.000226065
8.44915e-06
0.000227819
0.000229268
8.98238e-06
1.0148e-06
0.000143061
2.02299e-06
0.000173357
2.98779e-06
0.000189861
3.77247e-06
0.000200196
4.55939e-06
0.000207316
5.35009e-06
0.000212639
6.01004e-06
0.000216934
6.78145e-06
0.000220315
7.46528e-06
0.00022318
8.14162e-06
0.000225388
8.7476e-06
0.000227213
0.000228613
9.403e-06
1.0328e-06
0.000142028
2.07752e-06
0.000172312
3.05162e-06
0.000188887
3.89957e-06
0.000199348
4.75047e-06
0.000206465
5.48138e-06
0.000211908
6.2673e-06
0.000216148
6.96382e-06
0.000219619
7.66278e-06
0.000222481
8.33735e-06
0.000224714
8.9757e-06
0.000226575
0.000227998
9.59131e-06
1.05683e-06
0.000140971
2.12807e-06
0.000171241
3.10789e-06
0.000187907
4.06942e-06
0.000198387
4.86282e-06
0.000205671
5.69746e-06
0.000211073
6.46229e-06
0.000215383
7.16102e-06
0.00021892
7.92096e-06
0.000221721
8.61563e-06
0.000224019
9.32958e-06
0.000225861
0.000227392
9.9353e-06
1.08017e-06
0.000139891
2.1836e-06
0.000170137
3.21169e-06
0.000186879
4.13674e-06
0.000197462
5.03654e-06
0.000204771
5.87656e-06
0.000210233
6.66173e-06
0.000214598
7.42157e-06
0.00021816
8.15936e-06
0.000220983
8.90054e-06
0.000223278
9.58978e-06
0.000225171
0.000226705
1.02766e-05
1.10626e-06
0.000138785
2.27728e-06
0.000168966
3.32995e-06
0.000185826
4.28928e-06
0.000196502
5.19641e-06
0.000203864
6.03347e-06
0.000209396
6.86412e-06
0.000213767
7.68689e-06
0.000217337
8.46791e-06
0.000220202
9.19794e-06
0.000222548
9.93202e-06
0.000224437
0.000225997
1.06401e-05
1.1313e-06
0.000137653
2.29545e-06
0.000167802
3.38108e-06
0.000184741
4.38294e-06
0.0001955
5.2903e-06
0.000202957
6.21847e-06
0.000208468
7.04312e-06
0.000212942
7.865e-06
0.000216515
8.6594e-06
0.000219408
9.39499e-06
0.000221812
1.01072e-05
0.000223725
0.000225376
1.07283e-05
1.15377e-06
0.0001365
2.35189e-06
0.000166604
3.51396e-06
0.000183579
4.5422e-06
0.000194472
5.4994e-06
0.000202
6.38264e-06
0.000207585
7.2538e-06
0.000212071
8.12208e-06
0.000215647
8.95832e-06
0.000218572
9.74934e-06
0.000221021
1.05007e-05
0.000222974
0.000224568
1.13085e-05
1.21509e-06
0.000135285
2.4453e-06
0.000165374
3.6033e-06
0.000182421
4.66055e-06
0.000193415
5.64408e-06
0.000201016
6.57624e-06
0.000206653
7.49513e-06
0.000211152
8.3806e-06
0.000214762
9.17141e-06
0.000217781
1.00265e-05
0.000220166
1.0798e-05
0.000222202
0.000223811
1.15555e-05
1.19572e-06
0.000134089
2.50142e-06
0.000164068
3.69222e-06
0.00018123
4.78865e-06
0.000192319
5.86291e-06
0.000199942
6.77298e-06
0.000205742
7.7121e-06
0.000210213
8.6229e-06
0.000213851
9.47827e-06
0.000216926
1.03047e-05
0.00021934
1.11292e-05
0.000221378
0.000223012
1.19276e-05
1.26084e-06
0.000132828
2.55704e-06
0.000162772
3.78566e-06
0.000180001
4.9584e-06
0.000191146
5.94432e-06
0.000198956
6.99733e-06
0.000204689
7.96237e-06
0.000209248
8.84404e-06
0.000212969
9.7445e-06
0.000216025
1.06144e-05
0.00021847
1.14405e-05
0.000220552
0.000222251
1.22018e-05
1.27527e-06
0.000131553
2.61143e-06
0.000161436
3.87541e-06
0.000178737
5.03922e-06
0.000189982
6.17349e-06
0.000197822
7.17947e-06
0.000203683
8.16846e-06
0.000208259
9.12322e-06
0.000212014
1.00701e-05
0.000215078
1.09393e-05
0.000217601
1.18137e-05
0.000219677
0.000221366
1.26988e-05
1.32751e-06
0.000130225
2.70583e-06
0.000160057
4.01234e-06
0.000177431
5.21517e-06
0.000188779
6.33077e-06
0.000196706
7.39064e-06
0.000202624
8.42943e-06
0.00020722
9.40616e-06
0.000211038
1.03499e-05
0.000214135
1.12595e-05
0.000216691
1.21261e-05
0.000218811
0.000220603
1.28891e-05
1.3197e-06
0.000128906
2.76542e-06
0.000158612
4.10689e-06
0.000176089
5.34671e-06
0.000187539
6.54693e-06
0.000195506
7.63179e-06
0.000201539
8.62136e-06
0.000206231
9.67196e-06
0.000209987
1.06122e-05
0.000213194
1.15444e-05
0.000215759
1.24491e-05
0.000217906
0.000219647
1.34052e-05
1.41378e-06
0.000127492
2.82252e-06
0.000157203
4.20369e-06
0.000174708
5.53057e-06
0.000186212
6.66894e-06
0.000194368
7.83531e-06
0.000200372
8.8952e-06
0.000205171
9.92022e-06
0.000208962
1.09335e-05
0.000212181
1.19368e-05
0.000214756
1.2844e-05
0.000216999
0.000218849
1.36421e-05
1.39789e-06
0.000126094
2.92266e-06
0.000155678
4.34741e-06
0.000173283
5.66591e-06
0.000184894
6.93875e-06
0.000193095
8.04399e-06
0.000199267
9.20231e-06
0.000204013