/*--------------------------------*- C++ -*----------------------------------*\
| =========                 |                                                 |
| \\      /  F ield         | OpenFOAM: The Open Source CFD Toolbox           |
|  \\    /   O peration     | Version:  2.3.1                                 |
|   \\  /    A nd           | Web:      www.OpenFOAM.org                      |
|    \\/     M anipulation  |                                                 |
\*---------------------------------------------------------------------------*/
FoamFile
{
    version     2.0;
    format      ascii;
    class       volSymmTensorField;
    location    "3220";
    object      sigma;
}
// * * * * * * * * * * * * * * * * * * * * * * * * * * * * * * * * * * * * * //

dimensions      [1 -1 -2 0 0 0 0];

internalField   nonuniform List<symmTensor> 
11800
(
(137139 71740.1 6.61399e-14 -2668.19 3.50419e-14 33365)
(-68593.3 64258.8 1.01532e-13 -896.99 3.22071e-14 -17242)
(617759 89936 -1.66876e-15 1302.29 -7.35405e-14 153602)
(-537231 47657 0 -763.348 0 -133487)
(-70986 61956.5 1.89434e-14 -5472.55 -5.3533e-14 -18970.9)
(-336425 93345.1 7.35093e-14 2391.98 3.85664e-14 -82880.5)
(-62402.7 89953.5 1.38966e-13 -686.275 -3.61431e-14 -15653.7)
(-87779.3 92841.6 -2.06968e-14 1001.4 8.32903e-14 -21531.4)
(190605 49872.6 2.77142e-14 456.992 -1.89381e-14 47406.3)
(129725 97526.2 -7.13213e-14 985.515 -6.0088e-14 32431.8)
(158406 59738.3 -5.51748e-14 1425.11 4.72392e-14 39657.4)
(-779310 34998.1 -6.60196e-14 -5799.39 -2.99625e-14 -194802)
(22190 -32236.2 1.20311e-16 -59795.2 9.34846e-17 -9330.62)
(572392 47937.8 5.98744e-14 3590.25 -1.63918e-14 142913)
(-458090 87418.6 -4.99181e-14 6573.34 3.88164e-14 -112030)
(2.13652e+06 -6151.5 0 -6764.26 0 528436)
(-40813.9 71182.4 4.70269e-14 3722.03 4.14811e-15 -9203.24)
(-62872.6 65426.9 -2.65392e-14 7520.76 1.52461e-13 -13733.9)
(131467 111192 -2.71896e-14 -17531.6 1.93374e-14 28269.7)
(98752.6 59755.8 -9.49205e-14 -10541.2 -3.0707e-14 21887)
(-422366 53878.4 2.95618e-14 -1086.91 3.09863e-14 -105067)
(-681568 82197.9 4.72981e-14 3463.9 -2.7507e-14 -168251)
(-903283 106363 -2.39927e-14 11183 1.54485e-14 -221348)
(-828952 62642.7 2.42176e-16 196.765 4.17489e-15 -205631)
(1.74195e+06 78456.3 2.9785e-15 -7706.11 3.47142e-14 430300)
(-1.0764e+06 105719 -2.35503e-14 7493.81 -6.76121e-16 -265216)
(-1.12946e+06 55754.9 0 9867.07 0 -277793)
(557102 42267 -7.83705e-14 -5523.76 -4.73381e-14 136858)
(-1.23194e+06 57095.4 -1.35843e-14 10933.9 -6.51822e-14 -302956)
(-1.33535e+06 57730.6 1.80629e-14 12511.8 -2.81114e-14 -328223)
(366603 44849.2 -9.71108e-14 -1895.38 -1.74078e-13 90491.4)
(73176.6 59474.4 -1.57062e-14 2520.65 -1.30045e-14 18782)
(1.09588e+06 101717 -3.83783e-15 12612.4 -1.68305e-14 275039)
(-27370.2 76058.5 1.27013e-14 -1664.01 -9.51167e-14 -7203.97)
(18922.8 80149.3 -3.35874e-14 2613.12 -1.44207e-13 5343.49)
(-358316 34078.6 -8.81772e-14 -130.533 -6.40658e-14 -88937.8)
(20665.3 81072.2 1.19293e-13 1882.62 -1.41904e-13 5594.59)
(1.17479e+06 59947.8 -1.40959e-14 6248.68 -6.04528e-14 293040)
(-42561.4 78311 0 -2038.94 0 -11066.2)
(94189 73540.7 -4.11751e-14 5524.15 7.67138e-14 24740.9)
(-1.18675e+06 42081.9 -7.32177e-14 -5955.6 -3.40414e-14 -295935)
(-1.29435e+06 41807.8 5.2467e-14 -6312.42 -3.01148e-14 -322722)
(585434 56167.6 -3.0219e-14 -1335.8 -1.00634e-13 144927)
(-1.403e+06 42385.9 -1.00219e-14 -5526.43 -5.33316e-14 -349485)
(385301 55747.5 2.58128e-13 1277.22 -8.05376e-14 95917.8)
(1.99742e+06 50332.5 0 -7187.14 0 493817)
(863976 115861 -1.51677e-14 -3396.51 7.95214e-15 213527)
(1.02951e+06 43725.8 -2.6761e-14 -11222.8 -1.86091e-14 252659)
(-99030.4 80937.5 -1.02335e-13 72.76 -6.30622e-14 -24553.4)
(227473 77536.5 0 2314.39 0 57015)
(-808251 46373.8 -4.94647e-15 2543.97 5.25216e-14 -199912)
(-566581 43758.4 1.7159e-13 3587.05 2.01103e-14 -139690)
(-11636.8 79413.8 9.62103e-14 711.015 5.99177e-14 -2710.91)
(41835.7 127444 -2.10968e-15 7939.96 1.83955e-14 12350.4)
(-2.29586e+06 5419.8 -3.24538e-15 -11880.2 -5.05454e-15 -572598)
(1.80744e+06 -79119.8 4.33515e-15 -82819.4 7.68919e-15 427913)
(-61571 21342.1 8.28334e-14 1850.68 3.07655e-14 -14817.8)
(-508482 91889.6 6.1828e-15 -5501.09 -5.13832e-14 -127530)
(407433 58997.2 -5.23052e-14 8576.87 7.66139e-14 103221)
(-360327 96254.3 4.29039e-14 -7076.73 -7.74597e-15 -91160.4)
(1.86703e+06 22286.7 -3.79955e-14 -14311.9 -1.31719e-14 459697)
(-49520 83348.2 4.07207e-14 829.929 -6.62833e-14 -12081)
(-400807 75605.9 -2.35367e-14 -2698.04 4.04777e-14 -100118)
(319978 75849.7 7.13917e-14 2968.96 -4.07319e-14 80129.8)
(1.72023e+06 13367.2 4.16042e-15 -610.023 -2.50376e-14 426673)
(-249940 33659.1 -1.16513e-13 2172.79 -1.40826e-13 -61476.1)
(-833846 20927.5 8.19842e-14 4192.68 2.73414e-14 -205854)
(-590838 23914.6 2.37287e-15 3964.98 -1.43925e-13 -145615)
(-63729.2 22920.8 0 -3326 0 -16637.8)
(-1.00353e+06 59510.4 -1.85511e-15 10258.2 6.16678e-14 -246451)
(-21841.1 80895.3 -2.33408e-14 152.974 4.8196e-14 -5381.27)
(-49958.6 63647 -8.99191e-14 -3237.07 1.00612e-13 -13198.9)
(-43929.5 62183.2 6.30647e-14 -2011.07 -3.8604e-14 -11398.8)
(-1.52286e+06 332839 -5.4462e-15 190136 4.93567e-15 -330677)
(1.85098e+06 68794.1 -1.45868e-15 -6655.77 -1.51298e-14 457615)
(-336766 50968.8 -8.66313e-14 4030.93 -6.30151e-14 -82558.4)
(1.80044e+06 13844.5 -3.18585e-14 3799.79 2.83523e-14 447668)
(-242917 21235.3 7.65973e-14 -27.5304 -2.51351e-13 -60279.4)
(-180120 43242.4 1.44046e-14 639.637 -1.37482e-14 -44532.7)
(-170556 56115.1 1.47064e-13 2560.27 1.47494e-13 -41683.3)
(-2.31421e+06 -43720.3 1.17686e-14 9908.97 5.49901e-14 -571744)
(100459 54576.8 0 8505.7 0 27036.4)
(53997.8 65575.9 -1.52891e-13 1591.13 -6.02501e-14 13792.7)
(37396.7 69961.1 5.3008e-14 1432.2 -4.18364e-16 9634.25)
(-79198.7 62384.7 3.6292e-14 -8165.17 1.02716e-13 -21676.8)
(-1.30066e+06 70652.8 -2.02332e-14 -7289.9 1.0229e-13 -324529)
(397033 51140.4 1.2338e-13 4097.63 -3.83805e-14 99528.7)
(-1.19704e+06 68266.2 0 -6691.76 0 -298670)
(-1.09596e+06 66841.7 -4.25795e-14 -5997.75 -4.3597e-14 -273417)
(588314 48310.9 5.65306e-14 5212.81 3.45361e-15 147266)
(-12557 78693.9 -1.9933e-13 -2834.1 -1.27859e-13 -3818.85)
(1.29683e+06 93983.7 0 -4126.51 0 320746)
(-106571 69195.4 -4.22898e-14 1857.3 -7.01247e-14 -25981.7)
(67724.2 17101.9 -2.43844e-14 4629.1 -3.53897e-14 17952.3)
(161023 69450.4 1.8716e-13 1093.6 3.3505e-15 40224.5)
(51338.6 -38716.5 -7.65782e-16 -109014 -5.67585e-16 -14310.4)
(-2721.11 10644.1 1.99359e-17 6391.96 -1.18574e-16 910.811)
(-51824.2 -38472.8 -4.84603e-16 108716 3.22784e-16 14116.1)
(-12568.1 80078.7 -6.19717e-14 -77.3977 -9.01906e-16 -3137.61)
(-678968 52207.3 -1.52031e-14 -2638.69 6.06758e-14 -169120)
(48128.8 38267.4 3.406e-14 -133.138 -9.52869e-14 11908.7)
(739473 58756.6 -7.36588e-14 -6918.29 -1.01925e-13 181762)
(-1.22956e+06 106243 4.95826e-15 -284.494 1.00908e-14 -305150)
(-404029 73171.9 -3.06083e-15 6405.42 9.66998e-15 -98658.4)
(-1320.21 85252.5 -9.56341e-15 -743.181 -4.75862e-14 -511.97)
(319085 97206.2 -1.98036e-14 2447.46 -3.42604e-14 79778.8)
(-151551 70645.1 -5.85521e-14 -455.033 1.29114e-13 -37715.7)
(-106265 74008.1 -1.98368e-13 -774.16 -9.56763e-14 -26558.6)
(1.83735e+06 21135.4 1.11874e-14 4635.76 2.3351e-14 457035)
(1.20568e+06 58599.5 1.82016e-14 4179.59 3.70045e-15 300191)
(1.31048e+06 60014.4 3.48808e-14 4943.59 4.85916e-14 326383)
(1.10439e+06 57507.4 1.27595e-13 4041.38 7.56153e-14 275024)
(-402144 52627 5.7814e-14 -4097.6 9.02917e-14 -100797)
(-595504 51359.6 -1.52914e-13 -4435.74 5.49749e-14 -148857)
(215168 63743.1 6.52712e-14 196.563 -3.42194e-14 53436.2)
(1.65457e+06 35520.4 1.68656e-14 -172.233 9.95037e-15 410491)
(232431 30984.5 -4.76392e-14 -3101.26 -1.87303e-13 56901.3)
(-73263.2 74558.4 -1.6519e-13 1024.19 1.54475e-13 -17924)
(1.54958e+06 73829.5 -1.93527e-14 910.937 2.41154e-14 384708)
(-131823 101046 -5.35532e-14 89.2557 -1.44143e-14 -32685.7)
(-206871 44058.7 -3.68642e-14 3010.92 -1.55291e-14 -50581.8)
(64037.5 89993.2 1.18242e-13 -2837.01 -1.69287e-13 15185.1)
(91281.8 95181.1 -8.241e-14 -1774.88 5.66848e-14 22208.5)
(-65104.1 74146.6 -2.39814e-14 2946.27 -3.5382e-14 -15422.6)
(-112211 65583.8 -1.50418e-13 -802.916 -1.17386e-13 -28041.1)
(-2850.51 78933.7 -1.44571e-13 -2492.07 -1.08797e-13 -1325.6)
(-34920.1 78349.7 -8.6673e-14 -1575.65 9.52327e-14 -9055.33)
(-7540.22 79957.7 -5.66621e-14 -2026.47 -5.40059e-14 -2373.69)
(8848.25 55438.7 2.69423e-15 38007.2 1.20674e-13 11625.8)
(-36101.1 7275.27 -4.02722e-16 -8327.91 5.73653e-14 -11023.7)
(-1.95453e+06 -314410 1.75646e-14 81172.8 -8.88368e-15 -464819)
(-1.40582e+06 71534.2 1.26529e-14 -10720.6 -1.92829e-15 -351472)
(433839 46641.1 6.52818e-14 3863.39 -6.36727e-14 108603)
(-1.29627e+06 72849.3 -5.04405e-14 1167.95 3.16812e-14 -321342)
(628041 42729.6 -2.94128e-14 4562.91 8.90768e-14 156962)
(-1.19034e+06 69596.5 1.92455e-14 1424.3 1.93343e-14 -294994)
(-1.08833e+06 67550.1 -1.10892e-13 1799.21 8.47475e-14 -269591)
(361069 64974.4 6.3932e-14 -4056.16 1.78187e-13 88582.1)
(-1.10876e+06 30386.8 6.88923e-14 7788.82 -9.47567e-14 -273172)
(526340 67638.4 7.93447e-14 -4807.68 -6.31807e-14 129403)
(-1.01896e+06 30791.8 5.70325e-14 6800.63 -9.82533e-14 -251138)
(-932102 32338.3 -5.91404e-14 6733.81 -5.32449e-14 -229603)
(-524046 88716.1 4.43761e-15 15744.2 4.45425e-14 -126120)
(159033 74582.2 -3.19176e-14 -5869.99 -2.12617e-13 38002.8)
(227235 71961.4 -5.10188e-14 -7262.21 -1.47428e-13 54579.7)
(-332336 70280.3 -1.53564e-14 10656.1 8.85075e-14 -79815.4)
(1.34169e+06 44725.2 -9.73324e-14 1734.66 -3.28294e-14 333331)
(-1.38559e+06 -16710.2 9.36049e-14 -11216.7 2.89479e-14 -346576)
(778454 43729.2 6.58676e-14 -2837 -6.13509e-14 192446)
(-400690 44939.9 1.47376e-15 7139.63 8.75298e-15 -97648)
(-182858 71290.6 -8.27685e-14 2422.02 -6.83973e-14 -44769.9)
(-191585 59666.7 7.08333e-14 -2233.1 -6.40908e-14 -48090.1)
(20104.3 79515.1 5.38464e-14 1632.16 9.83642e-14 5393.25)
(-271883 52029.9 -1.21096e-13 -273.999 1.2559e-13 -67527.6)
(232493 62159.6 -6.34904e-14 -4511.69 -6.70926e-14 56566.7)
(157473 71215.1 -5.81833e-14 2324.31 4.48523e-14 39649.1)
(-504053 58143.5 9.8484e-14 7482.11 -6.63006e-14 -123209)
(-705137 64130.5 3.58085e-14 3000.11 7.83469e-14 -174214)
(1.43562e+06 21483.9 2.21597e-14 1724.69 -2.98893e-16 356635)
(-6497.73 83348.1 2.82668e-14 -407.393 -1.37507e-13 -1713.3)
(2.09074e+06 78069.3 -2.58618e-14 -12980.5 -1.40978e-14 515535)
(-223875 64063.7 -1.04599e-13 1176.33 7.20817e-14 -55255.9)
(1.81159e+06 50337.8 0 -18794.4 0 444830)
(-516796 64955.8 3.08239e-14 -4857.67 1.28647e-13 -129433)
(-564684 65200.7 -3.16008e-14 -5687.92 3.74987e-14 -141521)
(-612935 66838.9 -5.09816e-15 -5889.35 1.35691e-13 -153543)
(283772 71495.3 -7.7546e-14 888.864 1.90757e-14 70630.2)
(192819 73625.5 -8.27233e-14 305.742 2.04264e-14 47918.1)
(-2.27847e+06 -16992.4 2.05159e-14 -8798.61 -1.17065e-14 -567518)
(-1.41069e+06 69993.7 -2.10481e-14 -8144.13 3.97241e-14 -352042)
(493221 50365.2 -8.25744e-14 4823.54 -4.8331e-14 123575)
(684147 47035.3 2.32004e-13 5230.18 -1.24706e-13 171049)
(77182.2 79361.6 4.54014e-14 -7795.08 -1.17397e-13 17216.3)
(-403455 36811.2 0 1718.33 0 -99679)
(-409122 21126.4 1.24171e-13 -2006.29 -6.31294e-14 -102009)
(1.99071e+06 55145.5 3.35411e-14 -14185 2.2379e-14 490416)
(2.03807e+06 -11163.5 2.77968e-14 12832.4 2.45769e-14 508870)
(1.06652e+06 25322.7 1.6772e-15 -908.782 5.86892e-14 264400)
(977930 26971.5 1.1942e-14 -354.419 1.42413e-13 242556)
(1.15819e+06 23249.8 3.03511e-14 -1954.75 -4.38667e-14 286886)
(-502770 69275.2 -7.49034e-14 4326.21 6.74034e-14 -123674)
(-334401 66045.2 -7.26675e-14 2996.41 7.97112e-14 -82228.2)
(218837 91851.5 0 1908.35 0 54771.4)
(148929 89844.9 -3.02504e-15 814.689 1.15548e-13 37154.4)
(477218 69489.7 -8.91005e-14 -248.915 7.28601e-14 118346)
(-201778 65814.7 -7.12499e-14 2509.73 1.68968e-13 -49442.4)
(-317232 98918.3 -1.41526e-14 3801.01 6.26084e-14 -77768.5)
(97445.5 72641.7 -2.64726e-13 -869.716 -7.02566e-14 23962.4)
(138639 68731.8 -1.83128e-13 -834.063 7.66319e-14 34192.2)
(-86006.6 82583.9 -3.56932e-14 2096.22 -4.99059e-16 -20819.9)
(-240678 56071.7 -2.96023e-14 5231.83 -1.84899e-14 -58419)
(-220977 56630.4 1.95477e-14 4431.11 -3.33858e-14 -53729.5)
(-223480 42341.3 0 -561.903 0 -55589.3)
(-107884 102533 4.08037e-16 -4967.96 -3.89054e-14 -28000.8)
(-1.02173e+06 4480.67 8.6771e-14 -6877.6 -3.79957e-14 -255218)
(1.28325e+06 53023.2 -1.1285e-13 -5716.89 -1.13507e-14 316982)
(1.59913e+06 168449 6.74753e-15 -276669 3.4132e-15 328129)
(-38144.9 70464.4 2.36394e-14 -3255.57 -5.35896e-14 -10272.3)
(242744 25373.2 8.62619e-14 2028.49 -1.96964e-13 60733.1)
(-2.00465e+06 -247946 1.68696e-14 164047 -1.09413e-14 -456691)
(112888 56358.2 3.69189e-15 3778.5 1.00104e-13 28947.4)
(308164 39612.6 6.96438e-14 1397.38 -7.99568e-14 76808.4)
(340302 43230 9.72427e-14 -5054.69 -4.10325e-14 83181.8)
(-4373.62 82521.3 7.32435e-14 -77.2347 -1.08644e-14 -1104.35)
(-5014.17 85217.2 7.72602e-14 -623.782 6.53451e-15 -1398.89)
(929020 33037.6 2.47018e-14 -5195.9 8.22556e-14 229220)
(769926 88080.2 3.14296e-14 6143 -7.58172e-15 192559)
(-700028 73136.8 0 6536.65 0 -172069)
(-598619 40472.4 -7.99091e-14 -9538.35 -4.99911e-14 -150896)
(1.94839e+06 -317531 -7.07687e-15 -83226.3 -4.79376e-15 462784)
(-594606 113875 -6.41404e-15 16331.9 7.49456e-14 -143482)
(-952483 40550.4 4.42239e-14 -2445.52 -2.60892e-14 -236937)
(-2.03245e+06 -818242 -1.90525e-14 427528 7.45675e-15 -398213)
(2.42035e+06 2547.84 0 33097.8 0 608749)
(-1.78e+06 -757967 -6.20055e-15 201898 1.91937e-15 -391559)
(309787 114003 -4.21469e-14 -31.2821 1.48778e-14 76856.6)
(-69535 67408.4 -7.47128e-15 -1449.62 1.04479e-13 -17612.7)
(-909926 83655.6 3.73012e-14 -7603.64 -4.10481e-14 -227658)
(-831087 83003.6 5.55656e-14 -6572.11 -6.93511e-15 -207840)
(-761235 80842.3 -6.33506e-14 -5940.11 2.45668e-15 -190352)
(270832 59188.1 5.54242e-14 3752.82 -1.54649e-13 68130)
(405714 56053.4 -1.39134e-13 4626.29 1.35273e-13 101814)
(40169.4 71755.6 -2.18699e-14 -7463.28 1.02653e-13 8115.05)
(57111.6 67117.2 5.17827e-14 -9860.67 6.63437e-14 11723.9)
(-132134 107826 -5.92358e-14 21215.2 1.60347e-14 -27521.3)
(-83195.6 63017.8 4.40779e-14 14497.4 -5.63867e-14 -17045.4)
(-1.11481e+06 -448720 -4.80418e-15 -27582.3 1.00376e-15 -283450)
(205336 108597 -3.36278e-14 15647.5 -1.19266e-13 54830.6)
(-101835 64672.9 -1.15643e-13 -8249.87 -5.28721e-14 -27314.3)
(-478206 100807 0 193.459 0 -118605)
(205144 61348.8 8.91998e-14 1396.44 -3.64325e-14 51247)
(-100739 87099.9 0 -410.302 0 -25097.1)
(-75841 70661.8 -5.62502e-14 -629.485 -8.91084e-14 -18973.9)
(713069 72379.3 7.88318e-14 4226.15 -8.24423e-14 177975)
(732664 46400.3 1.20643e-13 -137.104 5.76258e-14 181755)
(2.02874e+06 -816815 -7.12468e-15 -427620 -2.35797e-15 397269)
(1.11261e+06 -448273 8.32562e-15 27363.2 2.28398e-15 282850)
(-224334 51806.9 1.71475e-14 1670.86 2.44046e-14 -55247.1)
(-239613 52930.6 -5.20927e-14 -2724.39 -1.06537e-13 -60128.8)
(-1.27193e+06 2314.14 -5.73945e-14 -5163.09 -1.31596e-14 -316873)
(1.0301e+06 49819.8 1.29897e-13 -3861.13 -3.39482e-14 254630)
(334386 66972.4 4.2939e-15 -2637.9 2.36015e-13 82313.3)
(501955 71206.3 8.01769e-14 -3491.52 8.71896e-14 123679)
(-1.16094e+06 23891.1 -2.09549e-15 -1254.37 4.99512e-14 -288363)
(-1.07136e+06 26981.3 -5.07402e-14 -713.367 1.67794e-14 -266003)
(-981831 29054.1 -3.36633e-15 -817.883 7.87934e-14 -243815)
(-14847.3 84532.2 -1.21942e-13 -959.119 3.52749e-14 -3921.9)
(-1.26118e+06 25518.8 3.30283e-14 -2109.76 3.55247e-14 -313448)
(419235 66876.9 -8.2173e-14 -2719.24 4.0315e-14 103346)
(587102 69963.4 0 -3429.42 0 144821)
(554289 53581.2 3.13257e-14 -4054.06 7.47832e-14 136524)
(107118 70319.3 -1.0305e-13 1180.73 -2.72453e-13 26871.2)
(8992.52 73446.2 -9.03063e-14 -8504.95 -3.32175e-14 120.976)
(458507 41193.3 -1.15257e-13 14495 2.06821e-14 117362)
(-386788 55411.6 -9.83488e-15 -1135.92 -7.95554e-14 -96251.9)
(61112 76324.8 1.34156e-15 -14478.4 1.68006e-14 11570.7)
(1.7761e+06 -757261 -6.44802e-15 -202693 -1.62337e-15 390395)
(274315 77072.3 8.16624e-15 -2621.52 -1.51031e-13 67412.7)
(330764 75193.1 7.02997e-14 116.772 2.39117e-14 82098.3)
(-217677 74560.5 0 -21.0897 0 -54015.4)
(-258515 83468.6 2.62197e-14 -6423.24 -7.29867e-14 -65736.5)
(762350 80439.2 0 7313.09 0 190969)
(832262 82983.7 4.64336e-14 7635.57 4.40727e-14 208396)
(902707 86708.4 -1.04027e-13 7870.81 -1.00443e-14 225933)
(-406477 53175.8 1.46863e-13 -5444.51 1.49192e-13 -102206)
(-274487 57855.9 7.71553e-15 -4013.9 -8.92784e-14 -69101.8)
(-15139.4 81003.2 8.68593e-14 95.7989 4.62494e-14 -3732.62)
(1.82421e+06 14530.3 -1.35277e-14 -28742.2 -2.47997e-14 445491)
(-11662 92825.1 -9.38632e-14 -5685.19 2.92466e-14 -4304.18)
(22835.5 48792.5 -8.99339e-14 11021.8 -5.5994e-14 8400.68)
(40244.3 77076.1 6.74934e-14 1105.79 -1.56653e-13 10259.8)
(431510 76229.9 7.19162e-14 101.341 7.60023e-14 107092)
(-170775 5967.53 -1.19474e-13 -3095.59 5.85732e-15 -43140.9)
(569970 85122.5 0 -3524.91 0 140547)
(1.92144e+06 -79287.9 3.12082e-16 -270218 1.25495e-16 409703)
(431355 21679.8 6.89668e-14 6259.31 1.56839e-13 108581)
(414240 33374.4 3.12576e-14 -6198.66 1.70333e-14 101243)
(-620873 72273.3 1.02773e-14 5823.7 2.16966e-14 -152606)
(-441751 68181.8 -8.00541e-14 4642.02 2.56432e-14 -108456)
(-529142 45826.3 -1.63709e-13 -2012.26 -2.86431e-14 -131790)
(-379365 50454.1 8.26224e-15 -2626.26 -8.6886e-15 -94779.7)
(1.3209e+06 21588.9 -5.75075e-15 -3436.56 1.89077e-14 326889)
(1.09339e+06 92230.8 2.38761e-15 -299.524 -3.90992e-14 271217)
(312996 83541.5 1.44925e-14 -3579.52 8.57244e-15 76772.5)
(421185 69694.3 2.72035e-14 8.28341 4.62846e-14 104507)
(230624 82867.5 7.56686e-14 -4188.15 5.39187e-14 56183.4)
(309654 70018.4 6.78562e-14 -2079.75 -1.07411e-14 76315.5)
(-598160 51000.5 -1.25336e-14 5909.75 3.14681e-14 -146949)
(-786457 78484.1 -3.47744e-14 1906.68 6.24967e-15 -194663)
(-181029 122679 3.86585e-14 -709.304 2.76099e-14 -45093.1)
(1.29991e+06 56171.8 4.3193e-14 5121.56 3.10136e-14 323806)
(1.4097e+06 56179.7 -9.36341e-15 22822.3 4.65605e-15 355439)
(1.67323e+06 57037.1 7.60144e-15 -2251.86 4.79216e-15 414603)
(115771 78381.1 -1.47239e-13 444.775 1.78799e-13 28835.5)
(-425723 22806.6 -9.12353e-14 -5317.92 -4.69087e-14 -106950)
(-411413 36084.8 -1.15767e-13 4509.28 7.74345e-14 -100961)
(1.94984e+06 -6435.21 0 12985.1 0 487016)
(1.95468e+06 61863.7 0 1421.18 0 485349)
(1.15796e+06 48658.4 1.78561e-14 -1871.55 8.5186e-14 286848)
(1.1488e+06 9526.08 5.71673e-14 4889.06 -1.60498e-13 286254)
(-1.19488e+06 11694.8 0 -9267.65 0 -298774)
(-1.16486e+06 48669.5 0 7948.77 0 -287054)
(33687.2 76636.4 -2.02892e-14 2676.17 5.81188e-14 9022.5)
(-83041.6 34359.1 2.17146e-13 -5041.94 -9.19178e-14 -21855.3)
(-317058 33941.6 -5.72547e-14 -3500.33 -2.11257e-14 -79537.1)
(2.56002e+06 3833.91 0 52004.2 0 648097)
(-45288.5 67724.5 -1.4319e-13 -2242.61 -3.57641e-15 -11793.4)
(-53342.6 70518.5 -2.0624e-14 -5047.74 -1.14719e-13 -14487.8)
(278234 89795.1 -7.3884e-14 -6187.21 -5.06373e-14 67500.4)
(-220111 88516.7 -1.53971e-13 -6335.42 6.44828e-14 -56185.9)
(266306 54966.2 4.47467e-14 -7559.27 -4.62832e-14 64200.3)
(-1.0205e+06 46220.5 3.16865e-14 -9120.55 -6.45484e-14 -255470)
(1.02746e+06 50439.5 -1.31403e-14 -10295.6 -7.89347e-14 252378)
(-1.74119e+06 75990.8 1.36856e-14 -10763.6 -5.86502e-14 -434696)
(-2.07585e+06 -186967 7.27632e-15 387297 -5.24784e-15 -418963)
(722537 100011 -1.15728e-14 -15155.1 1.4391e-14 175516)
(80893.1 97142 -7.64928e-15 -4410.54 4.30531e-14 18976.9)
(-963120 79947.9 -3.83361e-14 -4866.81 -1.07341e-13 -240177)
(808912 27962.8 -4.98592e-14 9750.52 7.18984e-14 203127)
(-561563 49508.3 5.50271e-14 -9881.37 7.05701e-14 -141787)
(437406 78576.4 8.25852e-14 5322.81 1.44375e-15 109850)
(81276.3 86611.8 2.30254e-14 4450.28 1.0776e-15 21270.5)
(140523 67515.7 -9.73788e-14 -1010.78 1.22307e-13 34615.9)
(-279594 58532.8 6.69858e-14 -17830 -7.11693e-14 -73797)
(-452113 114285 1.1071e-15 7552.46 8.96276e-14 -110305)
(-256318 59065.4 1.03199e-14 -16566.4 -7.19475e-14 -67708.2)
(-414383 110198 6.53169e-14 6731.31 -2.38719e-14 -101147)
(102316 49190.3 -4.10629e-14 -3091.63 1.27641e-14 24619.6)
(-48280.4 94133.8 -1.08512e-15 2522.97 -8.0436e-14 -11353.3)
(-31582 92867.8 9.97395e-14 2346.62 8.00042e-14 -7253.89)
(-21307.1 83548.2 5.13338e-14 623.509 -1.11784e-13 -5132.02)
(1.38639e+06 40335.6 2.96797e-14 3632.71 4.5987e-15 344892)
(-14428.7 94705.5 -1.12876e-13 -6577.93 -5.01766e-14 -5212.18)
(-54896.3 69905.7 5.57358e-14 -5190.64 -1.86646e-13 -14908.8)
(1.9361e+06 -54900.2 -1.47338e-14 -100282 -1.07727e-14 455505)
(318717 56675.3 5.94182e-14 -5152.66 -7.6225e-14 77801.7)
(-741528 98452 3.98161e-14 13344 1.07559e-14 -180677)
(-847167 62461.8 -6.49033e-14 1935.57 -2.84031e-14 -209719)
(-841380 29220.9 0 -9813.12 0 -211198)
(1.05891e+06 17791.7 -5.84638e-14 5641.46 -2.78005e-14 264137)
(1.01395e+06 70917.3 3.54174e-15 9161.08 6.96512e-14 253856)
(-33071.2 58351.7 -6.5931e-14 1225.22 5.3747e-14 -7901.64)
(-25173.9 58767.9 4.78319e-14 1701.48 -2.67462e-13 -5823.98)
(-666225 105572 -2.63328e-14 7420.77 -6.48289e-16 -163463)
(-897068 75577.6 0 11118.3 0 -219822)
(634157 48432.8 1.44228e-14 6909.43 3.55454e-14 159062)
(-1.64139e+06 94123.7 6.30414e-15 -7327.81 -1.99774e-14 -409081)
(56776.6 65925.7 0 14065.4 0 17577.3)
(902020 41576.7 -3.13037e-15 -2076.61 2.16495e-14 223294)
(683854 102401 -1.68725e-15 6463.68 8.23257e-17 171282)
(-429642 83266.6 1.22634e-13 4885.89 -1.57705e-14 -105391)
(-333749 57274.6 -1.19763e-14 -2020.34 8.64173e-14 -83311.1)
(-306314 79535.7 1.89645e-14 3633.7 -7.2092e-14 -75101)
(-239754 60999.1 -1.07196e-15 -2280.18 4.23547e-15 -60053.5)
(-343542 39007.7 4.43438e-14 663.224 6.54919e-14 -85075.1)
(-289380 44334.1 -7.75673e-14 3740.86 1.56125e-14 -70872.9)
(-352696 100680 0 1238.55 0 -87203.8)
(-396742 102505 -3.91516e-14 -628.782 3.40219e-14 -98595.8)
(-432259 106269 -3.19859e-15 -564.993 -3.64747e-15 -107392)
(117426 66165.6 -1.90919e-13 1372.89 -9.54519e-14 29476.4)
(-23582.2 79530.3 -4.23754e-14 -2390.27 8.43564e-14 -6444.3)
(847760 39934.3 -2.39187e-14 5387.11 6.81067e-14 211683)
(887394 54109.5 3.31162e-14 -6005.59 -6.43377e-14 218690)
(147057 70307.2 6.8711e-15 548.346 -4.76038e-14 36623.9)
(214974 63814.7 0 2497.83 0 53959.2)
(-469380 102367 4.90813e-14 -3154.72 -5.39664e-14 -117246)
(414287 62382.6 -9.38105e-14 4600.07 -1.17911e-15 103934)
(452377 91564.2 -4.10637e-14 5385.27 -2.53884e-15 113580)
(-165020 76107.6 -7.84687e-14 -1224.87 1.1247e-13 -41248.8)
(-140550 79403.8 4.57841e-14 -2025.51 2.68789e-15 -35375.8)
(-202534 83200.8 7.42086e-14 -518.427 2.63972e-14 -50381.4)
(-224917 71788.6 0 -2176.33 0 -56346.5)
(-982980 42967.1 2.18535e-14 -54.9353 -3.33643e-14 -243911)
(451874 73492.9 -3.59261e-14 -607.279 -1.42107e-13 111968)
(322015 71744.6 -1.6458e-14 -979.507 -2.35238e-15 79655.4)
(-108044 195817 -1.00329e-14 20370 -7.18924e-15 -21753.6)
(1.17208e+06 33374.2 -7.54147e-14 -8702.89 -4.51805e-14 288658)
(-1.37057e+06 10773 6.53345e-14 2242.38 3.91001e-14 -339510)
(-160049 181390 0 -7076.54 0 -41467.2)
(-162891 74291 2.74283e-14 2196.22 8.2802e-14 -39871.6)
(-137753 78348.1 -2.06308e-13 3835.89 -5.23367e-14 -33227.6)
(-236995 72489.8 8.89956e-14 1589.03 9.96171e-16 -58409)
(-204142 79386.9 0 3114.19 0 -49879.1)
(463302 59828.6 4.54973e-14 -3860.75 -7.32377e-14 113997)
(531926 83221.9 1.66072e-14 -3360.88 7.04003e-15 131148)
(431587 63455.7 -3.38183e-14 -7941.84 3.23796e-14 105115)
(503331 85557.8 3.60815e-14 -5694.04 9.97474e-14 123474)
(395263 63051.1 2.83013e-14 -6954.09 4.74984e-14 96347.4)
(460877 83464.9 -6.15039e-14 -5115.33 3.51504e-14 113084)
(364405 37756.1 2.79862e-14 205.151 1.05692e-13 90467.2)
(351635 22759.5 8.22955e-14 2844.25 1.76212e-13 87953.4)
(-701235 82791.8 -1.57859e-14 481.325 2.0749e-14 -173871)
(327469 78166.6 -8.52506e-14 -4254.22 -2.0715e-15 80196.2)
(-782279 59986.8 0 6461.04 0 -192496)
(1.35237e+06 86652.8 4.61403e-14 -11677 -2.90336e-14 332654)
(-681616 37256.7 8.59034e-14 2578.42 -1.41171e-13 -168483)
(-497071 42450.5 1.03729e-13 734.184 -6.97135e-14 -123151)
(-1.53385e+06 -725106 -5.90354e-15 244608 1.32148e-15 -319887)
(45591.7 74678 1.15863e-13 288.499 -3.04271e-14 11383.8)
(1.43535e+06 48801.9 -1.54163e-14 -3480.12 -7.79832e-16 355277)
(-696149 56751.7 -2.40545e-14 2472.79 -6.97273e-14 -172115)
(-501252 55022.3 1.50289e-13 2099.26 7.39624e-14 -123850)
(2.14592e+06 -15028.8 2.51004e-14 -4608.09 1.1175e-14 531303)
(-96390.3 66617.5 -1.66175e-14 -1298.96 6.66642e-14 -24238.7)
(1.47934e+06 13804.8 3.83645e-14 4366.14 -2.38463e-14 368137)
(-346891 57814.5 5.19922e-14 1563.24 -9.16613e-14 -85682.9)
(-1.2245e+06 86080.1 3.11215e-14 12564.1 -4.05314e-15 -300706)
(-1.15103e+06 55266.8 -1.9011e-14 -7028.85 -1.44955e-15 -287339)
(1.11388e+06 56795 -3.59996e-14 1639.46 2.35501e-14 276783)
(-141523 77385.3 -2.27036e-13 5816.72 -1.03347e-13 -33671.5)
(-3359.81 -38947 2.40235e-16 -61043.7 8.53634e-17 -15979.8)
(-17723.3 71234.8 0 3044.41 0 -3642.14)
(-2.03551e+06 -650161 9.69464e-15 257182 -2.67531e-15 -441238)
(1.5299e+06 -724414 1.14747e-14 -246822 3.61526e-15 318359)
(-976684 89626.1 4.01786e-14 -8260.97 -3.89814e-14 -244385)
(337856 56055.6 1.73677e-14 2979.56 6.70443e-14 84568.1)
(468216 51254.9 -5.58858e-14 3886.14 1.272e-13 117138)
(136113 73141.8 1.11869e-13 -1398.02 3.33174e-14 33425.6)
(-253831 15867.6 6.48355e-14 194.117 -9.97048e-14 -62932.5)
(227161 94368.9 -5.39309e-14 -1425.11 4.93542e-14 56009.6)
(-115521 58389.9 1.5932e-14 851.712 2.44293e-14 -28451.8)
(-106027 104438 1.14523e-14 4246.46 3.32375e-14 -25253.8)
(-1.66829e+06 3997.09 -5.31194e-15 45163.8 1.26354e-14 -402731)
(13648.9 -23177.9 6.30421e-17 -40463 3.9123e-17 -6653.11)
(-573559 93722.6 -2.39213e-16 7124.85 4.51615e-15 -140544)
(450776 52832.4 4.0433e-14 -2772.76 1.25308e-13 111159)
(1.73219e+06 -335336 1.01744e-15 -45936.5 1.32332e-15 418394)
(-51289.8 57901.6 -1.03935e-14 -8648.01 -8.08035e-14 -14871.8)
(-57613.2 96661.6 8.24633e-15 -3737.11 7.8889e-14 -15222.3)
(-32831.1 84417.4 -1.41137e-15 440.769 -1.20855e-13 -8036.69)
(-85740.4 73144.4 -2.23883e-14 3198.81 3.05197e-14 -20480.2)
(38308 83189.8 3.61064e-14 -1384.19 9.33128e-14 9161.54)
(25329.8 85523.4 -8.48345e-14 -395.37 -2.76982e-14 6186.75)
(-1.73684e+06 -333463 4.34395e-15 44377.7 -1.3427e-15 -419934)
(607780 88802.4 -3.31036e-14 2129.5 1.79189e-14 151331)
(-212916 71924 -2.2708e-13 -215.444 -6.44298e-14 -52882.2)
(713997 75732.2 1.18508e-13 5377.79 -2.00585e-13 178491)
(654879 74211.2 -1.45486e-15 4757.9 -7.68894e-14 163669)
(599032 71596.6 -2.19816e-13 2547.31 3.31844e-14 149264)
(104042 42558.7 -1.10968e-13 4065.91 -4.15179e-14 26823.8)
(-1.40824e+06 31369.2 5.9627e-14 -3752.94 -5.78854e-14 -350344)
(443002 57364.7 1.20341e-13 -2482.55 1.29824e-14 109302)
(627877 59163.3 -5.44906e-14 -2442.3 -7.79444e-14 155183)
(-121173 71732 -1.92316e-13 -380.884 -3.24276e-14 -30160.1)
(901820 97293.9 1.26186e-14 -11892.8 1.82462e-14 220809)
(172504 55853 -7.78181e-14 -104.446 5.27147e-14 42775.8)
(-1.80684e+06 23523.3 -2.02184e-14 -2399.31 -7.48791e-15 -448910)
(52283.6 73517.9 -1.00353e-13 1880.27 -8.44339e-14 13439.2)
(-152424 78158.8 -1.99554e-13 1711.93 9.42416e-14 -37394.7)
(512717 60433.6 1.5055e-13 1478.21 -2.16873e-14 127582)
(470133 60328.9 1.40645e-13 1003.4 3.42216e-14 116898)
(429694 58608.1 -1.01953e-13 -890.486 2.80966e-14 106395)
(940101 45257.1 1.51731e-14 114.604 3.19181e-14 233287)
(204731 77752.2 -6.73514e-14 2976.01 -1.44353e-13 51536.3)
(-516973 65148 4.59379e-14 -7989.15 1.02918e-15 -130254)
(-405293 116760 2.80326e-14 3750.69 3.12673e-14 -99630.8)
(-226658 48927.4 0 1641.85 0 -55831.1)
(-716188 86348.6 -6.18319e-14 -8087.16 1.88231e-14 -179707)
(-782763 88788.8 -9.30376e-14 -8955.68 -6.15388e-15 -196441)
(-851924 92623 -9.28841e-14 -10159.9 4.47541e-14 -213900)
(404840 58690.1 1.90897e-15 6516.41 2.37059e-14 102066)
(276985 63851.8 3.00009e-14 4530.04 -3.7562e-14 69849.5)
(73403.8 8314.32 -8.72232e-14 3652.36 3.14653e-14 19119.2)
(143213 61101 0 -1823.65 0 35081.6)
(184239 49629.1 -1.02128e-13 1368.45 6.09594e-14 46053)
(2.09587e+06 -100363 -5.44724e-15 -277512 -2.6301e-15 451171)
(792863 41371.7 1.0062e-13 880.51 -1.03259e-13 196944)
(-608504 78412.5 0 1030.36 0 -150727)
(-426913 71412.3 -4.98565e-14 8337.63 -2.19177e-15 -103857)
(342343 75423.2 2.66114e-14 -3476.38 -3.29124e-14 84079.8)
(-109286 88272.6 4.44566e-14 -2439.45 3.64743e-14 -27721.4)
(-14200.6 86631.1 1.31022e-13 -2603.53 -1.03251e-13 -4169.45)
(35552.1 62191.6 1.04584e-13 8958.55 -1.65518e-14 11044)
(38953.2 62121.3 -5.47286e-14 9786.98 -5.09744e-14 12093.4)
(-4825.54 109742 -2.74318e-15 -3081.14 -2.24884e-14 -1961.81)
(-9449.01 57525.9 -2.44418e-14 -888.361 8.22047e-14 -2564.91)
(24.7486 66595.5 -9.15446e-14 -695.311 6.82206e-14 -166.38)
(12267.3 70723.3 8.74506e-14 -13573.2 -3.97298e-14 -324.014)
(152239 50395.5 -6.78109e-15 2383.76 -3.19658e-14 38365)
(-283730 112031 -1.59629e-15 1982.56 -1.54492e-14 -69907.3)
(90124.3 70487.2 2.19374e-13 1048.97 -4.31694e-14 22621.9)
(12875.7 108688 9.16582e-15 -16772.6 1.30817e-14 -966.908)
(-598687 109567 -2.28706e-14 -2902.57 -1.374e-14 -149267)
(758079 51324.9 7.55636e-14 3848.89 6.74275e-14 189050)
(-325298 79660.6 -8.44233e-14 -296.09 2.76155e-14 -80786.5)
(-1.38882e+06 253036 -3.96545e-15 246667 2.37817e-15 -283392)
(-202723 47145.5 6.01168e-14 -2094.34 6.52891e-14 -50819.3)
(-332782 110624 0 3018.22 0 -81821)
(97905.9 70506.6 1.17064e-13 -303.822 -1.61714e-13 24217.1)
(151846 63875.6 6.19194e-15 -305.594 2.01082e-14 37600.1)
(1.52691e+06 -337564 -1.22941e-15 48883.9 2.15383e-16 390986)
(-2.10367e+06 10446.2 -1.68745e-14 12317.7 7.75722e-15 -518907)
(651930 57980.3 3.70177e-14 4784.18 3.11091e-14 162944)
(711202 58132.6 -3.75573e-14 5012.72 8.17754e-14 177707)
(-216387 77535.9 -2.77741e-13 1695.03 -9.91709e-14 -53269.5)
(150683 97248.6 4.89104e-14 9901.82 9.64148e-14 39844.4)
(-33579.7 67666.5 7.81394e-14 -3334.57 1.18919e-13 -9159.17)
(-865663 -562426 -1.0515e-15 65327.3 4.42776e-16 -198580)
(-2.04652e+06 70553.2 5.5311e-15 1870.58 7.14276e-15 -507319)
(1.81701e+06 36118.9 3.00549e-14 2964.84 -1.48197e-14 451574)
(-2.63413e+06 -44801.1 -7.80419e-15 -7136.41 -3.36465e-15 -655351)