/*--------------------------------*- C++ -*----------------------------------*\
| =========                 |                                                 |
| \\      /  F ield         | OpenFOAM: The Open Source CFD Toolbox           |
|  \\    /   O peration     | Version:  2.3.1                                 |
|   \\  /    A nd           | Web:      www.OpenFOAM.org                      |
|    \\/     M anipulation  |                                                 |
\*---------------------------------------------------------------------------*/
FoamFile
{
    version     2.0;
    format      ascii;
    class       volScalarField;
    location    "5380";
    object      sigmaEq;
}
// * * * * * * * * * * * * * * * * * * * * * * * * * * * * * * * * * * * * * //

dimensions      [1 -1 -2 0 0 0 0];

internalField   nonuniform List<scalar> 
11800
(
200340
136112
690676
584948
132227
405539
182567
201981
221954
234780
200301
839011
105166
623046
526883
2.2779e+06
138915
142009
263378
161023
463967
756493
981945
880377
1.86842e+06
1.16189e+06
1.23021e+06
611184
1.33699e+06
1.4447e+06
403959
128250
1.16854e+06
140861
148509
387531
151342
1.24644e+06
151723
168543
1.27495e+06
1.3859e+06
641836
1.49885e+06
426295
2.13297e+06
943342
1.10123e+06
185408
284743
882327
621469
146534
243466
2.43085e+06
1.97767e+06
73849.4
571194
446483
424320
1.97907e+06
163272
452736
371875
1.83226e+06
276311
907857
644032
73314.2
1.0752e+06
149673
124980
120947
1.87528e+06
1.96015e+06
374978
1.91844e+06
262735
206161
208809
2.47013e+06
140859
131497
133286
137802
1.3931e+06
434789
1.28662e+06
1.18195e+06
638406
145751
1.39167e+06
171421
70106.9
216454
179358
23273.9
179519
148504
738015
81540.7
814641
1.32037e+06
451809
158348
386060
210114
178547
1.93718e+06
1.30037e+06
1.40744e+06
1.19451e+06
440955
647106
262255
1.74868e+06
256139
158337
1.64163e+06
241154
233296
184102
209009
157543
168925
145100
148355
148354
105785
29941.9
2.20645e+06
1.48017e+06
472677
1.39709e+06
681338
1.28852e+06
1.18206e+06
411783
1.19585e+06
589126
1.10298e+06
1.01199e+06
594482
224344
286928
392124
1.45525e+06
1.48838e+06
849373
435831
236926
229100
148057
305332
280049
212800
561767
775414
1.53429e+06
154688
2.22604e+06
267932
1.95357e+06
564017
612454
661085
334848
248952
2.39068e+06
1.5027e+06
537746
742329
172411
440626
438037
2.13519e+06
2.1582e+06
1.15065e+06
1.05765e+06
1.24555e+06
563329
383855
294052
233643
532692
251652
387261
169837
197631
180347
278631
260554
249103
220745
1.10209e+06
1.39738e+06
1.94921e+06
132878
260443
2.29739e+06
154954
338763
379639
152565
158295
1.01056e+06
843833
777591
643678
2.20655e+06
680341
1.00622e+06
2.99973e+06
2.53606e+06
2.54419e+06
393510
142813
979754
900334
828504
307822
446753
141380
143577
258728
155309
1.45184e+06
292612
157237
552325
245672
197835
152743
781707
798376
2.99896e+06
1.45141e+06
258926
270606
1.36986e+06
1.12289e+06
383937
562840
1.24235e+06
1.15033e+06
1.0573e+06
157822
1.34247e+06
473673
654242
612166
174106
134361
478834
427300
158296
2.54387e+06
333022
384957
271525
314302
832338
904575
976871
444590
309684
149659
1.94468e+06
177644
85299.2
147348
487971
179885
641478
2.25922e+06
460352
456396
691260
499796
575791
418254
1.41499e+06
1.18274e+06
377936
474710
298202
360556
649429
854255
301331
1.37718e+06
1.47691e+06
1.77441e+06
192765
454575
451742
2.066e+06
2.08508e+06
1.26024e+06
1.24018e+06
1.28333e+06
1.26996e+06
145123
99592.6
341748
2.6555e+06
131101
137970
352734
285873
311557
1.09793e+06
1.12727e+06
1.84785e+06
2.54489e+06
798494
208609
1.04847e+06
868169
602952
492615
181088
194287
301456
537977
281050
498864
141300
188306
179068
156629
1.46442e+06
180691
137976
2.12428e+06
364515
826644
927358
902975
1.14194e+06
1.09891e+06
109620
108274
740415
971290
668853
1.73024e+06
132123
969661
752570
494548
372383
367464
281290
375009
323051
427376
467722
503203
175899
148716
917059
972600
202620
258960
532076
454631
510681
228999
213431
268509
274637
1.04866e+06
510945
374104
399051
1.27917e+06
1.48183e+06
383058
223308
208940
290477
268576
514045
596096
487776
571889
450712
528449
399262
379797
756526
387358
849132
1.46693e+06
742916
543288
2.33119e+06
144884
1.53998e+06
763342
553409
2.275e+06
158419
1.57437e+06
389425
1.31757e+06
1.21646e+06
1.18584e+06
213390
98996.8
131080
2.69366e+06
2.33159e+06
1.04752e+06
375471
512376
199415
273783
307310
163537
226708
1.78898e+06
71881
650596
500098
1.97015e+06
114510
193878
164343
161811
163109
162417
1.96975e+06
665847
262791
778812
718349
661154
131136
1.49748e+06
493337
692831
184857
979098
210774
1.89958e+06
145926
218659
563440
520467
479445
994176
263996
556624
484845
259406
781397
849899
919799
445659
316986
72527.6
192146
215477
2.44931e+06
859153
677231
486165
399761
205335
161607
118620
117770
209128
105545
123157
130113
183149
364215
159602
204831
663328
816455
382200
1.7425e+06
229502
413093
166249
202832
1.69427e+06
2.23379e+06
710154
770821
273148
242126
127238
1.48201e+06
2.17521e+06
1.9198e+06
2.76811e+06
917476
640373
836416
134573
204469
185717
211199
833371
153654
151795
135347
202256
1.48188e+06
333369
1.52177e+06
878942
189471
244206
1.20853e+06
1.55957e+06
828095
899912
969036
438593
305043
753901
151003
153099
149218
171719
134465
206219
104421
200166
103895
197798
89602.4
191497
175351
182231
122283
1.69475e+06
255874
282991
632166
1.00085e+06
136260
162065
142971
140252
123313
331286
483359
134478
133899
654098
128629
195927
1.8425e+06
87406.7
178432
587432
541076
565358
612461
628448
661248
310465
229173
2.14468e+06
2.6338e+06
559994
90591.2
394893
371900
425258
299915
906594
838768
771820
187955
91016.2
880452
819075
363598
405020
198769
703470
762957
258100
1.24259e+06
1.26088e+06
1.27545e+06
1.26195e+06
2.1182e+06
2.07267e+06
656370
2.51787e+06
925370
146757
1.75276e+06
1.5699e+06
1.706e+06
874476
352448
380804
201290
1.8073e+06
601368
757717
2.66631e+06
233504
293984
585103
576473
1.50293e+06
786507
2.23732e+06
145500
143891
304491
440439
976252
898048
826426
2.029e+06
164118
449110
963811
1.44259e+06
142002
2.38234e+06
2.22771e+06
2.31739e+06
268754
365661
138363
2.36949e+06
689645
273849
472922
2.2354e+06
157920
275382
291992
151286
540030
335546
2.69543e+06
2.38115e+06
223580
673303
861292
330411
393371
289617
252256
710664
206328
678227
499779
1.278e+06
1.11118e+06
186143
1.44979e+06
149579
459958
568187
1.92253e+06
367051
498598
275361
222338
208844
245643
472146
1.10579e+06
1.21764e+06
153893
145621
148639
200042
391152
1.46963e+06
122708
511786
927580
723773
255113
1.23091e+06
1.36109e+06
885697
1.47901e+06
1.60033e+06
665999
434657
175487
214246
409910
436697
381489
423543
210922
391592
455967
262752
151043
2.75485e+06
1.18882e+06
447670
608185
552694
266634
483899
709681
1.51921e+06
1.40228e+06
1.28707e+06
394931
467547
218128
238173
1.7221e+06
1.25516e+06
1.46868e+06
163068
223835
323364
776978
1.70391e+06
548570
106813
163410
2.4891e+06
2.33853e+06
280445
2.1406e+06
119047
175558
127383
823677
138070
246183
273302
1.54303e+06
1.67695e+06
1.81302e+06
1.95221e+06
891276
756783
628704
494070
212894
144256
486673
2.38993e+06
152634
148116
167434
157042
168704
175784
181193
1.84885e+06
932173
960874
566814
1.04691e+06
1.13526e+06
398339
1.32311e+06
316738
256996
160476
2.4623e+06
150862
187585
180784
188944
152037
2.23915e+06
319821
312323
1.19673e+06
399155
841268
296639
2.27903e+06
1.01159e+06
507777
375733
1.54674e+06
561598
208435
174583
154197
145637
263934
290085
278485
203085
548641
166952
147177
997623
1.11327e+06
125712
706830
1.01797e+06
862340
1.17116e+06
2.17678e+06
2.01724e+06
1.85824e+06
1.69765e+06
707019
862445
2.17719e+06
2.01791e+06
1.01808e+06
1.85889e+06
1.17158e+06
1.69932e+06
1.93775e+06
169163
144098
157738
281046
612064
1.3336e+06
149551
510578
702360
552234
763277
218346
285760
511871
750201
1.59387e+06
1.47098e+06
1.34963e+06
640696
473764
1.19421e+06
237750
304413
184908
392165
364864
332180
688089
535874
550812
408199
140552
814479
221870
421294
517105
1.27741e+06
697441
816027
653697
237194
310566
209551
182814
170968
202822
725776
610808
155481
247041
271725
563785
1.66963e+06
549558
773276
571926
173165
258455
242843
224102
306100
217802
740858
683865
624718
239912
1.77103e+06
848202
240466
1.09109e+06
737718
1.59702e+06
2.15138e+06
265421
296687
249889
161939
176526
900636
766612
2.24412e+06
145722
207916
419179
621517
265583
150563
909624
900614
62126.8
149831
432597
352315
95525
1.9725e+06
2.1526e+06
358902
130003
320564
457136
979175
831394
903998
2.45456e+06
145621
711692
802397
185926
733940
895857
1.05931e+06
1.21871e+06
2.2792e+06
2.11354e+06
1.94733e+06
1.78e+06
733450
895902
2.27857e+06
2.1122e+06
1.05822e+06
1.94616e+06
1.21863e+06
1.77961e+06
2.10232e+06
1.8078e+06
1.36223e+06
584271
666752
1.8091e+06
1.34059e+06
402049
128056
122622
1.34036e+06
2.39356e+06
179992
499751
1.96126e+06
1.34134e+06
2.15169e+06
2.19795e+06
1.44305e+06
1.44499e+06
660955
522679
684235
277707
208290
360732
175200
216484
270280
222766
499403
2.31861e+06
682841
224823
134880
435935
467176
2.11052e+06
440683
398872
509040
539986
1.37418e+06
656565
472844
1.75218e+06
503398
656987
232751
188055
451558
390938
421263
1.04303e+06
683636
664531
1.6049e+06
1.53461e+06
655472
693579
1.2065e+06
1.29551e+06
486330
511768
149549
212846
222713
665791
518296
88819
184940
213304
771118
732396
400915
779172
601820
237350
143769
143588
602062
1.45859e+06
139454
2.15161e+06
311599
882447
811780
246772
309659
524306
164511
137934
1.84828e+06
469724
1.20817e+06
1.11683e+06
1.02688e+06
374690
547737
186945
1.66344e+06
2.21474e+06
196736
158587
1.21818e+06
447924
612875
1.0585e+06
1.15089e+06
1.25753e+06
377254
551138
68529.1
883394
466131
2.20928e+06
362925
1.26982e+06
1.06174e+06
1.19215e+06
151916
156479
161511
171678
174013
150044
1.82988e+06
572079
212415
243499
272826
306557
385833
427275
876160
846993
810400
781210
719437
745084
1.25672e+06
189269
152028
146209
205900
233055
164962
187427
1.49909e+06
309660
565010
485637
1.24813e+06
659567
228971
238698
543135
419966
750282
613180
1.50027e+06
1.31891e+06
1.21848e+06
1.11893e+06
622357
1.72656e+06
860242
1.70766e+06
302436
250178
326107
315201
216744
194178
216549
1.74167e+06
2.24566e+06
406101
126597
301190
681726
530380
146558
170175
288193
273427
290301
266708
356288
334305
249195
577745
640876
624242
692171
530971
589595
642869
141541
1.42873e+06
1.13627e+06
600493
1.42081e+06
1.33408e+06
780743
2.24708e+06
426875
405532
459716
491501
225937
182182
194582
426073
160533
1.89375e+06
241179
153263
953832
66121.6
126317
1.86882e+06
212506
491359
1.56065e+06
722496
1.44103e+06
1.32292e+06
1.68462e+06
1.11857e+06
184739
724164
578778
236041
1.60879e+06
739867
233748
1.35519e+06
1.23671e+06
1.47233e+06
147043
150109
186126
2.71601e+06
326036
514892
629987
283772
154086
153722
491799
531345
203205
1.86885e+06
503737
1.91307e+06
290385
935270
151415
763308
912169
1.20231e+06
484947
654211
782880
311487
2.68331e+06
186360
129885
159156
2.28514e+06
1.49394e+06
379921
561038
1.26672e+06
1.17452e+06
1.08009e+06
2.35221e+06
727150
587935
2.33823e+06
2.64396e+06
1.82844e+06
85493.6
628186
1.56392e+06
1.17927e+06
644240
478605
1.19215e+06
1.06354e+06
487663
1.60413e+06
388044
312599
604617
534065
403174
1.84326e+06
2.80704e+06
135744
148469
178565
2.67457e+06
179939
214932
837785
646085
2.36446e+06
2.477e+06
146812
705182
240152
228881
584062
248629
150287
630037
140544
158590
2.82464e+06
1.24026e+06
690361
514284
462404
329131
942811
871081
800373
234786
2.50726e+06
491485
446248
514242
2.09862e+06
859891
1.26832e+06
170800
269525
202294
940619
585639
780642
135235
332972
455000
959486
338128
209528
177866
357153
2.33849e+06
341940
463381
951702
1.50931e+06
2.13345e+06
1.45164e+06
991701
791125
936413
94166.9
269977
379780
814517
752724
693666
2.13437e+06
164694
219926
235706
234986
235992
226915
340381
149149
150708
769442
1.94098e+06
556379
1.22848e+06
1.13524e+06
1.0438e+06
380772
2.19144e+06
709195
809726
970137
836692
1.34777e+06
2.14599e+06
642118
162221
819715
126944
1.02107e+06
614104
1.1129e+06
1.2073e+06
433866
1.39831e+06
344656
2.88949e+06
992933
152565
2.0039e+06
2.89867e+06
2.49557e+06
591962
145813
1.12422e+06
185864
176883
125105
309870
163825
170127
144781
154979
1.81899e+06
1.90954e+06
153871
1.24306e+06
198040
188421
149345
260698
1.32512e+06
1.32986e+06
301011
1.34863e+06
1.35055e+06
1.71479e+06
562895
208138
264908
363431
728713
790113
265037
70365.5
176822
849750
410746
1.00887e+06
1.13571e+06
1.23952e+06
1.34547e+06
693200
488274
354286
195688
167293
2.16453e+06
1.19805e+06
137954
247358
1.07578e+06
834991
455061
492712
218937
197629
367100
325724
123740
250772
167005
1.81859e+06
720552
1.74509e+06
161452
144041
2.89856e+06
143857
2.25116e+06
2.2256e+06
154980
1.04271e+06
528296
1.77959e+06
168367
991589
1.11747e+06
2.43081e+06
274495
167852
139398
551015
259868
357921
729539
668922
615880
178114
134688
205460
195792
1.29366e+06
1.4248e+06
971713
1.65936e+06
1.52658e+06
1.75961e+06
2.49248e+06
315307
794646
2.37334e+06
690720
2.22e+06
1.07369e+06
1.16753e+06
1.26364e+06
560434
378993
467104
544629
2.04946e+06
180008
214920
324140
306907
286506
202845
428037
395670
369808
902988
947516
2.74689e+06
307618
134391
188467
2.16356e+06
619252
339533
328281
2.11031e+06
1.11909e+06
772911
116041
222871
140320
1.10442e+06
1.40678e+06
352350
1.57525e+06
213577
206906
2.82331e+06
1.84738e+06
2.2606e+06
444929
593252
1.03414e+06
318087
819346
2.36542e+06
2.48517e+06
207919
239220
407320
330753
1.1919e+06
1.3319e+06
913493
1.02916e+06
2.63154e+06
2.41376e+06
308582
200834
115220
1.72982e+06
137305
2.28355e+06
447554
347705
1.22815e+06
395507
157137
2.11145e+06
236335
314422
116369
136023
1.56796e+06
549264
157704
858543
408616
223985
160929
140158
802363
143038
2.16388e+06
1.93476e+06
358547
977207
555004
157516
176391
1.66411e+06
198669
1.12515e+06
287312
622424
1.31967e+06
1.50451e+06
2.06836e+06
219698
349441
2.24606e+06
279965
171932
165324
191344
140965
2.29385e+06
1.80138e+06
417824
577860
994156
1.00246e+06
1.30079e+06
460594
634247
455477
662866
1.41242e+06
1.30466e+06
1.1978e+06
1.86225e+06
884075
630857
1.77832e+06
632750
1.93479e+06
728029
816525
2.1433e+06
2.89166e+06
2.48465e+06
495553
465522
1.34633e+06
646929
467789
147453
400201
2.05327e+06
169890
201337
2.63362e+06
1.96929e+06
2.25665e+06
1.06343e+06
1.31869e+06
1.32874e+06
1.148e+06
135200
127856
195221
131168
817298
888416
963754
452060
315635
690316
2.28905e+06
168840
227284
191252
175632
1.20173e+06
1.08579e+06
211623
2.03964e+06
2.30115e+06
1.38592e+06
1.13344e+06
1.85516e+06
2.13704e+06
130004
1.02327e+06
648857
1.43027e+06
187072
306966
328319
1.8385e+06
1.83135e+06
838809
428544
122585
149199
266197
562438
1.91731e+06
252930
1.47731e+06
172926
430568
287840
386954
663118
341406
518684
50459
14570.1
518489
2.70895e+06
236664
191989
191474
145785
132656
203838
210191
148953
149371
613964
147893
162248
205077
1.15638e+06
1.42475e+06
1.02735e+06
1.89194e+06
2.41475e+06
161748
230032
446805
191079
1.74126e+06
237758
2.53599e+06
272248
356518
690831
513626
269163
279199
649864
140101
166561
216894
135136
209128
132879
2.26484e+06
117858
176138
331463
131773
98590.4
2.14894e+06
240796
1.86199e+06
1.98781e+06
719293
459138
378974
553195
1.24165e+06
1.1589e+06
1.06583e+06
143813
1.36462e+06
701205
139600
2.29892e+06
148836
157261
433936
1.2653e+06
1.02955e+06
1.14074e+06
1.55361e+06
220726
164302
486655
721654
1.572e+06
838862
1.69532e+06
603233
1.45186e+06
1.33298e+06
480460
1.67919e+06
597866
1.55104e+06
710071
1.43265e+06
1.31542e+06
828884
1.66884e+06
209127
705572
552482
169658
217425
1.88052e+06
1.19437e+06
1.61569e+06
1.50372e+06
1.31184e+06
1.62242e+06
1.19967e+06
454426
497748
738063
1.7775e+06
162749
2.59032e+06
202306
163006
1.95165e+06
232790
371361
725679
715907
2.14084e+06
120909
1.36855e+06
1.26507e+06
1.16218e+06
422301
622494
2.62989e+06
445682
339286
787859
200097
825085
381060
393891
135128
227040
235891
205164
633863
131945
774969
413549
313426
1.06389e+06
1.41731e+06
1.42207e+06
1.06353e+06
518854
2.48949e+06
147222
148544
2.221e+06
2.00175e+06
1.2186e+06
2.88713e+06
1.3201e+06
1.13986e+06
1.16096e+06
2.56415e+06
1.30465e+06
1.04629e+06
2.27889e+06
487971
517943
778823
2.01112e+06
117846
1.7034e+06
201701
297375
474907
794286
864624
936704
460568
326664
515246
82768.5
88889.8
163000
176101
245530
202390
161095
216026
1.29008e+06
2.33521e+06
280355
203861
2.15002e+06
1.5832e+06
626777
851371
165755
173121
1.87564e+06
1.23698e+06
259853
992392
931266
1.23653e+06
143794
163612
168020
145055
1.47537e+06
2.37391e+06
2.31248e+06
1.57373e+06
2.501e+06
319954
131963
418725
1.27341e+06
1.16981e+06
1.3785e+06
628470
425586
2.66267e+06
588288
745103
974697
315553
265117
1.10668e+06
388576
199550
842382
321863
420004
2.45661e+06
427308
378697
1.32853e+06
1.22778e+06
1.12978e+06
568560
1.68133e+06
1.58486e+06
2.08222e+06
649110
669728
867183
1.77951e+06
855000
612693
1.58293e+06
306904
2.89862e+06
186579
2.21111e+06
593552
677977
161123
723391
1.39102e+06
162750
189351
187308
2.55683e+06
764732
702712
826802
409444
294086
368868
746451
1.66936e+06
754985
1.46677e+06
1.72498e+06
1.5959e+06
502477
1.62596e+06
1.23909e+06
1.31056e+06
1.55179e+06
1.63024e+06
1.24074e+06
1.32136e+06
1.55998e+06
899129
744322
56907.8
354960
214306
515053
761349
632150
882750
1.76617e+06
1.63976e+06
1.51415e+06
1.38985e+06
510011
1.40769e+06
702708
186158
125586
130487
231300
120698
604094
1.44194e+06
1.47038e+06
521876
2.41157e+06
189506
172639
1.87348e+06
2.32111e+06
105491
1.49101e+06
589775
800173
1.11855e+06
606258
397693
168225
590879
828013
71241.1
151930
2.43854e+06
321893
238469
592742
546319
641763
408718
148719
155821
414706
1.45751e+06
2.24818e+06
2.60302e+06
406801
452839
1.89697e+06
1.71007e+06
2.2208e+06
125306
1.22703e+06
2.16543e+06
2.6197e+06
2.70079e+06
2.64897e+06
701400
1.21622e+06
524004
2.50748e+06
1.90833e+06
784061
1.63466e+06
177744
153258
1.94631e+06
1.94798e+06
153693
522253
2.40327e+06
2.02629e+06
1.92943e+06
1.99701e+06
2.71206e+06
1.84363e+06
2.41481e+06
2.07889e+06
177274
329487
1.53878e+06
714377
1.25551e+06
263620
172928
218329
201817
177747
243306
214357
527783
2.42362e+06
1.47281e+06
521638
722217
1.57433e+06
199851
729031
505543
2.77146e+06
391895
381893
695239
401089
645627
286275
219591
2.25636e+06
18542.2
180900
180792
37228.2
571644
599398
213120
234320
249083
168997
630801
631559
146837
2.42222e+06
2.06285e+06
756299
1.5723e+06
542922
141163
1.83483e+06
406526
2.40348e+06
675778
825538
978027
1.12738e+06
2.12612e+06
1.97283e+06
1.81818e+06
1.66478e+06
674621
824948
2.12297e+06
1.96916e+06
976036
1.81482e+06
1.12568e+06
1.66163e+06
371999
282437
686983
752354
666082
314062
252550
213014
167793
155631
182588
149094
159261
274970
1.12744e+06
1.20991e+06
1.10066e+06
615483
1.19844e+06
1.3204e+06
2.02442e+06
863460
696455
2.13396e+06
712062
242472
153556
209164
165850
336154
309953
314291
158118
450205
356397
472673
969528
157465
248450
1.12731e+06
175059
122301
155326
133953
1.70845e+06
193811
224764
811397
647156
306239
807323
248910
149936
136267
2.52818e+06
2.61799e+06
1.61251e+06
1.32229e+06
1.29089e+06
1.64121e+06
2.57514e+06
1.33663e+06
143575
862232
483106
367385
533664
253017
2.42127e+06
267459
1.4494e+06
1.34139e+06
1.23274e+06
650215
439545
757220
444646
336904
2.44577e+06
282642
143823
801968
801675
367897
225426
278424
477006
970673
1.84377e+06
782116
626035
1.12632e+06
1.50598e+06
414044
606421
1.3082e+06
1.20757e+06
1.10904e+06
626207
673279
1.07968e+06
901893
1.26576e+06
671723
1.38888e+06
1.50861e+06
436723
1.63183e+06
2.89557e+06
2.03592e+06
126013
998644
1.08852e+06
1.18179e+06
358628
237237
1.76135e+06
306150
402446
495187
547208
232233
296179
234642
184348
1.70411e+06
1.31311e+06
1.37633e+06
1.64863e+06
374058
2.03569e+06
2.52346e+06
933220
159195
979950
1.06752e+06
1.15925e+06
1.07972e+06
1.24574e+06
351111
1.99875e+06
874312
821531
754333
889437
318847
446493
254638
234294
557771
655128
604951
695777
758149
820926
504934
501572
723136
725893
1.46506e+06
1.4583e+06
1.23909e+06
1.35099e+06
1.23278e+06
1.34446e+06
729142
791795
277986
169158
194200
235736
1.43466e+06
938610
153078
1.49326e+06
1.23992e+06
1.19044e+06
1.53857e+06
237810
533700
1.91297e+06
812747
1.76897e+06
1.62686e+06
124612
315223
1.31303e+06
786492
554399
1.74603e+06
604633
77034.7
1.34654e+06
1.2375e+06
1.45793e+06
654898
441598
1.77435e+06
696594
562968
2.37204e+06
701310
992722
235935
162024
398277
372467
341261
2.02465e+06
505136
331635
576108
531081
621306
311807
234226
1.3335e+06
1.49271e+06
236053
861289
178884
1.14313e+06
2.29575e+06
1.43497e+06
719074
536486
1.27609e+06
655567
582449
480922
312915
190059
480022
234189
590240
234142
394261
160246
184437
2.39653e+06
492678
2.0717e+06
1.20096e+06
1.28827e+06
697094
518686
1.23099e+06
2.18406e+06
135192
164957
167406
158286
432297
41894.8
13848.4
432132
914728
165533
975055
435528
292483
199222
654788
915003
1.89992e+06
144030
110220
195747
231976
503656
325012
1.29369e+06
1.15534e+06
272580
173363
134204
2.43574e+06
914673
147148
351096
169588
2.77156e+06
2.28098e+06
350075
264689
1.0127e+06
486505
692849
1.36035e+06
1.14913e+06
1.25356e+06
2.63937e+06
2.10384e+06
164225
1.96038e+06
2.62699e+06
2.06735e+06
2.30511e+06
985457
197143
1.31551e+06
328309
198885
248521
491738
540423
394714
394132
890094
288610
190720
139431
1.29037e+06
1.60343e+06
1.74206e+06
1.88279e+06
2.00946e+06
909143
774113
638256
500575
316150
134795
613836
28373.7
299459
299330
15388.6
669044
334285
262799
94399
422655
477204
149902
420378
1.25732e+06
1.01943e+06
702935
496168
565076
2.42432e+06
1.84715e+06
250020
793972
149957
163267
690545
813208
827563
1.63371e+06
486030
530743
156823
2.19059e+06
169481
385384
448315
417973
1.61269e+06
1.75197e+06
912968
952407
952082
691128
884287
1.63915e+06
1.56104e+06
1.56323e+06
544762
756475
129376
141954
133031
337205
154714
716873
1.53719e+06
1.36388e+06
1.67084e+06
1.22197e+06
1.68047e+06
1.22049e+06
827806
538350
1.47368e+06
1.07959e+06
1.47345e+06
1.08319e+06
349605
1.60825e+06
1.36478e+06
1.19684e+06
1.55855e+06
1.37913e+06
1.70049e+06
1.23784e+06
1.69818e+06
1.23709e+06
1.52021e+06
2.7791e+06
621629
872048
1.83115e+06
665833
160982
167797
278300
27577
278170
24358.8
153116
523994
1.62657e+06
1.49442e+06
1.76011e+06
784345
543001
2.47568e+06
77348.5
145498
303050
1.05161e+06
357420
985080
486131
2.5089e+06
2.53075e+06
1.50384e+06
179672
322225
1.7272e+06
929080
744085
492026
919331
844550
994991
345043
486820
2.56515e+06
602991
2.28826e+06
155725
150692
143969
154201
100489
2.26267e+06
181759
1.67528e+06
97462.6
1.22699e+06
1.53786e+06
185933
152669
233941
700925
243347
596497
549550
401288
434421
468973
193611
436752
589489
732411
490868
1.64965e+06
1.52626e+06
1.40244e+06
1.69531e+06
2.26271e+06
2.49476e+06
142004
138329
138552
152201
336233
197235
364174
2.51164e+06
2.55894e+06
2.59157e+06
1.95441e+06
77353.3
1.33695e+06
2.35417e+06
1.63452e+06
1.2929e+06
1.31692e+06
1.61255e+06
779347
680484
1.40179e+06
933669
1.63644e+06
112027
293335
381641
734725
303350
298994
338811
225816
258888
189549
220146
517532
518041
561414
561752
607311
604680
710553
697829
158387
155552
676907
433749
119063
252498
961848
1.63752e+06
160130
997201
2.1532e+06
672506
2.05229e+06
949904
255913
1.88661e+06
1.02322e+06
860108
1.36414e+06
2.2967e+06
2.70718e+06
1.0598e+06
462336
2.27494e+06
329526
236336
200694
498709
105332
954577
1.68027e+06
441212
662929
265473
149161
287543
2.45015e+06
446594
524415
506759
370775
1.05764e+06
331415
262932
1.0404e+06
231533
2.24783e+06
169602
1.33141e+06
497907
541631
2.08992e+06
1.79322e+06
1.08975e+06
1.95216e+06
2.11239e+06
934170
2.27345e+06
778221
621907
1.79626e+06
1.95529e+06
2.27934e+06
2.11613e+06
624034
936569
1.09298e+06
780643
2.26167e+06
223267
1.77547e+06
189326
124131
163502
10203.1
77681.3
978023
104474
1.7069e+06
357481
262747
675265
729032
622140
505975
338847
1.50778e+06
337471
364570
1.35229e+06
108053
533696
496060
494148
1.56264e+06
1.43611e+06
1.69041e+06
745089
615721
260670
453271
899743
1.7065e+06
75484.5
442504
257178
164068
563242
1.79348e+06
1.02593e+06
876591
1.89748e+06
206989
1.04803e+06
2.22417e+06
1.13032e+06
2.09187e+06
183230
2.36351e+06
276300
1.57487e+06
569914
703288
155342
17943.2
179702
179553
30647.4
301832
1.59244e+06
229710
1.98296e+06
890612
327314
1.54958e+06
1.48801e+06
1.68928e+06
1.62246e+06
1.83035e+06
1.75832e+06
858259
829893
583988
565533
648728
436358
1.45769e+06
1.34936e+06
1.24003e+06
388218
451995
418587
201640
1.37674e+06
1.2054e+06
98015.1
231668
169473
191387
201796
2.27028e+06
1.91511e+06
507429
1.6653e+06
1.53164e+06
1.79892e+06
133705
829641
1.54111e+06
1.61545e+06
152821
142718
1.83395e+06
576109
191452
343105
399280
370730
209573
638749
591219
547260
2.15073e+06
2.77397e+06
2.05555e+06
1.47505e+06
726243
523488
218047
237732
359294
256247
153199
134038
272926
790401
632565
155697
1.67182e+06
1.94437e+06
825443
708311
200940
193156
167337
180946
543242
1.83362e+06
1.46142e+06
1.13054e+06
1.16314e+06
1.38705e+06
146937
170291
254891
148765
154205
359864
2.86456e+06
2.27625e+06
175020
214527
993237
857087
594646
1.83991e+06
1.97915e+06
1.55829e+06
1.69842e+06
982736
518705
445597
482131
217380
277849
2.10509e+06
571828
1.348e+06
93229.8
1.94417e+06
175025
783025
910974
2.86443e+06
151115
808565
183838
756491
198704
476653
1.44096e+06
667885
1.67239e+06
1.08961e+06
1.82444e+06
1.97761e+06
941326
2.13152e+06
791668
642793
791632
643398
305784
939349
1.06052e+06
1.3896e+06
159541
263641
1.68377e+06
725752
2.63624e+06
2.13464e+06
2.39289e+06
428781
1.88556e+06
876354
689613
337628
256528
2.58857e+06
1.33138e+06
153806
2.79876e+06
2.37736e+06
80876.9
833858
680418
103875
1.06841e+06
874725
119002
222855
1.79169e+06
2.68983e+06
155763
967093
992122
1.96846e+06
1.90678e+06
701261
718577
701227
717009
163774
164128
164079
153965
127649
2.75378e+06
2.1624e+06
1.93903e+06
2.4475e+06
930965
503091
2.02173e+06
1.14248e+06
1.2464e+06
1.353e+06
80127.5
2.05109e+06
361990
1.54306e+06
2.18888e+06
652874
463438
2.79665e+06
763166
801058
559857
589970
1.49773e+06
1.4467e+06
243257
236753
128637
153772
488384
1.77338e+06
1.63972e+06
1.50842e+06
746311
2.7528e+06
160010
338484
146792
1.49068e+06
1.62466e+06
955227
1.75978e+06
816267
1.9119e+06
689984
1.81951e+06
1.54103e+06
1.67961e+06
1.95811e+06
552996
980824
846017
689955
149123
216637
232101
305716
579567
491967
533484
2.2932e+06
1.08065e+06
1.318e+06
2.10521e+06
243387
382274
154855
596351
837343
285411
401808
2.1192e+06
227211
146562
148159
151214
146581
91030.6
239743
186732
201609
1.84071e+06
2.17066e+06
183259
159896
207192
361313
794261
2.33541e+06
2.17828e+06
959317
155267
239285
1.87147e+06
159509
159737
2.83506e+06
1.10725e+06
2.15171e+06
614024
1.46157e+06
935725
908277
246509
1.00746e+06
1.55468e+06
755346
542958
208229
481023
155381
127187
140211
2.2979e+06
1.38623e+06
1.41468e+06
2.29525e+06
355904
381886
194041
726383
170306
153530
162823
462063
357609
36446.6
357491
24944.7
150622
1.42756e+06
435705
633553
1.33875e+06
1.23619e+06
1.13471e+06
222532
2.62516e+06
855536
506682
2.27193e+06
1.36979e+06
1.42152e+06
229685
22584.8
229549
23742.9
2.00085e+06
482267
845571
998532
921624
180523
2.12273e+06
509141
363266
1.17362e+06
902150
145405
48578.8
1.56697e+06
328720
1.56005e+06
404062
539171
988044
1.11015e+06
933276
197678
807086
330331
429001
199768
214466
765449
798467
264525
487057
164351
165721
1.28556e+06
647215
473802
171880
672998
17435.4
65278.6
672759
860799
695487
1.03181e+06
1.22444e+06
134878
2.60553e+06
2.70886e+06
343688
155158
173197
283958
311023
32189.4
310929
27727.5
1.38527e+06
476265
661795
2.52413e+06
2.56261e+06
2.19329e+06
1.97216e+06
1.20247e+06
1.06608e+06
1.0208e+06
904909
2.13589e+06
309819
616921
215907
136144
153428
448471
630100
902950
2.50204e+06
2.52274e+06
315806
166201
833677
905197
301355
1.37467e+06
566547
461495
1.97868e+06
190500
171827
238108
1.35495e+06
1.36539e+06
1.43944e+06
913126
456210
638700
98270.9
101261
1.54341e+06
157657
1.37635e+06
178960
681902
1.1095e+06
972421
1.60461e+06
1.87706e+06
156686
215772
513124
2.23202e+06
10623.6
131346
38963.3
132084
360675
326983
98537.5
2.38771e+06
42544.6
2.25996e+06
588379
57059.2
18392.4
588173
392935
191216
22032.4
191236
500058
2.16592e+06
504561
2.35202e+06
2.72108e+06
78431.5
794313
937025
865266
1.1158e+06
537957
390761
1.19337e+06
741003
129816
291610
470706
334930
842165
1.11018e+06
307953
309469
2.61397e+06
959292
1.11402e+06
1.03592e+06
1.19624e+06
1.65446e+06
140932
165377
1.38414e+06
1.67892e+06
556238
325112
375165
186276
378292
569891
161670
297471
435191
160810
112701
1.51425e+06
1.76675e+06
348124
772377
601209
615120
1.89304e+06
870179
374172
284895
726645
591748
144418
438687
1.67879e+06
2.16054e+06
586564
406848
1.03536e+06
1.22138e+06
1.12776e+06
91989.8
156045
425248
296873
1.60034e+06
580567
121056
61075.7
96914.7
570814
398022
1.00223e+06
1.18223e+06
1.0917e+06
157806
2.32462e+06
2.65795e+06
173670
182076
173036
168617
2.33398e+06
470450
344247
999413
2.88164e+06
2.31068e+06
668000
225640
612728
566097
342932
320555
364928
198757
170145
173498
500931
2.26026e+06
122824
1.28174e+06
1.38819e+06
2.16884e+06
1.56626e+06
1.52867e+06
588225
580029
793691
806286
359188
411622
351168
153577
148284
934185
301564
2.10796e+06
1.4675e+06
375607
149599
892376
2.68725e+06
146020
1.4676e+06
1.22126e+06
1.16298e+06
1.51573e+06
1.02597e+06
444121
622461
1.36607e+06
233868
997215
432111
485150
245738
488962
307556
400357
1.09826e+06
546125
224224
193359
264284
1.42091e+06
1.16674e+06
247058
235793
219106
253787
154565
746569
575113
134822
543631
157320
311049
503509
2.45939e+06
2.16516e+06
1.46751e+06
435721
304782
975047
905256
833489
391511
387508
189196
1.32996e+06
175309
769568
998360
284471
238138
2.18971e+06
121460
442565
413057
192458
2.317e+06
119309
149049
665504
783874
229910
218116
241751
170660
159004
1.4682e+06
122384
180777
22491.3
180736
1.46774e+06
1.4055e+06
2.6621e+06
1.57159e+06
1.99055e+06
155829
2.05296e+06
1.41368e+06
20344.7
147679
351719
262370
602484
654248
704809
919817
522310
2.16534e+06
1.28445e+06
1.3906e+06
216108
140058
136457
159329
168772
179985
289871
1.23105e+06
147667