/*--------------------------------*- C++ -*----------------------------------*\
| =========                 |                                                 |
| \\      /  F ield         | OpenFOAM: The Open Source CFD Toolbox           |
|  \\    /   O peration     | Version:  2.3.1                                 |
|   \\  /    A nd           | Web:      www.OpenFOAM.org                      |
|    \\/     M anipulation  |                                                 |
\*---------------------------------------------------------------------------*/
FoamFile
{
    version     2.0;
    format      ascii;
    class       surfaceScalarField;
    location    "0.87";
    object      phi;
}
// * * * * * * * * * * * * * * * * * * * * * * * * * * * * * * * * * * * * * //

dimensions      [0 3 -1 0 0 0 0];

internalField   nonuniform List<scalar> 
2700
(
2.70122e-06
4.89496e-05
-4.59218e-05
2.36056e-06
4.78644e-05
-4.75254e-05
1.36571e-06
4.82557e-05
-4.72624e-05
8.63169e-07
4.82425e-05
-4.77404e-05
2.38134e-07
4.84343e-05
-4.78122e-05
-2.97823e-07
4.84053e-05
-4.78712e-05
-6.5096e-07
4.82081e-05
-4.78585e-05
-7.01893e-07
4.78849e-05
-4.78337e-05
-4.25624e-07
4.75444e-05
-4.78245e-05
4.7308e-05
-4.77379e-05
8.52931e-07
0.000100514
-5.24258e-05
1.35014e-06
0.000100556
-5.31973e-05
1.35478e-06
0.000101515
-5.32717e-05
8.85395e-07
0.000102171
-5.34698e-05
2.01181e-07
0.00010265
-5.35409e-05
-4.78496e-07
0.000102648
-5.35753e-05
-9.28309e-07
0.000102194
-5.35453e-05
-9.24407e-07
0.000101375
-5.35035e-05
-4.41478e-07
0.00010046
-5.3408e-05
9.94194e-05
-5.25606e-05
1.4977e-06
0.000161179
-6.21682e-05
2.19994e-06
0.00016338
-6.35372e-05
2.11807e-06
0.000165307
-6.3723e-05
1.31539e-06
0.000166872
-6.39123e-05
1.98754e-07
0.000167768
-6.4017e-05
-9.13293e-07
0.00016779
-6.4043e-05
-1.69611e-06
0.000166948
-6.39864e-05
-1.7724e-06
0.000165343
-6.39022e-05
-1.07395e-06
0.000163501
-6.37506e-05
0.000161039
-6.26961e-05
2.10906e-06
0.000237059
-7.79802e-05
3.16366e-06
0.000241225
-7.88909e-05
3.07984e-06
0.000244275
-7.88765e-05
1.88879e-06
0.000247004
-7.89402e-05
2.06317e-07
0.000248468
-7.90135e-05
-1.48318e-06
0.000248516
-7.90351e-05
-2.69476e-06
0.00024716
-7.89969e-05
-2.84154e-06
0.000244485
-7.89876e-05
-1.88567e-06
0.000241573
-7.90132e-05
0.000237346
-7.81704e-05
8.01464e-06
-0.000114896
0.000344006
9.49072e-06
-0.00011734
0.000357154
8.00305e-06
-0.000118143
0.000363968
4.51649e-06
-0.00011871
0.000369256
3.10139e-07
-0.000119051
0.00037178
-3.89459e-06
-0.000119082
0.000371857
-7.38979e-06
-0.000118802
0.000369516
-8.93708e-06
-0.000118299
0.0003644
-7.62409e-06
-0.000117551
0.000357888
-0.000115154
0.000344943
7.39731e-07
4.26541e-05
-8.93199e-05
9.59136e-07
4.37125e-05
-9.14603e-05
9.65617e-07
4.42895e-05
-9.15607e-05
6.45966e-07
4.45106e-05
-9.19348e-05
1.73258e-07
4.47052e-05
-9.20475e-05
-3.06965e-07
4.46966e-05
-9.20931e-05
-6.49812e-07
4.45101e-05
-9.20284e-05
-7.70718e-07
4.41871e-05
-9.19028e-05
-6.16576e-07
4.3772e-05
-9.17549e-05
4.27107e-05
-9.10716e-05
7.4057e-07
8.91376e-05
-9.96549e-05
1.1778e-06
9.08348e-05
-0.000100766
1.21393e-06
9.1929e-05
-0.000100957
7.90326e-07
9.26989e-05
-0.000101243
1.68511e-07
9.31641e-05
-0.00010139
-4.65488e-07
9.31725e-05
-0.000101427
-9.15543e-07
9.27375e-05
-0.000101335
-1.01264e-06
9.1939e-05
-0.000101165
-6.95213e-07
9.09794e-05
-0.000100944
8.93512e-05
-9.99028e-05
1.57851e-06
0.000143056
-0.000117674
2.11714e-06
0.000145761
-0.00011901
1.98516e-06
0.000147711
-0.000119381
1.22093e-06
0.000149295
-0.000119759
1.77984e-07
0.000150162
-0.000119982
-8.74804e-07
0.000150186
-0.000120019
-1.6515e-06
0.000149378
-0.00011986
-1.86372e-06
0.000147816
-0.000119578
-1.38192e-06
0.000145975
-0.000119235
0.000143295
-0.000118023
2.93752e-06
0.000207871
-0.000145716
3.51406e-06
0.00021359
-0.000147285
3.127e-06
0.000216921
-0.000147691
1.86039e-06
0.000219744
-0.000148118
1.91728e-07
0.000221209
-0.000148393
-1.48324e-06
0.000221259
-0.000148428
-2.77723e-06
0.000219899
-0.000148223
-3.23599e-06
0.000217167
-0.000147867
-2.75999e-06
0.000213999
-0.000147497
0.000208351
-0.000145963
7.77253e-06
-0.000204023
0.000289283
9.01602e-06
-0.000206639
0.000301708
7.50427e-06
-0.000208114
0.00030846
4.20768e-06
-0.000209418
0.000313795
2.85706e-07
-0.000210163
0.000316294
-3.63688e-06
-0.000210222
0.000316368
-6.94159e-06
-0.000209589
0.000314047
-8.50851e-06
-0.000208396
0.000308895
-7.42893e-06
-0.000207015
0.000302459
-0.000204473
0.000290303
1.07074e-06
3.43765e-05
-0.000124771
1.05461e-06
3.49541e-05
-0.000126404
8.68233e-07
3.53309e-05
-0.00012671
5.3192e-07
3.55304e-05
-0.000127134
1.38077e-07
3.56784e-05
-0.000127338
-2.50959e-07
3.56751e-05
-0.000127385
-5.38277e-07
3.55181e-05
-0.000127265
-6.61957e-07
3.52437e-05
-0.000127026
-5.78686e-07
3.48792e-05
-0.000126725
3.39132e-05
-0.00012557
8.92983e-07
7.07184e-05
-0.000136898
1.1152e-06
7.21019e-05
-0.000138144
1.04342e-06
7.2983e-05
-0.000138544
6.56442e-07
7.36396e-05
-0.000138976
1.38826e-07
7.40209e-05
-0.000139223
-3.82803e-07
7.40265e-05
-0.000139268
-7.64229e-07
7.36599e-05
-0.000139102
-8.84975e-07
7.29777e-05
-0.000138788
-6.78285e-07
7.2133e-05
-0.000138414
7.06014e-05
-0.000137276
1.488e-06
0.000111954
-0.000160397
1.85756e-06
0.00011452
-0.000161802
1.67051e-06
0.000116226
-0.000162443
1.0129e-06
0.000117589
-0.000163057
1.43325e-07
0.000118318
-0.000163422
-7.27667e-07
0.00011834
-0.000163467
-1.39424e-06
0.000117649
-0.000163195
-1.62816e-06
0.000116311
-0.000162681
-1.30218e-06
0.000114666
-0.000162099
0.000112061
-0.000160781
2.79981e-06
0.000160353
-0.000196906
3.20721e-06
0.000165729
-0.000198885
2.74839e-06
0.000168829
-0.00019982
1.60135e-06
0.000171314
-0.000200696
1.57884e-07
0.000172587
-0.000201209
-1.29358e-06
0.000172623
-0.000201262
-2.45359e-06
0.00017144
-0.000200845
-2.96332e-06
0.000169035
-0.000200068
-2.6408e-06
0.00016607
-0.000199203
0.000160747
-0.00019727
6.85419e-06
-0.000262658
0.000212196
7.66856e-06
-0.00026606
0.000224395
6.25303e-06
-0.000268381
0.000230558
3.46994e-06
-0.000270421
0.000235147
2.2698e-07
-0.000271557
0.00023726
-3.01072e-06
-0.000271635
0.000237319
-5.7984e-06
-0.000270658
0.000235343
-7.24757e-06
-0.000268767
0.000230915
-6.57767e-06
-0.000266586
0.000225036
-0.000263288
0.000213039
5.28788e-07
2.25812e-05
-0.000147889
5.55869e-07
2.30796e-05
-0.000149518
4.99144e-07
2.33295e-05
-0.000149991
3.15918e-07
2.34906e-05
-0.000150448
8.85574e-08
2.3592e-05
-0.00015071
-1.38384e-07
2.35904e-05
-0.000150756
-3.12206e-07
2.34852e-05
-0.000150583
-3.96847e-07
2.32997e-05
-0.000150247
-3.63322e-07
2.30593e-05
-0.000149827
2.24744e-05
-0.000148416
5.053e-07
4.66919e-05
-0.000161519
6.70838e-07
4.76627e-05
-0.000162901
6.39238e-07
4.82701e-05
-0.000163461
4.07132e-07
4.87387e-05
-0.000164
9.18185e-08
4.89994e-05
-0.000164325
-2.25469e-07
4.90043e-05
-0.000164372
-4.63441e-07
4.87499e-05
-0.000164139
-5.37001e-07
4.82792e-05
-0.000163699
-3.98746e-07
4.76911e-05
-0.000163193
4.66884e-05
-0.000161892
9.20101e-07
7.35116e-05
-0.000188142
1.19488e-06
7.53052e-05
-0.00018972
1.07794e-06
7.65299e-05
-0.000190585
6.52455e-07
7.74941e-05
-0.000191395
9.6244e-08
7.80068e-05
-0.000191875
-4.65407e-07
7.80176e-05
-0.000191928
-8.9845e-07
7.75337e-05
-0.000191548
-1.05167e-06
7.65887e-05
-0.000190842
-8.19684e-07
7.54072e-05
-0.000190045
7.36145e-05
-0.000188524
1.9046e-06
0.000103925
-0.000229202
2.23456e-06
0.000107707
-0.000231598
1.89391e-06
0.000110062
-0.000233
1.09473e-06
0.000111872
-0.000234261
1.03789e-07
0.000112783
-0.000234992
-8.8763e-07
0.000112809
-0.000235051
-1.69943e-06
0.000111948
-0.000234443
-2.06981e-06
0.000110204
-0.000233293
-1.80252e-06
0.000107941
-0.000231985
0.000104201
-0.000229637
4.69796e-06
-0.000294318
0.000130929
5.26071e-06
-0.000298577
0.000139712
4.2441e-06
-0.000301555
0.000144302
2.3325e-06
-0.000304109
0.000147504
1.48416e-07
-0.000305515
0.000148967
-2.03443e-06
-0.000305606
0.000148995
-3.94316e-06
-0.000304376
0.000147625
-4.98408e-06
-0.000302001
0.000144526
-4.52181e-06
-0.000299183
0.000140135
-0.000295024
0.000131455
1.41274e-07
9.54191e-06
-0.000157582
1.07544e-07
9.72101e-06
-0.000159217
8.514e-08
9.81028e-06
-0.000159788
5.82261e-08
9.86565e-06
-0.000160297
4.24227e-08
9.89984e-06
-0.000160603
2.64379e-08
9.89724e-06
-0.000160647
5.38281e-09
9.85755e-06
-0.000160428
-2.82415e-08
9.78921e-06
-0.000160011
-5.98799e-08
9.69599e-06
-0.000159503
9.47958e-06
-0.000157963
1.22496e-07
1.9929e-05
-0.000172039
1.40565e-07
2.03106e-05
-0.000173515
1.31271e-07
2.05593e-05
-0.000174208
8.92102e-08
2.07456e-05
-0.000174846
4.38014e-08
2.08467e-05
-0.000175234
-3.63903e-09
2.08451e-05
-0.000175281
-4.64238e-08
2.07413e-05
-0.000174986
-7.39719e-08
2.05472e-05
-0.000174439
-6.79649e-08
2.02996e-05
-0.000173811
1.99003e-05
-0.000172385
2.89182e-07
3.18176e-05
-0.000200317
3.50884e-07
3.2604e-05
-0.000202077
3.03633e-07
3.31753e-05
-0.000203156
1.83938e-07
3.36101e-05
-0.000204142
4.21372e-08
3.3833e-05
-0.000204725
-9.99247e-08
3.38362e-05
-0.000204779
-2.25032e-07
3.36141e-05
-0.000204304
-2.87292e-07
3.31857e-05
-0.000203418
-2.44171e-07
3.26261e-05
-0.000202418
3.18395e-05
-0.000200702
7.46077e-07
4.54556e-05
-0.00024358
8.40723e-07
4.7274e-05
-0.000246346
6.78206e-07
4.85134e-05
-0.000248159
3.78841e-07
4.94087e-05
-0.000249757
4.40565e-08
4.98562e-05
-0.000250667
-2.9665e-07
4.98601e-05
-0.000250735
-5.96101e-07
4.94357e-05
-0.000249953
-7.72295e-07
4.85595e-05
-0.000248482
-7.02775e-07
4.73648e-05
-0.000246773
4.55661e-05
-0.000244055
2.10582e-06
-0.000306916
5.60017e-05
2.28769e-06
-0.000311769
6.03264e-05
1.76409e-06
-0.000315254
6.27667e-05
9.43117e-07
-0.000318187
6.43503e-05
5.67895e-08
-0.000319799
6.50505e-05
-8.25014e-07
-0.000319889
6.50607e-05
-1.64487e-06
-0.00031847
6.43806e-05
-2.16943e-06
-0.000315717
6.28502e-05
-2.03367e-06
-0.000312412
6.04948e-05
-0.00030765
5.61954e-05
-2.90686e-07
-4.33507e-06
-0.000152972
-4.24554e-07
-4.52258e-06
-0.000154573
-3.95623e-07
-4.62689e-06
-0.000155204
-2.3644e-07
-4.71733e-06
-0.00015575
-1.19946e-09
-4.77063e-06
-0.00015608
2.37728e-07
-4.77578e-06
-0.000156121
4.01831e-07
-4.73306e-06
-0.00015587
4.33288e-07
-4.65512e-06
-0.0001554
3.06979e-07
-4.56169e-06
-0.000154829
-4.39017e-06
-0.000153275
-3.32933e-07
-8.38286e-06
-0.000167666
-5.02603e-07
-8.66922e-06
-0.000169212
-4.7455e-07
-8.86116e-06
-0.000170012
-2.83639e-07
-9.03477e-06
-0.000170731
-2.27415e-09
-9.13436e-06
-0.000171162
2.79615e-07
-9.14294e-06
-0.000171206
4.73444e-07
-9.0624e-06
-0.000170864
5.02868e-07
-8.90714e-06
-0.000170227
3.39442e-07
-8.73198e-06
-0.000169492
-8.45756e-06
-0.000167983
-4.75061e-07
-1.15916e-05
-0.000196644
-6.84227e-07
-1.19351e-05
-0.000198608
-6.3892e-07
-1.21701e-05
-0.000199899
-3.806e-07
-1.23969e-05
-0.000201049
-1.11282e-08
-1.25237e-05
-0.000201714
3.57512e-07
-1.25365e-05
-0.000201769
6.19639e-07
-1.24302e-05
-0.000201207
6.66393e-07
-1.22286e-05
-0.000200159
4.6825e-07
-1.20098e-05
-0.000198947
-1.16734e-05
-0.000197022
-6.84267e-07
-1.30397e-05
-0.000241437
-9.28738e-07
-1.33348e-05
-0.000244701
-8.55996e-07
-1.34464e-05
-0.000246958
-5.06571e-07
-1.3609e-05
-0.000248895
-2.42168e-08
-1.37083e-05
-0.000249974
4.616e-07
-1.37166e-05
-0.00025004
8.10973e-07
-1.36451e-05
-0.0002491
8.93091e-07
-1.34969e-05
-0.000247291
6.66732e-07
-1.34031e-05
-0.000245155
-1.3113e-05
-0.000241944
-8.17495e-07
-0.000304401
-1.47309e-05
-1.12436e-06
-0.000310093
-1.46845e-05
-1.06244e-06
-0.000314158
-1.45782e-05
-6.38502e-07
-0.000317526
-1.46892e-05
-3.23487e-08
-0.000319329
-1.47588e-05
5.64055e-07
-0.000319424
-1.4772e-05
1.00016e-06
-0.000317807
-1.47243e-05
1.0703e-06
-0.000314633
-1.46335e-05
7.88717e-07
-0.000310755
-1.47516e-05
-0.000305154
-1.48115e-05
-7.44197e-07
-1.85092e-05
-0.000133733
-1.00754e-06
-1.91437e-05
-0.000135185
-9.19609e-07
-1.94875e-05
-0.000135819
-5.58761e-07
-1.97661e-05
-0.000136363
-4.04623e-08
-1.99252e-05
-0.000136688
4.80734e-07
-1.99341e-05
-0.000136722
8.5298e-07
-1.97938e-05
-0.000136464
9.55534e-07
-1.95337e-05
-0.000135984
7.20124e-07
-1.92099e-05
-0.000135403
-1.85848e-05
-0.000133979
-8.78635e-07
-3.74976e-05
-0.00014782
-1.25538e-06
-3.85849e-05
-0.00014941
-1.16623e-06
-3.9324e-05
-0.000150282
-7.03366e-07
-3.99409e-05
-0.000151036
-4.75458e-08
-4.02815e-05
-0.000151479
6.11162e-07
-4.02999e-05
-0.000151519
1.08477e-06
-3.99948e-05
-0.000151153
1.18939e-06
-3.94165e-05
-0.000150472
8.43666e-07
-3.87131e-05
-0.00014966
-3.76391e-05
-0.000148096
-1.42943e-06
-5.63856e-05
-0.000176335
-1.93525e-06
-5.81099e-05
-0.000178601
-1.74696e-06
-5.93281e-05
-0.000180105
-1.0318e-06
-6.03459e-05
-0.000181383
-6.57292e-08
-6.08884e-05
-0.000182101
9.04259e-07
-6.09125e-05
-0.000182148
1.62709e-06
-6.04267e-05
-0.000181531
1.83698e-06
-5.94611e-05
-0.000180345
1.37518e-06
-5.83011e-05
-0.000178926
-5.65982e-05
-0.000176697
-2.53479e-06
-7.33446e-05
-0.000221972
-3.14607e-06
-7.61269e-05
-0.000226093
-2.72638e-06
-7.78414e-05
-0.000228887
-1.56866e-06
-7.92659e-05
-0.000231164
-9.05446e-08
-7.99865e-05
-0.000232377
1.38338e-06
-8.002e-05
-0.000232443
2.55275e-06
-7.93611e-05
-0.000231357
2.99297e-06
-7.80085e-05
-0.000229218
2.45165e-06
-7.63734e-05
-0.000226555
-7.36198e-05
-0.000222489
-4.32389e-06
-0.000287284
-8.61389e-05
-5.11573e-06
-0.000295122
-9.03232e-05
-4.31356e-06
-0.000300214
-9.26085e-05
-2.41963e-06
-0.000304191
-9.45075e-05
-1.30317e-07
-0.000306213
-9.542e-05
2.16012e-06
-0.000306295
-9.5451e-05
4.05331e-06
-0.000304462
-9.46291e-05
4.88502e-06
-0.000300673
-9.28007e-05
4.19179e-06
-0.000295814
-9.06395e-05
-0.000288074
-8.65122e-05
-1.2006e-06
-3.2344e-05
-0.000100212
-1.59768e-06
-3.3564e-05
-0.000101243
-1.44898e-06
-3.42182e-05
-0.00010177
-8.78351e-07
-3.47308e-05
-0.000102222
-7.47937e-08
-3.50157e-05
-0.000102493
7.33209e-07
-3.50299e-05
-0.000102519
1.32081e-06
-3.47718e-05
-0.000102297
1.49539e-06
-3.42894e-05
-0.000101893
1.14518e-06
-3.36654e-05
-0.000101405
-3.24528e-05
-0.000100393
-1.5387e-06
-6.63957e-05
-0.000112244
-2.09703e-06
-6.8525e-05
-0.000113919
-1.90466e-06
-6.99636e-05
-0.000114754
-1.14018e-06
-7.11297e-05
-0.000115429
-8.74144e-08
-7.1757e-05
-0.000115819
9.71428e-07
-7.17832e-05
-0.000115848
1.74982e-06
-7.12163e-05
-0.000115521
1.97261e-06
-7.01081e-05
-0.000114902
1.46966e-06
-6.8734e-05
-0.000114121
-6.66273e-05
-0.000112465
-2.69072e-06
-0.000102348
-0.000137734
-3.43024e-06
-0.000105998
-0.000140421
-3.00111e-06
-0.000108531
-0.000142006
-1.74549e-06
-0.000110564
-0.000143249
-1.13648e-07
-0.000111609
-0.000143919
1.51696e-06
-0.000111652
-0.00014396
2.78934e-06
-0.000110691
-0.000143365
3.24851e-06
-0.000108757
-0.000142208
2.58984e-06
-0.000106328
-0.000140703
-0.000102718
-0.000138042
-5.09591e-06
-0.000137909
-0.000181339
-5.95276e-06
-0.000144516
-0.000186774
-4.96367e-06
-0.000148462
-0.000189999
-2.78513e-06
-0.000151556
-0.000192404
-1.5759e-07
-0.000153057
-0.00019362
2.47136e-06
-0.000153104
-0.000193668
4.64982e-06
-0.000151725
-0.000192573
5.67486e-06
-0.000148749
-0.000190286
4.94246e-06
-0.000144988
-0.000187218
-0.000138449
-0.000181838
-9.30653e-06
-0.000248573
-0.000167387
-1.02147e-05
-0.000260498
-0.000178283
-8.19571e-06
-0.000266881
-0.000183868
-4.45185e-06
-0.000271366
-0.000188195
-2.14775e-07
-0.000273447
-0.000190117
4.00204e-06
-0.00027352
-0.000190178
7.74214e-06
-0.000271589
-0.000188386
9.76589e-06
-0.000267301
-0.000184211
9.05739e-06
-0.000261221
-0.000178908
-0.000249382
-0.00016812
-1.51467e-06
-4.45204e-05
-5.41922e-05
-2.07404e-06
-4.61417e-05
-5.45653e-05
-1.89302e-06
-4.7109e-05
-5.48638e-05
-1.14678e-06
-4.78677e-05
-5.51225e-05
-1.0104e-07
-4.82813e-05
-5.52809e-05
9.5267e-07
-4.82981e-05
-5.52937e-05
1.71641e-06
-4.79238e-05
-5.51636e-05
1.93444e-06
-4.72029e-05
-5.493e-05
1.4379e-06
-4.62797e-05
-5.46547e-05
-4.46721e-05
-5.42944e-05
-2.04874e-06
-9.28096e-05
-6.19399e-05
-2.82792e-06
-9.59032e-05
-6.34058e-05
-2.56466e-06
-9.81379e-05
-6.40207e-05
-1.52678e-06
-9.99162e-05
-6.4455e-05
-1.16265e-07
-0.000100844
-6.46981e-05
1.29659e-06
-0.000100882
-6.47159e-05
2.35476e-06
-0.000100029
-6.45048e-05
2.65373e-06
-9.8339e-05
-6.41086e-05
1.95081e-06
-9.61959e-05
-6.35288e-05
-9.31368e-05
-6.20701e-05
-3.91216e-06
-0.000147119
-7.95345e-05
-4.91915e-06
-0.000153148
-8.22208e-05
-4.23157e-06
-0.000157362
-8.35231e-05
-2.42287e-06
-0.00016062
-8.44051e-05
-1.5456e-07
-0.000162237
-8.48554e-05
2.11908e-06
-0.000162288
-8.48746e-05
3.93403e-06
-0.000160802
-8.44768e-05
4.66591e-06
-0.000157675
-8.3644e-05
3.76979e-06
-0.000153645
-8.24129e-05
-0.000147688
-7.97438e-05
-8.0975e-06
-0.000207494
-0.000112952
-9.11965e-06
-0.000220023
-0.000118944
-7.3684e-06
-0.000227307
-0.000121879
-4.03669e-06
-0.000232709
-0.000123734
-2.08023e-07
-0.000235178
-0.000124578
3.60047e-06
-0.000235253
-0.000124613
6.93458e-06
-0.000232942
-0.000123827
8.70054e-06
-0.000227744
-0.000122073
7.86874e-06
-0.000220798
-0.000119278
-0.000208386
-0.000113321
-1.6339e-05
-0.000173925
-0.000265866
-1.66669e-05
-0.000190366
-0.000289921
-1.2679e-05
-0.000197101
-0.000301173
-6.60738e-06
-0.00020088
-0.000309364
-2.90849e-07
-0.000202363
-0.000312698
6.00458e-06
-0.00020239
-0.00031277
1.20164e-05
-0.000201013
-0.00030965
1.59704e-05
-0.000197374
-0.00030169
1.59603e-05
-0.000191047
-0.000291051
-0.000174661
-0.000267185
-1.55084e-06
-5.26582e-05
-2.27254e-06
-5.38591e-05
-2.12297e-06
-5.50301e-05
-1.29009e-06
-5.59737e-05
-1.12604e-07
-5.64741e-05
1.06947e-06
-5.64947e-05
1.92376e-06
-5.60348e-05
2.11179e-06
-5.51393e-05
1.46108e-06
-5.40189e-05
-5.28417e-05
-2.29211e-06
-0.00011232
-3.26218e-06
-0.00011632
-2.97757e-06
-0.000119363
-1.76044e-06
-0.000121672
-1.32093e-07
-0.00012283
1.50187e-06
-0.000122869
2.73336e-06
-0.000121805
3.05961e-06
-0.000119598
2.17675e-06
-0.000116691
-0.000112746
-5.01439e-06
-0.000186884
-6.1263e-06
-0.000197467
-5.15165e-06
-0.000203902
-2.89327e-06
-0.000208383
-1.72183e-07
-0.000210446
2.53946e-06
-0.00021051
4.80583e-06
-0.000208585
5.80998e-06
-0.000204295
4.8373e-06
-0.000198158
-0.000187675
-1.18931e-05
-0.000287974
-1.23716e-05
-0.000315995
-9.45214e-06
-0.000328766
-4.96982e-06
-0.000336659
-2.40572e-07
-0.000339831
4.47471e-06
-0.000339893
8.90736e-06
-0.000336925
1.18003e-05
-0.000329299
1.15923e-05
-0.00031729
-0.00028942
-2.94433e-05
-0.000432542
-2.56587e-05
-0.000510218
-1.72636e-05
-0.000534343
-8.34735e-06
-0.000546557
-3.16308e-07
-0.000550303
7.63846e-06
-0.000550352
1.64095e-05
-0.000546767
2.46072e-05
-0.000534971
2.89015e-05
-0.000512671
-0.000435205
-7.71295e-05
-0.000655493
0.00030001
-5.61317e-05
-0.000878583
0.000347244
-3.02848e-05
-0.000923452
0.000363113
-1.30426e-05
-0.000934964
0.000371022
-3.87575e-07
-0.000936683
0.000373551
1.21509e-05
-0.000936605
0.000373592
2.89097e-05
-0.000934883
0.000371185
5.40628e-05
-0.000923826
0.0003636
7.60396e-05
-0.000883546
0.000348803
-0.00066096
0.000301772
-0.000165015
-0.000978883
0.000488226
-0.000110828
-0.0015097
0.000576856
-4.90836e-05
-0.00159029
0.000604975
-1.89893e-05
-0.0015829
0.000617721
-4.37937e-07
-0.00157613
0.000620795
1.78313e-05
-0.00157579
0.000620782
4.68358e-05
-0.0015818
0.000617831
0.000107039
-0.00158965
0.000605509
0.000163069
-0.00151875
0.000579205
-0.000988935
0.000490974
-0.000372284
-0.00137816
0.000771642
-0.000198427
-0.00259381
0.000910171
-5.97538e-05
-0.00269911
0.000970156
-1.64517e-05
-0.00262775
0.00100151
-1.40283e-07
-0.00260093
0.00100846
1.57486e-05
-0.00260017
0.00100849
5.68321e-05
-0.00262482
0.00100186
0.000192151
-0.00269637
0.000971535
0.000367944
-0.00260822
0.000913575
-0.00139821
0.000777253
-0.000362913
-0.00200921
0.000993829
-0.000145809
-0.00357627
0.000765291
-3.96088e-05
-0.00366135
0.000855971
-8.19916e-06
-0.00357742
0.00091819
-6.99779e-08
-0.00354633
0.000937205
7.80483e-06
-0.00354554
0.0009374
3.80144e-05
-0.00357442
0.000919367
0.000141764
-0.00365845
0.000858211
0.000358383
-0.00358966
0.000764866
-0.00203455
0.000994668
0.000349361
-0.00235865
0.000182229
-0.00340925
5.66655e-05
-0.00353594
1.56296e-05
-0.00353653
1.15249e-07
-0.00353096
-1.49707e-05
-0.00353062
-5.39853e-05
-0.00353553
-0.000176388
-0.00353617
-0.000344733
-0.00342143
-0.00237932
-3.33681e-05
-0.000278654
0.000346082
-2.88908e-05
-0.000322588
0.00037537
-1.95799e-05
-0.000335046
0.000387604
-9.40949e-06
-0.000344289
0.000395686
-3.37045e-07
-0.000347288
0.000398986
8.66298e-06
-0.000347341
0.000399065
1.86792e-05
-0.000344541
0.000395992
2.78221e-05
-0.000335489
0.000388195
3.27907e-05
-0.000323934
0.000376667
-0.000280186
0.000347534
-6.06529e-05
-0.000233356
0.000503538
-5.28448e-05
-0.00031006
0.000556449
-3.4865e-05
-0.000325712
0.000577603
-1.64428e-05
-0.000336498
0.000591433
-5.42395e-07
-0.000339173
0.000596693
1.52449e-05
-0.000339207
0.000596799
3.33645e-05
-0.00033673
0.000591834
5.10729e-05
-0.000326141
0.000578413
5.9565e-05
-0.000311687
0.000558417
-0.000235479
0.000505813
-5.45849e-05
2.50613e-05
0.00056766
-4.98601e-05
-8.64939e-05
0.000681882
-2.52815e-05
-8.76803e-05
0.000707507
-1.0425e-05
-7.2517e-05
0.000722632
-2.63474e-07
-6.73707e-05
0.000726461
9.78185e-06
-6.73119e-05
0.000726496
2.41597e-05
-7.21452e-05
0.000722892
4.86212e-05
-8.73045e-05
0.000708191
5.34252e-05
-8.74424e-05
0.000684547
2.41275e-05
0.000571001
-8.93205e-05
0.00019521
0.000912953
-8.09532e-05
-0.000265579
0.000936004
-5.02661e-05
-0.000258074
0.000995679
-2.39825e-05
-0.000214631
0.00103404
-8.76986e-07
-0.000199663
0.00104638
2.21409e-05
-0.000199455
0.00104654
4.8506e-05
-0.00021388
0.00103474
8.02064e-05
-0.000257676
0.000996936
8.7726e-05
-0.000267822
0.000937703
0.000189488
0.000916969
0.000235994
-0.00239949
0.00013178
-0.00357065
4.47177e-05
-0.00370698
1.27533e-05
-0.00371923
1.20281e-07
-0.00371803
-1.21427e-05
-0.00371784
-4.26976e-05
-0.00371889
-0.00012796
-0.00370859
-0.000233307
-0.00358395
-0.00242318
-1.62773e-05
-0.000164597
0.000359557
-1.50725e-05
-0.000180014
0.000375888
-1.10823e-05
-0.000184291
0.000384018
-5.63196e-06
-0.000187981
0.000390014
-2.39331e-07
-0.00018934
0.000392786
5.12797e-06
-0.000189372
0.000392883
1.05265e-05
-0.000188139
0.000390323
1.44767e-05
-0.000184538
0.000384574
1.59592e-05
-0.000180585
0.00037686
-0.000165266
0.000360636
-3.01201e-05
-0.000135711
0.000504723
-2.78784e-05
-0.000156598
0.000530817
-2.05238e-05
-0.000159241
0.000545219
-1.03975e-05
-0.00016269
0.000556015
-4.20282e-07
-0.000163536
0.000560934
9.5019e-06
-0.000163576
0.000561084
1.95429e-05
-0.000162847
0.000556523
2.68277e-05
-0.000159502
0.000546117
2.94645e-05
-0.000157178
0.000532397
-0.000136606
0.000506597
-2.32978e-05
1.21346e-05
0.000443105
-1.67967e-05
3.02722e-05
0.000488518
-9.46171e-06
4.1196e-05
0.000499737
-4.3008e-06
4.73263e-05
0.000507485
-1.41556e-07
4.88783e-05
0.00050989
3.99078e-06
4.8873e-05
0.000509931
8.97896e-06
4.73568e-05
0.000507719
1.61347e-05
4.13798e-05
0.00050019
2.27435e-05
3.0859e-05
0.00048988
1.24402e-05
0.000444656
-6.78243e-05
0.000312784
0.000680047
-5.26547e-05
0.00030351
0.000647568
-3.41393e-05
0.000344287
0.000674056
-1.69372e-05
0.000366686
0.00069744
-7.52914e-07
0.000372956
0.000706096
1.53558e-05
0.00037295
0.000706327
3.24369e-05
0.000366746
0.000698255
5.10863e-05
0.000344278
0.000675363
6.64569e-05
0.000304323
0.000648809
0.000313938
0.000681859
8.43116e-05
-0.00217105
4.44908e-05
-0.00322732
1.395e-05
-0.00333214
3.27497e-06
-0.00334185
3.38429e-08
-0.00334182
-3.06785e-06
-0.00334178
-1.32522e-05
-0.00334194
-4.3317e-05
-0.00333424
-8.33591e-05
-0.0032396
-0.00219263
-6.47447e-06
-8.18222e-05
0.00036172
-6.49869e-06
-8.65301e-05
0.000372155
-5.15805e-06
-8.76607e-05
0.000377777
-2.77505e-06
-8.90161e-05
0.000382156
-1.34667e-07
-8.95815e-05
0.000384354
2.4866e-06
-8.96148e-05
0.000384447
4.87471e-06
-8.91039e-05
0.000382451
6.2144e-06
-8.78073e-05
0.000378275
6.32486e-06
-8.67747e-05
0.000372929
-8.21003e-05
0.000362571
-1.2392e-05
-6.78408e-05
0.000503172
-1.25655e-05
-7.68673e-05
0.000521393
-1.00523e-05
-7.81718e-05
0.000533261
-5.38903e-06
-8.00826e-05
0.000542502
-2.64531e-07
-8.07474e-05
0.000547026
4.84914e-06
-8.07776e-05
0.000547194
9.49738e-06
-8.0222e-05
0.000543053
1.20284e-05
-7.83689e-05
0.000534214
1.20535e-05
-7.72136e-05
0.000522874
-6.83603e-05
0.000504925
-5.34452e-06
-3.65644e-05
0.000417139
-4.13929e-06
-2.58482e-05
0.000436342
-3.08732e-06
-2.15811e-05
0.000442175
-1.69557e-06
-2.08961e-05
0.000446944
-8.52536e-08
-2.12859e-05
0.000448872
1.53369e-06
-2.13413e-05
0.000448935
2.90751e-06
-2.09942e-05
0.000447174
3.92635e-06
-2.16765e-05
0.000442546
5.18136e-06
-2.56713e-05
0.000437117
-3.64978e-05
0.000417934
-3.41446e-05
7.87693e-05
0.00059884
-2.84436e-05
5.83255e-05
0.00055769
-2.03117e-05
6.79786e-05
0.000576361
-1.0399e-05
7.22713e-05
0.000594374
-5.34155e-07
7.32495e-05
0.000601699
9.27276e-06
7.32422e-05
0.00060194
1.91544e-05
7.22109e-05
0.00059518
2.74248e-05
6.78052e-05
0.000577632
3.31357e-05
5.83103e-05
0.000559064
7.82601e-05
0.00060019
1.84155e-05
-0.0021108
7.72936e-06
-0.0031583
7.81752e-07
-0.00325719
-6.3996e-07
-0.00326814
9.63432e-09
-0.00326922
7.10311e-07
-0.00326924
-5.81316e-07
-0.00326842
-7.48008e-06
-0.00325951
-1.82092e-05
-0.00317057
-0.00213265
-5.29321e-07
-6.86045e-06
0.000354448
-8.32389e-07
-4.78163e-06
0.000362627
-9.02014e-07
-3.52293e-06
0.000366844
-5.65343e-07
-3.03371e-06
0.000370245
-4.20989e-08
-2.88368e-06
0.000372012
4.81633e-07
-2.88441e-06
0.000372096
8.30442e-07
-3.07336e-06
0.000370518
7.77348e-07
-3.53434e-06
0.000367302
5.02403e-07
-4.77358e-06
0.000363292
-6.8674e-06
0.00035518
3.24152e-07
-1.75332e-05
0.000513541
-4.81699e-07
-1.41054e-05
0.000531618
-1.13569e-06
-1.27874e-05
0.000543295
-8.66337e-07
-1.28774e-05
0.000552161
-8.9251e-08
-1.30554e-05
0.000556515
7.04906e-07
-1.30779e-05
0.000556699
1.00204e-06
-1.29514e-05
0.000552735
3.85915e-07
-1.28992e-05
0.000544292
-4.15083e-07
-1.4151e-05
0.000533163
-1.77252e-05
0.000515375
4.4069e-06
-1.75958e-05
0.000412921
2.94673e-06
-4.01697e-06
0.000427771
1.25317e-06
-1.44533e-06
0.000432612
3.64202e-07
-1.42543e-06
0.000436464
-1.74505e-08
-1.82684e-06
0.000438113
-3.77929e-07
-1.87598e-06
0.000438174
-1.22554e-06
-1.52539e-06
0.000436683
-2.90076e-06
-1.55047e-06
0.000432991
-4.39865e-06
-3.99586e-06
0.000428441
-1.77817e-05
0.00041363
1.40935e-05
-4.02069e-05
0.000607147
4.93582e-06
-4.05474e-05
0.000603445
-2.11584e-06
-4.27773e-05
0.000624771
-2.64449e-06
-4.74082e-05
0.000640926
-2.77667e-07
-4.94323e-05
0.000646957
2.10845e-06
-4.9463e-05
0.000647174
1.77728e-06
-4.76195e-05
0.000641653
-5.03007e-06
-4.3146e-05
0.000626025
-1.45685e-05
-4.08155e-05
0.000605486
-4.12538e-05
0.000608959
-3.64158e-06
-0.00214738
-5.12557e-06
-0.00319742
-3.91764e-06
-0.00330119
-2.16155e-06
-0.00331734
-1.44011e-08
-0.00332081
2.13792e-06
-0.00332088
3.89827e-06
-0.00331784
5.09564e-06
-0.00330384
3.68027e-06
-0.0032101
-0.00217027
3.64371e-06
7.18862e-05
0.000334973
3.35679e-06
8.10706e-05
0.000342259
2.36481e-06
8.53991e-05
0.00034529
1.17639e-06
8.79929e-05
0.000347864
4.90002e-08
8.90447e-05
0.000349225
-1.07341e-06
8.90549e-05
0.000349306
-2.24467e-06
8.80591e-05
0.000348109
-3.23757e-06
8.55377e-05
0.000345682
-3.56934e-06
8.14013e-05
0.000342827
7.22519e-05
0.000335601
1.41268e-05
3.96551e-05
0.000531827
1.15532e-05
6.49711e-05
0.000550374
7.44993e-06
7.13472e-05
0.000561574
3.47296e-06
7.38438e-05
0.000570398
1.01091e-07
7.4273e-05
0.000574781
-3.23957e-06
7.42567e-05
0.000574977
-7.15582e-06
7.38137e-05
0.000571001
-1.1159e-05
7.13751e-05
0.000562616
-1.39169e-05
6.53957e-05
0.000551979
3.99179e-05
0.000533889
1.23604e-05
3.80887e-05
0.000402044
8.87079e-06
7.98295e-05
0.000416539
4.85887e-06
8.9277e-05
0.000418742
2.09364e-06
9.17351e-05
0.000421428
6.20096e-08
9.18474e-05
0.000422657
-1.96483e-06
9.18161e-05
0.00042272
-4.65077e-06
9.16499e-05
0.00042166
-8.6109e-06
8.92553e-05
0.000419075
-1.22333e-05
8.05169e-05
0.000417071
3.85046e-05
0.000402781
8.59942e-05
-0.000158569
0.000717846
4.72466e-05
-7.3993e-05
0.000795966
1.78283e-05
-7.61209e-05
0.000819647
5.78802e-06
-9.14906e-05
0.000836213
3.38273e-08
-9.82062e-05
0.000842767
-5.63315e-06
-9.83681e-05
0.00084303
-1.71704e-05
-9.21648e-05
0.000836981
-4.60501e-05
-7.69271e-05
0.000821197
-8.56233e-05
-7.35177e-05
0.000798981
-0.000160038
0.000721791
-2.86494e-05
-0.00227739
-2.11576e-05
-0.00327901
-1.12152e-05
-0.00338738
-4.97149e-06
-0.0034152
-8.00327e-08
-0.00342395
4.78734e-06
-0.00342416
1.08906e-05
-0.0034162
2.06992e-05
-0.00339076
2.84608e-05
-0.00329154
-0.00230187
7.02921e-06
0.000166038
0.000292955
6.54406e-06
0.000183767
0.00029878
4.87054e-06
0.000191101
0.000300261
2.53757e-06
0.000196008
0.000301786
1.29898e-07
0.000198081
0.000302613
-2.26915e-06
0.000198133
0.000302677
-4.59477e-06
0.000196184
0.000301975
-6.27682e-06
0.000191448
0.000300551
-6.85857e-06
0.000184456
0.000299189
0.000166885
0.000293404
2.8666e-05
0.000133711
0.000535629
2.38934e-05
0.000190918
0.000548129
1.62062e-05
0.000203648
0.000556823
7.87226e-06
0.000210428
0.000564444
2.98416e-07
0.000212291
0.000568295
-7.23263e-06
0.000212309
0.000568473
-1.54454e-05
0.000210543
0.00056501
-2.30065e-05
0.000203966
0.000557775
-2.8074e-05
0.000192097
0.000549532
0.000135199
0.000537609
1.92483e-05
0.000155082
0.000361483
1.35274e-05
0.000242748
0.000370465
7.72915e-06
0.000260357
0.000367899
3.59299e-06
0.000268081
0.000367979
1.35969e-07
0.000270546
0.000367925
-3.28782e-06
0.000270565
0.000367972
-7.3563e-06
0.000268198
0.000368121
-1.30853e-05
0.000260768
0.000368042
-1.88956e-05
0.000244398
0.000370657
0.000157259
0.000361808
0.000179627
-0.000245363
0.000938615
0.000105164
6.5131e-05
0.00104795
4.59221e-05
7.32633e-05
0.00106593
1.77426e-05
5.45862e-05
0.00107783
4.09104e-07
4.80776e-05
0.00108251
-1.67115e-05
4.79067e-05
0.00108273
-4.40023e-05
5.38267e-05
0.00107857
-0.000102207
7.28439e-05
0.00106729
-0.000176934
6.67271e-05
0.00105122
-0.000243663
0.000945741
-7.20189e-05
-0.00245083
-4.97591e-05
-0.00323622
-2.58969e-05
-0.00333809
-1.11448e-05
-0.00337547
-2.00249e-07
-0.00338693
1.06278e-05
-0.00338718
2.49132e-05
-0.00337674
4.84734e-05
-0.00334163
7.06588e-05
-0.00324708
-0.00247489