/*--------------------------------*- C++ -*----------------------------------*\
| =========                 |                                                 |
| \\      /  F ield         | OpenFOAM: The Open Source CFD Toolbox           |
|  \\    /   O peration     | Version:  2.3.1                                 |
|   \\  /    A nd           | Web:      www.OpenFOAM.org                      |
|    \\/     M anipulation  |                                                 |
\*---------------------------------------------------------------------------*/
FoamFile
{
    version     2.0;
    format      ascii;
    class       volVectorField;
    location    "0.87";
    object      U;
}
// * * * * * * * * * * * * * * * * * * * * * * * * * * * * * * * * * * * * * //

dimensions      [0 1 -1 0 0 0 0];

internalField   nonuniform List<vector> 
1000
(
(-0.00208838 0.00271234 0.000341143)
(-0.00238172 0.00247627 0.00027752)
(-0.00242267 0.00246661 0.000139156)
(-0.00246 0.00244988 0.000129226)
(-0.00246771 0.00245553 4.80693e-05)
(-0.00247219 0.00245255 -4.47539e-06)
(-0.00247219 0.00244245 -5.21299e-05)
(-0.00247148 0.00242718 -7.37119e-05)
(-0.00247213 0.00241138 -6.03995e-05)
(-0.00247314 0.00240096 -2.44257e-05)
(-0.00264053 0.00744557 8.95819e-05)
(-0.00276422 0.00733519 0.000105593)
(-0.00278367 0.00740098 0.000139088)
(-0.00280104 0.00742202 0.000123194)
(-0.00280724 0.00745285 5.35597e-05)
(-0.0028101 0.00745016 -1.58364e-05)
(-0.0028091 0.00741837 -7.58659e-05)
(-0.00280745 0.00736363 -0.000102966)
(-0.00280097 0.00730423 -7.07102e-05)
(-0.00272678 0.00724945 -2.56501e-05)
(-0.0032173 0.0126309 0.000113416)
(-0.00334224 0.0127459 0.000201423)
(-0.00335949 0.0128507 0.000224802)
(-0.00337188 0.0129342 0.000180767)
(-0.00337847 0.0129881 7.68542e-05)
(-0.00338047 0.0129883 -3.83569e-05)
(-0.00337805 0.0129366 -0.000138202)
(-0.00337448 0.0128434 -0.000188048)
(-0.00336447 0.0127461 -0.000149471)
(-0.00326846 0.012616 -6.70303e-05)
(-0.00412468 0.0217034 0.000125786)
(-0.0042242 0.0221229 0.000292877)
(-0.00422859 0.022499 0.00032924)
(-0.00423284 0.0227996 0.000260487)
(-0.00423734 0.0229619 0.000107505)
(-0.00423887 0.0229676 -6.71973e-05)
(-0.00423711 0.0228177 -0.00022069)
(-0.00423732 0.022524 -0.000295251)
(-0.00423594 0.0221634 -0.000262867)
(-0.00414425 0.0217282 -0.000105442)
(-0.00616717 0.0205917 0.000560179)
(-0.0063751 0.0208785 0.000946521)
(-0.006423 0.0209636 0.000902747)
(-0.00645076 0.0210974 0.000642075)
(-0.0064679 0.0211677 0.000244186)
(-0.0064697 0.0211693 -0.00018226)
(-0.00645615 0.021103 -0.000580467)
(-0.00643249 0.0209677 -0.000843702)
(-0.00638859 0.0208873 -0.000896364)
(-0.00618387 0.0205982 -0.000536442)
(-0.00677732 0.00220176 7.46674e-05)
(-0.00698274 0.00226213 8.4487e-05)
(-0.00698873 0.00228996 9.3974e-05)
(-0.00703441 0.00229439 9.26499e-05)
(-0.00704459 0.00230205 3.99003e-05)
(-0.00705054 0.00230071 -7.64505e-06)
(-0.00704708 0.00229114 -5.13608e-05)
(-0.00704 0.00227538 -7.45212e-05)
(-0.00703263 0.00225271 -7.79916e-05)
(-0.00699235 0.00216708 -3.5847e-05)
(-0.00765712 0.0065296 5.63368e-05)
(-0.00778759 0.00666853 9.92722e-05)
(-0.00780277 0.00675216 0.000125903)
(-0.00782882 0.00679687 0.000107752)
(-0.00784052 0.00682802 4.8517e-05)
(-0.0078446 0.00682745 -1.62898e-05)
(-0.00783887 0.00679719 -7.3619e-05)
(-0.00782872 0.00674336 -0.00010303)
(-0.00781091 0.00667685 -9.27323e-05)
(-0.00769192 0.00653705 -4.03152e-05)
(-0.00909036 0.0113465 0.000103807)
(-0.00926171 0.0115308 0.000200282)
(-0.00929331 0.0116516 0.000214145)
(-0.00932286 0.0117477 0.000167828)
(-0.00933972 0.011803 7.15193e-05)
(-0.00934323 0.011804 -3.68732e-05)
(-0.00933277 0.0117517 -0.000132988)
(-0.00931486 0.0116542 -0.000185542)
(-0.00928721 0.0115435 -0.000176823)
(-0.00914166 0.0113658 -8.47222e-05)
(-0.0113557 0.0189727 0.000178367)
(-0.0115205 0.0193519 0.000366855)
(-0.0115434 0.0196947 0.000343961)
(-0.0115677 0.0199775 0.000259321)
(-0.011585 0.0201283 0.000105025)
(-0.011588 0.0201337 -6.71505e-05)
(-0.0115764 0.0199947 -0.000222804)
(-0.0115591 0.0197219 -0.000312272)
(-0.0115392 0.0193953 -0.000343716)
(-0.011381 0.0190238 -0.000165626)
(-0.0163781 0.0182768 0.000528734)
(-0.0166831 0.0190034 0.000922726)
(-0.0168026 0.0192099 0.000848403)
(-0.0168964 0.0193942 0.000600696)
(-0.016951 0.019483 0.000227221)
(-0.0169556 0.0194851 -0.000170106)
(-0.01691 0.0194015 -0.00054411)
(-0.0168254 0.01922 -0.000793887)
(-0.0167137 0.0190238 -0.000878002)
(-0.0164154 0.0182978 -0.000508811)
(-0.0109289 0.00176383 8.57015e-05)
(-0.0110268 0.00180713 0.000124127)
(-0.0110372 0.00182459 9.05807e-05)
(-0.0110721 0.00183147 7.49735e-05)
(-0.0110873 0.00183765 3.32316e-05)
(-0.0110917 0.00183698 -6.53757e-06)
(-0.0110826 0.00182903 -4.2001e-05)
(-0.0110642 0.00181562 -6.22927e-05)
(-0.0110414 0.00179592 -7.08743e-05)
(-0.0109437 0.00172211 -3.4614e-05)
(-0.0119757 0.00522366 6.27843e-05)
(-0.0120753 0.00532078 0.000111558)
(-0.0121033 0.00538135 0.000111147)
(-0.012138 0.00542042 8.92682e-05)
(-0.0121576 0.00544538 4.03238e-05)
(-0.0121617 0.00544515 -1.33113e-05)
(-0.0121489 0.00541967 -6.07886e-05)
(-0.0121245 0.00537369 -8.68797e-05)
(-0.0120941 0.00531496 -8.61428e-05)
(-0.0119892 0.0051847 -4.04629e-05)
(-0.0140741 0.0090075 9.44361e-05)
(-0.0142008 0.00917471 0.000184072)
(-0.0142514 0.00928382 0.00018285)
(-0.014301 0.00937105 0.000139496)
(-0.0143305 0.00941951 5.90971e-05)
(-0.0143347 0.00942044 -3.07122e-05)
(-0.0143131 0.00937377 -0.000111201)
(-0.0142729 0.00928575 -0.000157923)
(-0.0142258 0.00918053 -0.000161681)
(-0.0141047 0.00900579 -8.01264e-05)
(-0.0173578 0.0145395 0.000171378)
(-0.0175306 0.0149062 0.00034178)
(-0.0175993 0.015197 0.000306683)
(-0.0176656 0.0154317 0.000224863)
(-0.0177055 0.0155555 8.97959e-05)
(-0.01771 0.0155597 -5.8602e-05)
(-0.0176786 0.0154449 -0.000194757)
(-0.0176208 0.0152186 -0.000279385)
(-0.0175572 0.0149394 -0.000321015)
(-0.0173873 0.0145775 -0.000161247)
(-0.0236792 0.0143773 0.000458145)
(-0.0239673 0.015063 0.0008057)
(-0.0241602 0.0153012 0.000711909)
(-0.0243307 0.0154868 0.000497258)
(-0.0244265 0.0155747 0.000186702)
(-0.0244335 0.0155765 -0.000140996)
(-0.0243516 0.0154932 -0.000451647)
(-0.0241944 0.0153115 -0.000667292)
(-0.0240133 0.0150838 -0.000769468)
(-0.0237342 0.0143995 -0.000442773)
(-0.0137497 0.00115292 3.85972e-05)
(-0.013922 0.00119009 6.20715e-05)
(-0.0139638 0.00120207 5.24124e-05)
(-0.0140079 0.00120873 4.2842e-05)
(-0.0140315 0.00121314 2.03525e-05)
(-0.0140361 0.00121277 -2.92315e-06)
(-0.0140214 0.00120749 -2.39846e-05)
(-0.0139925 0.0011985 -3.66722e-05)
(-0.0139559 0.00118581 -4.37964e-05)
(-0.0138219 0.00114122 -2.20175e-05)
(-0.0150538 0.00344575 3.3277e-05)
(-0.0152013 0.00352095 6.48137e-05)
(-0.0152525 0.00356215 6.82892e-05)
(-0.0153015 0.00359156 5.46546e-05)
(-0.0153303 0.00360873 2.54488e-05)
(-0.015335 0.00360872 -7.28175e-06)
(-0.015315 0.00359126 -3.65171e-05)
(-0.0152769 0.00355978 -5.28723e-05)
(-0.0152307 0.00351969 -5.13744e-05)
(-0.0150948 0.00343708 -2.32375e-05)
(-0.0175809 0.00596798 5.62781e-05)
(-0.0177479 0.00608662 0.000115624)
(-0.0178266 0.00616744 0.000118226)
(-0.0178984 0.00623196 8.97762e-05)
(-0.017941 0.00626702 3.8308e-05)
(-0.0179461 0.00626758 -1.92969e-05)
(-0.0179133 0.00623376 -7.1351e-05)
(-0.0178517 0.00616961 -0.000102153)
(-0.0177798 0.00609132 -0.000102956)
(-0.0176199 0.00597123 -4.89791e-05)
(-0.0214872 0.00936743 0.000114409)
(-0.0217283 0.00962938 0.000233065)
(-0.0218494 0.00983429 0.000212684)
(-0.0219575 0.00999606 0.000154022)
(-0.0220202 0.0100806 6.10798e-05)
(-0.0220259 0.0100832 -4.01976e-05)
(-0.0219744 0.0100042 -0.000133914)
(-0.021877 0.00984828 -0.000194418)
(-0.0217642 0.00965125 -0.000219533)
(-0.0215278 0.00939353 -0.000108243)
(-0.0280588 0.00949895 0.000305646)
(-0.0284724 0.00998288 0.000551818)
(-0.028744 0.0101907 0.000485876)
(-0.0289761 0.0103411 0.000335499)
(-0.0291042 0.0104122 0.000125148)
(-0.0291128 0.0104134 -9.5411e-05)
(-0.0290016 0.0103454 -0.000305666)
(-0.0287862 0.0101986 -0.000456335)
(-0.02853 0.0099988 -0.000528548)
(-0.0281264 0.00951651 -0.0002962)
(-0.0154088 0.000484978 1.12194e-05)
(-0.0155721 0.000498714 1.4823e-05)
(-0.0156241 0.000502786 8.77346e-06)
(-0.0156719 0.000504865 7.48877e-06)
(-0.0157002 0.000506197 5.02221e-06)
(-0.0157046 0.000505909 3.50761e-06)
(-0.0156849 0.000503953 1.51618e-06)
(-0.0156472 0.000500738 -6.82116e-07)
(-0.0156005 0.00049596 -5.9042e-06)
(-0.0154477 0.000479573 -4.26533e-06)
(-0.0168174 0.00146702 8.88467e-06)
(-0.0169734 0.00149501 1.49364e-05)
(-0.0170381 0.00151074 1.41095e-05)
(-0.0170969 0.00152173 1.15277e-05)
(-0.0171325 0.00152796 6.80948e-06)
(-0.0171373 0.00152767 2.04578e-06)
(-0.0171108 0.00152081 -2.7683e-06)
(-0.0170612 0.00150846 -6.4355e-06)
(-0.0170024 0.00149233 -8.17337e-06)
(-0.0168515 0.00146095 -4.22712e-06)
(-0.0195672 0.00257471 1.79623e-05)
(-0.0197511 0.00262455 3.52063e-05)
(-0.0198508 0.00266075 3.3899e-05)
(-0.0199405 0.00268868 2.51075e-05)
(-0.0199938 0.00270332 1.1541e-05)
(-0.0199992 0.00270327 -2.95102e-06)
(-0.0199564 0.0026883 -1.68341e-05)
(-0.0198767 0.00266004 -2.66608e-05)
(-0.0197845 0.00262421 -2.95999e-05)
(-0.0196048 0.00257348 -1.47782e-05)
(-0.0237843 0.00405855 4.47259e-05)
(-0.0240613 0.00418045 8.94547e-05)
(-0.0242245 0.00427857 7.77029e-05)
(-0.0243674 0.00435279 5.39225e-05)
(-0.0244494 0.00439094 2.14086e-05)
(-0.0244559 0.00439163 -1.27555e-05)
(-0.0243865 0.00435523 -4.56096e-05)
(-0.0242554 0.00428293 -7.00077e-05)
(-0.0241022 0.004188 -8.39184e-05)
(-0.0238298 0.00406785 -4.21266e-05)
(-0.0301858 0.00420874 0.000134847)
(-0.0306603 0.00444683 0.000243148)
(-0.0309855 0.00457135 0.000206057)
(-0.0312594 0.00465535 0.000136934)
(-0.0314101 0.00469458 5.01752e-05)
(-0.0314192 0.00469464 -3.84388e-05)
(-0.031287 0.00465647 -0.000124999)
(-0.0310312 0.00457423 -0.000193885)
(-0.030723 0.00445344 -0.000233516)
(-0.0302577 0.00421642 -0.000131041)
(-0.0156609 -0.000221213 -1.52962e-05)
(-0.0158269 -0.000235102 -3.857e-05)
(-0.0158871 -0.000240957 -4.29956e-05)
(-0.0159399 -0.000245731 -3.30969e-05)
(-0.0159717 -0.000248581 -1.24033e-05)
(-0.0159759 -0.000248941 1.23582e-05)
(-0.0159523 -0.000246829 3.33585e-05)
(-0.0159077 -0.000242911 4.35967e-05)
(-0.0158534 -0.000237875 4.00377e-05)
(-0.0156934 -0.000224808 1.71733e-05)
(-0.0171255 -0.000631391 -1.77584e-05)
(-0.0172909 -0.000657488 -4.4845e-05)
(-0.0173676 -0.000672651 -5.156e-05)
(-0.0174356 -0.000685907 -3.97663e-05)
(-0.0174766 -0.000693614 -1.49575e-05)
(-0.0174812 -0.000694346 1.4464e-05)
(-0.0174492 -0.00068822 3.94288e-05)
(-0.0173897 -0.000676631 5.14342e-05)
(-0.0173194 -0.000662987 4.52681e-05)
(-0.0171579 -0.000638317 1.88031e-05)
(-0.0199903 -0.00099839 -2.65895e-05)
(-0.0201936 -0.00102894 -6.27752e-05)
(-0.0203144 -0.00105046 -6.95683e-05)
(-0.0204212 -0.00107051 -5.33664e-05)
(-0.0204837 -0.00108188 -2.03366e-05)
(-0.0204891 -0.00108297 1.80883e-05)
(-0.0204372 -0.00107368 5.12148e-05)
(-0.0203405 -0.00105586 6.76916e-05)
(-0.0202277 -0.00103605 6.14876e-05)
(-0.0200281 -0.00100646 2.65815e-05)
(-0.024385 -0.00125102 -4.02405e-05)
(-0.0247033 -0.00128409 -8.86555e-05)
(-0.0249081 -0.00130543 -9.33814e-05)
(-0.0250843 -0.00132787 -7.13051e-05)
(-0.0251836 -0.00134084 -2.73971e-05)
(-0.0251903 -0.00134196 2.2796e-05)
(-0.0251044 -0.0013315 6.68011e-05)
(-0.024941 -0.00131121 8.93029e-05)
(-0.0247474 -0.00129165 8.58687e-05)
(-0.024434 -0.00125923 3.94849e-05)
(-0.0306671 -0.0012939 -5.17391e-05)
(-0.0312045 -0.00131531 -0.000108022)
(-0.0315807 -0.00130829 -0.000114719)
(-0.0318939 -0.00131301 -8.94984e-05)
(-0.032064 -0.00131618 -3.46435e-05)
(-0.0320733 -0.00131693 2.76479e-05)
(-0.0319221 -0.00131576 8.26713e-05)
(-0.0316277 -0.00131215 0.000108746)
(-0.0312697 -0.00132042 0.000103624)
(-0.0307411 -0.00129883 5.03293e-05)
(-0.014469 -0.000943549 -4.20609e-05)
(-0.0146274 -0.000990174 -9.54854e-05)
(-0.0146914 -0.00100863 -9.98914e-05)
(-0.0147463 -0.00102267 -7.6978e-05)
(-0.0147793 -0.00103077 -3.09499e-05)
(-0.014783 -0.00103128 2.30001e-05)
(-0.0147573 -0.00102426 6.9613e-05)
(-0.0147092 -0.00101127 9.39547e-05)
(-0.0146507 -0.000994044 9.17464e-05)
(-0.0144956 -0.000947762 4.11542e-05)
(-0.015922 -0.00278248 -4.93659e-05)
(-0.0160932 -0.00287363 -0.00011513)
(-0.0161794 -0.00292734 -0.000126904)
(-0.0162539 -0.00297131 -9.75032e-05)
(-0.016298 -0.00299597 -3.88118e-05)
(-0.0163022 -0.00299735 2.94644e-05)
(-0.0162664 -0.00297546 8.87139e-05)
(-0.0161996 -0.00293438 0.000119476)
(-0.0161195 -0.00288353 0.000110029)
(-0.0159512 -0.00279348 4.77524e-05)
(-0.018811 -0.0046867 -8.28435e-05)
(-0.0190398 -0.00481758 -0.000183293)
(-0.0191828 -0.00491341 -0.000192217)
(-0.0193052 -0.00499419 -0.00014442)
(-0.0193748 -0.005038 -5.64391e-05)
(-0.01938 -0.00504016 4.35354e-05)
(-0.0193205 -0.00500102 0.000131993)
(-0.0192078 -0.00492482 0.000181159)
(-0.0190732 -0.00483365 0.000175491)
(-0.0188479 -0.00470456 8.01156e-05)
(-0.0233401 -0.00661494 -0.000151952)
(-0.023726 -0.00683065 -0.000314984)
(-0.023981 -0.00698817 -0.00030391)
(-0.0241924 -0.00712008 -0.000222211)
(-0.0243077 -0.00718939 -8.47346e-05)
(-0.0243143 -0.00719257 6.65197e-05)
(-0.0242125 -0.00712982 0.000204263)
(-0.0240144 -0.00700473 0.000287226)
(-0.0237719 -0.00685426 0.000302901)
(-0.0233913 -0.00664176 0.000147733)
(-0.029725 -0.00727278 -0.000275474)
(-0.0304046 -0.00763169 -0.000525628)
(-0.0308604 -0.00778921 -0.000484889)
(-0.0312263 -0.00791523 -0.000346776)
(-0.0314177 -0.00797456 -0.00012921)
(-0.0314266 -0.00797671 0.000103388)
(-0.031254 -0.00792257 0.00032092)
(-0.0309072 -0.00780142 0.000459744)
(-0.0304721 -0.00765262 0.000506901)
(-0.0298017 -0.00729462 0.000268906)
(-0.01183 -0.00164533 -6.84146e-05)
(-0.011961 -0.00173221 -0.000152827)
(-0.0120204 -0.00176693 -0.000157685)
(-0.0120711 -0.00179253 -0.000120896)
(-0.0121015 -0.00180686 -4.91154e-05)
(-0.0121045 -0.00180762 3.43862e-05)
(-0.01208 -0.00179473 0.000107097)
(-0.0120348 -0.00177076 0.000146133)
(-0.0119799 -0.00173778 0.000144901)
(-0.0118512 -0.00165101 6.56735e-05)
(-0.0131605 -0.00489966 -8.88999e-05)
(-0.013321 -0.00507224 -0.000197141)
(-0.0134085 -0.00517467 -0.000208625)
(-0.0134814 -0.00525642 -0.000158199)
(-0.0135238 -0.00530111 -6.32054e-05)
(-0.0135273 -0.00530313 4.60529e-05)
(-0.0134919 -0.0052628 0.000141923)
(-0.0134254 -0.00518545 0.000194518)
(-0.0133437 -0.00508774 0.00018732)
(-0.0131853 -0.00491658 8.53517e-05)
(-0.0158998 -0.00841927 -0.000160264)
(-0.0161431 -0.00868428 -0.000335607)
(-0.0163006 -0.00887704 -0.000333531)
(-0.0164291 -0.00903435 -0.000245523)
(-0.0165 -0.00911707 -9.51385e-05)
(-0.0165044 -0.00912055 7.24254e-05)
(-0.0164425 -0.00904509 0.00022345)
(-0.0163228 -0.0088956 0.000313499)
(-0.0161737 -0.00871105 0.000321199)
(-0.0159335 -0.00844934 0.00015507)
(-0.0204037 -0.0121619 -0.000313702)
(-0.0208698 -0.0126349 -0.000617259)
(-0.021174 -0.0129659 -0.000560783)
(-0.0214121 -0.0132308 -0.00039847)
(-0.021536 -0.013365 -0.00014934)
(-0.0215418 -0.0133699 0.000118073)
(-0.0214304 -0.0132467 0.000367161)
(-0.0212053 -0.0129935 0.000530522)
(-0.0209154 -0.0126764 0.000595354)
(-0.0204549 -0.0122098 0.000306032)
(-0.0270113 -0.01412 -0.000606703)
(-0.0279637 -0.0150293 -0.00109934)
(-0.0285369 -0.0154446 -0.000937602)
(-0.0289635 -0.0157566 -0.000646419)
(-0.0291718 -0.0158955 -0.000234558)
(-0.0291797 -0.0158993 0.000191026)
(-0.0289886 -0.01577 0.000601617)
(-0.0285813 -0.0154682 0.000891507)
(-0.0280343 -0.015075 0.00106377)
(-0.0270912 -0.0141695 0.000594568)
(-0.00780008 -0.00225718 -8.54569e-05)
(-0.00787394 -0.00237184 -0.000194822)
(-0.00791628 -0.00242219 -0.000206145)
(-0.00795257 -0.00245967 -0.000157789)
(-0.00797451 -0.00248028 -6.426e-05)
(-0.00797642 -0.00248117 4.44741e-05)
(-0.00795832 -0.0024626 0.00013912)
(-0.00792567 -0.00242713 0.000190253)
(-0.00788646 -0.00237917 0.00018388)
(-0.00781409 -0.00226487 8.14986e-05)
(-0.00883043 -0.00679122 -0.000117968)
(-0.00901906 -0.00702556 -0.000263319)
(-0.0090977 -0.00717937 -0.000281881)
(-0.00915546 -0.0073015 -0.000212165)
(-0.00918824 -0.00736668 -8.44232e-05)
(-0.0091906 -0.00736942 6.13341e-05)
(-0.00916257 -0.00730989 0.000190062)
(-0.00910963 -0.00719397 0.000262453)
(-0.00903566 -0.00704674 0.000249465)
(-0.00884811 -0.00681466 0.000112793)
(-0.0110934 -0.0119322 -0.000234949)
(-0.0114126 -0.012341 -0.000484519)
(-0.0115706 -0.0126497 -0.000473967)
(-0.0116832 -0.0128949 -0.000342958)
(-0.011742 -0.0130201 -0.000131359)
(-0.011745 -0.0130246 0.00010084)
(-0.0116927 -0.0129097 0.000312877)
(-0.0115872 -0.0126754 0.000445836)
(-0.0114373 -0.0123797 0.000464299)
(-0.0111202 -0.0119763 0.000227624)
(-0.0152141 -0.0177165 -0.000506431)
(-0.0158854 -0.018547 -0.000965737)
(-0.0162258 -0.0191061 -0.000842984)
(-0.0164548 -0.0195328 -0.000583287)
(-0.0165639 -0.0197385 -0.000214075)
(-0.0165681 -0.0197451 0.000171844)
(-0.0164683 -0.0195542 0.000539996)
(-0.0162508 -0.0191445 0.000799217)
(-0.0159269 -0.0186096 0.000932776)
(-0.0152602 -0.0177891 0.000495115)
(-0.0222561 -0.0223702 -0.00108628)
(-0.023913 -0.0242143 -0.00188714)
(-0.0246424 -0.0250641 -0.00147942)
(-0.0250906 -0.0256789 -0.000978123)
(-0.0252795 -0.0259363 -0.000343914)
(-0.0252845 -0.0259421 0.000285502)
(-0.0251086 -0.0257007 0.000916003)
(-0.0246786 -0.0251047 0.00140892)
(-0.0239894 -0.0243012 0.00183183)
(-0.0223401 -0.0224675 0.00106878)
(-0.00281714 -0.00265814 -8.72892e-05)
(-0.00282989 -0.00271213 -0.000203286)
(-0.00284466 -0.00276706 -0.000230965)
(-0.00285801 -0.00281212 -0.000177167)
(-0.00286629 -0.00283652 -7.22693e-05)
(-0.00286698 -0.00283758 5.00087e-05)
(-0.00286023 -0.00281524 0.000156057)
(-0.00284822 -0.00277258 0.000212902)
(-0.00283469 -0.00272008 0.000190561)
(-0.00282266 -0.00266722 8.24957e-05)
(-0.00324116 -0.0081035 -0.000133461)
(-0.00334978 -0.00832991 -0.000295175)
(-0.00338576 -0.00852562 -0.000328575)
(-0.00340933 -0.00867973 -0.000245076)
(-0.00342249 -0.00875961 -9.7054e-05)
(-0.00342346 -0.00876259 7.09914e-05)
(-0.0034121 -0.00868934 0.00021986)
(-0.00339066 -0.00854247 0.000305996)
(-0.00335679 -0.00835535 0.000278886)
(-0.00324831 -0.00813277 0.000127297)
(-0.00424527 -0.0147318 -0.000308528)
(-0.00443974 -0.0153725 -0.000607277)
(-0.00451934 -0.0158163 -0.000584162)
(-0.00456967 -0.0161418 -0.000412406)
(-0.00459491 -0.0162995 -0.000155455)
(-0.00459599 -0.0163047 0.000120742)
(-0.00457362 -0.0161587 0.000377509)
(-0.00452621 -0.0158475 0.000550194)
(-0.00445099 -0.0154233 0.000581923)
(-0.00425715 -0.0147902 0.000299576)
(-0.00627732 -0.0232817 -0.000774913)
(-0.00670527 -0.0249446 -0.00136581)
(-0.00689504 -0.0258429 -0.00110754)
(-0.00700682 -0.0264408 -0.000731248)
(-0.007056 -0.0267033 -0.000260781)
(-0.00705786 -0.02671 0.00021252)
(-0.00701204 -0.026465 0.000679893)
(-0.0069063 -0.0258898 0.00105043)
(-0.00672607 -0.0250375 0.00132194)
(-0.00629979 -0.0233874 0.000760924)
(-0.0103837 -0.0346474 -0.00203958)
(-0.0116383 -0.0393683 -0.00321147)
(-0.0121169 -0.0411132 -0.00210742)
(-0.012363 -0.0421196 -0.00127989)
(-0.0124529 -0.042475 -0.000425726)
(-0.0124542 -0.0424806 0.000360116)
(-0.0123702 -0.0421445 0.00120452)
(-0.0121339 -0.0411717 0.0020024)
(-0.0116855 -0.039543 0.00312617)
(-0.0104338 -0.0348439 0.00201808)
(-0.0199775 -0.0552423 -0.00561597)
(-0.0238317 -0.0657227 -0.00803018)
(-0.0250711 -0.0688207 -0.00391817)
(-0.0256238 -0.0702994 -0.00210654)
(-0.0257797 -0.0707382 -0.000624152)
(-0.0257812 -0.0707432 0.000545116)
(-0.0256318 -0.0703251 0.00200145)
(-0.025103 -0.0688945 0.00370725)
(-0.0239516 -0.0660385 0.00784843)
(-0.0201118 -0.0555811 0.00558231)
(-0.035097 -0.0698142 -0.0127981)
(-0.0418977 -0.106748 -0.0168631)
(-0.0442374 -0.113232 -0.00662667)
(-0.0452425 -0.114074 -0.00314752)
(-0.0454342 -0.113869 -0.000845854)
(-0.0454312 -0.113845 0.000752957)
(-0.0452452 -0.114013 0.00300723)
(-0.0442765 -0.113222 0.0062524)
(-0.0420704 -0.107453 0.0165199)
(-0.0353197 -0.0705931 0.0127526)
(-0.0567525 -0.139539 -0.0319733)
(-0.0525057 -0.210066 -0.0336289)
(-0.0568807 -0.220662 -0.00943497)
(-0.0603375 -0.218133 -0.0030408)
(-0.0612224 -0.216997 -0.00057355)
(-0.0612327 -0.216954 0.000542892)
(-0.0604012 -0.217979 0.00291989)
(-0.0570378 -0.220558 0.00886683)
(-0.0525374 -0.211215 0.032972)
(-0.0570258 -0.140823 0.0317956)
(-0.0114359 -0.0954764 -0.0348094)
(0.0538772 -0.245326 -0.0249649)
(0.0523283 -0.251069 -0.00788506)
(0.0473991 -0.239537 -0.00156512)
(0.0457295 -0.235472 -0.000354986)
(0.0456961 -0.235372 0.000338159)
(0.0472417 -0.239133 0.00148361)
(0.0521049 -0.250612 0.00759747)
(0.0544943 -0.246751 0.0244964)
(-0.0105172 -0.0977636 0.0344308)
(0.238782 -0.36535 0.0306582)
(0.328626 -0.560198 0.0313456)
(0.342893 -0.57717 0.00869988)
(0.343407 -0.572099 0.00285576)
(0.343008 -0.569844 0.000487207)
(0.342973 -0.569778 -0.000464013)
(0.343302 -0.571875 -0.00274116)
(0.34292 -0.577072 -0.00813829)
(0.329895 -0.561829 -0.0307341)
(0.240662 -0.368731 -0.0303852)
(-0.0351504 -0.033925 -0.00231483)
(-0.0395764 -0.036716 -0.00370137)
(-0.0411515 -0.0381794 -0.00233686)
(-0.0420401 -0.0392885 -0.00145305)
(-0.042357 -0.0397512 -0.000475135)
(-0.0423631 -0.039763 0.000405616)
(-0.0420648 -0.0393308 0.0013749)
(-0.0412097 -0.0382544 0.00222593)
(-0.0397367 -0.0368636 0.00361016)
(-0.0353328 -0.0341055 0.00229289)
(-0.0541147 -0.015629 -0.00448373)
(-0.0626532 -0.0206503 -0.00675416)
(-0.0653019 -0.0213144 -0.00415152)
(-0.0666643 -0.0218751 -0.00255039)
(-0.0670712 -0.0219361 -0.000813407)
(-0.0670746 -0.0219321 0.000702092)
(-0.0666863 -0.0218763 0.00242523)
(-0.0653666 -0.021313 0.00396962)
(-0.0628984 -0.0207357 0.00659224)
(-0.0543877 -0.0157174 0.0044373)
(-0.0788293 -0.0345018 -0.005009)
(-0.102613 -0.0455092 -0.00697365)
(-0.107865 -0.0481347 -0.00282732)
(-0.109965 -0.0497619 -0.00171778)
(-0.11036 -0.050266 -0.000437832)
(-0.110357 -0.0502816 0.000382091)
(-0.109974 -0.049816 0.00165353)
(-0.107954 -0.0482399 0.00268073)
(-0.103107 -0.0457764 0.00681535)
(-0.0794738 -0.034849 0.00497599)
(-0.148131 0.0384203 -0.0119133)
(-0.16306 0.0262033 -0.009703)
(-0.174684 0.0280276 -0.00535438)
(-0.180236 0.0327287 -0.00364275)
(-0.181834 0.0342765 -0.00114231)
(-0.181838 0.0343126 0.000968354)
(-0.180291 0.0328741 0.00347402)
(-0.17483 0.0282296 0.00522075)
(-0.163453 0.0262395 0.00951638)
(-0.148957 0.0385305 0.0117805)
(0.237318 -0.00485796 0.0195856)
(0.360532 -0.0846737 0.0215884)
(0.374927 -0.0848794 0.00704365)
(0.375866 -0.0806424 0.00237864)
(0.37557 -0.0790655 0.000425434)
(0.375543 -0.0790631 -0.000398172)
(0.375801 -0.0806426 -0.00227551)
(0.375031 -0.0850185 -0.00668728)
(0.361834 -0.085167 -0.0212022)
(0.239748 -0.00602303 -0.0194568)
(-0.0354138 -0.0218919 -0.00109443)
(-0.0375612 -0.0231166 -0.00184394)
(-0.03857 -0.0238654 -0.0012933)
(-0.0392901 -0.0244752 -0.00084873)
(-0.039607 -0.0247559 -0.000291416)
(-0.0396164 -0.0247655 0.000243067)
(-0.0393224 -0.0245065 0.00079751)
(-0.0386291 -0.0239193 0.00123037)
(-0.0376737 -0.0232061 0.00179449)
(-0.0355394 -0.022004 0.00108165)
(-0.0501836 -0.00692923 -0.00217196)
(-0.0536462 -0.00863846 -0.00337239)
(-0.0554105 -0.00864342 -0.00239078)
(-0.0566969 -0.00867381 -0.00156561)
(-0.0572442 -0.00861546 -0.000532539)
(-0.0572581 -0.0086108 0.000447173)
(-0.0567459 -0.00866579 0.00147491)
(-0.0554997 -0.00862789 0.00228225)
(-0.0538192 -0.00864686 0.00327874)
(-0.0503879 -0.00693612 0.00214037)
(-0.045308 -0.0248273 -0.00174403)
(-0.0504924 -0.0275611 -0.0025035)
(-0.051727 -0.0281583 -0.00107566)
(-0.0528585 -0.0289277 -0.000700301)
(-0.0532145 -0.0292013 -0.000192199)
(-0.0532211 -0.0292162 0.000162783)
(-0.0528932 -0.0289774 0.000667826)
(-0.0517841 -0.0282395 0.00100939)
(-0.0506447 -0.0276847 0.00243131)
(-0.0454784 -0.0250052 0.00172317)
(-0.0649754 0.028947 -0.00615751)
(-0.0631255 0.0366036 -0.00711487)
(-0.0667437 0.0399232 -0.00381304)
(-0.0698649 0.0422121 -0.00261307)
(-0.0710045 0.0428712 -0.000833033)
(-0.0710295 0.0428851 0.000681049)
(-0.0699567 0.042276 0.00245575)
(-0.066887 0.0400548 0.00364421)
(-0.0632448 0.036876 0.00694298)
(-0.0652016 0.0293442 0.00607901)
(0.226991 0.0238811 0.00742997)
(0.332981 0.0137494 0.0074188)
(0.343693 0.0177703 0.00222976)
(0.344377 0.0194329 0.000666361)
(0.344219 0.0198793 7.41104e-05)
(0.344209 0.0198602 -6.69865e-05)
(0.344366 0.0193669 -0.000628907)
(0.343877 0.0176161 -0.0021175)
(0.334217 0.0136067 -0.00729472)
(0.229127 0.0236774 -0.00737735)
(-0.0361013 -0.0113953 -0.000419568)
(-0.0374066 -0.0118501 -0.000759231)
(-0.0380831 -0.0121731 -0.000586858)
(-0.0385974 -0.0124594 -0.00040731)
(-0.0388458 -0.0126007 -0.000145975)
(-0.0388553 -0.012607 0.000118356)
(-0.0386278 -0.0124793 0.000379341)
(-0.0381358 -0.0122063 0.000556557)
(-0.0374929 -0.0118994 0.000736228)
(-0.0361965 -0.0114572 0.000413241)
(-0.0502991 -0.0027946 -0.000881621)
(-0.052365 -0.0032488 -0.00143702)
(-0.053648 -0.00311662 -0.00114048)
(-0.0546417 -0.00305611 -0.0007904)
(-0.0551153 -0.00300614 -0.000281748)
(-0.0551315 -0.00300367 0.000228912)
(-0.0546951 -0.00304985 0.000736569)
(-0.0537407 -0.00310392 0.00108394)
(-0.0525151 -0.00323882 0.00138988)
(-0.050478 -0.00277814 0.000864317)
(-0.0421518 -0.0133761 -0.000382919)
(-0.044633 -0.0148596 -0.000601128)
(-0.0453302 -0.0153038 -0.00030228)
(-0.0458857 -0.015839 -0.000262151)
(-0.0460883 -0.016061 -8.3414e-05)
(-0.0460935 -0.0160731 6.65463e-05)
(-0.0459085 -0.0158798 0.00024715)
(-0.0453684 -0.0153701 0.000280576)
(-0.0447233 -0.0149521 0.000578959)
(-0.0422521 -0.0135127 0.000376306)
(-0.0611844 0.00842246 -0.00279016)
(-0.0554835 0.0116608 -0.00377238)
(-0.0568473 0.012795 -0.00220498)
(-0.0585442 0.0134898 -0.00158278)
(-0.0592383 0.0136708 -0.000529233)
(-0.059262 0.0136776 0.000420647)
(-0.0586236 0.013518 0.00147159)
(-0.056968 0.0128553 0.00209345)
(-0.0555784 0.0117861 0.00365627)
(-0.0612911 0.00857847 0.00273039)
(0.214156 0.00402488 0.00177158)
(0.319821 -0.0028753 0.00146484)
(0.330026 -0.00228486 0.000245038)
(0.331179 -0.00229848 -5.66726e-05)
(0.331276 -0.00234213 -6.05016e-05)
(0.331276 -0.00235346 6.1821e-05)
(0.331201 -0.00234565 6.95736e-05)
(0.330252 -0.00238987 -0.000217552)
(0.321053 -0.00301037 -0.00143985)
(0.216345 0.00375948 -0.00175731)
(-0.0358389 -0.00163316 -3.75466e-05)
(-0.0367537 -0.00151787 -8.25241e-05)
(-0.0372366 -0.00147433 -9.08024e-05)
(-0.0376197 -0.00148018 -7.92247e-05)
(-0.037816 -0.00149004 -3.12702e-05)
(-0.0378249 -0.0014928 2.32163e-05)
(-0.0376481 -0.00148688 7.16371e-05)
(-0.0372843 -0.00148438 8.42683e-05)
(-0.0368249 -0.00152809 7.78795e-05)
(-0.0359171 -0.00164713 3.62545e-05)
(-0.0507848 9.88616e-05 2.62092e-05)
(-0.0525291 0.000306039 1.38626e-05)
(-0.0536838 0.000486035 -9.46056e-05)
(-0.0545783 0.000577574 -0.000113724)
(-0.0550199 0.000618905 -5.01088e-05)
(-0.0550375 0.000620105 3.32069e-05)
(-0.0546348 0.000581315 9.90467e-05)
(-0.0537812 0.000494221 8.42258e-05)
(-0.0526788 0.000320419 -2.25384e-05)
(-0.0509624 0.000115665 -3.09997e-05)
(-0.0413397 -0.00383588 0.000303475)
(-0.0428702 -0.00270086 0.000429426)
(-0.0433729 -0.00242592 0.000202381)
(-0.0437886 -0.00250487 6.07431e-05)
(-0.0439641 -0.00258826 1.33564e-05)
(-0.0439703 -0.00259718 -1.59598e-05)
(-0.0438109 -0.00253226 -6.06756e-05)
(-0.0434098 -0.00246577 -0.000197254)
(-0.0429391 -0.00272347 -0.000427074)
(-0.0414123 -0.00389758 -0.000304959)
(-0.0599991 0.000429429 0.000916789)
(-0.0567668 0.00103979 0.00115289)
(-0.058692 0.0012089 1.40559e-05)
(-0.0604113 0.00124013 -0.000317726)
(-0.0610874 0.00122184 -0.000153708)
(-0.0611111 0.00122319 9.95281e-05)
(-0.0604902 0.00124655 0.000270217)
(-0.0588188 0.00122598 -2.31739e-05)
(-0.0569245 0.00107054 -0.00118346)
(-0.0601465 0.000460221 -0.000957411)
(0.212258 -0.00826573 -0.000295723)
(0.317377 -0.0073702 -0.000587716)
(0.327462 -0.00764794 -0.000410428)
(0.328789 -0.00845614 -0.000316177)
(0.329007 -0.00879846 -0.000102774)
(0.329011 -0.00880835 9.94948e-05)
(0.328827 -0.0085071 0.000316517)
(0.327706 -0.00773835 0.000405309)
(0.318624 -0.00744102 0.000583047)
(0.214479 -0.00851919 0.000310013)
(-0.0345718 0.00860709 0.000228336)
(-0.0353533 0.00935972 0.000410792)
(-0.0357166 0.0098052 0.000284627)
(-0.0360141 0.010092 0.000177309)
(-0.0361701 0.0102179 6.07952e-05)
(-0.0361784 0.0102198 -5.09081e-05)
(-0.0360402 0.0100998 -0.000166169)
(-0.0357593 0.00982177 -0.000271713)
(-0.0354151 0.00939417 -0.00040084)
(-0.0346398 0.00864732 -0.000224854)
(-0.05225 0.00309225 0.000955828)
(-0.0540681 0.00387171 0.001485)
(-0.0552068 0.00412271 0.000938342)
(-0.0560879 0.00424597 0.000541651)
(-0.0565237 0.00428521 0.000174981)
(-0.0565428 0.00428537 -0.000153919)
(-0.0561469 0.00424747 -0.000515518)
(-0.055309 0.00412826 -0.000899824)
(-0.0542257 0.00389011 -0.00145333)
(-0.0524443 0.00310898 -0.000947769)
(-0.0407121 0.00737703 0.000850122)
(-0.0421454 0.0130122 0.00126956)
(-0.0425084 0.0144228 0.000632907)
(-0.0428375 0.0149796 0.00033416)
(-0.0429825 0.0150787 9.88792e-05)
(-0.0429887 0.0150735 -8.73186e-05)
(-0.04286 0.0149709 -0.000317918)
(-0.0425443 0.0144242 -0.000604694)
(-0.0422052 0.013106 -0.00124828)
(-0.0407832 0.00744189 -0.000847117)
(-0.0648349 -0.00303421 0.00614821)
(-0.0664889 -0.00323973 0.00800253)
(-0.0686049 -0.00348337 0.00267666)
(-0.0702201 -0.00383335 0.00105522)
(-0.0708507 -0.0039907 0.000229388)
(-0.0708755 -0.00399302 -0.000225686)
(-0.0702941 -0.0038428 -0.00102799)
(-0.068738 -0.0034924 -0.00254432)
(-0.0667139 -0.00325089 -0.00791246)
(-0.0650837 -0.00306619 -0.00616084)
(0.22019 -0.0224995 -0.00261859)
(0.325062 -0.00531832 -0.00303151)
(0.335876 -0.00501424 -0.0013785)
(0.337989 -0.00699068 -0.000773087)
(0.338564 -0.00786523 -0.000213741)
(0.338577 -0.00788668 0.000200726)
(0.338061 -0.00708663 0.000754396)
(0.33618 -0.00513084 0.00132925)
(0.326367 -0.00519414 0.00298335)
(0.222593 -0.0226747 0.00263365)
(-0.03164 0.0204163 0.000445866)
(-0.0323347 0.0219022 0.000805573)
(-0.03257 0.0227641 0.000565441)
(-0.0327786 0.023366 0.000375613)
(-0.0328895 0.023641 0.000133449)
(-0.0328969 0.0236482 -0.000107033)
(-0.0328007 0.0233907 -0.000348755)
(-0.0326047 0.0228107 -0.000536146)