/*--------------------------------*- C++ -*----------------------------------*\
| =========                 |                                                 |
| \\      /  F ield         | OpenFOAM: The Open Source CFD Toolbox           |
|  \\    /   O peration     | Version:  2.3.1                                 |
|   \\  /    A nd           | Web:      www.OpenFOAM.org                      |
|    \\/     M anipulation  |                                                 |
\*---------------------------------------------------------------------------*/
FoamFile
{
    version     2.0;
    format      ascii;
    class       volScalarField;
    location    "4320";
    object      sigmaEq;
}
// * * * * * * * * * * * * * * * * * * * * * * * * * * * * * * * * * * * * * //

dimensions      [1 -1 -2 0 0 0 0];

internalField   nonuniform List<scalar> 
11800
(
192806
134534
650212
551351
130583
384866
178824
196000
211349
225603
192003
789463
100136
586094
497921
2.15445e+06
138080
139514
253247
155472
438333
712555
933108
836321
1.76628e+06
1.1023e+06
1.15881e+06
575204
1.26085e+06
1.36378e+06
381148
126075
1.10648e+06
140487
147461
365800
149854
1.17982e+06
150124
163696
1.20098e+06
1.30691e+06
604233
1.41479e+06
402207
2.01724e+06
894929
1.04387e+06
180455
270976
828924
583778
145651
236815
2.29922e+06
1.87927e+06
72329.1
539503
421203
402327
1.87838e+06
160989
428103
352121
1.73205e+06
260667
852730
604668
72003.4
1.01973e+06
148963
124413
120418
1.7884e+06
1.86024e+06
354730
1.81207e+06
247431
196620
200254
2.33691e+06
137085
130387
132529
135320
1.31489e+06
409686
1.21317e+06
1.11356e+06
600298
144775
1.31759e+06
166690
68720.6
207503
170782
22150.1
170844
147315
694609
82286.8
766199
1.25054e+06
430402
156571
366915
201725
173622
1.83638e+06
1.22438e+06
1.32679e+06
1.12389e+06
415509
608716
248897
1.65792e+06
242419
155325
1.55665e+06
232077
223287
180341
202414
153952
163920
144295
147102
146902
103391
30011
2.10055e+06
1.40428e+06
445003
1.31842e+06
640191
1.21437e+06
1.11321e+06
388730
1.12849e+06
554407
1.03952e+06
953115
564347
215727
272677
370717
1.36707e+06
1.39948e+06
798513
414532
227292
219324
146845
289536
266019
204701
528845
729436
1.4482e+06
153276
2.1102e+06
255285
1.84507e+06
532850
578823
625416
317161
237920
2.26972e+06
1.42056e+06
505655
697460
169165
414730
412539
2.01851e+06
2.04038e+06
1.08341e+06
995097
1.17424e+06
530531
362574
280368
224908
502381
239909
369624
166198
190398
176313
265909
248581
236515
214516
1.03479e+06
1.31392e+06
1.85599e+06
132512
246215
2.18647e+06
150208
319157
357454
151172
156440
950542
794567
731362
605435
2.09952e+06
646164
954463
2.85628e+06
2.40121e+06
2.42251e+06
375435
140680
925554
849722
781374
291774
421183
140208
141010
249624
150922
1.38267e+06
280032
153157
521612
234059
191932
149856
735153
750662
2.85394e+06
1.38156e+06
246070
257296
1.2883e+06
1.05556e+06
362771
530101
1.1726e+06
1.08477e+06
996135
155991
1.26922e+06
446095
615067
576136
168738
134287
453819
404027
155001
2.42091e+06
315608
364064
259546
299578
783494
852175
921331
419407
293736
148737
1.84644e+06
174174
86476.2
145983
460858
169203
604382
2.14953e+06
432767
429056
650553
470446
542127
393930
1.33603e+06
1.11713e+06
357759
447768
283779
341453
614612
807902
290222
1.30418e+06
1.39878e+06
1.68165e+06
186545
427605
424982
1.95261e+06
1.9707e+06
1.18398e+06
1.1652e+06
1.2069e+06
1.19447e+06
143877
98059.3
322493
2.51826e+06
130304
136904
334422
273131
294768
1.03288e+06
1.05924e+06
1.74808e+06
2.4237e+06
758327
201686
986615
816049
568625
464582
177585
188004
286882
510071
267466
472775
136571
183733
176162
154805
1.38789e+06
176906
136789
2.01877e+06
344333
781678
871752
848876
1.07322e+06
1.03299e+06
110215
109008
702755
920493
634624
1.64318e+06
130223
915528
711412
467079
352364
347575
266520
353869
305345
405303
443837
477877
169969
147375
861759
914121
196019
246432
505845
429965
483372
219027
204886
256792
261983
992165
480996
353723
385208
1.20202e+06
1.39422e+06
369952
215052
202283
276585
256601
485126
562922
460129
539785
424786
498366
375278
356454
718605
366563
802478
1.38485e+06
698533
511065
2.2199e+06
143717
1.45403e+06
717846
520697
2.15539e+06
154574
1.48731e+06
367743
1.2489e+06
1.15292e+06
1.12233e+06
205787
94262.8
130922
2.56484e+06
2.21911e+06
990945
354902
482261
192477
257552
292377
158446
220266
1.70095e+06
68441.8
614036
471110
1.87514e+06
114069
188825
160756
158323
160193
160591
1.87568e+06
630854
251540
733749
676266
622194
126794
1.41584e+06
464311
650968
179028
929552
201292
1.80376e+06
144004
211243
531050
490214
451557
943421
251740
527391
462424
246137
737216
802271
869180
420221
300536
69908.8
184151
205134
2.33087e+06
808421
637475
459549
378070
198339
160106
117255
116660
203447
105765
122914
130252
175412
349899
156986
200186
630644
769846
361964
1.66149e+06
218820
394154
162738
194578
1.61281e+06
2.11774e+06
668064
725844
261521
232503
126772
1.41143e+06
2.06007e+06
1.81932e+06
2.62785e+06
862309
602098
788446
130123
198085
181362
202767
783856
152224
150282
132406
193660
1.41059e+06
315634
1.43813e+06
842287
182901
234795
1.15749e+06
1.47959e+06
778964
847307
913708
414305
290352
709238
149801
151387
147678
169730
134423
199836
102195
193757
101880
191639
89676.6
186416
171099
177925
121385
1.61408e+06
246428
268911
598995
950015
130351
160299
138889
136305
121015
313218
455921
134803
134088
620756
127993
190771
1.75366e+06
85405.8
172604
555075
511101
534866
579572
594463
626352
293744
218942
2.03473e+06
2.50816e+06
526561
90234.3
373696
357099
401156
284146
855154
790726
727030
182001
89166.6
828881
772971
343944
382508
190464
662382
719022
246787
1.16831e+06
1.18451e+06
1.19826e+06
1.18652e+06
2.00357e+06
1.96053e+06
618543
2.38997e+06
870881
145437
1.66633e+06
1.47757e+06
1.60714e+06
821373
332137
359108
196166
1.70881e+06
566036
714027
2.53017e+06
224667
279231
555354
542486
1.42002e+06
739540
2.11641e+06
143591
141269
289200
415649
922060
847512
779248
1.92903e+06
160057
424025
910236
1.37233e+06
140628
2.26351e+06
2.11695e+06
2.19698e+06
255252
345949
131665
2.24643e+06
649090
260154
444789
2.11304e+06
155243
262595
278504
149730
514490
318068
2.5651e+06
2.25509e+06
216308
638244
816204
313376
371110
275294
241735
679524
201360
637989
470635
1.20615e+06
1.05214e+06
181085
1.37492e+06
148060
434423
535202
1.83063e+06
348789
472842
263594
215401
200153
234466
447572
1.04693e+06
1.15313e+06
150358
144317
146291
193509
372167
1.39394e+06
121436
482329
872985
680455
242205
1.15825e+06
1.28209e+06
832386
1.39479e+06
1.51085e+06
626154
409515
170892
205436
388545
413812
361429
399863
204625
369435
430468
251437
149218
2.61322e+06
1.12386e+06
422617
572601
523668
254115
455458
666867
1.43347e+06
1.32161e+06
1.212e+06
371774
439535
211300
229578
1.63148e+06
1.19561e+06
1.39048e+06
160999
214425
307357
729813
1.61085e+06
515812
101707
162083
2.36866e+06
2.22576e+06
267510
2.03814e+06
118644
172260
125833
778946
136543
237976
264168
1.45325e+06
1.58114e+06
1.71145e+06
1.84539e+06
837025
711225
590808
465085
205825
142598
457125
2.25945e+06
151188
147308
164265
155442
163569
170139
175615
1.74896e+06
882439
905365
532969
987012
1.07173e+06
375621
1.25176e+06
299525
246771
158533
2.3427e+06
149548
180503
174073
182105
149622
2.13106e+06
301479
297597
1.14402e+06
378066
796061
283250
2.16926e+06
956771
478644
356014
1.46897e+06
530146
201662
168671
150811
144223
253448
278738
267209
194370
525272
164084
145936
937995
1.04749e+06
125571
663800
956059
810159
1.10033e+06
2.05324e+06
1.9004e+06
1.7485e+06
1.59616e+06
663827
809766
2.05533e+06
1.90242e+06
955789
1.7505e+06
1.10046e+06
1.5985e+06
1.8332e+06
166389
142991
156103
267289
579893
1.2689e+06
148708
483512
662646
523062
720567
210410
272508
481085
704418
1.50393e+06
1.38646e+06
1.27107e+06
603166
446706
1.12691e+06
227527
289195
180177
372497
346377
315313
647696
505605
519736
385762
140176
774399
212358
396683
487185
1.20677e+06
656141
767444
618913
225742
293725
202465
178103
168054
194272
682726
576040
152944
234373
257569
530621
1.57837e+06
517006
726541
544862
170562
245064
230487
212827
290061
207652
700030
645407
589410
229061
1.68993e+06
798291
233209
1.03968e+06
701546
1.51171e+06
2.04855e+06
253084
282471
238265
159484
171396
847353
721365
2.13515e+06
141884
200384
394863
585498
252933
149676
855563
846765
63535.3
147772
409768
333423
94958.6
1.87179e+06
2.04868e+06
339446
129299
305036
431920
923117
782006
851083
2.33774e+06
144623
670133
754994
179477
689433
842310
995380
1.14546e+06
2.14989e+06
1.99099e+06
1.83221e+06
1.67346e+06
689023
841740
2.1509e+06
1.99117e+06
993921
1.83257e+06
1.14491e+06
1.67407e+06
1.99598e+06
1.71755e+06
1.29491e+06
550547
627951
1.71802e+06
1.27684e+06
379002
128108
122762
1.27597e+06
2.26995e+06
171320
472038
1.8671e+06
1.27588e+06
2.049e+06
2.09145e+06
1.35563e+06
1.35843e+06
621935
493086
644351
268642
200549
341706
171741
209294
256076
214958
470721
2.19874e+06
643309
216564
130429
412211
442097
1.99972e+06
417529
377661
479539
509047
1.29953e+06
616555
444754
1.66575e+06
475308
618481
222482
182513
427351
369833
398824
988985
643324
624726
1.51328e+06
1.44722e+06
617354
652219
1.13981e+06
1.22423e+06
459026
481802
147679
203786
213365
627686
488528
84197.2
179568
206323
729227
693527
376560
733401
567048
224040
137237
137249
574572
1.38605e+06
135765
2.04786e+06
296380
832631
765346
235729
295010
495566
161235
137135
1.75139e+06
443295
1.14077e+06
1.05356e+06
967950
353797
515638
181213
1.58357e+06
2.09502e+06
190909
157264
1.15192e+06
421825
576274
995730
1.08351e+06
1.18565e+06
357158
519462
66973.5
839179
438108
2.08842e+06
348631
1.20199e+06
998937
1.12107e+06
150580
154933
158587
167290
169611
148510
1.7326e+06
538849
201154
233687
259181
291501
364261
403862
827627
800782
764877
737859
679191
702853
1.20104e+06
181981
150043
145203
199331
225735
160285
182626
1.43044e+06
295247
536463
458021
1.17934e+06
621026
217899
227265
510967
395728
705532
576920
1.4163e+06
1.24308e+06
1.14712e+06
1.05258e+06
584921
1.63148e+06
808229
1.62144e+06
287015
238839
309373
300168
209296
189542
207463
1.64936e+06
2.13837e+06
383635
124929
285085
643147
499560
139903
165985
276937
262574
274560
254339
337129
316958
237956
544741
604524
588601
653067
500080
555633
610907
140767
1.34437e+06
1.06726e+06
563968
1.34653e+06
1.26482e+06
739254
2.13863e+06
405152
385033
436302
467001
215595
176483
189785
406136
157178
1.79391e+06
231542
151844
897071
64319.5
125745
1.77885e+06
203969
462286
1.47265e+06
678820
1.35835e+06
1.24597e+06
1.60368e+06
1.06546e+06
174710
682060
545455
226006
1.52202e+06
697259
226730
1.27532e+06
1.16273e+06
1.38672e+06
146137
148906
176437
2.58459e+06
309459
485710
593681
268605
151970
150807
465878
503485
196140
1.77977e+06
473242
1.80719e+06
275561
888971
149661
717862
858679
1.13627e+06
456692
615318
736940
296922
2.54129e+06
181264
127746
155128
2.168e+06
1.42112e+06
358433
528056
1.19595e+06
1.10797e+06
1.01796e+06
2.23161e+06
684375
554221
2.22724e+06
2.51625e+06
1.73644e+06
86612.2
596817
1.4796e+06
1.11268e+06
606543
451210
1.12007e+06
999205
459957
1.5157e+06
366030
298488
569902
502548
381799
1.75236e+06
2.66407e+06
135185
148103
174488
2.54297e+06
175038
204794
789672
607399
2.25081e+06
2.35785e+06
146025
669940
231406
220408
554502
238378
143913
598704
138843
156828
2.67904e+06
1.16996e+06
650208
485154
436805
312365
888579
820414
753104
227548
2.38583e+06
468489
424378
484819
1.99782e+06
815618
1.1992e+06
164701
257453
194538
895077
551620
734757
135222
314391
428843
906862
320065
202907
173324
342876
2.22495e+06
323681
437413
899060
1.43717e+06
2.03139e+06
1.37463e+06
940672
744358
881032
90453
257723
359409
768515
709624
653379
2.03124e+06
160018
208321
223371
222927
223723
216823
322269
147845
149702
730268
1.84165e+06
523612
1.15853e+06
1.06938e+06
982561
359412
2.08033e+06
668123
761853
912258
786523
1.27612e+06
2.03595e+06
611446
159923
785040
126298
961815
577719
1.04897e+06
1.13941e+06
409433
1.32266e+06
326338
2.7516e+06
943788
151329
1.89888e+06
2.75921e+06
2.37559e+06
561723
145048
1.06606e+06
181101
170586
123735
297542
161850
166751
143255
151072
1.7233e+06
1.80902e+06
150717
1.18414e+06
190940
181643
148124
248484
1.24482e+06
1.25047e+06
283820
1.267e+06
1.2697e+06
1.62608e+06
534872
200289
251681
343420
688072
746605
252713
66999.1
172733
810956
387843
948706
1.0678e+06
1.16652e+06
1.26731e+06
651806
459461
337114
188401
162550
2.06113e+06
1.13821e+06
137671
236559
1.01734e+06
790788
430446
466249
212075
189850
350346
310417
123306
238966
163107
1.73002e+06
677570
1.64583e+06
155046
142568
2.76013e+06
143366
2.14212e+06
2.11513e+06
151649
986772
498055
1.69488e+06
165347
935404
1.06294e+06
2.31438e+06
259489
162780
137313
524541
248514
339673
687800
630373
579854
169523
134759
194328
184914
1.21603e+06
1.33958e+06
914284
1.56286e+06
1.43659e+06
1.65933e+06
2.36116e+06
296388
753107
2.24874e+06
659841
2.10988e+06
1.01025e+06
1.09938e+06
1.1916e+06
527685
357948
442560
518169
1.95066e+06
176312
207596
307007
290921
271487
196974
404997
374078
350038
857838
890822
2.60773e+06
288451
133482
184147
2.05912e+06
589580
320217
309211
2.00903e+06
1.05199e+06
726139
115153
215525
137662
1.03723e+06
1.32256e+06
333374
1.48876e+06
203208
197100
2.68409e+06
1.75828e+06
2.15211e+06
420312
558609
976699
304326
770781
2.24226e+06
2.36622e+06
199890
229939
386959
315531
1.12201e+06
1.25339e+06
858105
966703
2.49256e+06
2.29475e+06
294486
195269
114399
1.63984e+06
133370
2.16352e+06
428504
327353
1.1627e+06
371829
152236
2.0063e+06
228155
298271
113480
135656
1.4924e+06
517392
154991
813119
386893
213507
158171
137736
754368
139645
2.0514e+06
1.84248e+06
338500
919569
521312
153773
171321
1.58313e+06
191824
1.06712e+06
274103
589215
1.2402e+06
1.41535e+06
1.95994e+06
211011
334248
2.13482e+06
267826
167962
157833
184209
140170
2.18535e+06
1.70837e+06
394326
543421
939561
942398
1.23015e+06
433701
596095
429432
623869
1.33107e+06
1.22804e+06
1.12651e+06
1.76017e+06
830200
592486
1.69282e+06
596058
1.84154e+06
689803
768062
2.03517e+06
2.75476e+06
2.36131e+06
465611
447431
1.27314e+06
608036
440747
146166
381478
1.95467e+06
164252
192296
2.49771e+06
1.8667e+06
2.14721e+06
999092
1.23928e+06
1.2493e+06
1.07879e+06
134950
127137
190444
129693
771199
838751
910744
425635
298472
654746
2.17737e+06
164491
218963
184314
171384
1.12949e+06
1.02076e+06
204158
1.93814e+06
2.19121e+06
1.30365e+06
1.06515e+06
1.76382e+06
2.03169e+06
128230
973403
618009
1.35461e+06
180302
289380
309632
1.73952e+06
1.73281e+06
797904
403058
122874
148052
253641
532942
1.81808e+06
242068
1.39788e+06
166444
406255
274866
366326
627378
322613
493934
48018.9
13870.9
493484
2.57948e+06
225249
184796
185542
144622
133048
197729
204008
147620
148595
579183
146449
159910
197974
1.08729e+06
1.34051e+06
965217
1.80426e+06
2.29742e+06
158503
220568
422224
183315
1.64673e+06
229792
2.41001e+06
259333
337758
652778
484394
256096
265352
615787
140026
164936
209480
132804
201881
130564
2.14331e+06
116828
171187
312606
131532
99638.8
2.04627e+06
228970
1.7713e+06
1.88626e+06
683353
439829
358188
521380
1.1721e+06
1.09318e+06
1.00445e+06
142748
1.29178e+06
668503
138959
2.18793e+06
147543
154859
408557
1.20256e+06
967980
1.07369e+06
1.47061e+06
211518
159896
457757
678376
1.48173e+06
788730
1.60039e+06
567460
1.36671e+06
1.25385e+06
451927
1.58691e+06
561675
1.46365e+06
667107
1.35049e+06
1.23889e+06
778554
1.59133e+06
200948
665555
519826
164610
208796
1.78602e+06
1.12149e+06
1.51918e+06
1.41328e+06
1.23309e+06
1.52636e+06
1.12672e+06
428370
469494
694346
1.67628e+06
160064
2.46636e+06
197241
159974
1.86006e+06
221303
350631
687398
680441
2.0288e+06
120835
1.29163e+06
1.19287e+06
1.09488e+06
397936
585421
2.49067e+06
420501
321456
745105
192470
779946
360399
376871
134592
218717
227327
198125
595782
131940
731547
391880
297566
999695
1.33245e+06
1.33787e+06
999341
487640
2.35345e+06
146197
147352
2.10207e+06
1.89793e+06
1.15342e+06
2.74753e+06
1.24196e+06
1.07131e+06
1.10102e+06
2.44107e+06
1.22764e+06
982842
2.16888e+06
465200
491534
733342
1.91163e+06
118181
1.62548e+06
194484
284261
446299
748935
815753
884596
434396
309544
493334
81501.4
87478.9
160503
171508
234957
195024
155083
209921
1.22003e+06
2.22188e+06
267028
196686
2.04625e+06
1.49349e+06
589801
800871
160892
168588
1.78209e+06
1.17803e+06
249979
940908
882465
1.17699e+06
142155
160513
164657
142066
1.39644e+06
2.25502e+06
2.20102e+06
1.49528e+06
2.38262e+06
303352
131998
393667
1.19888e+06
1.10053e+06
1.2994e+06
591288
401038
2.52128e+06
555072
701122
916869
297320
252035
1.05025e+06
370878
191654
797540
304830
395900
2.33346e+06
403918
357225
1.25428e+06
1.15834e+06
1.06477e+06
535396
1.59397e+06
1.50188e+06
1.97154e+06
614555
635058
815914
1.68211e+06
802657
575229
1.49553e+06
288932
2.75846e+06
182087
2.10475e+06
563165
643704
152744
685567
1.31611e+06
157747
184938
181300
2.43437e+06
721182
661835
779944
386020
278415
350964
702195
1.59083e+06
709272
1.38149e+06
1.6281e+06
1.50465e+06
472492
1.52971e+06
1.16345e+06
1.23154e+06
1.45807e+06
1.53281e+06
1.16474e+06
1.24208e+06
1.46674e+06
846506
705532
54185
337749
207001
484462
715637
594678
829901
1.66723e+06
1.5456e+06
1.42535e+06
1.30736e+06
479901
1.33057e+06
660519
180112
124508
129993
223645
119103
569643
1.35415e+06
1.38304e+06
490699
2.27934e+06
185037
166745
1.77369e+06
2.19911e+06
105504
1.40645e+06
555487
753097
1.05235e+06
579523
375520
164479
557084
788191
71986.8
150439
2.30635e+06
305673
228638
559044
514808
605407
387693
147560
153961
394465
1.38336e+06
2.13945e+06
2.47695e+06
383311
426192
1.79235e+06
1.61575e+06
2.10165e+06
125811
1.16683e+06
2.04786e+06
2.49249e+06
2.57025e+06
2.51567e+06
660469
1.14684e+06
494263
2.37483e+06
1.79975e+06
737293
1.54778e+06
170913
150998
1.84274e+06
1.8445e+06
152416
495988
2.28538e+06
1.9218e+06
1.82822e+06
1.89217e+06
2.58096e+06
1.75283e+06
2.2839e+06
1.97107e+06
171518
312033
1.45454e+06
684935
1.18994e+06
250320
164979
208666
192498
174319
232540
207397
495780
2.2908e+06
1.3923e+06
490341
678388
1.48881e+06
193101
689958
480390
2.63923e+06
371152
360276
660033
378938
612739
271865
211063
2.14839e+06
17645.6
172257
172061
35446.5
537892
571134
204491
224381
238583
165610
605054
599718
145128
2.29896e+06
1.9606e+06
710205
1.48636e+06
510153
138392
1.73409e+06
383329
2.28291e+06
634709
776177
918915
1.05962e+06
2.00566e+06
1.85874e+06
1.71086e+06
1.5653e+06
633754
774902
2.00444e+06
1.85672e+06
916589
1.70915e+06
1.05749e+06
1.56329e+06
351044
268181
650823
709181
626817
296135
241272
205028
164322
153306
175743
147191
155493
263398
1.06802e+06
1.14651e+06
1.03432e+06
578976
1.12653e+06
1.24143e+06
1.91415e+06
812984
655478
2.02949e+06
677200
232358
144649
199185
162207
320371
295363
299425
156401
430283
340019
444064
912392
155629
236565
1.07353e+06
170058
122711
153735
132378
1.61388e+06
188120
219063
763038
608685
293138
760963
239994
144937
131934
2.40701e+06
2.48457e+06
1.5165e+06
1.24258e+06
1.21207e+06
1.54293e+06
2.439e+06
1.26333e+06
142774
815362
455328
347523
501732
239346
2.305e+06
252894
1.36808e+06
1.26501e+06
1.1615e+06
611389
413846
716072
419660
319217
2.32861e+06
268299
142982
763740
763058
349181
217435
266241
450688
921948
1.75012e+06
737088
588938
1.07703e+06
1.42685e+06
390024
569933
1.2348e+06
1.1386e+06
1.04487e+06
589306
634305
1.02253e+06
847787
1.19108e+06
631700
1.3083e+06
1.4228e+06
411662
1.5408e+06
2.74882e+06
1.93613e+06
126123
938895
1.02433e+06
1.11291e+06
339801
229104
1.66976e+06
290212
381428
471364
519013
221476
282166
226256
178674
1.60336e+06
1.23304e+06
1.29317e+06
1.54919e+06
355818
1.93699e+06
2.40145e+06
887110
155707
921629
1.00469e+06
1.09183e+06
1.02138e+06
1.18341e+06
332118
1.89513e+06
829686
773831
709763
838369
302168
421286
242366
224423
526334
619290
571201
656558
715693
775868
475135
471580
679420
682357
1.38071e+06
1.37402e+06
1.1654e+06
1.2717e+06
1.15925e+06
1.26538e+06
687700
747450
265201
164627
188251
225546
1.3658e+06
882819
151361
1.40425e+06
1.16547e+06
1.11769e+06
1.44667e+06
227577
502058
1.80568e+06
763602
1.66774e+06
1.53212e+06
121791
299004
1.24291e+06
739035
521739
1.65075e+06
575218
77361.1
1.26787e+06
1.16435e+06
1.37458e+06
616028
415988
1.68598e+06
655919
530592
2.24717e+06
658434
932511
222365
159629
377571
353123
323622
1.91607e+06
476752
316692
544020
501041
586705
295292
223839
1.26461e+06
1.41789e+06
226868
813980
171173
1.0872e+06
2.18125e+06
1.36679e+06
676457
505522
1.20514e+06
617238
549356
453674
296678
183819
454981
224102
557042
223214
376495
157205
178066
2.2805e+06
463524
1.95725e+06
1.12803e+06
1.21229e+06
655300
488531
1.16256e+06
2.07801e+06
132823
161098
163742
156270
411671
39868.7
13184
411293
867770
159118
921380
410753
280287
190889
615237
860143
1.79385e+06
142466
111379
189035
221491
477487
308477
1.21714e+06
1.08612e+06
259772
168759
133192
2.31505e+06
867523
144705
335686
164759
2.63922e+06
2.15963e+06
334639
252734
952106
457859
651246
1.28159e+06
1.0805e+06
1.17981e+06
2.49893e+06
1.99028e+06
160764
1.86006e+06
2.50047e+06
1.96034e+06
2.1825e+06
938071
190136
1.2565e+06
311330
192009
237531
465731
509952
372714
372352
842919
274728
185209
138661
1.22417e+06
1.50985e+06
1.64233e+06
1.77725e+06
1.89957e+06
854089
727622
600038
471286
297501
133850
583002
27000.6
285167
284890
14652.5
632766
316892
249407
96237.2
398945
451522
148965
401655
1.20381e+06
958430
660815
466703
532898
2.29749e+06
1.75393e+06
235007
753327
148765
160845
649886
765595
784950
1.55424e+06
457819
498871
155166
2.07584e+06
166391
364807
424296
395796
1.51759e+06
1.65028e+06
857751
907017
906230
649867
833045
1.55188e+06
1.47772e+06
1.47791e+06
511851
710336
127132
138414
131220
316752
148293
681046
1.44459e+06
1.28199e+06
1.57081e+06
1.14757e+06
1.58086e+06
1.1463e+06
778863
512755
1.38523e+06
1.01447e+06
1.38591e+06
1.01793e+06
331187
1.52004e+06
1.28307e+06
1.12463e+06
1.46481e+06
1.29633e+06
1.59861e+06
1.16275e+06
1.59738e+06
1.16212e+06
1.43871e+06
2.64483e+06
583695
819548
1.72905e+06
631888
156173
164636
265007
26243.4
264740
23192.3
150863
492769
1.53136e+06
1.40581e+06
1.65942e+06
737147
510302
2.34991e+06
77368.3
143693
291858
1.00667e+06
337488
930436
458592
2.3852e+06
2.40633e+06
1.43481e+06
171856
310574
1.63445e+06
873729
700123
469001
865933
794716
937980
326779
459147
2.44407e+06
574306
2.17775e+06
153613
149593
141923
151672
101317
2.15218e+06
174474
1.58793e+06
98547.7
1.16202e+06
1.46754e+06
176377
151786
224054
664683
234295
563298
518507
380013
411285
444392
187532
411494
555184
687988
461494
1.55708e+06
1.43916e+06
1.32117e+06
1.61192e+06
2.15342e+06
2.37525e+06
139248
135919
136378
150574
317145
186063
344157
2.38827e+06
2.43498e+06
2.45269e+06
1.86254e+06
73654.1
1.27892e+06
2.23317e+06
1.53697e+06
1.21358e+06
1.23778e+06
1.51633e+06
738866
650516
1.32647e+06
878541
1.55791e+06
112431
280852
361835
695689
286935
283138
321971
216131
248376
182113
211548
488611
490390
531708
530780
574413
573215
673096
662472
156358
153447
637074
408959
119018
238571
921183
1.55972e+06
156825
942709
2.03681e+06
631937
1.93961e+06
892289
244631
1.79435e+06
962351
808911
1.28256e+06
2.17189e+06
2.57515e+06
1.00939e+06
435326
2.166e+06
312150
227369
194099
477891
103910
910413
1.59654e+06
417130
628195
253464
148334
271918
2.33149e+06
421897
493554
476716
350497
1.00104e+06
314583
248475
988803
218713
2.12882e+06
165739
1.26018e+06
469262
510071
1.97722e+06
1.68856e+06
1.02301e+06
1.83996e+06
1.99358e+06
876338
2.14813e+06
730515
583228
1.68989e+06
1.84103e+06
2.15219e+06
1.99514e+06
585180
879119
1.02646e+06
732720
2.15349e+06
213295
1.69046e+06
183876
123278
160609
9711.15
73925
928000
99461
1.62549e+06
338439
250968
637036
687865
586447
483963
319984
1.42499e+06
318584
342940
1.28336e+06
105863
504643
468203
464591
1.47129e+06
1.35107e+06
1.59387e+06
700056
587425
249553
428433
845912
1.62425e+06
77584
417523
246428
157713
535887
1.71201e+06
972861
833239
1.8079e+06
201425
994364
2.11627e+06
1.07268e+06
1.9838e+06
175507
2.23838e+06
265195
1.49391e+06
537696
663584
153237
17075.4
171117
170882
29180.5
285653
1.51753e+06
217390
1.87517e+06
846831
308738
1.45885e+06
1.40076e+06
1.59178e+06
1.52867e+06
1.72678e+06
1.65871e+06
805924
779304
548673
531476
609999
410927
1.37584e+06
1.2725e+06
1.16825e+06
367298
428326
396320
195047
1.29551e+06
1.13263e+06
99704.7
219619
163010
184814
195762
2.15958e+06
1.81488e+06
476845
1.56841e+06
1.44133e+06
1.69639e+06
133934
793054
1.46402e+06
1.53026e+06
151864
142093
1.74698e+06
552317
187402
323782
376711
349919
201042
604702
559199
517501
2.03134e+06
2.63995e+06
1.94971e+06
1.39258e+06
683261
492509
207270
225900
340780
244450
151804
134282
257045
744754
595305
151746
1.59414e+06
1.85078e+06
776564
671724
194728
186511
165156
176794
517118
1.7458e+06
1.37513e+06
1.06163e+06
1.09292e+06
1.30339e+06
145479
165150
245630
147283
151227
339164
2.72772e+06
2.1661e+06
167243
207187
933398
805131
558737
1.73418e+06
1.86808e+06
1.46568e+06
1.59868e+06
936170
490072
420763
455602
209718
264666
2.00132e+06
539340
1.27796e+06
92393.1
1.85153e+06
168820
737015
856445
2.72603e+06
148490
760322
178260
711692
190612
448410
1.36271e+06
627194
1.57395e+06
1.02312e+06
1.71863e+06
1.8652e+06
883967
2.01309e+06
743360
603928
744009
604464
287285
883237
997715
1.30588e+06
156046
253420
1.5949e+06
689215
2.50492e+06
2.03256e+06
2.27826e+06
409386
1.78869e+06
835446
652354
319511
243622
2.4526e+06
1.26655e+06
148529
2.65694e+06
2.24948e+06
77010
784296
640776
97964.2
1.02157e+06
829022
119321
210141
1.71007e+06
2.55323e+06
152974
908394
931982
1.85948e+06
1.80109e+06
658734
675055
658952
674370
159528
160311
159536
150081
121658
2.62217e+06
2.04903e+06
1.84391e+06
2.32706e+06
881382
472931
1.9098e+06
1.07439e+06
1.17317e+06
1.27453e+06
82020.8
1.9488e+06
341305
1.46309e+06
2.08381e+06
619453
436573
2.6561e+06
717229
752966
526398
555049
1.41478e+06
1.36687e+06
233862
229233
127519
150900
460065
1.67385e+06
1.54587e+06
1.42046e+06
701654
2.61979e+06
157142
318938
141648
1.40358e+06
1.53108e+06
897085
1.66031e+06
766347
1.80619e+06
647867
1.71489e+06
1.44943e+06
1.58096e+06
1.84815e+06
519306
921838
794754
648733
147746
208842
223446
291180
546716
463597
503156
2.17226e+06
1.01536e+06
1.23862e+06
1.99996e+06
233571
360652
151065
565195
791126
271920
380082
2.01911e+06
215843
144866
147031
150000
145581
92541.9
232761
181051
195567
1.74462e+06
2.05922e+06
178772
155396
199084
344611
753315
2.22147e+06
2.07049e+06
917347
154042
225682
1.77378e+06
157081
157739
2.69638e+06
1.04747e+06
2.04039e+06
578021
1.38441e+06
880582
858251
236080
963116
1.46803e+06
710335
510472
199952
457434
152898
120089
137948
2.18655e+06
1.30313e+06
1.32916e+06
2.17077e+06
338678
363281
187618
687472
167124
149753
159796
435662
340525
34684.9
340228
23748.6
148946
1.35503e+06
410567
596100
1.26162e+06
1.16359e+06
1.06717e+06
212721
2.48904e+06
816163
476322
2.14715e+06
1.28664e+06
1.33698e+06
218714
21492.2
218466
22605.9
1.89491e+06
462948
795625
941248
868278
174267
2.0228e+06
479441
343049
1.10352e+06
847839
144161
46253.4
1.48868e+06
309980
1.48493e+06
381364
507858
932816
1.04452e+06
877294
188271
763481
313547
405253
192552
206792
724503
755416
250799
459069
158083
159288
1.21375e+06
609394
446536
167511
640872
16597
62122.7
640297
809838
654342
969695
1.15091e+06
130998
2.47571e+06
2.5766e+06
325846
152647
169934
269334
296164
30633.3
295914
26398.3
1.30826e+06
448286
622829
2.40085e+06
2.43708e+06
2.07706e+06
1.87629e+06
1.13074e+06
1.0022e+06
959340
850925
2.03272e+06
294714
583748
208570
134489
150011
421997
592592
848885
2.36748e+06
2.38893e+06
300168
156116
786497
854630
286100
1.29842e+06
533852
436466
1.8844e+06
185537
169142
228627
1.27372e+06
1.28216e+06
1.3541e+06
858737
429307
600831
98680.5
101208
1.46247e+06
151145
1.30019e+06
167752
641535
1.04327e+06
914253
1.51761e+06
1.77506e+06
154887
206118
482762
2.10909e+06
10108.4
125071
37099.4
125705
339707
311726
99321.5
2.27258e+06
40507.7
2.15203e+06
560290
54300.4
17508.6
559790
369863
182076
20967.8
181996
470639
2.04643e+06
474032
2.23928e+06
2.58269e+06
74678.4
747512
883412
815262
1.05391e+06
506815
368478
1.12974e+06
707593
123549
277572
443359
316546
791366
1.04513e+06
291042
292282
2.48163e+06
902038
1.04711e+06
975122
1.12575e+06
1.57195e+06
140158
156912
1.31546e+06
1.5983e+06
533104
306097
352654
179836
360723
535700
159598
281363
408769
157416
110258
1.43799e+06
1.6794e+06
326933
726832
566593
578515
1.78927e+06
817693
353502
271490
688255
565360
139878
414365
1.59897e+06
2.05018e+06
552132
383791
973818
1.15112e+06
1.06169e+06
93703.9
151744
400089
282983
1.52182e+06
552008
119551
58676.5
92277.5
538063
376281
942475
1.11394e+06
1.02756e+06
155402
2.2116e+06
2.52687e+06
171188
173985
165497
161411
2.21596e+06
443957
326903
945786
2.73721e+06
2.19792e+06
629509
216974
579484
534931
325714
304364
346505
191978
166727
167750
473697
2.1512e+06
123090
1.20489e+06
1.30501e+06
2.05055e+06
1.47968e+06
1.44412e+06
553595
545859
746469
758240
342536
388387
333480
150915
147215
878876
283500
2.00274e+06
1.38995e+06
353230
146428
852354
2.55711e+06
144593
1.37996e+06
1.14809e+06
1.09181e+06
1.42535e+06
971717
418955
585390
1.29203e+06
224176
942896
408768
457884
233195
470743
290145
377833
1.03707e+06
514866
216305
187411
250786
1.33519e+06
1.09616e+06
235665
224921
210695
242688
152392
703322
541455
134619
512489
155551
292563
474482
2.33971e+06
2.05988e+06
1.39821e+06
411244
289891
919844
852847
784577
369388
368086
177635
1.26611e+06
171419
723073
940270
271797
232266
2.08559e+06
117613
418052
389892
185448
2.20298e+06
114917
148367
626201
738174
220128
208882
231167
166417
156888
1.39819e+06
122806
172133
21404.9
172001
1.39702e+06
1.33276e+06
2.52399e+06
1.50055e+06
1.89479e+06
154502
1.95534e+06
1.34071e+06
19362.4
140540
333422
250851
569104
618224
666633
871329
490984
2.04571e+06
1.20646e+06
1.30824e+06
206626
135960
132615
153627
166513
175967
276251
1.16946e+06
140604
2.53765e+06
620605
252210
1.31741e+06
866747
439462
613396
280866
243710
347371
521778
337462
694968
629637
249689
156767
904680
1.24565e+06
106923
116443
211593
124501
126449
1.89523e+06
506955
370648
1.07278e+06