/*--------------------------------*- C++ -*----------------------------------*\
| =========                 |                                                 |
| \\      /  F ield         | OpenFOAM: The Open Source CFD Toolbox           |
|  \\    /   O peration     | Version:  2.3.1                                 |
|   \\  /    A nd           | Web:      www.OpenFOAM.org                      |
|    \\/     M anipulation  |                                                 |
\*---------------------------------------------------------------------------*/
FoamFile
{
    version     2.0;
    format      ascii;
    class       volScalarField;
    location    "0.52";
    object      k;
}
// * * * * * * * * * * * * * * * * * * * * * * * * * * * * * * * * * * * * * //

dimensions      [0 2 -2 0 0 0 0];

internalField   nonuniform List<scalar> 
1000
(
0.00256146
0.00261956
0.00262045
0.00262036
0.00262032
0.0026203
0.00262028
0.00262028
0.00262018
0.0026153
0.00262069
0.0026271
0.00262742
0.00262739
0.00262737
0.00262736
0.00262734
0.00262732
0.00262691
0.00261646
0.00262303
0.00262905
0.00262945
0.00262943
0.00262942
0.0026294
0.00262937
0.00262935
0.00262889
0.00261786
0.00262465
0.00263119
0.00263166
0.00263169
0.00263168
0.00263167
0.00263163
0.0026316
0.0026311
0.00261975
0.00262711
0.00263453
0.00263512
0.00263523
0.00263525
0.00263523
0.00263522
0.00263511
0.0026346
0.00262244
0.00261925
0.00262577
0.00262638
0.0026265
0.00262654
0.00262656
0.00262656
0.00262656
0.00262619
0.00261655
0.00262668
0.00287396
0.00288753
0.00288816
0.00288822
0.00288824
0.00288825
0.00288799
0.00287711
0.00262398
0.00262844
0.00288895
0.00290336
0.00290397
0.002904
0.002904
0.00290399
0.00290369
0.00289199
0.00262572
0.00263015
0.0028902
0.0029046
0.00290522
0.00290524
0.00290524
0.00290523
0.00290492
0.00289316
0.00262747
0.00263251
0.00289148
0.00290596
0.00290662
0.00290666
0.00290666
0.00290664
0.0029063
0.00289445
0.00262993
0.00262178
0.00262722
0.00262778
0.0026279
0.00262795
0.00262798
0.002628
0.002628
0.0026276
0.00261762
0.00262779
0.00288767
0.00290205
0.0029027
0.00290275
0.00290276
0.00290277
0.00290248
0.00289085
0.00262536
0.00262937
0.00290324
0.0029187
0.00291937
0.0029194
0.0029194
0.00291939
0.00291906
0.00290654
0.00262696
0.00263094
0.00290437
0.00291986
0.00292052
0.00292055
0.00292054
0.00292053
0.0029202
0.00290761
0.0026285
0.00263301
0.00290509
0.0029206
0.00292129
0.00292133
0.00292131
0.0029213
0.00292094
0.00290832
0.0026306
0.0026228
0.00262809
0.00262858
0.00262867
0.00262872
0.00262874
0.00262876
0.00262876
0.00262837
0.00261836
0.00262852
0.00288883
0.00290314
0.00290376
0.00290381
0.00290382
0.00290382
0.00290353
0.00289186
0.00262605
0.0026299
0.00290398
0.00291943
0.00292009
0.00292012
0.00292012
0.00292012
0.00291979
0.00290724
0.00262751
0.0026313
0.00290502
0.0029205
0.00292117
0.0029212
0.00292119
0.00292118
0.00292084
0.00290825
0.00262887
0.00263311
0.00290552
0.00292099
0.00292167
0.0029217
0.00292169
0.00292168
0.00292133
0.00290871
0.00263066
0.00262333
0.00262857
0.00262901
0.00262907
0.00262911
0.00262913
0.00262915
0.00262915
0.00262875
0.00261873
0.00262895
0.00288939
0.00290366
0.00290427
0.00290431
0.00290432
0.00290432
0.00290402
0.00289234
0.00262639
0.0026302
0.00290411
0.00291952
0.00292018
0.00292021
0.00292021
0.00292021
0.00291987
0.00290733
0.00262777
0.0026315
0.00290508
0.00292053
0.00292119
0.00292122
0.00292122
0.00292121
0.00292086
0.00290829
0.00262904
0.00263316
0.0029055
0.00292092
0.00292159
0.00292162
0.00292161
0.0029216
0.00292125
0.00290867
0.00263068
0.00262344
0.00262875
0.00262919
0.00262924
0.00262927
0.00262929
0.0026293
0.00262929
0.0026289
0.00261876
0.00262907
0.00288976
0.00290401
0.00290461
0.00290464
0.00290464
0.00290465
0.00290434
0.00289264
0.00262646
0.00263034
0.00290424
0.00291963
0.00292029
0.00292032
0.00292032
0.00292032
0.00291998
0.00290743
0.00262788
0.00263168
0.00290521
0.00292063
0.0029213
0.00292133
0.00292133
0.00292132
0.00292097
0.00290839
0.00262919
0.00263337
0.00290564
0.00292103
0.0029217
0.00292173
0.00292173
0.00292171
0.00292135
0.00290877
0.00263085
0.00262318
0.00262871
0.00262915
0.00262919
0.00262922
0.00262923
0.00262924
0.00262922
0.00262882
0.00261844
0.00262893
0.0028899
0.00290414
0.00290474
0.00290477
0.00290478
0.00290478
0.00290446
0.00289276
0.00262628
0.00263037
0.00290442
0.00291979
0.00292046
0.00292049
0.00292049
0.00292049
0.00292014
0.00290759
0.00262786
0.0026319
0.00290547
0.00292088
0.00292156
0.00292159
0.00292159
0.00292158
0.00292122
0.00290863
0.00262937
0.00263381
0.002906
0.00292138
0.00292206
0.00292209
0.00292209
0.00292207
0.00292169
0.0029091
0.00263124
0.00262253
0.00262828
0.00262872
0.00262876
0.00262878
0.00262879
0.00262879
0.00262877
0.00262836
0.00261777
0.00262846
0.00288963
0.00290386
0.00290446
0.00290448
0.00290449
0.00290449
0.00290418
0.00289248
0.00262576
0.00263015
0.00290417
0.00291951
0.00292018
0.00292021
0.00292022
0.00292022
0.00291986
0.00290732
0.0026276
0.00263198
0.00290531
0.00292068
0.00292136
0.0029214
0.0029214
0.00292139
0.00292102
0.00290844
0.00262939
0.00263429
0.00290599
0.00292134
0.00292202
0.00292205
0.00292206
0.00292203
0.00292164
0.00290903
0.00263165
0.00262146
0.00262704
0.00262746
0.0026275
0.00262751
0.00262752
0.00262752
0.0026275
0.0026271
0.00261664
0.00262735
0.00287735
0.00289075
0.0028913
0.00289132
0.00289133
0.00289132
0.00289103
0.00287995
0.00262451
0.00262928
0.0028908
0.0029052
0.00290582
0.00290585
0.00290585
0.00290584
0.00290552
0.00289368
0.00262658
0.00263144
0.00289143
0.00290581
0.00290643
0.00290646
0.00290647
0.00290645
0.00290611
0.00289425
0.00262869
0.00263427
0.00289124
0.00290551
0.00290612
0.00290614
0.00290614
0.00290611
0.00290576
0.00289392
0.00263144
0.00261546
0.00261562
0.00261563
0.00261565
0.00261565
0.00261566
0.00261565
0.00261565
0.00261555
0.00261038
0.00261697
0.00262373
0.00262427
0.00262431
0.00262432
0.00262433
0.00262432
0.0026243
0.00262383
0.00261201
0.00261882
0.00262609
0.0026267
0.00262677
0.00262679
0.0026268
0.00262678
0.00262673
0.00262618
0.00261386
0.00262126
0.00262855
0.00262922
0.00262931
0.00262934
0.00262935
0.00262931
0.00262922
0.0026286
0.00261626
0.0026249
0.00263222
0.00263296
0.00263308
0.00263312
0.00263313
0.00263307
0.00263292
0.00263221
0.00261994
0.00263487
0.00264074
0.00264149
0.00264163
0.00264167
0.00264167
0.00264161
0.00264143
0.00264057
0.00263004
0.00264585
0.00265711
0.00265806
0.00265809
0.00265802
0.00265802
0.00265812
0.00265797
0.00265728
0.00264148
0.00272785
0.0028559
0.00285799
0.00285368
0.00285213
0.00285213
0.00285339
0.00285766
0.00285919
0.00272714
0.00362187
0.00505454
0.00509444
0.00505641
0.00504254
0.00504155
0.00505324
0.00508946
0.00508466
0.0036622
0.00888507
0.0157095
0.0162711
0.0162855
0.0162821
0.0162781
0.0162718
0.0162487
0.0158138
0.00903561
0.00263702
0.00288784
0.00290166
0.00290224
0.00290225
0.00290225
0.00290223
0.00290185
0.00289035
0.00263421
0.00264164
0.00289736
0.00291253
0.00291346
0.00291352
0.00291352
0.00291348
0.00291281
0.00290018
0.00263902
0.00265667
0.0030138
0.00304085
0.00304507
0.00304612
0.00304616
0.00304515
0.00304156
0.00301832
0.00265463
0.00291127
0.00374231
0.00379474
0.00379539
0.00379516
0.00379494
0.00379496
0.00379497
0.00376057
0.00292346
0.0118172
0.0316288
0.0327276
0.032649
0.0326027
0.0325951
0.0326248
0.0327013
0.0319244
0.0121101
0.00263536
0.00290547
0.00292085
0.00292154
0.00292158
0.00292158
0.00292154
0.00292111
0.00290847
0.00263278
0.00263795
0.00290661
0.00292212
0.00292285
0.00292289
0.00292289
0.00292286
0.00292242
0.00290974
0.00263553
0.00264225
0.00294352
0.00296447
0.00296672
0.00296718
0.0029672
0.00296677
0.00296502
0.00294761
0.00264007
0.00281725
0.00376704
0.00383289
0.00383978
0.00384133
0.00384126
0.00383974
0.00383441
0.00378552
0.002826
0.0122689
0.0322749
0.0331687
0.0331418
0.0331166
0.0331127
0.033131
0.0331729
0.0325835
0.0125776
0.00263403
0.00290533
0.00292078
0.00292146
0.00292149
0.00292148
0.00292146
0.00292107
0.00290841
0.00263149
0.0026358
0.00290522
0.00292065
0.00292132
0.00292134
0.00292134
0.00292132
0.00292095
0.00290835
0.00263335
0.00263818
0.00291869
0.00293555
0.00293651
0.00293662
0.00293662
0.00293653
0.00293594
0.0029223
0.0026359
0.00280224
0.00368382
0.00374051
0.00374508
0.00374596
0.00374595
0.00374513
0.00374218
0.00370198
0.00281036
0.0125944
0.0334549
0.0343669
0.0343794
0.0343689
0.0343673
0.0343758
0.034388
0.0337927
0.0129237
0.00263322
0.00290478
0.00292023
0.0029209
0.00292093
0.00292092
0.0029209
0.00292054
0.0029079
0.00263071
0.00263477
0.00290458
0.00292
0.00292065
0.00292067
0.00292066
0.00292065
0.00292031
0.00290773
0.00263231
0.00263693
0.00291472
0.00293097
0.00293173
0.00293177
0.00293177
0.00293175
0.00293134
0.00291823
0.0026346
0.00279947
0.00365847
0.00371062
0.00371398
0.00371453
0.00371455
0.00371409
0.00371232
0.0036764
0.00280748
0.0127396
0.0339668
0.0348983
0.0349317
0.0349296
0.0349293
0.0349323
0.034928
0.0343186
0.0130786
0.00263301
0.00290466
0.00292018
0.00292086
0.00292088
0.00292087
0.00292085
0.0029205
0.00290783
0.00263053
0.00263472
0.0029046
0.00292011
0.00292078
0.0029208
0.0029208
0.00292078
0.00292044
0.0029078
0.00263227
0.00263729
0.00291543
0.00293195
0.00293277
0.00293284
0.00293284
0.00293279
0.00293235
0.00291898
0.00263491
0.00284821
0.00377841
0.00384446
0.00385445
0.00385768
0.00385778
0.00385495
0.00384707
0.00379911
0.00285894
0.0127785
0.0340225
0.0349528
0.0349911
0.0349916
0.0349916
0.0349934
0.0349862
0.0343794
0.0131234
0.00263326
0.002905
0.00292065
0.00292135
0.00292139
0.00292138
0.00292136
0.00292098
0.00290823
0.00263085
0.00263548
0.0029052
0.00292096
0.00292169
0.00292172
0.00292172
0.0029217
0.00292134
0.00290845
0.002633
0.00263919
0.00292303
0.00294098
0.00294227
0.00294249
0.00294248
0.00294232
0.00294139
0.00292677
0.00263682
0.00296484
0.00404523
0.0041452
0.00417079
0.00418001
0.0041803
0.00417199
0.00414969
0.00407096
0.00298155
0.0127748
0.0337727
0.0346783
0.0347141
0.0347148
0.0347148
0.0347181
0.0347151
0.0341319
0.0131288
0.00263379
0.00290558
0.00292141
0.00292218
0.00292223
0.00292223
0.0029222
0.00292179
0.0029089
0.0026314
0.00263658
0.00290751
0.00292393
0.00292481
0.00292488
0.00292487
0.00292484
0.0029243
0.00291084
0.00263406
0.00264399
0.00295602
0.00297902
0.00298184
0.00298257
0.0029826
0.00298186
0.0029796
0.00296028
0.00264161
0.00315194
0.00424528
0.00439053
0.00444524
0.00446534
0.00446581
0.00444773
0.0043972
0.00426919
0.00317555
0.0127012
0.0328345
0.0336776
0.0337125
0.0337153
0.0337157
0.0337188
0.0337199
0.0331836
0.013067
0.00263423
0.00289539
0.00291054
0.00291134
0.0029114
0.00291139
0.00291138
0.00291094
0.00289855
0.00263173
0.00263754
0.00290933
0.00292723
0.00292857
0.00292881
0.00292882
0.00292858
0.00292765
0.00291269
0.00263482
0.00265367
0.00302994
0.00305959
0.00306454
0.00306606
0.00306606
0.00306462
0.00306035
0.00303454
0.00265144
0.0029996
0.00378432
0.00387863
0.00389166
0.00389535
0.00389536
0.00389218
0.00388123
0.00380214
0.00300845
0.0119577
0.0283534
0.0290463
0.0291336
0.0291625
0.029164
0.0291441
0.0290888
0.0286085
0.012272
0.00262614
0.0026374
0.00263857
0.00263876
0.00263882
0.00263885
0.00263873
0.00263865
0.00263764
0.00262128
0.00262907
0.00264389
0.00264534
0.00264551
0.00264558
0.00264555
0.00264551
0.00264538
0.00264398
0.00262413
0.00265939
0.00268527
0.00268836
0.00268907
0.00268924
0.0026892
0.00268914
0.00268829
0.00268571
0.00265501
0.00276113
0.00290636
0.00292698
0.00293097
0.00293217
0.00293229
0.00293113
0.00292788
0.0029107
0.00276076
0.00751046
0.0108856
0.0110585
0.0110975
0.0111108
0.0111112
0.0111009
0.0110687
0.0109346
0.00759697
)
;

boundaryField
{
    walls
    {
        type            kqRWallFunction;
        value           nonuniform List<scalar> 
500
(
0.00256146
0.00256146
0.00256146
0.00261956
0.00261956
0.00262045
0.00262045
0.00262036
0.00262036
0.00262032
0.00262032
0.0026203
0.0026203
0.00262028
0.00262028
0.00262028
0.00262028
0.00262018
0.00262018
0.0026153
0.0026153
0.0026153
0.00262069
0.00262069
0.0026271
0.00262742
0.00262739
0.00262737
0.00262736
0.00262734
0.00262732
0.00262691
0.00261646
0.00261646
0.00262303
0.00262303
0.00262905
0.00262945
0.00262943
0.00262942
0.0026294
0.00262937
0.00262935
0.00262889
0.00261786
0.00261786
0.00262465
0.00262465
0.00263119
0.00263166
0.00263169
0.00263168
0.00263167
0.00263163
0.0026316
0.0026311
0.00261975
0.00261975
0.00262711
0.00262711
0.00263453
0.00263512
0.00263523
0.00263525
0.00263523
0.00263522
0.00263511
0.0026346
0.00262244
0.00262244
0.00261925
0.00261925
0.00262577
0.00262638
0.0026265
0.00262654
0.00262656
0.00262656
0.00262656
0.00262619
0.00261655
0.00261655
0.00262668
0.00262398
0.00262844
0.00262572
0.00263015
0.00262747
0.00263251
0.00262993
0.00262178
0.00262178
0.00262722
0.00262778
0.0026279
0.00262795
0.00262798
0.002628
0.002628
0.0026276
0.00261762
0.00261762
0.00262779
0.00262536
0.00262937
0.00262696
0.00263094
0.0026285
0.00263301
0.0026306
0.0026228
0.0026228
0.00262809
0.00262858
0.00262867
0.00262872
0.00262874
0.00262876
0.00262876
0.00262837
0.00261836
0.00261836
0.00262852
0.00262605
0.0026299
0.00262751
0.0026313
0.00262887
0.00263311
0.00263066
0.00262333
0.00262333
0.00262857
0.00262901
0.00262907
0.00262911
0.00262913
0.00262915
0.00262915
0.00262875
0.00261873
0.00261873
0.00262895
0.00262639
0.0026302
0.00262777
0.0026315
0.00262904
0.00263316
0.00263068
0.00262344
0.00262344
0.00262875
0.00262919
0.00262924
0.00262927
0.00262929
0.0026293
0.00262929
0.0026289
0.00261876
0.00261876
0.00262907
0.00262646
0.00263034
0.00262788
0.00263168
0.00262919
0.00263337
0.00263085
0.00262318
0.00262318
0.00262871
0.00262915
0.00262919
0.00262922
0.00262923
0.00262924
0.00262922
0.00262882
0.00261844
0.00261844
0.00262893
0.00262628
0.00263037
0.00262786
0.0026319
0.00262937
0.00263381
0.00263124
0.00262253
0.00262253
0.00262828
0.00262872
0.00262876
0.00262878
0.00262879
0.00262879
0.00262877
0.00262836
0.00261777
0.00261777
0.00262846
0.00262576
0.00263015
0.0026276
0.00263198
0.00262939
0.00263429
0.00263165
0.00262146
0.00262146
0.00262704
0.00262746
0.0026275
0.00262751
0.00262752
0.00262752
0.0026275
0.0026271
0.00261664
0.00261664
0.00262735
0.00262451
0.00262928
0.00262658
0.00263144
0.00262869
0.00263427
0.00263144
0.00261546
0.00261546
0.00261546
0.00261562
0.00261562
0.00261563
0.00261563
0.00261565
0.00261565
0.00261565
0.00261565
0.00261566
0.00261566
0.00261565
0.00261565
0.00261565
0.00261565
0.00261555
0.00261555
0.00261038
0.00261038
0.00261038
0.00261697
0.00261697
0.00262373
0.00262427
0.00262431
0.00262432
0.00262433
0.00262432
0.0026243
0.00262383
0.00261201
0.00261201
0.00261882
0.00261882
0.00262609
0.0026267
0.00262677
0.00262679
0.0026268
0.00262678
0.00262673
0.00262618
0.00261386
0.00261386
0.00262126
0.00262126
0.00262855
0.00262922
0.00262931
0.00262934
0.00262935
0.00262931
0.00262922
0.0026286
0.00261626
0.00261626
0.0026249
0.0026249
0.00263222
0.00263296
0.00263308
0.00263312
0.00263313
0.00263307
0.00263292
0.00263221
0.00261994
0.00261994
0.00263487
0.00263487
0.00264074
0.00264149
0.00264163
0.00264167
0.00264167
0.00264161
0.00264143
0.00264057
0.00263004
0.00263004
0.00264585
0.00264585
0.00265711
0.00265806
0.00265809
0.00265802
0.00265802
0.00265812
0.00265797
0.00265728
0.00264148
0.00264148
0.00272785
0.00272785
0.0028559
0.00285799
0.00285368
0.00285213
0.00285213
0.00285339
0.00285766
0.00285919
0.00272714
0.00272714
0.00362187
0.00362187
0.00505454
0.00509444
0.00505641
0.00504254
0.00504155
0.00505324
0.00508946
0.00508466
0.0036622
0.0036622
0.00888507
0.00888507
0.0157095
0.0162711
0.0162855
0.0162821
0.0162781
0.0162718
0.0162487
0.0158138
0.00903561
0.00903561
0.00263702
0.00263421
0.00264164
0.00263902
0.00265667
0.00265463
0.00291127
0.00292346
0.0118172
0.0121101
0.00263536
0.00263278
0.00263795
0.00263553
0.00264225
0.00264007
0.00281725
0.002826
0.0122689
0.0125776
0.00263403
0.00263149
0.0026358
0.00263335
0.00263818
0.0026359
0.00280224
0.00281036
0.0125944
0.0129237
0.00263322
0.00263071
0.00263477
0.00263231
0.00263693
0.0026346
0.00279947
0.00280748
0.0127396
0.0130786
0.00263301
0.00263053
0.00263472
0.00263227
0.00263729
0.00263491
0.00284821
0.00285894
0.0127785
0.0131234
0.00263326
0.00263085
0.00263548
0.002633
0.00263919
0.00263682
0.00296484
0.00298155
0.0127748
0.0131288
0.00263379
0.0026314
0.00263658
0.00263406
0.00264399
0.00264161
0.00315194
0.00317555
0.0127012
0.013067
0.00263423
0.00263173
0.00263754
0.00263482
0.00265367
0.00265144
0.0029996
0.00300845
0.0119577
0.012272
0.00262614
0.00262614
0.0026374
0.00263857
0.00263876
0.00263882
0.00263885
0.00263873
0.00263865
0.00263764
0.00262128
0.00262128
0.00262907
0.00262907
0.00264389
0.00264534
0.00264551
0.00264558
0.00264555
0.00264551
0.00264538
0.00264398
0.00262413
0.00262413
0.00265939
0.00265939
0.00268527
0.00268836
0.00268907
0.00268924
0.0026892
0.00268914
0.00268829
0.00268571
0.00265501
0.00265501
0.00276113
0.00276113
0.00290636
0.00292698
0.00293097
0.00293217
0.00293229
0.00293113
0.00292788
0.0029107
0.00276076
0.00276076
0.00751046
0.00751046
0.0108856
0.0110585
0.0110975
0.0111108
0.0111112
0.0111009
0.0110687
0.0109346
0.00759697
0.00759697
)
;
    }
    lid
    {
        type            kqRWallFunction;
        value           nonuniform List<scalar> 
100
(
0.00888507
0.0157095
0.0162711
0.0162855
0.0162821
0.0162781
0.0162718
0.0162487
0.0158138
0.00903561
0.0118172
0.0316288
0.0327276
0.032649
0.0326027
0.0325951
0.0326248
0.0327013
0.0319244
0.0121101
0.0122689
0.0322749
0.0331687
0.0331418
0.0331166
0.0331127
0.033131
0.0331729
0.0325835
0.0125776
0.0125944
0.0334549
0.0343669
0.0343794
0.0343689
0.0343673
0.0343758
0.034388
0.0337927
0.0129237
0.0127396
0.0339668
0.0348983
0.0349317
0.0349296
0.0349293
0.0349323
0.034928
0.0343186
0.0130786
0.0127785
0.0340225
0.0349528
0.0349911
0.0349916
0.0349916
0.0349934
0.0349862
0.0343794
0.0131234
0.0127748
0.0337727
0.0346783
0.0347141
0.0347148
0.0347148
0.0347181
0.0347151
0.0341319
0.0131288
0.0127012
0.0328345
0.0336776
0.0337125
0.0337153
0.0337157
0.0337188
0.0337199
0.0331836
0.013067
0.0119577
0.0283534
0.0290463
0.0291336
0.0291625
0.029164
0.0291441
0.0290888
0.0286085
0.012272
0.00751046
0.0108856
0.0110585
0.0110975
0.0111108
0.0111112
0.0111009
0.0110687
0.0109346
0.00759697
)
;
    }
}


// ************************************************************************* //
