/*--------------------------------*- C++ -*----------------------------------*\
| =========                 |                                                 |
| \\      /  F ield         | OpenFOAM: The Open Source CFD Toolbox           |
|  \\    /   O peration     | Version:  2.3.1                                 |
|   \\  /    A nd           | Web:      www.OpenFOAM.org                      |
|    \\/     M anipulation  |                                                 |
\*---------------------------------------------------------------------------*/
FoamFile
{
    version     2.0;
    format      ascii;
    class       surfaceScalarField;
    location    "0.52";
    object      phi;
}
// * * * * * * * * * * * * * * * * * * * * * * * * * * * * * * * * * * * * * //

dimensions      [0 3 -1 0 0 0 0];

internalField   nonuniform List<scalar> 
2700
(
9.99978e-06
3.05822e-05
-1.17531e-05
5.93623e-06
2.24788e-05
-1.86156e-05
2.88924e-06
2.17777e-05
-1.8957e-05
1.5501e-06
2.10459e-05
-1.9958e-05
7.85941e-07
2.08295e-05
-2.0322e-05
2.7374e-07
2.07112e-05
-2.04614e-05
-5.68934e-08
2.0581e-05
-2.05053e-05
-2.09774e-07
2.04294e-05
-2.0506e-05
-1.82661e-07
2.02627e-05
-2.04968e-05
2.01599e-05
-2.04656e-05
2.86639e-06
4.77009e-05
-2.01783e-05
2.33828e-06
4.46197e-05
-2.18428e-05
1.86959e-06
4.43506e-05
-2.23629e-05
1.2305e-06
4.41905e-05
-2.27907e-05
6.40862e-07
4.41286e-05
-2.30041e-05
1.42016e-07
4.40062e-05
-2.30974e-05
-2.02404e-07
4.37551e-05
-2.31186e-05
-3.30712e-07
4.33966e-05
-2.31018e-05
-2.36069e-07
4.29877e-05
-2.30585e-05
4.25687e-05
-2.27954e-05
1.80291e-06
7.20022e-05
-2.63933e-05
1.89818e-06
7.17297e-05
-2.75331e-05
1.6619e-06
7.2118e-05
-2.78842e-05
1.13048e-06
7.24758e-05
-2.81346e-05
4.99372e-07
7.26507e-05
-2.82838e-05
-1.00855e-07
7.25541e-05
-2.83446e-05
-5.50342e-07
7.21516e-05
-2.83323e-05
-7.17107e-07
7.14837e-05
-2.82768e-05
-5.24184e-07
7.06492e-05
-2.81913e-05
6.9673e-05
-2.78577e-05
1.75917e-06
0.000106136
-3.63648e-05
2.24786e-06
0.00010781
-3.7087e-05
1.99157e-06
0.000109203
-3.73855e-05
1.28787e-06
0.000110223
-3.76155e-05
3.9515e-07
0.000110718
-3.77596e-05
-4.93518e-07
0.000110654
-3.78014e-05
-1.2092e-06
0.000110033
-3.77405e-05
-1.51373e-06
0.000108843
-3.76167e-05
-1.17344e-06
0.000107226
-3.74484e-05
0.000105104
-3.6958e-05
2.97091e-06
-5.26387e-05
0.000155099
3.57305e-06
-5.3542e-05
0.00016004
2.99105e-06
-5.39485e-05
0.000162988
1.77803e-06
-5.42746e-05
0.00016496
3.28796e-07
-5.44686e-05
0.000165873
-1.13045e-06
-5.44986e-05
0.000165841
-2.38319e-06
-5.43689e-05
0.000164895
-3.05984e-06
-5.4107e-05
0.00016288
-2.67515e-06
-5.37696e-05
0.000159947
-5.29468e-05
0.000154924
1.9499e-06
1.96236e-05
-3.34795e-05
1.70913e-06
1.8952e-05
-3.75168e-05
1.57888e-06
1.90003e-05
-3.80405e-05
1.09701e-06
1.88481e-05
-3.85631e-05
6.22822e-07
1.87679e-05
-3.8861e-05
2.21695e-07
1.86913e-05
-3.90041e-05
-6.62591e-08
1.85814e-05
-3.90428e-05
-2.2304e-07
1.84438e-05
-3.90145e-05
-2.30445e-07
1.82728e-05
-3.89611e-05
1.79291e-05
-3.87417e-05
1.30913e-06
3.90441e-05
-4.10964e-05
1.44999e-06
3.89486e-05
-4.21941e-05
1.36609e-06
3.90707e-05
-4.25891e-05
9.91063e-07
3.91257e-05
-4.29578e-05
5.4159e-07
3.91339e-05
-4.31946e-05
1.18e-07
3.90432e-05
-4.33067e-05
-1.92859e-07
3.88234e-05
-4.33178e-05
-3.35912e-07
3.85007e-05
-4.32599e-05
-2.87491e-07
3.81161e-05
-4.31702e-05
3.75589e-05
-4.28521e-05
1.25492e-06
6.15798e-05
-5.04471e-05
1.51813e-06
6.20919e-05
-5.12319e-05
1.39195e-06
6.26163e-05
-5.16226e-05
9.78452e-07
6.30163e-05
-5.19527e-05
4.41215e-07
6.32007e-05
-5.21661e-05
-9.19891e-08
6.31228e-05
-5.22481e-05
-5.03202e-07
6.2767e-05
-5.22082e-05
-6.87488e-07
6.21662e-05
-5.20785e-05
-5.61478e-07
6.14043e-05
-5.1907e-05
6.04424e-05
-5.1502e-05
1.58245e-06
8.88243e-05
-6.56042e-05
1.99289e-06
9.05592e-05
-6.64127e-05
1.76549e-06
9.18809e-05
-6.68928e-05
1.14785e-06
9.28178e-05
-6.72944e-05
3.57249e-07
9.32671e-05
-6.75414e-05
-4.39651e-07
9.32142e-05
-6.76031e-05
-1.09357e-06
9.26606e-05
-6.74785e-05
-1.41199e-06
9.16042e-05
-6.72138e-05
-1.19098e-06
9.01523e-05
-6.68679e-05
8.82055e-05
-6.62149e-05
2.80097e-06
-8.9377e-05
0.000122197
3.2581e-06
-9.0657e-05
0.000126643
2.68286e-06
-9.14443e-05
0.000129322
1.5934e-06
-9.20716e-05
0.000131079
3.03139e-07
-9.24314e-05
0.000131882
-1.00369e-06
-9.24828e-05
0.000131852
-2.13491e-06
-9.2225e-05
0.000131022
-2.81138e-06
-9.16975e-05
0.000129238
-2.57623e-06
-9.10066e-05
0.000126582
-8.97862e-05
0.000122115
1.56915e-06
1.52422e-05
-5.04409e-05
1.27506e-06
1.46682e-05
-5.20655e-05
1.07078e-06
1.45682e-05
-5.25985e-05
7.77434e-07
1.45159e-05
-5.30016e-05
4.642e-07
1.44857e-05
-5.32559e-05
1.72855e-07
1.44387e-05
-5.33805e-05
-4.98032e-08
1.43577e-05
-5.34002e-05
-1.82935e-07
1.42523e-05
-5.33371e-05
-2.05153e-07
1.41215e-05
-5.32443e-05
1.38363e-05
-5.28918e-05
9.92819e-07
2.97144e-05
-5.67324e-05
1.0888e-06
2.97491e-05
-5.75612e-05
1.00038e-06
2.98326e-05
-5.79758e-05
7.4418e-07
2.99098e-05
-5.83274e-05
4.20737e-07
2.9936e-05
-5.85611e-05
9.9558e-08
2.98742e-05
-5.86674e-05
-1.4476e-07
2.97069e-05
-5.86576e-05
-2.67342e-07
2.94599e-05
-5.85601e-05
-2.46383e-07
2.91659e-05
-5.84293e-05
2.87134e-05
-5.80955e-05
8.95649e-07
4.60264e-05
-6.78738e-05
1.13922e-06
4.65498e-05
-6.85107e-05
1.05966e-06
4.69645e-05
-6.89326e-05
7.58933e-07
4.72831e-05
-6.93023e-05
3.54471e-07
4.74302e-05
-6.95433e-05
-5.4459e-08
4.73725e-05
-6.96288e-05
-3.80352e-07
4.71042e-05
-6.95567e-05
-5.36073e-07
4.66481e-05
-6.93706e-05
-4.52189e-07
4.60776e-05
-6.9139e-05
4.53266e-05
-6.87264e-05
1.18844e-06
6.43195e-05
-8.538e-05
1.52241e-06
6.56397e-05
-8.61616e-05
1.36183e-06
6.6619e-05
-8.67336e-05
8.97001e-07
6.73134e-05
-8.72253e-05
2.93304e-07
6.7645e-05
-8.75265e-05
-3.20652e-07
6.76026e-05
-8.75952e-05
-8.24783e-07
6.71893e-05
-8.74267e-05
-1.08059e-06
6.64151e-05
-8.70694e-05
-9.25636e-07
6.53483e-05
-8.66268e-05
6.39247e-05
-8.59441e-05
2.09923e-06
-0.000110961
8.34205e-05
2.46958e-06
-0.000112278
8.64915e-05
2.04667e-06
-0.000113238
8.84179e-05
1.22729e-06
-0.000114012
8.96441e-05
2.50276e-07
-0.000114454
9.02045e-05
-7.40777e-07
-0.000114513
9.01828e-05
-1.60079e-06
-0.000114188
8.95871e-05
-2.11694e-06
-0.00011353
8.83435e-05
-1.93095e-06
-0.000112666
8.64437e-05
-0.000111396
8.33523e-05
7.13236e-07
9.25948e-06
-6.05566e-05
7.41762e-07
9.17845e-06
-6.14312e-05
6.71981e-07
9.13556e-06
-6.18376e-05
5.19282e-07
9.11881e-06
-6.21575e-05
3.34362e-07
9.10486e-06
-6.23707e-05
1.47867e-07
9.0757e-06
-6.24709e-05
-6.33447e-09
9.02589e-06
-6.2467e-05
-1.00302e-07
8.9583e-06
-6.23834e-05
-1.29685e-07
8.88292e-06
-6.2264e-05
8.72382e-06
-6.18461e-05
5.43007e-07
1.85041e-05
-6.66723e-05
6.80158e-07
1.85973e-05
-6.72809e-05
6.50779e-07
1.86507e-05
-6.76411e-05
5.06475e-07
1.87004e-05
-6.79599e-05
3.09511e-07
1.87147e-05
-6.81756e-05
1.03944e-07
1.86727e-05
-6.82658e-05
-5.99201e-08
1.8569e-05
-6.82351e-05
-1.49566e-07
1.84143e-05
-6.81103e-05
-1.39972e-07
1.82352e-05
-6.79575e-05
1.79784e-05
-6.75924e-05
5.17334e-07
2.83729e-05
-7.84253e-05
7.17003e-07
2.8689e-05
-7.89824e-05
6.91999e-07
2.89357e-05
-7.93884e-05
5.15537e-07
2.91244e-05
-7.97607e-05
2.65677e-07
2.92078e-05
-8.00043e-05
2.38736e-09
2.91665e-05
-8.00805e-05
-2.03304e-07
2.89968e-05
-7.99897e-05
-3.06081e-07
2.87178e-05
-7.9766e-05
-2.5816e-07
2.83747e-05
-7.95056e-05
2.79551e-05
-7.90751e-05
6.95829e-07
3.85797e-05
-9.64835e-05
9.48834e-07
3.93047e-05
-9.7237e-05
8.72809e-07
3.9876e-05
-9.78237e-05
5.94705e-07
4.02816e-05
-9.83439e-05
2.2261e-07
4.04706e-05
-9.8664e-05
-1.63509e-07
4.0438e-05
-9.87296e-05
-4.7477e-07
4.01833e-05
-9.85367e-05
-6.36434e-07
3.97183e-05
-9.81362e-05
-5.27861e-07
3.90942e-05
-9.76557e-05
3.83166e-05
-9.69655e-05
1.21304e-06
-0.000121261
4.74632e-05
1.50378e-06
-0.000122522
4.90435e-05
1.27382e-06
-0.000123495
5.0131e-05
7.83416e-07
-0.000124301
5.08231e-05
1.89423e-07
-0.000124765
5.11325e-05
-4.12612e-07
-0.000124826
5.11094e-05
-9.45076e-07
-0.000124477
5.07655e-05
-1.2456e-06
-0.000123781
5.00537e-05
-1.09384e-06
-0.000122902
4.89669e-05
-0.000121676
4.73861e-05
3.07617e-07
3.36294e-06
-6.436e-05
3.71712e-07
3.33909e-06
-6.49768e-05
3.62222e-07
3.30535e-06
-6.52856e-05
3.07763e-07
3.28295e-06
-6.55487e-05
2.33394e-07
3.2652e-06
-6.57281e-05
1.49542e-07
3.2466e-06
-6.58048e-05
7.15717e-08
3.22514e-06
-6.57811e-05
9.16825e-09
3.20179e-06
-6.56824e-05
-3.30888e-08
3.17808e-06
-6.55484e-05
3.12781e-06
-6.51005e-05
2.45987e-07
6.74844e-06
-7.04353e-05
3.35342e-07
6.76397e-06
-7.09343e-05
3.40708e-07
6.75269e-06
-7.12425e-05
2.92419e-07
6.74232e-06
-7.15294e-05
2.18046e-07
6.72574e-06
-7.17242e-05
1.31536e-07
6.69672e-06
-7.17959e-05
5.20963e-08
6.65391e-06
-7.17451e-05
-5.90535e-09
6.60012e-06
-7.16033e-05
-3.02283e-08
6.53956e-06
-7.14353e-05
6.46154e-06
-7.10444e-05
2.17121e-07
1.03101e-05
-8.23297e-05
3.19739e-07
1.03992e-05
-8.28497e-05
3.28039e-07
1.04568e-05
-8.32414e-05
2.74174e-07
1.04938e-05
-8.36074e-05
1.88296e-07
1.0499e-05
-8.38452e-05
8.89195e-08
1.04678e-05
-8.39089e-05
9.78026e-10
1.04004e-05
-8.37967e-05
-5.50523e-08
1.02999e-05
-8.35513e-05
-6.57734e-08
1.01822e-05
-8.32652e-05
1.00503e-05
-8.28108e-05
2.61478e-07
1.38704e-05
-0.000100412
3.73543e-07
1.40974e-05
-0.000101168
3.62983e-07
1.42821e-05
-0.000101766
2.77848e-07
1.44022e-05
-0.000102303
1.56151e-07
1.44482e-05
-0.00010263
2.16311e-08
1.44205e-05
-0.000102687
-9.63366e-08
1.4321e-05
-0.000102473
-1.65884e-07
1.41513e-05
-0.00010204
-1.57106e-07
1.3926e-05
-0.000101524
1.36746e-05
-0.000100811
4.24264e-07
-0.000124477
1.65624e-05
5.52907e-07
-0.000125711
1.70796e-05
4.81716e-07
-0.000126698
1.746e-05
3.23746e-07
-0.000127524
1.76901e-05
1.28147e-07
-0.000128
1.77809e-05
-7.80246e-08
-0.000128055
1.77584e-05
-2.59421e-07
-0.000127687
1.76298e-05
-3.88034e-07
-0.000126963
1.73659e-05
-3.47936e-07
-0.000126052
1.69777e-05
-0.000124848
1.64542e-05
6.00183e-08
-2.52359e-06
-6.20179e-05
8.91648e-08
-2.60503e-06
-6.25276e-05
1.07973e-07
-2.66289e-06
-6.27743e-05
1.31455e-07
-2.71214e-06
-6.29976e-05
1.57122e-07
-2.74549e-06
-6.31482e-05
1.72402e-07
-2.75839e-06
-6.32048e-05
1.68661e-07
-2.75121e-06
-6.31666e-05
1.33423e-07
-2.72903e-06
-6.3057e-05
6.4938e-08
-2.70031e-06
-6.2912e-05
-2.64287e-06
-6.2479e-05
2.9096e-08
-5.13906e-06
-6.79616e-05
3.9623e-08
-5.25859e-06
-6.84063e-05
6.24096e-08
-5.3673e-06
-6.86811e-05
1.01125e-07
-5.46094e-06
-6.8943e-05
1.46481e-07
-5.52274e-06
-6.91183e-05
1.8066e-07
-5.54438e-06
-6.91724e-05
1.90652e-07
-5.52553e-06
-6.91059e-05
1.57502e-07
-5.47445e-06
-6.89488e-05
7.53044e-08
-5.4078e-06
-6.87627e-05
-5.31414e-06
-6.83737e-05
-4.21464e-08
-7.7361e-06
-7.97756e-05
-5.53802e-08
-7.89325e-06
-8.02894e-05
-2.78014e-08
-8.04515e-06
-8.06809e-05
4.00892e-08
-8.18095e-06
-8.10472e-05
1.24644e-07
-8.26618e-06
-8.12795e-05
1.98358e-07
-8.29145e-06
-8.13301e-05
2.3945e-07
-8.25659e-06
-8.11985e-05
2.18992e-07
-8.1699e-06
-8.09259e-05
1.24558e-07
-8.05695e-06
-8.06068e-05
-7.92074e-06
-8.01309e-05
-1.57739e-07
-1.00494e-05
-9.79875e-05
-2.05619e-07
-1.02619e-05
-9.87898e-05
-1.56932e-07
-1.04606e-05
-9.94404e-05
-4.36591e-08
-1.06265e-05
-0.000100009
9.88519e-08
-1.07283e-05
-0.000100349
2.31861e-07
-1.07542e-05
-0.000100398
3.23302e-07
-1.07011e-05
-0.000100153
3.2704e-07
-1.05819e-05
-9.96711e-05
2.18021e-07
-1.04187e-05
-9.90861e-05
-1.02182e-05
-9.83109e-05
-3.16843e-07
-0.000122601
-1.15751e-05
-3.99129e-07
-0.00012399
-1.18801e-05
-3.22504e-07
-0.000125101
-1.21007e-05
-1.45397e-07
-0.000126009
-1.22843e-05
7.2532e-08
-0.00012652
-1.23896e-05
2.84495e-07
-0.000126568
-1.24121e-05
4.40646e-07
-0.000126155
-1.2354e-05
4.85979e-07
-0.000125337
-1.22085e-05
3.61388e-07
-0.000124297
-1.20219e-05
-0.000122933
-1.17256e-05
-1.15188e-07
-8.31061e-06
-5.37019e-05
-1.37793e-07
-8.49579e-06
-5.41213e-05
-9.99113e-08
-8.60383e-06
-5.43228e-05
-1.5539e-08
-8.69425e-06
-5.45027e-05
1.01318e-07
-8.75268e-06
-5.46283e-05
2.09748e-07
-8.76237e-06
-5.46684e-05
2.76041e-07
-8.72527e-06
-5.46236e-05
2.68237e-07
-8.65272e-06
-5.45154e-05
1.79963e-07
-8.56379e-06
-5.43765e-05
-8.38559e-06
-5.39924e-05
-1.53064e-07
-1.69752e-05
-5.92336e-05
-2.218e-07
-1.7279e-05
-5.96448e-05
-1.84212e-07
-1.75179e-05
-5.98957e-05
-6.49653e-08
-1.77196e-05
-6.01267e-05
9.30448e-08
-1.78402e-05
-6.02787e-05
2.45513e-07
-1.78587e-05
-6.03191e-05
3.43872e-07
-1.77741e-05
-6.02452e-05
3.38237e-07
-1.76054e-05
-6.00848e-05
2.06814e-07
-1.73953e-05
-5.98913e-05
-1.71015e-05
-5.95079e-05
-3.13408e-07
-2.59485e-05
-7.0534e-05
-4.43366e-07
-2.64144e-05
-7.10642e-05
-3.81812e-07
-2.68303e-05
-7.14674e-05
-1.848e-07
-2.71707e-05
-7.18255e-05
7.44261e-08
-2.73648e-05
-7.20446e-05
3.27039e-07
-2.73886e-05
-7.20839e-05
5.05557e-07
-2.72407e-05
-7.19403e-05
5.31732e-07
-2.69436e-05
-7.16505e-05
3.54946e-07
-2.65616e-05
-7.12991e-05
-2.61061e-05
-7.079e-05
-6.36735e-07
-3.4562e-05
-8.86993e-05
-8.44338e-07
-3.53365e-05
-8.96148e-05
-7.16782e-07
-3.59925e-05
-9.03497e-05
-3.77891e-07
-3.6496e-05
-9.09575e-05
5.01182e-08
-3.67678e-05
-9.13042e-05
4.72257e-07
-3.67934e-05
-9.13432e-05
7.94863e-07
-3.65736e-05
-9.10736e-05
8.97363e-07
-3.61199e-05
-9.05367e-05
6.65959e-07
-3.55058e-05
-8.98555e-05
-3.47419e-05
-8.89566e-05
-1.20995e-06
-0.000114896
-4.092e-05
-1.48547e-06
-0.000116672
-4.22192e-05
-1.21659e-06
-0.000118045
-4.3145e-05
-6.5209e-07
-0.000119089
-4.37975e-05
2.36811e-08
-0.000119646
-4.4126e-05
6.92299e-07
-0.000119688
-4.41515e-05
1.24315e-06
-0.000119215
-4.38784e-05
1.49664e-06
-0.000118253
-4.32833e-05
1.22551e-06
-0.000116953
-4.24135e-05
-0.000115195
-4.11313e-05
-2.5667e-07
-1.37528e-05
-3.97847e-05
-3.26506e-07
-1.40824e-05
-4.00625e-05
-2.79106e-07
-1.42608e-05
-4.02029e-05
-1.3376e-07
-1.44056e-05
-4.03331e-05
6.19967e-08
-1.44915e-05
-4.04231e-05
2.5381e-07
-1.45009e-05
-4.04487e-05
3.82561e-07
-1.44328e-05
-4.04096e-05
3.98447e-07
-1.43041e-05
-4.03237e-05
2.85748e-07
-1.41411e-05
-4.02193e-05
-1.38122e-05
-3.99573e-05
-3.36565e-07
-2.83761e-05
-4.43375e-05
-4.67244e-07
-2.89181e-05
-4.47397e-05
-4.14365e-07
-2.93262e-05
-4.49412e-05
-2.16164e-07
-2.96607e-05
-4.51225e-05
5.34058e-08
-2.98511e-05
-4.52394e-05
3.18353e-07
-2.98688e-05
-4.52658e-05
5.0205e-07
-2.97124e-05
-4.51997e-05
5.294e-07
-2.94097e-05
-4.5064e-05
3.61982e-07
-2.90264e-05
-4.48969e-05
-2.84881e-05
-4.45072e-05
-6.27813e-07
-4.42457e-05
-5.40246e-05
-8.47284e-07
-4.51475e-05
-5.45966e-05
-7.36842e-07
-4.591e-05
-5.49668e-05
-4.0199e-07
-4.65066e-05
-5.52773e-05
3.55498e-08
-4.68308e-05
-5.54605e-05
4.69377e-07
-4.68547e-05
-5.54869e-05
7.92117e-07
-4.65785e-05
-5.53549e-05
8.82854e-07
-4.6029e-05
-5.50922e-05
6.45128e-07
-4.53035e-05
-5.47567e-05
-4.44074e-05
-5.4193e-05
-1.25219e-06
-6.08716e-05
-7.06858e-05
-1.57791e-06
-6.25246e-05
-7.17599e-05
-1.32057e-06
-6.38265e-05
-7.25199e-05
-7.24211e-07
-6.47712e-05
-7.31021e-05
1.09538e-08
-6.52554e-05
-7.34179e-05
7.41245e-07
-6.52833e-05
-7.34457e-05
1.32752e-06
-6.48593e-05
-7.31859e-05
1.57604e-06
-6.39771e-05
-7.26568e-05
1.26109e-06
-6.27363e-05
-7.19422e-05
-6.10969e-05
-7.08784e-05
-2.47956e-06
-9.7506e-05
-7.54657e-05
-2.85292e-06
-9.98958e-05
-7.86187e-05
-2.25881e-06
-0.000101507
-8.06168e-05
-1.21182e-06
-0.000102618
-8.19343e-05
-1.95391e-08
-0.000103171
-8.2554e-05
1.16729e-06
-0.000103202
-8.25824e-05
2.20173e-06
-0.000102716
-8.20362e-05
2.79347e-06
-0.00010168
-8.07981e-05
2.47014e-06
-0.00010015
-7.89116e-05
-9.77739e-05
-7.57952e-05
-3.37223e-07
-1.83034e-05
-2.12197e-05
-4.56153e-07
-1.87244e-05
-2.12935e-05
-4.07841e-07
-1.89705e-05
-2.13518e-05
-2.21432e-07
-1.91697e-05
-2.14165e-05
3.69703e-08
-1.92835e-05
-2.14613e-05
2.92381e-07
-1.92932e-05
-2.14738e-05
4.66801e-07
-1.9196e-05
-2.14517e-05
4.94338e-07
-1.90135e-05
-2.14089e-05
3.48439e-07
-1.87808e-05
-2.13669e-05
-1.83598e-05
-2.13006e-05
-4.53998e-07
-3.82897e-05
-2.39266e-05
-6.56431e-07
-3.90248e-05
-2.42629e-05
-5.91746e-07
-3.96165e-05
-2.43797e-05
-3.30377e-07
-4.00882e-05
-2.44778e-05
2.80207e-08
-4.03483e-05
-2.45413e-05
3.84229e-07
-4.03661e-05
-2.45537e-05
6.35906e-07
-4.01409e-05
-2.4515e-05
6.8395e-07
-3.97039e-05
-2.44401e-05
4.61984e-07
-3.9138e-05
-2.43412e-05
-3.84032e-05
-2.40065e-05
-8.90574e-07
-6.13476e-05
-3.00039e-05
-1.20456e-06
-6.27147e-05
-3.05112e-05
-1.04491e-06
-6.38936e-05
-3.07536e-05
-5.84621e-07
-6.47771e-05
-3.09396e-05
1.00216e-08
-6.52395e-05
-3.10465e-05
6.01931e-07
-6.52649e-05
-3.10594e-05
1.05415e-06
-6.48558e-05
-3.09784e-05
1.2067e-06
-6.40257e-05
-3.08158e-05
8.94899e-07
-6.28954e-05
-3.05949e-05
-6.1536e-05
-3.00878e-05
-1.89726e-06
-8.83697e-05
-4.1509e-05
-2.32818e-06
-9.12733e-05
-4.25021e-05
-1.90655e-06
-9.3478e-05
-4.30665e-05
-1.04301e-06
-9.49768e-05
-4.34513e-05
-1.83831e-08
-9.57063e-05
-4.36496e-05
1.00526e-06
-9.57377e-05
-4.36635e-05
1.86133e-06
-9.50794e-05
-4.3493e-05
2.28233e-06
-9.3666e-05
-4.31415e-05
1.88964e-06
-9.15594e-05
-4.26116e-05
-8.86744e-05
-4.1617e-05
-4.13377e-06
-6.32518e-05
-0.00011804
-4.47963e-06
-6.5699e-05
-0.000124669
-3.39393e-06
-6.70593e-05
-0.000128516
-1.7788e-06
-6.78706e-05
-0.000130828
-5.13011e-08
-6.8243e-05
-0.000131832
1.66738e-06
-6.82587e-05
-0.000131865
3.26176e-06
-6.79264e-05
-0.000130957
4.34267e-06
-6.71688e-05
-0.000128768
4.09852e-06
-6.58719e-05
-0.000125128
-6.34475e-05
-0.000118574
-3.20039e-07
-2.09374e-05
-4.97609e-07
-2.11517e-05
-4.64937e-07
-2.14172e-05
-2.6332e-07
-2.16462e-05
2.49208e-08
-2.17767e-05
3.1231e-07
-2.17853e-05
5.04021e-07
-2.16719e-05
5.20926e-07
-2.14589e-05
3.21347e-07
-2.12057e-05
-2.09916e-05
-4.51358e-07
-4.44068e-05
-7.33072e-07
-4.51238e-05
-6.81317e-07
-4.58325e-05
-3.8924e-07
-4.63941e-05
1.70631e-08
-4.66979e-05
4.21644e-07
-4.6716e-05
7.05108e-07
-4.64478e-05
7.45575e-07
-4.59207e-05
4.51052e-07
-4.52407e-05
-4.45246e-05
-9.85818e-07
-7.33233e-05
-1.39948e-06
-7.51141e-05
-1.22442e-06
-7.66439e-05
-6.89038e-07
-7.77396e-05
-1.7078e-09
-7.82962e-05
6.83076e-07
-7.83224e-05
1.21291e-06
-7.78207e-05
1.38315e-06
-7.67886e-05
9.7994e-07
-7.53221e-05
-7.35369e-05
-2.34283e-06
-0.000112273
-2.84803e-06
-0.000116863
-2.29366e-06
-0.000119999
-1.24237e-06
-0.00012196
-2.97359e-08
-0.000122867
1.17945e-06
-0.000122899
2.21786e-06
-0.000122075
2.77012e-06
-0.000120221
2.32887e-06
-0.000117222
-0.000112677
-5.77618e-06
-0.000169351
-5.86882e-06
-0.000182117
-4.24411e-06
-0.000188289
-2.16113e-06
-0.000191519
-6.65348e-08
-0.000192792
2.012e-06
-0.000192828
4.05909e-06
-0.000191664
5.67214e-06
-0.000188607
5.70752e-06
-0.000182813
-0.000170196
-1.49884e-05
-0.000260592
0.000106786
-1.21329e-05
-0.000298144
0.00011375
-7.60711e-06
-0.000309321
0.000117068
-3.53431e-06
-0.000313768
0.000118769
-1.10211e-07
-0.000315049
0.00011944
3.26495e-06
-0.000315083
0.000119461
7.24478e-06
-0.000313885
0.000118848
1.15867e-05
-0.000309697
0.000117247
1.47403e-05
-0.000299522
0.000114121
-0.000262333
0.000107234
-3.73177e-05
-0.000409717
0.000186663
-2.46764e-05
-0.000514687
0.000204175
-1.27873e-05
-0.000530913
0.000209959
-5.25374e-06
-0.000533497
0.000212431
-1.60586e-07
-0.000533113
0.000213192
4.87743e-06
-0.000533077
0.000213212
1.21036e-05
-0.000533433
0.000212496
2.35159e-05
-0.000531049
0.000210153
3.66809e-05
-0.000517257
0.000204872
-0.000413161
0.000187525
-0.000105198
-0.000625844
0.00032104
-4.21722e-05
-0.000980122
0.000401795
-1.05323e-05
-0.000977625
0.000414475
-2.41371e-06
-0.000960152
0.000417885
-2.40503e-08
-0.000954226
0.000418077
2.23742e-06
-0.000954076
0.000418041
9.72597e-06
-0.000959468
0.00041786
3.99949e-05
-0.00097651
0.000414678
0.000103786
-0.000985596
0.000403822
-0.00063335
0.000323588
-0.000221833
-0.00118025
0.00077492
-9.33258e-05
-0.0019081
0.000798181
-3.07559e-05
-0.00188228
0.000840682
-9.10972e-06
-0.0018361
0.000852859
-1.82091e-07
-0.00182044
0.000855814
8.48184e-06
-0.00182002
0.00085581
2.89135e-05
-0.00183429
0.000852986
8.89215e-05
-0.00187933
0.000841344
0.000218188
-0.0019164
0.000800413
-0.00119438
0.000778337
0.000272703
-0.00145379
0.000129902
-0.00176615
4.65354e-05
-0.00179982
1.48858e-05
-0.00180539
2.41508e-07
-0.00180674
-1.40395e-05
-0.00180669
-4.40199e-05
-0.00180522
-0.000124131
-0.00179998
-0.000268872
-0.00177243
-0.00146357
-9.34305e-06
-0.00014093
0.000139407
-8.44671e-06
-0.000156901
0.000145533
-5.77197e-06
-0.000162639
0.000148949
-2.82512e-06
-0.000165588
0.000151027
-9.09866e-08
-0.000166627
0.000151956
2.61405e-06
-0.000166661
0.000151991
5.51433e-06
-0.000165713
0.000151151
8.11398e-06
-0.000162925
0.000149189
9.20558e-06
-0.000157616
0.00014595
-0.000141798
0.00013988
-2.23195e-05
-0.000137238
0.000205554
-1.69753e-05
-0.000179969
0.000222067
-1.00736e-05
-0.000188868
0.000229488
-4.47826e-06
-0.00019196
0.00023338
-1.48223e-07
-0.000192492
0.00023489
4.14472e-06
-0.000192506
0.000234938
9.55587e-06
-0.000192046
0.000233543
1.62698e-05
-0.000189129
0.000229858
2.19393e-05
-0.000181155
0.000222855
-0.000138809
0.000206511
-2.10751e-05
-1.85247e-05
0.000222951
-1.12138e-05
-4.4599e-05
0.00025623
-4.92854e-06
-4.28124e-05
0.000261743
-1.86149e-06
-4.16113e-05
0.000264039
-5.71075e-08
-4.12285e-05
0.000264571
1.67386e-06
-4.1241e-05
0.000264569
4.65351e-06
-4.16428e-05
0.000264094
1.06512e-05
-4.28224e-05
0.000261894
2.07482e-05
-4.49349e-05
0.000257181
-1.88569e-05
0.000224025
-0.000171433
0.000357976
0.000568896
-9.18642e-05
-3.12961e-06
0.00067613
-3.61588e-05
2.62369e-05
0.00071484
-1.23528e-05
5.56804e-05
0.000730639
-3.60908e-07
6.61353e-05
0.000735298
1.13558e-05
6.63509e-05
0.000735377
3.40538e-05
5.64887e-05
0.000730999
8.84668e-05
2.72944e-05
0.000715843
0.000168947
-5.57308e-06
0.000679564
0.000354391
0.000573363
0.000177506
-0.00127404
8.70047e-05
-0.00167951
3.22351e-05
-0.00171957
1.04504e-05
-0.00172871
2.05394e-07
-0.00173115
-9.78836e-06
-0.00173113
-3.05229e-05
-0.00172872
-8.36583e-05
-0.00172024
-0.000175609
-0.0016867
-0.00128506
-4.86284e-06
-8.05922e-05
0.000149607
-4.89594e-06
-8.60854e-05
0.000153307
-3.61121e-06
-8.84678e-05
0.000155773
-1.85487e-06
-8.98886e-05
0.000157491
-5.07783e-08
-9.04768e-05
0.000158345
1.73542e-06
-9.05079e-05
0.000158389
3.47306e-06
-8.99893e-05
0.000157638
4.73281e-06
-8.86704e-05
0.000156025
4.80155e-06
-8.64476e-05
0.000153687
-8.10302e-05
0.000150026
-1.05489e-05
-5.89557e-05
0.000194623
-9.13057e-06
-6.84131e-05
0.000203073
-6.00613e-06
-6.99559e-05
0.000207979
-2.85626e-06
-7.05467e-05
0.00021099
-9.61134e-08
-7.05894e-05
0.00021234
2.64535e-06
-7.06038e-05
0.000212398
5.70566e-06
-7.06137e-05
0.000211176
8.77248e-06
-7.00861e-05
0.000208353
1.03722e-05
-6.88152e-05
0.000203678
-5.94654e-05
0.000195322
-3.62999e-06
-1.94721e-05
0.00018678
-2.02333e-06
-9.04248e-06
0.00019502
-1.48273e-06
-5.23989e-06
0.000196203
-8.19997e-07
-4.50633e-06
0.000197043
-3.84309e-08
-4.4726e-06
0.000197371
7.18937e-07
-4.50105e-06
0.000197384
1.39082e-06
-4.5799e-06
0.000197123
1.87071e-06
-5.30462e-06
0.000196323
3.51446e-06
-8.90316e-06
0.000195364
-1.93336e-05
0.000187138
-4.87628e-05
0.000255423
0.000342147
-3.15364e-05
0.000277525
0.000371629
-1.60337e-05
0.000305104
0.000388243
-6.38305e-06
0.000318827
0.000396884
-2.652e-07
0.000323962
0.000399958
5.734e-06
0.000324045
0.000400059
1.49924e-05
0.000319132
0.00039726
3.01688e-05
0.0003056
0.000389059
4.7806e-05
0.0002789
0.00037342
0.000257064
0.000344375
6.6936e-05
-0.00108604
3.2955e-05
-0.00136851
1.32444e-05
-0.00139527
4.4444e-06
-0.00140161
1.13419e-07
-0.00140339
-4.10818e-06
-0.0014034
-1.24893e-05
-0.00140171
-3.16357e-05
-0.00139595
-6.63258e-05
-0.00137354
-0.00109446
-2.19051e-06
-4.13219e-05
0.000152336
-2.42413e-06
-4.33919e-05
0.000154819
-1.88426e-06
-4.44507e-05
0.000156659
-9.9251e-07
-4.51307e-05
0.000158047
-3.46072e-09
-4.54395e-05
0.000158787
9.76185e-07
-4.54652e-05
0.000158839
1.85243e-06
-4.52119e-05
0.000158205
2.3837e-06
-4.45909e-05
0.000156926
2.18058e-06
-4.36172e-05
0.000155181
-4.1587e-05
0.000152731
-4.41511e-06
-2.69316e-05
0.000184662
-4.20963e-06
-3.00554e-05
0.00018961
-2.97605e-06
-3.05292e-05
0.000192882
-1.47636e-06
-3.06711e-05
0.000195095
-3.37223e-08
-3.06628e-05
0.000196178
1.3968e-06
-3.06806e-05
0.000196237
2.86492e-06
-3.07202e-05
0.00019529
4.06739e-06
-3.06322e-05
0.000193222
4.35106e-06
-3.02521e-05
0.000190125
-2.71832e-05
0.000185241
-5.89673e-07
-2.15423e-05
0.000181852
-5.50027e-07
-1.96717e-05
0.00018447
-6.64624e-07
-1.94422e-05
0.000185097
-4.38632e-07
-1.96618e-05
0.000185669
-1.36321e-08
-1.98384e-05
0.000185983
4.03939e-07
-1.98648e-05
0.00018601
6.32548e-07
-1.97368e-05
0.000185766
5.13462e-07
-1.95492e-05
0.000185251
5.43503e-07
-1.98042e-05
0.000184723
-2.17595e-05
0.000182132
-1.98904e-05
9.64902e-05
0.000243681
-1.26681e-05
0.000100483
0.000243895
-6.97705e-06
0.000110685
0.000252062
-2.99716e-06
0.000115897
0.000256962
-1.48804e-07
0.000117964
0.000258917
2.65104e-06
0.000117998
0.000259014
6.48404e-06
0.000116026
0.000257286
1.20431e-05
0.000110913
0.000252686
1.94711e-05
0.000101008
0.00024486
9.71057e-05
0.000244799
2.04212e-05
-0.00101021
1.09879e-05
-0.00125881
4.78312e-06
-0.00127862
1.64545e-06
-0.00128281
6.40011e-08
-0.00128408
-1.4796e-06
-0.0012841
-4.47377e-06
-0.0012829
-1.05213e-05
-0.00127919
-2.02489e-05
-0.00126297
-0.00101763
-5.458e-07
-1.17539e-05
0.000153029
-6.27713e-07
-1.21522e-05
0.000155191
-5.12121e-07
-1.23683e-05
0.000156802
-2.54785e-07
-1.25424e-05
0.000158054
4.96738e-08
-1.26417e-05
0.000158734
3.45466e-07
-1.2665e-05
0.00015879
5.90083e-07
-1.26016e-05
0.000158227
6.78569e-07
-1.24721e-05
0.000157084
5.76414e-07
-1.22768e-05
0.000155577
-1.18925e-05
0.000153448
-9.97171e-07
-8.8705e-06
0.000182797
-1.0253e-06
-9.46031e-06
0.000186982
-7.87656e-07
-9.48901e-06
0.000189815
-3.99557e-07
-9.53983e-06
0.000191757
2.85845e-08
-9.56937e-06
0.000192735
4.52137e-07
-9.58793e-06
0.000192801
8.21254e-07
-9.59303e-06
0.000191958
1.04862e-06
-9.57351e-06
0.000190168
1.00926e-06
-9.58557e-06
0.0001875
-9.02326e-06
0.00018337
1.3371e-07
-1.15513e-05
0.000184405
5.91332e-08
-1.15468e-05
0.000186636
-1.14018e-07
-1.15805e-05
0.000187397
-1.20927e-07
-1.18474e-05
0.000188019
1.49158e-08
-1.20343e-05
0.000188345
1.5601e-07
-1.20601e-05
0.000188384
1.53218e-07
-1.19297e-05
0.000188139
-3.91804e-08
-1.17104e-05
0.000187609
-1.24574e-07
-1.17024e-05
0.000186928
-1.17662e-05
0.000184724
-4.41257e-06
1.51485e-05
0.000221325
-3.13075e-06
1.38817e-05
0.00021719
-2.078e-06
1.57209e-05
0.000223674
-1.00904e-06
1.656e-05
0.000227469
-4.70907e-08
1.68929e-05
0.000229016
8.91895e-07
1.68865e-05
0.000229091
1.93346e-06
1.65661e-05
0.00022775
2.97537e-06
1.57261e-05
0.000224196
4.27658e-06
1.39034e-05
0.000217959
1.51688e-05
0.000222156
3.5547e-06
-0.000998576
1.67735e-06
-0.00124303
5.40717e-07
-0.00126172
1.01151e-07
-0.00126577
3.03926e-08
-0.00126708
-2.91619e-08
-0.00126709
-4.34213e-07
-0.00126587
-1.55511e-06
-0.00126227
-3.48873e-06
-0.00124707
-0.00100586
8.34927e-07
1.61792e-05
0.000152457
9.3033e-07
1.7232e-05
0.000154832
7.16724e-07
1.78387e-05
0.000156521
4.18813e-07
1.81325e-05
0.000157796
1.06021e-07
1.82311e-05
0.000158482
-2.09676e-07
1.82122e-05
0.000158543
-5.31252e-07
1.80821e-05
0.000157976
-7.7457e-07
1.7779e-05
0.000156826
-7.63872e-07
1.71922e-05
0.00015524
1.61436e-05
0.000152906
1.85717e-06
7.15468e-06
0.000189949
1.70859e-06
8.76284e-06
0.000195583
1.12005e-06
9.15026e-06
0.000199112
5.73746e-07
9.06473e-06
0.000201406
9.5431e-08
8.96383e-06
0.000202507
-3.84373e-07
8.95099e-06
0.000202579
-9.35282e-07
8.98889e-06
0.000201643
-1.52806e-06
9.02663e-06
0.000199535
-1.77563e-06
8.72743e-06
0.000196198
7.04815e-06
0.000190629
1.28859e-06
3.59582e-06
0.000186695
8.86274e-07
5.47267e-06
0.000190518
4.52328e-07
5.78442e-06
0.000191355
1.95662e-07
5.69344e-06
0.000191839
5.61347e-08
5.58585e-06
0.000192083
-8.7884e-08
5.54658e-06
0.000192114
-3.33085e-07
5.63712e-06
0.000191942
-7.74608e-07
5.69604e-06
0.000191518
-1.24011e-06
5.41894e-06
0.000190839
3.53733e-06
0.000187048
8.75108e-06
-5.12432e-05
0.000267751
4.78782e-06
-5.43688e-05
0.000281282
1.94113e-06
-5.87255e-05
0.000291401
6.39225e-07
-6.15778e-05
0.000296402
3.31786e-08
-6.27719e-05
0.000298302
-5.40871e-07
-6.27909e-05
0.000298398
-1.80263e-06
-6.17253e-05
0.000296712
-4.52975e-06
-5.90165e-05
0.000292029
-8.66222e-06
-5.48637e-05
0.000282699
-5.1979e-05
0.000269256
-7.98126e-06
-0.00104156
-5.46246e-06
-0.0012996
-3.01845e-06
-0.00132258
-1.28487e-06
-0.00132873
1.81815e-08
-0.00133076
1.30698e-06
-0.00133079
3.00038e-06
-0.00132888
5.3653e-06
-0.0013233
8.01545e-06
-0.00130425
-0.00104958
2.41913e-06
5.04352e-05
0.000146786
2.58584e-06
5.38913e-05
0.000149519
1.97656e-06
5.56923e-05
0.000151279
1.1025e-06
5.66382e-05
0.00015257
1.67119e-07
5.69933e-05
0.000153259
-7.7221e-07
5.69811e-05
0.00015332
-1.66709e-06
5.66112e-05
0.000152747
-2.3315e-06
5.56897e-05
0.000151573
-2.30026e-06
5.39674e-05
0.000149934
5.05306e-05
0.000147229
5.94009e-06
3.06325e-05
0.000203595
5.18163e-06
3.80392e-05
0.000212132
3.39609e-06
3.95166e-05
0.000216982
1.67348e-06
3.9721e-05
0.000219988
1.68927e-07
3.95777e-05
0.00022139
-1.31858e-06
3.95096e-05
0.000221477
-3.02629e-06
3.96558e-05
0.000220253
-4.81883e-06
3.94526e-05
0.00021745
-5.77076e-06
3.8096e-05
0.000212919
3.07419e-05
0.000204528
3.34605e-06
2.70148e-05
0.000187252
1.85192e-06
3.71341e-05
0.000193146
9.43917e-07
3.87131e-05
0.000193437
4.48696e-07
3.84649e-05
0.000193923
8.68511e-08
3.81406e-05
0.000194178
-2.67123e-07
3.8125e-05
0.000194221
-7.61916e-07
3.83371e-05
0.000194011
-1.61936e-06
3.8596e-05
0.0001936
-3.2358e-06
3.7337e-05
0.000193447
2.71558e-05
0.00018758
3.41934e-05
-0.000153151
0.000414321
1.80906e-05
-0.000144223
0.000479542
7.78632e-06
-0.000156272
0.000497388
2.8504e-06
-0.000164899
0.000505524
1.46004e-07
-0.000168415
0.000508442
-2.52383e-06
-0.000168527
0.00050851
-7.21583e-06
-0.000165289
0.000505985
-1.71004e-05
-0.000157096
0.000498355
-3.37557e-05
-0.000145162
0.000482582
-0.000154864
0.000418072
-2.86284e-05
-0.0011655
-1.79428e-05
-0.00145396
-8.7698e-06
-0.00148735
-3.44104e-06
-0.00149829
-2.91891e-08
-0.0015019
3.36595e-06
-0.00150194
8.47317e-06
-0.00149865
1.73183e-05
-0.0014886
2.85301e-05
-0.00146001
-0.00117558
4.33945e-06
9.86164e-05
0.000126717
4.38402e-06