/*--------------------------------*- C++ -*----------------------------------*\
| =========                 |                                                 |
| \\      /  F ield         | OpenFOAM: The Open Source CFD Toolbox           |
|  \\    /   O peration     | Version:  2.3.1                                 |
|   \\  /    A nd           | Web:      www.OpenFOAM.org                      |
|    \\/     M anipulation  |                                                 |
\*---------------------------------------------------------------------------*/
FoamFile
{
    version     2.0;
    format      ascii;
    class       volScalarField;
    location    "0.56";
    object      epsilon;
}
// * * * * * * * * * * * * * * * * * * * * * * * * * * * * * * * * * * * * * //

dimensions      [0 2 -3 0 0 0 0];

internalField   nonuniform List<scalar> 
9648
(
2425.91
2428.25
2428.26
2424.03
2415.15
2400.97
2381.75
2357.33
2327.63
2292.72
2252.78
2207.92
2158.94
2106.75
2052.11
1995.94
1939.32
1883.27
1828.48
1775.53
1724.99
1677.21
1632.39
1590.73
1552.3
1517.03
1484.83
1455.62
1429.34
1405.81
1384.91
1366.51
1350.48
1336.66
1324.97
1315.27
1307.43
1301.38
1297.09
1294.46
1293.37
1293.83
1295.79
1299.18
1304.04
1310.41
1318.26
1327.55
1338.39
1350.9
1365.09
1380.93
1398.65
1418.23
1439.63
1462.66
1487.11
1512.55
1538.22
1563.53
1588.04
600.911
595.432
588.385
580.08
572.638
568.488
567.348
568.182
570.744
575.156
581.21
588.259
595.895
603.741
611.456
618.66
625.17
630.948
635.984
640.213
643.743
646.648
648.988
650.896
652.512
653.904
655.141
656.305
657.488
658.749
660.113
661.646
663.39
665.346
667.552
670.037
672.793
675.821
679.136
682.77
686.711
690.947
695.489
700.345
705.498
710.979
716.78
722.872
729.236
735.872
742.725
749.768
756.947
764.29
771.656
779.018
786.222
793.37
800.322
807.001
813.365
234.479
238.312
243.588
251.152
260.863
272.292
285.562
300.277
316.355
333.422
351.278
369.475
387.672
405.527
422.744
439.08
454.364
468.506
481.45
493.183
503.738
513.159
521.535
528.962
535.547
541.384
546.564
551.188
555.334
559.083
562.505
565.66
568.602
571.377
574.028
576.585
579.08
581.53
583.955
586.374
588.801
591.254
593.73
596.241
598.787
601.361
603.96
606.564
609.167
611.745
614.29
616.8
619.233
621.64
623.908
626.132
628.217
630.296
632.209
634
635.66
128.628
138.766
150.595
164.23
179.585
196.52
214.947
234.621
255.28
276.557
298.12
319.58
340.607
360.886
380.168
398.241
414.975
430.296
444.171
456.612
467.655
477.363
485.831
493.16
499.467
504.86
509.449
513.336
516.609
519.364
521.674
523.615
525.252
526.636
527.817
528.837
529.733
530.527
531.245
531.91
532.539
533.151
533.76
534.373
534.994
535.624
536.264
536.907
537.554
538.195
538.811
539.428
540.017
540.591
541.098
541.598
542.086
542.553
542.978
543.367
543.759
92.8973
105.698
120.427
137.025
155.379
175.341
196.689
219.127
242.301
265.794
289.216
312.17
334.328
355.402
375.175
393.454
410.147
425.211
438.637
450.475
460.776
469.615
477.107
483.358
488.505
492.676
495.985
498.549
500.459
501.811
502.697
503.186
503.36
503.273
502.972
502.506
501.916
501.224
500.459
499.642
498.789
497.927
497.072
496.236
495.422
494.635
493.878
493.149
492.441
491.758
491.081
490.414
489.762
489.116
488.47
487.826
487.208
486.592
485.96
485.324
484.69
79.4086
93.8952
110.558
129.271
149.826
172.008
195.493
219.898
244.794
269.699
294.195
317.856
340.389
361.515
381.086
398.896
414.885
429.066
441.44
452.114
461.162
468.649
474.733
479.504
483.137
485.777
487.546
488.583
488.958
488.784
488.158
487.145
485.845
484.317
482.591
480.73
478.786
476.76
474.693
472.604
470.502
468.421
466.38
464.396
462.46
460.582
458.764
457.016
455.325
453.677
452.07
450.492
448.944
447.424
445.921
444.465
443.046
441.64
440.23
438.826
437.412
75.043
90.9822
109.3
129.803
152.167
176.123
201.249
227.093
253.189
278.939
303.972
327.777
350.15
370.806
389.747
406.654
421.526
434.459
445.418
454.619
462.158
468.037
472.524
475.619
477.585
478.587
478.723
478.202
477.021
475.315
473.22
470.747
468.052
465.182
462.125
458.977
455.821
452.601
449.393
446.207
443.028
439.917
436.888
433.962
431.104
428.337
425.666
423.084
420.596
418.179
415.819
413.505
411.25
409.007
406.8
404.649
402.553
400.507
398.456
396.381
394.326
74.9763
92.2784
112.114
134.201
158.072
183.41
209.77
236.645
263.531
289.692
314.856
338.326
360.113
379.846
397.884
413.602
427.078
438.57
447.849
455.361
461.253
465.333
468.171
469.451
469.657
468.963
467.431
465.382
462.638
459.422
455.929
452.049
448.047
443.92
439.61
435.272
430.988
426.61
422.344
418.15
413.969
409.892
405.981
402.208
398.512
394.97
391.518
388.209
385.002
381.9
378.872
375.908
373.004
370.093
367.235
364.477
361.747
359.129
356.47
353.767
351.155
76.9531
95.3336
116.512
139.774
164.954
191.258
218.382
246.092
273.278
299.653
324.574
347.57
368.363
386.851
403.752
418.188
430.19
440.086
447.901
453.747
457.762
460.001
460.942
460.592
459.101
456.579
453.494
449.983
445.589
440.917
435.967
430.85
425.828
420.465
414.798
409.452
403.95
398.393
393.165
387.837
382.552
377.263
372.639
368.043
363.448
359.316
354.949
351.009
346.903
343.093
339.178
335.607
332.12
328.471
324.928
321.705
318.222
315.298
311.961
308.499
305.42
1611.87
1634.86
1656.74
1677.46
1697.22
1716.43
1735.22
1753.86
1772.37
1789.89
1806.08
1821.48
1836.35
1851.05
1865.8
1881.26
1897.99
1916.51
1937.2
1960.59
1986.44
2014.26
2043.62
2074.07
2105.28
2137.17
2169.88
2203.11
2236.8
2270.97
2305.82
2341.2
2377.13
2413.77
2451.13
2489.12
2527.83
2567.4
2607.9
2649.18
2691.27
2734.4
2778.57
2823.6
2869.83
2917.11
2965.35
3014.58
3065.01
3116.68
3169.52
3223.42
3278.93
3335.65
3393.94
3453.6
3515.35
3579.18
3645.1
3712.99
3782.97
819.387
825.477
831.392
837.052
842.479
847.795
853.142
858.37
863.7
868.776
873.807
878.728
883.653
888.607
893.583
898.625
903.753
909.011
914.394
919.879
925.428
930.979
936.509
941.994
947.421
952.77
957.974
963.003
967.848
972.536
977.081
981.46
985.691
989.796
993.771
997.617
1001.36
1004.98
1008.5
1011.9
1015.21
1018.45
1021.58
1024.62
1027.58
1030.44
1033.21
1035.86
1038.43
1040.91
1043.3
1045.58
1047.77
1050.01
1052.07
1054.23
1056.35
1058.68
1060.9
1063.19
1065.59
637.288
638.834
640.428
641.991
643.525
644.962
646.473
647.888
649.289
650.543
651.743
652.888
654.048
655.179
656.284
657.349
658.371
659.347
660.266
661.116
661.884
662.569
663.159
663.65
664.038
664.32
664.49
664.546
664.479
664.297
663.987
663.557
663.008
662.338
661.561
660.674
659.679
658.574
657.361
656.037
654.608
653.078
651.455
649.724
647.896
645.96
643.904
641.721
639.419
636.999
634.434
631.773
628.978
626.077
622.991
619.825
616.577
613.256
609.853
606.398
602.955
544.126
544.494
544.831
545.154
545.444
545.703
545.925
546.125
546.266
546.303
546.274
546.201
546.064
545.842
545.563
545.216
544.802
544.314
543.745
543.087
542.341
541.506
540.586
539.576
538.471
537.265
535.96
534.555
533.05
531.445
529.74
527.928
526.011
523.995
521.89
519.694
517.407
515.03
512.556
509.99
507.338
504.612
501.815
498.955
496.032
493.043
489.969
486.809
483.556
480.23
476.801
473.279
469.678
465.98
462.161
458.227
454.226
450.143
446.005
441.85
437.703
484.059
483.403
482.723
482.011
481.269
480.464
479.601
478.734
477.86
476.934
475.971
474.962
473.891
472.761
471.567
470.306
469.009
467.638
466.193
464.671
463.075
461.413
459.69
457.908
456.06
454.142
452.149
450.082
447.948
445.746
443.472
441.114
438.674
436.157
433.575
430.928
428.214
425.425
422.557
419.613
416.605
413.541
410.438
407.308
404.159
400.99
397.766
394.515
391.199
387.841
384.42
380.925
377.377
373.762
370.056
366.254
362.374
358.411
354.429
350.436
346.447
436.01
434.597
433.175
431.706
430.211
428.68
427.104
425.506
423.864
422.195
420.485
418.749
416.973
415.143
413.266
411.352
409.409
407.4
405.323
403.18
400.978
398.73
396.449
394.142
391.795
389.399
386.954
384.461
381.938
379.384
376.796
374.148
371.443
368.677
365.874
363.032
360.137
357.19
354.173
351.086
347.944
344.757
341.549
338.345
335.165
332.018
328.848
325.692
322.509
319.342
316.141
312.882
309.605
306.265
302.882
299.378
295.814
292.179
288.559
284.903
281.274
392.288
390.257
388.215
386.157
384.057
381.908
379.724
377.534
375.304
373.021
370.722
368.415
366.071
363.701
361.283
358.848
356.412
353.923
351.367
348.737
346.051
343.346
340.627
337.923
335.209
332.457
329.675
326.857
324.051
321.262
318.51
315.722
312.919
310.068
307.22
304.354
301.43
298.475
295.461
292.381
289.241
286.039
282.824
279.626
276.472
273.426
270.364
267.387
264.406
261.531
258.666
255.724
252.797
249.818
246.836
243.684
240.521
237.254
234.082
230.847
227.665
348.54
345.98
343.407
340.87
338.302
335.741
333.102
330.529
327.92
325.193
322.468
319.784
317.053
314.297
311.463
308.659
305.929
303.156
300.314
297.329
294.268
291.229
288.175
285.166
282.221
279.239
276.228
273.128
270.058
267.074
264.267
261.448
258.707
255.936
253.245
250.572
247.769
244.905
242.036
239.155
236.17
233.061
229.935
226.813
223.715
220.839
217.889
215.124
212.353
209.86
207.437
204.868
202.355
199.784
197.274
194.483
191.761
188.873
186.225
183.463
180.803
302.095
299.015
295.759
292.856
289.783
287.137
284.137
281.57
278.964
276.113
273.253
270.655
267.797
264.957
261.836
258.701
255.93
253.248
250.562
247.611
244.243
241.097
237.868
234.617
231.562
228.561
225.657
222.416
218.969
215.722
212.884
210.06
207.464
204.928
202.736
200.613
198.165
195.44
192.809
190.376
187.875
184.989
182.034
179.139
176.149
173.544
170.617
168.071
165.406
163.425
161.556
159.362
157.363
155.278
153.352
150.882
148.637
146.064
143.991
141.742
139.711
3856.11
3931.92
4009.79
4089.77
4172.3
4258.29
4347.21
4439
4533.4
4630.57
4730.84
4833.01
4937.33
5048.32
5185.96
5314.68
5441.49
5570.84
5702.65
5836.91
5973.95
6113.84
6256.18
6401.2
6548.65
6697.82
6848.42
7000.19
7152.92
7305.74
7458.54
7610.71
7761.38
7909.92
8055.83
8197.66
8334.25
8464.2
8579.03
8663.55
8721.08
8753.21
8759.83
8739.18
8689.71
8608.96
8492.93
8337
8136.85
7887.89
7583.89
7218.01
6785.06
6277.47
5665.26
4723.53
4305.71
4095.97
4012.91
3973.36
3892.78
1068.24
1070.99
1073.96
1077
1080.14
1083.53
1087.48
1091.85
1096.71
1101.88
1107.59
1111.26
1112.82
1115.92
1119.71
1124.89
1130.31
1135.66
1141.15
1146.88
1152.88
1159.21
1165.8
1172.68
1179.82
1187.2
1194.86
1202.82
1211.12
1219.81
1228.93
1238.56
1248.8
1259.78
1271.61
1284.53
1298.69
1314.48
1333.28
1363.1
1399.09
1438.03
1480.14
1525.56
1574.97
1628.71
1686.86
1749.69
1817.49
1889.81
1965.77
2043.78
2122.26
2200.15
2270.1
2336.14
2395.58
2482.1
2585.89
2693.46
2652.86
599.491
596.035
592.549
589.049
585.5
581.985
578.591
575.362
572.215
569.052
565.495
560.048
554.25
549.284
544.83
540.98
537.251
533.431
529.552
525.666
521.815
517.997
514.206
510.441
506.698
502.973
499.275
495.607
491.988
488.415
484.908
481.49
478.171
474.996
471.992
469.207
466.689
464.508
462.804
462.069
462.496
467.153
475.603
487.358
502.871
522.792
547.833
579.013
617.321
663.835
719.564
785.306
862.267
950.808
1050.81
1159.05
1266.51
1383.82
1527.29
1712.68
1901.52
433.564
429.439
425.317
421.183
417.009
412.843
408.737
404.74
400.738
396.655
391.832
385.976
380.291
375.163
370.42
366.027
361.755
357.507
353.258
349.035
344.838
340.652
336.482
332.333
328.2
324.092
320.011
315.958
311.931
307.936
303.973
300.047
296.171
292.355
288.608
284.952
281.404
277.983
274.714
271.659
268.897
266.732
265.841
266.653
269.045
273.357
280.048
289.765
303.345
321.805
346.546
378.885
420.478
472.453
535.502
607.709
684.937
768.573
866.819
993.277
1151.84
342.482
338.582
334.705
330.81
326.852
322.902
318.978
315.147
311.302
307.359
302.679
297.491
292.578
288.082
283.836
279.828
275.926
272.121
268.372
264.69
261.049
257.401
253.774
250.175
246.593
243.041
239.517
236.023
232.548
229.097
225.667
222.267
218.901
215.578
212.307
209.1
205.966
202.918
199.964
197.12
194.414
191.906
189.727
188.222
187.513
187.616
188.753
191.224
195.458
201.988
211.605
225.305
244.279
269.784
302.841
343.602
390.692
443.623
504.619
579.185
673.679
277.648
274.146
270.676
267.206
263.602
260.008
256.415
252.948
249.466
245.932
241.728
237.323
233.19
229.414
225.781
222.314
218.912
215.662
212.502
209.443
206.436
203.392
200.386
197.424
194.475
191.566
188.676
185.819
182.965
180.127
177.299
174.497
171.722
168.989
166.301
163.67
161.102
158.607
156.187
153.852
151.616
149.499
147.542
145.829
144.601
143.761
143.427
143.72
144.844
147.073
150.774
156.465
164.813
176.582
192.646
213.575
239.503
270.501
307.179
351.171
405.576
224.405
221.343
218.325
215.356
212.135
208.948
205.705
202.673
199.632
196.629
192.969
189.311
185.877
182.818
179.782
176.891
173.989
171.309
168.722
166.257
163.847
161.34
158.917
156.583
154.241
151.952
149.655
147.4
145.117
142.848
140.566
138.324
136.104
133.939
131.81
129.743
127.729
125.785
123.906
122.108
120.392
118.781
117.283
115.93
114.781
113.991
113.466
113.269
113.502
114.298
115.84
118.381
122.236
127.832
135.64
146.152
159.782
176.854
197.831
223.49
255.103
177.896
175.273
172.735
170.346
167.527
164.783
161.887
159.347
156.798
154.403
151.269
148.278
145.441
143.065
140.564
138.248
135.798
133.678
131.621
129.671
127.788
125.714
123.805
122.096
120.314
118.576
116.777
115.064
113.255
111.468
109.632
107.888
106.157
104.517
102.89
101.339
99.8127
98.3642
96.9722
95.6747
94.4492
93.332
92.3238
91.4196
90.6493
90.1104
89.7739
89.6222
89.7204
90.1393
90.9765
92.3526
94.436
97.421
101.555
107.121
114.415
123.769
135.549
150.253
168.536
137.123
134.872
132.834
131.106
128.689
126.412
123.813
121.853
119.832
118.078
115.417
112.998
110.612
108.893
106.812
105.076
102.982
101.429
99.8344
98.2488
96.805
95.0135
93.5647
92.5729
91.2512
89.9038
88.4423
87.2252
85.7289
84.3045
82.7444
81.4712
80.139
78.9887
77.7585
76.6493
75.4512
74.3898
73.3944
72.5312
71.7452
71.0596
70.4939
70.0155
69.5736
69.236
69.0779
69.0283
69.198
69.5082
70.1977
71.1834
72.6727
74.6233
77.2478
80.58
84.9076
90.3212
97.21
105.84
116.556
3748.99
3591.07
3421.62
3243.13
3064.66
2891.59
2727.38
2576.45
2442.69
2328.27
2233.73
2158.07
2099.72
2056.46
2025.54
2004.34
1990.66
1982.9
1979.6
1979.56
1982.07
1986.56
1992.61
2000.07
2008.98
2019.06
2030.28
2042.63
2056.2
2070.84
2086.53
2103.22
2120.77
2138.98
2157.72
2176.71
2195.65
2214.24
2232.28
2249.43
2265.25
2279.52
2292.02
2302.58
2311.25
2318.26
2323.72
2327.83
2331.15
2334.44
2338.07
2342.29
2347.68
2354.51
2362.57
2371.67
2381.57
2392.33
2402.93
2412.37
2419.97
2462.78
2260.22
2062.27
1871.86
1704.86
1550.27
1407.11
1276.17
1157.84
1052.99
961.864
884.02
818.565
764.022
720.17
686.22
660.213
640.243
624.771
612.702
603.27
595.862
590.198
585.75
582.668
580.555
579.451
579.307
580.102
581.829
584.506
588.115
592.659
598.109
604.413
611.483
619.219
627.523
636.236
645.162
654.041
662.566
670.309
676.807
681.643
684.4
684.706
682.375
677.477
670.348
661.535
651.805
642.08
633.205
625.633
619.831
615.668
612.953
610.832
608.56
605.355
1989.18
1977.74
1878.75
1706.54
1528.28
1355.1
1186.41
1032.85
895.449
773.585
668.25
579.069
504.887
444.478
396.922
360.441
332.324
310.122
292.577
278.83
268.041
259.54
252.753
247.357
242.943
239.413
236.57
234.356
232.711
231.603
231.005
230.912
231.307
232.157
233.439
235.116
237.155
239.505
242.116
244.911
247.801
250.677
253.419
255.865
257.855
259.186
259.661
259.1
257.39
254.474
250.427
245.527
240.189
234.962
230.329
226.878
224.915
224.584
225.718
228.04
231.208
1317.21
1464.54
1562.71
1581.66
1514.68
1391.2
1224.7
1054.76
897.752
752.899
626.366
520.357
432.843
362.626
307.53
264.696
231.413
205.166
184.588
168.618
156.304
146.855
139.596
133.98
129.556
126.032
123.2
120.922
119.106
117.685
116.62
115.888
115.459
115.298
115.368
115.633
116.059
116.608
117.238
117.904
118.553
119.135
119.59
119.863
119.896
119.637
119.041
118.076
116.735
115.019
112.962
110.666
108.299
106.093
104.326
103.41
103.727
105.509
108.837
113.699
120.249
789.344
923.912
1066.68
1194.43
1277.14
1297.15
1249.21
1145.38
1010.05
856.715
709.449
583.023
474.288
385.212
314.551
258.603
214.732
180.442
153.69
133.05
117.319
105.504
96.7019
90.12
85.1252
81.2705
78.2604
75.8932
74.0311
72.5673
71.4412
70.6175
70.058
69.7192
69.5599
69.5429
69.6321
69.7913
69.9846
70.1722
70.3123
70.3653
70.2927
70.0588
69.6321
68.9896
68.1245
67.0419
65.7522
64.2876
62.7009
61.0795
59.5662
58.3412
57.6558
57.7642
59.0689
61.9176
66.5632
73.3024
82.0962
473.436
557.894
660.001
775.987
893.827
995.93
1062.15
1076.91
1037.72
952.262
837.044
711.276
584.429
472.593
381.252
305.806
245.879
198.504
160.804
131.709
109.783
93.6427
81.927
73.397
67.0986
62.365
58.7695
56.0216
53.917
52.2928
51.0567
50.155
49.5366
49.1466
48.9372
48.8677
48.8992
48.9971
49.1265
49.2508
49.3325
49.3391
49.2373
48.9996
48.5981
48.0185
47.2577
46.3277
45.2385
44.0203
42.7193
41.4145
40.2261
39.3202
38.9375
39.3886
41.0755
44.4027
49.7293
57.3072
67.2074
294.389
343.583
405.027
480.253
568.395
664.88
759.883
839.366
888.955
898.02
864.144
794.409
700.718
596.835
494.707
398.231
317.909
252.464
197.849
155.094
122.696
99.124
82.3861
70.456
61.8296
55.4678
50.7349
47.2041
44.5701
42.5746
41.0746
39.9857
39.2379
38.7569
38.4835
38.3685
38.3687
38.4477
38.5699
38.7
38.8013
38.8477
38.8064
38.6547
38.3621
37.9216
37.3277
36.5957
35.7281
34.7565
33.7175
32.6832
31.76
31.0945
30.9163
31.5461
33.3821
36.9295
42.643
50.8393
61.648
191.354
219.92
255.792
300.597
355.67
421.274
495.739
574.168
648.719
708.723
743.673
747.117
719.009
663.599
589.577
505.155
420.203
340.119
264.38
203.126
154.721
119.515
94.9641
77.6621
65.2326
56.1292
49.4365
44.5532
41.0078
38.361
36.3926
34.9624
33.9741
33.3206
32.9243
32.7209
32.6587
32.6963
32.796
32.9214
33.0344
33.1162
33.1324
33.0644
32.875
32.5653
32.1232
31.5701
30.8992
30.1439
29.3339
28.5382
27.8508
27.4095
27.4273
28.2165
30.1795
33.9076
39.9698
48.7584
60.4463
130.03
146.776
167.733
194.169
227.137
267.684
316.209
372.243
433.365
495.603
551.176
594.032
617.764
619.504
597.552
554.037
494.83
424.087
350.802
276.106
206.678
155.879
120.628
95.5697
77.1502
63.6242
53.7017
46.5976
41.5515
37.8258
35.0928
33.0955
31.7082
30.7682
30.1659
29.8099
29.6349
29.5891
29.6327
29.7205
29.8182
29.9113
29.9638
29.9572
29.851
29.6481
29.3368
28.9346
28.4337
27.8624
27.2532
26.6704
26.208
25.9891
26.2139
27.1955
29.3451
33.2916
39.6691
48.9928
61.4112
1.60107
218.193
195.636
2.24662
2.29512
0.204511
0.00071866
90.6287
0.000797757
0.0147061
93.4854
6.95849
0.000719658
244.399
0.167479
136.416
0.000757825
91.945
118.03
0.000714582
2.24217
232.985
204.825
0.000766118
0.000782291
0.210344
0.000715692
7.98969
0.000753561
0.00081949
6.41974
0.000742378
0.00877898
63.5181
3.9692
111.869
71.47
15.5781
0.000722719
44.9144
65.9656
29.9608
0.00074354
103.784
169.108
0.718699
0.000868941
0.00871116
1.22938
7.1643
373.065
364.244
0.000698203
0.00102577
0.0634261
0.0334193
0.000816814
9.35188
58.4625
291.05
140.898
0.000908279
1.49573
0.0252138
206.805
2.45134
38.366
63.7046
0.00112891
0.000747718
9.796
40.1249
56.8324
0.0380381
0.0518585
79.65
236.251
54.6747
0.000699904
5.44114
0.00235385
47.6992
0.0121672
109.473
0.000749968
8.50305
0.000792343
36.8862
0.0109693
0.00137129
0.233124
0.000698584
0.000935321
315.198
147.433
0.000868391
1.58563
1.85049
0.00184728
210.87
1.06083
31.8462
5.79745
0.000697532
0.000725719
0.000694584
1.40698
0.210071
0.000747388
177.62
226.564
0.00471237
232.992
26.8411
114.871
53.7588
28.1059
0.000975034
0.111235
0.0011081
0.00157659
186.171
0.00316615
292.536
424.4
28.3137
0.000746207
7.08593
6.94779
0.000744135
0.0299948
0.0271104
93.0843
0.00189159
62.9684
0.000749053
0.000723494
403.802
359.11
0.000749325
0.763829
153.093
0.231053
0.906568
26.6376
119.424
0.284685
27.5241
0.00527739
280.045
10.9506
0.0359228
48.1688
107.038
193.271
0.000764115
0.000757946
0.515475
0.0006993
40.99
0.109768
0.00144886
0.000739916
0.000747724
0.000758583
39.9221
70.8318
35.0121
0.000766053
286.959
305.868
405.472
165.033
0.00692376
155.91
43.3434
28.0981
0.000750882
0.00170442
194.65
67.3923
30.8092
74.4156
0.000745797
0.000842588
237.098
0.0298172
2.48493
0.00075794
0.000867334
0.173252
0.000796581
340.717
3.97509
0.00069615
0.683043
92.0021
145.855
0.00119542
52.184
0.00074702
0.000750659
106.119
32.7737
306.403
0.00121224
0.000802059
0.00284105
42.2289
76.2411
9.66109
127.251
14.2997
235.841
0.833102
85.9331
83.6619
28.2888
10.6208
39.2643
0.00145266
0.0294844
0.0007481
0.000726554
28.2101
0.010091
0.0118419
0.00201447
0.00628318
46.2494
194.18
0.0111446
175.896
7.4575
3.01623
0.00073253
0.555325
38.0606
7.20734
0.00106027
13.0254
35.7286
0.883448
2.34466
275.718
7.49664
5.16286
123.507
0.000954605
0.000723533
0.00103019
0.00428153
28.5826
0.000782693
0.00255097
0.000723267
1.7256
75.0101
76.4177
48.7902
11.8657
11.323
331.646
0.00113656
47.6978
98.6474
0.000744111
79.2132
0.000749642
330.111
1.72537
50.2287
0.00155446
0.000748698
19.9668
7.77868
0.000759636
0.000751179
0.000755942
0.000751621
1.18624
36.3677
44.251
0.0107832
0.000760443
0.000724192
0.00069638
104.02
1.18923
0.00119525
19.3793
0.116752
0.0949992
0.000692981
0.78113
0.000760161
0.111971
48.4955
271.991
2.99374
0.000976109
0.0018489
55.4146
0.361681
131.982
328.558
0.00083925
0.000740031
0.000734077
157.203
0.000774669
136.046
0.000749985
25.3114
12.0264
0.0243378
135.927
240.196
0.00127712
49.5778
50.8019
90.7973
90.3173
9.98432
356.881
38.5502
70.9221
141.418
95.4909
57.0451
0.340722
345.192
285.198
62.0893
33.5341
0.000994657
272.682
121.361
232.588
0.0188617
0.000869406
0.000745971
0.000813124
0.707596
1.56466
6.34559
0.125538
0.000725735
174.208
0.000746556
26.8638
23.6246
195.065
41.6401
18.5198
0.00193695
0.00110835
0.454048
84.2744
0.00439025
8.20186
257.465
35.6922
82.9273
196.579
61.7587
0.000821707
287.82
146.485
98.0593
0.000750941
198.886
155.904
0.000782562
30.4849
0.000752101
402.001
169.454
27.9943
81.0427
109.765
152.047
0.000763924
150.899
0.000967877
68.3986
80.0758
28.1301
284.033
3.6353
0.493809
2.5624
0.00110146
440.913
1.45052
0.00290931
0.00177991
253.996
0.000956156
91.4575
0.000737013
0.000750465
0.00183561
31.5565
0.195549
21.7984
0.00201215
83.3251
0.310008
225.395
279.849
38.3681
340.981
0.000791884
283.706
41.6994
0.000742846
77.4936
25.6695
0.000696617
0.000727264
115.722
0.0020581
26.8561
0.452422
74.4626
0.0177797
3.44208
39.9819
118.738
32.8046
82.7636
70.427
0.000994233
0.0330596
28.5789
22.5104
336.748
342.9
144.806
0.0855379
126.259
125.197
3.35596
93.2714
46.6537
25.996
0.000819135
83.1699
392.228
0.00107856
90.6648
18.8859
47.3365
0.0154256
0.0903949
267.316
0.00194014
332.8
0.00125004
1.86791
0.000738071
7.65648
169.707
0.557448
0.00132411
0.000898916
74.5322
26.7838
0.391683
5.5081
293.299
543.652
0.00136695
11.5717
27.1885
71.4163
26.214
449.891
28.6604
151.41
51.1272
3.42163
7.2143
307.302
54.9091
360.779
174.157
0.221662
169.824
59.6936
0.000790168
93.672
29.2462
12.8409
0.00978437
96.1008
45.8795
4.10745
53.8432
0.00159206
0.000747295
0.161534
28.5425
108.223
72.6463
0.000750297
0.000730798
0.000744435
28.1416
0.0280369
0.000745981
0.248795
93.0245
271.434
0.0044318
0.00456307
0.000720969
0.000738849
0.00195018
29.4938
102.251
22.1369
1.88265
304.995
390.278
0.00150857
62.5749
27.7434
28.3327
75.3667
447.472
0.000820881
0.00448449
0.000751564
397.8
0.779407
0.000726795
10.4179
0.354567
307.691
0.000759348
332.075
8.60302
0.067562
205.146
0.000748817
0.000737153
0.00102385
413.207
52.2624
132.368
321.347
10.8868
28.4252
0.000708371
0.00185293
0.454363
0.0164059
0.016415
179.35
40.6336
0.000748225
26.1298
44.6511
188.958
415.794
0.00296613
419.096
0.00182854
0.0219354
145.32
0.000739985
146.82
0.000759659
0.000792854
0.0211845
34.3778
2.92579
324.378
62.624
0.000883024
28.3315
501.206
0.223406
2.16326
7.24404
0.00077586
0.000760491
0.00230992
135.382
5.68788
0.000781084
276.849
277.211
220.181
0.11531
59.2737
0.00108615
29.6691
0.565452
0.132101
122.12
29.4859
151.844
176.378
0.000760654
0.000711096
0.00498654
72.9117
106.491
5.88415
0.00663367
0.000769509
0.000750719
0.00345363
0.120016
0.002125
72.0023
21.0366
0.00498256
26.3561
176.36
0.000760963
37.9721
0.000742738
3.377
0.000762493
0.0132885
38.4949
0.0116929
0.000744643
4.03837
372
268.737
0.000730441
0.000745737
1.54489
0.129377
0.000747877
100.573
0.000907282
31.6395
385.246
29.3189
89.2044
296.875
131.748
341.78
0.000748282
0.00250385
0.010962
292.162
61.9412
205.957
5.66401
4.34699
98.8256
163.144
131.431
5.05996
48.0621
0.000750686
1.52501
39.7546
32.617
310.6
27.9286
1.15672
40.1479
0.204265
0.00935897
40.1078
0.000751717
173.214
0.000883883
2.80313
297.644
186.897
3.00445
0.00251876
7.09704
0.000769783
0.00073639
0.201719
0.0135934
50.3043
0.00882464
28.5503
0.000750601
0.0191725
0.000725298
96.0112
0.00177332
85.5194
302.591
0.0144469
169.199
380.185
0.000757794
100.119
219.882
0.000783985
291.921
0.264136
0.000821537
0.000789208
287.079
0.000731646
0.00111967
0.123111
0.215968
440.858
275.065
0.000751521
0.000753117
9.32608
27.4279
0.00714876
2.2212
21.8462
0.000747848
0.000956708
0.000912356
170.856
275.285
3.40289
299.259
0.0173013
26.6764
0.000769754
0.00722987
0.0161467
0.0437594
0.000750048
298.771
0.00074201
0.0161634
0.000770241
1.38925
0.0149486
0.0405708
2.58871
5.01085
34.9324
2.24556
9.08986
27.7541
188.808
0.000817244
162.991
333.284
12.5339
75.2333
0.00076172
267.513
82.2447
0.000746032
418.791
65.5858
0.00643081
0.0238355
162.365
160.28
0.239156
321.924
416.913
4.39441
440.498
270.918
126.651
50.0406
21.8798
28.0731
270.223
298.049
0.0144134
314.591
43.2965
405.238
0.000813585
1.56374
2.87052
227.785
169.248
0.0119038
444.852
197.252
7.00205
0.0545087
2.83319
27.945
0.00155433
28.0921
450.162
0.0294268
223.957
14.4482
94.2338
192.822
0.000746424
0.00167925
7.28554
5.21121
0.0133077
0.000748457
0.851678
1.87455
0.00121155
0.0007587
268.438
6.94854
53.9704
10.5151
0.00316791
0.0010769
0.444668
86.7204
0.000825537
21.6138
29.9982
1.85178
167.073
0.00100758
0.407343
0.000740795
1.75425
86.5834
0.00155647
0.185975
40.5121
169.844
0.504685
93.7612
5.1837
0.95917
0.00098875
33.2097
340.163
0.000744312
0.000752831
150.299
0.0158951
0.000758253
73.8702
2.01973
165.197
29.4749
38.9686
0.315924
16.9202
203.28
168.377
241.052
0.000763901
272.945
0.000965803
37.8616
0.000793909
0.00149232
44.6194
0.00209269
255.155
0.0122163
0.0325199
46.1015
7.89149
0.543287
0.000899579
189.901
0.000889036
0.000718656
352.402
164.767
40.1181
28.5944
0.000815207
0.000686113
18.8567
151.23
0.000731551
224.077
37.8804
0.000753411
170.082
0.000701932
3.46504
6.32582
10.5932
1.52401
77.6003
20.7984
0.000700315
275.03
333.008
0.000744985
0.0133108
28.7502
0.000707948
241.63
158.575
403.686
0.000745972
0.000727792
196.971
0.095632
0.000836942
31.1554
81.6953
252.459
0.000720455
0.00079302
0.0158603
0.0116536
0.000747105
0.00202768
125.583
50.4795
0.000747012
13.4163
0.000747163
10.3907
0.00108798
0.000869046
26.8126
0.00074634
0.357056
0.000730534
50.9683
2.06531
20.5076
187.108
360.919
145.034
5.11151
14.5483
0.000758253
5.63572
282.589
529.501
0.157354
0.000828123
131.12
0.000746277
0.110374
0.000720111
451.52
15.4539
3.25032
202.102
52.5978
5.14916
79.9198
7.95096
226.114
111.916
0.000774812
0.00075421
0.00309819
0.000736029
0.0141798
102.868
0.000930062
257.56
0.00186779
0.320439
3.01239
151.003
0.00135516
41.953
0.0135261
58.0625
29.9784
446.443
0.000792943
0.000952395
1.5003
83.5851
64.6906
64.6675
1.94043
7.98412
20.622
0.062946
10.7774
1.72676
29.9224
0.000753739
392.833
1.43995
54.8151
0.000788083
51.9271
16.7412
0.00181781
90.04
17.049
0.0855681
0.000713932
0.000746387
200.741
46.955
14.5921
0.000738124
0.00961725
49.9776
189.467
3.36586
0.00589818
0.000733277
152.128
132.898
35.5601
35.2712
0.000744153
100.297
445.488
0.000746952
0.000749352
18.6791
0.00126845
0.00389136
0.21107
48.0057
0.00104799
36.0868
351.124
0.0007299
0.000820082
0.000727093
0.000770766
65.9198
516.075
343.345
0.0207059
34.1256
46.7421
0.133355
44.5294
0.000820735
31.0615
0.533495
30.3988
5.15432
83.2716
99.8102
0.137695
0.000759179
161.436
84.9961
278.466
5.67983
29.9711
0.525463
20.4813
0.00354427
0.00133952
148.569
145.862
0.0329658
1.14474
0.000754465
0.100219
19.367
0.028141
13.9309
4.46804
387.519
36.9076
1.73796
275.873
139.451
56.0057
15.3227
196.674
188.087
3.11361
37.4077
0.00361441
46.2559
44.5153
0.000743522
0.000710038
0.358438
0.00074884
0.000773481
57.0317
298.367
0.00074492
83.1956
0.000745341
0.000736947
0.000741256
0.000751159
0.0018168
29.5515
46.9208
253.6
0.000717487
0.00107046
6.59038
0.000856978
0.0284063
0.000762788
0.000863884
164.329
0.000985622
0.00469241
184.05
0.00427224
0.000749555
183.072
0.000745594
0.000761135
1.44006
0.000871552
6.60587
0.00123369
0.0243016
0.000743892
0.000753431
309.572
430.614
45.4998
0.0238823
106.903
15.8944
0.00129663
27.5464
309.048
237.394
476.445
0.000701652
27.5882
55.8866
0.263295
28.394
100.634
0.352493
31.6005
1.01393
28.2902
0.27121
7.32097
0.000757638
227.746
0.000755488
28.5076
31.6997
0.000747948
0.92051
0.0024705
0.0316311
0.000725798
3.87445
0.000896016
0.000741431
40.2285
0.0339841
0.166195
232.775
153.31
0.000816746
0.000965858
29.8822
265.962
0.000691862
0.000754482
0.199384
24.4706
146.364
0.00209625
15.5586
0.000745766
0.000819761
0.000718017
0.0281299
24.4343
0.00409257
273.337
29.7789
264.059
176.538
0.000844888
304.779
65.8324
0.00073266
0.000754075
0.000750344
0.00115651
0.000740435
122.137
0.000745445
0.000751147
353.76
1.20493
0.00269288
0.0378212
57.481
7.34494
0.00740784
0.000825264
188.654
0.000762696
6.63411
0.000754382
0.000847365
166.643
170.185
0.0033578
0.00083168
3.76316
0.000744334
372.825
0.000752575
156.037
0.0277894
8.75248
0.124242
3.27451
1.94209
30.2834
0.000760981
0.00086197
0.00492668
62.5606
0.297332
308.929
0.00074736
0.0012372
0.00164476
261.876
61.179
274.246
0.00226156
0.00350433
0.828752
0.000751411
19.6169
36.9368
0.00882489
267.46
180.892
42.0282
0.00155094
1.44041
171.368
230.916
27.7773
0.0105896
118.017
0.509401
138.162
0.14582
2.27255
44.573
0.000761955
28.3384
0.00122142
0.00512373
0.00631249
0.0481457
0.000909443
10.7253
0.000746232
46.1891
0.132821
0.000864794
1.55649
0.000756579
0.7683
0.230167
40.0276
3.89911
92.6945
0.809524
0.000748481
0.000732351
4.83255
0.161781
42.8737
267.179