/*--------------------------------*- C++ -*----------------------------------*\
| =========                 |                                                 |
| \\      /  F ield         | OpenFOAM: The Open Source CFD Toolbox           |
|  \\    /   O peration     | Version:  2.3.1                                 |
|   \\  /    A nd           | Web:      www.OpenFOAM.org                      |
|    \\/     M anipulation  |                                                 |
\*---------------------------------------------------------------------------*/
FoamFile
{
    version     2.0;
    format      ascii;
    class       volScalarField;
    location    "0.7";
    object      p;
}
// * * * * * * * * * * * * * * * * * * * * * * * * * * * * * * * * * * * * * //

dimensions      [0 2 -2 0 0 0 0];

internalField   nonuniform List<scalar> 
768
(
-0.0523703
-0.0523287
-0.0524814
-0.0528244
-0.0531741
-0.053366
-0.053457
-0.0535351
-0.0536892
-0.0539616
-0.0542408
-0.0543283
-0.0492078
-0.0496195
-0.0502726
-0.0508956
-0.0512597
-0.05132
-0.050931
-0.0503476
-0.0498761
-0.0495658
-0.0491995
-0.0485623
-0.0471976
-0.0482916
-0.0497422
-0.0509139
-0.0514355
-0.0511262
-0.0502116
-0.0490364
-0.0479768
-0.0470592
-0.0460552
-0.0451115
-0.0443694
-0.0463629
-0.0484697
-0.0499769
-0.0505667
-0.0501936
-0.049093
-0.0476947
-0.0463243
-0.0449908
-0.0437603
-0.0430459
-0.0409448
-0.043554
-0.0460007
-0.0476926
-0.0483779
-0.0480467
-0.0469933
-0.0456723
-0.0442221
-0.0426054
-0.041313
-0.040978
-0.0366985
-0.0393748
-0.0418621
-0.0436303
-0.044411
-0.0442821
-0.0435454
-0.0425287
-0.0411293
-0.0393723
-0.038211
-0.0384151
-0.0316584
-0.033947
-0.0361959
-0.0378447
-0.0386623
-0.0387739
-0.038424
-0.0377109
-0.0363987
-0.0347345
-0.0340025
-0.0348971
-0.0260755
-0.0277021
-0.0294099
-0.0306501
-0.0313507
-0.0315694
-0.0314583
-0.0309644
-0.0299085
-0.0287576
-0.0287818
-0.0303735
-0.0203686
-0.0212036
-0.0221237
-0.0226208
-0.0229499
-0.0230894
-0.0231117
-0.022948
-0.022557
-0.0224276
-0.0234563
-0.0256495
-0.014784
-0.0148033
-0.0145151
-0.0143939
-0.0142411
-0.0142581
-0.0145154
-0.0149831
-0.015693
-0.016944
-0.0190921
-0.0218663
-0.00932363
-0.00864833
-0.00755691
-0.00676707
-0.00611701
-0.00610427
-0.00676986
-0.00808834
-0.0100765
-0.0127796
-0.0161215
-0.0196012
-0.00563722
-0.00362195
-0.00178029
-0.000331959
0.000722937
0.000595249
-0.000553354
-0.00270608
-0.00585492
-0.00986882
-0.0143739
-0.0186257
-0.0540715
-0.05344
-0.0525511
-0.0515274
-0.0502329
-0.0482185
-0.0459224
-0.0442681
-0.0438878
-0.0445325
-0.0452555
-0.0454918
-0.0475428
-0.04633
-0.0452942
-0.0442543
-0.0428415
-0.0415794
-0.0405482
-0.0400471
-0.0404671
-0.0417475
-0.0430565
-0.0436049
-0.0444986
-0.0440748
-0.0435069
-0.0425833
-0.0413262
-0.0399083
-0.0387531
-0.0381011
-0.0381341
-0.0390468
-0.0407761
-0.0420978
-0.0428509
-0.0425398
-0.0416364
-0.0402131
-0.0386311
-0.037159
-0.0360164
-0.0353744
-0.0352299
-0.035564
-0.0370893
-0.0397167
-0.0412059
-0.0409958
-0.0398824
-0.0380917
-0.0360623
-0.034202
-0.0327905
-0.0319839
-0.0317521
-0.0318786
-0.0330309
-0.0366879
-0.0391935
-0.0391802
-0.0378593
-0.0356159
-0.033069
-0.0307717
-0.0290064
-0.0279039
-0.0274927
-0.027664
-0.0287421
-0.0326758
-0.0362395
-0.0364003
-0.0349478
-0.0324215
-0.029566
-0.0269735
-0.024881
-0.0234089
-0.0226377
-0.0226659
-0.023638
-0.0272789
-0.0321605
-0.0325146
-0.0311687
-0.0287363
-0.0258735
-0.0230901
-0.0206515
-0.0187248
-0.017429
-0.0169715
-0.0174565
-0.0204147
-0.0277378
-0.0283869
-0.0273906
-0.0251992
-0.0223609
-0.0193496
-0.0165019
-0.0140368
-0.0120857
-0.0108547
-0.0104882
-0.0123809
-0.0242137
-0.0251036
-0.0243764
-0.0222551
-0.0192376
-0.0158826
-0.0126003
-0.0095906
-0.00690551
-0.00468965
-0.00313205
-0.00358986
-0.0222431
-0.0230949
-0.0223754
-0.0199403
-0.0165152
-0.0127905
-0.00917403
-0.0057663
-0.00244933
0.000876399
0.00419447
0.00589103
-0.0215844
-0.0225494
-0.0210382
-0.0180003
-0.0141508
-0.0101869
-0.00644723
-0.00292921
0.000596867
0.00450189
0.00955283
0.0152185
-0.0524891
-0.0524479
-0.0526013
-0.0529448
-0.0532945
-0.0534859
-0.0535761
-0.0536533
-0.0538061
-0.0540766
-0.0543541
-0.0544412
-0.0493271
-0.0497398
-0.0503938
-0.0510174
-0.0513817
-0.0514413
-0.0510515
-0.0504673
-0.0499944
-0.0496824
-0.049314
-0.048675
-0.0473149
-0.048411
-0.0498629
-0.0510351
-0.0515564
-0.0512473
-0.0503329
-0.0491581
-0.0480984
-0.0471806
-0.046175
-0.0452242
-0.0444836
-0.0464794
-0.0485873
-0.050095
-0.0506844
-0.0503111
-0.0492116
-0.0478156
-0.0464473
-0.045114
-0.0438776
-0.0431492
-0.0410535
-0.0436641
-0.046112
-0.0478057
-0.0484883
-0.048156
-0.0471043
-0.0457872
-0.0443412
-0.042724
-0.0414202
-0.0410667
-0.0367994
-0.0394753
-0.0419642
-0.043743
-0.0445107
-0.0443788
-0.0436439
-0.0426316
-0.0412369
-0.0394785
-0.0383025
-0.0384868
-0.0317503
-0.0340349
-0.0362773
-0.0379112
-0.0387393
-0.0388533
-0.0385057
-0.0377963
-0.0364887
-0.0348239
-0.0340781
-0.0349544
-0.0261602
-0.0277813
-0.0294799
-0.0307154
-0.0314176
-0.031636
-0.0315252
-0.031034
-0.0299836
-0.0288352
-0.0288499
-0.0304262
-0.0204491
-0.0212776
-0.0221777
-0.0226867
-0.0230153
-0.0231525
-0.0231742
-0.0230137
-0.0226305
-0.0225074
-0.0235315
-0.0257119
-0.0148644
-0.0148845
-0.0146107
-0.0144728
-0.0143136
-0.0143277
-0.0145855
-0.0150583
-0.0157777
-0.0170372
-0.0191845
-0.021948
-0.00940615
-0.00873187
-0.00764586
-0.00685319
-0.00619886
-0.00618542
-0.0068537
-0.00817867
-0.0101764
-0.0128878
-0.0162305
-0.0197016
-0.00570533
-0.00369561
-0.00186236
-0.00042798
0.000631172
0.000501812
-0.000651024
-0.00281075
-0.00596818
-0.00998896
-0.014495
-0.0187393
-0.0541844
-0.0535512
-0.0526562
-0.0516228
-0.0503192
-0.0483011
-0.0460042
-0.0443496
-0.0439675
-0.0446091
-0.0453301
-0.0455663
-0.0476553
-0.0464397
-0.0453949
-0.0443449
-0.0429247
-0.0416569
-0.0406232
-0.0401215
-0.0405413
-0.0418207
-0.0431286
-0.0436774
-0.0446002
-0.0441665
-0.0435916
-0.042664
-0.0414051
-0.0399849
-0.0388274
-0.0381739
-0.0382065
-0.0391201
-0.0408499
-0.0421711
-0.0429406
-0.0426229
-0.0417178
-0.0402934
-0.0387097
-0.0372352
-0.0360902
-0.0354462
-0.0353008
-0.035636
-0.0371627
-0.039789
-0.0412827
-0.0410705
-0.0399581
-0.0381678
-0.0361375
-0.0342753
-0.0328619
-0.0320536
-0.0318211
-0.0319483
-0.0331021
-0.0367585
-0.0392557
-0.0392437
-0.0379265
-0.0356855
-0.0331391
-0.0308411
-0.0290745
-0.027971
-0.0275594
-0.0277316
-0.0288116
-0.0327446
-0.0362889
-0.0364526
-0.0350058
-0.032484
-0.0296311
-0.0270394
-0.0249464
-0.0234738
-0.0227025
-0.0227313
-0.0237059
-0.0273464
-0.0322048
-0.0325605
-0.0312205
-0.0287942
-0.0259354
-0.0231534
-0.020715
-0.018788
-0.0174922
-0.0170351
-0.0175221
-0.02048
-0.02779
-0.0284373
-0.0274444
-0.0252573
-0.0224217
-0.0194113
-0.0165636
-0.0140984
-0.0121476
-0.010917
-0.0105516
-0.0124406
-0.0242834
-0.0251662
-0.0244376
-0.0223159
-0.0192979
-0.0159426
-0.0126603
-0.00965096
-0.00696671
-0.00475195
-0.00319458
-0.00364559
-0.0223306
-0.0231706
-0.0224447
-0.0200039
-0.0165752
-0.012849
-0.00923249
-0.00582544
-0.00250986
0.000813541
0.00413063
0.00582985
-0.0216847
-0.0226383
-0.0211129
-0.0180656
-0.0142109
-0.0102448
-0.00650475
-0.00298729
0.000537523
0.00444008
0.00948919
0.0151483
0.00121668
0.00230646
0.0043376
0.00586603
0.00570783
0.00506254
0.0035008
0.000784317
-0.00315962
-0.00811411
-0.0134712
-0.0182171
0.00484459
0.00327448
0.00414444
0.00593997
0.00701338
0.00687861
0.00532209
0.00234621
-0.00194997
-0.00725367
-0.0128192
-0.0174922
0.00537504
0.00419248
0.0047842
0.0060919
0.00675443
0.00646544
0.00510449
0.00237844
-0.00174377
-0.00681352
-0.0119557
-0.0160053
0.00566568
0.00486544
0.00499252
0.00554754
0.00576684
0.00545374
0.00433954
0.00200278
-0.00160186
-0.00599648
-0.0103523
-0.0137611
-0.0211385
-0.0215601
-0.0195465
-0.0160708
-0.0120526
-0.00812168
-0.00450858
-0.0011551
0.00211516
0.00542426
0.0084263
0.00906847
-0.0199988
-0.0198784
-0.0175583
-0.0140231
-0.0101846
-0.0065551
-0.00326423
-0.000241194
0.00259864
0.00523392
0.0071996
0.0079588
-0.0177025
-0.0172888
-0.0152259
-0.0121123
-0.00870841
-0.00548318
-0.00256442
0.000105704
0.00256898
0.00474782
0.00631063
0.0068852
-0.0144065
-0.0138224
-0.0124651
-0.0103127
-0.00773615
-0.00505576
-0.00250563
-0.000131715
0.00206496
0.00400658
0.00545439
0.00612221
0.00114118
0.00223409
0.00425837
0.00578072
0.00561022
0.00495923
0.00339167
0.000668455
-0.00328256
-0.00824211
-0.0135993
-0.0183378
0.00476452
0.00319574
0.00406133
0.00585124
0.00691298
0.00677051
0.00520759
0.00222543
-0.00207636
-0.00738335
-0.012948
-0.0176151
0.00529072
0.00410993
0.0046983
0.00600035
0.0066542
0.00635803
0.00499063
0.00225868
-0.00186803
-0.00694007
-0.0120821
-0.0161295
0.00558107
0.00478199
0.00490676
0.00545813
0.00567135
0.00535191
0.00423146
0.00188877
-0.00172017
-0.00611749
-0.0104752
-0.0138949
-0.0212444
-0.0216519
-0.0196232
-0.0161371
-0.0121134
-0.00817994
-0.00456588
-0.00121251
0.00205698
0.0053643
0.00836657
0.00901086
-0.0201076
-0.0199698
-0.0176357
-0.0140909
-0.0102468
-0.00661439
-0.00332196
-0.000298389
0.00254117
0.00517569
0.00714085
0.00790075
-0.0178072
-0.0173792
-0.0153048
-0.0121821
-0.00877217
-0.00554342
-0.0026225
4.86757e-05
0.00251216
0.00469075
0.00625351
0.00683
-0.0145078
-0.013913
-0.0125469
-0.0103864
-0.00780297
-0.00511791
-0.00256436
-0.000188599
0.00200906
0.00395093
0.00539841
0.00606602
)
;

boundaryField
{
    rotor
    {
        type            zeroGradient;
    }
    stator
    {
        type            zeroGradient;
    }
    AMI1
    {
        type            cyclicAMI;
        value           nonuniform List<scalar> 
48
(
0.00550509
0.00501058
0.00507111
0.00537567
0.00542031
0.00504156
0.00394768
0.00166925
-0.00168643
-0.00563472
-0.00945923
-0.01237
-0.0129549
-0.0124726
-0.0112941
-0.00944716
-0.00719699
-0.0048008
-0.00244641
-0.00022006
0.0018413
0.0036559
0.00503163
0.00573371
0.00542251
0.00492708
0.0049848
0.00528603
0.00532551
0.00494111
0.00384147
0.00155745
-0.00180197
-0.00575262
-0.00957882
-0.012495
-0.013057
-0.0125637
-0.0113766
-0.00952212
-0.00726554
-0.00486462
-0.00250642
-0.000277826
0.00178473
0.00359971
0.00497503
0.00567604
)
;
    }
    AMI2
    {
        type            cyclicAMI;
        value           nonuniform 0();
    }
    front
    {
        type            empty;
    }
    back
    {
        type            empty;
    }
    procBoundary3to2
    {
        type            processor;
        value           nonuniform List<scalar> 8(0.0012802 0.00490151 0.00542925 0.00572078 0.00891288 0.00780974 0.00673996 0.00597223);
    }
}


// ************************************************************************* //
