/*--------------------------------*- C++ -*----------------------------------*\
| =========                 |                                                 |
| \\      /  F ield         | OpenFOAM: The Open Source CFD Toolbox           |
|  \\    /   O peration     | Version:  2.3.1                                 |
|   \\  /    A nd           | Web:      www.OpenFOAM.org                      |
|    \\/     M anipulation  |                                                 |
\*---------------------------------------------------------------------------*/
FoamFile
{
    version     2.0;
    format      ascii;
    class       surfaceScalarField;
    location    "0.7";
    object      phi;
}
// * * * * * * * * * * * * * * * * * * * * * * * * * * * * * * * * * * * * * //

dimensions      [0 3 -1 0 0 0 0];

internalField   nonuniform List<scalar> 
1460
(
6.63048e-08
-6.63048e-08
2.93176e-07
-2.26871e-07
5.3976e-07
-2.46584e-07
7.01455e-07
-1.61696e-07
7.2059e-07
-1.91349e-08
6.35693e-07
8.48974e-08
4.65598e-07
1.70095e-07
2.65391e-07
2.00207e-07
8.10956e-08
1.84295e-07
-1.26629e-07
2.07725e-07
-4.55959e-07
3.2933e-07
5.19103e-07
-9.75063e-07
1.95379e-07
-2.61683e-07
5.17509e-07
-5.49001e-07
7.84232e-07
-5.13307e-07
9.13481e-07
-2.90944e-07
9.10884e-07
-1.65378e-08
7.01793e-07
2.93988e-07
3.55262e-07
5.16626e-07
-7.21122e-08
6.27581e-07
-5.30451e-07
6.42634e-07
-1.14012e-06
8.17399e-07
-2.0284e-06
1.21761e-06
1.58453e-06
-3.09383e-06
3.26308e-07
-5.87991e-07
7.0472e-07
-9.27413e-07
9.45819e-07
-7.54407e-07
1.00705e-06
-3.52172e-07
8.45868e-07
1.44641e-07
5.35076e-07
6.0478e-07
1.18873e-07
9.32829e-07
-3.59715e-07
1.10617e-06
-9.81051e-07
1.26397e-06
-1.87409e-06
1.71044e-06
-2.96236e-06
2.30587e-06
2.61403e-06
-3.99186e-06
3.25978e-07
-9.13969e-07
5.97062e-07
-1.1985e-06
7.11307e-07
-8.68652e-07
6.85678e-07
-3.26543e-07
5.40203e-07
2.90116e-07
2.78094e-07
8.66889e-07
-7.61044e-08
1.28703e-06
-5.36325e-07
1.56639e-06
-1.23797e-06
1.96561e-06
-2.20639e-06
2.67886e-06
-3.23305e-06
3.33253e-06
3.42528e-06
-4.0443e-06
2.33921e-07
-1.14789e-06
3.27817e-07
-1.29239e-06
3.33825e-07
-8.7466e-07
2.56543e-07
-2.49261e-07
1.3779e-07
4.08869e-07
-2.9778e-08
1.03446e-06
-2.75355e-07
1.5326e-06
-6.93075e-07
1.98411e-06
-1.38413e-06
2.65667e-06
-2.25291e-06
3.54764e-06
-3.05854e-06
4.13816e-06
3.95409e-06
-3.58736e-06
6.07636e-08
-1.20865e-06
-1.55294e-08
-1.2161e-06
-9.7851e-08
-7.92338e-07
-1.83225e-07
-1.63887e-07
-2.62333e-07
4.87977e-07
-3.53487e-07
1.12561e-06
-5.24968e-07
1.70409e-06
-8.90801e-07
2.34994e-06
-1.46675e-06
3.23262e-06
-2.0937e-06
4.17458e-06
-2.57564e-06
4.6201e-06
4.17224e-06
-2.79379e-06
-1.24927e-07
-1.08373e-06
-3.38405e-07
-1.00262e-06
-4.94661e-07
-6.36082e-07
-5.77679e-07
-8.08698e-08
-6.33451e-07
5.4375e-07
-6.92527e-07
1.18469e-06
-8.30356e-07
1.84192e-06
-1.10941e-06
2.629e-06
-1.47055e-06
3.59375e-06
-1.76082e-06
4.46486e-06
-1.86674e-06
4.72603e-06
4.07052e-06
-1.76502e-06
-2.52085e-07
-8.31642e-07
-5.66077e-07
-6.88631e-07
-7.73974e-07
-4.28185e-07
-8.70404e-07
1.55604e-08
-9.22687e-07
5.96032e-07
-9.78708e-07
1.24071e-06
-1.08411e-06
1.94731e-06
-1.23236e-06
2.77725e-06
-1.33083e-06
3.69222e-06
-1.26989e-06
4.40393e-06
-1.02019e-06
4.47632e-06
3.68572e-06
-6.35386e-07
-2.85477e-07
-5.46164e-07
-6.36095e-07
-3.38013e-07
-8.55475e-07
-2.08805e-07
-9.53924e-07
1.1401e-07
-9.99152e-07
6.4126e-07
-1.04378e-06
1.28534e-06
-1.0981e-06
2.00163e-06
-1.10924e-06
2.7884e-06
-9.81852e-07
3.56483e-06
-6.53693e-07
4.07577e-06
-1.60945e-07
3.98357e-06
3.14724e-06
3.7753e-07
-2.2309e-07
-3.23074e-07
-5.00523e-07
-6.05798e-08
-6.55248e-07
-5.40803e-08
-7.15599e-07
1.7436e-07
-7.2706e-07
6.52722e-07
-7.40398e-07
1.29867e-06
-7.42866e-07
2.0041e-06
-6.63793e-07
2.70932e-06
-4.20474e-07
3.32151e-06
1.37004e-08
3.64159e-06
5.6077e-07
3.4365e-06
2.64286e-06
1.06515e-06
6.79156e-09
-3.29866e-07
-1.0662e-07
5.28322e-08
-1.16249e-07
-4.44517e-08
-7.41422e-08
1.32254e-07
-3.14652e-08
6.10045e-07
-1.88257e-08
1.28603e-06
2.54271e-09
1.98273e-06
9.86855e-08
2.61318e-06
3.35569e-07
3.08463e-06
7.21921e-07
3.25524e-06
1.1783e-06
2.98012e-06
2.23426e-06
1.5869e-06
-2.35883e-08
-3.06277e-07
2.18217e-07
-1.88974e-07
5.77135e-07
-4.03369e-07
8.97222e-07
-1.87833e-07
1.11007e-06
3.97192e-07
1.17374e-06
1.22237e-06
1.19566e-06
1.96081e-06
1.26697e-06
2.54188e-06
1.44882e-06
2.90278e-06
1.75374e-06
2.95032e-06
2.14199e-06
2.59187e-06
2.56809e-06
1.80816e-06
-1.67795e-06
7.02891e-07
-2.4422e-06
7.64241e-07
-3.06875e-06
6.26551e-07
-3.40259e-06
3.33844e-07
-3.41065e-06
8.05512e-09
-3.06677e-06
-3.43874e-07
-2.43512e-06
-6.31647e-07
-1.61994e-06
-8.15187e-07
-7.72312e-07
-8.47625e-07
-1.17699e-07
-6.54613e-07
1.12198e-07
-2.29897e-07
1.12198e-07
-4.06591e-06
1.67497e-06
-4.72406e-06
1.42239e-06
-5.01367e-06
9.16168e-07
-4.99453e-06
3.14704e-07
-4.7119e-06
-2.7458e-07
-4.28376e-06
-7.72009e-07
-3.69353e-06
-1.22188e-06
-2.92349e-06
-1.58523e-06
-1.98245e-06
-1.78867e-06
-9.71159e-07
-1.6659e-06
-1.818e-07
-1.01926e-06
-6.9602e-08
-4.72073e-06
2.40385e-06
-5.06249e-06
1.76414e-06
-5.08277e-06
9.36456e-07
-4.89107e-06
1.22995e-07
-4.58354e-06
-5.82106e-07
-4.19523e-06
-1.16031e-06
-3.7707e-06
-1.64641e-06
-3.27759e-06
-2.07834e-06
-2.61743e-06
-2.44882e-06
-1.67901e-06
-2.60433e-06
-5.6671e-07
-2.13156e-06
-6.36312e-07
-4.47832e-06
2.83787e-06
-4.5364e-06
1.82222e-06
-4.32482e-06
7.24874e-07
-3.96906e-06
-2.32765e-07
-3.57958e-06
-9.7158e-07
-3.20874e-06
-1.53116e-06
-2.8914e-06
-1.96375e-06
-2.62921e-06
-2.34053e-06
-2.349e-06
-2.72904e-06
-1.8506e-06
-3.10272e-06
-9.22314e-07
-3.05984e-06
-1.55863e-06
-3.75986e-06
3.01037e-06
-3.63323e-06
1.69559e-06
-3.32739e-06
4.19038e-07
-2.95351e-06
-6.06642e-07
-2.57906e-06
-1.34603e-06
-2.2477e-06
-1.86252e-06
-1.97614e-06
-2.23531e-06
-1.77375e-06
-2.54292e-06
-1.64223e-06
-2.86056e-06
-1.48796e-06
-3.25699e-06
-9.63714e-07
-3.58409e-06
-2.52234e-06
-2.7403e-06
2.95689e-06
-2.4896e-06
1.44489e-06
-2.14561e-06
7.50542e-08
-1.80278e-06
-9.49472e-07
-1.5258e-06
-1.62302e-06
-1.32431e-06
-2.06401e-06
-1.17712e-06
-2.3825e-06
-1.06296e-06
-2.65708e-06
-9.79246e-07
-2.94427e-06
-9.39923e-07
-3.29631e-06
-7.50837e-07
-3.77318e-06
-3.27318e-06
-1.50036e-06
2.69223e-06
-1.14087e-06
1.0854e-06
-8.34484e-07
-2.31335e-07
-6.03727e-07
-1.18023e-06
-4.76657e-07
-1.75009e-06
-4.14727e-07
-2.12594e-06
-3.90784e-07
-2.40644e-06
-3.89037e-07
-2.65883e-06
-3.95969e-07
-2.93734e-06
-4.201e-07
-3.27218e-06
-4.39054e-07
-3.75422e-06
-3.71223e-06
-2.08932e-07
2.26578e-06
1.39503e-07
7.36962e-07
3.49165e-07
-4.40997e-07
4.08319e-07
-1.23938e-06
4.16592e-07
-1.75836e-06
4.04187e-07
-2.11353e-06
3.71829e-07
-2.37408e-06
3.10107e-07
-2.59711e-06
2.14775e-07
-2.84201e-06
9.0731e-08
-3.14814e-06
-7.39669e-08
-3.58953e-06
-3.7862e-06
8.15591e-07
1.82772e-06
1.0475e-06
5.05058e-07
1.11744e-06
-5.10939e-07
1.14202e-06
-1.26397e-06
1.17852e-06
-1.79486e-06
1.2033e-06
-2.13831e-06
1.18071e-06
-2.35149e-06
1.08799e-06
-2.50438e-06
9.16546e-07
-2.67056e-06
6.63293e-07
-2.89488e-06
3.29583e-07
-3.25582e-06
-3.45662e-06
1.39099e-06
1.50188e-06
1.55598e-06
3.4007e-07
1.6967e-06
-6.51656e-07
1.87397e-06
-1.44124e-06
2.03983e-06
-1.96072e-06
2.13656e-06
-2.23503e-06
2.12845e-06
-2.34339e-06
1.99976e-06
-2.37569e-06
1.74349e-06
-2.41429e-06
1.35395e-06
-2.50534e-06
8.10328e-07
-2.7122e-06
-2.64629e-06
1.91153e-06
1.17724e-06
2.23641e-06
1.51873e-08
2.59519e-06
-1.01044e-06
2.92678e-06
-1.77283e-06
3.16256e-06
-2.1965e-06
3.26713e-06
-2.33961e-06
3.23062e-06
-2.30688e-06
3.05105e-06
-2.19612e-06
2.71188e-06
-2.07512e-06
2.17126e-06
-1.96472e-06
1.3872e-06
-1.92813e-06
-1.25909e-06
3.03865e-06
7.06682e-07
3.52907e-06
-4.75234e-07
3.9847e-06
-1.46607e-06
4.31573e-06
-2.10385e-06
4.49303e-06
-2.3738e-06
4.5191e-06
-2.36569e-06
4.41177e-06
-2.19954e-06
4.18658e-06
-1.97094e-06
3.83169e-06
-1.72023e-06
3.24695e-06
-1.37998e-06
2.16691e-06
-8.48092e-07
9.07819e-07
6.66295e-08
-6.66295e-08
2.93755e-07
-2.27125e-07
5.40384e-07
-2.46629e-07
7.01928e-07
-1.61544e-07
7.20838e-07
-1.89102e-08
6.35676e-07
8.51624e-08
4.65279e-07
1.70397e-07
2.6471e-07
2.00569e-07
7.99142e-08
1.84796e-07
-1.27991e-07
2.07905e-07
-4.56644e-07
3.28653e-07
5.17399e-07
-9.74043e-07
1.95629e-07
-2.62258e-07
5.17946e-07
-5.49442e-07
7.84606e-07
-5.13289e-07
9.13697e-07
-2.90635e-07
9.10738e-07
-1.59514e-08
7.01501e-07
2.94399e-07
3.54898e-07
5.17e-07
-7.25244e-08
6.27991e-07
-5.30488e-07
6.42759e-07
-1.13812e-06
8.15539e-07
-2.02299e-06
1.21352e-06
1.58014e-06
-3.08574e-06
3.26562e-07
-5.8882e-07
7.04789e-07
-9.27669e-07
9.45469e-07
-7.53969e-07
1.00622e-06
-3.51382e-07
8.44801e-07
1.45463e-07
5.33986e-07
6.05215e-07
1.18206e-07
9.3278e-07
-3.59615e-07
1.10581e-06
-9.79166e-07
1.26231e-06
-1.86933e-06
1.7057e-06
-2.95536e-06
2.29956e-06
2.60961e-06
-3.98483e-06
3.25943e-07
-9.14762e-07
5.96468e-07
-1.1982e-06
7.10073e-07
-8.67574e-07
6.83878e-07
-3.25186e-07
5.38011e-07
2.91331e-07
2.75887e-07
8.67339e-07
-7.77292e-08
1.2864e-06
-5.36784e-07
1.56487e-06
-1.2364e-06
1.96193e-06
-2.20273e-06
2.67203e-06
-3.22872e-06
3.32555e-06
3.42212e-06
-4.04123e-06
2.33535e-07
-1.1483e-06
3.26661e-07
-1.29132e-06
3.31911e-07
-8.72823e-07
2.53805e-07
-2.4708e-07
1.3442e-07
4.10716e-07
-3.34337e-08
1.03519e-06
-2.78808e-07
1.53177e-06
-6.95672e-07
1.98173e-06
-1.38529e-06
2.65155e-06
-2.25283e-06
3.53957e-06
-3.05818e-06
4.1309e-06
3.95151e-06
-3.58758e-06
6.00605e-08
-1.20836e-06
-1.70513e-08
-1.21421e-06
-1.00199e-07
-7.89675e-07
-1.86673e-07
-1.60606e-07
-2.66739e-07
4.90782e-07
-3.58765e-07
1.12722e-06
-5.30801e-07
1.70381e-06
-8.96476e-07
2.34741e-06
-1.47161e-06
3.22668e-06
-2.0976e-06
4.16556e-06
-2.57865e-06
4.61195e-06
4.16866e-06
-2.7958e-06
-1.25716e-07
-1.08264e-06
-3.39958e-07
-9.99967e-07
-4.97172e-07
-6.32461e-07
-5.8102e-07
-7.67576e-08
-6.38181e-07
5.47943e-07
-6.98739e-07
1.18778e-06
-8.37825e-07
1.84289e-06
-1.11733e-06
2.62691e-06
-1.47807e-06
3.58742e-06
-1.76741e-06
4.4549e-06
-1.87173e-06
4.71627e-06
4.06464e-06
-1.76771e-06
-2.52708e-07
-8.29933e-07
-5.67265e-07
-6.8541e-07
-7.75468e-07
-4.24258e-07
-8.72848e-07
2.06227e-08
-9.26427e-07
6.01522e-07
-9.84006e-07
1.24536e-06
-1.09088e-06
1.94976e-06
-1.23995e-06
2.77599e-06
-1.33852e-06
3.68599e-06
-1.27701e-06
4.39339e-06
-1.02574e-06
4.46501e-06
3.67744e-06
-6.38539e-07
-2.8547e-07
-5.44464e-07
-6.36713e-07
-3.34166e-07
-8.55511e-07
-2.0546e-07
-9.54761e-07
1.19873e-07
-1.00065e-06
6.47411e-07
-1.04624e-06
1.29095e-06
-1.1017e-06
2.00522e-06
-1.11386e-06
2.78815e-06
-9.87262e-07
3.55939e-06
-6.59529e-07
4.06565e-06
-1.66416e-07
3.9719e-06
3.13784e-06
3.73184e-07
-2.22411e-07
-3.22052e-07
-4.99203e-07
-5.73738e-08
-6.54853e-07
-4.98105e-08
-7.14814e-07
1.79834e-07
-7.26087e-07
6.58685e-07
-7.39519e-07
1.30438e-06
-7.42508e-07
2.00821e-06
-6.6447e-07
2.71011e-06
-4.22663e-07
3.31758e-06
9.63758e-09
3.63335e-06
5.55208e-07
3.42633e-06
2.63424e-06
1.05881e-06
8.27846e-09
-3.30331e-07
-1.04533e-07
5.54374e-08
-1.14295e-07
-4.00478e-08
-7.17924e-08
1.37331e-07
-2.86176e-08
6.1551e-07
-1.54577e-08
1.29122e-06
6.07278e-09
1.98668e-06
1.01514e-07
2.61467e-06
3.36582e-07
3.08251e-06
7.20357e-07
3.24958e-06
1.17418e-06
2.9725e-06
2.22672e-06
1.5817e-06
-2.42337e-08
-3.06097e-07
2.18755e-07
-1.87551e-07
5.7844e-07
-3.99733e-07
8.99917e-07
-1.84146e-07
1.11382e-06
4.0161e-07
1.1786e-06
1.22644e-06
1.20135e-06
1.96393e-06
1.27271e-06
2.54331e-06
1.45348e-06
2.90174e-06
1.75645e-06
2.9466e-06
2.14284e-06
2.58611e-06
2.56834e-06
1.80122e-06
-1.67445e-06
7.00409e-07
-2.4366e-06
7.62151e-07
-3.06239e-06
6.25787e-07
-3.39662e-06
3.34232e-07
-3.40547e-06
8.85225e-09
-3.06279e-06
-3.42682e-07
-2.43221e-06
-6.30578e-07
-1.61812e-06
-8.14097e-07
-7.71615e-07
-8.46502e-07
-1.1794e-07
-6.53675e-07
1.11713e-07
-2.29653e-07
1.11713e-07
-4.05749e-06
1.67216e-06
-4.71718e-06
1.42185e-06
-5.00877e-06
9.17371e-07
-4.99115e-06
3.16615e-07
-4.70935e-06
-2.7295e-07
-4.28146e-06
-7.70573e-07
-3.69139e-06
-1.22065e-06
-2.92145e-06
-1.58403e-06
-1.98064e-06
-1.78731e-06
-9.69892e-07
-1.66442e-06
-1.81409e-07
-1.01814e-06
-6.96953e-08
-4.71582e-06
2.40316e-06
-5.06035e-06
1.76637e-06
-5.08267e-06
9.39688e-07
-4.89188e-06
1.25827e-07
-4.58464e-06
-5.80192e-07
-4.19607e-06
-1.15914e-06
-3.77102e-06
-1.6457e-06
-3.27734e-06
-2.07771e-06
-2.61671e-06
-2.44794e-06
-1.67808e-06
-2.60306e-06
-5.6601e-07
-2.1302e-06
-6.35705e-07
-4.47745e-06
2.83937e-06
-4.53719e-06
1.82612e-06
-4.32612e-06
7.28611e-07
-3.97003e-06
-2.30256e-07
-3.5801e-06
-9.70124e-07
-3.20884e-06
-1.5304e-06
-2.89116e-06
-1.96338e-06
-2.62872e-06
-2.34015e-06
-2.34838e-06
-2.72828e-06
-1.84999e-06
-3.10145e-06
-9.21889e-07
-3.0583e-06
-1.55759e-06
-3.76058e-06
3.01237e-06
-3.6336e-06
1.69914e-06
-3.32677e-06
4.21779e-07
-2.95204e-06
-6.04993e-07
-2.57713e-06
-1.34503e-06
-2.24554e-06
-1.86199e-06
-1.97395e-06
-2.23497e-06
-1.77169e-06
-2.5424e-06
-1.64048e-06
-2.8595e-06
-1.48679e-06
-3.25514e-06
-9.63304e-07
-3.58179e-06
-2.5209e-06
-2.7409e-06
2.95748e-06
-2.48853e-06
1.44677e-06
-2.14324e-06
7.64977e-08
-1.79973e-06
-9.48503e-07
-1.52252e-06
-1.62224e-06
-1.32106e-06
-2.06345e-06
-1.17407e-06
-2.38197e-06
-1.0602e-06
-2.65627e-06
-9.76856e-07
-2.94284e-06
-9.3805e-07
-3.29395e-06
-7.49969e-07
-3.76987e-06
-3.27087e-06
-1.50046e-06
2.69022e-06
-1.1388e-06
1.08511e-06
-8.31337e-07
-2.3096e-07
-6.00295e-07
-1.17955e-06
-4.73204e-07
-1.74933e-06
-4.11409e-07
-2.12525e-06
-3.87736e-07
-2.40564e-06
-3.86373e-07
-2.65763e-06
-3.93753e-07
-2.93546e-06
-4.18288e-07
-3.26942e-06
-4.37971e-07
-3.75018e-06
-3.70884e-06
-2.09512e-07
2.2612e-06
1.40572e-07
7.35024e-07
3.50888e-07
-4.41276e-07
4.10293e-07
-1.23895e-06
4.18865e-07
-1.75791e-06
4.06627e-07
-2.11301e-06
3.74211e-07
-2.37322e-06
3.12238e-07
-2.59566e-06
2.16523e-07
-2.83975e-06
9.20222e-08
-3.14491e-06
-7.30976e-08
-3.58506e-06
-3.78194e-06
8.12493e-07
1.82189e-06
1.04503e-06
5.02484e-07
1.11585e-06
-5.1209e-07
1.14172e-06
-1.26482e-06
1.17928e-06
-1.79547e-06
1.20464e-06
-2.13836e-06
1.1822e-06
-2.35079e-06
1.08935e-06
-2.50281e-06
9.17655e-07
-2.66805e-06
6.64044e-07
-2.8913e-06
3.30094e-07
-3.25111e-06
-3.45184e-06
1.38501e-06
1.49568e-06
1.55101e-06
3.3649e-07
1.69408e-06
-6.55167e-07
1.87322e-06
-1.44396e-06
2.04014e-06
-1.96239e-06
2.13729e-06
-2.23551e-06
2.12923e-06
-2.34273e-06
2.00042e-06
-2.374e-06
1.74403e-06
-2.41166e-06
1.35439e-06
-2.50167e-06
8.10704e-07
-2.70743e-06
-2.64114e-06
1.90671e-06
1.17067e-06
2.23407e-06
9.13128e-09
2.59442e-06
-1.01552e-06
2.92687e-06
-1.7764e-06
3.1629e-06
-2.19843e-06
3.26743e-06
-2.34004e-06
3.23076e-06
-2.30605e-06
3.05102e-06
-2.19426e-06
2.71179e-06
-2.07243e-06
2.17132e-06
-1.96119e-06
1.3875e-06
-1.92361e-06
-1.25363e-06
3.03896e-06
7.00047e-07
3.52995e-06
-4.81851e-07
3.98551e-06
-1.47109e-06
4.31623e-06
-2.10712e-06
4.49317e-06
-2.37537e-06
4.51891e-06
-2.36578e-06
4.41132e-06
-2.19845e-06
4.18597e-06
-1.96892e-06
3.83103e-06
-1.71749e-06
3.24635e-06
-1.37651e-06
2.16696e-06
-8.44219e-07
9.13327e-07
4.47679e-06
2.4013e-07
-5.0232e-06
4.13732e-06
1.50491e-07
3.54493e-06
1.89029e-07
2.98539e-06
3.71702e-07
2.68834e-06
6.94237e-07
2.68003e-06
1.23068e-06
2.772e-06
1.86884e-06
2.90239e-06
2.41149e-06
3.10048e-06
2.70469e-06
3.40164e-06
2.64916e-06
3.80827e-06
2.18525e-06
1.32257e-06
4.29386e-06
6.09621e-06
1.42503e-07
-5.99858e-06
6.07157e-06
1.75137e-07
5.85422e-06
4.06375e-07
5.44824e-06
7.77682e-07
4.99031e-06
1.15217e-06
4.69659e-06
1.5244e-06
4.65071e-06
1.91472e-06
4.80212e-06
2.26007e-06
5.08246e-06
2.42435e-06
5.46e-06
2.27161e-06
5.91245e-06
1.73279e-06
8.45476e-07
6.38955e-06
6.92879e-06
4.00535e-08
-6.82634e-06
6.96152e-06
1.42404e-07
6.99261e-06
3.75284e-07
6.99675e-06
7.73541e-07
6.92395e-06
1.22497e-06
6.819e-06
1.62935e-06
6.78963e-06
1.94409e-06
6.91151e-06
2.13819e-06
7.18959e-06
2.14627e-06
7.57822e-06
1.88298e-06
8.00446e-06
1.30656e-06
4.8248e-07
8.36745e-06
7.70734e-06
-7.63824e-06
7.72922e-06
7.76979e-06
7.85964e-06
7.99914e-06
8.17928e-06
8.39794e-06
8.66802e-06
8.99922e-06
9.37623e-06
9.70572e-06
9.84404e-06
4.8206e-06
1.79941e-07
5.30583e-06
-9.60464e-07
5.66087e-06
-1.82111e-06
5.84406e-06
-2.28704e-06
5.86488e-06
-2.39462e-06
5.75784e-06
-2.25865e-06
5.55958e-06
-2.00128e-06
5.29599e-06
-1.70734e-06
4.98066e-06
-1.4049e-06
4.65007e-06
-1.0494e-06
4.42508e-06
-6.23102e-07
3.09366e-07
6.83518e-06
-2.65689e-07
7.15572e-06
-1.28101e-06
7.29442e-06
-1.95981e-06
7.25775e-06
-2.25037e-06
7.09264e-06
-2.22951e-06
6.85399e-06
-2.02e-06
6.58323e-06
-1.73052e-06
6.30432e-06
-1.42843e-06
6.03504e-06
-1.13562e-06
5.81407e-06
-8.28421e-07
5.69071e-06
-4.99744e-07
2.51849e-09
8.63305e-06
-5.31286e-07
8.71751e-06
-1.36547e-06
8.61461e-06
-1.85691e-06
8.37414e-06
-2.0099e-06
8.06485e-06
-1.92022e-06
7.74527e-06
-1.70041e-06
7.44775e-06
-1.433e-06
7.18392e-06
-1.1646e-06
6.95904e-06
-9.10742e-07
6.79134e-06
-6.60719e-07
6.7017e-06
-4.10107e-07
-1.21422e-07
9.88943e-06
9.7659e-06
9.5083e-06
9.16674e-06
8.80388e-06
8.47208e-06
8.19345e-06
7.96883e-06
7.7919e-06
7.66441e-06
7.59579e-06
4.47465e-06
2.3907e-07
4.13573e-06
1.51369e-07
3.54462e-06
1.91371e-07
2.98617e-06
3.743e-07
2.69098e-06
6.96802e-07
2.68446e-06
1.23296e-06
2.77802e-06
1.87036e-06
2.90946e-06
2.41187e-06
3.10769e-06
2.70352e-06
3.40813e-06
2.64616e-06
3.81359e-06
2.18065e-06
1.31683e-06
4.29798e-06
6.09447e-06
1.40525e-07
6.0704e-06
1.75443e-07
5.85395e-06
4.07813e-07
5.44909e-06
7.7917e-07
4.99254e-06
1.15335e-06
4.70027e-06
1.52524e-06
4.65572e-06
1.91491e-06
4.80825e-06
2.25934e-06
5.08921e-06
2.42256e-06
5.46664e-06
2.26874e-06
5.9184e-06
1.72889e-06
8.41067e-07
6.39416e-06
6.92845e-06
3.75981e-08
6.96136e-06
1.42534e-07
6.99273e-06
3.76448e-07
6.99738e-06
7.74514e-07
6.92549e-06
1.22524e-06
6.82176e-06
1.62897e-06
6.79354e-06
1.94313e-06
6.91623e-06
2.13665e-06
7.1947e-06
2.14409e-06
7.58324e-06
1.88019e-06
8.00881e-06
1.30332e-06
4.7932e-07
8.37056e-06
7.70794e-06
7.72952e-06
7.77011e-06
7.86017e-06
8.00009e-06
8.18096e-06
8.40049e-06
8.67118e-06
9.00267e-06
9.37955e-06
9.70856e-06
9.84541e-06
4.8241e-06
1.73935e-07
5.30812e-06
-9.65872e-07
5.66213e-06
-1.8251e-06
5.84446e-06
-2.28945e-06
5.86465e-06
-2.39556e-06
5.7572e-06
-2.25833e-06
5.55869e-06
-1.99995e-06
5.295e-06
-1.70523e-06
4.97969e-06
-1.40217e-06
4.64935e-06
-1.04617e-06
4.42438e-06
-6.19253e-07
3.14512e-07
6.83847e-06
-2.70376e-07
7.15764e-06
-1.28504e-06
7.2952e-06
-1.96266e-06
7.25768e-06
-2.25193e-06
7.09199e-06
-2.22987e-06
6.85301e-06
-2.01935e-06
6.5821e-06
-1.72904e-06
6.30316e-06
-1.42629e-06
6.034e-06
-1.13301e-06
5.81328e-06
-8.25452e-07
5.69057e-06
-4.96541e-07
6.49899e-09
8.6351e-06
-5.34919e-07
8.71852e-06
-1.36845e-06
8.61475e-06
-1.8589e-06
8.37363e-06
-2.01081e-06
8.06394e-06
-1.92018e-06
7.74414e-06
-1.69955e-06
7.44657e-06
-1.43147e-06
7.18279e-06
-1.16251e-06
6.95807e-06
-9.0829e-07
6.79066e-06
-6.58047e-07
6.70142e-06
-4.07299e-07
-1.18416e-07
9.89035e-06
9.7662e-06
9.50809e-06
9.16605e-06
8.80287e-06
8.4709e-06
8.19226e-06
7.96772e-06
7.79098e-06
7.66379e-06
7.5957e-06
)
;

boundaryField
{
    rotor
    {
        type            calculated;
        value           nonuniform List<scalar> 
96
(
4.41064e-23
-4.6132e-23
5.01486e-24
-1.8088e-22
9.05141e-23
4.87767e-23
1.42576e-22
3.88153e-24
-7.57807e-23
3.09282e-23
-9.42003e-23
2.88431e-23
-6.41907e-23
-6.94293e-23
-2.01838e-24
-5.27764e-23
-3.40057e-23
1.1099e-23
9.25742e-25
-8.18333e-25
-2.65108e-23
-5.68879e-23
4.86743e-23
-7.47034e-23
-1.27281e-22
4.86561e-23
3.11498e-23
1.0889e-23
6.80962e-23
-2.67172e-23
1.35035e-22
1.10778e-22
-1.11126e-22
4.03841e-23
6.85055e-23
1.45112e-22
-1.74099e-23
1.24813e-22
3.14514e-24
1.2468e-23
1.5179e-24
7.25847e-25
1.22379e-23
-5.04535e-24
1.46067e-23
6.36526e-23
-3.48831e-23
-3.23086e-23
4.23516e-22
-4.23516e-22
-8.47033e-22
-8.47033e-22
0
8.47033e-22
-8.47033e-22
0
8.47033e-22
0
8.47033e-22
-1.69407e-21
0
4.23516e-22
8.47033e-22
0
8.47033e-22
8.47033e-22
8.47033e-22
0
0
0
-8.47033e-22
0
-4.23516e-22
0
8.47033e-22
0
-8.47033e-22
8.47033e-22
0
0
0
0
-1.69407e-21
0
0
0
8.47033e-22
8.47033e-22
8.47033e-22
8.47033e-22
8.47033e-22
0
0
8.47033e-22
-8.47033e-22
0
)
;
    }
    stator
    {
        type            calculated;
        value           nonuniform 0();
    }
    AMI1
    {
        type            cyclicAMI;
        value           nonuniform List<scalar> 
48
(
-2.90465e-08
1.20527e-07
3.34714e-07
6.83687e-07
1.08547e-06
1.44921e-06
1.72542e-06
1.86811e-06
1.81507e-06
1.50597e-06
9.7707e-07
3.4416e-07
-5.76671e-07
-1.24194e-06
-1.59931e-06
-1.66834e-06
-1.55736e-06
-1.36862e-06
-1.15437e-06
-9.39981e-07
-7.33809e-07
-5.3323e-07
-3.41487e-07
-1.63016e-07
-3.1248e-08
1.20957e-07
3.35856e-07
6.84457e-07
1.08532e-06
1.4481e-06
1.7236e-06
1.86596e-06
1.81261e-06
1.5033e-06
9.7432e-07
3.42469e-07
-5.79863e-07
-1.2443e-06
-1.60079e-06
-1.66878e-06
-1.557e-06
-1.36758e-06
-1.15282e-06
-9.37981e-07
-7.31543e-07
-5.30864e-07
-3.39207e-07
-1.60953e-07
)
;
    }
    AMI2
    {
        type            cyclicAMI;
        value           nonuniform 0();
    }
    front
    {
        type            empty;
        value           nonuniform 0();
    }
    back
    {
        type            empty;
        value           nonuniform 0();
    }
    procBoundary3to2
    {
        type            processor;
        value           nonuniform List<scalar> 8(5.02353e-06 5.99756e-06 6.82564e-06 7.63739e-06 -5.01981e-06 -5.99593e-06 -6.82553e-06 -7.6391e-06);
    }
}


// ************************************************************************* //
