/*--------------------------------*- C++ -*----------------------------------*\
| =========                 |                                                 |
| \\      /  F ield         | OpenFOAM: The Open Source CFD Toolbox           |
|  \\    /   O peration     | Version:  2.3.1                                 |
|   \\  /    A nd           | Web:      www.OpenFOAM.org                      |
|    \\/     M anipulation  |                                                 |
\*---------------------------------------------------------------------------*/
FoamFile
{
    version     2.0;
    format      ascii;
    class       surfaceVectorField;
    location    "0.7";
    object      Uf;
}
// * * * * * * * * * * * * * * * * * * * * * * * * * * * * * * * * * * * * * //

dimensions      [0 1 -1 0 0 0 0];

internalField   nonuniform List<vector> 
1460
(
(0.119154 -0.054472 6.00893e-20)
(0.133015 -0.0432952 1.2668e-20)
(0.108094 -0.0562532 0)
(0.126353 -0.0384483 1.96221e-19)
(0.0957912 -0.058002 -2.34011e-19)
(0.114412 -0.0403812 -1.92059e-19)
(0.0849296 -0.0628357 -3.83607e-21)
(0.101213 -0.0482856 -2.38362e-19)
(0.0774901 -0.0711923 -1.81761e-21)
(0.0893178 -0.0606656 3.37451e-19)
(0.0730591 -0.080879 3.25148e-21)
(0.0823958 -0.0732137 5.60155e-20)
(0.0716477 -0.0910928 1.20096e-19)
(0.0793422 -0.0880222 4.26085e-20)
(0.0711159 -0.101336 -2.35763e-19)
(0.0803421 -0.103178 8.68362e-23)
(0.0694434 -0.111131 -1.18721e-19)
(0.0830729 -0.117985 9.77522e-20)
(0.0674004 -0.121824 3.61293e-19)
(0.0820901 -0.135232 -4.63059e-19)
(0.0645857 -0.138148 1.88974e-19)
(0.0765491 -0.161066 5.12586e-19)
(0.0682908 -0.196842 -1.03281e-19)
(0.0567158 -0.164716 -1.23755e-19)
(0.139551 -0.0318013 1.5048e-19)
(0.151631 -0.0378044 -9.77673e-20)
(0.129055 -0.0279476 9.02762e-21)
(0.142524 -0.0257114 1.98862e-19)
(0.115553 -0.0348466 -1.95698e-19)
(0.127702 -0.0307888 -3.09838e-20)
(0.102819 -0.0485556 1.01351e-19)
(0.111871 -0.0467749 -8.73823e-20)
(0.0918231 -0.0655276 4.02809e-19)
(0.0982039 -0.0672106 -1.6492e-19)
(0.0856185 -0.0862876 9.47101e-20)
(0.0864995 -0.092114 4.06485e-19)
(0.0836863 -0.107569 -9.77636e-20)
(0.0802929 -0.115999 -2.06098e-19)
(0.0861405 -0.12711 3.10164e-19)
(0.0796514 -0.138189 1.06699e-19)
(0.0875577 -0.148001 -2.63517e-19)
(0.083125 -0.159577 4.42738e-19)
(0.0814944 -0.180388 -3.05908e-19)
(0.0786353 -0.191 -5.6154e-19)
(0.0690713 -0.226944 2.45923e-19)
(0.064165 -0.238281 1.7288e-19)
(0.0496655 -0.290628 1.98929e-19)
(0.0574021 -0.277113 1.82127e-19)
(0.153503 -0.0250839 -6.0717e-20)
(0.173259 -0.0278876 -4.49264e-20)
(0.141291 -0.0213846 1.57866e-19)
(0.162252 -0.0147183 1.4518e-19)
(0.125296 -0.0363658 8.19752e-20)
(0.146546 -0.0286711 -5.17131e-20)
(0.108609 -0.0616072 -3.65313e-19)
(0.129264 -0.0551914 -1.03912e-20)
(0.0957224 -0.0909042 -1.81865e-19)
(0.110666 -0.0869253 -3.62212e-19)
(0.087264 -0.118815 9.13859e-20)
(0.0949382 -0.118871 2.53232e-19)
(0.0831994 -0.14413 0)
(0.0848048 -0.147536 -1.59061e-19)
(0.0820023 -0.167453 2.48198e-19)
(0.079995 -0.171886 1.46422e-19)
(0.0774593 -0.198914 1.75756e-19)
(0.0764561 -0.199699 3.88091e-19)
(0.0639151 -0.247153 -7.93126e-20)
(0.0621311 -0.244611 -2.02366e-19)
(0.0467502 -0.30197 1.1505e-19)
(0.0405908 -0.301072 -4.35516e-21)
(0.026323 -0.348534 7.06454e-20)
(0.0367591 -0.345576 1.36671e-21)
(0.17492 -0.0138231 1.52054e-19)
(0.19587 -0.0213001 0)
(0.164781 -0.0186233 -6.71411e-20)
(0.184867 -0.0142257 1.54171e-19)
(0.149326 -0.0448012 -1.45274e-19)
(0.171144 -0.0387882 -1.63815e-19)
(0.131399 -0.0789545 5.25951e-22)
(0.153544 -0.0732823 8.4512e-20)
(0.112596 -0.114994 8.01073e-20)
(0.13209 -0.110072 -9.52461e-21)
(0.0964526 -0.148069 -5.30473e-21)
(0.110587 -0.144879 1.65201e-19)
(0.0855103 -0.175444 -1.2834e-20)
(0.0944524 -0.174913 -1.6071e-19)
(0.0767077 -0.202862 2.86903e-19)
(0.0827097 -0.201143 1.92884e-20)
(0.0623642 -0.243902 1.08173e-20)
(0.0682703 -0.236363 1.36061e-19)
(0.0403675 -0.298525 -1.30945e-19)
(0.0431045 -0.288602 -2.39029e-19)
(0.0216672 -0.347769 -5.6989e-20)
(0.0173767 -0.342002 4.5697e-20)
(0.00733393 -0.374607 -5.46808e-20)
(0.0180926 -0.375069 -1.04811e-19)
(0.195271 -0.0151384 0)
(0.216218 -0.0207681 -5.81014e-20)
(0.188337 -0.0307391 7.16929e-20)
(0.207775 -0.0245526 1.05749e-19)
(0.173714 -0.0643008 7.16929e-20)
(0.197373 -0.0558837 7.26139e-20)
(0.155029 -0.102924 7.80141e-20)
(0.179084 -0.0944431 0)
(0.133265 -0.14047 7.80141e-20)
(0.15645 -0.132471 1.98545e-19)
(0.111956 -0.173064 3.09607e-21)
(0.131748 -0.167525 2.36435e-19)
(0.0937229 -0.200945 -1.35876e-19)
(0.109908 -0.197817 5.0202e-21)
(0.0752191 -0.233776 -1.40598e-19)
(0.0896178 -0.22781 -3.20903e-20)
(0.0501404 -0.280984 -1.17026e-19)
(0.0635176 -0.269193 -2.02477e-19)
(0.0213082 -0.332941 -5.95027e-20)
(0.0291653 -0.320858 -1.12175e-19)
(0.00344284 -0.368766 4.83726e-20)
(0.0011719 -0.36273 1.26951e-19)
(-0.00430658 -0.377196 -7.90212e-20)
(0.00736021 -0.377653 2.11706e-21)
(0.215594 -0.0252769 1.77949e-20)
(0.232347 -0.0278769 -1.98495e-20)
(0.212277 -0.0489318 1.07125e-19)
(0.229329 -0.0423536 -5.71852e-20)
(0.199754 -0.0852872 0)
(0.222092 -0.0760384 8.63267e-20)
(0.180496 -0.124846 1.21084e-19)
(0.204522 -0.115136 0)
(0.156833 -0.161909 3.60596e-19)
(0.181605 -0.152539 8.1458e-21)
(0.131851 -0.193893 2.39702e-19)
(0.155525 -0.187169 1.34006e-19)
(0.106771 -0.22437 1.1237e-19)
(0.129321 -0.218694 9.7233e-20)
(0.0785945 -0.262515 -9.17482e-20)
(0.101024 -0.253104 2.03789e-20)
(0.0440754 -0.309975 -1.98515e-19)
(0.0650947 -0.296239 -2.77197e-19)
(0.010338 -0.351812 7.72364e-20)
(0.0240866 -0.340029 -1.75585e-21)
(-0.0064423 -0.370447 -1.07795e-21)
(-0.00539135 -0.365728 -6.71467e-20)
(-0.00822964 -0.362306 6.98504e-20)
(0.00272114 -0.362019 5.49089e-20)
(0.233818 -0.042029 -1.02865e-19)
(0.243517 -0.041069 7.40059e-20)
(0.234063 -0.0697416 -8.02175e-20)
(0.247117 -0.0634931 -1.48371e-19)
(0.224278 -0.106126 8.73686e-20)
(0.242959 -0.0966109 3.07459e-21)
(0.205377 -0.144341 -1.10648e-19)
(0.227815 -0.13371 0)
(0.18108 -0.1805 -2.1752e-19)
(0.205336 -0.170117 -3.52807e-20)
(0.153572 -0.213527 -1.22838e-20)
(0.178867 -0.204707 -1.07934e-19)
(0.123125 -0.247597 5.38091e-21)
(0.149759 -0.238229 8.61001e-20)
(0.0873484 -0.287536 -1.65472e-19)
(0.11559 -0.274793 -1.58306e-19)
(0.0460087 -0.328645 -7.48332e-20)
(0.073184 -0.314071 1.24896e-19)
(0.00890176 -0.355702 -1.47939e-19)
(0.0283387 -0.345258 -1.18019e-19)
(-0.00795707 -0.35663 1.52288e-21)
(-0.00217655 -0.353812 -1.44259e-19)
(-0.00465696 -0.335051 1.54102e-19)
(0.00271778 -0.333464 2.3519e-19)
(0.248372 -0.0616638 4.83732e-20)
(0.250805 -0.0568792 8.18542e-20)
(0.25149 -0.090843 -6.60179e-20)
(0.259477 -0.0847795 -2.28478e-20)
(0.244355 -0.125285 -8.1863e-20)
(0.258086 -0.115212 -3.19798e-20)
(0.226836 -0.161635 7.74608e-20)
(0.245657 -0.149027 -5.3598e-20)
(0.202667 -0.19718 7.62539e-20)
(0.224207 -0.184016 1.7304e-19)
(0.173892 -0.231547 -9.32723e-21)
(0.197663 -0.218602 5.14311e-20)
(0.140285 -0.267037 -7.70559e-20)
(0.16692 -0.252986 -2.06434e-19)
(0.100112 -0.303797 1.31783e-19)
(0.12975 -0.28803 -2.0804e-20)
(0.055281 -0.334219 7.24444e-20)
(0.0848911 -0.319596 1.5329e-19)
(0.0165491 -0.345677 -1.11074e-19)
(0.0394789 -0.337282 -1.20591e-19)
(-0.00126303 -0.331522 5.38617e-21)
(0.00906248 -0.331349 6.24693e-20)
(0.00575875 -0.302027 0)
(0.00780709 -0.297787 0)
(0.259151 -0.0806379 5.20043e-21)
(0.256469 -0.0718291 4.9989e-20)
(0.263114 -0.109463 4.75096e-21)
(0.266372 -0.103245 -1.64706e-20)
(0.257689 -0.140294 -2.89115e-21)
(0.26557 -0.129053 1.09236e-19)
(0.241506 -0.174019 4.14256e-20)
(0.254803 -0.158644 -8.7074e-20)
(0.217652 -0.208475 1.47612e-19)
(0.234227 -0.191349 8.05849e-20)
(0.188474 -0.242666 -1.39228e-19)
(0.207575 -0.225006 5.26432e-20)
(0.153908 -0.276365 -1.43798e-19)
(0.176267 -0.258233 -1.77797e-19)
(0.112953 -0.306744 -6.71576e-22)
(0.138992 -0.289215 4.82749e-20)
(0.0685522 -0.325983 -4.63588e-20)
(0.0957204 -0.312462 -9.7774e-20)
(0.0309705 -0.324916 5.33685e-20)
(0.0533515 -0.319532 3.5443e-20)
(0.0131987 -0.301202 5.33685e-20)
(0.0250898 -0.304865 -5.11967e-20)
(0.0209816 -0.272385 -4.59661e-20)
(0.0202544 -0.263599 0)
(0.267441 -0.0955126 2.68962e-20)
(0.26451 -0.0839516 2.62904e-20)
(0.268002 -0.123103 8.49264e-20)
(0.266823 -0.114462 -3.02632e-21)
(0.261696 -0.148893 2.46196e-20)
(0.264752 -0.135016 3.07602e-20)
(0.24586 -0.178651 -4.24046e-20)
(0.252767 -0.159543 -1.7425e-20)
(0.222087 -0.210598 -8.82523e-21)
(0.2325 -0.189058 -2.28602e-20)
(0.193048 -0.24281 5.36873e-21)
(0.205871 -0.220938 2.64506e-20)
(0.159402 -0.272871 4.11395e-21)
(0.175037 -0.251812 2.7081e-20)
(0.120954 -0.296699 -5.14653e-20)
(0.140005 -0.278358 1.46702e-20)
(0.0807938 -0.307739 -1.56709e-20)
(0.101444 -0.295381 -1.03855e-20)
(0.0475815 -0.300165 -7.15467e-20)
(0.0650541 -0.296831 8.45681e-20)
(0.0317235 -0.274866 -1.52552e-19)
(0.0409276 -0.280388 -1.62492e-19)
(0.0363962 -0.251849 -1.29801e-20)
(0.0364592 -0.242101 -6.91811e-21)
(0.269461 -0.108022 5.59298e-22)
(0.274705 -0.0880184 2.52268e-20)
(0.264872 -0.129551 -5.03863e-20)
(0.271034 -0.120404 -3.29621e-20)
(0.255452 -0.148064 -8.685e-21)
(0.260352 -0.133196 -2.97342e-20)
(0.23806 -0.17239 2.536e-21)
(0.241846 -0.151002 7.0122e-21)
(0.213885 -0.201331 1.09986e-20)
(0.217853 -0.175754 -1.46033e-20)
(0.185588 -0.231288 4.39342e-20)
(0.190299 -0.205005 2.78465e-20)
(0.154136 -0.258057 2.87398e-20)
(0.161046 -0.233268 1.55134e-20)
(0.120164 -0.277505 5.61229e-20)
(0.129812 -0.256308 2.27025e-20)
(0.0864328 -0.284785 8.92371e-20)
(0.0974909 -0.269654 6.05514e-20)
(0.059411 -0.276719 -3.7616e-21)
(0.0682932 -0.269296 -1.80806e-20)
(0.0462715 -0.255745 -1.96744e-20)
(0.0491876 -0.254666 4.34379e-20)
(0.0450479 -0.230535 7.02676e-20)
(0.0486614 -0.230089 -1.15006e-20)
(0.290692 -0.100473 -5.86888e-20)
(0.20171 -0.0629623 -2.65108e-21)
(0.271744 -0.121446 -1.19727e-20)
(0.206495 -0.0840164 -1.98462e-20)
(0.249379 -0.134291 -1.97209e-20)
(0.208736 -0.0941975 -6.32271e-21)
(0.221837 -0.15487 -1.58758e-20)
(0.204651 -0.116866 -2.48387e-20)
(0.191973 -0.18061 1.37827e-21)
(0.189111 -0.146597 -6.13099e-22)
(0.163715 -0.207632 2.73582e-21)
(0.163175 -0.178194 1.05701e-20)
(0.135449 -0.231355 7.87309e-21)
(0.134742 -0.204047 3.66467e-21)
(0.106829 -0.247764 3.06655e-20)
(0.106481 -0.222833 6.31794e-21)
(0.0799102 -0.253224 -5.12052e-20)
(0.0797632 -0.232298 1.92345e-20)
(0.0592005 -0.245842 3.13156e-20)
(0.0573006 -0.22983 -2.41083e-20)
(0.0494353 -0.227285 1.39612e-19)
(0.0435237 -0.214917 4.93442e-20)
(0.051977 -0.201979 4.55876e-22)
(0.0418134 -0.190259 1.04067e-20)
(0.0432023 -0.199799 5.19149e-20)
(0.058245 -0.236628 1.42868e-19)
(0.0303445 -0.23452 0)
(0.0505556 -0.271576 -1.35724e-19)
(0.0233488 -0.259671 0)
(0.0490452 -0.294909 0)
(0.0215146 -0.271063 2.26137e-20)
(0.0519594 -0.304891 -6.35145e-20)
(0.0214178 -0.269652 6.49938e-20)
(0.0536497 -0.303522 1.19133e-19)
(0.0194516 -0.255441 -7.90687e-21)
(0.0561858 -0.29252 -1.85063e-20)
(0.0145053 -0.230744 -2.74336e-20)
(0.0555167 -0.274139 -2.26946e-20)
(0.00611715 -0.198899 -1.18238e-21)
(0.0504826 -0.249357 2.73673e-20)
(-0.00742506 -0.16467 9.96121e-20)
(0.0390611 -0.219477 -2.30158e-20)
(-0.0268235 -0.135599 -8.27958e-22)
(0.0168306 -0.185519 1.75507e-19)
(-0.0451247 -0.121657 -2.32534e-19)
(-0.0169295 -0.150026 -2.28055e-19)
(-0.0447689 -0.127419 -1.75858e-20)
(0.0523044 -0.316945 -3.48198e-20)
(0.0425494 -0.331859 -9.09912e-21)
(0.0557282 -0.339022 -1.38295e-19)
(0.0451734 -0.353961 -2.7857e-20)
(0.064994 -0.345077 -6.47179e-20)
(0.0552411 -0.358823 -8.74338e-20)
(0.0744719 -0.340964 3.4425e-20)
(0.0673049 -0.352679 -6.58002e-20)
(0.0802205 -0.329591 3.49188e-20)
(0.0779438 -0.340976 1.55072e-19)
(0.0829844 -0.315026 -3.50673e-20)
(0.0841121 -0.32781 -1.184e-19)
(0.0824406 -0.295902 3.32991e-20)
(0.0891235 -0.313058 4.82392e-20)
(0.075547 -0.270479 5.82704e-21)
(0.0911013 -0.296352 7.62774e-21)
(0.0570603 -0.236861 5.53472e-20)
(0.086261 -0.275219 0)
(0.0224364 -0.195423 -4.16144e-20)
(0.0658233 -0.245083 1.13936e-19)
(-0.0210303 -0.156114 -1.12261e-20)
(0.0196306 -0.201256 -1.36136e-19)
(-0.0392366 -0.151041 1.67007e-19)
(0.0386551 -0.368413 -3.19681e-21)
(0.0273509 -0.37292 -1.69764e-19)
(0.0495135 -0.372247 2.66281e-20)
(0.0414234 -0.374798 1.1641e-19)
(0.0636047 -0.36466 -8.89208e-20)
(0.0608226 -0.3633 -1.17594e-19)
(0.0770538 -0.352242 5.6459e-20)
(0.0787485 -0.34729 0)
(0.0884693 -0.339078 5.05582e-22)
(0.0921337 -0.331907 4.4302e-21)
(0.0972134 -0.326109 -3.44183e-20)
(0.100503 -0.31882 -5.62757e-20)
(0.10356 -0.314421 2.22119e-20)
(0.105733 -0.308487 3.01893e-20)
(0.106152 -0.301995 1.49189e-21)
(0.10961 -0.300846 4.38529e-21)
(0.0983639 -0.283143 5.86438e-20)
(0.11156 -0.293317 -1.14669e-20)
(0.0674035 -0.248527 3.21374e-20)
(0.103998 -0.279407 5.95348e-20)
(0.00511529 -0.194845 4.62558e-20)
(0.0666643 -0.248877 -3.09859e-20)
(-0.01829 -0.190585 1.82055e-20)
(0.0310663 -0.378215 -5.08815e-20)
(0.0182685 -0.379406 -5.02063e-20)
(0.0532784 -0.365252 -2.78337e-20)
(0.0430096 -0.364553 0)
(0.0757945 -0.346041 -2.78337e-20)
(0.0700342 -0.342378 2.17822e-20)
(0.0928023 -0.327248 -5.24073e-20)
(0.0915717 -0.32126 0)
(0.103097 -0.31225 -5.24073e-20)
(0.104719 -0.304863 -5.20584e-20)
(0.10846 -0.301398 9.21424e-21)
(0.111245 -0.293228 -2.08435e-20)
(0.11174 -0.294847 1.21185e-20)
(0.113252 -0.286011 9.34252e-21)
(0.115315 -0.292232 -8.72379e-21)
(0.113691 -0.283032 1.57205e-20)
(0.117094 -0.290364 -1.16438e-20)
(0.115352 -0.283369 -4.18451e-20)
(0.102472 -0.277981 0)
(0.116919 -0.283094 4.16179e-20)
(0.043923 -0.235582 -6.06606e-20)
(0.0993945 -0.274284 2.24252e-20)
(0.0142087 -0.236727 4.17819e-20)
(0.0302197 -0.364395 2.11706e-21)
(0.0147 -0.364711 1.34386e-19)
(0.0603623 -0.341081 5.07093e-20)
(0.046808 -0.338332 -1.6072e-21)
(0.0868592 -0.317786 5.07093e-20)
(0.0781197 -0.310955 -2.55547e-21)
(0.104728 -0.299242 1.82398e-21)
(0.100849 -0.289315 -9.1291e-20)
(0.11393 -0.286111 -1.93138e-20)
(0.113525 -0.275681 2.35326e-20)
(0.116571 -0.277954 -2.11377e-20)
(0.11812 -0.268477 -1.9009e-20)
(0.115448 -0.273893 1.29691e-20)
(0.117398 -0.265662 0)
(0.114074 -0.27363 -1.73453e-20)
(0.114371 -0.26602 1.51118e-20)
(0.115652 -0.277541 1.25408e-20)
(0.112052 -0.268999 -3.08546e-20)
(0.114073 -0.281353 6.0931e-20)
(0.113414 -0.273502 6.01727e-20)
(0.0738273 -0.26109 1.4562e-19)
(0.111555 -0.277937 3.69593e-20)
(0.0449676 -0.271502 6.30909e-20)
(0.0316062 -0.336508 1.37265e-19)
(0.0150016 -0.336042 2.18365e-19)
(0.0658315 -0.307278 -5.77668e-20)
(0.0504845 -0.302069 -9.06168e-20)
(0.0937065 -0.28306 -1.50854e-19)
(0.0831507 -0.272541 -6.1143e-20)
(0.110705 -0.266971 -7.0318e-20)
(0.105227 -0.253117 -9.165e-20)
(0.117971 -0.258825 2.445e-20)
(0.115814 -0.245417 2.24253e-20)
(0.118649 -0.256496 2.28898e-21)
(0.118014 -0.24464 2.07401e-20)
(0.115752 -0.257634 2.00187e-21)
(0.115478 -0.247402 -6.90956e-21)
(0.111834 -0.260771 2.00187e-21)
(0.111087 -0.252111 4.77044e-23)
(0.109798 -0.265961 1.81413e-20)
(0.107018 -0.257984 0)
(0.11136 -0.274529 3.10764e-20)
(0.105385 -0.264941 1.83577e-20)
(0.0881536 -0.272148 -3.10345e-20)
(0.108855 -0.272596 -1.54681e-20)
(0.064562 -0.291262 -4.44939e-20)
(0.0329494 -0.299044 -1.37661e-21)
(0.019025 -0.298951 8.37058e-20)
(0.0673162 -0.266183 -9.36811e-20)
(0.0546121 -0.260882 -1.212e-20)
(0.0945135 -0.24466 -6.29456e-21)
(0.0841245 -0.23365 -8.45287e-20)
(0.109538 -0.234243 4.54753e-22)
(0.104096 -0.220848 4.59814e-22)
(0.114708 -0.232765 1.7946e-20)
(0.111766 -0.220171 0)
(0.113801 -0.236138 1.09531e-20)
(0.112245 -0.224386 1.81457e-20)
(0.109927 -0.241962 -8.94054e-21)
(0.108746 -0.230672 5.03201e-21)
(0.105475 -0.249172 -1.94759e-21)
(0.103693 -0.238322 -7.11112e-21)
(0.101999 -0.25736 0)
(0.0990711 -0.246981 -3.24354e-21)
(0.102364 -0.26769 -3.02298e-20)
(0.0957959 -0.25762 0)
(0.0897047 -0.275881 -3.02298e-20)
(0.0981554 -0.266511 -3.05662e-20)
(0.0709654 -0.29923 4.03286e-20)
(0.035952 -0.258626 7.98131e-20)
(0.0271601 -0.261778 0)
(0.0681249 -0.228228 -1.41134e-21)
(0.0583342 -0.226285 8.06456e-20)
(0.0916928 -0.212583 -8.176e-20)
(0.083371 -0.206771 -8.26128e-20)
(0.104019 -0.210088 0)
(0.0985686 -0.201584 0)
(0.107701 -0.213548 0)
(0.104597 -0.203585 -1.12664e-20)
(0.106081 -0.219643 1.2004e-20)
(0.104521 -0.208286 1.10929e-20)
(0.101654 -0.227272 6.80426e-21)
(0.10064 -0.214701 7.11471e-21)
(0.096501 -0.236426 -8.32156e-21)
(0.0948603 -0.223097 -5.25396e-21)
(0.092006 -0.247394 -3.28004e-21)
(0.0890606 -0.23346 -1.52597e-22)
(0.0899916 -0.26059 0)
(0.0841257 -0.247385 -8.13788e-21)
(0.0820893 -0.275085 4.07824e-20)
(0.0832929 -0.260273 7.1101e-21)
(0.0644107 -0.298034 2.19737e-20)
(0.0442494 -0.227553 0)
(0.0380308 -0.235869 4.45098e-20)
(0.0702452 -0.20561 0)
(0.0623289 -0.209069 1.04486e-19)
(0.088533 -0.197864 0)
(0.081636 -0.196277 -4.94658e-20)
(0.0982178 -0.197375 -1.13851e-20)
(0.0939679 -0.190888 0)
(0.100926 -0.199606 4.55045e-22)
(0.0993515 -0.189224 -2.05367e-20)
(0.0986258 -0.203922 6.25905e-21)
(0.098675 -0.190716 2.74877e-21)
(0.0932028 -0.210733 -4.95078e-21)
(0.0936058 -0.195497 -4.99937e-21)
(0.0865495 -0.220476 2.78001e-21)
(0.0860656 -0.203854 0)
(0.0801085 -0.233536 -5.44364e-21)
(0.0779845 -0.215627 1.03963e-20)
(0.0756447 -0.250613 -1.03862e-21)
(0.0700456 -0.232314 9.02149e-22)
(0.0670619 -0.27082 -1.00952e-20)
(0.064884 -0.250546 -7.70281e-22)
(0.045547 -0.289976 -1.96711e-20)
(0.0539428 -0.215433 1.45924e-19)
(0.0482349 -0.222968 2.94818e-21)
(0.0729117 -0.199751 5.55656e-20)
(0.0663415 -0.201181 5.92054e-20)
(0.0873222 -0.19045 -4.99561e-20)
(0.0820916 -0.1853 -4.93413e-20)
(0.0954657 -0.184086 -9.12946e-21)
(0.0932546 -0.173426 0)
(0.0971001 -0.181219 -1.82812e-20)
(0.0974289 -0.166815 7.05396e-21)
(0.0932348 -0.182656 -8.65605e-21)
(0.0949071 -0.165881 -8.73628e-21)
(0.0856273 -0.188628 0)
(0.0874652 -0.170139 0)
(0.0761766 -0.199139 6.97371e-21)
(0.0771757 -0.179153 0)
(0.0662044 -0.214398 1.46742e-20)
(0.0658734 -0.192441 4.48877e-21)
(0.057278 -0.235087 4.03327e-22)
(0.0539379 -0.211736 4.95205e-21)
(0.0443266 -0.261411 -9.54042e-21)
(0.0428222 -0.234609 -1.13465e-20)
(0.0139836 -0.275209 -2.99776e-20)
(0.0611196 -0.206783 -9.46083e-20)
(0.0537907 -0.203896 -8.26527e-20)
(0.0764264 -0.186296 -4.56511e-20)
(0.0691964 -0.178131 -9.42766e-21)
(0.0891286 -0.168919 3.26781e-21)
(0.0836124 -0.155814 3.61911e-20)
(0.0956447 -0.157053 1.63459e-20)
(0.0933811 -0.140196 0)
(0.0951156 -0.152 1.63459e-20)
(0.0955473 -0.133066 2.22856e-20)
(0.0886743 -0.153408 0)
(0.0906503 -0.13346 4.99333e-21)
(0.0782324 -0.160342 0)
(0.0806963 -0.139604 0)
(0.0654643 -0.172198 -1.78719e-21)
(0.0677185 -0.150213 0)
(0.0508652 -0.189394 -4.6227e-21)
(0.052971 -0.164536 -1.53844e-22)
(0.034523 -0.213595 -2.37514e-21)
(0.0359499 -0.184488 -3.55319e-21)
(0.00948531 -0.244962 -2.41394e-20)
(0.0175399 -0.209516 -1.56835e-20)
(-0.0294762 -0.247814 -4.23482e-20)
(0.0633616 -0.173845 3.38835e-21)
(0.0513165 -0.160289 3.16295e-20)
(0.077778 -0.147627 7.32594e-20)
(0.0667287 -0.130635 4.06103e-20)
(0.0890527 -0.127511 3.55369e-20)
(0.0812579 -0.107781 -2.41428e-20)
(0.0937312 -0.116718 5.84756e-21)
(0.0897738 -0.0952973 0)
(0.0910841 -0.11468 1.10732e-20)
(0.0902974 -0.0929438 -3.96003e-21)
(0.082489 -0.119416 5.03756e-21)
(0.0837115 -0.0980759 7.48164e-21)
(0.0699663 -0.128909 0)
(0.0722418 -0.107861 -2.29162e-21)
(0.0549257 -0.14189 1.66364e-21)
(0.0578866 -0.120399 -1.38065e-22)
(0.0367605 -0.158436 2.09618e-21)
(0.041282 -0.134669 4.04687e-21)
(0.0120402 -0.181642 -1.5081e-20)
(0.019783 -0.150826 -4.61143e-21)
(-0.0397676 -0.21648 4.04314e-21)
(-0.00981373 -0.165685 1.41013e-20)
(-0.0790047 -0.173377 2.05146e-20)
(0.0544602 0.119145 0)
(0.0432738 0.133021 1.99436e-19)
(0.056237 0.108076 0)
(0.0384262 0.126346 -2.91006e-19)
(0.0579908 0.0957689 1.76092e-19)
(0.0403686 0.114394 9.63849e-20)
(0.0628329 0.0849088 -5.46098e-20)
(0.0482853 0.101193 1.79366e-19)
(0.0711969 0.0774743 -4.70141e-19)
(0.0606728 0.0893014 -2.38518e-19)
(0.0808908 0.0730499 -5.6207e-20)
(0.0732288 0.0823858 -2.40366e-19)
(0.0911143 0.0716446 1.17782e-19)
(0.0880443 0.0793359 1.81512e-19)
(0.101374 0.0711144 3.05764e-19)
(0.103209 0.0803378 -6.15396e-20)
(0.111199 0.0694342 1.19568e-19)
(0.118027 0.0830639 3.50039e-19)
(0.121913 0.0673675 -3.76625e-19)
(0.135255 0.0820914 -5.29994e-19)
(0.138202 0.0645489 -7.2482e-20)
(0.161002 0.0765627 -6.92248e-20)
(0.196664 0.0683247 6.02153e-20)
(0.164658 0.0567394 3.31891e-19)
(0.0317753 0.13955 -8.95485e-20)
(0.0377718 0.151645 2.89241e-19)
(0.027926 0.129046 -1.98309e-19)
(0.0256823 0.142525 -2.2628e-19)
(0.0348407 0.115539 9.82112e-20)
(0.0307863 0.127695 2.43928e-20)
(0.0485617 0.102805 0)
(0.046794 0.111866 0)
(0.0655474 0.0918156 0)
(0.0672505 0.0981984 0)
(0.0863151 0.0856104 0)
(0.0921502 0.0865045 1.77809e-19)
(0.107602 0.0836753 0)
(0.116033 0.0802968 -1.78869e-19)
(0.127148 0.0861226 -5.76322e-21)
(0.138219 0.0796453 0)
(0.148004 0.087556 -2.88007e-19)
(0.159577 0.0831148 -7.90578e-20)
(0.180256 0.0815442 -2.01079e-19)
(0.190877 0.0786859 -3.65989e-19)
(0.226639 0.0691605 8.40828e-20)
(0.237982 0.06427 1.55757e-19)
(0.290235 0.0497545 1.80837e-19)
(0.276712 0.0574768 -3.91491e-20)
(0.0250432 0.153508 1.70747e-19)
(0.0278455 0.173278 1.00075e-20)
(0.0213733 0.141293 -6.53642e-22)
(0.0147058 0.162259 -6.20854e-20)
(0.0363893 0.125299 -8.73685e-20)
(0.028702 0.146553 6.19657e-20)
(0.0616516 0.10862 0)
(0.0552518 0.129279 -7.96798e-20)
(0.0909507 0.095741 1.80833e-19)
(0.0869963 0.110688 8.47171e-20)
(0.118855 0.0872873 -6.7682e-21)
(0.118933 0.094976 2.03404e-20)
(0.144154 0.0832126 -1.81911e-19)
(0.147574 0.0848511 -1.84675e-19)
(0.167438 0.0820125 -8.45899e-20)
(0.171897 0.0800326 0)
(0.198777 0.0775121 -1.57004e-19)
(0.199624 0.0765132 -1.81685e-20)
(0.24684 0.0640346 -9.18554e-22)
(0.244363 0.0622753 -1.96316e-19)
(0.301569 0.0468773 2.55375e-19)
(0.300701 0.04077 2.40157e-19)
(0.348203 0.0264208 3.25711e-20)
(0.345234 0.0368099 1.23455e-19)
(0.0138016 0.17493 -2.28248e-19)
(0.0212643 0.19589 -3.22357e-19)
(0.0186525 0.164794 -8.87733e-21)
(0.0142483 0.18488 1.01781e-19)
(0.0448686 0.149345 7.20769e-20)
(0.0388603 0.171164 8.67141e-20)
(0.0790409 0.131429 5.11495e-21)
(0.0733826 0.153577 1.41055e-19)
(0.115079 0.112642 -8.41778e-20)
(0.11018 0.132135 1.62417e-19)
(0.14813 0.0965172 -1.65759e-19)
(0.14497 0.110664 -4.53922e-19)
(0.175465 0.085581 0)
(0.174966 0.0945591 1.33078e-19)
(0.202807 0.0767964 6.87512e-20)
(0.201153 0.0828278 -1.2478e-19)
(0.243703 0.0625153 -5.59453e-20)
(0.236269 0.0684373 1.27396e-19)
(0.298207 0.0405712 5.01281e-20)
(0.28836 0.0433583 -2.33789e-19)
(0.347477 0.0218204 1.3576e-20)
(0.34172 0.0176185 -1.17653e-20)
(0.374447 0.00742938 1.12698e-19)
(0.374925 0.0181054 -1.09982e-19)
(0.0151476 0.195284 -1.90075e-20)
(0.020752 0.21623 -1.98679e-19)
(0.0308099 0.188354 2.00439e-19)
(0.0246147 0.207791 4.77972e-20)
(0.0644099 0.17374 1.592e-19)
(0.0559919 0.197394 -1.88121e-20)
(0.103053 0.155076 3.07815e-19)
(0.0945847 0.17912 2.31503e-19)
(0.140592 0.133341 -2.16993e-19)
(0.13262 0.156512 1.99512e-19)
(0.173154 0.112072 -1.54935e-19)
(0.167658 0.131859 -2.86517e-19)
(0.20099 0.0938722 8.41479e-21)
(0.197914 0.110072 1.34762e-19)
(0.233743 0.075411 -7.02593e-20)
(0.227865 0.0898259 -1.79284e-20)
(0.280836 0.0504036 -5.45312e-20)
(0.269155 0.0638013 5.70052e-20)
(0.332737 0.0215999 -2.98679e-19)
(0.320711 0.029528 -2.63239e-20)
(0.368636 0.00363258 8.79395e-20)
(0.362586 0.00148512 -1.07632e-19)
(0.377173 -0.00418107 1.13787e-19)
(0.37766 0.00736582 1.85996e-19)
(0.0253209 0.215607 -1.63535e-19)
(0.0278897 0.232344 5.542e-20)
(0.0490382 0.212294 -1.74987e-19)
(0.0424485 0.22934 -2.11038e-19)
(0.0854318 0.19978 5.37831e-20)
(0.076176 0.222105 1.46841e-19)
(0.125017 0.180549 1.21303e-19)
(0.115317 0.204545 9.25048e-20)
(0.162078 0.156927 1.2769e-19)
(0.152728 0.181663 1.0047e-19)
(0.194039 0.132004 6.17211e-21)
(0.187353 0.155643 9.6084e-20)
(0.224483 0.106986 1.11116e-19)
(0.218855 0.129514 -3.79172e-21)
(0.262564 0.0788795 1.14863e-19)
(0.253228 0.101296 1.16233e-19)
(0.309933 0.0444413 8.50394e-20)
(0.29628 0.0654694 0)
(0.35174 0.0107189 1.72224e-19)
(0.339983 0.0245419 7.87703e-20)
(0.370437 -0.00618843 -8.45072e-20)
(0.365684 -0.00499678 1.68664e-20)
(0.362338 -0.00803334 -1.73739e-19)
(0.362082 0.00277366 1.12679e-21)
(0.0421022 0.233823 4.29497e-21)
(0.0411082 0.243495 2.33008e-20)
(0.0698717 0.23407 8.79411e-20)
(0.0636092 0.247113 7.06649e-20)
(0.106301 0.224294 1.87154e-19)
(0.096771 0.242947 9.45731e-20)
(0.144544 0.205405 7.62195e-20)
(0.133902 0.227809 4.63191e-21)
(0.180716 0.181155 7.32998e-20)
(0.170336 0.205351 -1.85701e-19)
(0.213736 0.15372 9.07016e-20)
(0.204928 0.178942 1.42357e-19)
(0.247781 0.123363 0)
(0.238432 0.149923 -7.12822e-20)
(0.287658 0.0876864 0)
(0.274955 0.115864 6.84917e-20)
(0.328683 0.0464464 -5.84545e-21)
(0.314151 0.0735892 1.16905e-19)
(0.355705 0.00936216 -8.1704e-20)
(0.345258 0.0288429 -1.34374e-20)
(0.356661 -0.00761804 -7.22187e-20)
(0.3538 -0.00171266 -7.30223e-20)
(0.335075 -0.00437043 -1.25731e-19)
(0.333513 0.0028587 0)
(0.0617596 0.248361 7.86487e-20)
(0.0569326 0.250761 -8.29693e-20)
(0.090989 0.251473 6.70685e-20)
(0.0849015 0.259449 1.5943e-19)
(0.125466 0.244323 -8.69904e-20)
(0.115359 0.258044 -4.31725e-20)
(0.161852 0.226812 -2.5103e-19)
(0.149215 0.245594 -8.78978e-20)
(0.197412 0.20268 -1.06243e-19)
(0.184233 0.224152 -1.12952e-19)
(0.231774 0.173977 -1.56331e-20)
(0.218818 0.197649 -1.13417e-19)
(0.267229 0.140476 -3.69792e-21)
(0.253176 0.16699 -1.0441e-19)
(0.303917 0.100432 1.87483e-19)
(0.288163 0.129945 2.25375e-20)
(0.334257 0.05573 1.05328e-19)
(0.319646 0.0852449 1.06363e-19)
(0.345676 0.0170523 -7.61163e-21)
(0.337262 0.0399643 -6.34528e-20)
(0.331531 -0.000843647 -1.27146e-19)
(0.331318 0.00955536 -4.31915e-20)
(0.302031 0.00612171 -7.82825e-21)
(0.297801 0.0080565 -6.40178e-20)
(0.080738 0.259111 -1.09686e-20)
(0.0718722 0.256409 -1.39903e-19)
(0.109626 0.263064 4.90007e-20)
(0.103366 0.266305 8.54841e-20)
(0.140474 0.25759 -4.36276e-20)
(0.129154 0.265503 -1.12896e-21)
(0.174219 0.241416 5.33547e-20)
(0.158821 0.254689 4.79215e-20)
(0.208676 0.217577 -1.12245e-19)
(0.191531 0.234102 9.89473e-20)
(0.242845 0.188451 -1.9775e-19)
(0.225173 0.20746 -1.66944e-19)
(0.276491 0.153986 -7.98542e-20)
(0.258357 0.176212 5.76587e-20)
(0.30679 0.113177 -5.30389e-20)
(0.289271 0.139058 -4.84181e-20)
(0.325955 0.0689372 -5.88096e-20)
(0.31244 0.0959577 -5.85815e-20)
(0.324864 0.0314581 -9.52771e-20)
(0.319463 0.0537523 -5.21371e-20)
(0.30118 0.0136637 7.25979e-20)
(0.304814 0.0255556 6.89616e-20)
(0.272407 0.0213796 1.17386e-19)
(0.263618 0.0206006 6.50932e-20)
(0.0955805 0.267385 -2.67443e-20)
(0.0839618 0.264436 -7.70383e-21)
(0.123219 0.267888 3.45041e-20)
(0.114543 0.266736 -7.47923e-21)
(0.149054 0.261588 9.03111e-20)
(0.135117 0.264632 5.56964e-21)
(0.178806 0.245721 9.39122e-20)
(0.159673 0.252624 9.09748e-21)
(0.210739 0.221933 4.55157e-20)
(0.189183 0.232325 -2.24028e-20)
(0.242912 0.192915 7.91141e-20)
(0.221036 0.205684 1.29055e-20)
(0.272909 0.159345 7.91141e-20)
(0.251856 0.174878 7.98474e-20)
(0.29666 0.121037 -5.18406e-20)
(0.278329 0.13994 1.81203e-20)
(0.307648 0.0810498 -5.18406e-20)
(0.295287 0.101539 -2.83061e-20)
(0.300089 0.047979 1.13298e-19)
(0.296721 0.0653208 -6.49325e-20)
(0.274868 0.0321557 1.13298e-19)
(0.28033 0.0413011 5.16511e-20)
(0.251895 0.036756 -7.29479e-20)
(0.242202 0.0368212 -5.1433e-20)
(0.108044 0.269389 2.67926e-20)
(0.0880055 0.274713 2.62503e-20)
(0.129622 0.264746 -3.70771e-20)
(0.120465 0.270962 -5.75172e-21)
(0.14816 0.255309 -6.49651e-20)
(0.133299 0.260242 -2.59847e-20)
(0.172486 0.237885 -8.88781e-20)
(0.151097 0.241688 -3.13583e-20)
(0.201406 0.213686 -4.69694e-20)
(0.17583 0.217655 -5.94165e-20)
(0.231317 0.185386 1.30262e-20)
(0.205041 0.190077 1.42208e-20)
(0.258019 0.153976 1.82899e-20)
(0.23324 0.160826 0)
(0.2774 0.120111 4.21103e-20)
(0.256208 0.12965 1.44275e-20)
(0.284652 0.0865354 -4.28405e-20)
(0.269496 0.0974466 5.6207e-20)
(0.276625 0.0596588 -1.32584e-19)
(0.269133 0.0683992 -1.19296e-20)
(0.255746 0.0465914 -1.40674e-19)
(0.254555 0.0494075 -6.76326e-20)
(0.230496 0.0453039 -1.44393e-20)
(0.23017 0.0489613 -1.18381e-19)
(0.100504 0.290707 -1.5592e-20)
(0.0630011 0.201801 -4.95885e-21)
(0.121509 0.271691 2.47444e-20)
(0.0840668 0.206502 -3.28737e-22)
(0.134375 0.249272 2.53828e-20)
(0.0943059 0.208704 2.00105e-20)
(0.154938 0.221664 -1.12627e-21)
(0.11694 0.204555 9.99116e-21)
(0.18064 0.191764 1.40633e-21)
(0.146649 0.18895 -1.11793e-20)
(0.207603 0.163484 1.08981e-21)
(0.178192 0.162972 -6.135e-21)
(0.231254 0.13523 -4.05857e-21)
(0.203972 0.134519 1.0497e-20)
(0.247595 0.106674 2.87116e-20)
(0.222682 0.106275 -3.84651e-21)
(0.253021 0.0798666 9.51657e-20)
(0.232082 0.0796228 4.7096e-20)
(0.245656 0.05928 5.88857e-20)
(0.22959 0.0572652 2.58443e-20)
(0.227146 0.0496026 6.90456e-20)
(0.214696 0.0435906 2.58866e-20)
(0.201865 0.0521797 1.4783e-19)
(0.190065 0.0419487 4.34262e-20)
(0.199607 0.0432938 4.3041e-19)
(0.236364 0.0583074 2.27427e-19)
(0.234252 0.0304298 -4.04252e-20)
(0.27129 0.0505962 2.09348e-19)
(0.2594 0.0233705 -1.95911e-19)
(0.294657 0.0490196 -2.63896e-19)
(0.270827 0.0214764 0)
(0.304692 0.0518831 1.29106e-19)
(0.269453 0.021348 4.24703e-20)
(0.303363 0.0535663 -4.91951e-20)
(0.255287 0.0193762 2.3878e-21)
(0.292391 0.05609 1.27838e-20)
(0.230628 0.0144315 -3.84847e-20)
(0.274032 0.0554391 -1.37535e-20)
(0.198822 0.00604529 -3.45732e-20)
(0.249268 0.0504103 0)
(0.164635 -0.00748605 3.57535e-20)
(0.219405 0.0389906 -3.77358e-20)
(0.135604 -0.0268517 9.84987e-20)
(0.185468 0.0167739 7.44352e-20)
(0.121679 -0.045114 1.03544e-19)
(0.150015 -0.0169442 4.25363e-20)
(0.127452 -0.044744 2.11549e-19)
(0.316573 0.0523175 -2.25353e-21)
(0.331512 0.0425765 -9.93743e-20)
(0.338755 0.0556595 -2.86657e-20)
(0.353737 0.0451215 3.75125e-20)
(0.344909 0.0648663 6.52628e-20)
(0.358714 0.0551295 -6.66576e-20)
(0.340856 0.0743334 8.02006e-20)
(0.352641 0.067175 1.62261e-19)
(0.329506 0.0801001 -8.11809e-20)
(0.340959 0.0778397 -6.31917e-20)
(0.314942 0.0828819 -3.50722e-21)
(0.327791 0.0840217 -4.52706e-20)