/*--------------------------------*- C++ -*----------------------------------*\
| =========                 |                                                 |
| \\      /  F ield         | OpenFOAM: The Open Source CFD Toolbox           |
|  \\    /   O peration     | Version:  2.3.1                                 |
|   \\  /    A nd           | Web:      www.OpenFOAM.org                      |
|    \\/     M anipulation  |                                                 |
\*---------------------------------------------------------------------------*/
FoamFile
{
    version     2.0;
    format      ascii;
    class       volScalarField;
    location    "0.58";
    object      k;
}
// * * * * * * * * * * * * * * * * * * * * * * * * * * * * * * * * * * * * * //

dimensions      [0 2 -2 0 0 0 0];

internalField   nonuniform List<scalar> 
1000
(
0.00249819
0.00255668
0.00255773
0.00255765
0.00255761
0.0025576
0.00255758
0.00255758
0.00255746
0.00255268
0.00255802
0.00256598
0.00256643
0.00256641
0.0025664
0.00256639
0.00256637
0.00256635
0.00256581
0.00255411
0.00256087
0.00256846
0.00256902
0.00256902
0.00256901
0.00256899
0.00256896
0.00256893
0.00256832
0.00255583
0.0025629
0.00257116
0.00257181
0.00257186
0.00257186
0.00257184
0.0025718
0.00257176
0.0025711
0.00255812
0.00256586
0.00257524
0.00257604
0.00257617
0.00257621
0.00257619
0.00257617
0.00257604
0.00257532
0.0025613
0.00255656
0.0025643
0.00256502
0.00256514
0.00256519
0.00256521
0.00256521
0.00256521
0.00256474
0.00255418
0.00256534
0.00283068
0.00284618
0.00284693
0.002847
0.00284703
0.00284703
0.00284668
0.00283385
0.00256271
0.0025675
0.00284807
0.00286466
0.00286541
0.00286545
0.00286545
0.00286544
0.00286503
0.00285114
0.00256483
0.00256957
0.00284969
0.00286631
0.00286707
0.0028671
0.00286709
0.00286708
0.00286666
0.00285267
0.00256694
0.00257238
0.00285154
0.00286834
0.00286917
0.00286923
0.00286923
0.0028692
0.00286872
0.00285455
0.00256984
0.00255949
0.00256607
0.00256674
0.00256686
0.00256692
0.00256695
0.00256696
0.00256696
0.00256645
0.00255545
0.00256674
0.00284633
0.00286286
0.00286363
0.00286369
0.00286371
0.00286372
0.00286333
0.00284954
0.00256436
0.00256864
0.00286443
0.00288231
0.00288313
0.00288316
0.00288316
0.00288316
0.00288271
0.00286776
0.00256629
0.00257052
0.00286587
0.00288381
0.00288464
0.00288467
0.00288467
0.00288465
0.00288419
0.00286915
0.00256814
0.00257298
0.00286688
0.00288489
0.00288575
0.0028858
0.00288579
0.00288577
0.00288527
0.00287015
0.00257062
0.00256064
0.00256709
0.0025677
0.00256779
0.00256784
0.00256786
0.00256788
0.00256787
0.00256737
0.00255633
0.0025676
0.00284772
0.00286418
0.00286493
0.00286498
0.002865
0.002865
0.00286461
0.00285076
0.00256517
0.00256926
0.00286528
0.00288316
0.00288397
0.00288401
0.00288401
0.002884
0.00288355
0.00286857
0.00256693
0.00257093
0.00286659
0.00288452
0.00288535
0.00288538
0.00288538
0.00288537
0.0028849
0.00286985
0.00256856
0.00257308
0.00286725
0.0028852
0.00288604
0.00288608
0.00288608
0.00288606
0.00288557
0.00287049
0.00257069
0.00256125
0.00256764
0.00256821
0.00256828
0.00256831
0.00256834
0.00256835
0.00256834
0.00256783
0.00255678
0.0025681
0.00284842
0.00286484
0.00286558
0.00286562
0.00286563
0.00286563
0.00286523
0.00285136
0.00256559
0.00256962
0.00286542
0.00288325
0.00288406
0.0028841
0.0028841
0.00288409
0.00288363
0.00286867
0.00256725
0.00257116
0.00286663
0.00288452
0.00288534
0.00288537
0.00288537
0.00288536
0.00288489
0.00286987
0.00256876
0.00257314
0.00286717
0.00288504
0.00288587
0.00288591
0.0028859
0.00288588
0.0028854
0.00287037
0.00257071
0.00256137
0.00256788
0.00256843
0.00256849
0.00256852
0.00256854
0.00256855
0.00256854
0.00256802
0.00255681
0.00256823
0.00284888
0.00286528
0.00286602
0.00286605
0.00286605
0.00286605
0.00286564
0.00285176
0.00256567
0.00256977
0.00286557
0.00288337
0.00288419
0.00288422
0.00288423
0.00288422
0.00288375
0.00286878
0.00256737
0.00257135
0.00286677
0.00288462
0.00288544
0.00288548
0.00288548
0.00288547
0.00288499
0.00286998
0.00256893
0.00257335
0.00286731
0.00288513
0.00288596
0.002886
0.002886
0.00288598
0.00288549
0.00287047
0.00257089
0.00256104
0.00256787
0.00256843
0.00256848
0.00256851
0.00256852
0.00256853
0.0025685
0.00256797
0.00255643
0.00256804
0.00284905
0.00286546
0.00286619
0.00286622
0.00286622
0.00286622
0.0028658
0.00285191
0.00256544
0.00256977
0.00286577
0.00288357
0.00288438
0.00288442
0.00288442
0.00288442
0.00288395
0.00286897
0.00256732
0.00257158
0.00286706
0.00288491
0.00288574
0.00288578
0.00288578
0.00288577
0.00288528
0.00287025
0.0025691
0.00257383
0.00286773
0.00288555
0.00288639
0.00288643
0.00288643
0.00288641
0.0028859
0.00287086
0.00257131
0.00256026
0.00256738
0.00256795
0.002568
0.00256802
0.00256803
0.00256803
0.002568
0.00256746
0.00255562
0.00256746
0.00284869
0.00286506
0.00286579
0.00286582
0.00286583
0.00286582
0.0028654
0.00285153
0.00256481
0.00256947
0.0028654
0.00288314
0.00288397
0.002884
0.00288401
0.002884
0.00288352
0.00286857
0.00256698
0.00257163
0.00286677
0.00288457
0.00288541
0.00288545
0.00288545
0.00288544
0.00288494
0.00286993
0.0025691
0.00257435
0.00286765
0.00288543
0.00288628
0.00288633
0.00288634
0.00288629
0.00288576
0.00287071
0.00257177
0.00255896
0.00256587
0.00256641
0.00256646
0.00256648
0.00256648
0.00256648
0.00256645
0.00256593
0.00255427
0.00256607
0.00283398
0.0028493
0.00284997
0.00284999
0.00285
0.00284999
0.0028496
0.00283655
0.00256327
0.00256838
0.00284927
0.0028658
0.00286654
0.00286657
0.00286658
0.00286657
0.00286613
0.00285213
0.00256572
0.00257092
0.00284994
0.00286645
0.0028672
0.00286723
0.00286724
0.00286722
0.00286676
0.00285275
0.0025682
0.00257425
0.00284977
0.00286615
0.0028669
0.00286694
0.00286694
0.0028669
0.00286641
0.00285243
0.00257148
0.00255284
0.00255305
0.00255308
0.00255309
0.00255309
0.0025531
0.0025531
0.00255309
0.00255297
0.00254789
0.00255464
0.00256239
0.00256303
0.00256308
0.0025631
0.00256311
0.00256309
0.00256306
0.00256247
0.00254981
0.00255685
0.00256519
0.00256593
0.00256602
0.00256604
0.00256605
0.00256603
0.00256596
0.00256528
0.00255201
0.00255974
0.00256814
0.00256895
0.00256907
0.00256912
0.00256912
0.00256908
0.00256896
0.00256818
0.00255489
0.00256414
0.00257262
0.00257355
0.00257371
0.00257377
0.00257377
0.0025737
0.0025735
0.00257261
0.00255932
0.00257513
0.00258262
0.00258363
0.00258383
0.00258389
0.00258389
0.00258381
0.00258357
0.00258246
0.00257045
0.00258933
0.00260904
0.0026106
0.00261047
0.00261029
0.00261028
0.00261047
0.0026105
0.00260939
0.00258524
0.0027195
0.0029766
0.00298438
0.00297437
0.00297076
0.00297065
0.00297372
0.00298349
0.00298324
0.00272195
0.00398427
0.00632141
0.00643165
0.00636861
0.00634484
0.00634314
0.00636286
0.00642339
0.00636995
0.00404388
0.0102344
0.0201655
0.0211037
0.0211214
0.0211113
0.0211048
0.0211
0.0210711
0.0203198
0.0104257
0.00257782
0.00284658
0.00286249
0.00286323
0.00286325
0.00286324
0.00286321
0.0028627
0.00284907
0.00257507
0.00258328
0.00286188
0.00288
0.00288132
0.00288141
0.00288141
0.00288134
0.00288031
0.0028648
0.00258072
0.00260458
0.00302589
0.00306004
0.00306535
0.00306658
0.00306662
0.00306541
0.00306083
0.00303108
0.00260288
0.00296627
0.00410768
0.00415588
0.00415601
0.0041551
0.00415473
0.00415521
0.00415591
0.00413513
0.00298422
0.0138389
0.0411319
0.0429031
0.0427801
0.0427035
0.0426922
0.0427443
0.0428668
0.041522
0.0141995
0.00257594
0.00286747
0.00288533
0.00288622
0.00288629
0.00288628
0.00288622
0.00288563
0.00287049
0.00257343
0.00257912
0.00286873
0.00288673
0.00288765
0.00288769
0.00288769
0.00288767
0.00288707
0.00287189
0.00257676
0.00258486
0.00292295
0.00294901
0.00295228
0.00295299
0.00295301
0.00295236
0.00294966
0.0029274
0.00258282
0.00282544
0.00406969
0.00415807
0.00416701
0.00416887
0.00416875
0.00416692
0.00415993
0.00409266
0.00283736
0.0144073
0.0418801
0.0432538
0.043214
0.0431741
0.0431686
0.0431986
0.0432607
0.042286
0.0147857
0.0025744
0.00286724
0.00288517
0.00288603
0.00288608
0.00288608
0.00288603
0.0028855
0.00287035
0.00257192
0.00257667
0.00286689
0.00288474
0.00288556
0.00288559
0.00288559
0.00288557
0.00288508
0.00287005
0.00257428
0.00257984
0.00288796
0.00290799
0.00290927
0.00290945
0.00290945
0.00290931
0.00290846
0.00289176
0.00257768
0.00280484
0.0039692
0.00404693
0.00405324
0.00405438
0.00405436
0.00405331
0.00404913
0.00399185
0.00281595
0.0148782
0.0437181
0.0451055
0.0451273
0.0451109
0.0451086
0.0451225
0.0451367
0.0441664
0.0152855
0.00257349
0.00286653
0.00288445
0.00288529
0.00288533
0.00288532
0.00288529
0.00288479
0.00286968
0.00257104
0.00257548
0.00286611
0.00288394
0.00288474
0.00288476
0.00288475
0.00288474
0.00288428
0.00286928
0.00257308
0.00257827
0.00288193
0.00290114
0.00290214
0.00290222
0.00290222
0.00290217
0.00290157
0.00288559
0.00257605
0.00280141
0.00393793
0.00400957
0.00401427
0.004015
0.00401502
0.00401443
0.00401184
0.00396037
0.00281241
0.0150975
0.0445348
0.0459484
0.0460037
0.046001
0.0460006
0.046005
0.0459922
0.0450042
0.0155192
0.00257327
0.00286645
0.00288446
0.00288531
0.00288535
0.00288534
0.00288531
0.00288481
0.00286965
0.00257085
0.00257544
0.00286608
0.00288406
0.00288488
0.0028849
0.0028849
0.00288489
0.00288443
0.00286931
0.00257305
0.00257866
0.00288283
0.00290243
0.00290353
0.00290364
0.00290364
0.00290356
0.00290289
0.00288654
0.00257641
0.00288472
0.00415004
0.00424584
0.00426244
0.00426797
0.00426811
0.00426324
0.00424963
0.00417709
0.00290024
0.0151586
0.0445933
0.0460013
0.0460632
0.0460643
0.0460643
0.0460671
0.0460507
0.0450698
0.0155892
0.00257359
0.00286707
0.00288528
0.00288618
0.00288624
0.00288623
0.00288619
0.00288566
0.00287034
0.00257123
0.00257633
0.00286675
0.0028851
0.002886
0.00288603
0.00288603
0.00288601
0.00288552
0.00287005
0.00257392
0.00258119
0.00289518
0.002917
0.00291883
0.00291918
0.00291918
0.0029189
0.0029175
0.00289919
0.00257899
0.003062
0.00453566
0.00468059
0.00472248
0.00473777
0.0047382
0.00472444
0.00468726
0.00456919
0.00308623
0.0151686
0.044153
0.0455162
0.0455737
0.0455751
0.0455752
0.0455802
0.0455708
0.0446313
0.0156127
0.00257428
0.00286809
0.00288657
0.00288756
0.00288764
0.00288765
0.00288758
0.002887
0.00287145
0.00257194
0.00257755
0.00287018
0.00288958
0.00289071
0.0028908
0.00289079
0.00289075
0.00289
0.00287361
0.00257511
0.00258782
0.0029419
0.00297037
0.00297443
0.00297555
0.00297558
0.0029745
0.00297111
0.0029466
0.00258567
0.00329923
0.00459544
0.00478794
0.00487643
0.00490938
0.00491022
0.00488042
0.00479737
0.00462053
0.00333028
0.0150594
0.0424667
0.0437119
0.0437687
0.0437744
0.0437751
0.0437787
0.0437735
0.0429217
0.0155141
0.00257494
0.00285629
0.00287392
0.00287492
0.00287501
0.00287501
0.00287496
0.00287436
0.00285947
0.00257248
0.00257827
0.00287623
0.00289792
0.00289985
0.00290022
0.00290024
0.00289989
0.00289843
0.00287977
0.00257563
0.00259985
0.00303309
0.0030689
0.00307535
0.00307737
0.00307739
0.00307549
0.00306982
0.00303815
0.00259784
0.00299981
0.00402365
0.00414607
0.00416264
0.00416738
0.00416737
0.00416322
0.00414927
0.00404498
0.00301193
0.0138826
0.0351617
0.0361137
0.0362444
0.0362884
0.0362906
0.0362594
0.036171
0.0354747
0.0142489
0.0025663
0.00257992
0.00258138
0.00258164
0.00258174
0.00258176
0.00258163
0.00258146
0.00258017
0.00256157
0.00256781
0.00258624
0.00258805
0.00258827
0.00258835
0.00258833
0.00258828
0.00258812
0.0025864
0.00256302
0.00260714
0.00263865
0.00264258
0.00264355
0.00264381
0.00264377
0.00264363
0.00264255
0.00263919
0.00260297
0.00273496
0.00293043
0.00295877
0.00296409
0.0029657
0.00296581
0.0029643
0.00295984
0.00293579
0.00273564
0.00816541
0.0122785
0.012502
0.0125553
0.0125736
0.0125742
0.0125596
0.0125148
0.0123357
0.00826006
)
;

boundaryField
{
    walls
    {
        type            kqRWallFunction;
        value           nonuniform List<scalar> 
500
(
0.00249819
0.00249819
0.00249819
0.00255668
0.00255668
0.00255773
0.00255773
0.00255765
0.00255765
0.00255761
0.00255761
0.0025576
0.0025576
0.00255758
0.00255758
0.00255758
0.00255758
0.00255746
0.00255746
0.00255268
0.00255268
0.00255268
0.00255802
0.00255802
0.00256598
0.00256643
0.00256641
0.0025664
0.00256639
0.00256637
0.00256635
0.00256581
0.00255411
0.00255411
0.00256087
0.00256087
0.00256846
0.00256902
0.00256902
0.00256901
0.00256899
0.00256896
0.00256893
0.00256832
0.00255583
0.00255583
0.0025629
0.0025629
0.00257116
0.00257181
0.00257186
0.00257186
0.00257184
0.0025718
0.00257176
0.0025711
0.00255812
0.00255812
0.00256586
0.00256586
0.00257524
0.00257604
0.00257617
0.00257621
0.00257619
0.00257617
0.00257604
0.00257532
0.0025613
0.0025613
0.00255656
0.00255656
0.0025643
0.00256502
0.00256514
0.00256519
0.00256521
0.00256521
0.00256521
0.00256474
0.00255418
0.00255418
0.00256534
0.00256271
0.0025675
0.00256483
0.00256957
0.00256694
0.00257238
0.00256984
0.00255949
0.00255949
0.00256607
0.00256674
0.00256686
0.00256692
0.00256695
0.00256696
0.00256696
0.00256645
0.00255545
0.00255545
0.00256674
0.00256436
0.00256864
0.00256629
0.00257052
0.00256814
0.00257298
0.00257062
0.00256064
0.00256064
0.00256709
0.0025677
0.00256779
0.00256784
0.00256786
0.00256788
0.00256787
0.00256737
0.00255633
0.00255633
0.0025676
0.00256517
0.00256926
0.00256693
0.00257093
0.00256856
0.00257308
0.00257069
0.00256125
0.00256125
0.00256764
0.00256821
0.00256828
0.00256831
0.00256834
0.00256835
0.00256834
0.00256783
0.00255678
0.00255678
0.0025681
0.00256559
0.00256962
0.00256725
0.00257116
0.00256876
0.00257314
0.00257071
0.00256137
0.00256137
0.00256788
0.00256843
0.00256849
0.00256852
0.00256854
0.00256855
0.00256854
0.00256802
0.00255681
0.00255681
0.00256823
0.00256567
0.00256977
0.00256737
0.00257135
0.00256893
0.00257335
0.00257089
0.00256104
0.00256104
0.00256787
0.00256843
0.00256848
0.00256851
0.00256852
0.00256853
0.0025685
0.00256797
0.00255643
0.00255643
0.00256804
0.00256544
0.00256977
0.00256732
0.00257158
0.0025691
0.00257383
0.00257131
0.00256026
0.00256026
0.00256738
0.00256795
0.002568
0.00256802
0.00256803
0.00256803
0.002568
0.00256746
0.00255562
0.00255562
0.00256746
0.00256481
0.00256947
0.00256698
0.00257163
0.0025691
0.00257435
0.00257177
0.00255896
0.00255896
0.00256587
0.00256641
0.00256646
0.00256648
0.00256648
0.00256648
0.00256645
0.00256593
0.00255427
0.00255427
0.00256607
0.00256327
0.00256838
0.00256572
0.00257092
0.0025682
0.00257425
0.00257148
0.00255284
0.00255284
0.00255284
0.00255305
0.00255305
0.00255308
0.00255308
0.00255309
0.00255309
0.00255309
0.00255309
0.0025531
0.0025531
0.0025531
0.0025531
0.00255309
0.00255309
0.00255297
0.00255297
0.00254789
0.00254789
0.00254789
0.00255464
0.00255464
0.00256239
0.00256303
0.00256308
0.0025631
0.00256311
0.00256309
0.00256306
0.00256247
0.00254981
0.00254981
0.00255685
0.00255685
0.00256519
0.00256593
0.00256602
0.00256604
0.00256605
0.00256603
0.00256596
0.00256528
0.00255201
0.00255201
0.00255974
0.00255974
0.00256814
0.00256895
0.00256907
0.00256912
0.00256912
0.00256908
0.00256896
0.00256818
0.00255489
0.00255489
0.00256414
0.00256414
0.00257262
0.00257355
0.00257371
0.00257377
0.00257377
0.0025737
0.0025735
0.00257261
0.00255932
0.00255932
0.00257513
0.00257513
0.00258262
0.00258363
0.00258383
0.00258389
0.00258389
0.00258381
0.00258357
0.00258246
0.00257045
0.00257045
0.00258933
0.00258933
0.00260904
0.0026106
0.00261047
0.00261029
0.00261028
0.00261047
0.0026105
0.00260939
0.00258524
0.00258524
0.0027195
0.0027195
0.0029766
0.00298438
0.00297437
0.00297076
0.00297065
0.00297372
0.00298349
0.00298324
0.00272195
0.00272195
0.00398427
0.00398427
0.00632141
0.00643165
0.00636861
0.00634484
0.00634314
0.00636286
0.00642339
0.00636995
0.00404388
0.00404388
0.0102344
0.0102344
0.0201655
0.0211037
0.0211214
0.0211113
0.0211048
0.0211
0.0210711
0.0203198
0.0104257
0.0104257
0.00257782
0.00257507
0.00258328
0.00258072
0.00260458
0.00260288
0.00296627
0.00298422
0.0138389
0.0141995
0.00257594
0.00257343
0.00257912
0.00257676
0.00258486
0.00258282
0.00282544
0.00283736
0.0144073
0.0147857
0.0025744
0.00257192
0.00257667
0.00257428
0.00257984
0.00257768
0.00280484
0.00281595
0.0148782
0.0152855
0.00257349
0.00257104
0.00257548
0.00257308
0.00257827
0.00257605
0.00280141
0.00281241
0.0150975
0.0155192
0.00257327
0.00257085
0.00257544
0.00257305
0.00257866
0.00257641
0.00288472
0.00290024
0.0151586
0.0155892
0.00257359
0.00257123
0.00257633
0.00257392
0.00258119
0.00257899
0.003062
0.00308623
0.0151686
0.0156127
0.00257428
0.00257194
0.00257755
0.00257511
0.00258782
0.00258567
0.00329923
0.00333028
0.0150594
0.0155141
0.00257494
0.00257248
0.00257827
0.00257563
0.00259985
0.00259784
0.00299981
0.00301193
0.0138826
0.0142489
0.0025663
0.0025663
0.00257992
0.00258138
0.00258164
0.00258174
0.00258176
0.00258163
0.00258146
0.00258017
0.00256157
0.00256157
0.00256781
0.00256781
0.00258624
0.00258805
0.00258827
0.00258835
0.00258833
0.00258828
0.00258812
0.0025864
0.00256302
0.00256302
0.00260714
0.00260714
0.00263865
0.00264258
0.00264355
0.00264381
0.00264377
0.00264363
0.00264255
0.00263919
0.00260297
0.00260297
0.00273496
0.00273496
0.00293043
0.00295877
0.00296409
0.0029657
0.00296581
0.0029643
0.00295984
0.00293579
0.00273564
0.00273564
0.00816541
0.00816541
0.0122785
0.012502
0.0125553
0.0125736
0.0125742
0.0125596
0.0125148
0.0123357
0.00826006
0.00826006
)
;
    }
    lid
    {
        type            kqRWallFunction;
        value           nonuniform List<scalar> 
100
(
0.0102344
0.0201655
0.0211037
0.0211214
0.0211113
0.0211048
0.0211
0.0210711
0.0203198
0.0104257
0.0138389
0.0411319
0.0429031
0.0427801
0.0427035
0.0426922
0.0427443
0.0428668
0.041522
0.0141995
0.0144073
0.0418801
0.0432538
0.043214
0.0431741
0.0431686
0.0431986
0.0432607
0.042286
0.0147857
0.0148782
0.0437181
0.0451055
0.0451273
0.0451109
0.0451086
0.0451225
0.0451367
0.0441664
0.0152855
0.0150975
0.0445348
0.0459484
0.0460037
0.046001
0.0460006
0.046005
0.0459922
0.0450042
0.0155192
0.0151586
0.0445933
0.0460013
0.0460632
0.0460643
0.0460643
0.0460671
0.0460507
0.0450698
0.0155892
0.0151686
0.044153
0.0455162
0.0455737
0.0455751
0.0455752
0.0455802
0.0455708
0.0446313
0.0156127
0.0150594
0.0424667
0.0437119
0.0437687
0.0437744
0.0437751
0.0437787
0.0437735
0.0429217
0.0155141
0.0138826
0.0351617
0.0361137
0.0362444
0.0362884
0.0362906
0.0362594
0.036171
0.0354747
0.0142489
0.00816541
0.0122785
0.012502
0.0125553
0.0125736
0.0125742
0.0125596
0.0125148
0.0123357
0.00826006
)
;
    }
}


// ************************************************************************* //
