/*--------------------------------*- C++ -*----------------------------------*\
| =========                 |                                                 |
| \\      /  F ield         | OpenFOAM: The Open Source CFD Toolbox           |
|  \\    /   O peration     | Version:  2.3.1                                 |
|   \\  /    A nd           | Web:      www.OpenFOAM.org                      |
|    \\/     M anipulation  |                                                 |
\*---------------------------------------------------------------------------*/
FoamFile
{
    version     2.0;
    format      ascii;
    class       volScalarField;
    location    "0.58";
    object      p;
}
// * * * * * * * * * * * * * * * * * * * * * * * * * * * * * * * * * * * * * //

dimensions      [0 2 -2 0 0 0 0];

internalField   nonuniform List<scalar> 
1000
(
-0.00353588
-0.00338519
-0.00333142
-0.00334402
-0.00333823
-0.00333213
-0.00332101
-0.00330623
-0.00329049
-0.00328022
-0.00403165
-0.00398176
-0.00396535
-0.00397899
-0.00398218
-0.00397806
-0.00396447
-0.00394466
-0.00392383
-0.00391404
-0.00530549
-0.00531553
-0.00533787
-0.00536669
-0.00538184
-0.00538007
-0.00536035
-0.00532748
-0.00529157
-0.00527092
-0.00748191
-0.00753009
-0.00759301
-0.00765039
-0.00768205
-0.00768236
-0.00765058
-0.00759274
-0.00752587
-0.00747705
-0.0107675
-0.0109014
-0.0110363
-0.0111445
-0.0112019
-0.0112045
-0.0111512
-0.0110478
-0.0109176
-0.0107898
-0.00269514
-0.00268059
-0.00266889
-0.00268164
-0.00268229
-0.00267884
-0.0026698
-0.00265667
-0.0026414
-0.00262779
-0.00324814
-0.00324259
-0.00324547
-0.00325951
-0.0032654
-0.00326311
-0.00325169
-0.00323364
-0.00321358
-0.00319902
-0.00443568
-0.00445548
-0.00448251
-0.00451041
-0.00452558
-0.00452491
-0.00450739
-0.00447722
-0.00444248
-0.00441517
-0.00637297
-0.00643149
-0.00649414
-0.00654819
-0.00657791
-0.00657881
-0.00655001
-0.00649638
-0.0064324
-0.00637277
-0.00922005
-0.00936296
-0.00948976
-0.00958983
-0.00964281
-0.00964539
-0.009597
-0.00950149
-0.00937967
-0.00924189
-0.00137651
-0.00138664
-0.00138724
-0.00139848
-0.00140308
-0.00140274
-0.00139719
-0.00138787
-0.0013762
-0.00136469
-0.00183133
-0.00184072
-0.00185047
-0.00186386
-0.00187108
-0.00187116
-0.00186343
-0.00185011
-0.00183434
-0.00182169
-0.0027898
-0.00281225
-0.00283766
-0.00286164
-0.00287522
-0.00287592
-0.00286323
-0.00283986
-0.0028125
-0.00278878
-0.00432391
-0.00437526
-0.00442737
-0.00447114
-0.00449546
-0.0044971
-0.00447507
-0.00443362
-0.00438245
-0.00433214
-0.0065312
-0.00664912
-0.00674919
-0.00682689
-0.00686814
-0.00687074
-0.00683419
-0.00676093
-0.00666555
-0.00655128
0.000380027
0.000374063
0.000371056
0.000364709
0.000360593
0.000359103
0.000360677
0.000364559
0.000370124
0.000375596
7.44691e-05
6.87232e-05
6.13069e-05
5.24797e-05
4.67587e-05
4.51912e-05
4.81999e-05
5.48497e-05
6.28522e-05
6.83008e-05
-0.000570859
-0.000583799
-0.000600469
-0.00061624
-0.000625784
-0.000627665
-0.000621026
-0.000608095
-0.000592468
-0.000580545
-0.00159793
-0.0016282
-0.0016613
-0.00168956
-0.0017058
-0.00170789
-0.00169542
-0.00167048
-0.00164011
-0.00161186
-0.00306125
-0.00312882
-0.00319109
-0.00323982
-0.00326626
-0.00326898
-0.00324702
-0.00320292
-0.00314479
-0.00308021
0.00244941
0.00244754
0.00244751
0.00244615
0.00244414
0.00244167
0.00243912
0.00243668
0.00243495
0.00243231
0.00231344
0.00231222
0.00231057
0.00230803
0.00230551
0.00230302
0.00230114
0.00229971
0.00229907
0.00229634
0.00202475
0.00202088
0.00201572
0.00201036
0.00200635
0.00200389
0.00200336
0.00200464
0.00200649
0.00200729
0.00155844
0.00154827
0.0015361
0.00152568
0.00151906
0.00151636
0.00151868
0.00152453
0.00153297
0.00154021
0.000886863
0.00086028
0.000835371
0.000815898
0.000804772
0.000802306
0.000808275
0.000823248
0.000843745
0.000867132
0.00464492
0.00464948
0.00465581
0.00466122
0.00466193
0.00465893
0.00465218
0.00464247
0.00463205
0.00462259
0.00469236
0.00469687
0.00470359
0.00470887
0.00471074
0.00470784
0.00470065
0.00469023
0.00467897
0.00466976
0.00478318
0.00478968
0.00479818
0.0048052
0.00480816
0.00480528
0.00479724
0.00478502
0.00477183
0.00476107
0.00490487
0.00491465
0.00492604
0.00493575
0.00494013
0.00493741
0.00492794
0.00491332
0.00489729
0.00488357
0.00503893
0.0050518
0.00506468
0.00507707
0.00508297
0.00508027
0.00506965
0.00505235
0.00503548
0.00501957
0.00677388
0.00678529
0.00679863
0.00681003
0.00681524
0.00681237
0.00680141
0.00678416
0.00676491
0.00674722
0.00700736
0.00701934
0.00703587
0.00705014
0.00705717
0.00705432
0.00704167
0.00702145
0.00699899
0.00698114
0.00748646
0.00750608
0.00753123
0.00755274
0.00756375
0.00756095
0.0075445
0.00751728
0.00748656
0.00746159
0.00820792
0.00824417
0.00828416
0.00831787
0.00833532
0.0083326
0.00831015
0.00827116
0.00822657
0.0081858
0.00915425
0.00921642
0.00927602
0.00932583
0.00935169
0.00934939
0.00931867
0.00926467
0.00920189
0.00913666
0.0086331
0.00865138
0.00867232
0.00869053
0.00869985
0.00869716
0.00868211
0.0086575
0.00862956
0.00860407
0.00904686
0.00906858
0.00909627
0.00912029
0.00913289
0.00913018
0.00911195
0.00908164
0.00904719
0.00901867
0.00990829
0.00994696
0.00999218
0.0100302
0.0100503
0.0100477
0.0100223
0.00997836
0.00992729
0.00988267
0.0112373
0.0113136
0.0113908
0.0114536
0.0114864
0.0114839
0.0114465
0.0113789
0.0112975
0.0112167
0.013025
0.0131713
0.0132969
0.0133959
0.0134464
0.0134445
0.0133902
0.013288
0.0131613
0.013013
0.0100256
0.0100477
0.010075
0.010099
0.0101118
0.0101091
0.0100907
0.01006
0.0100253
0.00999554
0.0105967
0.0106247
0.0106625
0.0106953
0.0107129
0.0107103
0.0106871
0.0106479
0.0106031
0.0105681
0.011806
0.0118623
0.0119282
0.0119826
0.0120115
0.012009
0.0119751
0.011915
0.0118436
0.0117816
0.0137249
0.0138493
0.01397
0.0140644
0.0141131
0.0141111
0.0140583
0.0139599
0.0138367
0.0137087
0.0164139
0.0166885
0.0169032
0.0170622
0.0171408
0.0171394
0.0170584
0.0168984
0.0166862
0.016412
0.0107641
0.010784
0.0108145
0.0108415
0.0108561
0.0108535
0.010833
0.0107992
0.0107613
0.0107341
0.0114384
0.0114662
0.0115103
0.0115484
0.0115689
0.0115663
0.0115401
0.0114957
0.0114448
0.0114105
0.012898
0.0129649
0.0130466
0.0131124
0.013147
0.0131446
0.0131049
0.013034
0.0129476
0.0128758
0.015321
0.0154951
0.0156559
0.0157755
0.0158356
0.0158337
0.01577
0.0156477
0.0154865
0.0153106
0.0190271
0.0194903
0.0198044
0.0200169
0.0201169
0.0201157
0.0200145
0.0198033
0.0194983
0.0190387
0.024647
0.0259416
0.0265444
0.0269071
0.0270595
0.0270589
0.0269079
0.0265527
0.02598
0.0246963
0.0351356
0.0375661
0.0387408
0.0394791
0.0397769
0.0397796
0.0394917
0.0387715
0.0376626
0.0352516
0.0362498
0.0455281
0.0471112
0.0477301
0.0477896
0.0477811
0.0477092
0.047108
0.0457026
0.0364521
0.0754022
0.0929133
0.0982726
0.0997528
0.100146
0.100139
0.0997536
0.0983193
0.0932871
0.0758718
-0.00370842
-0.0164955
-0.017826
-0.018535
-0.01863
-0.0186311
-0.0185459
-0.0178587
-0.0167907
-0.00404621
0.0197748
0.0203543
0.0206844
0.020921
0.0210326
0.0210318
0.0209195
0.0206848
0.0203664
0.0197908
0.0274302
0.0287689
0.0296175
0.0302229
0.0305002
0.0305038
0.0302378
0.0296484
0.0288331
0.0275107
0.019796
0.0207847
0.0209559
0.0211789
0.0212361
0.0212319
0.0211679
0.0209372
0.0207839
0.019795
0.0323409
0.0356666
0.037124
0.0384252
0.0389601
0.0389701
0.0384675
0.0371914
0.0357323
0.0324056
0.00395359
-0.00525744
-0.0066874
-0.00740798
-0.00753873
-0.00754418
-0.00743222
-0.00674809
-0.00548313
0.00370724
0.0151482
0.0153956
0.0155568
0.0156864
0.0157521
0.0157506
0.0156817
0.0155508
0.0153922
0.0151461
0.0202636
0.0209198
0.0214175
0.0217936
0.0219806
0.0219831
0.0218024
0.0214362
0.0209549
0.0203095
0.0147845
0.0150394
0.0150223
0.015064
0.0150625
0.0150571
0.0150503
0.014998
0.0150178
0.0147632
0.0269009
0.0273906
0.0277053
0.0282095
0.0284744
0.0284822
0.0282358
0.0277416
0.0274195
0.0269457
0.0109508
0.0073309
0.00676614
0.00651853
0.00650312
0.00649815
0.00649951
0.00672468
0.00722585
0.0108358
0.0102681
0.0103575
0.0104238
0.0104835
0.0105155
0.0105132
0.010477
0.0104139
0.0103464
0.0102571
0.0129335
0.0132324
0.0134893
0.0136879
0.013791
0.0137912
0.0136899
0.0134941
0.0132454
0.0129526
0.0100327
0.0100533
0.0100138
0.0100276
0.0100231
0.0100193
0.0100154
0.00999231
0.0100303
0.010008
0.0172952
0.0181291
0.018517
0.0188694
0.0190463
0.0190513
0.0188873
0.0185466
0.0181722
0.0173465
0.0099617
0.00910842
0.00903162
0.00899784
0.00901557
0.00901193
0.00898635
0.00900939
0.00906638
0.00991658
0.00517142
0.00517756
0.00518381
0.00519359
0.00519942
0.00519726
0.00518609
0.0051722
0.00516292
0.00515529
0.00565883
0.00570271
0.00575021
0.00579442
0.00581931
0.00581749
0.00578963
0.00574294
0.00569519
0.00565339
0.00489492
0.00482241
0.00475874
0.00473744
0.00472654
0.00472313
0.00472863
0.00474305
0.00480322
0.00487629
0.00718767
0.00725351
0.00730984
0.00741594
0.00748032
0.00748281
0.00742352
0.00732294
0.00726846
0.00721193
0.00568481
0.00553898
0.00554633
0.00556773
0.00558499
0.00558247
0.00556151
0.00553414
0.0055218
0.00566743
-3.70841e-06
-6.46909e-05
-0.000111644
-0.000144317
-0.000161064
-0.000163715
-0.000151932
-0.000124214
-8.141e-05
-2.25719e-05
-0.00175409
-0.00197371
-0.00213324
-0.00223922
-0.00229037
-0.00229382
-0.00225113
-0.0021531
-0.00200177
-0.00178714
-0.000577729
-0.000779555
-0.000895924
-0.000959313
-0.000984096
-0.000986437
-0.00096644
-0.000907107
-0.000797737
-0.000593498
-0.00359904
-0.00481147
-0.00523065
-0.00539573
-0.00544318
-0.00544505
-0.00539804
-0.0052381
-0.00484782
-0.0036163
0.00051617
0.00073523
0.000744927
0.000785954
0.000800759
0.000800198
0.00078283
0.000739553
0.000737417
0.000518023
-0.00497379
-0.00510454
-0.00519252
-0.00525863
-0.00529311
-0.00529599
-0.00526628
-0.00520497
-0.00512255
-0.00499503
-0.00966681
-0.0102281
-0.0106194
-0.0108835
-0.0110115
-0.0110176
-0.0109025
-0.0106539
-0.0102813
-0.0097306
-0.00621232
-0.00669452
-0.00689678
-0.00701397
-0.00705761
-0.00706018
-0.00701929
-0.00690562
-0.00671936
-0.00623232
-0.0172612
-0.0213459
-0.0225377
-0.0230645
-0.0232382
-0.0232414
-0.0230807
-0.0225814
-0.0214816
-0.0173765
-0.00426247
-0.00341805
-0.00337471
-0.0033044
-0.00329657
-0.00329745
-0.00330561
-0.00337055
-0.00338861
-0.00424035
-0.00927102
-0.00944511
-0.00954255
-0.00962412
-0.00966822
-0.00967065
-0.00963143
-0.00955406
-0.00946151
-0.00929315
-0.018041
-0.0190076
-0.0196239
-0.0200435
-0.0202474
-0.0202558
-0.0200699
-0.0196726
-0.0190915
-0.0181458
-0.0111719
-0.0117934
-0.0119967
-0.012147
-0.0122028
-0.0122042
-0.0121524
-0.0120088
-0.0118101
-0.0111891
-0.0381488
-0.0465409
-0.048581
-0.0495752
-0.0499179
-0.0499279
-0.0496123
-0.0486651
-0.0468307
-0.0384601
-0.00596476
-0.00242051
-0.00193708
-0.00178902
-0.00179762
-0.00179841
-0.00178761
-0.00191748
-0.0022692
-0.00584683
-0.0122801
-0.0124129
-0.0124702
-0.0125404
-0.0125825
-0.012585
-0.0125459
-0.0124791
-0.0124252
-0.0122983
-0.0257188
-0.0268192
-0.0275638
-0.0281022
-0.0283707
-0.0283806
-0.0281353
-0.0276253
-0.0269169
-0.0258505
-0.0141251
-0.0144165
-0.0144485
-0.0145797
-0.0146252
-0.0146276
-0.0145847
-0.0144534
-0.0144178
-0.0141265
-0.0617497
-0.069675
-0.0720848
-0.0737502
-0.0744128
-0.0744329
-0.0738202
-0.0722264
-0.0699466
-0.0621663
-0.00164118
0.00357116
0.00491128
0.00556606
0.00570654
0.00571046
0.00558554
0.00497513
0.00377784
-0.00137553
-0.0137222
-0.0137254
-0.0137176
-0.0137599
-0.0137924
-0.0137942
-0.0137642
-0.0137234
-0.0137307
-0.0137356
-0.0309043
-0.0320176
-0.0327897
-0.0333571
-0.0336462
-0.0336561
-0.0333921
-0.032852
-0.0321172
-0.0310388
-0.0150563
-0.0148934
-0.0147604
-0.0148346
-0.0148601
-0.0148624
-0.0148332
-0.0147682
-0.0148745
-0.0150317
-0.0774184
-0.0847952
-0.0869732
-0.0886211
-0.0893171
-0.0893369
-0.0886937
-0.0871012
-0.0850122
-0.0777374
0.000310746
0.0096781
0.0113896
0.0120915
0.012189
0.0121901
0.0121098
0.0114487
0.009922
0.00063946
)
;

boundaryField
{
    walls
    {
        type            zeroGradient;
    }
    lid
    {
        type            zeroGradient;
    }
}


// ************************************************************************* //
