/*--------------------------------*- C++ -*----------------------------------*\
| =========                 |                                                 |
| \\      /  F ield         | OpenFOAM: The Open Source CFD Toolbox           |
|  \\    /   O peration     | Version:  2.3.1                                 |
|   \\  /    A nd           | Web:      www.OpenFOAM.org                      |
|    \\/     M anipulation  |                                                 |
\*---------------------------------------------------------------------------*/
FoamFile
{
    version     2.0;
    format      ascii;
    class       volVectorField;
    location    "0.58";
    object      U;
}
// * * * * * * * * * * * * * * * * * * * * * * * * * * * * * * * * * * * * * //

dimensions      [0 1 -1 0 0 0 0];

internalField   nonuniform List<vector> 
1000
(
(-0.000403402 0.00194275 0.000805272)
(-0.00107431 0.00135698 0.000813248)
(-0.00115796 0.0013029 0.000215328)
(-0.00121084 0.00126484 0.000170117)
(-0.00122864 0.00125467 8.76946e-05)
(-0.00123559 0.00124879 3.82521e-05)
(-0.00123779 0.00124171 2.78277e-06)
(-0.00123804 0.00123322 -1.70733e-05)
(-0.00123816 0.00122402 -1.87253e-05)
(-0.00123786 0.001218 -8.24194e-06)
(-0.00117658 0.00446458 0.000209786)
(-0.0013367 0.00387232 0.000247273)
(-0.00136819 0.00385567 0.000150363)
(-0.00139179 0.00382093 0.000125982)
(-0.001403 0.00381375 7.42532e-05)
(-0.00140785 0.00380375 2.67678e-05)
(-0.0014089 0.00378366 -1.17408e-05)
(-0.00140822 0.00375511 -3.38855e-05)
(-0.00140576 0.00372306 -2.76486e-05)
(-0.00137791 0.00369581 -1.05414e-05)
(-0.001606 0.00683639 0.000112375)
(-0.0016846 0.00678025 0.000187749)
(-0.00170469 0.00682748 0.000162447)
(-0.00171856 0.00685721 0.000128469)
(-0.00172666 0.00687364 7.11782e-05)
(-0.00172987 0.00686577 8.76024e-06)
(-0.00172909 0.00682995 -4.542e-05)
(-0.00172621 0.00677095 -7.75245e-05)
(-0.00172113 0.00670035 -6.72673e-05)
(-0.00168493 0.00662325 -2.83775e-05)
(-0.00220921 0.0103928 0.000111971)
(-0.00227225 0.0105081 0.000223567)
(-0.00229005 0.0106327 0.00022745)
(-0.00230316 0.0107274 0.000171921)
(-0.00231133 0.0107751 8.26791e-05)
(-0.00231359 0.0107701 -1.69238e-05)
(-0.00231003 0.0107116 -0.000106508)
(-0.00230309 0.0106028 -0.000163845)
(-0.00229293 0.0104623 -0.000158811)
(-0.00224344 0.0102878 -7.49058e-05)
(-0.00322808 0.014787 0.000213536)
(-0.00330935 0.0150584 0.000403693)
(-0.00333488 0.0152374 0.000382212)
(-0.00335393 0.0153817 0.000270574)
(-0.00336532 0.0154553 0.000113749)
(-0.00336708 0.0154523 -5.47174e-05)
(-0.00335933 0.0153739 -0.000212563)
(-0.0033443 0.0152228 -0.000327485)
(-0.00332337 0.0150387 -0.000359236)
(-0.00324702 0.0147491 -0.000193452)
(-0.0027137 0.00119286 0.000148537)
(-0.00335136 0.00115622 0.000169691)
(-0.00340757 0.00115909 0.000109432)
(-0.00347694 0.00115056 0.000104999)
(-0.00350497 0.00114708 6.60448e-05)
(-0.00351727 0.00114331 3.04785e-05)
(-0.00352062 0.00113724 9.10448e-07)
(-0.00351919 0.00112932 -1.73664e-05)
(-0.00351631 0.00111896 -2.44926e-05)
(-0.00349959 0.00108595 -1.21255e-05)
(-0.00367118 0.00340613 8.33433e-05)
(-0.00384454 0.00338906 0.000122733)
(-0.00387436 0.00341701 0.000111163)
(-0.0039098 0.00341993 9.72028e-05)
(-0.00392987 0.00342159 6.13797e-05)
(-0.00393895 0.00341497 2.24219e-05)
(-0.00393978 0.00339745 -1.15259e-05)
(-0.00393575 0.00337142 -3.24823e-05)
(-0.003928 0.0033399 -3.36516e-05)
(-0.00388095 0.00328383 -1.48799e-05)
(-0.00457711 0.00589445 7.58059e-05)
(-0.00469146 0.00593964 0.000140953)
(-0.00472587 0.00599496 0.000137688)
(-0.00475419 0.00603308 0.000110782)
(-0.00477185 0.00605159 6.24106e-05)
(-0.00477833 0.00604576 7.57823e-06)
(-0.00477466 0.006014 -4.14488e-05)
(-0.00476432 0.00596059 -7.21387e-05)
(-0.00474905 0.00589575 -7.26728e-05)
(-0.00468885 0.00581691 -3.3063e-05)
(-0.00603702 0.00887543 0.000101533)
(-0.00614663 0.00901948 0.000207036)
(-0.00618969 0.00913901 0.000204598)
(-0.00622389 0.00922814 0.000154168)
(-0.00624487 0.00927233 7.42936e-05)
(-0.00624977 0.00926835 -1.49097e-05)
(-0.00623866 0.00921607 -9.64261e-05)
(-0.00621621 0.00911838 -0.000150953)
(-0.00618544 0.00899123 -0.000160618)
(-0.00609534 0.00882506 -7.75794e-05)
(-0.00841326 0.0123103 0.000197622)
(-0.0085804 0.0126221 0.00038358)
(-0.00865344 0.0128137 0.000347202)
(-0.00870908 0.0129554 0.00024398)
(-0.00874092 0.0130252 0.000102536)
(-0.00874514 0.0130229 -4.86271e-05)
(-0.00872183 0.0129494 -0.00019138)
(-0.00867527 0.0128044 -0.000298483)
(-0.00861157 0.012612 -0.000347018)
(-0.0084528 0.0122929 -0.000182401)
(-0.00528322 0.000914539 9.95192e-05)
(-0.00539889 0.000897558 0.000143176)
(-0.00541739 0.000894863 9.05994e-05)
(-0.00545356 0.000892662 7.39581e-05)
(-0.00547605 0.000891699 4.84022e-05)
(-0.00548701 0.000889461 2.32164e-05)
(-0.00548861 0.000884975 1.09493e-06)
(-0.00548361 0.000878879 -1.33836e-05)
(-0.00547553 0.000870848 -2.12056e-05)
(-0.00543748 0.000844207 -1.11898e-05)
(-0.00589338 0.00264236 5.88507e-05)
(-0.00596892 0.00263008 9.96246e-05)
(-0.00599553 0.00263984 8.80985e-05)
(-0.00602553 0.0026464 7.33404e-05)
(-0.00604595 0.00264975 4.70973e-05)
(-0.00605504 0.00264558 1.796e-05)
(-0.00605375 0.00263231 -8.19076e-06)
(-0.00604494 0.0026122 -2.4916e-05)
(-0.00603222 0.00258759 -2.82572e-05)
(-0.00599052 0.00254005 -1.32749e-05)
(-0.00705356 0.0045002 5.29945e-05)
(-0.0071282 0.00454073 0.000106068)
(-0.00716592 0.00458012 0.000106441)
(-0.00719981 0.00461094 8.56521e-05)
(-0.0072219 0.00462613 4.89724e-05)
(-0.00722916 0.00462207 6.93018e-06)
(-0.00722184 0.00459781 -3.12328e-05)
(-0.00720358 0.00455669 -5.55179e-05)
(-0.00717996 0.00450654 -5.83653e-05)
(-0.00712767 0.00444061 -2.70457e-05)
(-0.0089551 0.00660668 7.59219e-05)
(-0.00905135 0.00672766 0.000159023)
(-0.00910958 0.0068183 0.000157968)
(-0.00915854 0.00688582 0.000119574)
(-0.00918819 0.00691929 5.84164e-05)
(-0.00919427 0.00691625 -1.01327e-05)
(-0.00917652 0.0068767 -7.33245e-05)
(-0.00914003 0.0068031 -0.000115918)
(-0.00909324 0.00670643 -0.000125494)
(-0.00900824 0.00657326 -6.03557e-05)
(-0.0118433 0.00888351 0.000146456)
(-0.0120093 0.00914381 0.000291475)
(-0.0121134 0.00930342 0.000264615)
(-0.0121955 0.009415 0.000186565)
(-0.0122417 0.00946883 7.93627e-05)
(-0.0122473 0.00946692 -3.56054e-05)
(-0.0122124 0.00941014 -0.000144321)
(-0.0121416 0.00929678 -0.0002262)
(-0.0120483 0.00913738 -0.000264133)
(-0.0118888 0.00887349 -0.00013578)
(-0.00667083 0.000564897 4.06147e-05)
(-0.00679081 0.000568652 6.78541e-05)
(-0.00682592 0.00056785 5.57343e-05)
(-0.0068567 0.000567735 4.64078e-05)
(-0.0068768 0.000567514 3.26515e-05)
(-0.00688595 0.000566179 1.79576e-05)
(-0.0068853 0.000563366 4.32042e-06)
(-0.00687694 0.000559596 -5.16613e-06)
(-0.00686498 0.000554875 -1.15386e-05)
(-0.00681426 0.000539461 -6.61656e-06)
(-0.0073779 0.00166022 2.94839e-05)
(-0.00745856 0.00167014 5.61033e-05)
(-0.00749208 0.00167622 5.58469e-05)
(-0.00752231 0.00168165 4.7591e-05)
(-0.00754276 0.00168407 3.23395e-05)
(-0.00755095 0.00168147 1.48398e-05)
(-0.00754732 0.00167311 -1.35085e-06)
(-0.0075346 0.00166057 -1.19939e-05)
(-0.00751772 0.00164552 -1.44648e-05)
(-0.00746583 0.00161775 -6.66745e-06)
(-0.00871039 0.00283364 2.88114e-05)
(-0.00878717 0.0028617 6.2204e-05)
(-0.00882962 0.00288537 6.69908e-05)
(-0.00886729 0.00290444 5.53771e-05)
(-0.00889165 0.00291368 3.34343e-05)
(-0.00889873 0.00291084 7.8165e-06)
(-0.00888837 0.00289553 -1.58203e-05)
(-0.00886472 0.0028698 -3.10389e-05)
(-0.00883533 0.00283879 -3.21659e-05)
(-0.00877287 0.00279991 -1.41051e-05)
(-0.0107981 0.00408615 4.29065e-05)
(-0.0109026 0.00415722 9.4573e-05)
(-0.0109685 0.0042118 9.83409e-05)
(-0.0110248 0.00425261 7.6022e-05)
(-0.0110588 0.00427264 3.88614e-05)
(-0.0110651 0.00427027 -3.14792e-06)
(-0.0110435 0.00424541 -4.22163e-05)
(-0.0109992 0.00420008 -6.84827e-05)
(-0.0109441 0.00414114 -7.22292e-05)
(-0.0108472 0.00406412 -3.321e-05)
(-0.0137654 0.00532899 8.20465e-05)
(-0.0139397 0.00547865 0.000171285)
(-0.014054 0.00557945 0.000162277)
(-0.0141457 0.00564891 0.000116174)
(-0.0141977 0.00568192 5.10727e-05)
(-0.0142038 0.00568022 -1.93586e-05)
(-0.0141638 0.00564424 -8.59406e-05)
(-0.014084 0.00557297 -0.000135416)
(-0.0139803 0.00547168 -0.00015281)
(-0.0138111 0.00532019 -7.50203e-05)
(-0.00747076 0.000213808 1.51686e-05)
(-0.0075516 0.000215547 2.76983e-05)
(-0.00758274 0.000214404 2.57876e-05)
(-0.00760916 0.000213676 2.31043e-05)
(-0.00762692 0.000213032 1.91666e-05)
(-0.0076342 0.000212205 1.47235e-05)
(-0.00763143 0.000211066 1.01025e-05)
(-0.00762071 0.000209727 5.90386e-06)
(-0.00760628 0.00020816 9.37753e-07)
(-0.00754974 0.000202989 -6.58795e-07)
(-0.00818615 0.000632062 1.16384e-05)
(-0.00825587 0.000635122 2.3154e-05)
(-0.00828841 0.000635174 2.45995e-05)
(-0.0083177 0.000635432 2.26674e-05)
(-0.00833736 0.000634959 1.85068e-05)
(-0.0083442 0.000633194 1.34273e-05)
(-0.00833842 0.000629925 8.17424e-06)
(-0.00832298 0.000625444 3.72743e-06)
(-0.00830364 0.0006203 4.39678e-07)
(-0.00824795 0.000611048 -3.14832e-07)
(-0.00957853 0.00108015 1.0589e-05)
(-0.0096519 0.00108864 2.32691e-05)
(-0.00969526 0.00109499 2.6316e-05)
(-0.00973443 0.00109983 2.36099e-05)
(-0.00975963 0.00110148 1.75746e-05)
(-0.00976591 0.00109935 1.02381e-05)
(-0.00975318 0.00109323 2.81521e-06)
(-0.00972595 0.00108378 -2.97954e-06)
(-0.00969323 0.00107255 -5.49601e-06)
(-0.00962815 0.00105935 -2.69506e-06)
(-0.011718 0.00155124 1.47497e-05)
(-0.0118211 0.00157555 3.31485e-05)
(-0.0118898 0.00159441 3.56942e-05)
(-0.0119496 0.00160786 2.924e-05)
(-0.0119859 0.0016137 1.81077e-05)
(-0.0119918 0.00161162 5.27473e-06)
(-0.0119673 0.00160165 -7.28147e-06)
(-0.0119184 0.0015842 -1.68342e-05)
(-0.0118591 0.00156179 -1.98546e-05)
(-0.0117614 0.00153457 -9.27624e-06)
(-0.0146265 0.00199427 2.83703e-05)
(-0.014791 0.00204851 6.05168e-05)
(-0.0149065 0.00208802 5.84975e-05)
(-0.0150018 0.00211408 4.28551e-05)
(-0.0150564 0.00212557 2.13273e-05)
(-0.0150624 0.00212377 -1.77199e-06)
(-0.0150196 0.00210897 -2.45288e-05)
(-0.0149358 0.0020802 -4.28202e-05)
(-0.0148299 0.00203904 -4.998e-05)
(-0.0146696 0.00198344 -2.43935e-05)
(-0.00755028 -0.000140338 5.05697e-07)
(-0.0076184 -0.000146475 -7.55872e-07)
(-0.00764576 -0.00014963 -6.80982e-07)
(-0.00766957 -0.00015222 2.24824e-06)
(-0.00768561 -0.000153984 7.6136e-06)
(-0.00769126 -0.000154563 1.34402e-05)
(-0.0076867 -0.000154039 1.78036e-05)
(-0.00767438 -0.000152716 1.88814e-05)
(-0.00765807 -0.000150981 1.52034e-05)
(-0.00760028 -0.000145962 6.01734e-06)
(-0.0082664 -0.000415543 -1.04163e-06)
(-0.00833113 -0.000427357 -4.56521e-06)
(-0.00836256 -0.000435825 -5.39772e-06)
(-0.00839102 -0.000442932 -1.4038e-06)
(-0.00840992 -0.000447694 5.83341e-06)
(-0.00841545 -0.000449048 1.37814e-05)
(-0.00840772 -0.000447193 1.98802e-05)
(-0.00839004 -0.000442881 2.17611e-05)
(-0.00836815 -0.000437467 1.70716e-05)
(-0.00831062 -0.000428065 6.51382e-06)
(-0.00967409 -0.000698121 -5.47111e-06)
(-0.0097477 -0.000712819 -1.4301e-05)
(-0.00979303 -0.00072612 -1.53998e-05)
(-0.00983388 -0.000737639 -9.07381e-06)
(-0.00985966 -0.000744965 1.94767e-06)
(-0.00986499 -0.000746853 1.42726e-05)
(-0.0098499 -0.000743376 2.41793e-05)
(-0.00981906 -0.00073556 2.83868e-05)
(-0.00978206 -0.000725772 2.35265e-05)
(-0.00971342 -0.000713447 9.26827e-06)
(-0.0118343 -0.000961756 -1.24964e-05)
(-0.0119424 -0.00098295 -2.92299e-05)
(-0.0120172 -0.00100068 -3.02215e-05)
(-0.0120819 -0.00101597 -2.0193e-05)
(-0.0121204 -0.00102529 -3.31269e-06)
(-0.0121258 -0.00102739 1.54327e-05)
(-0.0120978 -0.00102222 3.12346e-05)
(-0.0120431 -0.00101092 3.93789e-05)
(-0.0119763 -0.000996655 3.53689e-05)
(-0.0118721 -0.000977297 1.48568e-05)
(-0.0147408 -0.00117477 -2.23304e-05)
(-0.0149147 -0.00120269 -4.90184e-05)
(-0.0150407 -0.00122222 -4.86827e-05)
(-0.0151441 -0.00123941 -3.37756e-05)
(-0.0152026 -0.00124975 -9.47683e-06)
(-0.0152082 -0.00125186 1.73785e-05)
(-0.015161 -0.0012456 4.07529e-05)
(-0.0150683 -0.00123219 5.41261e-05)
(-0.0149514 -0.00121589 5.23955e-05)
(-0.0147811 -0.00118937 2.35951e-05)
(-0.00691937 -0.000490683 -1.04713e-05)
(-0.00697893 -0.000507165 -2.40108e-05)
(-0.00700312 -0.000513813 -2.42192e-05)
(-0.00702433 -0.00051914 -1.67338e-05)
(-0.0070387 -0.000522486 -2.52782e-06)
(-0.00704299 -0.000522971 1.36358e-05)
(-0.00703735 -0.000520666 2.69748e-05)
(-0.00702418 -0.000516281 3.342e-05)
(-0.00700708 -0.000510698 3.06113e-05)
(-0.00695248 -0.000494584 1.30339e-05)
(-0.00760986 -0.0014597 -1.24838e-05)
(-0.00767162 -0.00149123 -3.07718e-05)
(-0.00770246 -0.00151146 -3.45013e-05)
(-0.00772979 -0.00152825 -2.47217e-05)
(-0.00774763 -0.00153833 -5.9158e-06)
(-0.00775197 -0.0015396 1.56377e-05)
(-0.00774287 -0.00153213 3.35911e-05)
(-0.0077235 -0.00151776 4.22807e-05)
(-0.00769935 -0.0015 3.62491e-05)
(-0.00764153 -0.00146956 1.45803e-05)
(-0.0089929 -0.00248788 -2.30299e-05)
(-0.00906995 -0.00253197 -5.48616e-05)
(-0.00911895 -0.0025699 -5.96194e-05)
(-0.00916162 -0.00260132 -4.3089e-05)
(-0.00918765 -0.00261932 -1.35364e-05)
(-0.00919206 -0.00262126 2.00024e-05)
(-0.00917479 -0.00260713 4.87893e-05)
(-0.00914019 -0.00257942 6.43789e-05)
(-0.00909763 -0.00254487 5.79788e-05)
(-0.00902378 -0.00250228 2.41149e-05)
(-0.0111676 -0.00351557 -4.513e-05)
(-0.0112908 -0.00359259 -0.000101569)
(-0.0113777 -0.00365452 -0.00010382)
(-0.0114495 -0.0037036 -7.40988e-05)
(-0.0114907 -0.0037305 -2.57984e-05)
(-0.0114954 -0.00373285 2.78648e-05)
(-0.0114634 -0.00371069 7.54662e-05)
(-0.0114004 -0.0036663 0.000104502)
(-0.0113206 -0.00360868 0.000101769)
(-0.0112003 -0.00353323 4.51053e-05)
(-0.0141936 -0.0044183 -8.51665e-05)
(-0.0144107 -0.00454599 -0.000179848)
(-0.0145653 -0.00463383 -0.000171195)
(-0.0146856 -0.00470036 -0.000119246)
(-0.0147509 -0.00473516 -4.28208e-05)
(-0.0147559 -0.00473766 3.98646e-05)
(-0.0147012 -0.00470815 0.000115519)
(-0.0145911 -0.00464692 0.000166867)
(-0.0144456 -0.00456465 0.000176604)
(-0.0142318 -0.00443896 8.40929e-05)
(-0.00560054 -0.00082115 -1.93787e-05)
(-0.00564702 -0.000850596 -4.38694e-05)
(-0.00566681 -0.000862045 -4.4971e-05)
(-0.00568428 -0.000870902 -3.33221e-05)
(-0.00569603 -0.000876112 -1.10475e-05)
(-0.00569906 -0.000876614 1.47922e-05)
(-0.00569344 -0.000872383 3.65985e-05)
(-0.00568135 -0.000864483 4.80876e-05)
(-0.00566616 -0.000854064 4.57783e-05)
(-0.00562208 -0.000824719 1.98899e-05)
(-0.00621448 -0.00245971 -2.48577e-05)
(-0.00626819 -0.00251625 -5.76518e-05)
(-0.00629627 -0.00255173 -6.27272e-05)
(-0.00632065 -0.00258043 -4.65817e-05)
(-0.00633609 -0.00259682 -1.63443e-05)
(-0.00633928 -0.00259818 1.85353e-05)
(-0.00633013 -0.0025845 4.83484e-05)
(-0.00631138 -0.00255845 6.43309e-05)
(-0.00628789 -0.00252548 5.85809e-05)
(-0.00623627 -0.00246967 2.50162e-05)
(-0.00748633 -0.00425637 -4.53701e-05)
(-0.00756152 -0.00433991 -0.000102124)
(-0.0076116 -0.00440995 -0.000106802)
(-0.00765322 -0.00446598 -7.78267e-05)
(-0.00767767 -0.00449675 -2.84967e-05)
(-0.00768102 -0.00449891 2.71415e-05)
(-0.00766326 -0.00447255 7.60886e-05)
(-0.00762779 -0.00442093 0.000105113)
(-0.00758268 -0.0043549 0.000100736)
(-0.0075094 -0.00427271 4.46422e-05)
(-0.00959421 -0.00616379 -9.06467e-05)
(-0.00973183 -0.00632336 -0.000193878)
(-0.00983028 -0.0064465 -0.000189001)
(-0.00990658 -0.00653936 -0.000133355)
(-0.00994829 -0.0065879 -4.92129e-05)
(-0.00995199 -0.00659066 4.27447e-05)
(-0.00991793 -0.006548 0.000126342)
(-0.00984895 -0.00646132 0.000182141)
(-0.00975697 -0.00634439 0.000189071)
(-0.00962153 -0.00618677 8.88491e-05)
(-0.0127785 -0.00801113 -0.000182248)
(-0.0130663 -0.00830933 -0.000363929)
(-0.013262 -0.00849987 -0.000324276)
(-0.0134016 -0.00863436 -0.000219541)
(-0.0134725 -0.00870049 -7.98502e-05)
(-0.0134768 -0.00870353 6.71148e-05)
(-0.0134151 -0.0086444 0.000205721)
(-0.0132854 -0.00851771 0.000310014)
(-0.0131 -0.00833704 0.000353872)
(-0.0128155 -0.00804236 0.000179043)
(-0.00365092 -0.00109864 -2.42869e-05)
(-0.00367494 -0.00113733 -5.65174e-05)
(-0.00368692 -0.00115342 -6.04865e-05)
(-0.00369833 -0.00116585 -4.59156e-05)
(-0.003706 -0.00117293 -1.72982e-05)
(-0.00370777 -0.00117347 1.62188e-05)
(-0.00370364 -0.00116743 4.46701e-05)
(-0.0036953 -0.00115606 5.97644e-05)
(-0.00368583 -0.00114103 5.57842e-05)
(-0.00366292 -0.00110246 2.37576e-05)
(-0.00409965 -0.00332137 -3.28684e-05)
(-0.00415958 -0.00339576 -7.69624e-05)
(-0.0041811 -0.00344722 -8.57766e-05)
(-0.00419849 -0.0034882 -6.43974e-05)
(-0.00420935 -0.00351095 -2.44583e-05)
(-0.00421128 -0.00351246 2.16214e-05)
(-0.00420424 -0.00349273 6.14417e-05)
(-0.00419029 -0.00345483 8.33905e-05)
(-0.00417158 -0.00340621 7.51166e-05)
(-0.00411229 -0.00333256 3.1883e-05)
(-0.00507678 -0.00586788 -6.50324e-05)
(-0.00516666 -0.00599014 -0.00014442)
(-0.00520984 -0.00609782 -0.000150479)
(-0.00524253 -0.00618103 -0.000108985)
(-0.00526106 -0.00622525 -4.12336e-05)
(-0.00526319 -0.00622769 3.44156e-05)
(-0.0052489 -0.00618867 0.00010194)
(-0.0052202 -0.00611085 0.000144135)
(-0.00518053 -0.0060084 0.000139991)
(-0.00509122 -0.00588783 6.32061e-05)
(-0.00684514 -0.0088105 -0.000141653)
(-0.00701799 -0.00907627 -0.00029363)
(-0.00711326 -0.00928143 -0.000277854)
(-0.00717931 -0.00942814 -0.000191884)
(-0.00721339 -0.00950141 -7.10756e-05)
(-0.00721585 -0.00950471 5.82104e-05)
(-0.00718687 -0.00943873 0.000178357)
(-0.00712621 -0.00930042 0.000264725)
(-0.00703657 -0.00910482 0.000284478)
(-0.00686481 -0.00884216 0.000138425)
(-0.00995287 -0.0121263 -0.0003188)
(-0.0103574 -0.0127246 -0.000606105)
(-0.0105735 -0.013086 -0.000506253)
(-0.0107073 -0.0133203 -0.000329495)
(-0.0107697 -0.0134274 -0.000117867)
(-0.0107726 -0.0134311 9.71858e-05)
(-0.0107169 -0.0133333 0.000306689)
(-0.0105917 -0.0131109 0.000481587)
(-0.0103868 -0.012768 0.00058843)
(-0.00998573 -0.0121765 0.000313455)
(-0.00130095 -0.00126262 -2.32072e-05)
(-0.00130416 -0.00127672 -5.65927e-05)
(-0.00130762 -0.00129346 -6.71244e-05)
(-0.00131156 -0.00130777 -5.1988e-05)
(-0.00131427 -0.00131589 -2.03472e-05)
(-0.0013149 -0.00131643 1.70076e-05)
(-0.00131343 -0.00130936 4.86756e-05)
(-0.00131057 -0.00129614 6.4715e-05)
(-0.00130797 -0.00128036 5.47176e-05)
(-0.00130518 -0.00126656 2.22097e-05)
(-0.00147338 -0.00385087 -3.37628e-05)
(-0.00150726 -0.00390827 -8.10962e-05)
(-0.00151572 -0.00396917 -9.75119e-05)
(-0.00152216 -0.00401821 -7.39328e-05)
(-0.00152622 -0.00404498 -2.87358e-05)
(-0.00152693 -0.00404657 2.35657e-05)
(-0.00152428 -0.00402297 6.87692e-05)
(-0.00151913 -0.00397721 9.32927e-05)
(-0.00151179 -0.00391938 7.79548e-05)
(-0.00147788 -0.00386301 3.22869e-05)
(-0.00186885 -0.00696889 -7.48923e-05)
(-0.00192056 -0.00712969 -0.000165122)
(-0.00193901 -0.00727025 -0.000177558)
(-0.00195203 -0.00737405 -0.000127922)
(-0.00195928 -0.00742761 -4.86801e-05)
(-0.00196008 -0.00743027 3.91781e-05)
(-0.00195441 -0.00738232 0.000118305)
(-0.0019429 -0.0072848 0.000168871)
(-0.00192598 -0.00715086 0.000159013)
(-0.00187423 -0.0069921 7.25603e-05)
(-0.00264267 -0.0109944 -0.000185418)
(-0.0027396 -0.0114067 -0.000368176)
(-0.00278386 -0.0116982 -0.000343297)
(-0.00281212 -0.0118908 -0.000231687)
(-0.00282613 -0.0119826 -8.50568e-05)
(-0.00282709 -0.0119862 6.89568e-05)
(-0.00281496 -0.0119027 0.000214594)
(-0.00278899 -0.0117208 0.000326021)
(-0.0027474 -0.0114429 0.000356025)
(-0.00265064 -0.0110356 0.000181511)
(-0.00418806 -0.0167268 -0.000482836)
(-0.00442401 -0.0178511 -0.000853886)
(-0.00453526 -0.018438 -0.000665284)
(-0.00459711 -0.018773 -0.000413192)
(-0.00462415 -0.0189132 -0.000144261)
(-0.0046253 -0.0189173 0.000119257)
(-0.00460091 -0.0187883 0.000384477)
(-0.00454307 -0.0184703 0.000631906)
(-0.00443761 -0.0179167 0.000828597)
(-0.00420354 -0.0168054 0.000475101)
(-0.00756429 -0.0257642 -0.00132153)
(-0.00825818 -0.0284809 -0.002084)
(-0.00854507 -0.0295824 -0.00127465)
(-0.00868022 -0.0301421 -0.000708778)
(-0.00872949 -0.0303415 -0.00022962)
(-0.00873083 -0.0303464 0.000194145)
(-0.00868544 -0.0301591 0.00066318)
(-0.00855811 -0.0296263 0.00120609)
(-0.0082896 -0.0285999 0.00202492)
(-0.00760215 -0.0259117 0.0013047)
(-0.0139853 -0.0286197 -0.00345716)
(-0.0157601 -0.0384336 -0.00481863)
(-0.0162653 -0.0395402 -0.00232949)
(-0.0164474 -0.0396783 -0.00116118)
(-0.0164897 -0.039557 -0.000343472)
(-0.0164901 -0.0395469 0.000297229)
(-0.0164493 -0.0396587 0.00109405)
(-0.016277 -0.0395266 0.00219048)
(-0.0158197 -0.038642 0.00468697)
(-0.0140569 -0.0288728 0.0034233)
(-0.0275906 -0.0895197 -0.0104206)
(-0.0337709 -0.110261 -0.0121009)
(-0.0352289 -0.114746 -0.00248056)
(-0.0356479 -0.115632 -0.000740249)
(-0.0356879 -0.115811 -0.000110352)
(-0.0356849 -0.11581 0.000102844)
(-0.0356461 -0.115635 0.000697888)
(-0.0352526 -0.114798 0.00220795)
(-0.0339302 -0.110774 0.0118)
(-0.0278116 -0.0902128 0.0103641)
(-0.0328592 -0.0114445 -0.0201508)
(-0.016863 -0.0679298 -0.0178855)
(-0.0197548 -0.0620445 -0.0057053)
(-0.0211689 -0.055859 -0.00174283)
(-0.0215541 -0.0538717 -0.000399265)
(-0.0215587 -0.0538244 0.000361548)
(-0.0212036 -0.0556478 0.00165479)
(-0.0198379 -0.0616588 0.00534627)
(-0.0167324 -0.0684722 0.017399)
(-0.0326811 -0.0121615 0.0199461)
(0.151597 -0.315976 0.0227807)
(0.17931 -0.460692 0.0259983)
(0.183316 -0.466156 0.0075094)
(0.183924 -0.461295 0.00278909)
(0.184062 -0.459493 0.000651925)
(0.184056 -0.459429 -0.000598552)
(0.1839 -0.461045 -0.00265943)
(0.183325 -0.465854 -0.00692016)
(0.179886 -0.462497 -0.0253767)
(0.15249 -0.319127 -0.022602)
(-0.0155784 -0.0167842 -0.000730662)
(-0.0166662 -0.0182102 -0.0012677)
(-0.0171571 -0.0189797 -0.000883505)
(-0.0174232 -0.0194328 -0.000534339)
(-0.0175312 -0.019618 -0.000181904)
(-0.0175347 -0.0196235 0.000152353)
(-0.017436 -0.0194517 0.000499377)
(-0.0171845 -0.0190204 0.000839184)
(-0.0167226 -0.0182904 0.00123248)
(-0.0156451 -0.0168841 0.000720468)
(-0.0252648 -0.00809639 -0.00186152)
(-0.0278091 -0.00993282 -0.00288672)
(-0.0287084 -0.00995203 -0.00175234)
(-0.0291411 -0.00992231 -0.000970471)
(-0.0292868 -0.00985534 -0.000308862)
(-0.0292903 -0.00985144 0.000263784)
(-0.0291539 -0.00991414 0.000911991)
(-0.0287423 -0.00993737 0.00166472)
(-0.0279088 -0.00995896 0.00280923)
(-0.0253848 -0.00811989 0.00183776)
(-0.036448 -0.0337621 -0.00196302)
(-0.0458531 -0.0441598 -0.00272504)
(-0.0472895 -0.047065 -0.000748694)
(-0.0477488 -0.0484099 -0.000380975)
(-0.0477958 -0.0488214 -9.64646e-05)
(-0.0477923 -0.0488317 8.12033e-05)
(-0.0477481 -0.0484538 0.00036014)
(-0.0473147 -0.0471685 0.000677346)
(-0.046082 -0.0444664 0.00265468)
(-0.0367254 -0.0341715 0.00195182)
(-0.0982574 0.0375215 -0.0142147)
(-0.112019 0.0430414 -0.0167587)
(-0.117471 0.0470369 -0.00594738)
(-0.118939 0.0493565 -0.00261196)
(-0.119282 0.0501023 -0.000698759)
(-0.119279 0.0501184 0.000602814)
(-0.118946 0.0494277 0.00246613)
(-0.117539 0.0471948 0.00560437)
(-0.11241 0.0433396 0.0163961)
(-0.098883 0.0379432 0.0141094)
(0.151947 0.0114616 0.0138661)
(0.207316 -0.0579347 0.0170482)
(0.211875 -0.0569503 0.00516924)
(0.211991 -0.053109 0.00196838)
(0.211905 -0.0516814 0.000463407)
(0.211891 -0.0516564 -0.000416222)
(0.211953 -0.0530253 -0.00186451)
(0.211891 -0.056931 -0.00481336)
(0.208182 -0.0587583 -0.0167055)
(0.153286 0.010309 -0.0137986)
(-0.0172943 -0.0103262 -0.000357318)
(-0.0179498 -0.0109905 -0.000662212)
(-0.0183255 -0.0114032 -0.000517757)
(-0.0185695 -0.0116691 -0.000334637)
(-0.0186833 -0.0117885 -0.000118489)
(-0.0186882 -0.011793 9.89419e-05)
(-0.018586 -0.0116838 0.000312721)
(-0.018356 -0.0114322 0.000492907)
(-0.0180001 -0.0110395 0.000643345)
(-0.0173515 -0.0103856 0.000351696)
(-0.0242631 -0.00379375 -0.00087351)
(-0.0257914 -0.00407092 -0.00144444)
(-0.0265817 -0.0038489 -0.00101721)
(-0.0270499 -0.00371661 -0.000609065)
(-0.0272462 -0.00364149 -0.000204882)
(-0.0272528 -0.00363901 0.000172764)
(-0.0270726 -0.00371006 0.00057028)
(-0.0266282 -0.0038351 0.00096791)
(-0.025879 -0.00406098 0.00140351)
(-0.0243686 -0.00378031 0.000860511)
(-0.0227631 -0.016326 -0.000381847)
(-0.0250124 -0.0188141 -0.000506466)
(-0.0254383 -0.0196157 -0.000130963)
(-0.0256892 -0.0201077 -0.000115655)
(-0.0257641 -0.0202908 -3.77886e-05)
(-0.0257654 -0.0202993 2.79702e-05)
(-0.025698 -0.0201384 0.000106124)
(-0.0254558 -0.0196756 0.000111891)
(-0.0250837 -0.0189383 0.00048622)
(-0.0228366 -0.0164859 0.000376115)
(-0.0483243 0.0175763 -0.00410598)
(-0.057066 0.0237051 -0.00540807)
(-0.0605267 0.0258215 -0.00245898)
(-0.0621823 0.0268299 -0.00131566)
(-0.0627166 0.0271516 -0.000402173)
(-0.0627278 0.0271603 0.000330041)
(-0.0622305 0.0268661 0.00122372)
(-0.0606402 0.0259082 0.00230771)
(-0.0573684 0.023933 0.00526419)
(-0.0487184 0.0178531 0.00406113)
(0.134617 0.0213033 0.00556151)
(0.175486 0.0183596 0.00634126)
(0.179181 0.0209838 0.00206062)
(0.179967 0.0221108 0.000786788)
(0.180146 0.0225296 0.000183122)
(0.180144 0.0225257 -0.000158377)
(0.179971 0.0220971 -0.000735975)
(0.179259 0.0209231 -0.00192083)
(0.176167 0.0183174 -0.00621666)
(0.135738 0.0212554 -0.00554302)
(-0.0180019 -0.0053828 -0.000152718)
(-0.0184005 -0.00566372 -0.000301517)
(-0.018659 -0.00585587 -0.000259535)
(-0.018848 -0.00598716 -0.000175776)
(-0.0189449 -0.00604988 -6.31679e-05)
(-0.0189505 -0.0060531 5.4954e-05)
(-0.0188657 -0.00599726 0.000166512)
(-0.0186895 -0.00587439 0.00024922)
(-0.0184449 -0.00569208 0.000293624)
(-0.0180514 -0.00541612 0.000150338)
(-0.0231578 -0.0020626 -0.000367636)
(-0.0239958 -0.00206291 -0.000643005)
(-0.0245293 -0.00191208 -0.00049941)
(-0.0248869 -0.00182697 -0.000314824)
(-0.0250562 -0.00178408 -0.000109203)
(-0.0250637 -0.0017835 9.2852e-05)
(-0.0249115 -0.00182516 0.000295649)
(-0.0245745 -0.00190701 0.000476548)
(-0.0240669 -0.00205692 0.000624504)
(-0.0232409 -0.00205584 0.000361792)
(-0.0209777 -0.00760369 -5.65128e-05)
(-0.0215389 -0.00876916 -7.33525e-05)
(-0.0216109 -0.00918671 -1.56084e-05)
(-0.0216882 -0.00943238 -4.6093e-05)
(-0.02172 -0.00952937 -1.93027e-05)
(-0.0217219 -0.00953553 1.36249e-05)
(-0.0216964 -0.009453 4.1562e-05)
(-0.0216229 -0.00922595 1.01107e-05)
(-0.0215665 -0.0088408 6.62182e-05)
(-0.0210062 -0.00769304 5.32249e-05)
(-0.0331848 0.00546345 -0.00165567)
(-0.0332062 0.00730853 -0.00231203)
(-0.034285 0.00797917 -0.0011772)
(-0.0350526 0.00831212 -0.000659031)
(-0.0353651 0.00842231 -0.000212714)
(-0.0353771 0.0084268 0.000169359)
(-0.0350948 0.00832916 0.000606432)
(-0.0343628 0.00801698 0.0011024)
(-0.033322 0.0073918 0.00224407)
(-0.0333244 0.00555855 0.00163276)
(0.120673 0.00792383 0.00166355)
(0.156935 0.00575045 0.00191358)
(0.159877 0.00659053 0.000695148)
(0.16045 0.00696809 0.000265273)
(0.160592 0.00711817 6.04895e-05)
(0.160594 0.0071146 -4.77634e-05)
(0.160462 0.00695732 -0.000242429)
(0.15996 0.00655824 -0.000646883)
(0.157524 0.00571226 -0.00187581)
(0.12168 0.00787734 -0.001661)
(-0.0182475 -0.00139824 -3.46822e-05)
(-0.0185377 -0.00145556 -7.19062e-05)
(-0.0187398 -0.00149661 -6.74179e-05)
(-0.0188971 -0.00152892 -4.78982e-05)
(-0.0189819 -0.00154604 -1.58082e-05)
(-0.0189879 -0.00154809 1.96348e-05)
(-0.0189157 -0.00153487 5.10674e-05)
(-0.018771 -0.00150662 6.94936e-05)
(-0.0185807 -0.00146926 7.29056e-05)
(-0.0182953 -0.00141391 3.51872e-05)
(-0.0225612 -0.000645957 -7.90296e-05)
(-0.0231562 -0.000606927 -0.000143382)
(-0.0235732 -0.000543996 -0.000123153)
(-0.0238677 -0.000514562 -8.35873e-05)
(-0.024015 -0.000502106 -2.87494e-05)
(-0.024023 -0.00050316 2.8638e-05)
(-0.023893 -0.000517286 8.25701e-05)
(-0.0236178 -0.000547716 0.000120747)
(-0.0232215 -0.000610392 0.000140636)
(-0.022636 -0.000650719 7.81528e-05)
(-0.021153 -0.00238871 2.80062e-05)
(-0.0214104 -0.00262803 4.82269e-05)
(-0.0214621 -0.00273325 2.65945e-05)
(-0.021524 -0.00281952 -5.71547e-06)
(-0.021555 -0.00286266 -4.33412e-06)
(-0.0215579 -0.00286713 4.41347e-06)
(-0.021534 -0.00283335 6.26935e-06)
(-0.0214771 -0.00275773 -2.51811e-05)
(-0.0214351 -0.002662 -4.88033e-05)
(-0.0211796 -0.00243358 -2.95541e-05)
(-0.028227 0.000674417 -0.000349437)
(-0.0275035 0.00102449 -0.000508375)
(-0.0283434 0.00114187 -0.000318177)
(-0.0289124 0.00119273 -0.000213334)
(-0.029152 0.00120486 -7.64111e-05)
(-0.0291629 0.00120625 5.80039e-05)
(-0.0289482 0.0011977 0.000192261)
(-0.0284087 0.00115317 0.000295414)
(-0.027593 0.00104479 0.00048568)
(-0.028322 0.000697021 0.000337851)
(0.116195 0.000428304 0.00024073)
(0.150533 -0.000445986 0.000238042)
(0.153059 -0.000389344 4.68211e-05)
(0.153517 -0.00039911 -1.17502e-05)
(0.153645 -0.00040306 -1.00099e-05)
(0.153648 -0.000405399 1.48167e-05)
(0.153531 -0.000410494 1.90492e-05)
(0.153138 -0.000415282 -3.64131e-05)
(0.151078 -0.000484272 -0.000231866)
(0.117151 0.000371263 -0.000239834)
(-0.0182224 0.00242763 6.06672e-05)
(-0.018503 0.00256854 0.000120277)
(-0.0186921 0.00266603 0.000101258)
(-0.0188386 0.00272481 6.6708e-05)
(-0.0189182 0.00275032 2.77716e-05)
(-0.0189246 0.00274951 -1.12856e-05)
(-0.0188578 0.00272305 -5.07668e-05)
(-0.0187242 0.00266439 -8.68562e-05)
(-0.0185473 0.00256876 -0.000110654)
(-0.0182717 0.00242836 -5.72215e-05)
(-0.023007 0.000934368 0.000167238)
(-0.0236576 0.0010296 0.000292617)
(-0.024094 0.00104394 0.000215055)
(-0.0243943 0.00103578 0.000127031)
(-0.0245431 0.00102529 4.59781e-05)
(-0.0245518 0.00102282 -2.89894e-05)
(-0.0244217 0.00102912 -0.000109537)
(-0.0241422 0.0010333 -0.000197482)
(-0.0237298 0.00101932 -0.000280368)
(-0.0230897 0.000920965 -0.000163383)
(-0.0215545 0.00212613 0.000131353)
(-0.021938 0.00283739 0.000210041)
(-0.0220351 0.0030471 0.000106061)
(-0.0221075 0.00309627 4.78987e-05)
(-0.0221406 0.0030965 1.47944e-05)
(-0.0221441 0.00309319 -7.41544e-06)
(-0.0221178 0.00308673 -4.01407e-05)
(-0.0220521 0.00303411 -9.55266e-05)
(-0.0219686 0.00283902 -0.000203489)
(-0.0215862 0.00211722 -0.000131427)
(-0.0297596 -0.00241439 0.000849347)
(-0.0299938 -0.00280929 0.00115297)
(-0.0309801 -0.00302107 0.000448756)
(-0.0315435 -0.00316428 0.000163578)
(-0.0317677 -0.00322571 3.92708e-05)
(-0.0317775 -0.00322725 -3.54711e-05)
(-0.0315771 -0.00316911 -0.000156456)
(-0.0310454 -0.00302955 -0.000421621)
(-0.0301102 -0.00282905 -0.00113716)
(-0.0298739 -0.0024361 -0.000855331)
(0.117944 -0.00689152 -0.000800154)
(0.153009 -0.0063159 -0.00103477)