/*--------------------------------*- C++ -*----------------------------------*\
| =========                 |                                                 |
| \\      /  F ield         | OpenFOAM: The Open Source CFD Toolbox           |
|  \\    /   O peration     | Version:  2.3.1                                 |
|   \\  /    A nd           | Web:      www.OpenFOAM.org                      |
|    \\/     M anipulation  |                                                 |
\*---------------------------------------------------------------------------*/
FoamFile
{
    version     2.0;
    format      ascii;
    class       volScalarField;
    location    "0.78";
    object      epsilon;
}
// * * * * * * * * * * * * * * * * * * * * * * * * * * * * * * * * * * * * * //

dimensions      [0 2 -3 0 0 0 0];

internalField   nonuniform List<scalar> 
9648
(
2387.88
2398.17
2395.69
2390.12
2380.48
2365.91
2346.23
2321.47
2291.55
2256.56
2216.72
2172.19
2123.8
2072.52
2019.14
1964.57
1909.89
1856.07
1803.77
1753.49
1705.76
1660.87
1618.96
1580.21
1544.64
1512.16
1482.68
1456.1
1432.33
1411.2
1392.6
1376.4
1362.45
1350.62
1340.84
1332.95
1326.85
1322.46
1319.75
1318.64
1319.01
1320.86
1324.15
1328.81
1334.89
1342.41
1351.35
1361.67
1373.46
1386.85
1401.86
1418.43
1436.81
1456.98
1478.93
1502.48
1527.49
1553.59
1580.05
1606.24
1631.71
585.602
578.689
570.05
560.672
552.318
547.298
545.864
546.844
549.69
554.571
561.205
568.893
577.198
585.727
594.138
602.056
609.305
615.852
621.691
626.76
631.165
634.972
638.235
641.077
643.63
645.959
648.121
650.197
652.274
654.405
656.615
658.966
661.502
664.221
667.16
670.35
673.782
677.458
681.392
685.619
690.127
694.903
699.96
705.307
710.928
716.854
723.081
729.579
736.331
743.339
750.551
757.944
765.465
773.153
780.866
788.584
796.152
803.68
811.021
818.095
824.853
231.409
233.605
237.335
243.263
251.492
261.617
273.823
287.695
303.106
319.673
337.163
355.106
373.146
390.932
408.162
424.591
440.045
454.428
467.683
479.791
490.78
500.684
509.581
517.557
524.71
531.128
536.896
542.107
546.835
551.157
555.138
558.839
562.31
565.598
568.743
571.774
574.724
577.61
580.452
583.27
586.079
588.897
591.723
594.569
597.437
600.322
603.222
606.118
609.006
611.864
614.685
617.468
620.171
622.852
625.39
627.888
630.246
632.604
634.794
636.86
638.792
131.103
139.834
150.072
162.001
175.637
190.91
207.785
226.048
245.451
265.634
286.26
306.937
327.329
347.118
366.047
383.898
400.532
415.864
429.85
442.496
453.825
463.884
472.753
480.522
487.296
493.177
498.265
502.656
506.432
509.682
512.48
514.894
516.992
518.822
520.431
521.86
523.145
524.311
525.385
526.386
527.336
528.254
529.154
530.043
530.929
531.813
532.696
533.574
534.448
535.309
536.139
536.966
537.76
538.536
539.241
539.938
540.621
541.283
541.901
542.482
543.067
97.5149
109.352
122.747
137.74
154.323
172.446
191.968
212.654
234.198
256.213
278.328
300.155
321.373
341.69
360.884
378.753
395.191
410.138
423.576
435.537
446.059
455.195
463.042
469.693
475.274
479.901
483.682
486.725
489.109
490.932
492.276
493.214
493.82
494.151
494.247
494.159
493.926
493.572
493.128
492.613
492.046
491.454
490.853
490.257
489.669
489.097
488.545
488.011
487.489
486.986
486.483
485.983
485.494
485.009
484.521
484.033
483.572
483.112
482.639
482.163
481.693
84.9217
98.8354
114.436
131.685
150.486
170.735
192.215
214.634
237.634
260.787
283.713
306.009
327.391
347.581
366.425
383.706
399.347
413.342
425.679
436.444
445.69
453.459
459.888
465.051
469.115
472.215
474.458
475.974
476.826
477.119
476.952
476.384
475.512
474.393
473.054
471.556
469.954
468.25
466.487
464.681
462.844
461.01
459.199
457.43
455.694
454.004
452.361
450.779
449.246
447.749
446.287
444.848
443.437
442.052
440.682
439.36
438.078
436.811
435.545
434.289
433.03
80.9419
96.6256
114.121
133.3
153.948
175.918
198.914
222.598
246.596
270.39
293.654
315.92
336.991
356.589
374.698
390.999
405.469
418.178
429.081
438.363
446.097
452.262
457.097
460.595
463.006
464.482
465.111
465.081
464.388
463.162
461.532
459.511
457.248
454.784
452.112
449.322
446.5
443.595
440.682
437.767
434.839
431.959
429.142
426.412
423.735
421.136
418.62
416.185
413.835
411.551
409.321
407.132
405.001
402.882
400.8
398.776
396.812
394.904
393
391.077
389.182
81.0047
98.3075
117.529
138.428
160.637
183.97
208.119
232.711
257.348
281.397
304.637
326.44
346.816
365.408
382.534
397.59
410.628
421.871
431.085
438.677
444.766
449.147
452.341
454.04
454.711
454.514
453.49
451.947
449.712
446.993
443.978
440.557
436.99
433.273
429.35
425.368
421.42
417.363
413.392
409.465
405.529
401.674
397.966
394.378
390.856
387.472
384.168
380.997
377.922
374.948
372.047
369.208
366.431
363.65
360.928
358.307
355.72
353.257
350.762
348.23
345.795
82.9417
101.547
122.312
144.536
168.147
192.463
217.338
242.699
267.53
291.684
314.549
335.779
355.079
372.368
388.292
402.003
413.533
423.159
430.879
436.782
440.998
443.55
444.862
444.928
443.911
441.905
439.338
436.339
432.485
428.335
423.877
419.212
414.613
409.669
404.399
399.407
394.264
389.058
384.139
379.093
374.065
369.006
364.576
360.165
355.756
351.787
347.589
343.796
339.846
336.174
332.409
328.97
325.628
322.145
318.774
315.71
312.399
309.653
306.533
303.288
300.415
1656.54
1680.56
1703.46
1725.2
1745.97
1766.21
1786.01
1805.69
1825.24
1843.82
1861.07
1877.56
1893.56
1909.45
1925.47
1942.29
1960.51
1980.61
2002.94
2027.89
2055.14
2084.14
2114.54
2145.94
2178.04
2210.78
2244.33
2278.35
2312.81
2347.73
2383.29
2419.37
2455.97
2493.26
2531.25
2569.83
2609.11
2649.23
2690.25
2732.02
2774.57
2818.14
2862.72
2908.13
2954.7
3002.3
3050.81
3100.26
3150.88
3202.69
3255.63
3309.57
3365.07
3421.71
3479.87
3539.34
3600.85
3664.38
3729.95
3797.43
3866.96
831.264
837.748
844.058
850.11
855.927
861.636
867.387
873.021
878.766
884.258
889.709
895.055
900.412
905.802
911.218
916.704
922.276
927.976
933.789
939.686
945.627
951.551
957.442
963.278
969.049
974.733
980.259
985.6
990.75
995.733
1000.57
1005.22
1009.72
1014.09
1018.31
1022.4
1026.37
1030.21
1033.93
1037.53
1041.03
1044.44
1047.74
1050.92
1054.02
1057.01
1059.88
1062.63
1065.28
1067.83
1070.27
1072.58
1074.79
1077.04
1079.08
1081.22
1083.3
1085.58
1087.73
1089.94
1092.26
640.692
642.507
644.373
646.207
648.013
649.719
651.508
653.202
654.888
656.427
657.917
659.354
660.811
662.238
663.638
665
666.317
667.586
668.796
669.933
670.984
671.949
672.817
673.583
674.243
674.793
675.227
675.542
675.729
675.795
675.728
675.534
675.216
674.769
674.208
673.53
672.736
671.825
670.797
669.651
668.39
667.021
665.549
663.96
662.265
660.452
658.509
656.429
654.217
651.878
649.382
646.78
644.031
641.168
638.106
634.956
631.712
628.388
624.969
621.492
618.02
543.627
544.19
544.725
545.249
545.742
546.208
546.645
547.062
547.425
547.689
547.892
548.057
548.162
548.185
548.156
548.062
547.903
547.672
547.361
546.961
546.475
545.899
545.24
544.49
543.645
542.697
541.647
540.495
539.239
537.88
536.417
534.841
533.156
531.367
529.482
527.499
525.419
523.242
520.96
518.578
516.102
513.543
510.906
508.197
505.416
502.561
499.611
496.566
493.418
490.187
486.843
483.396
479.859
476.217
472.443
468.545
464.57
460.503
456.373
452.217
448.061
481.23
480.746
480.244
479.716
479.165
478.558
477.897
477.239
476.578
475.871
475.133
474.355
473.519
472.629
471.68
470.668
469.623
468.508
467.32
466.057
464.722
463.322
461.86
460.341
458.756
457.098
455.363
453.552
451.669
449.715
447.685
445.566
443.361
441.071
438.711
436.28
433.774
431.186
428.511
425.751
422.919
420.021
417.075
414.094
411.085
408.048
404.949
401.812
398.602
395.34
392.005
388.586
385.106
381.548
377.891
374.128
370.279
366.337
362.368
358.378
354.385
431.789
430.544
429.299
428.015
426.713
425.382
424.015
422.631
421.214
419.775
418.302
416.809
415.28
413.703
412.083
410.43
408.751
407.01
405.202
403.327
401.395
399.416
397.404
395.366
393.286
391.154
388.971
386.735
384.463
382.156
379.81
377.399
374.926
372.384
369.8
367.169
364.476
361.724
358.892
355.982
353.008
349.977
346.916
343.85
340.798
337.772
334.713
331.661
328.574
325.494
322.37
319.18
315.962
312.674
309.332
305.861
302.322
298.704
295.092
291.436
287.799
387.312
385.46
383.608
381.751
379.862
377.935
375.983
374.031
372.048
370.018
367.979
365.936
363.862
361.764
359.621
357.463
355.307
353.101
350.827
348.477
346.069
343.638
341.191
338.757
336.309
333.819
331.293
328.725
326.16
323.606
321.082
318.516
315.929
313.286
310.64
307.968
305.23
302.45
299.602
296.681
293.69
290.625
287.535
284.453
281.405
278.456
275.484
272.59
269.683
266.877
264.072
261.183
258.3
255.356
252.402
249.268
246.117
242.854
239.681
236.436
233.239
343.366
341.004
338.639
336.322
333.986
331.672
329.288
326.978
324.64
322.193
319.752
317.356
314.915
312.451
309.906
307.387
304.943
302.46
299.908
297.209
294.427
291.661
288.874
286.124
283.431
280.697
277.927
275.058
272.207
269.432
266.823
264.193
261.634
259.04
256.519
254.01
251.361
248.641
245.904
243.15
240.283
237.283
234.252
231.214
228.191
225.384
222.492
219.78
217.055
214.605
212.22
209.682
207.193
204.637
202.136
199.345
196.618
193.718
191.056
188.274
185.59
297.32
294.46
291.449
288.774
285.946
283.544
280.816
278.502
276.164
273.605
271.034
268.717
266.162
263.634
260.812
257.953
255.435
253.015
250.601
247.929
244.83
241.944
238.974
235.96
233.12
230.327
227.629
224.596
221.34
218.271
215.593
212.905
210.439
208.025
205.957
203.955
201.623
198.997
196.454
194.103
191.68
188.87
185.976
183.127
180.177
177.608
174.704
172.178
169.528
167.566
165.712
163.526
161.529
159.44
157.508
155.017
152.751
150.15
148.055
145.776
143.716
3939.63
4014.92
4092.21
4171.54
4253.35
4338.55
4426.57
4517.37
4610.66
4706.65
4805.8
4906.97
5010.49
5120.48
5258.47
5383.83
5508.8
5636.34
5766.36
5898.82
6034.03
6172.06
6312.47
6455.5
6600.9
6747.99
6896.46
7046.06
7196.6
7347.19
7497.77
7647.7
7796.13
7942.46
8086.17
8225.85
8360.36
8488.36
8601.67
8685.02
8741.66
8773.13
8779.23
8758.17
8708.34
8627.23
8510.77
8354.26
8153.32
7903.27
7597.75
7229.81
6794.11
6283.01
5662.27
4717.19
4300
4091.79
4009.83
3969.99
3886.46
1094.82
1097.48
1100.35
1103.28
1106.3
1109.56
1113.37
1117.57
1122.25
1127.23
1132.71
1136.02
1137.41
1140.39
1143.97
1149.01
1154.17
1159.27
1164.5
1169.99
1175.74
1181.8
1188.12
1194.71
1201.55
1208.62
1215.96
1223.57
1231.52
1239.85
1248.6
1257.83
1267.66
1278.22
1289.6
1302.04
1315.72
1331
1349.17
1378.44
1413.84
1452.22
1493.76
1538.62
1587.47
1640.65
1698.25
1760.54
1827.79
1899.56
1974.96
2052.37
2130.22
2207.39
2276.37
2341.1
2399.69
2485.89
2590.55
2698.89
2651.97
614.523
611.028
607.498
603.949
600.345
596.767
593.299
589.986
586.738
583.458
579.7
574.045
568.143
563.049
558.464
554.504
550.628
546.647
542.605
538.555
534.537
530.549
526.585
522.642
518.718
514.807
510.921
507.061
503.247
499.476
495.769
492.148
488.624
485.242
482.03
479.036
476.308
473.918
472.003
471.068
471.306
475.782
484.043
495.605
510.927
530.667
555.546
586.597
624.826
671.324
727.112
792.989
870.148
958.905
1059.01
1167.07
1274.16
1391.31
1535.34
1722.54
1909.73
443.907
439.763
435.617
431.455
427.246
423.038
418.879
414.818
410.733
406.549
401.554
395.555
389.767
384.513
379.649
375.139
370.734
366.341
361.943
357.567
353.215
348.871
344.54
340.228
335.93
331.656
327.406
323.182
318.985
314.817
310.681
306.582
302.533
298.545
294.629
290.804
287.09
283.506
280.078
276.871
273.965
271.67
270.678
271.399
273.715
277.966
284.617
294.323
307.928
326.462
351.342
383.905
425.824
478.226
541.749
614.37
691.891
775.812
874.573
1002.09
1161.31
350.411
346.497
342.602
338.684
334.699
330.714
326.746
322.858
318.94
314.907
310.09
304.786
299.773
295.16
290.8
286.676
282.65
278.712
274.826
271.002
267.217
263.42
259.643
255.893
252.157
248.45
244.769
241.117
237.484
233.874
230.285
226.725
223.201
219.721
216.295
212.935
209.652
206.456
203.359
200.377
197.538
194.906
192.615
191.023
190.237
190.28
191.378
193.834
198.082
204.663
214.378
228.235
247.442
273.265
306.723
347.932
395.474
448.869
510.408
585.723
681.078
284.16
280.641
277.15
273.656
270.024
266.397
262.761
259.242
255.695
252.081
247.765
243.263
239.036
235.155
231.414
227.84
224.323
220.953
217.668
214.481
211.342
208.162
205.019
201.918
198.827
195.775
192.74
189.736
186.736
183.749
180.772
177.822
174.9
172.02
169.187
166.413
163.704
161.071
158.515
156.049
153.685
151.447
149.374
147.557
146.241
145.324
144.93
145.181
146.285
148.52
152.26
158.03
166.507
178.463
194.779
216.017
242.303
273.702
310.842
355.397
410.483
229.957
226.87
223.823
220.826
217.571
214.348
211.062
207.979
204.879
201.807
198.055
194.314
190.797
187.645
184.514
181.525
178.521
175.737
173.041
170.463
167.937
165.311
162.767
160.31
157.842
155.424
152.997
150.61
148.194
145.79
143.373
140.995
138.64
136.341
134.078
131.877
129.731
127.657
125.65
123.726
121.887
120.157
118.543
117.081
115.836
114.953
114.345
114.08
114.26
115.021
116.553
119.11
123.014
128.698
136.636
147.323
161.174
178.514
199.813
225.862
257.952
182.652
179.995
177.419
174.994
172.135
169.35
166.408
163.821
161.218
158.767
155.557
152.498
149.588
147.135
144.552
142.154
139.62
137.414
135.267
133.223
131.244
129.071
127.061
125.25
123.36
121.514
119.604
117.78
115.856
113.953
111.999
110.138
108.289
106.532
104.786
103.115
101.469
99.902
98.3927
96.9793
95.6385
94.4074
93.287
92.2726
91.3963
90.7605
90.3259
90.0854
90.1058
90.4601
91.249
92.5956
94.6711
97.6735
101.853
107.497
114.901
124.403
136.373
151.318
169.902
141.089
138.797
136.715
134.947
132.483
130.161
127.511
125.511
123.445
121.652
118.928
116.454
114.005
112.228
110.078
108.284
106.122
104.505
102.841
101.181
99.6637
97.7922
96.2655
95.197
93.7886
92.356
90.8097
89.5072
87.9175
86.3986
84.7431
83.3764
81.9504
80.7051
79.3751
78.163
76.8629
75.7015
74.6076
73.6449
72.7538
71.9648
71.2943
70.7072
70.1566
69.7163
69.4569
69.3122
69.3913
69.6217
70.2422
71.1703
72.6103
74.5289
77.1394
80.4753
84.8305
90.3
97.2798
106.032
116.917
3741.33
3582.06
3411.17
3231.83
3053.12
2880.42
2717.14
2567.7
2435.72
2323.15
2230.29
2156
2098.62
2055.88
2025.11
2003.76
1989.71
1981.4
1977.44
1976.63
1978.32
1981.97
1987.15
1993.8
2001.84
2010.99
2021.35
2032.77
2045.37
2059.01
2073.66
2089.26
2105.68
2122.7
2140.21
2157.93
2175.54
2192.77
2209.46
2225.3
2239.87
2252.99
2264.54
2274.36
2282.58
2289.46
2295.14
2299.83
2304.03
2308.44
2313.3
2318.72
2325.16
2332.72
2341.06
2349.88
2358.9
2368.08
2376.45
2383.05
2387.21
2460.21
2256.43
2056.7
1865.95
1698.32
1543.58
1400.65
1270.51
1153.32
1049.94
960.442
884.263
820.422
767.32
724.598
691.413
665.987
646.434
631.241
619.325
609.94
602.507
596.669
592.179
588.965
586.685
585.499
585.211
585.855
587.403
589.867
593.222
597.456
602.527
608.377
614.934
622.077
629.669
637.534
645.473
653.215
660.433
666.734
671.705
674.983
676.234
675.198
671.81
666.255
658.946
650.452
641.473
632.777
624.995
618.323
612.987
608.677
605.124
601.583
597.568
592.341
1995.15
1981.18
1878.36
1703.96
1524.54
1350.6
1181.36
1028.42
891.763
770.917
666.826
578.889
505.927
446.61
399.903
364.063
336.556
314.793
297.559
284.022
273.366
264.92
258.167
252.74
248.326
244.817
241.93
239.706
238.033
236.887
236.241
236.089
236.411
237.173
238.347
239.887
241.752
243.894
246.255
248.75
251.28
253.737
255.993
257.883
259.254
259.921
259.713
258.489
256.19
252.826
248.541
243.671
238.645
233.975
230.038
227.259
225.756
225.519
226.311
227.84
229.698
1326.85
1473.55
1570
1585.62
1515.81
1390.15
1221.15
1051.47
894.653
750.091
624.554
519.444
432.811
363.441
309.04
266.795
234
208.123
187.795
171.989
159.766
150.352
143.1
137.468
133.032
129.493
126.635
124.333
122.492
121.044
119.949
119.184
118.72
118.52
118.547
118.763
119.132
119.613
120.165
120.738
121.278
121.73
122.037
122.138
121.98
121.511
120.692
119.502
117.945
116.042
113.857
111.529
109.274
107.37
106.114
105.856
106.851
109.184
112.791
117.576
123.582
797.643
932.965
1075.99
1202.81
1283.72
1301.39
1250.98
1145.25
1008.79
854.086
707.636
581.664
473.32
384.999
314.947
259.534
216.136
182.204
155.727
135.277
119.651
107.873
99.0635
92.4479
87.4118
83.5134
80.4587
78.0497
76.1487
74.6486
73.4875
72.6302
72.0387
71.669
71.4794
71.432
71.4897
71.6158
71.7734
71.9214
72.0168
72.0184
71.8867
71.5848
71.0811
70.3531
69.3952
68.2156
66.829
65.2769
63.6282
61.9968
60.5648
59.5629
59.2847
60.0179
62.0968
65.7732
71.1453
78.3231
87.1225
479.151
564.512
667.497
784.039
901.89
1003.28
1068.08
1081
1040.02
952.95
836.767
710.465
582.848
471.821
380.883
305.75
246.33
199.348
162.002
133.169
111.403
95.3413
83.641
75.0891
68.7461
63.9578
60.3047
57.5014
55.346
53.6758
52.3974
51.4574
50.8048
50.384
50.1471
50.0523
50.0605
50.1364
50.2444
50.3472
50.4061
50.3872
50.2558
49.9833
49.5411
48.914
48.0988
47.108
45.9535
44.67
43.3143
41.9839
40.8294
40.062
39.9769
40.9317
43.3761
47.6475
53.9646
62.3683
72.7157
297.819
347.707
409.938
485.965
574.808
671.719
766.696
845.6
894.126
901.83
866.583
795.677
701.03
596.674
494.289
397.369
317.692
252.54
198.292
155.89
123.759
100.373
83.7226
71.8064
63.1485
56.7317
51.9355
48.3398
45.6438
43.592
42.0409
40.9067
40.1193
39.6042
39.3015
39.1613
39.1398
39.2002
39.3061
39.4216
39.5089
39.5404
39.4818
39.309
38.9907
38.5185
37.8863
37.1086
36.1886
35.1602
34.0674
32.995
32.0731
31.4864
31.5166
32.5669
35.0954
39.5816
46.3959
55.6477
67.2194
193.097
222.126
258.556
304
359.761
426.035
501.051
579.787
654.295
713.852
748.008
750.454
721.335
665.048
590.321
505.321
420.079
339.641
264.139
203.305
155.205
120.363
96.0147
78.7962
66.3752
57.2361
50.4827
45.5287
41.9109
39.1965
37.1669
35.6823
34.6472
33.9539
33.524
33.2926
33.2074
33.2262
33.3107
33.4235
33.5262
33.5976
33.6022
33.5195
33.3118
32.9782
32.5062
31.9153
31.1995
30.3927
29.5301
28.6899
27.9861
27.5839
27.7494
28.8828
31.4692
36.0908
43.2711
53.2393
65.9028
130.611
147.634
168.944
195.809
229.283
270.388
319.486
376.048
437.577
500.016
555.5
597.997
621.145
622.209
599.552
555.365
495.574
424.31
350.734
275.892
206.362
156.315
121.423
96.5331
78.1753
64.6515
54.6819
47.5148
42.395
38.5895
35.7837
33.7203
32.277
31.2893
30.6471
30.2584
30.0572
29.9907
30.0179
30.0929
30.1813
30.2654
30.309
30.2907
30.1702
29.9471
29.6106
29.1753
28.6344
28.015
27.3546
26.7237
26.2334
26.0303
26.3635
27.621
30.3084
35.0701
42.539
53.0974
66.6239
1.49128
208.984
186.919
2.32378
2.15225
0.202778
0.000719954
89.2011
0.000796358
0.014646
94.2158
6.93716
0.000720866
244.174
0.166002
136.732
0.000757406
90.7553
118.531
0.000716147
2.3344
233.54
197.999
0.000767061
0.000781097
0.21068
0.000717284
7.64088
0.000753174
0.000820126
6.42056
0.000741971
0.00875642
64.9188
3.93778
112.391
72.1842
15.8
0.000723306
44.524
65.1402
27.9616
0.000743311
104.124
172.892
0.713526
0.000868479
0.00862328
1.32557
7.14046
361.515
352.935
0.000698242
0.00103017
0.0625368
0.0351721
0.000817207
8.85128
59.1076
280.566
138.537
0.000905795
1.5588
0.0249153
198.982
2.37544
38.9172
62.1337
0.00113143
0.000747671
9.73837
41.3889
55.7345
0.0384608
0.0507644
80.1763
226.059
56.2443
0.000700027
5.40635
0.0023412
47.4325
0.0127375
112.17
0.00074993
8.61726
0.000791049
36.9859
0.0110618
0.00136743
0.230641
0.000698305
0.000934032
304.102
142.799
0.000867504
1.57329
1.8482
0.00184594
206.637
1.0175
31.7348
5.98008
0.000696672
0.000725973
0.000693936
1.42944
0.209387
0.000748088
173.826
221.994
0.00477322
234.514
26.7717
112.187
54.4005
28.4119
0.000977241
0.110392
0.00110568
0.00165119
189.003
0.00308341
286.498
409.376
27.7581
0.000746015
7.1604
6.9854
0.000743927
0.0298453
0.0267774
90.9121
0.00187186
63.8695
0.000748831
0.000723823
392.422
346.579
0.000748806
0.7602
149.15
0.230706
0.901831
26.6912
120.49
0.302742
27.6742
0.0052529
272.025
11.1287
0.0378676
49.7349
109.726
187.938
0.000766394
0.000757327
0.511836
0.000694882
41.6374
0.114822
0.00144807
0.00074046
0.000747474
0.000758567
40.9116
68.7588
34.1998
0.000768491
281.856
298.348
407.945
166.197
0.00689402
160.708
44.897
28.3318
0.000750093
0.00169556
193.095
68.3347
28.7151
72.3914
0.000745344
0.000842287
238.863
0.0294965
2.4685
0.000757793
0.000866328
0.172576
0.000797863
327.44
4.04621
0.00069063
0.678376
89.6323
139.511
0.00119714
53.0972
0.000746607
0.000750188
109.576
33.5682
296.851
0.00121403
0.000800671
0.00285736
42.599
77.2329
9.92497
120.833
14.3301
231.494
0.801353
87.9559
83.366
26.3128
10.628
39.4264
0.00144277
0.0292968
0.000747658
0.000725407
28.4995
0.0100012
0.011723
0.00197959
0.00625667
47.7145
197.376
0.0110981
167.884
7.50538
2.94619
0.000732477
0.522365
39.1585
7.29065
0.00106274
13.3165
34.7482
0.835195
2.49167
270.397
7.60949
4.86914
124.111
0.000955065
0.000724071
0.00102663
0.00427632
28.8673
0.000784969
0.00249448
0.000723697
1.75937
77.2473
76.882
49.3277
12.1186
11.3661
322.529
0.00113918
48.3953
99.3932
0.000743902
85.0367
0.000749601
330.143
1.75966
53.9349
0.0015469
0.000748478
20.2456
7.4637
0.000759623
0.000750548
0.000755336
0.000751528
1.17718
35.637
45.5605
0.0108395
0.000760433
0.000724453
0.000695771
106.332
1.14471
0.00119026
19.4414
0.116189
0.0953838
0.000691929
0.782106
0.000760155
0.109983
47.1814
268.921
3.19585
0.000978325
0.00184914
57.0165
0.352677
129.99
320.301
0.000838063
0.000739916
0.000733996
158.172
0.000773578
137.044
0.000749825
24.4415
12.4143
0.0240581
141.56
240.444
0.00127175
50.1995
50.6941
89.429
91.745
9.66154
344.012
38.7015
72.7461
141.855
96.3874
55.9349
0.338233
334.199
278.626
62.9201
33.592
0.00100206
265.65
127.379
230.733
0.0187757
0.000867284
0.000745758
0.000811576
0.684724
1.55267
6.39225
0.124603
0.000726369
170.189
0.00074637
26.8407
24.1386
192.542
42.4106
19.0106
0.00193122
0.00110665
0.466228
86.5942
0.0043651
7.98943
257.604
36.127
85.3326
190.513
61.39
0.000821625
281.717
141.755
97.1616
0.000750458
191.516
151.815
0.000781408
30.5239
0.00075159
387.612
172.237
28.1035
83.0305
115.688
149.445
0.00076476
148.795
0.000964715
68.9601
82.4698
28.3496
278.107
3.61758
0.490759
2.55436
0.00110058
442.066
1.50446
0.00290073
0.00182531
252.638
0.000953135
94.0843
0.000737616
0.000749999
0.00183525
32.0381
0.192451
22.3058
0.00197984
85.1027
0.307262
215.574
279.864
39.2282
332.945
0.000793882
278.332
42.7569
0.000742276
79.808
26.3092
0.000696347
0.000727461
116.076
0.00205758
26.5948
0.461668
77.4689
0.0176534
3.502
40.4988
120.671
33.6448
83.0409
70.2463
0.00100184
0.0340552
28.9475
20.9472
329.006
334.702
138.768
0.0843529
123.985
122.869
3.42567
90.9997
46.6263
26.6243
0.000822443
85.6096
378.832
0.00107568
91.1015
19.0825
47.2409
0.0153074
0.0889954
265.649
0.0019338
324.977
0.00124685
1.76449
0.000738056
7.78449
167.99
0.5544
0.00132137
0.000902447
76.4523
26.8541
0.365806
5.44285
290.603
546.483
0.00139346
11.6279
27.3063
72.696
26.2142
451.2
28.8674
155.179
52.5385
3.47058
7.13968
300.753
54.2021
351.196
172.165
0.241983
174.347
60.5995
0.000792029
91.4573
29.2372
13.1643
0.00974021
97.9577
44.5887
4.18478
53.1666
0.0015913
0.000747161
0.15611
28.3928
105.598
73.3066
0.000750193
0.000731352
0.000743869
28.3568
0.0276002
0.000745716
0.246134
96.3502
269.55
0.00440088
0.00453076
0.000721444
0.000738764
0.00194309
30.0004
101.443
20.5703
1.87608
293.291
375.981
0.00150909
61.6433
27.9899
28.5135
77.2242
432.067
0.000821841
0.00446089
0.000750885
398.569
0.781045
0.000726929
10.4381
0.352039
300.015
0.000759329
319.314
8.76944
0.0656205
201.269
0.000748097
0.000736508
0.00102819
399.159
53.7171
130.717
312.706
11.0577
28.7613
0.000708716
0.00184575
0.469252
0.015235
0.0163233
179.591
41.1213
0.000747826
25.2259
45.4816
183.253
401.531
0.00294481
405.165
0.00182776
0.0217655
149.92
0.000739291
147.959
0.00075956
0.000791585
0.0210035
34.4518
2.9072
326.649
61.7285
0.000886848
28.5992
502.52
0.209305
2.26357
7.42509
0.000774748
0.000759615
0.00230589
137.509
5.37523
0.000783488
267.083
275.669
215.069
0.111555
60.2094
0.00108939
30.486
0.531862
0.130939
122.949
29.9236
151.221
174.265
0.000761119
0.000711538
0.00494971
73.1437
102.69
5.87343
0.00658246
0.000772925
0.000749942
0.00344242
0.125941
0.00211396
72.9726
21.3544
0.00497507
26.3672
171.677
0.000760531
38.2848
0.000742628
3.30792
0.00076249
0.0132075
37.2215
0.0116322
0.00074459
4.02451
358.014
257.969
0.000731124
0.000748457
1.5539
0.13614
0.000747722
97.3813
0.000905424
32.1793
371.938
29.8783
86.9793
298.763
132.14
333.909
0.000747593
0.00249873
0.0110919
292.857
59.9488
197.951
5.41698
4.30591
100.649
168.28
124.829
4.86529
45.4102
0.000750518
1.53884
40.8009
33.2991
310.735
25.9762
1.12743
41.4355
0.204469
0.00982747
40.9096
0.000750994
174.844
0.000887966
2.69394
291.524
185.372
3.05122
0.00250862
7.21591
0.000768791
0.00073624
0.19826
0.0134874
52.4199
0.00874185
28.8109
0.000750504
0.0190241
0.000725504
96.8449
0.00181781
86.7393
304.552
0.0142606
169.17
366.179
0.000756983
99.1042
222.306
0.000785679
286.116
0.274627
0.000824999
0.000791451
276.198
0.000731629
0.00111923
0.122032
0.215867
423.834
268.59
0.000751491
0.000754941
9.09879
28.2041
0.0070937
2.35334
22.1377
0.000747651
0.000953815
0.000912322
169.425
270.254
3.4539
290.537
0.017151
26.6292
0.000772129
0.00717631
0.0160077
0.0430232
0.000749647
292.622
0.000741924
0.0160526
0.000772137
1.31747
0.0147551
0.0399444
2.50393
5.16379
35.0203
2.15678
9.31036
28.0107
189.14
0.000816262
165.673
322.756
12.9134
76.9397
0.000761817
267.829
78.9709
0.000745615
402.654
66.3583
0.00625685
0.0248525
163.61
163.381
0.218974
313.109
400.915
4.36986
423.591
260.225
130.17
50.9051
20.5392
27.6813
262.278
286.78
0.0142316
303.46
40.7641
405.703
0.000813415
1.59759
2.77505
225.806
164.158
0.0118203
446.114
196.999
6.8149
0.0543904
2.73599
28.2218
0.00154688
28.354
433.041
0.0292719
222.272
14.322
94.7058
189.218
0.000746037
0.00167806
7.34292
5.37334
0.0132147
0.000748282
0.816417
1.76735
0.00120807
0.000758693
268.361
7.07716
52.9764
10.8317
0.00314485
0.00107571
0.410831
87.6915
0.000823843
22.2157
29.9843
1.83633
165.285
0.00100487
0.387895
0.000740596
1.77961
88.5294
0.0016547
0.184719
41.0427
164.141
0.501629
96.694
5.14972
0.896118
0.000987545
33.8181
326.817
0.000744053
0.00075608
148.385
0.0157754
0.000758242
73.8602
2.12684
165.712
29.6867
37.9207
0.313378
17.0944
203.757
160.523
240.973
0.000763194
271.957
0.000970005
38.5213
0.000796907
0.00147169
45.223
0.00209215
255.717
0.0121762
0.0322869
45.4099
7.7086
0.564292
0.00089712
184.376
0.000886664
0.000719284
339.982
161.087
41.1036
28.6926
0.000813803
0.000682972
19.0515
148.906
0.00073269
215.022
37.1881
0.00075286
171.345
0.000702481
3.28083
6.37811
10.6018
1.53682
76.169
21.2158
0.000700671
267.452
321.783
0.000744488
0.0132667
28.9959
0.000708942
239.079
161.874
404.619
0.000745517
0.000727876
198.65
0.0967889
0.00083681
31.7996
80.5919
249.648
0.000720922
0.000794004
0.0157522
0.0115984
0.000746796
0.00202727
127.74
50.9475
0.000746638
13.5689
0.000747026
9.83987
0.00109033
0.000866887
27.5802
0.000748535
0.33847
0.000730534
49.4449
2.09122
20.5404
187.29
361.636
149.124
5.18909
14.8633
0.000758248
5.6272
276.149
532.146
0.15618
0.000826513
129.651
0.000746062
0.115564
0.000720644
434.7
14.687
3.0613
194.826
52.7305
4.8542
81.7718
7.71051
224.988
115.275
0.000773738
0.000756236
0.0030906
0.000736599
0.0140369
97.404
0.000931898
247.124
0.00186859
0.295579
3.04989
153.777
0.00135811
42.4557
0.0135266
54.7723
30.8684
429.341
0.000795895
0.000954725
1.42061
86.2795
62.8549
66.5486
1.96312
7.94552
19.8194
0.0625479
10.0328
1.77305
30.3777
0.00075693
393.373
1.42651
56.4623
0.000788233
53.4719
15.9882
0.00188075
88.6184
17.2163
0.0842909
0.000715192
0.000745993
203.507
48.4367
15.0169
0.00073797
0.00953353
50.795
189.418
3.43348
0.00584965
0.000735743
145.985
130.438
35.9651
36.3601
0.000743615
102.517
429.908
0.000746909
0.000749282
18.5666
0.00127134
0.00386507
0.229596
47.4656
0.00105144
36.4596
341.834
0.000731873
0.000821577
0.000727466
0.000770051
67.6857
517.458
330.776
0.0205638
34.4718
47.3356
0.132897
45.513
0.000824166
31.568
0.530689
30.5434
5.3095
82.0647
102.59
0.144925
0.000759127
160.59
85.3158
274.391
5.70201
29.9521
0.5298
20.6245
0.00353071
0.00133407
153.943
143.488
0.0340757
1.23532
0.000753955
0.0993905
19.729
0.0277229
13.7795
4.31629
388.116
37.0634
1.73034
270.366
141.822
56.7176
15.6665
200.518
188.603
3.17804
38.3066
0.00366835
47.6842
45.6772
0.00074345
0.000711065
0.341446
0.000748425
0.000775461
57.7004
298.373
0.000744605
84.0209
0.00074492
0.000736799
0.000740938
0.000752916
0.0018131
29.5984
44.1113
248.799
0.000718843
0.00106591
6.70041
0.000855067
0.0282703
0.000762781
0.000866068
167.412
0.000982879
0.00466162
182.336
0.00425338
0.000749431
187.419
0.000745355
0.000760492
1.47924
0.000870874
6.5283
0.00123794
0.0239217
0.000743838
0.000753571
301.625
415.7
44.0135
0.0236306
110.935
16.3816
0.00130057
27.7022
309.795
235.356
477.788
0.000700124
27.023
57.119
0.261106
28.6938
102.033
0.350351
31.6537
1.0375
28.6126
0.290385
7.354
0.000757615
218.732
0.000756929
28.8293
32.6709
0.000747856
0.914229
0.00245451
0.0290413
0.000726559
3.84253
0.000893589
0.000741947
40.3622
0.0354495
0.164664
231.185
153.68
0.000819095
0.000967929
30.7755
259.155
0.000689791
0.000753933
0.192247
23.9921
148.836
0.00209431
15.9257
0.000745416
0.000818124
0.000718454
0.0278569
23.3104
0.00407757
270.081
29.7652
257.624
172.007
0.000843034
294.534
67.5759
0.000732735
0.000754062
0.000750338
0.00116037
0.000740206
124.805
0.000745385
0.00075038
344.144
1.21246
0.00267514
0.0345236
59.8974
7.54722
0.00780175
0.000823873
185.521
0.00076269
6.76052
0.000755043
0.000845452
163.11
162.244
0.00334047
0.000835216
3.90955
0.000744247
361.229
0.000753091
149.437
0.0271779
8.38495
0.118129
3.0839
1.96891
29.6906
0.000760944
0.000859859
0.00489028
59.3166
0.284529
301.436
0.000747028
0.00124168
0.00164063
255.582
62.8589
273.555
0.00225804
0.0034967
0.826712
0.000751295
19.5126
38.0124
0.00875552
266.589
181.877
42.6549
0.00154553
1.43945
169.19
223.983
28.0328
0.0105589
122.609
0.534558
132.702
0.144005
2.26801
42.1249
0.000761952
28.5951
0.00122488
0.0050842
0.00632316
0.0476896
0.000906876
10.8005
0.000745953
46.1591
0.131996
0.000867586
1.59939
0.000756578
0.761292
0.227263
40.4628
3.7654
93.2021
0.810696
0.000748377
0.00073238
4.66219
0.158364
43.8932
260.463
0.000751602
152.034
37.7
0.014138