/*--------------------------------*- C++ -*----------------------------------*\
| =========                 |                                                 |
| \\      /  F ield         | OpenFOAM: The Open Source CFD Toolbox           |
|  \\    /   O peration     | Version:  2.3.1                                 |
|   \\  /    A nd           | Web:      www.OpenFOAM.org                      |
|    \\/     M anipulation  |                                                 |
\*---------------------------------------------------------------------------*/
FoamFile
{
    version     2.0;
    format      ascii;
    class       volScalarField;
    location    "0.78";
    object      nut;
}
// * * * * * * * * * * * * * * * * * * * * * * * * * * * * * * * * * * * * * //

dimensions      [0 2 -1 0 0 0 0];

internalField   nonuniform List<scalar> 
9648
(
0.000271595
0.000271951
0.000271848
0.000271671
0.000271349
0.000270791
0.000270026
0.000269081
0.000267936
0.000266574
0.000264987
0.000263217
0.000261261
0.000259134
0.000256886
0.000254565
0.000252197
0.000249803
0.000247426
0.000245108
0.000242864
0.000240713
0.000238681
0.000236765
0.000234969
0.000233308
0.000231785
0.000230397
0.000229135
0.000228005
0.000226998
0.000226111
0.000225339
0.000224683
0.00022413
0.000223683
0.000223341
0.000223098
0.000222939
0.000222866
0.000222887
0.00022299
0.000223172
0.000223441
0.000223783
0.000224189
0.000224674
0.000225249
0.000225904
0.000226626
0.000227428
0.000228329
0.000229306
0.000230361
0.000231507
0.000232742
0.000234031
0.000235322
0.000236623
0.000237932
0.00023923
0.000446723
0.000450787
0.000455504
0.000461024
0.000467131
0.000473355
0.00048057
0.000490446
0.000503374
0.000519161
0.000537896
0.000559862
0.000584991
0.000613124
0.000644074
0.000677736
0.000713859
0.000752087
0.000792094
0.000833702
0.000876557
0.000920402
0.000965047
0.00101022
0.00105564
0.00110119
0.00114678
0.00119224
0.00123741
0.0012822
0.0013266
0.00137049
0.00141378
0.00145651
0.00149861
0.00153997
0.00158068
0.00162075
0.0016601
0.00169856
0.00173621
0.00177313
0.00180922
0.00184439
0.00187874
0.00191203
0.00194425
0.00197557
0.00200607
0.00203557
0.00206412
0.00209168
0.00211846
0.00214397
0.00216888
0.00219298
0.00221689
0.00223961
0.00226181
0.00228374
0.0023056
0.000772203
0.000809182
0.000846172
0.000882248
0.0009196
0.000961171
0.00100592
0.00105504
0.00110807
0.00116553
0.00122665
0.00129188
0.00136102
0.00143388
0.00151019
0.00158961
0.00167178
0.00175617
0.00184232
0.00192982
0.00201818
0.00210711
0.00219616
0.00228502
0.00237341
0.00246113
0.00254806
0.00263393
0.00271871
0.00280228
0.00288453
0.00296547
0.00304512
0.00312336
0.00320018
0.00327567
0.00334973
0.00342249
0.00349388
0.0035639
0.00363257
0.0036998
0.00376578
0.00383045
0.00389375
0.00395566
0.00401613
0.00407539
0.00413321
0.00418974
0.00424496
0.00429896
0.00435233
0.00440356
0.00445499
0.00450425
0.00455324
0.0045992
0.00464532
0.00469058
0.00473516
0.00123891
0.00130978
0.00138101
0.00145267
0.00152662
0.00160467
0.00168704
0.00177413
0.00186567
0.00196199
0.0020625
0.00216736
0.0022761
0.00238863
0.00250441
0.00262301
0.00274394
0.00286662
0.00299054
0.0031152
0.00324019
0.00336499
0.00348927
0.00361274
0.00373516
0.0038563
0.00397605
0.00409425
0.00421085
0.00432569
0.00443889
0.00455038
0.00466015
0.0047683
0.00487473
0.00497954
0.00508271
0.00518434
0.0052844
0.00538293
0.00547996
0.00557551
0.00566956
0.00576224
0.00585344
0.00594319
0.00603152
0.00611848
0.00620387
0.00628776
0.0063706
0.00645132
0.0065307
0.00660814
0.00668534
0.00676037
0.00683332
0.00690426
0.00697359
0.00704128
0.00710634
0.0017792
0.00187423
0.00197232
0.00207326
0.00217818
0.00228854
0.00240487
0.00252698
0.00265484
0.0027882
0.00292651
0.00306936
0.00321635
0.0033671
0.0035209
0.00367704
0.00383486
0.00399389
0.0041535
0.00431328
0.0044727
0.00463134
0.0047888
0.00494484
0.00509927
0.00525202
0.00540287
0.00555177
0.00569861
0.00584338
0.00598608
0.00612676
0.00626552
0.00640232
0.00653715
0.00667015
0.00680134
0.00693064
0.00705815
0.00718388
0.00730789
0.00743014
0.00755076
0.00766969
0.00778692
0.00790243
0.00801612
0.00812805
0.00823842
0.00834655
0.00845308
0.00855761
0.00865958
0.00875922
0.00885698
0.008953
0.00904604
0.00913667
0.00922493
0.00931023
0.00939248
0.00233057
0.00244056
0.00255969
0.00268647
0.0028207
0.00296284
0.00311307
0.00327109
0.00343613
0.00360753
0.00378441
0.00396586
0.00415142
0.00434031
0.00453198
0.00472549
0.00491979
0.00511463
0.00530921
0.00550318
0.00569616
0.00588752
0.00607708
0.00626441
0.00644956
0.00663247
0.00681307
0.00699131
0.00716697
0.00734007
0.00751075
0.00767891
0.00784483
0.00800852
0.00816988
0.00832902
0.00848609
0.00864097
0.00879369
0.00894422
0.00909248
0.00923862
0.00938268
0.00952469
0.00966455
0.00980233
0.00993823
0.0100711
0.010202
0.0103305
0.0104565
0.0105799
0.0107005
0.0108178
0.0109327
0.0110443
0.0111528
0.0112586
0.0113612
0.0114595
0.011555
0.00286804
0.00298853
0.0031276
0.00328033
0.00344473
0.00362
0.0038057
0.00400099
0.00420467
0.00441517
0.00463156
0.00485221
0.00507644
0.0053034
0.00553311
0.00576391
0.00599458
0.00622501
0.00645405
0.00668157
0.00690752
0.00713089
0.00735175
0.00756919
0.00778361
0.00799534
0.00820418
0.00841045
0.00861341
0.00881317
0.00901003
0.00920355
0.00939437
0.00958274
0.00976819
0.00995088
0.0101313
0.0103089
0.010484
0.0106565
0.0108258
0.0109922
0.0111559
0.011317
0.0114752
0.0116305
0.0117834
0.0119331
0.0120801
0.0122239
0.0123646
0.012502
0.0126357
0.0127659
0.0128921
0.013015
0.0131345
0.01325
0.0133613
0.0134681
0.0135709
0.00338652
0.00351545
0.00367465
0.00385402
0.00404997
0.00425881
0.0044806
0.00471406
0.00495659
0.0052069
0.00546325
0.00572349
0.00598609
0.00625005
0.00651686
0.00678483
0.00705197
0.00731827
0.00758171
0.00784171
0.00810001
0.00835479
0.00860694
0.0088538
0.00909562
0.00933444
0.00956971
0.00980254
0.0100315
0.0102563
0.0104779
0.0106943
0.0109069
0.0111173
0.0113243
0.0115275
0.0117283
0.0119257
0.0121204
0.0123123
0.0125001
0.0126836
0.0128626
0.0130388
0.0132109
0.0133792
0.0135441
0.0137046
0.0138621
0.0140159
0.0141654
0.0143108
0.014453
0.0145908
0.0147234
0.0148515
0.0149753
0.015096
0.0152115
0.0153209
0.015425
0.00389162
0.00402469
0.00420332
0.00440553
0.00463389
0.00487371
0.00512914
0.00540108
0.00567868
0.00596837
0.0062627
0.0065649
0.00686476
0.007164
0.00746273
0.00776698
0.00806999
0.00837245
0.00867456
0.00896389
0.00925246
0.00953958
0.00982386
0.0101046
0.0103701
0.0106342
0.0108935
0.0111504
0.0114057
0.0116548
0.0119032
0.0121428
0.0123693
0.0125982
0.0128272
0.013047
0.0132635
0.0134792
0.0136896
0.0139011
0.0141092
0.0143131
0.014503
0.0146906
0.0148767
0.0150524
0.0152268
0.0153905
0.0155562
0.0157119
0.0158679
0.0160102
0.016153
0.0162977
0.0164347
0.0165576
0.0166815
0.0167968
0.0169144
0.0170246
0.0171219
0.000240436
0.000241542
0.000242622
0.000243675
0.000244682
0.000245614
0.000246512
0.000247416
0.000248316
0.000249158
0.000249919
0.000250665
0.000251382
0.000252071
0.000252765
0.000253508
0.000254309
0.000255169
0.000256111
0.00025717
0.000258314
0.00025952
0.000260784
0.000262072
0.000263364
0.000264674
0.00026601
0.000267354
0.000268695
0.000270044
0.000271401
0.000272762
0.000274126
0.000275506
0.000276889
0.000278283
0.000279697
0.00028113
0.000282569
0.000284013
0.000285482
0.000286971
0.000288475
0.000290005
0.000291551
0.000293094
0.000294652
0.000296244
0.000297861
0.000299474
0.000301102
0.000302771
0.00030445
0.000306135
0.000307856
0.000309619
0.000311413
0.00031319
0.000315013
0.000316916
0.000318904
0.00232752
0.00234714
0.0023663
0.0023854
0.00240409
0.00242158
0.00243697
0.00245141
0.00246325
0.00247502
0.00248516
0.00249458
0.00250286
0.00251002
0.00251598
0.00252049
0.00252364
0.00252527
0.00252548
0.00252433
0.002522
0.0025187
0.00251435
0.0025091
0.00250299
0.00249604
0.00248833
0.00247969
0.00247023
0.00245987
0.00244858
0.00243647
0.00242355
0.00240975
0.00239511
0.00237974
0.00236352
0.00234658
0.0023289
0.00231051
0.00229143
0.00227164
0.00225133
0.00223041
0.00220886
0.00218666
0.00216374
0.00214019
0.00211589
0.0020909
0.00206522
0.00203881
0.00201181
0.00198355
0.00195513
0.00192553
0.00189554
0.00186434
0.00183339
0.00180228
0.00177103
0.00477734
0.00481838
0.00485648
0.00489332
0.00492867
0.00496378
0.00499513
0.005025
0.00505127
0.0050765
0.00509938
0.00512059
0.00513927
0.0051564
0.00517155
0.0051847
0.00519593
0.00520524
0.00521269
0.00521836
0.00522249
0.00522501
0.00522604
0.00522561
0.00522374
0.00522042
0.00521577
0.00520971
0.00520225
0.00519324
0.00518284
0.00517088
0.00515738
0.00514248
0.00512601
0.0051081
0.00508869
0.00506784
0.00504554
0.00502189
0.00499697
0.00497087
0.00494367
0.00491552
0.00488628
0.00485594
0.00482434
0.00479148
0.00475721
0.0047215
0.00468454
0.00464555
0.004605
0.00456244
0.00451879
0.00447278
0.00442484
0.0043753
0.00432497
0.00427379
0.00422153
0.0071697
0.00723036
0.00728874
0.00734395
0.00739698
0.00744782
0.00749593
0.00754076
0.0075827
0.00762241
0.00765941
0.00769345
0.00772488
0.00775414
0.00778055
0.00780464
0.00782629
0.00784552
0.00786236
0.00787695
0.00788938
0.00789985
0.00790831
0.00791492
0.00791959
0.00792235
0.00792317
0.00792211
0.00791928
0.00791455
0.00790783
0.00789908
0.00788828
0.00787538
0.00786042
0.00784341
0.00782424
0.00780288
0.00777939
0.00775387
0.00772653
0.00769742
0.00766694
0.00763515
0.00760218
0.00756791
0.00753218
0.00749484
0.00745585
0.00741495
0.00737225
0.00732726
0.00727976
0.00722971
0.00717742
0.00712229
0.00706405
0.00700363
0.00694172
0.00687786
0.00681265
0.00947152
0.00954818
0.00962169
0.00969174
0.00975801
0.0098214
0.00988181
0.00993798
0.00999064
0.0100407
0.0100873
0.0101308
0.0101715
0.0102091
0.0102438
0.0102759
0.0103044
0.0103301
0.0103527
0.0103723
0.0103893
0.0104037
0.0104158
0.0104256
0.0104331
0.0104381
0.0104409
0.0104415
0.0104401
0.0104368
0.0104314
0.0104237
0.0104137
0.0104012
0.0103864
0.010369
0.0103489
0.0103261
0.0103004
0.0102721
0.0102411
0.0102079
0.0101727
0.0101362
0.0100983
0.0100593
0.0100189
0.00997643
0.00993252
0.00988703
0.00983938
0.00978924
0.00973632
0.00968021
0.0096212
0.009558
0.00949152
0.0094222
0.00935056
0.00927623
0.00920054
0.0116464
0.0117345
0.0118182
0.011899
0.0119752
0.0120473
0.0121157
0.0121794
0.0122392
0.0122951
0.0123478
0.0123969
0.0124424
0.0124846
0.0125231
0.0125583
0.0125897
0.0126178
0.012642
0.0126622
0.012679
0.0126927
0.0127035
0.0127116
0.0127168
0.0127191
0.0127186
0.0127156
0.0127104
0.0127036
0.0126953
0.0126846
0.0126717
0.0126564
0.0126388
0.0126184
0.0125948
0.0125681
0.0125381
0.0125047
0.0124681
0.0124282
0.0123857
0.0123414
0.0122957
0.0122493
0.0122013
0.0121518
0.0121008
0.0120489
0.0119951
0.0119383
0.0118789
0.0118164
0.0117504
0.0116795
0.0116048
0.0115259
0.0114448
0.0113609
0.0112749
0.0136694
0.0137636
0.0138531
0.013938
0.0140185
0.0140947
0.014166
0.0142323
0.0142943
0.0143518
0.0144051
0.0144547
0.0145008
0.0145423
0.0145796
0.0146138
0.0146443
0.0146708
0.0146928
0.0147094
0.0147217
0.01473
0.0147348
0.0147366
0.0147351
0.0147299
0.014721
0.0147083
0.0146932
0.0146767
0.0146598
0.0146411
0.0146211
0.0145989
0.0145755
0.0145496
0.0145199
0.0144867
0.0144502
0.0144104
0.0143667
0.0143187
0.0142668
0.0142125
0.0141566
0.0141005
0.0140421
0.0139826
0.0139218
0.0138618
0.0138003
0.0137352
0.0136683
0.0135984
0.0135257
0.0134469
0.0133638
0.0132755
0.0131856
0.0130921
0.0129962
0.0155245
0.0156186
0.0157072
0.01579
0.0158677
0.0159396
0.0160069
0.0160694
0.0161279
0.0161814
0.0162295
0.016274
0.016315
0.0163516
0.0163827
0.0164094
0.0164341
0.0164558
0.0164729
0.0164836
0.0164874
0.0164872
0.0164829
0.0164744
0.0164628
0.0164469
0.0164266
0.0164002
0.0163686
0.016335
0.016303
0.0162695
0.0162364
0.0162018
0.016169
0.0161357
0.0160972
0.0160538
0.0160078
0.0159602
0.0159094
0.0158539
0.0157926
0.0157276
0.0156609
0.0155946
0.0155241
0.0154532
0.0153796
0.0153093
0.0152391
0.0151636
0.0150873
0.0150093
0.0149303
0.0148436
0.0147531
0.0146555
0.0145572
0.014455
0.014351
0.01722
0.0173089
0.0173937
0.0174642
0.0175324
0.017586
0.0176412
0.0176836
0.017728
0.0177741
0.017812
0.0178359
0.0178644
0.0178916
0.0179128
0.0179252
0.017933
0.0179409
0.0179504
0.0179546
0.0179469
0.0179367
0.0179249
0.0179041
0.0178793
0.0178502
0.0178187
0.0177824
0.017733
0.0176762
0.0176228
0.0175674
0.0175137
0.0174571
0.017407
0.0173633
0.0173142
0.0172551
0.0171938
0.0171335
0.0170731
0.0170153
0.0169456
0.0168706
0.0167981
0.0167223
0.0166446
0.016562
0.0164769
0.0163935
0.0163137
0.0162247
0.0161339
0.0160481
0.0159591
0.0158688
0.0157705
0.0156677
0.0155599
0.0154512
0.0153381
0.00032089
0.000322856
0.000324902
0.000327024
0.000329195
0.000331368
0.000333575
0.000335846
0.000338158
0.000340495
0.000342853
0.000345258
0.000347683
0.000350194
0.000353302
0.000356104
0.000358857
0.000361599
0.000364343
0.000367114
0.000369896
0.000372693
0.000375512
0.000378334
0.000381144
0.000383951
0.000386755
0.000389543
0.000392298
0.000395022
0.000397705
0.000400337
0.000402905
0.00040541
0.00040783
0.000410157
0.000412385
0.00041449
0.00041632
0.000417645
0.000418555
0.000419059
0.000419155
0.000418838
0.00041805
0.000416728
0.000414827
0.000412281
0.000408966
0.000404727
0.000399425
0.00039289
0.000384827
0.000374907
0.00036212
0.00034076
0.000330416
0.000324951
0.000322732
0.000321672
0.000319463
0.00173924
0.00170741
0.00167505
0.00164251
0.00160976
0.00157711
0.00154398
0.00151114
0.00147819
0.00144565
0.00141381
0.00138167
0.0013501
0.00131879
0.00128383
0.00124915
0.0012149
0.00118127
0.00114835
0.00111618
0.00108474
0.00105383
0.00102346
0.000993598
0.000964221
0.00093537
0.000907019
0.00087922
0.000851949
0.000825214
0.000799051
0.000773483
0.000748503
0.000724156
0.000700502
0.000677558
0.000655424
0.000634175
0.000613481
0.00059052
0.000566927
0.000544277
0.00052267
0.000502292
0.000483241
0.00046572
0.000450008
0.000436371
0.000425082
0.000416479
0.000410933
0.000408881
0.000410753
0.000417075
0.000426638
0.000448971
0.000483783
0.000539828
0.000626272
0.000751006
0.000870957
0.00416874
0.00411524
0.00406086
0.00400504
0.00394798
0.00388998
0.00383095
0.00377134
0.00371113
0.00365092
0.00358902
0.00352733
0.00346831
0.00340924
0.00334745
0.00328328
0.00321776
0.00315203
0.00308641
0.00302121
0.00295627
0.00289125
0.00282616
0.00276101
0.00269568
0.00263025
0.00256465
0.00249891
0.00243288
0.00236664
0.00230007
0.00223317
0.00216599
0.00209844
0.00203057
0.00196237
0.0018939
0.00182513
0.00175584
0.00168469
0.00161133
0.00152601
0.00143317
0.00133739
0.00123981
0.00114165
0.00104452
0.000949962
0.000859955
0.000776524
0.00070168
0.000637326
0.000584725
0.000545243
0.000518677
0.000509192
0.00051953
0.000554842
0.000624801
0.000743555
0.000907104
0.00674641
0.00667989
0.00661183
0.00654163
0.00646885
0.0063946
0.00631893
0.00624259
0.00616598
0.00608891
0.00600837
0.00592968
0.00585382
0.00577786
0.00569888
0.00561659
0.00553177
0.00544613
0.00536022
0.0052744
0.00518843
0.00510155
0.00501399
0.00492578
0.00483671
0.00474679
0.00465589
0.00456401
0.00447089
0.00437644
0.0042806
0.00418337
0.00408469
0.00398459
0.0038831
0.0037802
0.00367584
0.00357003
0.00346253
0.00335278
0.00323993
0.00312059
0.00298646
0.00283504
0.00267182
0.00249704
0.00231149
0.00211638
0.00191415
0.00170886
0.00150512
0.00131023
0.00113066
0.000973327
0.000842184
0.000742407
0.000677132
0.000646449
0.000652531
0.000703033
0.000806426
0.00912303
0.00904505
0.0089653
0.00888345
0.00879755
0.00870959
0.00862008
0.00853067
0.00844086
0.00835062
0.0082561
0.00816393
0.0080743
0.00798491
0.00789257
0.00779655
0.00769726
0.00759718
0.00749664
0.0073961
0.00729496
0.00719208
0.00708815
0.00698331
0.00687699
0.00676938
0.00666006
0.00654901
0.00643579
0.00632036
0.00620262
0.00608275
0.00596078
0.00583686
0.00571098
0.00558325
0.00545366
0.00532217
0.00518859
0.00505263
0.00491374
0.00477057
0.00461977
0.00445195
0.00426564
0.00406302
0.00384252
0.0036027
0.00334239
0.00306244
0.00276435
0.002453
0.00213735
0.00183
0.00154533
0.00129806
0.00110045
0.000954956
0.000859108
0.000812317
0.000818213
0.011186
0.0110968
0.0110061
0.0109133
0.0108153
0.0107147
0.0106118
0.0105098
0.010408
0.0103062
0.0101996
0.0100951
0.00999299
0.00989207
0.00978792
0.00968025
0.009569
0.0094577
0.00934589
0.00923411
0.00912122
0.00900541
0.0088887
0.0087713
0.00865187
0.00853068
0.00840703
0.00828102
0.0081518
0.00801968
0.00788452
0.00774699
0.00760721
0.00746556
0.00732188
0.00717647
0.00702927
0.00688036
0.00672957
0.0065768
0.00642156
0.00626331
0.0061005
0.00592924
0.00573872
0.0055324
0.00530741
0.00506218
0.00479352
0.00449856
0.00417525
0.00382223
0.00344155
0.00304129
0.00263432
0.00224218
0.00188794
0.00158734
0.0013467
0.00116716
0.00104834
0.0128959
0.0127958
0.0126947
0.0125921
0.0124826
0.0123696
0.0122535
0.0121395
0.0120266
0.0119147
0.0117965
0.0116806
0.0115672
0.0114565
0.0113422
0.0112249
0.0111036
0.0109835
0.0108629
0.0107426
0.0106204
0.0104937
0.0103672
0.0102408
0.0101113
0.00997944
0.00984395
0.0097058
0.00956306
0.00941697
0.00926736
0.00911611
0.00896285
0.00880857
0.00865253
0.00849544
0.00833691
0.00817754
0.00801704
0.00785561
0.0076926
0.00752776
0.00736027
0.00718805
0.00700638
0.0068053
0.00658776
0.00635167
0.00609424
0.00581248
0.00550243
0.00516012
0.00478296
0.00436969
0.00392546
0.00346251
0.00300124
0.00256543
0.00217379
0.00183864
0.00156742
0.0142402
0.0141289
0.0140179
0.0139067
0.013787
0.0136625
0.0135341
0.0134082
0.0132853
0.0131643
0.0130358
0.0129094
0.0127865
0.0126679
0.0125456
0.0124204
0.0122917
0.0121646
0.0120374
0.0119109
0.0117809
0.0116449
0.0115114
0.0113792
0.0112415
0.0111002
0.0109542
0.0108054
0.0106503
0.0104918
0.01033
0.0101688
0.010006
0.00984399
0.00968044
0.00951712
0.00935272
0.00918963
0.00902678
0.00886511
0.00870281
0.00854015
0.00837595
0.00820893
0.00803592
0.00784876
0.0076446
0.00742363
0.00718447
0.00692496
0.00664237
0.00633251
0.00599031
0.0056116
0.00519404
0.00473969
0.00425791
0.0037639
0.00327745
0.00281764
0.00240214
0.0152229
0.0150985
0.0149801
0.0148573
0.0147326
0.0145959
0.0144595
0.014319
0.014189
0.0140577
0.0139232
0.0137861
0.013658
0.0135314
0.0134064
0.0132722
0.0131425
0.0130066
0.0128755
0.0127463
0.0126074
0.0124662
0.0123279
0.0121892
0.0120451
0.0118922
0.0117378
0.011577
0.011411
0.0112407
0.0110709
0.0109038
0.0107354
0.0105694
0.0104036
0.0102392
0.010075
0.00991728
0.0097613
0.00960994
0.0094566
0.00930472
0.0091512
0.00899508
0.00883488
0.00866582
0.00847797
0.00827324
0.00805472
0.00782551
0.00757624
0.00730861
0.0070107
0.00668418
0.00631866
0.00591784
0.0054743
0.00500004
0.00449868
0.00398631
0.0034838
0.000315436
0.000310831
0.000305793
0.000300369
0.000294767
0.000289091
0.000283504
0.000278212
0.000273374
0.000269101
0.000265455
0.000262487
0.000260148
0.00025836
0.000257058
0.000256164
0.000255576
0.000255216
0.000255034
0.000255
0.000255071
0.000255226
0.000255457
0.000255747
0.000256081
0.00025647
0.000256913
0.000257403
0.000257934
0.00025851
0.000259122
0.000259768
0.000260442
0.000261141
0.00026185
0.000262565
0.00026328
0.00026398
0.000264644
0.000265266
0.000265846
0.000266367
0.000266821
0.00026722
0.000267548
0.000267805
0.000268016
0.000268207
0.000268384
0.000268545
0.000268722
0.000268945
0.000269189
0.000269468
0.000269784
0.000270138
0.000270491
0.000270804
0.000271093
0.000271356
0.00027157
0.000936258
0.000991577
0.00103477
0.00106047
0.001071
0.00107042
0.0010564
0.00102996
0.000993632
0.00094961
0.000900174
0.000848678
0.000797693
0.000749167
0.000703563
0.000662388
0.000626989
0.000597632
0.00057386
0.000555099
0.000540574
0.000529497
0.000521139
0.000514908
0.000510425
0.000507315
0.000505393
0.000504449
0.00050434
0.000504933
0.000506106
0.000507735
0.000509684
0.000511803
0.000513955
0.000516003
0.000517788
0.000519169
0.000519984
0.000520091
0.000519348
0.000517623
0.000514803
0.000510798
0.00050557
0.000499143
0.000491622
0.000483226
0.000474258
0.000465149
0.000456397
0.000448524
0.000441988
0.000437104
0.000434065
0.000432818
0.000433179
0.000434803
0.000437368
0.000440427
0.000443567
0.00107823
0.00125012
0.00141877
0.00156738
0.00166632
0.00174334
0.00179549
0.00181793
0.00181489
0.0017895
0.00174285
0.00167947
0.0016034
0.00151828
0.00142642
0.00133251
0.00124252
0.00116099
0.00108933
0.00102957
0.000981865
0.000945242
0.000918072
0.000898506
0.00088497
0.000876161
0.000871257
0.000869394
0.000870009
0.000872551
0.000876598
0.000881658
0.000887235
0.00089284
0.000897967
0.000902168
0.00090499
0.000906022
0.000904845
0.000901094
0.000894471
0.000884794
0.000871956
0.000856006
0.00083705
0.000815392
0.000791438
0.000765772
0.000739114
0.000712476
0.000687149
0.000664602
0.000646502
0.000634275
0.000629103
0.000631437
0.000641172
0.000657666
0.000679991
0.000707003
0.000737662
0.000959421
0.00115587
0.00138404
0.0016211
0.00183648
0.00203066
0.00220887
0.00233538
0.00242246
0.00247941
0.00250286
0.00249596
0.00246319
0.00240633
0.00232729
0.00222944
0.00211708
0.00200154
0.00188901
0.00178571
0.001696
0.00162283
0.00156651
0.00152556
0.00149759
0.00148053
0.00147257
0.00147212
0.0014778
0.00148836
0.00150277
0.00151999
0.00153886
0.00155816
0.00157676
0.00159357
0.00160747
0.00161739
0.0016223
0.00162121
0.00161327
0.0015978
0.00157435
0.00154275
0.00150303
0.00145569
0.0014015
0.00134158
0.00127719
0.00121027
0.00114334
0.00107973
0.00102355
0.000979569
0.000952552
0.000945721
0.000959356
0.000991805
0.00104009
0.00110088
0.00116928
0.000881073
0.00100449
0.00118911
0.0014252
0.00168924
0.0019608
0.00222534
0.00245929
0.00265931
0.00283327
0.00295913
0.00303852
0.00308616
0.00310077
0.00308511
0.00304392
0.00297905
0.00289212
0.00279538
0.00269708
0.0026024
0.00251814
0.00244892
0.00239662
0.00236079
0.0023402
0.00233356
0.00233945
0.00235597
0.00238125
0.00241383
0.00245209
0.0024941
0.00253782
0.00258133
0.0026227
0.00266001
0.00269141
0.00271493
0.00272874
0.0027311
0.00272066
0.00269615
0.00265678
0.00260188
0.00253171
0.00244669
0.00234794
0.00223692
0.00211594
0.00198819
0.00185851
0.00173312
0.00162056
0.00153172
0.00147823
0.00146301
0.00148396
0.00153524
0.00160567
0.00168886
0.000992003
0.00100042
0.00107702
0.00122341
0.00143406
0.00169617
0.0019905
0.00229011
0.00257448
0.00283315
0.00305264
0.00323048
0.00337749
0.00347566
0.00353239
0.00356429
0.0035713
0.00355784
0.00353106
0.00349463
0.00345537
0.0034172
0.00338452
0.00336114
0.00334943
0.00334998
0.00336365
0.00339098
0.00343074
0.0034812
0.00354108
0.00360857
0.00368138
0.00375688
0.00383252
0.00390565
0.00397369
0.00403395
0.00408368
0.0041202
0.00414091
0.00414382
0.00412687
0.00408857
0.0040273
0.00394299
0.00383527
0.00370488
0.00355265
0.00338076
0.00319209
0.00299162
0.00278609
0.00258504
0.0024025
0.00225719
0.00215642
0.0021082
0.00211158
0.00215709
0.0022335
0.00136486
0.00123356
0.00117548
0.00119246
0.00128503
0.00145121
0.0016837
0.00196631
0.00227659
0.00259037
0.00288462
0.00314494
0.00336713
0.00354537
0.0036844
0.00380004
0.00387678
0.00392879
0.00397251
0.00401135
0.00405557
0.00410339
0.00415414
0.00420775
0.00426464
0.00432588
0.00439353
0.00447048
0.00455636
0.00465016
0.00475139
0.00485859
0.00496988
0.00508266
0.00519439
0.00530223
0.00540324
0.00549418
0.00557169
0.00563245
0.00567334
0.0056918
0.00568539
0.00565216
0.00558962
0.00549712
0.00537359
0.00521929
0.00503456
0.00482091
0.00458059
0.00431785
0.00403815
0.00374932
0.00346356
0.00319908
0.0029762
0.0028164
0.00273262
0.00272339
0.00277428
0.00204468
0.00175611
0.00154323
0.00141023
0.0013586
0.00138824
0.00149739
0.00168076
0.00192777
0.00222069
0.00253564
0.0028485
0.00314112
0.00339919
0.00361825
0.00380151
0.00395015
0.00407237
0.00418521
0.00427654
0.00438588
0.00450656
0.00463897
0.00478144
0.00493329
0.00509047
0.00525003
0.00540942
0.00557063
0.00573325
0.00589678
0.00605958
0.00622047
0.00637812
0.00653056
0.00667577
0.00681103
0.00693298
0.00703778
0.00712173
0.00718215
0.00721544
0.00721945
0.00719223
0.00713069
0.00703299
0.00689836
0.00672527
0.00651473
0.00626704
0.00598443
0.00566924
0.00532516
0.00495806
0.00457564
0.00419325
0.00384068
0.00355438
0.00336533
0.00328599
0.00330098
0.00300611
0.0025762
0.00220914
0.00191465
0.00170266
0.00157647
0.00153685
0.00158096
0.00170454
0.00189988
0.00215319
0.00244719
0.00276245
0.00307765
0.00337496
0.00364755
0.00388124
0.00407678
0.00423811
0.00437546
0.00454348
0.0047052
0.00488216
0.00508087
0.00530668
0.00555258
0.00581247
0.00607707
0.00633914
0.0065958
0.00684573
0.00708456
0.00730941
0.00752358
0.00772402
0.00791171
0.00808496
0.00824029
0.00837355
0.00847996
0.00856103
0.0086076
0.0086223
0.00860113
0.00854329
0.00844239
0.00830219
0.00811273
0.00788271
0.00760622
0.00729095
0.00693247
0.0065337
0.00610218
0.00563808
0.00515398
0.00468517
0.00428336
0.00399181
0.00384186
0.0038158
0.00510012
0.0180187
0.0183942
0.00177942
0.00514742
0.00705768
0.00125021
0.00579536
0.00128972
0.00334436
0.0104998
0.0147832
0.00124998
0.0127266
0.006623
0.0200453
0.00126346
0.0062082
0.00991071
0.00125375
0.00178856
0.0126133
0.0174591
0.00127735
0.00127954
0.00477613
0.00125348
0.00297681
0.00125996
0.00131413
0.00640824
0.0012797
0.00272875
0.00905431
0.0139427
0.0091981
0.00802785
0.0139092
0.00124673
0.0137404
0.00502852
0.0134481
0.0012468
0.0198368
0.00509962
0.00989898
0.00134975
0.00238413
0.00131704
0.0149777
0.0102972
0.0153969
0.00124499
0.00143706
0.00197806
0.000201558
0.0013117
0.00477697
0.00886622
0.0177752
0.00401505
0.00135649
0.00130649
0.00364596
0.0193017
0.00696928
0.00914973
0.00422695
0.00148364
0.00124254
0.0137357
0.0142247
0.00484946
0.000478259
0.00274571
0.0187238
0.0184436
0.0170835
0.00124238
0.0143175
0.00193665
0.013012
0.000825839
0.0189398
0.00124255
0.0118574
0.00128554
0.0121049
0.0017827
0.00158761
0.00553409
0.00124186
0.00137872
0.0171326
0.0195629
0.00134054
0.0108887
0.00405551
0.00177841
0.0195453
0.003502
0.0180998
0.00843627
0.00124145
0.00124187
0.00124414
0.00601505
0.00667083
0.00126399
0.0199805
0.0192486
0.00163642
0.00765972
0.00779472
0.00521361
0.0126573
0.0101922
0.00140489
0.00592482
0.00142348
0.0010342
0.00541165
0.00154322
0.0175211
0.0128828
0.00303174
0.00124624
0.0129871
0.0134636
0.00124637
0.00349823
0.00372948
0.00291835
0.00154503
0.0134763
0.0012457
0.00124189
0.0135553
0.0157572
0.00125319
0.00298879
0.0198211
0.00432633
0.00902586
0.00826512
0.0172203
0.000455542
0.00888509
0.00249883
0.0156302
0.0128216
0.000204012
0.0143065
0.0188541
0.0196294
0.00128385
0.00126849
0.00818172
0.00125692
0.00831025
0.000762658
0.00162104
0.00124369
0.00124744
0.00124291
0.0175276
0.00403398
0.00663366
0.00129183
0.0137642
0.00653601
0.00225561
0.0128799
0.00253807
0.00752999
0.00598039
0.011501
0.00125953
0.00171069
0.00394798
0.0124009
0.0136431
0.0178995
0.00124781
0.0013258
0.00859666
0.00393732
0.011556
0.00124468
0.00135025
0.00569882
0.00129806
0.0162444
0.0102633
0.00125543
0.008557
0.00326918
0.0179571
0.00151504
0.00637437
0.0012476
0.0012536
0.0203428
0.0159408
0.0152362
0.0015232
0.00129474
0.00184386
0.0164524
0.00570353
0.0107073
0.0184015
0.0154368
0.0191153
0.00408613
0.0196108
0.018902
0.0130582
0.0153718
0.0124658
0.00148702
0.00418827
0.00125151
0.00127195
0.0105824
0.00295689
0.00310554
0.00148058
0.00246294
0.0144424
0.0095741
0.00288435
0.0184371
0.0136869
0.00506546
0.00124494
0.00445241
0.0178307
0.0129576
0.00145038
0.00978808
0.00326767
0.00349585
0.00275956
0.0180469
0.00750481
0.00437172
0.0199336
0.00138887
0.00124237
0.00142511
0.0023144
0.0096152
0.00129584
0.00152182
0.00124566
0.00761732
0.019726
0.0188486
0.0137862
0.0126629
0.0159957
0.016394
0.00148776
0.00810126
0.0186006
0.0012461
0.00432338
0.00124266
0.00440056
0.007558
0.00431407
0.00165373
0.00124633
0.0156071
0.00295214
0.00124291
0.00125556
0.00125871
0.00126151
0.00977898
0.00669248
0.017917
0.0017986
0.00124286
0.00124388
0.00124175
0.019466
0.00379893
0.00150753
0.0132061
0.00595035
0.00155113
0.00124335
0.00797227
0.00124266
0.00207059
0.00412931
0.00698313
0.00269914
0.00140997
0.00172898
0.0167393
0.00502207
0.00265701
0.0163558
0.00131653
0.00124338
0.00124546
0.019861
0.00127509
0.0152222
0.00124533
0.0137391
0.0110717
0.00272883
0.00540624
0.00579226
0.00154585
0.0133624
0.013046
0.00276352
0.0224708
0.0108612
0.0158325
0.0141201
0.0199734
0.00822972
0.0195946
0.00478026
0.00658875
0.0161273
0.0177994
0.0129282
0.0123343
0.00140437
0.015521
0.00532083
0.0189098
0.00362415
0.00133371
0.00124658
0.00129917
0.00410742
0.0101834
0.0064578
0.00611978
0.00124892
0.0199427
0.00124615
0.00728649
0.0144244
0.0196915
0.0133985
0.015844
0.00165816
0.00147234
0.00143877
0.00838744
0.00218602
0.00633193
0.00894885
0.0105809
0.018412
0.0173604
0.0161363
0.00131326
0.0176644
0.0195364
0.00285821
0.00125439
0.019328
0.0198631
0.00127874
0.0116382
0.00125538
0.0102687
0.0157568
0.0112853
0.0193966
0.00496776
0.0200665
0.00127538
0.0201238
0.00139095
0.0175022
0.0177232
0.0116511
0.0177839
0.01263
0.00828879
0.0104829
0.00146965
0.00376821
0.00132323
0.00205409
0.00127857
0.00677724
0.00138435
0.0185354
0.00124352
0.00125587
0.00176366
0.00947808
0.00511838
0.0140452
0.00148043
0.0195547
0.00777385
0.018499
0.00610454
0.0166008
0.00991552
0.00129853
0.0178144
0.0176702
0.00125011
0.0176444
0.0148849
0.0012442
0.00124176
0.00876976
0.00183383
0.0115556
0.00143781
0.00673171
0.00364989
0.00945424
0.0162641
0.0170254
0.0159883
0.0160123
0.0182157
0.001404
0.00123632
0.00896277
0.0117836
0.0159822
0.0106443
0.0179156
0.00454132
0.0197197
0.0197065
0.00666361
0.00296606
0.016433
0.0149355
0.00132407
0.0182256
0.014438
0.00144802
0.019498
0.016354
0.0165222
0.00342352
0.00461036
0.0123105
0.00166033
0.016153
0.00153786
0.00335956
0.00125173
0.0111923
0.00288275
0.00859196
0.00156648
0.0013661
0.00893394
0.00871568
0.00163655
0.00260695
0.0101183
0.00278196
0.00131076
0.0159234
0.00902582
0.0134648
0.0078238
0.00353076
0.0119987
0.0165637
0.0180374
0.00637951
0.0120812
0.0170409
0.00626037
0.0152426
0.0199744
0.000420756
0.0057611
0.0125551
0.00129668
0.00319891
0.00810421
0.0127711
0.00277669
0.0221547
0.00433878
0.0103181
0.00640435
0.00168015
0.00124497