/*--------------------------------*- C++ -*----------------------------------*\
| =========                 |                                                 |
| \\      /  F ield         | OpenFOAM: The Open Source CFD Toolbox           |
|  \\    /   O peration     | Version:  2.3.1                                 |
|   \\  /    A nd           | Web:      www.OpenFOAM.org                      |
|    \\/     M anipulation  |                                                 |
\*---------------------------------------------------------------------------*/
FoamFile
{
    version     2.0;
    format      ascii;
    class       volVectorField;
    location    "0.78";
    object      U;
}
// * * * * * * * * * * * * * * * * * * * * * * * * * * * * * * * * * * * * * //

dimensions      [0 1 -1 0 0 0 0];

internalField   nonuniform List<vector> 
9648
(
(0.16663 -4.79486 -1.35057e-23)
(0.285301 -4.77056 -1.07624e-22)
(0.404346 -4.73866 0)
(0.525326 -4.71085 0)
(0.647238 -4.68707 1.05011e-20)
(0.770149 -4.66935 1.6323e-20)
(0.89652 -4.66102 -2.88296e-20)
(1.02883 -4.66489 -1.32378e-20)
(1.16868 -4.68214 1.32055e-20)
(1.31629 -4.71478 3.98144e-20)
(1.47371 -4.76456 -3.96488e-20)
(1.64283 -4.83254 -5.68473e-20)
(1.82565 -4.91932 3.02001e-19)
(2.02421 -5.0248 7.78751e-20)
(2.2402 -5.14811 -7.30362e-19)
(2.47487 -5.28795 0)
(2.72935 -5.44255 0)
(3.00449 -5.60981 1.32127e-19)
(3.30096 -5.78707 4.25519e-19)
(3.61883 -5.97152 -1.22343e-18)
(3.9581 -6.16052 -2.11683e-20)
(4.31865 -6.351 3.36757e-19)
(4.6997 -6.54005 3.97554e-19)
(5.10057 -6.72489 -1.80515e-18)
(5.52032 -6.90283 0)
(5.95793 -7.07127 1.07939e-18)
(6.41208 -7.2277 -1.1314e-18)
(6.88139 -7.37009 0)
(7.36446 -7.49625 0)
(7.85962 -7.60453 -6.85883e-19)
(8.36541 -7.69326 -1.51646e-18)
(8.88 -7.76097 2.38057e-18)
(9.40182 -7.80657 0)
(9.92908 -7.82884 0)
(10.46 -7.8271 1.82223e-18)
(10.9929 -7.80052 -1.96029e-18)
(11.5258 -7.74868 0)
(12.0574 -7.67129 4.20697e-18)
(12.5857 -7.56799 1.13434e-18)
(13.109 -7.43863 -3.35823e-18)
(13.6254 -7.28327 6.31093e-20)
(14.1335 -7.10239 2.38854e-18)
(14.6317 -6.89588 -3.17216e-18)
(15.118 -6.66426 6.38059e-19)
(15.5915 -6.40832 0)
(16.0507 -6.12819 0)
(16.4939 -5.82457 4.81115e-18)
(16.92 -5.49826 7.0406e-19)
(17.3282 -5.15016 -2.17537e-18)
(17.718 -4.78027 -7.32229e-19)
(18.0871 -4.3893 -7.61447e-19)
(18.434 -3.97958 7.56728e-19)
(18.7582 -3.55282 3.90853e-19)
(19.059 -3.10976 -3.88742e-19)
(19.3352 -2.65213 1.98405e-18)
(19.5864 -2.18101 -1.95361e-18)
(19.8116 -1.69784 -2.16592e-20)
(20.0105 -1.20383 0)
(20.1825 -0.700447 -3.96759e-19)
(20.3273 -0.189352 -5.13033e-20)
(20.4449 0.328249 -4.86454e-20)
(-0.0578109 -2.51537 1.16009e-22)
(0.00699259 -2.51679 0)
(0.075271 -2.53063 0)
(0.149413 -2.55781 6.10452e-21)
(0.228324 -2.60409 -6.3441e-21)
(0.316488 -2.67317 -3.84809e-20)
(0.415574 -2.7638 0)
(0.527279 -2.87409 0)
(0.653559 -3.00446 -4.5296e-20)
(0.794852 -3.15528 0)
(0.952381 -3.32536 -1.07931e-19)
(1.12693 -3.51315 8.48629e-20)
(1.3194 -3.71729 -4.58291e-20)
(1.53073 -3.93606 0)
(1.76168 -4.16747 2.84268e-19)
(2.01256 -4.40939 1.68035e-19)
(2.28368 -4.65954 -1.65304e-19)
(2.57519 -4.91566 2.14268e-19)
(2.88726 -5.17522 -6.52501e-19)
(3.21967 -5.43572 5.18628e-19)
(3.5721 -5.69483 -5.73702e-19)
(3.94427 -5.95001 -3.08917e-19)
(4.33538 -6.19891 -3.16716e-19)
(4.74468 -6.43923 1.08749e-18)
(5.17125 -6.66876 3.76393e-19)
(5.61416 -6.88534 4.46901e-19)
(6.07227 -7.08698 -3.96425e-19)
(6.54432 -7.27194 0)
(7.02907 -7.43843 0)
(7.525 -7.5851 0)
(8.03078 -7.7105 0)
(8.54477 -7.81344 0)
(9.06548 -7.89293 0)
(9.5914 -7.94797 0)
(10.1207 -7.978 -8.1642e-19)
(10.652 -7.98225 7.41661e-19)
(11.1835 -7.96045 8.17596e-19)
(11.7136 -7.91229 -4.15297e-18)
(12.2408 -7.83745 -8.81175e-19)
(12.7633 -7.73589 2.70966e-18)
(13.2794 -7.60774 1.90094e-18)
(13.7876 -7.4534 -1.96156e-18)
(14.2864 -7.27278 9.36883e-19)
(14.7741 -7.06657 9.88471e-19)
(15.2492 -6.8354 -1.05041e-18)
(15.7105 -6.57951 1.0411e-18)
(16.1563 -6.29975 -2.2311e-18)
(16.5855 -5.99695 0)
(16.9966 -5.67204 -5.6983e-19)
(17.3891 -5.32516 1.14503e-18)
(17.762 -4.95704 -5.75353e-19)
(18.1141 -4.56952 0)
(18.4444 -4.164 1.18233e-18)
(18.7519 -3.74126 0)
(19.0358 -3.30277 0)
(19.2951 -2.84971 2.80182e-18)
(19.5292 -2.38337 -1.26269e-18)
(19.7375 -1.90539 -3.07157e-19)
(19.9196 -1.41661 3.24179e-19)
(20.0749 -0.91876 0)
(20.203 -0.413095 8.15091e-20)
(0.0539013 -1.46673 -2.6048e-22)
(0.108962 -1.50927 0)
(0.170725 -1.57163 -5.21867e-22)
(0.240858 -1.65594 -3.01243e-22)
(0.318892 -1.7599 0)
(0.408558 -1.88192 3.31043e-20)
(0.51098 -2.02423 2.21469e-20)
(0.627474 -2.18583 0)
(0.75953 -2.36633 2.25615e-21)
(0.908918 -2.56431 4.63439e-20)
(1.07659 -2.77865 9.20582e-20)
(1.26316 -3.00744 -3.18895e-20)
(1.46917 -3.24884 0)
(1.69496 -3.50077 0)
(1.94081 -3.76109 2.1627e-19)
(2.20666 -4.02767 -1.37191e-19)
(2.49246 -4.29827 -1.46923e-19)
(2.79805 -4.57068 0)
(3.12319 -4.84264 5.64263e-19)
(3.46755 -5.11194 -5.85468e-19)
(3.83064 -5.37652 -4.37173e-19)
(4.21194 -5.63426 -4.80962e-19)
(4.61067 -5.88312 0)
(5.02595 -6.12115 -8.60695e-19)
(5.45685 -6.34639 -3.02473e-19)
(5.90239 -6.55703 3.5903e-19)
(6.36147 -6.75135 3.96256e-19)
(6.83292 -6.92783 0)
(7.31547 -7.08504 0)
(7.80774 -7.22172 0)
(8.30833 -7.3367 0)
(8.81577 -7.42897 0)
(9.32861 -7.49762 0)
(9.84534 -7.54194 0)
(10.3644 -7.56138 -1.78896e-18)
(10.8842 -7.5554 5.94251e-19)
(11.4032 -7.52375 -6.552e-19)
(11.9198 -7.4662 3.29716e-18)
(12.4327 -7.3826 0)
(12.94 -7.273 1.40215e-18)
(13.4403 -7.1376 1.44987e-18)
(13.932 -6.97671 7.18289e-19)
(14.4136 -6.79047 -8.22502e-19)
(14.8837 -6.57942 -1.58416e-18)
(15.341 -6.34412 2.46781e-18)
(15.784 -6.08508 -8.34725e-19)
(16.2115 -5.80309 -1.70246e-18)
(16.6223 -5.49894 0)
(17.0151 -5.17365 0)
(17.3888 -4.82821 -4.64519e-19)
(17.7426 -4.4637 -4.54168e-19)
(18.0755 -4.08103 -9.28862e-19)
(18.3869 -3.68129 -9.72163e-19)
(18.6756 -3.2659 0)
(18.9409 -2.83565 -9.61391e-19)
(19.1822 -2.39228 -1.00179e-18)
(19.3988 -1.93652 0)
(19.5901 -1.47055 1.6238e-20)
(19.7555 -0.994694 0)
(19.8947 -0.510697 0)
(20.0077 -0.0195792 -6.20394e-20)
(0.0228902 -0.968694 5.58909e-22)
(0.0821456 -1.04919 -7.11028e-22)
(0.152702 -1.14876 -1.13121e-22)
(0.235071 -1.26678 -2.0672e-21)
(0.329699 -1.40249 0)
(0.436438 -1.55564 -1.38416e-20)
(0.556685 -1.72649 -1.91277e-20)
(0.691638 -1.91452 0)
(0.842614 -2.11893 3.10652e-21)
(1.01046 -2.33856 -3.96211e-20)
(1.19601 -2.57198 8.87455e-20)
(1.39958 -2.81749 1.06863e-19)
(1.62154 -3.0731 0)
(1.86208 -3.33676 -8.3528e-20)
(2.12144 -3.60645 -1.76944e-19)
(2.39939 -3.88016 -9.41238e-20)
(2.6958 -4.15577 3.61363e-19)
(3.01046 -4.4312 -2.60784e-19)
(3.343 -4.70441 2.91937e-19)
(3.69313 -4.97335 4.96504e-19)
(4.06043 -5.23622 7.17824e-19)
(4.44421 -5.49118 4.04319e-19)
(4.84382 -5.73639 1.94504e-19)
(5.25835 -5.97014 7.05633e-19)
(5.68693 -6.19064 2.31717e-19)
(6.12863 -6.39624 2.63334e-19)
(6.58241 -6.58542 3.10326e-19)
(7.0473 -6.75677 -9.28593e-19)
(7.52205 -6.90907 6.66197e-19)
(8.00536 -7.04116 7.52106e-19)
(8.49602 -7.15197 -1.53711e-18)
(8.99257 -7.24061 7.84664e-19)
(9.49367 -7.30621 -8.40172e-19)
(9.99801 -7.34814 4.18718e-19)
(10.504 -7.36592 4.58723e-19)
(11.0103 -7.35908 5.08756e-19)
(11.5154 -7.32732 -5.02311e-19)
(12.0179 -7.27051 -5.47128e-19)
(12.5163 -7.18853 -1.63967e-18)
(13.0091 -7.08147 -1.1825e-18)
(13.4949 -6.94955 -2.39688e-18)
(13.972 -6.79298 -3.10435e-18)
(14.4392 -6.61206 1.27252e-18)
(14.8951 -6.40717 2.86952e-20)
(15.3383 -6.17888 -7.12231e-19)
(15.7676 -5.92773 -6.98618e-19)
(16.1817 -5.65438 4.22344e-18)
(16.5796 -5.35962 -7.07855e-19)
(16.9601 -5.04424 0)
(17.3222 -4.70917 0)
(17.665 -4.35543 -7.10735e-19)
(17.9875 -3.98419 3.16656e-20)
(18.2891 -3.59646 7.62387e-19)
(18.5688 -3.19338 0)
(18.8259 -2.77622 8.11722e-19)
(19.0596 -2.3463 0)
(19.2694 -1.90478 0)
(19.4546 -1.45261 6.18453e-19)
(19.615 -0.991344 1.96698e-19)
(19.75 -0.522434 -2.00431e-19)
(19.8595 -0.0473503 1.02554e-19)
(0.111176 -0.722276 4.36549e-23)
(0.172685 -0.824782 6.21424e-22)
(0.247767 -0.943961 -7.8347e-22)
(0.337165 -1.08027 1.13431e-21)
(0.440799 -1.23361 -3.20951e-21)
(0.559228 -1.40361 5.6106e-21)
(0.692985 -1.58993 2.37959e-21)
(0.842674 -1.79169 -1.41816e-20)
(1.00924 -2.00801 4.13632e-20)
(1.19281 -2.23763 -5.96072e-20)
(1.39391 -2.47904 6.68561e-20)
(1.61233 -2.73055 -8.27288e-20)
(1.84831 -2.99014 -4.7595e-20)
(2.10168 -3.25584 0)
(2.37277 -3.52565 8.64375e-20)
(2.66103 -3.79785 8.29789e-20)
(2.96628 -4.07043 0)
(3.2883 -4.34141 2.046e-19)
(3.62657 -4.60891 0)
(3.98091 -4.87099 -2.7005e-19)
(4.35096 -5.12611 2.94442e-19)
(4.73593 -5.37266 1.02008e-20)
(5.13527 -5.60896 -1.70219e-20)
(5.54795 -5.83353 2.89716e-20)
(5.97318 -6.04463 -8.24247e-19)
(6.41014 -6.24076 -4.7259e-19)
(6.85779 -6.42052 9.72429e-19)
(7.31535 -6.58258 1.05431e-18)
(7.78161 -6.72596 -5.70374e-19)
(8.25536 -6.84954 0)
(8.73548 -6.95235 0)
(9.22051 -7.03362 0)
(9.7093 -7.09243 7.20566e-19)
(10.2006 -7.12824 -2.97499e-18)
(10.693 -7.14071 1.5563e-18)
(11.1851 -7.12935 -7.91294e-19)
(11.6757 -7.09384 -1.70615e-18)
(12.1632 -7.0342 1.73041e-18)
(12.6463 -6.95025 3.97073e-20)
(13.1237 -6.84212 -9.76314e-19)
(13.594 -6.7101 1.00847e-18)
(14.0557 -6.55438 1.0425e-18)
(14.5074 -6.37523 0)
(14.9478 -6.17298 -1.05832e-18)
(15.3757 -5.94819 0)
(15.7899 -5.70141 -1.69013e-18)
(16.1892 -5.43328 5.22517e-19)
(16.5726 -5.14452 0)
(16.939 -4.83584 -6.12674e-19)
(17.2873 -4.50824 -1.45976e-20)
(17.617 -4.16255 1.30491e-18)
(17.9269 -3.79994 -6.20097e-19)
(18.2164 -3.4215 -3.44755e-19)
(18.4848 -3.02832 6.31438e-19)
(18.7312 -2.62176 -4.79262e-21)
(18.9549 -2.2028 3.29226e-19)
(19.1551 -1.77275 1.5904e-19)
(19.3314 -1.33252 3.35617e-19)
(19.4837 -0.883341 -8.43102e-19)
(19.6115 -0.426705 3.38614e-19)
(19.7144 0.0358362 -4.33255e-20)
(0.191379 -0.591557 -2.90121e-22)
(0.266117 -0.709749 0)
(0.355537 -0.843418 1.53886e-21)
(0.460378 -0.993191 0)
(0.579847 -1.15889 8.79493e-22)
(0.714872 -1.33988 7.87117e-21)
(0.865612 -1.53569 8.86564e-21)
(1.03242 -1.74513 2.73819e-20)
(1.21615 -1.96727 3.79732e-21)
(1.41626 -2.20092 5.81959e-21)
(1.63336 -2.44448 1.14458e-21)
(1.86655 -2.69646 -3.15329e-20)
(2.11619 -2.95479 4.60906e-20)
(2.38147 -3.21751 -1.4033e-19)
(2.6634 -3.4827 1.18986e-19)
(2.96098 -3.74918 -8.43053e-21)
(3.27379 -4.01472 -1.47002e-19)
(3.60198 -4.27758 -1.76682e-19)
(3.94457 -4.5361 0)
(4.30165 -4.78823 2.09763e-19)
(4.67317 -5.03276 8.31144e-21)
(5.05784 -5.26844 -5.42122e-19)
(5.45568 -5.49354 -2.30796e-20)
(5.86518 -5.70705 -2.93452e-19)
(6.28567 -5.90703 1.03412e-18)
(6.71651 -6.09213 3.51148e-20)
(7.15655 -6.26111 -3.84107e-19)
(7.60547 -6.41256 -4.07532e-20)
(8.06194 -6.54595 0)
(8.52473 -6.66009 0)
(8.9931 -6.75404 0)
(9.46533 -6.82731 0)
(9.94039 -6.8788 0)
(10.4175 -6.90797 5.6781e-20)
(10.8951 -6.91478 -6.66637e-19)
(11.3716 -6.89872 -3.86456e-20)
(11.8463 -6.85922 2.89135e-20)
(12.3176 -6.79666 6.87665e-19)
(12.7843 -6.71071 1.57097e-18)
(13.2452 -6.60153 -2.36923e-18)
(13.699 -6.46963 1.6488e-18)
(14.1441 -6.31505 -8.32009e-19)
(14.579 -6.13816 0)
(15.003 -5.93899 9.23817e-19)
(15.4147 -5.71824 0)
(15.8128 -5.47645 9.72242e-19)
(16.1965 -5.21408 -9.94753e-19)
(16.5644 -4.93215 4.67288e-19)
(16.9157 -4.63096 4.99067e-19)
(17.2497 -4.31154 -5.20685e-19)
(17.5654 -3.97475 3.72421e-20)
(17.862 -3.62182 -1.05618e-20)
(18.139 -3.25349 1.05902e-18)
(18.3955 -2.87118 -1.08984e-18)
(18.631 -2.47611 -5.37721e-19)
(18.8442 -2.06958 -2.63283e-19)
(19.0346 -1.65236 -8.3744e-19)
(19.2019 -1.2253 0)
(19.3459 -0.789496 5.65673e-19)
(19.4664 -0.346781 -1.45217e-19)
(19.563 0.101575 0)
(0.292824 -0.528674 0)
(0.381926 -0.658151 0)
(0.486903 -0.802797 -9.0561e-22)
(0.609241 -0.962944 2.1158e-22)
(0.746079 -1.13793 -2.29836e-21)
(0.899334 -1.32657 -1.24142e-20)
(1.06827 -1.52833 6.38794e-21)
(1.25258 -1.74171 -1.95589e-20)
(1.45432 -1.96598 -1.26947e-21)
(1.67078 -2.2 4.98252e-20)
(1.90418 -2.44219 -9.10571e-20)
(2.1516 -2.6914 0)
(2.41469 -2.9453 0)
(2.69062 -3.20218 1.59741e-19)
(2.98299 -3.4596 1.01847e-19)
(3.28907 -3.7178 -2.24078e-19)
(3.6083 -3.97393 3.62849e-19)
(3.94196 -4.22642 1.51266e-19)
(4.28766 -4.47421 -3.0248e-19)
(4.64623 -4.71452 -1.8279e-19)
(5.01864 -4.94657 2.09888e-19)
(5.4017 -5.16999 -5.10819e-21)
(5.79746 -5.38222 0)
(6.20276 -5.5837 5.39598e-19)
(6.61741 -5.77159 -8.87901e-19)
(7.04139 -5.94459 2.95616e-19)
(7.47241 -6.10204 6.53093e-19)
(7.91186 -6.24176 -1.81548e-18)
(8.35771 -6.36433 3.69635e-19)
(8.80834 -6.4684 0)
(9.26427 -6.55257 0)
(9.7227 -6.61751 0)
(10.1828 -6.66125 5.05873e-19)
(10.6449 -6.68299 1.56563e-18)
(11.1069 -6.68365 -1.05858e-18)
(11.5665 -6.66281 5.83933e-19)
(12.0245 -6.61862 6.39654e-19)
(12.4786 -6.55283 -1.26872e-18)
(12.9275 -6.46458 0)
(13.3711 -6.35373 -1.30241e-18)
(13.8072 -6.22177 6.76312e-19)
(14.2349 -6.06809 3.49236e-20)
(14.652 -5.8936 -3.1337e-20)
(15.0584 -5.69727 7.44504e-19)
(15.453 -5.48043 3.131e-20)
(15.8339 -5.2439 -2.37653e-18)
(16.2011 -4.98727 8.05182e-19)
(16.5524 -4.71237 -1.67218e-18)
(16.8879 -4.41859 0)
(17.2062 -4.10777 0)
(17.5072 -3.77983 1.76528e-18)
(17.7895 -3.43702 -4.2172e-19)
(18.0528 -3.07923 -9.14565e-19)
(18.2969 -2.70777 -4.39576e-19)
(18.5206 -2.32471 1.40357e-18)
(18.7228 -1.93107 7.07894e-19)
(18.9028 -1.52715 2.44654e-19)
(19.06 -1.11408 -4.60484e-21)
(19.195 -0.691976 -2.44805e-19)
(19.3078 -0.263282 0)
(19.3976 0.170138 0)
(0.411301 -0.508669 3.41958e-22)
(0.518034 -0.646329 0)
(0.639739 -0.798911 0)
(0.782232 -0.967035 -4.42645e-22)
(0.936846 -1.14888 0)
(1.10932 -1.34246 4.81849e-21)
(1.29668 -1.5474 6.14155e-21)
(1.49752 -1.76172 -1.26404e-20)
(1.7185 -1.98539 0)
(1.94996 -2.21724 -2.9801e-20)
(2.20067 -2.45566 3.94893e-21)
(2.46076 -2.70023 0)
(2.7381 -2.94788 0)
(3.02177 -3.19741 -6.72343e-20)
(3.32494 -3.44399 7.331e-20)
(3.63929 -3.69265 -9.16348e-20)
(3.96308 -3.93806 -1.05194e-19)
(4.30223 -4.17859 0)
(4.64968 -4.41535 1.35183e-19)
(5.00821 -4.64259 -2.85112e-19)
(5.38228 -4.86076 -3.18997e-19)
(5.76142 -5.07163 -3.73323e-19)
(6.15543 -5.26948 -3.30733e-20)
(6.55561 -5.45907 -4.72972e-19)
(6.9634 -5.63446 4.53869e-19)
(7.38068 -5.7946 5.05558e-19)
(7.80059 -5.94062 -5.74749e-19)
(8.23023 -6.06725 3.13395e-20)
(8.66514 -6.17866 4.21022e-20)
(9.10168 -6.2727 -6.62268e-19)
(9.54498 -6.3461 0)
(9.98866 -6.40316 -8.04825e-19)
(10.4326 -6.43878 1.5962e-18)
(10.8791 -6.45193 -4.44992e-20)
(11.3251 -6.44669 9.35594e-19)
(11.7656 -6.42229 -9.30681e-19)
(12.207 -6.37206 1.0253e-18)
(12.6428 -6.30316 1.06909e-18)
(13.0725 -6.21252 -2.11345e-18)
(13.4979 -6.0992 1.15567e-18)
(13.915 -5.96763 1.13636e-18)
(14.3247 -5.81447 1.79442e-18)
(14.7224 -5.64276 -6.38507e-19)
(15.1103 -5.44814 0)
(15.4868 -5.23533 3.41088e-20)
(15.849 -5.00506 6.93085e-19)
(16.1992 -4.75378 -6.73678e-19)
(16.5324 -4.48729 7.25221e-19)
(16.851 -4.20086 0)
(17.1522 -3.89969 0)
(17.4376 -3.5805 -3.96317e-20)
(17.7046 -3.24885 7.78567e-19)
(17.9531 -2.90093 0)
(18.1838 -2.5401 3.8668e-19)
(18.3956 -2.1702 3.89998e-19)
(18.5861 -1.79056 -7.94372e-19)
(18.7551 -1.40051 -3.89646e-19)
(18.9008 -1.00254 -2.06988e-19)
(19.0256 -0.593668 0)
(19.1305 -0.180051 0)
(19.2129 0.236992 2.47859e-20)
(0.546932 -0.515692 -9.74141e-22)
(0.677502 -0.658129 1.89117e-21)
(0.815485 -0.814037 -9.66198e-24)
(0.984347 -0.988053 -1.36591e-21)
(1.15305 -1.17337 1.17729e-21)
(1.34445 -1.37149 -7.11716e-22)
(1.55097 -1.57557 0)
(1.76451 -1.7868 1.47701e-21)
(2.00984 -2.00841 -1.47849e-20)
(2.25051 -2.23468 0)
(2.52423 -2.46826 6.03902e-20)
(2.78981 -2.70774 -3.75709e-20)
(3.08486 -2.94933 3.82355e-20)
(3.36891 -3.19182 4.86014e-20)
(3.68559 -3.42197 -6.33987e-20)
(4.00787 -3.66221 -7.72487e-20)
(4.332 -3.8968 2.54626e-19)
(4.68099 -4.12198 -2.64939e-19)
(5.02365 -4.35036 0)
(5.37733 -4.56604 -9.14496e-21)
(5.75974 -4.76904 7.84575e-19)
(6.12687 -4.97005 -2.94697e-20)
(6.52677 -5.14819 -3.70904e-19)
(6.91572 -5.32896 7.1072e-19)
(7.31472 -5.49424 0)
(7.72852 -5.64153 -4.36374e-19)
(8.13091 -5.7778 -4.46934e-19)
(8.55254 -5.88977 9.90181e-19)
(8.97757 -5.99094 -6.50853e-21)
(9.39577 -6.07653 5.86947e-19)
(9.82913 -6.13635 -1.19914e-18)
(10.254 -6.18801 1.90577e-18)
(10.6794 -6.21715 -1.36588e-18)
(11.1111 -6.22158 -1.43179e-18)
(11.5439 -6.20965 0)
(11.9604 -6.18235 8.14743e-19)
(12.3907 -6.12336 0)
(12.8045 -6.05447 -3.0807e-21)
(13.2125 -5.96337 9.64194e-19)
(13.6223 -5.84435 -1.79364e-18)
(14.018 -5.71233 -6.70771e-21)
(14.411 -5.55973 -1.98257e-18)
(14.7832 -5.39356 0)
(15.1517 -5.20193 -5.67345e-19)
(15.5112 -4.9945 2.17684e-18)
(15.85 -4.77163 -5.53548e-19)
(16.1869 -4.5251 5.8604e-19)
(16.498 -4.26817 0)
(16.8017 -3.98813 6.02916e-19)
(17.0832 -3.69573 -1.81961e-18)
(17.3541 -3.38153 -2.53105e-20)
(17.6042 -3.06117 0)
(17.8347 -2.72599 6.25248e-19)
(18.0528 -2.37631 -1.87689e-20)
(18.2535 -2.01714 0)
(18.4293 -1.64998 3.52273e-19)
(18.5892 -1.28148 -3.19832e-19)
(18.7207 -0.900728 3.35451e-19)
(18.8335 -0.506314 3.32688e-19)
(18.9334 -0.104135 -1.6706e-19)
(19.0051 0.297156 -6.32258e-20)
(20.5343 0.851443 1.51318e-19)
(20.5952 1.37851 -5.13001e-20)
(20.628 1.90897 0)
(20.6328 2.44033 0)
(20.6098 2.97084 8.15151e-19)
(20.5594 3.4994 1.17298e-18)
(20.4814 4.02421 -1.20767e-18)
(20.3764 4.54383 -3.97992e-19)
(20.2441 5.0568 3.97936e-19)
(20.0853 5.56204 7.78787e-19)
(19.9003 6.05893 -7.79251e-19)
(19.6892 6.54564 -7.57645e-19)
(19.4533 7.0211 3.76826e-18)
(19.1941 7.4841 7.32902e-19)
(18.9119 7.93322 -6.4676e-18)
(18.6073 8.36693 0)
(18.2812 8.78433 0)
(17.9348 9.18445 6.72735e-19)
(17.5688 9.56676 1.98709e-18)
(17.1842 9.9299 -5.10802e-18)
(16.7823 10.2732 -7.47097e-20)
(16.364 10.5962 1.17085e-18)
(15.9304 10.8978 1.20456e-18)
(15.4826 11.1774 -4.49472e-18)
(15.022 11.435 0)
(14.5497 11.6705 2.11119e-18)
(14.0658 11.8834 -1.95634e-18)
(13.5724 12.0719 0)
(13.071 12.2357 0)
(12.5634 12.3744 -8.96416e-19)
(12.0507 12.4881 -1.63894e-18)
(11.5341 12.5766 2.336e-18)
(11.0153 12.6399 0)
(10.4953 12.6781 0)
(9.97554 12.6911 1.17893e-18)
(9.45715 12.6791 -1.12077e-18)
(8.94152 12.6423 0)
(8.42992 12.5812 1.76662e-18)
(7.92337 12.4959 3.68117e-19)
(7.42315 12.3869 -1.01835e-18)
(6.93047 12.2545 3.54983e-20)
(6.44674 12.0994 4.28904e-19)
(5.97274 11.9224 -4.24276e-19)
(5.50968 11.7237 7.4242e-20)
(5.05872 11.5044 0)
(4.62059 11.265 0)
(4.19635 11.0064 -1.7312e-19)
(3.78691 10.7292 -3.72466e-20)
(3.39328 10.4346 2.21416e-19)
(3.01616 10.1237 9.20592e-20)
(2.65617 9.79728 1.43879e-19)
(2.31413 9.45619 -1.45757e-19)
(1.9908 9.10173 -9.76294e-20)
(1.68649 8.7351 9.89628e-20)
(1.4019 8.3572 -5.90992e-19)
(1.13745 7.96948 6.44778e-19)
(0.893545 7.57306 -1.31822e-21)
(0.670502 7.16944 0)
(0.468489 6.75969 1.6421e-19)
(0.287859 6.34489 2.23044e-20)
(0.128693 5.92628 2.36054e-20)
(20.3034 0.09877 -8.15859e-20)
(20.3753 0.61478 0)
(20.4194 1.13239 0)
(20.4363 1.65134 9.36786e-19)
(20.4257 2.17029 -6.26374e-19)
(20.388 2.68801 -2.20719e-18)
(20.3234 3.20277 0)
(20.2318 3.71351 0)
(20.1135 4.21863 -1.20189e-18)
(19.9687 4.71666 0)
(19.7976 5.20686 -1.76107e-18)
(19.6008 5.68696 1.16842e-18)
(19.3799 6.15517 -5.80041e-19)
(19.1358 6.61123 0)
(18.8688 7.05471 2.29405e-18)
(18.5792 7.48425 1.07452e-18)
(18.2677 7.89869 -1.0767e-18)
(17.9356 8.29684 1.02418e-18)
(17.5836 8.67805 -3.02658e-18)
(17.2126 9.04112 2.03808e-18)
(16.8241 9.38492 -1.97938e-18)
(16.4187 9.70901 -1.00915e-18)
(15.9979 10.0122 -9.12813e-19)
(15.5626 10.2937 2.64843e-18)
(15.1141 10.5528 8.48868e-19)
(14.6532 10.7894 7.76707e-19)
(14.181 11.0036 -7.01848e-19)
(13.6994 11.1945 0)
(13.2096 11.3613 0)
(12.7129 11.5036 0)
(12.2105 11.6212 0)
(11.7038 11.7139 0)
(11.1942 11.7817 0)
(10.6829 11.8245 0)
(10.1714 11.8423 -4.89613e-19)
(9.66075 11.8352 4.3461e-19)
(9.15242 11.8032 3.48044e-19)
(8.64758 11.7466 -1.6894e-18)
(8.14736 11.666 -2.63635e-19)
(7.6531 11.5614 7.86511e-19)
(7.16601 11.4333 4.32806e-19)
(6.68746 11.2822 -3.45045e-19)
(6.21832 11.1088 1.27998e-19)
(5.75994 10.9135 9.37126e-20)
(5.31341 10.697 -7.22421e-21)
(4.87955 10.4601 7.30541e-21)
(4.45943 10.2033 9.36227e-20)
(4.05401 9.92757 0)
(3.66436 9.63381 8.07035e-20)
(3.29125 9.32301 -1.8305e-19)
(2.93535 8.99605 1.02637e-19)
(2.59758 8.65382 0)
(2.27876 8.29745 -3.05661e-19)
(1.97918 7.9281 0)
(1.69973 7.54671 0)
(1.44067 7.15468 -9.49641e-19)
(1.20263 6.75323 4.58076e-19)
(0.985824 6.34375 1.26616e-19)
(0.790811 5.92727 -1.32468e-19)
(0.617905 5.50504 0)
(0.467341 5.07831 -3.73656e-20)
(20.0942 0.476626 6.20826e-20)
(20.1546 0.976718 0)
(20.1883 1.47726 -2.47695e-19)
(20.1943 1.97817 -1.63044e-20)
(20.1736 2.47807 0)
(20.1269 2.9763 1.98737e-18)
(20.0541 3.47203 9.70294e-19)
(19.955 3.96491 0)
(19.8297 4.45273 3.20057e-20)
(19.6785 4.93326 9.39382e-19)
(19.5025 5.40488 1.42696e-18)
(19.3027 5.86618 -4.69103e-19)
(19.0797 6.31552 0)
(18.8336 6.75208 0)
(18.565 7.17541 1.72801e-18)
(18.2749 7.58461 -8.52576e-19)
(17.9642 7.97866 -7.9903e-19)
(17.6336 8.3566 0)
(17.2842 8.71765 2.41332e-18)
(16.917 9.06084 -2.31583e-18)
(16.5331 9.38525 -1.47913e-18)
(16.1334 9.69016 -1.43131e-18)
(15.7192 9.97467 0)
(15.2914 10.2381 -2.04505e-18)
(14.8513 10.4797 -6.67279e-19)
(14.3999 10.6991 6.09569e-19)
(13.9387 10.8955 5.99949e-19)
(13.4687 11.0689 0)
(12.9913 11.2189 0)
(12.5075 11.3452 0)
(12.0187 11.4476 0)
(11.5262 11.526 0)
(11.0312 11.5803 0)
(10.535 11.6105 0)
(10.0389 11.6165 -1.04755e-18)
(9.54419 11.5985 3.35394e-19)
(9.05203 11.5566 -2.67291e-19)
(8.5636 11.491 1.27318e-18)
(8.08003 11.4021 0)
(7.60255 11.2903 3.57395e-19)
(7.13233 11.1559 2.91241e-19)
(6.67062 10.9995 1.24602e-19)
(6.21843 10.8216 -7.41744e-20)
(5.77691 10.6227 -9.27722e-20)
(5.3471 10.4035 2.74165e-20)
(4.92989 10.1646 -5.03134e-22)
(4.52616 9.9068 1.03796e-19)
(4.13687 9.63082 0)
(3.76294 9.33763 0)
(3.40522 9.02808 8.07228e-20)
(3.06444 8.70309 9.74159e-20)
(2.74127 8.36359 2.09892e-19)
(2.43649 8.01053 2.40364e-19)
(2.15052 7.64503 0)
(1.88407 7.26798 2.9898e-19)
(1.63739 6.88083 3.29852e-19)
(1.41099 6.48464 0)
(1.20523 6.08087 -1.8468e-21)
(1.02065 5.67044 0)
(0.857485 5.25466 0)
(0.715999 4.83461 2.86325e-20)
(19.9432 0.432852 -1.02607e-19)
(20.0013 0.916601 2.00714e-19)
(20.0333 1.40337 -3.95781e-19)
(20.0392 1.89115 -2.12808e-19)
(20.0189 2.37842 0)
(19.9721 2.86399 -8.24318e-19)
(19.8985 3.34726 -8.18417e-19)
(19.7995 3.82651 0)
(19.6761 4.30149 3.38906e-20)
(19.5285 4.77017 -7.91053e-19)
(19.3569 5.2304 1.49378e-18)
(19.1616 5.68119 1.47054e-18)
(18.9432 6.12141 0)
(18.7021 6.54987 -7.16638e-19)
(18.4392 6.96533 -1.42336e-18)
(18.1553 7.36658 -7.01953e-19)
(17.8512 7.75276 2.05598e-18)
(17.5278 8.12299 -1.32104e-18)
(17.186 8.47652 1.2854e-18)
(16.8269 8.81248 1.86603e-18)
(16.4515 9.13008 2.42286e-18)
(16.0609 9.42852 1.1977e-18)
(15.6561 9.70696 5.5143e-19)
(15.2382 9.96469 1.66656e-18)
(14.8081 10.2012 5.10218e-19)
(14.3671 10.416 5.10707e-19)
(13.9163 10.6086 4.62724e-19)
(13.457 10.7787 -1.34755e-18)
(12.9904 10.9259 8.35548e-19)
(12.5177 11.0498 7.79656e-19)
(12.04 11.1504 -1.51294e-18)
(11.5587 11.2275 7.33207e-19)
(11.075 11.2811 -6.3801e-19)
(10.5902 11.3112 2.99514e-19)
(10.1056 11.3177 2.89257e-19)
(9.62239 11.3007 2.34859e-19)
(9.14169 11.2603 -2.36404e-19)
(8.66462 11.1967 -2.22667e-19)
(8.19229 11.1104 -5.08825e-19)
(7.72594 11.0016 -2.94856e-19)
(7.26672 10.871 -4.60077e-19)
(6.81573 10.7188 -4.26698e-19)
(6.37417 10.5457 1.22572e-19)
(5.94305 10.3523 7.1451e-21)
(5.52341 10.1389 -8.55045e-22)
(5.11616 9.90628 3.15673e-20)
(4.722 9.65516 -2.68936e-19)
(4.34196 9.38633 5.80811e-20)
(3.97684 9.10075 0)
(3.62759 8.79919 0)
(3.2948 8.48249 1.49005e-19)
(2.97931 8.15172 7.27891e-22)
(2.68172 7.80771 -1.95277e-19)
(2.4025 7.45149 0)
(2.14226 7.08388 -2.42548e-19)
(1.9012 6.70633 0)
(1.67986 6.31997 0)
(1.47848 5.92609 -2.33177e-19)
(1.29786 5.5258 -8.30161e-20)
(1.13796 5.12027 8.62629e-20)
(0.999374 4.71067 -4.57692e-20)
(19.7923 0.503138 1.85326e-21)
(19.845 0.973965 -1.73316e-19)
(19.8723 1.4474 5.07961e-19)
(19.8743 1.92187 3.37008e-19)
(19.8509 2.39621 -4.96443e-19)
(19.802 2.86913 3.32552e-19)
(19.7286 3.33871 -2.40549e-21)
(19.6305 3.80277 -6.43933e-19)
(19.5077 4.26122 9.80731e-19)
(19.3615 4.71319 -1.27758e-18)
(19.1922 5.15762 1.20246e-18)
(19 5.59303 -1.27831e-18)
(18.7854 6.01834 -6.14199e-19)
(18.5492 6.4325 0)
(18.2919 6.83415 6.32297e-19)
(18.0144 7.22209 5.39827e-19)
(17.7172 7.59558 0)
(17.4013 7.95364 1.06327e-18)
(17.0676 8.29559 0)
(16.717 8.62066 -1.05175e-18)
(16.3508 8.92798 9.28943e-19)
(15.97 9.21677 -4.02558e-20)
(15.5756 9.48613 -4.50768e-20)
(15.1685 9.73533 1.67161e-21)
(14.7496 9.96394 -1.74849e-18)
(14.3202 10.1715 -7.9518e-19)
(13.8812 10.3576 1.55397e-18)
(13.4341 10.5219 1.43686e-18)
(12.9799 10.664 -7.16499e-19)
(12.5198 10.7837 0)
(12.055 10.8806 0)
(11.5866 10.9548 0)
(11.1158 11.0062 5.4604e-19)
(10.644 11.035 -1.91218e-18)
(10.1726 11.0409 8.87396e-19)
(9.70245 11.0239 -4.23063e-19)
(9.23479 10.9841 -6.7663e-19)
(8.77067 10.9219 6.35189e-19)
(8.31106 10.8376 2.12665e-20)
(7.85725 10.7316 -1.9981e-19)
(7.41035 10.6043 2.19344e-19)
(6.97143 10.4564 1.42246e-19)
(6.54172 10.2882 0)
(6.12221 10.1002 -3.89448e-20)
(5.7139 9.89308 0)
(5.31774 9.66712 7.81614e-20)
(4.9342 9.42326 -4.05207e-20)
(4.5643 9.16222 0)
(4.20869 8.885 9.44173e-20)
(3.86868 8.59228 1.94972e-20)
(3.54453 8.28478 -2.47526e-19)
(3.2371 7.96364 1.4544e-19)
(2.94716 7.62964 9.57233e-20)
(2.67491 7.28374 -1.75451e-19)
(2.42124 6.92672 8.08128e-21)
(2.18573 6.55986 -1.06441e-19)
(1.96942 6.18441 -5.7375e-20)
(1.77221 5.80165 -1.27562e-19)
(1.59523 5.41267 3.38224e-19)
(1.4381 5.01861 -1.43857e-19)
(1.30192 4.62057 1.90473e-20)
(19.6353 0.554376 3.64098e-20)
(19.6833 1.01046 0)
(19.7067 1.46871 -5.67648e-19)
(19.7056 1.92795 0)
(19.6801 2.38685 2.8246e-19)
(19.6302 2.84404 8.26395e-19)
(19.5563 3.29812 5.42093e-19)
(19.4583 3.74847 1.09926e-18)
(19.3368 4.19324 9.57444e-21)
(19.1925 4.63154 -6.7179e-21)
(19.0259 5.06195 -5.92589e-20)
(18.8372 5.48348 -5.22771e-19)
(18.6269 5.89508 5.04783e-19)
(18.3957 6.29582 -1.48e-18)
(18.1443 6.68448 1.00411e-18)
(17.8735 7.05978 -4.80631e-20)
(17.5837 7.42096 -9.10673e-19)
(17.2756 7.76712 -9.32879e-19)
(16.9502 8.09775 0)
(16.6085 8.41223 8.35358e-19)
(16.2519 8.7096 -3.73823e-20)
(15.8812 8.98908 -1.64337e-18)
(15.4976 9.24972 -5.70264e-21)
(15.1019 9.49062 -6.82119e-19)
(14.6947 9.7116 2.0759e-18)
(14.2773 9.91219 -3.44089e-20)
(13.8507 10.092 -6.62842e-19)
(13.4161 10.251 -6.97862e-20)
(12.9749 10.3884 0)
(12.5281 10.5042 0)
(12.0767 10.5977 0)
(11.6216 10.6695 0)
(11.1644 10.7192 0)
(10.7061 10.7473 5.34083e-20)
(10.2484 10.7531 -3.439e-19)
(9.79197 10.7367 3.88972e-20)
(9.33796 10.6982 5.26988e-20)
(8.88734 10.6377 2.2065e-19)
(8.44088 10.5559 4.19201e-19)
(8 10.4533 -5.21683e-19)
(7.56585 10.3299 3.06398e-19)
(7.13929 10.1867 -9.44893e-20)
(6.72176 10.024 0)
(6.31423 9.84236 3.39623e-20)
(5.9176 9.64228 0)
(5.53306 9.42371 -4.07611e-20)
(5.16033 9.18788 7.75687e-20)
(4.80102 8.93543 -5.37487e-20)
(4.45516 8.66753 -6.78056e-20)
(4.12471 8.38456 1.01655e-19)
(3.80947 8.08716 1.90196e-20)
(3.51031 7.77664 1.52821e-20)
(3.22824 7.45352 -2.79949e-19)
(2.96314 7.1189 3.19135e-19)
(2.71622 6.77317 1.74769e-19)
(2.48634 6.41794 9.13982e-20)
(2.27524 6.05422 3.04123e-19)
(2.08186 5.6835 0)
(1.90847 5.30671 -2.32709e-19)
(1.75391 4.92508 6.1816e-20)
(1.62004 4.53944 0)
(19.464 0.607847 0)
(19.5067 1.04855 0)
(19.5259 1.49135 2.46014e-19)
(19.5215 1.93481 -4.71314e-19)
(19.4936 2.37799 -2.43207e-19)
(19.4425 2.81958 -1.18095e-18)
(19.3682 3.25791 4.56021e-19)
(19.2707 3.69196 -9.42888e-19)
(19.1504 4.12133 1.52462e-20)
(19.0083 4.54477 1.33666e-18)
(18.8449 4.96032 -1.78431e-18)
(18.6601 5.36709 0)
(18.4545 5.764 0)
(18.2286 6.15081 1.69001e-18)
(17.9836 6.52606 8.16852e-19)
(17.7201 6.88779 -1.65786e-18)
(17.4381 7.23588 2.374e-18)
(17.1383 7.56941 7.55174e-19)
(16.8215 7.88803 -1.48047e-18)
(16.489 8.19147 -7.43015e-19)
(16.1424 8.47827 6.85594e-19)
(15.7824 8.74804 -7.00702e-20)
(15.4103 8.99967 0)
(15.0267 9.23162 1.28427e-18)
(14.6317 9.44447 -1.81196e-18)
(14.2269 9.63769 5.83784e-19)
(13.8132 9.81082 1.05065e-18)
(13.3917 9.96418 -2.55101e-18)
(12.9644 10.0967 4.99234e-19)
(12.5315 10.2085 0)
(12.0946 10.2983 0)
(11.6535 10.3677 0)
(11.2107 10.4156 3.46252e-19)
(10.7665 10.4434 9.7982e-19)
(10.3238 10.4494 -5.77707e-19)
(9.8819 10.4338 2.51947e-19)
(9.44247 10.3968 2.41358e-19)
(9.0065 10.3381 -4.2939e-19)
(8.57389 10.259 0)
(8.14661 10.1598 -2.40319e-19)
(7.72606 10.0406 1.25084e-19)
(7.31226 9.9023 1.4055e-20)
(6.90731 9.74543 9.70177e-21)
(6.51238 9.57044 2.9203e-20)
(6.12781 9.37817 -1.05067e-20)
(5.75601 9.16731 1.51993e-19)
(5.39447 8.94025 -6.49806e-20)
(5.04661 8.69681 2.21325e-19)
(4.71057 8.43915 0)
(4.39069 8.16685 0)
(4.08487 7.88022 -3.9833e-19)
(3.79415 7.58121 1.0837e-19)
(3.52091 7.26988 2.48644e-19)
(3.26306 6.94746 1.46964e-19)
(3.02403 6.61365 -4.63142e-19)
(2.79966 6.2707 -2.59249e-19)
(2.59437 5.91926 -9.5416e-20)
(2.40445 5.56152 -2.08603e-21)
(2.23537 5.19782 1.02243e-19)
(2.08295 4.82941 0)
(1.95187 4.45696 0)
(19.2729 0.658609 -2.48151e-20)
(19.3098 1.08284 0)
(19.3242 1.50934 0)
(19.316 1.93636 2.08767e-19)
(19.2854 2.36284 0)
(19.2331 2.7878 8.04377e-19)
(19.1592 3.20955 3.96802e-19)
(19.0622 3.62647 -7.79417e-19)
(18.9426 4.04037 0)
(18.803 4.44916 -7.91371e-19)
(18.644 4.84824 4.34241e-20)
(18.4637 5.23944 0)
(18.2634 5.62048 0)
(18.043 5.9925 -7.38273e-19)
(17.8046 6.35447 6.81849e-19)
(17.5498 6.70142 -7.06286e-19)
(17.2761 7.03572 -6.88706e-19)
(16.985 7.35627 0)
(16.6776 7.66176 6.51017e-19)
(16.3546 7.95362 -1.18743e-18)
(16.0189 8.22894 -1.14741e-18)
(15.6702 8.4886 -1.17836e-18)
(15.3098 8.73146 -9.37984e-21)
(14.94 8.95322 -9.73231e-19)
(14.5576 9.15742 1.03234e-18)
(14.1655 9.3432 9.30691e-19)
(13.7659 9.50863 -9.44698e-19)
(13.3577 9.6564 5.91042e-20)
(12.9451 9.78308 1.00349e-21)
(12.5262 9.8918 -7.90146e-19)
(12.1054 9.97656 0)
(11.6781 10.0444 -6.30266e-19)
(11.2513 10.0896 1.21432e-18)
(10.821 10.1183 -4.58405e-20)
(10.3953 10.1248 5.19896e-19)
(9.96924 10.1101 -4.23337e-19)
(9.54549 10.0751 3.59879e-19)
(9.12621 10.0178 2.58033e-19)
(8.7082 9.94155 -5.6766e-19)
(8.29506 9.84617 2.38698e-19)
(7.88974 9.73116 1.52652e-19)
(7.48855 9.59788 1.61668e-19)
(7.09627 9.44683 -3.47955e-20)
(6.71492 9.27876 0)