/*--------------------------------*- C++ -*----------------------------------*\
| =========                 |                                                 |
| \\      /  F ield         | OpenFOAM: The Open Source CFD Toolbox           |
|  \\    /   O peration     | Version:  2.3.1                                 |
|   \\  /    A nd           | Web:      www.OpenFOAM.org                      |
|    \\/     M anipulation  |                                                 |
\*---------------------------------------------------------------------------*/
FoamFile
{
    version     2.0;
    format      ascii;
    class       volScalarField;
    location    "0.41";
    object      p;
}
// * * * * * * * * * * * * * * * * * * * * * * * * * * * * * * * * * * * * * //

dimensions      [0 2 -2 0 0 0 0];

internalField   nonuniform List<scalar> 
15166
(
-17.2935
-22.3215
-25.0913
-27.3018
-29.1807
-30.7789
-32.2114
-33.4688
-34.5559
-35.3625
-36.1046
-36.6777
-22.0109
-24.5231
-25.8842
-27.5513
-29.1251
-30.5507
-31.8551
-33.034
-34.0658
-34.8952
-35.6365
-36.2298
-27.1975
-28.0857
-28.3609
-29.2963
-30.2942
-31.3095
-32.3085
-33.2405
-34.0898
-34.8155
-35.4607
-35.998
-30.1735
-30.5856
-30.5804
-31.141
-31.7323
-32.4009
-33.1052
-33.7929
-34.4435
-35.0223
-35.5416
-35.9702
-32.0419
-32.2965
-32.2708
-32.6706
-33.0474
-33.5018
-33.9959
-34.4933
-34.9761
-35.4179
-35.8208
-36.1697
-33.6898
-33.8093
-33.7518
-34.0261
-34.2619
-34.5709
-34.9123
-35.2624
-35.6083
-35.9307
-36.2272
-36.4895
-35.2802
-35.2802
-35.1732
-35.3262
-35.4433
-35.6309
-35.8455
-36.0723
-36.3006
-36.5156
-36.7109
-36.8734
-36.7532
-36.6657
-36.5209
-36.5732
-36.593
-36.6767
-36.7831
-36.9039
-37.0301
-37.1504
-37.2586
-37.3453
-38.0908
-37.9373
-37.7692
-37.7444
-37.6896
-37.6892
-37.7065
-37.7383
-37.7775
-37.8162
-37.8488
-37.8662
-39.3135
-39.1068
-38.9229
-38.8378
-38.7257
-38.6578
-38.6027
-38.5609
-38.5271
-38.4955
-38.4602
-38.413
-40.4431
-40.1931
-39.997
-39.8625
-39.7045
-39.5813
-39.4666
-39.3635
-39.2679
-39.1766
-39.0847
-38.974
-41.497
-41.2097
-41.0034
-40.8269
-40.631
-40.4613
-40.2968
-40.1419
-39.9939
-39.8515
-39.7141
-39.5707
-42.4822
-42.1639
-41.9489
-41.7367
-41.5088
-41.2996
-41.0928
-40.8937
-40.7004
-40.5125
-40.3309
-40.1563
-43.4063
-43.0611
-42.8389
-42.5961
-42.3411
-42.0981
-41.855
-41.6172
-41.3834
-41.1519
-40.9142
-40.6574
-44.2758
-43.9073
-43.6787
-43.4092
-43.131
-42.8589
-42.5849
-42.3143
-42.047
-41.7854
-41.5324
-41.2693
-45.0957
-44.7068
-44.4724
-44.1798
-43.8817
-43.5846
-43.2841
-42.9856
-42.6893
-42.3974
-42.1147
-41.8383
-45.8704
-45.4638
-45.2242
-44.9113
-44.5957
-44.2766
-43.953
-43.6298
-43.3079
-42.9886
-42.6748
-42.3729
-46.6047
-46.1817
-45.937
-45.6058
-45.2748
-44.9364
-44.5926
-44.2479
-43.904
-43.562
-43.2235
-42.8948
-47.3003
-46.8631
-46.6137
-46.2664
-45.9218
-45.5664
-45.2047
-44.8409
-44.4774
-44.1165
-43.7597
-43.4105
-47.9608
-47.5106
-47.2568
-46.895
-46.538
-46.1673
-45.7896
-45.4088
-45.0278
-44.649
-44.2758
-43.9161
-48.5883
-48.1263
-47.8682
-47.4934
-47.1253
-46.7408
-46.3486
-45.9523
-45.5547
-45.1584
-44.7661
-44.3888
-49.1842
-48.7119
-48.4501
-48.0632
-47.685
-47.288
-46.8828
-46.4722
-46.0596
-45.6467
-45.2334
-44.8279
-49.7538
-49.2703
-49.004
-48.6061
-48.2188
-47.8105
-47.3935
-46.9705
-46.545
-46.1199
-45.6963
-45.2805
-50.2945
-49.8008
-49.5313
-49.1235
-48.7278
-48.3093
-47.8818
-47.4477
-47.0109
-46.5741
-46.1377
-45.703
-50.803
-50.3044
-50.0325
-49.6159
-49.2127
-48.7852
-48.3483
-47.9043
-47.457
-47.0095
-46.5632
-46.1171
-51.293
-50.7854
-50.5098
-50.0848
-49.6749
-49.2391
-48.7938
-48.3407
-47.8839
-47.4267
-46.9702
-46.5117
-51.7584
-51.2428
-50.9645
-50.5316
-50.1153
-49.6718
-49.2188
-48.7574
-48.2923
-47.8271
-47.3648
-46.9002
-52.2011
-51.6773
-51.3964
-50.9564
-50.5344
-50.084
-49.6237
-49.1548
-48.6816
-48.2073
-47.7348
-47.2657
-52.617
-52.0893
-51.8069
-51.3602
-50.9328
-50.476
-50.0091
-49.5332
-49.0526
-48.5701
-48.0868
-47.5991
-53.0135
-52.48
-52.1966
-51.7436
-51.3114
-50.8488
-50.376
-49.8936
-49.4066
-48.918
-48.4303
-47.9366
-53.3898
-52.8533
-52.5666
-52.1076
-51.671
-51.203
-50.7246
-50.2366
-49.7436
-49.249
-48.7552
-48.2549
-53.7498
-53.2081
-52.9181
-52.4528
-52.012
-51.5388
-51.0555
-50.5622
-50.0638
-49.5634
-49.0652
-48.5636
-54.0802
-53.5404
-53.249
-52.7788
-52.3342
-51.8566
-51.3687
-50.8706
-50.367
-49.8607
-49.3549
-48.8452
-54.3998
-53.8556
-53.5609
-53.0862
-52.6384
-52.1566
-51.6646
-51.1622
-50.6543
-50.1438
-49.6346
-49.1248
-54.7003
-54.1516
-53.8552
-53.3758
-52.9247
-52.4392
-51.9435
-51.4372
-50.9256
-50.4116
-49.8984
-49.3831
-54.9779
-54.4285
-54.1313
-53.6476
-53.1937
-52.7045
-52.2051
-51.6952
-51.1801
-50.6633
-50.1494
-49.6356
-55.2396
-54.6879
-54.3901
-53.9018
-53.4451
-52.9525
-52.4497
-51.9362
-51.4171
-50.8953
-50.3748
-49.8603
-55.4893
-54.9314
-54.6324
-54.1391
-53.6797
-53.1838
-52.6776
-52.1604
-51.6373
-51.1105
-50.5804
-50.0442
-55.7122
-55.1552
-54.8575
-54.3594
-53.8979
-53.3989
-52.8899
-52.3695
-51.8433
-51.3136
-50.7795
-50.2205
-55.9269
-55.3636
-55.0663
-54.5629
-54.0998
-53.5984
-53.0872
-52.5649
-52.0371
-51.5084
-50.9873
-50.4619
-56.1186
-55.5541
-55.2579
-54.7497
-54.2857
-53.7824
-53.2694
-52.7451
-52.2148
-51.6803
-51.145
-50.6094
-56.2952
-55.7309
-55.4319
-54.9194
-54.4556
-53.9505
-53.4358
-52.9097
-52.3773
-51.8411
-51.3048
-50.7623
-56.4603
-55.8924
-55.5899
-55.0735
-54.6099
-54.1029
-53.5868
-53.0589
-52.5248
-51.9869
-51.4489
-50.9011
-56.6001
-56.0358
-55.7334
-55.2108
-54.7487
-54.2401
-53.7223
-53.1929
-52.6568
-52.1171
-51.5789
-51.0374
-56.7317
-56.1643
-55.8597
-55.3336
-54.8731
-54.3616
-53.8424
-53.311
-52.7729
-52.2308
-51.6884
-51.1416
-56.8408
-56.2747
-55.9683
-55.4418
-54.9833
-54.4676
-53.9465
-53.4134
-52.8738
-52.3304
-51.7898
-51.2553
-56.9365
-56.371
-56.061
-55.5372
-55.0772
-54.5563
-54.0351
-53.5005
-52.9589
-52.4133
-51.8666
-51.3216
-57.0151
-56.4539
-56.1359
-55.6192
-55.1499
-54.6321
-54.1094
-53.5727
-53.0301
-52.4839
-51.9388
-51.4029
-57.0815
-56.5209
-56.1978
-55.6848
-55.2109
-54.6934
-54.169
-53.6313
-53.0876
-52.5407
-51.9928
-51.4476
-57.1318
-56.5732
-56.2451
-55.7337
-55.2582
-54.7403
-54.2149
-53.6766
-53.1326
-52.5856
-52.039
-51.5019
-57.1623
-56.6074
-56.2779
-55.7672
-55.2905
-54.7728
-54.2471
-53.7088
-53.1645
-52.6163
-52.0645
-51.5118
-57.1819
-56.6274
-56.2963
-55.7864
-55.3085
-54.7916
-54.2662
-53.7284
-53.1847
-52.6363
-52.0844
-51.5228
-57.1847
-56.6316
-56.2998
-55.79
-55.3123
-54.7963
-54.2718
-53.7356
-53.193
-52.6474
-52.1026
-51.5552
-57.1686
-56.6209
-56.2882
-55.7796
-55.3017
-54.7866
-54.2635
-53.728
-53.1864
-52.64
-52.0929
-51.5401
-57.1413
-56.596
-56.262
-55.7543
-55.2766
-54.7628
-54.2397
-53.705
-53.1627
-52.6153
-52.0673
-51.521
-57.0979
-56.5561
-56.221
-55.7142
-55.2372
-54.7236
-54.2013
-53.666
-53.1232
-52.5748
-52.0234
-51.47
-57.0445
-56.5007
-56.1653
-55.66
-55.1827
-54.6703
-54.1475
-53.6122
-53.0692
-52.5207
-51.9722
-51.4292
-56.9668
-56.4309
-56.0956
-55.5911
-55.1146
-54.6019
-54.0792
-53.5436
-53.0003
-52.4527
-51.9025
-51.3445
-56.8841
-56.3465
-56.011
-55.5082
-55.0315
-54.5189
-53.9959
-53.4602
-52.9184
-52.374
-51.8363
-51.3151
-56.7808
-56.2473
-55.9121
-55.41
-54.9332
-54.4207
-53.8975
-53.3625
-52.8214
-52.277
-51.7325
-51.1964
-56.664
-56.1341
-55.7989
-55.2975
-54.8204
-54.3075
-53.7848
-53.2504
-52.7107
-52.1677
-51.6225
-51.0799
-56.5374
-56.0091
-55.6721
-55.1711
-54.6931
-54.1814
-53.6592
-53.1272
-52.5897
-52.049
-51.506
-50.9553
-56.3957
-55.868
-55.5308
-55.0297
-54.5529
-54.0419
-53.5226
-52.9936
-52.4592
-51.9226
-51.3854
-50.852
-56.2343
-55.711
-55.3742
-54.875
-54.3989
-53.8906
-53.3743
-52.8481
-52.3172
-51.7811
-51.2416
-50.6962
-56.0607
-55.5395
-55.203
-54.7057
-54.2318
-53.7266
-53.213
-52.6905
-52.161
-51.6274
-51.0925
-50.5591
-55.8695
-55.3527
-55.0174
-54.5225
-54.0512
-53.5488
-53.0384
-52.5172
-51.9895
-51.4563
-50.9198
-50.3798
-55.6644
-55.1522
-54.8177
-54.3257
-53.8571
-53.3572
-52.8486
-52.3291
-51.802
-51.2698
-50.7382
-50.2148
-55.4512
-54.9373
-54.6038
-54.1153
-53.649
-53.1516
-52.6444
-52.1257
-51.5991
-51.0674
-50.5333
-50.0013
-55.2097
-54.7047
-54.3751
-53.8902
-53.4271
-52.9316
-52.4256
-51.9082
-51.3832
-50.8542
-50.3265
-49.8151
-54.9611
-54.4603
-54.1327
-53.6514
-53.19
-52.6964
-52.1923
-51.6762
-51.1539
-50.6279
-50.1004
-49.5812
-54.701
-54.2042
-53.8775
-53.3984
-52.9385
-52.4464
-51.944
-51.4307
-50.9115
-50.3893
-49.8672
-49.3653
-54.4283
-53.9334
-53.608
-53.1309
-52.6723
-52.1815
-51.6816
-51.1714
-50.6556
-50.1362
-49.6122
-49.0931
-54.143
-53.651
-53.3245
-52.8486
-52.3908
-51.9028
-51.4057
-50.8991
-50.3871
-49.8711
-49.3508
-48.836
-53.8358
-53.3505
-53.0263
-52.5519
-52.0961
-51.6106
-51.1173
-50.6152
-50.107
-49.5955
-49.0818
-48.5792
-53.517
-53.0362
-52.7126
-52.2411
-51.7872
-51.3055
-50.8162
-50.3177
-49.8134
-49.3043
-48.7908
-48.2804
-53.1907
-52.7115
-52.3872
-51.9172
-51.4661
-50.988
-50.5022
-50.0073
-49.506
-49.0007
-48.4942
-48.0028
-52.8434
-52.3688
-52.0463
-51.5805
-51.1329
-50.658
-50.1756
-49.6835
-49.1846
-48.6812
-48.1732
-47.6681
-52.4807
-52.0094
-51.6906
-51.2298
-50.7863
-50.3152
-49.8355
-49.346
-48.8502
-48.3508
-47.8507
-47.3669
-52.1015
-51.6366
-51.3212
-50.8652
-50.4262
-49.9584
-49.4819
-48.9953
-48.5024
-48.0068
-47.5082
-47.0123
-51.7047
-51.248
-50.9369
-50.487
-50.0515
-49.5875
-49.1141
-48.6304
-48.1419
-47.6507
-47.1616
-46.6908
-51.2993
-50.8475
-50.5398
-50.0942
-49.6626
-49.2021
-48.7319
-48.252
-47.7669
-47.2786
-46.787
-46.3084
-50.8828
-50.4352
-50.1295
-49.6879
-49.2592
-48.8022
-48.3358
-47.86
-47.3788
-46.8938
-46.403
-45.9135
-50.4519
-50.0087
-49.7048
-49.2667
-48.841
-48.3881
-47.9262
-47.4559
-46.9804
-46.5019
-46.0213
-45.5444
-50.0062
-49.5682
-49.266
-48.8311
-48.4088
-47.9602
-47.5038
-47.0395
-46.5703
-46.0988
-45.6284
-45.1742
-49.546
-49.1134
-48.8127
-48.3817
-47.9627
-47.5188
-47.0677
-46.6089
-46.1448
-45.6767
-45.2045
-44.7376
-49.0693
-48.6442
-48.3462
-47.9186
-47.5038
-47.0643
-46.6181
-46.1646
-45.7055
-45.2426
-44.7784
-44.334
-48.5864
-48.1628
-47.8657
-47.4432
-47.032
-46.5974
-46.1561
-45.707
-45.2526
-44.794
-44.3301
-43.864
-48.0821
-47.6646
-47.3711
-46.9541
-46.5477
-46.1181
-45.6814
-45.2371
-44.7878
-44.3359
-43.8849
-43.4511
-47.5611
-47.1506
-46.8615
-46.4508
-46.0503
-45.6257
-45.1939
-44.7545
-44.3097
-43.8632
-43.417
-42.9954
-47.026
-46.623
-46.3387
-45.9348
-45.5393
-45.1201
-44.693
-44.2579
-43.8178
-43.3746
-42.93
-42.5109
-46.4781
-46.0816
-45.8019
-45.404
-45.0142
-44.6003
-44.1782
-43.7481
-43.3126
-42.8737
-42.4271
-41.9826
-45.9178
-45.5277
-45.2519
-44.8606
-44.4756
-44.0671
-43.651
-43.227
-42.7995
-42.3715
-41.9468
-41.5591
-45.3456
-44.9623
-44.6893
-44.3031
-43.9231
-43.5202
-43.1102
-42.6932
-42.2727
-41.8506
-41.4239
-41.0086
-44.7617
-44.382
-44.1124
-43.7316
-43.3566
-42.9597
-42.5559
-42.1457
-41.7318
-41.3155
-40.8961
-40.4993
-44.1576
-43.7874
-43.5215
-43.1463
-42.7761
-42.3854
-41.9882
-41.5852
-41.1783
-40.7688
-40.3546
-39.9448
-43.5478
-43.1808
-42.9171
-42.5468
-42.1826
-41.798
-41.4077
-41.012
-40.6126
-40.2116
-39.8114
-39.4357
-42.9224
-42.5603
-42.2993
-41.935
-41.5761
-41.1981
-40.8146
-40.4257
-40.0328
-39.6373
-39.2368
-38.8381
-42.2715
-41.9203
-41.666
-41.309
-40.9569
-40.586
-40.209
-39.827
-39.4411
-39.0536
-38.666
-38.3019
-41.6175
-41.2713
-41.0199
-40.6702
-40.325
-39.9613
-39.5916
-39.2163
-38.8379
-38.4576
-38.0744
-37.695
-40.9455
-40.6072
-40.3611
-40.0192
-39.6814
-39.3249
-38.9621
-38.5942
-38.223
-37.8511
-37.4821
-37.1385
-40.2628
-39.9302
-39.689
-39.3546
-39.0241
-38.6751
-38.3195
-37.9589
-37.5949
-37.2286
-36.8584
-36.5004
-39.5614
-39.2381
-39.0028
-38.6769
-38.3534
-38.0117
-37.6635
-37.3104
-36.9544
-36.5971
-36.2365
-35.8848
-38.849
-38.5336
-38.3037
-37.9854
-37.6689
-37.335
-36.9949
-36.6504
-36.3037
-35.958
-35.6148
-35.2871
-38.1294
-37.8187
-37.5923
-37.2813
-36.9716
-36.645
-36.3134
-35.9775
-35.6401
-35.3029
-34.967
-34.6524
-37.3934
-37.0908
-36.869
-36.5646
-36.2619
-35.9431
-35.6193
-35.2922
-34.9634
-34.6337
-34.3011
-33.9771
-36.6459
-36.3496
-36.1324
-35.8356
-35.5402
-35.2294
-34.9141
-34.5963
-34.2776
-33.9594
-33.6435
-33.3552
-35.8832
-35.5956
-35.3831
-35.0941
-34.8063
-34.5044
-34.1984
-33.8902
-33.5809
-33.2717
-32.9589
-32.6509
-35.1112
-34.8295
-34.621
-34.3404
-34.061
-33.7682
-33.4723
-33.1741
-32.8751
-32.5762
-32.2768
-31.9911
-34.3255
-34.0497
-33.8472
-33.5751
-33.3044
-33.0214
-32.7354
-32.4482
-32.1601
-31.8736
-31.5893
-31.325
-33.5233
-33.2572
-33.0603
-32.7973
-32.5358
-32.2632
-31.9878
-31.7108
-31.4334
-31.1567
-30.8779
-30.6047
-32.7118
-32.4528
-32.2621
-32.0084
-31.7564
-31.4942
-31.2293
-30.9631
-30.6968
-30.4318
-30.1694
-29.9283
-31.8868
-31.6365
-31.4522
-31.2081
-30.9656
-30.7138
-30.4599
-30.2048
-29.9504
-29.6968
-29.442
-29.2016
-31.0558
-30.8117
-30.6325
-30.3977
-30.1648
-29.9232
-29.6801
-29.4368
-29.1949
-28.9568
-28.7222
-28.5223
-30.2124
-29.9754
-29.8014
-29.5764
-29.3531
-29.1224
-28.8899
-28.6577
-28.4279
-28.2022
-27.9794
-27.7662
-29.3555
-29.1279
-28.9612
-28.7454
-28.5317
-28.3113
-28.0898
-27.8686
-27.6489
-27.4309
-27.211
-26.9911
-28.4953
-28.2718
-28.1099
-27.9037
-27.6999
-27.4906
-27.2812
-27.0725
-26.8661
-26.663
-26.465
-26.2943
-27.618
-27.4041
-27.2494
-27.0534
-26.8599
-26.6624
-26.4658
-26.2711
-26.0794
-25.8908
-25.7022
-25.5179
-26.7352
-26.5287
-26.3796
-26.1937
-26.0116
-25.8271
-25.6444
-25.4649
-25.2884
-25.1165
-24.9488
-24.8025
-25.8431
-25.646
-25.5032
-25.3274
-25.1564
-24.9848
-24.8164
-24.6524
-24.4929
-24.3374
-24.1841
-24.048
-24.9485
-24.7557
-24.6186
-24.4535
-24.2948
-24.137
-23.9834
-23.8346
-23.6916
-23.5539
-23.4213
-23.3231
-24.0434
-23.8577
-23.7276
-23.5732
-23.4266
-23.2829
-23.1446
-23.0115
-22.8835
-22.761
-22.6405
-22.5223
-23.1284
-22.9522
-22.8296
-22.6872
-22.5535
-22.4242
-22.3014
-22.1842
-22.0717
-21.9634
-21.8558
-21.7495
-22.2127
-22.0436
-21.9274
-21.7965
-21.6766
-21.5626
-21.4565
-21.3573
-21.2644
-21.1786
-21.1033
-21.0655
-21.2945
-21.1308
-21.0216
-20.9026
-20.7966
-20.6991
-20.6106
-20.5305
-20.4576
-20.3905
-20.3258
-20.2693
-20.3687
-20.2135
-20.1122
-20.0063
-19.915
-19.8347
-19.7654
-19.7054
-19.6535
-19.6082
-19.5681
-19.5578
-19.443
-19.2951
-19.2011
-19.1079
-19.0328
-18.9713
-18.9225
-18.8849
-18.8561
-18.8336
-18.8119
-18.7969
-18.5178
-18.3754
-18.2897
-18.2109
-18.1529
-18.1123
-18.0864
-18.0733
-18.0703
-18.0748
-18.0834
-18.106
-17.5892
-17.4547
-17.3779
-17.3149
-17.2765
-17.2588
-17.2587
-17.2731
-17.2987
-17.3324
-17.3725
-17.4269
-16.664
-16.5354
-16.4686
-16.4233
-16.407
-16.4154
-16.444
-16.4879
-16.543
-16.6059
-16.6749
-16.7626
-15.7378
-15.6175
-15.5624
-15.538
-15.5484
-15.5868
-15.6474
-15.7237
-15.8096
-15.8996
-15.9876
-16.0787
-14.8158
-14.7019
-14.6619
-14.6637
-14.7066
-14.7814
-14.8789
-14.9915
-15.1119
-15.2346
-15.3562
-15.4928
-13.8933
-13.7886
-13.7701
-13.8082
-13.8938
-14.0127
-14.1528
-14.3046
-14.461
-14.6163
-14.7644
-14.9119
-12.9667
-12.8759
-12.8944
-12.9867
-13.1288
-13.3003
-13.4878
-13.6812
-13.8736
-14.0599
-14.2347
-14.404
-12.0289
-11.9707
-12.0582
-12.2336
-12.4492
-12.6805
-12.9147
-13.1444
-13.3693
-13.5835
-13.7757
-13.9338
-11.0574
-11.1436
-11.3809
-11.6844
-11.9812
-12.2598
-12.5296
-12.7861
-13.0293
-13.2722
-13.4728
-13.656
-1.50999
9.7087
-10.3091
-19.2171
-19.8573
-7.19819
-4.75579
32.7494
-44.7907
-39.9567
-35.0428
-14.8538
16.5884
-41.2397
1.38612
-6.75684
-41.265
-30.5969
-30.037
-6.48835
27.9833
26.3252
17.7854
-16.1196
-0.855888
-10.853
24.3653
0.645975
-42.5117
-37.8102
-42.4752
30.9127
9.58122
-34.6515
16.7939
18.0441
33.6634
-30.8182
33.2343
-14.7584
2.3232
-1.99041
24.6814
-0.419759
33.4338
26.1246
19.0533
19.9912
33.3651
27.9719
18.7601
32.567
30.9381
1.4915
-36.9537
9.41819
12.9034
-2.36827
-31.574
0.921544
24.1697
30.3273
1.53697
-3.96542
17.5262
9.71175
-13.6905
30.4925
16.3326
-39.4115
-37.0505
13.9392
33.1334
-13.2589
-15.4924
2.61729
-44.3282
-1.67803
10.0158
28.8023
2.66599
-1.93252
33.9134
32.5582
1.96607
-44.3953
-13.7161
0.920092
-39.5716
33.5433
27.9858
-41.3214
-0.226064
7.82807
34.3245
-4.18744
0.516342
-1.90761
-0.641708
-13.3458
-15.8591
14.5783
5.57228
8.91216
-1.7093
33.9709
1.83208
33.2497
-13.663
0.351899
17.9767
-2.06961
30.52
-7.73097
1.68749
15.6672
-19.9024
-6.20116
-45.6976
-33.3336
-10.6066
-21.5277
-42.0162
15.4079
-18.1222
-40.3213
-1.92279
11.6018
19.3691
1.03129
31.596
1.40073
21.4168
8.84736
23.5187
10.7799
34.0286
-39.3965
31.5453
10.3894
-19.1484
28.7185
27.1233
0.538882
30.8965
-37.1252
31.6718
-10.6831
-47.9203
3.3572
0.322312
16.6476
-1.66792
4.76489
22.1794
3.22783
31.8297
-1.35053
-41.709
-14.5808
-22.0894
-6.3256
-30.183
-15.0626
24.1417
26.3767
31.5928
34.3123
10.902
1.4881
-38.1052
-18.0686
-36.9131
-19.2495
-1.10284
-41.2485
1.95521
32.3912
25.2142
-36.9815
31.0662
-32.2787
-7.56596
33.4018
6.30608
31.4884
3.49473
-1.70562
31.7777
1.62217
-40.3762
-1.74507
31.9138
-5.90062
32.0476
8.06137
26.9513
30.3998
2.38258
-61.4139
-47.5657
32.4144
34.3547
31.1706
32.8674
14.1228
-7.97467
-36.2479
-13.8292
-15.9307
4.30882
-46.9801
33.4125
34.2282
1.93982
31.1856
-11.1905
-13.1315
-63.5227
30.545
32.4366
-47.8269
33.5688
-3.23876
-3.26665
-39.9147
-44.8038
-2.07287
-56.4217
20.0265
33.7376
-17.1118
-2.30141
-13.012
-13.3758
27.4045
31.2408
-47.3644
-1.80721
32.8943
-33.3305
19.4555
-40.7393
-45.9283
33.0686
2.45218
19.8832
6.01839
-42.4747
31.3426
-40.1234
-13.3949
-40.3647
-71.5292
28.2597
-31.6899
0.0948042
32.6677
-42.1965
33.4002
-15.2351
27.0941
17.3272
-8.60963
-14.3269
27.5838
-46.5799
32.7183
-3.68266
6.47485
0.177317
18.6139
-45.284
33.0933
32.8856
-44.4114
21.858
34.4522
34.254
32.6635
32.6374
23.3653
33.6996
33.1973
-25.4655
27.4641
-33.0659
33.2281
-50.1009
29.5068
32.6457
-42.3187
34.9559
34.9489
30.4562
32.0075
28.0431
30.7006
23.9773
34.2467
29.0813
-0.741281
-10.8255
-37.5605
22.346
-46.5033
34.4992
1.55093
14.3876
16.6655
-27.9335
34.707
3.44747
-50.9224
32.504
24.3746
34.904
-31.4267
2.01306
27.811
22.0452
-41.8191
-15.3312
69.7051
34.2388
-30.7888
-26.2044
-2.31609
2.57585
34.7396
-4.08404
0.642373
-41.8246
-2.27022
2.63798
4.24945
-1.70753
14.9911
2.15849
6.52473
-0.322009
33.0151
0.122053
29.3948
12.9116
31.624
33.6228
-42.1317
-60.7217
-12.6702
-0.170758
-4.06241
13.8578
26.0115
34.7969
-1.1791
-25.3453
33.539
-46.1392
-40.0105
30.1012
33.7029
-48.999
-61.361
21.2623
-21.6341
-3.18208
0.325144
-1.5528
0.708803
-29.7877
30.2468
33.9939
-33.2055
-41.7243
28.7308
33.1788
-48.2738
3.57241
-35.8019
-11.0476
-11.0812
-1.39328
33.1488
-67.0549
28.0364
-0.865864
21.7719
28.6235
19.7461
3.50547
-37.238
-35.6883
30.7654
30.2913
-3.02413
-55.7534
-2.80557
-33.853
-26.8316
13.1525
-14.3687
-12.9864
14.1072
-43.4256
30.9268
-48.7948
-41.2338
31.3151
33.3113
-2.21829
-0.822253
1.55714
-49.2642
12.7167
28.7849
-62.5134
30.4039
30.6379
3.41233
0.203992
30.6398
1.69826
-3.00094
32.5311
0.585896
-21.6435
-47.3104
33.9104
0.582419
-14.0834
-11.2363
-31.4634
29.4257
-32.5489
1.96425
-41.4879
-37.3322
28.609
-6.84044
34.5697
33.2523
12.9847
32.0712
8.54969
-14.4568
-6.82734
31.8918
27.0098
2.12753
-37.5231
29.7148
33.465
10.7462
-41.8286
28.3654
9.6633
34.7979
34.2327
-32.4289
28.607
-10.4199
22.8574
-4.52484
-50.1384
-28.1426
2.2831
29.3304
22.851
33.3529
-25.8521
33.6555
19.1333
0.825795
-38.0108
-46.7767
30.8416
1.99222
31.8791
-13.1592
0.116605
33.5095
33.283
-23.2126
-20.6288
30.2081
34.1736
-6.22529
-19.4031
-42.8953
-22.3506
0.94599
32.4108
-57.7196
-17.2698
30.5448
-23.7889
-1.02684
33.1335
33.9281
-40.5091
31.0779
33.6243
2.45451
26.2924
34.3915
22.9618
-48.3201
31.0997
-37.6694
31.7003
-49.5314
-13.7754
-36.8323
2.00659
-15.7114
31.4399
-37.6475
-13.9796
21.4099
15.8627
-12.5263
1.31349
31.5564
-0.693755
3.77325
-14.8055
33.6811
30.2586
-38.9785
34.9536
-15.2408
-17.4612
-37.2771
-2.1589
25.9697
-47.3998
-36.3841
30.3887
-42.563
-7.7114
-17.8118
-21.471
-48.239
-43.3043
-1.82933
-26.3746
1.95768
19.6124
9.0677
13.8138
-17.3903
28.474
33.671
-30.3852
26.2233
29.058
-13.8725
0.00846572
-0.10575
16.6544
-13.4321
30.6456
-39.1159
-31.5251
-25.9528
31.7891
0.503052
17
27.68
10.862
-49.6755
24.3573
30.0031
30.3208
12.4567
0.452704
-9.38617
-2.67403
-36.0462
-36.12
33.07
-43.7455
4.26594
-45.8266
25.0432
33.0036
27.5533
-43.9578
0.132239
-32.46
1.3093
28.5264
-13.3963
32.283
-36.7045
-0.0891268
-46.0882
-40.8499
33.4605
1.83974
-0.660938
-26.6584
-17.3416
11.7114
11.991
8.30449
-12.7983
-6.26507
7.62116
29.7406
-29.2444
-33.8706
-1.86128
0.821435
-44.4431
34.1616
32.6958
33.5984
10.7178
29.3625
-6.83688
-30.6979
25.6764
-1.78605
11.349
30.2405
1.56142
14.4129
33.8741
-50.3658
-50.7077
3.39543
-13.0621
29.1765
-49.7353
19.3715
25.1664
32.2114
-2.12158
31.9852
29.4068
23.5529
-22.1536
-9.39092
-0.321277
-48.2303
-50.9617
32.2003
-60.8021
4.45246
2.76323
-45.9019
-31.0181
10.4446
1.96482
-41.9221
-1.12027
-36.3051
31.7151
-31.26
2.02444
-45.9049
-0.0553829
32.8859
-37.7909
33.5814
17.0769
25.4821
-48.4492
-1.14339
19.0897
-48.1146
31.7544
-36.8395
-3.98161
-40.3337
-17.9677
1.34115
2.35944
24.1744
-15.0315
32.2642
4.06535
-25.4095
34.2337
34.3038
-38.7145
23.5389
-38.4709
33.8133
27.4061
33.0818
-2.17926
13.5329
-1.13216
1.50492
30.1591
2.13848
34.8891
-10.6975
-35.4072
1.45964
28.6789
34.1121
-37.1363
-5.31361
-26.7283
18.894
-52.7933
-17.3541
-28.6027
-40.6103
-1.86537
0.845532
33.2053
20.6282
34.3394
29.6517
3.82837
34.836
34.9153
32.8927
-37.0488
-16.6368
32.8879
-0.532639
4.45934
-56.5779
33.4978
1.26214
15.1414
-38.4329
6.44778
-2.37108
-41.5374
2.05517
-26.6048
-57.9104
6.35023
32.1524
-1.61927
23.033
32.7926
1.41757
-8.69752
-1.284
7.34588
-9.47216
-52.42
-32.0878
27.6006
29.3699
1.92206
-13.8798
-0.634349
-0.647177
-21.2375
14.8972
30.6167
16.5068
-43.6516
-2.86893
-109.926
-0.506657
-10.2921
33.0033
30.1058
-1.66026
31.694
-17.4902
29.2842
-10.4861
-42.7114
-43.9262
31.3878
-24.742
-15.0105
17.3403
8.05723
27.3583
-58.0123
-13.3492
29.0359
0.12298
32.5603
-8.11811
-39.5378
-44.9461
-16.1694
-13.9753
-43.1441
-23.8646
6.08292
34.3736
29.1904
-12.4077
7.35167
-3.33178
33.841
-37.4004
-5.30621
-42.2528
-28.3824
25.9418
24.243
-48.3369
-11.1441
27.6849
-12.2075
-38.9208
-38.7146
0.210059
-43.2177
-15.7616
34.1365
32.4844
30.5674
0.113715
-10.7373
-2.82253
1.74924
2.38327
31.047
23.1995
20.483
-37.8689
0.667347
-43.7943
15.5674
23.5974
1.95784
-38.5692
-4.19203
26.439
-42.6955
23.7769
30.6348
28.5201
-2.12388
26.3488
-38.1598
10.2425
14.1341
31.9722
-39.9626
28.0083
16.0779
-15.3842
-13.9891
26.9791
-26.9016
-28.8917
30.8752
0.417969
-50.6023
15.3062
12.6136
-9.05599
-58.3875
26.8693
-0.424539
1.19971
-45.3451
29.9379
-48.6151
1.38971
-36.3584
-38.1905
33.7615
6.52098
33.5856
-29.9332
6.56185
29.3283
-2.04897
-50.3356
34.0857
34.0223
34.6385
3.19345
1.99556
15.4271
-41.3286
-40.5912
-32.0401
0.325911
-14.3853
3.89002
12.7771
-39.7105
25.0436
27.716
28.0081
16.8949
33.3527
32.6237
-37.5189
0.00720376
34.2918
-32.3084
31.694
1.15189
-41.6878
-4.33726
1.98147
4.48031
29.832
-20.8208
-10.8187
26.373
-54.7457
-4.70273
3.80102
16.3233
23.1393
-11.7453
27.9131
2.61471
-3.12723
-13.7395
13.9225
-12.985
-40.9047
33.2469
-16.574
22.2401
-35.6758
28.3157
30.4526
32.3705
-40.4899
31.8764
1.67
32.8107
-10.5728
-2.26269
-41.3782
30.0153
21.1434
25.7237
-8.21947
-44.0087
-35.8575
-0.414419
34.1246
2.73972
33.1896
-31.5357
33.2031
-2.03555
-45.3643
34.2536
-35.5541
33.1175
32.9915
-15.1122
-29.5371
23.7295
0.627985
15.099
34.9202
-1.37879
-48.2926
32.2814
-2.32807
-15.4489
10.6853
33.2668
33.6729
-31.4987
31.4346
32.6509
-10.2934
31.5614
27.0207
30.5857
31.2979
1.56247
-1.61605
-40.256
-6.00694
-38.8773
32.9991
-0.808402
-36.8782
33.2239
-2.27738
30.0644
25.2479
31.147
31.0628
18.4328
-41.1708
-38.1691
30.8022
-33.0996
-21.2862
26.1196
33.8677
-45.5421
-30.702
-38.5946
-21.5092
-15.8938
28.532
-9.88288
-18.2696
-31.1202
-0.441339
-40.5771
33.0392
12.6599
1.7099
-3.20577
-3.20688
31.5029
-2.11202
32.6839
-0.163832
31.7907
-7.40106
3.34978
-46.3789
33.7307
1.88365
31.4891
33.7562
-25.0799
27.0597
-17.8682
32.2719
-1.61873
30.354
21.453
2.9299
10.3906
34.4824
30.9577
-0.140847
2.31346
33.7323
2.32876
28.6956
-31.3606
-31.5378
31.335
-19.2647
18.8086
-100.833
-44.9319
33.5164
-53.7381
-41.4561
2.31138
31.1335
-43.0716
-44.4708
2.46888
26.4055
-1.20368
-7.25263
30.6225
-10.4836
-17.3561
6.32779
-13.8775
-62.0339
13.952
-1.15819
25.0328
0.472926
10.4801
24.729
-64.6409
24.6574
5.4823
-3.15647
-47.6629
26.8694
4.72239
7.88375
27.8738
24.545
33.6665
34.7273
-15.0235
-1.39786
-13.6575
2.63373
39.3277
26.7193
-87.7951
29.524
-29.8708
1.10508
-50.7312
-0.329831
2.74693
11.6265
30.7681
31.6869
-48.1348
2.64262
-16.9671
-1.91314
27.2507
-48.2252
0.949927
32.9981
1.38751
1.10982
5.79088
16.4207
-13.2177
-40.6049
-22.1784
2.97878
-2.63331
31.3917
32.4258
32.1377
-44.84
27.6006
31.3199
2.88212
11.4048
-35.2475
32.4804
-14.22
14.1037
1.29081
34.1249
-2.04985
31.95
32.1894
-7.64936
-12.1746
33.2153
-16.4535
21.8008
1.67068
-35.9948
-40.7765
33.1612
-2.86255
-17.8745
-35.3419
-20.3106
23.3224
-38.7296
1.95759
1.5353
0.316909
-19.6471
33.9728
-47.017
0.245361
34.8608
-43.547
29.7653
25.6967
-19.0902
14.1021
1.71646
20.5046
30.4625
31.2488
-1.0387
-40.5235
-2.35379
-16.8478
-17.0913
-44.2254
21.6095
-39.8714
-41.5188
8.90326
14.5429
2.25873
-1.66496
6.32659
-12.6573
-7.35124
0.96438
-44.0396
33.3935
-0.587174
31.4929
-34.8957
3.53451
1.89644
-62.3543
31.4392
-35.7631
-20.8051
23.5529
30.2919
-27.0112
20.2084
-40.0727
33.0503
32.6458
34.7956
25.8421
33.7725
31.8032
-18.4916
33.7079
3.71806
33.3284
15.4426
28.4469
-22.9034
29.3649
-32.992
11.3411
34.498
23.0295
34.2953
33.3734
34.5998
-28.1209
-3.82833
8.57856
2.09924
-20.3497
-39.3654
1.93462
-45.0849
2.59665
15.4193
32.8977
30.9635
-43.4645
-22.7207
22.8383
-46.3354
-7.21193
34.5394
-2.81358
32.3632
-49.2557
0.776332
-15.956
-4.19031
21.4175
32.2045
30.8633
25.3507
31.5581
-1.80288
21.1861
30.5597
-46.7126
5.90053
14.3496
29.3265
31.4849
-19.0306
32.0483
-16.8422
-7.39468
-12.5827
1.21898
-8.95032
32.4809
-41.572
33.3054
29.7232
-26.7533
-30.01
25.8108
1.45066
32.8996
1.24109
1.62962
-0.748981
16.0346
32.143
28.6418
-38.4403
33.0734
32.6638
6.31796
3.50009
26.5304
26.6305
19.8719
33.1007
-22.4552
33.5617
-0.838719
33.7141
7.68593
7.34204
1.93249
-37.5653
-19.147
28.7871
-26.2803
-42.0503
-45.9993
2.01582
-40.1575
34.5437
33.8331
-0.335076
-9.59852
28.0751
32.7311
-35.1106
31.898
-1.74673
-37.1828
3.09023
32.346
-16.32
31.1431
13.66
-12.3292
-0.661976
43.5807
-0.89339
-45.094
18.2018
3.31393
16.323
30.7054
-1.39522
-0.60167
-1.90008
16.057
32.9165
-25.9208
-3.4982
31.6106
25.0829
34.0988
1.85197
34.4752
25.9089
27.8108
-21.8939
33.673
-16.0137
34.8268
-11.0364
30.8263
32.2938
33.9245
-0.742322
26.0031
32.5848
31.9033
7.62496
0.811789
31.3791
23.9689
1.7353
-4.78644
-50.7212
0.915671
-37.1483
-45.3307
32.9782
33.5736
-27.2277
24.6974
-31.7002
-52.1716
-25.8376
-13.3698
-35.96
34.7804
28.4325
-1.48618
33.8316
-5.61099
-0.816018
2.92554
-0.21584
1.89969
4.17737
-25.6975
-100.269
-31.3972
8.13167
-37.8253
29.1184
-3.71337
30.9833
28.4073
-21.3921
27.1208
-43.4146
34.6847
24.7253
20.2512
-2.00222
2.23451
16.4977
21.3955
33.6456
32.8217
-44.0799
27.9066
30.9258
-9.00669
32.8794
33.369
-1.13687
32.8031
-42.4086
4.05602
-18.5839
14.837
-18.3202
33.0208
-32.1578
-15.9487
7.0475
-33.0294
5.31234
-10.4801
1.19774
-18.6881
-40.3553
-25.624
-0.641664
-1.44494
25.6412
32.481
-38.2107
31.2373
-24.4732
33.3049
32.183
2.02513
33.6206
-1.26739
-33.1758
27.9865
-31.7748
24.2348
-49.5376
-16.065
33.593
33.8506
-50.5643
32.4894
-14.29
34.6227
-38.7912
22.8496
-31.6145
33.922
12.0561
5.42608
-41.0631
-32.2185
1.71074
-0.122095
-6.96238
-5.50393
34.4045
-0.920965
33.0496
30.2895
31.8829
-43.1991
2.92437
-33.8315
30.4096
34.1806
32.1973
32.9077
-42.3655
-5.05084
1.62556
3.43671
-28.8554
2.91041
33.5268
31.3423
5.2033
-17.6205
-35.9834
34.0543
33.0423
1.8802
31.2071
-27.0661
8.71788
11.5496
34.2537
33.5284
-9.854
26.5592
-1.45891
2.72982
34.6399
7.32479
-19.6812
2.46234
32.5994
-9.88075
23.7493
-50.142
16.2235
-28.0613
-40.5597
6.43072
3.43973
-9.85666
0.810677
30.7841
33.4186
32.4244
-1.11693
22.8836
-27.9185
8.39909
-13.1691
-16.8221
-0.314455
2.12708
14.6186
-11.7767
0.711166
28.885
4.03806
-46.0678
-5.95255
-7.49389
-22.5234
23.2171
13.9081
21.3895
-48.2616
12.3562
-1.91902
32.455
30.9388
-40.3036
0.0215952
34.7908
31.3384
-4.36305
32.1843
-28.2112
-26.568
5.69241
26.4902
-9.29269
30.9012
-48.0431
-40.114
11.0582
-30.3617
-1.51701
33.5409
-1.83147
-23.4677
14.6262
31.221
-27.8314
-38.2399
16.6808
-13.8923
-0.80024
-32.951
-10.6314
3.23312
-3.68621
34.1153
33.6547
25.1479
14.0051
29.3978
-6.39406
1.55727
2.42144
-40.4548
-15.2291
-36.2035
26.4177
33.6574
32.8132
-21.216
17.2433
2.80018
-1.24152
29.4112
-26.6901
-38.8944
-14.524
4.11117
-16.1137
20.4291
34.3538
33.1892
-25.6324
34.4213
-40.594
-0.704923
4.19944
-17.5101
33.8103
-41.0064
32.8533
34.6814
8.05318
-48.8468
-2.71027
31.679
19.7971
20.0039
-1.6198
21.5032
17.7104
-37.6612
-32.911
-1.00689
32.3827
-3.22165
33.552
-42.9732
-1.68148
21.1555
-0.385126
29.3474
-26.3667
26.8766
-1.64456
29.5023
33.7636
31.614
-38.4711
19.8952
-36.9255
3.58866
-14.4781
34.3239
-49.8685
-12.4306
-8.48627
-4.31607
33.6315
6.55551
-13.5663
1.34168
-24.4571
1.91336
7.58961
-0.0303668
-3.16314
-16.5802
-13.27
1.19688
-43.6807
-17.3047
-26.1651
-38.0227
-8.68054
-2.53992
34.3581
-6.49587
0.909628
-29.5463
-11.0183
-43.9445
21.8639
-12.2791
10.5237
-0.948173
-7.58287
-22.7054
20.4079
-36.0657
-12.5915
-11.222
-26.8768
33.6659
-41.0247
3.47728
-0.306461
-43.1469
-11.8271
12.1336
18.438
1.48591
-40.5211
5.66899
-30.6953
-40.4914
33.0109
-2.41845
34.4469
1.24318
-14.1432
31.3023
1.81868
34.4978
-30.0424
1.6886
32.8295
1.5793
13.66
15.068
3.99244
-23.8264
29.1113
-43.8126
-27.6029
-48.2638
11.8286
32.9896
29.8041
-42.3056
-17.0605
2.04924
-58.2801
23.7712
-43.6477
13.0137
-18.5116
0.25424
-2.66183
31.2877
-14.6373
31.1365
-28.5382
31.3176
-2.60093
1.95797
4.33124
22.5612
12.0473
-23.1017
-1.87975
-30.488
32.0927
18.3095
-16.1647
-38.4816
0.223012
27.8968
0.856834
1.87432
30.9269
-41.2342