/*--------------------------------*- C++ -*----------------------------------*\
| =========                 |                                                 |
| \\      /  F ield         | OpenFOAM: The Open Source CFD Toolbox           |
|  \\    /   O peration     | Version:  2.3.1                                 |
|   \\  /    A nd           | Web:      www.OpenFOAM.org                      |
|    \\/     M anipulation  |                                                 |
\*---------------------------------------------------------------------------*/
FoamFile
{
    version     2.0;
    format      ascii;
    class       volVectorField;
    location    "0.41";
    object      U;
}
// * * * * * * * * * * * * * * * * * * * * * * * * * * * * * * * * * * * * * //

dimensions      [0 1 -1 0 0 0 0];

internalField   nonuniform List<vector> 
15166
(
(5.9743 0.559957 3.19179e-19)
(7.187 1.03442 1.59806e-18)
(8.26923 0.902229 -8.93802e-19)
(9.30122 0.956285 8.01553e-19)
(10.0962 1.02017 8.23811e-19)
(10.8728 1.07495 4.34178e-19)
(11.5267 1.17337 -8.59373e-19)
(12.0688 1.23912 8.32864e-19)
(12.464 1.33345 -4.22482e-19)
(12.771 1.39293 1.67124e-18)
(12.9969 1.44838 -1.2275e-18)
(13.1505 1.50669 1.22162e-18)
(6.66642 1.02636 4.8889e-19)
(7.60247 1.42497 5.24203e-20)
(8.55522 1.20942 2.74547e-20)
(9.47695 1.22949 4.56013e-19)
(10.2374 1.24938 -3.95927e-19)
(10.9651 1.27587 0)
(11.5823 1.33747 4.24959e-19)
(12.0879 1.38339 1.45041e-21)
(12.4664 1.44382 4.1825e-19)
(12.76 1.48562 -8.43256e-19)
(12.9762 1.52567 1.65645e-18)
(13.1342 1.5646 -1.23411e-18)
(7.20898 1.25747 -4.63243e-19)
(8.03786 1.56827 -2.47753e-18)
(8.8996 1.37645 4.88045e-19)
(9.72215 1.41051 -9.25133e-19)
(10.4314 1.41722 -1.65954e-20)
(11.1024 1.43289 8.8388e-19)
(11.6751 1.47248 -1.26942e-18)
(12.1419 1.50338 -4.35646e-19)
(12.4972 1.54158 8.31514e-19)
(12.7723 1.56896 5.99682e-21)
(12.9764 1.59521 -1.23774e-18)
(13.1299 1.62 1.62264e-18)
(7.51515 1.37418 0)
(8.35066 1.62666 -1.08464e-18)
(9.18132 1.47818 2.5437e-18)
(9.94695 1.52642 -1.44489e-18)
(10.6199 1.53136 9.25133e-19)
(11.2455 1.54614 1.36561e-18)
(11.7793 1.57482 -4.23884e-19)
(12.2125 1.59685 4.35655e-19)
(12.5452 1.62118 -8.51449e-19)
(12.8021 1.63796 8.41143e-19)
(12.9947 1.6529 4.17366e-19)
(13.1435 1.66606 8.2733e-19)
(7.72644 1.44772 -6.25543e-19)
(8.59228 1.66237 -5.80085e-19)
(9.40752 1.55334 -1.57503e-18)
(10.139 1.60715 1.48579e-18)
(10.788 1.61245 -4.7065e-19)
(11.3803 1.62864 -4.55966e-19)
(11.8832 1.65148 -4.44731e-19)
(12.2893 1.66815 4.51067e-19)
(12.6023 1.68379 -4.2974e-19)
(12.8433 1.69329 -4.23383e-19)
(13.0253 1.70069 -1.26295e-18)
(13.1672 1.7071 -4.66339e-21)
(7.91412 1.49915 1.2397e-18)
(8.80915 1.68491 1.17526e-18)
(9.60782 1.60962 -1.09912e-18)
(10.3126 1.66479 2.07567e-18)
(10.9416 1.67168 -1.98412e-18)
(11.507 1.68943 9.50077e-19)
(11.9844 1.70863 0)
(12.3682 1.72171 9.05043e-19)
(12.6643 1.73164 -1.76258e-18)
(12.8914 1.73601 8.61634e-19)
(13.0636 1.73799 0)
(13.1985 1.73914 1.256e-18)
(8.08692 1.53352 -6.74503e-19)
(9.01031 1.69521 6.20807e-19)
(9.79263 1.64858 0)
(10.4751 1.70358 0)
(11.0856 1.71329 5.19008e-19)
(11.6276 1.73265 4.97713e-19)
(12.0831 1.74963 -9.5102e-19)
(12.4477 1.76028 1.38412e-18)
(12.729 1.76633 4.5415e-19)
(12.9441 1.76684 0)
(13.108 1.76437 4.35596e-19)
(13.2376 1.76124 0)
(8.24149 1.55411 -1.36289e-18)
(9.19359 1.6958 1.25561e-18)
(9.96208 1.67314 5.7472e-19)
(10.6263 1.72709 5.61821e-19)
(11.2202 1.74014 -2.61881e-18)
(11.7422 1.76103 5.09591e-19)
(12.1786 1.77681 0)
(12.5267 1.78596 -4.65715e-19)
(12.7951 1.78946 4.64825e-19)
(12.9999 1.78735 2.75935e-21)
(13.1563 1.78191 -8.70922e-19)
(13.2796 1.77618 8.59015e-19)
(8.37905 1.56387 1.40238e-18)
(9.3595 1.68913 -1.29099e-18)
(10.1166 1.68652 5.90088e-19)
(10.7661 1.73877 -1.69046e-18)
(11.3455 1.75509 2.15616e-18)
(11.8501 1.77722 -2.06459e-18)
(12.2702 1.79242 9.93962e-19)
(12.6042 1.8007 0)
(12.8613 1.80262 4.72791e-19)
(13.0573 1.79879 0)
(13.2071 1.7913 9.01262e-19)
(13.325 1.78311 -4.37e-19)
(8.50276 1.56514 1.44204e-18)
(9.51066 1.67694 0)
(10.2582 1.69111 6.23173e-19)
(10.8954 1.74126 5.88014e-19)
(11.4618 1.7605 5.58594e-19)
(11.9514 1.78352 5.34302e-19)
(12.3573 1.79846 0)
(12.6792 1.80626 0)
(12.9267 1.80721 -1.42723e-18)
(13.1151 1.80229 2.33083e-18)
(13.2591 1.79351 -9.02333e-19)
(13.3719 1.78515 -1.3396e-18)
(8.61534 1.5597 1.47141e-18)
(9.64961 1.66039 -2.0145e-18)
(10.3891 1.68856 1.89407e-18)
(11.0156 1.73638 -1.77335e-18)
(11.5701 1.75812 -5.56617e-19)
(12.0467 1.7817 -5.32984e-19)
(12.4402 1.79653 1.03599e-18)
(12.7515 1.80407 -1.00404e-18)
(12.9907 1.80448 -1.46298e-18)
(13.1726 1.79891 -4.67463e-19)
(13.3116 1.78902 1.85637e-18)
(13.4195 1.77929 -8.93779e-19)
(8.71849 1.54871 -1.50741e-18)
(9.77801 1.64014 -2.04994e-18)
(10.5106 1.67999 -3.18107e-19)
(11.1277 1.7254 1.21219e-18)
(11.6714 1.74922 8.56792e-19)
(12.1362 1.77308 -2.20001e-18)
(12.5189 1.78789 2.11531e-18)
(12.821 1.79531 -3.85523e-21)
(13.0529 1.79551 -1.49085e-18)
(13.229 1.78982 9.65874e-19)
(13.3633 1.77977 -4.66295e-19)
(13.4665 1.76919 9.05341e-19)
(8.81335 1.53313 -1.14837e-18)
(9.89704 1.61679 -3.53575e-19)
(10.6238 1.66632 3.22563e-19)
(11.2325 1.70928 0)
(11.7662 1.73478 2.89639e-19)
(12.2206 1.75871 -2.82743e-19)
(12.5935 1.77351 0)
(12.8876 1.78089 0)
(13.113 1.78103 2.54159e-19)
(13.2837 1.77542 0)
(13.413 1.76578 0)
(13.5103 1.75532 -9.15754e-19)
(8.90091 1.51368 -3.86878e-19)
(10.0078 1.59075 3.51926e-19)
(10.7298 1.64828 0)
(11.3306 1.6888 0)
(11.8552 1.71562 1.18749e-18)
(12.3002 1.7394 -8.60557e-19)
(12.6645 1.75416 1.09223e-18)
(12.9513 1.76144 -1.06063e-18)
(13.1711 1.7614 7.67837e-19)
(13.3374 1.75532 -5.67738e-21)
(13.4631 1.74483 -1.93834e-18)
(13.5577 1.73717 1.17925e-18)
(8.98192 1.49094 -1.5899e-18)
(10.1111 1.56233 0)
(10.8291 1.62645 1.34303e-18)
(11.4228 1.66459 -1.59632e-18)
(11.9389 1.69238 0)
(12.3754 1.71589 2.91855e-19)
(12.7319 1.73056 1.10931e-18)
(13.0124 1.73781 -2.41954e-18)
(13.2272 1.73789 2.08188e-18)
(13.3896 1.73218 -1.01441e-18)
(13.5122 1.72171 9.81212e-19)
(13.6038 1.70846 -1.19467e-18)
(9.05704 1.46538 3.47848e-21)
(10.2077 1.53182 7.35567e-19)
(10.9224 1.60134 0)
(11.5096 1.63714 3.19694e-19)
(12.0177 1.66563 0)
(12.4464 1.68875 8.79639e-19)
(12.7959 1.70334 -7.81715e-21)
(13.0707 1.71056 -8.23918e-19)
(13.2811 1.71077 0)
(13.4399 1.70539 -2.58292e-19)
(13.5591 1.69537 2.5125e-19)
(13.6479 1.68076 0)
(9.12685 1.43741 4.02352e-19)
(10.2981 1.49947 -1.11941e-18)
(11.0102 1.57333 1.03877e-18)
(11.5912 1.60687 -4.57421e-21)
(12.092 1.63581 3.09088e-19)
(12.5136 1.65845 -2.97803e-19)
(12.8568 1.67291 0)
(13.1265 1.68009 0)
(13.3329 1.6804 1.06744e-18)
(13.4884 1.67522 -7.85912e-19)
(13.6046 1.66572 -5.05953e-19)
(13.6901 1.65213 -2.45532e-19)
(9.19173 1.40728 4.11416e-19)
(10.3829 1.46536 3.7272e-19)
(11.093 1.54274 -3.47689e-19)
(11.6683 1.5741 6.59416e-19)
(12.1622 1.60327 -1.57325e-18)
(12.5773 1.62538 3.06267e-19)
(12.9146 1.63968 0)
(13.1796 1.64682 5.58339e-19)
(13.3825 1.64725 -5.45067e-19)
(13.5353 1.64229 -7.9037e-19)
(13.6489 1.63322 2.58646e-19)
(13.7321 1.62084 7.43744e-19)
(9.25214 1.3753 0)
(10.4626 1.42972 0)
(11.1712 1.50986 0)
(11.7411 1.53912 3.37041e-19)
(12.2286 1.56834 0)
(12.6375 1.58986 6.08596e-19)
(12.9696 1.60396 -8.86096e-19)
(13.2304 1.61107 0)
(13.43 1.61169 -5.47622e-19)
(13.5802 1.60706 5.32729e-19)
(13.6917 1.59843 0)
(13.773 1.58632 0)
(9.30843 1.34168 2.1224e-18)
(10.5375 1.39263 -1.53811e-18)
(11.245 1.47493 7.18538e-19)
(11.8099 1.50214 -1.01046e-18)
(12.2913 1.53126 1.29017e-18)
(12.6946 1.55214 -9.25256e-19)
(13.0218 1.56602 8.92869e-19)
(13.2787 1.57309 2.83116e-19)
(13.4754 1.57392 -1.11304e-18)
(13.6232 1.56969 8.11182e-19)
(13.7325 1.56169 0)
(13.8118 1.54925 0)
(9.36086 1.30659 -1.71719e-18)
(10.608 1.35423 0)
(11.3149 1.43814 0)
(11.875 1.46338 -6.81231e-19)
(12.3506 1.49224 6.54564e-19)
(12.7486 1.51245 -9.3283e-19)
(13.0713 1.52606 5.11652e-21)
(13.3247 1.53305 8.72375e-19)
(13.5187 1.53402 5.60464e-19)
(13.6642 1.53008 -5.48944e-19)
(13.7713 1.52258 -2.67078e-19)
(13.8485 1.50984 0)
(9.40959 1.27023 -1.2998e-18)
(10.6743 1.31463 1.18157e-18)
(11.3809 1.3997 0)
(11.9366 1.42298 -6.87737e-19)
(12.4068 1.45148 9.92223e-19)
(12.7998 1.47097 0)
(13.1184 1.48427 0)
(13.3686 1.49112 2.95248e-19)
(13.5601 1.49214 5.66446e-19)
(13.7036 1.48831 -5.54941e-19)
(13.8091 1.48096 5.37063e-19)
(13.8852 1.47003 0)
(9.4551 1.2326 -4.25481e-21)
(10.7367 1.27378 -1.1879e-18)
(11.4435 1.35968 0)
(11.9949 1.3811 1.04422e-18)
(12.46 1.40914 -9.98013e-19)
(12.8484 1.42789 3.20464e-19)
(13.1631 1.44085 3.08603e-19)
(13.4103 1.44757 -8.85747e-19)
(13.5996 1.4487 5.77463e-19)
(13.7414 1.44515 -2.80476e-19)
(13.8456 1.43821 2.68521e-21)
(13.9206 1.42846 0)
(9.49691 1.19379 -8.79765e-19)
(10.7954 1.23182 8.01628e-19)
(11.5026 1.3183 0)
(12.05 1.33788 -3.4956e-19)
(12.5103 1.36537 0)
(12.8944 1.38337 -3.20071e-19)
(13.2055 1.39598 3.09016e-21)
(13.45 1.40257 3.00972e-19)
(13.6373 1.4038 -2.91634e-19)
(13.7776 1.40048 -2.69223e-21)
(13.8806 1.39373 -2.53354e-21)
(13.9546 1.3852 -1.07122e-18)
(9.53567 1.15429 -4.48e-19)
(10.8505 1.18916 -8.02007e-19)
(11.5585 1.27573 7.51729e-19)
(12.1022 1.29345 3.55931e-19)
(12.5579 1.32032 0)
(12.938 1.33756 3.2603e-19)
(13.2458 1.34981 -6.25362e-19)
(13.4878 1.35624 -5.98984e-19)
(13.6732 1.35756 8.80344e-19)
(13.8121 1.35449 -2.58041e-21)
(13.914 1.34798 -2.47319e-21)
(13.9872 1.33989 2.6896e-19)
(9.57191 1.11387 4.42935e-19)
(10.9024 1.1455 -8.14488e-19)
(11.6113 1.23198 -3.79408e-19)
(12.1516 1.24793 -3.5529e-19)
(12.6029 1.27413 -3.42375e-19)
(12.9792 1.29058 3.25758e-19)
(13.2839 1.30244 -1.26442e-18)
(13.5236 1.30871 2.92205e-21)
(13.7073 1.3101 0)
(13.8449 1.30727 8.57327e-19)
(13.9461 1.301 -2.8311e-19)
(14.0188 1.29389 -2.71757e-19)
(9.60522 1.07259 -4.54958e-19)
(10.9511 1.10093 0)
(11.6613 1.18718 3.14518e-21)
(12.1983 1.20136 3.61115e-19)
(12.6455 1.22686 6.86756e-19)
(13.0181 1.24253 3.25382e-19)
(13.3199 1.254 -1.27444e-18)
(13.5575 1.26011 3.11992e-19)
(13.7396 1.26161 8.98347e-19)
(13.8762 1.25911 0)
(13.9765 1.25321 0)
(14.0488 1.24598 0)
(9.63554 1.03045 1.82551e-18)
(10.9968 1.05551 -8.19806e-19)
(11.7085 1.14142 7.71338e-19)
(12.2423 1.15387 -3.60543e-19)
(12.6857 1.17861 6.97393e-19)
(13.0549 1.19349 9.92222e-19)
(13.354 1.20455 -9.62392e-19)
(13.5895 1.21048 5.93906e-21)
(13.7703 1.21204 1.2043e-18)
(13.9058 1.20979 -8.79728e-19)
(14.0052 1.2044 2.8496e-19)
(14.0767 1.19798 -5.44862e-19)
(9.66324 0.987839 -4.57758e-19)
(11.0394 1.00957 -4.15236e-19)
(11.7529 1.09483 -3.84044e-19)
(12.284 1.1055 -7.25714e-19)
(12.7236 1.12946 -3.40765e-19)
(13.0896 1.14356 3.36314e-19)
(13.3861 1.15418 3.18445e-19)
(13.6198 1.15992 -9.35471e-19)
(13.7993 1.16148 3.06899e-19)
(13.9339 1.15937 5.8829e-19)
(14.0327 1.15415 -2.85069e-19)
(14.1035 1.14932 -2.79688e-19)
(9.68841 0.944646 -9.20604e-19)
(11.0793 0.963017 1.66937e-18)
(11.7948 1.04747 0)
(12.3232 1.05635 0)
(12.7593 1.07951 0)
(13.1222 1.0928 6.73421e-19)
(13.4164 1.10298 6.49792e-19)
(13.6484 1.10852 -3.13273e-19)
(13.8266 1.11011 3.0603e-19)
(13.9605 1.10824 2.05612e-21)
(14.0588 1.10324 -5.73543e-19)
(14.1292 1.09872 5.608e-19)
(9.71149 0.901114 9.31115e-19)
(11.1167 0.915935 -2.0719e-19)
(11.8342 0.999305 -1.95757e-19)
(12.3601 1.00646 0)
(12.7929 1.0288 0)
(13.1528 1.04128 -3.37667e-19)
(13.4448 1.05102 3.2501e-19)
(13.6752 1.05635 -6.36126e-19)
(13.8524 1.05798 3.05072e-19)
(13.9856 1.05632 -8.97226e-19)
(14.0834 1.05161 0)
(14.1536 1.04764 -2.81512e-19)
(9.73194 0.857071 -1.86876e-18)
(11.1514 0.868153 6.36683e-19)
(11.8712 0.950326 1.95547e-19)
(12.3948 0.955841 -5.52497e-19)
(12.8244 0.97738 7.12012e-19)
(13.1816 0.989062 0)
(13.4714 0.998363 6.54891e-19)
(13.7004 1.0035 -6.40189e-19)
(13.8766 1.00515 0)
(14.0091 1.00373 0)
(14.1065 0.999383 0)
(14.1763 0.994842 5.60432e-19)
(9.75003 0.81303 0)
(11.1833 0.820226 0)
(11.9057 0.900764 -3.92711e-19)
(12.4273 0.904609 1.69394e-21)
(12.8539 0.925329 0)
(13.2084 0.936219 -6.82259e-19)
(13.4963 0.945075 1.48974e-18)
(13.7239 0.949981 -4.8339e-19)
(13.8993 0.951618 -6.18832e-19)
(14.0312 0.950339 1.57706e-19)
(14.1282 0.946253 6.05148e-21)
(14.1976 0.942005 5.77304e-19)
(9.76607 0.768596 4.71153e-19)
(11.2129 0.771657 -2.14329e-19)
(11.938 0.85057 1.98741e-19)
(12.4576 0.852839 -1.8624e-19)
(12.8814 0.872715 8.95822e-19)
(13.2334 0.882807 -1.73404e-19)
(13.5195 0.891214 -4.97101e-19)
(13.7459 0.895904 -3.19064e-19)
(13.9205 0.897548 3.14367e-19)
(14.0519 0.896468 -3.04094e-19)
(14.1487 0.892767 1.48347e-19)
(14.2178 0.888544 -1.41534e-19)
(9.78006 0.72375 7.12068e-19)
(11.24 0.722585 -6.42878e-19)
(11.9679 0.799843 -1.98599e-19)
(12.4859 0.800522 1.88619e-19)
(12.907 0.81957 -5.37667e-19)
(13.2566 0.828877 5.19826e-19)
(13.5409 0.836838 -3.22631e-21)
(13.7662 0.841332 -1.64029e-19)
(13.9401 0.843009 -3.12972e-19)
(14.0712 0.842124 4.59947e-19)
(14.1678 0.838761 1.47664e-19)
(14.2368 0.835075 -4.38253e-19)
(9.79151 0.678768 2.39677e-19)
(11.2647 0.673278 0)
(11.9958 0.748677 -2.00506e-19)
(12.5121 0.747729 9.2648e-22)
(12.9306 0.765931 0)
(13.278 0.774453 1.74352e-19)
(13.5607 0.781983 0)
(13.7848 0.786301 0)
(13.9581 0.788053 0)
(14.0889 0.78748 0)
(14.1853 0.784628 -2.9773e-19)
(14.2546 0.78076 5.80743e-19)
(9.8014 0.633582 -4.80312e-19)
(11.2872 0.623668 0)
(12.0214 0.697092 4.01704e-19)
(12.5364 0.694454 -1.89303e-19)
(12.9525 0.711833 -3.61321e-19)
(13.2977 0.719578 1.76731e-19)
(13.5787 0.726666 -3.36004e-19)
(13.8019 0.730778 3.28826e-19)
(13.9745 0.732545 -3.16155e-19)
(14.1049 0.732192 3.16407e-21)
(14.2009 0.729954 1.53784e-19)
(14.27 0.727278 2.91531e-19)
(9.80907 0.587907 0)
(11.3073 0.573496 -2.16936e-19)
(12.0449 0.645036 -2.01222e-19)
(12.5586 0.640709 0)
(12.9725 0.657298 -3.62757e-19)
(13.3156 0.664254 7.01569e-19)
(13.5952 0.670893 -3.40715e-19)
(13.8174 0.674771 0)
(13.9895 0.676478 0)
(14.1196 0.676129 -1.55527e-19)
(14.2154 0.673927 -1.50778e-19)
(14.2836 0.673933 0)
(9.81464 0.54226 4.81873e-19)
(11.3252 0.52334 -4.21924e-21)
(12.0664 0.592673 -2.93611e-21)
(12.579 0.586552 -3.37458e-21)
(12.9907 0.602382 -5.50561e-19)
(13.3319 0.608551 0)
(13.6101 0.614725 0)
(13.8315 0.618359 0)
(14.0032 0.620002 0)
(14.1332 0.619624 1.55605e-19)
(14.2294 0.616872 -1.49784e-19)
(14.2987 0.61873 2.94386e-21)
(9.81841 0.496163 -6.05463e-19)
(11.3409 0.472713 6.55971e-19)
(12.0858 0.539932 4.04391e-19)
(12.5975 0.532001 -3.85384e-19)
(13.0072 0.547142 9.12493e-20)
(13.3465 0.552534 0)
(13.6235 0.55828 3.40012e-19)
(13.8441 0.561715 -3.30958e-21)
(14.0154 0.563457 -3.2353e-19)
(14.1453 0.563592 0)
(14.2415 0.561597 -2.28527e-19)
(14.3105 0.558206 0)
(9.82023 0.449967 2.05196e-21)
(11.3545 0.421975 4.39721e-19)
(12.1031 0.486883 1.02046e-19)
(12.614 0.477132 2.86844e-19)
(13.0219 0.491642 -2.77857e-19)
(13.3595 0.496246 0)
(13.6352 0.501547 3.41208e-19)
(13.8551 0.504751 -3.32424e-21)
(14.0261 0.506418 -2.43852e-19)
(14.1559 0.506597 0)
(14.2519 0.504977 1.5305e-19)
(14.3213 0.505097 0)
(9.82073 0.403794 1.21339e-21)
(11.3659 0.370964 3.30404e-19)
(12.1183 0.433371 -1.02034e-19)
(12.6287 0.422022 1.92958e-19)
(13.0349 0.435939 0)
(13.3708 0.439704 0)
(13.6454 0.44456 -8.61225e-20)
(13.8647 0.447515 -8.35373e-20)
(14.0354 0.449129 -8.09386e-20)
(14.1652 0.449428 -7.8992e-20)
(14.2614 0.448029 -1.52586e-19)
(14.331 0.448505 1.48929e-19)
(9.81934 0.357368 -1.22535e-19)
(11.3751 0.319431 -1.09851e-19)
(12.1318 0.379409 2.04005e-19)
(12.6416 0.366687 -4.83657e-19)
(13.0462 0.380023 1.85914e-19)
(13.3806 0.382937 0)
(13.6541 0.387339 8.61366e-20)
(13.8728 0.390041 8.35604e-20)
(14.0433 0.391619 -1.61817e-19)
(14.1731 0.392023 2.38152e-19)
(14.2695 0.390764 1.53547e-19)
(14.3392 0.391319 -1.51202e-19)
(9.81624 0.311209 0)
(11.3819 0.268038 0)
(12.1431 0.325114 1.02869e-19)
(12.6527 0.311091 0)
(13.0559 0.323966 -9.29017e-20)
(13.3887 0.325951 8.94954e-20)
(13.6612 0.329901 1.72134e-19)
(13.8794 0.332353 -2.52677e-19)
(14.0497 0.333891 0)
(14.1795 0.334471 -7.94868e-20)
(14.2761 0.333585 7.6618e-20)
(14.3461 0.333411 -2.25099e-19)
(9.81156 0.26485 6.17421e-20)
(11.3868 0.216256 2.20463e-19)
(12.1522 0.270522 -3.09391e-19)
(12.6621 0.25539 0)
(13.064 0.267717 4.63488e-20)
(13.3953 0.268722 8.88531e-20)
(13.6668 0.272252 -3.4682e-19)
(13.8845 0.274442 4.20572e-19)
(14.0547 0.275924 -1.64426e-19)
(14.1846 0.276575 1.19384e-19)
(14.2814 0.275901 0)
(14.3518 0.275559 7.57768e-20)
(9.80508 0.21861 -6.17623e-20)
(11.3898 0.16441 0)
(12.1593 0.215858 -5.10637e-20)
(12.6698 0.199748 9.7861e-20)
(13.0705 0.211259 1.39312e-19)
(13.4003 0.211204 -9.02211e-20)
(13.6709 0.214403 -4.34825e-20)
(13.8881 0.216366 4.22005e-20)
(14.0583 0.217826 8.1572e-20)
(14.1883 0.218702 -1.20122e-19)
(14.2854 0.21868 -3.89106e-20)
(14.3563 0.21738 -3.7587e-20)
(9.797 0.172432 -9.22851e-20)
(11.3908 0.112362 1.39269e-19)
(12.1645 0.161198 -7.74886e-20)
(12.6756 0.14411 1.21561e-19)
(13.075 0.154428 -2.10038e-19)
(13.4038 0.153474 1.79918e-19)
(13.6736 0.156448 -6.57711e-20)
(13.8904 0.15812 4.1862e-20)
(14.0605 0.159518 -1.64349e-19)
(14.1907 0.160417 6.04125e-20)
(14.288 0.160601 3.894e-20)
(14.359 0.159476 3.81124e-20)
(9.78743 0.126592 -9.27708e-20)
(11.3901 0.0601181 2.80808e-20)
(12.1679 0.106519 2.58574e-20)
(12.6798 0.088305 -2.44046e-20)
(13.0779 0.097319 -2.31638e-20)
(13.4057 0.0958419 4.52475e-20)
(13.6747 0.0983293 2.17819e-20)
(13.8912 0.0997421 0)
(14.0613 0.101136 0)
(14.1918 0.102208 2.00231e-20)
(14.2895 0.102955 0)
(14.3611 0.102065 0)
(9.7764 0.0808218 -1.55427e-20)
(11.3875 0.0076499 1.3872e-20)
(12.1696 0.051802 7.1361e-22)
(12.6822 0.0324151 -1.26638e-20)
(13.0793 0.0400612 0)
(13.4061 0.0381356 0)
(13.6744 0.0401089 1.15362e-20)
(13.8907 0.0412759 -2.11771e-20)
(14.0608 0.0426511 1.03521e-20)
(14.1916 0.0438044 6.27091e-22)
(14.2896 0.0447272 0)
(14.3614 0.0443771 0)
(9.76355 0.0352272 4.67004e-20)
(11.3829 -0.0449114 2.77737e-20)
(12.1695 -0.00306657 -1.38502e-20)
(12.6828 -0.0235113 3.82237e-22)
(13.0793 -0.0172142 -1.17061e-20)
(13.405 -0.0196444 1.12791e-20)
(13.6727 -0.0181816 -1.1602e-20)
(13.8887 -0.017231 -3.16868e-20)
(14.0589 -0.015864 -1.00987e-20)
(14.1899 -0.0145382 9.5119e-21)
(14.2883 -0.0131166 -9.78204e-21)
(14.3607 -0.012905 0)
(9.74916 -0.0100829 4.6452e-20)
(11.3764 -0.0972505 -8.37558e-20)
(12.1677 -0.0579019 1.31306e-20)
(12.6817 -0.0794948 -2.42773e-20)
(13.0776 -0.0744858 3.55513e-20)
(13.4025 -0.0774357 3.40612e-20)
(13.6696 -0.0764909 1.09185e-20)
(13.8854 -0.0757818 1.06e-20)
(14.0557 -0.0745004 1.0311e-20)
(14.187 -0.0732285 3.01306e-20)
(14.2857 -0.0718833 -9.79125e-21)
(14.3576 -0.0708047 5.72841e-20)
(9.73338 -0.0553327 -6.17908e-20)
(11.368 -0.149578 -8.28363e-20)
(12.164 -0.112714 1.3018e-19)
(12.6789 -0.135511 -2.44983e-20)
(13.0744 -0.131728 -1.16693e-19)
(13.3984 -0.135208 1.8054e-19)
(13.665 -0.134772 -4.41204e-20)
(13.8806 -0.13431 0)
(14.0512 -0.13316 4.12771e-20)
(14.1829 -0.131948 -2.00928e-20)
(14.2823 -0.130901 1.95778e-20)
(14.3554 -0.128474 -1.9134e-20)
(9.7158 -0.100413 -1.25496e-19)
(11.3579 -0.201763 -5.53126e-22)
(12.1586 -0.167495 0)
(12.6746 -0.191521 -9.7627e-20)
(13.0696 -0.188886 9.41372e-20)
(13.3929 -0.192911 0)
(13.6589 -0.192952 -1.08682e-24)
(13.8746 -0.192721 0)
(14.0453 -0.191614 -4.12794e-20)
(14.1776 -0.190169 0)
(14.2777 -0.188812 0)
(14.352 -0.186048 -7.50628e-20)
(9.69673 -0.145063 6.24897e-20)
(11.3459 -0.253588 5.52271e-20)
(12.1514 -0.222172 -4.15606e-19)
(12.6685 -0.247477 3.92295e-19)
(13.0633 -0.245976 -1.88259e-19)
(13.3858 -0.250536 0)
(13.6515 -0.251054 -4.3703e-20)
(13.867 -0.251066 0)
(14.038 -0.250051 0)
(14.1706 -0.248546 0)
(14.2711 -0.247074 0)
(14.3459 -0.244477 -1.50797e-19)
(9.67629 -0.189466 1.24965e-19)
(11.3321 -0.30526 2.23479e-19)
(12.1424 -0.276785 0)
(12.6608 -0.303371 2.933e-19)
(13.0553 -0.302962 -9.45422e-20)
(13.3773 -0.308105 0)
(13.6425 -0.309107 -8.65415e-20)
(13.8579 -0.309392 8.65087e-20)
(14.0292 -0.308523 1.6592e-19)
(14.1622 -0.306947 2.40313e-19)
(14.2632 -0.305113 -1.57487e-19)
(14.3385 -0.302961 7.54139e-20)
(9.65455 -0.233583 -5.00131e-19)
(11.3165 -0.356703 -1.11784e-19)
(12.1317 -0.331304 1.0393e-19)
(12.6514 -0.359167 -8.2967e-23)
(13.0459 -0.359854 -9.36976e-20)
(13.3673 -0.365609 9.01546e-20)
(13.6321 -0.367116 8.64259e-20)
(13.8475 -0.367718 -2.55244e-19)
(14.019 -0.367 0)
(14.1525 -0.365486 -2.40215e-19)
(14.2541 -0.363575 3.13125e-19)
(14.3296 -0.361419 -3.06091e-19)
(9.63106 -0.277746 2.50071e-19)
(11.2992 -0.408191 2.22785e-19)
(12.1192 -0.385662 -2.08625e-19)
(12.6405 -0.414864 -9.80412e-20)
(13.0349 -0.416644 1.86342e-19)
(13.3558 -0.423033 -9.18815e-20)
(13.6203 -0.425064 -8.81506e-20)
(13.8356 -0.425945 8.46667e-20)
(14.0075 -0.425365 0)
(14.1416 -0.423755 0)
(14.2438 -0.421416 0)
(14.3201 -0.419022 7.76918e-22)
(9.60608 -0.321276 -2.50006e-19)
(11.2799 -0.459092 0)
(12.1049 -0.439849 -1.42856e-22)
(12.6278 -0.470429 0)
(13.0224 -0.473312 9.34574e-20)
(13.3428 -0.480359 -3.58478e-19)
(13.607 -0.482889 2.63121e-19)
(13.8225 -0.484065 -8.46909e-20)
(13.9947 -0.483585 0)
(14.1295 -0.482018 -3.19139e-19)
(14.2327 -0.479973 3.14248e-19)
(14.3097 -0.477681 -7.67034e-20)
(9.57977 -0.364843 -3.74813e-19)
(11.259 -0.51001 2.23007e-19)
(12.0888 -0.493831 -3.11364e-19)
(12.6135 -0.525834 1.95523e-19)
(13.0082 -0.529851 -2.80176e-19)
(13.3283 -0.537559 0)
(13.5923 -0.540568 0)
(13.8079 -0.541948 3.36399e-19)
(13.9806 -0.541414 -4.94966e-19)
(14.1161 -0.539407 -1.58713e-19)
(14.2202 -0.536383 1.57918e-19)
(14.2996 -0.534675 0)
(9.55167 -0.408006 0)
(11.2362 -0.560537 -1.30087e-21)
(12.0711 -0.547602 -2.08532e-19)
(12.5975 -0.581091 -1.65615e-21)
(12.9925 -0.586221 -1.88091e-19)
(13.3123 -0.594588 5.36981e-19)
(13.5761 -0.598057 -3.49389e-19)
(13.7918 -0.599641 1.67263e-19)
(13.965 -0.599137 -1.65759e-19)
(14.1011 -0.597053 1.58154e-19)
(14.2057 -0.593729 -1.57358e-19)
(14.2854 -0.590169 2.99391e-19)
(9.52241 -0.450804 7.4841e-19)
(11.2119 -0.610714 2.23001e-19)
(12.0516 -0.601155 0)
(12.5799 -0.636174 3.90495e-19)
(12.9753 -0.642433 3.70989e-19)
(13.2949 -0.651445 -1.82961e-19)
(13.5586 -0.655352 -3.4881e-19)
(13.7745 -0.657149 3.72304e-22)
(13.9481 -0.656701 0)
(14.0848 -0.654647 0)
(14.1902 -0.651232 0)
(14.27 -0.646972 0)
(9.49183 -0.493377 -7.48248e-19)
(11.1857 -0.660733 -2.22237e-19)
(12.0303 -0.654567 0)
(12.5607 -0.691097 -1.95216e-19)
(12.9565 -0.698438 -1.85809e-19)
(13.276 -0.708074 -1.77524e-19)
(13.5397 -0.712403 3.40338e-21)
(13.7558 -0.714398 8.41079e-19)
(13.93 -0.714061 -3.28968e-19)
(14.0674 -0.712067 0)
(14.1736 -0.708958 3.08991e-19)
(14.254 -0.704968 -3.04347e-19)
(9.45948 -0.535751 -2.49407e-19)
(11.1577 -0.710524 1.30885e-21)
(12.0072 -0.707734 2.08189e-19)
(12.5398 -0.745775 0)
(12.9364 -0.754168 1.7153e-21)
(13.2558 -0.764398 3.58543e-19)
(13.5194 -0.769105 -3.44045e-19)
(13.7359 -0.771331 5.04953e-19)
(13.9106 -0.771057 0)
(14.0487 -0.768981 0)
(14.1558 -0.765557 0)
(14.2373 -0.761801 4.47356e-19)
(9.42552 -0.577637 -9.94698e-19)
(11.1279 -0.759811 -6.64505e-19)
(11.9824 -0.760508 6.20442e-19)
(12.5173 -0.80012 0)
(12.9146 -0.809562 -3.70673e-19)
(13.234 -0.820357 -1.78526e-19)
(13.4978 -0.825477 0)
(13.7145 -0.82794 3.32772e-19)
(13.8898 -0.827838 -3.27561e-19)
(14.0287 -0.825909 0)
(14.1366 -0.822687 0)
(14.2188 -0.818327 -1.51013e-19)
(9.39012 -0.619197 9.90756e-19)
(11.0964 -0.808741 -2.23889e-19)
(11.9558 -0.812924 -2.04393e-19)
(12.4932 -0.854086 1.96e-19)
(12.8913 -0.86456 1.85231e-19)
(13.2109 -0.875954 -5.31569e-19)
(13.4747 -0.881487 3.45813e-19)
(13.6918 -0.884239 -3.3406e-19)
(13.8675 -0.884312 -3.2342e-19)
(14.0072 -0.882342 3.18313e-19)
(14.1161 -0.878887 0)
(14.1996 -0.874446 -1.48616e-19)
(9.35322 -0.660259 4.92424e-19)
(11.0631 -0.857133 -6.65421e-19)
(11.9275 -0.864911 -2.05799e-19)
(12.4674 -0.907654 1.15756e-18)
(12.8664 -0.919184 -7.41182e-19)
(13.1862 -0.931181 1.77705e-19)
(13.4501 -0.93719 6.83086e-19)
(13.6675 -0.940271 -5.02792e-19)
(13.8439 -0.940528 1.61814e-19)
(13.9843 -0.938655 0)
(14.0941 -0.935271 0)
(14.1787 -0.931001 1.49814e-19)
(9.3153 -0.700883 -9.29231e-22)
(11.0281 -0.905015 0)
(11.8975 -0.916507 6.11603e-19)
(12.4399 -0.960827 -9.68985e-19)
(12.84 -0.973412 -7.32682e-19)
(13.16 -0.986097 7.10978e-19)
(13.4241 -0.99259 5.10309e-19)
(13.6418 -0.995989 -8.33614e-19)
(13.8188 -0.996455 -1.61899e-19)
(13.9601 -0.994484 -7.83419e-19)
(14.0709 -0.990592 4.63779e-19)
(14.157 -0.986869 0)
(9.27535 -0.741417 -2.47242e-19)
(10.9912 -0.952809 0)
(11.8656 -0.967697 1.019e-18)
(12.4108 -1.01361 -1.54007e-18)
(12.8119 -1.02731 3.70909e-19)
(13.1323 -1.04067 -3.52067e-19)
(13.3966 -1.04771 1.70918e-19)
(13.6147 -1.05145 4.94378e-19)
(13.7923 -1.05211 -6.47589e-19)
(13.9345 -1.05026 1.57191e-19)
(14.0463 -1.04637 4.56285e-19)
(14.133 -1.0434 -5.9762e-19)
(9.23373 -0.781044 4.91101e-19)
(10.9526 -0.999651 4.37734e-19)
(11.832 -1.0183 8.12018e-19)
(12.3799 -1.06591 -1.53602e-18)
(12.7823 -1.0808 1.10165e-18)
(13.103 -1.09491 -3.47552e-19)
(13.3676 -1.10248 3.44055e-19)
(13.5861 -1.10655 3.30679e-19)
(13.7645 -1.10732 0)
(13.9077 -1.10536 0)
(14.0207 -1.10083 -3.00989e-19)
(14.1088 -1.09799 6.30709e-21)
(9.19122 -0.82027 -2.27178e-21)
(10.9124 -1.04601 -2.01e-21)
(11.7966 -1.06844 0)
(12.3474 -1.11783 -3.80326e-19)
(12.751 -1.13394 1.09623e-18)
(13.0722 -1.14878 -3.49623e-19)
(13.3371 -1.15687 -6.72605e-19)
(13.5562 -1.16126 3.3286e-19)
(13.7354 -1.16211 3.17224e-19)
(13.8796 -1.16022 -9.36975e-19)
(13.9936 -1.1556 0)
(14.0822 -1.1536 -2.95312e-19)
(9.14727 -0.859079 -2.38309e-21)
(10.8704 -1.0919 4.32268e-19)
(11.7595 -1.11823 -4.08661e-19)
(12.3132 -1.16935 -1.14207e-18)
(12.7182 -1.18669 -3.57728e-19)
(13.04 -1.20228 1.39963e-18)
(13.3053 -1.21083 1.65893e-21)
(13.5249 -1.21547 1.6069e-21)
(13.7049 -1.2164 3.1928e-19)
(13.85 -1.21442 3.1103e-19)
(13.9652 -1.20923 0)
(14.0556 -1.206 8.74328e-19)
(9.10187 -0.89754 -4.89032e-19)
(10.8269 -1.13744 -4.33339e-19)
(11.7205 -1.16754 -4.04892e-19)
(12.2772 -1.22046 -3.77853e-19)
(12.6838 -1.23902 7.27191e-19)
(13.0062 -1.25534 -1.04079e-18)
(13.272 -1.26433 3.43492e-19)
(13.4923 -1.26924 6.57111e-19)
(13.673 -1.27029 0)
(13.8191 -1.26848 3.06531e-19)
(13.9352 -1.2636 -1.20388e-18)
(14.0257 -1.2606 5.91484e-19)
(9.05461 -0.935457 4.83442e-19)
(10.7811 -1.18253 -4.35823e-19)
(11.6798 -1.21653 -1.2022e-18)
(12.2397 -1.27121 3.46297e-21)
(12.6478 -1.29092 0)
(12.971 -1.30788 -3.45351e-19)
(13.2373 -1.31733 -3.33719e-19)
(13.4582 -1.32251 3.25547e-19)
(13.6399 -1.32375 0)
(13.7869 -1.32206 3.08398e-19)
(13.9043 -1.31735 5.96426e-19)
(13.9964 -1.31398 -6.40779e-21)
(9.00556 -0.972565 4.85973e-19)
(10.7337 -1.22671 0)
(11.637 -1.26482 8.00479e-19)
(12.2002 -1.32136 -3.79612e-19)
(12.6101 -1.34226 -3.58102e-19)
(12.9342 -1.35987 1.0322e-18)
(13.2012 -1.36974 -9.98428e-19)
(13.4228 -1.37521 9.71834e-19)
(13.6053 -1.37662 0)
(13.7535 -1.37492 -3.03853e-19)
(13.872 -1.37003 8.97072e-19)
(13.9656 -1.36638 2.88709e-19)
(8.95561 -1.00911 -9.65124e-19)
(10.6847 -1.27031 4.28203e-19)
(11.5926 -1.31256 -3.59786e-21)
(12.1592 -1.37101 -7.54256e-19)
(12.571 -1.39309 7.14848e-19)
(12.896 -1.4113 0)
(13.1637 -1.42164 -3.30458e-19)
(13.386 -1.42741 -3.22478e-19)
(13.5694 -1.42904 0)
(13.7186 -1.42752 3.00452e-19)
(13.8384 -1.42289 -8.94116e-19)
(13.9333 -1.41941 -2.90055e-19)
(8.90435 -1.04526 0)
(10.6337 -1.31343 2.70769e-21)
(11.5464 -1.3598 1.18989e-18)
(12.1165 -1.42005 -6.6337e-21)
(12.5303 -1.44332 -1.78001e-18)
(12.8564 -1.4622 1.36585e-18)
(13.1247 -1.47298 -1.3173e-18)
(13.3477 -1.47907 6.42985e-19)
(13.532 -1.48088 0)
(13.6823 -1.47934 0)
(13.8035 -1.47432 -2.93218e-19)
(13.9005 -1.47062 5.72168e-19)
(8.8511 -1.08077 0)
(10.5809 -1.35585 2.85448e-21)
(11.4984 -1.40634 -1.18142e-18)
(12.072 -1.46843 7.47623e-19)
(12.4879 -1.49291 0)
(12.8151 -1.51252 6.76318e-19)
(13.0842 -1.5238 -3.30163e-19)
(13.308 -1.53023 0)
(13.4932 -1.53229 -6.15618e-19)
(13.6447 -1.53095 6.0565e-19)
(13.7672 -1.5263 -2.94535e-19)
(13.8651 -1.52296 0)
(8.79622 -1.11568 9.53044e-19)
(10.5266 -1.3976 4.25198e-19)
(11.4485 -1.45205 7.87015e-19)
(12.0258 -1.5161 0)
(12.4439 -1.54186 7.01211e-19)
(12.7723 -1.56225 -3.43182e-19)
(13.0422 -1.57407 -6.55773e-19)
(13.2669 -1.58085 0)
(13.4531 -1.58308 3.0648e-19)
(13.6059 -1.58169 0)
(13.7298 -1.57667 0)
(13.8299 -1.5728 0)
(8.73969 -1.1497 4.71885e-19)
(10.4701 -1.43843 -8.47191e-19)
(11.3968 -1.49702 -3.92937e-19)
(11.9778 -1.56304 0)
(12.3982 -1.59014 6.9752e-19)
(12.7279 -1.61138 -3.38029e-19)
(12.9987 -1.62373 -6.4555e-19)
(13.2243 -1.63086 9.4548e-19)
(13.4116 -1.63329 -9.15101e-19)
(13.5656 -1.63202 8.95049e-19)
(13.691 -1.62732 -8.66175e-19)
(13.7921 -1.62396 6.32777e-21)
(8.68188 -1.1829 1.88308e-18)
(10.4119 -1.47825 -4.24751e-19)
(11.3431 -1.54113 0)
(11.9279 -1.60922 1.09422e-18)
(12.3507 -1.63778 -6.26086e-21)
(12.6818 -1.65983 -6.71425e-19)
(12.9537 -1.67276 -3.2115e-19)
(13.1802 -1.68023 -2.38871e-21)
(13.3686 -1.68275 6.04483e-19)
(13.5239 -1.68137 -5.96898e-19)
(13.6509 -1.67614 1.14964e-18)
(13.7544 -1.6726 -1.11422e-18)
(8.62282 -1.21555 -9.38412e-19)
(10.3521 -1.51734 -4.18724e-19)
(11.2876 -1.58453 -3.85548e-19)
(11.8763 -1.65469 -2.90487e-21)
(12.3016 -1.68471 -3.44988e-19)
(12.6342 -1.70762 -6.61066e-19)
(12.9071 -1.72112 6.4636e-19)
(13.1346 -1.72896 -2.47896e-21)
(13.3242 -1.73168 0)
(13.4807 -1.73043 -8.79541e-19)
(13.6088 -1.72515 5.73253e-19)
(13.7132 -1.72087 0)
(8.56221 -1.24754 4.72668e-19)
(10.2905 -1.5558 8.32933e-19)
(11.2303 -1.62722 1.1527e-18)
(11.8228 -1.69948 -1.09083e-18)
(12.2507 -1.73096 -3.39659e-19)
(12.5849 -1.75472 9.9135e-19)
(12.8591 -1.76881 3.19515e-19)
(13.0876 -1.77701 -3.0966e-19)
(13.2784 -1.78003 -1.19275e-18)
(13.4362 -1.77914 1.17294e-18)
(13.5658 -1.77443 -2.85338e-19)
(13.671 -1.77019 -1.10785e-18)
(8.49989 -1.2788 -9.23862e-19)
(10.2269 -1.59352 1.64955e-18)
(11.1711 -1.66923 -3.86443e-19)
(11.7676 -1.74357 3.58027e-19)
(12.1981 -1.77649 3.40413e-19)
(12.5341 -1.80106 -2.85111e-21)
(12.8095 -1.81571 9.43447e-19)
(13.0393 -1.82425 -1.23098e-18)
(13.2313 -1.82754 0)
(13.3907 -1.82679 2.8839e-19)
(13.5221 -1.82235 0)
(13.6297 -1.81846 2.7457e-19)
(8.43583 -1.30924 -1.83649e-18)
(10.1614 -1.63035 1.64512e-18)
(11.1098 -1.71045 -3.81616e-19)