/*--------------------------------*- C++ -*----------------------------------*\
| =========                 |                                                 |
| \\      /  F ield         | OpenFOAM: The Open Source CFD Toolbox           |
|  \\    /   O peration     | Version:  2.3.1                                 |
|   \\  /    A nd           | Web:      www.OpenFOAM.org                      |
|    \\/     M anipulation  |                                                 |
\*---------------------------------------------------------------------------*/
FoamFile
{
    version     2.0;
    format      ascii;
    class       volScalarField;
    location    "0.96";
    object      epsilon;
}
// * * * * * * * * * * * * * * * * * * * * * * * * * * * * * * * * * * * * * //

dimensions      [0 2 -3 0 0 0 0];

internalField   nonuniform List<scalar> 
89096
(
1800.81
1136.23
1090.38
1189.9
1387.97
1699.6
2165.85
2843.89
3740.44
4786.41
5736.06
6408.89
2146.17
1277.48
1217.25
1317.64
1516.1
1819.52
2258.32
2875.73
3691.77
4660.23
5603.94
6304.38
2450.64
1406.1
1334.77
1437.58
1638.74
1938.32
2359.08
2933.41
3685.03
4586.8
5511.27
6227.54
2722.58
1523.66
1440.02
1545.6
1751.13
2050.65
2460.61
3005.82
3708.39
4552.91
5441.71
6148.24
2968.85
1629.71
1532.93
1640.62
1850.93
2152.19
2555.78
3080.53
3743.18
4531.67
5361.82
6026.56
3198.47
1725.34
1615.2
1723.9
1938.23
2241.76
2640.82
3149.21
3778.26
4515.43
5288.02
5915.3
3413.06
1813.42
1688.47
1797.06
2014.58
2320.26
2716.24
3211.76
3814.15
4509.61
5235.61
5831.14
3612.02
1893.34
1753.58
1861.16
2081.13
2388.62
2782.51
3268.24
3848.75
4510.25
5196.1
5766.73
3798.24
1964.39
1810.81
1916.63
2138.12
2446.83
2838.97
3316.69
3878.53
4509.52
5157.6
5698.17
3968.48
2028.8
1860.72
1963.99
2185.69
2494.51
2883.89
3353.65
3898.81
4501.84
5112.56
5619.16
4120.29
2085.42
1903.62
2003.4
2223.87
2530.92
2915.83
3376.24
3905.43
4484.96
5069.38
5562.87
4261.17
2134.99
1940.27
2035.84
2253.59
2556.82
2934.87
3382.77
3892.57
4444.58
4994.89
5460.4
4391.3
2180.17
1971.7
2062.37
2276.56
2574.96
2944.8
3379.69
3870.12
4397.17
4920.97
5365.23
4507.71
2219.66
1998.24
2083.81
2294.23
2587.78
2950.27
3373.54
3847.33
4352.44
4852.11
5278.46
4609.76
2253.96
2020.13
2100.35
2306.61
2595.36
2951.14
3364.53
3823.81
4309.89
4788.47
5199.68
4701.64
2281.93
2036.63
2111.67
2313.58
2596.98
2945.4
3349.12
3795.28
4264.05
4723.33
5117.48
4773.39
2302.7
2047.26
2116.96
2314.2
2591.92
2932.45
3325.17
3757.7
4209.03
4647.18
5020.58
4825.78
2317.09
2052.23
2116.44
2308.3
2579.61
2911.76
3293.2
3711.05
4145.72
4564.13
4921.68
4870.07
2325.8
2052.2
2110.56
2296.66
2560.93
2884.48
3255.3
3660.78
4082.63
4491.53
4841.11
4900.23
2329.02
2047.64
2100.03
2279.78
2536.6
2851.02
3210.86
3603.53
4011.41
4407.31
4750.38
4917.97
2327.28
2038.97
2085.39
2258.44
2507.41
2812.49
3161.53
3542.5
3938.64
4325.29
4661.89
4922.07
2321.5
2026.85
2067.26
2233.4
2474.06
2769.46
3107.06
3474.73
3856.12
4227.48
4554.16
4919.42
2312.35
2011.82
2046.17
2205.15
2437.54
2723.21
3049.96
3406.1
3776.33
4138.29
4457.12
4913.87
2299.87
1994.16
2022.4
2174.09
2397.76
2673.36
2989.01
3333.51
3693.01
4047.12
4364.13
4892.31
2284.25
1974.22
1996.36
2140.45
2354.85
2619.29
2921.92
3251.56
3594.91
3932.89
4240.19
4870.86
2266.68
1952.65
1968.75
2105.23
2310.22
2563.51
2853.04
3168.02
3495.8
3818.74
4111.62
4838.65
2247.08
1929.78
1940.2
2069.21
2265.23
2507.99
2785.5
3087.38
3401.7
3712.37
3998.56
4807.28
2226.67
1906.18
1911.02
2032.98
2220.5
2453.34
2719.93
3010.21
3313
3613.76
3892.34
4770.78
2204.8
1881.91
1881.57
1996.78
2176.12
2399.57
2655.8
2935.04
3226.86
3517.91
3790.34
4732.6
2182.15
1857.18
1851.98
1960.67
2132.18
2346.69
2592.89
2861.58
3143.38
3426.09
3694.74
4692.81
2159.15
1832.25
1822.49
1925.04
2089.24
2295.33
2532.21
2791.22
3063.24
3336.99
3597.77
4649.66
2135.01
1807.08
1793.12
1890.01
2047.43
2245.77
2474.36
2724.84
2988.7
3256.28
3514.58
4605.1
2110.16
1781.56
1763.7
1855.24
2006.18
2197.22
2417.9
2660.07
2915.79
3175.3
3425.94
4556.43
2084.79
1755.68
1734.15
1820.44
1965.11
2148.87
2361.51
2595.26
2842.25
3093.16
3336.14
4512.06
2058.92
1729.54
1704.47
1785.76
1924.18
2100.8
2305.47
2530.69
2769.09
3012.07
3249.73
4459.48
2031.91
1703
1674.84
1751.31
1883.86
2053.77
2251.01
2468.29
2698.77
2934.32
3164.68
4406.41
2004.61
1676.35
1645.25
1717.24
1844.25
2007.77
2197.94
2407.68
2630.26
2857.95
3082.04
4352.83
1976.85
1649.6
1615.77
1683.48
1805.15
1962.62
2146.3
2349.28
2565.26
2787.05
3005.2
4294.33
1948.68
1622.73
1586.35
1649.86
1766.36
1917.86
2095.01
2291.12
2500.03
2714.78
2926.38
4238.22
1920.99
1596.05
1557.04
1616.39
1727.7
1873.15
2043.63
2232.62
2434.22
2641.85
2848
4183.13
1893.21
1569.54
1527.98
1583.25
1689.42
1828.93
1992.89
2175.03
2369.83
2571.32
2772.23
4127.68
1865.3
1543.32
1499.4
1550.75
1651.92
1785.71
1943.35
2118.84
2307.05
2502.69
2700
4072.06
1837.62
1517.5
1471.46
1519.1
1615.6
1743.97
1895.58
2064.7
2246.53
2435.94
2626.77
4015.71
1810.54
1492.22
1444.25
1488.43
1580.5
1703.76
1849.7
2012.86
2188.55
2371.9
2557.64
3960.04
1783.83
1467.5
1417.7
1458.58
1546.5
1664.93
1805.57
1963.01
2132.74
2309.95
2489.35
3905.75
1757.76
1443.32
1391.75
1429.47
1513.39
1627.15
1762.62
1914.59
2078.57
2250.03
2423.87
3856.35
1732.54
1419.73
1366.39
1401.06
1481.03
1590.27
1720.82
1867.56
2026.38
2193.06
2363.06
3805.94
1707.48
1396.57
1341.67
1373.38
1449.6
1554.5
1680.33
1822.1
1975.94
2137.94
2303.47
3754.37
1682.89
1373.92
1317.6
1346.5
1419.11
1519.84
1641
1777.88
1926.68
2083.86
2245.84
3706.23
1659.29
1351.94
1294.19
1320.4
1389.57
1486.33
1603.06
1735.27
1879.28
2031.66
2188.63
3658.48
1635.96
1330.51
1271.41
1295.06
1360.94
1453.89
1566.41
1694.1
1833.45
1981.19
2133.97
3609.41
1613.06
1309.64
1249.21
1270.37
1333.1
1422.36
1530.83
1654.12
1788.79
1931.58
2078.83
3567.69
1591.27
1289.38
1227.55
1246.3
1305.91
1391.56
1496.11
1615.25
1745.67
1884.19
2027.12
3524.66
1569.98
1269.59
1206.45
1222.79
1279.32
1361.45
1462.19
1577.35
1703.74
1838.54
1978.63
3483.79
1549.22
1250.29
1185.94
1199.96
1253.56
1332.28
1429.24
1540.36
1662.65
1793.52
1929.74
3444.18
1529.08
1231.57
1166.05
1177.93
1228.72
1304.14
1397.39
1504.4
1622.28
1748.44
1880.32
3404.62
1509.44
1213.34
1146.78
1156.66
1204.84
1277.25
1367.14
1470.57
1584.69
1707.19
1835.05
3369.47
1490.15
1195.5
1128
1136.04
1181.87
1251.49
1338.27
1438.27
1548.81
1667.55
1791.95
3330.2
1470.34
1177.68
1109.53
1115.91
1159.56
1226.58
1310.46
1407.33
1514.67
1630.24
1751.38
3290.72
1450.8
1159.95
1091.22
1096.08
1137.65
1202.23
1283.33
1377.18
1481.16
1593.06
1710.83
3249.71
1431.15
1142.26
1073
1076.42
1116.01
1178.26
1256.8
1347.95
1449.19
1558.45
1673.31
3210.93
1411.35
1124.57
1054.82
1056.79
1094.44
1154.37
1230.28
1318.57
1416.78
1522.82
1634.78
3169.02
1391.62
1106.94
1036.68
1037.2
1072.87
1130.46
1203.77
1289.28
1384.67
1487.83
1596.52
3131.08
1372.32
1089.52
1018.67
1017.76
1051.44
1106.64
1177.25
1259.83
1352
1451.77
1557.33
3092.61
1352.89
1072.18
1000.86
998.564
1030.3
1083.15
1151.09
1230.65
1319.53
1415.77
1517.5
3051.99
1333.52
1054.99
983.315
979.721
1009.61
1060.24
1125.59
1202.25
1288.01
1380.92
1479.41
3015.36
1314.43
1038.02
966.074
961.286
989.503
1038.07
1101.05
1175.15
1258.18
1348.32
1443.93
2975.82
1295.09
1021.13
949.067
943.249
969.948
1016.65
1077.53
1149.35
1229.96
1317.77
1411.4
2936.93
1275.96
1004.32
932.213
925.492
950.827
995.866
1054.85
1124.63
1203.07
1288.59
1379.67
2896.38
1256.46
987.443
915.38
907.868
931.937
975.411
1032.65
1100.53
1176.96
1260.42
1349.58
2854.89
1236.75
970.452
898.491
890.224
913.073
955.044
1010.58
1076.61
1151.13
1232.7
1319.98
2811.95
1216.54
953.223
881.484
872.507
894.152
934.613
988.404
1052.51
1124.99
1204.41
1289.33
2769.56
1196.07
935.85
864.386
854.705
875.142
914.045
966.006
1028.07
1098.3
1175.19
1257.49
2727.24
1175.49
918.396
847.242
836.875
856.093
893.436
943.582
1003.66
1071.74
1146.4
1226.39
2681.88
1154.71
900.932
830.119
819.075
837.092
872.873
921.198
979.238
1045.12
1117.52
1195.32
2636.7
1134.1
883.535
813.098
801.421
818.254
852.501
899.009
955.02
1018.71
1088.74
1163.96
2592.69
1113.58
866.312
796.266
783.973
799.667
832.405
877.147
931.154
992.577
1060.2
1133.01
2549.59
1093.11
849.236
779.664
766.792
781.399
812.687
855.733
907.796
967.146
1032.59
1103.1
2504.1
1072.73
832.378
763.294
749.906
763.455
793.356
834.742
884.915
942.239
1005.52
1073.91
2460.26
1052.77
815.837
747.203
733.306
745.824
774.365
814.126
862.49
917.839
979.04
1045.18
2416.17
1033.14
799.573
731.402
716.999
728.508
755.71
793.873
840.453
893.878
953.064
1017.07
2374.51
1014.02
783.614
715.922
701.016
711.524
737.376
773.94
818.684
870.083
927.037
988.659
2331.28
994.898
767.976
700.787
685.402
694.921
719.439
754.422
797.385
846.846
901.776
961.342
2291.4
976.607
752.871
686.104
670.232
678.779
702.009
735.464
776.724
824.352
877.348
934.87
2251.51
959.004
738.241
671.878
655.539
663.156
685.163
717.166
756.802
802.64
853.652
909.135
2216.04
941.999
724.048
658.113
641.324
648.074
668.942
699.607
737.771
782.075
831.557
885.552
2178.81
925.417
710.284
644.758
627.559
633.481
653.264
682.65
719.417
762.238
810.214
862.713
2142.56
909.379
696.982
631.79
614.191
619.306
638.014
666.152
701.483
742.679
788.854
839.361
2109.83
893.608
683.961
619.174
601.17
605.505
623.174
650.082
684.03
723.742
768.348
817.126
2078.07
878.853
671.388
606.903
588.507
592.072
608.729
634.422
667.03
705.283
748.318
795.58
2045.72
864.236
659.149
594.96
576.193
579.028
594.709
619.251
650.557
687.376
728.889
774.449
2014.95
849.479
647.074
583.313
564.226
566.38
581.14
604.579
634.635
670.084
710.1
754.164
1984.86
835.708
635.417
571.99
552.623
554.133
568.03
590.434
619.313
653.457
692.074
734.611
1955.24
822.133
624.028
560.985
541.367
542.29
555.389
576.829
604.606
637.556
674.897
716.103
1927.32
808.428
612.815
550.24
530.426
530.827
543.184
563.721
590.491
622.342
658.532
698.531
1898.48
795.3
601.863
539.752
519.774
519.694
531.351
551.043
576.837
607.595
642.597
681.352
1869.38
782.178
591.094
529.483
509.379
508.853
519.864
538.762
563.638
593.369
627.261
664.806
1840.6
768.89
580.374
519.353
499.192
498.271
508.688
526.834
550.827
579.581
612.419
648.881
1811.66
755.716
569.81
509.401
489.205
487.926
497.775
515.204
538.359
566.187
598.013
633.357
1783.9
742.796
559.433
499.633
479.397
477.777
487.076
503.816
526.177
553.11
583.978
618.325
1755.74
730.281
549.188
490.023
469.762
467.798
476.551
492.61
514.184
540.264
570.2
603.562
1727.1
717.664
539.178
480.576
460.295
457.974
466.178
481.525
502.27
527.396
556.277
588.517
1697.87
705.331
529.295
471.327
451.007
448.333
455.968
470.602
490.501
514.679
542.525
573.605
1670.5
693.175
519.726
462.31
441.952
438.907
445.975
459.879
478.92
502.121
528.885
558.819
1643.53
681.554
510.397
453.55
433.145
429.737
436.235
449.412
467.601
489.837
515.526
544.244
1617.3
669.946
501.375
445.096
424.634
420.861
426.797
439.263
456.618
477.915
502.576
530.223
1591.42
659.29
492.707
436.962
416.434
412.302
417.691
429.468
446.02
466.41
490.075
516.614
1567.18
648.557
484.39
429.152
408.553
404.074
408.923
420.034
435.798
455.307
478.015
503.546
1543.47
638.832
476.5
421.701
401.004
396.17
400.492
410.942
425.947
444.622
466.398
490.903
1521.54
629.129
468.912
414.555
393.773
388.578
392.376
402.177
416.436
434.269
455.124
478.637
1500.96
620.397
461.818
407.759
386.852
381.288
384.571
393.739
407.267
424.29
444.271
466.858
1481.38
612.03
455.08
401.298
380.233
374.291
377.054
385.601
398.42
414.651
433.769
455.417
1463.49
604.03
448.636
395.102
373.867
367.55
369.796
377.718
389.826
405.261
423.487
444.149
1447.65
596.687
442.573
389.23
367.773
361.06
362.782
370.089
381.497
396.16
413.547
433.359
1433.28
590.111
436.913
383.633
361.943
354.823
356.023
362.72
373.439
387.35
403.947
422.928
1420.17
583.94
431.57
378.334
356.398
348.866
349.555
355.651
365.702
378.899
394.745
412.9
1408.71
578.027
426.512
373.306
351.136
343.223
343.416
348.933
358.33
370.794
385.839
403.175
1398.95
572.543
421.724
368.549
346.155
337.887
337.627
342.604
351.39
363.167
377.438
393.872
1390.16
567.647
417.266
364.05
341.451
332.848
332.164
336.645
344.858
355.995
369.553
385.23
1382
562.92
412.965
359.76
336.974
328.073
327.006
331.022
338.699
349.223
362.101
377.006
1374.77
558.179
408.794
355.661
332.728
323.563
322.144
325.734
332.914
342.878
355.13
369.358
1368.48
553.619
404.755
351.729
328.706
319.328
317.596
320.797
327.521
336.98
348.693
362.377
1361.83
549.438
400.937
348.015
324.947
315.399
313.403
316.251
322.549
331.511
342.673
355.725
1356.33
544.837
397.188
344.521
321.481
311.821
309.604
312.142
318.046
326.547
337.176
349.651
1350.39
540.896
393.682
341.295
318.343
308.632
306.241
308.505
314.049
322.108
332.221
344.099
1344.06
536.571
390.306
338.364
315.606
305.902
303.381
305.4
310.606
318.245
327.868
339.197
1339.38
532.509
387.222
335.844
313.366
303.732
301.118
302.913
307.793
315.025
324.177
334.985
1332.37
528.004
384.257
333.754
311.73
302.251
299.581
301.159
305.7
312.492
321.124
331.349
1321.54
522.738
381.44
332.257
310.882
301.637
298.931
300.29
304.48
310.83
318.952
328.603
1306.31
516.53
379.066
331.677
311.11
302.141
299.375
300.467
304.248
310.089
317.626
326.638
1282.54
509.514
377.629
332.511
312.848
304.095
301.17
301.888
305.164
310.413
317.293
325.606
1246.86
502.254
378.103
335.599
316.712
307.934
304.622
304.777
307.4
311.945
318.09
325.639
1194.43
496.555
382.379
342.227
323.505
314.171
310.072
309.37
311.125
314.802
320.081
326.764
1117.33
497.425
393.848
354.211
334.207
323.366
317.859
315.893
316.502
319.123
323.407
329.117
1017.03
517.341
418.194
373.956
349.914
336.081
328.302
324.54
323.65
324.973
328.101
332.72
4145.83
4116.89
4340.88
4601.16
4831.28
4978.25
4988.94
4870.26
4659.31
4393.25
4086.65
3764.51
4561
3836.67
4139.27
4416.86
4639.18
4762.76
4759.09
4642.58
4444.25
4193.44
3908.07
3607.05
4956.88
3637.04
3936.91
4225.08
4442
4551.62
4542.21
4431.21
4245.45
4009.38
3739.88
3449.16
5323.09
3512.65
3758.35
4040.77
4248.93
4349.1
4338.27
4234.29
4060.89
3839.57
3586.9
3316.71
5657.98
3439.78
3606.53
3869.82
4065.62
4158.08
4147.56
4050.95
3889.49
3682.71
3446.8
3195.9
5968.51
3398.84
3477.36
3712.74
3893.68
3979.16
3969.57
3880.19
3730.07
3537.17
3317.02
3083.18
6257.37
3378
3366.87
3568.97
3733.36
3812.03
3803.45
3720.85
3581.32
3401.37
3195.63
2977.15
6523.69
3370.04
3271.92
3437.85
3584.53
3656.23
3648.37
3571.92
3442.01
3273.49
3079.03
2867.75
6767.57
3370.09
3189.82
3318.54
3446.78
3511.18
3503.62
3432.65
3311.53
3153.7
2971.07
2773.62
6988.16
3374.7
3118.16
3209.97
3319.47
3376.26
3368.52
3302.38
3189.34
3041.62
2870.51
2686.01
7185.82
3381.48
3054.95
3111.03
3201.85
3250.77
3242.4
3180.48
3074.85
2936.6
2776.27
2603.37
7361.95
3388.82
2998.51
3020.61
3093.12
3134.02
3124.59
3066.34
2967.55
2838.27
2688.45
2527.27
7516.65
3395.62
2947.54
2937.71
2992.49
3025.31
3014.48
2959.4
2866.9
2746.06
2606.15
2455.83
7651.91
3401.14
2900.97
2861.42
2899.2
2923.98
2911.45
2859.1
2772.36
2659.35
2528.65
2388.36
7769.26
3405.03
2857.96
2790.92
2812.55
2829.42
2814.96
2764.9
2683.41
2577.67
2455.54
2324.54
7869.41
3406.95
2817.84
2725.5
2731.88
2741.04
2724.46
2676.33
2599.61
2500.49
2386.01
2262.75
7954.43
3406.83
2780.06
2664.53
2656.63
2658.33
2639.52
2592.99
2520.54
2427.46
2320.01
2204.11
8024.5
3404.57
2744.2
2607.5
2586.25
2580.81
2559.69
2514.45
2445.84
2358.24
2257.14
2147.85
8082.58
3400.28
2709.9
2553.92
2520.28
2508.02
2484.56
2440.35
2375.14
2292.46
2197
2093.33
8128.59
3393.92
2676.92
2503.41
2458.29
2439.58
2413.77
2370.34
2308.14
2229.9
2139.6
2041.19
8164.23
3385.74
2645.05
2455.63
2399.91
2375.12
2346.98
2304.14
2244.63
2170.45
2084.98
1991.73
8189.53
3375.74
2614.1
2410.29
2344.82
2314.32
2283.9
2241.49
2184.4
2114.01
2033.3
1945.76
8206.63
3364.11
2583.95
2367.14
2292.71
2256.88
2224.25
2182.14
2127.24
2060.41
1984.25
1902.14
8215.33
3350.89
2554.52
2325.97
2243.34
2202.54
2167.78
2125.87
2072.96
2009.37
1937.31
1859.6
8217
3336.32
2525.69
2286.6
2196.47
2151.06
2114.27
2072.49
2021.37
1960.8
1892.51
1818.93
8212.12
3320.49
2497.45
2248.86
2151.89
2102.2
2063.5
2021.78
1972.3
1914.49
1849.73
1780.05
8200.6
3303.42
2469.71
2212.61
2109.41
2055.77
2015.26
1973.58
1925.59
1870.4
1809.11
1743.79
8184.66
3285.39
2442.44
2177.71
2068.86
2011.59
1969.39
1927.7
1881.09
1828.33
1770.19
1708.33
8163.42
3266.41
2415.61
2144.07
2030.08
1969.48
1925.7
1884
1838.67
1788.18
1733.09
1674.89
8138.01
3246.48
2389.14
2111.59
1992.94
1929.28
1884.04
1842.32
1798.14
1749.75
1697.39
1642.31
8108.8
3225.88
2363.07
2080.16
1957.31
1890.86
1844.26
1802.49
1759.36
1712.83
1662.83
1610.2
8075.05
3204.59
2337.35
2049.72
1923.08
1854.09
1806.23
1764.4
1722.21
1677.35
1629.48
1579.09
8039.34
3182.69
2311.97
2020.18
1890.15
1818.84
1769.84
1727.95
1686.6
1643.27
1597.37
1549.28
7999.53
3160.23
2286.9
1991.51
1858.42
1785.02
1734.97
1693.01
1652.41
1610.45
1566.35
1520.21
7958.08
3137.25
2262.17
1963.65
1827.84
1752.54
1701.53
1659.49
1619.59
1578.89
1536.43
1492.19
7913.92
3113.91
2237.74
1936.54
1798.32
1721.32
1669.44
1627.35
1588.1
1548.62
1507.78
1465.23
7867.64
3090.25
2213.63
1910.14
1769.8
1691.28
1638.62
1596.5
1557.89
1519.64
1480.63
1441.08
7818.69
3066.27
2189.81
1884.43
1742.21
1662.32
1608.97
1566.83
1528.8
1491.62
1453.97
1415.45
7769.01
3042.08
2166.27
1859.35
1715.5
1634.4
1580.42
1538.27
1500.79
1464.62
1428.38
1391.68
7717.43
3017.63
2143.03
1834.86
1689.61
1607.44
1552.92
1510.78
1473.82
1438.64
1403.79
1368.89
7664.85
2993.05
2120.03
1810.95
1664.51
1581.41
1526.41
1484.29
1447.85
1413.62
1380.05
1346.61
7610.8
2968.31
2097.34
1787.61
1640.14
1556.22
1500.81
1458.75
1422.81
1389.46
1357.11
1325.3
7556.55
2943.53
2074.93
1764.83
1616.47
1531.84
1476.09
1434.09
1398.61
1366.04
1334.66
1303.55
7501.35
2918.92
2052.98
1742.6
1593.49
1508.25
1452.2
1410.28
1375.24
1343.45
1313.16
1283.67
7446.21
2894.58
2031.33
1720.88
1571.17
1485.4
1429.11
1387.28
1352.66
1321.62
1292.33
1264.05
7390.81
2870.38
2010.12
1699.67
1549.47
1463.26
1406.76
1365.03
1330.83
1300.48
1272.11
1244.88
7334.78
2846.06
1989.15
1678.92
1528.36
1441.78
1385.11
1343.5
1309.7
1279.98
1252.42
1226.03
7278.51
2821.93
1968.51
1658.63
1507.8
1420.93
1364.14
1322.65
1289.22
1260.11
1233.35
1207.98
7221.54
2797.72
1948.17
1638.77
1487.78
1400.68
1343.8
1302.44
1269.37
1240.82
1214.78
1190.18
7164.4
2773.97
1928.15
1619.36
1468.27
1381
1324.07
1282.85
1250.13
1222.13
1196.8
1173.11
7107.15
2749.87
1908.35
1600.31
1449.24
1361.85
1304.91
1263.84
1231.47
1203.99
1179.33
1156.37
7049.61
2726.26
1888.85
1581.64
1430.67
1343.23
1286.3
1245.4
1213.37
1186.4
1162.44
1140.39
6991.85
2702.24
1869.59
1563.34
1412.54
1325.1
1268.21
1227.49
1195.8
1169.33
1145.99
1124.64
6933.64
2678.79
1850.61
1545.39
1394.82
1307.43
1250.62
1210.09
1178.73
1152.75
1130.06
1109.56
6875.84
2655.21
1831.8
1527.77
1377.52
1290.22
1233.51
1193.18
1162.15
1136.62
1114.5
1094.62
6817.55
2631.57
1813.24
1510.48
1360.59
1273.42
1216.84
1176.72
1146
1120.89
1099.25
1079.74
6758.91
2608.21
1794.88
1493.48
1344.03
1257.04
1200.6
1160.69
1130.28
1105.6
1084.49
1065.79
6700.61
2584.87
1776.77
1476.79
1327.82
1241.04
1184.77
1145.08
1114.98
1090.71
1070.12
1051.99
6641.91
2561.54
1758.89
1460.38
1311.95
1225.41
1169.34
1129.88
1100.09
1076.22
1056.15
1038.69
6583.77
2538.57
1741.19
1444.25
1296.4
1210.15
1154.28
1115.06
1085.58
1062.11
1042.51
1025.56
6525.32
2515.57
1723.72
1428.38
1281.17
1195.22
1139.59
1100.61
1071.44
1048.35
1029.23
1012.87
6466.81
2492.62
1706.42
1412.79
1266.24
1180.64
1125.25
1086.52
1057.66
1034.94
1016.25
1000.36
6408.29
2469.77
1689.3
1397.43
1251.59
1166.36
1111.23
1072.77
1044.2
1021.84
1003.57
988.167
6349.6
2447.28
1672.44
1382.33
1237.23
1152.38
1097.53
1059.33
1031.06
1009.04
991.142
976.097
6291.59
2424.94
1655.76
1367.45
1223.12
1138.69
1084.13
1046.19
1018.2
996.507
978.98
964.354
6234.05
2402.65
1639.25
1352.8
1209.28
1125.28
1071.01
1033.33
1005.63
984.249
967.063
952.79
6175.8
2380.16
1622.9
1338.37
1195.68
1112.12
1058.16
1020.76
993.333
972.251
955.4
941.498
6117.3
2358.16
1606.79
1324.17
1182.32
1099.23
1045.58
1008.45
981.298
960.513
943.989
930.458
6059.89
2336.34
1590.84
1310.15
1169.19
1086.58
1033.26
996.404
969.52
949.02
932.805
919.605
6002.46
2314.58
1575.02
1296.36
1156.29
1074.17
1021.19
984.607
957.988
937.764
921.846
908.96
5944.77
2292.79
1559.42
1282.76
1143.61
1061.99
1009.35
973.047
946.689
926.73
911.08
898.441
5887.42
2271.26
1543.99
1269.37
1131.14
1050.03
997.743
961.722
935.62
915.921
900.554
888.278
5829.97
2249.82
1528.72
1256.14
1118.86
1038.3
986.365
950.626
924.786
905.348
890.251
878.236
5772.89
2228.68
1513.58
1243.11
1106.79
1026.77
975.196
939.743
914.159
894.97
880.117
868.324
5715.71
2207.41
1498.65
1230.24
1094.91
1015.44
964.231
929.06
903.724
884.773
870.161
858.647
5658.56
2186.47
1483.84
1217.55
1083.21
1004.3
953.462
918.574
893.484
874.76
860.352
848.926
5601.8
2165.52
1469.18
1205.04
1071.7
993.354
942.889
908.291
883.453
864.973
850.833
839.798
5544.84
2144.78
1454.65
1192.69
1060.36
982.591
932.509
898.203
873.617
855.383
841.502
830.767
5488
2124.05
1440.29
1180.49
1049.19
972.011
922.316
888.302
863.968
845.973
832.34
821.874
5431.4
2103.65
1426.07
1168.45
1038.19
961.603
912.3
878.579
854.496
836.733
823.319
813.026
5375
2083.22
1412.01
1156.57
1027.36
951.368
902.455
869.031
845.195
827.66
814.472
804.429
5318.7
2062.93
1398.11
1144.85
1016.68
941.293
892.781
859.651
836.063
818.752
805.774
795.908
5262.45
2042.67
1384.26
1133.27
1006.16
931.383
883.27
850.436
827.09
809.998
797.231
787.605
5205.86
2022.53
1370.62
1121.84
995.797
921.631
873.919
841.379
818.277
801.399
788.83
779.373
5149.56
2002.6
1357.09
1110.55
985.584
912.034
864.724
832.481
809.616
792.949
780.582
771.358
5093.6
1982.8
1343.74
1099.4
975.515
902.586
855.683
823.734
801.106
784.641
772.452
763.374
5037.64
1963.14
1330.46
1088.39
965.595
893.288
846.789
815.133
792.736
776.457
764.409
755.348
4982.05
1943.7
1317.34
1077.54
955.822
884.14
838.046
806.684
784.517
768.438
756.585
747.793
4926.62
1924.32
1304.37
1066.82
946.188
875.133
829.448
798.38
776.445
760.566
748.902
740.319
4870.88
1904.89
1291.52
1056.22
936.701
866.27
820.995
790.221
768.516
752.833
741.35
732.95
4815.35
1885.8
1278.82
1045.78
927.346
857.549
812.682
782.198
760.719
745.224
733.901
725.614
4760.29
1866.66
1266.22
1035.48
918.13
848.959
804.499
774.306
753.049
737.735
726.572
718.445
4704.89
1847.74
1253.77
1025.28
909.042
840.503
796.449
766.543
745.504
730.369
719.357
711.338
4649.58
1828.85
1241.45
1015.23
900.083
832.176
788.528
758.905
738.081
723.12
712.262
704.413
4594.27
1810.01
1229.24
1005.31
891.256
823.979
780.736
751.396
730.786
715.999
705.288
697.557
4538.75
1791.32
1217.13
995.507
882.561
815.913
773.072
744.012
723.614
708.996
698.432
690.863
4483.53
1772.91
1205.19
985.828
873.994
807.976
765.534
736.756
716.565
702.109
691.671
684.181
4428.42
1754.39
1193.32
976.287
865.551
800.16
758.122
729.62
709.631
695.321
684.977
677.468
4373.13
1736.18
1181.61
966.864
857.238
792.471
750.831
722.608
702.82
688.669
678.464
671.138
4318.07
1718.14
1170
957.569
849.042
784.909
743.672
715.723
696.137
682.144
672.071
664.882
4263.86
1700.25
1158.67
948.435
840.983
777.472
736.637
708.961
689.573
675.733
665.79
658.718
4208.55
1681.98
1147.27
939.384
833.047
770.169
729.725
702.318
683.125
669.435
659.603
652.592
4151.45
1663.58
1135.97
930.494
825.244
762.98
722.932
695.791
676.786
663.235
653.513
646.601
4096.6
1646.04
1124.86
921.665
817.537
755.909
716.251
689.377
670.564
657.151
647.53
640.674
4041.93
1628.42
1113.9
913.017
809.975
748.97
709.699
683.075
664.443
651.163
641.645
634.899
3984.65
1610.1
1102.95
904.444
802.529
742.146
703.265
676.897
658.444
645.298
635.877
629.192
3929.08
1592.79
1092.17
895.984
795.198
735.443
696.946
670.839
652.563
639.543
630.22
623.631
3872.83
1575.36
1081.53
887.713
788.013
728.881
690.77
664.913
646.816
633.922
624.685
618.14
3817.09
1558.01
1070.99
879.521
780.966
722.45
684.716
659.116
641.186
628.407
619.251
612.764
3760.35
1540.66
1060.67
871.513
774.051
716.149
678.799
653.444
635.681
623.015
613.931
607.482
3704.32
1523.34
1050.33
863.618
767.26
709.982
673.013
647.9
630.3
617.739
608.712
602.251
3646.94
1505.78
1040.15
855.806
760.607
703.963
667.363
642.487
625.039
612.569
603.593
597.184
3588.53
1488.25
1029.95
848.169
754.127
698.092
661.864
637.225
619.928
607.556
598.645
592.245
3531.11
1471.39
1020.06
840.725
747.782
692.371
656.517
632.111
614.959
602.677
593.82
587.485
3472.54
1454.22
1010.28
833.391
741.615
686.823
651.342
627.163
610.145
597.939
589.11
582.768
3413.98
1437.13
1000.74
826.278
735.634
681.465
646.342
622.381
605.499
593.358
584.541
578.114
3354.13
1419.8
991.154
819.319
729.841
676.283
641.53
617.791
601.047
589.007
580.277
573.995
3293.47
1402.54
981.807
812.542
724.239
671.322
636.92
613.393
596.769
584.786
576.053
569.677
3232.22
1385.75
972.761
806.045
718.9
666.573
632.521
609.197
592.684
580.748
572.024
565.652
3170.07
1368.79
963.805
799.772
713.797
662.09
628.382
605.246
588.829
576.927
568.182
561.728
3108.02
1352.37
955.225
793.81
708.993
657.889
624.512
601.554
585.21
573.305
564.487
557.84
3045.31
1335.85
946.963
788.143
704.525
654.031
620.969
598.171
581.903
570.019
561.208
554.607
2980.5
1319.13
938.98
782.922
700.469
650.551
617.783
595.128
578.912
567.018
558.146
551.452
2914.05
1302.96
931.394
778.119
696.874
647.521
615.024
592.475
576.26
564.299
555.292
548.402
2847.3
1286.95
924.423
773.973
693.866
645.038
612.767
590.277
574.017
561.937
552.766
545.684
2778.2
1271.47
918.088
770.501
691.556
643.212
611.113
588.624
572.261
560.018
550.661
543.411
2707.5
1256.71
912.808
768.073
690.185
642.241
610.221
587.646
571.102
558.623
548.999
541.458
2634.07
1242.23
908.647
766.838
689.965
642.307
610.248
587.467
570.632
557.813
547.814
539.84
2558.33
1229.57
906.374
767.397
691.328
643.745
611.44
588.268
570.976
557.672
547.167
538.653
2479.37
1218.6
906.608
770.348
694.777
646.937
614.077
590.243
572.26
558.274
547.114
538.005
2395.26
1210.58
910.741
776.785
701.135
652.459
618.558
593.666
574.686
559.785
547.792
537.895
2305.75
1208.77
921.253
788.527
711.569
661.056
625.337
598.813
578.405
562.269
549.221
538.423
2207.83
1217.63
942.228
808.137
727.555
673.503
634.808
605.865
583.487
565.73
551.31
539.304
2097.94
1251.19
981.69
839.541
750.642
690.273
646.983
614.694
589.731
569.994
553.977
540.632
1954.43
1325.66
1042.21
882.2
778.629
709.05
659.944
623.997
596.238
574.487
556.922
542.454
2176.49
2179.74
2372.45
2553.04
2627.06
2647.64
2596.72
2488.25
2340.56
2164.83
1985.73
1804.63
2326.17
2013.03
2261.27
2427.11
2502.33
2517.33
2465.87
2362.91
2223.98
2062.29
1893.38
1722.33
2491.78
1893.58
2141.43
2301.85
2379.82
2392.96
2344
2247.39
2117.43
1966.61
1805.99
1639.99
2661.03
1814.89
2030.81
2184.5
2263.03
2276.01
2230.67
2140.63
2019.1
1877.35
1723.89
1562.32
2827.11
1764.82
1933.99
2077.54
2154.16
2167.28
2125.65
2041.9
1928.2
1794.77
1649.44
1497.7
2990.54
1733.37
1849.95
1980.37
2053.34
2066.49
2028.33
1950.42
1843.95
1718.37
1581.31
1439.07
3150.22
1714.37
1777.16
1892.07
1960.11
1973.04
1938.02
1865.5
1765.73
1647.69
1518.75
1385.35
3304.95
1704.02
1714.19
1811.97
1874.13
1886.43
1854.13
1786.56
1693.08
1582.14
1461.01
1336
3451.66
1699.65
1659.72
1739.43
1794.92
1806.14
1776.19
1713.09
1625.48
1521.36
1407.76
1291.08
3589.74
1699.33
1612.42
1673.68
1721.95
1731.72
1703.69
1644.65
1562.53
1464.77
1358.16
1248.52
3718.49
1701.63
1571.13
1614.05
1654.74
1662.66
1636.17
1580.82
1503.73
1411.92
1311.65
1208.36
3836.17
1705.43
1534.8
1559.85
1592.77
1598.53
1573.23
1521.18
1448.77
1362.41
1268
1170.44
3944.71
1709.97
1502.58
1510.46
1535.57
1538.93
1514.51
1465.41
1397.26
1315.97
1226.95
1134.75
4043.15
1714.76
1473.78
1465.34
1482.71
1483.46
1459.64
1413.18
1348.95
1272.33
1188.42
1101.61
4133.44
1719.41
1447.79
1423.99
1433.79
1431.8
1408.31
1364.16
1303.49
1231.18
1151.88
1069.68
4213.48
1723.59
1424.15
1385.95
1388.42
1383.63
1360.27
1318.16
1260.72
1192.25
1116.83
1037.55
4285.95
1727.17
1402.43
1350.86
1346.28
1338.64
1315.23
1274.91
1220.43
1155.64
1084.36
1010.1
4350.68
1730.04
1382.36
1318.38
1307.09
1296.6
1272.99
1234.24
1182.49
1121.18
1054.03
984.845
4408.35
1732.16
1363.63
1288.17
1270.52
1257.24
1233.32
1195.94
1146.67
1088.52
1024.72
958.1
4459.47
1733.47
1346.05
1260.02
1236.37
1220.34
1196.02
1159.85
1112.85
1057.63
997.112
934.022
4504.89
1733.98
1329.43
1233.68
1204.4
1185.71
1160.91
1125.8
1080.91
1028.44
971.017
911.092
4544.86
1733.78
1313.64
1208.95
1174.41
1153.16
1127.82
1093.65
1050.68
1000.84
946.661
891.153
4579.33
1732.76
1298.55
1185.67
1146.21
1122.52
1096.61
1063.23
1021.99
974.412
922.584
868.355
4610.18
1731.12
1284.1
1163.69
1119.66
1093.63
1067.13
1034.43
994.742
949.178
899.356
846.389
4635.62
1728.75
1270.17
1142.88
1094.61
1066.37
1039.27
1007.16
968.915
925.365
878.128
829.285
4657.54
1725.81
1256.73
1123.12
1070.91
1040.6
1012.9
981.32
944.404
902.789
857.971
811.898
4677.18
1722.31
1243.68
1104.32
1048.47
1016.2
987.902
956.798
921.115
881.279
838.576
794.523
4692.33
1718.27
1231.02
1086.4
1027.19
993.066
964.187
933.487
898.955
860.751
819.929
777.761
4704.55
1713.8
1218.72
1069.25
1006.94
971.111
941.669
911.329
877.827
841.1
801.962
761.444
4715.32
1708.9
1206.74
1052.87
987.686
950.251
920.272
890.24
857.677
822.284
784.653
745.556
4721.99
1703.52
1195.02
1037.12
969.32
930.395
899.9
870.139
838.436
804.297
768.182
730.893
4727.53
1697.89
1183.57
1022.02
951.783
911.469
880.494
850.976
820.063
787.098
752.392
716.604
4731.68
1691.95
1172.38
1007.48
935.016
893.417
861.981
832.684
802.508
770.665
737.347
703.238
4732.78
1685.66
1161.44
993.459
918.957
876.18
844.306
815.212
785.725
754.922
722.871
690.08
4731.61
1679.12
1150.65
979.942
903.576
859.697
827.428
798.51
769.674
739.846
709.017
677.61
4730.62
1672.39
1140.15
966.892
888.805
843.925
811.284
782.539
754.307
725.408
695.708
665.5
4726.96
1665.45
1129.82
954.268
874.624
828.81
795.83
767.259
739.608
711.617
683.1
654.43
4721.26
1658.3
1119.68
942.056
860.981
814.33
781.033
752.625
725.535
698.426
671.05
643.741
4715.9
1651.06