/*--------------------------------*- C++ -*----------------------------------*\
| =========                 |                                                 |
| \\      /  F ield         | OpenFOAM: The Open Source CFD Toolbox           |
|  \\    /   O peration     | Version:  2.3.1                                 |
|   \\  /    A nd           | Web:      www.OpenFOAM.org                      |
|    \\/     M anipulation  |                                                 |
\*---------------------------------------------------------------------------*/
FoamFile
{
    version     2.0;
    format      ascii;
    class       volScalarField;
    location    "0.9";
    object      p;
}
// * * * * * * * * * * * * * * * * * * * * * * * * * * * * * * * * * * * * * //

dimensions      [0 2 -2 0 0 0 0];

internalField   nonuniform List<scalar> 
768
(
-0.00524066
-0.00413124
-0.00255777
-0.00105503
0.000328888
0.00155577
0.00252984
0.00319651
0.00330498
0.00287067
0.00221727
0.00126634
-0.00472231
-0.00358653
-0.0020735
-0.00077696
0.000368721
0.00138534
0.00219245
0.00270367
0.00278626
0.00248434
0.00193045
0.00111491
-0.00435092
-0.00324734
-0.00177466
-0.000677583
0.000305165
0.00115838
0.00182509
0.00223135
0.00230306
0.00205503
0.00155998
0.000835272
-0.00379846
-0.002898
-0.00160701
-0.000644215
0.00020629
0.000938648
0.00149881
0.00183026
0.00188594
0.00167096
0.00122767
0.000579617
4.95321e-05
-0.00135705
-0.00284936
-0.00429671
-0.00557193
-0.0066358
-0.00734656
-0.00765987
-0.00771049
-0.00735581
-0.00677506
-0.00601095
6.84148e-05
-0.00114873
-0.00246007
-0.00377399
-0.00498969
-0.00601926
-0.00673564
-0.00710332
-0.0071646
-0.0068773
-0.00632327
-0.00557681
-8.66822e-05
-0.00115123
-0.0022909
-0.00343078
-0.00449851
-0.00542949
-0.00609802
-0.00647656
-0.0065519
-0.00638638
-0.00588031
-0.00524147
-0.000240903
-0.00118568
-0.00219466
-0.00319948
-0.00415288
-0.00496217
-0.00556825
-0.00593833
-0.00605978
-0.00595416
-0.00553468
-0.00495578
-0.00529731
-0.0041864
-0.00260936
-0.00109985
0.000287888
0.00151721
0.00249252
0.00315962
0.00326806
0.00283281
0.00217844
0.00122655
-0.00477639
-0.00363972
-0.00212551
-0.000819386
0.000328219
0.00134629
0.0021544
0.00266621
0.00274897
0.00244662
0.00189219
0.00107605
-0.00440355
-0.00329938
-0.0018303
-0.000715072
0.000265117
0.00111888
0.00178641
0.00219332
0.00226529
0.0020172
0.00152193
0.000796976
-0.00385062
-0.00294912
-0.00165879
-0.000686072
0.000165255
0.000898448
0.0014595
0.00179165
0.00184774
0.00163293
0.00118966
0.000541603
8.72953e-06
-0.00139862
-0.00289093
-0.00433714
-0.00561073
-0.00667263
-0.00738015
-0.00769047
-0.00773734
-0.00738501
-0.00679442
-0.00602675
2.89011e-05
-0.00118877
-0.00250013
-0.00381319
-0.00502752
-0.00605568
-0.00676872
-0.00713357
-0.00719107
-0.00690443
-0.00634322
-0.00559366
-0.000125238
-0.00118988
-0.00232921
-0.00346792
-0.00453426
-0.00546549
-0.00613011
-0.00650544
-0.00657756
-0.00641089
-0.00589959
-0.00525859
-0.000278911
-0.00122352
-0.00223195
-0.00323504
-0.00418857
-0.00499626
-0.00559949
-0.00596663
-0.00608548
-0.00597747
-0.00555385
-0.00497277
-0.00293634
-0.00238294
-0.00144793
-0.000623958
0.000114801
0.000745218
0.00121917
0.00149251
0.00153287
0.00134108
0.000943168
0.000362801
-0.00230659
-0.00191845
-0.0012628
-0.00058842
4.20338e-05
0.000582298
0.000984507
0.00121129
0.00123748
0.00106154
0.000700598
0.000176191
-0.00185295
-0.00157868
-0.00109803
-0.000546539
-1.32493e-05
0.00044814
0.000789863
0.000978261
0.000991867
0.000827398
0.000496565
1.82278e-05
-0.0015388
-0.00133172
-0.00096135
-0.00050645
-5.5352e-05
0.000338871
0.000629911
0.000786418
0.0007889
0.00063279
0.000326327
-0.000114143
-0.00131611
-0.00115034
-0.000852419
-0.000472036
-8.79818e-05
0.000250532
0.000499667
0.000629835
0.000622686
0.000472697
0.000185765
-0.000223939
-0.00115184
-0.0010152
-0.000767509
-0.000444352
-0.000113662
0.000179714
0.000394777
0.000503495
0.000488245
0.000342818
7.14153e-05
-0.000313556
-0.00103091
-0.000914717
-0.000702729
-0.000423102
-0.000133983
0.000123639
0.000311617
0.000403239
0.000381416
0.00023946
-1.97232e-05
-0.00038509
-0.00094275
-0.000841138
-0.000654662
-0.000407529
-0.000149978
8.01626e-05
0.000247244
0.000325694
0.000298776
0.000159498
-9.02216e-05
-0.000440389
-0.000880632
-0.000789114
-0.000620528
-0.000396829
-0.000162315
4.76025e-05
0.000199299
0.00026813
0.000237511
0.000100314
-0.000142266
-0.00048105
-0.000839936
-0.000754916
-0.000598196
-0.00039032
-0.000171537
2.45888e-05
0.000165841
0.000228263
0.000195285
5.97358e-05
-0.000177716
-0.000508449
-0.000817508
-0.000735922
-0.000586043
-0.000387516
-0.000178003
1.00422e-05
0.000145254
0.000203735
0.000170122
3.59329e-05
-0.000198147
-0.000523773
-0.000810358
-0.000728943
-0.000581788
-0.000387173
-0.00018155
3.1466e-06
0.000135922
0.00019327
0.000159362
2.59979e-05
-0.000206371
-0.000529542
-0.000369312
-0.00121105
-0.00211075
-0.00301143
-0.00386291
-0.00458754
-0.00514095
-0.00549511
-0.00563564
-0.00556772
-0.00524247
-0.00480448
-0.000482828
-0.00123882
-0.00204662
-0.00285762
-0.00362648
-0.0042829
-0.00479192
-0.00512716
-0.00527177
-0.00523054
-0.00498357
-0.00465479
-0.000581178
-0.00126761
-0.00200058
-0.00273682
-0.00344411
-0.00404377
-0.00451459
-0.00483215
-0.00498013
-0.00496637
-0.00479093
-0.00456225
-0.000664688
-0.00129436
-0.00196609
-0.00263779
-0.00330656
-0.00385714
-0.00429775
-0.00460324
-0.00475914
-0.00477258
-0.00465709
-0.00450431
-0.000734755
-0.00131839
-0.00194069
-0.00255928
-0.00319874
-0.00370972
-0.00412733
-0.00442532
-0.00459096
-0.00462942
-0.00456202
-0.00446294
-0.000792416
-0.00133919
-0.00192302
-0.00250963
-0.00310224
-0.003592
-0.00399305
-0.00428622
-0.00446032
-0.0045217
-0.00449198
-0.00443134
-0.000838603
-0.00135626
-0.00191006
-0.00247073
-0.00302708
-0.00349956
-0.00388816
-0.00417831
-0.00436147
-0.00444038
-0.00443931
-0.00440589
-0.000874232
-0.00136933
-0.00189991
-0.00244003
-0.00297016
-0.00342825
-0.00380764
-0.00409582
-0.00428534
-0.00437938
-0.00439985
-0.00438571
-0.000900162
-0.00137831
-0.00189132
-0.00241639
-0.00292837
-0.00337486
-0.00374752
-0.00403462
-0.00422887
-0.00433489
-0.00437124
-0.00437068
-0.000917171
-0.00138323
-0.00188332
-0.00239909
-0.002899
-0.00333684
-0.00370492
-0.00399159
-0.00418961
-0.0043044
-0.00435216
-0.00436101
-0.00092596
-0.00138425
-0.0018749
-0.00238802
-0.00288007
-0.00331188
-0.00367746
-0.00396432
-0.00416515
-0.00428608
-0.00434167
-0.00435698
-0.000928606
-0.00138293
-0.00186583
-0.00238681
-0.00286807
-0.0032983
-0.00366261
-0.0039486
-0.00415307
-0.00427788
-0.00433811
-0.00435806
-0.00298984
-0.00243452
-0.00149774
-0.00066795
7.26869e-05
0.000704301
0.00117927
0.00145342
0.00149432
0.00130287
0.000905195
0.000325033
-0.00235951
-0.0019696
-0.00131171
-0.000633476
-9.28923e-07
0.000540738
0.000944089
0.00117177
0.00119862
0.00102316
0.000662625
0.0001386
-0.00190494
-0.00162919
-0.00114649
-0.000592127
-5.68127e-05
0.000406064
0.00074901
0.000938375
0.000952738
0.00078888
0.000458578
-1.92393e-05
-0.00158989
-0.00138162
-0.00100947
-0.000552297
-9.93215e-05
0.000296407
0.000588705
0.000746233
0.000749552
0.000594151
0.000288324
-0.000151523
-0.00136646
-0.00119971
-0.00090027
-0.000517993
-0.000132214
0.000207779
0.000458182
0.000589408
0.000583158
0.000433957
0.000147742
-0.000261255
-0.00120159
-0.00106413
-0.000815129
-0.000490338
-0.000158061
0.000136748
0.000353073
0.000462871
0.00044857
0.000303995
3.33709e-05
-0.000350826
-0.00108018
-0.000963294
-0.00075015
-0.000469076
-0.000178486
8.05176e-05
0.000269744
0.000362463
0.000341621
0.000200566
-5.77886e-05
-0.000422331
-0.000991646
-0.000889435
-0.000701918
-0.000453473
-0.000194544
3.69259e-05
0.000205242
0.000284805
0.000258888
0.000120544
-0.000128307
-0.000477613
-0.000929249
-0.000837192
-0.000667653
-0.000442742
-0.000206922
4.28359e-06
0.0001572
0.000227155
0.000197553
6.13097e-05
-0.000180372
-0.000518268
-0.00088835
-0.000802833
-0.000645225
-0.000436203
-0.000216168
-1.87863e-05
0.000123675
0.000187235
0.000155274
2.06923e-05
-0.000215841
-0.000545668
-0.000865788
-0.000783732
-0.000633005
-0.000433377
-0.000222648
-3.33689e-05
0.000103043
0.000162627
0.000130071
-3.13991e-06
-0.000236288
-0.000560997
-0.000858564
-0.000776695
-0.000628715
-0.00043302
-0.000226203
-4.02842e-05
9.36766e-05
0.000152139
0.000119288
-1.30927e-05
-0.000244524
-0.000566773
-0.000406859
-0.00124825
-0.00214739
-0.00304714
-0.0038969
-0.00462044
-0.00517158
-0.00552305
-0.00566099
-0.00559054
-0.00526198
-0.00482168
-0.000520018
-0.0012755
-0.00208266
-0.00289277
-0.00365974
-0.00431504
-0.00482207
-0.00515486
-0.005297
-0.0052535
-0.00500369
-0.00467288
-0.000618103
-0.00130391
-0.00203614
-0.00277144
-0.00347702
-0.00407541
-0.00454437
-0.00485971
-0.00500541
-0.00498959
-0.00481181
-0.00458153
-0.000701411
-0.00133036
-0.00200135
-0.00267323
-0.0033379
-0.00388838
-0.00432735
-0.00463079
-0.00478459
-0.00479615
-0.00467872
-0.00452463
-0.000771326
-0.00135413
-0.00197552
-0.00259325
-0.00323099
-0.0037409
-0.00415683
-0.00445293
-0.00461663
-0.00465338
-0.0045843
-0.00448414
-0.000828871
-0.00137473
-0.00195744
-0.00254219
-0.00313535
-0.00362326
-0.00402259
-0.00431395
-0.00448611
-0.00454603
-0.00451483
-0.00445328
-0.000874974
-0.00139166
-0.00194423
-0.00250316
-0.00306002
-0.00353071
-0.00391772
-0.0042062
-0.00438815
-0.00446506
-0.00446263
-0.00442842
-0.00091055
-0.00140464
-0.00193395
-0.00247234
-0.00300279
-0.00345941
-0.00383726
-0.0041238
-0.00431178
-0.00440428
-0.00442354
-0.0044087
-0.000936455
-0.00141359
-0.00192533
-0.00244846
-0.00296082
-0.00340602
-0.00377719
-0.00406266
-0.00425537
-0.00435997
-0.00439522
-0.00439402
-0.00095346
-0.00141853
-0.00191742
-0.00243076
-0.00293147
-0.00336797
-0.00373458
-0.00401968
-0.00421618
-0.00432962
-0.00437633
-0.0043846
-0.000962257
-0.00141961
-0.00190929
-0.00241901
-0.0029128
-0.00334293
-0.00370708
-0.00399245
-0.00419177
-0.0043114
-0.00436599
-0.00438073
-0.000964912
-0.00141836
-0.00190088
-0.00241751
-0.00290038
-0.00332928
-0.0036922
-0.0039767
-0.00417972
-0.00430324
-0.00436249
-0.0043819
)
;

boundaryField
{
    rotor
    {
        type            zeroGradient;
    }
    stator
    {
        type            zeroGradient;
    }
    AMI1
    {
        type            cyclicAMI;
        value           nonuniform 0();
    }
    AMI2
    {
        type            cyclicAMI;
        value           nonuniform List<scalar> 
48
(
-0.00582654
-0.00473784
-0.00307756
-0.00134543
0.00027934
0.00168894
0.0027568
0.00343012
0.00354279
0.00308812
0.00237232
0.00132055
-2.23206e-06
-0.00149047
-0.00303965
-0.00453914
-0.00587155
-0.0069375
-0.0075952
-0.00781612
-0.007836
-0.00753161
-0.00692376
-0.00642602
-0.00588728
-0.00479576
-0.00313005
-0.00139077
0.00023897
0.00165157
0.00272055
0.00339413
0.00350667
0.00305069
0.00233369
0.00128076
-4.30394e-05
-0.00153187
-0.00308092
-0.00457939
-0.00590997
-0.00697337
-0.00762777
-0.00784537
-0.0078599
-0.00755677
-0.00694843
-0.00644623
)
;
    }
    front
    {
        type            empty;
    }
    back
    {
        type            empty;
    }
    procBoundary1to0
    {
        type            processor;
        value           nonuniform List<scalar> 8(-0.0059566 -0.00552635 -0.00519489 -0.00491321 -0.00530751 -0.00478951 -0.00441857 -0.00386587);
    }
}


// ************************************************************************* //
