/*--------------------------------*- C++ -*----------------------------------*\
| =========                 |                                                 |
| \\      /  F ield         | OpenFOAM: The Open Source CFD Toolbox           |
|  \\    /   O peration     | Version:  2.3.1                                 |
|   \\  /    A nd           | Web:      www.OpenFOAM.org                      |
|    \\/     M anipulation  |                                                 |
\*---------------------------------------------------------------------------*/
FoamFile
{
    version     2.0;
    format      ascii;
    class       volScalarField;
    location    "720";
    object      sigmaEq;
}
// * * * * * * * * * * * * * * * * * * * * * * * * * * * * * * * * * * * * * //

dimensions      [1 -1 -2 0 0 0 0];

internalField   nonuniform List<scalar> 
11800
(
95148.6
89583.5
188940
169303
85289
136648
94411.1
91598.2
99716.5
96619.6
93091.2
227411
40610.4
168989
161255
733624
84125.9
76805.4
129074
74946.5
143484
210599
363034
323387
593677
409358
341332
174385
385901
433242
130298
99300.8
392640
97955.5
97975.3
131233
96827
415080
89573.4
83442.1
354229
399855
184165
448416
136534
686188
336525
383384
93492
102307
232973
174814
96786.4
145916
779866
728973
50796.6
172020
133058
137472
707969
100408
141237
120939
582508
100509
237933
178446
52800.2
376268
101483
86395.6
82699.9
753131
699719
132318
591584
92650.2
94859.5
100672
797418
75036.1
85316.6
88815.6
78879.3
415823
136232
369397
329609
176632
92603.5
465192
93211.4
51135.7
86024.4
69258.9
8894
68587.5
95228.6
201610
65840.4
217998
441888
180696
99722.3
148773
87579.6
88725.9
670371
360282
407328
320834
137317
180895
90893.1
608319
95172.4
94618.5
573127
101798
108005
95684.9
91349.8
81279.8
90644.2
95825.4
96596.3
93902.4
81916.9
33053.3
847197
520446
141474
413721
181820
364627
325621
131251
355296
163534
313230
280464
212217
98201.5
99301.2
121666
373006
391422
225204
168927
105899
101940
95697.6
113074
98528.6
99189.5
164953
211699
463688
96913.1
768823
106799
600820
172631
190345
214041
110094
102906
855680
471599
154393
196157
91940.3
137144
139707
677732
685869
319503
284130
361852
162051
126940
106004
105159
153850
94487.4
158836
91189.2
84814.3
95878.9
116647
104878
102079
126523
279879
365734
756213
92499.5
94649.3
876717
84522.8
107246
120294
98847.8
100313
270003
232813
207113
173983
838367
246715
354243
1.15693e+06
844758
981472
167941
88142.9
302252
267304
239541
111727
133334
82964
74347.1
130186
77589.5
562322
129645
78662.4
165268
105857
91086.7
89018.6
207089
211170
1.14347e+06
556268
101338
107642
362543
293863
128598
162318
371931
332565
296223
98392.9
423598
140959
175883
167735
85255
95126.2
174592
132687
111667
970683
111632
122902
106984
116300
227720
256446
289160
134442
112136
99254.5
702419
88716.8
78797.9
96816.9
146059
64680.8
181197
860281
137947
136611
191170
146464
164133
127311
432782
365740
119859
139327
107987
120046
213562
272913
147094
463736
498908
610049
92483.9
139407
138909
649703
656624
324459
319637
339279
336827
92720.9
71006.6
114774
927245
89643.1
94560.3
114694
109635
103508
293796
290549
595455
987498
296469
93647.2
282112
229635
173320
141697
103346
99738.2
118320
183349
107600
165530
86886.8
90750.7
96303.2
99043.7
504317
93868.9
91775
784562
115311
262826
243892
239158
295718
286294
81522.7
81059.7
263521
331915
244760
624753
73192.7
298329
241190
150587
121446
120376
97799.9
126742
115421
140749
159994
179139
81595.4
94866
237184
253439
97611.8
94077.2
196972
154053
174132
91839.1
89416.4
104241
103918
339001
144149
123713
206443
330926
396969
199767
101568
101330
103449
100127
160309
187110
148399
173502
131341
154103
122123
112151
276825
125311
266346
445464
201259
156338
901261
92849.8
469989
207792
161089
772557
90010.6
489698
129397
451512
415232
394074
95963.5
38234.4
91551.4
1.03888e+06
891831
336921
123972
144295
98326.7
91651.8
108803
81865.4
129699
666941
27752.4
190477
141946
753648
74580.6
95438.7
85299.4
103363
84192.3
92032.4
761314
231684
111028
223879
199200
180289
72679.7
474208
144950
184090
95555.3
356875
92639.5
682965
90097.6
103442
167443
149670
135843
358395
97889.4
189635
196435
103137
227604
252810
285246
132630
114179
46423.9
86036.2
89041.2
937038
232956
185286
149635
126451
87887.9
98037.7
74651.3
80969.1
115253
67016.6
73726.3
93986.5
95746.8
176486
91658.2
132438
248513
241926
123282
695775
99726.2
167265
89305
82649.7
649770
769389
192610
218068
115572
102655
87316.1
574313
724998
657996
989427
239048
170940
236283
81903.1
90373
89073.2
98267.6
222548
99342.1
97440.5
76046.4
86199
568240
118951
480709
397004
83785.4
100265
542370
548118
222663
251937
284633
135623
118379
204128
96113.4
95370.7
94205.6
101075
87541.2
107549
74923.5
97276.3
69169.7
91229.8
63231.6
91329.7
83746.8
93293.9
70097.6
656756
134838
100104
214331
362716
67899.7
94363.7
85520.9
78201.1
71020.5
116865
141231
100091
97914.3
235147
74676.2
109718
708979
56706.1
106640
182899
165793
177797
195561
204149
220322
101709
96510.7
758531
1.01884e+06
161345
70157.4
122996
176353
127966
105059
269913
242947
216203
96880.4
59655.5
240375
247182
116511
122518
84840.7
194657
219740
109096
327157
322784
327316
331917
679405
664642
186680
897224
251043
89369.8
651963
424305
478744
229642
106826
120277
103462
578082
165482
213650
943357
102038
100530
209056
167502
463659
211435
719349
93515.2
88642
114839
134060
298831
267162
238330
754816
91749
137742
295993
545503
90943.8
874475
821346
801954
98967.8
130476
63438.1
819928
187862
102953
143753
706432
89850.4
104611
116047
92104.8
216463
109479
1.02788e+06
794099
102854
231218
291296
110586
119540
109592
106317
309377
127810
185003
148477
385407
369040
92210.2
504646
98717.6
138115
159714
747510
126739
177752
106892
107214
86688.8
95891.5
167489
370642
411164
80610.9
84280.4
78036.1
110176
149402
513377
77515.7
152162
251929
192647
97274.2
330782
376713
231865
426099
480599
185722
136537
90706.1
84832.3
138933
151982
124953
133067
103053
118976
146906
99296.7
90897.6
964713
374866
141602
169805
188262
99894.8
144093
189974
448231
396807
353518
122485
139732
125218
103672
580162
497732
486440
94449.3
112777
115362
205677
537467
158800
41268.5
97651.5
949284
897501
100681
825633
82265.2
88693.6
89855.5
270547
76226.8
123435
148478
425410
480537
542801
613940
233541
208188
177938
151560
103535
90352.7
144330
759315
98929.3
100326
85143.7
91691.4
84320.6
89133.8
98964.2
595521
313041
267909
154393
298736
339387
123947
427598
109508
105501
98127.2
933383
89676.1
95973.2
87628.4
84863.8
87838.5
854786
110492
115419
508929
129734
276589
118594
875931
323792
147484
128908
563609
165693
94618
91217.9
78084.8
87143.3
110304
131681
118352
85000.7
242951
116719
89681
263583
299301
92263.2
198069
268750
236049
304751
641079
566654
499721
444646
195890
232368
654457
577983
264410
511510
302504
451837
625814
100073
91696.6
100347
100971
207440
506793
101746
165011
206525
181462
229757
102312
114491
147321
197132
469355
415775
370662
177694
143019
359396
95225.5
106900
99310.8
143027
128454
113298
189802
157290
160171
126543
97376.8
311233
99338.9
118941
153340
392705
189765
218839
219821
86965.5
98938.2
93370.8
85415.1
91199.8
100769
196362
176733
90237.4
102501
93194.3
155750
525178
160693
206031
228538
97837
102537
93791.3
83681.9
103616
97740.9
229696
202746
181542
94622.3
726024
230448
136712
430870
279743
525125
830654
106216
117928
96146.3
93569.2
80964.1
242589
208486
849924
82355.1
101332
134715
174055
98048.5
101616
243115
238645
57778.4
88022.1
138350
112409
84453.1
702455
822644
111318
92393.5
122350
141439
286785
223330
252393
952557
95876.7
196742
218018
97960.1
206578
249687
283540
319943
672647
592899
522606
465085
205892
245893
684424
604406
277874
534996
316630
472935
753412
664060
505021
164553
188381
656514
520007
131813
92107.5
88400.6
514457
836307
76592.3
148500
753823
505916
832123
838991
370177
378439
179842
151850
190157
151605
92975.8
119299
90800.7
93279
105916
98095.2
143063
808729
191035
97055.9
74437.4
136950
147294
714355
143069
130578
145886
155179
436405
171875
137834
651131
148623
181531
88888.7
93335.5
153206
125711
140122
361418
193096
183807
467651
449313
183200
187080
371981
400832
150971
150236
91522.1
90682.4
93869.8
189290
147167
43105.3
95072.3
102311
254711
250766
121423
212954
170636
85158
68999.1
71479.4
249181
536059
79511.6
823282
120044
261311
233775
95837.6
112814
172448
92725.8
94144.3
626976
140491
365762
325583
291023
125359
157654
90792.4
640768
712229
93402.2
92972
386337
135284
166529
283745
319643
367123
131744
161759
47943
328731
139421
699177
177395
417257
284804
315392
99710
89847.5
81902.5
103834
86344.9
86260.7
607154
160945
80965
96876
103126
115712
119300
133056
270936
267633
241624
236605
213399
217814
530763
96984
90008.3
95491.5
95426.2
126223
98170.3
89378.8
609478
114735
211282
148967
386064
183667
82544.3
88677.7
157825
129259
203535
171546
455568
379374
336258
299016
174330
536091
225318
618307
107418
96995
116712
125308
91743.6
101100
90955.2
584781
867633
124022
77889.4
96736.5
196533
148531
67591.3
91881.8
130082
117233
99322.7
103721
112015
108388
98244.2
170713
189758
186900
209138
150394
168679
242587
95118.7
384151
290311
171750
484899
459480
265903
859100
144895
137651
158503
177799
85412.7
91175.5
98469.4
171594
92717.6
636423
120915
99449
254213
46906.2
86853.5
715831
90332.3
146271
461111
193931
409169
364607
648233
437251
74392.5
202612
166105
117305
520144
208737
133503
365136
324985
411589
99254.9
100585
74889
1.03712e+06
128445
152844
178339
108323
90630.1
84012
161492
178051
99763.1
723349
147788
591690
103094
352705
89487.6
205779
249101
373100
143327
177807
213990
113422
900552
89668.7
74154.4
83179.5
803377
564220
124631
160996
381510
342134
304705
827191
199959
168010
910683
1.0114e+06
659698
87703.7
237676
505133
353025
180092
145420
306714
273249
143391
502115
127029
137100
173830
147130
130410
689073
996392
81068.9
94926.2
112642
997761
86440.4
90591.3
235806
171400
906974
948056
100679
258581
113921
102704
214852
102399
73714.4
233226
86764.1
99624.2
989913
368623
194063
157121
141434
117175
273787
245999
217928
125387
954614
197550
171957
148959
809061
301272
408394
75437.6
119183
87563.5
359544
163069
213471
85493.8
105787
132756
303184
111752
103479
96319.1
170975
889593
112418
138284
297827
585114
821856
483346
346639
214666
252248
52174.6
108756
122236
245442
218334
193728
814054
81999.8
88104.2
94731.8
92282.7
90970.2
102545
108095
95831.7
90035.6
275447
684336
158336
360027
318737
284067
125263
782955
200444
220796
256223
220311
448113
754247
250893
92092.9
363101
87725.3
283030
169198
315628
358152
137256
450067
120402
1.11697e+06
367982
91831.1
685916
1.11451e+06
960639
217133
98251.5
391333
91095.1
81332.8
91500.1
143168
91593.1
84027.8
85368.5
75948.8
613832
643547
89507.8
493204
99334.2
89872.6
91102
114640
339720
349938
105007
346249
354032
594955
205120
92974.3
92278.8
112378
218652
244184
108776
27157.7
92792
348550
126435
266164
298609
335667
378314
187179
143035
140380
84902.2
81996.3
836172
437835
97937.6
103985
350296
284926
147538
163007
110198
82782.3
151487
135493
85761.4
94854.2
88086.9
686765
201428
511583
78903.2
90841.2
1.11959e+06
99352.1
855390
822259
82584.6
347155
158907
689771
91036.5
294994
426521
936349
101889
82790.3
85498.6
215051
105182
120260
217010
193271
171179
77408.9
96513.9
78159.6
73854.6
337255
374066
262259
462654
411000
513131
842753
103318
271921
803278
295210
821391
288766
325019
369638
161611
126443
164021
207927
784030
97794.7
91551.3
116978
109296
97844.5
101656
143448
127962
119143
331787
249969
981839
94969.3
78220.1
114712
826901
247446
115767
109359
815566
292601
204676
77434.5
100082
84583.5
282722
366087
123727
497956
87054.3
86320.8
1.04953e+06
707341
867699
138605
163859
316586
143979
221325
815191
958242
88302.7
98738.2
151478
134655
324059
358138
236103
265241
881792
895884
116314
98912.4
79894.3
594220
87631.6
776023
200527
114789
410468
122928
85468.3
776918
108183
108434
86433.4
95166.1
601622
156546
91061.9
293390
132780
94037.3
83969.6
96444.8
213717
98258.2
745525
748666
118372
264461
160084
86909.5
92424.7
630014
92675.2
397718
109606
207379
341598
400620
701414
88900.3
151485
832400
108792
93294.1
74445.5
93576.1
96724.1
896617
626937
129029
155669
310016
264051
413288
138673
170674
141176
186277
405026
358519
318325
583127
229127
174635
682284
177635
740746
252888
220243
770311
1.12815e+06
916816
144285
223602
427911
173003
141422
85715.6
165555
788565
90532.9
94548.8
917879
675287
857174
274672
339870
348778
297977
83729.3
74050.9
116059
76933.6
238640
264874
299021
129995
107769
243250
863700
86926.4
118311
101266
85683.2
311406
283362
114286
751777
888676
369213
293743
693823
797611
96901.2
392412
260633
478509
82381.3
101811
108311
601066
599420
323608
130668
89034.8
97420.2
98038.1
191386
668690
96583.3
479969
80112.2
129484
113642
122584
218448
120635
200756
19261.6
5602.91
198553
1.04584e+06
88777.2
85849.3
100446
88026.7
90541.9
98109.2
106911
87761
100506
179419
85162.8
90130.2
103385
305402
381973
266089
762959
915915
89488.5
110970
141450
87825
560375
128257
935392
99437.9
114812
220381
148484
106436
100227
220931
92991.2
102638
106286
87824.9
96654.7
80995.3
737962
80132.6
81421
109118
93970.4
76604.5
830057
87403.8
703107
702903
270263
208399
128123
163007
373732
337911
300818
93637.9
454304
282536
96479.3
878312
97934.1
98335.3
134211
466992
271997
309163
515812
88795.8
83994.2
144012
197438
451614
226499
513563
173871
398431
354737
142673
522789
165638
458933
190562
407160
362588
215253
667657
96796.4
204175
151212
82954.1
94745
680611
305742
422816
389937
342226
433302
307446
132373
145910
208093
519892
93954.3
998571
102819
89965.4
770723
86389.1
113559
250475
272032
733073
87272.4
407502
363487
323898
132864
172621
877813
131482
113169
251812
96619.8
260906
122524
174722
83402.7
105084
115771
92167.8
181080
93768.2
240015
135881
110171
276655
370471
379992
276180
155934
788664
98801
98386.2
727217
691875
404961
1.10211e+06
352324
298212
404268
988886
351217
268831
869202
203352
194798
214371
744018
86756.9
694078
85388.6
129163
141199
228073
253811
285776
136233
114535
233396
61645.5
63052.5
89745.8
83625.3
114765
88982.7
93229.2
125838
417179
884887
99878.6
102463
821655
469117
180461
231196
87281.8
91102.5
689812
478965
133969
342509
317363
473684
79823.9
83947.5
106416
95488.5
488979
862805
883623
580532
977071
119828
85619
126072
351428
312765
397545
176307
132622
889184
172796
201517
261659
107799
113719
397578
159496
82243.9
278684
112161
123509
891541
131823
122464
399569
358619
318202
165622
583961
538471
689885
222709
237788
234170
557535
220169
168624
493356
102150
1.10637e+06
94506.7
851844
212108
246555
69083.6
254122
455737
89429
95966.9
90310.7
985210
223210
195146
245949
119284
100553
152895
200371
658200
204040
405479
514349
456668
149371
433419
315170
338868
399827
426808
314521
344165
409990
246015
257239
21961.3
138334
94231.5
152167
207730
182378
237192
534675
471150
415495
369831
149162
440889
187843
97842.3
70821.6
78789.8
122954
71447.5
173694
367326
389384
157015
759639
96886.5
83130
620179
783509
79040.4
441589
173964
219946
300131
259249
121783
86239
169237
324648
59122.7
96235.9
779778
109377
100839
176199
156534
195049
152738
98910.7
99722.7
161900
519037
855787
991813
127838
139516
591905
533994
725311
94202.3
460086
695674
992104
1.03231e+06
956106
194574
355982
151336
838436
558871
219297
546983
87330
92843.4
649036
651510
89228.9
199105
900040
710286
658530
680599
1.03522e+06
687027
772898
718532
91510.3
119716
489587
327573
428897
100910
78344.6
96078.2
90992.3
100896
110700
93454.5
155683
763690
462657
147799
188814
506877
96978.1
244458
193715
1.0721e+06
126447
115755
257381
124446
229935
100784
99512.5
870505
7075
69927.8
69133.9
14358.7
156086
243740
91903
100853
112141
89973.7
288837
229079
89475.1
865127
761029
196346
493353
152185
102081
578205
132252
871365
190112
230439
260833
296344
629028
556603
489920
436326
190227
225721
641585
567020
255499
501205
292208
443482
112007
100795
231124
213139
179861
100829
98064.2
93021.3
87675.7
86578.3
81542.4
84710.6
79958.4
127332
380508
410648
286292
166462
313356
345504
641506
238110
190162
800173
274796
97046.7
59186
87626.4
91862
132315
112901
119285
100042
198887
152168
140607
262312
99062.1
100871
438418
95436.9
90050.6
99923.9
84652.9
529040
102808
138425
216361
174156
141273
227852
130116
78933.9
73133.1
971460
932651
426269
341525
327721
427583
866385
425520
98144.2
274582
138349
118800
157379
94714.1
929145
99886
433161
386874
344688
180385
136007
241862
130672
111724
941825
107731
97896.9
310646
307268
123384
98686.6
103892
158685
357566
656668
220981
170756
485397
508688
127210
164036
390604
346693
309720
173041
189099
361927
237559
340733
188246
385346
436109
137228
492169
1.0388e+06
762186
92547.3
263142
294429
330893
128377
105633
611157
103737
131039
189071
192454
87060.5
105815
105876
91078.8
455816
333188
354323
424809
154472
776300
961138
352689
82412.2
260121
289069
325455
354127
454334
122047
695658
310453
232306
204760
258421
110500
132779
95689.2
96252.2
164905
207964
184105
202585
225878
255512
148590
145245
192250
194675
418005
413810
328323
368970
325267
365490
212975
238652
112582
92151.6
94575.1
90012.4
551219
250212
96923.2
394202
322914
301665
402592
102766
161144
570596
221661
504513
447098
73674.7
105075
431669
210006
163314
551779
232227
61270.1
372966
332021
423252
183560
137412
651007
193628
161391
798755
193518
259945
81672.2
94683.1
142252
129059
114722
660654
148327
144134
176373
156785
193328
101409
95017.7
469241
546840
104046
276401
82023.3
434849
843136
557123
194523
158335
388476
181062
169198
139906
106695
88036.2
171758
91683.7
172307
90201.2
164046
89430.3
82900.2
913045
149474
643761
307647
346357
185159
152051
374635
827113
75526.1
91730.3
100637
89269.8
167290
15990.3
5328.12
165447
322882
80241.4
303317
132199
142465
82035.2
183063
244779
578735
88123.4
86004.3
89802.5
88770.3
180487
112278
346385
302828
112971
81521.5
87142.9
901363
325660
86984.5
148096
82776.4
1.07119e+06
759863
150915
97868
265603
144079
185653
384756
302512
340337
877420
683588
93983.6
691403
1.00345e+06
716163
768086
379714
105029
553507
111551
89640.3
94724.4
172886
157782
132397
123398
297847
112028
90587.9
85444.1
459491
440283
498084
563815
632690
240004
213091
181879
153364
101653
87374.6
231182
10824
115853
114569
5940.15
219232
114208
93746
78802.4
128710
150187
101287
180567
557018
268322
189709
144890
164737
829465
668468
81724.1
281323
98515.7
98547.5
189362
224163
295038
618020
139263
157461
99446.1
749261
97305.2
124736
153015
140241
434641
490791
241099
368894
364851
184709
246623
542023
514103
492112
153164
196429
70394.2
92128.3
73186.5
108263
74836.1
262749
396408
356500
437195
313306
448484
312078
223796
211108
383888
280996
391960
281760
126456
509786
356668
310483
403846
360138
443682
320473
451618
318864
497321
1.06221e+06
171434
232143
559155
237974
76995.8
95874.1
107631
10522.3
106434
9388.67
89696.7
155580
447457
398005
508431
214128
154546
881655
59360.4
92087.4
157218
463706
115261
306627
145905
933858
942519
616601
78954.8
166957
562751
247218
201776
197920
259796
229755
290143
118145
143951
1.00478e+06
238771
872327
84189.8
90776.9
101220
86366.7
76653
852485
84072.7
579296
77406
414785
627444
75666
102736
104297
245194
112381
184912
165050
129096
142840
160441
93080.2
125333
164566
197823
146060
491983
437830
389503
635890
863288
960376
80269.4
84913.7
93011.6
88931.6
111401
75198.1
112473
936663
975073
852095
770474
29876.7
580878
824604
428167
325899
341730
424908
269877
290707
461773
251936
629515
77098.4
121133
125677
244765
103684
99632.2
116782
96975.3
110718
84403.1
95576.9
156196
165309
183124
174593
196604
205528
241370
249129
91696
95636.2
185587
143197
88109.8
90526.7
428060
636366
94135.6
320146
696838
189766
640986
250184
107707
708242
272137
230463
357851
730703
1.01908e+06
414147
129676
876824
121650
98432.5
91646.4
228791
70668.7
384940
615549
135407
226929
106772
101038
102649
933108
133307
144696
141664
124036
344937
110044
99596
385362
87338.4
754604
91079.5
441505
143566
153022
680206
489629
280232
551280
625213
242601
704323
211448
171531
479129
538135
693843
611250
172104
247133
283295
212476
871383
106014
685634
85954
94295.8
84090.1
3904.42
29665.3
345244
52298.8
660686
114791
106759
201133
221500
179377
224347
113569
475853
112418
114230
480629
83250.6
163232
147166
146256
431385
383783
489931
202003
252737
99563
154276
237275
653572
66321.9
140466
98001.8
81432.3
223785
736669
355979
326767
749402
123027
375879
843707
405937
731151
100866
792794
113742
551361
166079
203770
93101.8
6845.13
69479.3
68678.4
11819.3
109209
634411
86141.6
635999
334297
107510
420939
403541
473625
453962
536055
514205
225877
218190
166450
161897
179869
135307
434133
388295
345129
124699
156346
139165
93052.2
369590
312264
82158.1
94469.2
81136.3
93341.1
91509.7
855568
650448
148483
463321
411764
524646
97473.1
358903
561647
542575
104406
99832.8
713735
261493
104040
106877
129664
118372
92817
208429
185570
167417
662150
1.0599e+06
722694
448938
199642
152052
93411.4
101086
121305
99723.4
98870
98926.8
93382.6
222867
172367
87066.9
674264
744871
222853
253310
94132.5
104883
95195.6
88828
217562
706481
391531
288160
301329
357903
95461.4
81947.2
127624
86352.9
79108.6
114390
1.10647e+06
868082
77287.9
98469.3
262258
228652
169642
527130
596593
413700
463956
386378
167358
136804
152810
100664
100236
781906
165604
470149
65802.9
752726
82398.5
214924
239951
1.09395e+06
87680.3
215625
93814.8
202769
90240.5
139141
459351
175080
450049
278674
507285
574785
247428
651302
214160
182681
219836
182840
98671.5
249144
283977
359099
80478.6
123723
565015
270023
968919
823727
921685
185774
666004
355642
225767
110170
92041.4
876916
503970
81291
1.00493e+06
771696
31247.4
223548
189560
44924.7
460479
299680
89126.9
78737.3
734073
962143
95287.8
250239
257674
605221
585381
192189
197547
194840
204382
86987.3
89689.1
90937.6
88067.7
62116.8
1.06317e+06
738210
728854
912436
314022
148795
625864
302038
338566
381099
69946.4
753671
119223
539019
841285
237630
149004
1.01487e+06
202070
212674
158689
169446
458871
446064
122348
122178
73646.3
89640.8
151947
529280
468613
414490
207039
1.05107e+06
95330.1
107514
76608.3
406989
457524
245962
517071
214102
589554
186974
520671
408644
458630
589934
156284
260297
226916
194863
89542.5
107086
103209
107955
177534
141663
159649
770675
279581
340662
770682
110366
123939
90667.4
202608
261226
104373
128275
829557
99631.9
88522.9
99053.1
100134
89323.9
75319.6
139689
94298.7
102027
628373
765796
87267.9
76043.3
84825.6
146991
283642
878875
808397
410518
102172
85070
638947
95901.9
98807.3
1.06303e+06
363052
750022
167961
490330
253145
288318
105796
428838
476208
205427
155352
89378.9
179734
86364.2
51834.4
78149.8
872810
362415
363500
732912
129709
140768
92823.3
244965
87075
94009.6
108274
133453
138289
13911.9
136772
9601.3
96778
509536
133079
176771
383541
339576
301397
88930.2
910482
348440
152039
713006
350581
376135
88805.1
8615.23
87799.9
9152.79
672379
225432
227975
288622
260244
83501.5
835204
143025
116873
308223
235353
89418.4
18732.4
572135
111946
598977
125965
153759
302850
297959
246689
81247.9
261854
117214
130507
91842.6
98693
257117
265927
96992
141890
81896.4
83250.5
393009
182853
143590
95563.5
260459
6691.38
24921
257611
231086
189581
268738
319754
75039.7
957018
1.01925e+06
113879
94377
92644.9
108819
120243
12286.5
118919
10676.5
426589
139543
183346
949890
960412
730213
750278
317649
280153
266822
240790
815559
110311
202714
92512.5
77295
89164.6
132681
172502
238489
818195
839183
109444
58967.4
243449
272072
113889
424681
162460
144053
767846
91935
97839
116470
353413
346920
382787
243339
133859
175441
80268.4
73533.5
523297
76398.7
427375
59142.4
184613
292841
257490
512654
598285
96463.4
107020
156478
696819
4042.37
50769.5
15040.6
50502.9
119593
121547
77502.7
911044
16400.8
873200
227654
21779.8
7064.31
225157
121652
73878.8
8412.88
73095.4
153210
675009
149499
905115
968134
30258.5
215277
272477
245305
345188
154183
120281
399058
313117
60181.7
105674
133509
109843
219645
302818
103469
103746
939916
254804
291678
282078
322677
609347
93607.8
70677
510210
644646
255659
103415
114627
83163.4
150747
167632
97972.5
107090
132727
94999
66960.8
550946
658370
109763
210394
169760
177915
592974
231914
115494
111504
244454
251148
79385.9
133452
651310
768586
165536
127521
275975
351247
311521
76801.4
86478.3
129345
108635
598879
221652
74501.4
39345.2
37405.5
166107
130305
266453
338426
300971
92264.6
880091
986318
99743.4
84672.2
76922.7
72670
841024
141317
125318
326859
1.04985e+06
872045
187554
103071
196193
174990
123295
111107
135290
86927
93880.7
91725.7
154094
864023
90577.9
334981
362581
685952
482900
470775
171159
167566
213431
217384
151071
123978
118856
78888.9
89972.2
251278
98964.8
773136
491304
118074
88333.4
372897
1.02386e+06
83415.5
385738
319717
293896
398110
343404
141191
171544
438674
102332
323223
137853
146999
97506.3
240824
102636
124889
337294
158636
96076.5
86607.4
105835
365123
301357
104872
98817.8
104163
108968
91496.3
209503
160542
96202.4
156227
98065.8
100309
144249
928423
819254
582496
133556
118228
290413
257089
228024
131985
146489
64611.3
512583
90194.9
200036
275690
110859
146679
849490
67660.6
135131
124790
85064.5
861543
64107.4
102615
182014
216999
99119.7
91265.9
107660
80762.7
90998.9
568430
90396.4
69816.1
8591.99
69056.9
562254
492641
919274
650262
763488
102935
803321
496945
7776.46
56407
116479
108414
184161
202832
227246
315202
156011
671794
327875
370860
88837.8
78522.9
73216.4
87472.5
96534.2
86772.9
106935
453975
57006.4
906589
243581
86023.1
431906
245960
137449
179848
105108
90161.7
120414
198559
119144
260226
254487
100361
97606.7
257056
487111
74300.9
74314.1
117710
73849.8
90102.1
771014
149735
129112
367573
706163
204128
118726
256197
234766
260772
208668
134340
111955
89333.9
4574.88
36175.3
252418
211288
285619
661975
518464
585560
210412
247024
675999
596092
282616
528907
116436
149237
124403
152612
90691
108719
91785.8
248109
115117
108971
102812
171482
507957
219392
89102.1
97484.2
81055
91858.4
105654
145809
96760.4
85181.9
69207.5
396003
136242
167238
128691
154807
325070
275041
292320
237019
488706
138543
96889.8
154259
259114
193693
112954
137767
185931
90462.5
152322
98073.8
94928.5
211074
208627
102077
286870
102892
99616.4
574292
482307
84971.6
102144
832555
85656.8
116575
75782.9
101928
120966
346069
306436
270732
180028
176419
371259
104450
87107.1
91650.9
557110
109107
99345.8
121940
110793
90983.9
103261
73018.7
91170.3
650590
626668
166496
136914
100348
402967
349448
137739
176705
242440
99007.4
66819.2
88811.3
847590
242760
286374
60186.1
211766
101997
43996.7
92537.5
104162
107471
207769
92597.6
139758
116834
96908
1.01208e+06
146822
429194
121758
776486
258376
305179
162874
131804
424689
75764.6
92692.4
89434.2
147436
185812
158071
98648.6
57927.4
52932.6
341436
135670
119024
79443.6
82776.9
83923.7
82709.3
163223
130091
146107
51050.1
78662.1
730509
80133
1.04618e+06
182722
129149
416299
98686
83403.5
313160
106094
98870.6
461423
93539.1
241483
513892
456236
578145
86514
131768
169312
565361
535813
136446
85978.7
146727
148621
200042
230304
451749
199672
224180
516066
446549
502194
354886
398833
350721
394012
688436
191298
117203
858968
91521.1
100904
289958
736860
202100
114969
97306.6
87121.5
78956.2
98882.8
105707
80900.7
559569
128492
154879
291432
96378.7
367383
103201
157149
160473
249300
93192.3
93268.8
109801
85928.3
91075.6
113124
102322
94506.1
876825
108722
88029.9
145445
187690
73868.6
108656
107709
608207
114403
101460
98356.6
102557
82818.8
854873
129422
125923
299544
125100
114819
812863
589399
614696
178846
99938.8
717912
208322
234105
103827
393661
319000
377075
305379
529958
287694
677364
454542
601157
433590
255012
204450
72903.8
86573.6
717940
79590.1
89342.7
87918.3
92114.6
87587.3
77406.8
349384
364175
99013.5
211761
20348.5
2813.09
209438
106067
66877.1
686378
197919
285100
121038
108324
117350
93701.2
100323
169212
190748
87710.5
106052
224557
162415
126622
216970
452370
380327
71684
328740
276614
983046
504108
293993
567769
644435
255964
726061
223243
183386
494652
555266
631033
716286
258808
182023
295671
224817
91128.1
352579
67651.7
471511
466371
980956
95190.2
187099
508549
94775.8
278836
61000
70122.4
526805
87204.7
115942
291425
372020
840687
139702
157955
177811
91119.4
131863
158337
369070
175452
107266
95844.2
97925.1
99790.3
792949
324778
316231
664785
647325
131895
120757
164632
148087
332086
307892
589418
682764
373154
419273
476267
544104
153036
236472
181422
208474
553314
486720
432442
385183
149716
172818
200612
225124
100210
123902
506910
780820
131585
121115
134039
297181
321315
287598
254029
219413
122243
154675
1.08237e+06
75030.6
116236
410337
673063
572892
183501
232523
102244
38578.5
109906
591752
216986
908664
101282
120042
524948
689954
88137.7
376385
424755
335302
885744
265287
121857
144794
228954
115517
121638
280131
407438
198514
378399
313051
115283
266585
339080
300435
143054
184910
998975
800662
137785
99838.6
781865
98851.4
132221
139751
169912
177496
369257
377794
123981
104747
257502
230585
204989
276051
81742
543247
723055
336576
90007.4
96554.9
688358
294667
282294
351900
339299
744765
130477
172178
127017
101703
96384
170469
408220
99534.2
85746.4
91241.8
962434
749127
210551
123511
98038.9
136825
82355.7
247707
184114
203356
228509
110699
103031
97354.5
89019
847090
42497.5
704973
128312
141023
113466
104213
89202.8
93473.9
699177
80009.2
1.05743e+06
273319
207808
311879
283910
317965
252002
123573
155919
958217
225242
259440
118304
127696
264719
220777
1.03027e+06
285543
254202
320427
146226
115563
102491
847035
724510
690340
140304
102682
119666
103645
122266
233219
772795
135851
384056
166242
442006
471986
413821
165339
102594
94828
756567
138183
124166
304807
780576
96919.1
334317
115684
296966
266396
143941
131931
70926.4
195565
150230
418898
369518
329317
82352.5
440793
331251
354106
430393
3942.31