/*--------------------------------*- C++ -*----------------------------------*\
| =========                 |                                                 |
| \\      /  F ield         | OpenFOAM: The Open Source CFD Toolbox           |
|  \\    /   O peration     | Version:  2.3.1                                 |
|   \\  /    A nd           | Web:      www.OpenFOAM.org                      |
|    \\/     M anipulation  |                                                 |
\*---------------------------------------------------------------------------*/
FoamFile
{
    version     2.0;
    format      ascii;
    class       volVectorField;
    location    "1980";
    object      D;
}
// * * * * * * * * * * * * * * * * * * * * * * * * * * * * * * * * * * * * * //

dimensions      [0 1 0 0 0 0 0];

internalField   nonuniform List<vector> 
11800
(
(7.03184e-06 0.000202281 0)
(-8.92879e-06 0.000225226 0)
(4.97651e-06 6.86668e-05 0)
(-5.69489e-06 9.31714e-05 0)
(-8.159e-06 0.000224847 0)
(-3.69588e-06 9.33525e-05 0)
(-1.36825e-06 0.000152119 0)
(-1.30475e-06 0.000117497 0)
(5.96514e-07 1.82731e-05 0)
(1.07153e-06 7.12022e-05 0)
(7.80989e-06 0.000201805 0)
(-7.10314e-06 7.95235e-05 0)
(-7.14756e-09 -5.6909e-09 0)
(4.42173e-06 6.82558e-05 0)
(-5.05302e-06 9.35607e-05 0)
(4.94153e-06 1.12392e-05 0)
(-7.7391e-07 0.000151679 0)
(-7.51199e-07 0.000117079 0)
(3.33604e-07 1.84744e-05 0)
(6.56206e-07 7.08526e-05 0)
(-4.34651e-06 9.30116e-05 0)
(-6.50983e-06 7.98368e-05 0)
(-1.09414e-06 3.99299e-06 0)
(-1.16755e-06 4.15732e-06 0)
(4.40358e-06 1.28297e-05 0)
(-1.74591e-06 6.60461e-06 0)
(-6.99285e-06 4.76612e-05 0)
(1.00314e-05 0.000136456 0)
(-6.24644e-06 3.62319e-05 0)
(-5.42269e-06 2.61128e-05 0)
(1.06164e-05 0.000172212 0)
(4.29576e-08 3.11261e-06 0)
(2.26142e-06 8.47939e-06 0)
(-5.4369e-06 0.00023109 0)
(4.37388e-06 0.000230055 0)
(-1.21337e-05 0.000183829 0)
(4.07313e-06 0.000230844 0)
(2.22519e-06 8.71653e-06 0)
(-1.33795e-06 0.000160602 0)
(1.07307e-06 7.81288e-05 0)
(-6.87521e-06 4.81909e-05 0)
(-6.14752e-06 3.67056e-05 0)
(9.79968e-06 0.000135682 0)
(-5.3431e-06 2.65292e-05 0)
(1.03804e-05 0.000171398 0)
(4.71295e-06 1.13284e-05 0)
(1.25099e-06 4.72385e-06 0)
(1.39518e-06 4.64887e-06 0)
(-2.0909e-06 0.000160738 0)
(1.67998e-06 7.82377e-05 0)
(-1.15516e-05 0.000119041 0)
(-1.23227e-05 0.000153672 0)
(-1.15256e-06 0.000200135 0)
(6.12231e-08 2.95451e-06 0)
(-6.06478e-06 1.33726e-05 0)
(8.30809e-07 6.99659e-07 0)
(-1.51395e-05 0.000234241 0)
(-3.84263e-06 6.61296e-05 0)
(4.34114e-06 9.60799e-05 0)
(-2.79765e-06 6.35517e-05 0)
(1.65477e-06 2.22203e-06 0)
(-1.96839e-06 0.000200283 0)
(-3.3435e-06 6.59817e-05 0)
(3.78309e-06 9.62562e-05 0)
(4.12467e-06 1.26349e-05 0)
(-1.4453e-05 0.000207231 0)
(-1.19836e-05 0.000118526 0)
(-1.28271e-05 0.000153106 0)
(-1.43806e-05 0.000233865 0)
(-1.83173e-06 6.81788e-06 0)
(-4.84911e-06 0.000231735 0)
(-8.54422e-06 0.000230488 0)
(-8.792e-06 0.000229674 0)
(-7.89108e-08 8.99137e-08 0)
(1.76709e-06 2.31692e-06 0)
(-1.14306e-05 0.00018434 0)
(5.39342e-06 1.76906e-05 0)
(-1.46872e-05 0.000208 0)
(-1.16997e-05 0.000209746 0)
(-1.09321e-05 0.000210442 0)
(-5.78195e-06 1.31909e-05 0)
(8.52021e-07 8.10982e-05 0)
(8.01602e-06 0.000228694 0)
(7.15294e-06 0.000228834 0)
(-1.0596e-06 8.33266e-05 0)
(-5.20679e-06 2.93806e-05 0)
(9.59624e-06 0.000166009 0)
(-5.92987e-06 3.99476e-05 0)
(-6.58933e-06 5.18015e-05 0)
(9.03517e-06 0.000130573 0)
(-2.83119e-07 0.000195837 0)
(2.40497e-06 8.06267e-06 0)
(-7.27566e-06 0.000211088 0)
(1.49808e-05 0.000236023 0)
(2.36813e-06 0.000102564 0)
(-1.90447e-09 -1.4488e-09 0)
(4.91377e-11 -3.07156e-10 0)
(1.90093e-09 -1.44646e-09 0)
(-1.77223e-07 0.000202578 0)
(-6.74319e-06 8.12654e-05 0)
(1.28909e-05 0.000235184 0)
(7.82354e-06 8.92068e-05 0)
(-2.92196e-06 1.17547e-05 0)
(-6.63773e-07 9.08835e-06 0)
(-4.41083e-07 0.000223846 0)
(7.90872e-07 1.91088e-05 0)
(-1.66984e-06 0.000115794 0)
(-1.73245e-06 0.000150235 0)
(2.56334e-06 4.41521e-06 0)
(5.95351e-06 3.99291e-05 0)
(5.22951e-06 2.93638e-05 0)
(6.61474e-06 5.17805e-05 0)
(-9.76867e-06 0.000166029 0)
(-9.20053e-06 0.000130601 0)
(1.38897e-06 6.9766e-05 0)
(2.02829e-06 4.02831e-06 0)
(1.42875e-05 0.000208072 0)
(-5.87342e-06 0.000213543 0)
(2.06593e-06 3.882e-06 0)
(-1.00099e-06 7.20794e-05 0)
(-6.06236e-07 1.77941e-05 0)
(1.28984e-06 0.000153227 0)
(1.22557e-06 0.000118491 0)
(-1.82642e-06 0.000146996 0)
(-7.32298e-06 0.000211878 0)
(-6.60627e-07 0.00020195 0)
(-4.71181e-06 0.000223934 0)
(-1.11211e-06 0.000223329 0)
(-1.6247e-05 0.000241953 0)
(-1.68271e-05 0.000241371 0)
(-4.89094e-07 2.21591e-07 0)
(-2.20126e-06 5.21575e-06 0)
(9.84603e-06 0.000161117 0)
(-5.58431e-06 3.21002e-05 0)
(9.23745e-06 0.000125974 0)
(-6.31273e-06 4.30249e-05 0)
(-6.9768e-06 5.5206e-05 0)
(9.0832e-06 0.000161262 0)
(-5.14703e-06 3.20055e-05 0)
(8.52259e-06 0.000126109 0)
(-5.81991e-06 4.29203e-05 0)
(-6.43339e-06 5.50924e-05 0)
(-1.37043e-06 1.649e-05 0)
(3.17799e-06 0.000156136 0)
(2.96867e-06 0.000121298 0)
(-2.56377e-06 7.44071e-05 0)
(1.23286e-05 8.15965e-05 0)
(-1.229e-05 7.98346e-05 0)
(7.6949e-06 8.98473e-05 0)
(-9.27751e-07 9.64074e-06 0)
(-8.09594e-06 0.000194941 0)
(-8.02616e-06 0.000195966 0)
(3.91987e-06 0.000228306 0)
(-9.05154e-06 0.000184082 0)
(3.60587e-06 0.000130509 0)
(3.90857e-06 0.000165922 0)
(-1.00871e-05 0.000146365 0)
(-9.37437e-06 0.000112189 0)
(4.81735e-06 2.10429e-05 0)
(-7.61804e-07 0.000196566 0)
(2.7871e-06 4.49296e-06 0)
(-8.27401e-06 0.000184263 0)
(5.64528e-06 1.79444e-05 0)
(-3.73827e-06 5.3896e-05 0)
(-3.37518e-06 4.18313e-05 0)
(-2.97712e-06 3.1034e-05 0)
(5.02014e-06 0.000127595 0)
(5.34494e-06 0.000162851 0)
(-2.47088e-06 3.09259e-06 0)
(-4.43585e-06 2.02501e-05 0)
(9.37315e-06 0.000147972 0)
(8.70388e-06 0.000113698 0)
(2.07685e-06 0.000150071 0)
(-1.382e-05 0.000182981 0)
(-1.39592e-05 0.000184069 0)
(5.07202e-06 1.28513e-05 0)
(5.07753e-06 1.32031e-05 0)
(5.51042e-06 3.87849e-05 0)
(6.13573e-06 5.05113e-05 0)
(4.82612e-06 2.83541e-05 0)
(-8.65363e-06 0.000132343 0)
(-9.17721e-06 0.000167892 0)
(3.66861e-06 0.0001297 0)
(3.93045e-06 0.00016509 0)
(4.01167e-06 7.95201e-05 0)
(-1.94515e-06 7.4241e-05 0)
(-1.04442e-06 1.65744e-05 0)
(2.40017e-06 0.000155929 0)
(2.24099e-06 0.000121104 0)
(-3.17044e-06 0.000192298 0)
(-1.09414e-06 3.43603e-05 0)
(-1.23068e-06 4.55812e-05 0)
(-1.18964e-05 0.000205648 0)
(-3.40722e-07 7.92213e-06 0)
(-1.15287e-05 9.76169e-05 0)
(9.9601e-06 6.50038e-05 0)
(1.19299e-07 1.165e-07 0)
(-7.12992e-06 0.000231456 0)
(1.41878e-05 0.000208904 0)
(-4.26391e-07 2.57994e-07 0)
(9.33727e-06 0.000218881 0)
(1.16703e-05 0.000187285 0)
(1.25184e-05 0.000187437 0)
(-3.90022e-07 0.000224972 0)
(-9.75165e-07 0.000225688 0)
(6.65616e-06 6.34501e-05 0)
(5.8771e-06 6.37282e-05 0)
(-7.86914e-06 9.92603e-05 0)
(-6.93571e-06 9.89161e-05 0)
(4.80954e-07 2.1797e-07 0)
(-1.33961e-06 1.15514e-05 0)
(-1.51219e-06 6.46463e-06 0)
(-3.56768e-08 1.34781e-08 0)
(4.58371e-06 7.64818e-06 0)
(-1.11004e-07 3.53965e-08 0)
(5.91102e-07 6.35034e-06 0)
(-8.08391e-06 0.000223797 0)
(-3.98348e-06 2.86825e-05 0)
(-4.53409e-06 3.91693e-05 0)
(-5.0459e-06 5.09423e-05 0)
(7.39304e-06 0.000167229 0)
(6.98667e-06 0.000131733 0)
(4.58292e-07 0.000155643 0)
(4.25546e-07 0.000120834 0)
(-2.20884e-07 1.66922e-05 0)
(-4.15033e-07 7.40224e-05 0)
(-1.62978e-07 2.71126e-08 0)
(6.10967e-07 2.08321e-05 0)
(-1.23962e-06 0.000112399 0)
(-3.69591e-06 7.15253e-05 0)
(8.56342e-07 2.05288e-05 0)
(-1.73588e-06 0.000112987 0)
(-5.53279e-06 0.00021185 0)
(6.84683e-06 8.00953e-05 0)
(6.37808e-06 7.94875e-05 0)
(3.54337e-08 1.33911e-08 0)
(1.62335e-07 2.70006e-08 0)
(-1.07055e-05 0.000197287 0)
(-1.02998e-05 0.000198117 0)
(-1.01923e-05 6.7958e-05 0)
(1.1392e-05 9.41763e-05 0)
(9.07437e-06 0.000167821 0)
(8.55313e-06 0.000132281 0)
(-4.84202e-06 2.83961e-05 0)
(-5.53168e-06 3.88299e-05 0)
(-6.15993e-06 5.05614e-05 0)
(-3.52097e-07 0.000201148 0)
(-4.10108e-06 1.93808e-05 0)
(8.85932e-06 0.000149804 0)
(8.23885e-06 0.0001154 0)
(5.46393e-06 8.09226e-05 0)
(4.57423e-06 0.000189777 0)
(7.19707e-06 0.000236305 0)
(7.57897e-07 6.25886e-06 0)
(-2.7174e-06 6.41966e-05 0)
(-1.00199e-08 2.32937e-06 0)
(1.10421e-07 3.52224e-08 0)
(2.58153e-06 6.76956e-05 0)
(2.21931e-06 6.69971e-05 0)
(-2.82925e-06 9.43489e-05 0)
(-2.42674e-06 9.50377e-05 0)
(5.01072e-06 5.09261e-05 0)
(4.50328e-06 3.91549e-05 0)
(3.94821e-06 2.86748e-05 0)
(-7.04629e-06 0.000131734 0)
(-7.47588e-06 0.000167251 0)
(-3.97093e-06 0.000231525 0)
(1.3946e-06 1.72165e-06 0)
(-1.98652e-08 0.000133762 0)
(-2.35732e-08 2.74701e-05 0)
(5.22673e-06 0.000223452 0)
(4.28957e-06 7.89513e-05 0)
(-1.66582e-05 0.000220821 0)
(4.93075e-06 8.14999e-05 0)
(1.99625e-07 1.48431e-07 0)
(1.36652e-05 0.000180737 0)
(1.37444e-05 0.00017973 0)
(-8.41035e-06 0.000115546 0)
(-9.04233e-06 0.000149954 0)
(-7.51587e-06 0.000115258 0)
(-8.08262e-06 0.000149647 0)
(4.119e-06 1.93095e-05 0)
(3.69173e-06 1.94364e-05 0)
(4.0666e-06 0.000106236 0)
(4.84097e-06 0.000106114 0)
(4.40262e-06 0.000139929 0)
(5.24299e-06 0.000139795 0)
(-2.30442e-06 2.41875e-05 0)
(-2.74289e-06 2.42654e-05 0)
(-4.90804e-07 1.09526e-05 0)
(2.44892e-06 7.00855e-06 0)
(2.29279e-06 6.76789e-06 0)
(2.34465e-06 5.1318e-06 0)
(3.90791e-06 0.000190587 0)
(-1.35983e-05 0.000181068 0)
(-1.3671e-05 0.000180022 0)
(5.23446e-06 1.43411e-05 0)
(5.13255e-06 1.39355e-05 0)
(1.08146e-05 8.16147e-05 0)
(1.09592e-05 8.25197e-05 0)
(-1.07768e-05 7.97726e-05 0)
(-1.08348e-05 7.88822e-05 0)
(4.84103e-06 0.000228154 0)
(-1.33462e-05 0.000231111 0)
(-1.28283e-05 0.000194776 0)
(3.11226e-06 3.54961e-06 0)
(-7.84755e-06 0.000228229 0)
(-7.00979e-06 0.000227451 0)
(3.30454e-06 0.000107438 0)
(-2.08135e-06 9.66667e-05 0)
(1.82495e-06 6.56298e-05 0)
(-9.24287e-06 8.1917e-05 0)
(9.02091e-06 7.93945e-05 0)
(-4.46425e-06 1.40959e-05 0)
(-1.32927e-07 8.52441e-08 0)
(7.06613e-07 2.92628e-06 0)
(8.10436e-07 6.99847e-05 0)
(-7.79625e-06 7.04743e-05 0)
(8.33134e-06 9.11876e-05 0)
(-4.50081e-06 6.42219e-05 0)
(5.28803e-06 9.83405e-05 0)
(2.6571e-06 0.000170414 0)
(3.67418e-06 0.00017005 0)
(-1.61374e-06 3.72083e-05 0)
(-2.2228e-06 3.74305e-05 0)
(-1.80333e-06 4.87662e-05 0)
(-2.48264e-06 4.90129e-05 0)
(4.21466e-07 1.89792e-05 0)
(-9.21229e-07 0.000116051 0)
(-9.31441e-07 0.000150526 0)
(-1.49656e-06 0.000219759 0)
(2.1439e-06 5.09944e-06 0)
(-4.35484e-07 9.42117e-05 0)
(-6.34724e-06 0.000225237 0)
(8.95403e-07 7.25575e-07 0)
(5.64252e-06 0.000134396 0)
(-3.13193e-06 2.71704e-05 0)
(-9.61841e-06 9.51988e-05 0)
(-9.03509e-06 9.4729e-05 0)
(8.40806e-06 6.70109e-05 0)
(7.92417e-06 6.74139e-05 0)
(-9.49616e-06 0.000234825 0)
(-9.60049e-06 0.000233823 0)
(-1.60842e-06 1.10205e-05 0)
(-1.90617e-06 1.0979e-05 0)
(7.73701e-07 3.06614e-06 0)
(-1.84345e-06 3.18106e-06 0)
(4.2912e-07 9.88126e-05 0)
(2.7911e-06 1.96591e-05 0)
(2.34539e-06 1.97836e-05 0)
(-5.65983e-06 0.000114759 0)
(-4.74855e-06 0.000114491 0)
(-6.08793e-06 0.000149118 0)
(-5.10854e-06 0.000148831 0)
(-1.231e-05 0.000188543 0)
(-1.13929e-05 0.000188617 0)
(-2.73498e-06 5.75262e-05 0)
(-2.5348e-06 4.51083e-05 0)
(-2.25208e-06 3.39403e-05 0)
(3.86643e-06 0.000176018 0)
(-6.87561e-07 0.000199208 0)
(8.11443e-06 7.93191e-05 0)
(7.68131e-06 8.00016e-05 0)
(3.56753e-06 0.000152442 0)
(3.41655e-06 0.000117808 0)
(-1.65714e-06 1.81338e-05 0)
(1.54082e-06 2.02873e-05 0)
(1.26583e-06 2.06795e-05 0)
(-2.80739e-06 0.000146967 0)
(-3.3362e-06 0.000147719 0)
(-3.09653e-06 0.000113472 0)
(-2.52732e-06 0.000112703 0)
(-3.28729e-06 1.8609e-05 0)
(6.74114e-06 0.00011691 0)
(7.23968e-06 0.000151429 0)
(-9.13891e-08 8.72582e-07 0)
(1.20569e-05 9.0396e-05 0)
(-1.11383e-05 7.14077e-05 0)
(-5.18357e-08 8.12154e-07 0)
(-3.6454e-06 0.000167787 0)
(-4.27177e-06 0.000168703 0)
(-3.34957e-06 0.000132314 0)
(-3.91908e-06 0.000133182 0)
(2.14515e-06 2.78279e-05 0)
(1.84584e-06 2.83128e-05 0)
(2.52635e-06 3.82431e-05 0)
(2.1659e-06 3.87943e-05 0)
(2.816e-06 4.99174e-05 0)
(2.41148e-06 5.05311e-05 0)
(1.3531e-05 0.000188903 0)
(1.37833e-05 0.000189858 0)
(-1.31334e-06 6.51727e-06 0)
(5.07179e-06 0.000135059 0)
(-2.79786e-06 2.67983e-05 0)
(4.53011e-06 2.12229e-05 0)
(-8.77678e-06 0.000111821 0)
(-9.46643e-06 0.000145947 0)
(-1.29425e-07 3.94241e-08 0)
(1.73879e-06 0.000196823 0)
(4.47517e-06 2.02536e-05 0)
(-8.89772e-06 0.000113694 0)
(-9.59008e-06 0.000147935 0)
(3.43144e-06 5.9534e-06 0)
(-6.71085e-06 0.000213237 0)
(4.30341e-06 1.61892e-05 0)
(-1.05842e-05 0.000175264 0)
(-2.32e-06 8.73738e-06 0)
(-2.47441e-06 9.05607e-06 0)
(2.41735e-06 8.96177e-06 0)
(-1.16413e-06 9.40671e-05 0)
(-9.12873e-09 -6.71839e-09 0)
(-7.12491e-06 0.000233545 0)
(-1.16019e-07 4.63311e-08 0)
(1.2869e-07 3.92103e-08 0)
(-3.37318e-06 1.96244e-05 0)
(7.22568e-06 0.000149228 0)
(6.71621e-06 0.000114862 0)
(5.55679e-06 0.000197131 0)
(-1.60393e-05 0.000211422 0)
(2.04616e-06 8.80971e-05 0)
(-1.34502e-06 8.58131e-05 0)
(-3.76985e-07 9.14086e-06 0)
(-1.05507e-06 1.11661e-06 0)
(-6.58943e-09 -5.93396e-09 0)
(-4.03857e-06 6.48166e-05 0)
(4.73906e-06 9.76577e-05 0)
(3.59089e-07 1.26242e-07 0)
(-5.51605e-07 8.456e-05 0)
(-5.21372e-07 8.37497e-05 0)
(-2.96438e-08 7.10911e-05 0)
(-1.04962e-07 1.83637e-05 0)
(1.60534e-07 0.000117305 0)
(1.41769e-07 0.000151977 0)
(-3.61546e-07 1.27111e-07 0)
(1.45946e-06 9.88265e-06 0)
(-5.54845e-06 0.000172427 0)
(3.19688e-06 3.60372e-05 0)
(3.57983e-06 4.74555e-05 0)
(3.926e-06 6.00875e-05 0)
(1.16003e-05 0.000224215 0)
(-4.37322e-06 1.75682e-05 0)
(9.95067e-06 0.000153856 0)
(9.28385e-06 0.000119179 0)
(-6.60801e-06 0.000206907 0)
(9.88894e-07 2.55973e-06 0)
(8.86237e-06 0.000203085 0)
(-1.9684e-06 3.13322e-06 0)
(6.20378e-06 0.000225102 0)
(-4.78553e-06 0.000172446 0)
(2.75069e-06 3.60219e-05 0)
(3.08029e-06 4.74395e-05 0)
(3.38034e-06 6.00666e-05 0)
(8.63703e-07 2.42657e-06 0)
(4.08748e-06 0.000138456 0)
(-2.17775e-06 2.49576e-05 0)
(-7.45615e-07 9.84218e-06 0)
(-1.16797e-05 0.000203803 0)
(-4.39138e-06 5.40938e-05 0)
(-3.96616e-06 4.20114e-05 0)
(-3.49991e-06 3.11947e-05 0)
(5.8626e-06 0.000127388 0)
(6.24252e-06 0.000162629 0)
(1.59964e-05 0.000237566 0)
(9.30358e-06 0.000208616 0)
(1.03171e-05 0.000208259 0)
(1.34922e-07 9.5602e-08 0)
(5.8253e-06 6.4457e-05 0)
(-6.82663e-06 9.80528e-05 0)
(-2.98803e-06 6.53701e-05 0)
(3.44477e-06 9.70401e-05 0)
(-1.01452e-06 0.000104461 0)
(-7.73516e-07 0.000168876 0)
(4.72915e-07 4.97898e-05 0)
(4.24512e-07 3.81264e-05 0)
(1.63944e-08 2.6908e-05 0)
(-1.82137e-07 0.000101537 0)
(-9.15654e-08 0.000134813 0)
(7.31028e-06 0.000237247 0)
(4.2098e-07 1.01353e-05 0)
(-1.88207e-07 2.36354e-06 0)
(1.38827e-06 0.000143057 0)
(7.06485e-08 2.44386e-06 0)
(-1.11694e-06 7.58419e-06 0)
(2.75183e-06 2.68425e-05 0)
(-5.14306e-06 0.000134972 0)
(-1.05775e-07 1.18671e-07 0)
(-1.08194e-05 0.000203708 0)
(-9.25963e-07 1.80151e-05 0)
(1.90213e-06 0.000152782 0)
(1.88945e-06 0.000118035 0)
(2.52595e-07 6.06747e-08 0)
(-3.29715e-06 6.0517e-06 0)
(3.56325e-06 4.86209e-05 0)
(3.18915e-06 3.70808e-05 0)
(-5.45683e-06 0.000170659 0)
(1.04428e-06 6.73664e-05 0)
(-7.32637e-06 0.000230553 0)
(-1.27126e-07 1.78351e-08 0)
(-4.30548e-06 9.4414e-06 0)
(2.7922e-06 5.21721e-06 0)
(-2.82776e-06 3.13042e-06 0)
(8.1679e-06 8.07589e-05 0)
(6.19467e-06 9.8072e-05 0)
(-5.36976e-06 6.44353e-05 0)
(3.78649e-07 2.66353e-05 0)
(-9.03979e-07 0.000101918 0)
(-7.58677e-07 0.000135311 0)
(7.7498e-06 0.000200791 0)
(7.25004e-06 8.83841e-05 0)
(3.74622e-06 0.000232325 0)
(3.60826e-06 0.000233188 0)
(1.0395e-06 9.76188e-05 0)
(1.43141e-06 6.68662e-05 0)
(1.26616e-07 1.77599e-08 0)
(-1.04572e-05 0.000182175 0)
(3.87546e-06 1.34506e-05 0)
(1.3296e-08 1.90374e-07 0)
(1.98433e-06 0.000130445 0)
(2.59835e-06 0.000130894 0)
(3.67516e-09 1.67297e-08 0)
(-2.05452e-06 5.04987e-06 0)
(4.99286e-06 4.94271e-05 0)
(4.4753e-06 3.78074e-05 0)
(3.91151e-06 2.74501e-05 0)
(-7.13564e-06 0.00013377 0)
(-7.55981e-06 0.000169478 0)
(6.5931e-06 8.41561e-05 0)
(9.41657e-07 0.000197033 0)
(-4.27178e-06 0.000222035 0)
(-4.0455e-06 0.000223201 0)
(-4.28775e-07 0.000171592 0)
(-3.704e-07 0.000172528 0)
(2.83497e-07 3.5942e-05 0)
(2.57431e-07 3.64693e-05 0)
(3.17048e-07 4.7353e-05 0)
(2.87527e-07 4.79424e-05 0)
(2.0201e-07 5.99738e-05 0)
(2.44298e-07 6.06021e-05 0)
(5.03579e-07 9.79417e-05 0)
(9.37797e-07 9.94996e-05 0)
(1.6363e-06 0.000151019 0)
(-4.37459e-07 0.000104208 0)
(-2.53658e-07 6.094e-08 0)
(-2.83479e-07 2.25464e-06 0)
(3.59839e-06 0.000137727 0)
(-1.9366e-06 2.53415e-05 0)
(9.8287e-07 3.12416e-06 0)
(1.40848e-05 0.000225311 0)
(-1.09325e-06 0.000173276 0)
(6.65765e-07 3.55409e-05 0)
(7.45888e-07 4.69042e-05 0)
(7.31473e-07 5.94545e-05 0)
(-1.07967e-05 0.000189511 0)
(3.72775e-06 6.84471e-05 0)
(5.48135e-06 0.000239081 0)
(6.20119e-06 0.000238552 0)
(-1.11007e-06 7.81868e-06 0)
(-7.03252e-07 0.000133066 0)
(3.56629e-07 2.78589e-05 0)
(1.65644e-07 1.7229e-07 0)
(1.38205e-05 0.000231633 0)
(-1.98115e-07 3.97086e-06 0)
(-2.64921e-06 4.02912e-05 0)
(-2.94241e-06 5.21922e-05 0)
(-3.5179e-06 5.27351e-05 0)
(-3.17032e-06 4.07819e-05 0)
(-2.3013e-06 2.96612e-05 0)
(-2.78149e-06 3.01061e-05 0)
(4.56726e-06 0.000129174 0)
(4.85962e-06 0.000164537 0)
(2.05214e-06 2.83507e-06 0)
(-1.33e-07 8.15938e-08 0)
(-1.19642e-05 0.000157072 0)
(-1.24601e-05 0.000231164 0)
(4.05785e-06 9.9422e-05 0)
(-3.62098e-07 4.06278e-06 0)
(-6.48695e-06 0.000128941 0)
(-6.89563e-06 0.000164281 0)
(3.73945e-06 3.02867e-05 0)
(4.24585e-06 4.0983e-05 0)
(4.70837e-06 5.29548e-05 0)
(5.97275e-06 0.000197782 0)
(1.35895e-05 0.000232452 0)
(-7.38275e-06 8.14781e-05 0)
(3.06533e-06 2.71629e-05 0)
(-5.70128e-06 0.00013439 0)
(3.88175e-06 0.000100188 0)
(-1.49976e-06 7.16413e-05 0)
(3.94719e-06 4.90312e-05 0)
(3.53548e-06 3.74496e-05 0)
(-6.01308e-06 0.000170049 0)
(-1.09676e-05 8.24041e-05 0)
(1.06715e-05 7.90424e-05 0)
(1.06699e-05 7.99152e-05 0)
(-1.0825e-05 8.14774e-05 0)
(-5.15788e-06 1.39284e-05 0)
(-5.30765e-06 1.43585e-05 0)
(-5.09701e-06 7.99052e-05 0)
(-2.66423e-06 3.20532e-06 0)
(-8.23631e-06 8.05115e-05 0)
(-1.2135e-06 0.000190601 0)
(-1.09223e-06 1.32472e-06 0)
(8.29769e-06 4.7207e-05 0)
(7.40739e-06 3.58309e-05 0)
(-1.16203e-05 0.000120069 0)
(1.879e-06 4.9062e-05 0)
(1.68331e-06 3.74739e-05 0)
(-2.89556e-06 0.000169972 0)
(3.93814e-06 1.20264e-05 0)
(6.40857e-06 9.72853e-05 0)
(-5.59145e-06 6.51205e-05 0)
(-3.14313e-06 3.56701e-06 0)
(3.27286e-06 0.000151619 0)
(3.13228e-06 0.000117071 0)
(-1.5379e-06 1.8489e-05 0)
(9.52426e-06 0.000143243 0)
(-4.76778e-06 2.2563e-05 0)
(8.8092e-06 0.000109315 0)
(-5.45676e-06 1.37443e-05 0)
(6.69972e-06 0.000222479 0)
(7.68673e-06 0.000222156 0)
(7.40696e-06 0.000169483 0)
(7.02695e-06 0.000133784 0)
(-3.91872e-06 2.75283e-05 0)
(-4.46317e-06 3.7804e-05 0)
(-4.98037e-06 4.94233e-05 0)
(-1.15101e-06 1.14884e-06 0)
(-5.91552e-06 0.000206697 0)
(6.43059e-06 0.000132314 0)
(-3.64214e-06 2.83473e-05 0)
(-6.99791e-07 8.84043e-07 0)
(5.4843e-06 0.000224957 0)
(1.38778e-06 1.15518e-06 0)
(1.15168e-06 8.76684e-07 0)
(2.90312e-06 4.18102e-06 0)
(6.63568e-06 0.000181083 0)
(-1.12823e-05 0.000186031 0)
(1.49788e-05 0.000225597 0)
(2.9393e-06 4.39386e-06 0)
(6.60038e-06 8.83575e-05 0)
(9.01063e-06 0.000191921 0)
(-1.45238e-05 0.000181549 0)
(5.45034e-06 1.37738e-05 0)
(-3.3485e-06 0.000193118 0)
(1.35789e-06 4.9213e-05 0)
(1.21694e-06 3.7609e-05 0)
(-2.1077e-06 0.000169742 0)
(-5.20384e-07 2.52403e-06 0)
(3.84384e-06 0.000104845 0)
(1.14653e-07 4.58156e-08 0)
(-4.55214e-06 9.35062e-06 0)
(-8.02373e-07 8.63413e-05 0)
(-2.03186e-06 1.69039e-05 0)
(-2.36355e-06 1.70145e-05 0)
(4.36878e-06 0.000120428 0)
(5.07437e-06 0.000120206 0)
(5.43523e-06 0.000154965 0)
(4.67897e-06 0.000155203 0)
(1.34276e-07 5.13178e-07 0)
(-3.82919e-08 6.32225e-06 0)
(-7.90325e-06 0.000108309 0)
(-8.55196e-06 0.000142157 0)
(4.27511e-06 2.30918e-05 0)
(-2.53677e-06 1.38026e-05 0)
(-1.49238e-06 0.000146131 0)
(-2.30923e-06 5.94686e-06 0)
(4.58432e-06 0.000222833 0)
(-3.74776e-06 7.36528e-05 0)
(-4.34018e-06 7.34691e-05 0)
(1.32153e-07 1.36407e-07 0)
(-2.48734e-06 7.61498e-05 0)
(-1.28077e-06 1.55612e-05 0)
(2.85974e-06 0.000123351 0)
(3.05616e-06 0.00015833 0)
(-3.46655e-06 0.000146155 0)
(-3.05756e-06 0.000111957 0)
(1.55296e-06 2.10706e-05 0)
(2.08655e-06 7.96569e-06 0)
(1.93811e-06 7.67833e-06 0)
(9.79089e-07 7.34399e-05 0)
(-1.301e-06 0.000154908 0)
(-1.22207e-06 0.000120133 0)
(5.36026e-07 1.70187e-05 0)
(-1.20685e-06 2.91953e-05 0)
(-2.17448e-06 6.11194e-06 0)
(8.55568e-06 0.000228039 0)
(-8.39115e-06 0.000136897 0)
(6.48142e-06 6.48655e-05 0)
(-7.55944e-06 9.75952e-05 0)
(9.12101e-06 0.000192781 0)
(-8.48403e-06 5.96689e-05 0)
(-7.74549e-06 4.70695e-05 0)
(1.02845e-05 0.000103825 0)
(-6.91104e-06 3.57062e-05 0)
(-5.99911e-06 2.56709e-05 0)
(1.12075e-05 0.000137321 0)
(1.18374e-05 0.00017317 0)
(-3.09508e-06 0.000165764 0)
(-2.91622e-06 0.000130332 0)
(1.86153e-06 4.00329e-05 0)
(1.63648e-06 2.94439e-05 0)
(2.06761e-06 5.19068e-05 0)
(1.77945e-06 4.06036e-05 0)
(-2.94053e-06 0.000164842 0)
(1.97427e-06 5.25396e-05 0)
(1.56658e-06 2.99466e-05 0)
(-2.76895e-06 0.000129464 0)
(-1.64316e-06 0.000209925 0)
(-3.39386e-06 4.48385e-06 0)
(-3.64781e-06 2.08722e-05 0)
(7.57291e-06 0.000146611 0)
(7.0241e-06 0.000112431 0)
(-2.29013e-06 2.80476e-05 0)
(4.07295e-06 0.000132817 0)
(1.12376e-05 0.000164261 0)
(1.05676e-05 0.000128932 0)
(-6.19224e-06 3.03657e-05 0)
(-7.03213e-06 4.10598e-05 0)
(-7.79805e-06 5.30299e-05 0)
(1.18389e-05 0.000179164 0)
(1.29232e-05 0.000178938 0)
(2.9485e-07 5.39996e-06 0)
(-1.21625e-06 8.49415e-05 0)
(-3.27436e-06 9.11763e-06 0)
(1.68404e-07 3.20401e-07 0)
(-3.21893e-06 1.15634e-05 0)
(-5.20548e-07 0.000190979 0)
(1.31043e-07 5.16918e-06 0)
(-2.62804e-06 9.0967e-05 0)
(1.07511e-05 0.00012014 0)
(-4.99045e-06 1.71554e-05 0)
(1.15138e-05 0.000154881 0)
(-1.11872e-08 -7.75321e-09 0)
(7.023e-07 0.000143192 0)
(2.12233e-07 8.9737e-08 0)
(1.44771e-07 1.08086e-07 0)
(1.89845e-06 0.000103178 0)
(-2.42817e-07 1.98916e-07 0)
(8.74408e-06 0.000229736 0)
(6.39196e-07 0.000130857 0)
(-3.63841e-07 2.91072e-05 0)
(1.95212e-06 1.17698e-05 0)
(1.19183e-06 0.000130453 0)
(-6.98065e-07 2.93184e-05 0)
(-1.20878e-07 2.62813e-06 0)
(-8.3165e-06 4.71843e-05 0)
(-7.4223e-06 3.58114e-05 0)
(-6.44391e-06 2.57697e-05 0)
(-5.3762e-06 1.71965e-05 0)
(1.15744e-05 0.000120094 0)
(1.20212e-05 0.000137172 0)
(1.23958e-05 0.00015483 0)
(1.27014e-05 0.000173014 0)
(-5.64696e-06 0.000186577 0)
(-5.02022e-06 0.000221606 0)
(-1.61846e-05 0.000183192 0)
(5.94832e-06 1.31938e-05 0)
(3.67245e-06 0.000234869 0)
(4.27473e-06 0.000233861 0)
(1.13357e-06 0.000127588 0)
(1.22904e-06 0.000162863 0)
(-9.06317e-07 5.39584e-05 0)
(-8.17954e-07 4.18847e-05 0)
(-7.21027e-07 3.10776e-05 0)
(-4.73642e-06 1.3781e-05 0)
(1.72093e-06 9.90212e-06 0)
(-6.33396e-06 5.6506e-05 0)
(8.28051e-06 0.000124209 0)
(-5.74204e-06 4.42019e-05 0)
(-5.0927e-06 3.31424e-05 0)
(8.8389e-06 0.000159237 0)
(-3.59744e-06 1.52634e-05 0)
(8.94815e-06 0.000177565 0)
(1.5017e-06 8.13871e-05 0)
(-9.5883e-07 0.00019821 0)
(9.57264e-07 4.80859e-07 0)
(-7.05676e-07 0.000174186 0)
(4.3822e-07 3.50153e-05 0)
(4.91281e-07 4.63159e-05 0)
(4.52844e-07 5.88077e-05 0)
(2.7874e-06 0.000205308 0)
(-3.96902e-07 2.54128e-07 0)
(1.42058e-05 0.000202038 0)
(-2.16148e-06 8.62186e-05 0)
(-6.71671e-08 1.46706e-07 0)
(5.08066e-06 0.000122292 0)
(-2.29351e-06 1.60562e-05 0)
(5.43257e-06 0.000157196 0)
(1.15511e-07 9.12368e-08 0)
(-3.07363e-06 1.93494e-05 0)
(6.16269e-06 0.000115393 0)
(6.62725e-06 0.000149801 0)
(1.07523e-06 1.42778e-06 0)
(-4.36985e-06 7.52653e-05 0)
(9.05868e-07 8.0431e-05 0)
(-9.86739e-06 0.000215851 0)
(8.92761e-07 0.000128277 0)
(9.51531e-07 0.00016358 0)
(-7.67433e-07 5.34431e-05 0)
(-6.07922e-07 3.06678e-05 0)
(-6.91947e-07 4.14186e-05 0)
(1.45389e-06 8.19839e-05 0)
(-2.12878e-07 8.17683e-07 0)
(-1.89417e-07 2.76516e-06 0)
(4.14147e-07 0.00019067 0)
(9.72324e-06 8.80982e-05 0)
(-9.16765e-06 7.3474e-05 0)
(-6.93136e-06 0.000241408 0)
(-1.57159e-05 0.000158149 0)
(-1.47146e-05 0.000123208 0)
(-1.52589e-05 0.000140391 0)
(-1.40806e-05 0.000106699 0)
(7.82646e-06 2.41511e-05 0)
(9.06717e-06 3.39277e-05 0)
(1.02004e-05 4.50609e-05 0)
(1.12335e-05 5.74307e-05 0)
(1.56519e-05 0.000158148 0)
(1.51958e-05 0.000140391 0)
(-7.858e-06 2.41531e-05 0)
(-9.10473e-06 3.39306e-05 0)
(1.46524e-05 0.000123208 0)
(-1.02444e-05 4.50629e-05 0)
(1.40219e-05 0.000106698 0)
(-1.12824e-05 5.74332e-05 0)
(-4.55968e-06 1.33982e-05 0)
(-2.45101e-06 0.000197791 0)
(-1.75325e-06 0.000197603 0)
(-2.17678e-06 0.00022386 0)
(3.56776e-06 0.000136042 0)
(-1.9569e-06 2.62492e-05 0)
(-7.11027e-07 1.06054e-06 0)
(-2.81163e-06 0.000236531 0)
(-3.10644e-06 5.15087e-05 0)
(-3.80277e-06 5.13163e-05 0)
(-2.79377e-06 3.96754e-05 0)
(-3.41903e-06 3.95033e-05 0)
(4.52021e-06 0.00016664 0)
(5.43282e-06 0.000166717 0)
(1.19627e-05 0.000163837 0)
(1.1246e-05 0.000128535 0)
(-6.61625e-06 3.06138e-05 0)
(-7.50834e-06 4.13382e-05 0)
(-8.32183e-06 5.3336e-05 0)
(-7.28484e-06 0.000108688 0)
(-7.87998e-06 0.000142568 0)
(3.91753e-06 2.2873e-05 0)
(-2.30312e-06 9.74321e-05 0)
(1.93308e-06 6.49737e-05 0)
(2.34613e-06 0.000171325 0)
(-1.41233e-06 3.66097e-05 0)
(-1.58035e-06 4.80984e-05 0)
(-1.70837e-06 6.0667e-05 0)
(4.49412e-06 6.42057e-05 0)
(3.80576e-06 6.43685e-05 0)
(-5.29244e-06 9.83168e-05 0)
(-4.48396e-06 9.81168e-05 0)
(-5.31344e-06 0.000234768 0)
(3.66348e-07 1.0187e-06 0)
(8.78684e-06 0.000202258 0)
(3.17747e-06 7.12529e-05 0)
(8.6223e-06 0.000140245 0)
(-4.47002e-06 2.40763e-05 0)
(7.95396e-06 0.000106542 0)
(-7.44514e-06 8.53026e-05 0)
(1.82229e-06 1.82605e-05 0)
(-4.14692e-06 0.00015212 0)
(-3.86627e-06 0.000117552 0)
(5.01387e-07 7.41125e-05 0)
(-6.57349e-07 0.000120927 0)
(-6.97277e-07 0.000155756 0)
(2.72145e-07 1.66488e-05 0)
(5.00255e-06 6.71772e-05 0)
(-5.72244e-06 9.48958e-05 0)
(-2.74069e-06 0.000209922 0)
(-1.26218e-05 0.000207926 0)
(2.24569e-06 9.05603e-05 0)
(5.66406e-06 9.08421e-05 0)
(-4.68211e-06 1.77486e-05 0)
(1.06035e-05 0.000153478 0)
(9.89011e-06 0.000118827 0)
(-5.25439e-07 2.24543e-06 0)
(-1.72372e-06 0.000175388 0)
(9.51216e-07 3.43174e-05 0)
(1.0688e-06 4.55334e-05 0)
(1.16721e-06 5.7956e-05 0)
(-2.63371e-06 8.58008e-05 0)
(-1.1701e-05 0.000207996 0)
(-3.42053e-06 3.43585e-05 0)
(-3.84579e-06 4.55747e-05 0)
(-4.21892e-06 5.80243e-05 0)
(5.93712e-06 0.000175327 0)
(1.12014e-08 1.49138e-08 0)
(7.34167e-06 8.46249e-05 0)
(9.20416e-08 6.73728e-06 0)
(-3.59724e-07 6.34625e-07 0)
(-7.45657e-07 2.90199e-06 0)
(-3.54417e-06 1.23271e-05 0)
(-3.67826e-07 1.35747e-07 0)
(1.4493e-06 3.87542e-05 0)
(1.27601e-06 2.83002e-05 0)
(1.61356e-06 5.04876e-05 0)
(-2.46164e-06 0.000167844 0)
(-2.33432e-06 0.000132326 0)
(-7.17768e-06 7.03237e-05 0)
(7.7274e-06 9.13833e-05 0)
(-7.28385e-07 4.32736e-07 0)
(9.3437e-06 0.000222555 0)
(6.73373e-06 0.00019923 0)
(-1.44046e-05 0.000187597 0)
(5.33368e-06 9.01463e-05 0)
(1.91097e-06 9.78409e-05 0)
(-3.64109e-06 0.000236425 0)
(-1.01247e-05 0.000102463 0)
(-9.6317e-06 0.000102015 0)
(1.41854e-05 0.000236355 0)
(-1.15676e-06 0.000210963 0)
(-3.22744e-06 6.47137e-05 0)
(3.82823e-06 9.78215e-05 0)
(1.1509e-07 6.97224e-06 0)
(1.81077e-06 2.47531e-06 0)
(3.64707e-07 1.34588e-07 0)
(3.38047e-06 0.000104167 0)
(1.24994e-05 0.000241184 0)
(-6.87926e-06 0.000167873 0)
(-6.48184e-06 0.000132322 0)
(3.60495e-06 2.83333e-05 0)
(4.58798e-06 5.04984e-05 0)
(4.12025e-06 3.8769e-05 0)
(-1.33973e-07 9.466e-08 0)
(-5.34308e-07 0.000219534 0)
(6.42474e-06 9.11075e-05 0)
(-5.89112e-06 7.06785e-05 0)
(-1.02982e-05 0.000214239 0)
(-1.53723e-05 0.000158953 0)
(-1.49283e-05 0.000141168 0)
(-1.44021e-05 0.000123959 0)
(-1.3786e-05 0.000107417 0)
(7.58879e-06 2.374e-05 0)
(8.80593e-06 3.34541e-05 0)
(9.91773e-06 4.45299e-05 0)
(1.09314e-05 5.68476e-05 0)
(1.53069e-05 0.000158948 0)
(1.48653e-05 0.000141167 0)
(-7.61964e-06 2.37435e-05 0)
(-8.84235e-06 3.34582e-05 0)
(1.4338e-05 0.000123956 0)
(-9.96037e-06 4.45334e-05 0)
(1.37259e-05 0.000107414 0)
(-1.0979e-05 5.68516e-05 0)
(-2.31018e-06 3.12668e-06 0)
(9.09034e-07 8.65613e-07 0)
(-1.21734e-06 2.2477e-06 0)
(5.71924e-06 8.94093e-05 0)
(-6.31205e-06 9.20398e-05 0)
(1.15849e-06 1.41228e-06 0)
(-1.80806e-07 3.02132e-08 0)
(-1.38523e-05 0.000188046 0)
(7.89834e-06 0.000238762 0)
(8.86658e-06 0.000239211 0)
(1.80144e-07 3.00995e-08 0)
(2.6045e-06 3.50499e-06 0)
(1.23823e-05 0.000217457 0)
(-4.74592e-06 0.000101658 0)
(-3.20154e-07 2.83972e-07 0)
(-7.23314e-07 1.13493e-06 0)
(-1.13276e-07 2.90121e-08 0)
(2.11622e-07 1.66623e-07 0)
(1.28693e-05 8.119e-05 0)
(-1.28763e-05 8.02602e-05 0)
(3.94641e-06 6.13918e-05 0)
(-4.86457e-06 9.98163e-05 0)
(4.09707e-06 6.29531e-05 0)
(-2.20219e-07 3.73915e-06 0)
(-2.99519e-06 0.000158922 0)
(2.35178e-06 7.66481e-05 0)
(-1.6798e-06 0.00015721 0)
(-1.60991e-06 0.000122214 0)
(6.91899e-07 1.60648e-05 0)
(1.28522e-06 7.52714e-05 0)
(-5.29119e-06 0.000101145 0)
(2.77535e-06 3.71229e-06 0)
(4.42202e-06 6.18508e-05 0)
(1.62534e-06 9.06976e-05 0)
(1.24437e-05 0.000224531 0)
(-3.82871e-06 9.14383e-05 0)
(-4.39942e-06 9.20538e-05 0)
(-3.63871e-06 7.83276e-06 0)
(-4.26617e-06 9.49494e-05 0)
(-3.6511e-06 9.42976e-05 0)
(3.77805e-06 6.70681e-05 0)
(3.31629e-06 6.77231e-05 0)
(-4.05739e-06 1.89457e-05 0)
(8.25411e-06 0.000116278 0)
(8.86898e-06 0.000150747 0)
(-1.13427e-06 1.27586e-06 0)
(-5.30129e-06 0.000100342 0)
(4.45241e-06 6.25342e-05 0)
(-3.37999e-06 0.000128805 0)
(-3.59229e-06 0.000164141 0)
(1.9342e-06 3.03358e-05 0)
(2.43377e-06 5.30267e-05 0)
(2.19527e-06 4.10438e-05 0)
(-1.7969e-06 8.45727e-06 0)
(-1.10334e-05 0.00013577 0)
(-1.04566e-05 0.000135345 0)
(5.91628e-06 2.6496e-05 0)
(5.6267e-06 2.67244e-05 0)
(7.25173e-06 0.000107996 0)
(7.97495e-06 0.000107469 0)
(-3.99956e-06 2.32532e-05 0)
(-4.42723e-06 2.35585e-05 0)
(7.85038e-06 0.00014182 0)
(8.63748e-06 0.000141248 0)
(-3.18471e-06 0.000209157 0)
(6.29353e-06 0.000191103 0)
(6.38449e-06 0.000190217 0)
(-4.72732e-06 6.29591e-05 0)
(5.48842e-06 9.97918e-05 0)
(-1.65904e-05 0.000232899 0)
(-4.78978e-06 0.000186049 0)
(-4.60067e-06 0.000185182 0)
(1.62379e-06 1.22596e-05 0)
(1.66945e-06 1.19494e-05 0)
(1.42818e-05 0.000188101 0)
(-6.37753e-06 8.05834e-05 0)
(-5.47754e-06 8.06114e-05 0)
(1.41288e-05 0.000212219 0)
(-1.43304e-05 0.000223651 0)
(-1.4312e-05 0.00022471 0)