/*--------------------------------*- C++ -*----------------------------------*\
| =========                 |                                                 |
| \\      /  F ield         | OpenFOAM: The Open Source CFD Toolbox           |
|  \\    /   O peration     | Version:  2.3.1                                 |
|   \\  /    A nd           | Web:      www.OpenFOAM.org                      |
|    \\/     M anipulation  |                                                 |
\*---------------------------------------------------------------------------*/
FoamFile
{
    version     2.0;
    format      ascii;
    class       volScalarField;
    location    "3500";
    object      sigmaEq;
}
// * * * * * * * * * * * * * * * * * * * * * * * * * * * * * * * * * * * * * //

dimensions      [1 -1 -2 0 0 0 0];

internalField   nonuniform List<scalar> 
11800
(
181637
129292
599679
509332
125232
357457
169569
184626
197967
211348
180527
727960
93649.7
540228
460954
1.99965e+06
132154
132543
239728
146112
405685
657591
870810
780153
1.63854e+06
1.02658e+06
1.06965e+06
531167
1.16544e+06
1.26229e+06
353233
122918
1.02856e+06
135842
142025
339780
144024
1.09636e+06
143501
154823
1.10863e+06
1.20802e+06
558069
1.3093e+06
372636
1.87233e+06
833859
971669
170587
252039
763766
538905
140335
227425
2.13384e+06
1.75391e+06
69216.4
499164
389153
373232
1.75091e+06
154258
396427
326327
1.60679e+06
242403
785474
557918
69054.2
949416
143778
120083
116122
1.67588e+06
1.73392e+06
330040
1.67914e+06
229810
184568
188660
2.16927e+06
129852
125322
127634
129095
1.21675e+06
379174
1.1212e+06
1.02804e+06
553635
139111
1.2246e+06
158212
65939.2
193932
159721
20705.7
159701
141653
640625
80187.9
706119
1.16242e+06
402590
150382
342537
188866
163948
1.70945e+06
1.13015e+06
1.22654e+06
1.03624e+06
384489
561638
230977
1.54361e+06
225890
148433
1.44953e+06
217906
209628
171085
190256
145777
155429
139041
141503
141129
101020
29520.3
1.96412e+06
1.30791e+06
411344
1.21987e+06
589794
1.12186e+06
1.0274e+06
360005
1.04417e+06
511315
960346
879731
525409
202269
253169
343149
1.2586e+06
1.28949e+06
735760
387005
213515
205783
141220
269703
247062
192222
488732
672653
1.34087e+06
147164
1.96414e+06
238499
1.70968e+06
493229
536116
580214
293889
222286
2.1157e+06
1.31708e+06
466721
642485
160655
384091
382427
1.87249e+06
1.89287e+06
1.00002e+06
917411
1.08556e+06
489969
336208
260897
211169
463909
223544
346242
157616
178376
167391
248956
232342
220882
204989
952306
1.2105e+06
1.73611e+06
128097
229204
2.04389e+06
142393
295544
331151
145485
150339
876263
733260
673922
557976
1.96225e+06
602302
888735
2.67124e+06
2.23176e+06
2.26564e+06
352338
134646
857451
786138
722172
271234
389164
133980
133713
236664
142815
1.29333e+06
263275
144741
482565
219013
180853
142979
677331
691579
2.66769e+06
1.29166e+06
229653
240265
1.18733e+06
972329
336475
489519
1.08508e+06
1.00271e+06
919714
149723
1.17699e+06
412226
566833
531153
159102
129990
422492
374085
150286
2.26303e+06
292864
337183
242500
279187
722667
787036
852214
387791
273205
143336
1.72182e+06
164994
85982.4
140521
426097
157235
557759
2.00925e+06
400293
396805
600139
434600
500483
364193
1.23754e+06
1.03504e+06
331242
413534
264009
316742
570410
749242
274562
1.21257e+06
1.30072e+06
1.56503e+06
175760
395843
393449
1.81066e+06
1.82757e+06
1.09017e+06
1.07284e+06
1.11216e+06
1.10088e+06
138212
94319.5
299403
2.34508e+06
125685
132060
309962
255051
273193
952215
975247
1.62255e+06
2.26739e+06
707673
189994
909581
751851
525241
429050
169213
177569
267800
474244
249418
439078
130226
173731
167510
148722
1.29165e+06
168219
131643
1.88435e+06
318680
724899
803120
782225
988309
951420
107036
105932
654534
856076
591675
1.53225e+06
124127
847789
659610
432225
326726
322268
247462
328633
284083
376329
412722
445176
159781
141646
793453
841905
184707
229120
471666
399079
448946
204482
191755
239825
244304
920810
443710
327869
366155
1.10686e+06
1.28548e+06
351700
202176
190945
257351
239289
449102
521510
425438
499326
392153
460369
347197
329283
670034
339620
743696
1.28247e+06
643929
471937
2.07637e+06
138119
1.3468e+06
661830
480941
2.00484e+06
147123
1.37858e+06
341208
1.16188e+06
1.07235e+06
1.0429e+06
193618
88157.4
126623
2.39869e+06
2.07463e+06
919477
328976
444952
181814
238868
271939
149586
210545
1.5884e+06
64009
567654
434700
1.75302e+06
109873
178954
152844
152469
152072
153208
1.7544e+06
586974
235687
677642
623818
573634
119898
1.31322e+06
428975
599701
169453
866902
188740
1.6816e+06
137943
199163
490623
452437
416539
879392
234331
490131
433112
229633
681421
742157
805300
388228
279318
66506
172947
191920
2.17927e+06
745517
587829
425428
349987
186262
153411
112813
112983
194303
101795
117695
126266
165536
330834
149524
193289
588608
711860
335547
1.55626e+06
204859
369030
154487
181832
1.50789e+06
1.97088e+06
615722
669897
245138
218195
122376
1.32028e+06
1.91469e+06
1.69295e+06
2.44944e+06
794132
554706
728105
123804
186479
171380
190790
722422
146446
144500
126004
181429
1.31885e+06
293718
1.33379e+06
794498
171668
219814
1.09158e+06
1.37795e+06
717979
782078
844834
383503
270951
653780
143985
145207
141751
162293
129349
190195
98585.5
183598
97928.2
180995
86898.3
176367
161736
168466
115983
1.50981e+06
233607
249700
556792
885770
122638
153150
132701
129744
115514
291277
421226
130989
130106
578175
122311
182322
1.63985e+06
81620.3
164641
514098
473075
495665
537417
551497
581901
271995
204517
1.89576e+06
2.34595e+06
486422
87422.8
346021
337297
370795
263819
791113
730820
671116
172389
85339.5
764579
715240
318667
353710
178494
610941
664084
231147
1.07648e+06
1.09048e+06
1.10321e+06
1.09324e+06
1.85933e+06
1.81935e+06
571187
2.22751e+06
803211
139332
1.55592e+06
1.36279e+06
1.48433e+06
756642
306727
332069
185906
1.58557e+06
522048
659248
2.35741e+06
210853
259145
517142
501065
1.31569e+06
681644
1.96419e+06
137897
135151
269313
384456
853813
784105
720090
1.80124e+06
152209
392204
843077
1.28219e+06
135098
2.11235e+06
1.97594e+06
2.04504e+06
237472
321971
123325
2.09103e+06
598489
242421
411665
1.95984e+06
147917
245009
260338
143340
481335
294776
2.39774e+06
2.09599e+06
203966
593327
758655
290645
342946
256261
226231
639465
193700
588244
435002
1.11664e+06
977529
171090
1.28e+06
142565
401801
493908
1.71274e+06
324272
439923
246127
203179
187155
218771
416465
973010
1.07214e+06
142776
137814
138933
184364
347527
1.29788e+06
116458
445889
805179
626902
225694
1.06804e+06
1.18338e+06
766666
1.28919e+06
1.39858e+06
577808
379222
161792
191941
360822
384739
335165
370006
193260
341400
398774
234557
142840
2.43376e+06
1.04201e+06
391248
528282
486717
236598
421058
614558
1.32606e+06
1.22088e+06
1.11841e+06
344113
406408
201789
215777
1.51692e+06
1.11987e+06
1.29201e+06
153756
202331
285799
672361
1.49388e+06
476452
95120.5
155194
2.21422e+06
2.08121e+06
249000
1.90602e+06
114518
163210
122150
723284
129916
225763
251430
1.3413e+06
1.46129e+06
1.58422e+06
1.71133e+06
770912
656039
545395
430401
194253
136710
422697
2.09617e+06
145475
142177
155672
148438
154961
161228
167104
1.62331e+06
820137
835821
491265
911970
991866
347589
1.16191e+06
278250
231198
151954
2.18923e+06
143080
170955
164432
171456
142867
1.99211e+06
279967
277356
1.07523e+06
350428
739047
264578
2.02844e+06
887367
442094
330578
1.37029e+06
490088
189952
159720
142622
137805
237999
262819
251095
181672
494243
159059
139702
864320
965811
121847
612761
880927
747320
1.01342e+06
1.89952e+06
1.7552e+06
1.61251e+06
1.47067e+06
612539
746568
1.90286e+06
1.75823e+06
880215
1.61557e+06
1.0133e+06
1.47357e+06
1.70172e+06
159016
137353
150022
248361
538993
1.18576e+06
143573
448520
612528
485534
666679
197856
254446
444294
648831
1.39123e+06
1.28074e+06
1.17292e+06
556424
413146
1.04313e+06
212703
268888
170886
346995
322176
292891
597448
467216
480134
356937
135497
723631
199383
365797
450312
1.11784e+06
604976
707391
574936
210028
271977
190574
168017
159657
183279
629385
532171
145977
218978
238747
489295
1.46351e+06
477765
669542
509765
162670
228412
214693
197958
269049
194714
648483
596871
544747
213840
1.5854e+06
736114
223032
973264
655093
1.40425e+06
1.91601e+06
236468
263917
222257
152183
161427
781136
665179
1.99522e+06
134892
189154
366102
540260
235453
144421
788614
780243
62461.6
141200
379913
308842
93358.6
1.74449e+06
1.91523e+06
314120
125195
284520
399795
853414
720737
785449
2.18687e+06
139334
618238
696159
170072
636507
777409
917564
1.05524e+06
1.98919e+06
1.83877e+06
1.68958e+06
1.54179e+06
636027
776464
1.99135e+06
1.84028e+06
915621
1.69133e+06
1.05441e+06
1.54321e+06
1.86074e+06
1.60276e+06
1.20877e+06
508109
579785
1.60229e+06
1.1944e+06
351685
124139
118988
1.19299e+06
2.11378e+06
160210
436345
1.74575e+06
1.19183e+06
1.91652e+06
1.95513e+06
1.24811e+06
1.25155e+06
573316
455442
594522
256096
188229
316889
162931
196625
238339
202288
434477
2.04735e+06
593780
203312
123363
381700
409672
1.85975e+06
387318
350108
442619
470063
1.20549e+06
567659
410636
1.55529e+06
439272
570568
207473
172388
396918
342687
370084
920294
593988
576356
1.39931e+06
1.33851e+06
569668
601132
1.05582e+06
1.13429e+06
424903
445116
141457
190852
199790
579543
451023
78892.5
169853
194559
677277
645125
348291
676361
523472
208362
128785
129144
538801
1.29337e+06
129098
1.91452e+06
276336
770119
707133
219905
274709
459587
153678
132351
1.6289e+06
409811
1.05607e+06
974107
894010
328023
476020
170927
1.48088e+06
1.94444e+06
180387
150355
1.06844e+06
389792
531175
917939
1.00012e+06
1.09629e+06
331886
480058
64134.3
783260
405214
1.93718e+06
329839
1.11642e+06
920987
1.03309e+06
145019
147928
150355
160393
160759
141683
1.6101e+06
497189
187494
218594
241211
271468
336820
373728
766722
742534
707580
683024
628198
649696
1.12842e+06
172001
143491
139767
188120
214915
153192
172616
1.34109e+06
275240
500382
423740
1.09258e+06
573002
202461
211417
471972
366065
650430
532327
1.31163e+06
1.14888e+06
1.05866e+06
970310
539598
1.51224e+06
744362
1.51217e+06
266934
222975
287784
280507
196203
179582
194052
1.53336e+06
2.00006e+06
354817
119598
263873
594271
460909
130919
157661
261096
246875
254803
237169
312122
293791
222046
503443
558831
544178
604114
461406
513006
570245
135700
1.23971e+06
982298
520885
1.25254e+06
1.17694e+06
687269
1.99934e+06
376627
357872
405829
435306
200744
166376
179640
380093
149893
1.66784e+06
219049
146116
826732
61442.5
121351
1.66305e+06
190967
427333
1.36237e+06
625619
1.25498e+06
1.14991e+06
1.49959e+06
996824
163093
629483
503638
213206
1.41288e+06
643830
216603
1.17603e+06
1.0714e+06
1.2805e+06
140936
143515
164659
2.41633e+06
288647
448908
548080
250230
145287
143558
432417
467723
184809
1.66474e+06
437167
1.67484e+06
255966
830301
143046
661716
791936
1.0529e+06
422028
567215
679735
276649
2.36268e+06
171465
121968
147183
2.01943e+06
1.32767e+06
332099
487572
1.10693e+06
1.02446e+06
940140
2.07875e+06
631284
511707
2.08388e+06
2.35253e+06
1.61913e+06
86881.4
557093
1.37332e+06
1.02974e+06
559658
417356
1.03125e+06
919876
425038
1.40534e+06
339341
280575
526452
463307
353858
1.63656e+06
2.48252e+06
129508
142436
168356
2.37476e+06
165067
191700
729075
559488
2.10448e+06
2.20432e+06
141067
624737
218609
207596
516964
223291
135159
558452
132956
150608
2.49518e+06
1.08243e+06
600062
448884
404154
290417
821145
757424
694370
216821
2.22999e+06
438530
396154
447861
1.86827e+06
759154
1.11302e+06
154531
241399
182190
836563
508852
677800
129922
291082
396191
840683
296909
191635
164493
323693
2.07959e+06
300178
404485
833098
1.34436e+06
1.89964e+06
1.27755e+06
875682
686358
812211
85531.2
240866
333078
711105
655625
602856
1.89865e+06
150917
194436
208547
208159
208746
203436
298356
142180
143306
680297
1.71562e+06
483299
1.07136e+06
987394
906223
333109
1.93908e+06
616952
702643
840585
724627
1.18585e+06
1.89644e+06
571804
152472
739495
121919
887741
532729
968975
1.05419e+06
379116
1.22755e+06
303285
2.57359e+06
880658
144910
1.76697e+06
2.58034e+06
2.2216e+06
523531
139916
992270
171598
160485
120326
280636
154292
157899
136826
142597
1.60244e+06
1.68204e+06
143756
1.10905e+06
180449
171236
141894
233179
1.14604e+06
1.15218e+06
263707
1.16655e+06
1.16974e+06
1.51373e+06
498391
187889
233655
317798
636695
691660
236064
62658.2
164136
760478
358686
874103
983967
1.07585e+06
1.17045e+06
600866
424576
315051
176769
153367
1.92774e+06
1.06175e+06
133324
221493
944603
735329
399113
432652
200378
177709
328460
290581
119145
222644
154538
1.6163e+06
625368
1.52234e+06
145977
136932
2.58151e+06
138533
2.00202e+06
1.97439e+06
144068
916925
460599
1.58542e+06
157626
865273
993373
2.16432e+06
241481
154039
131404
490305
232346
315348
636008
582260
534859
158701
130557
181089
172158
1.1201e+06
1.23435e+06
843077
1.44307e+06
1.32481e+06
1.53449e+06
2.19578e+06
274829
700352
2.09134e+06
620136
1.96966e+06
931463
1.01493e+06
1.1019e+06
487387
332016
411515
484103
1.82356e+06
167624
194803
285410
270285
251881
186238
375700
346525
324384
800180
820699
2.43074e+06
266955
127678
177131
1.92492e+06
552021
297481
286989
1.87913e+06
969054
669048
110788
203164
131491
954824
1.21819e+06
309927
1.38075e+06
190015
184511
2.50607e+06
1.64387e+06
2.01222e+06
389206
515151
904427
286426
710575
2.08679e+06
2.213e+06
187183
215266
360861
295464
1.03487e+06
1.15573e+06
790029
890003
2.31718e+06
2.14238e+06
274807
184532
110252
1.52587e+06
127272
2.01247e+06
403393
303531
1.08052e+06
344340
144347
1.87239e+06
214708
276840
110433
131202
1.39536e+06
477642
147920
756315
358844
199892
150302
133517
695181
134544
1.90923e+06
1.72337e+06
314022
848059
481628
146162
162395
1.47929e+06
180454
993978
255558
547117
1.14208e+06
1.30473e+06
1.82286e+06
197408
313813
1.99307e+06
250340
159373
147893
173728
135327
2.04497e+06
1.59055e+06
364894
500679
870684
868249
1.14103e+06
400798
549321
397426
575758
1.23008e+06
1.1332e+06
1.03831e+06
1.63207e+06
764350
546422
1.58273e+06
550028
1.72165e+06
641834
708086
1.89736e+06
2.57772e+06
2.20408e+06
430051
423113
1.18097e+06
560169
407430
139578
357437
1.82754e+06
155721
180826
2.32578e+06
1.73695e+06
2.00671e+06
919967
1.14111e+06
1.15105e+06
993445
129478
121543
182837
124220
713030
776111
843992
392740
276790
609524
2.03434e+06
155556
207829
174689
162147
1.04005e+06
940148
193727
1.809e+06
2.04936e+06
1.20182e+06
980795
1.64713e+06
1.89744e+06
124853
909912
578704
1.25907e+06
169073
268165
287025
1.6156e+06
1.60933e+06
746017
373034
119173
142545
235990
495270
1.6929e+06
225908
1.2979e+06
156372
375526
256608
339153
582398
300057
462005
44885.3
12970.1
461363
2.41254e+06
209667
173603
175664
138459
128486
187141
193717
141219
143339
535398
139713
152244
186977
1.00188e+06
1.23607e+06
888744
1.6911e+06
2.14699e+06
150922
207622
391076
172430
1.5284e+06
218624
2.24957e+06
241484
313124
605011
447392
239148
246568
572537
134957
158090
198332
127988
190504
125290
1.99022e+06
112458
161428
290000
127415
97099.4
1.9139e+06
212816
1.65488e+06
1.75741e+06
637958
414415
332282
481846
1.08487e+06
1.01078e+06
927635
137312
1.20044e+06
626065
134312
2.04528e+06
142051
148500
378071
1.12229e+06
891953
990222
1.36658e+06
197719
151256
423010
625598
1.36945e+06
727095
1.48198e+06
524158
1.26118e+06
1.15578e+06
417680
1.47104e+06
517955
1.3541e+06
614824
1.24768e+06
1.1433e+06
716833
1.49078e+06
188933
615110
479144
155298
195880
1.66562e+06
1.03234e+06
1.39959e+06
1.30164e+06
1.13582e+06
1.40724e+06
1.0372e+06
395408
433625
641068
1.55032e+06
152683
2.30655e+06
186741
152117
1.74138e+06
205805
324126
639444
635592
1.88774e+06
117066
1.19505e+06
1.10243e+06
1.01073e+06
368316
539987
2.31509e+06
388411
298215
690960
181441
723131
333781
354543
129069
206650
215545
186836
550280
127768
677438
363571
276569
920722
1.22749e+06
1.23343e+06
920294
451162
2.18308e+06
141010
141997
1.95236e+06
1.76656e+06
1.07189e+06
2.56841e+06
1.14485e+06
986797
1.0249e+06
2.28306e+06
1.13206e+06
904725
2.02738e+06
436207
458459
676493
1.78457e+06
114713
1.52426e+06
182368
266761
412756
691922
754309
819113
401305
287476
465009
78452.1
84028
152710
161860
221233
183199
147157
200849
1.13249e+06
2.07629e+06
248389
185638
1.91294e+06
1.38186e+06
544767
738485
152435
160005
1.66307e+06
1.10186e+06
237005
875460
820600
1.10033e+06
135585
152397
158807
137153
1.29753e+06
2.10347e+06
2.0575e+06
1.39557e+06
2.22962e+06
282746
127086
364168
1.10642e+06
1.0145e+06
1.20102e+06
545681
371144
2.34365e+06
513110
646326
845395
275903
235566
979005
347545
179231
740809
282887
365450
2.17648e+06
373813
330897
1.16086e+06
1.07113e+06
983313
494706
1.484e+06
1.39686e+06
1.83195e+06
571345
591322
752320
1.55965e+06
738840
530341
1.38626e+06
267996
2.5787e+06
172740
1.96843e+06
524423
599954
142688
638034
1.22227e+06
149833
175570
171170
2.27667e+06
666639
610595
721346
356460
258268
328442
647281
1.48924e+06
653752
1.27512e+06
1.50685e+06
1.39051e+06
436609
1.41018e+06
1.07088e+06
1.1341e+06
1.34273e+06
1.41228e+06
1.07191e+06
1.14406e+06
1.35155e+06
780792
656246
50674.2
315310
194294
447698
659886
549305
764918
1.54388e+06
1.42853e+06
1.31531e+06
1.20511e+06
443181
1.23362e+06
608633
170691
118747
124463
212999
113932
526150
1.24646e+06
1.27462e+06
454010
2.11388e+06
175834
157308
1.64817e+06
2.04498e+06
102451
1.30121e+06
513487
694744
970266
544399
347334
156255
514429
737453
70220.6
144521
2.14014e+06
283852
214158
516799
475243
560122
361178
142207
147958
368259
1.28915e+06
1.99969e+06
2.31533e+06
354989
394455
1.66165e+06
1.49794e+06
1.95193e+06
122334
1.0896e+06
1.90058e+06
2.32901e+06
2.4029e+06
2.34591e+06
609333
1.06036e+06
456404
2.20758e+06
1.66457e+06
680551
1.43878e+06
161147
144379
1.7128e+06
1.7146e+06
145631
462863
2.1345e+06
1.78983e+06
1.70094e+06
1.76032e+06
2.41275e+06
1.63686e+06
2.11942e+06
1.83463e+06
162298
290578
1.34939e+06
646727
1.10687e+06
233427
154692
195754
180685
166157
218245
194963
458396
2.12455e+06
1.29102e+06
452390
624681
1.38173e+06
182015
641099
448511
2.46861e+06
343911
332865
615630
350708
570694
252489
198084
2.0092e+06
16493.7
161107
160844
33149.1
495792
535078
192049
210507
224256
157174
570908
558976
139012
2.14288e+06
1.82997e+06
653910
1.37809e+06
470620
134020
1.60817e+06
355464
2.12926e+06
585947
716375
846927
976162
1.85586e+06
1.71699e+06
1.57788e+06
1.44224e+06
585051
714668
1.85613e+06
1.71635e+06
844261
1.57765e+06
973843
1.44127e+06
324251
249199
604809
654863
577779
274269
225393
192798
155798
145938
164926
140239
147087
248248
992892
1.06623e+06
952535
533601
1.03773e+06
1.14365e+06
1.77552e+06
750039
604443
1.89563e+06
633064
217428
134700
186431
154166
299546
275260
279462
150243
404867
318748
410676
841398
149444
221113
1.00417e+06
161534
119121
147856
126921
1.4957e+06
178253
210825
703165
560933
275947
702609
227682
136975
124781
2.25063e+06
2.31565e+06
1.39771e+06
1.14417e+06
1.11555e+06
1.42128e+06
2.26781e+06
1.17191e+06
137893
756110
420253
321993
463818
222713
2.15516e+06
235509
1.26603e+06
1.16933e+06
1.07245e+06
563938
382796
664010
387683
296023
2.17764e+06
250190
138050
714402
713424
324151
204185
248289
418022
860166
1.63098e+06
680526
542969
1.01319e+06
1.32667e+06
360745
525250
1.14273e+06
1.05234e+06
964721
543571
585527
950368
781020
1.0984e+06
583036
1.20767e+06
1.31522e+06
381233
1.42645e+06
2.56265e+06
1.80833e+06
122441
865103
944538
1.02749e+06
316129
215584
1.55452e+06
269423
353949
440157
482635
206163
262506
212650
168542
1.4783e+06
1.13478e+06
1.19072e+06
1.42655e+06
332928
1.81048e+06
2.24453e+06
828613
147361
849419
926485
1.00822e+06
948625
1.10374e+06
308566
1.76453e+06
772779
714437
654327
774732
280580
389335
225754
209892
486629
573989
528580
606897
662039
718880
439160
435599
625973
628874
1.27588e+06
1.26945e+06
1.07418e+06
1.17333e+06
1.06836e+06
1.16726e+06
635649
691690
247749
156371
177416
210212
1.27704e+06
813718
145414
1.29418e+06
1.07342e+06
1.02856e+06
1.33281e+06
213317
464392
1.67119e+06
704170
1.54105e+06
1.41391e+06
115963
277241
1.15441e+06
681095
482249
1.5309e+06
537349
75107.2
1.17032e+06
1.07353e+06
1.27087e+06
568515
384975
1.57326e+06
605282
489893
2.08941e+06
607453
858945
206502
152466
351282
328165
300363
1.77942e+06
440614
297007
503484
463036
543265
273594
209054
1.17787e+06
1.32293e+06
212962
755064
160765
1.0159e+06
2.03568e+06
1.2786e+06
623591
467274
1.11595e+06
569422
507643
419101
275327
173006
423483
209280
514848
208122
353105
149462
167235
2.13168e+06
428885
1.81418e+06
1.03839e+06
1.11784e+06
603747
451445
1.07651e+06
1.94175e+06
126862
154108
157558
148954
385050
37266.6
12328.2
384511
808054
149809
853834
379748
264511
178316
567747
792801
1.66149e+06
136547
108599
177714
206476
444601
286548
1.12209e+06
1.00058e+06
243140
159204
128028
2.1612e+06
808149
138181
315081
155251
2.46853e+06
2.00727e+06
314219
235499
876996
423238
600177
1.18392e+06
995720
1.08825e+06
2.32237e+06
1.84796e+06
153276
1.73274e+06
2.33742e+06
1.82482e+06
2.02855e+06
877050
180306
1.18037e+06
288999
180468
221601
433161
471250
345864
344544
783254
256109
175221
132841
1.14091e+06
1.39336e+06
1.51773e+06
1.64518e+06
1.76159e+06
786879
671234
554087
436203
275777
128659
544214
25238
266725
266337
13703.5
587183
294203
231708
94286.3
368919
418364
143747
377063
1.13425e+06
883022
609144
431163
492404
2.13756e+06
1.63574e+06
217835
701441
143141
153908
599349
706335
731221
1.45217e+06
422558
461361
149102
1.93146e+06
158650
338128
394106
367395
1.39961e+06
1.52408e+06
790306
848396
847242
598756
768960
1.44197e+06
1.37278e+06
1.37051e+06
472151
653977
120802
132713
125008
293507
139375
635142
1.33021e+06
1.18104e+06
1.44728e+06
1.05638e+06
1.45751e+06
1.05515e+06
718164
479442
1.27602e+06
934256
1.27759e+06
937447
308308
1.4099e+06
1.18198e+06
1.03569e+06
1.34906e+06
1.1942e+06
1.47271e+06
1.0707e+06
1.47253e+06
1.06998e+06
1.33614e+06
2.47262e+06
538401
755268
1.60167e+06
588555
147285
157031
247866
24530.3
247497
21688.5
144116
455482
1.41323e+06
1.2959e+06
1.53394e+06
679835
471183
2.19005e+06
74873.9
137843
276872
948313
312580
862163
424018
2.22718e+06
2.24687e+06
1.34616e+06
161099
294822
1.51775e+06
805213
645518
439146
799608
732832
867051
303349
424296
2.2874e+06
537330
2.03561e+06
146284
143301
138052
144972
98558.9
2.0106e+06
164077
1.47818e+06
96151
1.08049e+06
1.37628e+06
164766
146430
210333
618489
220418
521455
479408
352311
381506
412892
176811
379751
512200
634101
426397
1.44103e+06
1.33009e+06
1.21962e+06
1.50546e+06
2.01286e+06
2.22118e+06
133172
130767
132168
143882
294247
173339
318323
2.23019e+06
2.2762e+06
2.27843e+06
1.74358e+06
68883.6
1.20361e+06
2.07986e+06
1.41608e+06
1.11668e+06
1.13995e+06
1.39737e+06
687287
611190
1.23223e+06
810114
1.4568e+06
108791
262844
335590
645869
266271
262288
299093
202122
232714
170641
198316
452020
454828
493549
491557
532795
532993
625538
617188
149222
147086
587565
379615
115597
221947
868250
1.45918e+06
149706
874607
1.8908e+06
583395
1.79819e+06
822022
229032
1.67601e+06
886841
745607
1.1816e+06
2.01493e+06
2.40573e+06
944442
401505
2.02574e+06
290285
213140
182579
450731
99833.4
853014
1.48967e+06
385877
584141
236674
143162
252949
2.17928e+06
390091
455098
439596
324927
929320
291988
231413
922918
203662
1.97921e+06
157545
1.17081e+06
433329
470665
1.83598e+06
1.55795e+06
941845
1.69964e+06
1.84459e+06
807023
1.99099e+06
673658
538050
1.558e+06
1.69918e+06
1.99342e+06
1.84447e+06
539861
810004
945270
675756
2.01383e+06
200409
1.58098e+06
173243
120628
152495
9078.42
69102.5
864275
93516.8
1.52044e+06
313571
234509
589091
636621
541650
455482
296938
1.32155e+06
295567
317627
1.19572e+06
103377
467182
432775
429344
1.35805e+06
1.24565e+06
1.47358e+06
645478
550701
232925
397708
779255
1.51855e+06
76272.8
386477
230082
148599
501403
1.60611e+06
905447
777693
1.69279e+06
193132
926736
1.97774e+06
999749
1.8474e+06
165957
2.08098e+06
248457
1.39107e+06
496870
613276
146693
15960.6
160045
159748
27289.1
265877
1.42161e+06
202547
1.74021e+06
790631
286355
1.3457e+06
1.29207e+06
1.46998e+06
1.41164e+06
1.59704e+06
1.53408e+06
742443
717889
506643
490827
562704
380173
1.27296e+06
1.17605e+06
1.07839e+06
340415
398083
367762
183552
1.19453e+06
1.04293e+06
97707.2
205122
153467
174406
184469
2.01766e+06
1.68788e+06
440520
1.44804e+06
1.32907e+06
1.56881e+06
129932
746307
1.36571e+06
1.4226e+06
146629
137377
1.63443e+06
520675
178235
299363
348736
323792
188483
561251
518212
479161
1.88238e+06
2.46806e+06
1.81614e+06
1.28973e+06
630208
454900
194068
211406
316450
228084
146048
130390
238572
687685
548796
144232
1.49427e+06
1.73031e+06
715967
625662
183896
176992
157558
167288
484029
1.63255e+06
1.26793e+06
977135
1.00648e+06
1.20022e+06
139895
156008
232742
140658
143356
314182
2.55123e+06
2.02489e+06
156748
195171
859910
741961
515947
1.60279e+06
1.72969e+06
1.35107e+06
1.47512e+06
876184
454264
389191
421970
197269
246241
1.86858e+06
498134
1.18994e+06
89059.5
1.73187e+06
159037
679887
789059
2.54841e+06
141618
700730
168764
655992
179189
414089
1.26438e+06
577463
1.45151e+06
941696
1.58676e+06
1.72475e+06
814342
1.86504e+06
685300
557692
686592
558215
266008
813880
919723
1.20257e+06
147677
239271
1.48267e+06
643148
2.33779e+06
1.90099e+06
2.13063e+06
384545
1.66647e+06
783127
605290
296221
226511
2.28108e+06
1.18343e+06
140471
2.47708e+06
2.08853e+06
72023.9
722898
591272
91439.3
960843
771026
116005
195356
1.60419e+06
2.37997e+06
146427
836372
858222
1.72301e+06
1.6689e+06
607462
622589
608062
622840
151367
152399
151663
142882
114480
2.45243e+06
1.90636e+06
1.72238e+06
2.17294e+06
819310
437077
1.77003e+06
990147
1.08206e+06
1.17711e+06
80532.6
1.8187e+06
316672
1.36249e+06
1.94847e+06
577463
404888
2.47737e+06
660775
693758
485824
512519
1.31045e+06
1.26649e+06
221315
217982
121605
144094
425956
1.54917e+06
1.42852e+06
1.31084e+06
647380
2.44901e+06
150029
295282
133712
1.295e+06
1.4142e+06
825837
1.53587e+06
705879
1.6739e+06
597222
1.5849e+06
1.33605e+06
1.45879e+06
1.71125e+06
479350
849380
732531
598955
141383
197015
209911
270910
505865
427929
465092
2.01971e+06
934915
1.14068e+06
1.86617e+06
219499
334403
143932
525428
733107
253069
351995
1.88941e+06
201857
138731
141784
144548
139497
90517.3
222840
171084
184935
1.62307e+06
1.9184e+06
169052
146587
186295
322569
701739
2.0753e+06
1.93308e+06
862376
148370
209706
1.65009e+06
150133
151313
2.51853e+06
972743
1.89977e+06
533041
1.28689e+06
812103
795806
221351
905179
1.36003e+06
654907
471214
187166
426952
145986
111987
131652
2.04357e+06
1.20043e+06
1.22385e+06
2.01417e+06
315703
338760
176753
639091
158447
143612
154860
402301
318498
32421.4
318067
22207.3
143003
1.26283e+06
379766
549976
1.16589e+06
1.07375e+06
983619
198525
2.31711e+06
765067
440661
1.99095e+06
1.18448e+06
1.23212e+06
204560
20089
204228
21140.4
1.76182e+06
437069
733440
869758
801737
163751
1.89348e+06
442328
317704
1.01665e+06
780941
138170
43255.4
1.38886e+06
287891
1.3884e+06
352940
468690
863960
962993
808208
176010
708467
291384
374750
180972
194424
673416
701933
233338
423858
149016
150209
1.12416e+06
562452
412938
159325
599447
15517.7
58069
598625
746554
603342
893018
1.06027e+06
124178
2.3104e+06
2.40695e+06
302089
146158
161826
251213
276998
28634.1
276629
24685.6
1.21205e+06
414151
574623
2.24282e+06
2.2762e+06
1.93041e+06
1.75362e+06
1.04202e+06
923377
883580
784207
1.9002e+06
274029
541809
195960
128529
142994
389976
546505
782175
2.19883e+06
2.22021e+06
278900
144776
727143
791013
266378
1.20302e+06
492872
404150
1.76276e+06
175254
161187
215646
1.17332e+06
1.18004e+06
1.24813e+06
791554
396670
554217
97202.3
98623.9
1.36006e+06
142121
1.20493e+06
155349
591411
961318
842503
1.40808e+06
1.64699e+06
148535
193889
446888
1.95522e+06
9447.4
116975
34696.2
117509
315266
290604
96753.9
2.12427e+06
37881.4
2.01282e+06
524060
50756.5
16370.7
523341
342438
170287
19599.7
170129
435711
1.89707e+06
438351
2.09396e+06
2.40691e+06
69838.9
689195
816465
752830
976348
468064
340898
1.05003e+06
664689
115888
258337
409114
293334
728717
964060
269963
271068
2.31386e+06
831215
964610
899460
1.0381e+06
1.46701e+06
135105
146584
1.22763e+06
1.49437e+06
503229
283341
326130
168651
337590
495203
152866
261786
378342
150318
105098
1.34126e+06
1.56817e+06
302887
670300
522968
534466
1.65892e+06
753544
326844
253178
639572
530766
132521
383188
1.49574e+06
1.91068e+06
509548
355274
897605
1.06383e+06
979822
91801.6
144030
370205
263703
1.42122e+06
515455
114734
55763
86298.5
497092
348878
868554
1.02919e+06
948166
148515
2.06656e+06
2.35911e+06
163421
163204
155038
151007
2.06636e+06
410323
304073
878063
2.55355e+06
2.05354e+06
581067
203851
537275
495288
303051
282782
322847
180277
158570
158929
438601
2.01106e+06
119469
1.10991e+06
1.20222e+06
1.90201e+06
1.3711e+06
1.33809e+06
511374
504142
688087
698972
321204
358988
309718
142966
140894
810389
262793
1.8688e+06
1.29194e+06
327212
139783
800115
2.39022e+06
137915
1.27157e+06
1.05762e+06
1.00463e+06
1.31334e+06
903108
387829
539666
1.19908e+06
210337
875164
378691
423440
217602
446196
269013
349733
960422
475725
203162
176298
233917
1.22932e+06
1.00941e+06
220740
210479
198384
227521
145724
649333
499428
130414
473188
149305
271029
438021
2.18607e+06
1.92483e+06
1.30957e+06
380433
270436
850910
787524
723534
343081
343220
164694
1.18391e+06
162805
665698
867675
254038
223354
1.95098e+06
111545
386699
360415
173953
2.05684e+06
108632
143369
577432
681039
206367
195535
217064
157040
149688
1.30782e+06
119257
160985
20008.8
160784
1.3061e+06
1.24126e+06
2.34934e+06
1.40838e+06
1.77157e+06
148854
1.83009e+06
1.24874e+06
18100.1
131373
309150
234446
526864
572650
618472
810468
454043
1.89604e+06
1.11047e+06
1.20596e+06
192965
129078
125646
145530
158926
166274
257492
1.09138e+06
131496
2.36004e+06
579017
233672
1.22072e+06
798914
406054
565838
261197
226412
322189
485796
313265
647100
588488
233059
150225
833863
1.16289e+06
102549
110993
201666
119056
122421
1.77284e+06
467425
343466
995721
1.71718e+06
468983
337817
840266
714605
774630
655727
378634
272926
152952
10646.4
84255.2
803141
661300
943183
1.96858e+06
1.66876e+06
1.81729e+06
661582
801623
1.97287e+06
1.82066e+06
942073
1.67193e+06
216024
441771
367195
364197
136820
244000
216519
642558
310191
239376
294200
518347
1.43712e+06
713443
153062
257713
142060
154996
276512
429604