/*--------------------------------*- C++ -*----------------------------------*\
| =========                 |                                                 |
| \\      /  F ield         | OpenFOAM: The Open Source CFD Toolbox           |
|  \\    /   O peration     | Version:  2.3.1                                 |
|   \\  /    A nd           | Web:      www.OpenFOAM.org                      |
|    \\/     M anipulation  |                                                 |
\*---------------------------------------------------------------------------*/
FoamFile
{
    version     2.0;
    format      ascii;
    class       volSymmTensorField;
    location    "3500";
    object      sigma;
}
// * * * * * * * * * * * * * * * * * * * * * * * * * * * * * * * * * * * * * //

dimensions      [1 -1 -2 0 0 0 0];

internalField   nonuniform List<symmTensor> 
11800
(
(142177 73060.2 6.85245e-14 -2712.6 3.63014e-14 34604)
(-70869.1 65063.4 1.05193e-13 -710.367 3.33636e-14 -17760.3)
(641995 92271.9 -1.73571e-15 1356.6 -7.61173e-14 159629)
(-557948 48260.2 0 -1042.77 0 -138697)
(-73382.6 62753.3 1.96263e-14 -5300.91 -5.54566e-14 -19523)
(-349278 95598.8 7.61205e-14 2330.64 3.99322e-14 -86084.7)
(-64815.6 92007.3 1.43969e-13 -674.673 -3.74406e-14 -16249.5)
(-91238.1 95208.8 -2.14386e-14 960.853 8.6264e-14 -22399.6)
(197748 50024.1 2.86394e-14 461.937 -1.95645e-14 49179.9)
(134914 100049 -7.38334e-14 907.121 -6.21976e-14 33700)
(164193 60589.4 -5.71639e-14 1575.09 4.8937e-14 41130.3)
(-809350 35225.9 -6.83492e-14 -6001.87 -3.10154e-14 -202305)
(22881.3 -33239.1 1.24059e-16 -61659.6 9.63997e-17 -9621.68)
(594784 48582.1 6.19769e-14 3693.12 -1.69637e-14 148494)
(-475742 89551.2 -5.16938e-14 6549.93 4.01921e-14 -116416)
(2.21108e+06 -7012.95 0 -7111.18 0 546849)
(-42371 72487.3 4.87198e-14 3925.79 4.29679e-15 -9539.05)
(-65317.2 66687.6 -2.74906e-14 7862.51 1.57903e-13 -14255.7)
(136555 113496 -2.80973e-14 -18082.3 1.99776e-14 29395.6)
(102739 60824.6 -9.82627e-14 -11084.8 -3.17857e-14 22741.4)
(-438509 54635.5 3.06112e-14 -1317.06 3.20836e-14 -109130)
(-707902 84193.2 4.89719e-14 3614.37 -2.84776e-14 -174748)
(-933065 108346 -2.47666e-14 11545.7 1.5938e-14 -228648)
(-856258 63218.5 2.49582e-16 213.331 4.30685e-15 -212402)
(1.80346e+06 80265.4 3.08995e-15 -7974.66 3.58501e-14 445496)
(-1.11265e+06 107826 -2.43148e-14 7795.6 -6.95776e-16 -274137)
(-1.17226e+06 56882.1 0 10274.6 0 -288312)
(578472 42896 -8.11873e-14 -5527.58 -4.9035e-14 142159)
(-1.27777e+06 58185.3 -1.40346e-14 11334.6 -6.74008e-14 -314228)
(-1.38396e+06 58758.9 1.86793e-14 13075 -2.90573e-14 -340145)
(380171 45389.1 -1.00611e-13 -1959.75 -1.80333e-13 93841.9)
(75950.2 59671.6 -1.62122e-14 2598.51 -1.34125e-14 19489.5)
(1.13386e+06 103846 -3.9672e-15 13060.9 -1.73741e-14 284573)
(-28147.8 77190.8 1.31587e-14 -1791.96 -9.85338e-14 -7428.67)
(19569.9 81487.7 -3.47989e-14 2464.85 -1.49388e-13 5467.27)
(-371363 34304.4 -9.13553e-14 -514.4 -6.63702e-14 -92270.4)
(21442.6 82500.8 1.23594e-13 1795.92 -1.47001e-13 5765.94)
(1.21548e+06 60574.9 -1.45719e-14 6479.4 -6.24065e-14 303193)
(-44114.2 79832.9 0 -1871.04 0 -11409.9)
(98005.6 75063.6 -4.2628e-14 5748.24 7.94141e-14 25743.4)
(-1.23171e+06 42625.7 -7.57456e-14 -6207.95 -3.52107e-14 -307152)
(-1.3425e+06 42255.4 5.42692e-14 -6593.67 -3.11448e-14 -334738)
(607957 57228.8 -3.13095e-14 -1146.73 -1.0424e-13 150562)
(-1.45406e+06 42737.9 -1.03474e-14 -5561.27 -5.51225e-14 -362163)
(399597 56641.2 2.67428e-13 1198.12 -8.34291e-14 99445.4)
(2.06737e+06 51362.6 0 -7396.53 0 511121)
(893307 118226 -1.56556e-14 -3467.26 8.20313e-15 220787)
(1.06425e+06 43687 -2.7629e-14 -11614.7 -1.92019e-14 261181)
(-102853 82583.4 -1.0602e-13 244.316 -6.53254e-14 -25459.3)
(236372 79247.7 0 2372.6 0 59237.4)
(-839764 47420.8 -5.12846e-15 2553 5.43981e-14 -207729)
(-588433 44568 1.77759e-13 3455.59 2.08306e-14 -145145)
(-12073.9 80747.6 9.96803e-14 853.043 6.20704e-14 -2784.13)
(43574.8 129889 -2.1761e-15 8196.23 1.89715e-14 12845.4)
(-2.37625e+06 5319.98 -3.34175e-15 -12288.4 -5.21909e-15 -592644)
(1.86548e+06 -82858.6 4.47537e-15 -85449.4 7.91979e-15 441662)
(-63597.9 21095.6 8.58159e-14 1865.24 3.18708e-14 -15317.1)
(-527942 94129.9 6.4035e-15 -5750.23 -5.31805e-14 -132420)
(423310 59965.9 -5.4162e-14 8901.04 7.93296e-14 107240)
(-373860 98799.8 4.44074e-14 -7248.42 -8.01735e-15 -94560.8)
(1.92838e+06 21864.7 -3.92042e-14 -14795.9 -1.35897e-14 474798)
(-51407.9 84820.8 4.21897e-14 868.952 -6.86654e-14 -12539.7)
(-416064 77227.5 -2.43651e-14 -2728.08 4.18939e-14 -103911)
(332493 77461.4 7.39299e-14 3170.53 -4.21756e-14 83285)
(1.78075e+06 12799 4.28834e-15 -736.856 -2.58553e-14 441658)
(-259061 33680.9 -1.20712e-13 2135.71 -1.45886e-13 -63748.5)
(-866237 20965.9 8.49158e-14 4416.24 2.83152e-14 -213835)
(-613531 24016.4 2.46513e-15 3956.28 -1.49089e-13 -151248)
(-65867.3 22653 0 -3423.71 0 -17192.5)
(-1.03731e+06 60100.2 -1.9245e-15 10660.4 6.36443e-14 -254733)
(-22358.8 82182.5 -2.41823e-14 117.356 4.99275e-14 -5518.56)
(-51665 64473.7 -9.31601e-14 -3248.21 1.04226e-13 -13625.1)
(-45388.7 63032.8 6.53377e-14 -1824.21 -3.99913e-14 -11714.5)
(-1.57061e+06 341641 -5.61614e-15 195128 5.08084e-15 -341285)
(1.91203e+06 70000.3 -1.51295e-15 -6818.5 -1.55993e-14 472721)
(-348986 51754.6 -8.97542e-14 3774.47 -6.52819e-14 -85654.1)
(1.86486e+06 13447.3 -3.29076e-14 3885.02 2.92856e-14 463672)
(-251716 20919.3 7.93568e-14 -118.244 -2.60381e-13 -62485.2)
(-186611 43386.1 1.4924e-14 355.1 -1.42421e-14 -46214)
(-176512 56708.9 1.52369e-13 2458.45 1.52796e-13 -43186.2)
(-2.39483e+06 -45681.6 1.21315e-14 10374.8 5.6787e-14 -591633)
(104442 55331.7 0 8779.98 0 28092.6)
(55862.5 66573.8 -1.58404e-13 1713.43 -6.2415e-14 14285.8)
(38718.6 71038.6 5.49194e-14 1315.6 -4.3312e-16 9933.3)
(-82209.6 63419.9 3.75764e-14 -8476.37 1.06341e-13 -22501)
(-1.34832e+06 71910.4 -2.09425e-14 -7505.09 1.05741e-13 -336408)
(412078 51784.4 1.27823e-13 4269.87 -3.97579e-14 103304)
(-1.24181e+06 69708.9 0 -7000.39 0 -309856)
(-1.13756e+06 68283.7 -4.405e-14 -6264.05 -4.51029e-14 -283806)
(611148 48975.2 5.85594e-14 5398.63 3.57839e-15 152978)
(-12971.3 80124.8 -2.0652e-13 -2910.22 -1.32455e-13 -3940.53)
(1.34164e+06 95876.6 0 -4269.52 0 331829)
(-110409 70307.6 -4.38154e-14 1865.71 -7.26461e-14 -26931.7)
(69681.5 16669.9 -2.52618e-14 4741.33 -3.66606e-14 18465.8)
(167317 70987.1 1.93833e-13 1224.79 3.47033e-15 41818.6)
(52936.9 -39920.9 -7.89625e-16 -112412 -5.85274e-16 -14757)
(-2806.04 10978.1 2.05602e-17 6592.96 -1.22295e-16 939.611)
(-53449 -39678.4 -4.99801e-16 112132 3.32922e-16 14560.4)
(-12989.5 81501.8 -6.4207e-14 42.2734 -9.34092e-16 -3212.48)
(-705224 53119.2 -1.57464e-14 -2715.73 6.28153e-14 -175654)
(49613 38385.7 3.52877e-14 -109.302 -9.87092e-14 12282.9)
(768398 59858.4 -7.62838e-14 -7134.36 -1.05534e-13 188885)
(-1.27218e+06 108631 5.11933e-15 -398.446 1.04196e-14 -315752)
(-417540 74028.8 -3.16146e-15 6604.36 9.9828e-15 -101962)
(-1544.95 86821.5 -9.90801e-15 -782.4 -4.9296e-14 -577.463)
(330815 99060.3 -2.04688e-14 2497.53 -3.53973e-14 82701.6)
(-157522 72134.3 -6.06498e-14 -574.323 1.33721e-13 -39226.9)
(-110409 75456.5 -2.05507e-13 -782.398 -9.9108e-14 -27588.8)
(1.899e+06 20880 1.15556e-14 4813.31 2.40914e-14 472375)
(1.25152e+06 59601.6 1.88276e-14 4389.74 3.82845e-15 311617)
(1.35923e+06 60958.9 3.60772e-14 5156.38 5.02341e-14 338532)
(1.14692e+06 58609.7 1.32041e-13 4158.97 7.82409e-14 285605)
(-417246 53346.1 5.98935e-14 -4076.21 9.35323e-14 -104539)
(-618413 52197.3 -1.58404e-13 -4524.52 5.69455e-14 -154563)
(223754 64998.5 6.75656e-14 162.864 -3.5418e-14 55558.4)
(1.70999e+06 35487.2 1.74101e-14 -170.73 1.02672e-14 424241)
(240591 31183.4 -4.93542e-14 -3074.94 -1.94037e-13 58932.6)
(-76003.6 75788.5 -1.71148e-13 968.357 1.60027e-13 -18617.8)
(1.60151e+06 75120 -1.99626e-14 982.774 2.48724e-14 397612)
(-136825 103684 -5.54388e-14 14.7106 -1.49203e-14 -33945.5)
(-213795 44021.4 -3.80955e-14 3205.33 -1.60424e-14 -52251.5)
(66502.7 92036.2 1.22498e-13 -2782.79 -1.75362e-13 15810.2)
(94892.2 97686.2 -8.53595e-14 -1857.12 5.87087e-14 23083.9)
(-67752.3 75723.9 -2.48433e-14 3287.86 -3.66505e-14 -15994.9)
(-116308 66598.6 -1.55843e-13 -955.247 -1.21607e-13 -29095.4)
(-2887.93 80271.1 -1.49786e-13 -2488.7 -1.12707e-13 -1334.05)
(-36034.5 79643.3 -8.97986e-14 -1283.96 9.86553e-14 -9259.48)
(-7900.98 81416.1 -5.8705e-14 -2101.24 -5.59466e-14 -2481.75)
(9081.95 55965.6 2.79067e-15 38813.5 1.24997e-13 11883.8)
(-36895.4 6746.37 -4.13712e-16 -8515.18 5.94115e-14 -11267.3)
(-2.01561e+06 -324656 1.81108e-14 83504.7 -9.15225e-15 -479394)
(-1.45276e+06 72745.3 1.30611e-14 -11093.7 -1.99092e-15 -363211)
(450174 47276.9 6.76308e-14 3822.86 -6.59584e-14 112646)
(-1.3441e+06 74335.6 -5.21636e-14 1045.86 3.27575e-14 -333240)
(652398 43351.7 -3.0461e-14 4484.43 9.22615e-14 162986)
(-1.23525e+06 71231.3 1.99042e-14 1277.97 1.99967e-14 -306174)
(-1.12994e+06 69192.4 -1.14767e-13 1689.23 8.76953e-14 -279942)
(374685 66197.7 6.62385e-14 -4360.17 1.84587e-13 91885.1)
(-1.14954e+06 30214.6 7.1255e-14 7965.88 -9.79679e-14 -283248)
(546738 69142.7 8.2186e-14 -5224.93 -6.54383e-14 134360)
(-1.05724e+06 30875 5.90141e-14 6976.79 -1.01628e-13 -260592)
(-967583 32538.6 -6.11917e-14 6889.25 -5.50896e-14 -238368)
(-542215 90307.8 4.58269e-15 16411.4 4.60129e-14 -130463)
(165234 76009.5 -3.30704e-14 -5920.5 -2.20251e-13 39528.8)
(236224 73541.8 -5.28515e-14 -7497.23 -1.52697e-13 56751.8)
(-345214 71835.7 -1.59024e-14 11034.8 9.16192e-14 -82916.7)
(1.39425e+06 45698.1 -1.00777e-13 1817.94 -3.39935e-14 346394)
(-1.43906e+06 -18049.6 9.69046e-14 -11568.7 2.99614e-14 -359931)
(808971 44244.8 6.81985e-14 -2807.36 -6.35193e-14 200025)
(-414097 44866.8 1.5219e-15 7391.77 9.03651e-15 -100912)
(-189398 72562.3 -8.57544e-14 2341.61 -7.08573e-14 -46412.4)
(-198459 60457.7 7.33884e-14 -2429.46 -6.63949e-14 -49844.6)
(20917.8 80891.7 5.57887e-14 1572.75 1.01899e-13 5580.35)
(-281754 52765.3 -1.25463e-13 -486.803 1.30105e-13 -70029.7)
(241619 63314.2 -6.57715e-14 -4545.89 -6.94947e-14 58822.8)
(163748 72309.6 -6.02801e-14 2459.61 4.64631e-14 41239.5)
(-523354 59234.1 1.02028e-13 7631.23 -6.86792e-14 -127961)
(-732497 65485.9 3.70816e-14 3115.74 8.11381e-14 -180974)
(1.48764e+06 21062.1 2.2902e-14 1768.11 -3.06521e-16 369554)
(-6782.65 84900.3 2.92865e-14 -500.476 -1.42449e-13 -1807.09)
(2.16109e+06 79796.7 -2.66955e-14 -13327.3 -1.4549e-14 532904)
(-231980 65187 -1.08371e-13 1121.67 7.46729e-14 -57280.7)
(1.87668e+06 51340.9 0 -19358.4 0 460840)
(-536277 66127.2 3.18879e-14 -5167.33 1.33107e-13 -134343)
(-585680 66278.1 -3.26926e-14 -5988.22 3.87849e-14 -146805)
(-635244 67746.2 -5.28354e-15 -6195.23 1.4028e-13 -159154)
(294971 72974.7 -8.03278e-14 942.631 1.97573e-14 73422.1)
(200446 74915.5 -8.57042e-14 396.331 2.11596e-14 49833.1)
(-2.35314e+06 -18261.9 2.11707e-14 -9014.01 -1.20768e-14 -586098)
(-1.46104e+06 71235.2 -2.17615e-14 -8469.89 4.1046e-14 -364615)
(512272 51001.7 -8.55467e-14 4919.93 -5.00657e-14 128326)
(711057 47764 2.40289e-13 5490.8 -1.29147e-13 177790)
(79955.2 80999 4.70357e-14 -7974.43 -1.21609e-13 17859.9)
(-418361 37274 0 1709.25 0 -103380)
(-424038 21021.2 1.28645e-13 -2306.86 -6.53983e-14 -105785)
(2.06094e+06 56393.2 3.46529e-14 -14639.2 2.31163e-14 507730)
(2.10974e+06 -12271.5 2.87219e-14 13210.7 2.53854e-14 526747)
(1.10689e+06 25040 1.7473e-15 -998.769 6.06929e-14 274394)
(1.01546e+06 26897.1 1.23826e-14 -495.165 1.47336e-13 251832)
(1.20107e+06 22828.4 3.13694e-14 -2071.06 -4.53417e-14 297496)
(-522161 70870.8 -7.75948e-14 4460.18 6.98179e-14 -128452)
(-346989 67262.8 -7.52856e-14 3179.54 8.25737e-14 -85306)
(227389 94190.3 0 1956.65 0 56905.4)
(154914 91726.9 -3.1316e-15 804.5 1.19699e-13 38636.9)
(495816 70923.4 -9.22452e-14 -218.408 7.54254e-14 122968)
(-209466 67112.3 -7.37672e-14 2653.56 1.74908e-13 -51314.5)
(-328112 100834 -1.46258e-14 3984.46 6.46756e-14 -80422.7)
(101167 73928.2 -2.74264e-13 -868.271 -7.27795e-14 24886.2)
(144036 70143.8 -1.8969e-13 -913.646 7.93691e-14 35511.7)
(-88918 84307.7 -3.69807e-14 2139.01 -5.17115e-16 -21531.6)
(-249178 56526.5 -3.06141e-14 5445.01 -1.91176e-14 -60475.1)
(-228953 57325.4 2.02243e-14 4664.23 -3.45346e-14 -55650.6)
(-231360 42480.6 0 -525.811 0 -57535.7)
(-111232 104427 4.20613e-16 -5107.99 -4.01591e-14 -28866.4)
(-1.06173e+06 3906.11 8.98631e-14 -6975.22 -3.93491e-14 -265167)
(1.33305e+06 54331.2 -1.16804e-13 -5958.3 -1.17561e-14 329279)
(1.65009e+06 172117 6.96039e-15 -284472 3.51926e-15 338837)
(-39341.3 71469.1 2.44913e-14 -3386.82 -5.55146e-14 -10601.7)
(251218 25384.2 8.93721e-14 2142.93 -2.04046e-13 62863.9)
(-2.06761e+06 -256694 1.73977e-14 168777 -1.12669e-14 -471139)
(116872 57047.7 3.82481e-15 3801.86 1.03701e-13 29941.6)
(319556 40148.9 7.21519e-14 1267.19 -8.28304e-14 79602.6)
(352956 43896.6 1.00745e-13 -5202.04 -4.25072e-14 86284.8)
(-4519.17 83963.7 7.58845e-14 -84.478 -1.12547e-14 -1142.26)
(-5164.62 86764.4 8.00458e-14 -630.608 6.76924e-15 -1437.91)
(965039 33252.5 2.55801e-14 -5235.26 8.51285e-14 238147)
(799847 90320.1 3.25293e-14 6595.22 -7.84535e-15 200095)
(-727389 74928.4 0 6908.95 0 -178766)
(-621926 40877.6 -8.27515e-14 -9821.51 -5.17641e-14 -156749)
(2.00976e+06 -327923 -7.29974e-15 -85612.4 -4.93782e-15 477420)
(-614992 116305 -6.63127e-15 16930.9 7.739e-14 -148391)
(-984401 40389.5 4.56643e-14 -2451.11 -2.6927e-14 -244858)
(-2.09599e+06 -843909 -1.96468e-14 440442 7.6863e-15 -410775)
(2.50329e+06 2394.51 0 34217.1 0 629606)
(-1.8356e+06 -781682 -6.39368e-15 207910 1.97855e-15 -403864)
(320642 116176 -4.35153e-14 -45.9011 1.53518e-14 79546.4)
(-71918.5 68433.8 -7.74047e-15 -1304.31 1.08234e-13 -18168.1)
(-943163 85263.2 3.85723e-14 -7908.53 -4.24333e-14 -235980)
(-862086 84842.3 5.7474e-14 -6898.51 -7.17451e-15 -215613)
(-790056 82695.8 -6.55497e-14 -6228.33 2.54402e-15 -197574)
(281022 59998.3 5.74189e-14 3845.08 -1.60202e-13 70681.3)
(421423 56959.7 -1.44123e-13 4784.42 1.40113e-13 105751)
(41677.8 73152.6 -2.26573e-14 -7626.86 1.06338e-13 8448.74)
(59340.5 68562 5.36382e-14 -10168.5 6.87142e-14 12200.6)
(-136429 110063 -6.12093e-14 22056.7 1.65648e-14 -28378.1)
(-86317.5 64220.8 4.56325e-14 15011.3 -5.83682e-14 -17692.5)
(-1.14948e+06 -462662 -4.95331e-15 -28465.5 1.03492e-15 -292273)
(213083 110925 -3.47633e-14 16227 -1.23236e-13 56896.4)
(-105747 65905.7 -1.19778e-13 -8512.35 -5.47567e-14 -28350.1)
(-496620 103483 0 179.018 0 -123177)
(212846 61983.3 9.21901e-14 1410.51 -3.76423e-14 53161.3)
(-104626 89198.7 0 -458.772 0 -26073.6)
(-78561.4 71877.7 -5.8279e-14 -715.132 -9.2312e-14 -19670.1)
(741038 74138.1 8.16077e-14 4343.65 -8.53448e-14 184944)
(761364 47093.9 1.24914e-13 -92.0884 5.96608e-14 188887)
(2.0927e+06 -842646 -7.34858e-15 -440614 -2.43141e-15 409916)
(1.14748e+06 -462308 8.58625e-15 28256.7 2.35528e-15 291725)
(-232309 52526.9 1.77658e-14 1758.77 2.5282e-14 -57204.2)
(-248070 53582 -5.39719e-14 -2789.59 -1.10367e-13 -62243.2)
(-1.3209e+06 1573.43 -5.9407e-14 -5261.06 -1.36163e-14 -329046)
(1.07036e+06 50790 1.34507e-13 -3907.16 -3.51454e-14 264608)
(347014 68135.6 4.45337e-15 -2786.8 2.44491e-13 85409.8)
(521424 72740.4 8.30594e-14 -3608.13 9.03122e-14 128481)
(-1.20325e+06 23403.9 -2.17619e-15 -1184.26 5.16332e-14 -298844)
(-1.11122e+06 26785.1 -5.24841e-14 -769.183 1.73554e-14 -275907)
(-1.01895e+06 28985.1 -3.49526e-15 -866.727 8.1516e-14 -253037)
(-15475.9 86103.5 -1.2634e-13 -943.445 3.65428e-14 -4073.97)
(-1.3059e+06 25167.7 3.41253e-14 -2137.87 3.67009e-14 -324551)
(435461 68224.9 -8.51276e-14 -2859.05 4.17602e-14 107337)
(610300 71606.6 0 -3493.23 0 150561)
(576001 54396.3 3.24405e-14 -4235.47 7.74207e-14 141867)
(111200 71679 -1.06768e-13 1046.58 -2.82249e-13 27850.7)
(9438.32 74501.7 -9.35626e-14 -8670.12 -3.44104e-14 190.606)
(474344 40896.5 -1.19002e-13 14932.9 2.13365e-14 121399)
(-401374 56374.8 -1.0176e-14 -1165.66 -8.23353e-14 -99878.3)
(63468 77064.2 1.38598e-15 -15021 1.73233e-14 12020.7)
(1.83204e+06 -781136 -6.65024e-15 -208749 -1.67391e-15 402772)
(285103 78769.3 8.44539e-15 -2632.23 -1.56317e-13 70086.6)
(343696 76776.3 7.27689e-14 172.254 2.47493e-14 85320.8)
(-225910 76039.3 0 -174.067 0 -56096.1)
(-268316 85303.2 2.71539e-14 -6741.82 -7.5574e-14 -68247.3)
(791826 82330.6 0 7498.13 0 198329)
(863975 84803.8 4.80354e-14 7921.24 4.55817e-14 216335)
(936386 88510.9 -1.07556e-13 8190.53 -1.03898e-14 234369)
(-421960 54045.3 1.5213e-13 -5591.85 1.54531e-13 -106084)
(-284597 58725.9 7.99415e-15 -4105.76 -9.24843e-14 -71633.1)
(-15538.2 82361.2 8.99924e-14 -66.1162 4.79119e-14 -3871.75)
(1.88375e+06 13799 -1.39666e-14 -29708.9 -2.55659e-14 460025)
(-11960.9 95175.2 -9.72334e-14 -5840.69 3.0294e-14 -4416.93)
(23975.2 48972.7 -9.29844e-14 11400.3 -5.78787e-14 8777.38)
(41773.9 78300.8 6.99272e-14 1179.17 -1.62282e-13 10657.5)
(448280 77927 7.44625e-14 201.598 7.86809e-14 111277)
(-176655 5399.04 -1.23777e-13 -3123.69 6.06665e-15 -44606.8)
(592328 87006 0 -3658.51 0 146061)
(1.98253e+06 -83087.6 3.21913e-16 -277860 1.29415e-16 422962)
(447369 21697.4 7.14537e-14 6534.54 1.62479e-13 112623)
(429757 33767.8 3.2384e-14 -6378.97 1.76458e-14 105049)
(-644956 74034.7 1.06434e-14 6014.89 2.24707e-14 -158534)
(-458803 69647.8 -8.29345e-14 4882.47 2.65645e-14 -112627)
(-549615 46415.9 -1.69565e-13 -2260.85 -2.96628e-14 -136932)
(-394007 51132.5 8.55973e-15 -2761.21 -9.00031e-15 -98446.4)
(1.3685e+06 21090.8 -5.93791e-15 -3584.95 1.95343e-14 338664)
(1.13298e+06 94158.2 2.45831e-15 -347.396 -4.03967e-14 281029)
(325286 85529.8 1.50102e-14 -3789.6 8.87783e-15 79769.7)
(437641 71113.5 2.81773e-14 -66.5934 4.79325e-14 108571)
(239711 84746.9 7.83897e-14 -4248.75 5.58516e-14 58423.1)
(321648 71442.5 7.02945e-14 -1931.9 -1.11258e-14 79328.1)
(-619483 51322.7 -1.29589e-14 6193.38 3.25216e-14 -152170)
(-814708 79838.6 -3.59475e-14 2069 6.46066e-15 -201632)
(-186970 125343 3.99312e-14 -720.565 2.85088e-14 -46569.9)
(1.34447e+06 56844 4.46036e-14 5296.25 3.20133e-14 334905)
(1.45794e+06 56752.5 -9.66584e-15 23620.4 4.80407e-15 367605)
(1.7298e+06 57763.9 7.848e-15 -2225.52 4.94555e-15 428647)
(120118 79980.3 -1.52547e-13 216.417 1.85227e-13 29857.5)
(-441508 22802.6 -9.45211e-14 -5705.06 -4.8595e-14 -110963)
(-426830 36559.8 -1.19938e-13 4402.3 8.02176e-14 -104813)
(2.01871e+06 -7371.5 0 13261.4 0 504173)
(2.02394e+06 63314.3 0 1486.12 0 502549)
(1.20339e+06 49618.1 1.85031e-14 -1864.43 8.81896e-14 298124)
(1.19363e+06 8935.98 5.91604e-14 5018.07 -1.66153e-13 297408)
(-1.24095e+06 11319.2 0 -9517.18 0 -310265)
(-1.2099e+06 49745 0 8244.14 0 -298155)
(34873.4 77958.7 -2.10209e-14 2606.73 6.02075e-14 9299.58)
(-85615.3 34214.9 2.24969e-13 -5099.5 -9.52185e-14 -22508.2)
(-328347 34264.3 -5.93182e-14 -3523.93 -2.18853e-14 -82344)
(2.64526e+06 3754.49 0 53671.2 0 669659)
(-46745.4 68658.6 -1.48351e-13 -1960.95 -3.70344e-15 -12085)
(-55216.2 71454.1 -2.13675e-14 -4977.17 -1.18839e-13 -14935.2)
(289202 92076.1 -7.65238e-14 -6480.91 -5.24416e-14 70148.8)
(-228534 90595.4 -1.59451e-13 -6666.62 6.67705e-14 -58358)
(276780 55771.3 4.63145e-14 -7733.09 -4.79003e-14 66756)
(-1.05993e+06 47080.6 3.28157e-14 -9538.98 -6.68261e-14 -265358)
(1.06768e+06 51486.8 -1.36177e-14 -10762.1 -8.17164e-14 262243)
(-1.80222e+06 77706.1 1.41557e-14 -11153.9 -6.05767e-14 -449934)
(-2.14098e+06 -193715 7.50331e-15 398252 -5.40294e-15 -432407)
(746730 101606 -1.19412e-14 -15652.9 1.48398e-14 181395)
(84219.1 99637 -7.91742e-15 -4568.88 4.45627e-14 19762.8)
(-1.00028e+06 81891 -3.96685e-14 -4878.63 -1.11103e-13 -249401)
(840598 27846 -5.16216e-14 10323.7 7.44418e-14 211131)
(-582874 50322 5.69509e-14 -10200.2 7.30346e-14 -147154)
(454536 80546.8 8.55243e-14 5550.23 1.49661e-15 114157)
(84655.2 88202.3 2.38555e-14 4765.84 1.1163e-15 22187.2)
(145821 68404.8 -1.00889e-13 -976.081 1.26699e-13 35938.9)
(-289766 59125.9 6.9286e-14 -18469.7 -7.35961e-14 -76479.5)
(-468751 116969 1.13913e-15 7885.07 9.26841e-14 -114350)
(-265826 59847.2 1.06801e-14 -17137.2 -7.44306e-14 -70208.8)
(-429884 112909 6.75829e-14 7078.54 -2.46977e-14 -104907)
(106317 49298.3 -4.24365e-14 -3185.92 1.31866e-14 25588.9)
(-50206.6 96520.7 -1.12339e-15 2578.18 -8.33066e-14 -11817.6)
(-32831.5 94987.3 1.03329e-13 2440.71 8.28748e-14 -7540.58)
(-22090.3 85048.2 5.31849e-14 697.443 -1.15801e-13 -5308.01)
(1.43324e+06 40461.9 3.06375e-14 3820.17 4.74849e-15 356563)
(-14890 96986 -1.16889e-13 -6807.79 -5.1955e-14 -5383.66)
(-56733.4 70901.4 5.77453e-14 -5003.94 -1.93352e-13 -15318.3)
(1.99835e+06 -57819.9 -1.52009e-14 -103372 -1.11013e-14 470183)
(331150 57614.8 6.15501e-14 -5220.46 -7.89549e-14 80869.8)
(-768456 100569 4.11624e-14 13857.4 1.11157e-14 -187231)
(-880288 64010.1 -6.72064e-14 1955.67 -2.94079e-14 -217932)
(-874162 29371.8 0 -10329.3 0 -219460)
(1.10008e+06 17514.7 -6.05207e-14 5690.03 -2.87772e-14 274363)
(1.05353e+06 72617.3 3.67867e-15 9368.41 7.20894e-14 263727)
(-34072.8 59044.6 -6.83069e-14 1122.4 5.56772e-14 -8175.67)
(-25937.8 59475.9 4.95543e-14 1680.58 -2.77069e-13 -6018.7)
(-689039 107754 -2.71993e-14 7747.9 -6.68195e-16 -169042)
(-927899 76732 0 11554.2 0 -227364)
(655448 48378.9 1.48916e-14 7165.58 3.66599e-14 164408)
(-1.69534e+06 96034.1 6.51072e-15 -7698.85 -2.06046e-14 -422559)
(59201.1 67281.7 0 14781.1 0 18356.5)
(934642 41572 -3.2311e-15 -2313.8 2.2368e-14 231330)
(708748 104557 -1.74371e-15 6532.99 8.49477e-17 177476)
(-446283 85295.4 1.27021e-13 4831.65 -1.63341e-14 -109533)
(-346618 58249.7 -1.24074e-14 -2445.84 8.94995e-14 -86609.8)
(-318211 81368.5 1.96486e-14 3696.42 -7.46778e-14 -78037.4)
(-249192 62121.6 -1.11062e-15 -2504.17 4.38736e-15 -62450.9)
(-356006 39406.3 4.59419e-14 501.454 6.78466e-14 -88207.9)
(-300032 44830.9 -8.03629e-14 3490.88 1.61729e-14 -73577.9)
(-366026 103344 0 1197.34 0 -90521.4)
(-411441 104963 -4.05058e-14 -735.004 3.51926e-14 -102269)
(-447954 108624 -3.30762e-15 -722.635 -3.77125e-15 -111326)
(121984 67457.1 -1.97802e-13 1355.18 -9.88844e-14 30603)
(-24437.5 80938.5 -4.39037e-14 -2383.99 8.73879e-14 -6654.95)
(880960 40558.2 -2.47541e-14 5536.18 7.05051e-14 219958)
(922217 55188.1 3.42771e-14 -6171.92 -6.66036e-14 227289)
(152657 71476.4 7.11818e-15 797.277 -4.93123e-14 38075.2)
(223446 65005.2 0 2609.38 0 56089)
(-485673 104403 5.07232e-14 -3169.26 -5.57544e-14 -121292)
(429534 63067.4 -9.69557e-14 4689.85 -1.22221e-15 107740)
(469031 93283.6 -4.2441e-14 5476.43 -2.62522e-15 117735)
(-171505 77746.4 -8.12929e-14 -1054.62 1.16504e-13 -42815.6)
(-146170 81203.2 4.74304e-14 -1967.43 2.78376e-15 -36755.8)
(-210291 85133.6 7.68621e-14 -692.764 2.73385e-14 -52349.4)
(-233508 73250.7 0 -2404.15 0 -58534.6)
(-1.01767e+06 43053.8 2.25883e-14 -76.7949 -3.44705e-14 -252523)
(469732 75102.9 -3.7221e-14 -730.99 -1.47179e-13 116369)
(334438 73110.3 -1.70504e-14 -1044.08 -2.43697e-15 82721.8)
(-111069 200378 -1.03522e-14 21101.7 -7.40784e-15 -22322.8)
(1.21795e+06 33691.5 -7.80978e-14 -8974.65 -4.67833e-14 299971)
(-1.42324e+06 10302.8 6.76244e-14 2251.86 4.0467e-14 -352577)
(-164738 185477 0 -7207.56 0 -42663.1)
(-168796 75701.9 2.84166e-14 2167.94 8.57763e-14 -41343.7)
(-142660 79891.3 -2.13741e-13 3803.76 -5.42177e-14 -34453.2)
(-245829 74209.5 9.21897e-14 1624.87 1.03154e-15 -60591.9)
(-211731 81389.3 0 3136.04 0 -51756.6)
(480712 60609.8 4.7031e-14 -4067.02 -7.5702e-14 118265)
(551894 84826.9 1.71712e-14 -3446.59 7.27799e-15 136081)
(448122 64423.8 -3.49757e-14 -8351.9 3.34836e-14 109116)
(522562 87371 3.73316e-14 -5948.55 1.03157e-13 128182)
(410689 64205.9 2.92877e-14 -7399.61 4.91411e-14 100064)
(478809 85411.3 -6.36355e-14 -5387.43 3.63638e-14 117466)
(377971 38222.2 2.89962e-14 90.9467 1.09492e-13 93804.8)
(364717 22670.8 8.52634e-14 2642.68 1.82547e-13 91149.5)
(-724690 84051.4 -1.63006e-14 553.289 2.14139e-14 -179673)
(340194 79880.1 -8.83135e-14 -4372.56 -2.14661e-15 83324)
(-810616 60648.1 0 6738.86 0 -199458)
(1.40157e+06 88532.9 4.76779e-14 -12041 -2.99959e-14 344771)
(-708047 37548.5 8.89844e-14 2679.77 -1.46204e-13 -175016)
(-516033 42998.7 1.07462e-13 797.487 -7.22152e-14 -127840)
(-1.58172e+06 -747744 -6.08694e-15 251946 1.36233e-15 -329944)
(47010.8 75926.9 1.20042e-13 243.546 -3.15207e-14 11724.8)
(1.48726e+06 49268.5 -1.59324e-14 -3571.24 -8.07335e-16 368133)
(-723175 57758.3 -2.49089e-14 2606.98 -7.22123e-14 -178788)
(-520413 55909.7 1.5569e-13 2262.95 7.6612e-14 -128564)
(2.2186e+06 -16254.1 2.59131e-14 -4800.94 1.15362e-14 549289)
(-99863.2 67644.8 -1.72167e-14 -1430.19 6.90605e-14 -25132.9)
(1.5321e+06 13185.8 3.9631e-14 4500.14 -2.4628e-14 381261)
(-359734 58834.3 5.38664e-14 1558.75 -9.49553e-14 -88870.5)
(-1.26623e+06 87652 3.21391e-14 12982.8 -4.18664e-15 -310955)
(-1.19021e+06 55836.4 -1.96323e-14 -7207.7 -1.49497e-15 -297104)
(1.15254e+06 57381.4 -3.71707e-14 1751.18 2.43079e-14 286403)
(-146835 78982.5 -2.35108e-13 5981.63 -1.07009e-13 -34948.5)
(-3463.5 -40159 2.4771e-16 -62946.6 8.80242e-17 -16477.7)
(-18177 72298 0 3050.11 0 -3753.28)
(-2.09912e+06 -670654 9.99659e-15 264750 -2.75814e-15 -455145)
(1.57803e+06 -747202 1.18344e-14 -254267 3.72739e-15 328454)
(-1.0114e+06 91409.1 4.15288e-14 -8484.52 -4.02784e-14 -253054)
(350724 56833.4 1.79942e-14 3183.1 6.94492e-14 87811.7)
(486629 52066.5 -5.78773e-14 4183.07 1.31737e-13 121781)
(140907 74478.4 1.15901e-13 -1358.97 3.45141e-14 34624.7)
(-263051 15494.9 6.71711e-14 139.919 -1.03288e-13 -65233.6)
(236229 96730.2 -5.58417e-14 -1495.8 5.10987e-14 58242.1)
(-119964 59248.5 1.64966e-14 835.567 2.52923e-14 -29558.3)
(-109294 106362 1.18285e-14 4387.61 3.43129e-14 -26029.4)
(-1.72166e+06 2915.23 -5.48248e-15 46566.5 1.302e-14 -415624)
(14074.2 -23899.3 6.50059e-17 -41724.4 4.03429e-17 -6860.59)
(-595438 96136.5 -2.47968e-16 7407.68 4.67403e-15 -145902)
(468347 53665.9 4.18798e-14 -2937.58 1.29755e-13 115477)
(1.78655e+06 -345931 1.05026e-15 -47264.1 1.36324e-15 431552)
(-53230.5 58772.9 -1.07616e-14 -9063.87 -8.36565e-14 -15456.5)
(-59742.8 99054.6 8.53815e-15 -3986.27 8.16733e-14 -15812.5)
(-33987.8 86418.8 -1.4612e-15 364.041 -1.25095e-13 -8342.74)
(-88408 74095.4 -2.31364e-14 3371.04 3.15305e-14 -21099.4)
(39782 85161.2 3.73992e-14 -1453.82 9.66436e-14 9510.01)
(26259.6 87367.9 -8.78883e-14 -338.105 -2.86919e-14 6431.64)
(-1.79094e+06 -343935 4.47805e-15 45644.8 -1.38444e-15 -433043)
(629153 90352.8 -3.41872e-14 2250.88 1.84984e-14 156664)
(-220575 73242.1 -2.35264e-13 -401.645 -6.67459e-14 -54828.9)
(741133 77082.5 1.22532e-13 5362.84 -2.07404e-13 185221)
(680208 75715.1 -1.51604e-15 4747.31 -7.95402e-14 169951)
(622469 73158.3 -2.27497e-13 2560.63 3.43311e-14 155082)
(107872 42796.7 -1.14969e-13 4036.94 -4.30107e-14 27767)
(-1.45803e+06 31334.1 6.16258e-14 -3830.97 -5.98046e-14 -362716)
(460006 58445.4 1.24671e-13 -2592.72 1.345e-14 113493)
(652555 60431.4 -5.64473e-14 -2559.16 -8.07293e-14 161277)
(-125478 72960.6 -1.99251e-13 -365.528 -3.3593e-14 -31224.4)
(931821 98924.9 1.30259e-14 -12295.7 1.88166e-14 228153)
(178832 56626.7 -8.06234e-14 46.1842 5.46097e-14 44383.2)
(-1.86603e+06 23154.7 -2.08608e-14 -2466.99 -7.71925e-15 -463613)
(54195 74777.8 -1.03972e-13 1864.83 -8.7469e-14 13909.6)
(-157789 79712.9 -2.06745e-13 1608.78 9.76259e-14 -38751.6)
(532266 61189 1.55701e-13 1336.04 -2.24174e-14 132397)
(488408 61274.2 1.45518e-13 903.467 3.5407e-14 121408)
(446559 59648.1 -1.05515e-13 -1007.21 2.9072e-14 110550)
(971254 45123.7 1.56654e-14 95.1713 3.29134e-14 241011)
(212829 79493.7 -6.97758e-14 3080.5 -1.49527e-13 53571.5)
(-535425 65995.7 4.74889e-14 -8285.46 1.06259e-15 -134906)
(-418921 119162 2.89519e-14 3859.57 3.22811e-14 -102985)
(-234852 49351.7 0 1725.47 0 -57843.4)
(-743331 88364.2 -6.39861e-14 -8434.33 1.9478e-14 -186528)
(-812061 90790 -9.62413e-14 -9346.04 -6.36115e-15 -203808)
(-883156 94509.6 -9.60512e-14 -10584.6 4.62721e-14 -221755)
(420629 59690.7 1.97854e-15 6799.4 2.45541e-14 106054)
(287604 64820.7 3.10813e-14 4785.74 -3.8911e-14 72547.9)
(75387.9 7735.5 -9.03625e-14 3778.67 3.25958e-14 19642.8)
(148461 62208.8 0 -1810.96 0 36386.9)
(190848 50357.9 -1.05809e-13 1543.28 6.31514e-14 47736.1)
(2.1623e+06 -104639 -5.61894e-15 -285238 -2.71098e-15 465737)
(823590 41795.2 1.04134e-13 1065.94 -1.06861e-13 204614)
(-632288 80304.8 0 1140.62 0 -156600)
(-443093 72911.4 -5.16059e-14 8670.24 -2.26737e-15 -107789)
(355746 76980.7 2.75569e-14 -3596.28 -3.40795e-14 87375.5)
(-113486 90566.4 4.60417e-14 -2532.54 3.77718e-14 -28786.5)
(-14460.8 88343.3 1.35744e-13 -2777.68 -1.06958e-13 -4277.22)
(37202 63258.5 1.08213e-13 9278.96 -1.71231e-14 11532.9)
(40714.3 62982.1 -5.66086e-14 10146.6 -5.27148e-14 12619.6)
(-4663.76 112172 -2.83645e-15 -3061.76 -2.32445e-14 -1916.86)
(-9849.24 58580.8 -2.53133e-14 -925.407 8.51267e-14 -2673.41)
(202.326 67950.5 -9.48321e-14 -471.895 7.06646e-14 -66.8855)
(12761.3 71677.1 9.06036e-14 -13825.7 -4.11574e-14 -264.095)
(157853 50506.4 -7.00609e-15 2418.58 -3.30036e-14 39766.6)
(-292681 113957 -1.64788e-15 2009.92 -1.59302e-14 -72121.4)
(93575.7 71612.6 2.27266e-13 1179.07 -4.47169e-14 23510.6)
(13676.8 110512 9.46049e-15 -17331.9 1.34897e-14 -906.906)
(-618811 111743 -2.36154e-14 -2938.26 -1.41811e-14 -154269)
(786232 51752.8 7.81328e-14 3835.27 6.96996e-14 196032)
(-337656 81658.3 -8.74559e-14 -333.339 2.86056e-14 -83862.1)
(-1.43237e+06 259330 -4.0894e-15 253668 2.44995e-15 -292460)
(-209815 47426.1 6.22853e-14 -2060.06 6.76356e-14 -52570.4)
(-344220 112955 0 3206.64 0 -84612.2)
(101619 71774.4 1.21278e-13 -84.095 -1.67517e-13 25192.8)
(157803 65149.9 6.41402e-15 -336.977 2.08262e-14 39070.6)
(1.57472e+06 -348158 -1.26756e-15 50463.2 2.21825e-16 403240)
(-2.17434e+06 9962.12 -1.7421e-14 12786.3 8.00756e-15 -536326)
(677168 58890.3 3.83052e-14 4643.35 3.2185e-14 169171)
(738236 58832.6 -3.88317e-14 4895.41 8.45594e-14 184386)
(-224210 79044.3 -2.87749e-13 1477.27 -1.02735e-13 -55264.6)
(156717 99614.3 5.06311e-14 10341.7 9.97889e-14 41450.6)
(-34668.7 68659.5 8.09562e-14 -3203.44 1.2319e-13 -9396.86)
(-892597 -579900 -1.08421e-15 67313.4 4.56503e-16 -204770)
(-2.11682e+06 72254.2 5.70826e-15 1857.64 7.37318e-15 -524764)
(1.87844e+06 36386.3 3.10141e-14 3167.11 -1.52859e-14 466864)
(-2.72053e+06 -46646.8 -8.04783e-15 -7307.53 -3.46786e-15 -676831)