/*--------------------------------*- C++ -*----------------------------------*\
| =========                 |                                                 |
| \\      /  F ield         | OpenFOAM: The Open Source CFD Toolbox           |
|  \\    /   O peration     | Version:  2.3.1                                 |
|   \\  /    A nd           | Web:      www.OpenFOAM.org                      |
|    \\/     M anipulation  |                                                 |
\*---------------------------------------------------------------------------*/
FoamFile
{
    version     2.0;
    format      ascii;
    class       volScalarField;
    location    "0.62";
    object      epsilon;
}
// * * * * * * * * * * * * * * * * * * * * * * * * * * * * * * * * * * * * * //

dimensions      [0 2 -3 0 0 0 0];

internalField   nonuniform List<scalar> 
1000
(
0.000982659
0.00101761
0.00101829
0.00101824
0.00101822
0.00101821
0.00101821
0.0010182
0.00101813
0.00101527
0.00101848
0.00102378
0.00102411
0.0010241
0.00102409
0.00102408
0.00102407
0.00102406
0.00102369
0.00101623
0.00102036
0.00102547
0.00102586
0.00102586
0.00102586
0.00102584
0.00102583
0.0010258
0.00102539
0.00101737
0.00102172
0.00102728
0.00102774
0.00102777
0.00102778
0.00102777
0.00102774
0.00102771
0.00102725
0.00101889
0.00102366
0.00102998
0.00103053
0.00103062
0.00103065
0.00103064
0.00103062
0.00103054
0.00103004
0.00102094
0.0010176
0.00102265
0.00102312
0.00102319
0.00102322
0.00102323
0.00102324
0.00102323
0.00102291
0.00101626
0.00102332
0.000654081
0.000636851
0.000636179
0.000636119
0.000636091
0.000636073
0.000636458
0.0006527
0.00102176
0.00102475
0.00063465
0.000616251
0.000615614
0.000615597
0.000615593
0.000615596
0.000616043
0.000633606
0.00102316
0.00102612
0.000634009
0.000615573
0.000614945
0.000614933
0.00061493
0.000614935
0.000615389
0.000633099
0.00102455
0.00102796
0.00063472
0.000616192
0.000615588
0.000615587
0.000615587
0.000615584
0.000616022
0.000633882
0.00102644
0.00101949
0.00102382
0.00102426
0.00102434
0.00102437
0.00102439
0.0010244
0.0010244
0.00102405
0.00101709
0.00102426
0.00063668
0.000618384
0.000617713
0.000617673
0.000617654
0.000617644
0.000618072
0.000635484
0.00102284
0.00102551
0.000616615
0.000596852
0.000596155
0.000596138
0.000596136
0.000596142
0.000596635
0.000615485
0.00102412
0.00102675
0.000616024
0.000596183
0.000595488
0.000595475
0.000595474
0.000595479
0.000595977
0.000614955
0.00102533
0.00102836
0.000616515
0.0005966
0.000595915
0.000595907
0.000595905
0.000595907
0.000596397
0.000615486
0.00102696
0.00102023
0.00102448
0.00102489
0.00102495
0.00102498
0.00102499
0.001025
0.001025
0.00102465
0.00101767
0.00102482
0.000635154
0.000616917
0.000616276
0.000616248
0.000616237
0.000616233
0.00061667
0.000634176
0.00102337
0.00102592
0.000615838
0.000596084
0.00059539
0.000595374
0.000595373
0.000595379
0.000595875
0.000614776
0.00102453
0.00102701
0.000615308
0.000595473
0.000594778
0.000594764
0.000594763
0.000594769
0.000595266
0.000614265
0.0010256
0.00102842
0.000615624
0.000595745
0.000595055
0.000595043
0.000595042
0.000595045
0.000595539
0.000614598
0.001027
0.00102062
0.00102485
0.00102523
0.00102527
0.00102529
0.00102531
0.00102532
0.00102531
0.00102496
0.00101797
0.00102514
0.000634202
0.000615992
0.000615363
0.000615341
0.000615335
0.000615336
0.00061578
0.000633334
0.00102365
0.00102615
0.000615676
0.000595968
0.000595278
0.000595263
0.000595262
0.000595269
0.000595764
0.00061466
0.00102474
0.00102716
0.000615203
0.000595427
0.000594737
0.000594722
0.000594722
0.000594728
0.000595222
0.000614189
0.00102574
0.00102846
0.00061543
0.000595641
0.000594955
0.000594942
0.000594942
0.000594944
0.000595435
0.000614423
0.00102701
0.00102069
0.001025
0.00102538
0.00102542
0.00102544
0.00102545
0.00102546
0.00102545
0.00102509
0.00101799
0.00102523
0.00063364
0.000615449
0.000614834
0.000614821
0.000614822
0.000614829
0.000615278
0.000632861
0.0010237
0.00102625
0.000615618
0.000595947
0.000595262
0.000595247
0.000595248
0.000595256
0.000595749
0.000614642
0.00102482
0.00102728
0.000615198
0.000595468
0.000594783
0.00059477
0.00059477
0.000594776
0.000595267
0.000614216
0.00102584
0.00102859
0.00061541
0.000595686
0.000595006
0.000594994
0.000594995
0.000594997
0.000595483
0.000614427
0.00102713
0.00102048
0.00102501
0.00102539
0.00102543
0.00102544
0.00102545
0.00102546
0.00102544
0.00102508
0.00101774
0.0010251
0.000633616
0.000615443
0.000614829
0.000614816
0.000614817
0.000614825
0.000615273
0.000632855
0.00102355
0.00102624
0.000615695
0.000596048
0.000595366
0.000595353
0.000595353
0.00059536
0.000595852
0.000614734
0.00102478
0.00102742
0.000615336
0.000595629
0.000594949
0.000594937
0.000594937
0.000594942
0.000595428
0.00061436
0.00102595
0.00102889
0.000615624
0.000595932
0.000595258
0.000595248
0.000595248
0.000595247
0.000595725
0.000614641
0.00102739
0.00101996
0.0010247
0.00102509
0.00102513
0.00102514
0.00102515
0.00102515
0.00102513
0.00102475
0.0010172
0.00102471
0.000634248
0.000616141
0.000615532
0.00061552
0.000615521
0.000615528
0.000615974
0.000633506
0.00102313
0.00102604
0.000616545
0.000596983
0.00059631
0.000596298
0.000596299
0.000596304
0.000596789
0.000615601
0.00102455
0.00102744
0.000616388
0.000596786
0.000596119
0.00059611
0.000596112
0.000596112
0.000596587
0.000615429
0.00102593
0.00102922
0.000617098
0.000597558
0.00059691
0.000596908
0.00059691
0.000596899
0.000597352
0.000616131
0.00102768
0.00101911
0.0010237
0.00102407
0.00102411
0.00102412
0.00102412
0.00102412
0.0010241
0.00102374
0.00101632
0.00102378
0.000653511
0.000636733
0.000636194
0.000636192
0.000636198
0.000636202
0.000636603
0.000652972
0.00102211
0.0010253
0.000637988
0.000619982
0.000619403
0.000619408
0.000619414
0.00061941
0.000619832
0.000637281
0.00102371
0.00102696
0.000639522
0.000621613
0.00062107
0.000621089
0.000621097
0.000621075
0.000621458
0.000638807
0.00102533
0.00102914
0.000643594
0.00062605
0.000625596
0.000625646
0.000625651
0.000625596
0.000625891
0.000642891
0.00102748
0.00101538
0.00101552
0.00101554
0.00101555
0.00101555
0.00101555
0.00101555
0.00101555
0.00101547
0.00101244
0.00101656
0.00102154
0.00102197
0.001022
0.00102201
0.00102202
0.00102201
0.00102198
0.00102159
0.00101369
0.001018
0.00102338
0.00102388
0.00102393
0.00102395
0.00102396
0.00102394
0.00102389
0.00102343
0.00101513
0.0010199
0.00102533
0.00102587
0.00102595
0.00102598
0.00102599
0.00102595
0.00102588
0.00102535
0.00101702
0.0010228
0.00102831
0.00102893
0.00102905
0.00102909
0.00102909
0.00102904
0.0010289
0.0010283
0.00101994
0.00102981
0.00103494
0.00103564
0.00103579
0.00103583
0.00103582
0.00103577
0.0010356
0.00103485
0.00102704
0.00103989
0.00105643
0.00105775
0.00105755
0.00105738
0.00105736
0.00105753
0.00105767
0.00105677
0.00103754
0.00114127
0.00137585
0.00138537
0.00137536
0.00137177
0.00137163
0.0013747
0.00138447
0.00138203
0.00114415
0.00219852
0.00489568
0.00507169
0.00498842
0.00495648
0.00495417
0.00498056
0.00506064
0.00495749
0.00225321
0.00927483
0.0279886
0.030222
0.0302579
0.0302278
0.0302133
0.0302107
0.0301551
0.028329
0.00954527
0.00103161
0.000652611
0.000635977
0.000635693
0.000635784
0.000635787
0.000635692
0.000635827
0.000651995
0.00102996
0.0010352
0.000676061
0.000661639
0.000661782
0.000661917
0.00066192
0.000661787
0.000661534
0.000675789
0.00103368
0.0010506
0.000795508
0.000789653
0.000791077
0.000791454
0.000791453
0.000791061
0.000789701
0.000796936
0.00104971
0.00132296
0.0023764
0.00237112
0.00231129
0.00230808
0.00230746
0.00230962
0.00236738
0.00241874
0.0013369
0.0147452
0.0813651
0.0872305
0.0868824
0.0866255
0.0865909
0.0867734
0.0871337
0.0825091
0.0153258
0.00103038
0.000618251
0.000598847
0.000598244
0.000598256
0.000598255
0.000598229
0.000598637
0.000617297
0.00102889
0.00103252
0.000620464
0.000601322
0.00060076
0.00060077
0.00060077
0.000600748
0.00060112
0.000619582
0.00103112
0.00103653
0.000651351
0.000635661
0.000636051
0.000636313
0.000636318
0.000636062
0.000635579
0.000651125
0.00103535
0.00121185
0.00207555
0.00215213
0.00215489
0.00215469
0.00215443
0.00215435
0.00215339
0.00210302
0.00122061
0.0156818
0.0834747
0.0879658
0.0878447
0.0877139
0.0876974
0.0877986
0.087994
0.0846713
0.0163023
0.00102938
0.000615488
0.000595771
0.000595106
0.000595099
0.000595098
0.00059509
0.000595556
0.000614493
0.00102791
0.00103095
0.000615403
0.000595669
0.000594985
0.000594967
0.000594966
0.000594969
0.000595453
0.000614424
0.00102953
0.00103317
0.000631478
0.000613116
0.00061263
0.000612685
0.000612689
0.000612632
0.000612969
0.000630917
0.00103191
0.00119656
0.00205561
0.00212988
0.0021338
0.00213388
0.00213379
0.0021337
0.00213216
0.00208356
0.00120472
0.016533
0.0894684
0.0940891
0.0941719
0.0941177
0.0941108
0.0941578
0.0941932
0.090824
0.0172155
0.0010288
0.00061506
0.000595286
0.000594606
0.000594596
0.000594594
0.000594592
0.000595075
0.000614067
0.00102734
0.00103018
0.000614863
0.00059505
0.000594352
0.000594332
0.00059433
0.000594337
0.000594839
0.000613876
0.00102875
0.00103209
0.000628034
0.000609394
0.000608842
0.000608875
0.000608878
0.000608843
0.000609241
0.000627411
0.0010308
0.0011942
0.00206664
0.00213953
0.00214375
0.00214409
0.00214408
0.0021439
0.00214228
0.00209528
0.00120229
0.0169423
0.0921958
0.0969433
0.0971415
0.097134
0.097133
0.097147
0.0970884
0.0936318
0.0176566
0.00102867
0.000615157
0.000595282
0.000594598
0.000594588
0.000594587
0.000594584
0.000595072
0.000614147
0.00102722
0.00103016
0.000615086
0.000595061
0.000594353
0.000594334
0.000594332
0.000594341
0.000594853
0.000614086
0.00102874
0.00103236
0.000629415
0.000610931
0.000610486
0.00061055
0.000610551
0.000610488
0.000610786
0.000628811
0.00103104
0.00126341
0.00260501
0.00274706
0.00278361
0.00279663
0.0027969
0.00278533
0.00275382
0.0026471
0.00127538
0.0170603
0.0923256
0.0970472
0.0972648
0.0972691
0.0972693
0.0972784
0.0972099
0.0937838
0.0177926
0.00102889
0.000615689
0.000595661
0.000594983
0.000594979
0.000594978
0.000594973
0.000595456
0.000614674
0.00102748
0.00103075
0.000615896
0.000595464
0.00059475
0.000594733
0.000594735
0.000594741
0.000595266
0.000614895
0.00102932
0.00103417
0.000638339
0.000620673
0.000620728
0.000620974
0.000620979
0.000620757
0.000620582
0.000637914
0.00103289
0.00140578
0.00334074
0.0035835
0.00367783
0.0037129
0.00371382
0.00368225
0.00359642
0.00339709
0.00142511
0.0170966
0.0907377
0.0952639
0.0954638
0.0954695
0.0954698
0.0954856
0.0954427
0.0921875
0.0178527
0.00102937
0.000617037
0.000596863
0.000596202
0.000596207
0.00059621
0.000596196
0.000596671
0.000616035
0.00102798
0.00103154
0.000618734
0.00059785
0.000597184
0.000597186
0.000597186
0.000597185
0.000597657
0.000617751
0.00103008
0.00103886
0.000658348
0.000642
0.000643256
0.000643959
0.000643981
0.000643321
0.00064201
0.000658073
0.00103763
0.00158336
0.00286071
0.00311742
0.00331048
0.00338744
0.0033895
0.00331926
0.00313368
0.00288824
0.00160765
0.0168831
0.0847134
0.0887036
0.0888963
0.0889168
0.0889193
0.0889286
0.0888959
0.086042
0.0176459
0.00102986
0.00063516
0.000616119
0.000615516
0.000615523
0.000615525
0.000615517
0.000615955
0.000634347
0.0010284
0.00103188
0.000644171
0.000624685
0.000624365
0.000624475
0.000624483
0.000624375
0.000624547
0.000643453
0.0010303
0.00104685
0.000709497
0.000693788
0.000695167
0.000695938
0.000695955
0.000695226
0.000693801
0.000709413
0.00104568
0.00132288
0.00189891
0.00197718
0.00199982
0.00200803
0.0020081
0.00200073
0.00198062
0.0019201
0.00133204
0.0146416
0.0616505
0.0642919
0.0646691
0.0647968
0.0648028
0.0647104
0.0644458
0.0624439
0.0152073
0.00102449
0.0010335
0.00103449
0.00103468
0.00103475
0.00103476
0.00103467
0.00103455
0.00103367
0.00102168
0.00102487
0.00103729
0.00103853
0.00103868
0.00103873
0.00103872
0.00103869
0.00103858
0.0010374
0.00102202
0.00105166
0.00107283
0.00107552
0.0010762
0.00107639
0.00107637
0.00107625
0.00107551
0.00107319
0.00104918
0.00113975
0.00128383
0.0013054
0.00130942
0.00131064
0.00131071
0.00130957
0.00130617
0.00128767
0.00114052
0.00628545
0.0119097
0.0122573
0.0123427
0.012372
0.012373
0.0123493
0.0122766
0.0119929
0.00639301
)
;

boundaryField
{
    walls
    {
        type            epsilonWallFunction;
        value           nonuniform List<scalar> 
500
(
0.000982659
0.000982659
0.000982659
0.00101761
0.00101761
0.00101829
0.00101829
0.00101824
0.00101824
0.00101822
0.00101822
0.00101821
0.00101821
0.00101821
0.00101821
0.0010182
0.0010182
0.00101813
0.00101813
0.00101527
0.00101527
0.00101527
0.00101848
0.00101848
0.00102378
0.00102411
0.0010241
0.00102409
0.00102408
0.00102407
0.00102406
0.00102369
0.00101623
0.00101623
0.00102036
0.00102036
0.00102547
0.00102586
0.00102586
0.00102586
0.00102584
0.00102583
0.0010258
0.00102539
0.00101737
0.00101737
0.00102172
0.00102172
0.00102728
0.00102774
0.00102777
0.00102778
0.00102777
0.00102774
0.00102771
0.00102725
0.00101889
0.00101889
0.00102366
0.00102366
0.00102998
0.00103053
0.00103062
0.00103065
0.00103064
0.00103062
0.00103054
0.00103004
0.00102094
0.00102094
0.0010176
0.0010176
0.00102265
0.00102312
0.00102319
0.00102322
0.00102323
0.00102324
0.00102323
0.00102291
0.00101626
0.00101626
0.00102332
0.00102176
0.00102475
0.00102316
0.00102612
0.00102455
0.00102796
0.00102644
0.00101949
0.00101949
0.00102382
0.00102426
0.00102434
0.00102437
0.00102439
0.0010244
0.0010244
0.00102405
0.00101709
0.00101709
0.00102426
0.00102284
0.00102551
0.00102412
0.00102675
0.00102533
0.00102836
0.00102696
0.00102023
0.00102023
0.00102448
0.00102489
0.00102495
0.00102498
0.00102499
0.001025
0.001025
0.00102465
0.00101767
0.00101767
0.00102482
0.00102337
0.00102592
0.00102453
0.00102701
0.0010256
0.00102842
0.001027
0.00102062
0.00102062
0.00102485
0.00102523
0.00102527
0.00102529
0.00102531
0.00102532
0.00102531
0.00102496
0.00101797
0.00101797
0.00102514
0.00102365
0.00102615
0.00102474
0.00102716
0.00102574
0.00102846
0.00102701
0.00102069
0.00102069
0.001025
0.00102538
0.00102542
0.00102544
0.00102545
0.00102546
0.00102545
0.00102509
0.00101799
0.00101799
0.00102523
0.0010237
0.00102625
0.00102482
0.00102728
0.00102584
0.00102859
0.00102713
0.00102048
0.00102048
0.00102501
0.00102539
0.00102543
0.00102544
0.00102545
0.00102546
0.00102544
0.00102508
0.00101774
0.00101774
0.0010251
0.00102355
0.00102624
0.00102478
0.00102742
0.00102595
0.00102889
0.00102739
0.00101996
0.00101996
0.0010247
0.00102509
0.00102513
0.00102514
0.00102515
0.00102515
0.00102513
0.00102475
0.0010172
0.0010172
0.00102471
0.00102313
0.00102604
0.00102455
0.00102744
0.00102593
0.00102922
0.00102768
0.00101911
0.00101911
0.0010237
0.00102407
0.00102411
0.00102412
0.00102412
0.00102412
0.0010241
0.00102374
0.00101632
0.00101632
0.00102378
0.00102211
0.0010253
0.00102371
0.00102696
0.00102533
0.00102914
0.00102748
0.00101538
0.00101538
0.00101538
0.00101552
0.00101552
0.00101554
0.00101554
0.00101555
0.00101555
0.00101555
0.00101555
0.00101555
0.00101555
0.00101555
0.00101555
0.00101555
0.00101555
0.00101547
0.00101547
0.00101244
0.00101244
0.00101244
0.00101656
0.00101656
0.00102154
0.00102197
0.001022
0.00102201
0.00102202
0.00102201
0.00102198
0.00102159
0.00101369
0.00101369
0.001018
0.001018
0.00102338
0.00102388
0.00102393
0.00102395
0.00102396
0.00102394
0.00102389
0.00102343
0.00101513
0.00101513
0.0010199
0.0010199
0.00102533
0.00102587
0.00102595
0.00102598
0.00102599
0.00102595
0.00102588
0.00102535
0.00101702
0.00101702
0.0010228
0.0010228
0.00102831
0.00102893
0.00102905
0.00102909
0.00102909
0.00102904
0.0010289
0.0010283
0.00101994
0.00101994
0.00102981
0.00102981
0.00103494
0.00103564
0.00103579
0.00103583
0.00103582
0.00103577
0.0010356
0.00103485
0.00102704
0.00102704
0.00103989
0.00103989
0.00105643
0.00105775
0.00105755
0.00105738
0.00105736
0.00105753
0.00105767
0.00105677
0.00103754
0.00103754
0.00114127
0.00114127
0.00137585
0.00138537
0.00137536
0.00137177
0.00137163
0.0013747
0.00138447
0.00138203
0.00114415
0.00114415
0.00219852
0.00219852
0.00489568
0.00507169
0.00498842
0.00495648
0.00495417
0.00498056
0.00506064
0.00495749
0.00225321
0.00225321
0.00927483
0.00927483
0.0279886
0.030222
0.0302579
0.0302278
0.0302133
0.0302107
0.0301551
0.028329
0.00954527
0.00954527
0.00103161
0.00102996
0.0010352
0.00103368
0.0010506
0.00104971
0.00132296
0.0013369
0.0147452
0.0153258
0.00103038
0.00102889
0.00103252
0.00103112
0.00103653
0.00103535
0.00121185
0.00122061
0.0156818
0.0163023
0.00102938
0.00102791
0.00103095
0.00102953
0.00103317
0.00103191
0.00119656
0.00120472
0.016533
0.0172155
0.0010288
0.00102734
0.00103018
0.00102875
0.00103209
0.0010308
0.0011942
0.00120229
0.0169423
0.0176566
0.00102867
0.00102722
0.00103016
0.00102874
0.00103236
0.00103104
0.00126341
0.00127538
0.0170603
0.0177926
0.00102889
0.00102748
0.00103075
0.00102932
0.00103417
0.00103289
0.00140578
0.00142511
0.0170966
0.0178527
0.00102937
0.00102798
0.00103154
0.00103008
0.00103886
0.00103763
0.00158336
0.00160765
0.0168831
0.0176459
0.00102986
0.0010284
0.00103188
0.0010303
0.00104685
0.00104568
0.00132288
0.00133204
0.0146416
0.0152073
0.00102449
0.00102449
0.0010335
0.00103449
0.00103468
0.00103475
0.00103476
0.00103467
0.00103455
0.00103367
0.00102168
0.00102168
0.00102487
0.00102487
0.00103729
0.00103853
0.00103868
0.00103873
0.00103872
0.00103869
0.00103858
0.0010374
0.00102202
0.00102202
0.00105166
0.00105166
0.00107283
0.00107552
0.0010762
0.00107639
0.00107637
0.00107625
0.00107551
0.00107319
0.00104918
0.00104918
0.00113975
0.00113975
0.00128383
0.0013054
0.00130942
0.00131064
0.00131071
0.00130957
0.00130617
0.00128767
0.00114052
0.00114052
0.00628545
0.00628545
0.0119097
0.0122573
0.0123427
0.012372
0.012373
0.0123493
0.0122766
0.0119929
0.00639301
0.00639301
)
;
        Cmu             0.09;
        kappa           0.41;
        E               9.8;
    }
    lid
    {
        type            epsilonWallFunction;
        value           nonuniform List<scalar> 
100
(
0.00927483
0.0279886
0.030222
0.0302579
0.0302278
0.0302133
0.0302107
0.0301551
0.028329
0.00954527
0.0147452
0.0813651
0.0872305
0.0868824
0.0866255
0.0865909
0.0867734
0.0871337
0.0825091
0.0153258
0.0156818
0.0834747
0.0879658
0.0878447
0.0877139
0.0876974
0.0877986
0.087994
0.0846713
0.0163023
0.016533
0.0894684
0.0940891
0.0941719
0.0941177
0.0941108
0.0941578
0.0941932
0.090824
0.0172155
0.0169423
0.0921958
0.0969433
0.0971415
0.097134
0.097133
0.097147
0.0970884
0.0936318
0.0176566
0.0170603
0.0923256
0.0970472
0.0972648
0.0972691
0.0972693
0.0972784
0.0972099
0.0937838
0.0177926
0.0170966
0.0907377
0.0952639
0.0954638
0.0954695
0.0954698
0.0954856
0.0954427
0.0921875
0.0178527
0.0168831
0.0847134
0.0887036
0.0888963
0.0889168
0.0889193
0.0889286
0.0888959
0.086042
0.0176459
0.0146416
0.0616505
0.0642919
0.0646691
0.0647968
0.0648028
0.0647104
0.0644458
0.0624439
0.0152073
0.00628545
0.0119097
0.0122573
0.0123427
0.012372
0.012373
0.0123493
0.0122766
0.0119929
0.00639301
)
;
        Cmu             0.09;
        kappa           0.41;
        E               9.8;
    }
}


// ************************************************************************* //
