/*--------------------------------*- C++ -*----------------------------------*\
| =========                 |                                                 |
| \\      /  F ield         | OpenFOAM: The Open Source CFD Toolbox           |
|  \\    /   O peration     | Version:  2.3.1                                 |
|   \\  /    A nd           | Web:      www.OpenFOAM.org                      |
|    \\/     M anipulation  |                                                 |
\*---------------------------------------------------------------------------*/
FoamFile
{
    version     2.0;
    format      ascii;
    class       volScalarField;
    location    "0.62";
    object      nut;
}
// * * * * * * * * * * * * * * * * * * * * * * * * * * * * * * * * * * * * * //

dimensions      [0 2 -1 0 0 0 0];

internalField   nonuniform List<scalar> 
1000
(
0.000553309
0.000559827
0.000559965
0.000559958
0.000559954
0.000559952
0.000559951
0.00055995
0.000559935
0.000559411
0.000560006
0.000561113
0.000561185
0.000561185
0.000561184
0.000561182
0.00056118
0.000561177
0.000561098
0.000559613
0.000560395
0.000561471
0.000561557
0.000561559
0.000561559
0.000561557
0.000561554
0.000561548
0.000561458
0.00055985
0.000560682
0.000561854
0.000561954
0.000561963
0.000561964
0.000561963
0.000561957
0.000561949
0.00056185
0.000560166
0.000561072
0.000562405
0.000562524
0.000562543
0.000562548
0.000562546
0.000562542
0.000562525
0.000562417
0.000560578
0.000559842
0.000560871
0.000560967
0.000560982
0.000560987
0.000560989
0.00056099
0.000560989
0.000560921
0.000559614
0.000561007
0.00108027
0.00112284
0.0011247
0.00112487
0.00112494
0.00112497
0.00112396
0.001085
0.000560724
0.000561302
0.00112854
0.00117719
0.00117911
0.00117918
0.00117919
0.00117917
0.00117791
0.00113287
0.000561015
0.000561585
0.00113119
0.00118009
0.00118201
0.00118207
0.00118207
0.00118205
0.00118075
0.00113521
0.000561301
0.000561957
0.00113186
0.00118114
0.0011831
0.00118317
0.00118317
0.00118314
0.0011818
0.00113578
0.000561682
0.000560222
0.000561114
0.000561206
0.00056122
0.000561226
0.00056123
0.000561231
0.00056123
0.000561156
0.000559785
0.000561203
0.00112326
0.00117131
0.0011733
0.00117343
0.00117348
0.0011735
0.00117231
0.00112795
0.000560945
0.000561462
0.00117621
0.00123195
0.0012342
0.00123427
0.00123427
0.00123425
0.00123276
0.00118116
0.00056121
0.000561715
0.00117873
0.00123485
0.00123711
0.00123718
0.00123717
0.00123715
0.00123563
0.00118352
0.000561459
0.000562044
0.00117884
0.00123519
0.00123747
0.00123754
0.00123754
0.0012375
0.00123596
0.00118355
0.00056179
0.000560371
0.000561249
0.000561334
0.000561345
0.000561351
0.000561354
0.000561356
0.000561354
0.00056128
0.000559906
0.000561317
0.0011272
0.00117533
0.00117726
0.00117735
0.00117738
0.0011774
0.00117617
0.00113138
0.000561055
0.000561545
0.00117847
0.00123434
0.00123658
0.00123665
0.00123665
0.00123663
0.00123513
0.00118325
0.000561295
0.000561769
0.00118073
0.00123698
0.00123924
0.00123931
0.00123931
0.00123928
0.00123776
0.00118547
0.000561514
0.000562056
0.00118079
0.00123714
0.00123941
0.00123947
0.00123947
0.00123944
0.00123791
0.00118547
0.0005618
0.00056045
0.000561323
0.000561403
0.000561412
0.000561416
0.000561419
0.00056142
0.000561418
0.000561344
0.000559967
0.000561383
0.00112953
0.00117773
0.00117962
0.0011797
0.00117972
0.00117972
0.00117847
0.00113344
0.000561112
0.000561593
0.0011789
0.00123466
0.00123689
0.00123696
0.00123696
0.00123694
0.00123544
0.00118355
0.000561338
0.000561799
0.00118096
0.00123705
0.00123929
0.00123936
0.00123936
0.00123933
0.00123782
0.00118561
0.000561541
0.000562063
0.00118105
0.00123715
0.00123939
0.00123946
0.00123946
0.00123943
0.00123791
0.00118566
0.000561803
0.000560464
0.000561356
0.000561436
0.000561444
0.000561448
0.00056145
0.000561451
0.000561448
0.000561373
0.000559972
0.0005614
0.00113096
0.0011792
0.00118106
0.00118112
0.00118112
0.0011811
0.00117983
0.00113466
0.000561123
0.000561611
0.00117915
0.00123482
0.00123705
0.00123711
0.00123711
0.00123709
0.00123558
0.0011837
0.000561353
0.000561822
0.00118109
0.00123706
0.00123929
0.00123936
0.00123936
0.00123933
0.00123782
0.00118565
0.000561561
0.000562089
0.00118121
0.00123713
0.00123936
0.00123943
0.00123943
0.0012394
0.00123788
0.00118574
0.000561825
0.000560418
0.00056136
0.000561442
0.00056145
0.000561453
0.000561454
0.000561455
0.000561451
0.000561373
0.00055992
0.000561371
0.00113117
0.00117938
0.00118124
0.0011813
0.0011813
0.00118128
0.00118
0.00113482
0.00056109
0.000561606
0.00117919
0.0012348
0.00123702
0.00123708
0.00123708
0.00123706
0.00123555
0.00118369
0.000561343
0.000561847
0.00118109
0.00123699
0.00123923
0.00123929
0.00123929
0.00123927
0.00123775
0.00118563
0.000561581
0.000562147
0.00118119
0.00123703
0.00123926
0.00123932
0.00123933
0.0012393
0.00123778
0.00118569
0.000561877
0.000560311
0.000561299
0.000561384
0.000561391
0.000561394
0.000561395
0.000561395
0.00056139
0.000561309
0.000559809
0.00056129
0.00112969
0.00117764
0.00117949
0.00117955
0.00117955
0.00117953
0.00117826
0.00113328
0.000561003
0.000561563
0.00117717
0.00123241
0.0012346
0.00123467
0.00123467
0.00123465
0.00123315
0.00118161
0.000561294
0.000561849
0.00117875
0.00123421
0.00123641
0.00123648
0.00123648
0.00123646
0.00123496
0.00118322
0.000561577
0.000562211
0.00117826
0.00123351
0.00123569
0.00123575
0.00123575
0.00123573
0.00123424
0.00118266
0.000561934
0.000560134
0.000561093
0.000561172
0.000561179
0.000561182
0.000561182
0.000561182
0.000561177
0.0005611
0.000559627
0.000561094
0.00108369
0.00112546
0.00112701
0.00112704
0.00112704
0.00112702
0.00112594
0.00108655
0.00056079
0.000561406
0.00112317
0.00117056
0.00117235
0.00117236
0.00117236
0.00117235
0.00117113
0.00112668
0.000561118
0.000561745
0.00112103
0.00116804
0.00116976
0.00116975
0.00116975
0.00116977
0.0011686
0.0011245
0.00056145
0.00056219
0.00111386
0.00115959
0.00116114
0.00116108
0.00116107
0.00116113
0.00116011
0.00111716
0.00056189
0.000559431
0.000559462
0.000559466
0.000559468
0.000559468
0.000559469
0.000559468
0.000559467
0.000559451
0.000558893
0.000559675
0.000560676
0.000560765
0.000560772
0.000560774
0.000560775
0.000560773
0.000560768
0.000560685
0.000559151
0.000559972
0.000561055
0.000561158
0.00056117
0.000561174
0.000561175
0.000561171
0.000561162
0.000561065
0.000559449
0.000560365
0.000561457
0.000561571
0.000561588
0.000561595
0.000561595
0.000561588
0.000561572
0.000561462
0.00055984
0.000560966
0.000562079
0.000562209
0.000562235
0.000562243
0.000562243
0.000562233
0.000562205
0.000562078
0.000560447
0.000562364
0.000563462
0.000563615
0.000563648
0.000563657
0.000563657
0.000563645
0.000563609
0.00056345
0.000561865
0.000564638
0.000569046
0.000569402
0.000569324
0.000569272
0.000569269
0.000569317
0.000569384
0.000569146
0.000564247
0.000588235
0.000643092
0.000645706
0.000643399
0.000642567
0.00064253
0.000643246
0.000645501
0.000644424
0.000589076
0.000760196
0.00104243
0.00105959
0.00105299
0.00105037
0.00105018
0.00105235
0.00105873
0.0010473
0.000767249
0.00123885
0.00186044
0.00191606
0.00191681
0.00191592
0.0019156
0.00191578
0.00191475
0.00186845
0.00125131
0.000562726
0.00109617
0.00113873
0.00113992
0.00113979
0.00113978
0.00113991
0.00113918
0.00109914
0.000562429
0.000563466
0.00107352
0.00111266
0.00111369
0.00111355
0.00111355
0.0011137
0.00111309
0.00107623
0.000563193
0.000566935
0.00104832
0.00108379
0.0010859
0.00108627
0.00108628
0.00108594
0.00108428
0.0010504
0.00056681
0.000622825
0.000757163
0.000776077
0.000785749
0.000786215
0.000786246
0.000785886
0.000776716
0.000755399
0.000625426
0.00145235
0.00264629
0.00271588
0.00271323
0.00271024
0.00270987
0.0027121
0.00271506
0.00265839
0.00147119
0.000562478
0.0011762
0.00123111
0.00123326
0.00123331
0.00123331
0.00123329
0.00123183
0.00118053
0.00056221
0.000562925
0.00117312
0.00122733
0.00122938
0.00122941
0.00122941
0.00122942
0.00122804
0.00117742
0.000562673
0.000563801
0.00117147
0.00122522
0.0012279
0.00122815
0.00122816
0.00122796
0.00122599
0.00117566
0.000563597
0.000600486
0.000813778
0.000824004
0.000826606
0.000827399
0.000827441
0.000826745
0.000824282
0.00081297
0.00060218
0.00148299
0.00266762
0.00271947
0.00271826
0.0027168
0.00271663
0.0027178
0.00271986
0.00268002
0.00150225
0.000562274
0.00118125
0.00123728
0.00123953
0.00123961
0.0012396
0.00123957
0.00123803
0.00118576
0.000562009
0.000562615
0.0011809
0.00123685
0.00123908
0.00123914
0.00123914
0.00123912
0.0012376
0.00118542
0.00056236
0.000563103
0.00117343
0.00122747
0.00122975
0.00122984
0.00122984
0.00122979
0.0012282
0.00117769
0.000562884
0.000597449
0.000780378
0.00078777
0.000789121
0.000789561
0.000789584
0.000789186
0.000787879
0.000779482
0.000599045
0.00151248
0.00273576
0.00278641
0.00278745
0.00278689
0.00278682
0.00278733
0.00278753
0.00274917
0.00153297
0.000562157
0.00118138
0.00123755
0.0012398
0.00123988
0.00123987
0.00123984
0.0012383
0.00118593
0.000561895
0.00056246
0.00118119
0.00123733
0.00123957
0.00123964
0.00123964
0.00123961
0.00123809
0.00118574
0.000562203
0.000562869
0.0011735
0.00122752
0.00122966
0.00122969
0.00122969
0.00122969
0.00122824
0.00117777
0.000562641
0.000597018
0.000763863
0.000769464
0.000770054
0.000770243
0.000770251
0.000770073
0.000769464
0.000762817
0.000598612
0.00152658
0.0027659
0.00281677
0.00281901
0.00281896
0.00281895
0.00281908
0.00281826
0.00277984
0.00154772
0.000562132
0.00118117
0.00123764
0.00123992
0.00123999
0.00123999
0.00123995
0.0012384
0.0011858
0.000561872
0.00056246
0.00118072
0.00123743
0.00123971
0.00123978
0.00123978
0.00123975
0.0012382
0.00118534
0.000562204
0.000562923
0.00117189
0.00122589
0.00122791
0.00122791
0.00122791
0.00122794
0.0012266
0.00117615
0.000562692
0.000612138
0.000697413
0.000698342
0.000696273
0.000695415
0.000695402
0.000696174
0.000698101
0.000696219
0.000614467
0.00153074
0.00276624
0.00281666
0.00281906
0.00281911
0.00281911
0.0028192
0.00281832
0.00278037
0.00155234
0.00056218
0.00118091
0.00123787
0.0012402
0.00124028
0.00124027
0.00124023
0.00123865
0.00118561
0.000561927
0.00056258
0.0011798
0.00123767
0.00124004
0.00124011
0.00124011
0.00124007
0.00123846
0.00118448
0.000562322
0.000563332
0.00116896
0.00122303
0.00122488
0.00122479
0.00122478
0.0012249
0.00122369
0.00117315
0.00056311
0.000639424
0.000664562
0.000666763
0.000664581
0.000663728
0.000663714
0.00066447
0.000666562
0.000663943
0.000642881
0.00153262
0.00274683
0.00279554
0.00279774
0.00279781
0.00279782
0.00279798
0.00279738
0.00276099
0.00155487
0.000562288
0.00117951
0.00123689
0.00123928
0.00123937
0.00123937
0.00123932
0.00123769
0.00118425
0.000562037
0.000562736
0.00117811
0.00123782
0.00124035
0.00124045
0.00124044
0.00124039
0.00123862
0.00118286
0.000562472
0.000564364
0.00117848
0.00123533
0.00123713
0.00123697
0.00123697
0.0012371
0.00123602
0.00118297
0.00056416
0.000666598
0.00072789
0.000730413
0.000720935
0.000717365
0.000717265
0.000720537
0.000729837
0.000728491
0.000670305
0.00152461
0.00267151
0.00271596
0.00271822
0.00271848
0.00271851
0.00271857
0.00271799
0.00268487
0.00154689
0.000562406
0.0011355
0.00118666
0.00118878
0.00118887
0.00118886
0.00118882
0.00118736
0.00113952
0.00056214
0.000562771
0.0011392
0.00119498
0.00119759
0.00119778
0.00119778
0.00119762
0.00119571
0.00114339
0.000562487
0.000565982
0.00117024
0.00122843
0.00123198
0.00123252
0.00123252
0.00123202
0.00122924
0.00117445
0.000565782
0.000617686
0.000840891
0.00086407
0.000862207
0.00086099
0.000860961
0.000862103
0.000864075
0.000840946
0.000619352
0.00144003
0.00236597
0.00240128
0.00240647
0.00240824
0.00240831
0.002407
0.0024032
0.00237555
0.00145756
0.000561381
0.000563235
0.000563442
0.000563483
0.000563498
0.000563501
0.000563482
0.000563452
0.000563266
0.000560872
0.000561305
0.000563914
0.000564178
0.000564211
0.000564221
0.00056422
0.000564213
0.000564189
0.000563938
0.000560787
0.000566934
0.000571216
0.000571763
0.000571906
0.000571948
0.000571944
0.000571916
0.000571766
0.000571286
0.000566498
0.000584689
0.000612821
0.000616888
0.00061763
0.000617856
0.000617866
0.000617658
0.000617024
0.000613501
0.000584904
0.00106306
0.00133109
0.00134495
0.00134841
0.00134959
0.00134963
0.00134866
0.00134568
0.00133418
0.00106894
)
;

boundaryField
{
    walls
    {
        type            nutkWallFunction;
        Cmu             0.09;
        kappa           0.41;
        E               9.8;
        value           nonuniform List<scalar> 
500
(
6.73864e-05
6.73864e-05
6.73864e-05
6.81676e-05
6.81676e-05
6.8183e-05
6.8183e-05
6.8182e-05
6.8182e-05
6.81815e-05
6.81815e-05
6.81814e-05
6.81814e-05
6.81812e-05
6.81812e-05
6.81812e-05
6.81812e-05
6.81795e-05
6.81795e-05
6.81164e-05
6.81164e-05
6.81164e-05
6.81875e-05
6.81875e-05
6.83082e-05
6.83156e-05
6.83155e-05
6.83153e-05
6.83152e-05
6.83149e-05
6.83146e-05
6.83062e-05
6.81384e-05
6.81384e-05
6.82301e-05
6.82301e-05
6.83466e-05
6.83556e-05
6.83558e-05
6.83557e-05
6.83554e-05
6.8355e-05
6.83545e-05
6.83449e-05
6.81643e-05
6.81643e-05
6.82613e-05
6.82613e-05
6.8388e-05
6.83985e-05
6.83993e-05
6.83994e-05
6.83992e-05
6.83986e-05
6.83978e-05
6.83874e-05
6.81989e-05
6.81989e-05
6.83048e-05
6.83048e-05
6.84489e-05
6.84615e-05
6.84635e-05
6.84641e-05
6.84638e-05
6.84634e-05
6.84615e-05
6.84501e-05
6.82453e-05
6.82453e-05
6.81679e-05
6.81679e-05
6.82822e-05
6.82928e-05
6.82945e-05
6.82951e-05
6.82954e-05
6.82955e-05
6.82954e-05
6.82881e-05
6.81388e-05
6.81388e-05
6.82974e-05
6.82631e-05
6.83297e-05
6.8295e-05
6.83607e-05
6.83265e-05
6.84021e-05
6.8369e-05
6.82105e-05
6.82105e-05
6.83088e-05
6.83189e-05
6.83205e-05
6.83213e-05
6.83217e-05
6.83218e-05
6.83217e-05
6.83138e-05
6.81577e-05
6.81577e-05
6.83186e-05
6.82875e-05
6.83471e-05
6.83165e-05
6.8375e-05
6.8344e-05
6.84114e-05
6.83807e-05
6.82272e-05
6.82272e-05
6.83238e-05
6.8333e-05
6.83343e-05
6.8335e-05
6.83353e-05
6.83355e-05
6.83354e-05
6.83275e-05
6.8171e-05
6.8171e-05
6.83313e-05
6.82997e-05
6.83563e-05
6.8326e-05
6.8381e-05
6.83502e-05
6.84128e-05
6.83817e-05
6.82361e-05
6.82361e-05
6.83319e-05
6.83406e-05
6.83416e-05
6.83421e-05
6.83424e-05
6.83426e-05
6.83424e-05
6.83345e-05
6.81777e-05
6.81777e-05
6.83386e-05
6.8306e-05
6.83616e-05
6.83307e-05
6.83844e-05
6.83532e-05
6.84136e-05
6.8382e-05
6.82377e-05
6.82377e-05
6.83356e-05
6.83442e-05
6.8345e-05
6.83455e-05
6.83457e-05
6.83459e-05
6.83456e-05
6.83375e-05
6.81782e-05
6.81782e-05
6.83405e-05
6.83072e-05
6.83637e-05
6.83324e-05
6.8387e-05
6.83555e-05
6.84166e-05
6.83846e-05
6.82327e-05
6.82327e-05
6.83358e-05
6.83445e-05
6.83453e-05
6.83457e-05
6.83459e-05
6.83459e-05
6.83456e-05
6.83372e-05
6.81725e-05
6.81725e-05
6.83376e-05
6.83035e-05
6.83634e-05
6.83314e-05
6.839e-05
6.83578e-05
6.84232e-05
6.83905e-05
6.8221e-05
6.8221e-05
6.83288e-05
6.83378e-05
6.83386e-05
6.83389e-05
6.8339e-05
6.8339e-05
6.83386e-05
6.833e-05
6.81603e-05
6.81603e-05
6.83287e-05
6.82941e-05
6.83587e-05
6.83262e-05
6.83905e-05
6.83575e-05
6.84305e-05
6.8397e-05
6.82016e-05
6.82016e-05
6.83063e-05
6.83147e-05
6.83154e-05
6.83157e-05
6.83158e-05
6.83157e-05
6.83153e-05
6.8307e-05
6.81402e-05
6.81402e-05
6.83074e-05
6.82708e-05
6.83419e-05
6.8307e-05
6.83793e-05
6.83438e-05
6.84286e-05
6.83923e-05
6.81188e-05
6.81188e-05
6.81188e-05
6.81221e-05
6.81221e-05
6.81225e-05
6.81225e-05
6.81227e-05
6.81227e-05
6.81227e-05
6.81227e-05
6.81228e-05
6.81228e-05
6.81228e-05
6.81228e-05
6.81226e-05
6.81226e-05
6.81209e-05
6.81209e-05
6.80539e-05
6.80539e-05
6.80539e-05
6.81456e-05
6.81456e-05
6.82581e-05
6.82677e-05
6.82686e-05
6.82688e-05
6.82689e-05
6.82687e-05
6.82681e-05
6.82592e-05
6.80824e-05
6.80824e-05
6.81785e-05
6.81785e-05
6.82998e-05
6.8311e-05
6.83123e-05
6.83127e-05
6.83129e-05
6.83125e-05
6.83114e-05
6.83009e-05
6.81152e-05
6.81152e-05
6.82217e-05
6.82217e-05
6.83439e-05
6.83563e-05
6.83581e-05
6.83588e-05
6.83589e-05
6.83581e-05
6.83564e-05
6.83444e-05
6.81582e-05
6.81582e-05
6.82876e-05
6.82876e-05
6.84116e-05
6.84257e-05
6.84283e-05
6.84293e-05
6.84293e-05
6.84282e-05
6.84251e-05
6.84114e-05
6.82248e-05
6.82248e-05
6.84449e-05
6.84449e-05
6.85617e-05
6.85778e-05
6.85812e-05
6.85821e-05
6.8582e-05
6.85808e-05
6.8577e-05
6.85599e-05
6.83843e-05
6.83843e-05
6.86778e-05
6.86778e-05
6.9078e-05
6.91099e-05
6.91043e-05
6.91e-05
6.90997e-05
6.91039e-05
6.91081e-05
6.90865e-05
6.86278e-05
6.86278e-05
7.09816e-05
7.09816e-05
7.59498e-05
7.61532e-05
7.5952e-05
7.58795e-05
7.58766e-05
7.59387e-05
7.61352e-05
7.60714e-05
7.10505e-05
7.10505e-05
8.86187e-05
8.86187e-05
0.000115672
0.000117094
0.000116464
0.000116219
0.000116201
0.000116404
0.000117011
0.000116144
8.93433e-05
8.93433e-05
0.000140016
0.000140016
0.000198957
0.000203899
0.000203974
0.000203905
0.000203875
0.000203875
0.000203763
0.000199712
0.000141292
0.000141292
6.84851e-05
6.84492e-05
6.85662e-05
6.85331e-05
6.89206e-05
6.89024e-05
7.4639e-05
7.49069e-05
0.000161918
0.00016387
6.84576e-05
6.8425e-05
6.8506e-05
6.84755e-05
6.85979e-05
6.85725e-05
7.2401e-05
7.25792e-05
0.000165054
0.00016705
6.8435e-05
6.84029e-05
6.8471e-05
6.84401e-05
6.8522e-05
6.84949e-05
7.2086e-05
7.22536e-05
0.000167861
0.000169977
6.8422e-05
6.83902e-05
6.84537e-05
6.84226e-05
6.84974e-05
6.84693e-05
7.20383e-05
7.22051e-05
0.000169182
0.000171359
6.84191e-05
6.83876e-05
6.84534e-05
6.84224e-05
6.85034e-05
6.84747e-05
7.349e-05
7.37285e-05
0.000169563
0.000171784
6.84241e-05
6.83935e-05
6.84667e-05
6.84355e-05
6.85453e-05
6.85176e-05
7.62434e-05
7.65987e-05
0.000169695
0.000171983
6.84353e-05
6.84049e-05
6.84843e-05
6.84525e-05
6.86528e-05
6.86266e-05
7.92862e-05
7.96878e-05
0.000168994
0.000171314
6.84469e-05
6.84148e-05
6.84909e-05
6.84565e-05
6.88312e-05
6.88062e-05
7.44867e-05
7.46617e-05
0.000161332
0.000163221
6.83278e-05
6.83278e-05
6.85314e-05
6.85538e-05
6.85581e-05
6.85597e-05
6.856e-05
6.8558e-05
6.8555e-05
6.8535e-05
6.82663e-05
6.82663e-05
6.83319e-05
6.83319e-05
6.86137e-05
6.86418e-05
6.86453e-05
6.86464e-05
6.86463e-05
6.86455e-05
6.8643e-05
6.86162e-05
6.82692e-05
6.82692e-05
6.89377e-05
6.89377e-05
6.94059e-05
6.9465e-05
6.94802e-05
6.94845e-05
6.9484e-05
6.94813e-05
6.94651e-05
6.94136e-05
6.88845e-05
6.88845e-05
7.08528e-05
7.08528e-05
7.37993e-05
7.42211e-05
7.42988e-05
7.43224e-05
7.43237e-05
7.43018e-05
7.42359e-05
7.38734e-05
7.0871e-05
7.0871e-05
0.000123272
0.000123272
0.000150958
0.000152342
0.000152681
0.000152796
0.0001528
0.000152707
0.000152418
0.000151285
0.000123927
0.000123927
)
;
    }
    lid
    {
        type            nutkWallFunction;
        Cmu             0.09;
        kappa           0.41;
        E               9.8;
        value           nonuniform List<scalar> 
100
(
0.000140016
0.000198957
0.000203899
0.000203974
0.000203905
0.000203875
0.000203875
0.000203763
0.000199712
0.000141292
0.000161918
0.000275803
0.000281911
0.000281589
0.000281327
0.000281293
0.000281482
0.00028182
0.000276977
0.00016387
0.000165054
0.000277937
0.000282539
0.000282421
0.00028229
0.000282274
0.000282376
0.000282569
0.000279142
0.00016705
0.000167861
0.000284026
0.000288532
0.000288614
0.000288563
0.000288557
0.000288602
0.000288631
0.000285326
0.000169977
0.000169182
0.000286706
0.000291235
0.000291425
0.000291418
0.000291418
0.00029143
0.00029137
0.000288054
0.000171359
0.000169563
0.000286806
0.000291304
0.000291511
0.000291515
0.000291515
0.000291523
0.000291455
0.000288174
0.000171784
0.000169695
0.000285208
0.00028957
0.000289761
0.000289767
0.000289767
0.000289782
0.000289738
0.000286583
0.000171983
0.000168994
0.00027897
0.000282996
0.000283191
0.000283212
0.000283215
0.000283223
0.000283185
0.000280287
0.000171314
0.000161332
0.000252227
0.000255537
0.000256007
0.000256166
0.000256174
0.000256058
0.000255724
0.000253204
0.000163221
0.000123272
0.000150958
0.000152342
0.000152681
0.000152796
0.0001528
0.000152707
0.000152418
0.000151285
0.000123927
)
;
    }
}


// ************************************************************************* //
