/*--------------------------------*- C++ -*----------------------------------*\
| =========                 |                                                 |
| \\      /  F ield         | OpenFOAM: The Open Source CFD Toolbox           |
|  \\    /   O peration     | Version:  2.3.1                                 |
|   \\  /    A nd           | Web:      www.OpenFOAM.org                      |
|    \\/     M anipulation  |                                                 |
\*---------------------------------------------------------------------------*/
FoamFile
{
    version     2.0;
    format      ascii;
    class       volVectorField;
    location    "0.5";
    object      U;
}
// * * * * * * * * * * * * * * * * * * * * * * * * * * * * * * * * * * * * * //

dimensions      [0 1 -1 0 0 0 0];

internalField   nonuniform List<vector> 
3072
(
(-0.0134634 -0.13136 5.76394e-21)
(-0.0068179 -0.12057 -2.23856e-20)
(-0.00311276 -0.102445 -4.29864e-20)
(-0.00519671 -0.0829034 -1.69919e-19)
(-0.0116384 -0.066349 3.86093e-20)
(-0.0211926 -0.0548498 0)
(-0.0333641 -0.0505788 0)
(-0.0470479 -0.053793 8.26867e-20)
(-0.0601219 -0.061903 2.46386e-19)
(-0.069953 -0.0708415 -3.27319e-19)
(-0.0747377 -0.0773178 5.77885e-19)
(-0.0774945 -0.0801907 -5.70426e-19)
(0.0150438 -0.147333 0)
(0.0403415 -0.131753 0)
(0.0417771 -0.115598 0)
(0.0284194 -0.100523 0)
(0.00842472 -0.0866099 2.35441e-19)
(-0.0142537 -0.0751686 -1.60102e-19)
(-0.0374349 -0.0658762 0)
(-0.059299 -0.0608307 -1.40604e-19)
(-0.0772199 -0.0630423 4.31049e-19)
(-0.0883357 -0.0736283 -2.88324e-19)
(-0.0968288 -0.0890795 -1.44284e-19)
(-0.116107 -0.0981657 -1.26566e-19)
(0.0325899 -0.166627 -2.59269e-20)
(0.0553039 -0.152622 -6.85709e-20)
(0.0437182 -0.147355 6.77974e-20)
(0.0191479 -0.142029 0)
(-0.00979519 -0.133814 0)
(-0.0411223 -0.123638 3.24401e-19)
(-0.0712322 -0.113315 -3.21368e-19)
(-0.0975952 -0.10396 -4.33863e-19)
(-0.118396 -0.0993451 2.87042e-19)
(-0.135364 -0.10319 1.2212e-19)
(-0.157622 -0.110233 0)
(-0.183118 -0.11587 2.0223e-19)
(0.0407902 -0.190438 -7.30982e-21)
(0.048535 -0.183953 3.05026e-20)
(0.0267874 -0.192662 0)
(-0.000822167 -0.194899 0)
(-0.0325889 -0.190961 -1.46125e-19)
(-0.0669666 -0.181212 1.49495e-19)
(-0.102055 -0.168106 0)
(-0.133717 -0.154168 0)
(-0.161381 -0.142537 2.17997e-19)
(-0.187294 -0.13559 -1.2557e-19)
(-0.212572 -0.13161 -1.85119e-19)
(-0.233511 -0.130223 0)
(0.0304221 -0.211345 1.32033e-20)
(0.0255962 -0.216917 -2.3813e-20)
(0.00266091 -0.233969 0)
(-0.0250878 -0.242034 1.0663e-20)
(-0.0580336 -0.241879 -3.27283e-19)
(-0.0937722 -0.233388 2.35982e-19)
(-0.129522 -0.218357 -2.18154e-19)
(-0.163264 -0.199494 0)
(-0.193271 -0.179879 0)
(-0.218507 -0.161914 0)
(-0.237655 -0.146383 1.08533e-19)
(-0.251209 -0.133613 1.3067e-20)
(0.00982493 -0.228949 -9.7486e-21)
(-0.00203537 -0.243823 1.97435e-20)
(-0.0244581 -0.265465 0)
(-0.0490747 -0.277739 1.75471e-19)
(-0.078092 -0.280001 9.99249e-21)
(-0.110384 -0.271617 3.20825e-19)
(-0.143234 -0.254378 -1.55172e-19)
(-0.174147 -0.23111 -1.43777e-20)
(-0.200183 -0.204682 1.64279e-20)
(-0.219271 -0.177928 1.4773e-20)
(-0.230986 -0.15267 -1.24501e-20)
(-0.237782 -0.129513 2.26778e-19)
(-0.0138085 -0.243189 -1.61277e-20)
(-0.0300579 -0.261538 0)
(-0.0491586 -0.282864 0)
(-0.0674231 -0.294358 -5.77172e-20)
(-0.0886457 -0.295622 0)
(-0.113178 -0.286588 -1.72174e-19)
(-0.139234 -0.26844 2.44081e-20)
(-0.163862 -0.243195 -4.02029e-20)
(-0.183808 -0.213725 5.29998e-20)
(-0.197045 -0.182962 5.30875e-20)
(-0.203711 -0.153072 -5.36837e-20)
(-0.20621 -0.12478 -2.81583e-20)
(-0.0353244 -0.255744 1.48399e-20)
(-0.0534128 -0.274187 0)
(-0.067165 -0.290835 4.88275e-20)
(-0.076886 -0.296925 5.50891e-20)
(-0.0884783 -0.293251 0)
(-0.103662 -0.280938 0)
(-0.121755 -0.26177 7.92564e-20)
(-0.139872 -0.23696 1.11837e-20)
(-0.15499 -0.20838 -1.27041e-19)
(-0.165001 -0.178404 -9.77587e-21)
(-0.169889 -0.149015 3.62905e-20)
(-0.171256 -0.120807 -4.025e-20)
(-0.0563874 -0.268027 -2.33053e-20)
(-0.0744365 -0.289206 1.15568e-20)
(-0.0802561 -0.301129 -8.6147e-20)
(-0.078663 -0.300248 0)
(-0.0792649 -0.288828 0)
(-0.0860933 -0.269296 4.10796e-20)
(-0.0982787 -0.245173 -4.1967e-20)
(-0.112061 -0.218969 -5.07631e-20)
(-0.124222 -0.192148 1.6457e-20)
(-0.133056 -0.165591 1.56673e-20)
(-0.138392 -0.139901 -1.44969e-20)
(-0.140737 -0.115194 1.6654e-20)
(-0.0705908 -0.281158 2.05976e-20)
(-0.0879663 -0.303473 -9.84512e-21)
(-0.0812211 -0.304544 3.8693e-20)
(-0.0660504 -0.293617 -2.78316e-20)
(-0.057343 -0.276543 -1.4711e-20)
(-0.0602487 -0.254932 -2.13489e-20)
(-0.0710242 -0.229546 2.09615e-20)
(-0.0845973 -0.202379 -1.0477e-21)
(-0.097005 -0.175447 -1.12675e-20)
(-0.106197 -0.150101 -1.77884e-20)
(-0.112094 -0.127123 6.26903e-21)
(-0.115425 -0.10629 -6.14657e-21)
(-0.0958756 -0.281603 0)
(-0.0975842 -0.28972 -1.64321e-20)
(-0.0663766 -0.267321 -1.61566e-20)
(-0.0352279 -0.245132 0)
(-0.0222561 -0.22861 3.73648e-20)
(-0.0266916 -0.213238 -8.89099e-21)
(-0.0407246 -0.196555 8.83374e-21)
(-0.0571563 -0.178544 -6.68836e-21)
(-0.0717225 -0.159281 -1.83746e-20)
(-0.0827085 -0.139047 1.62071e-20)
(-0.089884 -0.118726 -2.67401e-20)
(-0.0940674 -0.0992052 0)
(-0.0480402 -0.280905 6.86387e-21)
(-0.0504976 -0.239113 -6.74315e-21)
(-0.0200468 -0.192981 2.90144e-20)
(0.00483478 -0.168181 0)
(0.011121 -0.16005 -8.33805e-21)
(0.00161408 -0.155972 8.82975e-22)
(-0.0153743 -0.14989 4.424e-21)
(-0.0332876 -0.141117 1.25551e-20)
(-0.0488436 -0.130301 2.01377e-20)
(-0.0609482 -0.117958 -2.75891e-20)
(-0.0696458 -0.104409 2.44977e-20)
(-0.0753984 -0.0899947 0)
(-0.0849679 -0.0773143 3.32403e-19)
(-0.0977936 -0.0686901 0)
(-0.107692 -0.060766 7.5187e-20)
(-0.108516 -0.0571132 1.61871e-19)
(-0.103752 -0.0561536 0)
(-0.0961878 -0.051403 -8.61066e-20)
(-0.0886619 -0.0425651 9.11905e-20)
(-0.0839141 -0.0305242 -2.63417e-19)
(-0.0837099 -0.0167531 4.48721e-20)
(-0.0916389 -0.00326004 -4.47474e-20)
(-0.107621 0.0095982 2.20735e-20)
(-0.123498 0.017825 -3.99603e-20)
(-0.138841 -0.103386 3.88696e-19)
(-0.152993 -0.110494 -1.34599e-19)
(-0.159787 -0.11652 -1.36559e-19)
(-0.163607 -0.117949 1.1825e-19)
(-0.16747 -0.115098 2.71713e-19)
(-0.168302 -0.107712 -2.71379e-19)
(-0.165203 -0.0921499 -6.29919e-21)
(-0.159319 -0.0673712 7.70772e-20)
(-0.151344 -0.0350652 1.73349e-19)
(-0.139758 -0.00246707 -8.46421e-20)
(-0.138519 0.0223829 3.98206e-21)
(-0.140962 0.0276321 4.90152e-20)
(-0.20374 -0.122916 -3.85747e-19)
(-0.220656 -0.130584 -9.76961e-20)
(-0.237169 -0.137778 1.82111e-19)
(-0.251618 -0.145012 -2.64687e-19)
(-0.261447 -0.151212 0)
(-0.266413 -0.152718 2.03933e-19)
(-0.264215 -0.144936 -2.58913e-19)
(-0.253327 -0.123215 0)
(-0.232072 -0.0845396 0)
(-0.202473 -0.033173 0)
(-0.174138 0.0125863 3.5468e-20)
(-0.157938 0.0236082 -7.63315e-22)
(-0.250993 -0.131574 -6.10745e-20)
(-0.269247 -0.135386 1.35234e-19)
(-0.28834 -0.142644 0)
(-0.305716 -0.153637 7.30686e-20)
(-0.319523 -0.166895 0)
(-0.328568 -0.179862 -1.53329e-19)
(-0.33144 -0.188592 6.9782e-20)
(-0.324964 -0.186288 7.83944e-20)
(-0.304406 -0.164739 0)
(-0.266532 -0.117255 4.52309e-20)
(-0.215216 -0.0480285 -7.65086e-20)
(-0.171642 0.00712486 2.0154e-20)
(-0.263401 -0.123451 -1.21758e-19)
(-0.276937 -0.116901 1.00908e-19)
(-0.290807 -0.116144 -9.026e-20)
(-0.303773 -0.122974 -1.00447e-19)
(-0.315495 -0.137811 0)
(-0.325878 -0.158873 1.38142e-19)
(-0.334468 -0.18197 -1.31143e-19)
(-0.340087 -0.202951 6.67201e-20)
(-0.33664 -0.213334 -6.54091e-20)
(-0.315903 -0.197938 2.98469e-20)
(-0.2721 -0.136001 -1.77363e-20)
(-0.208019 -0.0247525 2.07856e-20)
(-0.243512 -0.108507 -2.89343e-19)
(-0.249427 -0.0909888 -4.06485e-21)
(-0.254539 -0.0798476 1.66949e-19)
(-0.258456 -0.0778811 1.02375e-19)
(-0.261607 -0.0860617 0)
(-0.266242 -0.103837 0)
(-0.2762 -0.13062 6.04971e-20)
(-0.289677 -0.162566 0)
(-0.303992 -0.197505 0)
(-0.310504 -0.225069 -2.78122e-20)
(-0.300408 -0.213239 -2.22784e-20)
(-0.259707 -0.102105 -1.38974e-20)
(-0.207215 -0.0979043 1.00414e-19)
(-0.207107 -0.0734002 -7.78432e-20)
(-0.205415 -0.0542059 0)
(-0.202722 -0.0440009 5.63823e-20)
(-0.20063 -0.0450648 -7.26134e-20)
(-0.201658 -0.0573376 1.0767e-19)
(-0.206695 -0.0783383 -1.76265e-19)
(-0.219488 -0.107024 0)
(-0.238259 -0.143573 0)
(-0.258463 -0.190271 -3.92934e-20)
(-0.278542 -0.233276 1.12579e-20)
(-0.284341 -0.178575 2.28023e-20)
(-0.170503 -0.0934672 0)
(-0.167798 -0.0672699 5.32776e-21)
(-0.163055 -0.0442363 1.33019e-20)
(-0.157173 -0.0277973 -1.5201e-20)
(-0.152278 -0.0212142 6.31563e-20)
(-0.151294 -0.026089 0)
(-0.156332 -0.0419838 0)
(-0.168253 -0.0681812 -3.91763e-20)
(-0.186169 -0.100875 7.69021e-21)
(-0.206422 -0.140838 6.62158e-20)
(-0.234034 -0.19793 -9.90034e-21)
(-0.278822 -0.211799 2.44461e-21)
(-0.140694 -0.0910028 2.22715e-21)
(-0.13836 -0.0670943 9.5462e-21)
(-0.133721 -0.0443659 -3.2479e-20)
(-0.127451 -0.0250723 1.71274e-20)
(-0.121357 -0.0122547 -5.94245e-20)
(-0.118148 -0.00861799 3.50297e-20)
(-0.120714 -0.0156078 -2.23686e-20)
(-0.130427 -0.0339355 8.96813e-22)
(-0.147979 -0.0636286 5.03377e-20)
(-0.171831 -0.104023 -1.7033e-20)
(-0.201799 -0.151656 2.73718e-21)
(-0.261091 -0.19593 -2.32894e-21)
(-0.116693 -0.0865366 1.33699e-20)
(-0.116003 -0.0669487 -1.02699e-21)
(-0.113246 -0.0473712 2.55272e-21)
(-0.108599 -0.028707 -1.58282e-20)
(-0.103049 -0.0129514 2.44995e-20)
(-0.098537 -0.00279241 0)
(-0.0978332 -0.000896476 -6.16112e-21)
(-0.103412 -0.00934545 3.89093e-21)
(-0.11794 -0.0298561 0)
(-0.142455 -0.063228 0)
(-0.18075 -0.108518 0)
(-0.244304 -0.147833 -5.33838e-21)
(-0.0962811 -0.0810721 -3.95227e-20)
(-0.0970115 -0.0641782 1.60363e-21)
(-0.0962599 -0.0479758 0)
(-0.0939432 -0.0320761 -1.3359e-20)
(-0.0902944 -0.0168905 2.00702e-20)
(-0.08621 -0.00397919 -8.49648e-21)
(-0.083639 0.0041249 9.98108e-21)
(-0.0853123 0.00462203 -1.62805e-20)
(-0.0954441 -0.00477315 1.88429e-21)
(-0.116927 -0.0252919 0)
(-0.158856 -0.0556856 0)
(-0.226264 -0.0780948 1.48845e-20)
(-0.0788398 -0.075115 1.93362e-20)
(-0.0806076 -0.0602994 7.2166e-21)
(-0.0811059 -0.0460458 -2.1356e-20)
(-0.0805203 -0.032357 8.5189e-22)
(-0.0788748 -0.0190731 -8.42331e-22)
(-0.0762922 -0.00650265 0)
(-0.0736015 0.00409617 6.14595e-21)
(-0.0727035 0.0106306 -3.1711e-21)
(-0.0776387 0.0111105 0)
(-0.0931685 0.00568102 0)
(-0.132318 -0.000555045 0)
(-0.196101 0.0201702 -9.08941e-21)
(-0.131364 0.0134816 1.11841e-20)
(-0.120584 0.00682293 2.22995e-20)
(-0.102457 0.00310497 0)
(-0.0829097 0.00518454 1.27197e-19)
(-0.0663484 0.0116289 -4.17813e-20)
(-0.054843 0.0211905 -3.33555e-19)
(-0.0505736 0.0333721 4.18305e-19)
(-0.0537975 0.0470649 2.42653e-19)
(-0.0619211 0.0601449 -5.78439e-19)
(-0.0708707 0.0699801 3.25822e-19)
(-0.0773503 0.0747612 -6.61287e-19)
(-0.0802236 0.0774983 4.89032e-19)
(-0.147328 -0.0150227 -9.89543e-21)
(-0.131747 -0.0403477 7.60941e-20)
(-0.115588 -0.0418036 -7.31886e-20)
(-0.100509 -0.0284497 7.98697e-20)
(-0.08659 -0.00844724 8.30317e-20)
(-0.075145 0.014246 -4.77757e-19)
(-0.065849 0.0374458 8.02075e-20)
(-0.0608074 0.0593274 0)
(-0.0630332 0.0772602 4.22399e-19)
(-0.0736385 0.0883731 -1.57129e-20)
(-0.0891146 0.096833 -4.17013e-19)
(-0.0982095 0.116072 -1.42767e-19)
(-0.166623 -0.0325831 7.94318e-21)
(-0.152619 -0.0553234 0)
(-0.147351 -0.0437502 -6.79946e-20)
(-0.142025 -0.0191769 2.24149e-19)
(-0.133807 0.00978121 -3.08513e-19)
(-0.123626 0.0411324 0)
(-0.113295 0.0712658 1.56079e-19)
(-0.103933 0.0976473 0)
(-0.0993209 0.118447 0)
(-0.103192 0.135381 -2.43161e-19)
(-0.110263 0.157598 3.56219e-19)
(-0.115919 0.183056 2.0099e-19)
(-0.190437 -0.0407837 -3.62975e-20)
(-0.183967 -0.0485437 2.85463e-20)
(-0.192684 -0.0268057 6.53735e-20)
(-0.194928 0.000808894 4.85798e-21)
(-0.190989 0.0325941 2.14422e-19)
(-0.181228 0.0669936 -1.4902e-19)
(-0.168107 0.1021 0)
(-0.154156 0.133767 -2.46303e-19)
(-0.142523 0.161414 -8.31667e-20)
(-0.135595 0.187295 2.08994e-20)
(-0.131639 0.212544 1.84075e-19)
(-0.130286 0.233448 -1.38176e-19)
(-0.211347 -0.0303962 -1.11464e-20)
(-0.216951 -0.0255842 5.04978e-20)
(-0.234023 -0.00266382 -9.75145e-20)
(-0.242101 0.0250895 1.67712e-19)
(-0.241946 0.0580511 -2.3114e-19)
(-0.233445 0.0938065 2.23389e-19)
(-0.218397 0.129568 -2.17329e-19)
(-0.199515 0.163311 1.82977e-19)
(-0.17989 0.193305 -2.32233e-19)
(-0.16193 0.218519 0)
(-0.146417 0.237639 0)
(-0.133675 0.25116 2.35328e-19)
(-0.228949 -0.009772 1.99541e-20)
(-0.24386 0.00207615 -3.75149e-20)
(-0.265536 0.0244833 4.43476e-20)
(-0.277837 0.0491005 7.51404e-20)
(-0.280109 0.0781289 0)
(-0.271721 0.110433 8.67943e-20)
(-0.254467 0.143289 -1.54427e-19)
(-0.231177 0.174201 -1.09525e-19)
(-0.204732 0.200225 -6.25165e-20)
(-0.17797 0.219291 1.05527e-19)
(-0.152717 0.230975 1.28359e-20)
(-0.129575 0.237741 -1.52224e-19)
(-0.243182 0.0138833 -2.56462e-20)
(-0.261555 0.0301263 5.16769e-20)
(-0.282915 0.0492139 0)
(-0.294447 0.0674736 -7.0964e-20)
(-0.295739 0.088698 0)
(-0.286717 0.113233 6.61934e-20)
(-0.268563 0.139288 -9.06095e-20)
(-0.243303 0.163911 1.19873e-19)
(-0.213812 0.183842 2.18336e-19)
(-0.183036 0.197058 -4.18854e-20)
(-0.153141 0.203694 1.0093e-19)
(-0.124854 0.206169 -4.22983e-20)
(-0.255726 0.0353982 0)
(-0.274163 0.0534889 0)
(-0.290836 0.0672404 0)
(-0.296967 0.0769566 -4.46521e-20)
(-0.293329 0.0885462 3.85203e-20)
(-0.281042 0.103717 0)
(-0.261886 0.121797 0)
(-0.237073 0.139899 3.43975e-20)
(-0.208485 0.155001 -5.96031e-20)
(-0.178498 0.164993 3.26628e-20)
(-0.149103 0.16986 -1.0381e-20)
(-0.120897 0.171208 -1.76688e-20)
(-0.268012 0.0564374 -2.31766e-20)
(-0.289162 0.0745008 3.3226e-20)
(-0.3011 0.0803578 -2.18294e-20)
(-0.300247 0.0787841 4.27503e-20)
(-0.28886 0.0793584 -3.69387e-20)
(-0.269358 0.0861526 0)
(-0.24525 0.0983065 2.43334e-20)
(-0.219053 0.112064 -1.72066e-20)
(-0.192232 0.124208 -4.22942e-20)
(-0.165674 0.133024 1.49304e-20)
(-0.139987 0.138346 0)
(-0.115284 0.140683 7.89859e-21)
(-0.281144 0.0706261 1.062e-20)
(-0.303439 0.0880366 -1.83296e-20)
(-0.304543 0.08137 5.40528e-20)
(-0.293652 0.066218 6.10398e-20)
(-0.276595 0.057453 -1.86521e-20)
(-0.254983 0.0602986 -4.04953e-21)
(-0.229597 0.0710324 -2.18536e-20)
(-0.202432 0.0845775 -4.24187e-22)
(-0.175506 0.0969683 4.19174e-21)
(-0.150168 0.106149 -1.2411e-20)
(-0.127195 0.112039 3.76479e-22)
(-0.106368 0.115367 -5.85598e-21)
(-0.281566 0.0958888 -8.26653e-21)
(-0.289712 0.0976739 8.41624e-21)
(-0.267333 0.0665592 -3.45555e-20)
(-0.245132 0.0353729 -5.61438e-20)
(-0.228598 0.022322 0)
(-0.213227 0.026693 3.17504e-20)
(-0.196548 0.04069 8.12288e-23)
(-0.178546 0.0571051 2.27486e-20)
(-0.159299 0.0716623 -7.78845e-21)
(-0.139082 0.0826446 1.73933e-20)
(-0.11878 0.0898215 -1.18065e-20)
(-0.0992749 0.0940081 1.1681e-20)
(-0.280841 0.0480259 0)
(-0.239124 0.0506223 0)
(-0.192956 0.0202002 0)
(-0.168093 -0.00475157 0)
(-0.159936 -0.011117 -8.15164e-21)
(-0.155867 -0.00165998 -2.6222e-21)
(-0.149805 0.0153057 -5.29274e-21)
(-0.141056 0.0332099 -1.84922e-20)
(-0.130263 0.0487619 1.03285e-20)
(-0.117943 0.0608645 -1.44363e-20)
(-0.104417 0.0695627 -4.40198e-20)
(-0.0900256 0.075322 -2.89501e-20)
(-0.0773427 0.0849401 -3.29019e-19)
(-0.0687015 0.0977294 1.75224e-19)
(-0.0607525 0.107588 0)
(-0.057091 0.108373 0)
(-0.056112 0.103584 3.49168e-19)
(-0.0513456 0.0960091 -6.86111e-19)
(-0.0424976 0.0884942 5.17753e-19)
(-0.0304585 0.0837807 -4.08088e-20)
(-0.0167066 0.0836265 -1.77599e-19)
(-0.00323708 0.0916055 1.77091e-19)
(0.00959926 0.107615 -1.34854e-19)
(0.0178186 0.123499 0)
(-0.103438 0.138766 -2.59313e-19)
(-0.110552 0.152862 1.65286e-20)
(-0.116559 0.159605 -2.75756e-21)
(-0.117947 0.163399 2.52642e-19)
(-0.115066 0.167242 6.87254e-20)
(-0.107636 0.168067 -1.55461e-19)
(-0.0920178 0.164981 2.2062e-19)
(-0.0672023 0.159136 0)
(-0.0348965 0.151195 0)
(-0.00236966 0.139687 -4.30547e-20)
(0.0224221 0.138517 2.04291e-20)
(0.0276425 0.140973 0)
(-0.122989 0.203633 -7.16111e-21)
(-0.130672 0.220508 -8.63568e-20)
(-0.137869 0.236987 2.62768e-19)
(-0.145095 0.251411 -1.79414e-19)
(-0.151254 0.261242 0)
(-0.152679 0.266223 9.90777e-20)
(-0.144794 0.264036 -4.95262e-20)
(-0.12297 0.253159 0)
(-0.0842309 0.231919 5.72555e-20)
(-0.0329037 0.202368 -3.76193e-21)
(0.0127059 0.174137 1.00348e-19)
(0.0236215 0.157961 0)
(-0.131676 0.250896 0)
(-0.135523 0.26913 0)
(-0.142806 0.288219 -7.10955e-20)
(-0.153798 0.305604 -6.1464e-20)
(-0.167017 0.319424 0)
(-0.179915 0.328489 0)
(-0.188544 0.33137 -8.29318e-20)
(-0.186112 0.324879 7.59268e-20)
(-0.164437 0.304288 -8.52632e-20)
(-0.116892 0.266388 3.72573e-20)
(-0.0477462 0.2151 -5.47092e-20)
(0.00714316 0.171642 -3.30654e-24)
(-0.123548 0.263328 -2.07973e-19)
(-0.117033 0.276856 1.48863e-20)
(-0.116305 0.290742 0)
(-0.123152 0.303746 -4.07516e-20)
(-0.137987 0.315514 -5.66457e-20)
(-0.159019 0.325928 1.37011e-19)
(-0.182049 0.334532 -1.30066e-19)
(-0.202928 0.340139 -4.1571e-21)
(-0.213177 0.336649 -3.02267e-20)
(-0.197651 0.315849 -3.47698e-20)
(-0.135679 0.271989 -1.89499e-20)
(-0.0246046 0.207904 -9.69805e-21)
(-0.108589 0.243449 -5.41425e-20)
(-0.0910891 0.249357 1.55575e-19)
(-0.0799613 0.254482 -6.67109e-20)
(-0.078002 0.258427 1.01306e-19)
(-0.0861837 0.261615 5.82373e-20)
(-0.103959 0.266292 1.30233e-19)
(-0.130732 0.276286 -5.91174e-20)
(-0.162629 0.289774 -6.19455e-20)
(-0.197482 0.304079 0)
(-0.224918 0.310554 2.45766e-20)
(-0.212957 0.300391 -2.50908e-20)
(-0.101849 0.25962 8.25123e-21)
(-0.0979875 0.207152 1.40521e-19)
(-0.0734908 0.207038 -8.3777e-21)
(-0.0542954 0.20535 6.39093e-20)
(-0.0440812 0.202672 -5.5337e-20)
(-0.0451305 0.200596 7.14945e-20)
(-0.0573867 0.201644 -1.94625e-19)
(-0.0783654 0.206693 5.16229e-20)
(-0.107036 0.219509 5.62514e-20)
(-0.143552 0.238302 4.54304e-20)
(-0.190189 0.258525 2.11575e-20)
(-0.233088 0.278588 -2.00267e-20)
(-0.17833 0.28431 0)
(-0.0935629 0.170442 6.31546e-21)
(-0.0673706 0.167735 -4.53897e-20)
(-0.0443346 0.162996 -5.59431e-20)
(-0.0278834 0.157123 1.2797e-19)
(-0.0212807 0.152237 -1.07644e-19)
(-0.026133 0.151259 1.28489e-19)
(-0.042002 0.1563 -9.93334e-20)
(-0.0681618 0.168226 3.82693e-20)
(-0.10081 0.186159 -7.42046e-20)
(-0.140721 0.20644 2.5402e-20)
(-0.197769 0.234078 0)
(-0.211578 0.278819 -2.37652e-21)
(-0.0910997 0.140637 1.29871e-20)
(-0.067198 0.138307 6.45796e-22)
(-0.044472 0.133679 2.16183e-20)
(-0.0251729 0.127422 0)
(-0.0123417 0.121341 -2.37153e-20)
(-0.00868552 0.118143 -4.75196e-20)
(-0.0156501 0.120717 5.42126e-20)
(-0.033944 0.130439 0)
(-0.0635846 0.148 2.74798e-20)
(-0.10391 0.171858 -1.6759e-20)
(-0.151494 0.20183 -7.22171e-21)
(-0.195727 0.2611 1.93947e-21)
(-0.0866219 0.116637 8.70565e-21)
(-0.0670405 0.115956 3.77068e-21)
(-0.0474672 0.113214 1.08295e-20)
(-0.0288029 0.108585 -1.26124e-20)
(-0.0130413 0.103058 1.51041e-20)
(-0.00287019 0.0985684 1.8287e-20)
(-0.000955142 0.0978859 1.1155e-20)
(-0.00937401 0.103485 -2.62566e-20)
(-0.0298369 0.118023 -7.18743e-21)
(-0.063146 0.142532 -3.84687e-21)
(-0.108379 0.180803 -8.6515e-21)
(-0.147654 0.244328 -2.76933e-21)
(-0.0811506 0.0962265 -2.08253e-20)
(-0.06426 0.0969663 1.68996e-20)
(-0.0480574 0.0962299 -1.06979e-20)
(-0.0321544 0.0939342 1.10447e-20)
(-0.0169627 0.0903119 -1.07315e-20)
(-0.00404227 0.0862588 -9.50924e-21)
(0.0040747 0.0837212 9.48192e-21)
(0.00459099 0.085427 1.10082e-20)
(-0.00477466 0.095579 8.74969e-22)
(-0.0252503 0.117059 -7.27356e-21)
(-0.0555993 0.158944 3.43642e-22)
(-0.0779727 0.226304 1.21173e-20)
(-0.0751669 0.0787749 -2.60799e-20)
(-0.0603648 0.0805582 6.24089e-21)
(-0.0461143 0.0810749 8.1622e-21)
(-0.03242 0.0805109 -7.32179e-21)
(-0.0191246 0.0788919 -1.53148e-21)
(-0.00653999 0.0763417 -1.4292e-21)
(0.00407322 0.0736893 9.34648e-22)
(0.0106204 0.0728334 2.45213e-21)
(0.0111107 0.0778026 5.22189e-21)
(0.00569737 0.0933539 9.99359e-21)
(-0.000515461 0.132475 0)
(0.0202309 0.196223 0)
(0.0134425 0.131351 -1.11714e-20)
(0.00676996 0.120531 0)
(0.00304566 0.102381 0)
(0.00511107 0.0828156 0)
(0.0115335 0.0662307 -8.53928e-20)
(0.0210724 0.0547021 -4.16969e-19)
(0.0332389 0.0503926 2.50302e-19)
(0.0469412 0.0535838 8.30725e-20)
(0.0600554 0.0617074 2.4205e-19)
(0.0699426 0.0707001 -7.41826e-19)
(0.0747734 0.0772313 4.92673e-19)
(0.0775089 0.0801399 -1.5725e-19)
(-0.0151076 0.147332 1.92893e-20)
(-0.0404261 0.131729 0)
(-0.0418614 0.115568 -3.74438e-20)
(-0.0285172 0.100487 0)
(-0.00854534 0.0865578 7.6696e-20)
(0.0141139 0.0750858 -8.15356e-20)
(0.0372966 0.0657524 1.59315e-19)
(0.0591847 0.0606404 -7.42739e-20)
(0.0771633 0.0627787 2.78008e-19)
(0.0883434 0.0733129 -1.52792e-19)
(0.0967487 0.0888125 -5.60448e-19)
(0.115818 0.098036 2.72996e-19)
(-0.0326613 0.166642 -5.00348e-20)
(-0.0553533 0.152641 3.22364e-20)
(-0.0437521 0.147412 1.02498e-19)
(-0.0192125 0.142106 7.26002e-20)
(0.0096903 0.133902 8.10631e-20)
(0.0409719 0.123701 2.40973e-19)
(0.0710793 0.113318 -3.21766e-19)
(0.0974865 0.103884 0)
(0.118339 0.0991568 0)
(0.135245 0.102921 3.71707e-19)
(0.157342 0.110003 -4.51386e-19)
(0.182788 0.115663 4.60983e-22)
(-0.040809 0.190458 -6.07407e-21)
(-0.0485099 0.184002 -6.10458e-20)
(-0.026779 0.192766 -6.41287e-20)
(0.000759654 0.195023 -2.09407e-19)
(0.0324698 0.191111 2.16038e-19)
(0.0668026 0.181362 0)
(0.101897 0.168229 -1.30753e-20)
(0.133574 0.154204 0)
(0.161228 0.142469 2.17123e-19)
(0.187072 0.13545 -2.10843e-19)
(0.212311 0.131451 3.37893e-19)
(0.233257 0.130064 -2.45293e-19)
(-0.0303772 0.211349 -2.29782e-20)
(-0.025525 0.216977 -3.90065e-21)
(-0.00263024 0.234065 1.04034e-19)
(0.0250459 0.242172 0)
(0.0579163 0.242054 1.03431e-20)
(0.0935865 0.233574 -2.15687e-19)
(0.129318 0.218528 9.04936e-20)
(0.163055 0.199605 -3.83087e-19)
(0.193063 0.179913 3.38334e-19)
(0.21831 0.161884 -1.56448e-19)
(0.237493 0.146321 4.88952e-20)
(0.251062 0.133554 -1.11557e-20)
(-0.00974402 0.228946 -1.9061e-20)
(0.00213735 0.243865 -1.8756e-21)
(0.0245083 0.265535 0)
(0.0490317 0.277846 0)
(0.0779531 0.280159 8.45189e-20)
(0.110174 0.271805 1.73947e-19)
(0.142986 0.254558 1.41628e-19)
(0.173905 0.231259 -2.48878e-19)
(0.199981 0.204783 -1.06051e-19)
(0.219131 0.177979 9.25514e-20)
(0.230903 0.152688 1.70274e-19)
(0.237723 0.129527 -6.64187e-20)
(0.0139159 0.243174 8.24776e-22)
(0.0301792 0.26156 -3.28787e-20)
(0.0492147 0.282904 3.20797e-20)
(0.0673725 0.294425 6.1834e-20)
(0.0884835 0.295719 -1.30937e-19)
(0.112941 0.286713 0)
(0.138961 0.268587 0)
(0.163613 0.243341 1.70449e-19)
(0.18362 0.213849 1.04731e-20)
(0.196935 0.183051 -8.72894e-20)
(0.203661 0.153129 -5.27915e-20)
(0.206193 0.124822 1.68728e-20)
(0.0354414 0.255714 5.94406e-22)
(0.0535432 0.27421 -2.65066e-20)
(0.067225 0.290878 7.44937e-20)
(0.0768365 0.296974 0)
(0.0883188 0.293305 4.03328e-20)
(0.103421 0.281 -1.07458e-19)
(0.12149 0.261851 1.43747e-20)
(0.139628 0.23706 2.98238e-20)
(0.154806 0.208484 1.8336e-20)
(0.164892 0.178488 -5.41724e-20)
(0.16984 0.149071 3.95497e-21)
(0.171246 0.120843 3.62076e-20)
(0.0565207 0.267983 6.20899e-21)
(0.0745984 0.28923 0)
(0.0803346 0.301197 -4.52412e-20)
(0.0786046 0.30033 0)
(0.0790885 0.288911 5.54334e-20)
(0.0858455 0.269369 -4.01131e-20)
(0.0980233 0.245235 4.09773e-20)
(0.111835 0.219029 1.21528e-20)
(0.124053 0.192199 2.6298e-20)
(0.132946 0.16563 -7.90244e-21)
(0.138335 0.139925 -2.28216e-21)
(0.14072 0.115203 5.23218e-21)
(0.0706872 0.281094 -3.68473e-22)
(0.0881061 0.303437 -8.48603e-21)
(0.0812402 0.304497 1.87514e-20)
(0.0659111 0.293551 -2.73789e-20)
(0.0570958 0.276497 -7.47006e-21)
(0.0599569 0.254925 -1.82296e-20)
(0.0707408 0.229582 -8.13439e-21)
(0.0843628 0.202435 -2.54756e-21)
(0.0968392 0.175494 3.37888e-21)
(0.106095 0.150125 1.94219e-20)
(0.11204 0.127118 7.03105e-21)
(0.115405 0.106266 1.73286e-20)
(0.0959308 0.281597 -7.57108e-22)
(0.0977159 0.28967 -8.34321e-21)
(0.0663799 0.267214 0)
(0.0350685 0.244996 2.18552e-20)
(0.0219986 0.228493 -8.98994e-21)
(0.0264063 0.213161 -3.14762e-20)
(0.0404604 0.196514 8.06248e-21)
(0.0569435 0.178533 1.54846e-20)
(0.0715686 0.159295 0)
(0.0826127 0.139067 -1.76932e-20)
(0.0898353 0.118733 -2.81941e-20)
(0.0940517 0.0991885 -1.73859e-20)
(0.0481265 0.281001 -6.73376e-21)
(0.050559 0.239085 6.61479e-21)
(0.0199894 0.192863 0)
(-0.00498639 0.16804 -3.87539e-20)
(-0.0113301 0.159957 7.98916e-21)
(-0.00183712 0.155939 2.49215e-21)
(0.0151765 0.149901 0)
(0.0331358 0.141148 1.45244e-20)
(0.0487425 0.130334 -4.90371e-20)
(0.0608946 0.117987 -1.38416e-21)
(0.0696311 0.104429 1.1478e-20)
(0.0754126 0.0900017 0)
(0.0848881 0.0773074 -4.85553e-19)
(0.0976324 0.0687047 -1.94956e-22)
(0.10751 0.0607336 2.51355e-19)
(0.108332 0.0570319 0)
(0.103548 0.0560498 0)
(0.0959667 0.051303 0)
(0.0884394 0.0424697 1.76453e-19)
(0.0837117 0.0304344 -3.96611e-19)
(0.0835494 0.0166754 8.84436e-20)
(0.0915343 0.00319391 8.83686e-20)
(0.107566 -0.00964418 -1.3512e-19)
(0.123484 -0.0178468 1.10031e-20)
(0.138542 0.103238 1.38203e-19)
(0.152698 0.110348 3.70886e-19)
(0.159449 0.116393 -5.03491e-19)
(0.16322 0.117827 2.53067e-19)
(0.167045 0.114968 2.70955e-19)
(0.167869 0.107573 -1.14881e-19)
(0.16479 0.0919905 -2.9286e-19)
(0.158961 0.0671966 0)
(0.15106 0.0348873 8.73927e-20)
(0.139597 0.00233256 0)
(0.138459 -0.0224979 6.00712e-20)
(0.140957 -0.0277199 -5.87773e-20)
(0.203404 0.122713 1.94988e-19)
(0.220263 0.130414 -1.40352e-20)
(0.236713 0.137634 0)
(0.251126 0.144879 -1.86618e-19)
(0.260947 0.151067 4.65248e-19)
(0.265928 0.152523 -8.57697e-20)
(0.263758 0.144659 0)
(0.252919 0.122836 0)
(0.231735 0.0840786 -5.746e-20)
(0.202258 0.032734 -1.26561e-19)
(0.174104 -0.0128604 6.8947e-20)
(0.157958 -0.0237374 8.52685e-21)
(0.250707 0.131448 -1.25313e-19)
(0.268914 0.135303 5.884e-20)
(0.28799 0.142599 -2.60455e-19)
(0.305376 0.153611 1.29993e-19)
(0.319202 0.166856 6.95103e-20)
(0.328275 0.179771 -1.41974e-19)
(0.331165 0.188402 0)
(0.324683 0.185938 -7.61878e-20)
(0.304102 0.16419 8.55857e-20)
(0.26622 0.116561 4.94706e-20)
(0.214978 0.0474212 2.33927e-20)
(0.171632 -0.00727761 -1.27677e-20)
(0.263236 0.123422 9.72224e-20)
(0.276773 0.11691 0)
(0.290685 0.116191 1.04801e-19)
(0.303719 0.123055 -2.03884e-19)
(0.315517 0.137915 -1.26977e-19)
(0.325959 0.158978 1.89339e-19)
(0.334576 0.182027 4.15967e-21)
(0.340173 0.202886 7.12711e-20)
(0.336646 0.213051 -9.99365e-20)
(0.315783 0.197373 6.14461e-20)
(0.271849 0.135281 -7.16475e-20)
(0.207785 0.024376 3.2012e-20)
(0.243461 0.108534 -8.80619e-20)
(0.24941 0.0910324 -1.29458e-19)
(0.254586 0.0799074 -6.69094e-20)
(0.25858 0.0779575 2.01595e-19)
(0.261813 0.0861604 -3.08634e-21)
(0.266529 0.103972 -3.11252e-19)
(0.276544 0.130786 2.54831e-19)
(0.290039 0.162717 0)
(0.304319 0.197559 0)
(0.310728 0.22487 -2.769e-20)
(0.300429 0.212643 2.21799e-20)
(0.259495 0.10144 1.86073e-24)
(0.207223 0.0979433 7.25419e-20)
(0.20716 0.0734361 2.28216e-20)
(0.205525 0.0542321 8.10317e-20)
(0.202892 0.044018 7.03498e-20)
(0.200851 0.0450829 -1.70488e-19)
(0.201918 0.0573737 1.13099e-19)
(0.20697 0.0783847 -6.40054e-20)
(0.219804 0.107089 0)
(0.238602 0.143663 0)
(0.258817 0.190329 0)
(0.278827 0.233054 -1.12044e-20)
(0.284296 0.177987 -5.89079e-21)
(0.170525 0.0934909 -4.49512e-20)
(0.167859 0.0672802 5.32259e-21)
(0.163156 0.0442244 6.52436e-21)
(0.157309 0.0277603 1.65217e-20)
(0.15244 0.0211626 0)
(0.151472 0.0260459 0)
(0.156522 0.041967 -6.23499e-20)
(0.168459 0.0681885 0)
(0.186389 0.100865 0)
(0.206646 0.14083 -1.58738e-20)
(0.234339 0.197898 1.48598e-20)
(0.278881 0.211432 -1.87816e-21)
(0.14071 0.0910004 -2.18052e-21)
(0.138406 0.0670781 0)
(0.133794 0.0443279 2.9764e-20)
(0.127542 0.0250073 -2.82837e-21)
(0.121458 0.012169 -2.61135e-20)
(0.118253 0.00853003 -1.00092e-20)
(0.120829 0.015539 9.63234e-20)
(0.130562 0.0338981 -2.20665e-20)
(0.148137 0.0636115 2.21134e-20)
(0.17199 0.103988 0)
(0.20199 0.151584 1.63643e-21)
(0.26115 0.195738 -4.6212e-21)
(0.1167 0.0865035 -3.63777e-21)
(0.116033 0.0669075 -2.44044e-21)
(0.113296 0.0473162 1.11868e-21)
(0.10866 0.0286313 -7.36389e-21)
(0.103113 0.0128544 -1.16753e-20)
(0.0985988 0.00268352 -2.82739e-20)
(0.0978961 0.000790711 -1.14171e-20)
(0.103486 0.00925645 1.16883e-20)
(0.118034 0.0297938 -7.86121e-21)
(0.142568 0.0631883 0)
(0.180879 0.108481 -5.89237e-21)
(0.244314 0.147715 -2.22408e-22)
(0.0962885 0.0810324 0)
(0.0970363 0.0641221 0)
(0.0962978 0.0479073 -2.30389e-21)
(0.093989 0.0319941 0)
(0.0903411 0.016793 1.78138e-20)
(0.0862519 0.00386789 5.85419e-21)
(0.0836748 -0.00424266 6.14707e-21)
(0.0853472 -0.00473513 0)
(0.0954847 0.00467902 1.22829e-20)
(0.116989 0.0252238 0)
(0.158933 0.0556456 1.30872e-21)
(0.226283 0.0780526 -6.54854e-21)
(0.0788728 0.0751022 0)
(0.0806502 0.0602636 2.89623e-20)
(0.0811524 0.0459883 -7.68564e-21)
(0.0805669 0.0322811 0)
(0.0789178 0.0189817 -7.51232e-21)
(0.0763273 0.00639809 -4.47074e-21)
(0.0736259 -0.0042102 -6.39205e-21)
(0.0727177 -0.0107472 -3.48667e-21)
(0.0776454 -0.0112186 -4.67385e-21)
(0.0931861 -0.00576719 0)
(0.132337 0.000509136 3.13767e-20)
(0.19607 -0.0201544 7.39107e-21)
(0.131354 -0.0134493 5.74242e-20)
(0.120549 -0.0067923 -6.71854e-20)
(0.102413 -0.00308102 0)
(0.0828635 -0.00515795 1.27637e-19)
(0.0662976 -0.0115906 -8.36078e-20)
(0.0547866 -0.0211363 -2.53146e-19)
(0.0504969 -0.033303 -8.33049e-20)
(0.0536973 -0.0469935 0)
(0.0618093 -0.0600859 0)
(0.0707697 -0.0699451 -2.43969e-19)
(0.0772699 -0.0747541 0)
(0.0801602 -0.0774998 0)
(0.147335 0.0150794 -9.44009e-21)
(0.131746 0.0403788 7.62782e-20)
(0.115593 0.0418065 -3.57963e-20)
(0.100519 0.0284526 0)
(0.0866021 0.00847017 2.35166e-19)
(0.0751484 -0.014196 -8.14654e-20)
(0.0658378 -0.0373719 0)
(0.0607582 -0.0592416 4.43953e-19)
(0.0629282 -0.077186 1.26224e-19)
(0.0734799 -0.0883316 1.27446e-19)
(0.088946 -0.0967798 -1.17504e-20)
(0.0980959 -0.115948 -4.16483e-19)
(0.166638 0.0326208 1.63808e-20)
(0.152642 0.0553094 -3.22767e-20)
(0.147399 0.0437095 -3.47165e-20)
(0.142087 0.0191563 -7.89321e-20)
(0.13388 -0.00976069 1.54604e-19)
(0.123696 -0.0410561 0)
(0.113348 -0.0711576 0)
(0.103953 -0.0975332 -1.47403e-19)
(0.0992782 -0.118354 1.25932e-19)
(0.103074 -0.135291 -5.09717e-19)
(0.110125 -0.157464 2.39403e-19)
(0.115765 -0.182922 -3.21239e-21)
(0.190451 0.0407825 -2.29772e-20)
(0.183989 0.0484919 1.20339e-19)
(0.19273 0.0267511 -6.16595e-20)
(0.194981 -0.000817263 -7.01808e-20)
(0.191063 -0.0325486 0)
(0.181316 -0.0668925 -4.36739e-19)